Written by MDAnalysis
260000
    1DA     BB1    1  85.309  65.129  49.906
    1DA     BB2    2  85.389  64.919  49.640
    1DA     BB3    3  85.585  64.839  49.663
    1DA     SC1    4  85.710  65.061  49.513
    1DA     SC2    5  85.818  65.092  49.306
    1DA     SC3    6  85.913  65.292  49.407
    1DA     SC4    7  85.760  65.180  49.594
    2DG     BB1    8  85.438  64.528  49.699
    2DG     BB2    9  85.611  64.490  49.384
    2DG     BB3   10  85.799  64.433  49.415
    2DG     SC1   11  85.910  64.717  49.434
    2DG     SC2   12  86.097  64.845  49.241
    2DG     SC3   13  86.061  65.015  49.480
    2DG     SC4   14  85.911  64.791  49.576
    3DA     BB1   15  85.736  64.176  49.192
    3DA     BB2   16  85.999  64.304  48.971
    3DA     BB3   17  86.192  64.250  49.046
    3DA     SC1   18  86.225  64.508  49.216
    3DA     SC2   19  86.365  64.715  49.212
    3DA     SC3   20  86.304  64.736  49.460
    3DA     SC4   21  86.177  64.503  49.369
    4DT     BB1   22  86.295  64.127  48.934
    4DT     BB2   23  86.528  64.371  48.808
    4DT     BB3   24  86.710  64.352  48.905
    4DT     SC1   25  86.615  64.464  49.122
    4DT     SC2   26  86.705  64.657  49.148
    4DT     SC3   27  86.538  64.494  49.372
    5DT     BB1   28  86.813  64.251  48.677
    5DT     BB2   29  87.021  64.536  48.753
    5DT     BB3   30  87.171  64.481  48.885
    5DT     SC1   31  87.002  64.471  49.086
    5DT     SC2   32  87.044  64.632  49.221
    5DT     SC3   33  86.859  64.374  49.284
    6DT     BB1   34  87.352  64.501  48.684
    6DT     BB2   35  87.474  64.724  48.941
    6DT     BB3   36  87.590  64.619  49.076
    6DT     SC1   37  87.377  64.510  49.185
    6DT     SC2   38  87.349  64.589  49.383
    6DT     SC3   39  87.205  64.325  49.262
    7DA     BB1   40  87.829  64.941  48.952
    7DA     BB2   41  87.835  64.933  49.319
    7DA     BB3   42  87.958  64.773  49.388
    7DA     SC1   43  87.726  64.566  49.399
    7DA     SC2   44  87.596  64.444  49.573
    7DA     SC3   45  87.536  64.281  49.384
    7DA     SC4   46  87.702  64.475  49.269
    8DT     BB1   47  88.137  64.813  49.491
    8DT     BB2   48  88.012  64.727  49.818
    8DT     BB3   49  88.093  64.547  49.880
    8DT     SC1   50  87.937  64.412  49.717
    8DT     SC2   51  87.792  64.302  49.832
    8DT     SC3   52  87.862  64.256  49.519
    9DT     BB1   53  88.245  64.679  50.061
    9DT     BB2   54  88.045  64.451  50.256
    9DT     BB3   55  88.140  64.267  50.269
    9DT     SC1   56  88.077  64.209  50.021
    9DT     SC2   57  87.931  64.051  50.019
    9DT     SC3   58  88.104  64.152  49.765
   10DG     BB1   59  88.049  64.424  50.631
   10DG     BB2   60  87.913  64.092  50.588
   10DG     BB3   61  88.058  63.957  50.604
   10DG     SC1   62  88.126  63.960  50.305
   10DG     SC2   63  88.086  63.734  50.114
   10DG     SC3   64  88.241  63.953  49.988
   10DG     SC4   65  88.234  64.065  50.251
   11DT     BB1   66  88.004  63.845  50.740
   11DT     BB2   67  87.915  63.543  50.563
   11DT     BB3   68  88.079  63.418  50.550
   11DT     SC1   69  88.188  63.568  50.364
   11DT     SC2   70  88.185  63.463  50.177
   11DT     SC3   71  88.360  63.728  50.244
   12DT     BB1   72  87.906  63.300  50.695
   12DT     BB2   73  87.979  63.080  50.419
   12DT     BB3   74  88.168  62.998  50.441
   12DT     SC1   75  88.282  63.224  50.372
   12DT     SC2   76  88.375  63.201  50.180
   12DT     SC3   77  88.427  63.444  50.388
   13DA     BB1   78  87.869  62.715  50.341
   13DA     BB2   79  88.165  62.656  50.133
   13DA     BB3   80  88.328  62.591  50.254
   13DA     SC1   81  88.437  62.877  50.306
   13DA     SC2   82  88.635  63.015  50.241
   13DA     SC3   83  88.576  63.159  50.446
   13DA     SC4   84  88.385  62.953  50.438
   14DT     BB1   85  88.377  62.420  50.212
   14DT     BB2   86  88.693  62.495  50.054
   14DT     BB3   87  88.847  62.471  50.190
   14DT     SC1   88  88.785  62.694  50.313
   14DT     SC2   89  88.938  62.841  50.276
   14DT     SC3   90  88.707  62.859  50.503
   15DG     BB1   91  88.926  62.227  49.872
   15DG     BB2   92  89.212  62.432  49.956
   15DG     BB3   93  89.302  62.360  50.119
   15DG     SC1   94  89.134  62.526  50.314
   15DG     SC2   95  89.236  62.746  50.489
   15DG     SC3   96  88.956  62.678  50.557
   15DG     SC4   97  88.996  62.467  50.368
   16DT     BB1   98  89.510  62.282  50.115
   16DT     BB2   99  89.691  62.542  50.287
   16DT     BB3  100  89.732  62.483  50.481
   16DT     SC1  101  89.483  62.521  50.555
   16DT     SC2  102  89.473  62.691  50.687
   16DT     SC3  103  89.240  62.471  50.642
   17DC     BB1  104  89.998  62.444  50.425
   17DC     BB2  105  90.000  62.673  50.704
   17DC     BB3  106  89.996  62.567  50.882
   17DC     SC1  107  89.742  62.510  50.850
   17DC     SC2  108  89.626  62.618  50.996
   17DC     SC3  109  89.521  62.369  50.816
   18DC     BB1  110  90.262  62.617  50.941
   18DC     BB2  111  90.085  62.737  51.231
   18DC     BB3  112  90.061  62.583  51.368
   18DC     SC1  113  89.873  62.473  51.222
   18DC     SC2  114  89.684  62.493  51.322
   18DC     SC3  115  89.747  62.296  51.072
   19DT     BB1  116  90.256  62.674  51.550
   19DT     BB2  117  89.958  62.647  51.751
   19DT     BB3  118  89.945  62.458  51.835
   19DT     SC1  119  89.875  62.353  51.605
   19DT     SC2  120  89.670  62.290  51.615
   19DT     SC3  121  89.884  62.204  51.387
   20DA     BB1  122  89.919  62.703  52.177
   20DA     BB2  123  89.641  62.464  52.193
   20DA     BB3  124  89.710  62.273  52.256
   20DA     SC1  125  89.766  62.171  51.967
   20DA     SC2  126  89.670  62.003  51.809
   20DA     SC3  127  89.897  62.017  51.690
   20DA     SC4  128  89.914  62.192  51.908
   21DT     BB1  129  89.660  62.171  52.455
   21DT     BB2  130  89.423  61.937  52.315
   21DT     BB3  131  89.499  61.745  52.324
   21DT     SC1  132  89.664  61.793  52.125
   21DT     SC2  133  89.602  61.681  51.952
   21DT     SC3  134  89.889  61.825  51.992
   22DA     BB1  135  89.121  61.731  52.503
   22DA     BB2  136  89.134  61.469  52.247
   22DA     BB3  137  89.254  61.306  52.314
   22DA     SC1  138  89.518  61.418  52.195
   22DA     SC2  139  89.676  61.362  52.010
   22DA     SC3  140  89.846  61.505  52.140
   22DA     SC4  141  89.610  61.509  52.291
   23DT     BB1  142  89.158  61.139  52.339
   23DT     BB2  143  89.282  60.976  52.041
   23DT     BB3  144  89.429  60.840  52.092
   23DT     SC1  145  89.603  61.031  52.135
   23DT     SC2  146  89.754  61.026  51.982
   23DT     SC3  147  89.772  61.188  52.262
   24DA     BB1  148  89.142  60.662  51.842
   24DA     BB2  149  89.475  60.586  51.708
   24DA     BB3  150  89.576  60.448  51.835
   24DA     SC1  151  89.709  60.667  52.010
   24DA     SC2  152  89.938  60.758  52.049
   24DA     SC3  153  89.842  60.849  52.269
   24DA     SC4  154  89.631  60.714  52.143
   25DA     BB1  155  89.601  60.298  51.544
   25DA     BB2  156  89.964  60.322  51.588
   25DA     BB3  157  90.030  60.184  51.737
   25DA     SC1  158  90.000  60.385  51.972
   25DA     SC2  159  90.149  60.511  52.128
   25DA     SC3  160  89.941  60.533  52.277
   25DA     SC4  161  89.860  60.386  52.052
   26DA     BB1  162  90.234  60.081  51.498
   26DA     BB2  163  90.512  60.175  51.719
   26DA     BB3  164  90.537  60.030  51.873
   26DA     SC1  165  90.345  60.172  52.073
   26DA     SC2  166  90.362  60.297  52.288
   26DA     SC3  167  90.112  60.244  52.315
   26DA     SC4  168  90.190  60.128  52.072
   27DT     BB1  169  90.711  59.900  51.888
   27DT     BB2  170  90.865  60.074  52.164
   27DT     BB3  171  90.852  59.960  52.336
   27DT     SC1  172  90.597  60.015  52.362
   27DT     SC2  173  90.568  60.142  52.533
   27DT     SC3  174  90.335  59.980  52.376
   28DG     BB1  175  91.254  60.009  52.284
   28DG     BB2  176  91.150  60.121  52.612
   28DG     BB3  177  91.133  59.966  52.735
   28DG     SC1  178  90.840  59.912  52.667
   28DG     SC2  179  90.608  59.944  52.853
   28DG     SC3  180  90.524  59.812  52.603
   28DG     SC4  181  90.805  59.815  52.545
   29DG     BB1  182  91.348  60.125  52.914
   29DG     BB2  183  91.078  60.156  53.153
   29DG     BB3  184  91.065  59.991  53.263
   29DG     SC1  185  90.871  59.850  53.072
   29DG     SC2  186  90.586  59.781  53.132
   29DG     SC3  187  90.673  59.659  52.877
   29DG     SC4  188  90.929  59.763  52.952
   30DT     BB1  189  91.080  60.054  53.431
   30DT     BB2  190  90.740  60.030  53.549
   30DT     BB3  191  90.710  59.847  53.641
   30DT     SC1  192  90.704  59.723  53.410
   30DT     SC2  193  90.505  59.654  53.371
   30DT     SC3  194  90.772  59.560  53.214
   31DA     BB1  195  90.547  60.233  53.764
   31DA     BB2  196  90.288  59.973  53.775
   31DA     BB3  197  90.346  59.816  53.908
   31DA     SC1  198  90.488  59.649  53.687
   31DA     SC2  199  90.451  59.434  53.566
   31DA     SC3  200  90.702  59.445  53.512
   31DA     SC4  201  90.646  59.673  53.665
   32DA     BB1  202  90.026  59.937  53.908
   32DA     BB2  203  89.942  59.580  53.885
   32DA     BB3  204  90.031  59.473  54.046
   32DA     SC1  205  90.293  59.408  53.890
   32DA     SC2  206  90.404  59.209  53.791
   32DA     SC3  207  90.619  59.349  53.801
   32DA     SC4  208  90.415  59.511  53.906
   33DC     BB1  209  89.899  59.413  54.135
   33DC     BB2  210  89.949  59.061  54.077
   33DC     BB3  211  90.072  58.982  54.223
   33DC     SC1  212  90.284  59.093  54.115
   33DC     SC2  213  90.409  58.940  54.030
   33DC     SC3  214  90.496  59.247  54.086
   34DA     BB1  215  89.736  58.728  54.247
   34DA     BB2  216  90.033  58.513  54.261
   34DA     BB3  217  90.125  58.526  54.453
   34DA     SC1  218  90.313  58.761  54.373
   34DA     SC2  219  90.557  58.797  54.334
   34DA     SC3  220  90.505  59.046  54.370
   34DA     SC4  221  90.261  58.911  54.400
   35DC     BB1  222  90.137  58.363  54.637
   35DC     BB2  223  90.487  58.282  54.600
   35DC     BB3  224  90.593  58.350  54.765
   35DC     SC1  225  90.578  58.598  54.682
   35DC     SC2  226  90.773  58.665  54.621
   35DC     SC3  227  90.516  58.855  54.676
   36DT     BB1  228  90.639  58.098  54.923
   36DT     BB2  229  90.973  58.228  54.881
   36DT     BB3  230  91.029  58.336  55.048
   36DT     SC1  231  90.875  58.537  54.979
   36DT     SC2  232  90.998  58.704  54.920
   36DT     SC3  233  90.681  58.715  54.986
   37DT     BB1  234  91.212  58.145  55.168
   37DT     BB2  235  91.415  58.439  55.124
   37DT     BB3  236  91.416  58.552  55.298
   37DT     SC1  237  91.172  58.637  55.253
   37DT     SC2  238  91.177  58.847  55.204
   37DT     SC3  239  90.913  58.677  55.284
   38DT     BB1  240  91.676  58.482  55.354
   38DT     BB2  241  91.682  58.842  55.332
   38DT     BB3  242  91.645  58.924  55.518
   38DT     SC1  243  91.389  58.865  55.501
   38DT     SC2  244  91.276  59.046  55.479
   38DT     SC3  245  91.156  58.755  55.556
   39DA     BB1  246  91.984  59.092  55.341
   39DA     BB2  247  91.767  59.365  55.457
   39DA     BB3  248  91.769  59.376  55.670
   39DA     SC1  249  91.528  59.184  55.708
   39DA     SC2  250  91.290  59.198  55.782
   39DA     SC3  251  91.309  58.946  55.823
   39DA     SC4  252  91.560  59.028  55.727
   40DA     BB1  253  91.827  59.675  55.554
   40DA     BB2  254  91.531  59.778  55.745
   40DA     BB3  255  91.570  59.767  55.955
   40DA     SC1  256  91.471  59.473  55.982
   40DA     SC2  257  91.279  59.352  56.085
   40DA     SC3  258  91.429  59.144  56.072
   40DA     SC4  259  91.580  59.356  55.966
   41DA     BB1  260  91.451  60.069  55.914
   41DA     BB2  261  91.196  59.978  56.161
   41DA     BB3  262  91.283  59.959  56.354
   41DA     SC1  263  91.345  59.656  56.324
   41DA     SC2  264  91.264  59.441  56.420
   41DA     SC3  265  91.487  59.344  56.338
   41DA     SC4  266  91.490  59.615  56.267
   42DA     BB1  267  91.037  60.169  56.424
   42DA     BB2  268  90.924  59.922  56.670
   42DA     BB3  269  91.057  59.916  56.837
   42DA     SC1  270  91.238  59.694  56.715
   42DA     SC2  271  91.290  59.454  56.759
   42DA     SC3  272  91.504  59.497  56.623
   42DA     SC4  273  91.366  59.741  56.629
   43DA     BB1  274  90.787  59.972  57.026
   43DA     BB2  275  90.860  59.656  57.198
   43DA     BB3  276  91.022  59.682  57.334
   43DA     SC1  277  91.241  59.605  57.127
   43DA     SC2  278  91.400  59.417  57.087
   43DA     SC3  279  91.530  59.585  56.942
   43DA     SC4  280  91.308  59.724  57.042
   44DA     BB1  281  90.827  59.568  57.585
   44DA     BB2  282  91.066  59.293  57.631
   44DA     BB3  283  91.234  59.360  57.744
   44DA     SC1  284  91.399  59.445  57.494
   44DA     SC2  285  91.603  59.368  57.373
   44DA     SC3  286  91.609  59.605  57.275
   44DA     SC4  287  91.386  59.597  57.445
   45DT     BB1  288  91.291  59.296  57.959
   45DT     BB2  289  91.567  59.083  57.867
   45DT     BB3  290  91.745  59.168  57.928
   45DT     SC1  291  91.736  59.344  57.733
   45DT     SC2  292  91.890  59.301  57.590
   45DT     SC3  293  91.721  59.577  57.610
   46DA     BB1  294  91.765  58.788  58.108
   46DA     BB2  295  92.082  58.839  57.930
   46DA     BB3  296  92.209  58.970  58.041
   46DA     SC1  297  92.104  59.229  57.904
   46DA     SC2  298  92.188  59.400  57.744
   46DA     SC3  299  92.001  59.549  57.836
   46DA     SC4  300  91.982  59.306  57.975
   47DA     BB1  301  92.435  58.727  58.024
   47DA     BB2  302  92.645  58.958  57.831
   47DA     BB3  303  92.745  59.094  57.961
   47DA     SC1  304  92.520  59.308  57.949
   47DA     SC2  305  92.487  59.537  57.854
   47DA     SC3  306  92.295  59.557  58.023
   47DA     SC4  307  92.405  59.302  58.062
   48DA     BB1  308  93.018  58.984  57.812
   48DA     BB2  309  93.068  59.326  57.690
   48DA     BB3  310  93.149  59.449  57.844
   48DA     SC1  311  92.871  59.540  57.950
   48DA     SC2  312  92.735  59.749  57.955
   48DA     SC3  313  92.607  59.637  58.148
   48DA     SC4  314  92.805  59.455  58.069
   49DA     BB1  315  93.379  59.509  57.617
   49DA     BB2  316  93.270  59.859  57.627
   49DA     BB3  317  93.348  59.956  57.800
   49DA     SC1  318  93.103  59.888  57.979
   49DA     SC2  319  92.913  60.009  58.086
   49DA     SC3  320  92.897  59.804  58.241
   49DA     SC4  321  93.110  59.752  58.066
   50DA     BB1  322  93.456  60.163  57.572
   50DA     BB2  323  93.246  60.418  57.732
   50DA     BB3  324  93.338  60.487  57.911
   50DA     SC1  325  93.200  60.276  58.093
   50DA     SC2  326  93.025  60.271  58.271
   50DA     SC3  327  93.128  60.046  58.338
   50DA     SC4  328  93.279  60.138  58.120
   51DT     BB1  329  93.392  60.676  57.911
   51DT     BB2  330  93.124  60.795  58.120
   51DT     BB3  331  93.194  60.832  58.311
   51DT     SC1  332  93.206  60.575  58.365
   51DT     SC2  333  93.054  60.526  58.510
   51DT     SC3  334  93.305  60.339  58.426
   52DT     BB1  335  93.155  61.086  58.250
   52DT     BB2  336  92.952  61.026  58.542
   52DT     BB3  337  93.067  61.042  58.713
   52DT     SC1  338  93.181  60.810  58.668
   52DT     SC2  339  93.114  60.668  58.815
   52DT     SC3  340  93.367  60.631  58.617
   53DT     BB1  341  92.927  61.261  58.754
   53DT     BB2  342  92.875  61.060  59.049
   53DT     BB3  343  93.033  61.085  59.180
   53DT     SC1  344  93.191  60.938  59.031
   53DT     SC2  345  93.232  60.752  59.132
   53DT     SC3  346  93.392  60.868  58.875
   54DA     BB1  347  92.671  61.137  59.386
   54DA     BB2  348  92.886  60.917  59.586
   54DA     BB3  349  93.048  61.028  59.669
   54DA     SC1  350  93.239  60.976  59.429
   54DA     SC2  351  93.447  60.846  59.383
   54DA     SC3  352  93.477  61.004  59.183
   54DA     SC4  353  93.241  61.085  59.311
   55DT     BB1  354  93.059  61.057  59.874
   55DT     BB2  355  93.336  60.836  59.940
   55DT     BB3  356  93.508  60.947  59.975
   55DT     SC1  357  93.533  61.002  59.720
   55DT     SC2  358  93.704  60.899  59.640
   55DT     SC3  359  93.545  61.142  59.496
   56DC     BB1  360  93.517  60.914  60.260
   56DC     BB2  361  93.844  60.803  60.154
   56DC     BB3  362  93.977  60.962  60.159
   56DC     SC1  363  93.873  61.065  59.941
   56DC     SC2  364  94.014  61.048  59.779
   56DC     SC3  365  93.750  61.235  59.781
   57DA     BB1  366  94.186  60.695  60.413
   57DA     BB2  367  94.428  60.813  60.164
   57DA     BB3  368  94.500  61.008  60.216
   57DA     SC1  369  94.279  61.158  60.056
   57DA     SC2  370  94.264  61.299  59.851
   57DA     SC3  371  94.043  61.383  59.949
   57DA     SC4  372  94.145  61.199  60.134
   58DT     BB1  373  94.723  61.074  60.290
   58DT     BB2  374  94.818  61.218  59.973
   58DT     BB3  375  94.845  61.423  59.993
   58DT     SC1  376  94.586  61.463  60.004
   58DT     SC2  377  94.522  61.564  59.825
   58DT     SC3  378  94.349  61.532  60.098
   59DA     BB1  379  95.200  61.284  59.824
   59DA     BB2  380  95.075  61.555  59.612
   59DA     BB3  381  95.116  61.744  59.702
   59DA     SC1  382  94.847  61.757  59.856
   59DA     SC2  383  94.635  61.889  59.848
   59DA     SC3  384  94.601  61.811  60.090
   59DA     SC4  385  94.844  61.699  60.006
   60DC     BB1  386  95.233  61.846  59.598
   60DC     BB2  387  94.980  62.065  59.464
   60DC     BB3  388  94.987  62.248  59.560
   60DC     SC1  389  94.875  62.148  59.775
   60DC     SC2  390  94.676  62.228  59.796
   60DC     SC3  391  94.843  62.071  60.025
   61DC     BB1  392  95.056  62.302  59.320
   61DC     BB2  393  94.760  62.496  59.385
   61DC     BB3  394  94.807  62.661  59.500
   61DC     SC1  395  94.833  62.513  59.715
   61DC     SC2  396  94.672  62.556  59.851
   61DC     SC3  397  94.943  62.395  59.924
   62DC     BB1  398  94.721  62.734  59.273
   62DC     BB2  399  94.506  62.885  59.521
   62DC     BB3  400  94.610  63.032  59.624
   62DC     SC1  401  94.746  62.853  59.759
   62DC     SC2  402  94.683  62.856  59.965
   62DC     SC3  403  94.950  62.713  59.850
   63DT     BB1  404  94.435  63.169  59.495
   63DT     BB2  405  94.392  63.255  59.842
   63DT     BB3  406  94.542  63.384  59.902
   63DT     SC1  407  94.718  63.189  59.908
   63DT     SC2  408  94.773  63.149  60.111
   63DT     SC3  409  94.931  63.046  59.848
   64DT     BB1  410  94.348  63.561  59.911
   64DT     BB2  411  94.499  63.569  60.239
   64DT     BB3  412  94.670  63.685  60.235
   64DT     SC1  413  94.804  63.497  60.109
   64DT     SC2  414  94.952  63.415  60.242
   64DT     SC3  415  94.941  63.374  59.921
   65DC     BB1  416  94.537  63.871  60.374
   65DC     BB2  417  94.832  63.803  60.571
   65DC     BB3  418  94.991  63.917  60.501
   65DC     SC1  419  95.019  63.762  60.291
   65DC     SC2  420  95.203  63.651  60.308
   65DC     SC3  421  95.026  63.685  60.039
   66DA     BB1  422  94.965  63.980  60.915
   66DA     BB2  423  95.316  63.910  60.833
   66DA     BB3  424  95.403  64.076  60.732
   66DA     SC1  425  95.328  63.973  60.448
   66DA     SC2  426  95.446  63.882  60.248
   66DA     SC3  427  95.234  63.947  60.119
   66DA     SC4  428  95.189  64.022  60.385
   67DT     BB1  429  95.546  64.174  60.825
   67DT     BB2  430  95.822  64.056  60.624
   67DT     BB3  431  95.880  64.203  60.490
   67DT     SC1  432  95.670  64.160  60.339
   67DT     SC2  433  95.732  64.070  60.154
   67DT     SC3  434  95.442  64.201  60.213
   68DC     BB1  435  96.104  64.244  60.635
   68DC     BB2  436  96.225  64.176  60.302
   68DC     BB3  437  96.226  64.350  60.191
   68DC     SC1  438  95.965  64.345  60.165
   68DC     SC2  439  95.915  64.302  59.960
   68DC     SC3  440  95.712  64.417  60.185
   69DT     BB1  441  96.499  64.365  60.203
   69DT     BB2  442  96.427  64.378  59.850
   69DT     BB3  443  96.391  64.574  59.792
   69DT     SC1  444  96.153  64.571  59.904
   69DT     SC2  445  96.002  64.576  59.751
   69DT     SC3  446  95.955  64.633  60.067
   70DA     BB1  447  96.699  64.468  59.523
   70DA     BB2  448  96.436  64.629  59.324
   70DA     BB3  449  96.441  64.840  59.352
   70DA     SC1  450  96.243  64.838  59.592
   70DA     SC2  451  96.009  64.911  59.638
   70DA     SC3  452  96.078  64.904  59.886
   70DA     SC4  453  96.306  64.829  59.740
   71DT     BB1  454  96.509  65.032  59.196
   71DT     BB2  455  96.175  65.149  59.132
   71DT     BB3  456  96.150  65.339  59.212
   71DT     SC1  457  96.136  65.242  59.456
   71DT     SC2  458  95.935  65.265  59.530
   71DT     SC3  459  96.197  65.195  59.708
   72DG     BB1  460  96.090  65.456  58.816
   72DG     BB2  461  95.812  65.564  59.020
   72DG     BB3  462  95.851  65.741  59.101
   72DG     SC1  463  95.981  65.624  59.353
   72DG     SC2  464  95.873  65.643  59.630
   72DG     SC3  465  96.146  65.531  59.631
   72DG     SC4  466  96.138  65.593  59.352
   73DT     BB1  467  95.734  65.961  59.063
   73DT     BB2  468  95.536  65.972  59.365
   73DT     BB3  469  95.604  66.123  59.489
   73DT     SC1  470  95.815  65.982  59.558
   73DT     SC2  471  95.796  65.922  59.764
   73DT     SC3  472  96.067  65.909  59.586
   74DA     BB1  473  95.193  66.177  59.440
   74DA     BB2  474  95.265  66.179  59.800
   74DA     BB3  475  95.357  66.363  59.856
   74DA     SC1  476  95.647  66.260  59.811
   74DA     SC2  477  95.846  66.202  59.949
   74DA     SC3  478  95.980  66.231  59.732
   74DA     SC4  479  95.713  66.284  59.666
   75DA     BB1  480  95.108  66.342  60.065
   75DA     BB2  481  95.361  66.339  60.331
   75DA     BB3  482  95.446  66.534  60.355
   75DA     SC1  483  95.676  66.485  60.152
   75DA     SC2  484  95.924  66.456  60.157
   75DA     SC3  485  95.916  66.520  59.908
   75DA     SC4  486  95.650  66.528  59.999
   76DT     BB1  487  95.409  66.619  60.525
   76DT     BB2  488  95.738  66.580  60.667
   76DT     BB3  489  95.841  66.759  60.656
   76DT     SC1  490  95.881  66.729  60.398
   76DT     SC2  491  96.090  66.692  60.362
   76DT     SC3  492  95.870  66.775  60.139
   77DG     BB1  493  95.830  66.660  61.052
   77DG     BB2  494  96.168  66.730  60.944
   77DG     BB3  495  96.197  66.927  60.934
   77DG     SC1  496  96.106  66.949  60.642
   77DG     SC2  497  96.280  67.022  60.410
   77DG     SC3  498  95.995  67.014  60.330
   77DG     SC4  499  95.951  66.973  60.611
   78DA     BB1  500  96.479  66.898  61.139
   78DA     BB2  501  96.691  67.034  60.872
   78DA     BB3  502  96.673  67.246  60.865
   78DA     SC1  503  96.438  67.244  60.661
   78DA     SC2  504  96.401  67.306  60.422
   78DA     SC3  505  96.152  67.314  60.485
   78DA     SC4  506  96.289  67.245  60.720
   79DA     BB1  507  97.001  67.241  60.896
   79DA     BB2  508  97.017  67.397  60.565
   79DA     BB3  509  96.977  67.606  60.579
   79DA     SC1  510  96.670  67.575  60.536
   79DA     SC2  511  96.502  67.629  60.360
   79DA     SC3  512  96.329  67.610  60.549
   79DA     SC4  513  96.578  67.560  60.667
   80DC     BB1  514  97.126  67.731  60.533
   80DC     BB2  515  96.997  67.822  60.209
   80DC     BB3  516  96.920  68.014  60.215
   80DC     SC1  517  96.707  67.932  60.345
   80DC     SC2  518  96.535  67.946  60.217
   80DC     SC3  519  96.529  67.905  60.538
   81DA     BB1  520  97.178  67.948  59.894
   81DA     BB2  521  96.868  68.096  59.766
   81DA     BB3  522  96.853  68.300  59.826
   81DA     SC1  523  96.700  68.236  60.090
   81DA     SC2  524  96.471  68.268  60.183
   81DA     SC3  525  96.582  68.236  60.412
   81DA     SC4  526  96.788  68.216  60.223
   82DC     BB1  527  96.848  68.359  59.678
   82DC     BB2  528  96.500  68.456  59.681
   82DC     BB3  529  96.480  68.644  59.764
   82DC     SC1  530  96.520  68.549  60.006
   82DC     SC2  531  96.337  68.560  60.118
   82DC     SC3  532  96.632  68.509  60.241
   83DA     BB1  533  96.268  68.592  59.401
   83DA     BB2  534  96.047  68.751  59.648
   83DA     BB3  535  96.117  68.947  59.694
   83DA     SC1  536  96.296  68.855  59.931
   83DA     SC2  537  96.297  68.875  60.180
   83DA     SC3  538  96.547  68.819  60.162
   83DA     SC4  539  96.449  68.820  59.899
   84DT     BB1  540  95.998  69.078  59.639
   84DT     BB2  541  95.883  69.177  59.967
   84DT     BB3  542  95.984  69.346  60.030
   84DT     SC1  543  96.201  69.206  60.080
   84DT     SC2  544  96.233  69.197  60.292
   84DT     SC3  545  96.450  69.120  60.064
   85DA     BB1  546  95.575  69.433  60.071
   85DA     BB2  547  95.743  69.527  60.384
   85DA     BB3  548  95.859  69.704  60.355
   85DA     SC1  549  96.118  69.551  60.276
   85DA     SC2  550  96.343  69.507  60.374
   85DA     SC3  551  96.414  69.454  60.133
   85DA     SC4  552  96.143  69.524  60.120
   86DT     BB1  553  95.806  69.880  60.451
   86DT     BB2  554  96.069  69.872  60.698
   86DT     BB3  555  96.214  70.013  60.651
   86DT     SC1  556  96.307  69.864  60.456
   86DT     SC2  557  96.502  69.790  60.510
   86DT     SC3  558  96.372  69.786  60.213
   87DT     BB1  559  96.131  70.162  60.860
   87DT     BB2  560  96.479  70.095  60.926
   87DT     BB3  561  96.597  70.236  60.831
   87DT     SC1  562  96.556  70.125  60.597
   87DT     SC2  563  96.738  70.034  60.527
   87DT     SC3  564  96.475  70.094  60.347
   88DA     BB1  565  96.701  70.180  61.234
   88DA     BB2  566  97.004  70.158  61.029
   88DA     BB3  567  97.053  70.349  60.948
   88DA     SC1  568  96.889  70.307  60.687
   88DA     SC2  569  96.934  70.274  60.444
   88DA     SC3  570  96.692  70.351  60.410
   88DA     SC4  571  96.737  70.359  60.686
   89DG     BB1  572  97.293  70.244  61.108
   89DG     BB2  573  97.446  70.258  60.781
   89DG     BB3  574  97.477  70.447  60.728
   89DG     SC1  575  97.204  70.480  60.593
   89DG     SC2  576  97.156  70.521  60.302
   89DG     SC3  577  96.906  70.557  60.455
   89DG     SC4  578  97.079  70.527  60.682
   90DA     BB1  579  97.778  70.287  60.657
   90DA     BB2  580  97.754  70.418  60.316
   90DA     BB3  581  97.766  70.631  60.317
   90DA     SC1  582  97.459  70.674  60.342
   90DA     SC2  583  97.273  70.759  60.200
   90DA     SC3  584  97.147  70.791  60.421
   90DA     SC4  585  97.398  70.688  60.490
   91DT     BB1  586  97.915  70.684  60.232
   91DT     BB2  587  97.763  70.839  59.944
   91DT     BB3  588  97.737  71.042  59.978
   91DT     SC1  589  97.535  70.998  60.139
   91DT     SC2  590  97.354  71.066  60.046
   91DT     SC3  591  97.390  70.992  60.360
   92DA     BB1  592  97.958  71.052  59.617
   92DA     BB2  593  97.686  71.296  59.581
   92DA     BB3  594  97.729  71.472  59.693
   92DA     SC1  595  97.589  71.371  59.952
   92DA     SC2  596  97.384  71.425  60.084
   92DA     SC3  597  97.503  71.305  60.278
   92DA     SC4  598  97.679  71.294  60.060
   93DT     BB1  599  97.793  71.707  59.623
   93DT     BB2  600  97.480  71.865  59.708
   93DT     BB3  601  97.508  71.997  59.865
   93DT     SC1  602  97.527  71.800  60.037
   93DT     SC2  603  97.354  71.800  60.165
   93DT     SC3  604  97.629  71.637  60.218
   94DT     BB1  605  97.510  72.266  59.731
   94DT     BB2  606  97.253  72.305  59.981
   94DT     BB3  607  97.333  72.394  60.150
   94DT     SC1  608  97.455  72.173  60.220
   94DT     SC2  609  97.361  72.092  60.396
   94DT     SC3  610  97.649  72.003  60.277
   95DA     BB1  611  97.020  72.666  60.069
   95DA     BB2  612  96.988  72.572  60.422
   95DA     BB3  613  97.126  72.682  60.541
   95DA     SC1  614  97.353  72.470  60.517
   95DA     SC2  615  97.468  72.305  60.665
   95DA     SC3  616  97.655  72.310  60.490
   95DA     SC4  617  97.459  72.487  60.398
   96DC     BB1  618  97.070  72.839  60.695
   96DC     BB2  619  97.129  72.631  60.983
   96DC     BB3  620  97.294  72.701  61.088
   96DC     SC1  621  97.459  72.605  60.907
   96DC     SC2  622  97.568  72.440  60.991
   96DC     SC3  623  97.642  72.598  60.718
   97DA     BB1  624  96.983  72.671  61.367
   97DA     BB2  625  97.274  72.497  61.506
   97DA     BB3  626  97.419  72.637  61.576
   97DA     SC1  627  97.572  72.652  61.305
   97DA     SC2  628  97.793  72.580  61.214
   97DA     SC3  629  97.750  72.755  61.031
   97DA     SC4  630  97.528  72.766  61.201
   98DT     BB1  631  97.457  72.646  61.776
   98DT     BB2  632  97.776  72.478  61.764
   98DT     BB3  633  97.929  72.615  61.791
   98DT     SC1  634  97.899  72.709  61.548
   98DT     SC2  635  98.069  72.654  61.429
   98DT     SC3  636  97.847  72.878  61.352
   99DA     BB1  637  97.987  72.300  62.061
   99DA     BB2  638  98.303  72.358  61.886
   99DA     BB3  639  98.395  72.538  61.956
   99DA     SC1  640  98.258  72.720  61.744
   99DA     SC2  641  98.325  72.851  61.542
   99DA     SC3  642  98.106  72.979  61.579
   99DA     SC4  643  98.118  72.789  61.784
  100DG     BB1  644  98.624  72.345  62.034
  100DG     BB2  645  98.806  72.535  61.786
  100DG     BB3  646  98.876  72.703  61.867
  100DG     SC1  647  98.626  72.867  61.799
  100DG     SC2  648  98.614  73.094  61.605
  100DG     SC3  649  98.361  73.071  61.758
  100DG     SC4  650  98.505  72.870  61.903
  101DG     BB1  651  99.175  72.605  61.782
  101DG     BB2  652  99.184  72.898  61.570
  101DG     BB3  653  99.238  73.057  61.676
  101DG     SC1  654  98.952  73.132  61.754
  101DG     SC2  655  98.804  73.376  61.667
  101DG     SC3  656  98.653  73.231  61.876
  101DG     SC4  657  98.888  73.068  61.887
  102DG     BB1  658  99.476  73.081  61.458
  102DG     BB2  659  99.327  73.399  61.372
  102DG     BB3  660  99.382  73.538  61.504
  102DG     SC1  661  99.146  73.487  61.692
  102DG     SC2  662  98.923  73.677  61.749
  102DG     SC3  663  98.912  73.443  61.930
  102DG     SC4  664  99.161  73.375  61.806
  103DT     BB1  665  99.490  73.700  61.430
  103DT     BB2  666  99.244  73.965  61.441
  103DT     BB3  667  99.274  74.082  61.609
  103DT     SC1  668  99.174  73.897  61.766
  103DT     SC2  669  98.984  73.964  61.843
  103DT     SC3  670  99.157  73.714  61.955
  104DA     BB1  671  99.251  74.333  61.274
  104DA     BB2  672  99.031  74.469  61.534
  104DA     BB3  673  99.146  74.555  61.692
  104DA     SC1  674  99.160  74.292  61.858
  104DA     SC2  675  99.067  74.204  62.072
  104DA     SC3  676  99.258  74.032  62.060
  104DA     SC4  677  99.286  74.195  61.833
  105DA     BB1  678  98.952  74.810  61.623
  105DA     BB2  679  98.833  74.788  61.970
  105DA     BB3  680  98.981  74.862  62.104
  105DA     SC1  681  99.118  74.586  62.145
  105DA     SC2  682  99.142  74.417  62.328
  105DA     SC3  683  99.344  74.332  62.194
  105DA     SC4  684  99.241  74.548  62.049
  106DT     BB1  685  98.940  75.029  62.206
  106DT     BB2  686  98.886  74.873  62.526
  106DT     BB3  687  99.049  74.906  62.649
  106DT     SC1  688  99.193  74.730  62.518
  106DT     SC2  689  99.227  74.558  62.643
  106DT     SC3  690  99.386  74.629  62.369
  107DT     BB1  691  98.902  75.079  62.797
  107DT     BB2  692  99.017  74.832  63.034
  107DT     BB3  693  99.204  74.884  63.105
  107DT     SC1  694  99.318  74.813  62.880
  107DT     SC2  695  99.436  74.636  62.913
  107DT     SC3  696  99.453  74.829  62.654
  108DT     BB1  697  99.089  74.944  63.341
  108DT     BB2  698  99.341  74.698  63.421
  108DT     BB3  699  99.524  74.791  63.449
  108DT     SC1  700  99.553  74.829  63.191
  108DT     SC2  701  99.712  74.702  63.118
  108DT     SC3  702  99.579  74.952  62.959
  109DT     BB1  703  99.500  74.738  63.710
  109DT     BB2  704  99.814  74.587  63.614
  109DT     BB3  705  99.965  74.728  63.621
  109DT     SC1  706  99.881  74.841  63.400
  109DT     SC2  707 100.022  74.805  63.242
  109DT     SC3  708  99.783  75.023  63.236
  110DC     BB1  709 100.060  74.603  63.839
  110DC     BB2  710 100.338  74.608  63.608
  110DC     BB3  711 100.439  74.787  63.624
  110DC     SC1  712 100.250  74.915  63.495
  110DC     SC2  713 100.322  74.975  63.302
  110DC     SC3  714 100.054  75.085  63.446
  111DA     BB1  715 100.731  74.488  63.666
  111DA     BB2  716 100.858  74.733  63.424
  111DA     BB3  717 100.918  74.912  63.524
  111DA     SC1  718 100.640  75.049  63.498
  111DA     SC2  719 100.539  75.239  63.373
  111DA     SC3  720 100.356  75.233  63.553
  111DA     SC4  721 100.537  75.030  63.620
  112DA     BB1  722 101.211  74.865  63.373
  112DA     BB2  723 101.159  75.188  63.207
  112DA     BB3  724 101.202  75.348  63.341
  112DA     SC1  725 100.910  75.370  63.447
  112DA     SC2  726 100.719  75.530  63.433
  112DA     SC3  727 100.631  75.412  63.643
  112DA     SC4  728 100.872  75.285  63.579
  113DT     BB1  729 101.373  75.487  63.319
  113DT     BB2  730 101.181  75.771  63.206
  113DT     BB3  731 101.176  75.916  63.353
  113DT     SC1  732 101.004  75.778  63.495
  113DT     SC2  733 100.813  75.877  63.493
  113DT     SC3  734 100.902  75.639  63.695
  114DA     BB1  735 101.312  76.114  63.009
  114DA     BB2  736 101.035  76.310  63.147
  114DA     BB3  737 101.099  76.418  63.319
  114DA     SC1  738 101.022  76.192  63.519
  114DA     SC2  739 100.852  76.153  63.697
  114DA     SC3  740 101.012  75.972  63.783
  114DA     SC4  741 101.136  76.085  63.558
  115DA     BB1  742 100.975  76.662  63.143
  115DA     BB2  743 100.733  76.708  63.415
  115DA     BB3  744 100.826  76.804  63.581
  115DA     SC1  745 100.912  76.538  63.718
  115DA     SC2  746 100.850  76.407  63.921
  115DA     SC3  747 101.079  76.294  63.893
  115DA     SC4  748 101.058  76.481  63.684
  116DA     BB1  749 100.562  76.983  63.521
  116DA     BB2  750 100.456  76.894  63.861
  116DA     BB3  751 100.575  76.997  64.005
  116DA     SC1  752 100.788  76.771  64.026
  116DA     SC2  753 100.862  76.601  64.193
  116DA     SC3  754 101.080  76.592  64.058
  116DA     SC4  755 100.917  76.781  63.929
  117DT     BB1  756 100.471  77.108  64.099
  117DT     BB2  757 100.468  76.921  64.407
  117DT     BB3  758 100.610  76.998  64.538
  117DT     SC1  759 100.806  76.890  64.401
  117DT     SC2  760 100.894  76.731  64.516
  117DT     SC3  761 101.023  76.869  64.253
  118DT     BB1  762 100.398  77.075  64.670
  118DT     BB2  763 100.590  76.880  64.904
  118DT     BB3  764 100.743  76.995  64.984
  118DT     SC1  765 100.881  76.979  64.762
  118DT     SC2  766 101.056  76.858  64.795
  118DT     SC3  767 101.005  77.053  64.541
  119DA     BB1  768 100.535  76.815  65.303
  119DA     BB2  769 100.894  76.774  65.364
  119DA     BB3  770 100.982  76.961  65.416
  119DA     SC1  771 101.053  77.037  65.122
  119DA     SC2  772 101.258  77.062  64.983
  119DA     SC3  773 101.111  77.204  64.828
  119DA     SC4  774 100.945  77.123  65.040
  120DG     BB1  775 101.065  76.841  65.699
  120DG     BB2  776 101.402  76.906  65.585
  120DG     BB3  777 101.451  77.095  65.623
  120DG     SC1  778 101.348  77.201  65.355
  120DG     SC2  779 101.515  77.316  65.135
  120DG     SC3  780 101.227  77.354  65.080
  120DG     SC4  781 101.195  77.246  65.343
  121DT     BB1  782 101.626  77.200  65.786
  121DT     BB2  783 101.880  77.306  65.552
  121DT     BB3  784 101.885  77.512  65.542
  121DT     SC1  785 101.664  77.519  65.401
  121DT     SC2  786 101.709  77.582  65.201
  121DT     SC3  787 101.414  77.570  65.334
  122DA     BB1  788 102.289  77.440  65.645
  122DA     BB2  789 102.292  77.665  65.355
  122DA     BB3  790 102.251  77.865  65.416
  122DA     SC1  791 101.944  77.840  65.378
  122DA     SC2  792 101.769  77.929  65.224
  122DA     SC3  793 101.603  77.866  65.409
  122DA     SC4  794 101.856  77.795  65.506
  123DT     BB1  795 102.399  78.046  65.413
  123DT     BB2  796 102.257  78.203  65.121
  123DT     BB3  797 102.166  78.381  65.174
  123DT     SC1  798 101.963  78.254  65.282
  123DT     SC2  799 101.787  78.286  65.162
  123DT     SC3  800 101.792  78.168  65.464
  124DA     BB1  801 102.430  78.489  64.867
  124DA     BB2  802 102.100  78.622  64.779
  124DA     BB3  803 102.057  78.797  64.895
  124DA     SC1  804 101.920  78.640  65.125
  124DA     SC2  805 101.690  78.612  65.218
  124DA     SC3  806 101.807  78.532  65.431
  124DA     SC4  807 102.011  78.595  65.249
  125DG     BB1  808 102.042  78.940  64.619
  125DG     BB2  809 101.693  78.974  64.708
  125DG     BB3  810 101.668  79.134  64.824
  125DG     SC1  811 101.713  78.983  65.086
  125DG     SC2  812 101.508  78.933  65.297
  125DG     SC3  813 101.777  78.852  65.390
  125DG     SC4  814 101.862  78.968  65.143
  126DA     BB1  815 101.424  79.219  64.597
  126DA     BB2  816 101.174  79.206  64.864
  126DA     BB3  817 101.188  79.380  64.987
  126DA     SC1  818 101.390  79.253  65.186
  126DA     SC2  819 101.391  79.175  65.423
  126DA     SC3  820 101.647  79.198  65.408
  126DA     SC4  821 101.547  79.275  65.158
  127DT     BB1  822 101.033  79.492  64.980
  127DT     BB2  823 100.902  79.399  65.303
  127DT     BB3  824 100.942  79.548  65.441
  127DT     SC1  825 101.195  79.478  65.454
  127DT     SC2  826 101.235  79.390  65.647
  127DT     SC3  827 101.457  79.491  65.434
  128DA     BB1  828 100.540  79.431  65.449
  128DA     BB2  829 100.670  79.427  65.792
  128DA     BB3  830 100.705  79.626  65.860
  128DA     SC1  831 100.999  79.635  65.761
  128DA     SC2  832 101.228  79.639  65.862
  128DA     SC3  833 101.304  79.732  65.635
  128DA     SC4  834 101.027  79.693  65.614
  129DA     BB1  835 100.526  79.474  66.086
  129DA     BB2  836 100.804  79.545  66.314
  129DA     BB3  837 100.817  79.755  66.353
  129DA     SC1  838 101.011  79.812  66.117
  129DA     SC2  839 101.250  79.878  66.086
  129DA     SC3  840 101.177  79.953  65.851
  129DA     SC4  841 100.946  79.854  65.976
  130DA     BB1  842 100.822  79.591  66.636
  130DA     BB2  843 101.144  79.757  66.691
  130DA     BB3  844 101.116  79.967  66.715
  130DA     SC1  845 101.149  80.031  66.412
  130DA     SC2  846 101.315  80.144  66.264
  130DA     SC3  847 101.121  80.165  66.097
  130DA     SC4  848 101.016  80.036  66.323
  131DT     BB1  849 101.169  80.001  66.874
  131DT     BB2  850 101.470  80.182  66.790
  131DT     BB3  851 101.430  80.385  66.780
  131DT     SC1  852 101.307  80.357  66.550
  131DT     SC2  853 101.425  80.448  66.395
  131DT     SC3  854 101.115  80.359  66.369
  132DA     BB1  855 101.773  80.307  67.014
  132DA     BB2  856 101.845  80.586  66.787
  132DA     BB3  857 101.731  80.758  66.842
  132DA     SC1  858 101.490  80.687  66.658
  132DA     SC2  859 101.386  80.774  66.449
  132DA     SC3  860 101.177  80.644  66.524
  132DA     SC4  861 101.371  80.601  66.722
  133DG     BB1  862 102.011  80.893  66.879
  133DG     BB2  863 101.891  81.112  66.618
  133DG     BB3  864 101.770  81.250  66.695
  133DG     SC1  865 101.516  81.081  66.659
  133DG     SC2  866 101.290  81.142  66.475
  133DG     SC3  867 101.222  80.917  66.654
  133DG     SC4  868 101.473  80.981  66.776
  134DC     BB1  869 101.810  81.481  66.700
  134DC     BB2  870 101.580  81.601  66.449
  134DC     BB3  871 101.419  81.693  66.540
  134DC     SC1  872 101.317  81.463  66.612
  134DC     SC2  873 101.138  81.425  66.499
  134DC     SC3  874 101.231  81.267  66.767
  135DT     BB1  875 101.497  81.957  66.478
  135DT     BB2  876 101.164  81.933  66.341
  135DT     BB3  877 101.025  81.992  66.483
  135DT     SC1  878 101.054  81.768  66.616
  135DT     SC2  879 100.875  81.650  66.597
  135DT     SC3  880 101.113  81.602  66.812
  136DT     BB1  881 100.971  82.237  66.360
  136DT     BB2  882 100.649  82.075  66.381
  136DT     BB3  883 100.557  82.124  66.560
  136DT     SC1  884 100.716  81.964  66.694
  136DT     SC2  885 100.603  81.796  66.767
  136DT     SC3  886 100.899  81.883  66.865
  137DG     BB1  887 100.298  82.252  66.272
  137DG     BB2  888 100.132  82.036  66.509
  137DG     BB3  889 100.087  82.138  66.674
  137DG     SC1  890 100.352  82.077  66.814
  137DG     SC2  891 100.386  81.910  67.059
  137DG     SC3  892 100.638  82.047  66.990
  137DG     SC4  893 100.476  82.175  66.791
  138DG     BB1  894  99.770  82.062  66.628
  138DG     BB2  895  99.792  81.882  66.941
  138DG     BB3  896  99.766  82.008  67.093
  138DG     SC1  897 100.064  82.076  67.119
  138DG     SC2  898 100.240  82.005  67.350
  138DG     SC3  899 100.378  82.189  67.163
  138DG     SC4  900 100.123  82.197  67.033
  139DT     BB1  901  99.596  81.984  67.231
  139DT     BB2  902  99.760  81.849  67.523
  139DT     BB3  903  99.780  81.997  67.667
  139DT     SC1  904  99.975  82.111  67.533
  139DT     SC2  905 100.160  82.084  67.640
  139DT     SC3  906 100.110  82.292  67.397
  140DC     BB1  907  99.589  81.877  67.817
  140DC     BB2  908  99.877  81.892  68.033
  140DC     BB3  909  99.883  82.074  68.131
  140DC     SC1  910  99.962  82.198  67.914
  140DC     SC2  911 100.165  82.262  67.938
  140DC     SC3  912  99.961  82.362  67.707
  141DA     BB1  913  99.913  81.781  68.429
  141DA     BB2  914 100.181  82.025  68.486
  141DA     BB3  915 100.100  82.205  68.567
  141DA     SC1  916 100.054  82.338  68.289
  141DA     SC2  917 100.149  82.526  68.156
  141DA     SC3  918  99.929  82.519  68.025
  141DA     SC4  919  99.910  82.319  68.221
  142DT     BB1  920 100.154  82.253  68.751
  142DT     BB2  921 100.381  82.519  68.662
  142DT     BB3  922 100.293  82.703  68.698
  142DT     SC1  923 100.139  82.678  68.486
  142DT     SC2  924 100.200  82.820  68.336
  142DT     SC3  925  99.921  82.655  68.339
  143DT     BB1  926 100.458  82.738  68.908
  143DT     BB2  927 100.518  83.024  68.695
  143DT     BB3  928 100.380  83.173  68.736
  143DT     SC1  929 100.189  83.042  68.613
  143DT     SC2  930 100.137  83.145  68.432
  143DT     SC3  931  99.964  82.910  68.573
  144DA     BB1  932 100.760  83.350  68.756
  144DA     BB2  933 100.548  83.561  68.544
  144DA     BB3  934 100.407  83.667  68.663
  144DA     SC1  935 100.188  83.447  68.642
  144DA     SC2  936  99.965  83.418  68.534
  144DA     SC3  937  99.929  83.230  68.705
  144DA     SC4  938 100.184  83.335  68.758
  145DG     BB1  939 100.542  83.927  68.553
  145DG     BB2  940 100.219  83.977  68.400
  145DG     BB3  941 100.094  84.061  68.530
  145DG     SC1  942  99.992  83.795  68.642
  145DG     SC2  943  99.715  83.688  68.612
  145DG     SC3  944  99.873  83.523  68.801
  145DG     SC4  945 100.070  83.728  68.764
  146DT     BB1  946  99.999  84.273  68.504
  146DT     BB2  947  99.663  84.181  68.407
  146DT     BB3  948  99.533  84.216  68.564
  146DT     SC1  949  99.620  84.006  68.694
  146DT     SC2  950  99.466  83.855  68.697
  146DT     SC3  951  99.732  83.860  68.883
  147DT     BB1  952  99.424  84.431  68.434
  147DT     BB2  953  99.147  84.206  68.488
  147DT     BB3  954  99.062  84.243  68.673
  147DT     SC1  955  99.261  84.127  68.797
  147DT     SC2  956  99.194  83.943  68.885
  147DT     SC3  957  99.471  84.095  68.954
  148DA     BB1  958  98.771  84.235  68.372
  148DA     BB2  959  98.668  84.008  68.641
  148DA     BB3  960  98.607  84.119  68.813
  148DA     SC1  961  98.890  84.122  68.941
  148DA     SC2  962  99.005  84.021  69.138
  148DA     SC3  963  99.177  84.209  69.109
  148DA     SC4  964  98.986  84.248  68.908
  149DT     BB1  965  98.442  84.078  68.834
  149DT     BB2  966  98.488  83.863  69.119
  149DT     BB3  967  98.459  83.970  69.294
  149DT     SC1  968  98.691  84.089  69.268
  149DT     SC2  969  98.826  84.019  69.421
  149DT     SC3  970  98.869  84.282  69.236
  150DG     BB1  971  98.261  83.614  69.240
  150DG     BB2  972  98.441  83.629  69.554
  150DG     BB3  973  98.355  83.761  69.675
  150DG     SC1  974  98.522  83.998  69.575
  150DG     SC2  975  98.726  84.148  69.734
  150DG     SC3  976  98.674  84.283  69.476
  150DG     SC4  977  98.470  84.083  69.450
  151DG     BB1  978  98.390  83.482  69.837
  151DG     BB2  979  98.577  83.685  70.072
  151DG     BB3  980  98.455  83.813  70.163
  151DG     SC1  981  98.492  84.034  69.954
  151DG     SC2  982  98.625  84.297  69.999
  151DG     SC3  983  98.493  84.290  69.734
  151DG     SC4  984  98.395  84.037  69.826
  152DG     BB1  985  98.582  83.672  70.428
  152DG     BB2  986  98.680  84.005  70.526
  152DG     BB3  987  98.521  84.108  70.588
  152DG     SC1  988  98.453  84.217  70.310
  152DG     SC2  989  98.468  84.503  70.226
  152DG     SC3  990  98.338  84.339  70.018
  152DG     SC4  991  98.357  84.132  70.214
  153DA     BB1  992  98.685  84.190  70.890
  153DA     BB2  993  98.632  84.548  70.829
  153DA     BB3  994  98.430  84.601  70.869
  153DA     SC1  995  98.333  84.549  70.578
  153DA     SC2  996  98.253  84.683  70.384
  153DA     SC3  997  98.151  84.463  70.300
  153DA     SC4  998  98.276  84.403  70.544
  154DT     BB1  999  98.341  84.731  71.049
  154DT     BB2 1000  98.255  85.023  70.856
  154DT     BB3 1001  98.049  85.043  70.845
  154DT     SC1 1002  98.032  84.847  70.671
  154DT     SC2 1003  97.976  84.926  70.479
  154DT     SC3 1004  97.968  84.614  70.565
  155DA     BB1 1005  98.122  85.424  71.020
  155DA     BB2 1006  97.901  85.485  70.734
  155DA     BB3 1007  97.698  85.444  70.787
  155DA     SC1 1008  97.710  85.145  70.699
  155DA     SC2 1009  97.615  85.002  70.518
  155DA     SC3 1010  97.668  84.805  70.674
  155DA     SC4 1011  97.749  85.036  70.810
  156DA     BB1 1012  97.592  85.757  70.704
  156DA     BB2 1013  97.387  85.607  70.439
  156DA     BB3 1014  97.198  85.546  70.517
  156DA     SC1 1015  97.293  85.259  70.589
  156DA     SC2 1016  97.253  85.026  70.509
  156DA     SC3 1017  97.341  84.954  70.739
  156DA     SC4 1018  97.349  85.234  70.738
  157DC     BB1 1019  96.995  85.640  70.463
  157DC     BB2 1020  96.893  85.373  70.243
  157DC     BB3 1021  96.733  85.271  70.325
  157DC     SC1 1022  96.888  85.152  70.499
  157DC     SC2 1023  96.901  84.943  70.451
  157DC     SC3 1024  96.991  85.080  70.731
  158DC     BB1 1025  96.567  85.379  70.137
  158DC     BB2 1026  96.540  85.022  70.089
  158DC     BB3 1027  96.392  84.946  70.211
  158DC     SC1 1028  96.544  84.969  70.424
  158DC     SC2 1029  96.599  84.773  70.494
  158DC     SC3 1030  96.629  85.050  70.660
  159DC     BB1 1031  96.261  84.907  69.985
  159DC     BB2 1032  96.291  84.580  70.135
  159DC     BB3 1033  96.139  84.551  70.273
  159DC     SC1 1034  96.256  84.710  70.446
  159DC     SC2 1035  96.329  84.594  70.612
  159DC     SC3 1036  96.297  84.916  70.605
  160DA     BB1 1037  96.186  84.230  70.008
  160DA     BB2 1038  96.164  84.098  70.349
  160DA     BB3 1039  95.967  84.124  70.426
  160DA     SC1 1040  96.025  84.403  70.550
  160DA     SC2 1041  96.048  84.502  70.778
  160DA     SC3 1042  96.004  84.727  70.662
  160DA     SC4 1043  95.995  84.532  70.460
  161DT     BB1 1044  95.892  83.962  70.455
  161DT     BB2 1045  95.894  83.970  70.816
  161DT     BB3 1046  95.710  84.031  70.886
  161DT     SC1 1047  95.758  84.280  70.819
  161DT     SC2 1048  95.783  84.399  70.997
  161DT     SC3 1049  95.736  84.513  70.697
  162DG     BB1 1050  95.812  83.671  71.049
  162DG     BB2 1051  95.707  83.908  71.301
  162DG     BB3 1052  95.509  83.933  71.293
  162DG     SC1 1053  95.522  84.163  71.091
  162DG     SC2 1054  95.446  84.447  71.144
  162DG     SC3 1055  95.498  84.404  70.856
  162DG     SC4 1056  95.522  84.129  70.935
  163DA     BB1 1057  95.500  83.866  71.637
  163DA     BB2 1058  95.340  84.190  71.698
  163DA     BB3 1059  95.135  84.184  71.638
  163DA     SC1 1060  95.192  84.280  71.348
  163DA     SC2 1061  95.150  84.483  71.209
  163DA     SC3 1062  95.186  84.329  71.008
  163DA     SC4 1063  95.216  84.167  71.235
  164DA     BB1 1064  95.068  84.286  71.948
  164DA     BB2 1065  94.912  84.583  71.800
  164DA     BB3 1066  94.719  84.535  71.722
  164DA     SC1 1067  94.825  84.464  71.438
  164DA     SC2 1068  94.814  84.559  71.208
  164DA     SC3 1069  94.876  84.323  71.129
  164DA     SC4 1070  94.863  84.310  71.409
  165DA     BB1 1071  94.600  84.781  71.914
  165DA     BB2 1072  94.489  84.947  71.607
  165DA     BB3 1073  94.309  84.858  71.536
  165DA     SC1 1074  94.454  84.650  71.356
  165DA     SC2 1075  94.486  84.607  71.112
  165DA     SC3 1076  94.546  84.368  71.183
  165DA     SC4 1077  94.487  84.506  71.420
  166DA     BB1 1078  94.177  85.164  71.545
  166DA     BB2 1079  94.131  85.139  71.182
  166DA     BB3 1080  93.959  85.021  71.138
  166DA     SC1 1081  94.115  84.753  71.124
  166DA     SC2 1082  94.184  84.588  70.950
  166DA     SC3 1083  94.212  84.424  71.146
  166DA     SC4 1084  94.126  84.666  71.259
  167DA     BB1 1085  93.860  85.285  70.963
  167DA     BB2 1086  93.874  85.071  70.665
  167DA     BB3 1087  93.702  84.945  70.656
  167DA     SC1 1088  93.834  84.712  70.815
  167DA     SC2 1089  93.916  84.481  70.770
  167DA     SC3 1090  93.896  84.446  71.023
  167DA     SC4 1091  93.813  84.710  70.974
  168DT     BB1 1092  93.554  84.966  70.503
  168DT     BB2 1093  93.653  84.676  70.313
  168DT     BB3 1094  93.512  84.526  70.334
  168DT     SC1 1095  93.596  84.472  70.577
  168DT     SC2 1096  93.693  84.280  70.578
  168DT     SC3 1097  93.595  84.445  70.839
  169DA     BB1 1098  93.565  84.580  69.922
  169DA     BB2 1099  93.600  84.222  69.994
  169DA     BB3 1100  93.409  84.136  70.034
  169DA     SC1 1101  93.423  84.186  70.340
  169DA     SC2 1102  93.447  84.052  70.549
  169DA     SC3 1103  93.350  84.257  70.668
  169DA     SC4 1104  93.360  84.323  70.396
  170DC     BB1 1105  93.338  83.998  69.904
  170DC     BB2 1106  93.402  83.711  70.112
  170DC     BB3 1107  93.224  83.641  70.193
  170DC     SC1 1108  93.214  83.840  70.363
  170DC     SC2 1109  93.249  83.766  70.562
  170DC     SC3 1110  93.130  84.058  70.486
  171DG     BB1 1111  93.395  83.336  69.984
  171DG     BB2 1112  93.322  83.240  70.325
  171DG     BB3 1113  93.128  83.200  70.344
  171DG     SC1 1114  93.050  83.487  70.416
  171DG     SC2 1115  92.946  83.579  70.680
  171DG     SC3 1116  92.927  83.794  70.478
  171DG     SC4 1117  93.015  83.589  70.299
  172DG     BB1 1118  93.225  82.907  70.448
  172DG     BB2 1119  93.069  82.995  70.762
  172DG     BB3 1120  92.873  82.963  70.752
  172DG     SC1 1121  92.807  83.244  70.649
  172DG     SC2 1122  92.655  83.454  70.797
  172DG     SC3 1123  92.702  83.536  70.516
  172DG     SC4 1124  92.809  83.271  70.491
  173DG     BB1 1125  92.910  82.765  71.009
  173DG     BB2 1126  92.692  82.993  71.186
  173DG     BB3 1127  92.502  82.953  71.142
  173DG     SC1 1128  92.492  83.142  70.902
  173DG     SC2 1129  92.331  83.392  70.882
  173DG     SC3 1130  92.452  83.324  70.621
  173DG     SC4 1131  92.534  83.086  70.758
  174DA     BB1 1132  92.441  82.937  71.485
  174DA     BB2 1133  92.195  83.208  71.456
  174DA     BB3 1134  92.012  83.133  71.375
  174DA     SC1 1135  92.091  83.190  71.080
  174DA     SC2 1136  92.024  83.346  70.897
  174DA     SC3 1137  92.132  83.175  70.739
  174DA     SC4 1138  92.162  83.071  70.998
  175DT     BB1 1139  91.835  83.126  71.492
  175DT     BB2 1140  91.670  83.404  71.332
  175DT     BB3 1141  91.515  83.336  71.213
  175DT     SC1 1142  91.683  83.251  71.030
  175DT     SC2 1143  91.666  83.374  70.855
  175DT     SC3 1144  91.815  83.087  70.872
  176DC     BB1 1145  91.316  83.424  71.388
  176DC     BB2 1146  91.241  83.590  71.076
  176DC     BB3 1147  91.113  83.473  70.963
  176DC     SC1 1148  91.307  83.308  70.900
  176DC     SC2 1149  91.354  83.329  70.691
  176DC     SC3 1150  91.449  83.086  70.883
  177DT     BB1 1151  90.908  83.646  71.011
  177DT     BB2 1152  90.941  83.640  70.652
  177DT     BB3 1153  90.825  83.487  70.573
  177DT     SC1 1154  90.996  83.306  70.654
  177DT     SC2 1155  91.095  83.219  70.484
  177DT     SC3 1156  91.095  83.099  70.785
  178DC     BB1 1157  90.686  83.688  70.480
  178DC     BB2 1158  90.796  83.502  70.191
  178DC     BB3 1159  90.670  83.341  70.159
  178DC     SC1 1160  90.775  83.209  70.360
  178DC     SC2 1161  90.888  83.042  70.285
  178DC     SC3 1162  90.795  83.087  70.593
  179DA     BB1 1163  90.780  83.576  69.826
  179DA     BB2 1164  90.823  83.221  69.743
  179DA     BB3 1165  90.633  83.123  69.740
  179DA     SC1 1166  90.643  83.042  70.040
  179DA     SC2 1167  90.667  82.833  70.174
  179DA     SC3 1168  90.563  82.969  70.366
  179DA     SC4 1169  90.576  83.142  70.146
  180DT     BB1 1170  90.654  83.081  69.592
  180DT     BB2 1171  90.678  82.725  69.645
  180DT     BB3 1172  90.489  82.644  69.667
  180DT     SC1 1173  90.467  82.741  69.909
  180DT     SC2 1174  90.472  82.580  70.052
  180DT     SC3 1175  90.377  82.884  70.112
  181DT     BB1 1176  90.570  82.544  69.445
  181DT     BB2 1177  90.458  82.264  69.643
  181DT     BB3 1178  90.251  82.260  69.649
  181DT     SC1 1179  90.244  82.462  69.817
  181DT     SC2 1180  90.177  82.392  70.009
  181DT     SC3 1181  90.194  82.702  69.914
  182DT     BB1 1182  90.240  82.049  69.474
  182DT     BB2 1183  90.023  81.943  69.741
  182DT     BB3 1184  89.831  82.014  69.709
  182DT     SC1 1185  89.900  82.257  69.777
  182DT     SC2 1186  89.807  82.308  69.964
  182DT     SC3 1187  89.947  82.516  69.759
  183DC     BB1 1188  89.685  81.773  69.597
  183DC     BB2 1189  89.456  81.881  69.854
  183DC     BB3 1190  89.308  82.001  69.772
  183DC     SC1 1191  89.474  82.202  69.748
  183DC     SC2 1192  89.419  82.357  69.887
  183DC     SC3 1193  89.622  82.390  69.636
  184DT     BB1 1194  89.048  81.823  69.732
  184DT     BB2 1195  88.913  82.105  69.912
  184DT     BB3 1196  88.821  82.235  69.781
  184DT     SC1 1197  89.053  82.322  69.693
  184DT     SC2 1198  89.082  82.525  69.758
  184DT     SC3 1199  89.253  82.373  69.529
  185DT     BB1 1200  88.505  82.189  69.797
  185DT     BB2 1201  88.532  82.543  69.860
  185DT     BB3 1202  88.486  82.649  69.688
  185DT     SC1 1203  88.717  82.588  69.579
  185DT     SC2 1204  88.839  82.764  69.566
  185DT     SC3 1205  88.892  82.485  69.411
  186DG     BB1 1206  88.166  82.801  69.910
  186DG     BB2 1207  88.361  83.074  69.775
  186DG     BB3 1208  88.292  83.124  69.595
  186DG     SC1 1209  88.475  82.929  69.445
  186DG     SC2 1210  88.698  83.004  69.261
  186DG     SC3 1211  88.645  82.713  69.250
  186DG     SC4 1212  88.424  82.779  69.420
  187DC     BB1 1213  88.183  83.346  69.516
  187DC     BB2 1214  88.468  83.490  69.349
  187DC     BB3 1215  88.431  83.503  69.145
  187DC     SC1 1216  88.465  83.245  69.114
  187DC     SC2 1217  88.647  83.209  69.005
  187DC     SC3 1218  88.412  82.992  69.059
  188DG     BB1 1219  88.511  83.878  69.277
  188DG     BB2 1220  88.732  83.784  69.007
  188DG     BB3 1221  88.641  83.809  68.832
  188DG     SC1 1222  88.523  83.527  68.825
  188DG     SC2 1223  88.597  83.311  68.632
  188DG     SC3 1224  88.363  83.232  68.794
  188DG     SC4 1225  88.381  83.500  68.893
  189DA     BB1 1226  88.934  83.968  68.780
  189DA     BB2 1227  89.003  83.739  68.501
  189DA     BB3 1228  88.879  83.787  68.334
  189DA     SC1 1229  88.649  83.595  68.419
  189DA     SC2 1230  88.549  83.381  68.340
  189DA     SC3 1231  88.343  83.450  68.478
  189DA     SC4 1232  88.531  83.656  68.509
  190DT     BB1 1233  88.992  83.827  68.218
  190DT     BB2 1234  88.954  83.534  68.011
  190DT     BB3 1235  88.816  83.571  67.861
  190DT     SC1 1236  88.616  83.554  68.030
  190DT     SC2 1237  88.503  83.375  67.989
  190DT     SC3 1238  88.407  83.623  68.174
  191DA     BB1 1239  89.171  83.383  67.735
  191DA     BB2 1240  88.886  83.216  67.576
  191DA     BB3 1241  88.792  83.346  67.436
  191DA     SC1 1242  88.592  83.464  67.644
  191DA     SC2 1243  88.347  83.455  67.690
  191DA     SC3 1244  88.385  83.670  67.824
  191DA     SC4 1245  88.636  83.598  67.721
  192DA     BB1 1246  88.845  83.049  67.295
  192DA     BB2 1247  88.486  83.057  67.221
  192DA     BB3 1248  88.441  83.220  67.091
  192DA     SC1 1249  88.386  83.421  67.322
  192DA     SC2 1250  88.190  83.540  67.420
  192DA     SC3 1251  88.363  83.702  67.519
  192DA     SC4 1252  88.509  83.511  67.373
  193DT     BB1 1253  88.381  83.173  66.914
  193DT     BB2 1254  88.037  83.278  66.946
  193DT     BB3 1255  88.012  83.464  66.859
  193DT     SC1 1256  88.132  83.583  67.060
  193DT     SC2 1257  87.988  83.697  67.172
  193DT     SC3 1258  88.310  83.722  67.195
  194DA     BB1 1259  87.717  83.237  66.658
  194DA     BB2 1260  87.558  83.550  66.767
  194DA     BB3 1261  87.619  83.711  66.641
  194DA     SC1 1262  87.863  83.788  66.818
  194DA     SC2 1263  87.930  83.975  66.969
  194DA     SC3 1264  88.170  83.892  66.932
  194DA     SC4 1265  88.005  83.722  66.782
  195DA     BB1 1266  87.297  83.780  66.568
  195DA     BB2 1267  87.343  84.107  66.727
  195DA     BB3 1268  87.436  84.243  66.591
  195DA     SC1 1269  87.726  84.172  66.680
  195DA     SC2 1270  87.913  84.281  66.804
  195DA     SC3 1271  88.063  84.107  66.690
  195DA     SC4 1272  87.802  84.056  66.599
  196DC     BB1 1273  87.337  84.422  66.504
  196DC     BB2 1274  87.507  84.662  66.714
  196DC     BB3 1275  87.640  84.773  66.601
  196DC     SC1 1276  87.808  84.571  66.589
  196DC     SC2 1277  87.983  84.617  66.706
  196DC     SC3 1278  87.957  84.378  66.488
  197DC     BB1 1279  87.478  84.987  66.625
  197DC     BB2 1280  87.793  85.090  66.769
  197DC     BB3 1281  87.918  85.162  66.621
  197DC     SC1 1282  87.967  84.920  66.534
  197DC     SC2 1283  88.170  84.867  66.578
  197DC     SC3 1284  87.975  84.711  66.373
  198DA     BB1 1285  87.895  85.427  66.946
  198DA     BB2 1286  88.248  85.371  66.866
  198DA     BB3 1287  88.298  85.464  66.681
  198DA     SC1 1288  88.232  85.213  66.509
  198DA     SC2 1289  88.356  85.044  66.374
  198DA     SC3 1290  88.130  84.999  66.260
  198DA     SC4 1291  88.083  85.201  66.450
  199DT     BB1 1292  88.418  85.590  66.714
  199DT     BB2 1293  88.703  85.421  66.570
  199DT     BB3 1294  88.731  85.484  66.375
  199DT     SC1 1295  88.527  85.342  66.291
  199DT     SC2 1296  88.597  85.178  66.171
  199DT     SC3 1297  88.291  85.283  66.188
  200DA     BB1 1298  89.094  85.506  66.588
  200DA     BB2 1299  89.158  85.343  66.266
  200DA     BB3 1300  89.139  85.483  66.106
  200DA     SC1 1301  88.836  85.427  66.061
  200DA     SC2 1302  88.692  85.320  65.888
  200DA     SC3 1303  88.501  85.454  65.994
  200DA     SC4 1304  88.731  85.519  66.140
  201DT     BB1 1305  89.304  85.540  65.996
  201DT     BB2 1306  89.221  85.365  65.691
  201DT     BB3 1307  89.153  85.499  65.549
  201DT     SC1 1308  88.922  85.523  65.672
  201DT     SC2 1309  88.768  85.431  65.553
  201DT     SC3 1310  88.721  85.632  65.803
  202DA     BB1 1311  89.465  85.305  65.344
  202DA     BB2 1312  89.174  85.305  65.122
  202DA     BB3 1313  89.146  85.498  65.036
  202DA     SC1 1314  88.958  85.599  65.263
  202DA     SC2 1315  88.717  85.656  65.291
  202DA     SC3 1316  88.793  85.788  65.497
  202DA     SC4 1317  89.025  85.676  65.387
  203DT     BB1 1318  89.172  85.542  64.823
  203DT     BB2 1319  88.822  85.567  64.743
  203DT     BB3 1320  88.772  85.765  64.705
  203DT     SC1 1321  88.781  85.824  64.960
  203DT     SC2 1322  88.582  85.865  65.032
  203DT     SC3 1323  88.858  85.937  65.186
  204DT     BB1 1324  88.747  85.717  64.436
  204DT     BB2 1325  88.426  85.849  64.533
  204DT     BB3 1326  88.428  86.056  64.521
  204DT     SC1 1327  88.572  86.075  64.740
  204DT     SC2 1328  88.451  86.159  64.897
  204DT     SC3 1329  88.774  86.130  64.900
  205DT     BB1 1330  88.268  86.044  64.303
  205DT     BB2 1331  88.086  86.248  64.538
  205DT     BB3 1332  88.145  86.446  64.520
  205DT     SC1 1333  88.372  86.397  64.643
  205DT     SC2 1334  88.370  86.491  64.837
  205DT     SC3 1335  88.631  86.372  64.686
  206DT     BB1 1336  87.907  86.503  64.406
  206DT     BB2 1337  87.928  86.725  64.691
  206DT     BB3 1338  88.031  86.896  64.639
  206DT     SC1 1339  88.261  86.769  64.643
  206DT     SC2 1340  88.377  86.838  64.810
  206DT     SC3 1341  88.488  86.665  64.559
  207DT     BB1 1342  87.800  87.044  64.640
  207DT     BB2 1343  88.018  87.216  64.871
  207DT     BB3 1344  88.136  87.352  64.770
  207DT     SC1 1345  88.287  87.160  64.673
  207DT     SC2 1346  88.482  87.170  64.764
  207DT     SC3 1347  88.404  87.000  64.500
  208DT     BB1 1348  87.996  87.581  64.856
  208DT     BB2 1349  88.337  87.645  64.956
  208DT     BB3 1350  88.438  87.744  64.805
  208DT     SC1 1351  88.455  87.525  64.662
  208DT     SC2 1352  88.660  87.460  64.655
  208DT     SC3 1353  88.421  87.355  64.463
  209DG     BB1 1354  88.465  88.021  65.109
  209DG     BB2 1355  88.793  87.944  64.976
  209DG     BB3 1356  88.826  88.053  64.812
  209DG     SC1 1357  88.708  87.846  64.620
  209DG     SC2 1358  88.858  87.689  64.416
  209DG     SC3 1359  88.567  87.650  64.384
  209DG     SC4 1360  88.551  87.851  64.588
  210DG     BB1 1361  89.097  88.208  64.937
  210DG     BB2 1362  89.285  88.029  64.686
  210DG     BB3 1363  89.294  88.136  64.518
  210DG     SC1 1364  89.038  88.017  64.400
  210DG     SC2 1365  89.021  87.842  64.158
  210DG     SC3 1366  88.751  87.924  64.249
  210DG     SC4 1367  88.898  88.087  64.433
  211DT     BB1 1368  89.491  88.205  64.436
  211DT     BB2 1369  89.535  87.960  64.174
  211DT     BB3 1370  89.504  88.048  63.989
  211DT     SC1 1371  89.244  88.054  64.026
  211DT     SC2 1372  89.150  87.914  63.893
  211DT     SC3 1373  89.000  88.149  64.059
  212DT     BB1 1374  89.758  87.997  63.974
  212DT     BB2 1375  89.602  87.807  63.710
  212DT     BB3 1376  89.563  87.930  63.548
  212DT     SC1 1377  89.361  88.043  63.672
  212DT     SC2 1378  89.177  87.984  63.577
  212DT     SC3 1379  89.212  88.228  63.788
  213DT     BB1 1380  89.744  87.773  63.453
  213DT     BB2 1381  89.454  87.732  63.242
  213DT     BB3 1382  89.440  87.890  63.110
  213DT     SC1 1383  89.356  88.051  63.300
  213DT     SC2 1384  89.149  88.099  63.267
  213DT     SC3 1385  89.349  88.252  63.470
  214DT     BB1 1386  89.495  87.699  62.945
  214DT     BB2 1387  89.183  87.839  62.832
  214DT     BB3 1388  89.218  88.016  62.729
  214DT     SC1 1389  89.267  88.145  62.952
  214DT     SC2 1390  89.108  88.285  62.990
  214DT     SC3 1391  89.397  88.282  63.135
  215DT     BB1 1392  89.147  87.878  62.515
  215DT     BB2 1393  88.924  88.162  62.523
  215DT     BB3 1394  89.017  88.327  62.439
  215DT     SC1 1395  89.168  88.360  62.652
  215DT     SC2 1396  89.107  88.538  62.755
  215DT     SC3 1397  89.383  88.375  62.804
  216DT     BB1 1398  88.854  88.303  62.228
  216DT     BB2 1399  88.800  88.639  62.347
  216DT     BB3 1400  88.942  88.766  62.266
  216DT     SC1 1401  89.129  88.672  62.425
  216DT     SC2 1402  89.182  88.823  62.569
  216DT     SC3 1403  89.350  88.553  62.505
  217DC     BB1 1404  88.749  88.873  62.113
  217DC     BB2 1405  88.885  89.151  62.297
  217DC     BB3 1406  89.051  89.227  62.199
  217DC     SC1 1407  89.199  89.024  62.275
  217DC     SC2 1408  89.345  89.092  62.418
  217DC     SC3 1409  89.349  88.808  62.261
  218DT     BB1 1410  88.899  89.437  62.144
  218DT     BB2 1411  89.184  89.571  62.320
  218DT     BB3 1412  89.341  89.600  62.188
  218DT     SC1 1413  89.390  89.342  62.176
  218DT     SC2 1414  89.577  89.301  62.274
  218DT     SC3 1415  89.416  89.099  62.079
  219DT     BB1 1416  89.290  89.853  62.232
  219DT     BB2 1417  89.637  89.808  62.321
  219DT     BB3 1418  89.754  89.812  62.151
  219DT     SC1 1419  89.676  89.571  62.081
  219DT     SC2 1420  89.841  89.434  62.102
  219DT     SC3 1421  89.565  89.376  61.942
  220DT     BB1 1422  89.835  90.037  62.253
  220DT     BB2 1423  90.135  89.843  62.203
  220DT     BB3 1424  90.193  89.853  62.005
  220DT     SC1 1425  90.001  89.690  61.932
  220DT     SC2 1426  90.086  89.502  61.872
  220DT     SC3 1427  89.782  89.600  61.814
  221DA     BB1 1428  90.529  89.948  62.240
  221DA     BB2 1429  90.636  89.712  61.981
  221DA     BB3 1430  90.638  89.807  61.790
  221DA     SC1 1431  90.345  89.730  61.722
  221DA     SC2 1432  90.226  89.578  61.564
  221DA     SC3 1433  90.021  89.727  61.606
  221DA     SC4 1434  90.229  89.835  61.760
  222DC     BB1 1435  90.818  89.848  61.684
  222DC     BB2 1436  90.778  89.602  61.423
  222DC     BB3 1437  90.727  89.695  61.246
  222DC     SC1 1438  90.482  89.737  61.329
  222DC     SC2 1439  90.346  89.613  61.218
  222DC     SC3 1440  90.264  89.865  61.404
  223DA     BB1 1441  91.068  89.476  61.129
  223DA     BB2 1442  90.809  89.412  60.877
  223DA     BB3 1443  90.792  89.579  60.744
  223DA     SC1 1444  90.574  89.722  60.914
  223DA     SC2 1445  90.331  89.775  60.895
  223DA     SC3 1446  90.378  89.955  61.072
  223DA     SC4 1447  90.623  89.829  61.023
  224DT     BB1 1448  90.849  89.575  60.530
  224DT     BB2 1449  90.515  89.570  60.396
  224DT     BB3 1450  90.472  89.752  60.306
  224DT     SC1 1451  90.444  89.870  60.539
  224DT     SC2 1452  90.237  89.920  60.569
  224DT     SC3 1453  90.488  90.034  60.741
  225DT     BB1 1454  90.490  89.648  60.049
  225DT     BB2 1455  90.160  89.794  60.061
  225DT     BB3 1456  90.169  89.992  60.002
  225DT     SC1 1457  90.276  90.064  60.230
  225DT     SC2 1458  90.135  90.180  60.343
  225DT     SC3 1459  90.452  90.157  60.403
  226DG     BB1 1460  89.910  89.821  59.735
  226DG     BB2 1461  89.764  90.117  59.883
  226DG     BB3 1462  89.835  90.280  59.792
  226DG     SC1 1463  90.074  90.312  59.981
  226DG     SC2 1464  90.115  90.535  60.175
  226DG     SC3 1465  90.357  90.365  60.156
  226DG     SC4 1466  90.211  90.237  59.946
  227DG     BB1 1467  89.532  90.390  59.689
  227DG     BB2 1468  89.588  90.683  59.893
  227DG     BB3 1469  89.687  90.820  59.789
  227DG     SC1 1470  89.964  90.719  59.873
  227DG     SC2 1471  90.160  90.864  60.045
  227DG     SC3 1472  90.282  90.622  59.928
  227DG     SC4 1473  90.034  90.605  59.785
  228DT     BB1 1474  89.617  91.059  59.701
  228DT     BB2 1475  89.798  91.268  59.932
  228DT     BB3 1476  89.950  91.368  59.834
  228DT     SC1 1477  90.095  91.149  59.822
  228DT     SC2 1478  90.266  91.169  59.952
  228DT     SC3 1479  90.228  90.944  59.721
  229DA     BB1 1480  89.759  91.727  59.969
  229DA     BB2 1481  90.111  91.759  60.065
  229DA     BB3 1482  90.227  91.830  59.901
  229DA     SC1 1483  90.294  91.547  59.792
  229DA     SC2 1484  90.494  91.399  59.774
  229DA     SC3 1485  90.361  91.276  59.592
  229DA     SC4 1486  90.196  91.484  59.681
  230DA     BB1 1487  90.354  92.120  60.052
  230DA     BB2 1488  90.684  91.961  60.046
  230DA     BB3 1489  90.789  92.014  59.868
  230DA     SC1 1490  90.683  91.771  59.705
  230DA     SC2 1491  90.773  91.560  59.608
  230DA     SC3 1492  90.566  91.564  59.457
  230DA     SC4 1493  90.549  91.792  59.619
  231DT     BB1 1494  90.993  92.147  59.850
  231DT     BB2 1495  91.199  91.852  59.825
  231DT     BB3 1496  91.296  91.848  59.642
  231DT     SC1 1497  91.075  91.780  59.518
  231DT     SC2 1498  91.092  91.578  59.448
  231DT     SC3 1499  90.868  91.793  59.355
  232DG     BB1 1500  91.528  91.818  59.973
  232DG     BB2 1501  91.553  91.528  59.758
  232DG     BB3 1502  91.662  91.571  59.597
  232DG     SC1 1503  91.423  91.666  59.430
  232DG     SC2 1504  91.316  91.531  59.186
  232DG     SC3 1505  91.188  91.795  59.227
  232DG     SC4 1506  91.379  91.819  59.439
  233DG     BB1 1507  91.767  91.310  59.745
  233DG     BB2 1508  91.679  91.147  59.434
  233DG     BB3 1509  91.805  91.202  59.291
  233DG     SC1 1510  91.639  91.444  59.203
  233DG     SC2 1511  91.498  91.475  58.942
  233DG     SC3 1512  91.492  91.728  59.095
  233DG     SC4 1513  91.663  91.585  59.275
  234DC     BB1 1514  91.850  91.041  59.246
  234DC     BB2 1515  91.704  91.006  58.918
  234DC     BB3 1516  91.828  91.092  58.776
  234DC     SC1 1517  91.757  91.334  58.850
  234DC     SC2 1518  91.639  91.424  58.695
  234DC     SC3 1519  91.774  91.579  58.945
  235DC     BB1 1520  91.829  90.842  58.724
  235DC     BB2 1521  91.723  91.009  58.422
  235DC     BB3 1522  91.884  91.101  58.332
  235DC     SC1 1523  91.885  91.292  58.512
  235DC     SC2 1524  91.822  91.477  58.420
  235DC     SC3 1525  91.967  91.448  58.709
  236DA     BB1 1526  91.657  90.874  58.058
  236DA     BB2 1527  91.733  91.200  57.908
  236DA     BB3 1528  91.942  91.216  57.868
  236DA     SC1 1529  92.010  91.341  58.144
  236DA     SC2 1530  92.084  91.562  58.234
  236DA     SC3 1531  92.161  91.430  58.440
  236DA     SC4 1532  92.052  91.241  58.263
  237DA     BB1 1533  91.824  91.292  57.569
  237DA     BB2 1534  92.005  91.610  57.600
  237DA     BB3 1535  92.215  91.578  57.580
  237DA     SC1 1536  92.262  91.535  57.884
  237DA     SC2 1537  92.373  91.656  58.072
  237DA     SC3 1538  92.376  91.427  58.190
  237DA     SC4 1539  92.257  91.384  57.940
  238DT     BB1 1540  92.316  91.651  57.416
  238DT     BB2 1541  92.496  91.915  57.584
  238DT     BB3 1542  92.694  91.861  57.609
  238DT     SC1 1543  92.632  91.695  57.803
  238DT     SC2 1544  92.706  91.772  57.989
  238DT     SC3 1545  92.603  91.469  57.936
  239DC     BB1 1546  92.788  92.032  57.410
  239DC     BB2 1547  92.980  92.125  57.701
  239DC     BB3 1548  93.152  92.010  57.712
  239DC     SC1 1549  93.016  91.800  57.792
  239DC     SC2 1550  93.064  91.758  57.997
  239DC     SC3 1551  92.912  91.558  57.793
  240DT     BB1 1552  93.331  92.213  57.628
  240DT     BB2 1553  93.468  92.105  57.944
  240DT     BB3 1554  93.605  91.953  57.914
  240DT     SC1 1555  93.413  91.779  57.866
  240DT     SC2 1556  93.403  91.638  58.028
  240DT     SC3 1557  93.262  91.605  57.738
  241DT     BB1 1558  93.845  92.105  57.957
  241DT     BB2 1559  93.874  91.834  58.193
  241DT     BB3 1560  93.980  91.677  58.108
  241DT     SC1 1561  93.774  91.609  57.961
  241DT     SC2 1562  93.695  91.421  58.030
  241DT     SC3 1563  93.626  91.562  57.747
  242DT     BB1 1564  94.214  91.722  58.256
  242DT     BB2 1565  94.122  91.381  58.335
  242DT     BB3 1566  94.211  91.252  58.200
  242DT     SC1 1567  94.042  91.319  58.011
  242DT     SC2 1568  93.910  91.154  57.971
  242DT     SC3 1569  93.949  91.416  57.784
  243DC     BB1 1570  94.387  91.161  58.390
  243DC     BB2 1571  94.208  90.867  58.283
  243DC     BB3 1572  94.302  90.782  58.119
  243DC     SC1 1573  94.212  90.971  57.960
  243DC     SC2 1574  94.065  90.887  57.827
  243DC     SC3 1575  94.210  91.175  57.794
  244DC     BB1 1576  94.379  90.580  58.278
  244DC     BB2 1577  94.184  90.425  58.017
  244DC     BB3 1578  94.303  90.386  57.853
  244DC     SC1 1579  94.307  90.640  57.786
  244DC     SC2 1580  94.194  90.667  57.605
  244DC     SC3 1581  94.399  90.882  57.735
  245DA     BB1 1582  94.076  90.052  57.967
  245DA     BB2 1583  94.032  90.107  57.607
  245DA     BB3 1584  94.213  90.060  57.503
  245DA     SC1 1585  94.326  90.350  57.521
  245DA     SC2 1586  94.371  90.540  57.366
  245DA     SC3 1587  94.530  90.624  57.549
  245DA     SC4 1588  94.421  90.384  57.646
  246DG     BB1 1589  94.004  89.875  57.377
  246DG     BB2 1590  94.080  90.074  57.084
  246DG     BB3 1591  94.255  90.019  57.008
  246DG     SC1 1592  94.418  90.216  57.176
  246DG     SC2 1593  94.570  90.450  57.072
  246DG     SC3 1594  94.630  90.405  57.358
  246DG     SC4 1595  94.470  90.170  57.320
  247DC     BB1 1596  94.240  89.953  56.820
  247DC     BB2 1597  94.389  90.224  56.633
  247DC     BB3 1598  94.588  90.183  56.595
  247DC     SC1 1599  94.654  90.235  56.844
  247DC     SC2 1600  94.769  90.417  56.850
  247DC     SC3 1601  94.743  90.200  57.090
  248DA     BB1 1602  94.394  90.296  56.240
  248DA     BB2 1603  94.707  90.485  56.267
  248DA     BB3 1604  94.875  90.356  56.238
  248DA     SC1 1605  94.904  90.287  56.540
  248DA     SC2 1606  95.065  90.334  56.725
  248DA     SC3 1607  94.961  90.129  56.839
  248DA     SC4 1608  94.828  90.156  56.594
  249DA     BB1 1609  94.940  90.592  56.018
  249DA     BB2 1610  95.250  90.648  56.204
  249DA     BB3 1611  95.388  90.489  56.170
  249DA     SC1 1612  95.288  90.319  56.411
  249DA     SC2 1613  95.374  90.248  56.634
  249DA     SC3 1614  95.196  90.063  56.621
  249DA     SC4 1615  95.173  90.211  56.383
  250DT     BB1 1616  95.554  90.531  56.072
  250DT     BB2 1617  95.778  90.513  56.355
  250DT     BB3 1618  95.883  90.335  56.350
  250DT     SC1 1619  95.673  90.199  56.429
  250DT     SC2 1620  95.704  90.127  56.629
  250DT     SC3 1621  95.473  90.026  56.425
  251DT     BB1 1622  96.106  90.471  56.282
  251DT     BB2 1623  96.196  90.293  56.583
  251DT     BB3 1624  96.259  90.101  56.536
  251DT     SC1 1625  96.013  90.023  56.488
  251DT     SC2 1626  95.951  89.886  56.642
  251DT     SC3 1627  95.802  89.935  56.358
  252DG     BB1 1628  96.568  90.278  56.735
  252DG     BB2 1629  96.480  89.960  56.884
  252DG     BB3 1630  96.555  89.811  56.776
  252DG     SC1 1631  96.310  89.786  56.594
  252DG     SC2 1632  96.123  89.554  56.583
  252DG     SC3 1633  96.067  89.745  56.364
  252DG     SC4 1634  96.303  89.875  56.461
  253DC     BB1 1635  96.707  89.669  56.860
  253DC     BB2 1636  96.505  89.375  56.912
  253DC     BB3 1637  96.545  89.234  56.766
  253DC     SC1 1638  96.411  89.371  56.587
  253DC     SC2 1639  96.231  89.265  56.536
  253DC     SC3 1640  96.359  89.512  56.370
  254DT     BB1 1641  96.671  89.083  56.951
  254DT     BB2 1642  96.411  88.870  56.820
  254DT     BB3 1643  96.477  88.773  56.650
  254DT     SC1 1644  96.457  88.992  56.507
  254DT     SC2 1645  96.295  88.970  56.366
  254DT     SC3 1646  96.525  89.198  56.358
  255DA     BB1 1647  96.308  88.499  56.918
  255DA     BB2 1648  96.162  88.442  56.587
  255DA     BB3 1649  96.306  88.354  56.456
  255DA     SC1 1650  96.411  88.626  56.349
  255DA     SC2 1651  96.405  88.756  56.136
  255DA     SC3 1652  96.608  88.882  56.231
  255DA     SC4 1653  96.537  88.692  56.425
  256DT     BB1 1654  96.252  88.188  56.407
  256DT     BB2 1655  96.161  88.268  56.067
  256DT     BB3 1656  96.315  88.216  55.939
  256DT     SC1 1657  96.458  88.422  56.015
  256DT     SC2 1658  96.470  88.564  55.854
  256DT     SC3 1659  96.656  88.563  56.120
  257DC     BB1 1660  96.143  88.036  55.864
  257DC     BB2 1661  96.229  88.219  55.565
  257DC     BB3 1662  96.410  88.152  55.490
  257DC     SC1 1663  96.542  88.277  55.679
  257DC     SC2 1664  96.651  88.441  55.593
  257DC     SC3 1665  96.697  88.317  55.889
  258DG     BB1 1666  96.121  88.125  55.203
  258DG     BB2 1667  96.417  88.293  55.080
  258DG     BB3 1668  96.563  88.160  55.050
  258DG     SC1 1669  96.676  88.182  55.333
  258DG     SC2 1670  96.943  88.294  55.407
  258DG     SC3 1671  96.814  88.166  55.640
  258DG     SC4 1672  96.618  88.087  55.448
  259DT     BB1 1673  96.645  88.122  54.848
  259DT     BB2 1674  96.973  88.272  54.867
  259DT     BB3 1675  97.116  88.125  54.894
  259DT     SC1 1676  97.047  88.093  55.145
  259DT     SC2 1677  97.205  88.166  55.272
  259DT     SC3 1678  96.957  87.979  55.365
  260DC     BB1 1679  97.219  88.123  54.628
  260DC     BB2 1680  97.515  88.169  54.829
  260DC     BB3 1681  97.598  87.985  54.875
  260DC     SC1 1682  97.410  87.936  55.052
  260DC     SC2 1683  97.494  87.941  55.250
  260DC     SC3 1684  97.204  87.820  55.170
  261DT     BB1 1685  97.831  87.963  54.686
  261DT     BB2 1686  97.985  87.907  55.007
  261DT     BB3 1687  98.001  87.703  55.043
  261DT     SC1 1688  97.744  87.685  55.094
  261DT     SC2 1689  97.715  87.646  55.304
  261DT     SC3 1690  97.491  87.614  55.072
  262DT     BB1 1691  98.297  87.630  54.989
  262DT     BB2 1692  98.248  87.514  55.327
  262DT     BB3 1693  98.212  87.310  55.328
  262DT     SC1 1694  97.968  87.346  55.238
  262DT     SC2 1695  97.827  87.296  55.394
  262DT     SC3 1696  97.758  87.334  55.080
  263DG     BB1 1697  98.561  87.309  55.549
  263DG     BB2 1698  98.297  87.143  55.732
  263DG     BB3 1699  98.288  86.951  55.680
  263DG     SC1 1700  98.091  86.997  55.450
  263DG     SC2 1701  97.809  86.900  55.438
  263DG     SC3 1702  97.892  87.013  55.178
  263DG     SC4 1703  98.149  87.031  55.304
  264DA     BB1 1704  98.310  86.866  56.015
  264DA     BB2 1705  97.977  86.713  56.000
  264DA     BB3 1706  97.989  86.516  55.918
  264DA     SC1 1707  97.947  86.609  55.624
  264DA     SC2 1708  97.770  86.592  55.449
  264DA     SC3 1709  97.959  86.644  55.283
  264DA     SC4 1710  98.078  86.641  55.537
  265DT     BB1 1711  97.941  86.364  56.040
  265DT     BB2 1712  97.617  86.299  55.896
  265DT     BB3 1713  97.623  86.125  55.784
  265DT     SC1 1714  97.754  86.245  55.591
  265DT     SC2 1715  97.626  86.264  55.419
  265DT     SC3 1716  97.947  86.304  55.422
  266DA     BB1 1717  97.300  86.121  56.050
  266DA     BB2 1718  97.176  86.031  55.717
  266DA     BB3 1719  97.240  85.835  55.664
  266DA     SC1 1720  97.502  85.931  55.527
  266DA     SC2 1721  97.595  85.945  55.296
  266DA     SC3 1722  97.824  85.961  55.411
  266DA     SC4 1723  97.635  85.938  55.617
  267DC     BB1 1724  97.097  85.720  55.647
  267DC     BB2 1725  97.102  85.693  55.287
  267DC     BB3 1726  97.196  85.517  55.231
  267DC     SC1 1727  97.432  85.615  55.290
  267DC     SC2 1728  97.544  85.646  55.108
  267DC     SC3 1729  97.666  85.646  55.408
  268DC     BB1 1730  96.954  85.434  55.157
  268DC     BB2 1731  97.158  85.402  54.861
  268DC     BB3 1732  97.259  85.221  54.864
  268DC     SC1 1733  97.427  85.311  55.045
  268DC     SC2 1734  97.622  85.334  54.957
  268DC     SC3 1735  97.556  85.333  55.274
  269DG     BB1 1736  97.039  85.235  54.522
  269DG     BB2 1737  97.384  85.148  54.454
  269DG     BB3 1738  97.416  84.957  54.500
  269DG     SC1 1739  97.495  85.014  54.790
  269DG     SC2 1740  97.767  84.975  54.908
  269DG     SC3 1741  97.568  85.038  55.118
  269DG     SC4 1742  97.381  85.019  54.902
  270DG     BB1 1743  97.511  84.902  54.189
  270DG     BB2 1744  97.832  84.805  54.326
  270DG     BB3 1745  97.825  84.616  54.386
  270DG     SC1 1746  97.733  84.683  54.670
  270DG     SC2 1747  97.891  84.643  54.920
  270DG     SC3 1748  97.612  84.719  54.983
  270DG     SC4 1749  97.576  84.695  54.700
  271DA     BB1 1750  98.110  84.550  54.194
  271DA     BB2 1751  98.291  84.436  54.492
  271DA     BB3 1752  98.230  84.238  54.545
  271DA     SC1 1753  98.002  84.333  54.734
  271DA     SC2 1754  97.954  84.334  54.979
  271DA     SC3 1755  97.709  84.363  54.910
  271DA     SC4 1756  97.855  84.349  54.671
  272DA     BB1 1757  98.555  84.177  54.530
  272DA     BB2 1758  98.535  84.079  54.883
  272DA     BB3 1759  98.445  83.886  54.901
  272DA     SC1 1760  98.156  83.996  54.928
  272DA     SC2 1761  97.981  84.014  55.105
  272DA     SC3 1762  97.816  84.043  54.911
  272DA     SC4 1763  98.069  84.011  54.794
  273DA     BB1 1764  98.719  83.807  55.071
  273DA     BB2 1765  98.503  83.736  55.359
  273DA     BB3 1766  98.407  83.547  55.335
  273DA     SC1 1767  98.158  83.664  55.191
  273DA     SC2 1768  97.916  83.698  55.240
  273DA     SC3 1769  97.887  83.715  54.986
  273DA     SC4 1770  98.160  83.670  55.030
  274DT     BB1 1771  98.451  83.375  55.460
  274DT     BB2 1772  98.146  83.383  55.653
  274DT     BB3 1773  98.024  83.225  55.599
  274DT     SC1 1774  97.958  83.343  55.373
  274DT     SC2 1775  97.752  83.403  55.381
  274DT     SC3 1776  97.935  83.387  55.114
  275DA     BB1 1777  98.057  83.186  56.016
  275DA     BB2 1778  97.700  83.166  55.933
  275DA     BB3 1779  97.654  82.975  55.849
  275DA     SC1 1780  97.705  83.063  55.556
  275DA     SC2 1781  97.571  83.104  55.349
  275DA     SC3 1782  97.794  83.075  55.224
  275DA     SC4 1783  97.853  83.040  55.496
  276DA     BB1 1784  97.425  82.951  56.089
  276DA     BB2 1785  97.171  82.937  55.824
  276DA     BB3 1786  97.162  82.740  55.742
  276DA     SC1 1787  97.372  82.797  55.520
  276DA     SC2 1788  97.377  82.823  55.272
  276DA     SC3 1789  97.628  82.774  55.291
  276DA     SC4 1790  97.526  82.763  55.553
  277DA     BB1 1791  96.841  82.757  55.818
  277DA     BB2 1792  96.771  82.728  55.459
  277DA     BB3 1793  96.790  82.525  55.396
  277DA     SC1 1794  97.091  82.549  55.323
  277DA     SC2 1795  97.232  82.549  55.118
  277DA     SC3 1796  97.426  82.490  55.275
  277DA     SC4 1797  97.198  82.511  55.437
  278DA     BB1 1798  96.484  82.571  55.283
  278DA     BB2 1799  96.618  82.510  54.947
  278DA     BB3 1800  96.645  82.300  54.916
  278DA     SC1 1801  96.938  82.298  55.019
  278DA     SC2 1802  97.167  82.268  54.925
  278DA     SC3 1803  97.237  82.214  55.166
  278DA     SC4 1804  96.962  82.266  55.175
  279DC     BB1 1805  96.530  82.206  54.775
  279DC     BB2 1806  96.788  82.177  54.525
  279DC     BB3 1807  96.852  81.980  54.513
  279DC     SC1 1808  96.986  82.001  54.738
  279DC     SC2 1809  97.197  81.996  54.697
  279DC     SC3 1810  97.059  81.960  54.988
  280DA     BB1 1811  96.759  82.124  54.131
  280DA     BB2 1812  97.092  81.972  54.118
  280DA     BB3 1813  97.077  81.759  54.131
  280DA     SC1 1814  97.099  81.751  54.441
  280DA     SC2 1815  97.264  81.676  54.612
  280DA     SC3 1816  97.064  81.673  54.773
  280DA     SC4 1817  96.962  81.754  54.525
  281DG     BB1 1818  97.220  81.799  53.863
  281DG     BB2 1819  97.487  81.627  54.036
  281DG     BB3 1820  97.450  81.432  54.041
  281DG     SC1 1821  97.295  81.442  54.305
  281DG     SC2 1822  97.382  81.322  54.564
  281DG     SC3 1823  97.103  81.420  54.581
  281DG     SC4 1824  97.137  81.469  54.301
  282DT     BB1 1825  97.591  81.318  53.949
  282DT     BB2 1826  97.760  81.165  54.229
  282DT     BB3 1827  97.686  80.974  54.261
  282DT     SC1 1828  97.464  81.069  54.365
  282DT     SC2 1829  97.461  81.025  54.576
  282DT     SC3 1830  97.208  81.122  54.398
  283DT     BB1 1831  97.920  80.886  54.170
  283DT     BB2 1832  97.886  80.739  54.498
  283DT     BB3 1833  97.772  80.567  54.486
  283DT     SC1 1834  97.551  80.705  54.456
  283DT     SC2 1835  97.430  80.685  54.633
  283DT     SC3 1836  97.331  80.801  54.347
  284DA     BB1 1837  98.125  80.471  54.690
  284DA     BB2 1838  97.844  80.338  54.884
  284DA     BB3 1839  97.761  80.167  54.786
  284DA     SC1 1840  97.554  80.331  54.621
  284DA     SC2 1841  97.307  80.364  54.616
  284DA     SC3 1842  97.345  80.449  54.376
  284DA     SC4 1843  97.598  80.379  54.474
  285DT     BB1 1844  97.778  79.990  54.878
  285DT     BB2 1845  97.434  79.961  54.983
  285DT     BB3 1846  97.335  79.825  54.863
  285DT     SC1 1847  97.325  79.995  54.664
  285DT     SC2 1848  97.122  80.058  54.633
  285DT     SC3 1849  97.367  80.102  54.426
  286DT     BB1 1850  97.331  79.660  55.073
  286DT     BB2 1851  96.985  79.702  54.982
  286DT     BB3 1852  96.935  79.568  54.832
  286DT     SC1 1853  97.064  79.709  54.652
  286DT     SC2 1854  96.923  79.799  54.517
  286DT     SC3 1855  97.242  79.774  54.469
  287DA     BB1 1856  96.655  79.555  55.144
  287DA     BB2 1857  96.473  79.579  54.827
  287DA     BB3 1858  96.490  79.397  54.718
  287DA     SC1 1859  96.746  79.484  54.564
  287DA     SC2 1860  96.809  79.544  54.330
  287DA     SC3 1861  97.049  79.492  54.403
  287DA     SC4 1862  96.888  79.445  54.628
  288DA     BB1 1863  96.169  79.463  54.726
  288DA     BB2 1864  96.184  79.457  54.360
  288DA     BB3 1865  96.219  79.258  54.290
  288DA     SC1 1866  96.529  79.286  54.290
  288DA     SC2 1867  96.713  79.300  54.122
  288DA     SC3 1868  96.866  79.231  54.316
  288DA     SC4 1869  96.607  79.241  54.423
  289DT     BB1 1870  96.076  79.189  54.193
  289DT     BB2 1871  96.228  79.189  53.866
  289DT     BB3 1872  96.300  79.001  53.821
  289DT     SC1 1873  96.503  79.031  53.985
  289DT     SC2 1874  96.685  79.047  53.870
  289DT     SC3 1875  96.665  78.992  54.189
  290DT     BB1 1876  96.096  78.952  53.643
  290DT     BB2 1877  96.393  78.879  53.452
  290DT     BB3 1878  96.450  78.682  53.481
  290DT     SC1 1879  96.541  78.735  53.721
  290DT     SC2 1880  96.756  78.720  53.721
  290DT     SC3 1881  96.567  78.731  53.984
  291DT     BB1 1882  96.354  78.557  53.231
  291DT     BB2 1883  96.698  78.448  53.245
  291DT     BB3 1884  96.709  78.262  53.336
  291DT     SC1 1885  96.668  78.368  53.573
  291DT     SC2 1886  96.849  78.354  53.689
  291DT     SC3 1887  96.553  78.421  53.804
  292DT     BB1 1888  96.742  78.059  53.108
  292DT     BB2 1889  97.021  77.979  53.321
  292DT     BB3 1890  96.973  77.819  53.444
  292DT     SC1 1891  96.821  77.971  53.595
  292DT     SC2 1892  96.914  77.996  53.787
  292DT     SC3 1893  96.606  78.067  53.714
  293DG     BB1 1894  97.280  77.617  53.244
  293DG     BB2 1895  97.335  77.601  53.601
  293DG     BB3 1896  97.239  77.444  53.677
  293DG     SC1 1897  96.980  77.597  53.731
  293DG     SC2 1898  96.866  77.659  54.000
  293DG     SC3 1899  96.674  77.729  53.786
  293DG     SC4 1900  96.869  77.605  53.616
  294DA     BB1 1901  97.526  77.298  53.832
  294DA     BB2 1902  97.379  77.347  54.164
  294DA     BB3 1903  97.252  77.183  54.213
  294DA     SC1 1904  96.996  77.314  54.094
  294DA     SC2 1905  96.782  77.411  54.178
  294DA     SC3 1906  96.695  77.373  53.940
  294DA     SC4 1907  96.960  77.281  53.941
  295DC     BB1 1908  97.296  77.039  54.377
  295DC     BB2 1909  97.060  77.180  54.610
  295DC     BB3 1910  96.902  77.049  54.639
  295DC     SC1 1911  96.800  77.107  54.405
  295DC     SC2 1912  96.617  77.217  54.432
  295DC     SC3 1913  96.716  77.078  54.156
  296DT     BB1 1914  96.993  76.994  54.891
  296DT     BB2 1915  96.660  77.126  54.939
  296DT     BB3 1916  96.521  76.973  54.928
  296DT     SC1 1917  96.545  76.959  54.667
  296DT     SC2 1918  96.365  77.030  54.575
  296DT     SC3 1919  96.600  76.862  54.428
  297DT     BB1 1920  96.485  77.003  55.192
  297DT     BB2 1921  96.161  77.061  55.046
  297DT     BB3 1922  96.062  76.881  55.020
  297DT     SC1 1923  96.212  76.818  54.815
  297DT     SC2 1924  96.094  76.825  54.635
  297DT     SC3 1925  96.387  76.689  54.665
  298DT     BB1 1926  95.906  76.971  55.212
  298DT     BB2 1927  95.688  76.914  54.930
  298DT     BB3 1928  95.634  76.714  54.922
  298DT     SC1 1929  95.872  76.646  54.832
  298DT     SC2 1930  95.855  76.583  54.627
  298DT     SC3 1931  96.110  76.534  54.821
  299DA     BB1 1932  95.307  76.974  54.886
  299DA     BB2 1933  95.288  76.724  54.619
  299DA     BB3 1934  95.242  76.532  54.700
  299DA     SC1 1935  95.540  76.450  54.739
  299DA     SC2 1936  95.702  76.289  54.640
  299DA     SC3 1937  95.835  76.319  54.857
  299DA     SC4 1938  95.608  76.482  54.882
  300DA     BB1 1939  95.035  76.588  54.455
  300DA     BB2 1940  95.169  76.280  54.307
  300DA     BB3 1941  95.111  76.111  54.423
  300DA     SC1 1942  95.363  76.119  54.605
  300DA     SC2 1943  95.569  75.983  54.642
  300DA     SC3 1944  95.581  76.101  54.870
  300DA     SC4 1945  95.353  76.202  54.743
  301DA     BB1 1946  95.032  76.040  54.114
  301DA     BB2 1947  95.247  75.746  54.153
  301DA     BB3 1948  95.159  75.607  54.289
  301DA     SC1 1949  95.299  75.727  54.540
  301DA     SC2 1950  95.477  75.661  54.701
  301DA     SC3 1951  95.374  75.838  54.856
  301DA     SC4 1952  95.219  75.841  54.622
  302DT     BB1 1953  95.115  75.451  54.205
  302DT     BB2 1954  95.365  75.239  54.356
  302DT     BB3 1955  95.284  75.136  54.516
  302DT     SC1 1956  95.286  75.352  54.666
  302DT     SC2 1957  95.434  75.329  54.821
  302DT     SC3 1958  95.200  75.553  54.812
  303DA     BB1 1959  95.462  74.842  54.275
  303DA     BB2 1960  95.559  74.773  54.621
  303DA     BB3 1961  95.393  74.693  54.730
  303DA     SC1 1962  95.291  74.971  54.826
  303DA     SC2 1963  95.277  75.098  55.040
  303DA     SC3 1964  95.098  75.238  54.922
  303DA     SC4 1965  95.181  75.045  54.736
  304DA     BB1 1966  95.583  74.427  54.811
  304DA     BB2 1967  95.535  74.513  55.164
  304DA     BB3 1968  95.344  74.446  55.232
  304DA     SC1 1969  95.199  74.712  55.160
  304DA     SC2 1970  95.094  74.904  55.280
  304DA     SC3 1971  94.971  74.949  55.060
  304DA     SC4 1972  95.131  74.723  55.014
  305DT     BB1 1973  95.289  74.268  55.385
  305DT     BB2 1974  95.194  74.479  55.662
  305DT     BB3 1975  94.991  74.461  55.698
  305DT     SC1 1976  94.933  74.606  55.487
  305DT     SC2 1977  94.852  74.795  55.550
  305DT     SC3 1978  94.837  74.672  55.250
  306DT     BB1 1979  94.986  74.287  55.940
  306DT     BB2 1980  94.797  74.576  56.044
  306DT     BB3 1981  94.594  74.541  56.018
  306DT     SC1 1982  94.615  74.571  55.758
  306DT     SC2 1983  94.515  74.752  55.699
  306DT     SC3 1984  94.609  74.514  55.501
  307DC     BB1 1985  94.512  74.495  56.297
  307DC     BB2 1986  94.302  74.769  56.192
  307DC     BB3 1987  94.119  74.697  56.127
  307DC     SC1 1988  94.225  74.610  55.903
  307DC     SC2 1989  94.153  74.729  55.739
  307DC     SC3 1990  94.304  74.444  55.714
  308DT     BB1 1991  93.971  74.784  56.353
  308DT     BB2 1992  93.814  74.950  56.074
  308DT     BB3 1993  93.657  74.836  56.003
  308DT     SC1 1994  93.822  74.667  55.889
  308DT     SC2 1995  93.808  74.686  55.675
  308DT     SC3 1996  93.949  74.441  55.835
  309DC     BB1 1997  93.480  75.017  56.104
  309DC     BB2 1998  93.416  75.012  55.749
  309DC     BB3 1999  93.278  74.865  55.704
  309DC     SC1 2000  93.456  74.675  55.737
  309DC     SC2 2001  93.502  74.587  55.547
  309DC     SC3 2002  93.577  74.464  55.837
  310DT     BB1 2003  93.127  75.072  55.651
  310DT     BB2 2004  93.149  74.885  55.343
  310DT     BB3 2005  93.012  74.730  55.344
  310DT     SC1 2006  93.159  74.592  55.511
  310DT     SC2 2007  93.241  74.420  55.410
  310DT     SC3 2008  93.232  74.465  55.731
  311DA     BB1 2009  93.032  74.963  54.993
  311DA     BB2 2010  93.038  74.607  54.903
  311DA     BB3 2011  92.850  74.516  54.948
  311DA     SC1 2012  92.934  74.432  55.236
  311DA     SC2 2013  92.984  74.221  55.359
  311DA     SC3 2014  92.939  74.358  55.571
  311DA     SC4 2015  92.901  74.534  55.356
  312DA     BB1 2016  92.948  74.443  54.643
  312DA     BB2 2017  92.916  74.094  54.750
  312DA     BB3 2018  92.712  74.049  54.795
  312DA     SC1 2019  92.736  74.127  55.096
  312DA     SC2 2020  92.734  74.012  55.317
  312DA     SC3 2021  92.677  74.243  55.414
  312DA     SC4 2022  92.699  74.278  55.136
  313DT     BB1 2023  92.650  73.926  54.680
  313DT     BB2 2024  92.624  73.649  54.910
  313DT     BB3 2025  92.430  73.636  54.983
  313DT     SC1 2026  92.465  73.844  55.139
  313DT     SC2 2027  92.468  73.779  55.344
  313DT     SC3 2028  92.436  74.085  55.241
  314DC     BB1 2029  92.387  73.414  54.831
  314DC     BB2 2030  92.300  73.310  55.165
  314DC     BB3 2031  92.102  73.357  55.204
  314DC     SC1 2032  92.160  73.612  55.232
  314DC     SC2 2033  92.138  73.668  55.438
  314DC     SC3 2034  92.164  73.872  55.187
  315DC     BB1 2035  92.010  73.094  55.183
  315DC     BB2 2036  91.895  73.197  55.509
  315DC     BB3 2037  91.706  73.282  55.494
  315DC     SC1 2038  91.805  73.502  55.389
  315DC     SC2 2039  91.785  73.663  55.531
  315DC     SC3 2040  91.852  73.694  55.215
  316DT     BB1 2041  91.575  73.062  55.606
  316DT     BB2 2042  91.475  73.339  55.815
  316DT     BB3 2043  91.302  73.426  55.740
  316DT     SC1 2044  91.435  73.540  55.544
  316DT     SC2 2045  91.440  73.753  55.576
  316DT     SC3 2046  91.514  73.600  55.300
  317DC     BB1 2047  91.148  73.322  55.943
  317DC     BB2 2048  91.093  73.678  55.963
  317DC     BB3 2049  90.934  73.732  55.841
  317DC     SC1 2050  91.080  73.704  55.625
  317DC     SC2 2051  91.117  73.897  55.538
  317DC     SC3 2052  91.165  73.611  55.393
  318DA     BB1 2053  90.864  73.892  56.222
  318DA     BB2 2054  90.814  74.159  55.976
  318DA     BB3 2055  90.631  74.129  55.870
  318DA     SC1 2056  90.763  73.962  55.643
  318DA     SC2 2057  90.815  73.989  55.400
  318DA     SC3 2058  90.829  73.733  55.396
  318DA     SC4 2059  90.766  73.802  55.660
  319DA     BB1 2060  90.591  74.437  55.973
  319DA     BB2 2061  90.564  74.531  55.620
  319DA     BB3 2062  90.377  74.469  55.540
  319DA     SC1 2063  90.481  74.191  55.446
  319DA     SC2 2064  90.529  74.076  55.230
  319DA     SC3 2065  90.513  73.859  55.367
  319DA     SC4 2066  90.466  74.068  55.548
  320DT     BB1 2067  90.246  74.610  55.486
  320DT     BB2 2068  90.275  74.568  55.129
  320DT     BB3 2069  90.111  74.466  55.056
  320DT     SC1 2070  90.200  74.239  55.153
  320DT     SC2 2071  90.259  74.110  54.991
  320DT     SC3 2072  90.213  74.019  55.298
  321DG     BB1 2073  90.090  74.821  54.851
  321DG     BB2 2074  90.066  74.541  54.623
  321DG     BB3 2075  89.880  74.470  54.622
  321DG     SC1 2076  89.928  74.271  54.850
  321DG     SC2 2077  89.925  73.973  54.826
  321DG     SC3 2078  89.941  74.057  55.110
  321DG     SC4 2079  89.907  74.319  55.001
  322DT     BB1 2080  89.712  74.469  54.436
  322DT     BB2 2081  89.720  74.121  54.340
  322DT     BB3 2082  89.544  74.028  54.397
  322DT     SC1 2083  89.618  74.025  54.649
  322DT     SC2 2084  89.658  73.822  54.709
  322DT     SC3 2085  89.619  74.075  54.908
  323DA     BB1 2086  89.552  73.940  53.986
  323DA     BB2 2087  89.494  73.624  54.161
  323DA     BB3 2088  89.290  73.609  54.221
  323DA     SC1 2089  89.337  73.740  54.499
  323DA     SC2 2090  89.338  73.670  54.739
  323DA     SC3 2091  89.308  73.920  54.790
  323DA     SC4 2092  89.317  73.899  54.511
  324DT     BB1 2093  89.147  73.462  54.138
  324DT     BB2 2094  89.149  73.242  54.423
  324DT     BB3 2095  88.967  73.251  54.521
  324DT     SC1 2096  89.025  73.485  54.623
  324DT     SC2 2097  89.054  73.465  54.835
  324DT     SC3 2098  89.012  73.744  54.675
  325DA     BB1 2099  89.055  72.849  54.446
  325DA     BB2 2100  88.969  72.882  54.801
  325DA     BB3 2101  88.759  72.911  54.824
  325DA     SC1 2102  88.776  73.221  54.812
  325DA     SC2 2103  88.746  73.414  54.967
  325DA     SC3 2104  88.715  73.554  54.755
  325DA     SC4 2105  88.758  73.291  54.668
  326DT     BB1 2106  88.671  72.769  54.916
  326DT     BB2 2107  88.621  72.942  55.228
  326DT     BB3 2108  88.425  73.006  55.243
  326DT     SC1 2109  88.467  73.200  55.070
  326DT     SC2 2110  88.459  73.389  55.172
  326DT     SC3 2111  88.449  73.345  54.851
  327DT     BB1 2112  88.404  72.821  55.430
  327DT     BB2 2113  88.308  73.129  55.591
  327DT     BB3 2114  88.110  73.171  55.552
  327DT     SC1 2115  88.166  73.244  55.306
  327DT     SC2 2116  88.138  73.457  55.287
  327DT     SC3 2117  88.170  73.246  55.042
  328DA     BB1 2118  88.177  73.199  55.965
  328DA     BB2 2119  87.989  73.496  55.860
  328DA     BB3 2120  87.788  73.442  55.811
  328DA     SC1 2121  87.849  73.390  55.511
  328DA     SC2 2122  87.797  73.495  55.291
  328DA     SC3 2123  87.854  73.265  55.191
  328DA     SC4 2124  87.887  73.239  55.468
  329DA     BB1 2125  87.719  73.682  56.028
  329DA     BB2 2126  87.539  73.852  55.758
  329DA     BB3 2127  87.353  73.756  55.720
  329DA     SC1 2128  87.468  73.562  55.506
  329DA     SC2 2129  87.452  73.529  55.259
  329DA     SC3 2130  87.535  73.291  55.306
  329DA     SC4 2131  87.519  73.418  55.555
  330DT     BB1 2132  87.160  73.847  55.763
  330DT     BB2 2133  87.064  73.914  55.422
  330DT     BB3 2134  86.913  73.785  55.364
  330DT     SC1 2135  87.082  73.585  55.343
  330DT     SC2 2136  87.105  73.533  55.136
  330DT     SC3 2137  87.198  73.352  55.389
  331DT     BB1 2138  86.697  73.973  55.375
  331DT     BB2 2139  86.680  73.845  55.038
  331DT     BB3 2140  86.550  73.684  55.030
  331DT     SC1 2141  86.726  73.527  55.147
  331DT     SC2 2142  86.798  73.382  55.006
  331DT     SC3 2143  86.836  73.369  55.327
  332DT     BB1 2144  86.344  73.823  54.900
  332DT     BB2 2145  86.415  73.545  54.681
  332DT     BB3 2146  86.296  73.383  54.731
  332DT     SC1 2147  86.441  73.333  54.944
  332DT     SC2 2148  86.550  73.150  54.915
  332DT     SC3 2149  86.507  73.302  55.198
  333DG     BB1 2150  86.200  73.462  54.342
  333DG     BB2 2151  86.299  73.117  54.384
  333DG     BB3 2152  86.146  73.011  54.455
  333DG     SC1 2153  86.217  73.060  54.749
  333DG     SC2 2154  86.310  72.853  54.944
  333DG     SC3 2155  86.254  73.109  55.081
  333DG     SC4 2156  86.158  73.189  54.823
  334DA     BB1 2157  86.207  72.798  54.191
  334DA     BB2 2158  86.275  72.527  54.427
  334DA     BB3 2159  86.093  72.450  54.507
  334DA     SC1 2160  86.089  72.644  54.750
  334DA     SC2 2161  86.119  72.631  54.998
  334DA     SC3 2162  85.996  72.856  55.004
  334DA     SC4 2163  86.010  72.783  54.733
  335DG     BB1 2164  86.207  72.197  54.376
  335DG     BB2 2165  86.223  72.086  54.720
  335DG     BB3 2166  86.043  72.025  54.780
  335DG     SC1 2167  85.956  72.300  54.880
  335DG     SC2 2168  85.905  72.375  55.165
  335DG     SC3 2169  85.820  72.592  54.982
  335DG     SC4 2170  85.885  72.401  54.778
  336DA     BB1 2171  86.226  71.752  54.878
  336DA     BB2 2172  86.114  71.806  55.223
  336DA     BB3 2173  85.909  71.751  55.244
  336DA     SC1 2174  85.801  72.035  55.177
  336DA     SC2 2175  85.687  72.222  55.296
  336DA     SC3 2176  85.615  72.301  55.063
  336DA     SC4 2177  85.765  72.067  55.023
  337DT     BB1 2178  85.892  71.610  55.358
  337DT     BB2 2179  85.751  71.793  55.636
  337DT     BB3 2180  85.545  71.771  55.637
  337DT     SC1 2181  85.519  71.936  55.435
  337DT     SC2 2182  85.426  72.118  55.503
  337DT     SC3 2183  85.460  72.026  55.194
  338DA     BB1 2184  85.707  71.692  56.017
  338DA     BB2 2185  85.422  71.918  56.057
  338DA     BB3 2186  85.239  71.816  56.015
  338DA     SC1 2187  85.239  71.889  55.713
  338DA     SC2 2188  85.108  72.034  55.558
  338DA     SC3 2189  85.204  71.886  55.371
  338DA     SC4 2190  85.308  71.785  55.611
  339DG     BB1 2191  85.180  71.900  56.307
  339DG     BB2 2192  84.913  72.087  56.151
  339DG     BB3 2193  84.761  71.965  56.109
  339DG     SC1 2194  84.864  71.893  55.830
  339DG     SC2 2195  84.735  71.966  55.570
  339DG     SC3 2196  84.957  71.776  55.527
  339DG     SC4 2197  84.964  71.769  55.814
  340DA     BB1 2198  84.557  72.193  56.276
  340DA     BB2 2199  84.354  72.236  55.974
  340DA     BB3 2200  84.228  72.066  55.945
  340DA     SC1 2201  84.434  71.912  55.770
  340DA     SC2 2202  84.459  71.843  55.532
  340DA     SC3 2203  84.627  71.671  55.620
  340DA     SC4 2204  84.534  71.811  55.845
  341DT     BB1 2205  84.017  72.079  55.964
  341DT     BB2 2206  83.939  72.054  55.613
  341DT     BB3 2207  83.859  71.867  55.571
  341DT     SC1 2208  84.095  71.754  55.590
  341DT     SC2 2209  84.159  71.688  55.395
  341DT     SC3 2210  84.289  71.599  55.678
  342DT     BB1 2211  83.596  71.960  55.541
  342DT     BB2 2212  83.663  71.789  55.231
  342DT     BB3 2213  83.610  71.590  55.247
  342DT     SC1 2214  83.821  71.537  55.393
  342DT     SC2 2215  83.957  71.415  55.281
  342DT     SC3 2216  83.967  71.465  55.601
  343DA     BB1 2217  83.394  71.713  54.907
  343DA     BB2 2218  83.570  71.404  54.817
  343DA     BB3 2219  83.470  71.235  54.899
  343DA     SC1 2220  83.633  71.236  55.164
  343DA     SC2 2221  83.807  71.095  55.274
  343DA     SC3 2222  83.733  71.211  55.491
  343DA     SC4 2223  83.572  71.318  55.288
  344DA     BB1 2224  83.457  71.118  54.589
  344DA     BB2 2225  83.667  70.839  54.701
  344DA     BB3 2226  83.548  70.692  54.801
  344DA     SC1 2227  83.585  70.818  55.083
  344DA     SC2 2228  83.701  70.763  55.296
  344DA     SC3 2229  83.539  70.929  55.405
  344DA     SC4 2230  83.474  70.924  55.132
  345DA     BB1 2231  83.683  70.490  54.581
  345DA     BB2 2232  83.838  70.315  54.863
  345DA     BB3 2233  83.695  70.187  54.958
  345DA     SC1 2234  83.600  70.404  55.160
  345DA     SC2 2235  83.616  70.448  55.405
  345DA     SC3 2236  83.414  70.602  55.370
  345DA     SC4 2237  83.474  70.494  55.118
  346DC     BB1 2238  83.729  69.991  54.949
  346DC     BB2 2239  83.842  69.954  55.290
  346DC     BB3 2240  83.696  69.863  55.404
  346DC     SC1 2241  83.553  70.083  55.409
  346DC     SC2 2242  83.554  70.164  55.608
  346DC     SC3 2243  83.352  70.250  55.370
  347DT     BB1 2244  83.861  69.658  55.408
  347DT     BB2 2245  83.809  69.746  55.754
  347DT     BB3 2246  83.635  69.660  55.824
  347DT     SC1 2247  83.487  69.833  55.693
  347DT     SC2 2248  83.391  69.965  55.832
  347DT     SC3 2249  83.314  69.930  55.519
  348DA     BB1 2250  83.964  69.605  56.080
  348DA     BB2 2251  83.678  69.721  56.278
  348DA     BB3 2252  83.528  69.570  56.287
  348DA     SC1 2253  83.377  69.669  56.034
  348DA     SC2 2254  83.160  69.779  55.979
  348DA     SC3 2255  83.198  69.690  55.741
  348DA     SC4 2256  83.418  69.604  55.892
  349DT     BB1 2257  83.512  69.522  56.455
  349DT     BB2 2258  83.189  69.670  56.518
  349DT     BB3 2259  83.041  69.528  56.492
  349DT     SC1 2260  83.064  69.540  56.231
  349DT     SC2 2261  82.889  69.633  56.147
  349DT     SC3 2262  83.113  69.467  55.982
  350DC     BB1 2263  83.016  69.544  56.753
  350DC     BB2 2264  82.685  69.608  56.624
  350DC     BB3 2265  82.591  69.429  56.580
  350DC     SC1 2266  82.736  69.397  56.364
  350DC     SC2 2267  82.612  69.421  56.190
  350DC     SC3 2268  82.910  69.293  56.195
  351DA     BB1 2269  82.322  69.639  56.826
  351DA     BB2 2270  82.130  69.504  56.544
  351DA     BB3 2271  82.107  69.293  56.565
  351DA     SC1 2272  82.365  69.224  56.407
  351DA     SC2 2273  82.426  69.122  56.188
  351DA     SC3 2274  82.656  69.080  56.294
  351DA     SC4 2275  82.501  69.205  56.491
  352DT     BB1 2276  81.914  69.186  56.610
  352DT     BB2 2277  81.864  69.039  56.284
  352DT     BB3 2278  81.895  68.835  56.294
  352DT     SC1 2279  82.155  68.867  56.308
  352DT     SC2 2280  82.246  68.798  56.126
  352DT     SC3 2281  82.401  68.861  56.404
  353DT     BB1 2282  81.618  68.738  56.289
  353DT     BB2 2283  81.770  68.556  56.017
  353DT     BB3 2284  81.834  68.371  56.083
  353DT     SC1 2285  82.039  68.478  56.208
  353DT     SC2 2286  82.221  68.423  56.107
  353DT     SC3 2287  82.199  68.551  56.404
  354DA     BB1 2288  81.583  68.243  55.768
  354DA     BB2 2289  81.902  68.068  55.723
  354DA     BB3 2290  81.915  67.901  55.855
  354DA     SC1 2291  82.048  68.061  56.085
  354DA     SC2 2292  82.271  68.073  56.197
  354DA     SC3 2293  82.145  68.183  56.391
  354DA     SC4 2294  81.952  68.127  56.196
  355DT     BB1 2295  81.913  67.668  55.798
  355DT     BB2 2296  82.266  67.616  55.850
  355DT     BB3 2297  82.296  67.490  56.012
  355DT     SC1 2298  82.236  67.681  56.181
  355DT     SC2 2299  82.413  67.740  56.288
  355DT     SC3 2300  82.108  67.815  56.369
  356DC     BB1 2301  82.370  67.257  55.862
  356DC     BB2 2302  82.652  67.313  56.080
  356DC     BB3 2303  82.631  67.202  56.253
  356DC     SC1 2304  82.448  67.367  56.345
  356DC     SC2 2305  82.528  67.477  56.512
  356DC     SC3 2306  82.215  67.458  56.429
  357DA     BB1 2307  83.008  67.103  56.103
  357DA     BB2 2308  83.051  67.196  56.455
  357DA     BB3 2309  82.984  67.038  56.582
  357DA     SC1 2310  82.692  67.144  56.602
  357DA     SC2 2311  82.545  67.247  56.774
  357DA     SC3 2312  82.351  67.172  56.624
  357DA     SC4 2313  82.586  67.088  56.495
  358DG     BB1 2314  83.277  67.045  56.678
  358DG     BB2 2315  83.124  67.154  56.987
  358DG     BB3 2316  83.062  66.996  57.091
  358DG     SC1 2317  82.784  66.991  56.964
  358DG     SC2 2318  82.526  67.048  57.103
  358DG     SC3 2319  82.478  66.944  56.830
  358DG     SC4 2320  82.762  66.908  56.829
  359DC     BB1 2321  83.147  66.962  57.286
  359DC     BB2 2322  82.878  67.066  57.502
  359DC     BB3 2323  82.781  66.900  57.579
  359DC     SC1 2324  82.662  66.852  57.350
  359DC     SC2 2325  82.452  66.892  57.369
  359DC     SC3 2326  82.593  66.730  57.127
  360DA     BB1 2327  82.879  67.176  57.878
  360DA     BB2 2328  82.527  67.081  57.919
  360DA     BB3 2329  82.513  66.880  57.989
  360DA     SC1 2330  82.501  66.755  57.705
  360DA     SC2 2331  82.333  66.639  57.561
  360DA     SC3 2332  82.536  66.551  57.431
  360DA     SC4 2333  82.640  66.709  57.638
  361DA     BB1 2334  82.329  67.052  58.194
  361DA     BB2 2335  82.052  66.834  58.092
  361DA     BB3 2336  82.079  66.638  58.172
  361DA     SC1 2337  82.236  66.534  57.925
  361DA     SC2 2338  82.200  66.374  57.737
  361DA     SC3 2339  82.456  66.372  57.716
  361DA     SC4 2340  82.397  66.545  57.929
  362DA     BB1 2341  81.773  66.724  58.255
  362DA     BB2 2342  81.667  66.425  58.073
  362DA     BB3 2343  81.728  66.249  58.177
  362DA     SC1 2344  82.001  66.227  58.029
  362DA     SC2 2345  82.108  66.077  57.860
  362DA     SC3 2346  82.330  66.174  57.947
  362DA     SC4 2347  82.128  66.298  58.097
  363DT     BB1 2348  81.586  66.138  58.249
  363DT     BB2 2349  81.615  65.862  58.019
  363DT     BB3 2350  81.716  65.706  58.108
  363DT     SC1 2351  81.946  65.831  58.085
  363DT     SC2 2352  82.068  65.730  57.939
  363DT     SC3 2353  82.170  65.952  58.151
  364DT     BB1 2354  81.487  65.555  58.138
  364DT     BB2 2355  81.711  65.337  57.959
  364DT     BB3 2356  81.827  65.229  58.093
  364DT     SC1 2357  81.974  65.439  58.146
  364DT     SC2 2358  82.172  65.410  58.066
  364DT     SC3 2359  82.086  65.636  58.282
  365DA     BB1 2360  81.656  64.925  57.857
  365DA     BB2 2361  82.016  64.858  57.875
  365DA     BB3 2362  82.066  64.774  58.065
  365DA     SC1 2363  82.123  65.050  58.198
  365DA     SC2 2364  82.320  65.176  58.283
  365DA     SC3 2365  82.149  65.312  58.418
  365DA     SC4 2366  82.001  65.122  58.275
  366DT     BB1 2367  82.136  64.565  58.097
  366DT     BB2 2368  82.482  64.649  58.153
  366DT     BB3 2369  82.532  64.617  58.351
  366DT     SC1 2370  82.402  64.833  58.426
  366DT     SC2 2371  82.544  64.981  58.492
  366DT     SC3 2372  82.224  64.986  58.545
  367DT     BB1 2373  82.681  64.391  58.294
  367DT     BB2 2374  82.913  64.611  58.460
  367DT     BB3 2375  82.907  64.579  58.664
  367DT     SC1 2376  82.677  64.704  58.685
  367DT     SC2 2377  82.706  64.889  58.790
  367DT     SC3 2378  82.421  64.746  58.733
  368DT     BB1 2379  83.151  64.466  58.647
  368DT     BB2 2380  83.192  64.740  58.878
  368DT     BB3 2381  83.143  64.679  59.070
  368DT     SC1 2382  82.887  64.682  59.014
  368DT     SC2 2383  82.793  64.844  59.121
  368DT     SC3 2384  82.640  64.598  58.975
  369DG     BB1 2385  83.520  64.832  59.058
  369DG     BB2 2386  83.317  64.991  59.312
  369DG     BB3 2387  83.298  64.870  59.469
  369DG     SC1 2388  83.045  64.733  59.363
  369DG     SC2 2389  82.772  64.753  59.482
  369DG     SC3 2390  82.779  64.549  59.268
  369DG     SC4 2391  83.060  64.605  59.269
  370DA     BB1 2392  83.394  65.159  59.628
  370DA     BB2 2393  83.086  65.144  59.828
  370DA     BB3 2394  83.096  64.984  59.968
  370DA     SC1 2395  82.967  64.776  59.775
  370DA     SC2 2396  82.753  64.650  59.757
  370DA     SC3 2397  82.883  64.490  59.604
  370DA     SC4 2398  83.066  64.687  59.684
  371DT     BB1 2399  83.099  65.039  60.149
  371DT     BB2 2400  82.766  64.933  60.238
  371DT     BB3 2401  82.774  64.753  60.340
  371DT     SC1 2402  82.824  64.621  60.118
  371DT     SC2 2403  82.653  64.500  60.067
  371DT     SC3 2404  82.951  64.473  59.941
  372DA     BB1 2405  82.542  65.018  60.570
  372DA     BB2 2406  82.362  64.699  60.548
  372DA     BB3 2407  82.460  64.550  60.665
  372DA     SC1 2408  82.641  64.451  60.432
  372DA     SC2 2409  82.662  64.248  60.288
  372DA     SC3 2410  82.900  64.331  60.242
  372DA     SC4 2411  82.786  64.518  60.417
  373DG     BB1 2412  82.196  64.528  60.837
  373DG     BB2 2413  82.189  64.191  60.706
  373DG     BB3 2414  82.304  64.072  60.817
  373DG     SC1 2415  82.557  64.123  60.654
  373DG     SC2 2416  82.701  63.922  60.486
  373DG     SC3 2417  82.858  64.171  60.509
  373DG     SC4 2418  82.652  64.246  60.693
  374DT     BB1 2419  82.228  63.888  60.946
  374DT     BB2 2420  82.339  63.613  60.741
  374DT     BB3 2421  82.502  63.520  60.829
  374DT     SC1 2422  82.662  63.717  60.761
  374DT     SC2 2423  82.798  63.648  60.610
  374DT     SC3 2424  82.827  63.921  60.782
  375DA     BB1 2425  82.225  63.214  60.756
  375DA     BB2 2426  82.548  63.107  60.619
  375DA     BB3 2427  82.680  63.050  60.777
  375DA     SC1 2428  82.802  63.334  60.812
  375DA     SC2 2429  83.020  63.448  60.769
  375DA     SC3 2430  82.938  63.623  60.938
  375DA     SC4 2431  82.734  63.431  60.920
  376DT     BB1 2432  82.734  62.859  60.784
  376DT     BB2 2433  83.068  62.907  60.655
  376DT     BB3 2434  83.206  62.894  60.809
  376DT     SC1 2435  83.139  63.131  60.900
  376DT     SC2 2436  83.301  63.268  60.867
  376DT     SC3 2437  83.047  63.317  61.063
  377DC     BB1 2438  83.279  62.667  60.695
  377DC     BB2 2439  83.576  62.871  60.700
  377DC     BB3 2440  83.669  62.857  60.884
  377DC     SC1 2441  83.487  63.009  60.997
  377DC     SC2 2442  83.575  63.198  61.050
  377DC     SC3 2443  83.290  63.084  61.155
  378DT     BB1 2444  83.849  62.731  60.743
  378DT     BB2 2445  84.022  63.007  60.898
  378DT     BB3 2446  84.069  62.961  61.094
  378DT     SC1 2447  83.819  62.993  61.170
  378DT     SC2 2448  83.805  63.169  61.293
  378DT     SC3 2449  83.579  62.937  61.264
  379DG     BB1 2450  84.399  63.073  60.883
  379DG     BB2 2451  84.368  63.256  61.193
  379DG     BB3 2452  84.414  63.138  61.347
  379DG     SC1 2453  84.129  63.036  61.387
  379DG     SC2 2454  83.954  63.090  61.623
  379DG     SC3 2455  83.832  62.887  61.446
  379DG     SC4 2456  84.081  62.906  61.305
  380DA     BB1 2457  84.623  63.401  61.438
  380DA     BB2 2458  84.453  63.421  61.762
  380DA     BB3 2459  84.507  63.254  61.884
  380DA     SC1 2460  84.272  63.075  61.786
  380DA     SC2 2461  84.061  62.981  61.878
  380DA     SC3 2462  84.076  62.812  61.686
  380DA     SC4 2463  84.300  62.978  61.661
  381DT     BB1 2464  84.620  63.281  62.055
  381DT     BB2 2465  84.359  63.220  62.295
  381DT     BB3 2466  84.382  63.032  62.379
  381DT     SC1 2467  84.295  62.915  62.161
  381DT     SC2 2468  84.103  62.826  62.200
  381DT     SC3 2469  84.292  62.765  61.944
  382DT     BB1 2470  84.476  63.127  62.625
  382DT     BB2 2471  84.195  62.920  62.714
  382DT     BB3 2472  84.257  62.724  62.743
  382DT     SC1 2473  84.283  62.686  62.485
  382DT     SC2 2474  84.130  62.550  62.418
  382DT     SC3 2475  84.395  62.637  62.251
  383DG     BB1 2476  84.099  62.821  63.110
  383DG     BB2 2477  83.952  62.516  62.982
  383DG     BB3 2478  84.074  62.362  63.016
  383DG     SC1 2479  84.226  62.391  62.752
  383DG     SC2 2480  84.222  62.197  62.526
  383DG     SC3 2481  84.426  62.406  62.482
  383DG     SC4 2482  84.354  62.487  62.746
  384DG     BB1 2483  83.845  62.201  63.198
  384DG     BB2 2484  83.851  61.948  62.939
  384DG     BB3 2485  83.996  61.817  62.976
  384DG     SC1 2486  84.209  61.971  62.820
  384DG     SC2 2487  84.341  61.882  62.567
  384DG     SC3 2488  84.472  62.124  62.674
  384DG     SC4 2489  84.295  62.083  62.896
  385DC     BB1 2490  83.952  61.600  63.014
  385DC     BB2 2491  84.050  61.456  62.698
  385DC     BB3 2492  84.231  61.358  62.717
  385DC     SC1 2493  84.362  61.586  62.725
  385DC     SC2 2494  84.477  61.608  62.544
  385DC     SC3 2495  84.512  61.783  62.815
  386DG     BB1 2496  83.954  61.094  62.578
  386DG     BB2 2497  84.246  61.107  62.365
  386DG     BB3 2498  84.396  61.007  62.448
  386DG     SC1 2499  84.505  61.248  62.601
  386DG     SC2 2500  84.767  61.383  62.552
  386DG     SC3 2501  84.640  61.486  62.798
  386DG     SC4 2502  84.449  61.280  62.748
  387DA     BB1 2503  84.408  60.857  62.139
  387DA     BB2 2504  84.753  60.974  62.100
  387DA     BB3 2505  84.884  60.861  62.224
  387DA     SC1 2506  84.859  61.053  62.468
  387DA     SC2 2507  85.003  61.217  62.589
  387DA     SC3 2508  84.837  61.187  62.783
  387DA     SC4 2509  84.746  61.020  62.577
  388DC     BB1 2510  85.008  60.760  62.126
  388DC     BB2 2511  85.297  60.965  62.196
  388DC     BB3 2512  85.409  60.879  62.347
  388DC     SC1 2513  85.236  60.952  62.529
  388DC     SC2 2514  85.322  61.105  62.653
  388DC     SC3 2515  85.055  60.935  62.720
  389DA     BB1 2516  85.658  60.972  62.021
  389DA     BB2 2517  85.814  61.101  62.326
  389DA     BB3 2518  85.888  60.940  62.446
  389DA     SC1 2519  85.625  60.908  62.608
  389DA     SC2 2520  85.546  60.949  62.842
  389DA     SC3 2521  85.357  60.785  62.784
  389DA     SC4 2522  85.516  60.803  62.554
  390DC     BB1 2523  86.078  60.936  62.465
  390DC     BB2 2524  86.090  61.048  62.808
  390DC     BB3 2525  86.120  60.887  62.934
  390DC     SC1 2526  85.872  60.807  62.903
  390DC     SC2 2527  85.764  60.837  63.087
  390DC     SC3 2528  85.666  60.656  62.837
  391DT     BB1 2529  86.367  60.980  62.976
  391DT     BB2 2530  86.217  60.962  63.304
  391DT     BB3 2531  86.236  60.770  63.380
  391DT     SC1 2532  86.049  60.679  63.220
  391DT     SC2 2533  85.875  60.629  63.336
  391DT     SC3 2534  85.931  60.541  63.029
  392DA     BB1 2535  86.377  61.040  63.668
  392DA     BB2 2536  86.145  60.810  63.832
  392DA     BB3 2537  86.233  60.617  63.852
  392DA     SC1 2538  86.125  60.512  63.579
  392DA     SC2 2539  85.957  60.347  63.498
  392DA     SC3 2540  86.087  60.354  63.277
  392DA     SC4 2541  86.220  60.530  63.451
  393DA     BB1 2542  86.148  60.669  64.164
  393DA     BB2 2543  85.934  60.372  64.134
  393DA     BB3 2544  86.052  60.195  64.136
  393DA     SC1 2545  86.089  60.186  63.827
  393DA     SC2 2546  86.012  60.045  63.636
  393DA     SC3 2547  86.211  60.144  63.509
  393DA     SC4 2548  86.219  60.258  63.766
  394DT     BB1 2549  86.029  60.072  64.291
  394DT     BB2 2550  85.841  59.819  64.116
  394DT     BB3 2551  85.962  59.656  64.076
  394DT     SC1 2552  86.087  59.785  63.884
  394DT     SC2 2553  86.034  59.699  63.694
  394DT     SC3 2554  86.281  59.901  63.749
  395DA     BB1 2555  85.605  59.531  64.256
  395DA     BB2 2556  85.661  59.327  63.956
  395DA     BB3 2557  85.822  59.192  63.987
  395DA     SC1 2558  86.039  59.387  63.880
  395DA     SC2 2559  86.189  59.406  63.682
  395DA     SC3 2560  86.329  59.564  63.828
  395DA     SC4 2561  86.113  59.482  63.987
  396DG     BB1 2562  85.586  59.010  63.919
  396DG     BB2 2563  85.793  58.935  63.632
  396DG     BB3 2564  85.940  58.812  63.685
  396DG     SC1 2565  86.135  59.038  63.758
  396DG     SC2 2566  86.388  59.103  63.614
  396DG     SC3 2567  86.366  59.258  63.865
  396DG     SC4 2568  86.133  59.096  63.907
  397DT     BB1 2569  85.932  58.649  63.583
  397DT     BB2 2570  86.214  58.679  63.360
  397DT     BB3 2571  86.379  58.585  63.443
  397DT     SC1 2572  86.414  58.780  63.615
  397DT     SC2 2573  86.593  58.889  63.564
  397DT     SC3 2574  86.432  58.908  63.844
  398DG     BB1 2575  86.295  58.450  63.066
  398DG     BB2 2576  86.643  58.541  63.104
  398DG     BB3 2577  86.737  58.405  63.215
  398DG     SC1 2578  86.680  58.546  63.480
  398DG     SC2 2579  86.882  58.673  63.659
  398DG     SC3 2580  86.617  58.663  63.790
  398DG     SC4 2581  86.544  58.512  63.558
  399DG     BB1 2582  86.942  58.370  62.960
  399DG     BB2 2583  87.206  58.464  63.189
  399DG     BB3 2584  87.253  58.310  63.305
  399DG     SC1 2585  87.049  58.379  63.523
  399DG     SC2 2586  87.113  58.467  63.801
  399DG     SC3 2587  86.824  58.414  63.771
  399DG     SC4 2588  86.901  58.321  63.511
  400DC     BB1 2589  87.459  58.196  63.306
  400DC     BB2 2590  87.602  58.299  63.621
  400DC     BB3 2591  87.587  58.146  63.759
  400DC     SC1 2592  87.330  58.189  63.791
  400DC     SC2 2593  87.295  58.270  63.987
  400DC     SC3 2594  87.069  58.148  63.789
  401DA     BB1 2595  88.012  58.185  63.782
  401DA     BB2 2596  87.892  58.174  64.129
  401DA     BB3 2597  87.852  57.973  64.187
  401DA     SC1 2598  87.555  57.980  64.097
  401DA     SC2 2599  87.329  57.979  64.204
  401DA     SC3 2600  87.244  57.901  63.975
  401DA     SC4 2601  87.521  57.931  63.948
  402DA     BB1 2602  88.070  57.955  64.462
  402DA     BB2 2603  87.780  57.911  64.682
  402DA     BB3 2604  87.731  57.704  64.700
  402DA     SC1 2605  87.534  57.703  64.460
  402DA     SC2 2606  87.288  57.683  64.423
  402DA     SC3 2607  87.350  57.620  64.182
  402DA     SC4 2608  87.593  57.665  64.315
  403DA     BB1 2609  87.761  57.716  65.036
  403DA     BB2 2610  87.402  57.645  65.058
  403DA     BB3 2611  87.367  57.435  65.051
  403DA     SC1 2612  87.337  57.425  64.742
  403DA     SC2 2613  87.156  57.387  64.575
  403DA     SC3 2614  87.346  57.334  64.411
  403DA     SC4 2615  87.469  57.395  64.655
  404DT     BB1 2616  87.288  57.329  65.220
  404DT     BB2 2617  86.953  57.298  65.090
  404DT     BB3 2618  86.915  57.100  65.041
  404DT     SC1 2619  87.064  57.117  64.825
  404DT     SC2 2620  86.939  57.107  64.651
  404DT     SC3 2621  87.261  57.071  64.656
  405DT     BB1 2622  86.749  57.104  65.248
  405DT     BB2 2623  86.543  57.018  64.964
  405DT     BB3 2624  86.554  56.814  64.928
  405DT     SC1 2625  86.795  56.837  64.826
  405DT     SC2 2626  86.786  56.799  64.614
  405DT     SC3 2627  87.055  56.808  64.795
  406DG     BB1 2628  86.170  56.942  64.974
  406DG     BB2 2629  86.213  56.748  64.671
  406DG     BB3 2630  86.230  56.555  64.716
  406DG     SC1 2631  86.535  56.563  64.745
  406DG     SC2 2632  86.732  56.428  64.567
  406DG     SC3 2633  86.866  56.540  64.805
  406DG     SC4 2634  86.598  56.599  64.888
  407DA     BB1 2635  85.983  56.514  64.476
  407DA     BB2 2636  86.199  56.282  64.292
  407DA     BB3 2637  86.212  56.095  64.395
  407DA     SC1 2638  86.462  56.177  64.562
  407DA     SC2 2639  86.704  56.118  64.573
  407DA     SC3 2640  86.696  56.218  64.809
  407DA     SC4 2641  86.437  56.243  64.706
  408DG     BB1 2642  86.083  55.950  64.143
  408DG     BB2 2643  86.397  55.771  64.132
  408DG     BB3 2644  86.391  55.615  64.255
  408DG     SC1 2645  86.496  55.771  64.497
  408DG     SC2 2646  86.759  55.728  64.632
  408DG     SC3 2647  86.591  55.915  64.787
  408DG     SC4 2648  86.392  55.847  64.592
  409DA     BB1 2649  86.473  55.350  64.018
  409DA     BB2 2650  86.773  55.258  64.206
  409DA     BB3 2651  86.723  55.123  64.364
  409DA     SC1 2652  86.675  55.349  64.574
  409DA     SC2 2653  86.785  55.435  64.780
  409DA     SC3 2654  86.557  55.540  64.833
  409DA     SC4 2655  86.525  55.405  64.590
  410DG     BB1 2656  86.888  54.837  64.273
  410DG     BB2 2657  87.089  54.899  64.567
  410DG     BB3 2658  87.021  54.791  64.720
  410DG     SC1 2659  86.825  55.005  64.817
  410DG     SC2 2660  86.843  55.156  65.074
  410DG     SC3 2661  86.585  55.209  64.938
  410DG     SC4 2662  86.677  55.008  64.756
  411DC     BB1 2663  87.127  54.576  64.874
  411DC     BB2 2664  87.228  54.772  65.159
  411DC     BB3 2665  87.123  54.713  65.327
  411DC     SC1 2666  86.905  54.833  65.243
  411DC     SC2 2667  86.865  55.003  65.368
  411DC     SC3 2668  86.658  54.867  65.159
  412DG     BB1 2669  87.519  54.667  65.408
  412DG     BB2 2670  87.359  54.893  65.641
  412DG     BB3 2671  87.263  54.789  65.781
  412DG     SC1 2672  87.000  54.776  65.625
  412DG     SC2 2673  86.744  54.909  65.702
  412DG     SC3 2674  86.703  54.725  65.474
  412DG     SC4 2675  86.976  54.655  65.523
  413DT     BB1 2676  87.330  54.831  65.965
  413DT     BB2 2677  87.066  55.046  66.086
  413DT     BB3 2678  86.938  54.938  66.207
  413DT     SC1 2679  86.830  54.818  66.000
  413DT     SC2 2680  86.628  54.888  65.973
  413DT     SC3 2681  86.758  54.626  65.834
  414DG     BB1 2682  87.091  55.283  66.362
  414DG     BB2 2683  86.730  55.273  66.376
  414DG     BB3 2684  86.672  55.143  66.514
  414DG     SC1 2685  86.663  54.905  66.321
  414DG     SC2 2686  86.418  54.758  66.235
  414DG     SC3 2687  86.663  54.619  66.142
  414DG     SC4 2688  86.796  54.818  66.299
  415DA     BB1 2689  86.486  55.425  66.578
  415DA     BB2 2690  86.183  55.221  66.543
  415DA     BB3 2691  86.170  55.080  66.703
  415DA     SC1 2692  86.323  54.856  66.552
  415DA     SC2 2693  86.273  54.635  66.449
  415DA     SC3 2694  86.525  54.591  66.468
  415DA     SC4 2695  86.483  54.848  66.573
  416DT     BB1 2696  86.026  55.119  66.800
  416DT     BB2 2697  85.824  54.837  66.699
  416DT     BB3 2698  85.841  54.685  66.838
  416DT     SC1 2699  86.082  54.623  66.753
  416DT     SC2 2700  86.076  54.432  66.655
  416DT     SC3 2701  86.343  54.587  66.753
  417DT     BB1 2702  85.591  54.745  66.900
  417DT     BB2 2703  85.586  54.393  66.818
  417DT     BB3 2704  85.645  54.282  66.982
  417DT     SC1 2705  85.896  54.350  66.947
  417DT     SC2 2706  86.009  54.178  66.882
  417DT     SC3 2707  86.133  54.456  66.993
  418DA     BB1 2708  85.284  54.125  66.836
  418DA     BB2 2709  85.516  53.846  66.889
  418DA     BB3 2710  85.544  53.812  67.098
  418DA     SC1 2711  85.788  54.003  67.122
  418DA     SC2 2712  86.034  53.986  67.161
  418DA     SC3 2713  86.020  54.232  67.231
  418DA     SC4 2714  85.758  54.156  67.163
  419DA     BB1 2715  85.461  53.511  66.996
  419DA     BB2 2716  85.786  53.400  67.126
  419DA     BB3 2717  85.784  53.398  67.339
  419DA     SC1 2718  85.886  53.691  67.368
  419DA     SC2 2719  86.093  53.808  67.443
  419DA     SC3 2720  85.942  54.013  67.470
  419DA     SC4 2721  85.775  53.807  67.379
  420DT     BB1 2722  85.800  53.223  67.425
  420DT     BB2 2723  86.137  53.259  67.547
  420DT     BB3 2724  86.134  53.301  67.750
  420DT     SC1 2725  86.058  53.548  67.705
  420DT     SC2 2726  86.218  53.683  67.754
  420DT     SC3 2727  85.909  53.766  67.706
  421DA     BB1 2728  86.394  52.975  67.702
  421DA     BB2 2729  86.561  53.219  67.919
  421DA     BB3 2730  86.472  53.220  68.112
  421DA     SC1 2731  86.265  53.441  68.043
  421DA     SC2 2732  86.223  53.680  68.103
  421DA     SC3 2733  85.983  53.636  68.021
  421DA     SC4 2734  86.121  53.394  67.989
  422DC     BB1 2735  86.576  53.151  68.281
  422DC     BB2 2736  86.633  53.473  68.434
  422DC     BB3 2737  86.507  53.497  68.597
  422DC     SC1 2738  86.300  53.538  68.441
  422DC     SC2 2739  86.238  53.743  68.457
  422DC     SC3 2740  86.065  53.502  68.326
  423DT     BB1 2741  86.705  53.457  68.798
  423DT     BB2 2742  86.563  53.778  68.881
  423DT     BB3 2743  86.406  53.753  69.014
  423DT     SC1 2744  86.249  53.664  68.824
  423DT     SC2 2745  86.095  53.809  68.784
  423DT     SC3 2746  86.095  53.500  68.686
  424DG     BB1 2747  86.663  53.989  69.231
  424DG     BB2 2748  86.333  54.137  69.217
  424DG     BB3 2749  86.216  54.055  69.354
  424DG     SC1 2750  86.115  53.832  69.170
  424DG     SC2 2751  85.836  53.800  69.070
  424DG     SC3 2752  86.000  53.563  69.002
  424DG     SC4 2753  86.198  53.695  69.162
  425DT     BB1 2754  86.119  54.169  69.538
  425DT     BB2 2755  85.780  54.203  69.420
  425DT     BB3 2756  85.655  54.077  69.527
  425DT     SC1 2757  85.744  53.867  69.398
  425DT     SC2 2758  85.590  53.791  69.269
  425DT     SC3 2759  85.861  53.635  69.352
  426DT     BB1 2760  85.549  54.293  69.649
  426DT     BB2 2761  85.270  54.133  69.485
  426DT     BB3 2762  85.190  53.987  69.608
  426DT     SC1 2763  85.392  53.826  69.560
  426DT     SC2 2764  85.323  53.660  69.442
  426DT     SC3 2765  85.605  53.676  69.601
  427DA     BB1 2766  84.896  54.243  69.454
  427DA     BB2 2767  84.790  53.896  69.399
  427DA     BB3 2768  84.738  53.804  69.584
  427DA     SC1 2769  85.025  53.695  69.639
  427DA     SC2 2770  85.141  53.474  69.645
  427DA     SC3 2771  85.319  53.595  69.785
  427DA     SC4 2772  85.124  53.787  69.726
  428DT     BB1 2773  84.566  53.762  69.578
  428DT     BB2 2774  84.604  53.405  69.547
  428DT     BB3 2775  84.589  53.315  69.733
  428DT     SC1 2776  84.828  53.398  69.801
  428DT     SC2 2777  84.961  53.229  69.813
  428DT     SC3 2778  85.019  53.525  69.931
  429DT     BB1 2779  84.363  53.224  69.635
  429DT     BB2 2780  84.547  52.932  69.738
  429DT     BB3 2781  84.527  52.904  69.942
  429DT     SC1 2782  84.691  53.102  69.994
  429DT     SC2 2783  84.874  53.023  70.076
  429DT     SC3 2784  84.781  53.334  70.082
  430DG     BB1 2785  84.398  52.563  69.758
  430DG     BB2 2786  84.635  52.489  70.021
  430DG     BB3 2787  84.546  52.505  70.199
  430DG     SC1 2788  84.613  52.802  70.232
  430DG     SC2 2789  84.798  52.919  70.435
  430DG     SC3 2790  84.651  53.132  70.292
  430DG     SC4 2791  84.511  52.912  70.174
  431DA     BB1 2792  84.648  52.180  70.292
  431DA     BB2 2793  84.827  52.313  70.583
  431DA     BB3 2794  84.691  52.357  70.741
  431DA     SC1 2795  84.643  52.651  70.651
  431DA     SC2 2796  84.698  52.880  70.732
  431DA     SC3 2797  84.507  52.958  70.580
  431DA     SC4 2798  84.520  52.679  70.551
  432DG     BB1 2799  84.829  52.142  70.935
  432DG     BB2 2800  84.912  52.433  71.134
  432DG     BB3 2801  84.762  52.475  71.258
  432DG     SC1 2802  84.616  52.659  71.062
  432DG     SC2 2803  84.579  52.953  71.093
  432DG     SC3 2804  84.420  52.850  70.866
  432DG     SC4 2805  84.510  52.595  70.961
  433DT     BB1 2806  84.761  52.467  71.508
  433DT     BB2 2807  84.777  52.820  71.582
  433DT     BB3 2808  84.597  52.884  71.660
  433DT     SC1 2809  84.482  52.875  71.424
  433DT     SC2 2810  84.441  53.075  71.357
  433DT     SC3 2811  84.319  52.803  71.230
  434DA     BB1 2812  84.880  53.007  71.944
  434DA     BB2 2813  84.673  53.299  71.861
  434DA     BB3 2814  84.484  53.285  71.957
  434DA     SC1 2815  84.347  53.136  71.721
  434DA     SC2 2816  84.174  53.184  71.548
  434DA     SC3 2817  84.153  52.929  71.528
  434DA     SC4 2818  84.347  52.975  71.724
  435DA     BB1 2819  84.576  53.580  72.062
  435DA     BB2 2820  84.286  53.712  71.880
  435DA     BB3 2821  84.107  53.673  71.988
  435DA     SC1 2822  84.054  53.399  71.849
  435DA     SC2 2823  83.891  53.303  71.687
  435DA     SC3 2824  83.965  53.075  71.779
  435DA     SC4 2825  84.112  53.267  71.920
  436DA     BB1 2826  84.094  53.992  71.932
  436DA     BB2 2827  83.787  53.922  71.743
  436DA     BB3 2828  83.628  53.874  71.875
  436DA     SC1 2829  83.685  53.568  71.873
  436DA     SC2 2830  83.578  53.361  71.785
  436DA     SC3 2831  83.723  53.237  71.957
  436DA     SC4 2832  83.782  53.510  71.987
  437DT     BB1 2833  83.496  53.999  71.864
  437DT     BB2 2834  83.258  53.796  71.683
  437DT     BB3 2835  83.119  53.717  71.814
  437DT     SC1 2836  83.292  53.543  71.905
  437DT     SC2 2837  83.235  53.345  71.841
  437DT     SC3 2838  83.452  53.415  72.072
  438DA     BB1 2839  82.934  53.896  71.482
  438DA     BB2 2840  82.785  53.565  71.534
  438DA     BB3 2841  82.668  53.564  71.712
  438DA     SC1 2842  82.902  53.474  71.896
  438DA     SC2 2843  82.969  53.271  72.025
  438DA     SC3 2844  83.120  53.430  72.157
  438DA     SC4 2845  82.989  53.589  71.967
  439DC     BB1 2846  82.484  53.538  71.681
  439DC     BB2 2847  82.461  53.201  71.808
  439DC     BB3 2848  82.385  53.204  72.000
  439DC     SC1 2849  82.612  53.291  72.098
  439DC     SC2 2850  82.704  53.136  72.215
  439DC     SC3 2851  82.787  53.449  72.216
  440DA     BB1 2852  82.152  52.930  71.782
  440DA     BB2 2853  82.244  52.771  72.099
  440DA     BB3 2854  82.135  52.857  72.260
  440DA     SC1 2855  82.349  53.074  72.321
  440DA     SC2 2856  82.513  53.126  72.501
  440DA     SC3 2857  82.511  53.365  72.407
  440DA     SC4 2858  82.332  53.217  72.249
  441DA     BB1 2859  82.041  52.545  72.328
  441DA     BB2 2860  82.202  52.583  72.655
  441DA     BB3 2861  82.078  52.698  72.786
  441DA     SC1 2862  82.204  52.971  72.706
  441DA     SC2 2863  82.350  53.144  72.810
  441DA     SC3 2864  82.258  53.301  72.628
  441DA     SC4 2865  82.134  53.053  72.586
  442DT     BB1 2866  81.985  52.613  72.959
  442DT     BB2 2867  82.201  52.767  73.203
  442DT     BB3 2868  82.100  52.917  73.303
  442DT     SC1 2869  82.116  53.077  73.096
  442DT     SC2 2870  82.250  53.239  73.141
  442DT     SC3 2871  82.043  53.228  72.893
  443DT     BB1 2872  82.076  52.770  73.537
  443DT     BB2 2873  82.244  53.072  73.640
  443DT     BB3 2874  82.105  53.216  73.692
  443DT     SC1 2875  82.046  53.261  73.441
  443DT     SC2 2876  82.117  53.456  73.384
  443DT     SC3 2877  81.906  53.275  73.217
  444DT     BB1 2878  82.155  53.191  73.964
  444DT     BB2 2879  82.215  53.540  73.895
  444DT     BB3 2880  82.039  53.647  73.916
  444DT     SC1 2881  81.945  53.554  73.690
  444DT     SC2 2882  81.937  53.713  73.545
  444DT     SC3 2883  81.789  53.426  73.520
  445DC     BB1 2884  82.124  53.764  74.152
  445DC     BB2 2885  82.051  54.043  73.936
  445DC     BB3 2886  81.852  54.098  73.955
  445DC     SC1 2887  81.774  53.889  73.816
  445DC     SC2 2888  81.698  53.955  73.626
  445DC     SC3 2889  81.657  53.661  73.756
  446DC     BB1 2890  81.917  54.327  74.093
  446DC     BB2 2891  81.732  54.444  73.807
  446DC     BB3 2892  81.529  54.448  73.850
  446DC     SC1 2893  81.513  54.186  73.832
  446DC     SC2 2894  81.399  54.134  73.657
  446DC     SC3 2895  81.475  53.935  73.901
  447DT     BB1 2896  81.534  54.720  73.857
  447DT     BB2 2897  81.292  54.638  73.602
  447DT     BB3 2898  81.105  54.612  73.688
  447DT     SC1 2899  81.174  54.378  73.785
  447DT     SC2 2900  81.067  54.223  73.682
  447DT     SC3 2901  81.229  54.188  73.960
  448DT     BB1 2902  81.033  54.842  73.572
  448DT     BB2 2903  80.804  54.594  73.443
  448DT     BB3 2904  80.646  54.570  73.573
  448DT     SC1 2905  80.795  54.434  73.741
  448DT     SC2 2906  80.733  54.229  73.743
  448DT     SC3 2907  80.925  54.370  73.962
  449DA     BB1 2908  80.517  54.627  73.179
  449DA     BB2 2909  80.347  54.332  73.316
  449DA     BB3 2910  80.205  54.390  73.463
  449DA     SC1 2911  80.405  54.370  73.700
  449DA     SC2 2912  80.443  54.224  73.899
  449DA     SC3 2913  80.580  54.420  73.992
  449DA     SC4 2914  80.485  54.503  73.741
  450DA     BB1 2915  80.055  54.193  73.252
  450DA     BB2 2916  79.990  53.978  73.542
  450DA     BB3 2917  79.851  54.072  73.674
  450DA     SC1 2918  80.069  54.214  73.844
  450DA     SC2 2919  80.165  54.197  74.073
  450DA     SC3 2920  80.248  54.436  74.034
  450DA     SC4 2921  80.112  54.363  73.801
  451DA     BB1 2922  79.750  53.766  73.615
  451DA     BB2 2923  79.766  53.722  73.979
  451DA     BB3 2924  79.619  53.842  74.075
  451DA     SC1 2925  79.806  54.088  74.108
  451DA     SC2 2926  79.921  54.209  74.294
  451DA     SC3 2927  79.936  54.405  74.130
  451DA     SC4 2928  79.804  54.199  73.992
  452DA     BB1 2929  79.568  53.544  74.202
  452DA     BB2 2930  79.622  53.699  74.530
  452DA     BB3 2931  79.459  53.827  74.579
  452DA     SC1 2932  79.586  54.080  74.451
  452DA     SC2 2933  79.684  54.297  74.529
  452DA     SC3 2934  79.641  54.378  74.289
  452DA     SC4 2935  79.550  54.113  74.298
  453DA     BB1 2936  79.453  53.644  74.855
  453DA     BB2 2937  79.500  53.955  75.043
  453DA     BB3 2938  79.319  54.068  75.047
  453DA     SC1 2939  79.385  54.229  74.789
  453DA     SC2 2940  79.444  54.463  74.727
  453DA     SC3 2941  79.367  54.398  74.491
  453DA     SC4 2942  79.331  54.170  74.649
  454DT     BB1 2943  79.197  54.101  75.228
  454DT     BB2 2944  79.277  54.450  75.275
  454DT     BB3 2945  79.113  54.567  75.228
  454DT     SC1 2946  79.149  54.529  74.971
  454DT     SC2 2947  79.214  54.713  74.880
  454DT     SC3 2948  79.105  54.452  74.723
  455DT     BB1 2949  79.029  54.634  75.497
  455DT     BB2 2950  79.066  54.956  75.340
  455DT     BB3 2951  78.884  55.018  75.262
  455DT     SC1 2952  78.903  54.849  75.062
  455DT     SC2 2953  78.935  54.958  74.879
  455DT     SC3 2954  78.849  54.647  74.902
  456DT     BB1 2955  78.817  55.217  75.462
  456DT     BB2 2956  78.805  55.403  75.153
  456DT     BB3 2957  78.611  55.405  75.080
  456DT     SC1 2958  78.630  55.155  75.001
  456DT     SC2 2959  78.633  55.148  74.786
  456DT     SC3 2960  78.582  54.896  74.984
  457DT     BB1 2961  78.559  55.675  75.147
  457DT     BB2 2962  78.502  55.661  74.791
  457DT     BB3 2963  78.302  55.621  74.753
  457DT     SC1 2964  78.333  55.369  74.820
  457DT     SC2 2965  78.315  55.246  74.645
  457DT     SC3 2966  78.304  55.142  74.952
  458DT     BB1 2967  78.257  55.879  74.668
  458DT     BB2 2968  78.162  55.674  74.386
  458DT     BB3 2969  77.963  55.622  74.401
  458DT     SC1 2970  78.014  55.447  74.590
  458DT     SC2 2971  77.984  55.248  74.514
  458DT     SC3 2972  78.013  55.330  74.826
  459DT     BB1 2973  77.912  55.789  74.195
  459DT     BB2 2974  77.792  55.467  74.084
  459DT     BB3 2975  77.597  55.438  74.148
  459DT     SC1 2976  77.676  55.393  74.394
  459DT     SC2 2977  77.644  55.186  74.442
  459DT     SC3 2978  77.706  55.424  74.654
  460DA     BB1 2979  77.622  55.359  73.738
  460DA     BB2 2980  77.441  55.082  73.896
  460DA     BB3 2981  77.246  55.144  73.954
  460DA     SC1 2982  77.333  55.234  74.239
  460DA     SC2 2983  77.300  55.159  74.474
  460DA     SC3 2984  77.366  55.398  74.538
  460DA     SC4 2985  77.375  55.388  74.258
  461DA     BB1 2986  77.172  54.877  73.778
  461DA     BB2 2987  77.015  54.744  74.082
  461DA     BB3 2988  76.830  54.843  74.119
  461DA     SC1 2989  76.957  55.065  74.297
  461DA     SC2 2990  76.957  55.131  74.537
  461DA     SC3 2991  77.033  55.361  74.453
  461DA     SC4 2992  77.002  55.201  74.224
  462DT     BB1 2993  76.672  54.733  74.104
  462DT     BB2 2994  76.596  54.713  74.456
  462DT     BB3 2995  76.443  54.844  74.503
  462DT     SC1 2996  76.604  55.051  74.486
  462DT     SC2 2997  76.635  55.133  74.682
  462DT     SC3 2998  76.708  55.278  74.402
  463DT     BB1 2999  76.269  54.636  74.534
  463DT     BB2 3000  76.252  54.813  74.848
  463DT     BB3 3001  76.112  54.965  74.836
  463DT     SC1 3002  76.272  55.113  74.690
  463DT     SC2 3003  76.338  55.282  74.805
  463DT     SC3 3004  76.367  55.248  74.484
  464DG     BB1 3005  75.984  54.728  75.143
  464DG     BB2 3006  76.004  55.075  75.245
  464DG     BB3 3007  75.845  55.174  75.179
  464DG     SC1 3008  75.973  55.253  74.913
  464DG     SC2 3009  76.044  55.530  74.828
  464DG     SC3 3010  76.074  55.340  74.603
  464DG     SC4 3011  75.959  55.154  74.788
  465DT     BB1 3012  75.691  55.271  75.318
  465DT     BB2 3013  75.774  55.620  75.284
  465DT     BB3 3014  75.633  55.715  75.167
  465DT     SC1 3015  75.730  55.607  74.948
  465DT     SC2 3016  75.825  55.759  74.829
  465DT     SC3 3017  75.745  55.461  74.729
  466DG     BB1 3018  75.625  55.914  75.523
  466DG     BB2 3019  75.670  56.144  75.248
  466DG     BB3 3020  75.495  56.179  75.160
  466DG     SC1 3021  75.519  55.947  74.961
  466DG     SC2 3022  75.549  55.972  74.665
  466DG     SC3 3023  75.504  55.691  74.743
  466DG     SC4 3024  75.466  55.803  75.004
  467DA     BB1 3025  75.561  56.519  75.198
  467DA     BB2 3026  75.544  56.565  74.835
  467DA     BB3 3027  75.341  56.566  74.770
  467DA     SC1 3028  75.330  56.259  74.719
  467DA     SC2 3029  75.315  56.105  74.524
  467DA     SC3 3030  75.232  55.931  74.694
  467DA     SC4 3031  75.278  56.166  74.840
  468DA     BB1 3032  75.431  56.853  74.636
  468DA     BB2 3033  75.350  56.706  74.310
  468DA     BB3 3034  75.138  56.700  74.282
  468DA     SC1 3035  75.104  56.417  74.405
  468DA     SC2 3036  75.048  56.187  74.326
  468DA     SC3 3037  74.990  56.139  74.572
  468DA     SC4 3038  75.072  56.407  74.562
  469DG     BB1 3039  75.192  56.884  74.035
  469DG     BB2 3040  75.066  56.599  73.851
  469DG     BB3 3041  74.867  56.603  73.848
  469DG     SC1 3042  74.835  56.441  74.107
  469DG     SC2 3043  74.721  56.166  74.129
  469DG     SC3 3044  74.764  56.284  74.396
  469DG     SC4 3045  74.832  56.519  74.247
  470DA     BB1 3046  74.884  56.572  73.502
  470DA     BB2 3047  74.696  56.257  73.520
  470DA     BB3 3048  74.489  56.296  73.548
  470DA     SC1 3049  74.505  56.289  73.859
  470DA     SC2 3050  74.429  56.141  74.045
  470DA     SC3 3051  74.461  56.347  74.194
  470DA     SC4 3052  74.530  56.428  73.935
  471DC     BB1 3053  74.354  56.248  73.399
  471DC     BB2 3054  74.216  55.956  73.560
  471DC     BB3 3055  74.026  55.998  73.631
  471DC     SC1 3056  74.123  56.139  73.830
  471DC     SC2 3057  74.089  56.034  74.015
  471DC     SC3 3058  74.175  56.345  73.986
  472DC     BB1 3059  73.930  55.840  73.438
  472DC     BB2 3060  73.809  55.696  73.746
  472DC     BB3 3061  73.635  55.791  73.805
  472DC     SC1 3062  73.767  56.003  73.883
  472DC     SC2 3063  73.760  56.016  74.098
  472DC     SC3 3064  73.851  56.253  73.896
  473DT     BB1 3065  73.509  55.565  73.740
  473DT     BB2 3066  73.429  55.622  74.088
  473DT     BB3 3067  73.269  55.752  74.102
  473DT     SC1 3068  73.420  55.957  74.040
  473DT     SC2 3069  73.444  56.084  74.212
  473DT     SC3 3070  73.515  56.164  73.906
  474DT     BB1 3071  73.126  55.543  74.183
  474DT     BB2 3072  73.095  55.785  74.449
  474DT     BB3 3073  72.945  55.920  74.404
  474DT     SC1 3074  73.096  56.041  74.227
  474DT     SC2 3075  73.149  56.237  74.300
  474DT     SC3 3076  73.182  56.132  73.995
  475DA     BB1 3077  72.874  55.772  74.791
  475DA     BB2 3078  72.846  56.137  74.802
  475DA     BB3 3079  72.667  56.201  74.705
  475DA     SC1 3080  72.801  56.232  74.426
  475DA     SC2 3081  72.864  56.417  74.271
  475DA     SC3 3082  72.867  56.236  74.089
  475DA     SC4 3083  72.796  56.105  74.327
  476DT     BB1 3084  72.515  56.287  74.815
  476DT     BB2 3085  72.564  56.625  74.700
  476DT     BB3 3086  72.415  56.677  74.565
  476DT     SC1 3087  72.524  56.531  74.377
  476DT     SC2 3088  72.604  56.659  74.224
  476DT     SC3 3089  72.555  56.340  74.197
  477DC     BB1 3090  72.285  56.842  74.746
  477DC     BB2 3091  72.352  57.055  74.463
  477DC     BB3 3092  72.196  57.044  74.328
  477DC     SC1 3093  72.273  56.807  74.246
  477DC     SC2 3094  72.349  56.822  74.045
  477DC     SC3 3095  72.270  56.548  74.199
  478DT     BB1 3096  72.092  57.297  74.391
  478DT     BB2 3097  72.156  57.313  74.036
  478DT     BB3 3098  71.988  57.252  73.931
  478DT     SC1 3099  72.033  57.001  73.990
  478DT     SC2 3100  72.092  56.895  73.813
  478DT     SC3 3101  71.999  56.760  74.092
  479DA     BB1 3102  72.095  57.626  73.776
  479DA     BB2 3103  72.057  57.394  73.494
  479DA     BB3 3104  71.851  57.355  73.457
  479DA     SC1 3105  71.838  57.109  73.647
  479DA     SC2 3106  71.814  56.861  73.626
  479DA     SC3 3107  71.741  56.869  73.872
  479DA     SC4 3108  71.794  57.134  73.799
  480DT     BB1 3109  71.783  57.418  73.286
  480DT     BB2 3110  71.772  57.094  73.128
  480DT     BB3 3111  71.577  57.026  73.119
  480DT     SC1 3112  71.577  56.970  73.375
  480DT     SC2 3113  71.572  56.757  73.402
  480DT     SC3 3114  71.513  56.978  73.631
  481DA     BB1 3115  71.774  56.996  72.751
  481DA     BB2 3116  71.616  56.673  72.826
  481DA     BB3 3117  71.404  56.690  72.811
  481DA     SC1 3118  71.364  56.766  73.110
  481DA     SC2 3119  71.268  56.662  73.316
  481DA     SC3 3120  71.254  56.902  73.406
  481DA     SC4 3121  71.361  56.922  73.147
  482DT     BB1 3122  71.359  56.582  72.683
  482DT     BB2 3123  71.208  56.327  72.889
  482DT     BB3 3124  71.004  56.360  72.904
  482DT     SC1 3125  71.040  56.560  73.070
  482DT     SC2 3126  70.971  56.504  73.265
  482DT     SC3 3127  71.038  56.805  73.167
  483DT     BB1 3128  70.995  56.143  72.759
  483DT     BB2 3129  70.799  56.071  73.053
  483DT     BB3 3130  70.610  56.153  73.034
  483DT     SC1 3131  70.703  56.395  73.079
  483DT     SC2 3132  70.634  56.463  73.271
  483DT     SC3 3133  70.766  56.648  73.039
  484DA     BB1 3134  70.574  55.749  73.145
  484DA     BB2 3135  70.353  55.948  73.360
  484DA     BB3 3136  70.187  56.022  73.248
  484DA     SC1 3137  70.328  56.287  73.167
  484DA     SC2 3138  70.307  56.530  73.219
  484DA     SC3 3139  70.437  56.567  73.001
  484DA     SC4 3140  70.408  56.290  73.028
  485DT     BB1 3141  70.003  55.953  73.292
  485DT     BB2 3142  69.879  56.251  73.452
  485DT     BB3 3143  69.750  56.351  73.325
  485DT     SC1 3144  69.950  56.438  73.178
  485DT     SC2 3145  69.971  56.650  73.205
  485DT     SC3 3146  70.108  56.474  72.970
  486DT     BB1 3147  69.533  56.276  73.472
  486DT     BB2 3148  69.514  56.636  73.462
  486DT     BB3 3149  69.411  56.697  73.293
  486DT     SC1 3150  69.616  56.641  73.139
  486DT     SC2 3151  69.701  56.824  73.064
  486DT     SC3 3152  69.761  56.526  72.951
  487DT     BB1 3153  69.193  56.769  73.442
  487DT     BB2 3154  69.284  57.070  73.264
  487DT     BB3 3155  69.190  57.073  73.079
  487DT     SC1 3156  69.355  56.892  72.984
  487DT     SC2 3157  69.484  56.983  72.838
  487DT     SC3 3158  69.443  56.665  72.883
  488DT     BB1 3159  69.027  57.269  73.168
  488DT     BB2 3160  69.188  57.409  72.876
  488DT     BB3 3161  69.083  57.356  72.706
  488DT     SC1 3162  69.175  57.110  72.716
  488DT     SC2 3163  69.312  57.078  72.553
  488DT     SC3 3164  69.179  56.847  72.737
  489DA     BB1 3165  69.143  57.771  72.703
  489DA     BB2 3166  69.243  57.639  72.376
  489DA     BB3 3167  69.071  57.581  72.263
  489DA     SC1 3168  69.072  57.288  72.368
  489DA     SC2 3169  69.118  57.060  72.278
  489DA     SC3 3170  68.982  56.976  72.479
  489DA     SC4 3171  68.984  57.255  72.499
  490DT     BB1 3172  69.039  57.684  72.104
  490DT     BB2 3173  69.138  57.433  71.866
  490DT     BB3 3174  68.971  57.343  71.784
  490DT     SC1 3175  68.928  57.206  72.004
  490DT     SC2 3176  68.967  56.998  71.967
  490DT     SC3 3177  68.809  57.119  72.223
  491DT     BB1 3178  69.017  57.471  71.550
  491DT     BB2 3179  69.006  57.122  71.460
  491DT     BB3 3180  68.810  57.065  71.425
  491DT     SC1 3181  68.757  57.064  71.682
  491DT     SC2 3182  68.727  56.862  71.748
  491DT     SC3 3183  68.646  57.129  71.913
  492DA     BB1 3184  69.025  56.947  71.084
  492DA     BB2 3185  68.821  56.661  71.191
  492DA     BB3 3186  68.616  56.694  71.143
  492DA     SC1 3187  68.549  56.829  71.416
  492DA     SC2 3188  68.417  56.776  71.620
  492DA     SC3 3189  68.420  57.028  71.664
  492DA     SC4 3190  68.560  56.989  71.424
  493DG     BB1 3191  68.634  56.437  70.963
  493DG     BB2 3192  68.392  56.306  71.198
  493DG     BB3 3193  68.209  56.363  71.145
  493DG     SC1 3194  68.215  56.622  71.308
  493DG     SC2 3195  68.047  56.683  71.547
  493DG     SC3 3196  68.196  56.923  71.458
  493DG     SC4 3197  68.273  56.755  71.240
  494DG     BB1 3198  68.106  56.048  71.117
  494DG     BB2 3199  67.872  56.122  71.382
  494DG     BB3 3200  67.707  56.203  71.307
  494DG     SC1 3201  67.810  56.491  71.327
  494DG     SC2 3202  67.701  56.703  71.507
  494DG     SC3 3203  67.898  56.816  71.317
  494DG     SC4 3204  67.893  56.552  71.205
  495DC     BB1 3205  67.490  56.107  71.313
  495DC     BB2 3206  67.332  56.310  71.566
  495DC     BB3 3207  67.196  56.439  71.478
  495DC     SC1 3208  67.388  56.592  71.387
  495DC     SC2 3209  67.386  56.780  71.492
  495DC     SC3 3210  67.546  56.719  71.217
  496DT     BB1 3211  66.966  56.299  71.563
  496DT     BB2 3212  66.915  56.632  71.691
  496DT     BB3 3213  66.811  56.746  71.552
  496DT     SC1 3214  67.025  56.770  71.401
  496DT     SC2 3215  67.094  56.973  71.406
  496DT     SC3 3216  67.185  56.747  71.192
  497DA     BB1 3217  66.575  56.786  71.898
  497DA     BB2 3218  66.634  57.124  71.767
  497DA     BB3 3219  66.509  57.162  71.599
  497DA     SC1 3220  66.715  57.058  71.391
  497DA     SC2 3221  66.861  57.153  71.212
  497DA     SC3 3222  66.868  56.914  71.119
  497DA     SC4 3223  66.707  56.903  71.348
  498DA     BB1 3224  66.403  57.427  71.766
  498DA     BB2 3225  66.545  57.633  71.498
  498DA     BB3 3226  66.413  57.639  71.331
  498DA     SC1 3227  66.538  57.391  71.191
  498DA     SC2 3228  66.675  57.343  70.988
  498DA     SC3 3229  66.590  57.102  71.013
  498DA     SC4 3230  66.473  57.247  71.222
  499DA     BB1 3231  66.440  57.963  71.372
  499DA     BB2 3232  66.596  57.973  71.040
  499DA     BB3 3233  66.447  57.962  70.888
  499DA     SC1 3234  66.455  57.652  70.869
  499DA     SC2 3235  66.530  57.479  70.706
  499DA     SC3 3236  66.373  57.320  70.833
  499DA     SC4 3237  66.351  57.569  70.960
  500DT     BB1 3238  66.433  58.120  70.777
  500DT     BB2 3239  66.602  57.981  70.491
  500DT     BB3 3240  66.464  57.933  70.344
  500DT     SC1 3241  66.383  57.722  70.477
  500DT     SC2 3242  66.445  57.544  70.374
  500DT     SC3 3243  66.226  57.559  70.612
  501DT     BB1 3244  66.582  58.131  70.220
  501DT     BB2 3245  66.626  57.843  70.007
  501DT     BB3 3246  66.456  57.812  69.894
  501DT     SC1 3247  66.325  57.717  70.101
  501DT     SC2 3248  66.292  57.506  70.073
  501DT     SC3 3249  66.144  57.695  70.291
  502DT     BB1 3250  66.640  57.873  69.729
  502DT     BB2 3251  66.519  57.547  69.633
  502DT     BB3 3252  66.332  57.565  69.544
  502DT     SC1 3253  66.218  57.608  69.776
  502DT     SC2 3254  66.096  57.438  69.829
  502DT     SC3 3255  66.085  57.730  69.969
  503DT     BB1 3256  66.478  57.488  69.348
  503DT     BB2 3257  66.212  57.246  69.376
  503DT     BB3 3258  66.037  57.324  69.300
  503DT     SC1 3259  66.005  57.477  69.511
  503DT     SC2 3260  65.837  57.406  69.625
  503DT     SC3 3261  65.982  57.694  69.660
  504DC     BB1 3262  66.076  57.149  69.110
  504DC     BB2 3263  65.746  57.080  69.238
  504DC     BB3 3264  65.610  57.213  69.158
  504DC     SC1 3265  65.697  57.407  69.312
  504DC     SC2 3266  65.546  57.455  69.458
  504DC     SC3 3267  65.806  57.635  69.386
  505DC     BB1 3268  65.511  57.014  69.008
  505DC     BB2 3269  65.227  57.142  69.189
  505DC     BB3 3270  65.148  57.306  69.089
  505DC     SC1 3271  65.346  57.459  69.168
  505DC     SC2 3272  65.273  57.603  69.310
  505DC     SC3 3273  65.559  57.615  69.158
  506DA     BB1 3274  64.822  57.047  69.146
  506DA     BB2 3275  64.719  57.381  69.254
  506DA     BB3 3276  64.686  57.507  69.085
  506DA     SC1 3277  64.979  57.613  69.078
  506DA     SC2 3278  65.099  57.827  69.123
  506DA     SC3 3279  65.287  57.728  68.980
  506DA     SC4 3280  65.084  57.535  68.985
  507DA     BB1 3281  64.389  57.553  69.222
  507DA     BB2 3282  64.478  57.908  69.252
  507DA     BB3 3283  64.461  58.004  69.062
  507DA     SC1 3284  64.756  57.949  68.981
  507DA     SC2 3285  64.966  58.081  68.947
  507DA     SC3 3286  65.045  57.880  68.808
  507DA     SC4 3287  64.787  57.816  68.897
  508DA     BB1 3288  64.271  58.204  69.239
  508DA     BB2 3289  64.511  58.469  69.159
  508DA     BB3 3290  64.486  58.533  68.957
  508DA     SC1 3291  64.691  58.329  68.842
  508DA     SC2 3292  64.918  58.334  68.739
  508DA     SC3 3293  64.859  58.103  68.646
  508DA     SC4 3294  64.635  58.187  68.792
  509DG     BB1 3295  64.431  58.802  69.099
  509DG     BB2 3296  64.735  58.899  68.927
  509DG     BB3 3297  64.694  58.943  68.737
  509DG     SC1 3298  64.736  58.657  68.636
  509DG     SC2 3299  64.955  58.566  68.454
  509DG     SC3 3300  64.754  58.352  68.493
  509DG     SC4 3301  64.612  58.556  68.636
  510DG     BB1 3302  64.830  59.229  68.811
  510DG     BB2 3303  65.077  59.144  68.561
  510DG     BB3 3304  65.005  59.178  68.379
  510DG     SC1 3305  64.887  58.898  68.347
  510DG     SC2 3306  64.979  58.690  68.153
  510DG     SC3 3307  64.728  58.606  68.286
  510DG     SC4 3308  64.738  58.870  68.398
  511DA     BB1 3309  65.301  59.353  68.338
  511DA     BB2 3310  65.386  59.136  68.055
  511DA     BB3 3311  65.265  59.183  67.886
  511DA     SC1 3312  65.041  58.980  67.959
  511DA     SC2 3313  64.952  58.765  67.871
  511DA     SC3 3314  64.740  58.821  68.005
  511DA     SC4 3315  64.918  59.034  68.048
  512DT     BB1 3316  65.358  59.257  67.732
  512DT     BB2 3317  65.336  58.965  67.521
  512DT     BB3 3318  65.186  58.991  67.381
  512DT     SC1 3319  65.000  58.951  67.562
  512DT     SC2 3320  64.903  58.762  67.524
  512DT     SC3 3321  64.794  58.996  67.720
  513DT     BB1 3322  65.371  59.023  67.184
  513DT     BB2 3323  65.164  58.750  67.070
  513DT     BB3 3324  65.000  58.824  66.968
  513DT     SC1 3325  64.885  58.899  67.191
  513DT     SC2 3326  64.714  58.775  67.229
  513DT     SC3 3327  64.781  59.056  67.376
  514DG     BB1 3328  65.193  58.582  66.701
  514DG     BB2 3329  64.843  58.495  66.727
  514DG     BB3 3330  64.733  58.622  66.622
  514DG     SC1 3331  64.694  58.819  66.853
  514DG     SC2 3332  64.436  58.879  66.990
  514DG     SC3 3333  64.648  59.065  67.079
  514DG     SC4 3334  64.802  58.935  66.876
  515DT     BB1 3335  64.608  58.560  66.442
  515DT     BB2 3336  64.275  58.571  66.582
  515DT     BB3 3337  64.176  58.739  66.513
  515DT     SC1 3338  64.314  58.895  66.671
  515DT     SC2 3339  64.186  58.972  66.826
  515DT     SC3 3340  64.481  59.085  66.750
  516DA     BB1 3341  63.923  58.414  66.430
  516DA     BB2 3342  63.723  58.670  66.601
  516DA     BB3 3343  63.681  58.832  66.468
  516DA     SC1 3344  63.935  58.994  66.548
  516DA     SC2 3345  63.989  59.204  66.671
  516DA     SC3 3346  64.213  59.195  66.547
  516DA     SC4 3347  64.068  58.972  66.460
  517DA     BB1 3348  63.373  58.764  66.559
  517DA     BB2 3349  63.361  59.103  66.698
  517DA     BB3 3350  63.339  59.247  66.542
  517DA     SC1 3351  63.645  59.287  66.504
  517DA     SC2 3352  63.815  59.465  66.546
  517DA     SC3 3353  63.959  59.340  66.375
  517DA     SC4 3354  63.719  59.195  66.394
  518DC     BB1 3355  63.169  59.352  66.535
  518DC     BB2 3356  63.307  59.661  66.660
  518DC     BB3 3357  63.330  59.796  66.504
  518DC     SC1 3358  63.540  59.667  66.414
  518DC     SC2 3359  63.716  59.786  66.445
  518DC     SC3 3360  63.694  59.527  66.252
  519DG     BB1 3361  63.091  59.968  66.786
  519DG     BB2 3362  63.372  60.179  66.703
  519DG     BB3 3363  63.340  60.270  66.529
  519DG     SC1 3364  63.467  60.047  66.361
  519DG     SC2 3365  63.718  60.069  66.202
  519DG     SC3 3366  63.580  59.814  66.146
  519DG     SC4 3367  63.375  59.925  66.312
  520DG     BB1 3368  63.380  60.548  66.692
  520DG     BB2 3369  63.666  60.603  66.477
  520DG     BB3 3370  63.606  60.674  66.302
  520DG     SC1 3371  63.571  60.399  66.173
  520DG     SC2 3372  63.734  60.288  65.949
  520DG     SC3 3373  63.503  60.113  66.007
  520DG     SC4 3374  63.430  60.324  66.187
  521DA     BB1 3375  63.846  60.915  66.363
  521DA     BB2 3376  64.017  60.820  66.053
  521DA     BB3 3377  63.909  60.891  65.884
  521DA     SC1 3378  63.738  60.633  65.854
  521DA     SC2 3379  63.718  60.442  65.695
  521DA     SC3 3380  63.485  60.408  65.797
  521DA     SC4 3381  63.596  60.629  65.929
  522DA     BB1 3382  64.210  61.007  65.828
  522DA     BB2 3383  64.204  60.809  65.520
  522DA     BB3 3384  64.071  60.898  65.377
  522DA     SC1 3385  63.823  60.736  65.472
  522DA     SC2 3386  63.677  60.554  65.384
  522DA     SC3 3387  63.505  60.636  65.556
  522DA     SC4 3388  63.729  60.804  65.583
  523DA     BB1 3389  64.346  60.870  65.201
  523DA     BB2 3390  64.152  60.654  64.976
  523DA     BB3 3391  64.016  60.770  64.861
  523DA     SC1 3392  63.783  60.745  65.066
  523DA     SC2 3393  63.561  60.632  65.080
  523DA     SC3 3394  63.509  60.802  65.265
  523DA     SC4 3395  63.769  60.860  65.177
  524DT     BB1 3396  64.049  60.774  64.670
  524DT     BB2 3397  63.777  60.559  64.573
  524DT     BB3 3398  63.621  60.672  64.496
  524DT     SC1 3399  63.553  60.755  64.736
  524DT     SC2 3400  63.364  60.667  64.791
  524DT     SC3 3401  63.508  60.917  64.939
  525DT     BB1 3402  63.686  60.567  64.262
  525DT     BB2 3403  63.340  60.479  64.313
  525DT     BB3 3404  63.218  60.636  64.255
  525DT     SC1 3405  63.279  60.773  64.470
  525DT     SC2 3406  63.107  60.784  64.600
  525DT     SC3 3407  63.375  60.966  64.623
  526DA     BB1 3408  63.088  60.275  64.084
  526DA     BB2 3409  62.799  60.444  64.232
  526DA     BB3 3410  62.749  60.618  64.119
  526DA     SC1 3411  62.929  60.808  64.285
  526DA     SC2 3412  62.900  60.995  64.448
  526DA     SC3 3413  63.142  61.058  64.388
  526DA     SC4 3414  63.080  60.832  64.234
  527DA     BB1 3415  62.465  60.455  64.141
  527DA     BB2 3416  62.332  60.756  64.302
  527DA     BB3 3417  62.314  60.915  64.160
  527DA     SC1 3418  62.599  61.027  64.212
  527DA     SC2 3419  62.702  61.229  64.316
  527DA     SC3 3420  62.911  61.167  64.180
  527DA     SC4 3421  62.719  60.973  64.119
  528DA     BB1 3422  62.010  60.912  64.287
  528DA     BB2 3423  62.068  61.262  64.380
  528DA     BB3 3424  62.066  61.386  64.206
  528DA     SC1 3425  62.372  61.361  64.156
  528DA     SC2 3426  62.574  61.507  64.169
  528DA     SC3 3427  62.683  61.336  64.013
  528DA     SC4 3428  62.422  61.244  64.057
  529DT     BB1 3429  61.915  61.523  64.178
  529DT     BB2 3430  62.108  61.822  64.239
  529DT     BB3 3431  62.150  61.916  64.060
  529DT     SC1 3432  62.332  61.737  63.999
  529DT     SC2 3433  62.527  61.827  64.008
  529DT     SC3 3434  62.455  61.542  63.871
  530DA     BB1 3435  61.962  62.233  64.268
  530DA     BB2 3436  62.270  62.370  64.123
  530DA     BB3 3437  62.244  62.406  63.914
  530DA     SC1 3438  62.343  62.124  63.829
  530DA     SC2 3439  62.540  62.025  63.713
  530DA     SC3 3440  62.388  61.822  63.670
  530DA     SC4 3441  62.232  62.008  63.811
  531DG     BB1 3442  62.282  62.736  63.919
  531DG     BB2 3443  62.579  62.669  63.723
  531DG     BB3 3444  62.536  62.678  63.530
  531DG     SC1 3445  62.463  62.381  63.507
  531DG     SC2 3446  62.614  62.175  63.353
  531DG     SC3 3447  62.357  62.066  63.451
  531DG     SC4 3448  62.312  62.336  63.536
  532DT     BB1 3449  62.615  62.843  63.338
  532DT     BB2 3450  62.858  62.630  63.178
  532DT     BB3 3451  62.793  62.579  62.989
  532DT     SC1 3452  62.617  62.410  63.086
  532DT     SC2 3453  62.678  62.209  63.040
  532DT     SC3 3454  62.385  62.300  63.144
  533DG     BB1 3455  63.147  62.771  62.922
  533DG     BB2 3456  63.149  62.439  62.779
  533DG     BB3 3457  63.057  62.440  62.602
  533DG     SC1 3458  62.780  62.381  62.718
  533DG     SC2 3459  62.622  62.132  62.676
  533DG     SC3 3460  62.459  62.337  62.813
  533DG     SC4 3461  62.688  62.503  62.765
  534DA     BB1 3462  63.344  62.285  62.504
  534DA     BB2 3463  63.148  61.991  62.409
  534DA     BB3 3464  63.044  62.027  62.226
  534DA     SC1 3465  62.788  62.138  62.365
  534DA     SC2 3466  62.552  62.066  62.401
  534DA     SC3 3467  62.505  62.315  62.446
  534DA     SC4 3468  62.779  62.297  62.388
  535DA     BB1 3469  63.205  61.746  62.202
  535DA     BB2 3470  62.875  61.595  62.150
  535DA     BB3 3471  62.795  61.656  61.962
  535DA     SC1 3472  62.649  61.905  62.078
  535DA     SC2 3473  62.414  61.979  62.119
  535DA     SC3 3474  62.512  62.216  62.125
  535DA     SC4 3475  62.728  62.045  62.076
  536DG     BB1 3476  62.805  61.350  61.968
  536DG     BB2 3477  62.447  61.392  61.939
  536DG     BB3 3478  62.400  61.453  61.756
  536DG     SC1 3479  62.423  61.751  61.823
  536DG     SC2 3480  62.198  61.948  61.827
  536DG     SC3 3481  62.459  62.085  61.855
  536DG     SC4 3482  62.565  61.823  61.808
  537DG     BB1 3483  62.212  61.190  61.770
  537DG     BB2 3484  61.937  61.418  61.715
  537DG     BB3 3485  61.933  61.475  61.525
  537DG     SC1 3486  62.116  61.717  61.568
  537DG     SC2 3487  62.036  62.004  61.542
  537DG     SC3 3488  62.329  61.978  61.575
  537DG     SC4 3489  62.274  61.698  61.556
  538DC     BB1 3490  61.763  61.426  61.406
  538DC     BB2 3491  61.601  61.746  61.362
  538DC     BB3 3492  61.649  61.824  61.177
  538DC     SC1 3493  61.891  61.887  61.257
  538DC     SC2 3494  61.908  62.101  61.270
  538DC     SC3 3495  62.154  61.890  61.273
  539DT     BB1 3496  61.399  61.770  61.068
  539DT     BB2 3497  61.445  62.123  61.006
  539DT     BB3 3498  61.542  62.151  60.825
  539DT     SC1 3499  61.771  62.075  60.927
  539DT     SC2 3500  61.903  62.245  60.940
  539DT     SC3 3501  61.990  61.934  60.968
  540DG     BB1 3502  61.188  62.348  60.746
  540DG     BB2 3503  61.470  62.560  60.669
  540DG     BB3 3504  61.540  62.517  60.488
  540DG     SC1 3505  61.737  62.305  60.588
  540DG     SC2 3506  62.034  62.323  60.579
  540DG     SC3 3507  61.948  62.052  60.659
  540DG     SC4 3508  61.687  62.153  60.601
  541DA     BB1 3509  61.515  62.851  60.365
  541DA     BB2 3510  61.878  62.867  60.318
  541DA     BB3 3511  61.933  62.779  60.131
  541DA     SC1 3512  61.973  62.494  60.249
  541DA     SC2 3513  62.162  62.338  60.294
  541DA     SC3 3514  61.983  62.154  60.298
  541DA     SC4 3515  61.847  62.394  60.246
  542DC     BB1 3516  62.018  62.894  59.963
  542DC     BB2 3517  62.357  62.783  60.012
  542DC     BB3 3518  62.414  62.658  59.858
  542DC     SC1 3519  62.270  62.461  59.955
  542DC     SC2 3520  62.400  62.307  60.030
  542DC     SC3 3521  62.082  62.276  59.974
  543DT     BB1 3522  62.577  62.852  59.763
  543DT     BB2 3523  62.795  62.572  59.830
  543DT     BB3 3524  62.802  62.447  59.666
  543DT     SC1 3525  62.562  62.353  59.718
  543DT     SC2 3526  62.578  62.148  59.782
  543DT     SC3 3527  62.306  62.297  59.690
  544DA     BB1 3528  63.187  62.540  59.802
  544DA     BB2 3529  63.164  62.177  59.761
  544DA     BB3 3530  63.156  62.126  59.554
  544DA     SC1 3531  62.846  62.135  59.538
  544DA     SC2 3532  62.657  61.975  59.510
  544DA     SC3 3533  62.520  62.179  59.437
  544DA     SC4 3534  62.778  62.275  59.494
  545DT     BB1 3535  63.304  62.028  59.503
  545DT     BB2 3536  63.140  61.709  59.469
  545DT     BB3 3537  63.097  61.673  59.270
  545DT     SC1 3538  62.899  61.844  59.274
  545DT     SC2 3539  62.712  61.738  59.257
  545DT     SC3 3540  62.753  62.057  59.217
  546DA     BB1 3541  63.297  61.338  59.425
  546DA     BB2 3542  63.002  61.219  59.242
  546DA     BB3 3543  63.031  61.243  59.032
  546DA     SC1 3544  62.908  61.528  59.022
  546DA     SC2 3545  62.703  61.638  58.932
  546DA     SC3 3546  62.837  61.856  58.948
  546DA     SC4 3547  63.008  61.653  59.038
  547DT     BB1 3548  63.048  61.076  58.908
  547DT     BB2 3549  62.724  61.103  58.752
  547DT     BB3 3550  62.745  61.172  58.558
  547DT     SC1 3551  62.793  61.416  58.642
  547DT     SC2 3552  62.628  61.544  58.592
  547DT     SC3 3553  62.922  61.642  58.686
  548DT     BB1 3554  62.692  60.924  58.439
  548DT     BB2 3555  62.447  61.145  58.293
  548DT     BB3 3556  62.522  61.231  58.120
  548DT     SC1 3557  62.677  61.392  58.259
  548DT     SC2 3558  62.605  61.594  58.239
  548DT     SC3 3559  62.895  61.506  58.354
  549DT     BB1 3560  62.365  61.077  57.948
  549DT     BB2 3561  62.280  61.417  57.865
  549DT     BB3 3562  62.405  61.486  57.715
  549DT     SC1 3563  62.606  61.511  57.882
  549DT     SC2 3564  62.648  61.720  57.912
  549DT     SC3 3565  62.841  61.473  57.995
  550DT     BB1 3566  62.198  61.477  57.540
  550DT     BB2 3567  62.305  61.822  57.540
  550DT     BB3 3568  62.456  61.849  57.402
  550DT     SC1 3569  62.631  61.730  57.558
  550DT     SC2 3570  62.772  61.874  57.631
  550DT     SC3 3571  62.806  61.552  57.644
  551DT     BB1 3572  62.274  61.986  57.271
  551DT     BB2 3573  62.544  62.218  57.332
  551DT     BB3 3574  62.691  62.195  57.188
  551DT     SC1 3575  62.775  61.971  57.298
  551DT     SC2 3576  62.969  62.003  57.385
  551DT     SC3 3577  62.831  61.715  57.328
  552DG     BB1 3578  62.553  62.576  57.233
  552DG     BB2 3579  62.913  62.557  57.254
  552DG     BB3 3580  62.990  62.522  57.074
  552DG     SC1 3581  62.979  62.217  57.101
  552DG     SC2 3582  63.215  62.034  57.117
  552DG     SC3 3583  62.963  61.881  57.089
  552DG     SC4 3584  62.846  62.140  57.057
  553DT     BB1 3585  63.113  62.666  57.017
  553DT     BB2 3586  63.436  62.507  57.038
  553DT     BB3 3587  63.490  62.432  56.853
  553DT     SC1 3588  63.321  62.232  56.875
  553DT     SC2 3589  63.431  62.049  56.899
  553DT     SC3 3590  63.116  62.074  56.826
  554DA     BB1 3591  63.807  62.662  57.006
  554DA     BB2 3592  63.945  62.346  56.880
  554DA     BB3 3593  63.938  62.342  56.667
  554DA     SC1 3594  63.657  62.210  56.654
  554DA     SC2 3595  63.559  61.991  56.589
  554DA     SC3 3596  63.338  62.119  56.566
  554DA     SC4 3597  63.529  62.308  56.644
  555DG     BB1 3598  64.248  62.313  56.689
  555DG     BB2 3599  64.186  61.994  56.531
  555DG     BB3 3600  64.166  62.018  56.335
  555DG     SC1 3601  63.864  62.064  56.346
  555DG     SC2 3602  63.655  61.882  56.234
  555DG     SC3 3603  63.535  62.137  56.323
  555DG     SC4 3604  63.808  62.212  56.367
  556DG     BB1 3605  64.418  61.811  56.280
  556DG     BB2 3606  64.180  61.600  56.109
  556DG     BB3 3607  64.158  61.662  55.921
  556DG     SC1 3608  63.929  61.855  55.985
  556DG     SC2 3609  63.646  61.829  55.895
  556DG     SC3 3610  63.692  62.091  56.023
  556DG     SC4 3611  63.965  62.006  56.028
  557DA     BB1 3612  64.224  61.336  55.818
  557DA     BB2 3613  63.896  61.318  55.655
  557DA     BB3 3614  63.899  61.423  55.469
  557DA     SC1 3615  63.810  61.694  55.593
  557DA     SC2 3616  63.608  61.841  55.590
  557DA     SC3 3617  63.767  62.026  55.667
  557DA     SC4 3618  63.925  61.796  55.640
  558DG     BB1 3619  63.826  61.145  55.351
  558DG     BB2 3620  63.520  61.316  55.259
  558DG     BB3 3621  63.548  61.418  55.091
  558DG     SC1 3622  63.639  61.674  55.233
  558DG     SC2 3623  63.491  61.933  55.239
  558DG     SC3 3624  63.762  61.963  55.355
  558DG     SC4 3625  63.794  61.693  55.267
  559DA     BB1 3626  63.264  61.256  54.978
  559DA     BB2 3627  63.100  61.579  54.924
  559DA     BB3 3628  63.178  61.674  54.750
  559DA     SC1 3629  63.402  61.827  54.904
  559DA     SC2 3630  63.454  62.062  54.967
  559DA     SC3 3631  63.695  61.978  54.997
  559DA     SC4 3632  63.545  61.756  54.916
  560DA     BB1 3633  62.858  61.685  54.677
  560DA     BB2 3634  62.892  62.050  54.665
  560DA     BB3 3635  62.995  62.109  54.488
  560DA     SC1 3636  63.277  62.099  54.619
  560DA     SC2 3637  63.454  62.260  54.688
  560DA     SC3 3638  63.612  62.058  54.680
  560DA     SC4 3639  63.359  61.961  54.607
  561DT     BB1 3640  62.896  62.216  54.338
  561DT     BB2 3641  63.054  62.535  54.397
  561DT     BB3 3642  63.192  62.574  54.248
  561DT     SC1 3643  63.361  62.402  54.350
  561DT     SC2 3644  63.530  62.507  54.432
  561DT     SC3 3645  63.516  62.189  54.371
  562DT     BB1 3646  63.034  62.767  54.119
  562DT     BB2 3647  63.343  62.940  54.186
  562DT     BB3 3648  63.473  62.916  54.027
  562DT     SC1 3649  63.525  62.668  54.097
  562DT     SC2 3650  63.727  62.655  54.169
  562DT     SC3 3651  63.538  62.405  54.087
  563DC     BB1 3652  63.444  63.178  53.922
  563DC     BB2 3653  63.800  63.147  53.976
  563DC     BB3 3654  63.891  63.077  53.804
  563DC     SC1 3655  63.801  62.834  53.846
  563DC     SC2 3656  63.965  62.705  53.899
  563DC     SC3 3657  63.668  62.609  53.811
  564DA     BB1 3658  64.102  63.427  53.896
  564DA     BB2 3659  64.350  63.162  53.843
  564DA     BB3 3660  64.373  63.123  53.634
  564DA     SC1 3661  64.153  62.902  53.627
  564DA     SC2 3662  64.140  62.655  53.598
  564DA     SC3 3663  63.894  62.695  53.536
  564DA     SC4 3664  64.003  62.948  53.590
  565DA     BB1 3665  64.687  63.177  53.706
  565DA     BB2 3666  64.752  62.832  53.602
  565DA     BB3 3667  64.752  62.817  53.390
  565DA     SC1 3668  64.448  62.753  53.370
  565DA     SC2 3669  64.304  62.559  53.311
  565DA     SC3 3670  64.119  62.733  53.273
  565DA     SC4 3671  64.347  62.877  53.350
  566DC     BB1 3672  64.925  62.770  53.301
  566DC     BB2 3673  64.839  62.430  53.218
  566DC     BB3 3674  64.798  62.414  53.016
  566DC     SC1 3675  64.565  62.531  53.047
  566DC     SC2 3676  64.408  62.387  53.014
  566DC     SC3 3677  64.372  62.709  53.024
  567DT     BB1 3678  65.029  62.280  52.988
  567DT     BB2 3679  64.778  62.056  52.858
  567DT     BB3 3680  64.741  62.099  52.659
  567DT     SC1 3681  64.606  62.315  52.723
  567DT     SC2 3682  64.397  62.284  52.678
  567DT     SC3 3683  64.538  62.569  52.741
  568DT     BB1 3684  64.867  61.871  52.593
  568DT     BB2 3685  64.541  61.840  52.443
  568DT     BB3 3686  64.540  61.931  52.257
  568DT     SC1 3687  64.537  62.170  52.365
  568DT     SC2 3688  64.346  62.262  52.329
  568DT     SC3 3689  64.614  62.414  52.430
  569DA     BB1 3690  64.389  61.543  52.202
  569DA     BB2 3691  64.163  61.776  52.032
  569DA     BB3 3692  64.252  61.849  51.853
  569DA     SC1 3693  64.383  62.096  51.990
  569DA     SC2 3694  64.355  62.343  51.990
  569DA     SC3 3695  64.594  62.350  52.082
  569DA     SC4 3696  64.533  62.079  52.045
  570DG     BB1 3697  64.011  61.718  51.699
  570DG     BB2 3698  63.935  62.061  51.611
  570DG     BB3 3699  64.042  62.115  51.452
  570DG     SC1 3700  64.280  62.217  51.615
  570DG     SC2 3701  64.369  62.501  51.636
  570DG     SC3 3702  64.566  62.320  51.762
  570DG     SC4 3703  64.396  62.115  51.655
  571DT     BB1 3704  63.954  62.173  51.237
  571DT     BB2 3705  63.996  62.532  51.242
  571DT     BB3 3706  64.149  62.586  51.114
  571DT     SC1 3707  64.331  62.500  51.282
  571DT     SC2 3708  64.438  62.668  51.363
  571DT     SC3 3709  64.530  62.358  51.381
  572DT     BB1 3710  63.966  62.689  50.944
  572DT     BB2 3711  64.186  62.965  51.023
  572DT     BB3 3712  64.350  62.963  50.897
  572DT     SC1 3713  64.456  62.760  51.026
  572DT     SC2 3714  64.630  62.827  51.133
  572DT     SC3 3715  64.549  62.518  51.075
  573DG     BB1 3716  64.164  63.323  50.859
  573DG     BB2 3717  64.515  63.361  50.938
  573DG     BB3 3718  64.624  63.327  50.776
  573DG     SC1 3719  64.653  63.027  50.828
  573DG     SC2 3720  64.906  62.884  50.896
  573DG     SC3 3721  64.687  62.692  50.844
  573DG     SC4 3722  64.542  62.927  50.770
  574DT     BB1 3723  64.743  63.484  50.708
  574DT     BB2 3724  65.072  63.377  50.809
  574DT     BB3 3725  65.172  63.294  50.647
  574DT     SC1 3726  65.028  63.075  50.661
  574DT     SC2 3727  65.152  62.912  50.726
  574DT     SC3 3728  64.858  62.885  50.592
  575DT     BB1 3729  65.322  63.511  50.659
  575DT     BB2 3730  65.551  63.233  50.693
  575DT     BB3 3731  65.597  63.157  50.506
  575DT     SC1 3732  65.361  63.042  50.487
  575DT     SC2 3733  65.385  62.828  50.499
  575DT     SC3 3734  65.120  62.984  50.398
  576DG     BB1 3735  65.940  63.262  50.699
  576DG     BB2 3736  65.953  62.922  50.577
  576DG     BB3 3737  65.980  62.922  50.380
  576DG     SC1 3738  65.682  62.927  50.314
  576DG     SC2 3739  65.527  62.707  50.183
  576DG     SC3 3740  65.363  62.952  50.205
  576DG     SC4 3741  65.607  63.068  50.300
  577DC     BB1 3742  66.159  62.832  50.296
  577DC     BB2 3743  66.029  62.528  50.153
  577DC     BB3 3744  66.007  62.549  49.949
  577DC     SC1 3745  65.793  62.699  49.980
  577DC     SC2 3746  65.620  62.591  49.913
  577DC     SC3 3747  65.634  62.909  49.971
  578DC     BB1 3748  66.219  62.386  49.908
  578DC     BB2 3749  65.947  62.231  49.727
  578DC     BB3 3750  65.933  62.313  49.537
  578DC     SC1 3751  65.826  62.533  49.633
  578DC     SC2 3752  65.619  62.544  49.574
  578DC     SC3 3753  65.795  62.788  49.695
  579DA     BB1 3754  65.954  61.898  49.480
  579DA     BB2 3755  65.669  62.024  49.287
  579DA     BB3 3756  65.736  62.128  49.114
  579DA     SC1 3757  65.748  62.405  49.255
  579DA     SC2 3758  65.624  62.621  49.248
  579DA     SC3 3759  65.833  62.721  49.357
  579DA     SC4 3760  65.887  62.449  49.322
  580DT     BB1 3761  65.697  62.052  48.926
  580DT     BB2 3762  65.436  62.286  48.842
  580DT     BB3 3763  65.506  62.424  48.705
  580DT     SC1 3764  65.645  62.549  48.889
  580DT     SC2 3765  65.557  62.742  48.926
  580DT     SC3 3766  65.852  62.646  49.020
  581DA     BB1 3767  65.149  62.262  48.558
  581DA     BB2 3768  65.124  62.627  48.543
  581DA     BB3 3769  65.247  62.703  48.386
  581DA     SC1 3770  65.497  62.740  48.567
  581DA     SC2 3771  65.629  62.929  48.663
  581DA     SC3 3772  65.817  62.756  48.691
  581DA     SC4 3773  65.602  62.619  48.575
  582DC     BB1 3774  65.153  62.790  48.234
  582DC     BB2 3775  65.236  63.130  48.324
  582DC     BB3 3776  65.385  63.202  48.200
  582DC     SC1 3777  65.568  63.058  48.323
  582DC     SC2 3778  65.698  63.189  48.433
  582DC     SC3 3779  65.755  62.877  48.364
  583DG     BB1 3780  65.062  63.447  48.181
  583DG     BB2 3781  65.364  63.629  48.261
  583DG     BB3 3782  65.473  63.654  48.097
  583DG     SC1 3783  65.630  63.393  48.133
  583DG     SC2 3784  65.921  63.370  48.193
  583DG     SC3 3785  65.806  63.105  48.130
  583DG     SC4 3786  65.571  63.258  48.070
  584DT     BB1 3787  65.510  63.850  48.039
  584DT     BB2 3788  65.856  63.892  48.131
  584DT     BB3 3789  65.976  63.873  47.964
  584DT     SC1 3790  65.944  63.613  47.960
  584DT     SC2 3791  66.129  63.517  48.014
  584DT     SC3 3792  65.873  63.372  47.878
  585DA     BB1 3793  66.070  64.216  48.186
  585DA     BB2 3794  66.382  64.038  48.109
  585DA     BB3 3795  66.426  64.053  47.901
  585DA     SC1 3796  66.273  63.793  47.825
  585DA     SC2 3797  66.327  63.562  47.747
  585DA     SC3 3798  66.084  63.554  47.667
  585DA     SC4 3799  66.119  63.807  47.782
  586DC     BB1 3800  66.579  64.144  47.879
  586DC     BB2 3801  66.788  63.867  47.778
  586DC     BB3 3802  66.800  63.860  47.571
  586DC     SC1 3803  66.557  63.765  47.552
  586DC     SC2 3804  66.565  63.560  47.486
  586DC     SC3 3805  66.301  63.748  47.489
  587DA     BB1 3806  67.185  63.838  47.739
  587DA     BB2 3807  67.159  63.581  47.478
  587DA     BB3 3808  67.153  63.672  47.285
  587DA     SC1 3809  66.843  63.694  47.278
  587DA     SC2 3810  66.653  63.589  47.154
  587DA     SC3 3811  66.519  63.796  47.226
  587DA     SC4 3812  66.777  63.831  47.331
  588DT     BB1 3813  67.306  63.638  47.168
  588DT     BB2 3814  67.143  63.424  46.929
  588DT     BB3 3815  67.096  63.531  46.758
  588DT     SC1 3816  66.897  63.652  46.879
  588DT     SC2 3817  66.711  63.582  46.797
  588DT     SC3 3818  66.750  63.844  46.983
  589DT     BB1 3819  67.303  63.423  46.599
  589DT     BB2 3820  67.008  63.371  46.397
  589DT     BB3 3821  66.977  63.534  46.274
  589DT     SC1 3822  66.889  63.678  46.475
  589DT     SC2 3823  66.678  63.713  46.451
  589DT     SC3 3824  66.875  63.871  46.654
  590DC     BB1 3825  67.077  63.438  46.008
  590DC     BB2 3826  66.747  63.556  45.926
  590DC     BB3 3827  66.756  63.751  45.857
  590DC     SC1 3828  66.797  63.843  46.099
  590DC     SC2 3829  66.623  63.953  46.164
  590DC     SC3 3830  66.916  63.960  46.304
  591DA     BB1 3831  66.577  63.611  45.490
  591DA     BB2 3832  66.379  63.903  45.590
  591DA     BB3 3833  66.473  64.083  45.523
  591DA     SC1 3834  66.640  64.122  45.782
  591DA     SC2 3835  66.645  64.278  45.977
  591DA     SC3 3836  66.886  64.196  46.010
  591DA     SC4 3837  66.788  64.059  45.785
  592DA     BB1 3838  66.201  64.189  45.342
  592DA     BB2 3839  66.168  64.467  45.579
  592DA     BB3 3840  66.289  64.632  45.518
  592DA     SC1 3841  66.539  64.540  45.679
  592DA     SC2 3842  66.666  64.615  45.880
  592DA     SC3 3843  66.858  64.473  45.785
  592DA     SC4 3844  66.646  64.448  45.603
  593DT     BB1 3845  66.206  64.825  45.452
  593DT     BB2 3846  66.274  64.995  45.763
  593DT     BB3 3847  66.424  65.135  45.736
  593DT     SC1 3848  66.607  64.948  45.726
  593DT     SC2 3849  66.730  64.959  45.902
  593DT     SC3 3850  66.800  64.794  45.632
  594DA     BB1 3851  66.095  65.311  45.925
  594DA     BB2 3852  66.395  65.385  46.123
  594DA     BB3 3853  66.516  65.529  46.022
  594DA     SC1 3854  66.684  65.316  45.869
  594DA     SC2 3855  66.917  65.228  45.872
  594DA     SC3 3856  66.867  65.144  45.635
  594DA     SC4 3857  66.634  65.273  45.723
  595DA     BB1 3858  66.474  65.646  46.323
  595DA     BB2 3859  66.839  65.624  46.354
  595DA     BB3 3860  66.933  65.772  46.233
  595DA     SC1 3861  66.955  65.589  45.983
  595DA     SC2 3862  67.135  65.475  45.854
  595DA     SC3 3863  66.964  65.465  45.663
  595DA     SC4 3864  66.835  65.594  45.876
  596DA     BB1 3865  67.065  65.812  46.530
  596DA     BB2 3866  67.386  65.741  46.368
  596DA     BB3 3867  67.443  65.904  46.242
  596DA     SC1 3868  67.304  65.788  45.989
  596DA     SC2 3869  67.371  65.690  45.769
  596DA     SC3 3870  67.133  65.749  45.693
  596DA     SC4 3871  67.152  65.834  45.960
  597DT     BB1 3872  67.602  65.999  46.297
  597DT     BB2 3873  67.822  65.871  46.041
  597DT     BB3 3874  67.847  66.012  45.892
  597DT     SC1 3875  67.607  65.966  45.797
  597DT     SC2 3876  67.623  65.869  45.605
  597DT     SC3 3877  67.356  66.006  45.727
  598DA     BB1 3878  68.231  65.894  46.013
  598DA     BB2 3879  68.217  65.877  45.647
  598DA     BB3 3880  68.220  66.074  45.563
  598DA     SC1 3881  67.910  66.103  45.561
  598DA     SC2 3882  67.727  66.113  45.393
  598DA     SC3 3883  67.589  66.222  45.579
  598DA     SC4 3884  67.841  66.171  45.690
  599DG     BB1 3885  68.481  65.975  45.427
  599DG     BB2 3886  68.284  66.016  45.127
  599DG     BB3 3887  68.286  66.206  45.069
  599DG     SC1 3888  68.040  66.284  45.233
  599DG     SC2 3889  67.775  66.367  45.122
  599DG     SC3 3890  67.785  66.409  45.415
  599DG     SC4 3891  68.059  66.332  45.384
  600DT     BB1 3892  68.369  66.253  44.878
  600DT     BB2 3893  68.069  66.315  44.687
  600DT     BB3 3894  68.041  66.519  44.664
  600DT     SC1 3895  67.962  66.544  44.913
  600DT     SC2 3896  67.752  66.591  44.916
  600DT     SC3 3897  67.958  66.621  45.165
  601DT     BB1 3898  68.097  66.462  44.416
  601DT     BB2 3899  67.768  66.610  44.410
  601DT     BB3 3900  67.783  66.816  44.418
  601DT     SC1 3901  67.845  66.810  44.673
  601DT     SC2 3902  67.682  66.892  44.787
  601DT     SC3 3903  67.983  66.840  44.895
  602DT     BB1 3904  67.692  66.786  44.177
  602DT     BB2 3905  67.455  66.999  44.345
  602DT     BB3 3906  67.528  67.193  44.354
  602DT     SC1 3907  67.699  67.129  44.542
  602DT     SC2 3908  67.639  67.222  44.727
  602DT     SC3 3909  67.928  67.089  44.665
  603DT     BB1 3910  67.337  67.247  44.178
  603DT     BB2 3911  67.280  67.475  44.452
  603DT     BB3 3912  67.403  67.641  44.433
  603DT     SC1 3913  67.612  67.503  44.510
  603DT     SC2 3914  67.675  67.571  44.704
  603DT     SC3 3915  67.848  67.386  44.503
  604DT     BB1 3916  67.189  67.793  44.362
  604DT     BB2 3917  67.334  67.968  44.642
  604DT     BB3 3918  67.483  68.096  44.576
  604DT     SC1 3919  67.648  67.895  44.536
  604DT     SC2 3920  67.806  67.903  44.681
  604DT     SC3 3921  67.804  67.724  44.411
  605DC     BB1 3922  67.329  68.322  44.616
  605DC     BB2 3923  67.628  68.385  44.808
  605DC     BB3 3924  67.770  68.477  44.690
  605DC     SC1 3925  67.823  68.252  44.565
  605DC     SC2 3926  68.019  68.184  44.620
  605DC     SC3 3927  67.843  68.075  44.370
  606DA     BB1 3928  67.734  68.727  45.024
  606DA     BB2 3929  68.091  68.663  44.973
  606DA     BB3 3930  68.164  68.778  44.808
  606DA     SC1 3931  68.106  68.556  44.597
  606DA     SC2 3932  68.237  68.400  44.453
  606DA     SC3 3933  68.023  68.383  44.313
  606DA     SC4 3934  67.964  68.560  44.522
  607DT     BB1 3935  68.300  68.926  44.842
  607DT     BB2 3936  68.587  68.750  44.714
  607DT     BB3 3937  68.643  68.828  44.531
  607DT     SC1 3938  68.440  68.712  44.411
  607DT     SC2 3939  68.512  68.555  44.283
  607DT     SC3 3940  68.214  68.682  44.278
  608DA     BB1 3941  68.975  68.803  44.784
  608DA     BB2 3942  69.065  68.654  44.461
  608DA     BB3 3943  69.085  68.805  44.312
  608DA     SC1 3944  68.788  68.792  44.222
  608DA     SC2 3945  68.659  68.716  44.023
  608DA     SC3 3946  68.471  68.866  44.112
  608DA     SC4 3947  68.684  68.892  44.293
  609DA     BB1 3948  69.358  68.626  44.297
  609DA     BB2 3949  69.266  68.564  43.947
  609DA     BB3 3950  69.287  68.743  43.832
  609DA     SC1 3951  68.994  68.836  43.880
  609DA     SC2 3952  68.784  68.861  43.747
  609DA     SC3 3953  68.709  69.021  43.933
  609DA     SC4 3954  68.966  68.933  44.005
  610DA     BB1 3955  69.455  68.519  43.660
  610DA     BB2 3956  69.233  68.602  43.380
  610DA     BB3 3957  69.275  68.798  43.308
  610DA     SC1 3958  69.070  68.937  43.495
  610DA     SC2 3959  68.851  69.055  43.475
  610DA     SC3 3960  68.907  69.156  43.704
  610DA     SC4 3961  69.123  68.990  43.638
  611DT     BB1 3962  69.355  68.819  43.124
  611DT     BB2 3963  69.068  68.962  42.958
  611DT     BB3 3964  69.095  69.166  42.934
  611DT     SC1 3965  69.047  69.209  43.189
  611DT     SC2 3966  68.858  69.311  43.210
  611DT     SC3 3967  69.085  69.281  43.440
  612DC     BB1 3968  69.155  69.161  42.657
  612DC     BB2 3969  68.887  69.401  42.678
  612DC     BB3 3970  68.964  69.591  42.706
  612DC     SC1 3971  69.021  69.540  42.957
  612DC     SC2 3972  68.891  69.654  43.085
  612DC     SC3 3973  69.162  69.502  43.177
  613DG     BB1 3974  68.779  69.659  42.342
  613DG     BB2 3975  68.678  69.910  42.581
  613DG     BB3 3976  68.812  70.057  42.587
  613DG     SC1 3977  68.982  69.927  42.806
  613DG     SC2 3978  69.020  70.030  43.083
  613DG     SC3 3979  69.202  69.804  43.030
  613DG     SC4 3980  69.098  69.825  42.764
  614DT     BB1 3981  68.790  70.302  42.520
  614DT     BB2 3982  68.766  70.451  42.848
  614DT     BB3 3983  68.937  70.562  42.887
  614DT     SC1 3984  69.078  70.345  42.928
  614DT     SC2 3985  69.129  70.331  43.136
  614DT     SC3 3986  69.264  70.160  42.896
  615DT     BB1 3987  68.808  70.808  42.858
  615DT     BB2 3988  68.939  70.815  43.194
  615DT     BB3 3989  69.130  70.897  43.194
  615DT     SC1 3990  69.231  70.677  43.092
  615DT     SC2 3991  69.353  70.580  43.240
  615DT     SC3 3992  69.352  70.515  42.922
  616DT     BB1 3993  69.030  71.117  43.314
  616DT     BB2 3994  69.281  70.993  43.541
  616DT     BB3 3995  69.467  71.069  43.489
  616DT     SC1 3996  69.484  70.907  43.283
  616DT     SC2 3997  69.637  70.760  43.320
  616DT     SC3 3998  69.501  70.825  43.033
  617DT     BB1 3999  69.444  71.208  43.712
  617DT     BB2 4000  69.748  71.017  43.750
  617DT     BB3 4001  69.905  71.113  43.655
  617DT     SC1 4002  69.816  71.043  43.419
  617DT     SC2 4003  69.950  70.898  43.332
  617DT     SC3 4004  69.719  71.062  43.174
  618DT     BB1 4005  69.990  71.154  43.901
  618DT     BB2 4006  70.260  70.982  43.734
  618DT     BB3 4007  70.372  71.116  43.623
  618DT     SC1 4008  70.185  71.133  43.439
  618DT     SC2 4009  70.255  71.039  43.259
  618DT     SC3 4010  69.998  71.234  43.284
  619DT     BB1 4011  70.567  71.087  43.804
  619DT     BB2 4012  70.723  71.008  43.489
  619DT     BB3 4013  70.787  71.182  43.396
  619DT     SC1 4014  70.541  71.245  43.329
  619DT     SC2 4015  70.518  71.227  43.116
  619DT     SC3 4016  70.313  71.378  43.318
  620DA     BB1 4017  71.127  70.934  43.404
  620DA     BB2 4018  71.096  71.069  43.064
  620DA     BB3 4019  71.154  71.274  43.060
  620DA     SC1 4020  70.867  71.381  43.115
  620DA     SC2 4021  70.688  71.504  42.991
  620DA     SC3 4022  70.595  71.561  43.223
  620DA     SC4 4023  70.825  71.407  43.268
  621DT     BB1 4024  71.339  71.358  42.959
  621DT     BB2 4025  71.169  71.511  42.680
  621DT     BB3 4026  71.176  71.717  42.698
  621DT     SC1 4027  70.995  71.716  42.888
  621DT     SC2 4028  70.813  71.802  42.813
  621DT     SC3 4029  70.884  71.748  43.125
  622DC     BB1 4030  71.373  71.764  42.496
  622DC     BB2 4031  71.093  71.966  42.389
  622DC     BB3 4032  71.111  72.157  42.465
  622DC     SC1 4033  71.043  72.078  42.705
  622DC     SC2 4034  70.849  72.157  42.754
  622DC     SC3 4035  71.059  72.026  42.963
  623DA     BB1 4036  71.064  72.219  42.052
  623DA     BB2 4037  70.822  72.435  42.223
  623DA     BB3 4038  70.920  72.607  42.303
  623DA     SC1 4039  70.978  72.475  42.579
  623DA     SC2 4040  70.900  72.498  42.815
  623DA     SC3 4041  71.118  72.377  42.877
  623DA     SC4 4042  71.119  72.400  42.597
  624DA     BB1 4043  70.696  72.773  42.129
  624DA     BB2 4044  70.571  72.905  42.447
  624DA     BB3 4045  70.696  73.063  42.517
  624DA     SC1 4046  70.882  72.875  42.682
  624DA     SC2 4047  70.931  72.829  42.922
  624DA     SC3 4048  71.151  72.728  42.836
  624DA     SC4 4049  71.014  72.819  42.609
  625DT     BB1 4050  70.619  73.252  42.527
  625DT     BB2 4051  70.579  73.261  42.885
  625DT     BB3 4052  70.724  73.382  42.969
  625DT     SC1 4053  70.910  73.200  42.932
  625DT     SC2 4054  70.971  73.120  43.122
  625DT     SC3 4055  71.128  73.083  42.841
  626DA     BB1 4056  70.352  73.506  43.114
  626DA     BB2 4057  70.576  73.463  43.401
  626DA     BB3 4058  70.717  73.622  43.409
  626DA     SC1 4059  70.930  73.474  43.236
  626DA     SC2 4060  71.154  73.370  43.269
  626DA     SC3 4061  71.180  73.395  43.015
  626DA     SC4 4062  70.928  73.499  43.078
  627DC     BB1 4063  70.703  73.741  43.564
  627DC     BB2 4064  70.992  73.618  43.740
  627DC     BB3 4065  71.149  73.751  43.721
  627DC     SC1 4066  71.192  73.676  43.473
  627DC     SC2 4067  71.378  73.569  43.461
  627DC     SC3 4068  71.211  73.688  43.210
  628DT     BB1 4069  71.113  73.809  43.979
  628DT     BB2 4070  71.456  73.698  43.955
  628DT     BB3 4071  71.577  73.857  43.900
  628DT     SC1 4072  71.491  73.846  43.652
  628DT     SC2 4073  71.650  73.776  43.524
  628DT     SC3 4074  71.376  73.918  43.426
  629DC     BB1 4075  71.673  73.847  44.148
  629DC     BB2 4076  71.962  73.806  43.936
  629DC     BB3 4077  72.032  73.991  43.876
  629DC     SC1 4078  71.834  74.021  43.706
  629DC     SC2 4079  71.910  74.009  43.505
  629DC     SC3 4080  71.618  74.119  43.592
  630DT     BB1 4081  72.236  73.938  44.034
  630DT     BB2 4082  72.382  73.999  43.710
  630DT     BB3 4083  72.404  74.203  43.681
  630DT     SC1 4084  72.147  74.233  43.639
  630DT     SC2 4085  72.113  74.281  43.432
  630DT     SC3 4086  71.898  74.313  43.672
  631DA     BB1 4087  72.766  74.010  43.595
  631DA     BB2 4088  72.695  74.244  43.322
  631DA     BB3 4089  72.722  74.445  43.388
  631DA     SC1 4090  72.426  74.480  43.479
  631DA     SC2 4091  72.224  74.607  43.406
  631DA     SC3 4092  72.138  74.568  43.645
  631DA     SC4 4093  72.391  74.446  43.632
  632DT     BB1 4094  72.866  74.540  43.305
  632DT     BB2 4095  72.667  74.763  43.102
  632DT     BB3 4096  72.656  74.949  43.191
  632DT     SC1 4097  72.487  74.861  43.372
  632DT     SC2 4098  72.293  74.948  43.336
  632DT     SC3 4099  72.387  74.796  43.607
  633DC     BB1 4100  72.827  75.059  43.006
  633DC     BB2 4101  72.533  75.268  42.990
  633DC     BB3 4102  72.546  75.419  43.130
  633DC     SC1 4103  72.494  75.253  43.327
  633DC     SC2 4104  72.299  75.297  43.407
  633DC     SC3 4105  72.525  75.112  43.547
  634DC     BB1 4106  72.602  75.622  42.944
  634DC     BB2 4107  72.311  75.744  43.119
  634DC     BB3 4108  72.369  75.857  43.282
  634DC     SC1 4109  72.437  75.642  43.417
  634DC     SC2 4110  72.298  75.612  43.579
  634DC     SC3 4111  72.586  75.466  43.545
  635DT     BB1 4112  72.299  76.100  43.165
  635DT     BB2 4113  72.107  76.091  43.471
  635DT     BB3 4114  72.215  76.176  43.625
  635DT     SC1 4115  72.371  75.965  43.643
  635DT     SC2 4116  72.330  75.862  43.827
  635DT     SC3 4117  72.588  75.816  43.636
  636DA     BB1 4118  71.841  76.363  43.618
  636DA     BB2 4119  71.906  76.253  43.962
  636DA     BB3 4120  72.051  76.379  44.054
  636DA     SC1 4121  72.294  76.205  43.965
  636DA     SC2 4122  72.462  76.056  44.072
  636DA     SC3 4123  72.601  76.095  43.860
  636DA     SC4 4124  72.366  76.243  43.827
  637DA     BB1 4125  71.804  76.382  44.265
  637DA     BB2 4126  72.040  76.234  44.505
  637DA     BB3 4127  72.181  76.380  44.570
  637DA     SC1 4128  72.387  76.316  44.346
  637DA     SC2 4129  72.613  76.211  44.328
  637DA     SC3 4130  72.629  76.334  44.103
  637DA     SC4 4131  72.378  76.401  44.210
  638DA     BB1 4132  72.059  76.248  44.841
  638DA     BB2 4133  72.404  76.151  44.918
  638DA     BB3 4134  72.521  76.324  44.966
  638DA     SC1 4135  72.613  76.373  44.673
  638DA     SC2 4136  72.823  76.357  44.541
  638DA     SC3 4137  72.707  76.515  44.375
  638DA     SC4 4138  72.524  76.472  44.583
  639DG     BB1 4139  72.549  76.151  45.219
  639DG     BB2 4140  72.898  76.156  45.125
  639DG     BB3 4141  72.978  76.333  45.171
  639DG     SC1 4142  72.910  76.462  44.902
  639DG     SC2 4143  73.107  76.550  44.695
  639DG     SC3 4144  72.834  76.641  44.627
  639DG     SC4 4145  72.769  76.534  44.884
  640DT     BB1 4146  73.136  76.337  45.312
  640DT     BB2 4147  73.423  76.415  45.107
  640DT     BB3 4148  73.467  76.616  45.121
  640DT     SC1 4149  73.263  76.680  44.969
  640DT     SC2 4150  73.335  76.752  44.779
  640DT     SC3 4151  73.033  76.784  44.893
  641DT     BB1 4152  73.690  76.574  45.280
  641DT     BB2 4153  73.818  76.771  45.007
  641DT     BB3 4154  73.798  76.973  45.050
  641DT     SC1 4155  73.540  76.965  45.006
  641DT     SC2 4156  73.495  77.075  44.826
  641DT     SC3 4157  73.280  76.979  45.049
  642DT     BB1 4158  74.074  77.032  45.116
  642DT     BB2 4159  73.998  77.277  44.862
  642DT     BB3 4160  73.934  77.453  44.951
  642DT     SC1 4161  73.700  77.348  45.009
  642DT     SC2 4162  73.549  77.441  44.887
  642DT     SC3 4163  73.497  77.259  45.151
  643DT     BB1 4164  74.174  77.612  44.914
  643DT     BB2 4165  73.918  77.816  44.762
  643DT     BB3 4166  73.846  77.952  44.900
  643DT     SC1 4167  73.710  77.766  45.025
  643DT     SC2 4168  73.500  77.797  44.993
  643DT     SC3 4169  73.631  77.602  45.216
  644DA     BB1 4170  73.960  78.204  44.583
  644DA     BB2 4171  73.619  78.301  44.677
  644DA     BB3 4172  73.622  78.420  44.854
  644DA     SC1 4173  73.593  78.177  45.047
  644DA     SC2 4174  73.421  78.083  45.201
  644DA     SC3 4175  73.617  77.960  45.312
  644DA     SC4 4176  73.729  78.111  45.103
  645DC     BB1 4177  73.569  78.642  44.866
  645DC     BB2 4178  73.248  78.600  45.024
  645DC     BB3 4179  73.255  78.671  45.218
  645DC     SC1 4180  73.391  78.462  45.299
  645DC     SC2 4181  73.268  78.341  45.426
  645DC     SC3 4182  73.590  78.318  45.395
  646DT     BB1 4183  73.108  78.914  45.174
  646DT     BB2 4184  72.922  78.752  45.438
  646DT     BB3 4185  72.989  78.818  45.622
  646DT     SC1 4186  73.208  78.675  45.603
  646DT     SC2 4187  73.201  78.514  45.745
  646DT     SC3 4188  73.464  78.614  45.585
  647DA     BB1 4189  72.578  78.905  45.653
  647DA     BB2 4190  72.670  78.721  45.957
  647DA     BB3 4191  72.766  78.851  46.096
  647DA     SC1 4192  73.052  78.794  45.989
  647DA     SC2 4193  73.258  78.677  46.067
  647DA     SC3 4194  73.381  78.818  45.891
  647DA     SC4 4195  73.110  78.891  45.875
  648DC     BB1 4196  72.683  78.927  46.308
  648DC     BB2 4197  72.890  78.708  46.505
  648DC     BB3 4198  73.026  78.819  46.616
  648DC     SC1 4199  73.171  78.867  46.403
  648DC     SC2 4200  73.358  78.761  46.418
  648DC     SC3 4201  73.292  79.000  46.209
  649DT     BB1 4202  72.898  78.784  46.870
  649DT     BB2 4203  73.229  78.647  46.917
  649DT     BB3 4204  73.355  78.792  46.994
  649DT     SC1 4205  73.370  78.913  46.762
  649DT     SC2 4206  73.568  78.888  46.681
  649DT     SC3 4207  73.346  79.100  46.578
  650DA     BB1 4208  73.375  78.446  47.222
  650DA     BB2 4209  73.716  78.538  47.123
  650DA     BB3 4210  73.783  78.706  47.237
  650DA     SC1 4211  73.680  78.917  47.033
  650DA     SC2 4212  73.777  79.080  46.871
  650DA     SC3 4213  73.548  79.197  46.883
  650DA     SC4 4214  73.532  78.976  47.055
  651DA     BB1 4215  73.991  78.462  47.232
  651DA     BB2 4216  74.219  78.702  47.074
  651DA     BB3 4217  74.275  78.854  47.213
  651DA     SC1 4218  74.040  79.044  47.135
  651DA     SC2 4219  74.011  79.262  47.018
  651DA     SC3 4220  73.784  79.272  47.138
  651DA     SC4 4221  73.904  79.032  47.220
  652DA     BB1 4222  74.508  78.709  47.024
  652DA     BB2 4223  74.581  79.054  46.923
  652DA     BB3 4224  74.636  79.171  47.092
  652DA     SC1 4225  74.345  79.264  47.153
  652DA     SC2 4226  74.212  79.474  47.141
  652DA     SC3 4227  74.053  79.359  47.306
  652DA     SC4 4228  74.259  79.175  47.256
  653DG     BB1 4229  74.857  79.186  46.877
  653DG     BB2 4230  74.775  79.538  46.898
  653DG     BB3 4231  74.837  79.612  47.071
  653DG     SC1 4232  74.576  79.550  47.218
  653DG     SC2 4233  74.383  79.752  47.325
  653DG     SC3 4234  74.311  79.480  47.415
  653DG     SC4 4235  74.558  79.408  47.289
  654DA     BB1 4236  74.984  79.857  46.873
  654DA     BB2 4237  74.807  80.116  47.064
  654DA     BB3 4238  74.891  80.134  47.259
  654DA     SC1 4239  74.699  79.925  47.387
  654DA     SC2 4240  74.508  79.924  47.548
  654DA     SC3 4241  74.561  79.675  47.578
  654DA     SC4 4242  74.749  79.773  47.393
  655DA     BB1 4243  74.931  80.458  47.189
  655DA     BB2 4244  74.718  80.533  47.478
  655DA     BB3 4245  74.828  80.512  47.659
  655DA     SC1 4246  74.753  80.212  47.698
  655DA     SC2 4247  74.613  80.076  47.852
  655DA     SC3 4248  74.756  79.877  47.773
  655DA     SC4 4249  74.854  80.102  47.637
  656DA     BB1 4250  74.748  80.828  47.739
  656DA     BB2 4251  74.574  80.697  48.034
  656DA     BB3 4252  74.713  80.658  48.191
  656DA     SC1 4253  74.764  80.363  48.105
  656DA     SC2 4254  74.713  80.134  48.192
  656DA     SC3 4255  74.904  80.057  48.039
  656DA     SC4 4256  74.886  80.335  48.005
  657DG     BB1 4257  74.565  80.871  48.371
  657DG     BB2 4258  74.483  80.583  48.573
  657DG     BB3 4259  74.629  80.549  48.705
  657DG     SC1 4260  74.787  80.364  48.519
  657DG     SC2 4261  74.831  80.071  48.558
  657DG     SC3 4262  74.995  80.174  48.334
  657DG     SC4 4263  74.895  80.428  48.419
  658DC     BB1 4264  74.593  80.560  48.926
  658DC     BB2 4265  74.585  80.210  49.012
  658DC     BB3 4266  74.760  80.157  49.109
  658DC     SC1 4267  74.896  80.162  48.884
  658DC     SC2 4268  74.952  79.962  48.830
  658DC     SC3 4269  75.074  80.235  48.704
  659DA     BB1 4270  74.424  80.024  49.320
  659DA     BB2 4271  74.658  79.744  49.289
  659DA     BB3 4272  74.829  79.776  49.413
  659DA     SC1 4273  74.993  79.922  49.192
  659DA     SC2 4274  75.194  79.877  49.052
  659DA     SC3 4275  75.203  80.131  49.019
  659DA     SC4 4276  74.982  80.082  49.185
  660DT     BB1 4277  74.834  79.649  49.539
  660DT     BB2 4278  75.117  79.464  49.413
  660DT     BB3 4279  75.290  79.523  49.511
  660DT     SC1 4280  75.298  79.749  49.378
  660DT     SC2 4281  75.465  79.745  49.242
  660DT     SC3 4282  75.295  80.008  49.327
  661DA     BB1 4283  75.268  79.103  49.521
  661DA     BB2 4284  75.611  79.196  49.431
  661DA     BB3 4285  75.712  79.279  49.600
  661DA     SC1 4286  75.629  79.572  49.536
  661DA     SC2 4287  75.738  79.783  49.459
  661DA     SC3 4288  75.533  79.901  49.557
  661DA     SC4 4289  75.494  79.628  49.604
  662DA     BB1 4290  75.937  79.045  49.528
  662DA     BB2 4291  76.180  79.317  49.491
  662DA     BB3 4292  76.233  79.396  49.683
  662DA     SC1 4293  76.009  79.612  49.682
  662DA     SC2 4294  75.992  79.861  49.665
  662DA     SC3 4295  75.760  79.832  49.770
  662DA     SC4 4296  75.868  79.574  49.749
  663DT     BB1 4297  76.431  79.375  49.778
  663DT     BB2 4298  76.539  79.716  49.731
  663DT     BB3 4299  76.539  79.816  49.912
  663DT     SC1 4300  76.277  79.833  49.912
  663DT     SC2 4301  76.219  80.038  49.883
  663DT     SC3 4302  76.026  79.798  49.985
  664DT     BB1 4303  76.819  79.819  49.946
  664DT     BB2 4304  76.726  80.167  49.962
  664DT     BB3 4305  76.687  80.220  50.159
  664DT     SC1 4306  76.457  80.095  50.155
  664DT     SC2 4307  76.297  80.238  50.162
  664DT     SC3 4308  76.269  79.920  50.215
  665DA     BB1 4309  76.967  80.498  50.017
  665DA     BB2 4310  76.689  80.685  50.165
  665DA     BB3 4311  76.697  80.674  50.378
  665DA     SC1 4312  76.520  80.419  50.396
  665DA     SC2 4313  76.291  80.359  50.475
  665DA     SC3 4314  76.380  80.118  50.486
  665DA     SC4 4315  76.594  80.277  50.398
  666DC     BB1 4316  76.727  80.842  50.462
  666DC     BB2 4317  76.389  80.890  50.579
  666DC     BB3 4318  76.377  80.845  50.781
  666DC     SC1 4319  76.389  80.587  50.732
  666DC     SC2 4320  76.199  80.497  50.775
  666DC     SC3 4321  76.478  80.339  50.729
  667DG     BB1 4322  76.241  81.220  50.700
  667DG     BB2 4323  76.000  81.025  50.886
  667DG     BB3 4324  76.058  81.007  51.075
  667DG     SC1 4325  76.218  80.751  51.028
  667DG     SC2 4326  76.153  80.481  51.137
  667DG     SC3 4327  76.419  80.481  51.008
  667DG     SC4 4328  76.372  80.762  50.984
  668DA     BB1 4329  75.731  81.110  51.123
  668DA     BB2 4330  75.672  80.807  51.322
  668DA     BB3 4331  75.778  80.818  51.507
  668DA     SC1 4332  76.035  80.681  51.397
  668DA     SC2 4333  76.155  80.465  51.425
  668DA     SC3 4334  76.359  80.590  51.332
  668DA     SC4 4335  76.150  80.777  51.339
  669DA     BB1 4336  75.473  80.750  51.617
  669DA     BB2 4337  75.619  80.451  51.772
  669DA     BB3 4338  75.739  80.506  51.940
  669DA     SC1 4339  76.001  80.533  51.774
  669DA     SC2 4340  76.218  80.412  51.750
  669DA     SC3 4341  76.306  80.630  51.649
  669DA     SC4 4342  76.037  80.678  51.715
  670DA     BB1 4343  75.552  80.296  52.122
  670DA     BB2 4344  75.858  80.108  52.195
  670DA     BB3 4345  75.973  80.208  52.344
  670DA     SC1 4346  76.138  80.375  52.140
  670DA     SC2 4347  76.373  80.385  52.057
  670DA     SC3 4348  76.314  80.623  51.980
  670DA     SC4 4349  76.083  80.521  52.102
  671DT     BB1 4350  76.016  80.143  52.572
  671DT     BB2 4351  76.358  80.043  52.519
  671DT     BB3 4352  76.487  80.173  52.616
  671DT     SC1 4353  76.447  80.359  52.435
  671DT     SC2 4354  76.627  80.385  52.320
  671DT     SC3 4355  76.374  80.588  52.326
  672DA     BB1 4356  76.612  79.808  52.788
  672DA     BB2 4357  76.912  79.974  52.660
  672DA     BB3 4358  76.976  80.127  52.796
  672DA     SC1 4359  76.808  80.351  52.660
  672DA     SC2 4360  76.850  80.556  52.524
  672DA     SC3 4361  76.614  80.627  52.596
  672DA     SC4 4362  76.660  80.378  52.717
  673DT     BB1 4363  77.165  80.118  52.910
  673DT     BB2 4364  77.342  80.351  52.698
  673DT     BB3 4365  77.375  80.528  52.799
  673DT     SC1 4366  77.123  80.599  52.773
  673DT     SC2 4367  77.110  80.765  52.637
  673DT     SC3 4368  76.876  80.664  52.837
  674DC     BB1 4369  77.639  80.468  52.814
  674DC     BB2 4370  77.623  80.779  52.631
  674DC     BB3 4371  77.623  80.938  52.763
  674DC     SC1 4372  77.373  80.893  52.830
  674DC     SC2 4373  77.249  81.051  52.753
  674DC     SC3 4374  77.162  80.832  52.976
  675DA     BB1 4375  77.907  80.985  52.458
  675DA     BB2 4376  77.703  81.290  52.477
  675DA     BB3 4377  77.748  81.398  52.655
  675DA     SC1 4378  77.530  81.256  52.826
  675DA     SC2 4379  77.313  81.315  52.933
  675DA     SC3 4380  77.352  81.108  53.080
  675DA     SC4 4381  77.574  81.125  52.908
  676DT     BB1 4382  77.816  81.554  52.606
  676DT     BB2 4383  77.527  81.754  52.689
  676DT     BB3 4384  77.550  81.836  52.878
  676DT     SC1 4385  77.501  81.606  52.993
  676DT     SC2 4386  77.311  81.615  53.093
  676DT     SC3 4387  77.537  81.387  53.136
  677DA     BB1 4388  77.429  82.117  52.588
  677DA     BB2 4389  77.215  82.152  52.883
  677DA     BB3 4390  77.327  82.230  53.047
  677DA     SC1 4391  77.410  81.950  53.155
  677DA     SC2 4392  77.360  81.806  53.352
  677DA     SC3 4393  77.578  81.685  53.294
  677DA     SC4 4394  77.549  81.889  53.104
  678DA     BB1 4395  77.064  82.423  53.026
  678DA     BB2 4396  76.993  82.320  53.371
  678DA     BB3 4397  77.136  82.403  53.505
  678DA     SC1 4398  77.331  82.162  53.485
  678DA     SC2 4399  77.411  81.977  53.632
  678DA     SC3 4400  77.610  81.961  53.470
  678DA     SC4 4401  77.448  82.169  53.374
  679DA     BB1 4402  76.851  82.491  53.641
  679DA     BB2 4403  76.964  82.307  53.938
  679DA     BB3 4404  77.122  82.412  54.034
  679DA     SC1 4405  77.347  82.268  53.875
  679DA     SC2 4406  77.528  82.101  53.919
  679DA     SC3 4407  77.635  82.191  53.704
  679DA     SC4 4408  77.399  82.338  53.739
  680DT     BB1 4409  77.081  82.478  54.209
  680DT     BB2 4410  77.280  82.243  54.397
  680DT     BB3 4411  77.458  82.332  54.455
  680DT     SC1 4412  77.555  82.314  54.211
  680DT     SC2 4413  77.714  82.169  54.208
  680DT     SC3 4414  77.650  82.387  53.976
  681DA     BB1 4415  77.288  82.169  54.802
  681DA     BB2 4416  77.640  82.067  54.792
  681DA     BB3 4417  77.766  82.233  54.837
  681DA     SC1 4418  77.796  82.322  54.541
  681DA     SC2 4419  77.974  82.327  54.366
  681DA     SC3 4420  77.828  82.503  54.251
  681DA     SC4 4421  77.692  82.431  54.485
  682DG     BB1 4422  77.872  82.071  55.087
  682DG     BB2 4423  78.188  82.085  54.912
  682DG     BB3 4424  78.281  82.256  54.953
  682DG     SC1 4425  78.154  82.409  54.721
  682DG     SC2 4426  78.298  82.515  54.482
  682DG     SC3 4427  78.019  82.613  54.489
  682DG     SC4 4428  78.014  82.483  54.744
  683DA     BB1 4429  78.574  82.088  55.056
  683DA     BB2 4430  78.770  82.256  54.796
  683DA     BB3 4431  78.823  82.453  54.859
  683DA     SC1 4432  78.569  82.586  54.737
  683DA     SC2 4433  78.514  82.740  54.549
  683DA     SC3 4434  78.296  82.786  54.677
  683DA     SC4 4435  78.441  82.603  54.833
  684DG     BB1 4436  79.134  82.382  54.846
  684DG     BB2 4437  79.140  82.629  54.581
  684DG     BB3 4438  79.172  82.810  54.658
  684DG     SC1 4439  78.875  82.871  54.699
  684DG     SC2 4440  78.718  83.080  54.555
  684DG     SC3 4441  78.560  82.964  54.777
  684DG     SC4 4442  78.805  82.828  54.837
  685DG     BB1 4443  79.456  82.864  54.486
  685DG     BB2 4444  79.282  83.135  54.322
  685DG     BB3 4445  79.303  83.303  54.426
  685DG     SC1 4446  79.054  83.257  54.599
  685DG     SC2 4447  78.805  83.421  54.593
  685DG     SC3 4448  78.800  83.228  54.818
  685DG     SC4 4449  79.068  83.173  54.735
  686DT     BB1 4450  79.415  83.500  54.351
  686DT     BB2 4451  79.131  83.710  54.275
  686DT     BB3 4452  79.117  83.862  54.415
  686DT     SC1 4453  79.025  83.697  54.597
  686DT     SC2 4454  78.818  83.741  54.636
  686DT     SC3 4455  79.011  83.556  54.819
  687DC     BB1 4456  79.199  84.046  54.229
  687DC     BB2 4457  78.875  84.163  54.336
  687DC     BB3 4458  78.895  84.286  54.501
  687DC     SC1 4459  78.942  84.081  54.658
  687DC     SC2 4460  78.776  84.054  54.792
  687DC     SC3 4461  79.069  83.919  54.823
  688DT     BB1 4462  78.828  84.490  54.341
  688DT     BB2 4463  78.581  84.494  54.604
  688DT     BB3 4464  78.652  84.601  54.766
  688DT     SC1 4465  78.814  84.407  54.835
  688DT     SC2 4466  78.745  84.318  55.018
  688DT     SC3 4467  79.037  84.276  54.886
  689DA     BB1 4468  78.265  84.719  54.656
  689DA     BB2 4469  78.271  84.664  55.018
  689DA     BB3 4470  78.384  84.817  55.115
  689DA     SC1 4471  78.654  84.663  55.099
  689DA     SC2 4472  78.811  84.549  55.256
  689DA     SC3 4473  78.985  84.576  55.069
  689DA     SC4 4474  78.748  84.690  54.971
  690DT     BB1 4475  78.276  84.911  55.221
  690DT     BB2 4476  78.401  84.790  55.537
  690DT     BB3 4477  78.538  84.924  55.615
  690DT     SC1 4478  78.721  84.848  55.442
  690DT     SC2 4479  78.877  84.742  55.545
  690DT     SC3 4480  78.894  84.859  55.243
  691DT     BB1 4481  78.353  84.981  55.796
  691DT     BB2 4482  78.644  84.891  55.989
  691DT     BB3 4483  78.769  85.055  56.009
  691DT     SC1 4484  78.850  85.034  55.760
  691DT     SC2 4485  79.056  84.971  55.758
  691DT     SC3 4486  78.891  85.094  55.507
  692DC     BB1 4487  78.694  85.056  56.262
  692DC     BB2 4488  79.054  85.042  56.272
  692DC     BB3 4489  79.133  85.231  56.247
  692DC     SC1 4490  79.078  85.230  55.991
  692DC     SC2 4491  79.261  85.219  55.878
  692DC     SC3 4492  78.969  85.297  55.760
  693DT     BB1 4493  79.204  85.241  56.510
  693DT     BB2 4494  79.511  85.309  56.333
  693DT     BB3 4495  79.525  85.511  56.291
  693DT     SC1 4496  79.346  85.491  56.100
  693DT     SC2 4497  79.442  85.520  55.909
  693DT     SC3 4498  79.123  85.527  55.964
  694DA     BB1 4499  79.886  85.427  56.490
  694DA     BB2 4500  79.969  85.616  56.186
  694DA     BB3 4501  79.920  85.822  56.211
  694DA     SC1 4502  79.631  85.791  56.099
  694DA     SC2 4503  79.504  85.860  55.896
  694DA     SC3 4504  79.295  85.820  56.038
  694DA     SC4 4505  79.513  85.762  56.204
  695DT     BB1 4506  80.068  85.981  56.222
  695DT     BB2 4507  80.010  86.115  55.892
  695DT     BB3 4508  79.913  86.297  55.906
  695DT     SC1 4509  79.686  86.181  55.968
  695DT     SC2 4510  79.548  86.204  55.804
  695DT     SC3 4511  79.472  86.111  56.106
  696DT     BB1 4512  80.139  86.444  55.837
  696DT     BB2 4513  79.892  86.540  55.592
  696DT     BB3 4514  79.783  86.702  55.662
  696DT     SC1 4515  79.649  86.550  55.829
  696DT     SC2 4516  79.445  86.535  55.763
  696DT     SC3 4517  79.557  86.452  56.055
  697DA     BB1 4518  79.923  86.818  55.284
  697DA     BB2 4519  79.563  86.882  55.292
  697DA     BB3 4520  79.521  87.055  55.410
  697DA     SC1 4521  79.487  86.897  55.675
  697DA     SC2 4522  79.302  86.836  55.832
  697DA     SC3 4523  79.488  86.797  56.004
  697DA     SC4 4524  79.617  86.879  55.769
  698DT     BB1 4525  79.444  87.219  55.317
  698DT     BB2 4526  79.106  87.177  55.438
  698DT     BB3 4527  79.067  87.316  55.586
  698DT     SC1 4528  79.212  87.183  55.760
  698DT     SC2 4529  79.083  87.096  55.909
  698DT     SC3 4530  79.405  87.127  55.931
  699DT     BB1 4531  78.904  87.442  55.414
  699DT     BB2 4532  78.694  87.357  55.694
  699DT     BB3 4533  78.709  87.503  55.840
  699DT     SC1 4534  78.946  87.418  55.913
  699DT     SC2 4535  78.934  87.328  56.108
  699DT     SC3 4536  79.206  87.416  55.956
  700DT     BB1 4537  78.460  87.572  55.775
  700DT     BB2 4538  78.446  87.488  56.126
  700DT     BB3 4539  78.501  87.652  56.240
  700DT     SC1 4540  78.754  87.619  56.178
  700DT     SC2 4541  78.862  87.554  56.352
  700DT     SC3 4542  78.994  87.667  56.078
  701DT     BB1 4543  78.247  87.659  56.310
  701DT     BB2 4544  78.431  87.624  56.619
  701DT     BB3 4545  78.498  87.809  56.683
  701DT     SC1 4546  78.685  87.812  56.499
  701DT     SC2 4547  78.878  87.792  56.592
  701DT     SC3 4548  78.824  87.888  56.287
  702DC     BB1 4549  78.320  87.778  56.874
  702DC     BB2 4550  78.636  87.822  57.043
  702DC     BB3 4551  78.682  88.024  57.055
  702DC     SC1 4552  78.746  88.033  56.801
  702DC     SC2 4553  78.958  88.061  56.781
  702DC     SC3 4554  78.739  88.098  56.545
  703DA     BB1 4555  78.720  87.851  57.436
  703DA     BB2 4556  79.020  88.050  57.370
  703DA     BB3 4557  78.975  88.258  57.377
  703DA     SC1 4558  78.909  88.279  57.074
  703DA     SC2 4559  79.009  88.382  56.870
  703DA     SC3 4560  78.774  88.361  56.769
  703DA     SC4 4561  78.756  88.259  57.029
  704DA     BB1 4562  79.224  88.249  57.590
  704DA     BB2 4563  79.398  88.481  57.365
  704DA     BB3 4564  79.314  88.676  57.381
  704DA     SC1 4565  79.105  88.632  57.155
  704DA     SC2 4566  79.065  88.713  56.923
  704DA     SC3 4567  78.823  88.635  56.959
  704DA     SC4 4568  78.960  88.579  57.198
  705DA     BB1 4569  79.630  88.748  57.435
  705DA     BB2 4570  79.611  88.960  57.136
  705DA     BB3 4571  79.503  89.139  57.179
  705DA     SC1 4572  79.227  89.020  57.098
  705DA     SC2 4573  79.060  89.050  56.914
  705DA     SC3 4574  78.893  88.942  57.077
  705DA     SC4 4575  79.138  88.953  57.213
  706DT     BB1 4576  79.604  89.308  57.172
  706DT     BB2 4577  79.467  89.427  56.860
  706DT     BB3 4578  79.327  89.575  56.897
  706DT     SC1 4579  79.151  89.399  56.980
  706DT     SC2 4580  78.990  89.386  56.837
  706DT     SC3 4581  78.985  89.270  57.139
  707DG     BB1 4582  79.613  89.724  56.649
  707DG     BB2 4583  79.281  89.773  56.514
  707DG     BB3 4584  79.192  89.924  56.608
  707DG     SC1 4585  79.069  89.749  56.827
  707DG     SC2 4586  78.778  89.696  56.866
  707DG     SC3 4587  78.936  89.590  57.093
  707DG     SC4 4588  79.154  89.720  56.960
  708DA     BB1 4589  79.134  90.027  56.284
  708DA     BB2 4590  78.774  90.025  56.352
  708DA     BB3 4591  78.721  90.188  56.478
  708DA     SC1 4592  78.760  90.028  56.742
  708DA     SC2 4593  78.617  89.935  56.924
  708DA     SC3 4594  78.832  89.931  57.064
  708DA     SC4 4595  78.904  90.034  56.813
  709DA     BB1 4596  78.512  90.219  56.228
  709DA     BB2 4597  78.245  90.187  56.477
  709DA     BB3 4598  78.235  90.362  56.598
  709DA     SC1 4599  78.432  90.254  56.813
  709DA     SC2 4600  78.423  90.178  57.050
  709DA     SC3 4601  78.676  90.221  57.053
  709DA     SC4 4602  78.588  90.289  56.795
  710DT     BB1 4603  78.075  90.469  56.580
  710DT     BB2 4604  77.927  90.389  56.899
  710DT     BB3 4605  77.958  90.544  57.032
  710DT     SC1 4606  78.210  90.477  57.062
  710DT     SC2 4607  78.240  90.399  57.260
  710DT     SC3 4608  78.474  90.493  57.056
  711DA     BB1 4609  77.542  90.483  57.045
  711DA     BB2 4610  77.659  90.505  57.392
  711DA     BB3 4611  77.705  90.707  57.442
  711DA     SC1 4612  78.003  90.687  57.355
  711DA     SC2 4613  78.227  90.686  57.464
  711DA     SC3 4614  78.317  90.751  57.232
  711DA     SC4 4615  78.039  90.729  57.204
  712DT     BB1 4616  77.589  90.843  57.589
  712DT     BB2 4617  77.834  90.836  57.855
  712DT     BB3 4618  77.923  91.021  57.874
  712DT     SC1 4619  78.066  90.984  57.657
  712DT     SC2 4620  78.273  90.961  57.711
  712DT     SC3 4621  78.159  91.018  57.413
  713DC     BB1 4622  77.788  91.107  58.114
  713DC     BB2 4623  78.137  91.133  58.200
  713DC     BB3 4624  78.205  91.325  58.163
  713DC     SC1 4625  78.208  91.282  57.904
  713DC     SC2 4626  78.412  91.276  57.835
  713DC     SC3 4627  78.149  91.305  57.649
  714DA     BB1 4628  78.309  91.250  58.562
  714DA     BB2 4629  78.610  91.372  58.391
  714DA     BB3 4630  78.599  91.583  58.363
  714DA     SC1 4631  78.463  91.563  58.084
  714DA     SC2 4632  78.523  91.607  57.846
  714DA     SC3 4633  78.270  91.615  57.805
  714DA     SC4 4634  78.303  91.565  58.079
  715DT     BB1 4635  78.732  91.697  58.462
  715DT     BB2 4636  78.941  91.773  58.177
  715DT     BB3 4637  78.909  91.969  58.117
  715DT     SC1 4638  78.678  91.907  58.009
  715DT     SC2 4639  78.693  91.921  57.795
  715DT     SC3 4640  78.418  91.902  57.966
  716DT     BB1 4641  79.153  92.014  58.210
  716DT     BB2 4642  79.165  92.115  57.864
  716DT     BB3 4643  79.094  92.308  57.844
  716DT     SC1 4644  78.846  92.229  57.877
  716DT     SC2 4645  78.739  92.250  57.692
  716DT     SC3 4646  78.606  92.203  57.983
  717DC     BB1 4647  79.346  92.373  57.792
  717DC     BB2 4648  79.160  92.492  57.508
  717DC     BB3 4649  79.078  92.678  57.549
  717DC     SC1 4650  78.895  92.572  57.703
  717DC     SC2 4651  78.702  92.591  57.609
  717DC     SC3 4652  78.755  92.515  57.920
  718DT     BB1 4653  79.259  92.792  57.383
  718DT     BB2 4654  78.940  92.909  57.260
  718DT     BB3 4655  78.883  93.079  57.364
  718DT     SC1 4656  78.820  92.938  57.576
  718DT     SC2 4657  78.606  92.939  57.602
  718DT     SC3 4658  78.824  92.846  57.823
  719DG     BB1 4659  78.901  93.222  56.979
  719DG     BB2 4660  78.586  93.314  57.132
  719DG     BB3 4661  78.611  93.475  57.246
  719DG     SC1 4662  78.680  93.317  57.499
  719DG     SC2 4663  78.514  93.301  57.747
  719DG     SC3 4664  78.779  93.176  57.789
  719DG     SC4 4665  78.833  93.277  57.526
  720DG     BB1 4666  78.398  93.705  57.089
  720DG     BB2 4667  78.205  93.713  57.395
  720DG     BB3 4668  78.270  93.860  57.513
  720DG     SC1 4669  78.476  93.686  57.657
  720DG     SC2 4670  78.468  93.605  57.944
  720DG     SC3 4671  78.726  93.529  57.821
  720DG     SC4 4672  78.624  93.673  57.595
  721DA     BB1 4673  77.959  94.047  57.559
  721DA     BB2 4674  77.960  93.978  57.919
  721DA     BB3 4675  78.071  94.127  58.023
  721DA     SC1 4676  78.341  93.973  58.005
  721DA     SC2 4677  78.496  93.853  58.160
  721DA     SC3 4678  78.672  93.887  57.977
  721DA     SC4 4679  78.437  94.005  57.880
  722DT     BB1 4680  77.984  94.280  58.170
  722DT     BB2 4681  78.096  94.104  58.465
  722DT     BB3 4682  78.243  94.214  58.562
  722DT     SC1 4683  78.421  94.149  58.380
  722DT     SC2 4684  78.566  94.016  58.467
  722DT     SC3 4685  78.596  94.174  58.185
  723DA     BB1 4686  77.947  94.114  58.838
  723DA     BB2 4687  78.271  94.008  58.974
  723DA     BB3 4688  78.382  94.178  59.041
  723DA     SC1 4689  78.524  94.222  58.768
  723DA     SC2 4690  78.754  94.200  58.674
  723DA     SC3 4691  78.673  94.358  58.490
  723DA     SC4 4692  78.455  94.323  58.663
  724DT     BB1 4693  78.406  94.162  59.216
  724DT     BB2 4694  78.754  94.068  59.202
  724DT     BB3 4695  78.873  94.234  59.236
  724DT     SC1 4696  78.824  94.327  58.995
  724DT     SC2 4697  79.003  94.314  58.876
  724DT     SC3 4698  78.738  94.486  58.804
  725DA     BB1 4699  78.981  93.891  59.457
  725DA     BB2 4700  79.281  94.031  59.301
  725DA     BB3 4701  79.329  94.221  59.387
  725DA     SC1 4702  79.160  94.384  59.182
  725DA     SC2 4703  79.202  94.541  58.994
  725DA     SC3 4704  78.959  94.616  59.029
  725DA     SC4 4705  79.008  94.417  59.221
  726DA     BB1 4706  79.605  94.045  59.398
  726DA     BB2 4707  79.754  94.317  59.202
  726DA     BB3 4708  79.769  94.494  59.320
  726DA     SC1 4709  79.490  94.603  59.236
  726DA     SC2 4710  79.398  94.789  59.099
  726DA     SC3 4711  79.181  94.752  59.230
  726DA     SC4 4712  79.365  94.565  59.330
  727DC     BB1 4713  79.948  94.550  59.356
  727DC     BB2 4714  79.953  94.840  59.143
  727DC     BB3 4715  79.923  95.011  59.256
  727DC     SC1 4716  79.667  94.958  59.282
  727DC     SC2 4717  79.552  95.101  59.169
  727DC     SC3 4718  79.436  94.900  59.395
  728DT     BB1 4719  80.187  95.088  59.235
  728DT     BB2 4720  80.004  95.374  59.115
  728DT     BB3 4721  79.955  95.499  59.273
  728DT     SC1 4722  79.767  95.335  59.354
  728DT     SC2 4723  79.574  95.424  59.320
  728DT     SC3 4724  79.634  95.167  59.508
  729DA     BB1 4725  80.153  95.758  59.007
  729DA     BB2 4726  79.840  95.922  59.105
  729DA     BB3 4727  79.856  96.001  59.303
  729DA     SC1 4728  79.751  95.742  59.441
  729DA     SC2 4729  79.548  95.670  59.565
  729DA     SC3 4730  79.696  95.481  59.657
  729DA     SC4 4731  79.860  95.634  59.488
  730DA     BB1 4732  79.769  96.292  59.170
  730DA     BB2 4733  79.469  96.280  59.381
  730DA     BB3 4734  79.516  96.340  59.580
  730DA     SC1 4735  79.581  96.052  59.678
  730DA     SC2 4736  79.482  95.882  59.830
  730DA     SC3 4737  79.717  95.778  59.835
  730DA     SC4 4738  79.735  96.004  59.669
  731DT     BB1 4739  79.435  96.517  59.659
  731DT     BB2 4740  79.189  96.357  59.868
  731DT     BB3 4741  79.244  96.371  60.067
  731DT     SC1 4742  79.429  96.188  60.037
  731DT     SC2 4743  79.371  96.010  60.143
  731DT     SC3 4744  79.667  96.074  60.028
  732DA     BB1 4745  78.848  96.500  60.019
  732DA     BB2 4746  78.858  96.255  60.291
  732DA     BB3 4747  78.952  96.339  60.463
  732DA     SC1 4748  79.237  96.244  60.383
  732DA     SC2 4749  79.405  96.077  60.463
  732DA     SC3 4750  79.576  96.218  60.333
  732DA     SC4 4751  79.328  96.345  60.298
  733DA     BB1 4752  78.669  96.226  60.580
  733DA     BB2 4753  78.873  96.009  60.794
  733DA     BB3 4754  78.967  96.123  60.948
  733DA     SC1 4755  79.224  96.180  60.782
  733DA     SC2 4756  79.464  96.113  60.785
  733DA     SC3 4757  79.503  96.323  60.642
  733DA     SC4 4758  79.227  96.315  60.695
  734DA     BB1 4759  78.818  95.886  61.116
  734DA     BB2 4760  79.153  95.790  61.230
  734DA     BB3 4761  79.227  95.932  61.371
  734DA     SC1 4762  79.365  96.110  61.156
  734DA     SC2 4763  79.597  96.167  61.085
  734DA     SC3 4764  79.490  96.373  60.974
  734DA     SC4 4765  79.280  96.232  61.095
  735DA     BB1 4766  79.262  95.647  61.526
  735DA     BB2 4767  79.621  95.722  61.531
  735DA     BB3 4768  79.662  95.879  61.670
  735DA     SC1 4769  79.630  96.106  61.460
  735DA     SC2 4770  79.775  96.271  61.342
  735DA     SC3 4771  79.559  96.401  61.299
  735DA     SC4 4772  79.484  96.173  61.445
  736DT     BB1 4773  79.768  95.821  61.810
  736DT     BB2 4774  80.073  95.981  61.704
  736DT     BB3 4775  80.101  96.157  61.810
  736DT     SC1 4776  79.914  96.280  61.672
  736DT     SC2 4777  80.005  96.428  61.545
  736DT     SC3 4778  79.689  96.406  61.615
  737DA     BB1 4779  80.443  95.913  61.796
  737DA     BB2 4780  80.538  96.255  61.706
  737DA     BB3 4781  80.521  96.384  61.876
  737DA     SC1 4782  80.226  96.463  61.818
  737DA     SC2 4783  80.100  96.665  61.744
  737DA     SC3 4784  79.895  96.550  61.845
  737DA     SC4 4785  80.111  96.375  61.888
  738DA     BB1 4786  80.813  96.424  61.732
  738DA     BB2 4787  80.714  96.775  61.700
  738DA     BB3 4788  80.697  96.866  61.892
  738DA     SC1 4789  80.396  96.796  61.925
  738DA     SC2 4790  80.178  96.917  61.930
  738DA     SC3 4791  80.088  96.709  62.049
  738DA     SC4 4792  80.359  96.658  62.000
  739DA     BB1 4793  80.880  97.059  61.697
  739DA     BB2 4794  80.636  97.320  61.779
  739DA     BB3 4795  80.644  97.367  61.987
  739DA     SC1 4796  80.429  97.157  62.067
  739DA     SC2 4797  80.194  97.157  62.151
  739DA     SC3 4798  80.244  96.918  62.230
  739DA     SC4 4799  80.480  97.011  62.110
  740DT     BB1 4800  80.697  97.534  62.004
  740DT     BB2 4801  80.391  97.677  62.130
  740DT     BB3 4802  80.392  97.676  62.337
  740DT     SC1 4803  80.348  97.417  62.344
  740DT     SC2 4804  80.149  97.381  62.418
  740DT     SC3 4805  80.385  97.160  62.390
  741DA     BB1 4806  80.308  98.081  62.249
  741DA     BB2 4807  80.083  97.982  62.521
  741DA     BB3 4808  80.191  97.964  62.704
  741DA     SC1 4809  80.257  97.663  62.664
  741DA     SC2 4810  80.192  97.444  62.766
  741DA     SC3 4811  80.408  97.354  62.660
  741DA     SC4 4812  80.396  97.626  62.592
  742DG     BB1 4813  80.052  98.211  62.893
  742DG     BB2 4814  79.949  97.945  63.116
  742DG     BB3 4815  80.086  97.920  63.259
  742DG     SC1 4816  80.249  97.714  63.101
  742DG     SC2 4817  80.281  97.426  63.171
  742DG     SC3 4818  80.462  97.502  62.949
  742DG     SC4 4819  80.364  97.765  63.003
  743DT     BB1 4820  80.110  97.963  63.554
  743DT     BB2 4821  80.083  97.621  63.663
  743DT     BB3 4822  80.260  97.562  63.754
  743DT     SC1 4823  80.382  97.543  63.523
  743DT     SC2 4824  80.421  97.337  63.479
  743DT     SC3 4825  80.554  97.591  63.328
  744DT     BB1 4826  80.198  97.568  64.054
  744DT     BB2 4827  80.309  97.228  64.002
  744DT     BB3 4828  80.508  97.210  64.055
  744DT     SC1 4829  80.586  97.334  63.838
  744DT     SC2 4830  80.684  97.195  63.707
  744DT     SC3 4831  80.694  97.518  63.682
  745DT     BB1 4832  80.467  97.066  64.301
  745DT     BB2 4833  80.676  96.846  64.106
  745DT     BB3 4834  80.876  96.879  64.152
  745DT     SC1 4835  80.878  97.103  64.017
  745DT     SC2 4836  81.000  97.079  63.841
  745DT     SC3 4837  80.898  97.361  63.963
  746DT     BB1 4838  80.889  96.639  64.285
  746DT     BB2 4839  81.140  96.614  64.028
  746DT     BB3 4840  81.321  96.687  64.098
  746DT     SC1 4841  81.237  96.935  64.078
  746DT     SC2 4842  81.342  97.034  63.919
  746DT     SC3 4843  81.165  97.179  64.148
  747DT     BB1 4844  81.409  96.434  64.099
  747DT     BB2 4845  81.639  96.610  63.885
  747DT     BB3 4846  81.789  96.697  63.998
  747DT     SC1 4847  81.626  96.885  64.083
  747DT     SC2 4848  81.684  97.074  63.997
  747DT     SC3 4849  81.482  97.033  64.247
  748DT     BB1 4850  81.958  96.514  63.898
  748DT     BB2 4851  82.109  96.831  63.815
  748DT     BB3 4852  82.224  96.897  63.974
  748DT     SC1 4853  82.011  96.964  64.111
  748DT     SC2 4854  81.999  97.179  64.125
  748DT     SC3 4855  81.830  96.967  64.304
  749DA     BB1 4856  82.473  96.910  63.636
  749DA     BB2 4857  82.509  97.230  63.811
  749DA     BB3 4858  82.625  97.205  63.988
  749DA     SC1 4859  82.381  97.147  64.171
  749DA     SC2 4860  82.257  97.259  64.356
  749DA     SC3 4861  82.170  97.025  64.413
  749DA     SC4 4862  82.339  96.993  64.191
  750DA     BB1 4863  82.821  97.446  63.867
  750DA     BB2 4864  82.740  97.644  64.164
  750DA     BB3 4865  82.856  97.579  64.331
  750DA     SC1 4866  82.645  97.371  64.427
  750DA     SC2 4867  82.487  97.343  64.618
  750DA     SC3 4868  82.487  97.094  64.555
  750DA     SC4 4869  82.659  97.220  64.373
  751DC     BB1 4870  83.020  97.699  64.431
  751DC     BB2 4871  82.833  97.785  64.727
  751DC     BB3 4872  82.911  97.687  64.891
  751DC     SC1 4873  82.805  97.459  64.815
  751DC     SC2 4874  82.647  97.405  64.950
  751DC     SC3 4875  82.787  97.209  64.733
  752DA     BB1 4876  82.890  98.094  64.990
  752DA     BB2 4877  82.731  97.904  65.260
  752DA     BB3 4878  82.878  97.803  65.377
  752DA     SC1 4879  82.872  97.543  65.206
  752DA     SC2 4880  82.795  97.307  65.232
  752DA     SC3 4881  82.954  97.256  65.037
  752DA     SC4 4882  82.977  97.531  65.085
  753DG     BB1 4883  82.756  97.977  65.602
  753DG     BB2 4884  82.657  97.654  65.732
  753DG     BB3 4885  82.810  97.570  65.828
  753DG     SC1 4886  82.920  97.428  65.581
  753DG     SC2 4887  82.928  97.133  65.536
  753DG     SC3 4888  83.080  97.275  65.326
  753DG     SC4 4889  83.025  97.505  65.488
  754DT     BB1 4890  82.787  97.528  66.037
  754DT     BB2 4891  82.746  97.169  66.034
  754DT     BB3 4892  82.924  97.077  66.088
  754DT     SC1 4893  83.031  97.129  65.854
  754DT     SC2 4894  83.055  96.946  65.744
  754DT     SC3 4895  83.194  97.230  65.673
  755DA     BB1 4896  82.612  96.921  66.322
  755DA     BB2 4897  82.805  96.640  66.185
  755DA     BB3 4898  82.995  96.628  66.280
  755DA     SC1 4899  83.138  96.811  66.074
  755DA     SC2 4900  83.309  96.788  65.893
  755DA     SC3 4901  83.342  97.041  65.920
  755DA     SC4 4902  83.145  96.968  66.107
  756DT     BB1 4903  83.030  96.467  66.392
  756DT     BB2 4904  83.256  96.303  66.164
  756DT     BB3 4905  83.451  96.326  66.230
  756DT     SC1 4906  83.457  96.576  66.153
  756DT     SC2 4907  83.589  96.596  65.985
  756DT     SC3 4908  83.473  96.839  66.165
  757DG     BB1 4909  83.386  95.923  66.209
  757DG     BB2 4910  83.683  96.018  66.025
  757DG     BB3 4911  83.834  96.047  66.151
  757DG     SC1 4912  83.774  96.344  66.194
  757DG     SC2 4913  83.946  96.572  66.107
  757DG     SC3 4914  83.725  96.667  66.280
  757DG     SC4 4915  83.673  96.387  66.311
  758DA     BB1 4916  84.016  95.828  65.953
  758DA     BB2 4917  84.259  96.094  65.884
  758DA     BB3 4918  84.388  96.122  66.051
  758DA     SC1 4919  84.209  96.338  66.185
  758DA     SC2 4920  84.217  96.583  66.230
  758DA     SC3 4921  84.039  96.536  66.408
  758DA     SC4 4922  84.100  96.288  66.292
  759DT     BB1 4923  84.580  96.078  66.025
  759DT     BB2 4924  84.698  96.418  66.006
  759DT     BB3 4925  84.791  96.471  66.183
  759DT     SC1 4926  84.561  96.491  66.308
  759DT     SC2 4927  84.523  96.698  66.353
  759DT     SC3 4928  84.367  96.444  66.480
  760DT     BB1 4929  85.012  96.468  66.039
  760DT     BB2 4930  84.987  96.803  66.171
  760DT     BB3 4931  85.062  96.808  66.364
  760DT     SC1 4932  84.848  96.688  66.459
  760DT     SC2 4933  84.735  96.827  66.577
  760DT     SC3 4934  84.696  96.505  66.573
  761DC     BB1 4935  85.251  96.948  66.251
  761DC     BB2 4936  85.113  97.160  66.508
  761DC     BB3 4937  85.194  97.110  66.692
  761DC     SC1 4938  85.047  96.893  66.706
  761DC     SC2 4939  84.898  96.917  66.860
  761DC     SC3 4940  84.981  96.638  66.718
  762DC     BB1 4941  85.302  97.343  66.661
  762DC     BB2 4942  85.120  97.360  66.972
  762DC     BB3 4943  85.228  97.267  67.122
  762DC     SC1 4944  85.168  97.029  67.028
  762DC     SC2 4945  85.034  96.931  67.164
  762DC     SC3 4946  85.198  96.790  66.922
  763DT     BB1 4947  85.266  97.510  67.219
  763DT     BB2 4948  85.116  97.325  67.489
  763DT     BB3 4949  85.260  97.216  67.589
  763DT     SC1 4950  85.274  97.041  67.393
  763DT     SC2 4951  85.192  96.853  67.460
  763DT     SC3 4952  85.372  96.899  67.194
  764DA     BB1 4953  85.051  97.435  67.879
  764DA     BB2 4954  85.074  97.088  67.995
  764DA     BB3 4955  85.274  97.044  68.056
  764DA     SC1 4956  85.364  96.944  67.776
  764DA     SC2 4957  85.426  96.728  67.669
  764DA     SC3 4958  85.541  96.873  67.491
  764DA     SC4 4959  85.430  97.051  67.677
  765DC     BB1 4960  85.312  97.006  68.253
  765DC     BB2 4961  85.359  96.650  68.219
  765DC     BB3 4962  85.561  96.604  68.231
  765DC     SC1 4963  85.604  96.696  67.989
  765DC     SC2 4964  85.650  96.532  67.858
  765DC     SC3 4965  85.699  96.846  67.794
  766DG     BB1 4966  85.380  96.393  68.530
  766DG     BB2 4967  85.580  96.178  68.319
  766DG     BB3 4968  85.772  96.195  68.367
  766DG     SC1 4969  85.826  96.424  68.172
  766DG     SC2 4970  86.000  96.410  67.929
  766DG     SC3 4971  85.916  96.689  67.983
  766DG     SC4 4972  85.803  96.574  68.221
  767DT     BB1 4973  85.878  96.021  68.439
  767DT     BB2 4974  86.076  95.935  68.151
  767DT     BB3 4975  86.271  95.997  68.178
  767DT     SC1 4976  86.205  96.248  68.134
  767DT     SC2 4977  86.288  96.312  67.947
  767DT     SC3 4978  86.167  96.505  68.177
  768DA     BB1 4979  86.258  95.596  68.056
  768DA     BB2 4980  86.499  95.774  67.844
  768DA     BB3 4981  86.672  95.825  67.957
  768DA     SC1 4982  86.563  96.103  68.045
  768DA     SC2 4983  86.611  96.343  67.999
  768DA     SC3 4984  86.487  96.389  68.219
  768DA     SC4 4985  86.484  96.111  68.185
  769DG     BB1 4986  86.789  95.654  67.729
  769DG     BB2 4987  86.955  95.964  67.648
  769DG     BB3 4988  87.107  95.995  67.774
  769DG     SC1 4989  86.938  96.147  67.979
  769DG     SC2 4990  86.966  96.437  68.048
  769DG     SC3 4991  86.780  96.301  68.234
  769DG     SC4 4992  86.863  96.065  68.094
  770DA     BB1 4993  87.283  96.046  67.480
  770DA     BB2 4994  87.378  96.380  67.598
  770DA     BB3 4995  87.520  96.365  67.756
  770DA     SC1 4996  87.306  96.359  67.982
  770DA     SC2 4997  87.226  96.508  68.165
  770DA     SC3 4998  87.128  96.295  68.269
  770DA     SC4 4999  87.253  96.215  68.031
  771DC     BB1 5000  87.706  96.432  67.724
  771DC     BB2 5001  87.689  96.727  67.930
  771DC     BB3 5002  87.789  96.694  68.109
  771DC     SC1 5003  87.594  96.544  68.199
  771DC     SC2 5004  87.493  96.646  68.359
  771DC     SC3 5005  87.464  96.331  68.287
  772DG     BB1 5006  87.989  97.013  67.948
  772DG     BB2 5007  87.889  97.082  68.288
  772DG     BB3 5008  88.015  96.995  68.415
  772DG     SC1 5009  87.858  96.733  68.429
  772DG     SC2 5010  87.715  96.627  68.669
  772DG     SC3 5011  87.722  96.425  68.453
  772DG     SC4 5012  87.890  96.617  68.323
  773DC     BB1 5013  88.161  97.105  68.570
  773DC     BB2 5014  87.986  97.044  68.880
  773DC     BB3 5015  88.088  96.903  68.992
  773DC     SC1 5016  88.006  96.709  68.835
  773DC     SC2 5017  87.866  96.585  68.942
  773DC     SC3 5018  88.014  96.508  68.664
  774DA     BB1 5019  88.043  97.228  69.254
  774DA     BB2 5020  87.926  96.928  69.429
  774DA     BB3 5021  88.092  96.810  69.493
  774DA     SC1 5022  88.101  96.639  69.233
  774DA     SC2 5023  88.053  96.405  69.164
  774DA     SC3 5024  88.201  96.455  68.961
  774DA     SC4 5025  88.197  96.690  69.114
  775DT     BB1 5026  88.127  96.787  69.693
  775DT     BB2 5027  88.002  96.449  69.717
  775DT     BB3 5028  88.160  96.317  69.736
  775DT     SC1 5029  88.222  96.343  69.482
  775DT     SC2 5030  88.177  96.159  69.379
  775DT     SC3 5031  88.360  96.402  69.265
  776DT     BB1 5032  88.083  96.279  69.989
  776DT     BB2 5033  88.070  95.952  69.837
  776DT     BB3 5034  88.257  95.864  69.843
  776DT     SC1 5035  88.345  96.019  69.650
  776DT     SC2 5036  88.376  95.901  69.472
  776DT     SC3 5037  88.487  96.201  69.523
  777DC     BB1 5038  88.152  95.699  70.021
  777DC     BB2 5039  88.270  95.487  69.755
  777DC     BB3 5040  88.472  95.450  69.778
  777DC     SC1 5041  88.534  95.691  69.697
  777DC     SC2 5042  88.629  95.680  69.504
  777DC     SC3 5043  88.627  95.938  69.700
  778DG     BB1 5044  88.264  95.100  69.758
  778DG     BB2 5045  88.536  95.109  69.520
  778DG     BB3 5046  88.709  95.083  69.615
  778DG     SC1 5047  88.754  95.381  69.667
  778DG     SC2 5048  88.970  95.549  69.547
  778DG     SC3 5049  88.825  95.698  69.759
  778DG     SC4 5050  88.695  95.446  69.800
  779DT     BB1 5051  88.823  94.915  69.561
  779DT     BB2 5052  89.092  95.064  69.372
  779DT     BB3 5053  89.260  95.083  69.491
  779DT     SC1 5054  89.156  95.286  69.620
  779DT     SC2 5055  89.262  95.466  69.569
  779DT     SC3 5056  89.058  95.430  69.819
  780DT     BB1 5057  89.374  94.884  69.349
  780DT     BB2 5058  89.603  95.162  69.320
  780DT     BB3 5059  89.731  95.166  69.483
  780DT     SC1 5060  89.541  95.258  69.639
  780DT     SC2 5061  89.585  95.462  69.693
  780DT     SC3 5062  89.365  95.271  69.836
  781DT     BB1 5063  89.936  95.082  69.327
  781DT     BB2 5064  90.052  95.391  69.471
  781DT     BB3 5065  90.138  95.355  69.656
  781DT     SC1 5066  89.903  95.319  69.767
  781DT     SC2 5067  89.862  95.483  69.901
  781DT     SC3 5068  89.703  95.200  69.890
  782DA     BB1 5069  90.422  95.574  69.437
  782DA     BB2 5070  90.386  95.734  69.765
  782DA     BB3 5071  90.482  95.617  69.915
  782DA     SC1 5072  90.228  95.451  69.982
  782DA     SC2 5073  90.066  95.429  70.171
  782DA     SC3 5074  90.009  95.201  70.068
  782DA     SC4 5075  90.207  95.312  69.904
  783DA     BB1 5076  90.641  95.899  69.980
  783DA     BB2 5077  90.490  95.887  70.314
  783DA     BB3 5078  90.593  95.745  70.437
  783DA     SC1 5079  90.408  95.507  70.358
  783DA     SC2 5080  90.234  95.365  70.466
  783DA     SC3 5081  90.282  95.198  70.277
  783DA     SC4 5082  90.454  95.416  70.234
  784DA     BB1 5083  90.624  96.001  70.641
  784DA     BB2 5084  90.428  95.809  70.884
  784DA     BB3 5085  90.550  95.660  70.976
  784DA     SC1 5086  90.482  95.440  70.766
  784DA     SC2 5087  90.354  95.226  70.757
  784DA     SC3 5088  90.495  95.175  70.548
  784DA     SC4 5089  90.581  95.426  70.639
  785DA     BB1 5090  90.443  95.804  71.251
  785DA     BB2 5091  90.286  95.484  71.336
  785DA     BB3 5092  90.433  95.346  71.407
  785DA     SC1 5093  90.493  95.228  71.126
  785DA     SC2 5094  90.457  95.013  71.004
  785DA     SC3 5095  90.645  95.093  70.849
  785DA     SC4 5096  90.613  95.294  71.042
  786DA     BB1 5097  90.222  95.332  71.657
  786DA     BB2 5098  90.179  94.977  71.575
  786DA     BB3 5099  90.348  94.865  71.642
  786DA     SC1 5100  90.505  94.895  71.375
  786DA     SC2 5101  90.576  94.750  71.185
  786DA     SC3 5102  90.750  94.932  71.138
  786DA     SC4 5103  90.607  95.019  71.363
  787DG     BB1 5104  90.123  94.726  71.799
  787DG     BB2 5105  90.217  94.446  71.591
  787DG     BB3 5106  90.380  94.358  71.665
  787DG     SC1 5107  90.576  94.532  71.506
  787DG     SC2 5108  90.757  94.439  71.288
  787DG     SC3 5109  90.819  94.718  71.364
  787DG     SC4 5110  90.625  94.671  71.570
  788DA     BB1 5111  90.180  94.083  71.625
  788DA     BB2 5112  90.433  93.938  71.403
  788DA     BB3 5113  90.603  93.875  71.516
  788DA     SC1 5114  90.752  94.147  71.487
  788DA     SC2 5115  90.953  94.236  71.369
  788DA     SC3 5116  90.943  94.427  71.540
  788DA     SC4 5117  90.730  94.256  71.603
  789DA     BB1 5118  90.517  93.620  71.332
  789DA     BB2 5119  90.854  93.640  71.192
  789DA     BB3 5120  90.999  93.583  71.338
  789DA     SC1 5121  91.040  93.872  71.445
  789DA     SC2 5122  91.218  94.047  71.443
  789DA     SC3 5123  91.094  94.147  71.643
  789DA     SC4 5124  90.949  93.919  71.570
  790DA     BB1 5125  91.072  93.400  71.076
  790DA     BB2 5126  91.404  93.555  71.090
  790DA     BB3 5127  91.511  93.485  71.261
  790DA     SC1 5128  91.411  93.713  71.447
  790DA     SC2 5129  91.505  93.913  71.561
  790DA     SC3 5130  91.301  93.897  71.715
  790DA     SC4 5131  91.278  93.685  71.534
  791DT     BB1 5132  91.666  93.379  71.222
  791DT     BB2 5133  91.917  93.619  71.321
  791DT     BB3 5134  91.989  93.573  71.509
  791DT     SC1 5135  91.770  93.662  71.623
  791DT     SC2 5136  91.814  93.842  71.731
  791DT     SC3 5137  91.545  93.664  71.761
  792DT     BB1 5138  92.226  93.482  71.407
  792DT     BB2 5139  92.325  93.728  71.651
  792DT     BB3 5140  92.341  93.641  71.838
  792DT     SC1 5141  92.080  93.629  71.863
  792DT     SC2 5142  92.017  93.768  72.015
  792DT     SC3 5143  91.838  93.529  71.890
  793DA     BB1 5144  92.721  93.818  71.794
  793DA     BB2 5145  92.596  93.913  72.125
  793DA     BB3 5146  92.615  93.749  72.261
  793DA     SC1 5147  92.331  93.635  72.200
  793DA     SC2 5148  92.112  93.613  72.317
  793DA     SC3 5149  92.062  93.430  72.144
  793DA     SC4 5150  92.319  93.523  72.085
  794DA     BB1 5151  92.796  93.941  72.468
  794DA     BB2 5152  92.530  93.903  72.718
  794DA     BB3 5153  92.553  93.718  72.822
  794DA     SC1 5154  92.375  93.557  72.624
  794DA     SC2 5155  92.151  93.446  72.626
  794DA     SC3 5156  92.238  93.313  72.425
  794DA     SC4 5157  92.448  93.483  72.502
  795DA     BB1 5158  92.556  93.897  73.101
  795DA     BB2 5159  92.245  93.727  73.195
  795DA     BB3 5160  92.288  93.534  73.277
  795DA     SC1 5161  92.272  93.387  73.004
  795DA     SC2 5162  92.121  93.224  72.891
  795DA     SC3 5163  92.322  93.174  72.739
  795DA     SC4 5164  92.409  93.369  72.921
  796DA     BB1 5165  92.107  93.658  73.517
  796DA     BB2 5166  91.866  93.392  73.445
  796DA     BB3 5167  91.935  93.206  73.524
  796DA     SC1 5168  92.087  93.123  73.266
  796DA     SC2 5169  92.064  92.953  73.085
  796DA     SC3 5170  92.313  92.996  73.040
  796DA     SC4 5171  92.242  93.163  73.255
  797DT     BB1 5172  91.820  93.147  73.652
  797DT     BB2 5173  91.666  92.889  73.454
  797DT     BB3 5174  91.748  92.705  73.501
  797DT     SC1 5175  91.969  92.761  73.369
  797DT     SC2 5176  91.980  92.638  73.193
  797DT     SC3 5177  92.223  92.810  73.322
  798DG     BB1 5178  91.341  92.730  73.516
  798DG     BB2 5179  91.455  92.455  73.311
  798DG     BB3 5180  91.532  92.312  73.426
  798DG     SC1 5181  91.816  92.425  73.420
  798DG     SC2 5182  92.053  92.297  73.290
  798DG     SC3 5183  92.135  92.532  73.451
  798DG     SC4 5184  91.859  92.533  73.530
  799DT     BB1 5185  91.434  92.162  73.386
  799DT     BB2 5186  91.670  91.951  73.212
  799DT     BB3 5187  91.773  91.834  73.348
  799DT     SC1 5188  91.918  92.038  73.426
  799DT     SC2 5189  92.121  92.011  73.360
  799DT     SC3 5190  92.020  92.225  73.582
  800DA     BB1 5191  91.628  91.605  73.023
  800DA     BB2 5192  91.973  91.502  73.094
  800DA     BB3 5193  91.983  91.404  73.283
  800DA     SC1 5194  92.041  91.664  73.443
  800DA     SC2 5195  92.231  91.766  73.567
  800DA     SC3 5196  92.053  91.910  73.682
  800DA     SC4 5197  91.915  91.743  73.504
  801DT     BB1 5198  92.025  91.205  73.291
  801DT     BB2 5199  92.354  91.224  73.438
  801DT     BB3 5200  92.344  91.177  73.640
  801DT     SC1 5201  92.237  91.410  73.697
  801DT     SC2 5202  92.379  91.529  73.807
  801DT     SC3 5203  92.062  91.589  73.779
  802DA     BB1 5204  92.633  90.890  73.519
  802DA     BB2 5205  92.761  91.047  73.825
  802DA     BB3 5206  92.660  90.970  73.996
  802DA     SC1 5207  92.438  91.187  73.993
  802DA     SC2 5208  92.369  91.383  74.131
  802DA     SC3 5209  92.140  91.357  74.017
  802DA     SC4 5210  92.302  91.154  73.912
  803DA     BB1 5211  92.949  90.864  74.148
  803DA     BB2 5212  92.880  91.098  74.422
  803DA     BB3 5213  92.746  91.009  74.563
  803DA     SC1 5214  92.490  91.117  74.423
  803DA     SC2 5215  92.312  91.285  74.469
  803DA     SC3 5216  92.174  91.156  74.296
  803DA     SC4 5217  92.420  91.023  74.314
  804DA     BB1 5218  92.970  91.062  74.809
  804DA     BB2 5219  92.727  91.287  74.964
  804DA     BB3 5220  92.584  91.176  75.077
  804DA     SC1 5221  92.385  91.145  74.840
  804DA     SC2 5222  92.159  91.230  74.776
  804DA     SC3 5223  92.151  91.028  74.617
  804DA     SC4 5224  92.398  91.013  74.749
  805DC     BB1 5225  92.570  91.188  75.293
  805DC     BB2 5226  92.274  91.394  75.301
  805DC     BB3 5227  92.112  91.283  75.367
  805DC     SC1 5228  92.095  91.158  75.137
  805DC     SC2 5229  91.916  91.221  75.035
  805DC     SC3 5230  92.097  90.962  74.960
  806DT     BB1 5231  92.113  91.416  75.605
  806DT     BB2 5232  91.783  91.473  75.470
  806DT     BB3 5233  91.657  91.319  75.525
  806DT     SC1 5234  91.767  91.155  75.352
  806DT     SC2 5235  91.628  91.115  75.193
  806DT     SC3 5236  91.900  90.949  75.255
  807DG     BB1 5237  91.489  91.664  75.665
  807DG     BB2 5238  91.255  91.474  75.465
  807DG     BB3 5239  91.180  91.324  75.571
  807DG     SC1 5240  91.399  91.126  75.490
  807DG     SC2 5241  91.360  90.882  75.322
  807DG     SC3 5242  91.632  90.888  75.438
  807DG     SC4 5243  91.533  91.118  75.577
  808DT     BB1 5244  90.961  91.309  75.621
  808DT     BB2 5245  90.856  91.048  75.395
  808DT     BB3 5246  90.829  90.871  75.500
  808DT     SC1 5247  91.088  90.835  75.521
  808DT     SC2 5248  91.147  90.668  75.399
  808DT     SC3 5249  91.327  90.807  75.630
  809DA     BB1 5250  90.471  90.932  75.290
  809DA     BB2 5251  90.582  90.589  75.222
  809DA     BB3 5252  90.546  90.465  75.392
  809DA     SC1 5253  90.825  90.518  75.520
  809DA     SC2 5254  91.036  90.391  75.562
  809DA     SC3 5255  91.085  90.572  75.738
  809DA     SC4 5256  90.837  90.639  75.625
  810DT     BB1 5257  90.405  90.307  75.386
  810DT     BB2 5258  90.648  90.041  75.361
  810DT     BB3 5259  90.656  89.936  75.539
  810DT     SC1 5260  90.788  90.130  75.656
  810DT     SC2 5261  90.990  90.067  75.694
  810DT     SC3 5262  90.845  90.326  75.824
  811DT     BB1 5263  90.534  89.725  75.419
  811DT     BB2 5264  90.852  89.598  75.532
  811DT     BB3 5265  90.836  89.532  75.727
  811DT     SC1 5266  90.832  89.778  75.819
  811DT     SC2 5267  91.014  89.818  75.925
  811DT     SC3 5268  90.745  89.997  75.937
  812DA     BB1 5269  91.019  89.250  75.478
  812DA     BB2 5270  91.230  89.297  75.774
  812DA     BB3 5271  91.137  89.212  75.946
  812DA     SC1 5272  90.987  89.472  76.025
  812DA     SC2 5273  90.998  89.643  76.207
  812DA     SC3 5274  90.758  89.701  76.138
  812DA     SC4 5275  90.838  89.492  75.969
  813DT     BB1 5276  91.242  89.081  76.003
  813DT     BB2 5277  91.368  89.249  76.296
  813DT     BB3 5278  91.259  89.193  76.463
  813DT     SC1 5279  91.056  89.341  76.389
  813DT     SC2 5280  91.036  89.508  76.524
  813DT     SC3 5281  90.813  89.408  76.311
  814DT     BB1 5282  91.480  89.065  76.534
  814DT     BB2 5283  91.405  89.286  76.810
  814DT     BB3 5284  91.264  89.199  76.934
  814DT     SC1 5285  91.072  89.247  76.762
  814DT     SC2 5286  90.941  89.398  76.842
  814DT     SC3 5287  90.877  89.205  76.590
  815DC     BB1 5288  91.458  89.160  77.117
  815DC     BB2 5289  91.204  89.347  77.292
  815DC     BB3 5290  91.061  89.218  77.368
  815DC     SC1 5291  90.957  89.180  77.130
  815DC     SC2 5292  90.763  89.272  77.121
  815DC     SC3 5293  90.882  89.058  76.908
  816DT     BB1 5294  91.150  89.248  77.629
  816DT     BB2 5295  90.800  89.336  77.646
  816DT     BB3 5296  90.687  89.166  77.682
  816DT     SC1 5297  90.718  89.082  77.436
  816DT     SC2 5298  90.530  89.095  77.332
  816DT     SC3 5299  90.791  88.931  77.233
  817DA     BB1 5300  90.572  89.440  77.978
  817DA     BB2 5301  90.266  89.309  77.825
  817DA     BB3 5302  90.228  89.111  77.893
  817DA     SC1 5303  90.387  88.974  77.664
  817DA     SC2 5304  90.338  88.836  77.462
  817DA     SC3 5305  90.584  88.765  77.476
  817DA     SC4 5306  90.542  88.941  77.690
  818DT     BB1 5307  90.062  89.076  78.009
  818DT     BB2 5308  89.866  88.916  77.751
  818DT     BB3 5309  89.856  88.712  77.787
  818DT     SC1 5310  90.104  88.678  77.707
  818DT     SC2 5311  90.105  88.571  77.520
  818DT     SC3 5312  90.361  88.618  77.713
  819DT     BB1 5313  89.601  88.755  77.845
  819DT     BB2 5314  89.597  88.515  77.575
  819DT     BB3 5315  89.622  88.324  77.650
  819DT     SC1 5316  89.878  88.365  77.693
  819DT     SC2 5317  89.993  88.247  77.555
  819DT     SC3 5318  90.106  88.394  77.821
  820DA     BB1 5319  89.304  88.356  77.378
  820DA     BB2 5320  89.507  88.064  77.288
  820DA     BB3 5321  89.486  87.911  77.436
  820DA     SC1 5322  89.726  88.010  77.607
  820DA     SC2 5323  89.957  87.933  77.664
  820DA     SC3 5324  89.938  88.092  77.864
  820DA     SC4 5325  89.695  88.113  77.726
  821DC     BB1 5326  89.409  87.769  77.360
  821DC     BB2 5327  89.695  87.550  77.360
  821DC     BB3 5328  89.690  87.427  77.527
  821DC     SC1 5329  89.764  87.624  77.684
  821DC     SC2 5330  89.964  87.589  77.755
  821DC     SC3 5331  89.755  87.805  77.875
  822DA     BB1 5332  89.761  87.202  77.175
  822DA     BB2 5333  89.994  87.092  77.436
  822DA     BB3 5334  89.889  86.993  77.593
  822DA     SC1 5335  89.845  87.253  77.759
  822DA     SC2 5336  89.927  87.351  77.973
  822DA     SC3 5337  89.718  87.499  77.962
  822DA     SC4 5338  89.709  87.334  77.735
  823DA     BB1 5339  90.110  86.753  77.530
  823DA     BB2 5340  90.216  86.785  77.880
  823DA     BB3 5341  90.069  86.702  78.010
  823DA     SC1 5342  89.913  86.968  78.045
  823DA     SC2 5343  89.872  87.136  78.225
  823DA     SC3 5344  89.669  87.207  78.085
  823DA     SC4 5345  89.791  86.997  77.944
  824DA     BB1 5346  90.315  86.512  78.134
  824DA     BB2 5347  90.251  86.669  78.459
  824DA     BB3 5348  90.076  86.585  78.549
  824DA     SC1 5349  89.882  86.794  78.423
  824DA     SC2 5350  89.742  86.985  78.501
  824DA     SC3 5351  89.613  86.952  78.281
  824DA     SC4 5352  89.814  86.757  78.283
  825DA     BB1 5353  90.260  86.508  78.819
  825DA     BB2 5354  90.045  86.733  79.013
  825DA     BB3 5355  89.862  86.635  79.062
  825DA     SC1 5356  89.712  86.732  78.807
  825DA     SC2 5357  89.528  86.889  78.750
  825DA     SC3 5358  89.509  86.756  78.531
  825DA     SC4 5359  89.716  86.635  78.678
  826DA     BB1 5360  89.928  86.702  79.383
  826DA     BB2 5361  89.626  86.911  79.385
  826DA     BB3 5362  89.452  86.790  79.407
  826DA     SC1 5363  89.410  86.752  79.101
  826DA     SC2 5364  89.247  86.825  78.927
  826DA     SC3 5365  89.335  86.627  78.790
  826DA     SC4 5366  89.476  86.623  79.032
  827DG     BB1 5367  89.395  86.945  79.675
  827DG     BB2 5368  89.112  87.070  79.489
  827DG     BB3 5369  88.960  86.943  79.503
  827DG     SC1 5370  89.041  86.780  79.257
  827DG     SC2 5371  88.889  86.763  79.000
  827DG     SC3 5372  89.111  86.568  79.004
  827DG     SC4 5373  89.142  86.657  79.275
  828DA     BB1 5374  88.774  87.216  79.603
  828DA     BB2 5375  88.559  87.174  79.309
  828DA     BB3 5376  88.422  87.013  79.339
  828DA     SC1 5377  88.610  86.798  79.218
  828DA     SC2 5378  88.620  86.655  79.013
  828DA     SC3 5379  88.781  86.508  79.148
  828DA     SC4 5380  88.708  86.718  79.318
  829DA     BB1 5381  88.238  87.266  79.251
  829DA     BB2 5382  88.148  87.063  78.959
  829DA     BB3 5383  88.020  86.903  79.017
  829DA     SC1 5384  88.254  86.703  79.069
  829DA     SC2 5385  88.346  86.496  78.964
  829DA     SC3 5386  88.457  86.456  79.192
  829DA     SC4 5387  88.313  86.695  79.218
  830DA     BB1 5388  87.884  87.061  78.768
  830DA     BB2 5389  87.910  86.740  78.591
  830DA     BB3 5390  87.778  86.597  78.677
  830DA     SC1 5391  87.988  86.489  78.880
  830DA     SC2 5392  88.120  86.280  78.915
  830DA     SC3 5393  88.146  86.362  79.157
  830DA     SC4 5394  87.991  86.556  79.026
  831DT     BB1 5395  87.672  86.561  78.550
  831DT     BB2 5396  87.800  86.231  78.480
  831DT     BB3 5397  87.693  86.090  78.588
  831DT     SC1 5398  87.815  86.157  78.810
  831DT     SC2 5399  87.946  85.997  78.871
  831DT     SC3 5400  87.852  86.247  79.056
  832DA     BB1 5401  87.738  85.988  78.181
  832DA     BB2 5402  87.820  85.695  78.385
  832DA     BB3 5403  87.645  85.621  78.482
  832DA     SC1 5404  87.683  85.795  78.737
  832DA     SC2 5405  87.742  85.760  78.977
  832DA     SC3 5406  87.634  85.990  79.016
  832DA     SC4 5407  87.610  85.939  78.741
  833DA     BB1 5408  87.763  85.351  78.337
  833DA     BB2 5409  87.774  85.203  78.672
  833DA     BB3 5410  87.576  85.164  78.742
  833DA     SC1 5411  87.544  85.441  78.879
  833DA     SC2 5412  87.531  85.532  79.111
  833DA     SC3 5413  87.423  85.738  79.002
  833DA     SC4 5414  87.478  85.560  78.793
  834DC     BB1 5415  87.508  84.969  78.768
  834DC     BB2 5416  87.507  84.966  79.128
  834DC     BB3 5417  87.312  84.979  79.199
  834DC     SC1 5418  87.300  85.234  79.139
  834DC     SC2 5419  87.295  85.350  79.320
  834DC     SC3 5420  87.223  85.458  79.023
  835DT     BB1 5421  87.285  84.706  79.276
  835DT     BB2 5422  87.202  84.888  79.577
  835DT     BB3 5423  86.998  84.923  79.584
  835DT     SC1 5424  87.016  85.111  79.401
  835DT     SC2 5425  86.978  85.302  79.491
  835DT     SC3 5426  86.982  85.239  79.174
  836DT     BB1 5427  86.928  84.727  79.783
  836DT     BB2 5428  86.805  85.037  79.922
  836DT     BB3 5429  86.607  85.064  79.868
  836DT     SC1 5430  86.674  85.128  79.622
  836DT     SC2 5431  86.635  85.337  79.590
  836DT     SC3 5432  86.694  85.117  79.360
  837DA     BB1 5433  86.600  85.097  80.286
  837DA     BB2 5434  86.432  85.393  80.150
  837DA     BB3 5435  86.234  85.343  80.087
  837DA     SC1 5436  86.319  85.273  79.796
  837DA     SC2 5437  86.290  85.368  79.567
  837DA     SC3 5438  86.348  85.132  79.484
  837DA     SC4 5439  86.356  85.119  79.764
  838DG     BB1 5440  86.161  85.554  80.298
  838DG     BB2 5441  86.053  85.738  80.005
  838DG     BB3 5442  85.870  85.680  79.953
  838DG     SC1 5443  85.967  85.456  79.768
  838DG     SC2 5444  85.937  85.449  79.471
  838DG     SC3 5445  86.038  85.190  79.573
  838DG     SC4 5446  85.993  85.310  79.829
  839DT     BB1 5447  85.747  85.832  79.954
  839DT     BB2 5448  85.706  85.896  79.601
  839DT     BB3 5449  85.533  85.805  79.533
  839DT     SC1 5450  85.645  85.568  79.540
  839DT     SC2 5451  85.674  85.497  79.339
  839DT     SC3 5452  85.693  85.318  79.609
  840DT     BB1 5453  85.494  86.055  79.510
  840DT     BB2 5454  85.455  85.915  79.180
  840DT     BB3 5455  85.275  85.814  79.167
  840DT     SC1 5456  85.368  85.614  79.309
  840DT     SC2 5457  85.390  85.441  79.183
  840DT     SC3 5458  85.396  85.442  79.507
  841DT     BB1 5459  85.250  86.012  79.007
  841DT     BB2 5460  85.181  85.716  78.812
  841DT     BB3 5461  84.994  85.641  78.861
  841DT     SC1 5462  85.083  85.546  79.089
  841DT     SC2 5463  85.085  85.331  79.081
  841DT     SC3 5464  85.112  85.511  79.349
  842DA     BB1 5465  85.045  85.668  78.442
  842DA     BB2 5466  84.888  85.347  78.522
  842DA     BB3 5467  84.691  85.377  78.598
  842DA     SC1 5468  84.781  85.394  78.895
  842DA     SC2 5469  84.761  85.256  79.102
  842DA     SC3 5470  84.814  85.473  79.227
  842DA     SC4 5471  84.814  85.539  78.955
  843DG     BB1 5472  84.596  85.205  78.352
  843DG     BB2 5473  84.468  84.985  78.609
  843DG     BB3 5474  84.295  85.054  78.677
  843DG     SC1 5475  84.421  85.225  78.897
  843DG     SC2 5476  84.395  85.180  79.191
  843DG     SC3 5477  84.528  85.438  79.136
  843DG     SC4 5478  84.465  85.375  78.863
  844DA     BB1 5479  84.123  84.748  78.616
  844DA     BB2 5480  84.034  84.719  78.971
  844DA     BB3 5481  83.868  84.845  79.016
  844DA     SC1 5482  84.044  85.090  79.092
  844DA     SC2 5483  84.103  85.218  79.298
  844DA     SC3 5484  84.170  85.406  79.138
  844DA     SC4 5485  84.078  85.196  78.976
  845DT     BB1 5486  83.654  84.779  79.071
  845DT     BB2 5487  83.673  84.860  79.422
  845DT     BB3 5488  83.553  85.023  79.464
  845DT     SC1 5489  83.724  85.188  79.352
  845DT     SC2 5490  83.815  85.309  79.505
  845DT     SC3 5491  83.825  85.366  79.186
  846DC     BB1 5492  83.342  84.881  79.593
  846DC     BB2 5493  83.443  85.124  79.839
  846DC     BB3 5494  83.330  85.296  79.818
  846DC     SC1 5495  83.462  85.367  79.603
  846DC     SC2 5496  83.583  85.540  79.647
  846DC     SC3 5497  83.512  85.427  79.351
  847DC     BB1 5498  83.170  85.255  80.048
  847DC     BB2 5499  83.321  85.577  80.105
  847DC     BB3 5500  83.199  85.727  80.031
  847DC     SC1 5501  83.267  85.670  79.784
  847DC     SC2 5502  83.387  85.829  79.704
  847DC     SC3 5503  83.246  85.593  79.532
  848DT     BB1 5504  83.119  85.812  80.283
  848DT     BB2 5505  83.266  86.105  80.133
  848DT     BB3 5506  83.121  86.212  80.030
  848DT     SC1 5507  83.120  86.036  79.835
  848DT     SC2 5508  83.206  86.124  79.659
  848DT     SC3 5509  83.033  85.850  79.669
  849DT     BB1 5510  83.122  86.409  80.220
  849DT     BB2 5511  83.208  86.577  79.913
  849DT     BB3 5512  83.035  86.637  79.814
  849DT     SC1 5513  82.984  86.391  79.738
  849DT     SC2 5514  83.012  86.375  79.525
  849DT     SC3 5515  82.861  86.159  79.714
  850DT     BB1 5516  83.090  86.896  79.877
  850DT     BB2 5517  83.075  86.889  79.517
  850DT     BB3 5518  82.880  86.916  79.454
  850DT     SC1 5519  82.816  86.671  79.523
  850DT     SC2 5520  82.779  86.554  79.346
  850DT     SC3 5521  82.698  86.471  79.649
  851DG     BB1 5522  83.114  87.203  79.287
  851DG     BB2 5523  82.928  87.020  79.037
  851DG     BB3 5524  82.739  87.083  79.033
  851DG     SC1 5525  82.643  86.881  79.242
  851DG     SC2 5526  82.454  86.654  79.194
  851DG     SC3 5527  82.507  86.687  79.483
  851DG     SC4 5528  82.650  86.920  79.397
  852DT     BB1 5529  82.684  87.156  78.856
  852DT     BB2 5530  82.475  86.891  78.728
  852DT     BB3 5531  82.276  86.935  78.764
  852DT     SC1 5532  82.301  86.876  79.018
  852DT     SC2 5533  82.193  86.695  79.061
  852DT     SC3 5534  82.306  86.906  79.280
  853DT     BB1 5535  82.273  86.961  78.505
  853DT     BB2 5536  82.026  86.709  78.580
  853DT     BB3 5537  81.851  86.798  78.645
  853DT     SC1 5538  81.956  86.855  78.878
  853DT     SC2 5539  81.862  86.734  79.030
  853DT     SC3 5540  82.046  86.995  79.082
  854DA     BB1 5541  81.769  86.515  78.343
  854DA     BB2 5542  81.535  86.462  78.620
  854DA     BB3 5543  81.395  86.622  78.631
  854DA     SC1 5544  81.568  86.792  78.827
  854DA     SC2 5545  81.560  86.864  79.065
  854DA     SC3 5546  81.725  87.047  78.994
  854DA     SC4 5547  81.669  86.899  78.763
  855DA     BB1 5548  81.182  86.371  78.620
  855DA     BB2 5549  81.058  86.487  78.945
  855DA     BB3 5550  80.942  86.665  78.922
  855DA     SC1 5551  81.185  86.856  78.959
  855DA     SC2 5552  81.267  87.020  79.129
  855DA     SC3 5553  81.407  87.117  78.937
  855DA     SC4 5554  81.263  86.904  78.826
  856DA     BB1 5555  80.709  86.494  79.083
  856DA     BB2 5556  80.725  86.752  79.343
  856DA     BB3 5557  80.623  86.928  79.279
  856DA     SC1 5558  80.876  87.057  79.152
  856DA     SC2 5559  81.028  87.249  79.198
  856DA     SC3 5560  81.095  87.230  78.951
  856DA     SC4 5561  80.903  87.030  78.996
  857DT     BB1 5562  80.440  86.998  79.371
  857DT     BB2 5563  80.590  87.272  79.552
  857DT     BB3 5564  80.535  87.452  79.466
  857DT     SC1 5565  80.699  87.414  79.264
  857DT     SC2 5566  80.862  87.554  79.277
  857DT     SC3 5567  80.784  87.377  79.018
  858DA     BB1 5568  80.440  87.483  79.873
  858DA     BB2 5569  80.640  87.777  79.781
  858DA     BB3 5570  80.522  87.914  79.667
  858DA     SC1 5571  80.600  87.790  79.393
  858DA     SC2 5572  80.735  87.854  79.193
  858DA     SC3 5573  80.599  87.675  79.069
  858DA     SC4 5574  80.504  87.676  79.333
  859DA     BB1 5575  80.640  88.100  79.906
  859DA     BB2 5576  80.808  88.290  79.641
  859DA     BB3 5577  80.667  88.408  79.534
  859DA     SC1 5578  80.607  88.188  79.322
  859DA     SC2 5579  80.650  88.150  79.079
  859DA     SC3 5580  80.457  87.981  79.093
  859DA     SC4 5581  80.484  88.089  79.350
  860DG     BB1 5582  80.876  88.602  79.643
  860DG     BB2 5583  80.940  88.648  79.290
  860DG     BB3 5584  80.795  88.758  79.209
  860DG     SC1 5585  80.619  88.518  79.138
  860DG     SC2 5586  80.553  88.423  78.863
  860DG     SC3 5587  80.392  88.280  79.065
  860DG     SC4 5588  80.514  88.464  79.246
  861DC     BB1 5589  80.876  88.910  79.132
  861DC     BB2 5590  80.847  88.846  78.778
  861DC     BB3 5591  80.672  88.928  78.705
  861DC     SC1 5592  80.527  88.738  78.815
  861DC     SC2 5593  80.446  88.613  78.661
  861DC     SC3 5594  80.351  88.620  78.970
  862DA     BB1 5595  81.006  89.026  78.467
  862DA     BB2 5596  80.732  88.919  78.248
  862DA     BB3 5597  80.574  89.063  78.251
  862DA     SC1 5598  80.423  88.928  78.486
  862DA     SC2 5599  80.210  88.802  78.521
  862DA     SC3 5600  80.237  88.865  78.768
  862DA     SC4 5601  80.456  88.979  78.635
  863DT     BB1 5602  80.549  89.148  78.086
  863DT     BB2 5603  80.237  88.990  77.998
  863DT     BB3 5604  80.079  89.117  78.042
  863DT     SC1 5605  80.102  89.069  78.299
  863DT     SC2 5606  79.932  88.955  78.366
  863DT     SC3 5607  80.144  89.110  78.556
  864DC     BB1 5608  80.043  89.161  77.777
  864DC     BB2 5609  79.721  89.046  77.894
  864DC     BB3 5610  79.611  89.205  77.967
  864DC     SC1 5611  79.757  89.216  78.185
  864DC     SC2 5612  79.638  89.152  78.353
  864DC     SC3 5613  79.922  89.307  78.369
  865DA     BB1 5614  79.367  89.006  77.691
  865DA     BB2 5615  79.169  89.063  77.994
  865DA     BB3 5616  79.117  89.269  78.011
  865DA     SC1 5617  79.370  89.345  78.175
  865DA     SC2 5618  79.424  89.415  78.409
  865DA     SC3 5619  79.642  89.506  78.309
  865DA     SC4 5620  79.499  89.397  78.094
  866DC     BB1 5621  78.924  89.317  77.996
  866DC     BB2 5622  78.868  89.394  78.343
  866DC     BB3 5623  78.861  89.599  78.370
  866DC     SC1 5624  79.121  89.619  78.344
  866DC     SC2 5625  79.208  89.672  78.534
  866DC     SC3 5626  79.356  89.688  78.246
  867DT     BB1 5627  78.594  89.583  78.410
  867DT     BB2 5628  78.719  89.749  78.705
  867DT     BB3 5629  78.733  89.953  78.671
  867DT     SC1 5630  78.947  89.921  78.522
  867DT     SC2 5631  79.118  90.001  78.625
  867DT     SC3 5632  79.105  89.922  78.311
  868DT     BB1 5633  78.515  90.005  78.829
  868DT     BB2 5634  78.775  90.213  78.968
  868DT     BB3 5635  78.779  90.395  78.870
  868DT     SC1 5636  78.892  90.288  78.659
  868DT     SC2 5637  79.095  90.358  78.644
  868DT     SC3 5638  78.927  90.208  78.411
  869DT     BB1 5639  78.659  90.543  79.079
  869DT     BB2 5640  78.966  90.723  79.015
  869DT     BB3 5641  78.934  90.868  78.871
  869DT     SC1 5642  78.925  90.689  78.680
  869DT     SC2 5643  79.100  90.710  78.555
  869DT     SC3 5644  78.832  90.542  78.482
  870DT     BB1 5645  78.925  91.110  79.039
  870DT     BB2 5646  79.179  91.190  78.796
  870DT     BB3 5647  79.096  91.294  78.638
  870DT     SC1 5648  78.985  91.076  78.543
  870DT     SC2 5649  79.082  91.021  78.359
  870DT     SC3 5650  78.800  90.905  78.466
  871DA     BB1 5651  79.385  91.588  78.744
  871DA     BB2 5652  79.423  91.531  78.383
  871DA     BB3 5653  79.276  91.643  78.275
  871DA     SC1 5654  79.065  91.414  78.277
  871DA     SC2 5655  78.962  91.257  78.113
  871DA     SC3 5656  78.775  91.232  78.286
  871DA     SC4 5657  78.958  91.413  78.397
  872DA     BB1 5658  79.517  91.796  78.098
  872DA     BB2 5659  79.390  91.625  77.800
  872DA     BB3 5660  79.230  91.735  77.714
  872DA     SC1 5661  79.009  91.590  77.877
  872DA     SC2 5662  78.823  91.429  77.835
  872DA     SC3 5663  78.726  91.513  78.057
  872DA     SC4 5664  78.964  91.657  78.017
  873DC     BB1 5665  79.248  91.825  77.519
  873DC     BB2 5666  79.056  91.573  77.348
  873DC     BB3 5667  78.875  91.652  77.285
  873DC     SC1 5668  78.780  91.648  77.529
  873DC     SC2 5669  78.625  91.499  77.543
  873DC     SC3 5670  78.683  91.733  77.760
  874DA     BB1 5671  79.075  91.448  76.981
  874DA     BB2 5672  78.731  91.322  76.999
  874DA     BB3 5673  78.594  91.469  76.925
  874DA     SC1 5674  78.548  91.600  77.203
  874DA     SC2 5675  78.364  91.618  77.371
  874DA     SC3 5676  78.492  91.821  77.460
  874DA     SC4 5677  78.642  91.724  77.243
  875DA     BB1 5678  78.537  91.182  76.784
  875DA     BB2 5679  78.200  91.212  76.925
  875DA     BB3 5680  78.095  91.372  76.831
  875DA     SC1 5681  78.187  91.586  77.037
  875DA     SC2 5682  78.086  91.723  77.219
  875DA     SC3 5683  78.290  91.876  77.190
  875DA     SC4 5684  78.321  91.670  77.003
  876DA     BB1 5685  77.905  91.105  76.830
  876DA     BB2 5686  77.660  91.313  77.006
  876DA     BB3 5687  77.589  91.468  76.878
  876DA     SC1 5688  77.806  91.673  76.965
  876DA     SC2 5689  77.819  91.885  77.094
  876DA     SC3 5690  78.041  91.923  76.972
  876DA     SC4 5691  77.941  91.679  76.877
  877DA     BB1 5692  77.310  91.331  76.989
  877DA     BB2 5693  77.220  91.666  77.109
  877DA     BB3 5694  77.176  91.794  76.944
  877DA     SC1 5695  77.469  91.897  76.916
  877DA     SC2 5696  77.594  92.109  76.955
  877DA     SC3 5697  77.770  92.009  76.796
  877DA     SC4 5698  77.565  91.819  76.814
  878DT     BB1 5699  76.982  91.864  76.909
  878DT     BB2 5700  77.033  92.209  76.999
  878DT     BB3 5701  77.041  92.326  76.828
  878DT     SC1 5702  77.282  92.241  76.771
  878DT     SC2 5703  77.423  92.401  76.798
  878DT     SC3 5704  77.479  92.123  76.641
  879DT     BB1 5705  76.775  92.445  76.839
  879DT     BB2 5706  76.989  92.734  76.807
  879DT     BB3 5707  77.009  92.785  76.608
  879DT     SC1 5708  77.171  92.583  76.563
  879DT     SC2 5709  77.369  92.657  76.526
  879DT     SC3 5710  77.263  92.357  76.465
  880DT     BB1 5711  76.825  93.024  76.577
  880DT     BB2 5712  77.139  93.151  76.452
  880DT     BB3 5713  77.144  93.137  76.245
  880DT     SC1 5714  77.182  92.877  76.256
  880DT     SC2 5715  77.381  92.831  76.191
  880DT     SC3 5716  77.139  92.619  76.226
  881DT     BB1 5717  77.095  93.422  76.154
  881DT     BB2 5718  77.409  93.339  75.997
  881DT     BB3 5719  77.376  93.280  75.801
  881DT     SC1 5720  77.283  93.048  75.878
  881DT     SC2 5721  77.422  92.893  75.824
  881DT     SC3 5722  77.115  92.848  75.916
  882DC     BB1 5723  77.477  93.517  75.680
  882DC     BB2 5724  77.685  93.254  75.547
  882DC     BB3 5725  77.605  93.184  75.369
  882DC     SC1 5726  77.415  93.055  75.495
  882DC     SC2 5727  77.449  92.843  75.477
  882DC     SC3 5728  77.174  92.984  75.575
  883DA     BB1 5729  78.005  93.280  75.295
  883DA     BB2 5730  77.949  92.939  75.174
  883DA     BB3 5731  77.839  92.942  74.991
  883DA     SC1 5732  77.561  92.927  75.129
  883DA     SC2 5733  77.375  92.762  75.152
  883DA     SC3 5734  77.230  92.965  75.212
  883DA     SC4 5735  77.487  93.066  75.162
  884DG     BB1 5736  78.094  92.799  74.892
  884DG     BB2 5737  77.863  92.524  74.846
  884DG     BB3 5738  77.764  92.546  74.675
  884DG     SC1 5739  77.536  92.708  74.798
  884DG     SC2 5740  77.252  92.619  74.824
  884DG     SC3 5741  77.280  92.905  74.896
  884DG     SC4 5742  77.550  92.867  74.808
  885DT     BB1 5743  77.786  92.396  74.518
  885DT     BB2 5744  77.470  92.222  74.543
  885DT     BB3 5745  77.345  92.280  74.389
  885DT     SC1 5746  77.298  92.512  74.503
  885DT     SC2 5747  77.095  92.517  74.572
  885DT     SC3 5748  77.292  92.772  74.542
  886DT     BB1 5749  77.380  92.036  74.276
  886DT     BB2 5750  77.023  92.066  74.325
  886DT     BB3 5751  76.938  92.162  74.163
  886DT     SC1 5752  77.031  92.395  74.241
  886DT     SC2 5753  76.868  92.518  74.307
  886DT     SC3 5754  77.168  92.620  74.241
  887DA     BB1 5755  76.730  91.807  74.240
  887DA     BB2 5756  76.486  92.079  74.213
  887DA     BB3 5757  76.466  92.141  74.009
  887DA     SC1 5758  76.688  92.358  74.027
  887DA     SC2 5759  76.703  92.607  74.025
  887DA     SC3 5760  76.949  92.571  73.962
  887DA     SC4 5761  76.837  92.315  73.988
  888DC     BB1 5762  76.296  92.107  73.945
  888DC     BB2 5763  76.181  92.450  73.949
  888DC     BB3 5764  76.190  92.529  73.758
  888DC     SC1 5765  76.451  92.551  73.770
  888DC     SC2 5766  76.505  92.759  73.780
  888DC     SC3 5767  76.706  92.513  73.714
  889DT     BB1 5768  75.936  92.522  73.801
  889DT     BB2 5769  76.016  92.867  73.735
  889DT     BB3 5770  76.040  92.897  73.532
  889DT     SC1 5771  76.274  92.778  73.534
  889DT     SC2 5772  76.429  92.924  73.499
  889DT     SC3 5773  76.464  92.602  73.483
  890DT     BB1 5774  75.837  93.031  73.603
  890DT     BB2 5775  76.065  93.264  73.448
  890DT     BB3 5776  76.067  93.235  73.243
  890DT     SC1 5777  76.209  93.016  73.267
  890DT     SC2 5778  76.407  93.050  73.190
  890DT     SC3 5779  76.276  92.761  73.255
  891DT     BB1 5780  75.967  93.467  73.277
  891DT     BB2 5781  76.240  93.510  73.046
  891DT     BB3 5782  76.188  93.436  72.860
  891DT     SC1 5783  76.214  93.188  72.942
  891DT     SC2 5784  76.386  93.099  72.847
  891DT     SC3 5785  76.152  92.940  73.006
  892DT     BB1 5786  76.184  93.689  72.792
  892DT     BB2 5787  76.391  93.529  72.544
  892DT     BB3 5788  76.273  93.437  72.401
  892DT     SC1 5789  76.212  93.242  72.566
  892DT     SC2 5790  76.305  93.060  72.499
  892DT     SC3 5791  76.068  93.082  72.719
  893DA     BB1 5792  76.518  93.681  72.159
  893DA     BB2 5793  76.500  93.354  71.995
  893DA     BB3 5794  76.311  93.328  71.900
  893DA     SC1 5795  76.176  93.198  72.148
  893DA     SC2 5796  76.091  92.973  72.215
  893DA     SC3 5797  75.956  93.100  72.392
  893DA     SC4 5798  76.099  93.295  72.251
  894DA     BB1 5799  76.441  93.271  71.586
  894DA     BB2 5800  76.283  92.940  71.584
  894DA     BB3 5801  76.079  92.956  71.523
  894DA     SC1 5802  75.969  92.994  71.811
  894DA     SC2 5803  75.834  92.865  71.975
  894DA     SC3 5804  75.789  93.092  72.087
  894DA     SC4 5805  75.953  93.145  71.865
  895DT     BB1 5806  75.956  92.883  71.308
  895DT     BB2 5807  75.784  92.602  71.455
  895DT     BB3 5808  75.580  92.635  71.455
  895DT     SC1 5809  75.600  92.807  71.652
  895DT     SC2 5810  75.511  92.722  71.829
  895DT     SC3 5811  75.589  93.034  71.785
  896DA     BB1 5812  75.572  92.271  71.235
  896DA     BB2 5813  75.328  92.232  71.506
  896DA     BB3 5814  75.143  92.325  71.454
  896DA     SC1 5815  75.218  92.601  71.576
  896DA     SC2 5816  75.149  92.741  71.770
  896DA     SC3 5817  75.254  92.936  71.640
  896DA     SC4 5818  75.287  92.709  71.479
  897DT     BB1 5819  74.928  92.220  71.407
  897DT     BB2 5820  74.782  92.304  71.726
  897DT     BB3 5821  74.625  92.436  71.699
  897DT     SC1 5822  74.790  92.635  71.652
  897DT     SC2 5823  74.782  92.774  71.815
  897DT     SC3 5824  74.914  92.830  71.524
  898DA     BB1 5825  74.460  92.122  71.920
  898DA     BB2 5826  74.382  92.434  72.097
  898DA     BB3 5827  74.221  92.536  72.001
  898DA     SC1 5828  74.406  92.702  71.814
  898DA     SC2 5829  74.476  92.940  71.788
  898DA     SC3 5830  74.542  92.873  71.549
  898DA     SC4 5831  74.439  92.641  71.669
  899DA     BB1 5832  74.110  92.518  72.305
  899DA     BB2 5833  74.122  92.884  72.307
  899DA     BB3 5834  73.957  92.965  72.197
  899DA     SC1 5835  74.111  92.974  71.927
  899DA     SC2 5836  74.204  93.147  71.774
  899DA     SC3 5837  74.199  92.962  71.596
  899DA     SC4 5838  74.099  92.846  71.830
  900DC     BB1 5839  73.848  93.060  72.308
  900DC     BB2 5840  73.951  93.387  72.196
  900DC     BB3 5841  73.812  93.464  72.063
  900DC     SC1 5842  73.894  93.303  71.872
  900DC     SC2 5843  73.993  93.418  71.720
  900DC     SC3 5844  73.891  93.112  71.691
  901DT     BB1 5845  73.773  93.627  72.262
  901DT     BB2 5846  73.864  93.835  71.981
  901DT     BB3 5847  73.699  93.866  71.860
  901DT     SC1 5848  73.714  93.622  71.764
  901DT     SC2 5849  73.775  93.630  71.558
  901DT     SC3 5850  73.648  93.373  71.709
  902DC     BB1 5851  73.754  94.096  71.955
  902DC     BB2 5852  73.766  94.129  71.596
  902DC     BB3 5853  73.574  94.129  71.519
  902DC     SC1 5854  73.551  93.870  71.557
  902DC     SC2 5855  73.550  93.770  71.366
  902DC     SC3 5856  73.463  93.640  71.650
  903DC     BB1 5857  73.637  94.376  71.470
  903DC     BB2 5858  73.542  94.234  71.151
  903DC     BB3 5859  73.336  94.226  71.136
  903DC     SC1 5860  73.325  94.021  71.301
  903DC     SC2 5861  73.267  93.845  71.192
  903DC     SC3 5862  73.268  93.878  71.515
  904DA     BB1 5863  73.495  94.407  70.791
  904DA     BB2 5864  73.248  94.157  70.687
  904DA     BB3 5865  73.051  94.221  70.738
  904DA     SC1 5866  73.052  94.086  71.018
  904DA     SC2 5867  72.940  93.894  71.131
  904DA     SC3 5868  73.006  94.011  71.350
  904DA     SC4 5869  73.101  94.175  71.143
  905DG     BB1 5870  73.006  94.199  70.431
  905DG     BB2 5871  72.766  93.947  70.530
  905DG     BB3 5872  72.598  94.034  70.590
  905DG     SC1 5873  72.684  94.056  70.883
  905DG     SC2 5874  72.563  93.910  71.113
  905DG     SC3 5875  72.755  94.114  71.207
  905DG     SC4 5876  72.765  94.186  70.930
  906DA     BB1 5877  72.432  93.823  70.367
  906DA     BB2 5878  72.235  93.684  70.643
  906DA     BB3 5879  72.085  93.823  70.704
  906DA     SC1 5880  72.264  93.961  70.917
  906DA     SC2 5881  72.276  93.977  71.166
  906DA     SC3 5882  72.416  94.188  71.125
  906DA     SC4 5883  72.348  94.090  70.871
  907DT     BB1 5884  71.892  93.774  70.674
  907DT     BB2 5885  71.807  93.707  71.018
  907DT     BB3 5886  71.698  93.865  71.096
  907DT     SC1 5887  71.913  94.015  71.113
  907DT     SC2 5888  71.963  94.044  71.320
  907DT     SC3 5889  72.080  94.214  71.071
  908DA     BB1 5890  71.475  93.518  71.175
  908DA     BB2 5891  71.494  93.712  71.486
  908DA     BB3 5892  71.368  93.884  71.474
  908DA     SC1 5893  71.591  94.068  71.359
  908DA     SC2 5894  71.727  94.263  71.435
  908DA     SC3 5895  71.767  94.307  71.186
  908DA     SC4 5896  71.603  94.080  71.199
  909DA     BB1 5897  71.237  93.766  71.755
  909DA     BB2 5898  71.341  94.079  71.915
  909DA     BB3 5899  71.210  94.238  71.860
  909DA     SC1 5900  71.378  94.323  71.612
  909DA     SC2 5901  71.522  94.515  71.544
  909DA     SC3 5902  71.481  94.433  71.304
  909DA     SC4 5903  71.340  94.257  71.471
  910DT     BB1 5904  71.071  94.338  71.999
  910DT     BB2 5905  71.255  94.647  72.029
  910DT     BB3 5906  71.155  94.799  71.929
  910DT     SC1 5907  71.230  94.705  71.696
  910DT     SC2 5908  71.372  94.839  71.607
  910DT     SC3 5909  71.215  94.600  71.454
  911DA     BB1 5910  71.184  94.973  72.314
  911DA     BB2 5911  71.304  95.224  72.075
  911DA     BB3 5912  71.139  95.319  71.978
  911DA     SC1 5913  71.129  95.116  71.742
  911DA     SC2 5914  71.179  95.115  71.497
  911DA     SC3 5915  71.029  94.906  71.489
  911DA     SC4 5916  71.032  94.989  71.757
  912DT     BB1 5917  71.069  95.542  72.000
  912DT     BB2 5918  71.202  95.652  71.683
  912DT     BB3 5919  71.047  95.702  71.555
  912DT     SC1 5920  70.990  95.449  71.514
  912DT     SC2 5921  71.042  95.396  71.312
  912DT     SC3 5922  70.856  95.222  71.512
  913DA     BB1 5923  71.296  96.038  71.560
  913DA     BB2 5924  71.238  95.949  71.209
  913DA     BB3 5925  71.043  96.010  71.148
  913DA     SC1 5926  70.908  95.740  71.226
  913DA     SC2 5927  70.805  95.545  71.111
  913DA     SC3 5928  70.692  95.497  71.336
  913DA     SC4 5929  70.846  95.728  71.374
  914DT     BB1 5930  71.033  96.151  71.010
  914DT     BB2 5931  70.939  95.934  70.737
  914DT     BB3 5932  70.738  95.956  70.694
  914DT     SC1 5933  70.669  95.821  70.908
  914DT     SC2 5934  70.585  95.632  70.848
  914DT     SC3 5935  70.564  95.765  71.143
  915DA     BB1 5936  70.962  95.991  70.341
  915DA     BB2 5937  70.687  95.756  70.280
  915DA     BB3 5938  70.501  95.860  70.271
  915DA     SC1 5939  70.442  95.831  70.575
  915DA     SC2 5940  70.283  95.708  70.721
  915DA     SC3 5941  70.342  95.883  70.899
  915DA     SC4 5942  70.491  95.950  70.672
  916DA     BB1 5943  70.487  95.697  69.986
  916DA     BB2 5944  70.182  95.539  70.114
  916DA     BB3 5945  70.020  95.677  70.110
  916DA     SC1 5946  70.071  95.783  70.398
  916DA     SC2 5947  69.961  95.772  70.622
  916DA     SC3 5948  70.102  95.979  70.679
  916DA     SC4 5949  70.166  95.912  70.414
  917DT     BB1 5950  69.857  95.648  69.982
  917DT     BB2 5951  69.620  95.546  70.233
  917DT     BB3 5952  69.484  95.699  70.269
  917DT     SC1 5953  69.662  95.836  70.404
  917DT     SC2 5954  69.608  95.839  70.612
  917DT     SC3 5955  69.827  96.031  70.470
  918DT     BB1 5956  69.268  95.577  70.132
  918DT     BB2 5957  69.139  95.636  70.464
  918DT     BB3 5958  69.047  95.821  70.472
  918DT     SC1 5959  69.278  95.945  70.473
  918DT     SC2 5960  69.311  96.035  70.665
  918DT     SC3 5961  69.477  96.100  70.395
  919DT     BB1 5962  68.785  95.718  70.478
  919DT     BB2 5963  68.810  95.916  70.779
  919DT     BB3 5964  68.749  96.110  70.741
  919DT     SC1 5965  68.971  96.164  70.613
  919DT     SC2 5966  69.088  96.302  70.728
  919DT     SC3 5967  69.134  96.228  70.416
  920DA     BB1 5968  68.540  95.969  71.074
  920DA     BB2 5969  68.691  96.290  71.163
  920DA     BB3 5970  68.585  96.451  71.070
  920DA     SC1 5971  68.762  96.451  70.814
  920DA     SC2 5972  68.933  96.599  70.708
  920DA     SC3 5973  68.879  96.473  70.492
  920DA     SC4 5974  68.714  96.362  70.689
  921DT     BB1 5975  68.507  96.559  71.196
  921DT     BB2 5976  68.742  96.832  71.166
  921DT     BB3 5977  68.661  96.983  71.050
  921DT     SC1 5978  68.698  96.844  70.830
  921DT     SC2 5979  68.852  96.937  70.713
  921DT     SC3 5980  68.644  96.711  70.609
  922DT     BB1 5981  68.676  97.093  71.282
  922DT     BB2 5982  68.872  97.299  71.061
  922DT     BB3 5983  68.748  97.417  70.945
  922DT     SC1 5984  68.680  97.213  70.796
  922DT     SC2 5985  68.764  97.237  70.599
  922DT     SC3 5986  68.531  97.027  70.682
  923DC     BB1 5987  68.861  97.596  71.093
  923DC     BB2 5988  68.926  97.695  70.752
  923DC     BB3 5989  68.757  97.784  70.671
  923DC     SC1 5990  68.637  97.552  70.647
  923DC     SC2 5991  68.620  97.502  70.438
  923DC     SC3 5992  68.460  97.359  70.681
  924DA     BB1 5993  69.093  98.028  70.601
  924DA     BB2 5994  68.900  98.006  70.290
  924DA     BB3 5995  68.717  98.113  70.310
  924DA     SC1 5996  68.556  97.867  70.412
  924DA     SC2 5997  68.376  97.716  70.329
  924DA     SC3 5998  68.338  97.659  70.576
  924DA     SC4 5999  68.547  97.845  70.571
  925DT     BB1 6000  68.681  98.288  70.202
  925DT     BB2 6001  68.435  98.157  69.973
  925DT     BB3 6002  68.246  98.224  70.026
  925DT     SC1 6003  68.237  98.057  70.229
  925DT     SC2 6004  68.092  97.904  70.189
  925DT     SC3 6005  68.225  97.969  70.477
  926DA     BB1 6006  68.255  98.362  69.626
  926DA     BB2 6007  67.934  98.192  69.671
  926DA     BB3 6008  67.797  98.318  69.776
  926DA     SC1 6009  67.878  98.212  70.057
  926DA     SC2 6010  67.777  98.074  70.238
  926DA     SC3 6011  67.953  98.182  70.391
  926DA     SC4 6012  67.994  98.291  70.135
  927DG     BB1 6013  67.572  98.351  69.534
  927DG     BB2 6014  67.356  98.169  69.760
  927DG     BB3 6015  67.252  98.297  69.872
  927DG     SC1 6016  67.461  98.310  70.095
  927DG     SC2 6017  67.427  98.208  70.373
  927DG     SC3 6018  67.677  98.364  70.348
  927DG     SC4 6019  67.578  98.419  70.085
  928DT     BB1 6020  66.990  98.350  69.885
  928DT     BB2 6021  66.915  98.166  70.187
  928DT     BB3 6022  66.859  98.297  70.337
  928DT     SC1 6023  67.108  98.375  70.372
  928DT     SC2 6024  67.179  98.303  70.562
  928DT     SC3 6025  67.321  98.531  70.379
  929DA     BB1 6026  66.548  98.021  70.315
  929DA     BB2 6027  66.663  98.030  70.663
  929DA     BB3 6028  66.588  98.204  70.761
  929DA     SC1 6029  66.832  98.382  70.688
  929DA     SC2 6030  67.025  98.488  70.805
  929DA     SC3 6031  67.038  98.642  70.600
  929DA     SC4 6032  66.823  98.469  70.553
  930DC     BB1 6033  66.476  98.156  70.899
  930DC     BB2 6034  66.716  98.218  71.161
  930DC     BB3 6035  66.675  98.399  71.253
  930DC     SC1 6036  66.769  98.534  71.049
  930DC     SC2 6037  66.952  98.631  71.106
  930DC     SC3 6038  66.778  98.696  70.841
  931DC     BB1 6039  66.639  98.218  71.428
  931DC     BB2 6040  66.900  98.433  71.554
  931DC     BB3 6041  66.818  98.610  71.622
  931DC     SC1 6042  66.780  98.696  71.377
  931DC     SC2 6043  66.915  98.859  71.337
  931DC     SC3 6044  66.657  98.778  71.159
  932DG     BB1 6045  67.086  98.393  71.852
  932DG     BB2 6046  67.174  98.743  71.822
  932DG     BB3 6047  67.039  98.855  71.916
  932DG     SC1 6048  66.859  98.887  71.670
  932DG     SC2 6049  66.807  99.141  71.523
  932DG     SC3 6050  66.628  98.925  71.428
  932DG     SC4 6051  66.745  98.777  71.643
  933DT     BB1 6052  67.138  98.949  72.037
  933DT     BB2 6053  67.118  99.288  71.917
  933DT     BB3 6054  66.948  99.380  71.992
  933DT     SC1 6055  66.793  99.247  71.827
  933DT     SC2 6056  66.712  99.381  71.681
  933DT     SC3 6057  66.607  99.081  71.741
  934DT     BB1 6058  67.125  99.516  72.128
  934DT     BB2 6059  66.922  99.763  71.961
  934DT     BB3 6060  66.745  99.791  72.064
  934DT     SC1 6061  66.649  99.562  71.976
  934DT     SC2 6062  66.489  99.601  71.838
  934DT     SC3 6063  66.556  99.316  71.977
  935DA     BB1 6064  66.914 100.170  72.001
  935DA     BB2 6065  66.557 100.190  71.918
  935DA     BB3 6066  66.439 100.181  72.096
  935DA     SC1 6067  66.411  99.871  72.089
  935DA     SC2 6068  66.231  99.703  72.048
  935DA     SC3 6069  66.384  99.539  72.172
  935DA     SC4 6070  66.519  99.785  72.170
  936DA     BB1 6071  66.308 100.462  71.980
  936DA     BB2 6072  65.982 100.294  71.983
  936DA     BB3 6073  65.909 100.278  72.183
  936DA     SC1 6074  66.040 100.000  72.235
  936DA     SC2 6075  65.965  99.764  72.266
  936DA     SC3 6076  66.195  99.728  72.376
  936DA     SC4 6077  66.186  99.998  72.301
  937DA     BB1 6078  65.636 100.429  72.066
  937DA     BB2 6079  65.445 100.135  72.172
  937DA     BB3 6080  65.415 100.137  72.383
  937DA     SC1 6081  65.674  99.976  72.446
  937DA     SC2 6082  65.735  99.749  72.530
  937DA     SC3 6083  65.962  99.853  72.587
  937DA     SC4 6084  65.808 100.060  72.475
  938DT     BB1 6085  65.221 100.167  72.481
  938DT     BB2 6086  65.172  99.828  72.596
  938DT     BB3 6087  65.197  99.819  72.801
  938DT     SC1 6088  65.457  99.841  72.779
  938DT     SC2 6089  65.549  99.654  72.834
  938DT     SC3 6090  65.701  99.939  72.803
  939DT     BB1 6091  64.918  99.799  72.879
  939DT     BB2 6092  65.068  99.514  73.042
  939DT     BB3 6093  65.125  99.564  73.234
  939DT     SC1 6094  65.331  99.701  73.146
  939DT     SC2 6095  65.513  99.598  73.198
  939DT     SC3 6096  65.491  99.905  73.096
  940DA     BB1 6097  64.871  99.239  73.340
  940DA     BB2 6098  65.186  99.185  73.519
  940DA     BB3 6099  65.194  99.305  73.695
  940DA     SC1 6100  65.330  99.547  73.553
  940DA     SC2 6101  65.552  99.660  73.554
  940DA     SC3 6102  65.427  99.861  73.453
  940DA     SC4 6103  65.234  99.661  73.492
  941DT     BB1 6104  65.184  99.249  73.953
  941DT     BB2 6105  65.537  99.296  74.009
  941DT     BB3 6106  65.567  99.454  74.139
  941DT     SC1 6107  65.509  99.630  73.953
  941DT     SC2 6108  65.688  99.737  73.898
  941DT     SC3 6109  65.384  99.822  73.824
  942DT     BB1 6110  65.640  99.308  74.382
  942DT     BB2 6111  65.927  99.518  74.318
  942DT     BB3 6112  65.912  99.693  74.427
  942DT     SC1 6113  65.728  99.788  74.265
  942DT     SC2 6114  65.810  99.951  74.152
  942DT     SC3 6115  65.495  99.877  74.180
  943DT     BB1 6116  66.114  99.613  74.593
  943DT     BB2 6117  66.234  99.917  74.441
  943DT     BB3 6118  66.177 100.080  74.554
  943DT     SC1 6119  65.929 100.062  74.469
  943DT     SC2 6120  65.885 100.228  74.340
  943DT     SC3 6121  65.668 100.027  74.471
  944DT     BB1 6122  66.433 100.094  74.601
  944DT     BB2 6123  66.347 100.407  74.443
  944DT     BB3 6124  66.267 100.537  74.583
  944DT     SC1 6125  66.041 100.405  74.589
  944DT     SC2 6126  65.886 100.525  74.498
  944DT     SC3 6127  65.840 100.260  74.680
  945DT     BB1 6128  66.489 100.653  74.523
  945DT     BB2 6129  66.229 100.892  74.449
  945DT     BB3 6130  66.162 100.979  74.624
  945DT     SC1 6131  66.030 100.762  74.691
  945DT     SC2 6132  65.819 100.800  74.678
  945DT     SC3 6133  65.958 100.548  74.826
  946DC     BB1 6134  66.280 101.186  74.519
  946DC     BB2 6135  65.941 101.291  74.585
  946DC     BB3 6136  65.919 101.338  74.786
  946DC     SC1 6137  65.919 101.084  74.853
  946DC     SC2 6138  65.723 101.028  74.920
  946DC     SC3 6139  65.995 100.856  74.963
  947DT     BB1 6140  65.907 101.598  74.717
  947DT     BB2 6141  65.609 101.543  74.914
  947DT     BB3 6142  65.653 101.561  75.115
  947DT     SC1 6143  65.773 101.328  75.118
  947DT     SC2 6144  65.656 101.189  75.232
  947DT     SC3 6145  65.964 101.148  75.142
  948DA     BB1 6146  65.338 101.841  75.079
  948DA     BB2 6147  65.265 101.638  75.375
  948DA     BB3 6148  65.387 101.699  75.539
  948DA     SC1 6149  65.617 101.499  75.474
  948DA     SC2 6150  65.715 101.292  75.572
  948DA     SC3 6151  65.922 101.348  75.431
  948DA     SC4 6152  65.736 101.552  75.380
  949DT     BB1 6153  65.328 101.817  75.751
  949DT     BB2 6154  65.358 101.527  75.964
  949DT     BB3 6155  65.517 101.552  76.094
  949DT     SC1 6156  65.691 101.507  75.903
  949DT     SC2 6157  65.788 101.317  75.938
  949DT     SC3 6158  65.888 101.547  75.732
  950DT     BB1 6159  65.379 101.616  76.351
  950DT     BB2 6160  65.574 101.324  76.431
  950DT     BB3 6161  65.753 101.380  76.519
  950DT     SC1 6162  65.850 101.458  76.287
  950DT     SC2 6163  66.007 101.324  76.227
  950DT     SC3 6164  65.947 101.616  76.099
  951DG     BB1 6165  65.576 101.150  76.804
  951DG     BB2 6166  65.901 101.020  76.715
  951DG     BB3 6167  66.043 101.118  76.815
  951DG     SC1 6168  66.079 101.335  76.602
  951DG     SC2 6169  66.322 101.377  76.434
  951DG     SC3 6170  66.130 101.600  76.400
  951DG     SC4 6171  65.987 101.466  76.609
  952DA     BB1 6172  66.130 100.797  76.879
  952DA     BB2 6173  66.450 100.856  76.710
  952DA     BB3 6174  66.578 100.973  76.834
  952DA     SC1 6175  66.481 101.246  76.719
  952DA     SC2 6176  66.572 101.429  76.576
  952DA     SC3 6177  66.387 101.573  76.678
  952DA     SC4 6178  66.360 101.319  76.795
  953DA     BB1 6179  66.728 100.709  76.720
  953DA     BB2 6180  66.964 100.946  76.569
  953DA     BB3 6181  67.076 101.047  76.721
  953DA     SC1 6182  66.874 101.282  76.747
  953DA     SC2 6183  66.867 101.526  76.693
  953DA     SC3 6184  66.675 101.537  76.863
  953DA     SC4 6185  66.758 101.269  76.857
  954DA     BB1 6186  67.279 100.930  76.493
  954DA     BB2 6187  67.394 101.276  76.459
  954DA     BB3 6188  67.492 101.340  76.637
  954DA     SC1 6189  67.234 101.451  76.770
  954DA     SC2 6190  67.138 101.673  76.831
  954DA     SC3 6191  66.988 101.542  76.992
  954DA     SC4 6192  67.150 101.351  76.865
  955DG     BB1 6193  67.711 101.382  76.424
  955DG     BB2 6194  67.686 101.725  76.534
  955DG     BB3 6195  67.777 101.747  76.710
  955DG     SC1 6196  67.527 101.684  76.875
  955DG     SC2 6197  67.380 101.875  77.050
  955DG     SC3 6198  67.279 101.599  77.086
  955DG     SC4 6199  67.496 101.531  76.913
  956DT     BB1 6200  67.963 101.877  76.742
  956DT     BB2 6201  67.832 102.155  76.930
  956DT     BB3 6202  67.886 102.138  77.129
  956DT     SC1 6203  67.709 101.948  77.168
  956DT     SC2 6204  67.550 102.022  77.293
  956DT     SC3 6205  67.607 101.711  77.223
  957DT     BB1 6206  68.098 102.335  77.136
  957DT     BB2 6207  67.882 102.439  77.406
  957DT     BB3 6208  67.946 102.356  77.584
  957DT     SC1 6209  67.852 102.120  77.517
  957DT     SC2 6210  67.683 102.072  77.641
  957DT     SC3 6211  67.846 101.864  77.454
  958DC     BB1 6212  68.079 102.587  77.714
  958DC     BB2 6213  67.839 102.483  77.962
  958DC     BB3 6214  67.929 102.358  78.100
  958DC     SC1 6215  67.932 102.159  77.928
  958DC     SC2 6216  67.793 102.008  77.992
  958DC     SC3 6217  68.024 101.971  77.768
  959DA     BB1 6218  67.771 102.654  78.352
  959DA     BB2 6219  67.659 102.331  78.484
  959DA     BB3 6220  67.815 102.239  78.596
  959DA     SC1 6221  67.932 102.085  78.352
  959DA     SC2 6222  67.948 101.849  78.273
  959DA     SC3 6223  68.140 101.933  78.125
  959DA     SC4 6224  68.050 102.156  78.269
  960DT     BB1 6225  67.796 102.210  78.805
  960DT     BB2 6226  67.723 101.857  78.784
  960DT     BB3 6227  67.883 101.747  78.856
  960DT     SC1 6228  68.023 101.794  78.639
  960DT     SC2 6229  68.043 101.612  78.527
  960DT     SC3 6230  68.215 101.883  78.483
  961DT     BB1 6231  67.721 101.689  79.057
  961DT     BB2 6232  67.808 101.371  78.910
  961DT     BB3 6233  67.989 101.305  78.987
  961DT     SC1 6234  68.123 101.479  78.844
  961DT     SC2 6235  68.234 101.375  78.692
  961DT     SC3 6236  68.279 101.683  78.783
  962DT     BB1 6237  67.820 101.134  79.078
  962DT     BB2 6238  68.062 100.945  78.887
  962DT     BB3 6239  68.237 100.924  78.996
  962DT     SC1 6240  68.303 101.174  78.952
  962DT     SC2 6241  68.473 101.180  78.820
  962DT     SC3 6242  68.361 101.427  78.997
  963DA     BB1 6243  68.101 100.564  78.823
  963DA     BB2 6244  68.460 100.597  78.761
  963DA     BB3 6245  68.569 100.580  78.944
  963DA     SC1 6246  68.564 100.885  79.004
  963DA     SC2 6247  68.725 101.075  79.010
  963DA     SC3 6248  68.550 101.193  79.156
  963DA     SC4 6249  68.443 100.941  79.094
  964DT     BB1 6250  68.678 100.428  78.951
  964DT     BB2 6251  68.998 100.594  78.928
  964DT     BB3 6252  69.081 100.614  79.116
  964DT     SC1 6253  68.915 100.807  79.178
  964DT     SC2 6254  69.024 100.993  79.191
  964DT     SC3 6255  68.723 100.940  79.301
  965DG     BB1 6256  69.356 100.398  78.903
  965DG     BB2 6257  69.512 100.678  79.070
  965DG     BB3 6258  69.541 100.635  79.263
  965DG     SC1 6259  69.268 100.743  79.352
  965DG     SC2 6260  69.222 100.982  79.525
  965DG     SC3 6261  68.970 100.833  79.482
  965DG     SC4 6262  69.142 100.645  79.351
  966DT     BB1 6263  69.753 100.610  79.380
  966DT     BB2 6264  69.763 100.916  79.571
  966DT     BB3 6265  69.731 100.875  79.771
  966DT     SC1 6266  69.475 100.835  79.731
  966DT     SC2 6267  69.363 100.995  79.822
  966DT     SC3 6268  69.242 100.712  79.718
  967DT     BB1 6269  69.999 100.913  79.852
  967DT     BB2 6270  69.814 101.142  80.060
  967DT     BB3 6271  69.760 101.049  80.237
  967DT     SC1 6272  69.573 100.910  80.116
  967DT     SC2 6273  69.380 100.980  80.180
  967DT     SC3 6274  69.440 100.703  80.022
  968DA     BB1 6275  69.956 101.399  80.356
  968DA     BB2 6276  69.638 101.385  80.537
  968DA     BB3 6277  69.649 101.242  80.695
  968DA     SC1 6278  69.548 101.005  80.522
  968DA     SC2 6279  69.344 100.862  80.506
  968DA     SC3 6280  69.495 100.695  80.382
  968DA     SC4 6281  69.658 100.914  80.448
  969DT     BB1 6282  69.636 101.312  80.882
  969DT     BB2 6283  69.299 101.201  80.946
  969DT     BB3 6284  69.301 101.035  81.070
  969DT     SC1 6285  69.382 100.880  80.874
  969DT     SC2 6286  69.223 100.746  80.820
  969DT     SC3 6287  69.534 100.717  80.734
  970DT     BB1 6288  69.201 101.196  81.255
  970DT     BB2 6289  68.961 100.928  81.224
  970DT     BB3 6290  69.020 100.767  81.340
  970DT     SC1 6291  69.208 100.703  81.169
  970DT     SC2 6292  69.156 100.519  81.071
  970DT     SC3 6293  69.448 100.658  81.069
  971DC     BB1 6294  68.816 100.827  81.503
  971DC     BB2 6295  68.761 100.483  81.409
  971DC     BB3 6296  68.870 100.357  81.533
  971DC     SC1 6297  69.094 100.419  81.412
  971DC     SC2 6298  69.164 100.249  81.300
  971DC     SC3 6299  69.337 100.514  81.373
  972DT     BB1 6300  68.638 100.285  81.644
  972DT     BB2 6301  68.788  99.976  81.533
  972DT     BB3 6302  68.921  99.907  81.676
  972DT     SC1 6303  69.098 100.089  81.610
  972DT     SC2 6304  69.266  99.994  81.514
  972DT     SC3 6305  69.259 100.297  81.630
  973DT     BB1 6306  68.748  99.708  81.743
  973DT     BB2 6307  69.054  99.537  81.658
  973DT     BB3 6308  69.177  99.525  81.824
  973DT     SC1 6309  69.241  99.779  81.804
  973DT     SC2 6310  69.446  99.797  81.744
  973DT     SC3 6311  69.263 100.035  81.864
  974DT     BB1 6312  69.127  99.258  81.848
  974DT     BB2 6313  69.486  99.280  81.823
  974DT     BB3 6314  69.568  99.309  82.011
  974DT     SC1 6315  69.491  99.560  82.015
  974DT     SC2 6316  69.664  99.687  82.001
  974DT     SC3 6317  69.365  99.779  82.088
  975DT     BB1 6318  69.661  99.056  82.004
  975DT     BB2 6319  69.954  99.259  82.058
  975DT     BB3 6320  69.978  99.297  82.260
  975DT     SC1 6321  69.781  99.471  82.259
  975DT     SC2 6322  69.861  99.669  82.288
  975DT     SC3 6323  69.549  99.583  82.314
  976DA     BB1 6324  70.342  99.150  82.113
  976DA     BB2 6325  70.414  99.450  82.311
  976DA     BB3 6326  70.389  99.409  82.519
  976DA     SC1 6327  70.089  99.491  82.525
  976DA     SC2 6328  69.950  99.676  82.619
  976DA     SC3 6329  69.753  99.514  82.591
  976DA     SC4 6330  69.980  99.376  82.501
  977DT     BB1 6331  70.552  99.416  82.632
  977DT     BB2 6332  70.478  99.724  82.804
  977DT     BB3 6333  70.410  99.684  82.996
  977DT     SC1 6334  70.176  99.605  82.905
  977DT     SC2 6335  70.026  99.749  82.961
  977DT     SC3 6336  69.971  99.449  82.851
  978DA     BB1 6337  70.724  99.959  83.046
  978DA     BB2 6338  70.442 100.076  83.248
  978DA     BB3 6339  70.419  99.954  83.422
  978DA     SC1 6340  70.223  99.754  83.286
  978DA     SC2 6341  69.982  99.693  83.301
  978DA     SC3 6342  70.052  99.473  83.188
  978DA     SC4 6343  70.287  99.623  83.216
  979DT     BB1 6344  70.458 100.020  83.633
  979DT     BB2 6345  70.113 100.039  83.737
  979DT     BB3 6346  70.071  99.886  83.870
  979DT     SC1 6347  70.068  99.709  83.676
  979DT     SC2 6348  69.866  99.639  83.646
  979DT     SC3 6349  70.135  99.500  83.530
  980DA     BB1 6350  69.955 100.216  84.108
  980DA     BB2 6351  69.678  99.977  84.119
  980DA     BB3 6352  69.721  99.819  84.256
  980DA     SC1 6353  69.854  99.637  84.041
  980DA     SC2 6354  69.804  99.423  83.923
  980DA     SC3 6355  70.055  99.414  83.874
  980DA     SC4 6356  70.014  99.649  84.022
  981DG     BB1 6357  69.475  99.886  84.459
  981DG     BB2 6358  69.346  99.568  84.345
  981DG     BB3 6359  69.407  99.423  84.466
  981DG     SC1 6360  69.664  99.367  84.309
  981DG     SC2 6361  69.726  99.117  84.158
  981DG     SC3 6362  69.964  99.292  84.174
  981DG     SC4 6363  69.797  99.449  84.346
  982DC     BB1 6364  69.267  99.276  84.610
  982DC     BB2 6365  69.267  98.979  84.406
  982DC     BB3 6366  69.376  98.829  84.499
  982DC     SC1 6367  69.603  98.947  84.439
  982DC     SC2 6368  69.707  98.829  84.291
  982DC     SC3 6369  69.835  99.069  84.469
  983DT     BB1 6370  69.147  98.689  84.555
  983DT     BB2 6371  69.343  98.466  84.351
  983DT     BB3 6372  69.468  98.352  84.471
  983DT     SC1 6373  69.628  98.556  84.511
  983DT     SC2 6374  69.815  98.522  84.410
  983DT     SC3 6375  69.760  98.747  84.637
  984DC     BB1 6376  69.312  98.148  84.405
  984DC     BB2 6377  69.642  98.057  84.290
  984DC     BB3 6378  69.750  97.972  84.445
  984DC     SC1 6379  69.786  98.206  84.558
  984DC     SC2 6380  69.993  98.262  84.542
  984DC     SC3 6381  69.773  98.400  84.736
  985DA     BB1 6382  69.765  97.747  84.092
  985DA     BB2 6383  70.107  97.791  84.218
  985DA     BB3 6384  70.135  97.677  84.396
  985DA     SC1 6385  70.048  97.908  84.586
  985DA     SC2 6386  70.155  98.060  84.752
  985DA     SC3 6387  69.917  98.094  84.843
  985DA     SC4 6388  69.893  97.915  84.628
  986DA     BB1 6389  70.380  97.608  84.192
  986DA     BB2 6390  70.600  97.727  84.460
  986DA     BB3 6391  70.594  97.594  84.626
  986DA     SC1 6392  70.360  97.741  84.769
  986DA     SC2 6393  70.327  97.880  84.973
  986DA     SC3 6394  70.079  97.819  84.949
  986DA     SC4 6395  70.211  97.691  84.738
  987DG     BB1 6396  70.891  97.601  84.548
  987DG     BB2 6397  70.924  97.736  84.882
  987DG     BB3 6398  70.905  97.591  85.016
  987DG     SC1 6399  70.602  97.619  85.042
  987DG     SC2 6400  70.455  97.712  85.285
  987DG     SC3 6401  70.267  97.609  85.081
  987DG     SC4 6402  70.507  97.536  84.943
  988DT     BB1 6403  71.069  97.556  85.138
  988DT     BB2 6404  70.959  97.679  85.458
  988DT     BB3 6405  70.894  97.522  85.576
  988DT     SC1 6406  70.672  97.499  85.438
  988DT     SC2 6407  70.506  97.562  85.559
  988DT     SC3 6408  70.486  97.396  85.281
  989DT     BB1 6409  71.115  97.552  85.726
  989DT     BB2 6410  70.843  97.570  85.963
  989DT     BB3 6411  70.788  97.379  86.021
  989DT     SC1 6412  70.668  97.335  85.792
  989DT     SC2 6413  70.455  97.326  85.823
  989DT     SC3 6414  70.612  97.228  85.557
  990DT     BB1 6415  70.904  97.406  86.271
  990DT     BB2 6416  70.565  97.307  86.345
  990DT     BB3 6417  70.551  97.101  86.350
  990DT     SC1 6418  70.564  97.086  86.088
  990DT     SC2 6419  70.373  97.024  86.011
  990DT     SC3 6420  70.653  97.027  85.847
  991DT     BB1 6421  70.536  97.076  86.633
  991DT     BB2 6422  70.244  96.897  86.518
  991DT     BB3 6423  70.290  96.697  86.491
  991DT     SC1 6424  70.421  96.749  86.270
  991DT     SC2 6425  70.312  96.672  86.101
  991DT     SC3 6426  70.621  96.770  86.098
  992DT     BB1 6427  70.158  96.602  86.721
  992DT     BB2 6428  70.009  96.412  86.453
  992DT     BB3 6429  70.115  96.237  86.424
  992DT     SC1 6430  70.312  96.366  86.307
  992DT     SC2 6431  70.315  96.317  86.097
  992DT     SC3 6432  70.552  96.464  86.262
  993DC     BB1 6433  69.922  96.070  86.539
  993DC     BB2 6434  69.964  95.939  86.205
  993DC     BB3 6435  70.112  95.795  86.204
  993DC     SC1 6436  70.300  95.976  86.224
  993DC     SC2 6437  70.411  95.985  86.039
  993DC     SC3 6438  70.503  96.114  86.322
  994DA     BB1 6439  69.773  95.628  86.023
  994DA     BB2 6440  70.058  95.575  85.799
  994DA     BB3 6441  70.186  95.422  85.876
  994DA     SC1 6442  70.364  95.619  86.038
  994DA     SC2 6443  70.597  95.708  86.028
  994DA     SC3 6444  70.564  95.768  86.275
  994DA     SC4 6445  70.324  95.647  86.191
  995DA     BB1 6446  70.126  95.326  85.572
  995DA     BB2 6447  70.487  95.356  85.517
  995DA     BB3 6448  70.590  95.198  85.616
  995DA     SC1 6449  70.629  95.357  85.881
  995DA     SC2 6450  70.817  95.461  86.008
  995DA     SC3 6451  70.660  95.450  86.210
  995DA     SC4 6452  70.517  95.340  85.995
  996DC     BB1 6453  70.672  95.098  85.493
  996DC     BB2 6454  71.009  95.208  85.561
  996DC     BB3 6455  71.103  95.074  85.688
  996DC     SC1 6456  70.966  95.161  85.894
  996DC     SC2 6457  71.098  95.266  86.028
  996DC     SC3 6458  70.799  95.163  86.098
  997DA     BB1 6459  71.343  95.165  85.354
  997DA     BB2 6460  71.548  95.190  85.657
  997DA     BB3 6461  71.579  94.996  85.741
  997DA     SC1 6462  71.329  95.009  85.925
  997DA     SC2 6463  71.280  95.028  86.169
  997DA     SC3 6464  71.048  94.935  86.108
  997DA     SC4 6465  71.191  94.950  85.867
  998DG     BB1 6466  71.878  95.071  85.692
  998DG     BB2 6467  71.897  95.041  86.052
  998DG     BB3 6468  71.907  94.849  86.104
  998DG     SC1 6469  71.603  94.813  86.124
  998DG     SC2 6470  71.450  94.760  86.374
  998DG     SC3 6471  71.276  94.733  86.136
  998DG     SC4 6472  71.521  94.771  85.993
  999DA     BB1 6473  72.197  94.912  86.295
  999DA     BB2 6474  72.030  94.788  86.597
  999DA     BB3 6475  72.024  94.575  86.596
  999DA     SC1 6476  71.749  94.558  86.451
  999DA     SC2 6477  71.515  94.492  86.506
  999DA     SC3 6478  71.484  94.467  86.253
  999DA     SC4 6479  71.750  94.547  86.291
 1000DG     BB1 6480  72.205  94.549  86.863
 1000DG     BB2 6481  71.905  94.406  87.006
 1000DG     BB3 6482  71.902  94.210  86.975
 1000DG     SC1 6483  71.756  94.230  86.706
 1000DG     SC2 6484  71.479  94.133  86.650
 1000DG     SC3 6485  71.615  94.216  86.400
 1000DG     SC4 6486  71.842  94.247  86.572
 1001DT     BB1 6487  71.914  94.010  87.142
 1001DT     BB2 6488  71.565  93.916  87.143
 1001DT     BB3 6489  71.542  93.731  87.053
 1001DT     SC1 6490  71.578  93.833  86.814
 1001DT     SC2 6491  71.393  93.827  86.705
 1001DT     SC3 6492  71.686  93.881  86.579
 1002DT     BB1 6493  71.493  93.585  87.292
 1002DT     BB2 6494  71.197  93.531  87.092
 1002DT     BB3 6495  71.219  93.358  86.980
 1002DT     SC1 6496  71.384  93.478  86.815
 1002DT     SC2 6497  71.289  93.503  86.624
 1002DT     SC3 6498  71.606  93.534  86.683
 1003DA     BB1 6499  70.857  93.338  87.187
 1003DA     BB2 6500  70.789  93.274  86.832
 1003DA     BB3 6501  70.856  93.079  86.778
 1003DA     SC1 6502  71.140  93.174  86.694
 1003DA     SC2 6503  71.272  93.199  86.484
 1003DA     SC3 6504  71.478  93.198  86.637
 1003DA     SC4 6505  71.256  93.170  86.806
 1004DA     BB1 6506  70.548  93.093  86.679
 1004DA     BB2 6507  70.680  93.043  86.341
 1004DA     BB3 6508  70.749  92.842  86.317
 1004DA     SC1 6509  71.039  92.904  86.409
 1004DA     SC2 6510  71.267  92.917  86.307
 1004DA     SC3 6511  71.354  92.890  86.547
 1004DA     SC4 6512  71.074  92.885  86.565
 1005DG     BB1 6513  70.538  92.877  86.099
 1005DG     BB2 6514  70.825  92.825  85.885
 1005DG     BB3 6515  70.874  92.633  85.882
 1005DG     SC1 6516  71.064  92.651  86.121
 1005DG     SC2 6517  71.360  92.614  86.113
 1005DG     SC3 6518  71.264  92.631  86.392
 1005DG     SC4 6519  71.005  92.631  86.268
 1006DT     BB1 6520  70.865  92.546  85.697
 1006DT     BB2 6521  71.214  92.503  85.616
 1006DT     BB3 6522  71.273  92.309  85.657
 1006DT     SC1 6523  71.275  92.357  85.915
 1006DT     SC2 6524  71.478  92.356  85.987
 1006DT     SC3 6525  71.212  92.342  86.171
 1007DA     BB1 6526  71.391  92.414  85.268
 1007DA     BB2 6527  71.677  92.261  85.437
 1007DA     BB3 6528  71.645  92.051  85.463
 1007DA     SC1 6529  71.511  92.082  85.743
 1007DA     SC2 6530  71.566  92.029  85.980
 1007DA     SC3 6531  71.313  92.047  86.021
 1007DA     SC4 6532  71.351  92.096  85.748
 1008DA     BB1 6533  71.937  92.047  85.315
 1008DA     BB2 6534  72.063  91.875  85.613
 1008DA     BB3 6535  71.993  91.673  85.618
 1008DA     SC1 6536  71.736  91.740  85.780
 1008DA     SC2 6537  71.647  91.700  86.009
 1008DA     SC3 6538  71.417  91.749  85.906
 1008DA     SC4 6539  71.602  91.773  85.697
 1009DG     BB1 6540  72.296  91.602  85.612
 1009DG     BB2 6541  72.224  91.461  85.937
 1009DG     BB3 6542  72.145  91.279  85.917
 1009DG     SC1 6543  71.856  91.380  85.904
 1009DG     SC2 6544  71.644  91.330  86.108
 1009DG     SC3 6545  71.530  91.456  85.866
 1009DG     SC4 6546  71.794  91.420  85.762
 1010DC     BB1 6547  72.247  91.096  85.995
 1010DC     BB2 6548  72.044  91.017  86.283
 1010DC     BB3 6549  71.921  90.856  86.241
 1010DC     SC1 6550  71.763  91.006  86.093
 1010DC     SC2 6551  71.574  91.031  86.193
 1010DC     SC3 6552  71.636  91.099  85.882
 1011DA     BB1 6553  72.122  90.761  86.596
 1011DA     BB2 6554  71.765  90.695  86.649
 1011DA     BB3 6555  71.706  90.518  86.545
 1011DA     SC1 6556  71.628  90.668  86.284
 1011DA     SC2 6557  71.419  90.723  86.159
 1011DA     SC3 6558  71.574  90.758  85.957
 1011DA     SC4 6559  71.740  90.684  86.170
 1012DT     BB1 6560  71.650  90.366  86.656
 1012DT     BB2 6561  71.297  90.389  86.587
 1012DT     BB3 6562  71.242  90.244  86.450
 1012DT     SC1 6563  71.352  90.378  86.253
 1012DT     SC2 6564  71.198  90.454  86.124
 1012DT     SC3 6565  71.514  90.437  86.054
 1013DA     BB1 6566  70.981  90.211  86.777
 1013DA     BB2 6567  70.778  90.214  86.472
 1013DA     BB3 6568  70.798  90.029  86.368
 1013DA     SC1 6569  71.039  90.124  86.195
 1013DA     SC2 6570  71.084  90.180  85.956
 1013DA     SC3 6571  71.330  90.143  86.015
 1013DA     SC4 6572  71.186  90.095  86.251
 1014DA     BB1 6573  70.470  90.040  86.389
 1014DA     BB2 6574  70.465  90.037  86.022
 1014DA     BB3 6575  70.511  89.842  85.949
 1014DA     SC1 6576  70.817  89.894  85.933
 1014DA     SC2 6577  70.991  89.922  85.755
 1014DA     SC3 6578  71.159  89.864  85.940
 1014DA     SC4 6579  70.906  89.854  86.060
 1015DG     BB1 6580  70.227  89.855  85.818
 1015DG     BB2 6581  70.417  89.840  85.510
 1015DG     BB3 6582  70.464  89.651  85.469
 1015DG     SC1 6583  70.729  89.658  85.623
 1015DG     SC2 6584  71.002  89.639  85.504
 1015DG     SC3 6585  71.014  89.624  85.799
 1015DG     SC4 6586  70.729  89.621  85.779
 1016DA     BB1 6587  70.325  89.691  85.150
 1016DA     BB2 6588  70.649  89.613  84.996
 1016DA     BB3 6589  70.685  89.403  85.001
 1016DA     SC1 6590  70.830  89.408  85.276
 1016DA     SC2 6591  71.061  89.375  85.363
 1016DA     SC3 6592  70.948  89.334  85.590
 1016DA     SC4 6593  70.741  89.384  85.408
 1017DA     BB1 6594  70.727  89.429  84.673
 1017DA     BB2 6595  71.071  89.314  84.724
 1017DA     BB3 6596  71.075  89.102  84.751
 1017DA     SC1 6597  71.047  89.117  85.061
 1017DA     SC2 6598  71.188  89.072  85.261
 1017DA     SC3 6599  70.966  89.058  85.389
 1017DA     SC4 6600  70.898  89.110  85.122
 1018DA     BB1 6601  71.291  89.102  84.500
 1018DA     BB2 6602  71.539  88.968  84.735
 1018DA     BB3 6603  71.508  88.759  84.764
 1018DA     SC1 6604  71.316  88.796  85.006
 1018DA     SC2 6605  71.320  88.756  85.252
 1018DA     SC3 6606  71.064  88.764  85.236
 1018DA     SC4 6607  71.159  88.803  84.975
 1019DA     BB1 6608  71.824  88.743  84.676
 1019DA     BB2 6609  71.891  88.612  85.011
 1019DA     BB3 6610  71.836  88.406  85.023
 1019DA     SC1 6611  71.545  88.464  85.117
 1019DA     SC2 6612  71.409  88.436  85.324
 1019DA     SC3 6613  71.206  88.455  85.168
 1019DA     SC4 6614  71.431  88.476  85.003
 1020DA     BB1 6615  72.143  88.399  85.127
 1020DA     BB2 6616  72.007  88.279  85.446
 1020DA     BB3 6617  71.948  88.075  85.429
 1020DA     SC1 6618  71.656  88.141  85.344
 1020DA     SC2 6619  71.427  88.124  85.440
 1020DA     SC3 6620  71.345  88.140  85.198
 1020DA     SC4 6621  71.625  88.151  85.186
 1021DT     BB1 6622  72.049  87.974  85.540
 1021DT     BB2 6623  71.794  87.920  85.790
 1021DT     BB3 6624  71.707  87.734  85.762
 1021DT     SC1 6625  71.572  87.820  85.554
 1021DT     SC2 6626  71.363  87.829  85.603
 1021DT     SC3 6627  71.488  87.843  85.305
 1022DA     BB1 6628  71.819  87.818  86.159
 1022DA     BB2 6629  71.475  87.691  86.157
 1022DA     BB3 6630  71.472  87.485  86.101
 1022DA     SC1 6631  71.440  87.542  85.797
 1022DA     SC2 6632  71.265  87.517  85.622
 1022DA     SC3 6633  71.458  87.532  85.455
 1022DA     SC4 6634  71.574  87.552  85.709
 1023DG     BB1 6635  71.337  87.489  86.378
 1023DG     BB2 6636  71.057  87.364  86.187
 1023DG     BB3 6637  71.085  87.172  86.142
 1023DG     SC1 6638  71.229  87.230  85.878
 1023DG     SC2 6639  71.128  87.166  85.605
 1023DG     SC3 6640  71.409  87.257  85.594
 1023DG     SC4 6641  71.388  87.250  85.880
 1024DT     BB1 6642  70.947  87.031  86.218
 1024DT     BB2 6643  70.764  86.934  85.923
 1024DT     BB3 6644  70.836  86.753  85.851
 1024DT     SC1 6645  71.052  86.868  85.755
 1024DT     SC2 6646  71.044  86.866  85.540
 1024DT     SC3 6647  71.306  86.929  85.721
 1025DA     BB1 6648  70.421  86.700  85.890
 1025DA     BB2 6649  70.518  86.574  85.559
 1025DA     BB3 6650  70.619  86.387  85.577
 1025DA     SC1 6651  70.902  86.514  85.599
 1025DA     SC2 6652  71.109  86.529  85.460
 1025DA     SC3 6653  71.228  86.585  85.680
 1025DA     SC4 6654  70.958  86.546  85.746
 1026DG     BB1 6655  70.388  86.259  85.405
 1026DG     BB2 6656  70.655  86.198  85.168
 1026DG     BB3 6657  70.748  86.029  85.213
 1026DG     SC1 6658  70.953  86.162  85.398
 1026DG     SC2 6659  71.246  86.183  85.348
 1026DG     SC3 6660  71.179  86.271  85.622
 1026DG     SC4 6661  70.917  86.180  85.553
 1027DT     BB1 6662  70.754  85.837  85.077
 1027DT     BB2 6663  71.090  85.854  84.949
 1027DT     BB3 6664  71.207  85.707  85.037
 1027DT     SC1 6665  71.219  85.843  85.262
 1027DT     SC2 6666  71.420  85.916  85.290
 1027DT     SC3 6667  71.187  85.905  85.516
 1028DT     BB1 6668  71.212  85.563  84.806
 1028DT     BB2 6669  71.559  85.621  84.882
 1028DT     BB3 6670  71.630  85.471  85.006
 1028DT     SC1 6671  71.504  85.572  85.213
 1028DT     SC2 6672  71.647  85.653  85.352
 1028DT     SC3 6673  71.334  85.593  85.414
 1029DC     BB1 6674  71.774  85.374  84.799
 1029DC     BB2 6675  72.018  85.438  85.057
 1029DC     BB3 6676  72.033  85.275  85.183
 1029DC     SC1 6677  71.804  85.333  85.298
 1029DC     SC2 6678  71.841  85.399  85.500
 1029DC     SC3 6679  71.554  85.312  85.377
 1030DT     BB1 6680  72.273  85.225  85.075
 1030DT     BB2 6681  72.336  85.255  85.429
 1030DT     BB3 6682  72.303  85.073  85.522
 1030DT     SC1 6683  72.043  85.102  85.503
 1030DT     SC2 6684  71.960  85.134  85.699
 1030DT     SC3 6685  71.793  85.057  85.432
 1031DT     BB1 6686  72.571  85.043  85.556
 1031DT     BB2 6687  72.435  85.012  85.889
 1031DT     BB3 6688  72.379  84.816  85.924
 1031DT     SC1 6689  72.166  84.841  85.773
 1031DT     SC2 6690  71.990  84.836  85.896
 1031DT     SC3 6691  71.998  84.803  85.573
 1032DG     BB1 6692  72.650  84.911  86.215
 1032DG     BB2 6693  72.349  84.770  86.357
 1032DG     BB3 6694  72.349  84.572  86.335
 1032DG     SC1 6695  72.209  84.578  86.063
 1032DG     SC2 6696  71.935  84.475  86.004
 1032DG     SC3 6697  72.075  84.548  85.755
 1032DG     SC4 6698  72.298  84.591  85.930
 1033DA     BB1 6699  72.291  84.538  86.679
 1033DA     BB2 6700  71.980  84.356  86.611
 1033DA     BB3 6701  72.022  84.155  86.553
 1033DA     SC1 6702  72.037  84.219  86.249
 1033DA     SC2 6703  71.903  84.173  86.044
 1033DA     SC3 6704  72.119  84.227  85.916
 1033DA     SC4 6705  72.181  84.256  86.187
 1034DC     BB1 6706  71.972  83.984  86.675
 1034DC     BB2 6707  71.696  83.868  86.474
 1034DC     BB3 6708  71.749  83.695  86.373
 1034DC     SC1 6709  71.897  83.831  86.203
 1034DC     SC2 6710  71.804  83.827  86.009
 1034DC     SC3 6711  72.109  83.917  86.073
 1035DC     BB1 6712  71.600  83.516  86.534
 1035DC     BB2 6713  71.479  83.451  86.201
 1035DC     BB3 6714  71.591  83.301  86.113
 1035DC     SC1 6715  71.794  83.462  86.075
 1035DC     SC2 6716  71.817  83.501  85.865
 1035DC     SC3 6717  72.036  83.565  86.094
 1036DT     BB1 6718  71.395  83.093  86.133
 1036DT     BB2 6719  71.468  83.107  85.780
 1036DT     BB3 6720  71.619  82.973  85.734
 1036DT     SC1 6721  71.801  83.129  85.841
 1036DT     SC2 6722  71.926  83.210  85.686
 1036DT     SC3 6723  71.991  83.213  86.004
 1037DT     BB1 6724  71.449  82.789  85.605
 1037DT     BB2 6725  71.691  82.881  85.353
 1037DT     BB3 6726  71.852  82.751  85.359
 1037DT     SC1 6727  71.944  82.864  85.577
 1037DT     SC2 6728  72.126  82.970  85.531
 1037DT     SC3 6729  72.020  82.894  85.828
 1038DA     BB1 6730  71.711  82.766  84.966
 1038DA     BB2 6731  72.071  82.834  84.961
 1038DA     BB3 6732  72.182  82.655  84.995
 1038DA     SC1 6733  72.192  82.689  85.304
 1038DA     SC2 6734  72.362  82.740  85.479
 1038DA     SC3 6735  72.195  82.636  85.643
 1038DA     SC4 6736  72.075  82.620  85.390
 1039DC     BB1 6737  72.282  82.616  84.848
 1039DC     BB2 6738  72.597  82.723  84.988
 1039DC     BB3 6739  72.705  82.558  85.053
 1039DC     SC1 6740  72.550  82.530  85.263
 1039DC     SC2 6741  72.660  82.581  85.440
 1039DC     SC3 6742  72.377  82.424  85.431
 1040DC     BB1 6743  72.841  82.653  84.859
 1040DC     BB2 6744  73.054  82.665  85.151
 1040DC     BB3 6745  73.124  82.476  85.195
 1040DC     SC1 6746  72.891  82.403  85.291
 1040DC     SC2 6747  72.907  82.378  85.504
 1040DC     SC3 6748  72.664  82.272  85.317
 1041DT     BB1 6749  73.319  82.626  85.133
 1041DT     BB2 6750  73.385  82.500  85.465
 1041DT     BB3 6751  73.433  82.298  85.455
 1041DT     SC1 6752  73.183  82.233  85.412
 1041DT     SC2 6753  73.105  82.130  85.585
 1041DT     SC3 6754  72.968  82.138  85.292
 1042DC     BB1 6755  73.643  82.418  85.535
 1042DC     BB2 6756  73.571  82.162  85.779
 1042DC     BB3 6757  73.616  81.975  85.701
 1042DC     SC1 6758  73.402  81.979  85.549
 1042DC     SC2 6759  73.261  81.833  85.621
 1042DC     SC3 6760  73.251  81.980  85.333
 1043DT     BB1 6761  73.812  81.983  85.874
 1043DT     BB2 6762  73.642  81.672  85.939
 1043DT     BB3 6763  73.701  81.529  85.802
 1043DT     SC1 6764  73.558  81.640  85.613
 1043DT     SC2 6765  73.392  81.512  85.564
 1043DT     SC3 6766  73.497  81.762  85.387
 1044DA     BB1 6767  73.765  81.344  86.175
 1044DA     BB2 6768  73.597  81.100  85.960
 1044DA     BB3 6769  73.732  81.023  85.814
 1044DA     SC1 6770  73.664  81.240  85.602
 1044DA     SC2 6771  73.548  81.252  85.381
 1044DA     SC3 6772  73.678  81.472  85.348
 1044DA     SC4 6773  73.754  81.373  85.599
 1045DT     BB1 6774  73.816  80.812  85.805
 1045DT     BB2 6775  73.625  80.700  85.520
 1045DT     BB3 6776  73.750  80.677  85.356
 1045DT     SC1 6777  73.767  80.936  85.322
 1045DT     SC2 6778  73.663  80.992  85.142
 1045DT     SC3 6779  73.870  81.178  85.306
 1046DT     BB1 6780  73.759  80.392  85.358
 1046DT     BB2 6781  73.646  80.470  85.025
 1046DT     BB3 6782  73.808  80.485  84.897
 1046DT     SC1 6783  73.874  80.719  84.996
 1046DT     SC2 6784  73.838  80.872  84.849
 1046DT     SC3 6785  74.015  80.905  85.119
 1047DG     BB1 6786  73.589  80.182  84.729
 1047DG     BB2 6787  73.660  80.439  84.485
 1047DG     BB3 6788  73.843  80.414  84.412
 1047DG     SC1 6789  73.979  80.589  84.625
 1047DG     SC2 6790  74.113  80.851  84.577
 1047DG     SC3 6791  74.162  80.756  84.853
 1047DG     SC4 6792  74.027  80.521  84.761
 1048DA     BB1 6793  73.709  80.422  84.091
 1048DA     BB2 6794  73.910  80.717  84.010
 1048DA     BB3 6795  74.111  80.659  83.965
 1048DA     SC1 6796  74.210  80.688  84.259
 1048DA     SC2 6797  74.359  80.839  84.390
 1048DA     SC3 6798  74.370  80.648  84.560
 1048DA     SC4 6799  74.205  80.557  84.352
 1049DA     BB1 6800  74.046  80.830  83.693
 1049DA     BB2 6801  74.318  81.055  83.792
 1049DA     BB3 6802  74.507  80.963  83.754
 1049DA     SC1 6803  74.529  80.833  84.035
 1049DA     SC2 6804  74.666  80.861  84.242
 1049DA     SC3 6805  74.591  80.623  84.299
 1049DA     SC4 6806  74.472  80.684  84.053
 1050DC     BB1 6807  74.627  81.045  83.612
 1050DC     BB2 6808  74.867  81.193  83.837
 1050DC     BB3 6809  75.041  81.082  83.837
 1050DC     SC1 6810  74.930  80.892  83.981
 1050DC     SC2 6811  75.016  80.892  84.178
 1050DC     SC3 6812  74.835  80.656  84.050
 1051DG     BB1 6813  75.156  81.456  83.720
 1051DG     BB2 6814  75.358  81.339  83.997
 1051DG     BB3 6815  75.498  81.215  83.931
 1051DG     SC1 6816  75.326  80.964  83.960
 1051DG     SC2 6817  75.373  80.740  84.152
 1051DG     SC3 6818  75.159  80.671  83.960
 1051DG     SC4 6819  75.233  80.919  83.837
 1052DA     BB1 6820  75.740  81.408  84.093
 1052DA     BB2 6821  75.838  81.120  84.298
 1052DA     BB3 6822  75.964  80.989  84.186
 1052DA     SC1 6823  75.728  80.817  84.077
 1052DA     SC2 6824  75.639  80.586  84.109
 1052DA     SC3 6825  75.521  80.623  83.883
 1052DA     SC4 6826  75.665  80.858  83.936
 1053DT     BB1 6827  76.171  80.960  84.235
 1053DT     BB2 6828  76.132  80.632  84.381
 1053DT     BB3 6829  76.214  80.489  84.256
 1053DT     SC1 6830  76.011  80.507  84.089
 1053DT     SC2 6831  75.895  80.327  84.098
 1053DT     SC3 6832  75.876  80.554  83.868
 1054DA     BB1 6833  76.383  80.428  84.633
 1054DA     BB2 6834  76.259  80.105  84.513
 1054DA     BB3 6835  76.388  80.027  84.363
 1054DA     SC1 6836  76.234  80.159  84.127
 1054DA     SC2 6837  76.089  80.087  83.938
 1054DA     SC3 6838  76.148  80.314  83.833
 1054DA     SC4 6839  76.284  80.304  84.078
 1055DA     BB1 6840  76.374  79.777  84.571
 1055DA     BB2 6841  76.229  79.583  84.296
 1055DA     BB3 6842  76.379  79.532  84.154
 1055DA     SC1 6843  76.337  79.787  83.980
 1055DA     SC2 6844  76.247  79.844  83.755
 1055DA     SC3 6845  76.381  80.061  83.779
 1055DA     SC4 6846  76.429  79.915  84.013
 1056DT     BB1 6847  76.411  79.345  84.141
 1056DT     BB2 6848  76.251  79.292  83.822
 1056DT     BB3 6849  76.393  79.278  83.673
 1056DT     SC1 6850  76.437  79.536  83.678
 1056DT     SC2 6851  76.363  79.625  83.497
 1056DT     SC3 6852  76.563  79.766  83.710
 1057DT     BB1 6853  76.323  79.023  83.664
 1057DT     BB2 6854  76.274  79.145  83.328
 1057DT     BB3 6855  76.454  79.142  83.225
 1057DT     SC1 6856  76.541  79.352  83.355
 1057DT     SC2 6857  76.552  79.520  83.221
 1057DT     SC3 6858  76.690  79.501  83.514
 1058DT     BB1 6859  76.350  78.941  83.086
 1058DT     BB2 6860  76.448  79.183  82.837
 1058DT     BB3 6861  76.649  79.161  82.793
 1058DT     SC1 6862  76.719  79.273  83.020
 1058DT     SC2 6863  76.807  79.465  82.980
 1058DT     SC3 6864  76.824  79.302  83.260
 1059DT     BB1 6865  76.584  79.053  82.552
 1059DT     BB2 6866  76.807  79.325  82.470
 1059DT     BB3 6867  77.004  79.261  82.480
 1059DT     SC1 6868  76.999  79.261  82.742
 1059DT     SC2 6869  77.125  79.420  82.816
 1059DT     SC3 6870  77.008  79.173  82.991
 1060DT     BB1 6871  77.041  79.250  82.201
 1060DT     BB2 6872  77.314  79.458  82.313
 1060DT     BB3 6873  77.479  79.340  82.356
 1060DT     SC1 6874  77.370  79.255  82.579
 1060DT     SC2 6875  77.477  79.337  82.747
 1060DT     SC3 6876  77.267  79.091  82.758
 1061DT     BB1 6877  77.643  79.395  82.119
 1061DT     BB2 6878  77.867  79.474  82.391
 1061DT     BB3 6879  77.984  79.309  82.436
 1061DT     SC1 6880  77.782  79.189  82.554
 1061DT     SC2 6881  77.819  79.180  82.766
 1061DT     SC3 6882  77.595  79.010  82.605
 1062DA     BB1 6883  78.282  79.598  82.366
 1062DA     BB2 6884  78.362  79.440  82.686
 1062DA     BB3 6885  78.453  79.249  82.654
 1062DA     SC1 6886  78.184  79.093  82.657
 1062DA     SC2 6887  78.066  78.931  82.806
 1062DA     SC3 6888  77.929  78.871  82.598
 1062DA     SC4 6889  78.110  79.069  82.517
 1063DA     BB1 6890  78.708  79.356  82.840
 1063DA     BB2 6891  78.627  79.091  83.079
 1063DA     BB3 6892  78.708  78.904  83.013
 1063DA     SC1 6893  78.453  78.822  82.855
 1063DA     SC2 6894  78.270  78.654  82.874
 1063DA     SC3 6895  78.233  78.696  82.623
 1063DA     SC4 6896  78.446  78.862  82.699
 1064DT     BB1 6897  78.868  78.802  83.118
 1064DT     BB2 6898  78.660  78.547  83.267
 1064DT     BB3 6899  78.697  78.364  83.177
 1064DT     SC1 6900  78.565  78.434  82.962
 1064DT     SC2 6901  78.383  78.320  82.950
 1064DT     SC3 6902  78.515  78.494  82.710
 1065DA     BB1 6903  78.744  78.297  83.589
 1065DA     BB2 6904  78.518  78.038  83.459
 1065DA     BB3 6905  78.628  77.891  83.350
 1065DA     SC1 6906  78.600  78.037  83.077
 1065DA     SC2 6907  78.481  78.001  82.860
 1065DA     SC3 6908  78.653  78.164  82.762
 1065DA     SC4 6909  78.717  78.139  83.034
 1066DA     BB1 6910  78.479  77.685  83.558
 1066DA     BB2 6911  78.317  77.536  83.265
 1066DA     BB3 6912  78.454  77.407  83.162
 1066DA     SC1 6913  78.561  77.631  82.974
 1066DA     SC2 6914  78.549  77.690  82.733
 1066DA     SC3 6915  78.758  77.833  82.778
 1066DA     SC4 6916  78.691  77.712  83.022
 1067DT     BB1 6917  78.417  77.204  83.157
 1067DT     BB2 6918  78.304  77.195  82.814
 1067DT     BB3 6919  78.448  77.107  82.694
 1067DT     SC1 6920  78.598  77.322  82.704
 1067DT     SC2 6921  78.600  77.417  82.511
 1067DT     SC3 6922  78.804  77.479  82.755
 1068DA     BB1 6923  78.080  76.922  82.626
 1068DA     BB2 6924  78.220  77.020  82.302
 1068DA     BB3 6925  78.383  76.892  82.250
 1068DA     SC1 6926  78.598  77.072  82.384
 1068DA     SC2 6927  78.786  77.220  82.313
 1068DA     SC3 6928  78.874  77.190  82.552
 1068DA     SC4 6929  78.637  77.040  82.537
 1069DA     BB1 6930  78.183  76.892  81.996
 1069DA     BB2 6931  78.465  77.034  81.808
 1069DA     BB3 6932  78.615  76.886  81.777
 1069DA     SC1 6933  78.770  76.954  82.038
 1069DA     SC2 6934  78.988  77.058  82.102
 1069DA     SC3 6935  78.955  76.940  82.327
 1069DA     SC4 6936  78.733  76.872  82.171
 1070DA     BB1 6937  78.538  77.041  81.502
 1070DA     BB2 6938  78.892  77.134  81.493
 1070DA     BB3 6939  79.014  76.960  81.465
 1070DA     SC1 6940  79.048  76.905  81.769
 1070DA     SC2 6941  79.231  76.916  81.939
 1070DA     SC3 6942  79.083  76.758  82.077
 1070DA     SC4 6943  78.943  76.806  81.839
 1071DT     BB1 6944  79.081  77.006  81.326
 1071DT     BB2 6945  79.415  77.060  81.450
 1071DT     BB3 6946  79.522  76.883  81.447
 1071DT     SC1 6947  79.392  76.792  81.656
 1071DT     SC2 6948  79.525  76.783  81.825
 1071DT     SC3 6949  79.235  76.640  81.804
 1072DT     BB1 6950  79.641  77.025  81.270
 1072DT     BB2 6951  79.897  76.918  81.501
 1072DT     BB3 6952  79.943  76.719  81.469
 1072DT     SC1 6953  79.719  76.641  81.582
 1072DT     SC2 6954  79.764  76.544  81.769
 1072DT     SC3 6955  79.481  76.531  81.612
 1073DA     BB1 6956  80.305  76.933  81.473
 1073DA     BB2 6957  80.351  76.630  81.673
 1073DA     BB3 6958  80.356  76.458  81.547
 1073DA     SC1 6959  80.049  76.407  81.563
 1073DA     SC2 6960  79.895  76.239  81.663
 1073DA     SC3 6961  79.723  76.326  81.494
 1073DA     SC4 6962  79.957  76.474  81.449
 1074DG     BB1 6963  80.655  76.390  81.639
 1074DG     BB2 6964  80.508  76.084  81.765
 1074DG     BB3 6965  80.499  75.949  81.620
 1074DG     SC1 6966  80.221  76.034  81.523
 1074DG     SC2 6967  79.972  75.871  81.542
 1074DG     SC3 6968  79.927  76.114  81.379
 1074DG     SC4 6969  80.210  76.149  81.413
 1075DC     BB1 6970  80.622  75.723  81.591
 1075DC     BB2 6971  80.354  75.493  81.664
 1075DC     BB3 6972  80.298  75.393  81.491
 1075DC     SC1 6973  80.174  75.605  81.399
 1075DC     SC2 6974  79.962  75.570  81.400
 1075DC     SC3 6975  80.114  75.809  81.243
 1076DA     BB1 6976  80.385  75.065  81.741
 1076DA     BB2 6977  80.053  75.003  81.598
 1076DA     BB3 6978  80.071  74.930  81.399
 1076DA     SC1 6979  80.061  75.212  81.268
 1076DA     SC2 6980  79.904  75.345  81.128
 1076DA     SC3 6981  80.110  75.486  81.067
 1076DA     SC4 6982  80.201  75.286  81.241
 1077DG     BB1 6983  79.928  74.663  81.490
 1077DG     BB2 6984  79.665  74.779  81.271
 1077DG     BB3 6985  79.699  74.716  81.085
 1077DG     SC1 6986  79.863  74.962  81.006
 1077DG     SC2 6987  79.784  75.168  80.805
 1077DG     SC3 6988  80.065  75.207  80.891
 1077DG     SC4 6989  80.021  74.961  81.031
 1078DA     BB1 6990  79.376  74.598  81.098
 1078DA     BB2 6991  79.285  74.816  80.818
 1078DA     BB3 6992  79.356  74.734  80.634
 1078DA     SC1 6993  79.629  74.882  80.645
 1078DA     SC2 6994  79.744  75.067  80.523
 1078DA     SC3 6995  79.960  74.969  80.620
 1078DA     SC4 6996  79.753  74.806  80.714
 1079DA     BB1 6997  79.040  74.792  80.582
 1079DA     BB2 6998  79.151  75.018  80.315
 1079DA     BB3 6999  79.228  74.906  80.150
 1079DA     SC1 7000  79.521  74.905  80.255
 1079DA     SC2 7001  79.739  75.008  80.193
 1079DA     SC3 7002  79.844  74.822  80.334
 1079DA     SC4 7003  79.567  74.781  80.346
 1080DA     BB1 7004  79.009  75.108  80.016
 1080DA     BB2 7005  79.287  75.236  79.814
 1080DA     BB3 7006  79.346  75.091  79.669
 1080DA     SC1 7007  79.558  74.958  79.854
 1080DA     SC2 7008  79.807  74.940  79.867
 1080DA     SC3 7009  79.764  74.736  80.016
 1080DA     SC4 7010  79.511  74.833  79.943
 1081DT     BB1 7011  79.315  75.143  79.488
 1081DT     BB2 7012  79.659  75.198  79.393
 1081DT     BB3 7013  79.729  75.036  79.286
 1081DT     SC1 7014  79.748  74.891  79.505
 1081DT     SC2 7015  79.955  74.857  79.551
 1081DT     SC3 7016  79.704  74.697  79.678
 1082DG     BB1 7017  79.774  75.353  79.033
 1082DG     BB2 7018  80.081  75.163  79.058
 1082DG     BB3 7019  80.070  75.001  78.943
 1082DG     SC1 7020  79.951  74.824  79.163
 1082DG     SC2 7021  80.086  74.590  79.292
 1082DG     SC3 7022  79.802  74.607  79.374
 1082DG     SC4 7023  79.792  74.818  79.181
 1083DT     BB1 7024  80.204  74.953  78.750
 1083DT     BB2 7025  80.425  74.698  78.879
 1083DT     BB3 7026  80.374  74.514  78.799
 1083DT     SC1 7027  80.163  74.497  78.954
 1083DT     SC2 7028  80.194  74.343  79.101
 1083DT     SC3 7029  79.910  74.481  79.028
 1084DT     BB1 7030  80.594  74.500  78.623
 1084DT     BB2 7031  80.622  74.197  78.818
 1084DT     BB3 7032  80.520  74.043  78.724
 1084DT     SC1 7033  80.288  74.142  78.795
 1084DT     SC2 7034  80.198  74.013  78.942
 1084DT     SC3 7035  80.047  74.248  78.777
 1085DC     BB1 7036  80.755  73.919  78.646
 1085DC     BB2 7037  80.580  73.666  78.835
 1085DC     BB3 7038  80.458  73.556  78.709
 1085DC     SC1 7039  80.284  73.753  78.693
 1085DC     SC2 7040  80.104  73.698  78.796
 1085DC     SC3 7041  80.137  73.946  78.590
 1086DG     BB1 7042  80.710  73.291  78.885
 1086DG     BB2 7043  80.366  73.187  78.922
 1086DG     BB3 7044  80.302  73.102  78.754
 1086DG     SC1 7045  80.203  73.363  78.630
 1086DG     SC2 7046  79.918  73.433  78.574
 1086DG     SC3 7047  80.101  73.634  78.457
 1086DG     SC4 7048  80.304  73.452  78.544
 1087DT     BB1 7049  80.240  72.891  78.753
 1087DT     BB2 7050  79.881  72.918  78.724
 1087DT     BB3 7051  79.822  72.876  78.530
 1087DT     SC1 7052  79.909  73.109  78.446
 1087DT     SC2 7053  79.741  73.233  78.392
 1087DT     SC3 7054  80.051  73.288  78.314
 1088DT     BB1 7055  79.720  72.633  78.605
 1088DT     BB2 7056  79.444  72.795  78.439
 1088DT     BB3 7057  79.451  72.756  78.236
 1088DT     SC1 7058  79.650  72.924  78.203
 1088DT     SC2 7059  79.581  73.096  78.093
 1088DT     SC3 7060  79.891  73.015  78.146
 1089DT     BB1 7061  79.238  72.566  78.232
 1089DT     BB2 7062  79.138  72.806  77.982
 1089DT     BB3 7063  79.209  72.749  77.796
 1089DT     SC1 7064  79.453  72.821  77.857
 1089DT     SC2 7065  79.508  72.995  77.742
 1089DT     SC3 7066  79.712  72.805  77.908
 1090DT     BB1 7067  78.963  72.638  77.668
 1090DT     BB2 7068  79.074  72.882  77.426
 1090DT     BB3 7069  79.187  72.790  77.280
 1090DT     SC1 7070  79.392  72.766  77.443
 1090DT     SC2 7071  79.550  72.898  77.379
 1090DT     SC3 7072  79.579  72.655  77.592
 1091DA     BB1 7073  78.896  72.954  77.017
 1091DA     BB2 7074  79.222  73.051  76.880
 1091DA     BB3 7075  79.304  72.891  76.765
 1091DA     SC1 7076  79.456  72.763  77.004
 1091DA     SC2 7077  79.692  72.733  77.078
 1091DA     SC3 7078  79.601  72.544  77.226
 1091DA     SC4 7079  79.380  72.648  77.087
 1092DT     BB1 7080  79.338  72.893  76.536
 1092DT     BB2 7081  79.693  72.951  76.558
 1092DT     BB3 7082  79.796  72.784  76.491
 1092DT     SC1 7083  79.741  72.653  76.712
 1092DT     SC2 7084  79.922  72.627  76.826
 1092DT     SC3 7085  79.643  72.469  76.873
 1093DT     BB1 7086  79.873  72.916  76.263
 1093DT     BB2 7087  80.182  72.827  76.426
 1093DT     BB3 7088  80.242  72.638  76.365
 1093DT     SC1 7089  80.059  72.523  76.513
 1093DT     SC2 7090  80.153  72.420  76.677
 1093DT     SC3 7091  79.846  72.381  76.579
 1094DT     BB1 7092  80.437  72.767  76.241
 1094DT     BB2 7093  80.602  72.544  76.471
 1094DT     BB3 7094  80.619  72.356  76.387
 1094DT     SC1 7095  80.364  72.307  76.426
 1094DT     SC2 7096  80.342  72.157  76.578
 1094DT     SC3 7097  80.111  72.255  76.374
 1095DA     BB1 7098  80.976  72.499  76.558
 1095DA     BB2 7099  80.916  72.158  76.677
 1095DA     BB3 7100  80.939  72.018  76.518
 1095DA     SC1 7101  80.640  72.028  76.433
 1095DA     SC2 7102  80.441  71.877  76.439
 1095DA     SC3 7103  80.345  72.030  76.257
 1095DA     SC4 7104  80.598  72.134  76.319
 1096DT     BB1 7105  81.077  71.911  76.555
 1096DT     BB2 7106  80.887  71.612  76.627
 1096DT     BB3 7107  80.878  71.492  76.459
 1096DT     SC1 7108  80.704  71.650  76.344
 1096DT     SC2 7109  80.513  71.551  76.334
 1096DT     SC3 7110  80.598  71.818  76.171
 1097DT     BB1 7111  81.040  71.329  76.592
 1097DT     BB2 7112  80.757  71.125  76.502
 1097DT     BB3 7113  80.779  71.056  76.309
 1097DT     SC1 7114  80.719  71.291  76.209
 1097DT     SC2 7115  80.527  71.282  76.113
 1097DT     SC3 7116  80.745  71.519  76.080
 1098DG     BB1 7117  80.742  70.725  76.545
 1098DG     BB2 7118  80.512  70.713  76.266
 1098DG     BB3 7119  80.609  70.660  76.101
 1098DG     SC1 7120  80.680  70.947  76.021
 1098DG     SC2 7121  80.576  71.093  75.782
 1098DG     SC3 7122  80.792  71.246  75.914
 1098DG     SC4 7123  80.815  71.011  76.076
 1099DA     BB1 7124  80.377  70.402  76.046
 1099DA     BB2 7125  80.286  70.548  75.722
 1099DA     BB3 7126  80.434  70.500  75.575
 1099DA     SC1 7127  80.603  70.756  75.629
 1099DA     SC2 7128  80.659  70.968  75.511
 1099DA     SC3 7129  80.859  70.981  75.671
 1099DA     SC4 7130  80.722  70.745  75.736
 1100DC     BB1 7131  80.396  70.369  75.407
 1100DC     BB2 7132  80.381  70.626  75.155
 1100DC     BB3 7133  80.549  70.618  75.035
 1100DC     SC1 7134  80.698  70.724  75.223
 1100DC     SC2 7135  80.757  70.923  75.165
 1100DC     SC3 7136  80.888  70.749  75.405
 1101DT     BB1 7137  80.413  70.511  74.817
 1101DT     BB2 7138  80.562  70.813  74.687
 1101DT     BB3 7139  80.750  70.772  74.612
 1101DT     SC1 7140  80.851  70.751  74.853
 1101DT     SC2 7141  80.983  70.918  74.890
 1101DT     SC3 7142  80.966  70.646  75.066
 1102DA     BB1 7143  80.542  70.971  74.308
 1102DA     BB2 7144  80.865  71.138  74.349
 1102DA     BB3 7145  81.022  71.020  74.266
 1102DA     SC1 7146  81.080  70.867  74.530
 1102DA     SC2 7147  81.262  70.855  74.700
 1102DA     SC3 7148  81.160  70.629  74.764
 1102DA     SC4 7149  81.003  70.728  74.554
 1103DC     BB1 7150  81.122  71.091  74.102
 1103DC     BB2 7151  81.424  71.182  74.276
 1103DC     BB3 7152  81.575  71.047  74.232
 1103DC     SC1 7153  81.467  70.865  74.387
 1103DC     SC2 7154  81.591  70.835  74.560
 1103DC     SC3 7155  81.352  70.640  74.463
 1104DA     BB1 7156  81.720  71.434  74.166
 1104DA     BB2 7157  81.964  71.255  74.372
 1104DA     BB3 7158  82.070  71.111  74.255
 1104DA     SC1 7159  81.869  70.880  74.314
 1104DA     SC2 7160  81.866  70.666  74.442
 1104DA     SC3 7161  81.667  70.603  74.293
 1104DA     SC4 7162  81.748  70.859  74.211
 1105DT     BB1 7163  82.258  71.146  74.234
 1105DT     BB2 7164  82.376  70.888  74.457
 1105DT     BB3 7165  82.446  70.727  74.348
 1105DT     SC1 7166  82.202  70.651  74.289
 1105DT     SC2 7167  82.157  70.468  74.392
 1105DT     SC3 7168  81.987  70.594  74.147
 1106DA     BB1 7169  82.731  70.841  74.634
 1106DA     BB2 7170  82.686  70.478  74.654
 1106DA     BB3 7171  82.772  70.382  74.484
 1106DA     SC1 7172  82.510  70.393  74.316
 1106DA     SC2 7173  82.341  70.232  74.229
 1106DA     SC3 7174  82.280  70.418  74.062
 1106DA     SC4 7175  82.489  70.520  74.220
 1107DG     BB1 7176  82.936  70.245  74.706
 1107DG     BB2 7177  82.774  69.948  74.579
 1107DG     BB3 7178  82.865  69.886  74.414
 1107DG     SC1 7179  82.691  70.053  74.225
 1107DG     SC2 7180  82.496  69.946  74.026
 1107DG     SC3 7181  82.534  70.237  73.991
 1107DG     SC4 7182  82.736  70.203  74.191
 1108DT     BB1 7183  82.958  69.693  74.413
 1108DT     BB2 7184  82.734  69.501  74.205
 1108DT     BB3 7185  82.813  69.482  74.015
 1108DT     SC1 7186  82.753  69.731  73.957
 1108DT     SC2 7187  82.595  69.735  73.811
 1108DT     SC3 7188  82.784  69.985  73.893
 1109DG     BB1 7189  82.760  69.101  74.150
 1109DG     BB2 7190  82.612  69.144  73.823
 1109DG     BB3 7191  82.754  69.138  73.683
 1109DG     SC1 7192  82.809  69.439  73.690
 1109DG     SC2 7193  82.754  69.632  73.470
 1109DG     SC3 7194  82.910  69.761  73.686
 1109DG     SC4 7195  82.918  69.495  73.794
 1110DA     BB1 7196  82.574  68.890  73.511
 1110DA     BB2 7197  82.556  69.102  73.213
 1110DA     BB3 7198  82.742  69.098  73.108
 1110DA     SC1 7199  82.861  69.342  73.260
 1110DA     SC2 7200  82.921  69.579  73.210
 1110DA     SC3 7201  83.070  69.564  73.419
 1110DA     SC4 7202  82.948  69.312  73.392
 1111DT     BB1 7203  82.773  69.005  72.907
 1111DT     BB2 7204  82.799  69.312  72.719
 1111DT     BB3 7205  82.994  69.339  72.655
 1111DT     SC1 7206  83.072  69.407  72.896
 1111DT     SC2 7207  83.122  69.616  72.899
 1111DT     SC3 7208  83.200  69.399  73.127
 1112DC     BB1 7209  82.940  69.276  72.388
 1112DC     BB2 7210  83.085  69.606  72.372
 1112DC     BB3 7211  83.291  69.592  72.353
 1112DC     SC1 7212  83.318  69.524  72.605
 1112DC     SC2 7213  83.413  69.685  72.712
 1112DC     SC3 7214  83.376  69.381  72.819
 1113DA     BB1 7215  83.171  69.838  72.035
 1113DA     BB2 7216  83.443  70.009  72.211
 1113DA     BB3 7217  83.631  69.920  72.163
 1113DA     SC1 7218  83.622  69.717  72.399
 1113DA     SC2 7219  83.742  69.679  72.614
 1113DA     SC3 7220  83.653  69.439  72.598
 1113DA     SC4 7221  83.559  69.572  72.370
 1114DT     BB1 7222  83.765  70.030  72.060
 1114DT     BB2 7223  83.981  70.100  72.341
 1114DT     BB3 7224  84.153  69.986  72.328
 1114DT     SC1 7225  84.025  69.769  72.400
 1114DT     SC2 7226  84.090  69.710  72.596
 1114DT     SC3 7227  83.922  69.526  72.389
 1115DG     BB1 7228  84.246  70.381  72.353
 1115DG     BB2 7229  84.415  70.187  72.606
 1115DG     BB3 7230  84.567  70.088  72.525
 1115DG     SC1 7231  84.402  69.840  72.456
 1115DG     SC2 7232  84.433  69.569  72.577
 1115DG     SC3 7233  84.247  69.561  72.348
 1115DG     SC4 7234  84.327  69.834  72.315
 1116DA     BB1 7235  84.715  70.234  72.798
 1116DA     BB2 7236  84.811  69.900  72.915
 1116DA     BB3 7237  84.962  69.818  72.789
 1116DA     SC1 7238  84.761  69.679  72.597
 1116DA     SC2 7239  84.690  69.447  72.540
 1116DA     SC3 7240  84.602  69.549  72.322
 1116DA     SC4 7241  84.714  69.761  72.467
 1117DT     BB1 7242  85.105  69.797  72.888
 1117DT     BB2 7243  85.098  69.436  72.907
 1117DT     BB3 7244  85.219  69.355  72.760
 1117DT     SC1 7245  85.042  69.411  72.574
 1117DT     SC2 7246  84.956  69.228  72.501
 1117DT     SC3 7247  84.934  69.519  72.359
 1118DA     BB1 7248  85.306  69.182  73.134
 1118DA     BB2 7249  85.279  68.914  72.885
 1118DA     BB3 7250  85.443  68.922  72.749
 1118DA     SC1 7251  85.297  69.109  72.547
 1118DA     SC2 7252  85.202  69.093  72.317
 1118DA     SC3 7253  85.220  69.349  72.314
 1118DA     SC4 7254  85.318  69.267  72.563
 1119DT     BB1 7255  85.576  68.773  72.751
 1119DT     BB2 7256  85.487  68.620  72.437
 1119DT     BB3 7257  85.625  68.672  72.291
 1119DT     SC1 7258  85.527  68.914  72.273
 1119DT     SC2 7259  85.429  68.937  72.083
 1119DT     SC3 7260  85.512  69.178  72.284
 1120DT     BB1 7261  85.755  68.422  72.286
 1120DT     BB2 7262  85.667  68.478  71.941
 1120DT     BB3 7263  85.820  68.579  71.844
 1120DT     SC1 7264  85.756  68.805  71.962
 1120DT     SC2 7265  85.674  68.941  71.817
 1120DT     SC3 7266  85.775  69.019  72.115
 1121DC     BB1 7267  85.943  68.361  71.691
 1121DC     BB2 7268  85.871  68.606  71.437
 1121DC     BB3 7269  86.037  68.726  71.405
 1121DC     SC1 7270  85.997  68.855  71.630
 1121DC     SC2 7271  85.936  69.057  71.586
 1121DC     SC3 7272  86.038  68.947  71.874
 1122DT     BB1 7273  86.144  68.618  71.146
 1122DT     BB2 7274  86.095  68.969  71.075
 1122DT     BB3 7275  86.273  69.072  71.100
 1122DT     SC1 7276  86.253  69.058  71.361
 1122DT     SC2 7277  86.213  69.254  71.440
 1122DT     SC3 7278  86.308  68.996  71.611
 1123DT     BB1 7279  86.339  69.114  70.820
 1123DT     BB2 7280  86.324  69.448  70.956
 1123DT     BB3 7281  86.513  69.510  71.013
 1123DT     SC1 7282  86.509  69.356  71.225
 1123DT     SC2 7283  86.496  69.478  71.402
 1123DT     SC3 7284  86.573  69.164  71.394
 1124DG     BB1 7285  86.381  69.781  70.740
 1124DG     BB2 7286  86.475  69.942  71.050
 1124DG     BB3 7287  86.673  69.965  71.056
 1124DG     SC1 7288  86.725  69.694  71.189
 1124DG     SC2 7289  86.830  69.652  71.466
 1124DG     SC3 7290  86.820  69.397  71.316
 1124DG     SC4 7291  86.746  69.565  71.097
 1125DA     BB1 7292  86.580  70.284  71.132
 1125DA     BB2 7293  86.755  70.255  71.453
 1125DA     BB3 7294  86.966  70.266  71.425
 1125DA     SC1 7295  87.002  69.959  71.391
 1125DA     SC2 7296  87.103  69.770  71.518
 1125DA     SC3 7297  87.106  69.647  71.293
 1125DA     SC4 7298  86.997  69.900  71.241
 1126DT     BB1 7299  87.021  70.410  71.509
 1126DT     BB2 7300  87.182  70.242  71.785
 1126DT     BB3 7301  87.385  70.224  71.748
 1126DT     SC1 7302  87.344  70.033  71.573
 1126DT     SC2 7303  87.417  69.847  71.653
 1126DT     SC3 7304  87.339  69.903  71.344
 1127DA     BB1 7305  87.295  70.368  72.133
 1127DA     BB2 7306  87.550  70.106  72.161
 1127DA     BB3 7307  87.734  70.172  72.077
 1127DA     SC1 7308  87.672  70.064  71.792
 1127DA     SC2 7309  87.753  69.882  71.642
 1127DA     SC3 7310  87.648  70.020  71.453
 1127DA     SC4 7311  87.602  70.165  71.688
 1128DA     BB1 7312  87.819  70.063  72.375
 1128DA     BB2 7313  88.053  69.839  72.202
 1128DA     BB3 7314  88.213  69.951  72.117
 1128DA     SC1 7315  88.071  69.994  71.843
 1128DA     SC2 7316  88.096  69.916  71.608
 1128DA     SC3 7317  87.955  70.122  71.546
 1128DA     SC4 7318  87.983  70.127  71.826
 1129DC     BB1 7319  88.398  69.926  72.192
 1129DC     BB2 7320  88.545  69.751  71.913
 1129DC     BB3 7321  88.666  69.880  71.805
 1129DC     SC1 7322  88.456  69.999  71.699
 1129DC     SC2 7323  88.445  69.951  71.490
 1129DC     SC3 7324  88.282  70.188  71.640
 1130DA     BB1 7325  88.939  69.569  71.889
 1130DA     BB2 7326  88.977  69.649  71.533
 1130DA     BB3 7327  89.089  69.829  71.509
 1130DA     SC1 7328  88.838  70.013  71.511
 1130DA     SC2 7329  88.712  70.155  71.349
 1130DA     SC3 7330  88.618  70.273  71.557
 1130DA     SC4 7331  88.792  70.074  71.652
 1131DA     BB1 7332  89.333  69.686  71.313
 1131DA     BB2 7333  89.240  69.912  71.040
 1131DA     BB3 7334  89.340  70.099  71.061
 1131DA     SC1 7335  89.113  70.229  71.230
 1131DA     SC2 7336  88.940  70.407  71.201
 1131DA     SC3 7337  88.933  70.412  71.458
 1131DA     SC4 7338  89.124  70.218  71.390
 1132DT     BB1 7339  89.510  70.191  70.924
 1132DT     BB2 7340  89.298  70.430  70.757
 1132DT     BB3 7341  89.350  70.622  70.813
 1132DT     SC1 7342  89.237  70.593  71.048
 1132DT     SC2 7343  89.061  70.716  71.059
 1132DT     SC3 7344  89.209  70.574  71.310
 1133DC     BB1 7345  89.474  70.688  70.570
 1133DC     BB2 7346  89.215  70.936  70.608
 1133DC     BB3 7347  89.289  71.101  70.709
 1133DC     SC1 7348  89.285  70.972  70.938
 1133DC     SC2 7349  89.132  71.055  71.064
 1133DC     SC3 7350  89.371  70.857  71.159
 1134DT     BB1 7351  89.284  71.249  70.480
 1134DT     BB2 7352  89.072  71.429  70.710
 1134DT     BB3 7353  89.185  71.559  70.824
 1134DT     SC1 7354  89.281  71.362  70.969
 1134DT     SC2 7355  89.201  71.375  71.168
 1134DT     SC3 7356  89.454  71.194  71.075
 1135DT     BB1 7357  89.070  71.756  70.687
 1135DT     BB2 7358  88.988  71.821  71.032
 1135DT     BB3 7359  89.143  71.924  71.123
 1135DT     SC1 7360  89.291  71.707  71.134
 1135DT     SC2 7361  89.310  71.644  71.339
 1135DT     SC3 7362  89.490  71.541  71.090
 1136DG     BB1 7363  88.799  72.139  71.162
 1136DG     BB2 7364  88.960  72.085  71.481
 1136DG     BB3 7365  89.116  72.206  71.500
 1136DG     SC1 7366  89.315  72.010  71.375
 1136DG     SC2 7367  89.541  71.875  71.516
 1136DG     SC3 7368  89.555  71.828  71.224
 1136DG     SC4 7369  89.336  72.011  71.216
 1137DA     BB1 7370  88.971  72.291  71.803
 1137DA     BB2 7371  89.275  72.180  71.976
 1137DA     BB3 7372  89.432  72.321  71.949
 1137DA     SC1 7373  89.543  72.185  71.692
 1137DA     SC2 7374  89.745  72.056  71.624
 1137DA     SC3 7375  89.681  72.121  71.384
 1137DA     SC4 7376  89.487  72.237  71.550
 1138DA     BB1 7377  89.435  72.306  72.277
 1138DA     BB2 7378  89.779  72.183  72.248
 1138DA     BB3 7379  89.912  72.343  72.199
 1138DA     SC1 7380  89.884  72.304  71.891
 1138DA     SC2 7381  90.026  72.225  71.702
 1138DA     SC3 7382  89.860  72.351  71.552
 1138DA     SC4 7383  89.771  72.389  71.815
 1139DT     BB1 7384  90.051  72.399  72.335
 1139DT     BB2 7385  90.333  72.249  72.166
 1139DT     BB3 7386  90.447  72.396  72.076
 1139DT     SC1 7387  90.270  72.427  71.885
 1139DT     SC2 7388  90.351  72.353  71.699
 1139DT     SC3 7389  90.088  72.541  71.731
 1140DC     BB1 7390  90.636  72.351  72.261
 1140DC     BB2 7391  90.797  72.287  71.945
 1140DC     BB3 7392  90.869  72.464  71.865
 1140DC     SC1 7393  90.628  72.541  71.797
 1140DC     SC2 7394  90.610  72.538  71.583
 1140DC     SC3 7395  90.406  72.683  71.789
 1141DT     BB1 7396  91.103  72.358  71.919
 1141DT     BB2 7397  91.101  72.416  71.563
 1141DT     BB3 7398  91.149  72.614  71.523
 1141DT     SC1 7399  90.912  72.695  71.601
 1141DT     SC2 7400  90.801  72.764  71.430
 1141DT     SC3 7401  90.725  72.817  71.740
 1142DG     BB1 7402  91.377  72.336  71.327
 1142DG     BB2 7403  91.229  72.579  71.103
 1142DG     BB3 7404  91.318  72.755  71.126
 1142DG     SC1 7405  91.127  72.851  71.344
 1142DG     SC2 7406  90.931  73.076  71.320
 1142DG     SC3 7407  90.948  72.981  71.600
 1142DG     SC4 7408  91.160  72.818  71.497
 1143DG     BB1 7409  91.358  72.711  70.808
 1143DG     BB2 7410  91.163  73.014  70.773
 1143DG     BB3 7411  91.275  73.172  70.820
 1143DG     SC1 7412  91.201  73.167  71.117
 1143DG     SC2 7413  91.040  73.374  71.261
 1143DG     SC3 7414  91.157  73.180  71.451
 1143DG     SC4 7415  91.288  73.079  71.217
 1144DC     BB1 7416  91.294  73.302  70.669
 1144DC     BB2 7417  91.088  73.577  70.778
 1144DC     BB3 7418  91.205  73.720  70.871
 1144DC     SC1 7419  91.228  73.572  71.086
 1144DC     SC2 7420  91.119  73.663  71.248
 1144DC     SC3 7421  91.338  73.426  71.277
 1145DA     BB1 7422  90.962  73.901  70.579
 1145DA     BB2 7423  90.935  74.094  70.890
 1145DA     BB3 7424  91.117  74.198  70.929
 1145DA     SC1 7425  91.240  73.967  71.097
 1145DA     SC2 7426  91.298  73.924  71.336
 1145DA     SC3 7427  91.453  73.741  71.244
 1145DA     SC4 7428  91.331  73.859  71.020
 1146DA     BB1 7429  90.896  74.440  70.947
 1146DA     BB2 7430  91.011  74.487  71.292
 1146DA     BB3 7431  91.206  74.574  71.294
 1146DA     SC1 7432  91.354  74.300  71.295
 1146DA     SC2 7433  91.492  74.166  71.454
 1146DA     SC3 7434  91.577  74.044  71.244
 1146DA     SC4 7435  91.396  74.238  71.153
 1147DA     BB1 7436  91.038  74.775  71.491
 1147DA     BB2 7437  91.279  74.683  71.752
 1147DA     BB3 7438  91.469  74.770  71.711
 1147DA     SC1 7439  91.572  74.527  71.546
 1147DA     SC2 7440  91.742  74.346  71.571
 1147DA     SC3 7441  91.727  74.325  71.316
 1147DA     SC4 7442  91.550  74.530  71.387
 1148DA     BB1 7443  91.413  74.864  72.021
 1148DA     BB2 7444  91.722  74.686  72.106
 1148DA     BB3 7445  91.892  74.791  72.031
 1148DA     SC1 7446  91.895  74.641  71.758
 1148DA     SC2 7447  92.038  74.474  71.641
 1148DA     SC3 7448  91.924  74.557  71.427
 1148DA     SC4 7449  91.814  74.708  71.636
 1149DT     BB1 7450  92.010  74.863  72.165
 1149DT     BB2 7451  92.282  74.631  72.117
 1149DT     BB3 7452  92.431  74.719  72.003
 1149DT     SC1 7453  92.289  74.693  71.784
 1149DT     SC2 7454  92.380  74.546  71.656
 1149DT     SC3 7455  92.151  74.759  71.568
 1150DC     BB1 7456  92.588  74.738  72.222
 1150DC     BB2 7457  92.788  74.556  71.984
 1150DC     BB3 7458  92.887  74.689  71.859
 1150DC     SC1 7459  92.667  74.742  71.727
 1150DC     SC2 7460  92.681  74.660  71.529
 1150DC     SC3 7461  92.463  74.877  71.630
 1151DT     BB1 7462  93.137  74.650  71.978
 1151DT     BB2 7463  93.197  74.579  71.629
 1151DT     BB3 7464  93.249  74.753  71.530
 1151DT     SC1 7465  93.001  74.839  71.534
 1151DT     SC2 7466  92.921  74.836  71.335
 1151DT     SC3 7467  92.792  74.990  71.589
 1152DG     BB1 7468  93.585  74.524  71.468
 1152DG     BB2 7469  93.458  74.652  71.154
 1152DG     BB3 7470  93.522  74.839  71.126
 1152DG     SC1 7471  93.282  74.967  71.267
 1152DG     SC2 7472  93.072  75.135  71.137
 1152DG     SC3 7473  93.044  75.141  71.431
 1152DG     SC4 7474  93.289  74.991  71.425
 1153DA     BB1 7475  93.658  74.762  70.810
 1153DA     BB2 7476  93.433  75.003  70.648
 1153DA     BB3 7477  93.510  75.201  70.666
 1153DA     SC1 7478  93.363  75.260  70.934
 1153DA     SC2 7479  93.175  75.404  71.013
 1153DA     SC3 7480  93.276  75.372  71.247
 1153DA     SC4 7481  93.441  75.229  71.070
 1154DA     BB1 7482  93.486  75.214  70.336
 1154DA     BB2 7483  93.245  75.487  70.380
 1154DA     BB3 7484  93.347  75.670  70.420
 1154DA     SC1 7485  93.342  75.633  70.729
 1154DA     SC2 7486  93.230  75.736  70.926
 1154DA     SC3 7487  93.419  75.631  71.064
 1154DA     SC4 7488  93.469  75.560  70.797
 1155DA     BB1 7489  93.179  75.790  70.161
 1155DA     BB2 7490  93.019  76.025  70.393
 1155DA     BB3 7491  93.151  76.188  70.435
 1155DA     SC1 7492  93.280  76.051  70.682
 1155DA     SC2 7493  93.282  76.081  70.930
 1155DA     SC3 7494  93.498  75.943  70.924
 1155DA     SC4 7495  93.414  75.965  70.658
 1156DT     BB1 7496  93.109  76.392  70.370
 1156DT     BB2 7497  93.009  76.514  70.695
 1156DT     BB3 7498  93.154  76.642  70.769
 1156DT     SC1 7499  93.313  76.442  70.826
 1156DT     SC2 7500  93.328  76.420  71.039
 1156DT     SC3 7501  93.524  76.284  70.820
 1157DA     BB1 7502  92.796  76.860  70.788
 1157DA     BB2 7503  92.953  76.877  71.119
 1157DA     BB3 7504  93.116  77.014  71.117
 1157DA     SC1 7505  93.328  76.800  71.040
 1157DA     SC2 7506  93.521  76.684  71.148
 1157DA     SC3 7507  93.597  76.632  70.909
 1157DA     SC4 7508  93.359  76.778  70.884
 1158DA     BB1 7509  92.944  77.133  71.365
 1158DA     BB2 7510  93.231  77.048  71.576
 1158DA     BB3 7511  93.387  77.190  71.550
 1158DA     SC1 7512  93.525  77.033  71.319
 1158DA     SC2 7513  93.736  76.905  71.284
 1158DA     SC3 7514  93.694  76.944  71.034
 1158DA     SC4 7515  93.482  77.070  71.169
 1159DG     BB1 7516  93.322  77.204  71.845
 1159DG     BB2 7517  93.656  77.066  71.870
 1159DG     BB3 7518  93.791  77.210  71.845
 1159DG     SC1 7519  93.807  77.176  71.542
 1159DG     SC2 7520  94.044  77.078  71.389
 1159DG     SC3 7521  93.835  77.180  71.206
 1159DG     SC4 7522  93.706  77.259  71.449
 1160DA     BB1 7523  93.870  77.016  72.113
 1160DA     BB2 7524  94.192  76.950  71.950
 1160DA     BB3 7525  94.306  77.130  71.936
 1160DA     SC1 7526  94.194  77.208  71.657
 1160DA     SC2 7527  94.278  77.224  71.422
 1160DA     SC3 7528  94.077  77.379  71.383
 1160DA     SC4 7529  94.065  77.304  71.653
 1161DG     BB1 7530  94.427  76.869  72.057
 1161DG     BB2 7531  94.655  76.925  71.782
 1161DG     BB3 7532  94.751  77.098  71.808
 1161DG     SC1 7533  94.542  77.265  71.659
 1161DG     SC2 7534  94.583  77.406  71.399
 1161DG     SC3 7535  94.324  77.481  71.520
 1161DG     SC4 7536  94.418  77.325  71.741
 1162DT     BB1 7537  94.899  77.017  71.786
 1162DT     BB2 7538  95.034  77.174  71.491
 1162DT     BB3 7539  95.097  77.366  71.535
 1162DT     SC1 7540  94.850  77.454  71.544
 1162DT     SC2 7541  94.814  77.584  71.377
 1162DT     SC3 7542  94.626  77.556  71.640
 1163DA     BB1 7543  95.385  77.149  71.312
 1163DA     BB2 7544  95.365  77.491  71.181
 1163DA     BB3 7545  95.436  77.630  71.327
 1163DA     SC1 7546  95.156  77.676  71.455
 1163DA     SC2 7547  94.987  77.859  71.469
 1163DA     SC3 7548  94.897  77.732  71.673
 1163DA     SC4 7549  95.116  77.583  71.580
 1164DT     BB1 7550  95.604  77.725  71.289
 1164DT     BB2 7551  95.468  78.056  71.243
 1164DT     BB3 7552  95.497  78.169  71.414
 1164DT     SC1 7553  95.306  78.041  71.540
 1164DT     SC2 7554  95.139  78.173  71.570
 1164DT     SC3 7555  95.185  77.889  71.718
 1165DT     BB1 7556  95.711  78.326  71.314
 1165DT     BB2 7557  95.478  78.573  71.436
 1165DT     BB3 7558  95.519  78.618  71.634
 1165DT     SC1 7559  95.415  78.390  71.714
 1165DT     SC2 7560  95.232  78.429  71.820
 1165DT     SC3 7561  95.398  78.150  71.821
 1166DT     BB1 7562  95.646  78.873  71.596
 1166DT     BB2 7563  95.384  78.947  71.834
 1166DT     BB3 7564  95.457  78.930  72.027
 1166DT     SC1 7565  95.457  78.668  72.012
 1166DT     SC2 7566  95.304  78.589  72.142
 1166DT     SC3 7567  95.545  78.419  72.008
 1167DA     BB1 7568  95.305  79.323  72.035
 1167DA     BB2 7569  95.173  79.151  72.331
 1167DA     BB3 7570  95.322  79.140  72.483
 1167DA     SC1 7571  95.432  78.865  72.387
 1167DA     SC2 7572  95.435  78.629  72.468
 1167DA     SC3 7573  95.633  78.598  72.308
 1167DA     SC4 7574  95.554  78.866  72.283
 1168DT     BB1 7575  95.316  79.249  72.681
 1168DT     BB2 7576  95.229  78.961  72.881
 1168DT     BB3 7577  95.389  78.908  73.001
 1168DT     SC1 7578  95.518  78.805  72.797
 1168DT     SC2 7579  95.526  78.591  72.818
 1168DT     SC3 7580  95.705  78.769  72.614
 1169DC     BB1 7581  95.273  79.004  73.238
 1169DC     BB2 7582  95.340  78.657  73.307
 1169DC     BB3 7583  95.529  78.636  73.389
 1169DC     SC1 7584  95.643  78.675  73.156
 1169DC     SC2 7585  95.732  78.492  73.089
 1169DC     SC3 7586  95.789  78.787  72.967
 1170DA     BB1 7587  95.270  78.442  73.657
 1170DA     BB2 7588  95.543  78.211  73.580
 1170DA     BB3 7589  95.721  78.269  73.683
 1170DA     SC1 7590  95.825  78.449  73.453
 1170DA     SC2 7591  96.011  78.447  73.286
 1170DA     SC3 7592  95.970  78.700  73.268
 1170DA     SC4 7593  95.786  78.605  73.457
 1171DT     BB1 7594  95.799  78.146  73.834
 1171DT     BB2 7595  96.074  78.016  73.639
 1171DT     BB3 7596  96.252  78.099  73.704
 1171DT     SC1 7597  96.197  78.328  73.589
 1171DT     SC2 7598  96.330  78.357  73.422
 1171DT     SC3 7599  96.144  78.585  73.559
 1172DA     BB1 7600  96.290  77.682  73.689
 1172DA     BB2 7601  96.574  77.829  73.511
 1172DA     BB3 7602  96.710  77.918  73.649
 1172DA     SC1 7603  96.575  78.198  73.640
 1172DA     SC2 7604  96.628  78.426  73.553
 1172DA     SC3 7605  96.449  78.508  73.717
 1172DA     SC4 7606  96.461  78.229  73.749
 1173DT     BB1 7607  96.885  77.834  73.659
 1173DT     BB2 7608  97.068  78.091  73.484
 1173DT     BB3 7609  97.172  78.208  73.619
 1173DT     SC1 7610  96.953  78.329  73.696
 1173DT     SC2 7611  96.957  78.534  73.629
 1173DT     SC3 7612  96.756  78.411  73.852
 1174DT     BB1 7613  97.400  78.095  73.530
 1174DT     BB2 7614  97.451  78.449  73.484
 1174DT     BB3 7615  97.521  78.534  73.659
 1174DT     SC1 7616  97.285  78.518  73.772
 1174DT     SC2 7617  97.204  78.717  73.795
 1174DT     SC3 7618  97.094  78.448  73.939
 1175DT     BB1 7619  97.772  78.564  73.553
 1175DT     BB2 7620  97.679  78.897  73.657
 1175DT     BB3 7621  97.731  78.926  73.855
 1175DT     SC1 7622  97.532  78.776  73.938
 1175DT     SC2 7623  97.386  78.900  74.036
 1175DT     SC3 7624  97.402  78.577  74.052
 1176DT     BB1 7625  97.949  79.094  73.798
 1176DT     BB2 7626  97.742  79.292  74.017
 1176DT     BB3 7627  97.797  79.260  74.214
 1176DT     SC1 7628  97.682  79.024  74.216
 1176DT     SC2 7629  97.509  79.031  74.343
 1176DT     SC3 7630  97.654  78.763  74.233
 1177DC     BB1 7631  97.922  79.510  74.243
 1177DC     BB2 7632  97.667  79.507  74.498
 1177DC     BB3 7633  97.745  79.430  74.674
 1177DC     SC1 7634  97.740  79.186  74.579
 1177DC     SC2 7635  97.590  79.072  74.682
 1177DC     SC3 7636  97.825  78.951  74.495
 1178DA     BB1 7637  97.562  79.796  74.755
 1178DA     BB2 7638  97.425  79.546  74.986
 1178DA     BB3 7639  97.568  79.498  75.137
 1178DA     SC1 7640  97.695  79.263  74.977
 1178DA     SC2 7641  97.706  79.015  74.991
 1178DA     SC3 7642  97.912  79.035  74.840
 1178DA     SC4 7643  97.822  79.297  74.884
 1179DC     BB1 7644  97.490  79.545  75.278
 1179DC     BB2 7645  97.406  79.213  75.389
 1179DC     BB3 7646  97.550  79.144  75.521
 1179DC     SC1 7647  97.720  79.103  75.325
 1179DC     SC2 7648  97.749  78.891  75.299
 1179DC     SC3 7649  97.936  79.125  75.176
 1180DA     BB1 7650  97.123  79.080  75.557
 1180DA     BB2 7651  97.306  78.767  75.619
 1180DA     BB3 7652  97.437  78.790  75.785
 1180DA     SC1 7653  97.679  78.883  75.613
 1180DA     SC2 7654  97.901  78.794  75.543
 1180DA     SC3 7655  97.962  79.038  75.497
 1180DA     SC4 7656  97.698  79.041  75.592
 1181DA     BB1 7657  97.244  78.504  75.702
 1181DA     BB2 7658  97.564  78.337  75.768
 1181DA     BB3 7659  97.643  78.400  75.956
 1181DA     SC1 7660  97.805  78.637  75.836
 1181DA     SC2 7661  98.044  78.697  75.798
 1181DA     SC3 7662  97.960  78.939  75.781
 1181DA     SC4 7663  97.734  78.781  75.830
 1182DA     BB1 7664  97.659  78.063  75.903
 1182DA     BB2 7665  98.006  78.106  76.014
 1182DA     BB3 7666  98.011  78.196  76.208
 1182DA     SC1 7667  98.022  78.487  76.101
 1182DA     SC2 7668  98.187  78.674  76.090
 1182DA     SC3 7669  97.982  78.825  76.055
 1182DA     SC4 7670  97.882  78.565  76.081
 1183DA     BB1 7671  98.203  77.933  76.286
 1183DA     BB2 7672  98.454  78.172  76.406
 1183DA     BB3 7673  98.388  78.263  76.588
 1183DA     SC1 7674  98.246  78.501  76.447
 1183DA     SC2 7675  98.279  78.747  76.422
 1183DA     SC3 7676  98.030  78.753  76.361
 1183DA     SC4 7677  98.090  78.484  76.413
 1184DA     BB1 7678  98.666  78.165  76.766
 1184DA     BB2 7679  98.739  78.518  76.836
 1184DA     BB3 7680  98.621  78.586  77.000
 1184DA     SC1 7681  98.385  78.683  76.822
 1184DA     SC2 7682  98.283  78.900  76.753
 1184DA     SC3 7683  98.075  78.760  76.697
 1184DA     SC4 7684  98.265  78.579  76.795
 1185DC     BB1 7685  98.684  78.648  77.235
 1185DC     BB2 7686  98.648  79.005  77.193
 1185DC     BB3 7687  98.490  79.074  77.309
 1185DC     SC1 7688  98.314  78.973  77.142
 1185DC     SC2 7689  98.213  79.133  77.040
 1185DC     SC3 7690  98.118  78.824  77.049
 1186DA     BB1 7691  98.801  79.319  77.452
 1186DA     BB2 7692  98.522  79.541  77.365
 1186DA     BB3 7693  98.375  79.538  77.519
 1186DA     SC1 7694  98.213  79.304  77.393
 1186DA     SC2 7695  97.992  79.272  77.281
 1186DA     SC3 7696  98.021  79.024  77.340
 1186DA     SC4 7697  98.249  79.155  77.440
 1187DG     BB1 7698  98.425  79.846  77.562
 1187DG     BB2 7699  98.087  79.875  77.438
 1187DG     BB3 7700  97.958  79.857  77.589
 1187DG     SC1 7701  97.933  79.553  77.564
 1187DG     SC2 7702  97.688  79.403  77.481
 1187DG     SC3 7703  97.897  79.218  77.578
 1187DG     SC4 7704  98.036  79.460  77.644
 1188DT     BB1 7705  97.821  80.024  77.644
 1188DT     BB2 7706  97.508  79.905  77.509
 1188DT     BB3 7707  97.386  79.838  77.662
 1188DT     SC1 7708  97.529  79.620  77.692
 1188DT     SC2 7709  97.414  79.450  77.625
 1188DT     SC3 7710  97.686  79.439  77.802
 1189DG     BB1 7711  97.191  80.125  77.449
 1189DG     BB2 7712  96.994  79.823  77.478
 1189DG     BB3 7713  96.915  79.811  77.660
 1189DG     SC1 7714  97.151  79.659  77.781
 1189DG     SC2 7715  97.147  79.378  77.879
 1189DG     SC3 7716  97.402  79.510  77.950
 1189DG     SC4 7717  97.273  79.743  77.843
 1190DT     BB1 7718  96.701  79.811  77.679
 1190DT     BB2 7719  96.634  79.466  77.763
 1190DT     BB3 7720  96.599  79.448  77.966
 1190DT     SC1 7721  96.854  79.477  78.020
 1190DT     SC2 7722  96.933  79.290  78.092
 1190DT     SC3 7723  97.077  79.580  78.116
 1191DA     BB1 7724  96.275  79.263  77.774
 1191DA     BB2 7725  96.394  79.035  78.035
 1191DA     BB3 7726  96.337  79.106  78.228
 1191DA     SC1 7727  96.597  79.272  78.270
 1191DA     SC2 7728  96.801  79.262  78.414
 1191DA     SC3 7729  96.827  79.512  78.359
 1191DA     SC4 7730  96.595  79.426  78.225
 1192DA     BB1 7731  96.206  78.805  78.259
 1192DA     BB2 7732  96.432  78.754  78.544
 1192DA     BB3 7733  96.359  78.859  78.715
 1192DA     SC1 7734  96.516  79.120  78.653
 1192DA     SC2 7735  96.709  79.246  78.747
 1192DA     SC3 7736  96.615  79.447  78.618
 1192DA     SC4 7737  96.441  79.233  78.567
 1193DG     BB1 7738  96.342  78.578  78.855
 1193DG     BB2 7739  96.595  78.718  79.072
 1193DG     BB3 7740  96.510  78.825  79.216
 1193DG     SC1 7741  96.512  79.086  79.056
 1193DG     SC2 7742  96.673  79.329  79.121
 1193DG     SC3 7743  96.481  79.385  78.903
 1193DG     SC4 7744  96.389  79.120  78.961
 1194DT     BB1 7745  96.522  78.773  79.441
 1194DT     BB2 7746  96.757  79.022  79.556
 1194DT     BB3 7747  96.658  79.168  79.664
 1194DT     SC1 7748  96.558  79.273  79.446
 1194DT     SC2 7749  96.649  79.465  79.411
 1194DT     SC3 7750  96.381  79.353  79.267
 1195DT     BB1 7751  96.762  79.076  79.901
 1195DT     BB2 7752  96.863  79.422  79.888
 1195DT     BB3 7753  96.716  79.542  79.972
 1195DT     SC1 7754  96.562  79.514  79.761
 1195DT     SC2 7755  96.551  79.701  79.655
 1195DT     SC3 7756  96.356  79.447  79.611
 1196DC     BB1 7757  96.869  79.588  80.195
 1196DC     BB2 7758  96.797  79.918  80.066
 1196DC     BB3 7759  96.618  79.987  80.145
 1196DC     SC1 7760  96.479  79.827  79.990
 1196DC     SC2 7761  96.374  79.944  79.843
 1196DC     SC3 7762  96.316  79.634  79.915
 1197DA     BB1 7763  96.901  80.287  80.219
 1197DA     BB2 7764  96.606  80.446  80.069
 1197DA     BB3 7765  96.448  80.457  80.212
 1197DA     SC1 7766  96.325  80.183  80.132
 1197DA     SC2 7767  96.120  80.098  80.019
 1197DA     SC3 7768  96.172  79.875  80.134
 1197DA     SC4 7769  96.374  80.053  80.214
 1198DT     BB1 7770  96.381  80.643  80.285
 1198DT     BB2 7771  96.073  80.654  80.098
 1198DT     BB3 7772  95.912  80.620  80.225
 1198DT     SC1 7773  95.967  80.364  80.239
 1198DT     SC2 7774  95.815  80.253  80.136
 1198DT     SC3 7775  96.035  80.130  80.340
 1199DA     BB1 7776  95.824  80.977  80.023
 1199DA     BB2 7777  95.530  80.759  79.997
 1199DA     BB3 7778  95.425  80.754  80.182
 1199DA     SC1 7779  95.582  80.509  80.292
 1199DA     SC2 7780  95.537  80.269  80.343
 1199DA     SC3 7781  95.745  80.283  80.492
 1199DA     SC4 7782  95.713  80.538  80.380
 1200DC     BB1 7783  95.236  80.834  80.193
 1200DC     BB2 7784  95.059  80.520  80.199
 1200DC     BB3 7785  94.986  80.484  80.390
 1200DC     SC1 7786  95.225  80.422  80.477
 1200DC     SC2 7787  95.233  80.211  80.520
 1200DC     SC3 7788  95.449  80.433  80.616
 1201DG     BB1 7789  94.669  80.481  80.135
 1201DG     BB2 7790  94.683  80.179  80.332
 1201DG     BB3 7791  94.612  80.213  80.515
 1201DG     SC1 7792  94.883  80.293  80.632
 1201DG     SC2 7793  95.036  80.142  80.839
 1201DG     SC3 7794  95.160  80.405  80.788
 1201DG     SC4 7795  94.929  80.446  80.623
 1202DT     BB1 7796  94.444  80.103  80.571
 1202DT     BB2 7797  94.587  79.865  80.801
 1202DT     BB3 7798  94.553  79.926  80.996
 1202DT     SC1 7799  94.736  80.113  80.979
 1202DT     SC2 7800  94.904  80.060  81.103
 1202DT     SC3 7801  94.846  80.352  80.974
 1203DA     BB1 7802  94.437  79.525  80.949
 1203DA     BB2 7803  94.645  79.550  81.251
 1203DA     BB3 7804  94.538  79.650  81.406
 1203DA     SC1 7805  94.640  79.933  81.327
 1203DA     SC2 7806  94.793  80.107  81.420
 1203DA     SC3 7807  94.669  80.270  81.265
 1203DA     SC4 7808  94.550  80.019  81.225
 1204DA     BB1 7809  94.631  79.376  81.560
 1204DA     BB2 7810  94.809  79.594  81.795
 1204DA     BB3 7811  94.670  79.694  81.923
 1204DA     SC1 7812  94.639  79.941  81.736
 1204DA     SC2 7813  94.703  80.182  81.737
 1204DA     SC3 7814  94.519  80.210  81.560
 1204DA     SC4 7815  94.520  79.938  81.628
 1205DT     BB1 7816  94.670  79.649  82.120
 1205DT     BB2 7817  94.824  79.954  82.236
 1205DT     BB3 7818  94.681  80.077  82.323
 1205DT     SC1 7819  94.583  80.142  82.088
 1205DT     SC2 7820  94.628  80.348  82.047
 1205DT     SC3 7821  94.412  80.165  81.889
 1206DT     BB1 7822  94.778  80.026  82.575
 1206DT     BB2 7823  94.791  80.385  82.546
 1206DT     BB3 7824  94.611  80.467  82.606
 1206DT     SC1 7825  94.493  80.391  82.384
 1206DT     SC2 7826  94.448  80.564  82.264
 1206DT     SC3 7827  94.327  80.266  82.221
 1207DT     BB1 7828  94.723  80.562  82.837
 1207DT     BB2 7829  94.586  80.855  82.677
 1207DT     BB3 7830  94.389  80.881  82.733
 1207DT     SC1 7831  94.311  80.684  82.578
 1207DT     SC2 7832  94.198  80.763  82.413
 1207DT     SC3 7833  94.210  80.452  82.504
 1208DA     BB1 7834  94.588  81.243  82.800
 1208DA     BB2 7835  94.282  81.316  82.612
 1208DA     BB3 7836  94.111  81.297  82.738
 1208DA     SC1 7837  94.066  80.997  82.672
 1208DA     SC2 7838  93.899  80.858  82.548
 1208DA     SC3 7839  93.990  80.662  82.687
 1208DA     SC4 7840  94.135  80.888  82.769
 1209DT     BB1 7841  94.013  81.462  82.771
 1209DT     BB2 7842  93.730  81.387  82.560
 1209DT     BB3 7843  93.569  81.328  82.676
 1209DT     SC1 7844  93.677  81.093  82.721
 1209DT     SC2 7845  93.564  80.942  82.618
 1209DT     SC3 7846  93.784  80.890  82.850
 1210DT     BB1 7847  93.455  81.562  82.615
 1210DT     BB2 7848  93.217  81.313  82.508
 1210DT     BB3 7849  93.098  81.256  82.667
 1210DT     SC1 7850  93.292  81.115  82.773
 1210DT     SC2 7851  93.245  80.906  82.758
 1210DT     SC3 7852  93.476  81.035  82.944
 1211DT     BB1 7853  92.894  81.388  82.552
 1211DT     BB2 7854  92.771  81.052  82.596
 1211DT     BB3 7855  92.693  81.030  82.786
 1211DT     SC1 7856  92.932  81.022  82.893
 1211DT     SC2 7857  92.972  80.824  82.966
 1211DT     SC3 7858  93.142  81.091  83.038
 1212DT     BB1 7859  92.448  81.022  82.676
 1212DT     BB2 7860  92.475  80.715  82.864
 1212DT     BB3 7861  92.424  80.749  83.062
 1212DT     SC1 7862  92.653  80.870  83.108
 1212DT     SC2 7863  92.774  80.747  83.236
 1212DT     SC3 7864  92.825  81.059  83.169
 1213DT     BB1 7865  92.192  80.615  83.025
 1213DT     BB2 7866  92.356  80.442  83.296
 1213DT     BB3 7867  92.310  80.533  83.476
 1213DT     SC1 7868  92.471  80.734  83.424
 1213DT     SC2 7869  92.641  80.725  83.556
 1213DT     SC3 7870  92.554  80.979  83.375
 1214DA     BB1 7871  92.232  80.123  83.512
 1214DA     BB2 7872  92.436  80.226  83.799
 1214DA     BB3 7873  92.319  80.343  83.935
 1214DA     SC1 7874  92.391  80.614  83.801
 1214DA     SC2 7875  92.525  80.817  83.857
 1214DA     SC3 7876  92.384  80.934  83.677
 1214DA     SC4 7877  92.292  80.669  83.687
 1215DA     BB1 7878  92.448  80.112  84.125
 1215DA     BB2 7879  92.606  80.386  84.310
 1215DA     BB3 7880  92.460  80.493  84.423
 1215DA     SC1 7881  92.398  80.697  84.197
 1215DA     SC2 7882  92.435  80.940  84.152
 1215DA     SC3 7883  92.246  80.915  83.980
 1215DA     SC4 7884  92.278  80.662  84.096
 1216DA     BB1 7885  92.698  80.419  84.635
 1216DA     BB2 7886  92.728  80.781  84.687
 1216DA     BB3 7887  92.556  80.856  84.790
 1216DA     SC1 7888  92.398  80.918  84.529
 1216DA     SC2 7889  92.320  81.120  84.404
 1216DA     SC3 7890  92.152  80.961  84.293
 1216DA     SC4 7891  92.300  80.804  84.472
 1217DG     BB1 7892  92.788  80.938  84.976
 1217DG     BB2 7893  92.666  81.270  84.900
 1217DG     BB3 7894  92.497  81.305  84.999
 1217DG     SC1 7895  92.315  81.195  84.779
 1217DG     SC2 7896  92.123  81.354  84.616
 1217DG     SC3 7897  92.087  81.065  84.568
 1217DG     SC4 7898  92.279  81.039  84.779
 1218DA     BB1 7899  92.648  81.602  85.109
 1218DA     BB2 7900  92.367  81.796  84.975
 1218DA     BB3 7901  92.194  81.770  85.097
 1218DA     SC1 7902  92.088  81.526  84.936
 1218DA     SC2 7903  91.898  81.475  84.782
 1218DA     SC3 7904  91.943  81.229  84.840
 1218DA     SC4 7905  92.131  81.379  84.985
 1219DA     BB1 7906  92.162  82.107  85.151
 1219DA     BB2 7907  91.827  82.091  85.003
 1219DA     BB3 7908  91.686  82.018  85.145
 1219DA     SC1 7909  91.723  81.720  85.064
 1219DA     SC2 7910  91.591  81.542  84.950
 1219DA     SC3 7911  91.752  81.378  85.064
 1219DA     SC4 7912  91.832  81.634  85.145
 1220DT     BB1 7913  91.463  82.118  85.318
 1220DT     BB2 7914  91.198  81.965  85.126
 1220DT     BB3 7915  91.098  81.826  85.242
 1220DT     SC1 7916  91.297  81.655  85.222
 1220DT     SC2 7917  91.235  81.489  85.101
 1220DT     SC3 7918  91.497  81.498  85.292
 1221DT     BB1 7919  90.785  81.920  85.410
 1221DT     BB2 7920  90.686  81.626  85.225
 1221DT     BB3 7921  90.661  81.466  85.355
 1221DT     SC1 7922  90.920  81.438  85.383
 1221DT     SC2 7923  90.982  81.255  85.287
 1221DT     SC3 7924  91.158  81.431  85.496
 1222DT     BB1 7925  90.340  81.399  85.418
 1222DT     BB2 7926  90.462  81.097  85.263
 1222DT     BB3 7927  90.490  80.951  85.407
 1222DT     SC1 7928  90.709  81.068  85.494
 1222DT     SC2 7929  90.879  80.948  85.443
 1222DT     SC3 7930  90.876  81.192  85.656
 1223DA     BB1 7931  90.245  80.783  85.115
 1223DA     BB2 7932  90.543  80.572  85.147
 1223DA     BB3 7933  90.529  80.450  85.322
 1223DA     SC1 7934  90.670  80.656  85.507
 1223DA     SC2 7935  90.887  80.677  85.628
 1223DA     SC3 7936  90.766  80.852  85.772
 1223DA     SC4 7937  90.577  80.760  85.586
 1224DC     BB1 7938  90.527  80.277  85.269
 1224DC     BB2 7939  90.870  80.209  85.357
 1224DC     BB3 7940  90.879  80.113  85.541
 1224DC     SC1 7941  90.825  80.336  85.668
 1224DC     SC2 7942  91.000  80.400  85.776
 1224DC     SC3 7943  90.698  80.511  85.819
 1225DA     BB1 7944  91.112  79.937  85.236
 1225DA     BB2 7945  91.319  79.980  85.536
 1225DA     BB3 7946  91.252  79.850  85.691
 1225DA     SC1 7947  91.054  80.057  85.813
 1225DA     SC2 7948  91.035  80.195  86.020
 1225DA     SC3 7949  90.786  80.211  85.962
 1225DA     SC4 7950  90.902  80.054  85.761
 1226DT     BB1 7951  91.382  79.733  85.728
 1226DT     BB2 7952  91.480  79.874  86.046
 1226DT     BB3 7953  91.387  79.771  86.200
 1226DT     SC1 7954  91.157  79.887  86.149
 1226DT     SC2 7955  91.109  80.023  86.308
 1226DT     SC3 7956  90.904  79.918  86.080
 1227DT     BB1 7957  91.627  79.673  86.256
 1227DT     BB2 7958  91.518  79.834  86.560
 1227DT     BB3 7959  91.395  79.707  86.667
 1227DT     SC1 7960  91.196  79.746  86.501
 1227DT     SC2 7961  91.041  79.859  86.600
 1227DT     SC3 7962  91.010  79.696  86.321
 1228DT     BB1 7963  91.594  79.680  86.846
 1228DT     BB2 7964  91.313  79.802  87.036
 1228DT     BB3 7965  91.192  79.644  87.093
 1228DT     SC1 7966  91.096  79.619  86.850
 1228DT     SC2 7967  90.890  79.680  86.849
 1228DT     SC3 7968  91.041  79.515  86.615
 1229DT     BB1 7969  91.278  79.680  87.345
 1229DT     BB2 7970  90.919  79.715  87.363
 1229DT     BB3 7971  90.831  79.529  87.384
 1229DT     SC1 7972  90.875  79.471  87.132
 1229DT     SC2 7973  90.688  79.467  87.025
 1229DT     SC3 7974  90.971  79.350  86.918
 1230DA     BB1 7975  90.687  79.807  87.663
 1230DA     BB2 7976  90.402  79.644  87.501
 1230DA     BB3 7977  90.388  79.440  87.562
 1230DA     SC1 7978  90.566  79.334  87.330
 1230DA     SC2 7979  90.536  79.198  87.123
 1230DA     SC3 7980  90.789  79.158  87.138
 1230DA     SC4 7981  90.723  79.319  87.357
 1231DA     BB1 7982  90.098  79.585  87.595
 1231DA     BB2 7983  89.976  79.327  87.366
 1231DA     BB3 7984  89.986  79.135  87.459
 1231DA     SC1 7985  90.274  79.073  87.356
 1231DA     SC2 7986  90.382  78.920  87.192
 1231DA     SC3 7987  90.598  78.965  87.324
 1231DA     SC4 7988  90.397  79.113  87.451
 1232DA     BB1 7989  89.687  79.175  87.331
 1232DA     BB2 7990  89.758  78.868  87.144
 1232DA     BB3 7991  89.773  78.701  87.277
 1232DA     SC1 7992  90.080  78.732  87.319
 1232DA     SC2 7993  90.288  78.609  87.258
 1232DA     SC3 7994  90.397  78.739  87.450
 1232DA     SC4 7995  90.129  78.822  87.443
 1233DT     BB1 7996  89.639  78.580  87.248
 1233DT     BB2 7997  89.839  78.316  87.104
 1233DT     BB3 7998  89.886  78.176  87.249
 1233DT     SC1 7999  90.063  78.336  87.358
 1233DT     SC2 8000  90.260  78.258  87.324
 1233DT     SC3 8001  90.182  78.490  87.536
 1234DT     BB1 8002  89.714  78.006  87.131
 1234DT     BB2 8003  90.024  77.822  87.148
 1234DT     BB3 8004  90.041  77.730  87.332
 1234DT     SC1 8005  90.098  77.957  87.450
 1234DT     SC2 8006  90.304  77.956  87.512
 1234DT     SC3 8007  90.076  78.166  87.610
 1235DC     BB1 8008  89.991  77.484  87.223
 1235DC     BB2 8009  90.304  77.439  87.396
 1235DC     BB3 8010  90.269  77.386  87.593
 1235DC     SC1 8011  90.198  77.632  87.654
 1235DC     SC2 8012  90.348  77.719  87.781
 1235DC     SC3 8013  90.049  77.835  87.732
 1236DG     BB1 8014  90.490  77.077  87.444
 1236DG     BB2 8015  90.632  77.200  87.753
 1236DG     BB3 8016  90.531  77.127  87.908
 1236DG     SC1 8017  90.330  77.358  87.917
 1236DG     SC2 8018  90.305  77.560  88.135
 1236DG     SC3 8019  90.082  77.585  87.942
 1236DG     SC4 8020  90.197  77.349  87.828
 1237DA     BB1 8021  90.829  77.009  88.052
 1237DA     BB2 8022  90.771  77.211  88.352
 1237DA     BB3 8023  90.627  77.117  88.478
 1237DA     SC1 8024  90.384  77.262  88.349
 1237DA     SC2 8025  90.218  77.437  88.412
 1237DA     SC3 8026  90.075  77.342  88.222
 1237DA     SC4 8027  90.309  77.188  88.227
 1238DA     BB1 8028  90.853  77.132  88.724
 1238DA     BB2 8029  90.617  77.339  88.913
 1238DA     BB3 8030  90.468  77.216  89.004
 1238DA     SC1 8031  90.272  77.235  88.762
 1238DA     SC2 8032  90.052  77.340  88.711
 1238DA     SC3 8033  90.038  77.170  88.520
 1238DA     SC4 8034  90.281  77.121  88.650
 1239DT     BB1 8035  90.441  77.174  89.229
 1239DT     BB2 8036  90.147  77.378  89.277
 1239DT     BB3 8037  89.983  77.258  89.313
 1239DT     SC1 8038  89.969  77.188  89.060
 1239DT     SC2 8039  89.794  77.275  88.971
 1239DT     SC3 8040  89.973  77.037  88.844
 1240DC     BB1 8041  89.947  77.287  89.608
 1240DC     BB2 8042  89.623  77.378  89.479
 1240DC     BB3 8043  89.497  77.214  89.482
 1240DC     SC1 8044  89.618  77.108  89.275
 1240DC     SC2 8045  89.486  77.113  89.105
 1240DC     SC3 8046  89.758  76.938  89.130
 1241DC     BB1 8047  89.318  77.265  89.722
 1241DC     BB2 8048  89.082  77.226  89.453
 1241DC     BB3 8049  89.009  77.032  89.450
 1241DC     SC1 8050  89.234  76.941  89.350
 1241DC     SC2 8051  89.201  76.878  89.147
 1241DC     SC3 8052  89.459  76.807  89.328
 1242DA     BB1 8053  88.659  77.263  89.469
 1242DA     BB2 8054  88.627  77.037  89.183
 1242DA     BB3 8055  88.577  76.840  89.249
 1242DA     SC1 8056  88.873  76.748  89.273
 1242DA     SC2 8057  89.028  76.591  89.157
 1242DA     SC3 8058  89.167  76.600  89.372
 1242DA     SC4 8059  88.945  76.765  89.416
 1243DA     BB1 8060  88.337  76.891  89.036
 1243DA     BB2 8061  88.482  76.616  88.841
 1243DA     BB3 8062  88.433  76.428  88.930
 1243DA     SC1 8063  88.687  76.419  89.110
 1243DA     SC2 8064  88.899  76.288  89.124
 1243DA     SC3 8065  88.909  76.369  89.367
 1243DA     SC4 8066  88.675  76.479  89.258
 1244DA     BB1 8067  88.351  76.413  88.617
 1244DA     BB2 8068  88.601  76.145  88.595
 1244DA     BB3 8069  88.531  75.971  88.696
 1244DA     SC1 8070  88.658  76.050  88.969
 1244DA     SC2 8071  88.844  75.972  89.115
 1244DA     SC3 8072  88.722  76.098  89.303
 1244DA     SC4 8073  88.567  76.132  89.072
 1245DT     BB1 8074  88.523  75.857  88.572
 1245DT     BB2 8075  88.813  75.667  88.671
 1245DT     BB3 8076  88.756  75.511  88.795
 1245DT     SC1 8077  88.719  75.676  88.996
 1245DT     SC2 8078  88.870  75.642  89.145
 1245DT     SC3 8079  88.597  75.810  89.187
 1246DT     BB1 8080  88.838  75.388  88.585
 1246DT     BB2 8081  89.039  75.265  88.858
 1246DT     BB3 8082  88.929  75.132  88.972
 1246DT     SC1 8083  88.790  75.327  89.080
 1246DT     SC2 8084  88.844  75.346  89.288
 1246DT     SC3 8085  88.585  75.478  89.145
 1247DT     BB1 8086  89.106  74.977  88.868
 1247DT     BB2 8087  89.136  74.937  89.225
 1247DT     BB3 8088  88.982  74.819  89.296
 1247DT     SC1 8089  88.809  75.015  89.270
 1247DT     SC2 8090  88.748  75.083  89.465
 1247DT     SC3 8091  88.601  75.153  89.185
 1248DT     BB1 8092  89.172  74.643  89.335
 1248DT     BB2 8093  89.011  74.682  89.656
 1248DT     BB3 8094  88.837  74.569  89.662
 1248DT     SC1 8095  88.711  74.741  89.508
 1248DT     SC2 8096  88.561  74.843  89.623
 1248DT     SC3 8097  88.584  74.841  89.300
 1249DC     BB1 8098  88.960  74.400  89.829
 1249DC     BB2 8099  88.660  74.497  90.003
 1249DC     BB3 8100  88.501  74.379  89.941
 1249DC     SC1 8101  88.485  74.509  89.713
 1249DC     SC2 8102  88.304  74.626  89.709
 1249DC     SC3 8103  88.490  74.556  89.453
 1250DA     BB1 8104  88.497  74.339  90.360
 1250DA     BB2 8105  88.154  74.412  90.253
 1250DA     BB3 8106  88.067  74.240  90.160
 1250DA     SC1 8107  88.160  74.317  89.874
 1250DA     SC2 8108  88.056  74.395  89.661
 1250DA     SC3 8109  88.272  74.312  89.549
 1250DA     SC4 8110  88.301  74.259  89.823
 1251DA     BB1 8111  87.814  74.256  90.381
 1251DA     BB2 8112  87.587  74.309  90.099
 1251DA     BB3 8113  87.541  74.123  90.004
 1251DA     SC1 8114  87.777  74.140  89.802
 1251DA     SC2 8115  87.808  74.174  89.557
 1251DA     SC3 8116  88.040  74.068  89.593
 1251DA     SC4 8117  87.916  74.071  89.845
 1252DT     BB1 8118  87.334  74.011  90.001
 1252DT     BB2 8119  87.251  74.096  89.660
 1252DT     BB3 8120  87.255  73.925  89.543
 1252DT     SC1 8121  87.517  73.920  89.543
 1252DT     SC2 8122  87.590  73.968  89.347
 1252DT     SC3 8123  87.763  73.836  89.587
 1253DT     BB1 8124  86.972  73.899  89.515
 1253DT     BB2 8125  87.091  73.923  89.175
 1253DT     BB3 8126  87.127  73.734  89.099
 1253DT     SC1 8127  87.346  73.709  89.240
 1253DT     SC2 8128  87.517  73.713  89.109
 1253DT     SC3 8129  87.518  73.617  89.418
 1254DT     BB1 8130  86.906  73.748  88.935
 1254DT     BB2 8131  87.183  73.697  88.710
 1254DT     BB3 8132  87.217  73.495  88.683
 1254DT     SC1 8133  87.325  73.473  88.921
 1254DT     SC2 8134  87.536  73.435  88.901
 1254DT     SC3 8135  87.361  73.398  89.172
 1255DA     BB1 8136  87.192  73.686  88.313
 1255DA     BB2 8137  87.497  73.484  88.317
 1255DA     BB3 8138  87.449  73.277  88.304
 1255DA     SC1 8139  87.432  73.236  88.612
 1255DA     SC2 8140  87.562  73.120  88.790
 1255DA     SC3 8141  87.347  73.133  88.928
 1255DA     SC4 8142  87.288  73.253  88.681
 1256DT     BB1 8143  87.516  73.207  88.149
 1256DT     BB2 8144  87.788  73.022  88.298
 1256DT     BB3 8145  87.735  72.823  88.319
 1256DT     SC1 8146  87.578  72.878  88.523
 1256DT     SC2 8147  87.665  72.798  88.703
 1256DT     SC3 8148  87.360  72.903  88.668
 1257DC     BB1 8149  87.915  72.791  88.133
 1257DC     BB2 8150  88.024  72.585  88.408
 1257DC     BB3 8151  87.920  72.405  88.407
 1257DC     SC1 8152  87.703  72.521  88.498
 1257DC     SC2 8153  87.667  72.456  88.700
 1257DC     SC3 8154  87.455  72.610  88.509
 1258DC     BB1 8155  88.152  72.301  88.335
 1258DC     BB2 8156  88.054  72.120  88.632
 1258DC     BB3 8157  87.922  71.969  88.582
 1258DC     SC1 8158  87.727  72.141  88.548
 1258DC     SC2 8159  87.581  72.117  88.705
 1258DC     SC3 8160  87.538  72.282  88.429
 1259DT     BB1 8161  88.118  71.795  88.633
 1259DT     BB2 8162  87.845  71.687  88.842
 1259DT     BB3 8163  87.716  71.567  88.734
 1259DT     SC1 8164  87.618  71.774  88.606
 1259DT     SC2 8165  87.415  71.807  88.669
 1259DT     SC3 8166  87.557  71.937  88.408
 1260DG     BB1 8167  87.839  71.334  89.047
 1260DG     BB2 8168  87.479  71.333  89.018
 1260DG     BB3 8169  87.423  71.210  88.873
 1260DG     SC1 8170  87.432  71.424  88.654
 1260DG     SC2 8171  87.198  71.532  88.504
 1260DG     SC3 8172  87.451  71.629  88.387
 1260DG     SC4 8173  87.570  71.450  88.576
 1261DA     BB1 8174  87.205  71.033  89.087
 1261DA     BB2 8175  86.918  71.116  88.874
 1261DA     BB3 8176  86.911  70.986  88.705
 1261DA     SC1 8177  87.083  71.172  88.525
 1261DA     SC2 8178  87.051  71.317  88.324
 1261DA     SC3 8179  87.305  71.299  88.295
 1261DA     SC4 8180  87.242  71.148  88.523
 1262DT     BB1 8181  86.756  70.836  88.673
 1262DT     BB2 8182  86.580  71.013  88.412
 1262DT     BB3 8183  86.611  70.919  88.230
 1262DT     SC1 8184  86.856  71.012  88.214
 1262DT     SC2 8185  86.867  71.158  88.057
 1262DT     SC3 8186  87.119  71.016  88.202
 1263DT     BB1 8187  86.353  70.810  88.216
 1263DT     BB2 8188  86.383  71.003  87.913
 1263DT     BB3 8189  86.459  70.885  87.761
 1263DT     SC1 8190  86.700  70.894  87.864
 1263DT     SC2 8191  86.828  71.011  87.737
 1263DT     SC3 8192  86.926  70.814  87.975
 1264DG     BB1 8193  86.097  71.011  87.619
 1264DG     BB2 8194  86.362  71.087  87.385
 1264DG     BB3 8195  86.407  70.925  87.279
 1264DG     SC1 8196  86.619  70.824  87.475
 1264DG     SC2 8197  86.913  70.807  87.422
 1264DG     SC3 8198  86.843  70.675  87.678
 1264DG     SC4 8199  86.574  70.730  87.596
 1265DA     BB1 8200  86.364  71.124  86.999
 1265DA     BB2 8201  86.712  71.064  86.903
 1265DA     BB3 8202  86.733  70.870  86.817
 1265DA     SC1 8203  86.797  70.730  87.088
 1265DA     SC2 8204  86.993  70.623  87.198
 1265DA     SC3 8205  86.819  70.509  87.349
 1265DA     SC4 8206  86.673  70.668  87.170
 1266DA     BB1 8207  86.867  71.056  86.584
 1266DA     BB2 8208  87.177  70.870  86.644
 1266DA     BB3 8209  87.163  70.673  86.562
 1266DA     SC1 8210  87.050  70.545  86.822
 1266DA     SC2 8211  87.127  70.387  86.998
 1266DA     SC3 8212  86.878  70.354  87.049
 1266DA     SC4 8213  86.890  70.538  86.837
 1267DA     BB1 8214  87.441  70.783  86.429
 1267DA     BB2 8215  87.606  70.504  86.600
 1267DA     BB3 8216  87.560  70.319  86.503
 1267DA     SC1 8217  87.309  70.263  86.679
 1267DA     SC2 8218  87.241  70.102  86.857
 1267DA     SC3 8219  87.001  70.165  86.794
 1267DA     SC4 8220  87.167  70.314  86.624
 1268DT     BB1 8221  87.710  70.232  86.422
 1268DT     BB2 8222  87.744  69.967  86.664
 1268DT     BB3 8223  87.664  69.792  86.590
 1268DT     SC1 8224  87.419  69.879  86.628
 1268DT     SC2 8225  87.327  69.767  86.787
 1268DT     SC3 8226  87.173  69.959  86.576
 1269DA     BB1 8227  88.051  69.716  86.732
 1269DA     BB2 8228  87.826  69.460  86.868
 1269DA     BB3 8229  87.766  69.325  86.715
 1269DA     SC1 8230  87.513  69.488  86.636
 1269DA     SC2 8231  87.265  69.464  86.653
 1269DA     SC3 8232  87.256  69.640  86.466
 1269DA     SC4 8233  87.528  69.597  86.519
 1270DG     BB1 8234  87.902  69.119  86.902
 1270DG     BB2 8235  87.566  68.986  86.923
 1270DG     BB3 8236  87.527  68.874  86.763
 1270DG     SC1 8237  87.417  69.106  86.597
 1270DG     SC2 8238  87.134  69.138  86.507
 1270DG     SC3 8239  87.309  69.340  86.379
 1270DG     SC4 8240  87.518  69.192  86.508
 1271DA     BB1 8241  87.431  68.629  86.989
 1271DA     BB2 8242  87.096  68.622  86.839
 1271DA     BB3 8243  87.101  68.519  86.652
 1271DA     SC1 8244  87.157  68.775  86.485
 1271DA     SC2 8245  87.036  68.918  86.320
 1271DA     SC3 8246  87.269  69.000  86.251
 1271DA     SC4 8247  87.311  68.812  86.455
 1272DG     BB1 8248  86.898  68.321  86.784
 1272DG     BB2 8249  86.676  68.443  86.526
 1272DG     BB3 8250  86.708  68.344  86.357
 1272DG     SC1 8251  86.921  68.538  86.255
 1272DG     SC2 8252  86.896  68.717  86.017
 1272DG     SC3 8253  87.173  68.719  86.122
 1272DG     SC4 8254  87.074  68.514  86.295
 1273DA     BB1 8255  86.367  68.262  86.332
 1273DA     BB2 8256  86.343  68.434  86.009
 1273DA     BB3 8257  86.419  68.309  85.853
 1273DA     SC1 8258  86.709  68.418  85.875
 1273DA     SC2 8259  86.865  68.559  85.740
 1273DA     SC3 8260  87.051  68.452  85.880
 1273DA     SC4 8261  86.811  68.340  85.972
 1274DA     BB1 8262  86.125  68.349  85.702
 1274DA     BB2 8263  86.304  68.507  85.424
 1274DA     BB3 8264  86.391  68.359  85.298
 1274DA     SC1 8265  86.661  68.352  85.452
 1274DA     SC2 8266  86.898  68.420  85.412
 1274DA     SC3 8267  86.955  68.256  85.601
 1274DA     SC4 8268  86.677  68.244  85.570
 1275DA     BB1 8269  86.225  68.499  85.046
 1275DA     BB2 8270  86.549  68.575  84.892
 1275DA     BB3 8271  86.625  68.403  84.791
 1275DA     SC1 8272  86.781  68.298  85.038
 1275DA     SC2 8273  87.019  68.272  85.109
 1275DA     SC3 8274  86.929  68.100  85.277
 1275DA     SC4 8275  86.706  68.193  85.135
 1276DA     BB1 8276  86.642  68.601  84.528
 1276DA     BB2 8277  87.005  68.550  84.532
 1276DA     BB3 8278  87.055  68.363  84.442
 1276DA     SC1 8279  87.042  68.205  84.710
 1276DA     SC2 8280  87.201  68.090  84.864
 1276DA     SC3 8281  86.994  67.964  84.951
 1276DA     SC4 8282  86.902  68.136  84.749
 1277DA     BB1 8283  87.246  68.557  84.262
 1277DA     BB2 8284  87.531  68.371  84.399
 1277DA     BB3 8285  87.549  68.181  84.302
 1277DA     SC1 8286  87.369  68.032  84.508
 1277DA     SC2 8287  87.397  67.862  84.687
 1277DA     SC3 8288  87.145  67.822  84.660
 1277DA     SC4 8289  87.212  68.021  84.475
 1278DA     BB1 8290  87.846  68.307  84.269
 1278DA     BB2 8291  87.966  68.019  84.461
 1278DA     BB3 8292  87.961  67.842  84.341
 1278DA     SC1 8293  87.672  67.763  84.426
 1278DA     SC2 8294  87.561  67.586  84.562
 1278DA     SC3 8295  87.349  67.648  84.433
 1278DA     SC4 8296  87.551  67.816  84.334
 1279DT     BB1 8297  88.131  67.776  84.313
 1279DT     BB2 8298  88.106  67.489  84.530
 1279DT     BB3 8299  88.066  67.319  84.418
 1279DT     SC1 8300  87.816  67.391  84.382
 1279DT     SC2 8301  87.687  67.260  84.493
 1279DT     SC3 8302  87.595  67.466  84.260
 1280DA     BB1 8303  88.386  67.250  84.680
 1280DA     BB2 8304  88.156  66.966  84.704
 1280DA     BB3 8305  88.165  66.848  84.526
 1280DA     SC1 8306  87.937  67.004  84.382
 1280DA     SC2 8307  87.702  66.964  84.311
 1280DA     SC3 8308  87.738  67.161  84.151
 1280DA     SC4 8309  87.980  67.128  84.289
 1281DC     BB1 8310  88.238  66.667  84.544
 1281DC     BB2 8311  87.931  66.482  84.498
 1281DC     BB3 8312  87.924  66.404  84.306
 1281DC     SC1 8313  87.871  66.640  84.204
 1281DC     SC2 8314  87.668  66.643  84.132
 1281DC     SC3 8315  87.898  66.861  84.062
 1282DT     BB1 8316  87.970  66.155  84.403
 1282DT     BB2 8317  87.668  66.120  84.209
 1282DT     BB3 8318  87.716  66.084  84.010
 1282DT     SC1 8319  87.784  66.335  83.974
 1282DT     SC2 8320  87.640  66.430  83.846
 1282DT     SC3 8321  87.933  66.546  83.922
 1283DT     BB1 8322  87.650  65.811  84.016
 1283DT     BB2 8323  87.455  65.938  83.741
 1283DT     BB3 8324  87.564  65.925  83.565
 1283DT     SC1 8325  87.714  66.129  83.634
 1283DT     SC2 8326  87.670  66.297  83.507
 1283DT     SC3 8327  87.928  66.268  83.700
 1284DA     BB1 8328  87.213  65.715  83.460
 1284DA     BB2 8329  87.279  65.955  83.190
 1284DA     BB3 8330  87.436  65.884  83.064
 1284DA     SC1 8331  87.662  66.023  83.227
 1284DA     SC2 8332  87.821  66.212  83.196
 1284DA     SC3 8333  87.957  66.101  83.383
 1284DA     SC4 8334  87.733  65.938  83.343
 1285DA     BB1 8335  87.233  65.907  82.797
 1285DA     BB2 8336  87.463  66.157  82.658
 1285DA     BB3 8337  87.627  66.062  82.561
 1285DA     SC1 8338  87.805  66.056  82.816
 1285DA     SC2 8339  88.013  66.167  82.898
 1285DA     SC3 8340  88.029  65.970  83.062
 1285DA     SC4 8341  87.799  65.925  82.909
 1286DA     BB1 8342  87.548  66.233  82.287
 1286DA     BB2 8343  87.874  66.399  82.314
 1286DA     BB3 8344  88.028  66.275  82.232
 1286DA     SC1 8345  88.090  66.134  82.502
 1286DA     SC2 8346  88.276  66.129  82.669
 1286DA     SC3 8347  88.173  65.906  82.746
 1286DA     SC4 8348  88.013  65.997  82.534
 1287DA     BB1 8349  88.096  66.537  82.045
 1287DA     BB2 8350  88.422  66.550  82.211
 1287DA     BB3 8351  88.554  66.405  82.127
 1287DA     SC1 8352  88.474  66.180  82.327
 1287DA     SC2 8353  88.578  66.057  82.518
 1287DA     SC3 8354  88.398  65.880  82.475
 1287DA     SC4 8355  88.356  66.081  82.284
 1288DC     BB1 8356  88.720  66.470  82.025
 1288DC     BB2 8357  88.957  66.394  82.286
 1288DC     BB3 8358  89.069  66.228  82.234
 1288DC     SC1 8359  88.868  66.067  82.284
 1288DC     SC2 8360  88.912  65.950  82.459
 1288DC     SC3 8361  88.676  65.890  82.246
 1289DA     BB1 8362  89.317  66.542  82.354
 1289DA     BB2 8363  89.415  66.241  82.539
 1289DA     BB3 8364  89.513  66.103  82.410
 1289DA     SC1 8365  89.252  65.954  82.329
 1289DA     SC2 8366  89.147  65.731  82.367
 1289DA     SC3 8367  89.007  65.784  82.159
 1289DA     SC4 8368  89.175  66.005  82.197
 1290DC     BB1 8369  89.683  66.081  82.465
 1290DC     BB2 8370  89.641  65.751  82.604
 1290DC     BB3 8371  89.706  65.608  82.469
 1290DC     SC1 8372  89.492  65.640  82.321
 1290DC     SC2 8373  89.369  65.465  82.334
 1290DC     SC3 8374  89.341  65.700  82.113
 1291DT     BB1 8375  89.892  65.579  82.649
 1291DT     BB2 8376  89.741  65.254  82.612
 1291DT     BB3 8377  89.817  65.159  82.445
 1291DT     SC1 8378  89.676  65.311  82.285
 1291DT     SC2 8379  89.522  65.193  82.191
 1291DT     SC3 8380  89.617  65.489  82.099
 1292DC     BB1 8381  89.918  65.010  82.631
 1292DC     BB2 8382  89.729  64.788  82.418
 1292DC     BB3 8383  89.837  64.748  82.245
 1292DC     SC1 8384  89.785  64.986  82.148
 1292DC     SC2 8385  89.651  64.967  81.981
 1292DC     SC3 8386  89.823  65.231  82.058
 1293DC     BB1 8387  89.867  64.504  82.345
 1293DC     BB2 8388  89.717  64.455  82.020
 1293DC     BB3 8389  89.863  64.460  81.874
 1293DC     SC1 8390  89.885  64.721  81.893
 1293DC     SC2 8391  89.807  64.813  81.715
 1293DC     SC3 8392  89.990  64.959  81.939
 1294DG     BB1 8393  89.669  64.103  81.844
 1294DG     BB2 8394  89.683  64.273  81.526
 1294DG     BB3 8395  89.865  64.256  81.447
 1294DG     SC1 8396  89.973  64.510  81.580
 1294DG     SC2 8397  90.055  64.760  81.439
 1294DG     SC3 8398  90.130  64.771  81.725
 1294DG     SC4 8399  90.038  64.499  81.726
 1295DT     BB1 8400  89.894  64.152  81.258
 1295DT     BB2 8401  89.958  64.427  81.033
 1295DT     BB3 8402  90.161  64.440  80.993
 1295DT     SC1 8403  90.208  64.542  81.230
 1295DT     SC2 8404  90.266  64.748  81.209
 1295DT     SC3 8405  90.303  64.566  81.475
 1296DG     BB1 8406  89.963  64.399  80.639
 1296DG     BB2 8407  90.187  64.683  80.635
 1296DG     BB3 8408  90.375  64.622  80.613
 1296DG     SC1 8409  90.427  64.594  80.913
 1296DG     SC2 8410  90.615  64.760  81.074
 1296DG     SC3 8411  90.512  64.533  81.234
 1296DG     SC4 8412  90.393  64.455  80.985
 1297DC     BB1 8413  90.478  64.686  80.442
 1297DC     BB2 8414  90.708  64.929  80.579
 1297DC     BB3 8415  90.895  64.843  80.603
 1297DC     SC1 8416  90.815  64.708  80.813
 1297DC     SC2 8417  90.910  64.787  80.989
 1297DC     SC3 8418  90.754  64.503  80.968
 1298DT     BB1 8419  90.979  64.993  80.398
 1298DT     BB2 8420  91.204  65.074  80.668
 1298DT     BB3 8421  91.356  64.934  80.678
 1298DT     SC1 8422  91.196  64.754  80.782
 1298DT     SC2 8423  91.251  64.719  80.987
 1298DT     SC3 8424  91.055  64.533  80.809
 1299DA     BB1 8425  91.550  65.308  80.665
 1299DA     BB2 8426  91.704  65.112  80.934
 1299DA     BB3 8427  91.827  64.958  80.853
 1299DA     SC1 8428  91.600  64.746  80.845
 1299DA     SC2 8429  91.540  64.535  80.964
 1299DA     SC3 8430  91.392  64.486  80.760
 1299DA     SC4 8431  91.515  64.733  80.709
 1300DT     BB1 8432  92.047  64.953  80.868
 1300DT     BB2 8433  92.068  64.688  81.112
 1300DT     BB3 8434  92.139  64.515  81.022
 1300DT     SC1 8435  91.909  64.473  80.904
 1300DT     SC2 8436  91.814  64.301  80.991
 1300DT     SC3 8437  91.730  64.442  80.712
 1301DT     BB1 8438  92.414  64.515  81.121
 1301DT     BB2 8439  92.289  64.192  81.223
 1301DT     BB3 8440  92.336  64.050  81.080
 1301DT     SC1 8441  92.150  64.140  80.919
 1301DT     SC2 8442  91.991  63.996  80.904
 1301DT     SC3 8443  92.037  64.248  80.706
 1302DT     BB1 8444  92.561  63.907  81.211
 1302DT     BB2 8445  92.324  63.643  81.144
 1302DT     BB3 8446  92.371  63.549  80.966
 1302DT     SC1 8447  92.280  63.751  80.826
 1302DT     SC2 8448  92.100  63.692  80.724
 1302DT     SC3 8449  92.277  63.957  80.660
 1303DT     BB1 8450  92.478  63.305  81.078
 1303DT     BB2 8451  92.207  63.192  80.868
 1303DT     BB3 8452  92.279  63.143  80.680
 1303DT     SC1 8453  92.307  63.395  80.615
 1303DT     SC2 8454  92.162  63.447  80.465
 1303DT     SC3 8455  92.421  63.623  80.547
 1304DT     BB1 8456  92.245  62.872  80.727
 1304DT     BB2 8457  92.040  62.941  80.437
 1304DT     BB3 8458  92.151  62.915  80.265
 1304DT     SC1 8459  92.281  63.139  80.304
 1304DT     SC2 8460  92.221  63.284  80.156
 1304DT     SC3 8461  92.480  63.306  80.350
 1305DA     BB1 8462  91.786  62.714  80.247
 1305DA     BB2 8463  91.822  62.915  79.943
 1305DA     BB3 8464  91.969  62.829  79.814
 1305DA     SC1 8465  92.205  62.992  79.935
 1305DA     SC2 8466  92.357  63.177  79.865
 1305DA     SC3 8467  92.511  63.094  80.052
 1305DA     SC4 8468  92.288  62.925  80.056
 1306DT     BB1 8469  91.885  62.783  79.668
 1306DT     BB2 8470  92.017  63.043  79.456
 1306DT     BB3 8471  92.179  62.971  79.349
 1306DT     SC1 8472  92.334  62.980  79.561
 1306DT     SC2 8473  92.480  63.135  79.536
 1306DT     SC3 8474  92.489  62.899  79.758
 1307DT     BB1 8475  92.004  63.011  79.165
 1307DT     BB2 8476  92.294  63.202  79.068
 1307DT     BB3 8477  92.438  63.077  78.988
 1307DT     SC1 8478  92.501  62.985  79.225
 1307DT     SC2 8479  92.698  63.055  79.279
 1307DT     SC3 8480  92.534  62.816  79.425
 1308DG     BB1 8481  92.345  63.391  78.743
 1308DG     BB2 8482  92.702  63.348  78.778
 1308DG     BB3 8483  92.761  63.186  78.678
 1308DG     SC1 8484  92.722  62.996  78.916
 1308DG     SC2 8485  92.939  62.852  79.062
 1308DG     SC3 8486  92.673  62.757  79.148
 1308DG     SC4 8487  92.580  62.927  78.938
 1309DT     BB1 8488  92.895  63.204  78.510
 1309DT     BB2 8489  93.201  63.052  78.626
 1309DT     BB3 8490  93.215  62.858  78.556
 1309DT     SC1 8491  93.035  62.775  78.728
 1309DT     SC2 8492  93.130  62.650  78.875
 1309DT     SC3 8493  92.811  62.674  78.824
 1310DA     BB1 8494  93.585  62.992  78.387
 1310DA     BB2 8495  93.656  62.662  78.529
 1310DA     BB3 8496  93.585  62.508  78.399
 1310DA     SC1 8497  93.304  62.492  78.532
 1310DA     SC2 8498  93.176  62.331  78.673
 1310DA     SC3 8499  92.968  62.458  78.594
 1310DA     SC4 8500  93.187  62.583  78.470
 1311DT     BB1 8501  93.689  62.302  78.198
 1311DT     BB2 8502  93.621  62.011  78.401
 1311DT     BB3 8503  93.485  61.889  78.305
 1311DT     SC1 8504  93.287  62.052  78.362
 1311DT     SC2 8505  93.157  61.959  78.506
 1311DT     SC3 8506  93.087  62.220  78.328
 1312DT     BB1 8507  93.622  61.626  78.139
 1312DT     BB2 8508  93.380  61.460  78.349
 1312DT     BB3 8509  93.214  61.406  78.237
 1312DT     SC1 8510  93.129  61.655  78.229
 1312DT     SC2 8511  92.951  61.673  78.348
 1312DT     SC3 8512  93.059  61.890  78.132
 1313DT     BB1 8513  93.231  61.095  78.176
 1313DT     BB2 8514  92.915  61.127  78.347
 1313DT     BB3 8515  92.760  61.126  78.210
 1313DT     SC1 8516  92.815  61.372  78.135
 1313DT     SC2 8517  92.658  61.504  78.200
 1313DT     SC3 8518  92.886  61.574  77.981
 1314DT     BB1 8519  92.656  60.860  78.261
 1314DT     BB2 8520  92.379  61.078  78.336
 1314DT     BB3 8521  92.256  61.096  78.170
 1314DT     SC1 8522  92.428  61.254  78.051
 1314DT     SC2 8523  92.348  61.453  78.040
 1314DT     SC3 8524  92.602  61.342  77.873
 1315DA     BB1 8525  92.024  60.991  78.501
 1315DA     BB2 8526  91.876  61.290  78.348
 1315DA     BB3 8527  91.777  61.239  78.167
 1315DA     SC1 8528  92.027  61.286  77.988
 1315DA     SC2 8529  92.102  61.450  77.815
 1315DA     SC3 8530  92.268  61.267  77.744
 1315DA     SC4 8531  92.121  61.160  77.958
 1316DG     BB1 8532  91.551  61.361  78.333
 1316DG     BB2 8533  91.565  61.614  78.074
 1316DG     BB3 8534  91.471  61.549  77.911
 1316DG     SC1 8535  91.719  61.419  77.788
 1316DG     SC2 8536  91.858  61.507  77.539
 1316DG     SC3 8537  91.965  61.248  77.634
 1316DG     SC4 8538  91.753  61.267  77.825
 1317DA     BB1 8539  91.327  61.858  77.949
 1317DA     BB2 8540  91.447  61.948  77.614
 1317DA     BB3 8541  91.335  61.843  77.465
 1317DA     SC1 8542  91.529  61.600  77.456
 1317DA     SC2 8543  91.694  61.501  77.297
 1317DA     SC3 8544  91.665  61.285  77.433
 1317DA     SC4 8545  91.496  61.475  77.551
 1318DA     BB1 8546  91.318  62.155  77.373
 1318DA     BB2 8547  91.482  62.048  77.063
 1318DA     BB3 8548  91.347  61.935  76.943
 1318DA     SC1 8549  91.429  61.661  77.067
 1318DA     SC2 8550  91.550  61.455  76.996
 1318DA     SC3 8551  91.430  61.341  77.192
 1318DA     SC4 8552  91.344  61.608  77.192
 1319DC     BB1 8553  91.309  62.020  76.784
 1319DC     BB2 8554  91.502  61.804  76.570
 1319DC     BB3 8555  91.378  61.665  76.478
 1319DC     SC1 8556  91.355  61.528  76.701
 1319DC     SC2 8557  91.457  61.340  76.679
 1319DC     SC3 8558  91.245  61.416  76.913
 1320DA     BB1 8559  91.626  61.853  76.197
 1320DA     BB2 8560  91.639  61.491  76.141
 1320DA     BB3 8561  91.455  61.421  76.060
 1320DA     SC1 8562  91.328  61.361  76.338
 1320DA     SC2 8563  91.262  61.161  76.472
 1320DA     SC3 8564  91.113  61.323  76.604
 1320DA     SC4 8565  91.241  61.477  76.407
 1321DA     BB1 8566  91.679  61.303  75.856
 1321DA     BB2 8567  91.549  60.971  75.941
 1321DA     BB3 8568  91.355  60.943  75.857
 1321DA     SC1 8569  91.204  61.053  76.105
 1321DA     SC2 8570  91.058  60.965  76.286
 1321DA     SC3 8571  90.981  61.208  76.316
 1321DA     SC4 8572  91.168  61.210  76.107
 1322DA     BB1 8573  91.527  60.679  75.763
 1322DA     BB2 8574  91.269  60.484  75.935
 1322DA     BB3 8575  91.084  60.496  75.829
 1322DA     SC1 8576  90.983  60.745  75.987
 1322DA     SC2 8577  90.807  60.798  76.155
 1322DA     SC3 8578  90.836  61.041  76.079
 1322DA     SC4 8579  91.015  60.890  75.925
 1323DT     BB1 8580  91.023  60.332  75.753
 1323DT     BB2 8581  90.750  60.271  75.981
 1323DT     BB3 8582  90.571  60.327  75.894
 1323DT     SC1 8583  90.624  60.581  75.927
 1323DT     SC2 8584  90.492  60.663  76.076
 1323DT     SC3 8585  90.676  60.834  75.870
 1324DT     BB1 8586  90.502  60.066  75.865
 1324DT     BB2 8587  90.229  60.211  76.052
 1324DT     BB3 8588  90.091  60.293  75.922
 1324DT     SC1 8589  90.247  60.498  75.872
 1324DT     SC2 8590  90.163  60.675  75.959
 1324DT     SC3 8591  90.401  60.666  75.739
 1325DT     BB1 8592  89.916  60.092  75.975
 1325DT     BB2 8593  89.735  60.393  76.056
 1325DT     BB3 8594  89.643  60.468  75.887
 1325DT     SC1 8595  89.871  60.556  75.792
 1325DT     SC2 8596  89.871  60.771  75.797
 1325DT     SC3 8597  90.080  60.584  75.634
 1326DA     BB1 8598  89.351  60.439  76.187
 1326DA     BB2 8599  89.330  60.774  76.040
 1326DA     BB3 8600  89.245  60.764  75.845
 1326DA     SC1 8601  89.518  60.731  75.700
 1326DA     SC2 8602  89.665  60.866  75.550
 1326DA     SC3 8603  89.771  60.641  75.486
 1326DA     SC4 8604  89.570  60.582  75.673
 1327DC     BB1 8605  89.071  60.851  75.823
 1327DC     BB2 8606  89.187  61.138  75.638
 1327DC     BB3 8607  89.144  61.114  75.437
 1327DC     SC1 8608  89.337  60.939  75.407
 1327DC     SC2 8609  89.494  61.025  75.288
 1327DC     SC3 8610  89.459  60.711  75.359
 1328DG     BB1 8611  88.976  61.462  75.568
 1328DG     BB2 8612  89.178  61.514  75.272
 1328DG     BB3 8613  89.081  61.449  75.112
 1328DG     SC1 8614  89.193  61.165  75.129
 1328DG     SC2 8615  89.379  61.037  74.934
 1328DG     SC3 8616  89.280  60.839  75.129
 1328DG     SC4 8617  89.115  61.056  75.217
 1329DA     BB1 8618  89.147  61.762  74.974
 1329DA     BB2 8619  89.323  61.602  74.695
 1329DA     BB3 8620  89.184  61.513  74.561
 1329DA     SC1 8621  89.185  61.237  74.704
 1329DA     SC2 8622  89.266  61.005  74.658
 1329DA     SC3 8623  89.098  60.933  74.838
 1329DA     SC4 8624  89.074  61.212  74.817
 1330DA     BB1 8625  89.336  61.696  74.329
 1330DA     BB2 8626  89.423  61.382  74.161
 1330DA     BB3 8627  89.253  61.304  74.058
 1330DA     SC1 8628  89.155  61.134  74.299
 1330DA     SC2 8629  89.139  60.892  74.360
 1330DA     SC3 8630  88.966  60.969  74.533
 1330DA     SC4 8631  89.049  61.201  74.400
 1331DA     BB1 8632  89.437  61.302  73.777
 1331DA     BB2 8633  89.394  60.938  73.768
 1331DA     BB3 8634  89.203  60.888  73.688
 1331DA     SC1 8635  89.061  60.885  73.965
 1331DA     SC2 8636  88.960  60.717  74.119
 1331DA     SC3 8637  88.836  60.916  74.222
 1331DA     SC4 8638  88.992  61.022  74.015
 1332DA     BB1 8639  89.363  60.702  73.462
 1332DA     BB2 8640  89.195  60.410  73.606
 1332DA     BB3 8641  88.995  60.395  73.532
 1332DA     SC1 8642  88.872  60.564  73.762
 1332DA     SC2 8643  88.724  60.526  73.960
 1332DA     SC3 8644  88.681  60.779  73.950
 1332DA     SC4 8645  88.857  60.722  73.739
 1333DT     BB1 8646  88.930  60.235  73.403
 1333DT     BB2 8647  88.746  60.054  73.655
 1333DT     BB3 8648  88.543  60.072  73.621
 1333DT     SC1 8649  88.542  60.319  73.709
 1333DT     SC2 8650  88.437  60.328  73.896
 1333DT     SC3 8651  88.516  60.582  73.710
 1334DG     BB1 8652  88.618  59.670  73.611
 1334DG     BB2 8653  88.356  59.749  73.848
 1334DG     BB3 8654  88.183  59.776  73.752
 1334DG     SC1 8655  88.225  60.076  73.709
 1334DG     SC2 8656  88.065  60.295  73.834
 1334DG     SC3 8657  88.248  60.403  73.628
 1334DG     SC4 8658  88.303  60.126  73.578
 1335DC     BB1 8659  88.004  59.643  73.787
 1335DC     BB2 8660  87.799  59.859  73.990
 1335DC     BB3 8661  87.642  59.934  73.877
 1335DC     SC1 8662  87.801  60.100  73.751
 1335DC     SC2 8663  87.757  60.301  73.811
 1335DC     SC3 8664  87.934  60.215  73.554
 1336DA     BB1 8665  87.481  59.767  74.227
 1336DA     BB2 8666  87.347  60.106  74.190
 1336DA     BB3 8667  87.202  60.112  74.033
 1336DA     SC1 8668  87.409  60.183  73.812
 1336DA     SC2 8669  87.465  60.379  73.668
 1336DA     SC3 8670  87.583  60.208  73.517
 1336DA     SC4 8671  87.475  60.061  73.730
 1337DC     BB1 8672  87.016  60.151  74.087
 1337DC     BB2 8673  87.013  60.492  73.967
 1337DC     BB3 8674  86.905  60.504  73.791
 1337DC     SC1 8675  87.101  60.393  73.656
 1337DC     SC2 8676  87.190  60.539  73.525
 1337DC     SC3 8677  87.233  60.218  73.508
 1338DA     BB1 8678  86.783  60.794  74.068
 1338DA     BB2 8679  86.850  60.959  73.747
 1338DA     BB3 8680  86.701  60.907  73.604
 1338DA     SC1 8681  86.856  60.659  73.496
 1338DA     SC2 8682  86.975  60.593  73.287
 1338DA     SC3 8683  86.943  60.352  73.369
 1338DA     SC4 8684  86.825  60.517  73.563
 1339DA     BB1 8685  86.732  61.230  73.610
 1339DA     BB2 8686  86.823  61.198  73.256
 1339DA     BB3 8687  86.654  61.136  73.142
 1339DA     SC1 8688  86.713  60.832  73.172
 1339DA     SC2 8689  86.788  60.644  73.027
 1339DA     SC3 8690  86.687  60.492  73.208
 1339DA     SC4 8691  86.644  60.755  73.294
 1340DT     BB1 8692  86.637  61.265  73.039
 1340DT     BB2 8693  86.749  61.101  72.738
 1340DT     BB3 8694  86.589  61.014  72.641
 1340DT     SC1 8695  86.576  60.820  72.817
 1340DT     SC2 8696  86.637  60.636  72.724
 1340DT     SC3 8697  86.483  60.664  73.008
 1341DA     BB1 8698  86.856  61.234  72.396
 1341DA     BB2 8699  86.778  60.915  72.233
 1341DA     BB3 8700  86.572  60.908  72.179
 1341DA     SC1 8701  86.480  60.781  72.447
 1341DA     SC2 8702  86.391  60.561  72.526
 1341DA     SC3 8703  86.305  60.693  72.729
 1341DA     SC4 8704  86.433  60.880  72.565
 1342DA     BB1 8705  86.745  60.822  71.911
 1342DA     BB2 8706  86.544  60.516  71.915
 1342DA     BB3 8707  86.339  60.561  71.875
 1342DA     SC1 8708  86.264  60.600  72.174
 1342DA     SC2 8709  86.129  60.482  72.348
 1342DA     SC3 8710  86.127  60.708  72.470
 1342DA     SC4 8711  86.273  60.749  72.234
 1343DA     BB1 8712  86.395  60.325  71.651
 1343DA     BB2 8713  86.120  60.140  71.809
 1343DA     BB3 8714  85.933  60.234  71.765
 1343DA     SC1 8715  85.939  60.417  72.017
 1343DA     SC2 8716  85.816  60.437  72.233
 1343DA     SC3 8717  85.905  60.678  72.237
 1343DA     SC4 8718  86.002  60.563  72.001
 1344DC     BB1 8719  85.800  60.137  71.649
 1344DC     BB2 8720  85.561  60.055  71.907
 1344DC     BB3 8721  85.398  60.181  71.895
 1344DC     SC1 8722  85.535  60.380  71.998
 1344DC     SC2 8723  85.460  60.423  72.195
 1344DC     SC3 8724  85.654  60.614  72.019
 1345DT     BB1 8725  85.241  59.982  71.795
 1345DT     BB2 8726  85.061  60.099  72.085
 1345DT     BB3 8727  84.940  60.258  72.034
 1345DT     SC1 8728  85.146  60.420  72.019
 1345DT     SC2 8729  85.138  60.561  72.181
 1345DT     SC3 8730  85.325  60.585  71.918
 1346DT     BB1 8731  84.713  60.105  72.053
 1346DT     BB2 8732  84.651  60.383  72.275
 1346DT     BB3 8733  84.568  60.540  72.170
 1346DT     SC1 8734  84.799  60.599  72.060
 1346DT     SC2 8735  84.870  60.786  72.140
 1346DT     SC3 8736  84.984  60.636  71.876
 1347DA     BB1 8737  84.300  60.478  72.489
 1347DA     BB2 8738  84.373  60.837  72.475
 1347DA     BB3 8739  84.271  60.927  72.311
 1347DA     SC1 8740  84.505  60.884  72.111
 1347DA     SC2 8741  84.672  61.024  71.989
 1347DA     SC3 8742  84.695  60.824  71.831
 1347DA     SC4 8743  84.504  60.750  72.022
 1348DT     BB1 8744  84.106  61.071  72.332
 1348DT     BB2 8745  84.293  61.365  72.239
 1348DT     BB3 8746  84.234  61.429  72.051
 1348DT     SC1 8747  84.364  61.234  71.935
 1348DT     SC2 8748  84.533  61.314  71.828
 1348DT     SC3 8749  84.410  61.016  71.793
 1349DG     BB1 8750  84.131  61.763  72.273
 1349DG     BB2 8751  84.341  61.856  71.994
 1349DG     BB3 8752  84.231  61.876  71.830
 1349DG     SC1 8753  84.261  61.583  71.745
 1349DG     SC2 8754  84.406  61.485  71.504
 1349DG     SC3 8755  84.256  61.265  71.633
 1349DG     SC4 8756  84.156  61.475  71.799
 1350DT     BB1 8757  84.174  62.087  71.681
 1350DT     BB2 8758  84.399  62.023  71.406
 1350DT     BB3 8759  84.291  61.978  71.235
 1350DT     SC1 8760  84.232  61.739  71.325
 1350DT     SC2 8761  84.336  61.591  71.208
 1350DT     SC3 8762  84.090  61.534  71.411
 1351DG     BB1 8763  84.491  62.317  71.111
 1351DG     BB2 8764  84.559  62.038  70.892
 1351DG     BB3 8765  84.416  62.022  70.755
 1351DG     SC1 8766  84.241  61.836  70.925
 1351DG     SC2 8767  84.179  61.550  70.864
 1351DG     SC3 8768  84.015  61.648  71.091
 1351DG     SC4 8769  84.134  61.900  71.025
 1352DA     BB1 8770  84.670  62.025  70.526
 1352DA     BB2 8771  84.581  61.683  70.427
 1352DA     BB3 8772  84.412  61.685  70.296
 1352DA     SC1 8773  84.203  61.660  70.526
 1352DA     SC2 8774  84.043  61.490  70.612
 1352DA     SC3 8775  83.925  61.688  70.724
 1352DA     SC4 8776  84.143  61.796  70.586
 1353DA     BB1 8777  84.645  61.511  70.155
 1353DA     BB2 8778  84.409  61.230  70.179
 1353DA     BB3 8779  84.248  61.257  70.042
 1353DA     SC1 8780  84.069  61.410  70.246
 1353DA     SC2 8781  83.858  61.369  70.374
 1353DA     SC3 8782  83.846  61.624  70.397
 1353DA     SC4 8783  84.078  61.570  70.248
 1354DT     BB1 8784  84.257  61.124  69.930
 1354DT     BB2 8785  83.975  60.940  70.058
 1354DT     BB3 8786  83.805  60.984  69.948
 1354DT     SC1 8787  83.783  61.219  70.063
 1354DT     SC2 8788  83.610  61.221  70.191
 1354DT     SC3 8789  83.775  61.481  70.092
 1355DT     BB1 8790  83.837  60.737  69.873
 1355DT     BB2 8791  83.507  60.754  70.016
 1355DT     BB3 8792  83.374  60.834  69.879
 1355DT     SC1 8793  83.470  61.076  69.915
 1355DT     SC2 8794  83.323  61.196  70.016
 1355DT     SC3 8795  83.588  61.306  69.864
 1356DT     BB1 8796  83.276  60.590  69.870
 1356DT     BB2 8797  82.998  60.801  69.961
 1356DT     BB3 8798  82.917  60.888  69.791
 1356DT     SC1 8799  83.118  61.055  69.771
 1356DT     SC2 8800  83.051  61.254  69.816
 1356DT     SC3 8801  83.331  61.177  69.674
 1357DT     BB1 8802  82.706  60.727  69.825
 1357DT     BB2 8803  82.569  61.061  69.822
 1357DT     BB3 8804  82.538  61.122  69.626
 1357DT     SC1 8805  82.794  61.161  69.589
 1357DT     SC2 8806  82.833  61.371  69.571
 1357DT     SC3 8807  83.038  61.133  69.490
 1358DC     BB1 8808  82.276  61.098  69.675
 1358DC     BB2 8809  82.320  61.440  69.568
 1358DC     BB3 8810  82.319  61.451  69.362
 1358DC     SC1 8811  82.560  61.350  69.347
 1358DC     SC2 8812  82.697  61.501  69.280
 1358DC     SC3 8813  82.756  61.183  69.290
 1359DA     BB1 8814  82.053  61.733  69.522
 1359DA     BB2 8815  82.263  61.901  69.271
 1359DA     BB3 8816  82.210  61.836  69.075
 1359DA     SC1 8817  82.414  61.601  69.071
 1359DA     SC2 8818  82.627  61.543  68.955
 1359DA     SC3 8819  82.573  61.301  69.020
 1359DA     SC4 8820  82.362  61.457  69.121
 1360DC     BB1 8821  82.143  61.974  68.977
 1360DC     BB2 8822  82.425  62.018  68.756
 1360DC     BB3 8823  82.390  61.920  68.577
 1360DC     SC1 8824  82.433  61.686  68.687
 1360DC     SC2 8825  82.617  61.604  68.611
 1360DC     SC3 8826  82.389  61.441  68.774
 1361DG     BB1 8827  82.474  62.313  68.506
 1361DG     BB2 8828  82.675  62.094  68.300
 1361DG     BB3 8829  82.564  62.019  68.153
 1361DG     SC1 8830  82.475  61.774  68.312
 1361DG     SC2 8831  82.549  61.490  68.255
 1361DG     SC3 8832  82.341  61.504  68.465
 1361DG     SC4 8833  82.343  61.784  68.403
 1362DA     BB1 8834  82.812  62.129  67.932
 1362DA     BB2 8835  82.855  61.788  67.806
 1362DA     BB3 8836  82.691  61.734  67.679
 1362DA     SC1 8837  82.520  61.615  67.910
 1362DA     SC2 8838  82.441  61.390  67.984
 1362DA     SC3 8839  82.263  61.519  68.116
 1362DA     SC4 8840  82.416  61.713  67.984
 1363DT     BB1 8841  82.710  61.704  67.465
 1363DT     BB2 8842  82.674  61.345  67.465
 1363DT     BB3 8843  82.489  61.292  67.389
 1363DT     SC1 8844  82.368  61.367  67.609
 1363DT     SC2 8845  82.292  61.194  67.712
 1363DT     SC3 8846  82.209  61.501  67.772
 1364DT     BB1 8847  82.580  61.202  67.134
 1364DT     BB2 8848  82.396  60.919  67.263
 1364DT     BB3 8849  82.199  60.930  67.200
 1364DT     SC1 8850  82.146  61.121  67.372
 1364DT     SC2 8851  82.017  61.045  67.526
 1364DT     SC3 8852  82.079  61.358  67.467
 1365DT     BB1 8853  82.214  60.724  67.004
 1365DT     BB2 8854  81.948  60.614  67.221
 1365DT     BB3 8855  81.766  60.683  67.151
 1365DT     SC1 8856  81.817  60.926  67.234
 1365DT     SC2 8857  81.688  60.974  67.399
 1365DT     SC3 8858  81.863  61.186  67.228
 1366DT     BB1 8859  81.683  60.432  67.058
 1366DT     BB2 8860  81.424  60.531  67.290
 1366DT     BB3 8861  81.276  60.635  67.190
 1366DT     SC1 8862  81.427  60.848  67.171
 1366DT     SC2 8863  81.348  61.003  67.298
 1366DT     SC3 8864  81.569  61.043  67.065
 1367DT     BB1 8865  81.103  60.423  67.214
 1367DT     BB2 8866  80.933  60.698  67.374
 1367DT     BB3 8867  80.822  60.803  67.235
 1367DT     SC1 8868  81.038  60.914  67.136
 1367DT     SC2 8869  81.040  61.124  67.184
 1367DT     SC3 8870  81.227  60.978  66.964
 1368DA     BB1 8871  80.574  60.707  67.558
 1368DA     BB2 8872  80.536  61.065  67.488
 1368DA     BB3 8873  80.424  61.094  67.309
 1368DA     SC1 8874  80.674  61.097  67.124
 1368DA     SC2 8875  80.800  61.263  66.986
 1368DA     SC3 8876  80.894  61.058  66.863
 1368DA     SC4 8877  80.720  60.958  67.059
 1369DG     BB1 8878  80.239  61.244  67.505
 1369DG     BB2 8879  80.331  61.529  67.302
 1369DG     BB3 8880  80.223  61.531  67.135
 1369DG     SC1 8881  80.420  61.361  66.975
 1369DG     SC2 8882  80.581  61.454  66.741
 1369DG     SC3 8883  80.604  61.161  66.775
 1369DG     SC4 8884  80.406  61.202  66.978
 1370DC     BB1 8885  80.092  61.698  67.099
 1370DC     BB2 8886  80.269  61.875  66.839
 1370DC     BB3 8887  80.183  61.835  66.655
 1370DC     SC1 8888  80.287  61.595  66.649
 1370DC     SC2 8889  80.439  61.587  66.496
 1370DC     SC3 8890  80.304  61.332  66.644
 1371DT     BB1 8891  80.079  62.087  66.647
 1371DT     BB2 8892  80.271  62.061  66.343
 1371DT     BB3 8893  80.155  61.979  66.193
 1371DT     SC1 8894  80.172  61.739  66.298
 1371DT     SC2 8895  80.293  61.614  66.172
 1371DT     SC3 8896  80.100  61.513  66.412
 1372DT     BB1 8897  80.133  62.221  66.063
 1372DT     BB2 8898  80.270  62.000  65.813
 1372DT     BB3 8899  80.116  61.907  65.710
 1372DT     SC1 8900  80.067  61.748  65.912
 1372DT     SC2 8901  80.124  61.547  65.861
 1372DT     SC3 8902  79.938  61.633  66.112
 1373DA     BB1 8903  80.355  62.079  65.410
 1373DA     BB2 8904  80.293  61.730  65.314
 1373DA     BB3 8905  80.094  61.708  65.240
 1373DA     SC1 8906  79.972  61.640  65.518
 1373DA     SC2 8907  79.874  61.442  65.633
 1373DA     SC3 8908  79.767  61.612  65.792
 1373DA     SC4 8909  79.914  61.762  65.605
 1374DG     BB1 8910  80.220  61.617  64.966
 1374DG     BB2 8911  80.059  61.302  65.044
 1374DG     BB3 8912  79.870  61.306  64.981
 1374DG     SC1 8913  79.759  61.419  65.243
 1374DG     SC2 8914  79.579  61.276  65.434
 1374DG     SC3 8915  79.606  61.561  65.508
 1374DG     SC4 8916  79.753  61.578  65.263
 1375DG     BB1 8917  79.919  61.043  64.784
 1375DG     BB2 8918  79.677  60.869  64.990
 1375DG     BB3 8919  79.493  60.906  64.924
 1375DG     SC1 8920  79.453  61.154  65.099
 1375DG     SC2 8921  79.259  61.180  65.325
 1375DG     SC3 8922  79.382  61.441  65.261
 1375DG     SC4 8923  79.498  61.297  65.042
 1376DC     BB1 8924  79.354  60.742  64.841
 1376DC     BB2 8925  79.124  60.702  65.116
 1376DC     BB3 8926  78.941  60.786  65.068
 1376DC     SC1 8927  79.035  61.029  65.101
 1376DC     SC2 8928  78.947  61.117  65.277
 1376DC     SC3 8929  79.110  61.276  65.046
 1377DC     BB1 8930  78.830  60.538  65.043
 1377DC     BB2 8931  78.627  60.703  65.292
 1377DC     BB3 8932  78.474  60.808  65.201
 1377DC     SC1 8933  78.639  60.996  65.121
 1377DC     SC2 8934  78.599  61.177  65.230
 1377DC     SC3 8935  78.779  61.152  64.961
 1378DA     BB1 8936  78.307  60.567  65.499
 1378DA     BB2 8937  78.172  60.905  65.539
 1378DA     BB3 8938  78.030  60.948  65.386
 1378DA     SC1 8939  78.241  61.068  65.191
 1378DA     SC2 8940  78.300  61.292  65.098
 1378DA     SC3 8941  78.421  61.161  64.914
 1378DA     SC4 8942  78.310  60.968  65.085
 1379DA     BB1 8943  77.854  61.019  65.651
 1379DA     BB2 8944  77.825  61.359  65.516
 1379DA     BB3 8945  77.688  61.362  65.353
 1379DA     SC1 8946  77.906  61.309  65.138
 1379DA     SC2 8947  78.018  61.434  64.953
 1379DA     SC3 8948  78.080  61.202  64.861
 1379DA     SC4 8949  77.934  61.156  65.096
 1380DA     BB1 8950  77.558  61.600  65.537
 1380DA     BB2 8951  77.613  61.826  65.253
 1380DA     BB3 8952  77.470  61.788  65.100
 1380DA     SC1 8953  77.647  61.579  64.952
 1380DA     SC2 8954  77.773  61.562  64.738
 1380DA     SC3 8955  77.762  61.309  64.775
 1380DA     SC4 8956  77.628  61.424  64.992
 1381DA     BB1 8957  77.414  62.111  65.131
 1381DA     BB2 8958  77.507  62.145  64.778
 1381DA     BB3 8959  77.348  62.077  64.652
 1381DA     SC1 8960  77.452  61.784  64.639
 1381DA     SC2 8961  77.554  61.632  64.469
 1381DA     SC3 8962  77.477  61.442  64.624
 1381DA     SC4 8963  77.395  61.680  64.747
 1382DA     BB1 8964  77.395  62.377  64.524
 1382DA     BB2 8965  77.472  62.207  64.209
 1382DA     BB3 8966  77.293  62.130  64.120
 1382DA     SC1 8967  77.315  61.853  64.260
 1382DA     SC2 8968  77.362  61.617  64.196
 1382DA     SC3 8969  77.248  61.555  64.417
 1382DA     SC4 8970  77.239  61.835  64.401
 1383DA     BB1 8971  77.406  62.304  63.865
 1383DA     BB2 8972  77.418  61.987  63.680
 1383DA     BB3 8973  77.221  61.926  63.626
 1383DA     SC1 8974  77.176  61.759  63.885
 1383DA     SC2 8975  77.155  61.519  63.948
 1383DA     SC3 8976  77.040  61.606  64.161
 1383DA     SC4 8977  77.106  61.833  64.009
 1384DC     BB1 8978  77.180  61.922  63.434
 1384DC     BB2 8979  77.183  61.564  63.394
 1384DC     BB3 8980  76.989  61.492  63.385
 1384DC     SC1 8981  76.956  61.525  63.643
 1384DC     SC2 8982  76.945  61.333  63.739
 1384DC     SC3 8983  76.862  61.617  63.872
 1385DT     BB1 8984  77.022  61.444  63.122
 1385DT     BB2 8985  76.926  61.126  63.261
 1385DT     BB3 8986  76.719  61.113  63.272
 1385DT     SC1 8987  76.712  61.275  63.477
 1385DT     SC2 8988  76.654  61.166  63.653
 1385DT     SC3 8989  76.658  61.488  63.624
 1386DT     BB1 8990  76.719  60.935  63.067
 1386DT     BB2 8991  76.548  60.764  63.335
 1386DT     BB3 8992  76.347  60.814  63.333
 1386DT     SC1 8993  76.397  61.051  63.433
 1386DT     SC2 8994  76.322  61.061  63.634
 1386DT     SC3 8995  76.413  61.314  63.452
 1387DT     BB1 8996  76.272  60.567  63.234
 1387DT     BB2 8997  76.080  60.602  63.538
 1387DT     BB3 8998  75.902  60.699  63.498
 1387DT     SC1 8999  76.023  60.930  63.474
 1387DT     SC2 9000  75.970  61.056  63.640
 1387DT     SC3 9001  76.113  61.153  63.366
 1388DA     BB1 9002  75.778  60.346  63.691
 1388DA     BB2 9003  75.609  60.626  63.857
 1388DA     BB3 9004  75.449  60.698  63.735
 1388DA     SC1 9005  75.624  60.907  63.586
 1388DA     SC2 9006  75.647  61.156  63.577
 1388DA     SC3 9007  75.764  61.116  63.352
 1388DA     SC4 9008  75.693  60.862  63.448
 1389DG     BB1 9009  75.239  60.621  63.962
 1389DG     BB2 9010  75.194  60.980  63.982
 1389DG     BB3 9011  75.056  61.038  63.852
 1389DG     SC1 9012  75.255  61.083  63.624
 1389DG     SC2 9013  75.325  61.346  63.502
 1389DG     SC3 9014  75.442  61.123  63.346
 1389DG     SC4 9015  75.291  60.961  63.527
 1390DT     BB1 9016  74.847  61.140  63.907
 1390DT     BB2 9017  74.925  61.483  63.830
 1390DT     BB3 9018  74.824  61.542  63.659
 1390DT     SC1 9019  74.988  61.405  63.506
 1390DT     SC2 9020  75.110  61.541  63.392
 1390DT     SC3 9021  75.075  61.224  63.335
 1391DC     BB1 9022  74.663  61.699  63.810
 1391DC     BB2 9023  74.828  61.925  63.582
 1391DC     BB3 9024  74.721  61.937  63.405
 1391DC     SC1 9025  74.804  61.700  63.329
 1391DC     SC2 9026  74.940  61.722  63.163
 1391DC     SC3 9027  74.799  61.446  63.259
 1392DT     BB1 9028  74.669  62.183  63.487
 1392DT     BB2 9029  74.841  62.220  63.172
 1392DT     BB3 9030  74.707  62.199  63.015
 1392DT     SC1 9031  74.696  61.939  63.049
 1392DT     SC2 9032  74.792  61.841  62.883
 1392DT     SC3 9033  74.599  61.700  63.102
 1393DA     BB1 9034  74.957  62.536  62.981
 1393DA     BB2 9035  74.958  62.354  62.662
 1393DA     BB3 9036  74.768  62.371  62.567
 1393DA     SC1 9037  74.653  62.114  62.699
 1393DA     SC2 9038  74.587  61.884  62.628
 1393DA     SC3 9039  74.449  61.879  62.844
 1393DA     SC4 9040  74.572  62.131  62.837
 1394DA     BB1 9041  74.978  62.463  62.334
 1394DA     BB2 9042  74.841  62.189  62.133
 1394DA     BB3 9043  74.643  62.235  62.070
 1394DA     SC1 9044  74.507  62.106  62.318
 1394DA     SC2 9045  74.366  61.906  62.368
 1394DA     SC3 9046  74.299  62.033  62.581
 1394DA     SC4 9047  74.476  62.201  62.444
 1395DC     BB1 9048  74.613  62.262  61.875
 1395DC     BB2 9049  74.434  61.955  61.812
 1395DC     BB3 9050  74.231  61.994  61.794
 1395DC     SC1 9051  74.207  62.029  62.053
 1395DC     SC2 9052  74.093  61.866  62.136
 1395DC     SC3 9053  74.160  62.146  62.284
 1396DC     BB1 9054  74.231  61.958  61.518
 1396DC     BB2 9055  73.980  61.728  61.637
 1396DC     BB3 9056  73.795  61.822  61.644
 1396DC     SC1 9057  73.863  61.956  61.859
 1396DC     SC2 9058  73.750  61.883  62.027
 1396DC     SC3 9059  73.920  62.159  62.017
 1397DT     BB1 9060  73.695  61.688  61.419
 1397DT     BB2 9061  73.458  61.611  61.681
 1397DT     BB3 9062  73.307  61.753  61.684
 1397DT     SC1 9063  73.466  61.930  61.794
 1397DT     SC2 9064  73.403  61.966  61.997
 1397DT     SC3 9065  73.609  62.150  61.826
 1398DT     BB1 9066  73.129  61.573  61.581
 1398DT     BB2 9067  72.983  61.677  61.894
 1398DT     BB3 9068  72.866  61.846  61.865
 1398DT     SC1 9069  73.079  61.998  61.842
 1398DT     SC2 9070  73.093  62.127  62.013
 1398DT     SC3 9071  73.257  62.161  61.736
 1399DC     BB1 9072  72.660  61.686  61.911
 1399DC     BB2 9073  72.638  61.944  62.162
 1399DC     BB3 9074  72.540  62.110  62.084
 1399DC     SC1 9075  72.751  62.178  61.944
 1399DC     SC2 9076  72.836  62.358  62.025
 1399DC     SC3 9077  72.904  62.229  61.735
 1400DT     BB1 9078  72.366  62.030  62.257
 1400DT     BB2 9079  72.445  62.370  62.348
 1400DT     BB3 9080  72.344  62.502  62.224
 1400DT     SC1 9081  72.506  62.451  62.024
 1400DT     SC2 9082  72.628  62.624  61.986
 1400DT     SC3 9083  72.592  62.369  61.788
 1401DA     BB1 9084  72.316  62.601  62.633
 1401DA     BB2 9085  72.389  62.906  62.442
 1401DA     BB3 9086  72.223  62.958  62.320
 1401DA     SC1 9087  72.321  62.795  62.074
 1401DA     SC2 9088  72.411  62.841  61.846
 1401DA     SC3 9089  72.340  62.600  61.792
 1401DA     SC4 9090  72.269  62.644  62.060
 1402DA     BB1 9091  72.286  63.239  62.481
 1402DA     BB2 9092  72.320  63.394  62.150
 1402DA     BB3 9093  72.130  63.404  62.053
 1402DA     SC1 9094  72.159  63.127  61.914
 1402DA     SC2 9095  72.191  63.040  61.682
 1402DA     SC3 9096  72.101  62.818  61.776
 1402DA     SC4 9097  72.100  62.999  61.990
 1403DT     BB1 9098  72.043  63.585  62.020
 1403DT     BB2 9099  72.087  63.596  61.662
 1403DT     BB3 9100  71.908  63.556  61.567
 1403DT     SC1 9101  71.925  63.300  61.624
 1403DT     SC2 9102  71.961  63.189  61.444
 1403DT     SC3 9103  71.868  63.065  61.729
 1404DT     BB1 9104  71.869  63.819  61.491
 1404DT     BB2 9105  71.848  63.636  61.181
 1404DT     BB3 9106  71.653  63.575  61.148
 1404DT     SC1 9107  71.672  63.387  61.330
 1404DT     SC2 9108  71.670  63.195  61.234
 1404DT     SC3 9109  71.626  63.250  61.551
 1405DT     BB1 9110  71.613  63.762  60.948
 1405DT     BB2 9111  71.535  63.447  60.790
 1405DT     BB3 9112  71.335  63.402  60.818
 1405DT     SC1 9113  71.375  63.337  61.069
 1405DT     SC2 9114  71.350  63.125  61.093
 1405DT     SC3 9115  71.361  63.344  61.332
 1406DT     BB1 9116  71.281  63.456  60.555
 1406DT     BB2 9117  71.164  63.117  60.602
 1406DT     BB3 9118  70.969  63.119  60.670
 1406DT     SC1 9119  71.044  63.193  60.910
 1406DT     SC2 9120  71.013  63.030  61.048
 1406DT     SC3 9121  71.070  63.339  61.128
 1407DT     BB1 9122  70.880  63.032  60.428
 1407DT     BB2 9123  70.752  62.789  60.661
 1407DT     BB3 9124  70.570  62.852  60.736
 1407DT     SC1 9125  70.685  63.030  60.889
 1407DT     SC2 9126  70.666  62.970  61.095
 1407DT     SC3 9127  70.754  63.264  60.990
 1408DA     BB1 9128  70.495  62.464  60.591
 1408DA     BB2 9129  70.350  62.485  60.927
 1408DA     BB3 9130  70.170  62.600  60.923
 1408DA     SC1 9131  70.314  62.870  60.981
 1408DA     SC2 9132  70.329  63.035  61.168
 1408DA     SC3 9133  70.408  63.200  60.989
 1408DA     SC4 9134  70.359  62.959  60.855
 1409DT     BB1 9135  69.959  62.521  60.956
 1409DT     BB2 9136  69.910  62.660  61.285
 1409DT     BB3 9137  69.772  62.814  61.277
 1409DT     SC1 9138  69.947  62.976  61.167
 1409DT     SC2 9139  70.000  63.130  61.307
 1409DT     SC3 9140  70.062  63.133  60.989
 1410DC     BB1 9141  69.526  62.685  61.388
 1410DC     BB2 9142  69.567  62.975  61.599
 1410DC     BB3 9143  69.451  63.131  61.527
 1410DC     SC1 9144  69.618  63.175  61.329
 1410DC     SC2 9145  69.719  63.361  61.361
 1410DC     SC3 9146  69.711  63.194  61.083
 1411DA     BB1 9147  69.276  63.119  61.916
 1411DA     BB2 9148  69.377  63.467  61.859
 1411DA     BB3 9149  69.229  63.569  61.746
 1411DA     SC1 9150  69.356  63.500  61.471
 1411DA     SC2 9151  69.475  63.620  61.287
 1411DA     SC3 9152  69.410  63.419  61.141
 1411DA     SC4 9153  69.305  63.367  61.396
 1412DG     BB1 9154  69.182  63.769  61.988
 1412DG     BB2 9155  69.337  64.006  61.762
 1412DG     BB3 9156  69.198  64.093  61.650
 1412DG     SC1 9157  69.212  63.883  61.427
 1412DG     SC2 9158  69.311  63.928  61.149
 1412DG     SC3 9159  69.186  63.661  61.174
 1412DG     SC4 9160  69.119  63.753  61.437
 1413DC     BB1 9161  69.174  64.307  61.662
 1413DC     BB2 9162  69.343  64.409  61.360
 1413DC     BB3 9163  69.204  64.462  61.216
 1413DC     SC1 9164  69.143  64.210  61.171
 1413DC     SC2 9165  69.214  64.153  60.976
 1413DC     SC3 9166  69.002  63.988  61.158
 1414DA     BB1 9167  69.511  64.745  61.264
 1414DA     BB2 9168  69.478  64.666  60.908
 1414DA     BB3 9169  69.294  64.743  60.831
 1414DA     SC1 9170  69.132  64.484  60.891
 1414DA     SC2 9171  69.024  64.300  60.762
 1414DA     SC3 9172  68.888  64.258  60.975
 1414DA     SC4 9173  69.056  64.475  61.033
 1415DC     BB1 9174  69.331  64.867  60.707
 1415DC     BB2 9175  69.237  64.671  60.419
 1415DC     BB3 9176  69.043  64.717  60.362
 1415DC     SC1 9177  68.944  64.582  60.564
 1415DC     SC2 9178  68.846  64.405  60.490
 1415DC     SC3 9179  68.816  64.529  60.788
 1416DT     BB1 9180  69.153  64.835  60.151
 1416DT     BB2 9181  68.926  64.590  60.015
 1416DT     BB3 9182  68.734  64.666  60.011
 1416DT     SC1 9183  68.708  64.638  60.270
 1416DT     SC2 9184  68.566  64.482  60.311
 1416DT     SC3 9185  68.676  64.699  60.525
 1417DT     BB1 9186  68.750  64.686  59.741
 1417DT     BB2 9187  68.460  64.479  59.801
 1417DT     BB3 9188  68.293  64.598  59.832
 1417DT     SC1 9189  68.374  64.664  60.073
 1417DT     SC2 9190  68.245  64.573  60.219
 1417DT     SC3 9191  68.457  64.810  60.276
 1418DT     BB1 9192  68.197  64.525  59.590
 1418DT     BB2 9193  67.940  64.429  59.824
 1418DT     BB3 9194  67.814  64.588  59.860
 1418DT     SC1 9195  67.993  64.707  60.010
 1418DT     SC2 9196  67.928  64.705  60.215
 1418DT     SC3 9197  68.167  64.888  60.093
 1419DA     BB1 9198  67.591  64.248  59.762
 1419DA     BB2 9199  67.455  64.390  60.071
 1419DA     BB3 9200  67.351  64.572  60.030
 1419DA     SC1 9201  67.601  64.752  60.071
 1419DA     SC2 9202  67.682  64.921  60.236
 1419DA     SC3 9203  67.839  64.999  60.049
 1419DA     SC4 9204  67.690  64.787  59.942
 1420DA     BB1 9205  67.158  64.379  60.205
 1420DA     BB2 9206  67.163  64.650  60.453
 1420DA     BB3 9207  67.059  64.821  60.378
 1420DA     SC1 9208  67.312  64.949  60.250
 1420DA     SC2 9209  67.459  65.147  60.289
 1420DA     SC3 9210  67.530  65.117  60.045
 1420DA     SC4 9211  67.342  64.915  60.096
 1421DA     BB1 9212  66.963  64.742  60.681
 1421DA     BB2 9213  67.066  65.083  60.768
 1421DA     BB3 9214  66.942  65.225  60.667
 1421DA     SC1 9215  67.127  65.246  60.418
 1421DA     SC2 9216  67.280  65.414  60.314
 1421DA     SC3 9217  67.251  65.277  60.099
 1421DA     SC4 9218  67.096  65.148  60.294
 1422DT     BB1 9219  66.874  65.301  60.796
 1422DT     BB2 9220  67.041  65.619  60.760
 1422DT     BB3 9221  66.933  65.741  60.633
 1422DT     SC1 9222  67.011  65.606  60.422
 1422DT     SC2 9223  67.145  65.726  60.305
 1422DT     SC3 9224  67.000  65.454  60.207
 1423DA     BB1 9225  67.042  65.943  60.988
 1423DA     BB2 9226  67.110  66.162  60.702
 1423DA     BB3 9227  66.927  66.224  60.611
 1423DA     SC1 9228  66.918  65.986  60.411
 1423DA     SC2 9229  66.943  65.951  60.165
 1423DA     SC3 9230  66.818  65.730  60.205
 1423DA     SC4 9231  66.837  65.854  60.455
 1424DA     BB1 9232  67.068  66.519  60.659
 1424DA     BB2 9233  67.038  66.570  60.297
 1424DA     BB3 9234  66.834  66.602  60.244
 1424DA     SC1 9235  66.773  66.301  60.194
 1424DA     SC2 9236  66.724  66.152  60.000
 1424DA     SC3 9237  66.626  65.992  60.175
 1424DA     SC4 9238  66.715  66.216  60.318
 1425DA     BB1 9239  66.948  66.879  60.100
 1425DA     BB2 9240  66.814  66.752  59.783
 1425DA     BB3 9241  66.602  66.774  59.779
 1425DA     SC1 9242  66.546  66.493  59.901
 1425DA     SC2 9243  66.452  66.275  59.826
 1425DA     SC3 9244  66.416  66.228  60.076
 1425DA     SC4 9245  66.530  66.484  60.061
 1426DA     BB1 9246  66.639  66.944  59.493
 1426DA     BB2 9247  66.434  66.688  59.329
 1426DA     BB3 9248  66.228  66.720  59.371
 1426DA     SC1 9249  66.227  66.541  59.625
 1426DA     SC2 9250  66.132  66.321  59.695
 1426DA     SC3 9251  66.167  66.406  59.935
 1426DA     SC4 9252  66.255  66.612  59.766
 1427DA     BB1 9253  66.162  66.732  59.040
 1427DA     BB2 9254  65.946  66.438  59.084
 1427DA     BB3 9255  65.755  66.497  59.158
 1427DA     SC1 9256  65.835  66.468  59.457
 1427DA     SC2 9257  65.782  66.317  59.649
 1427DA     SC3 9258  65.869  66.508  59.797
 1427DA     SC4 9259  65.892  66.599  59.532
 1428DT     BB1 9260  65.551  66.490  59.045
 1428DT     BB2 9261  65.421  66.203  59.221
 1428DT     BB3 9262  65.263  66.260  59.343
 1428DT     SC1 9263  65.427  66.370  59.516
 1428DT     SC2 9264  65.428  66.254  59.697
 1428DT     SC3 9265  65.545  66.554  59.663
 1429DA     BB1 9266  65.077  65.958  59.113
 1429DA     BB2 9267  65.011  65.880  59.465
 1429DA     BB3 9268  64.854  66.003  59.540
 1429DA     SC1 9269  65.044  66.229  59.638
 1429DA     SC2 9270  65.122  66.323  59.855
 1429DA     SC3 9271  65.184  66.531  59.720
 1429DA     SC4 9272  65.074  66.350  59.536
 1430DA     BB1 9273  64.694  65.723  59.624
 1430DA     BB2 9274  64.732  65.827  59.974
 1430DA     BB3 9275  64.580  65.967  60.027
 1430DA     SC1 9276  64.747  66.217  59.947
 1430DA     SC2 9277  64.860  66.408  60.061
 1430DA     SC3 9278  64.850  66.524  59.833
 1430DA     SC4 9279  64.730  66.273  59.797
 1431DT     BB1 9280  64.429  65.918  60.172
 1431DT     BB2 9281  64.581  66.108  60.439
 1431DT     BB3 9282  64.465  66.275  60.481
 1431DT     SC1 9283  64.548  66.396  60.264
 1431DT     SC2 9284  64.675  66.561  60.318
 1431DT     SC3 9285  64.543  66.511  60.027
 1432DA     BB1 9286  64.561  66.056  60.825
 1432DA     BB2 9287  64.656  66.407  60.878
 1432DA     BB3 9288  64.482  66.528  60.900
 1432DA     SC1 9289  64.459  66.593  60.597
 1432DA     SC2 9290  64.489  66.790  60.447
 1432DA     SC3 9291  64.344  66.660  60.280
 1432DA     SC4 9292  64.366  66.496  60.507
 1433DA     BB1 9293  64.682  66.589  61.148
 1433DA     BB2 9294  64.688  66.933  61.022
 1433DA     BB3 9295  64.499  67.026  61.052
 1433DA     SC1 9296  64.384  66.939  60.776
 1433DA     SC2 9297  64.321  67.047  60.560
 1433DA     SC3 9298  64.181  66.836  60.519
 1433DA     SC4 9299  64.302  66.801  60.770
 1434DT     BB1 9300  64.527  67.160  61.160
 1434DT     BB2 9301  64.491  67.424  60.917
 1434DT     BB3 9302  64.297  67.497  60.920
 1434DT     SC1 9303  64.207  67.284  60.795
 1434DT     SC2 9304  64.146  67.339  60.596
 1434DT     SC3 9305  64.073  67.062  60.748
 1435DA     BB1 9306  64.583  67.804  60.935
 1435DA     BB2 9307  64.334  67.888  60.680
 1435DA     BB3 9308  64.146  67.933  60.771
 1435DA     SC1 9309  64.042  67.640  60.760
 1435DA     SC2 9310  63.868  67.510  60.637
 1435DA     SC3 9311  63.890  67.339  60.828
 1435DA     SC4 9312  64.070  67.546  60.888
 1436DA     BB1 9313  64.203  68.188  60.575
 1436DA     BB2 9314  63.888  68.099  60.410
 1436DA     BB3 9315  63.723  68.142  60.538
 1436DA     SC1 9316  63.720  67.860  60.669
 1436DA     SC2 9317  63.574  67.658  60.669
 1436DA     SC3 9318  63.693  67.596  60.888
 1436DA     SC4 9319  63.805  67.840  60.804
 1437DC     BB1 9320  63.611  68.277  60.471
 1437DC     BB2 9321  63.334  68.065  60.378
 1437DC     BB3 9322  63.187  68.073  60.522
 1437DC     SC1 9323  63.327  67.924  60.686
 1437DC     SC2 9324  63.233  67.732  60.706
 1437DC     SC3 9325  63.465  67.851  60.899
 1438DT     BB1 9326  63.049  68.204  60.340
 1438DT     BB2 9327  62.843  67.923  60.430
 1438DT     BB3 9328  62.737  67.965  60.604
 1438DT     SC1 9329  62.952  67.934  60.751
 1438DT     SC2 9330  62.932  67.756  60.870
 1438DT     SC3 9331  63.152  67.991  60.914
 1439DT     BB1 9332  62.529  67.971  60.444
 1439DT     BB2 9333  62.448  67.726  60.697
 1439DT     BB3 9334  62.379  67.821  60.867
 1439DT     SC1 9335  62.621  67.899  60.932
 1439DT     SC2 9336  62.686  67.792  61.107
 1439DT     SC3 9337  62.825  68.058  60.984
 1440DT     BB1 9338  62.144  67.720  60.802
 1440DT     BB2 9339  62.203  67.606  61.139
 1440DT     BB3 9340  62.152  67.755  61.274
 1440DT     SC1 9341  62.368  67.893  61.216
 1440DT     SC2 9342  62.502  67.889  61.384
 1440DT     SC3 9343  62.521  68.089  61.130
 1441DA     BB1 9344  61.950  67.408  61.401
 1441DA     BB2 9345  62.105  67.562  61.696
 1441DA     BB3 9346  62.000  67.740  61.750
 1441DA     SC1 9347  62.177  67.926  61.575
 1441DA     SC2 9348  62.349  68.104  61.610
 1441DA     SC3 9349  62.293  68.176  61.370
 1441DA     SC4 9350  62.127  67.956  61.425
 1442DT     BB1 9351  61.875  67.765  61.934
 1442DT     BB2 9352  62.097  67.985  62.114
 1442DT     BB3 9353  62.019  68.176  62.119
 1442DT     SC1 9354  62.081  68.218  61.867
 1442DT     SC2 9355  62.239  68.363  61.856
 1442DT     SC3 9356  62.052  68.265  61.609
 1443DC     BB1 9357  61.919  68.185  62.395
 1443DC     BB2 9358  62.128  68.478  62.377
 1443DC     BB3 9359  62.014  68.644  62.329
 1443DC     SC1 9360  61.994  68.567  62.079
 1443DC     SC2 9361  62.107  68.700  61.954
 1443DC     SC3 9362  61.886  68.486  61.852
 1444DA     BB1 9363  62.181  68.789  62.690
 1444DA     BB2 9364  62.232  69.052  62.440
 1444DA     BB3 9365  62.053  69.165  62.414
 1444DA     SC1 9366  61.944  68.985  62.185
 1444DA     SC2 9367  61.904  69.003  61.939
 1444DA     SC3 9368  61.744  68.806  61.972
 1444DA     SC4 9369  61.847  68.863  62.226
 1445DT     BB1 9370  62.006  69.399  62.476
 1445DT     BB2 9371  62.028  69.529  62.140
 1445DT     BB3 9372  61.842  69.599  62.079
 1445DT     SC1 9373  61.753  69.354  62.045
 1445DT     SC2 9374  61.726  69.317  61.835
 1445DT     SC3 9375  61.608  69.136  62.077
 1446DT     BB1 9376  61.895  69.882  62.100
 1446DT     BB2 9377  61.800  69.838  61.755
 1446DT     BB3 9378  61.597  69.873  61.732
 1446DT     SC1 9379  61.537  69.643  61.843
 1446DT     SC2 9380  61.456  69.511  61.694
 1446DT     SC3 9381  61.440  69.468  62.015
 1447DA     BB1 9382  61.782  70.122  61.452
 1447DA     BB2 9383  61.527  69.928  61.275
 1447DA     BB3 9384  61.333  70.007  61.314
 1447DA     SC1 9385  61.282  69.825  61.562
 1447DA     SC2 9386  61.136  69.632  61.622
 1447DA     SC3 9387  61.184  69.699  61.865
 1447DA     SC4 9388  61.323  69.883  61.706
 1448DA     BB1 9389  61.337  70.005  60.991
 1448DA     BB2 9390  61.060  69.765  61.010
 1448DA     BB3 9391  60.879  69.865  61.060
 1448DA     SC1 9392  60.915  69.831  61.367
 1448DA     SC2 9393  60.808  69.701  61.551
 1448DA     SC3 9394  60.915  69.874  61.707
 1448DA     SC4 9395  60.988  69.949  61.447
 1449DG     BB1 9396  60.821  69.731  60.793
 1449DG     BB2 9397  60.589  69.543  60.998
 1449DG     BB3 9398  60.426  69.652  61.034
 1449DG     SC1 9399  60.537  69.779  61.289
 1449DG     SC2 9400  60.435  69.735  61.566
 1449DG     SC3 9401  60.635  69.953  61.561
 1449DG     SC4 9402  60.622  69.915  61.277
 1450DC     BB1 9403  60.277  69.555  60.969
 1450DC     BB2 9404  60.116  69.445  61.272
 1450DC     BB3 9405  59.969  69.581  61.328
 1450DC     SC1 9406  60.149  69.753  61.411
 1450DC     SC2 9407  60.140  69.767  61.626
 1450DC     SC3 9408  60.292  69.974  61.428
 1451DT     BB1 9409  59.829  69.374  61.265
 1451DT     BB2 9410  59.739  69.455  61.605
 1451DT     BB3 9411  59.608  69.615  61.607
 1451DT     SC1 9412  59.801  69.784  61.552
 1451DT     SC2 9413  59.839  69.908  61.724
 1451DT     SC3 9414  59.944  69.964  61.423
 1452DC     BB1 9415  59.449  69.427  61.686
 1452DC     BB2 9416  59.429  69.684  61.939
 1452DC     BB3 9417  59.307  69.837  61.873
 1452DC     SC1 9418  59.491  69.926  61.709
 1452DC     SC2 9419  59.566  70.114  61.780
 1452DC     SC3 9420  59.613  69.991  61.484
 1453DT     BB1 9421  59.127  69.753  62.052
 1453DT     BB2 9422  59.171  70.103  62.127
 1453DT     BB3 9423  59.050  70.217  62.005
 1453DT     SC1 9424  59.207  70.178  61.799
 1453DT     SC2 9425  59.306  70.362  61.748
 1453DT     SC3 9426  59.290  70.097  61.561
 1454DT     BB1 9427  58.880  70.272  62.213
 1454DT     BB2 9428  58.969  70.598  62.084
 1454DT     BB3 9429  58.839  70.651  61.932
 1454DT     SC1 9430  58.954  70.485  61.765
 1454DT     SC2 9431  59.060  70.597  61.614
 1454DT     SC3 9432  58.988  70.281  61.601
 1455DC     BB1 9433  58.708  70.835  62.090
 1455DC     BB2 9434  58.808  71.026  61.801
 1455DC     BB3 9435  58.662  71.015  61.655
 1455DC     SC1 9436  58.730  70.769  61.593
 1455DC     SC2 9437  58.821  70.767  61.399
 1455DC     SC3 9438  58.714  70.508  61.562
 1456DA     BB1 9439  58.726  71.427  61.706
 1456DA     BB2 9440  58.727  71.361  61.345
 1456DA     BB3 9441  58.529  71.328  61.275
 1456DA     SC1 9442  58.539  71.020  61.319
 1456DA     SC2 9443  58.545  70.813  61.179
 1456DA     SC3 9444  58.462  70.693  61.390
 1456DA     SC4 9445  58.486  70.963  61.460
 1457DA     BB1 9446  58.587  71.571  61.055
 1457DA     BB2 9447  58.525  71.328  60.787
 1457DA     BB3 9448  58.316  71.297  60.762
 1457DA     SC1 9449  58.302  71.060  60.964
 1457DA     SC2 9450  58.266  70.814  60.957
 1457DA     SC3 9451  58.206  70.836  61.205
 1457DA     SC4 9452  58.267  71.095  61.117
 1458DT     BB1 9453  58.189  71.362  60.582
 1458DT     BB2 9454  58.139  71.035  60.440
 1458DT     BB3 9455  57.941  70.978  60.462
 1458DT     SC1 9456  57.977  70.929  60.718
 1458DT     SC2 9457  57.965  70.717  60.752
 1458DT     SC3 9458  57.951  70.948  60.980
 1459DG     BB1 9459  57.941  70.979  60.045
 1459DG     BB2 9460  57.808  70.665  60.166
 1459DG     BB3 9461  57.613  70.683  60.202
 1459DG     SC1 9462  57.650  70.771  60.493
 1459DG     SC2 9463  57.570  70.615  60.734
 1459DG     SC3 9464  57.655  70.888  60.809
 1459DG     SC4 9465  57.668  70.926  60.525
 1460DG     BB1 9466  57.453  70.454  59.975
 1460DG     BB2 9467  57.343  70.267  60.264
 1460DG     BB3 9468  57.159  70.321  60.314
 1460DG     SC1 9469  57.249  70.545  60.502
 1460DG     SC2 9470  57.213  70.550  60.799
 1460DG     SC3 9471  57.312  70.811  60.700
 1460DG     SC4 9472  57.273  70.692  60.443
 1461DG     BB1 9473  56.959  70.025  60.274
 1461DG     BB2 9474  56.918  70.027  60.634
 1461DG     BB3 9475  56.744  70.111  60.681
 1461DG     SC1 9476  56.857  70.394  60.700
 1461DG     SC2 9477  56.879  70.558  60.948
 1461DG     SC3 9478  56.943  70.720  60.709
 1461DG     SC4 9479  56.861  70.485  60.568
 1462DT     BB1 9480  56.535  70.006  60.799
 1462DT     BB2 9481  56.598  70.135  61.131
 1462DT     BB3 9482  56.450  70.269  61.184
 1462DT     SC1 9483  56.549  70.453  61.026
 1462DT     SC2 9484  56.632  70.612  61.145
 1462DT     SC3 9485  56.568  70.626  60.827
 1463DT     BB1 9486  56.355  70.088  61.363
 1463DT     BB2 9487  56.452  70.374  61.560
 1463DT     BB3 9488  56.294  70.507  61.573
 1463DT     SC1 9489  56.329  70.587  61.326
 1463DT     SC2 9490  56.403  70.789  61.326
 1463DT     SC3 9491  56.282  70.631  61.070
 1464DT     BB1 9492  56.304  70.429  61.822
 1464DT     BB2 9493  56.363  70.785  61.828
 1464DT     BB3 9494  56.183  70.887  61.817
 1464DT     SC1 9495  56.158  70.832  61.562
 1464DT     SC2 9496  56.182  71.013  61.447
 1464DT     SC3 9497  56.061  70.733  61.338
 1465DC     BB1 9498  56.270  70.942  62.052
 1465DC     BB2 9499  56.229  71.258  61.883
 1465DC     BB3 9500  56.029  71.310  61.877
 1465DC     SC1 9501  55.980  71.132  61.690
 1465DC     SC2 9502  55.936  71.233  61.505
 1465DC     SC3 9503  55.880  70.920  61.569
 1466DA     BB1 9504  56.290  71.620  61.995
 1466DA     BB2 9505  56.052  71.751  61.749
 1466DA     BB3 9506  55.855  71.753  61.831
 1466DA     SC1 9507  55.784  71.468  61.730
 1466DA     SC2 9508  55.633  71.364  61.560
 1466DA     SC3 9509  55.660  71.149  61.697
 1466DA     SC4 9510  55.811  71.345  61.829
 1467DG     BB1 9511  55.899  72.049  61.755
 1467DG     BB2 9512  55.612  71.988  61.544
 1467DG     BB3 9513  55.447  71.983  61.654
 1467DG     SC1 9514  55.462  71.682  61.707
 1467DG     SC2 9515  55.271  71.476  61.606
 1467DG     SC3 9516  55.459  71.358  61.802
 1467DG     SC4 9517  55.545  71.630  61.834
 1468DG     BB1 9518  55.318  72.231  61.475
 1468DG     BB2 9519  55.047  72.006  61.392
 1468DG     BB3 9520  54.914  72.002  61.540
 1468DG     SC1 9521  55.050  71.772  61.690
 1468DG     SC2 9522  54.938  71.498  61.730
 1468DG     SC3 9523  55.184  71.536  61.891
 1468DG     SC4 9524  55.164  71.806  61.797
 1469DA     BB1 9525  54.637  72.083  61.330
 1469DA     BB2 9526  54.462  71.775  61.425
 1469DA     BB3 9527  54.367  71.799  61.615
 1469DA     SC1 9528  54.612  71.697  61.778
 1469DA     SC2 9529  54.671  71.498  61.915
 1469DA     SC3 9530  54.853  71.648  62.017
 1469DA     SC4 9531  54.718  71.806  61.830
 1470DT     BB1 9532  54.130  71.815  61.670
 1470DT     BB2 9533  54.099  71.488  61.818
 1470DT     BB3 9534  54.063  71.505  62.021
 1470DT     SC1 9535  54.312  71.571  62.068
 1470DT     SC2 9536  54.410  71.411  62.174
 1470DT     SC3 9537  54.522  71.713  62.141
 1471DT     BB1 9538  53.765  71.450  62.045
 1471DT     BB2 9539  53.909  71.210  62.273
 1471DT     BB3 9540  53.903  71.283  62.467
 1471DT     SC1 9541  54.101  71.449  62.418
 1471DT     SC2 9542  54.275  71.385  62.526
 1471DT     SC3 9543  54.233  71.675  62.387
 1472DT     BB1 9544  53.683  71.124  62.576
 1472DT     BB2 9545  53.960  71.048  62.794
 1472DT     BB3 9546  53.955  71.171  62.961
 1472DT     SC1 9547  54.040  71.376  62.821
 1472DT     SC2 9548  54.240  71.426  62.882
 1472DT     SC3 9549  54.044  71.613  62.705
 1473DA     BB1 9550  53.974  70.782  63.111
 1473DA     BB2 9551  54.243  70.974  63.268
 1473DA     BB3 9552  54.165  71.101  63.421
 1473DA     SC1 9553  54.119  71.343  63.231
 1473DA     SC2 9554  54.215  71.570  63.194
 1473DA     SC3 9555  53.995  71.622  63.074
 1473DA     SC4 9556  53.974  71.356  63.161
 1474DG     BB1 9557  54.362  70.928  63.576
 1474DG     BB2 9558  54.534  71.244  63.610
 1474DG     BB3 9559  54.450  71.352  63.755
 1474DG     SC1 9560  54.249  71.490  63.570
 1474DG     SC2 9561  54.244  71.780  63.500
 1474DG     SC3 9562  54.002  71.644  63.400
 1474DG     SC4 9563  54.107  71.420  63.544
 1475DT     BB1 9564  54.582  71.393  63.890
 1475DT     BB2 9565  54.646  71.743  63.831
 1475DT     BB3 9566  54.530  71.858  63.958
 1475DT     SC1 9567  54.314  71.810  63.818
 1475DT     SC2 9568  54.252  71.990  63.718
 1475DT     SC3 9569  54.073  71.722  63.754
 1476DG     BB1 9570  54.930  71.941  63.962
 1476DG     BB2 9571  54.728  72.238  63.916
 1476DG     BB3 9572  54.635  72.284  64.086
 1476DG     SC1 9573  54.387  72.114  64.025
 1476DG     SC2 9574  54.112  72.218  63.973
 1476DG     SC3 9575  54.110  71.924  63.999
 1476DG     SC4 9576  54.386  71.961  64.069
 1477DT     BB1 9577  54.685  72.462  64.147
 1477DT     BB2 9578  54.384  72.655  64.098
 1477DT     BB3 9579  54.272  72.656  64.272
 1477DT     SC1 9580  54.194  72.409  64.232
 1477DT     SC2 9581  53.984  72.407  64.184
 1477DT     SC3 9582  54.162  72.149  64.270
 1478DC     BB1 9583  54.342  72.913  64.310
 1478DC     BB2 9584  53.981  72.916  64.329
 1478DC     BB3 9585  53.921  72.869  64.521
 1478DC     SC1 9586  53.979  72.616  64.486
 1478DC     SC2 9587  53.797  72.501  64.479
 1478DC     SC3 9588  54.096  72.381  64.517
 1479DT     BB1 9589  53.849  73.132  64.596
 1479DT     BB2 9590  53.553  72.942  64.673
 1479DT     BB3 9591  53.562  72.873  64.868
 1479DT     SC1 9592  53.738  72.690  64.803
 1479DT     SC2 9593  53.647  72.495  64.817
 1479DT     SC3 9594  53.965  72.555  64.796
 1480DT     BB1 9595  53.377  73.060  65.003
 1480DT     BB2 9596  53.245  72.737  65.095
 1480DT     BB3 9597  53.322  72.678  65.278
 1480DT     SC1 9598  53.555  72.622  65.171
 1480DT     SC2 9599  53.584  72.409  65.173
 1480DT     SC3 9600  53.813  72.632  65.119
 1481DT     BB1 9601  53.092  72.729  65.464
 1481DT     BB2 9602  53.166  72.380  65.519
 1481DT     BB3 9603  53.289  72.359  65.684
 1481DT     SC1 9604  53.497  72.446  65.550
 1481DT     SC2 9605  53.635  72.284  65.518
 1481DT     SC3 9606  53.700  72.599  65.478
 1482DC     BB1 9607  53.095  72.258  65.878
 1482DC     BB2 9608  53.348  72.001  65.869
 1482DC     BB3 9609  53.485  72.031  66.021
 1482DC     SC1 9610  53.596  72.231  65.892
 1482DC     SC2 9611  53.792  72.174  65.826
 1482DC     SC3 9612  53.675  72.476  65.836
 1483DA     BB1 9613  53.355  71.637  66.068
 1483DA     BB2 9614  53.721  71.631  66.059
 1483DA     BB3 9615  53.801  71.696  66.246
 1483DA     SC1 9616  53.816  71.996  66.164
 1483DA     SC2 9617  53.992  72.165  66.112
 1483DA     SC3 9618  53.809  72.339  66.160
 1483DA     SC4 9619  53.689  72.089  66.198
 1484DT     BB1 9620  53.902  71.561  66.347
 1484DT     BB2 9621  54.229  71.691  66.269
 1484DT     BB3 9622  54.308  71.788  66.434
 1484DT     SC1 9623  54.149  71.994  66.399
 1484DT     SC2 9624  54.265  72.164  66.336
 1484DT     SC3 9625  53.960  72.172  66.444
 1485DA     BB1 9626  54.574  71.517  66.260
 1485DA     BB2 9627  54.746  71.838  66.305
 1485DA     BB3 9628  54.783  71.874  66.512
 1485DA     SC1 9629  54.514  72.025  66.558
 1485DA     SC2 9630  54.440  72.258  66.605
 1485DA     SC3 9631  54.223  72.150  66.689
 1485DA     SC4 9632  54.388  71.939  66.607
 1486DA     BB1 9633  55.056  71.918  66.343
 1486DA     BB2 9634  55.052  72.258  66.481
 1486DA     BB3 9635  55.086  72.253  66.691
 1486DA     SC1 9636  54.784  72.233  66.764
 1486DA     SC2 9637  54.610  72.377  66.869
 1486DA     SC3 9638  54.483  72.158  66.910
 1486DA     SC4 9639  54.722  72.086  66.782
 1487DG     BB1 9640  55.298  72.434  66.566
 1487DG     BB2 9641  55.140  72.679  66.781
 1487DG     BB3 9642  55.188  72.643  66.970
 1487DG     SC1 9643  54.951  72.456  67.021
 1487DG     SC2 9644  54.721  72.510  67.203
 1487DG     SC3 9645  54.714  72.231  67.105
 1487DG     SC4 9646  54.967  72.300  66.990
 1488DA     BB1 9647  55.257  72.982  66.958
 1488DA     BB2 9648  55.037  73.034  67.246
 1488DA     BB3 9649  55.124  72.950  67.422
 1488DA     SC1 9650  54.989  72.672  67.384
 1488DA     SC2 9651  54.811  72.536  67.495
 1488DA     SC3 9652  54.920  72.335  67.377
 1488DA     SC4 9653  55.071  72.560  67.304
 1489DT     BB1 9654  55.179  73.074  67.561
 1489DT     BB2 9655  54.934  72.991  67.812
 1489DT     BB3 9656  55.018  72.866  67.955
 1489DT     SC1 9657  55.012  72.661  67.791
 1489DT     SC2 9658  54.866  72.519  67.860
 1489DT     SC3 9659  55.094  72.464  67.637
 1490DT     BB1 9660  55.055  73.061  68.164
 1490DT     BB2 9661  54.886  72.793  68.337
 1490DT     BB3 9662  55.025  72.664  68.420
 1490DT     SC1 9663  55.080  72.561  68.185
 1490DT     SC2 9664  55.007  72.359  68.177
 1490DT     SC3 9665  55.216  72.493  67.970
 1491DC     BB1 9666  55.050  72.737  68.724
 1491DC     BB2 9667  54.996  72.381  68.742
 1491DC     BB3 9668  55.177  72.283  68.764
 1491DC     SC1 9669  55.239  72.324  68.513
 1491DC     SC2 9670  55.235  72.137  68.407
 1491DC     SC3 9671  55.368  72.413  68.300
 1492DA     BB1 9672  55.038  72.118  69.141
 1492DA     BB2 9673  55.167  71.831  68.952
 1492DA     BB3 9674  55.378  71.812  68.981
 1492DA     SC1 9675  55.452  71.991  68.738
 1492DA     SC2 9676  55.554  71.962  68.512
 1492DA     SC3 9677  55.602  72.214  68.524
 1492DA     SC4 9678  55.475  72.148  68.765
 1493DT     BB1 9679  55.533  71.630  69.108
 1493DT     BB2 9680  55.635  71.466  68.804
 1493DT     BB3 9681  55.841  71.481  68.781
 1493DT     SC1 9682  55.822  71.733  68.711
 1493DT     SC2 9683  55.871  71.754  68.503
 1493DT     SC3 9684  55.851  71.996  68.719
 1494DC     BB1 9685  55.905  71.209  68.845
 1494DC     BB2 9686  56.031  71.252  68.509
 1494DC     BB3 9687  56.231  71.305  68.515
 1494DC     SC1 9688  56.171  71.549  68.591
 1494DC     SC2 9689  56.215  71.687  68.432
 1494DC     SC3 9690  56.158  71.767  68.740
 1495DC     BB1 9691  56.295  71.060  68.420
 1495DC     BB2 9692  56.425  71.291  68.175
 1495DC     BB3 9693  56.617  71.349  68.228
 1495DC     SC1 9694  56.525  71.505  68.418
 1495DC     SC2 9695  56.556  71.711  68.363
 1495DC     SC3 9696  56.480  71.603  68.659
 1496DA     BB1 9697  56.600  71.225  67.829
 1496DA     BB2 9698  56.772  71.549  67.842
 1496DA     BB3 9699  56.965  71.526  67.929
 1496DA     SC1 9700  56.868  71.580  68.219
 1496DA     SC2 9701  56.891  71.758  68.392
 1496DA     SC3 9702  56.824  71.577  68.560
 1496DA     SC4 9703  56.826  71.453  68.308
 1497DA     BB1 9704  57.031  71.682  67.649
 1497DA     BB2 9705  57.175  71.948  67.856
 1497DA     BB3 9706  57.361  71.884  67.940
 1497DA     SC1 9707  57.233  71.769  68.198
 1497DA     SC2 9708  57.227  71.824  68.442
 1497DA     SC3 9709  57.158  71.579  68.475
 1497DA     SC4 9710  57.193  71.613  68.198
 1498DA     BB1 9711  57.465  72.164  67.800
 1498DA     BB2 9712  57.565  72.274  68.135
 1498DA     BB3 9713  57.744  72.174  68.196
 1498DA     SC1 9714  57.594  71.937  68.331
 1498DA     SC2 9715  57.555  71.851  68.562
 1498DA     SC3 9716  57.500  71.628  68.448
 1498DA     SC4 9717  57.565  71.806  68.242
 1499DT     BB1 9718  57.933  72.276  68.220
 1499DT     BB2 9719  57.940  72.270  68.581
 1499DT     BB3 9720  58.083  72.136  68.647
 1499DT     SC1 9721  57.932  71.931  68.584
 1499DT     SC2 9722  57.865  71.834  68.764
 1499DT     SC3 9723  57.850  71.711  68.465
 1500DT     BB1 9724  58.267  72.334  68.728
 1500DT     BB2 9725  58.213  72.137  69.026
 1500DT     BB3 9726  58.353  71.984  69.036
 1500DT     SC1 9727  58.229  71.849  68.849
 1500DT     SC2 9728  58.139  71.673  68.935
 1500DT     SC3 9729  58.183  71.728  68.619
 1501DA     BB1 9730  58.385  72.183  69.402
 1501DA     BB2 9731  58.349  71.825  69.474
 1501DA     BB3 9732  58.533  71.723  69.437
 1501DA     SC1 9733  58.466  71.658  69.141
 1501DA     SC2 9734  58.412  71.457  69.004
 1501DA     SC3 9735  58.482  71.600  68.803
 1501DA     SC4 9736  58.515  71.763  69.029
 1502DT     BB1 9737  58.618  71.645  69.595
 1502DT     BB2 9738  58.533  71.302  69.522
 1502DT     BB3 9739  58.698  71.202  69.449
 1502DT     SC1 9740  58.678  71.322  69.216
 1502DT     SC2 9741  58.618  71.179  69.068
 1502DT     SC3 9742  58.738  71.474  69.010
 1503DT     BB1 9743  58.698  71.071  69.681
 1503DT     BB2 9744  58.670  70.815  69.428
 1503DT     BB3 9745  58.858  70.766  69.357
 1503DT     SC1 9746  58.873  70.988  69.218
 1503DT     SC2 9747  58.861  70.943  69.008
 1503DT     SC3 9748  58.956  71.225  69.137
 1504DT     BB1 9749  58.826  70.535  69.484
 1504DT     BB2 9750  58.885  70.444  69.140
 1504DT     BB3 9751  59.088  70.439  69.102
 1504DT     SC1 9752  59.103  70.701  69.101
 1504DT     SC2 9753  59.142  70.769  68.900
 1504DT     SC3 9754  59.170  70.946  69.170
 1505DG     BB1 9755  58.928  70.076  69.009
 1505DG     BB2 9756  59.123  70.210  68.735
 1505DG     BB3 9757  59.317  70.187  68.773
 1505DG     SC1 9758  59.347  70.456  68.916
 1505DG     SC2 9759  59.505  70.690  68.819
 1505DG     SC3 9760  59.411  70.734  69.096
 1505DG     SC4 9761  59.320  70.464  69.074
 1506DG     BB1 9762  59.333  70.020  68.493
 1506DG     BB2 9763  59.561  70.278  68.380
 1506DG     BB3 9764  59.743  70.242  68.450
 1506DG     SC1 9765  59.703  70.401  68.708
 1506DG     SC2 9766  59.842  70.654  68.782
 1506DG     SC3 9767  59.686  70.550  69.010
 1506DG     SC4 9768  59.642  70.327  68.836
 1507DA     BB1 9769  59.844  70.278  68.121
 1507DA     BB2 9770  60.067  70.552  68.220
 1507DA     BB3 9771  60.240  70.474  68.318
 1507DA     SC1 9772  60.114  70.491  68.603
 1507DA     SC2 9773  60.145  70.625  68.810
 1507DA     SC3 9774  60.024  70.433  68.929
 1507DA     SC4 9775  60.038  70.360  68.658
 1508DT     BB1 9776  60.409  70.499  68.226
 1508DT     BB2 9777  60.543  70.756  68.441
 1508DT     BB3 9778  60.684  70.675  68.569
 1508DT     SC1 9779  60.498  70.562  68.715
 1508DT     SC2 9780  60.488  70.660  68.906
 1508DT     SC3 9781  60.353  70.375  68.832
 1509DG     BB1 9782  60.863  70.975  68.360
 1509DG     BB2 9783  60.915  71.012  68.716
 1509DG     BB3 9784  61.056  70.885  68.777
 1509DG     SC1 9785  60.859  70.658  68.837
 1509DG     SC2 9786  60.795  70.548  69.107
 1509DG     SC3 9787  60.674  70.382  68.895
 1509DG     SC4 9788  60.821  70.556  68.720
 1510DA     BB1 9789  61.207  71.162  68.924
 1510DA     BB2 9790  61.191  70.998  69.252
 1510DA     BB3 9791  61.338  70.844  69.265
 1510DA     SC1 9792  61.149  70.621  69.158
 1510DA     SC2 9793  61.034  70.418  69.246
 1510DA     SC3 9794  61.017  70.345  69.001
 1510DA     SC4 9795  61.150  70.592  68.999
 1511DT     BB1 9796  61.504  70.859  69.395
 1511DT     BB2 9797  61.397  70.614  69.638
 1511DT     BB3 9798  61.510  70.442  69.619
 1511DT     SC1 9799  61.381  70.373  69.400
 1511DT     SC2 9800  61.259  70.201  69.441
 1511DT     SC3 9801  61.336  70.315  69.147
 1512DT     BB1 9802  61.669  70.483  69.849
 1512DT     BB2 9803  61.530  70.155  69.902
 1512DT     BB3 9804  61.657  70.011  69.824
 1512DT     SC1 9805  61.586  70.070  69.578
 1512DT     SC2 9806  61.472  69.907  69.496
 1512DT     SC3 9807  61.603  70.152  69.328
 1513DC     BB1 9808  61.770  69.912  70.072
 1513DC     BB2 9809  61.638  69.614  69.917
 1513DC     BB3 9810  61.786  69.520  69.807
 1513DC     SC1 9811  61.771  69.701  69.618
 1513DC     SC2 9812  61.687  69.612  69.441
 1513DC     SC3 9813  61.842  69.897  69.455
 1514DA     BB1 9814  61.654  69.213  70.061
 1514DA     BB2 9815  61.651  69.079  69.720
 1514DA     BB3 9816  61.849  69.027  69.659
 1514DA     SC1 9817  61.910  69.307  69.536
 1514DA     SC2 9818  61.944  69.405  69.309
 1514DA     SC3 9819  62.061  69.597  69.433
 1514DA     SC4 9820  61.980  69.416  69.631
 1515DT     BB1 9821  61.907  68.823  69.622
 1515DT     BB2 9822  61.902  68.846  69.262
 1515DT     BB3 9823  62.096  68.838  69.188
 1515DT     SC1 9824  62.144  69.083  69.266
 1515DT     SC2 9825  62.163  69.210  69.093
 1515DT     SC3 9826  62.253  69.286  69.395
 1516DT     BB1 9827  62.037  68.593  69.094
 1516DT     BB2 9828  62.132  68.786  68.803
 1516DT     BB3 9829  62.337  68.780  68.779
 1516DT     SC1 9830  62.374  68.947  68.978
 1516DT     SC2 9831  62.444  69.135  68.902
 1516DT     SC3 9832  62.452  69.041  69.212
 1517DG     BB1 9833  62.138  68.658  68.446
 1517DG     BB2 9834  62.378  68.919  68.373
 1517DG     BB3 9835  62.562  68.845  68.375
 1517DG     SC1 9836  62.606  68.898  68.673
 1517DG     SC2 9837  62.801  69.093  68.790
 1517DG     SC3 9838  62.681  68.924  69.001
 1517DG     SC4 9839  62.563  68.787  68.780
 1518DT     BB1 9840  62.655  68.866  68.201
 1518DT     BB2 9841  62.901  69.121  68.271
 1518DT     BB3 9842  63.083  69.032  68.315
 1518DT     SC1 9843  62.999  68.960  68.553
 1518DT     SC2 9844  63.101  69.075  68.703
 1518DT     SC3 9845  62.929  68.806  68.755
 1519DA     BB1 9846  63.135  69.334  68.027
 1519DA     BB2 9847  63.397  69.372  68.281
 1519DA     BB3 9848  63.538  69.212  68.267
 1519DA     SC1 9849  63.386  69.028  68.467
 1519DA     SC2 9850  63.419  68.940  68.698
 1519DA     SC3 9851  63.248  68.761  68.633
 1519DA     SC4 9852  63.279  68.924  68.407
 1520DT     BB1 9853  63.729  69.250  68.206
 1520DT     BB2 9854  63.896  69.197  68.522
 1520DT     BB3 9855  63.993  69.014  68.520
 1520DT     SC1 9856  63.766  68.885  68.547
 1520DT     SC2 9857  63.757  68.796  68.743
 1520DT     SC3 9858  63.564  68.724  68.493
 1521DG     BB1 9859  64.318  69.262  68.575
 1521DG     BB2 9860  64.325  68.994  68.818
 1521DG     BB3 9861  64.406  68.831  68.738
 1521DG     SC1 9862  64.140  68.721  68.633
 1521DG     SC2 9863  64.004  68.473  68.729
 1521DG     SC3 9864  63.871  68.580  68.488
 1521DG     SC4 9865  64.090  68.764  68.488
 1522DC     BB1 9866  64.628  68.706  68.790
 1522DC     BB2 9867  64.499  68.418  68.964
 1522DC     BB3 9868  64.526  68.248  68.849
 1522DC     SC1 9869  64.330  68.316  68.688
 1522DC     SC2 9870  64.165  68.181  68.716
 1522DC     SC3 9871  64.203  68.387  68.469
 1523DA     BB1 9872  64.717  68.136  69.206
 1523DA     BB2 9873  64.485  67.866  69.120
 1523DA     BB3 9874  64.569  67.743  68.967
 1523DA     SC1 9875  64.444  67.907  68.734
 1523DA     SC2 9876  64.267  67.877  68.561
 1523DA     SC3 9877  64.386  68.067  68.436
 1523DA     SC4 9878  64.533  68.025  68.671
 1524DA     BB1 9879  64.509  67.504  69.183
 1524DA     BB2 9880  64.278  67.362  68.937
 1524DA     BB3 9881  64.386  67.259  68.784
 1524DA     SC1 9882  64.411  67.508  68.600
 1524DA     SC2 9883  64.320  67.586  68.381
 1524DA     SC3 9884  64.520  67.746  68.378
 1524DA     SC4 9885  64.543  67.599  68.616
 1525DA     BB1 9886  64.174  67.031  68.880
 1525DA     BB2 9887  64.047  67.035  68.536
 1525DA     BB3 9888  64.184  66.937  68.405
 1525DA     SC1 9889  64.342  67.197  68.337
 1525DA     SC2 9890  64.374  67.347  68.140
 1525DA     SC3 9891  64.586  67.425  68.261
 1525DA     SC4 9892  64.470  67.231  68.427
 1526DA     BB1 9893  63.902  66.786  68.338
 1526DA     BB2 9894  63.947  66.901  67.992
 1526DA     BB3 9895  64.104  66.791  67.898
 1526DA     SC1 9896  64.326  66.992  67.981
 1526DA     SC2 9897  64.475  67.160  67.870
 1526DA     SC3 9898  64.621  67.138  68.079
 1526DA     SC4 9899  64.405  66.964  68.118
 1527DA     BB1 9900  63.866  66.742  67.674
 1527DA     BB2 9901  64.088  66.900  67.429
 1527DA     BB3 9902  64.247  66.768  67.376
 1527DA     SC1 9903  64.439  66.871  67.599
 1527DA     SC2 9904  64.650  67.002  67.614
 1527DA     SC3 9905  64.675  66.898  67.846
 1527DA     SC4 9906  64.437  66.794  67.740
 1528DT     BB1 9907  64.273  66.667  67.176
 1528DT     BB2 9908  64.556  66.861  67.063
 1528DT     BB3 9909  64.726  66.744  67.064
 1528DT     SC1 9910  64.744  66.756  67.325
 1528DT     SC2 9911  64.914  66.875  67.380
 1528DT     SC3 9912  64.748  66.679  67.577
 1529DG     BB1 9913  64.727  66.806  66.649
 1529DG     BB2 9914  65.052  66.887  66.784
 1529DG     BB3 9915  65.164  66.723  66.794
 1529DG     SC1 9916  65.074  66.647  67.076
 1529DG     SC2 9917  65.245  66.646  67.321
 1529DG     SC3 9918  64.981  66.524  67.376
 1529DG     SC4 9919  64.943  66.556  67.094
 1530DT     BB1 9920  65.411  66.615  66.659
 1530DT     BB2 9921  65.642  66.684  66.928
 1530DT     BB3 9922  65.723  66.507  66.999
 1530DT     SC1 9923  65.499  66.447  67.123
 1530DT     SC2 9924  65.530  66.461  67.336
 1530DT     SC3 9925  65.279  66.318  67.189
 1531DA     BB1 9926  66.085  66.699  66.897
 1531DA     BB2 9927  66.109  66.607  67.251
 1531DA     BB3 9928  66.172  66.404  67.271
 1531DA     SC1 9929  65.883  66.289  67.273
 1531DA     SC2 9930  65.729  66.181  67.436
 1531DA     SC3 9931  65.604  66.094  67.230
 1531DA     SC4 9932  65.820  66.244  67.132
 1532DA     BB1 9933  66.386  66.562  67.450
 1532DA     BB2 9934  66.234  66.392  67.737
 1532DA     BB3 9935  66.303  66.190  67.749
 1532DA     SC1 9936  66.073  66.075  67.574
 1532DA     SC2 9937  65.871  65.931  67.605
 1532DA     SC3 9938  65.885  65.893  67.351
 1532DA     SC4 9939  66.099  66.063  67.415
 1533DA     BB1 9940  66.336  66.340  68.031
 1533DA     BB2 9941  66.104  66.086  68.159
 1533DA     BB3 9942  66.198  65.895  68.163
 1533DA     SC1 9943  66.107  65.817  67.875
 1533DA     SC2 9944  65.949  65.656  67.769
 1533DA     SC3 9945  66.088  65.691  67.557
 1533DA     SC4 9946  66.207  65.851  67.754
 1534DT     BB1 9947  66.195  65.857  68.327
 1534DT     BB2 9948  65.940  65.603  68.311
 1534DT     BB3 9949  66.027  65.416  68.288
 1534DT     SC1 9950  66.083  65.465  68.036
 1534DT     SC2 9951  65.960  65.341  67.910
 1534DT     SC3 9952  66.223  65.506  67.816
 1535DT     BB1 9953  65.939  65.384  68.532
 1535DT     BB2 9954  65.795  65.114  68.340
 1535DT     BB3 9955  65.934  64.962  68.318
 1535DT     SC1 9956  66.068  65.099  68.140
 1535DT     SC2 9957  66.046  65.007  67.947
 1535DT     SC3 9958  66.266  65.232  68.026
 1536DA     BB1 9959  65.577  64.795  68.462
 1536DA     BB2 9960  65.694  64.588  68.182
 1536DA     BB3 9961  65.865  64.475  68.240
 1536DA     SC1 9962  66.069  64.692  68.150
 1536DA     SC2 9963  66.240  64.721  67.971
 1536DA     SC3 9964  66.340  64.901  68.124
 1536DA     SC4 9965  66.117  64.799  68.260
 1537DT     BB1 9966  65.853  64.269  68.254
 1537DT     BB2 9967  66.043  64.193  67.957
 1537DT     BB3 9968  66.230  64.122  68.010
 1537DT     SC1 9969  66.311  64.363  68.075
 1537DT     SC2 9970  66.457  64.431  67.932
 1537DT     SC3 9971  66.398  64.565  68.221
 1538DA     BB1 9972  66.067  63.841  67.747
 1538DA     BB2 9973  66.406  63.919  67.630
 1538DA     BB3 9974  66.551  63.826  67.756
 1538DA     SC1 9975  66.574  64.070  67.949
 1538DA     SC2 9976  66.743  64.245  68.005
 1538DA     SC3 9977  66.610  64.272  68.223
 1538DA     SC4 9978  66.479  64.071  68.078
 1539DA     BB1 9979  66.646  63.721  67.463
 1539DA     BB2 9980  66.963  63.892  67.526
 1539DA     BB3 9981  67.080  63.783  67.668
 1539DA     SC1 9982  66.963  63.932  67.915
 1539DA     SC2 9983  67.043  64.096  68.086
 1539DA     SC3 9984  66.844  64.015  68.226
 1539DA     SC4 9985  66.835  63.868  67.987
 1540DG     BB1 9986  67.262  63.798  67.423
 1540DG     BB2 9987  67.471  63.986  67.652
 1540DG     BB3 9988  67.562  63.861  67.777
 1540DG     SC1 9989  67.339  63.869  67.986
 1540DG     SC2 9990  67.359  63.986  68.260
 1540DG     SC3 9991  67.105  63.838  68.228
 1540DG     SC4 9992  67.218  63.764  67.975
 1541DC     BB1 9993  67.764  63.868  67.767
 1541DC     BB2 9994  67.857  64.028  68.077
 1541DC     BB3 9995  67.908  63.885  68.218
 1541DC     SC1 9996  67.656  63.820  68.255
 1541DC     SC2 9997  67.594  63.885  68.450
 1541DC     SC3 9998  67.435  63.677  68.259
 1542DC     BB1 9999  68.149  63.980  68.181
 1542DC     BB210000  68.090  64.002  68.536
 1542DC     BB310001  68.119  63.817  68.625
 1542DC     SC110002  67.892  63.727  68.529
 1542DC     SC210003  67.752  63.700  68.691
 1542DC     SC310004  67.720  63.582  68.391
 1543DA     BB110005  68.358  64.084  68.845
 1543DA     BB210006  68.171  63.878  69.084
 1543DA     BB310007  68.249  63.680  69.088
 1543DA     SC110008  68.059  63.574  68.866
 1543DA     SC210009  67.864  63.419  68.848
 1543DA     SC310010  67.922  63.409  68.598
 1543DA     SC410011  68.112  63.580  68.714
 1544DG     BB110012  68.325  63.715  69.396
 1544DG     BB210013  68.082  63.452  69.444
 1544DG     BB310014  68.169  63.274  69.420
 1544DG     SC110015  68.114  63.260  69.119
 1544DG     SC210016  67.931  63.067  68.984
 1544DG     SC310017  68.088  63.220  68.786
 1544DG     SC410018  68.220  63.323  69.018
 1545DG     BB110019  68.097  63.169  69.731
 1545DG     BB210020  67.892  62.915  69.574
 1545DG     BB310021  68.003  62.756  69.531
 1545DG     SC110022  68.080  62.855  69.252
 1545DG     SC210023  67.997  62.732  68.992
 1545DG     SC310024  68.201  62.942  68.949
 1545DG     SC410025  68.211  62.947  69.235
 1546DA     BB110026  67.770  62.563  69.702
 1546DA     BB210027  67.697  62.378  69.394
 1546DA     BB310028  67.850  62.234  69.355
 1546DA     SC110029  68.022  62.428  69.184
 1546DA     SC210030  68.088  62.454  68.945
 1546DA     SC310031  68.281  62.597  69.034
 1546DA     SC410032  68.137  62.512  69.259
 1547DA     BB110033  67.580  62.051  69.344
 1547DA     BB210034  67.670  61.982  68.995
 1547DA     BB310035  67.836  61.849  68.986
 1547DA     SC110036  68.050  62.075  68.984
 1547DA     SC210037  68.214  62.173  68.823
 1547DA     SC310038  68.332  62.265  69.032
 1547DA     SC410039  68.110  62.122  69.126
 1548DT     BB110040  67.789  61.690  68.907
 1548DT     BB210041  67.958  61.744  68.593
 1548DT     BB310042  68.141  61.646  68.593
 1548DT     SC110043  68.246  61.826  68.752
 1548DT     SC210044  68.391  61.942  68.643
 1548DT     SC310045  68.358  61.934  68.965
 1549DC     BB110046  68.026  61.488  68.417
 1549DC     BB210047  68.320  61.616  68.252
 1549DC     BB310048  68.487  61.509  68.311
 1549DC     SC110049  68.490  61.627  68.545
 1549DC     SC210050  68.661  61.757  68.557
 1549DC     SC310051  68.479  61.660  68.806
 1550DA     BB110052  68.481  61.522  67.890
 1550DA     BB210053  68.818  61.610  68.002
 1550DA     BB310054  68.918  61.437  68.080
 1550DA     SC110055  68.822  61.483  68.372
 1550DA     SC210056  68.921  61.550  68.591
 1550DA     SC310057  68.712  61.443  68.695
 1550DA     SC410058  68.686  61.411  68.418
 1551DA     BB110059  69.156  61.511  67.860
 1551DA     BB210060  69.385  61.548  68.144
 1551DA     BB310061  69.444  61.356  68.217
 1551DA     SC110062  69.211  61.336  68.422
 1551DA     SC210063  69.183  61.340  68.670
 1551DA     SC310064  68.958  61.225  68.626
 1551DA     SC410065  69.076  61.263  68.374
 1552DT     BB110066  69.649  61.276  68.202
 1552DT     BB210067  69.736  61.320  68.549
 1552DT     BB310068  69.746  61.136  68.643
 1552DT     SC110069  69.484  61.115  68.647
 1552DT     SC210070  69.414  61.133  68.850
 1552DT     SC310071  69.242  61.023  68.598
 1553DT     BB110072  70.026  61.131  68.659
 1553DT     BB210073  69.919  61.096  69.002
 1553DT     BB310074  69.898  60.895  69.048
 1553DT     SC110075  69.674  60.879  68.912
 1553DT     SC210076  69.509  60.853  69.047
 1553DT     SC310077  69.501  60.806  68.727
 1554DT     BB110078  70.124  60.897  69.204
 1554DT     BB210079  69.862  60.788  69.427
 1554DT     BB310080  69.842  60.582  69.417
 1554DT     SC110081  69.723  60.597  69.184
 1554DT     SC210082  69.516  60.542  69.206
 1554DT     SC310083  69.678  60.566  68.926
 1555DC     BB110084  69.952  60.560  69.664
 1555DC     BB210085  69.629  60.402  69.693
 1555DC     BB310086  69.642  60.203  69.638
 1555DC     SC110087  69.657  60.267  69.384
 1555DC     SC210088  69.476  60.207  69.284
 1555DC     SC310089  69.754  60.292  69.140
 1556DA     BB110090  69.455  60.222  70.013
 1556DA     BB210091  69.251  60.009  69.795
 1556DA     BB310092  69.348  59.821  69.764
 1556DA     SC110093  69.500  59.914  69.510
 1556DA     SC210094  69.495  59.870  69.264
 1556DA     SC310095  69.734  59.963  69.262
 1556DA     SC410096  69.648  59.974  69.529
 1557DT     BB110097  69.259  59.659  69.839
 1557DT     BB210098  69.139  59.527  69.525
 1557DT     BB310099  69.257  59.367  69.467
 1557DT     SC110100  69.453  59.528  69.396
 1557DT     SC210101  69.473  59.526  69.182
 1557DT     SC310102  69.690  59.643  69.392
 1558DA     BB110103  68.859  59.238  69.455
 1558DA     BB210104  69.016  59.146  69.136
 1558DA     BB310105  69.150  58.982  69.164
 1558DA     SC110106  69.397  59.162  69.222
 1558DA     SC210107  69.611  59.223  69.109
 1558DA     SC310108  69.691  59.293  69.342
 1558DA     SC410109  69.429  59.199  69.375
 1559DA     BB110110  68.966  58.859  68.922
 1559DA     BB210111  69.273  58.847  68.722
 1559DA     BB310112  69.397  58.685  68.786
 1559DA     SC110113  69.554  58.854  68.995
 1559DA     SC210114  69.784  58.945  69.023
 1559DA     SC310115  69.725  58.962  69.272
 1559DA     SC410116  69.498  58.856  69.145
 1560DC     BB110117  69.426  58.535  68.656
 1560DC     BB210118  69.765  58.622  68.569
 1560DC     BB310119  69.898  58.492  68.661
 1560DC     SC110120  69.862  58.608  68.893
 1560DC     SC210121  70.041  58.713  68.949
 1560DC     SC310122  69.794  58.642  69.146
 1561DG     BB110123  69.959  58.481  68.259
 1561DG     BB210124  70.265  58.549  68.439
 1561DG     BB310125  70.335  58.381  68.520
 1561DG     SC110126  70.182  58.413  68.782
 1561DG     SC210127  70.302  58.463  69.051
 1561DG     SC310128  70.013  58.406  69.074
 1561DG     SC410129  70.034  58.353  68.794
 1562DA     BB110130  70.623  58.489  68.364
 1562DA     BB210131  70.792  58.491  68.690
 1562DA     BB310132  70.827  58.291  68.755
 1562DA     SC110133  70.558  58.268  68.909
 1562DA     SC210134  70.481  58.255  69.146
 1562DA     SC310135  70.265  58.157  69.049
 1562DA     SC410136  70.432  58.207  68.830
 1563DA     BB110137  71.125  58.425  68.779
 1563DA     BB210138  71.109  58.343  69.136
 1563DA     BB310139  71.128  58.133  69.164
 1563DA     SC110140  70.822  58.079  69.150
 1563DA     SC210141  70.639  58.010  69.305
 1563DA     SC310142  70.512  57.943  69.093
 1563DA     SC410143  70.759  58.042  69.006
 1564DT     BB110144  71.292  58.064  69.258
 1564DT     BB210145  71.132  57.978  69.570
 1564DT     BB310146  71.106  57.773  69.582
 1564DT     SC110147  70.908  57.780  69.411
 1564DT     SC210148  70.724  57.735  69.512
 1564DT     SC310149  70.768  57.736  69.191
 1565DT     BB110150  71.305  57.751  69.770
 1565DT     BB210151  71.015  57.606  69.928
 1565DT     BB310152  71.001  57.405  69.880
 1565DT     SC110153  70.918  57.460  69.637
 1565DT     SC210154  70.712  57.404  69.618
 1565DT     SC310155  70.913  57.475  69.374
 1566DG     BB110156  71.025  57.416  70.287
 1566DG     BB210157  70.735  57.229  70.177
 1566DG     BB310158  70.790  57.046  70.123
 1566DG     SC110159  70.843  57.122  69.831
 1566DG     SC210160  70.687  57.028  69.595
 1566DG     SC310161  70.930  57.174  69.509
 1566DG     SC410162  70.988  57.174  69.790
 1567DA     BB110163  70.540  56.943  70.336
 1567DA     BB210164  70.368  56.784  70.055
 1567DA     BB310165  70.466  56.602  70.002
 1567DA     SC110166  70.656  56.735  69.795
 1567DA     SC210167  70.686  56.738  69.547
 1567DA     SC310168  70.924  56.819  69.598
 1567DA     SC410169  70.800  56.783  69.847
 1568DT     BB110170  70.355  56.458  70.029
 1568DT     BB210171  70.279  56.396  69.682
 1568DT     BB310172  70.396  56.241  69.610
 1568DT     SC110173  70.609  56.394  69.601
 1568DT     SC210174  70.662  56.430  69.396
 1568DT     SC310175  70.850  56.487  69.654
 1569DT     BB110176  70.161  56.135  69.604
 1569DT     BB210177  70.286  56.122  69.266
 1569DT     BB310178  70.422  55.967  69.247
 1569DT     SC110179  70.606  56.102  69.376
 1569DT     SC210180  70.763  56.158  69.239
 1569DT     SC310181  70.780  56.169  69.563
 1570DA     BB110182  70.133  55.986  68.939
 1570DA     BB210183  70.464  55.937  68.789
 1570DA     BB310184  70.541  55.745  68.840
 1570DA     SC110185  70.685  55.844  69.098
 1570DA     SC210186  70.919  55.879  69.177
 1570DA     SC310187  70.819  55.872  69.413
 1570DA     SC410188  70.604  55.836  69.236
 1571DT     BB110189  70.558  55.651  68.692
 1571DT     BB210190  70.918  55.641  68.676
 1571DT     BB310191  70.988  55.469  68.766
 1571DT     SC110192  70.939  55.564  69.006
 1571DT     SC210193  71.125  55.604  69.106
 1571DT     SC310194  70.833  55.590  69.246
 1572DT     BB110195  71.050  55.358  68.524
 1572DT     BB210196  71.357  55.331  68.711
 1572DT     BB310197  71.358  55.155  68.821
 1572DT     SC110198  71.187  55.254  68.994
 1572DT     SC210199  71.287  55.286  69.182
 1572DT     SC310200  70.967  55.286  69.135
 1573DT     BB110201  71.539  55.012  68.655
 1573DT     BB210202  71.689  54.986  68.982
 1573DT     BB310203  71.623  54.814  69.076
 1573DT     SC110204  71.388  54.920  69.124
 1573DT     SC210205  71.367  54.956  69.335
 1573DT     SC310206  71.127  54.960  69.117
 1574DA     BB110207  72.040  54.772  69.096
 1574DA     BB210208  71.911  54.707  69.432
 1574DA     BB310209  71.826  54.511  69.443
 1574DA     SC110210  71.540  54.604  69.364
 1574DA     SC210211  71.317  54.627  69.472
 1574DA     SC310212  71.223  54.626  69.234
 1574DA     SC410213  71.501  54.600  69.208
 1575DG     BB110214  72.041  54.446  69.663
 1575DG     BB210215  71.752  54.412  69.877
 1575DG     BB310216  71.678  54.228  69.863
 1575DG     SC110217  71.489  54.295  69.631
 1575DG     SC210218  71.191  54.296  69.643
 1575DG     SC310219  71.286  54.328  69.365
 1575DG     SC410220  71.543  54.282  69.481
 1576DT     BB110221  71.673  54.089  70.038
 1576DT     BB210222  71.322  54.091  70.123
 1576DT     BB310223  71.233  53.915  70.060
 1576DT     SC110224  71.237  53.993  69.810
 1576DT     SC210225  71.036  54.032  69.744
 1576DT     SC310226  71.296  53.999  69.553
 1577DA     BB110227  71.132  53.959  70.465
 1577DA     BB210228  70.825  53.874  70.284
 1577DA     BB310229  70.826  53.668  70.228
 1577DA     SC110230  70.961  53.718  69.952
 1577DA     SC210231  70.898  53.707  69.711
 1577DA     SC310232  71.150  53.693  69.667
 1577DA     SC410233  71.121  53.709  69.945
 1578DC     BB110234  70.691  53.519  70.315
 1578DC     BB210235  70.480  53.472  70.026
 1578DC     BB310236  70.518  53.287  69.940
 1578DC     SC110237  70.744  53.373  69.838
 1578DC     SC210238  70.726  53.387  69.624
 1578DC     SC310239  71.003  53.396  69.791
 1579DT     BB110240  70.286  53.125  70.035
 1579DT     BB210241  70.275  53.073  69.678
 1579DT     BB310242  70.375  52.899  69.628
 1579DT     SC110243  70.608  53.012  69.667
 1579DT     SC210244  70.709  53.036  69.479
 1579DT     SC310245  70.846  53.062  69.771
 1580DC     BB110246  70.159  52.663  69.579
 1580DC     BB210247  70.350  52.656  69.273
 1580DC     BB310248  70.487  52.501  69.279
 1580DC     SC110249  70.641  52.634  69.444
 1580DC     SC210250  70.822  52.692  69.343
 1580DC     SC310251  70.774  52.697  69.664
 1581DT     BB110252  70.381  52.244  69.102
 1581DT     BB210253  70.698  52.321  68.949
 1581DT     BB310254  70.842  52.185  69.010
 1581DT     SC110255  70.858  52.298  69.247
 1581DT     SC210256  71.048  52.396  69.266
 1581DT     SC310257  70.844  52.329  69.508
 1582DT     BB110258  70.867  52.033  68.765
 1582DT     BB210259  71.193  52.181  68.816
 1582DT     BB310260  71.316  52.047  68.915
 1582DT     SC110261  71.192  52.090  69.142
 1582DT     SC210262  71.323  52.196  69.276
 1582DT     SC310263  71.049  52.045  69.359
 1583DA     BB110264  71.495  52.206  68.573
 1583DA     BB210265  71.718  52.262  68.858
 1583DA     BB310266  71.807  52.079  68.920
 1583DA     SC110267  71.583  52.010  69.124
 1583DA     SC210268  71.557  51.996  69.372
 1583DA     SC310269  71.352  51.849  69.321
 1583DA     SC410270  71.460  51.920  69.072
 1584DA     BB110271  72.030  52.311  68.879
 1584DA     BB210272  72.102  52.260  69.235
 1584DA     BB310273  72.188  52.068  69.267
 1584DA     SC110274  71.915  51.926  69.314
 1584DA     SC210275  71.791  51.822  69.503
 1584DA     SC310276  71.655  51.702  69.322
 1584DA     SC410277  71.842  51.860  69.186
 1585DT     BB110278  72.343  52.102  69.329
 1585DT     BB210279  72.278  52.001  69.669
 1585DT     BB310280  72.331  51.803  69.696
 1585DT     SC110281  72.119  51.720  69.565
 1585DT     SC210282  71.983  51.625  69.701
 1585DT     SC310283  71.972  51.606  69.378
 1586DG     BB110284  72.514  52.049  69.966
 1586DG     BB210285  72.346  51.771  70.126
 1586DG     BB310286  72.449  51.603  70.096
 1586DG     SC110287  72.305  51.531  69.836
 1586DG     SC210288  72.123  51.298  69.795
 1586DG     SC310289  72.181  51.432  69.538
 1586DG     SC410290  72.362  51.588  69.697
 1587DA     BB110291  72.421  51.571  70.439
 1587DA     BB210292  72.253  51.249  70.392
 1587DA     BB310293  72.393  51.100  70.331
 1587DA     SC110294  72.353  51.152  70.027
 1587DA     SC210295  72.253  51.034  69.831
 1587DA     SC310296  72.397  51.191  69.689
 1587DA     SC410297  72.451  51.257  69.956
 1588DA     BB110298  72.256  50.952  70.589
 1588DA     BB210299  72.151  50.689  70.355
 1588DA     BB310300  72.319  50.570  70.298
 1588DA     SC110301  72.390  50.745  70.051
 1588DA     SC210302  72.383  50.725  69.802
 1588DA     SC310303  72.554  50.917  69.802
 1588DA     SC410304  72.496  50.864  70.072
 1589DC     BB110305  72.308  50.389  70.355
 1589DC     BB210306  72.234  50.245  70.033
 1589DC     BB310307  72.405  50.161  69.952
 1589DC     SC110308  72.503  50.397  69.894
 1589DC     SC210309  72.504  50.423  69.680
 1589DC     SC310310  72.664  50.606  69.894
 1590DT     BB110311  72.281  49.934  69.998
 1590DT     BB210312  72.352  49.935  69.644
 1590DT     BB310313  72.547  49.875  69.610
 1590DT     SC110314  72.641  50.106  69.694
 1590DT     SC210315  72.723  50.214  69.527
 1590DT     SC310316  72.771  50.283  69.840
 1591DT     BB110317  72.426  49.669  69.509
 1591DT     BB210318  72.635  49.797  69.245
 1591DT     BB310319  72.831  49.734  69.273
 1591DT     SC110320  72.865  49.906  69.469
 1591DT     SC210321  73.001  50.060  69.405
 1591DT     SC310322  72.911  50.002  69.711
 1592DA     BB110323  72.714  49.652  68.878
 1592DA     BB210324  73.046  49.806  68.869
 1592DA     BB310325  73.192  49.671  68.946
 1592DA     SC110326  73.167  49.772  69.239
 1592DA     SC210327  73.304  49.900  69.403
 1592DA     SC310328  73.152  49.795  69.582
 1592DA     SC410329  73.062  49.696  69.335
 1593DA     BB110330  73.346  49.727  68.657
 1593DA     BB210331  73.632  49.849  68.851
 1593DA     BB310332  73.739  49.686  68.936
 1593DA     SC110333  73.576  49.686  69.201
 1593DA     SC210334  73.613  49.742  69.441
 1593DA     SC310335  73.407  49.596  69.486
 1593DA     SC410336  73.446  49.591  69.209
 1594DT     BB110337  73.946  49.619  68.877
 1594DT     BB210338  74.117  49.740  69.170
 1594DT     BB310339  74.179  49.580  69.287
 1594DT     SC110340  73.934  49.538  69.371
 1594DT     SC210341  73.921  49.590  69.580
 1594DT     SC310342  73.703  49.417  69.412
 1595DG     BB110343  74.543  49.751  69.199
 1595DG     BB210344  74.507  49.707  69.556
 1595DG     BB310345  74.556  49.521  69.607
 1595DG     SC110346  74.273  49.409  69.572
 1595DG     SC210347  74.098  49.305  69.789
 1595DG     SC310348  73.981  49.250  69.523
 1595DG     SC410349  74.229  49.355  69.428
 1596DT     BB110350  74.741  49.455  69.749
 1596DT     BB210351  74.563  49.378  70.053
 1596DT     BB310352  74.564  49.174  70.086
 1596DT     SC110353  74.385  49.135  69.898
 1596DT     SC210354  74.199  49.075  69.987
 1596DT     SC310355  74.275  49.051  69.673
 1597DA     BB110356  74.701  49.359  70.434
 1597DA     BB210357  74.434  49.126  70.528
 1597DA     BB310358  74.504  48.925  70.518
 1597DA     SC110359  74.419  48.884  70.222
 1597DA     SC210360  74.249  48.753  70.095
 1597DA     SC310361  74.402  48.788  69.892
 1597DA     SC410362  74.529  48.915  70.108
 1598DT     BB110363  74.505  48.843  70.686
 1598DT     BB210364  74.217  48.631  70.632
 1598DT     BB310365  74.279  48.438  70.588
 1598DT     SC110366  74.351  48.509  70.345
 1598DT     SC210367  74.216  48.420  70.202
 1598DT     SC310368  74.503  48.555  70.135
 1599DC     BB110369  74.178  48.388  70.823
 1599DC     BB210370  74.003  48.169  70.595
 1599DC     BB310371  74.118  48.002  70.556
 1599DC     SC110372  74.279  48.139  70.400
 1599DC     SC210373  74.250  48.077  70.196
 1599DC     SC310374  74.498  48.253  70.308
 1600DA     BB110375  73.727  47.887  70.661
 1600DA     BB210376  73.827  47.697  70.364
 1600DA     BB310377  73.976  47.553  70.415
 1600DA     SC110378  74.214  47.745  70.357
 1600DA     SC210379  74.396  47.767  70.187
 1600DA     SC310380  74.514  47.912  70.363
 1600DA     SC410381  74.272  47.831  70.479
 1601DT     BB110382  73.931  47.355  70.405
 1601DT     BB210383  74.129  47.272  70.115
 1601DT     BB310384  74.301  47.173  70.172
 1601DT     SC110385  74.409  47.395  70.260
 1601DT     SC210386  74.573  47.451  70.131
 1601DT     SC310387  74.513  47.572  70.426
 1602DA     BB110388  74.129  46.917  69.886
 1602DA     BB210389  74.484  46.953  69.802
 1602DA     BB310390  74.604  46.841  69.938
 1602DA     SC110391  74.640  47.077  70.138
 1602DA     SC210392  74.823  47.228  70.214
 1602DA     SC310393  74.675  47.270  70.420
 1602DA     SC410394  74.534  47.089  70.259
 1603DA     BB110395  74.732  46.692  69.670
 1603DA     BB210396  75.058  46.829  69.767
 1603DA     BB310397  75.143  46.713  69.925
 1603DA     SC110398  75.017  46.884  70.152
 1603DA     SC210399  75.094  47.044  70.327
 1603DA     SC310400  74.872  46.992  70.444
 1603DA     SC410401  74.874  46.837  70.210
 1604DT     BB110402  75.317  46.600  69.894
 1604DT     BB210403  75.541  46.818  70.074
 1604DT     BB310404  75.594  46.732  70.254
 1604DT     SC110405  75.359  46.785  70.358
 1604DT     SC210406  75.380  46.937  70.509
 1604DT     SC310407  75.120  46.749  70.464
 1605DA     BB110408  75.949  46.842  70.060
 1605DA     BB210409  75.964  46.970  70.403
 1605DA     BB310410  75.996  46.810  70.541
 1605DA     SC110411  75.693  46.756  70.587
 1605DA     SC210412  75.527  46.783  70.770
 1605DA     SC310413  75.388  46.609  70.642
 1605DA     SC410414  75.622  46.646  70.493
 1606DT     BB110415  76.168  46.808  70.639
 1606DT     BB210416  76.037  46.909  70.960
 1606DT     BB310417  76.026  46.745  71.086
 1606DT     SC110418  75.815  46.652  70.959
 1606DT     SC210419  75.642  46.669  71.086
 1606DT     SC310420  75.663  46.492  70.815
 1607DT     BB110421  76.236  46.838  71.231
 1607DT     BB210422  75.972  46.797  71.473
 1607DT     BB310423  75.971  46.602  71.544
 1607DT     SC110424  75.865  46.513  71.321
 1607DT     SC210425  75.663  46.450  71.358
 1607DT     SC310426  75.838  46.380  71.095
 1608DT     BB110427  76.079  46.670  71.792
 1608DT     BB210428  75.773  46.498  71.875
 1608DT     BB310429  75.808  46.295  71.892
 1608DT     SC110430  75.826  46.268  71.632
 1608DT     SC210431  75.656  46.157  71.560
 1608DT     SC310432  75.928  46.217  71.394
 1609DT     BB110433  75.798  46.279  72.178
 1609DT     BB210434  75.549  46.041  72.070
 1609DT     BB310435  75.634  45.853  72.052
 1609DT     SC110436  75.756  45.921  71.830
 1609DT     SC210437  75.667  45.816  71.665
 1609DT     SC310438  75.951  45.973  71.659
 1610DC     BB110439  75.524  45.730  72.290
 1610DC     BB210440  75.411  45.516  72.022
 1610DC     BB310441  75.544  45.359  71.996
 1610DC     SC110442  75.719  45.517  71.881
 1610DC     SC210443  75.734  45.466  71.672
 1610DC     SC310444  75.943  45.650  71.839
 1611DA     BB110445  75.170  45.179  72.046
 1611DA     BB210446  75.315  45.052  71.734
 1611DA     BB310447  75.465  44.906  71.776
 1611DA     SC110448  75.698  45.112  71.787
 1611DA     SC210449  75.898  45.171  71.651
 1611DA     SC310450  75.985  45.283  71.864
 1611DA     SC410451  75.735  45.174  71.930
 1612DT     BB110452  75.425  44.724  71.713
 1612DT     BB210453  75.643  44.738  71.426
 1612DT     BB310454  75.813  44.625  71.461
 1612DT     SC110455  75.911  44.806  71.622
 1612DT     SC210456  76.082  44.899  71.530
 1612DT     SC310457  76.000  44.920  71.843
 1613DT     BB110458  75.705  44.476  71.275
 1613DT     BB210459  76.026  44.576  71.145
 1613DT     BB310460  76.175  44.455  71.223
 1613DT     SC110461  76.162  44.574  71.456
 1613DT     SC210462  76.341  44.689  71.488
 1613DT     SC310463  76.123  44.611  71.714
 1614DT     BB110464  76.185  44.373  70.975
 1614DT     BB210465  76.517  44.491  71.051
 1614DT     BB310466  76.622  44.345  71.154
 1614DT     SC110467  76.487  44.393  71.374
 1614DT     SC210468  76.617  44.485  71.519
 1614DT     SC310469  76.326  44.355  71.580
 1615DT     BB110470  76.762  44.327  70.932
 1615DT     BB210471  77.004  44.398  71.189
 1615DT     BB310472  77.055  44.224  71.288
 1615DT     SC110473  76.827  44.220  71.417
 1615DT     SC210474  76.861  44.261  71.625
 1615DT     SC310475  76.589  44.139  71.498
 1616DA     BB110476  77.407  44.420  71.170
 1616DA     BB210477  77.444  44.321  71.522
 1616DA     BB310478  77.470  44.110  71.537
 1616DA     SC110479  77.166  44.050  71.565
 1616DA     SC210480  77.009  43.971  71.742
 1616DA     SC310481  76.853  43.911  71.547
 1616DA     SC410482  77.084  44.019  71.431
 1617DT     BB110483  77.647  44.040  71.603
 1617DT     BB210484  77.538  43.935  71.930
 1617DT     BB310485  77.520  43.729  71.936
 1617DT     SC110486  77.299  43.736  71.795
 1617DT     SC210487  77.133  43.680  71.920
 1617DT     SC310488  77.129  43.697  71.597
 1618DA     BB110489  77.756  43.843  72.262
 1618DA     BB210490  77.500  43.613  72.385
 1618DA     BB310491  77.544  43.413  72.324
 1618DA     SC110492  77.382  43.432  72.059
 1618DA     SC210493  77.172  43.337  71.964
 1618DA     SC310494  77.271  43.401  71.736
 1618DA     SC410495  77.461  43.478  71.927
 1619DT     BB110496  77.587  43.286  72.467
 1619DT     BB210497  77.279  43.098  72.458
 1619DT     BB310498  77.309  42.918  72.362
 1619DT     SC110499  77.317  43.035  72.127
 1619DT     SC210500  77.142  42.982  72.014
 1619DT     SC310501  77.410  43.120  71.895
 1620DC     BB110502  77.284  42.801  72.600
 1620DC     BB210503  77.036  42.640  72.393
 1620DC     BB310504  77.122  42.485  72.286
 1620DC     SC110505  77.240  42.654  72.123
 1620DC     SC210506  77.150  42.639  71.928
 1620DC     SC310507  77.432  42.784  71.997
 1621DA     BB110508  76.783  42.327  72.477
 1621DA     BB210509  76.778  42.213  72.128
 1621DA     BB310510  76.928  42.064  72.097
 1621DA     SC110511  77.148  42.267  72.014
 1621DA     SC210512  77.272  42.331  71.808
 1621DA     SC310513  77.445  42.433  71.968
 1621DA     SC410514  77.245  42.323  72.130
 1622DT     BB110515  76.882  41.853  72.057
 1622DT     BB210516  76.977  41.847  71.709
 1622DT     BB310517  77.153  41.741  71.686
 1622DT     SC110518  77.295  41.938  71.785
 1622DT     SC210519  77.414  42.027  71.629
 1622DT     SC310520  77.454  42.072  71.948
 1623DC     BB110521  77.039  41.502  71.576
 1623DC     BB210522  77.290  41.590  71.332
 1623DC     BB310523  77.468  41.493  71.375
 1623DC     SC110524  77.516  41.655  71.576
 1623DC     SC210525  77.683  41.782  71.527
 1623DC     SC310526  77.557  41.739  71.823
 1624DG     BB110527  77.395  41.332  71.003
 1624DG     BB210528  77.732  41.462  71.016
 1624DG     BB310529  77.854  41.326  71.094
 1624DG     SC110530  77.814  41.420  71.383
 1624DG     SC210531  78.021  41.546  71.557
 1624DG     SC310532  77.777  41.483  71.712
 1624DG     SC410533  77.694  41.357  71.469
 1625DA     BB110534  78.081  41.331  70.821
 1625DA     BB210535  78.356  41.440  71.038
 1625DA     BB310536  78.444  41.272  71.136
 1625DA     SC110537  78.257  41.289  71.385
 1625DA     SC210538  78.276  41.348  71.626
 1625DA     SC310539  78.057  41.216  71.654
 1625DA     SC410540  78.122  41.202  71.382
 1626DG     BB110541  78.727  41.323  70.995
 1626DG     BB210542  78.842  41.387  71.332
 1626DG     BB310543  78.904  41.217  71.416
 1626DG     SC110544  78.630  41.144  71.531
 1626DG     SC210545  78.559  41.133  71.821
 1626DG     SC310546  78.341  41.023  71.654
 1626DG     SC410547  78.529  41.059  71.441
 1627DT     BB110548  79.137  41.155  71.488
 1627DT     BB210549  79.105  41.188  71.846
 1627DT     BB310550  79.114  41.001  71.935
 1627DT     SC110551  78.871  40.942  71.856
 1627DT     SC210552  78.740  40.936  72.027
 1627DT     SC310553  78.674  40.820  71.731
 1628DG     BB110554  79.436  41.189  72.108
 1628DG     BB210555  79.221  41.048  72.363
 1628DG     BB310556  79.265  40.856  72.389
 1628DG     SC110557  79.067  40.756  72.178
 1628DG     SC210558  78.821  40.595  72.230
 1628DG     SC310559  78.876  40.614  71.939
 1628DG     SC410560  79.116  40.744  72.026
 1629DA     BB110561  79.312  40.899  72.735
 1629DA     BB210562  79.038  40.666  72.809
 1629DA     BB310563  79.108  40.465  72.800
 1629DA     SC110564  79.042  40.429  72.498
 1629DA     SC210565  78.879  40.301  72.359
 1629DA     SC310566  79.044  40.339  72.167
 1629DA     SC410567  79.158  40.462  72.392
 1630DC     BB110568  79.123  40.330  72.978
 1630DC     BB210569  78.833  40.130  72.899
 1630DC     BB310570  78.891  39.939  72.848
 1630DC     SC110571  78.977  40.019  72.613
 1630DC     SC210572  78.847  39.942  72.460
 1630DC     SC310573  79.141  40.071  72.414
 1631DG     BB110574  78.642  39.895  73.166
 1631DG     BB210575  78.533  39.692  72.888
 1631DG     BB310576  78.637  39.523  72.882
 1631DG     SC110577  78.858  39.636  72.704
 1631DG     SC210578  78.916  39.553  72.423
 1631DG     SC310579  79.127  39.733  72.525
 1631DG     SC410580  78.984  39.708  72.772
 1632DT     BB110581  78.527  39.349  72.901
 1632DT     BB210582  78.528  39.225  72.562
 1632DT     BB310583  78.669  39.075  72.542
 1632DT     SC110584  78.866  39.249  72.546
 1632DT     SC210585  78.956  39.258  72.351
 1632DT     SC310586  79.083  39.377  72.625
 1633DT     BB110587  78.458  38.922  72.517
 1633DT     BB210588  78.649  38.873  72.215
 1633DT     BB310589  78.800  38.736  72.248
 1633DT     SC110590  78.941  38.912  72.383
 1633DT     SC210591  79.115  38.966  72.269
 1633DT     SC310592  79.066  39.028  72.584
 1634DA     BB110593  78.582  38.649  71.900
 1634DA     BB210594  78.939  38.630  71.821
 1634DA     BB310595  79.027  38.461  71.917
 1634DA     SC110596  79.105  38.616  72.175
 1634DA     SC210597  79.313  38.696  72.287
 1634DA     SC310598  79.169  38.708  72.500
 1634DA     SC410599  78.999  38.615  72.297
 1635DT     BB110600  79.087  38.340  71.794
 1635DT     BB210601  79.441  38.393  71.840
 1635DT     BB310602  79.519  38.249  71.966
 1635DT     SC110603  79.410  38.363  72.176
 1635DT     SC210604  79.565  38.447  72.299
 1635DT     SC310605  79.258  38.398  72.388
 1636DT     BB110606  79.639  38.146  71.751
 1636DT     BB210607  79.906  38.201  71.988
 1636DT     BB310608  79.918  38.041  72.119
 1636DT     SC110609  79.703  38.120  72.248
 1636DT     SC210610  79.759  38.189  72.443
 1636DT     SC310611  79.458  38.119  72.345
 1637DT     BB110612  80.146  37.951  71.998
 1637DT     BB210613  80.237  37.978  72.347
 1637DT     BB310614  80.189  37.803  72.446
 1637DT     SC110615  79.933  37.863  72.443
 1637DT     SC210616  79.868  37.907  72.644
 1637DT     SC310617  79.675  37.847  72.390
 1638DA     BB110618  80.597  37.848  72.540
 1638DA     BB210619  80.423  37.773  72.854
 1638DA     BB310620  80.374  37.565  72.863
 1638DA     SC110621  80.094  37.601  72.731
 1638DA     SC210622  79.855  37.586  72.799
 1638DA     SC310623  79.807  37.559  72.548
 1638DA     SC410624  80.085  37.584  72.571
 1639DA     BB110625  80.540  37.532  73.157
 1639DA     BB210626  80.223  37.436  73.315
 1639DA     BB310627  80.182  37.230  73.280
 1639DA     SC110628  80.023  37.280  73.018
 1639DA     SC210629  79.786  37.265  72.940
 1639DA     SC310630  79.886  37.258  72.704
 1639DA     SC410631  80.104  37.276  72.879
 1640DG     BB110632  80.194  37.137  73.595
 1640DG     BB210633  79.842  37.067  73.549
 1640DG     BB310634  79.817  36.877  73.494
 1640DG     SC110635  79.837  36.936  73.195
 1640DG     SC210636  79.617  36.908  72.995
 1640DG     SC310637  79.874  36.961  72.860
 1640DG     SC410638  79.981  36.934  73.125
 1641DT     BB110639  79.701  36.677  73.618
 1641DT     BB210640  79.391  36.670  73.433
 1641DT     BB310641  79.380  36.496  73.321
 1641DT     SC110642  79.554  36.587  73.147
 1641DT     SC210643  79.455  36.626  72.960
 1641DT     SC310644  79.775  36.608  73.004
 1642DC     BB110645  79.187  36.383  73.485
 1642DC     BB210646  79.032  36.398  73.159
 1642DC     BB310647  79.071  36.224  73.054
 1642DC     SC110648  79.319  36.299  73.009
 1642DC     SC210649  79.343  36.343  72.800
 1642DC     SC310650  79.583  36.299  73.013
 1643DG     BB110651  78.669  36.279  73.080
 1643DG     BB210652  78.778  36.241  72.737
 1643DG     BB310653  78.814  36.050  72.698
 1643DG     SC110654  79.108  36.063  72.782
 1643DG     SC210655  79.343  36.031  72.602
 1643DG     SC310656  79.428  36.036  72.885
 1643DG     SC410657  79.146  36.036  72.935
 1644DA     BB110658  78.610  36.121  72.431
 1644DA     BB210659  78.882  36.026  72.205
 1644DA     BB310660  78.909  35.814  72.206
 1644DA     SC110661  79.118  35.817  72.436
 1644DA     SC210662  79.362  35.774  72.464
 1644DA     SC310663  79.307  35.742  72.713
 1644DA     SC410664  79.063  35.799  72.586
 1645DA     BB110665  78.880  35.884  71.887
 1645DA     BB210666  79.215  35.742  71.849
 1645DA     BB310667  79.209  35.530  71.872
 1645DA     SC110668  79.260  35.537  72.179
 1645DA     SC210669  79.442  35.475  72.338
 1645DA     SC310670  79.259  35.474  72.517
 1645DA     SC410671  79.131  35.540  72.276
 1646DT     BB110672  79.253  35.426  71.714
 1646DT     BB210673  79.579  35.315  71.822
 1646DT     BB310674  79.569  35.119  71.886
 1646DT     SC110675  79.450  35.190  72.110
 1646DT     SC210676  79.585  35.160  72.275
 1646DT     SC310677  79.266  35.211  72.297
 1647DT     BB110678  79.702  35.039  71.664
 1647DT     BB210679  79.903  34.919  71.939
 1647DT     BB310680  79.834  34.734  72.002
 1647DT     SC110681  79.626  34.842  72.119
 1647DT     SC210682  79.646  34.824  72.332
 1647DT     SC310683  79.374  34.900  72.174
 1648DC     BB110684  80.054  34.615  71.894
 1648DC     BB210685  80.060  34.522  72.243
 1648DC     BB310686  79.947  34.351  72.272
 1648DC     SC110687  79.723  34.485  72.248
 1648DC     SC210688  79.624  34.494  72.439
 1648DC     SC310689  79.491  34.564  72.152
 1649DT     BB110690  80.178  34.223  72.315
 1649DT     BB210691  79.986  34.176  72.617
 1649DT     BB310692  79.859  34.015  72.595
 1649DT     SC110693  79.698  34.152  72.441
 1649DT     SC210694  79.513  34.190  72.545
 1649DT     SC310695  79.563  34.226  72.227
 1650DT     BB110696  80.020  33.912  72.771
 1650DT     BB210697  79.693  33.903  72.922
 1650DT     BB310698  79.586  33.741  72.851
 1650DT     SC110699  79.545  33.859  72.620
 1650DT     SC210700  79.337  33.910  72.602
 1650DT     SC310701  79.554  33.908  72.361
 1651DA     BB110702  79.573  33.786  73.270
 1651DA     BB210703  79.233  33.728  73.145
 1651DA     BB310704  79.215  33.529  73.070
 1651DA     SC110705  79.295  33.607  72.779
 1651DA     SC210706  79.185  33.624  72.556
 1651DA     SC310707  79.423  33.610  72.460
 1651DA     SC410708  79.451  33.596  72.739
 1652DT     BB110709  79.100  33.462  73.171
 1652DT     BB210710  78.833  33.440  72.929
 1652DT     BB310711  78.842  33.258  72.830
 1652DT     SC110712  79.048  33.337  72.688
 1652DT     SC210713  78.988  33.363  72.483
 1652DT     SC310714  79.293  33.349  72.591
 1653DG     BB110715  78.474  33.308  73.001
 1653DG     BB210716  78.450  33.216  72.652
 1653DG     BB310717  78.495  33.024  72.629
 1653DG     SC110718  78.795  33.073  72.588
 1653DG     SC210719  78.947  33.026  72.336
 1653DG     SC310720  79.130  33.089  72.560
 1653DG     SC410721  78.891  33.078  72.716
 1654DG     BB110722  78.199  32.985  72.493
 1654DG     BB210723  78.376  32.880  72.195
 1654DG     BB310724  78.434  32.691  72.213
 1654DG     SC110725  78.703  32.759  72.341
 1654DG     SC210726  78.972  32.714  72.219
 1654DG     SC310727  78.998  32.796  72.502
 1654DG     SC410728  78.712  32.774  72.501
 1655DG     BB110729  78.264  32.622  71.940
 1655DG     BB210730  78.581  32.525  71.796
 1655DG     BB310731  78.628  32.340  71.854
 1655DG     SC110732  78.778  32.430  72.105
 1655DG     SC210733  79.071  32.403  72.153
 1655DG     SC310734  78.932  32.492  72.398
 1655DG     SC410735  78.696  32.449  72.241
 1656DT     BB110736  78.648  32.179  71.707
 1656DT     BB210737  79.006  32.134  71.696
 1656DT     BB310738  79.060  31.968  71.807
 1656DT     SC110739  79.020  32.095  72.033
 1656DT     SC210740  79.209  32.129  72.130
 1656DT     SC310741  78.916  32.158  72.267
 1657DA     BB110742  79.237  31.924  71.428
 1657DA     BB210743  79.494  31.859  71.681
 1657DA     BB310744  79.459  31.672  71.776
 1657DA     SC110745  79.283  31.791  72.003
 1657DA     SC210746  79.300  31.830  72.249
 1657DA     SC310747  79.043  31.844  72.243
 1657DA     SC410748  79.124  31.795  71.979
 1658DC     BB110749  79.592  31.516  71.749
 1658DC     BB210750  79.741  31.528  72.077
 1658DC     BB310751  79.671  31.371  72.193
 1658DC     SC110752  79.439  31.490  72.226
 1658DC     SC210753  79.420  31.552  72.431
 1658DC     SC310754  79.180  31.535  72.214
 1659DT     BB110755  79.908  31.228  72.177
 1659DT     BB210756  79.851  31.265  72.531
 1659DT     BB310757  79.734  31.108  72.601
 1659DT     SC110758  79.518  31.210  72.492
 1659DT     SC210759  79.387  31.280  72.647
 1659DT     SC310760  79.307  31.236  72.336
 1660DA     BB110761  80.070  31.086  72.855
 1660DA     BB210762  79.772  31.084  73.068
 1660DA     BB310763  79.679  30.891  73.064
 1660DA     SC110764  79.493  30.960  72.824
 1660DA     SC210765  79.249  30.998  72.784
 1660DA     SC310766  79.303  30.949  72.538
 1660DA     SC410767  79.546  30.925  72.676
 1661DA     BB110768  79.706  30.882  73.397
 1661DA     BB210769  79.339  30.883  73.410
 1661DA     BB310770  79.263  30.687  73.378
 1661DA     SC110771  79.240  30.720  73.069
 1661DA     SC210772  79.059  30.739  72.899
 1661DA     SC310773  79.239  30.669  72.730
 1661DA     SC410774  79.366  30.674  72.980
 1662DT     BB110775  79.161  30.584  73.531
 1662DT     BB210776  78.832  30.641  73.396
 1662DT     BB310777  78.756  30.465  73.318
 1662DT     SC110778  78.912  30.481  73.108
 1662DT     SC210779  78.794  30.523  72.934
 1662DT     SC310780  79.101  30.421  72.934
 1663DA     BB110781  78.478  30.640  73.578
 1663DA     BB210782  78.310  30.568  73.260
 1663DA     BB310783  78.280  30.358  73.238
 1663DA     SC110784  78.551  30.311  73.091
 1663DA     SC210785  78.629  30.251  72.862
 1663DA     SC310786  78.847  30.181  72.977
 1663DA     SC410787  78.678  30.271  73.181
 1664DA     BB110788  77.992  30.501  73.186
 1664DA     BB210789  78.011  30.354  72.851
 1664DA     BB310790  77.990  30.142  72.861
 1664DA     SC110791  78.295  30.088  72.889
 1664DA     SC210792  78.478  29.989  72.752
 1664DA     SC310793  78.602  29.961  72.975
 1664DA     SC410794  78.355  30.078  73.038
 1665DA     BB110795  77.774  30.245  72.638
 1665DA     BB210796  77.957  30.030  72.404
 1665DA     BB310797  77.925  29.825  72.451
 1665DA     SC110798  78.170  29.806  72.641
 1665DA     SC210799  78.394  29.696  72.643
 1665DA     SC310800  78.386  29.729  72.897
 1665DA     SC410801  78.146  29.834  72.798
 1666DT     BB110802  77.834  29.735  72.317
 1666DT     BB210803  78.113  29.544  72.192
 1666DT     BB310804  78.108  29.353  72.270
 1666DT     SC110805  78.190  29.437  72.505
 1666DT     SC210806  78.391  29.367  72.540
 1666DT     SC310807  78.191  29.491  72.763
 1667DT     BB110808  78.042  29.270  72.026
 1667DT     BB210809  78.341  29.086  72.109
 1667DT     BB310810  78.293  28.920  72.222
 1667DT     SC110811  78.249  29.067  72.435
 1667DT     SC210812  78.403  29.030  72.581
 1667DT     SC310813  78.122  29.182  72.636
 1668DA     BB110814  78.534  28.797  71.902
 1668DA     BB210815  78.672  28.655  72.211
 1668DA     BB310816  78.546  28.499  72.283
 1668DA     SC110817  78.374  28.687  72.461
 1668DA     SC210818  78.338  28.730  72.704
 1668DA     SC310819  78.117  28.839  72.632
 1668DA     SC410820  78.240  28.749  72.396
 1669DG     BB110821  78.807  28.340  72.244
 1669DG     BB210822  78.785  28.310  72.604
 1669DG     BB310823  78.655  28.168  72.652
 1669DG     SC110824  78.414  28.357  72.660
 1669DG     SC210825  78.258  28.431  72.903
 1669DG     SC310826  78.126  28.531  72.658
 1669DG     SC410827  78.331  28.383  72.526
 1670DT     BB110828  78.733  28.015  72.760
 1670DT     BB210829  78.602  28.082  73.089
 1670DT     BB310830  78.435  27.965  73.123
 1670DT     SC110831  78.288  28.115  72.966
 1670DT     SC210832  78.145  28.224  73.085
 1670DT     SC310833  78.137  28.189  72.763
 1671DC     BB110834  78.596  27.850  73.292
 1671DC     BB210835  78.313  27.961  73.487
 1671DC     BB310836  78.156  27.829  73.465
 1671DC     SC110837  78.103  27.917  73.224
 1671DC     SC210838  77.917  28.024  73.226
 1671DC     SC310839  78.074  27.921  72.962
 1672DT     BB110840  78.208  27.768  73.716
 1672DT     BB210841  77.860  27.863  73.713
 1672DT     BB310842  77.744  27.704  73.651
 1672DT     SC110843  77.819  27.735  73.402
 1672DT     SC210844  77.652  27.807  73.286
 1672DT     SC310845  77.928  27.685  73.167
 1673DC     BB110846  77.657  27.682  73.904
 1673DC     BB210847  77.357  27.715  73.708
 1673DC     BB310848  77.299  27.530  73.635
 1673DC     SC110849  77.491  27.532  73.456
 1673DC     SC210850  77.405  27.554  73.260
 1673DC     SC310851  77.709  27.463  73.325
 1674DA     BB110852  76.960  27.689  73.825
 1674DA     BB210853  76.854  27.561  73.498
 1674DA     BB310854  76.850  27.348  73.499
 1674DA     SC110855  77.144  27.317  73.403
 1674DA     SC210856  77.264  27.240  73.198
 1674DA     SC310857  77.466  27.210  73.353
 1674DA     SC410858  77.258  27.303  73.515
 1675DC     BB110859  76.667  27.239  73.485
 1675DC     BB210860  76.710  27.122  73.146
 1675DC     BB310861  76.754  26.919  73.146
 1675DC     SC110862  76.999  26.964  73.229
 1675DC     SC210863  77.137  26.919  73.070
 1675DC     SC310864  77.214  26.963  73.382
 1676DT     BB110865  76.502  26.845  73.055
 1676DT     BB210866  76.728  26.697  72.815
 1676DT     BB310867  76.781  26.507  72.877
 1676DT     SC110868  76.941  26.604  73.061
 1676DT     SC210869  77.145  26.564  73.007
 1676DT     SC310870  77.042  26.658  73.299
 1677DG     BB110871  76.607  26.447  72.512
 1677DG     BB210872  76.933  26.291  72.527
 1677DG     BB310873  76.921  26.117  72.622
 1677DG     SC110874  76.973  26.236  72.899
 1677DG     SC210875  77.214  26.187  73.068
 1677DG     SC310876  77.008  26.335  73.219
 1677DG     SC410877  76.849  26.289  72.985
 1678DC     BB110878  76.963  25.905  72.525
 1678DC     BB210879  77.285  25.828  72.668
 1678DC     BB310880  77.265  25.680  72.812
 1678DC     SC110881  77.160  25.849  72.983
 1678DC     SC210882  77.299  25.884  73.144
 1678DC     SC310883  76.984  25.963  73.143
 1679DT     BB110884  77.379  25.480  72.652
 1679DT     BB210885  77.582  25.479  72.951
 1679DT     BB310886  77.503  25.347  73.089
 1679DT     SC110887  77.308  25.512  73.148
 1679DT     SC210888  77.336  25.589  73.347
 1679DT     SC310889  77.064  25.609  73.173
 1680DA     BB110890  77.904  25.229  73.048
 1680DA     BB210891  77.835  25.260  73.407
 1680DA     BB310892  77.721  25.094  73.475
 1680DA     SC110893  77.446  25.230  73.423
 1680DA     SC210894  77.257  25.322  73.557
 1680DA     SC310895  77.119  25.295  73.343
 1680DA     SC410896  77.376  25.204  73.280
 1681DG     BB110897  77.959  25.021  73.668
 1681DG     BB210898  77.719  25.099  73.927
 1681DG     BB310899  77.611  24.937  73.969
 1681DG     SC110900  77.395  24.997  73.761
 1681DG     SC210901  77.111  25.069  73.818
 1681DG     SC310902  77.151  25.021  73.529
 1681DG     SC410903  77.413  24.942  73.612
 1682DT     BB110904  77.611  24.833  74.176
 1682DT     BB210905  77.294  24.945  74.308
 1682DT     BB310906  77.158  24.789  74.307
 1682DT     SC110907  77.127  24.807  74.047
 1682DT     SC210908  76.930  24.882  74.003
 1682DT     SC310909  77.132  24.743  73.791
 1683DG     BB110910  77.187  24.915  74.693
 1683DG     BB210911  76.843  24.912  74.581
 1683DG     BB310912  76.771  24.727  74.587
 1683DG     SC110913  76.857  24.658  74.301
 1683DG     SC210914  76.675  24.605  74.071
 1683DG     SC310915  76.955  24.543  74.000
 1683DG     SC410916  77.004  24.598  74.276
 1684DA     BB110917  76.512  24.863  74.768
 1684DA     BB210918  76.274  24.751  74.512
 1684DA     BB310919  76.239  24.541  74.531
 1684DA     SC110920  76.468  24.460  74.336
 1684DA     SC210921  76.490  24.363  74.108
 1684DA     SC310922  76.729  24.302  74.179
 1684DA     SC410923  76.612  24.430  74.400
 1685DA     BB110924  75.936  24.660  74.534
 1685DA     BB210925  75.876  24.460  74.232
 1685DA     BB310926  75.860  24.254  74.282
 1685DA     SC110927  76.163  24.196  74.246
 1685DA     SC210928  76.310  24.071  74.088
 1685DA     SC310929  76.483  24.075  74.277
 1685DA     SC410930  76.257  24.207  74.376
 1686DG     BB110931  75.586  24.301  74.151
 1686DG     BB210932  75.713  24.064  73.910
 1686DG     BB310933  75.695  23.879  73.981
 1686DG     SC110934  75.969  23.877  74.116
 1686DG     SC210935  76.202  23.708  74.038
 1686DG     SC310936  76.255  23.848  74.293
 1686DG     SC410937  75.982  23.931  74.267
 1687DG     BB110938  75.524  23.824  73.710
 1687DG     BB210939  75.778  23.580  73.629
 1687DG     BB310940  75.744  23.411  73.730
 1687DG     SC110941  75.912  23.494  73.972
 1687DG     SC210942  76.167  23.367  74.060
 1687DG     SC310943  76.070  23.560  74.262
 1687DG     SC410944  75.842  23.575  74.091
 1688DA     BB110945  75.776  23.265  73.419
 1688DA     BB210946  76.047  23.054  73.546
 1688DA     BB310947  75.969  22.902  73.674
 1688DA     SC110948  75.996  23.072  73.933
 1688DA     SC210949  76.135  23.073  74.140
 1688DA     SC310950  75.949  23.217  74.241
 1688DA     SC410951  75.869  23.159  73.978
 1689DT     BB110952  75.985  22.716  73.611
 1689DT     BB210953  76.240  22.607  73.842
 1689DT     BB310954  76.155  22.494  73.993
 1689DT     SC110955  76.055  22.708  74.108
 1689DT     SC210956  76.157  22.744  74.293
 1689DT     SC310957  75.878  22.879  74.201
 1690DA     BB110958  76.465  22.253  73.842
 1690DA     BB210959  76.491  22.247  74.208
 1690DA     BB310960  76.337  22.125  74.291
 1690DA     SC110961  76.134  22.359  74.321
 1690DA     SC210962  76.029  22.490  74.506
 1690DA     SC310963  75.850  22.552  74.333
 1690DA     SC410964  76.032  22.385  74.200
 1691DT     BB110965  76.368  21.926  74.394
 1691DT     BB210966  76.303  22.037  74.731
 1691DT     BB310967  76.123  21.959  74.798
 1691DT     SC110968  75.987  22.128  74.650
 1691DT     SC210969  75.888  22.271  74.776
 1691DT     SC310970  75.824  22.218  74.463
 1692DA     BB110971  76.389  21.833  75.099
 1692DA     BB210972  76.101  21.986  75.267
 1692DA     BB310973  75.935  21.853  75.266
 1692DA     SC110974  75.820  21.959  74.997
 1692DA     SC210975  75.622  22.090  74.920
 1692DA     SC310976  75.670  21.989  74.689
 1692DA     SC410977  75.865  21.885  74.862
 1693DC     BB110978  75.852  21.758  75.447
 1693DC     BB210979  75.557  21.965  75.469
 1693DC     BB310980  75.389  21.854  75.422
 1693DC     SC110981  75.448  21.857  75.167
 1693DC     SC210982  75.306  21.980  75.062
 1693DC     SC310983  75.513  21.771  74.926
 1694DG     BB110984  75.325  21.995  75.799
 1694DG     BB210985  75.049  22.078  75.580
 1694DG     BB310986  74.930  21.921  75.559
 1694DG     SC110987  75.079  21.809  75.316
 1694DG     SC210988  74.973  21.790  75.038
 1694DG     SC310989  75.231  21.648  75.062
 1694DG     SC410990  75.202  21.709  75.340
 1695DT     BB110991  74.723  21.934  75.625
 1695DT     BB210992  74.548  21.961  75.311
 1695DT     BB310993  74.462  21.779  75.262
 1695DT     SC110994  74.694  21.678  75.195
 1695DT     SC210995  74.700  21.648  74.982
 1695DT     SC310996  74.907  21.522  75.198
 1696DA     BB110997  74.167  22.076  75.234
 1696DA     BB210998  74.153  21.873  74.929
 1696DA     BB310999  74.070  21.681  74.971
 1696DA     SC111000  74.344  21.548  75.032
 1696DA     SC211001  74.495  21.379  74.928
 1696DA     SC311002  74.598  21.357  75.162
 1696DA     SC411003  74.394  21.548  75.185
 1697DA     BB111004  73.866  21.764  74.725
 1697DA     BB211005  73.987  21.468  74.547
 1697DA     BB311006  73.902  21.291  74.631
 1697DA     SC111007  74.133  21.248  74.836
 1697DA     SC211008  74.320  21.087  74.871
 1697DA     SC311009  74.319  21.171  75.114
 1697DA     SC411010  74.115  21.312  74.982
 1698DC     BB111011  73.757  21.163  74.526
 1698DC     BB211012  73.982  20.889  74.457
 1698DC     BB311013  73.933  20.727  74.575
 1698DC     SC111014  74.037  20.840  74.788
 1698DC     SC211015  74.216  20.735  74.845
 1698DC     SC311016  74.055  20.949  75.027
 1699DA     BB111017  73.918  20.555  74.190
 1699DA     BB211018  74.126  20.335  74.397
 1699DA     BB311019  74.004  20.214  74.524
 1699DA     SC111020  74.005  20.417  74.760
 1699DA     SC211021  74.100  20.433  74.989
 1699DA     SC311022  73.920  20.611  75.030
 1699DA     SC411023  73.885  20.525  74.766
 1700DT     BB111024  73.976  19.985  74.509
 1700DT     BB211025  74.188  19.908  74.791
 1700DT     BB311026  74.074  19.832  74.946
 1700DT     SC111027  73.979  20.070  75.003
 1700DT     SC211028  74.058  20.136  75.192
 1700DT     SC311029  73.806  20.267  75.036
 1701DA     BB111030  74.377  19.551  74.883
 1701DA     BB211031  74.379  19.638  75.239
 1701DA     BB311032  74.218  19.540  75.340
 1701DA     SC111033  74.017  19.774  75.297
 1701DA     SC211034  73.902  19.946  75.435
 1701DA     SC311035  73.735  19.962  75.241
 1701DA     SC411036  73.923  19.768  75.166
 1702DA     BB111037  74.487  19.471  75.506
 1702DA     BB211038  74.329  19.651  75.783
 1702DA     BB311039  74.167  19.538  75.863
 1702DA     SC111040  73.954  19.664  75.675
 1702DA     SC211041  73.759  19.819  75.694
 1702DA     SC311042  73.684  19.719  75.470
 1702DA     SC411043  73.923  19.588  75.536
 1703DA     BB111044  74.362  19.629  76.107
 1703DA     BB211045  74.067  19.804  76.237
 1703DA     BB311046  73.920  19.664  76.301
 1703DA     SC111047  73.776  19.651  76.026
 1703DA     SC211048  73.559  19.724  75.927
 1703DA     SC311049  73.607  19.550  75.745
 1703DA     SC411050  73.823  19.537  75.922
 1704DT     BB111051  73.899  19.687  76.474
 1704DT     BB211052  73.576  19.847  76.460
 1704DT     BB311053  73.426  19.706  76.488
 1704DT     SC111054  73.460  19.611  76.246
 1704DT     SC211055  73.288  19.661  76.125
 1704DT     SC311056  73.516  19.442  76.051
 1705DT     BB111057  73.396  19.834  76.713
 1705DT     BB211058  73.076  19.851  76.548
 1705DT     BB311059  72.973  19.674  76.575
 1705DT     SC111060  73.126  19.549  76.402
 1705DT     SC211061  73.011  19.503  76.226
 1705DT     SC311062  73.300  19.378  76.303
 1706DA     BB111063  72.730  20.003  76.669
 1706DA     BB211064  72.542  19.778  76.449
 1706DA     BB311065  72.491  19.599  76.552
 1706DA     SC111066  72.749  19.448  76.466
 1706DA     SC211067  72.810  19.258  76.317
 1706DA     SC311068  73.026  19.245  76.455
 1706DA     SC411069  72.876  19.455  76.565
 1707DT     BB111070  72.307  19.579  76.574
 1707DT     BB211071  72.261  19.316  76.331
 1707DT     BB311072  72.251  19.132  76.427
 1707DT     SC111073  72.510  19.132  76.470
 1707DT     SC211074  72.602  18.981  76.348
 1707DT     SC311075  72.740  19.133  76.599
 1708DA     BB111076  71.933  19.181  76.156
 1708DA     BB211077  72.086  18.853  76.099
 1708DA     BB311078  72.045  18.723  76.264
 1708DA     SC111079  72.302  18.802  76.421
 1708DA     SC211080  72.518  18.697  76.486
 1708DA     SC311081  72.530  18.879  76.666
 1708DA     SC411082  72.290  18.922  76.528
 1709DA     BB111083  71.954  18.550  76.001
 1709DA     BB211084  72.199  18.300  76.111
 1709DA     BB311085  72.132  18.204  76.289
 1709DA     SC111086  72.271  18.407  76.480
 1709DA     SC211087  72.462  18.408  76.640
 1709DA     SC311088  72.350  18.616  76.741
 1709DA     SC411089  72.185  18.533  76.529
 1710DA     BB111090  72.203  17.951  76.091
 1710DA     BB211091  72.437  17.843  76.352
 1710DA     BB311092  72.330  17.774  76.523
 1710DA     SC111093  72.323  18.052  76.662
 1710DA     SC211094  72.426  18.162  76.861
 1710DA     SC311095  72.233  18.331  76.842
 1710DA     SC411096  72.195  18.146  76.634
 1711DA     BB111097  72.522  17.508  76.476
 1711DA     BB211098  72.649  17.563  76.815
 1711DA     BB311099  72.502  17.507  76.960
 1711DA     SC111100  72.375  17.791  76.975
 1711DA     SC211101  72.360  17.978  77.139
 1711DA     SC311102  72.158  18.055  77.001
 1711DA     SC411103  72.251  17.822  76.877
 1712DT     BB111104  72.524  17.339  77.090
 1712DT     BB211105  72.584  17.523  77.394
 1712DT     BB311106  72.417  17.515  77.516
 1712DT     SC111107  72.289  17.686  77.364
 1712DT     SC211108  72.266  17.872  77.469
 1712DT     SC311109  72.106  17.785  77.201
 1713DA     BB111110  72.718  17.371  77.774
 1713DA     BB211111  72.536  17.633  77.955
 1713DA     BB311112  72.348  17.558  78.025
 1713DA     SC111113  72.192  17.643  77.769
 1713DA     SC211114  72.019  17.811  77.706
 1713DA     SC311115  71.974  17.659  77.504
 1713DA     SC411116  72.178  17.534  77.651
 1714DT     BB111117  72.299  17.529  78.238
 1714DT     BB211118  72.087  17.820  78.265
 1714DT     BB311119  71.889  17.762  78.286
 1714DT     SC111120  71.873  17.697  78.032
 1714DT     SC211121  71.744  17.836  77.931
 1714DT     SC311122  71.844  17.550  77.815
 1715DT     BB111123  71.892  17.840  78.547
 1715DT     BB211124  71.631  18.037  78.393
 1715DT     BB311125  71.452  17.933  78.398
 1715DT     SC111126  71.531  17.773  78.206
 1715DT     SC211127  71.417  17.814  78.028
 1715DT     SC311128  71.600  17.552  78.079
 1716DA     BB111129  71.416  18.327  78.536
 1716DA     BB211130  71.156  18.266  78.286
 1716DA     BB311131  71.009  18.131  78.362
 1716DA     SC111132  71.154  17.876  78.257
 1716DA     SC211133  71.117  17.702  78.082
 1716DA     SC311134  71.281  17.560  78.219
 1716DA     SC411135  71.257  17.803  78.356
 1717DG     BB111136  70.868  18.389  78.276
 1717DG     BB211137  70.710  18.160  78.045
 1717DG     BB311138  70.582  18.043  78.142
 1717DG     SC111139  70.788  17.826  78.205
 1717DG     SC211140  70.789  17.548  78.095
 1717DG     SC311141  70.992  17.578  78.308
 1717DG     SC411142  70.875  17.838  78.339
 1718DA     BB111143  70.395  18.152  77.871
 1718DA     BB211144  70.330  17.801  77.787
 1718DA     BB311145  70.207  17.710  77.937
 1718DA     SC111146  70.447  17.612  78.108
 1718DA     SC211147  70.555  17.395  78.168
 1718DA     SC311148  70.656  17.523  78.366
 1718DA     SC411149  70.499  17.709  78.226
 1719DA     BB111150  70.041  17.635  77.660
 1719DA     BB211151  70.074  17.285  77.762
 1719DA     BB311152  69.953  17.246  77.934
 1719DA     SC111153  70.178  17.314  78.138
 1719DA     SC211154  70.321  17.192  78.301
 1719DA     SC311155  70.356  17.421  78.411
 1719DA     SC411156  70.186  17.465  78.192
 1720DA     BB111157  69.802  16.996  77.763
 1720DA     BB211158  69.912  16.765  78.025
 1720DA     BB311159  69.788  16.784  78.198
 1720DA     SC111160  69.965  17.002  78.332
 1720DA     SC211161  70.116  17.021  78.529
 1720DA     SC311162  70.079  17.274  78.508
 1720DA     SC411163  69.928  17.155  78.303
 1721DA     BB111164  69.676  16.450  78.217
 1721DA     BB211165  69.837  16.420  78.545
 1721DA     BB311166  69.706  16.487  78.698
 1721DA     SC111167  69.807  16.781  78.689
 1721DA     SC211168  69.938  16.936  78.835
 1721DA     SC311169  69.831  17.124  78.697
 1721DA     SC411170  69.729  16.884  78.593
 1722DT     BB111171  69.563  16.367  78.903
 1722DT     BB211172  69.788  16.474  79.164
 1722DT     BB311173  69.688  16.598  79.296
 1722DT     SC111174  69.692  16.797  79.126
 1722DT     SC211175  69.826  16.950  79.197
 1722DT     SC311176  69.607  16.984  78.961
 1723DT     BB111177  69.642  16.420  79.535
 1723DT     BB211178  69.829  16.696  79.673
 1723DT     BB311179  69.700  16.832  79.760
 1723DT     SC111180  69.623  16.921  79.526
 1723DT     SC211181  69.697  17.121  79.497
 1723DT     SC311182  69.467  16.976  79.320
 1724DA     BB111183  69.977  16.742  80.061
 1724DA     BB211184  69.966  17.107  80.029
 1724DA     BB311185  69.791  17.184  80.123
 1724DA     SC111186  69.616  17.168  79.866
 1724DA     SC211187  69.511  17.326  79.704
 1724DA     SC311188  69.358  17.129  79.642
 1724DA     SC411189  69.530  17.034  79.842
 1725DC     BB111190  69.814  17.303  80.287
 1725DC     BB211191  69.745  17.615  80.119
 1725DC     BB311192  69.557  17.684  80.173
 1725DC     SC111193  69.439  17.505  80.023
 1725DC     SC211194  69.345  17.603  79.855
 1725DC     SC311195  69.290  17.299  79.953
 1726DA     BB111196  69.835  17.993  80.228
 1726DA     BB211197  69.553  18.127  80.035
 1726DA     BB311198  69.383  18.153  80.161
 1726DA     SC111199  69.269  17.869  80.106
 1726DA     SC211200  69.075  17.767  79.987
 1726DA     SC311201  69.119  17.561  80.134
 1726DA     SC411202  69.311  17.751  80.208
 1727DG     BB111203  69.414  18.449  80.075
 1727DG     BB211204  69.093  18.390  79.920
 1727DG     BB311205  68.947  18.408  80.054
 1727DG     SC111206  68.953  18.114  80.138
 1727DG     SC211207  68.736  17.914  80.092
 1727DG     SC311208  68.947  17.803  80.268
 1727DG     SC411209  69.053  18.068  80.255
 1728DA     BB111210  68.801  18.626  79.830
 1728DA     BB211211  68.506  18.409  79.811
 1728DA     BB311212  68.385  18.433  79.985
 1728DA     SC111213  68.526  18.208  80.145
 1728DA     SC211214  68.472  17.979  80.229
 1728DA     SC311215  68.667  18.015  80.392
 1728DA     SC411216  68.650  18.249  80.240
 1729DT     BB111217  68.203  18.513  79.959
 1729DT     BB211218  68.018  18.206  79.999
 1729DT     BB311219  67.926  18.203  80.185
 1729DT     SC111220  68.153  18.155  80.306
 1729DT     SC211221  68.151  17.954  80.384
 1729DT     SC311222  68.362  18.187  80.464
 1730DC     BB111223  67.698  18.232  80.050
 1730DC     BB211224  67.661  17.925  80.236
 1730DC     BB311225  67.595  17.966  80.428
 1730DC     SC111226  67.832  18.053  80.499
 1730DC     SC211227  67.920  17.915  80.638
 1730DC     SC311228  68.022  18.217  80.580
 1731DT     BB111229  67.381  17.849  80.337
 1731DT     BB211230  67.483  17.656  80.625
 1731DT     BB311231  67.418  17.749  80.799
 1731DT     SC111232  67.603  17.933  80.779
 1731DT     SC211233  67.749  17.906  80.935
 1731DT     SC311234  67.716  18.170  80.750
 1732DT     BB111235  67.291  17.528  80.785
 1732DT     BB211236  67.469  17.527  81.099
 1732DT     BB311237  67.379  17.658  81.232
 1732DT     SC111238  67.478  17.866  81.105
 1732DT     SC211239  67.628  17.959  81.228
 1732DT     SC311240  67.490  18.089  80.965
 1733DA     BB111241  67.456  17.280  81.405
 1733DA     BB211242  67.566  17.542  81.637
 1733DA     BB311243  67.397  17.650  81.711
 1733DA     SC111244  67.404  17.864  81.485
 1733DA     SC211245  67.458  18.106  81.462
 1733DA     SC311246  67.322  18.095  81.245
 1733DA     SC411247  67.315  17.837  81.355
 1734DT     BB111248  67.369  17.629  81.896
 1734DT     BB211249  67.469  17.960  81.999
 1734DT     BB311250  67.302  18.079  82.025
 1734DT     SC111251  67.268  18.103  81.766
 1734DT     SC211252  67.313  18.304  81.706
 1734DT     SC311253  67.158  18.083  81.527
 1735DT     BB111254  67.330  18.070  82.296
 1735DT     BB211255  67.327  18.422  82.217
 1735DT     BB311256  67.132  18.491  82.209
 1735DT     SC111257  67.093  18.375  81.977
 1735DT     SC211258  67.074  18.526  81.824
 1735DT     SC311259  66.993  18.213  81.794
 1736DC     BB111260  67.152  18.626  82.449
 1736DC     BB211261  67.052  18.879  82.213
 1736DC     BB311262  66.845  18.885  82.199
 1736DC     SC111263  66.840  18.663  82.058
 1736DC     SC211264  66.782  18.708  81.856
 1736DC     SC311265  66.790  18.413  81.990
 1737DA     BB111266  66.966  19.279  82.279
 1737DA     BB211267  66.741  19.287  81.989
 1737DA     BB311268  66.539  19.256  82.051
 1737DA     SC111269  66.551  18.947  82.018
 1737DA     SC211270  66.455  18.773  81.867
 1737DA     SC311271  66.510  18.608  82.055
 1737DA     SC411272  66.592  18.860  82.147
 1738DT     BB111273  66.418  19.406  82.024
 1738DT     BB211274  66.245  19.268  81.739
 1738DT     BB311275  66.061  19.195  81.797
 1738DT     SC111276  66.170  18.985  81.910
 1738DT     SC211277  66.122  18.809  81.797
 1738DT     SC311278  66.244  18.814  82.097
 1739DT     BB111279  65.962  19.398  81.661
 1739DT     BB211280  65.820  19.103  81.509
 1739DT     BB311281  65.655  19.040  81.618
 1739DT     SC111282  65.809  18.944  81.808
 1739DT     SC211283  65.799  18.729  81.807
 1739DT     SC311284  65.919  18.912  82.046
 1740DA     BB111285  65.571  19.064  81.206
 1740DA     BB211286  65.457  18.739  81.331
 1740DA     BB311287  65.290  18.764  81.461
 1740DA     SC111288  65.462  18.789  81.719
 1740DA     SC211289  65.509  18.655  81.924
 1740DA     SC311290  65.588  18.876  82.026
 1740DA     SC411291  65.506  18.937  81.765
 1741DA     BB111292  65.183  18.540  81.246
 1741DA     BB211293  65.137  18.319  81.536
 1741DA     BB311294  64.973  18.387  81.655
 1741DA     SC111295  65.148  18.569  81.836
 1741DA     SC211296  65.227  18.573  82.073
 1741DA     SC311297  65.268  18.823  82.034
 1741DA     SC411298  65.165  18.723  81.793
 1742DT     BB111299  64.812  18.271  81.665
 1742DT     BB211300  64.859  18.155  82.003
 1742DT     BB311301  64.730  18.255  82.131
 1742DT     SC111302  64.874  18.474  82.119
 1742DT     SC211303  64.969  18.507  82.309
 1742DT     SC311304  64.943  18.724  82.069
 1743DC     BB111305  64.573  18.032  82.160
 1743DC     BB211306  64.663  18.122  82.498
 1743DC     BB311307  64.528  18.259  82.573
 1743DC     SC111308  64.630  18.452  82.428
 1743DC     SC211309  64.731  18.592  82.556
 1743DC     SC311310  64.650  18.643  82.246
 1744DA     BB111311  64.540  17.951  82.858
 1744DA     BB211312  64.578  18.268  83.037
 1744DA     BB311313  64.392  18.371  83.048
 1744DA     SC111314  64.435  18.528  82.783
 1744DA     SC211315  64.477  18.764  82.714
 1744DA     SC311316  64.393  18.690  82.483
 1744DA     SC411317  64.378  18.463  82.648
 1745DT     BB111318  64.294  18.399  83.232
 1745DT     BB211319  64.368  18.750  83.265
 1745DT     BB311320  64.198  18.862  83.231
 1745DT     SC111321  64.213  18.820  82.972
 1745DT     SC211322  64.265  19.004  82.873
 1745DT     SC311323  64.150  18.736  82.730
 1746DA     BB111324  64.347  18.991  83.601
 1746DA     BB211325  64.284  19.288  83.397
 1746DA     BB311326  64.074  19.326  83.384
 1746DA     SC111327  64.034  19.156  83.127
 1746DA     SC211328  63.982  19.195  82.886
 1746DA     SC311329  63.911  18.948  82.883
 1746DA     SC411330  63.993  19.001  83.145
 1747DA     BB111331  64.166  19.622  83.493
 1747DA     BB211332  64.032  19.759  83.180
 1747DA     BB311333  63.819  19.766  83.188
 1747DA     SC111334  63.780  19.482  83.067
 1747DA     SC211335  63.697  19.382  82.854
 1747DA     SC311336  63.668  19.167  82.990
 1747DA     SC411337  63.768  19.359  83.169
 1748DA     BB111338  63.880  20.079  83.109
 1748DA     BB211339  63.690  20.017  82.801
 1748DA     BB311340  63.481  20.010  82.843
 1748DA     SC111341  63.476  19.703  82.893
 1748DA     SC211342  63.386  19.499  82.782
 1748DA     SC311343  63.409  19.388  83.012
 1748DA     SC411344  63.496  19.652  83.045
 1749DA     BB111345  63.486  20.234  82.604
 1749DA     BB211346  63.274  20.004  82.413
 1749DA     BB311347  63.075  20.005  82.489
 1749DA     SC111348  63.126  19.772  82.690
 1749DA     SC211349  63.058  19.534  82.717
 1749DA     SC311350  63.124  19.565  82.963
 1749DA     SC411351  63.171  19.812  82.839
 1750DT     BB111352  62.933  20.076  82.371
 1750DT     BB211353  62.784  19.758  82.286
 1750DT     BB311354  62.607  19.733  82.391
 1750DT     SC111355  62.737  19.684  82.614
 1750DT     SC211356  62.712  19.477  82.666
 1750DT     SC311357  62.824  19.710  82.861
 1751DA     BB111358  62.530  19.662  81.985
 1751DA     BB211359  62.389  19.384  82.178
 1751DA     BB311360  62.214  19.447  82.282
 1751DA     SC111361  62.367  19.531  82.539
 1751DA     SC211362  62.390  19.452  82.774
 1751DA     SC311363  62.473  19.690  82.824
 1751DA     SC411364  62.415  19.684  82.550
 1752DA     BB111365  62.098  19.184  82.123
 1752DA     BB211366  62.025  19.043  82.453
 1752DA     BB311367  61.855  19.141  82.539
 1752DA     SC111368  62.023  19.359  82.684
 1752DA     SC211369  62.085  19.420  82.917
 1752DA     SC311370  62.137  19.652  82.822
 1752DA     SC411371  62.048  19.497  82.605
 1753DA     BB111372  61.753  18.829  82.565
 1753DA     BB211373  61.740  18.883  82.927
 1753DA     BB311374  61.570  19.001  82.979
 1753DA     SC111375  61.721  19.272  82.956
 1753DA     SC211376  61.802  19.452  83.109
 1753DA     SC311377  61.808  19.600  82.899
 1753DA     SC411378  61.717  19.348  82.815
 1754DT     BB111379  61.416  18.918  83.089
 1754DT     BB211380  61.490  19.085  83.400
 1754DT     BB311381  61.351  19.234  83.435
 1754DT     SC111382  61.461  19.389  83.254
 1754DT     SC211383  61.556  19.556  83.351
 1754DT     SC311384  61.490  19.532  83.034
 1755DT     BB111385  61.228  19.089  83.634
 1755DT     BB211386  61.321  19.399  83.794
 1755DT     BB311387  61.170  19.539  83.771
 1755DT     SC111388  61.233  19.577  83.519
 1755DT     SC211389  61.318  19.774  83.496
 1755DT     SC311390  61.213  19.582  83.256
 1756DG     BB111391  61.222  19.497  84.173
 1756DG     BB211392  61.244  19.844  84.074
 1756DG     BB311393  61.061  19.918  84.048
 1756DG     SC111394  61.046  19.842  83.752
 1756DG     SC211395  61.038  20.032  83.521
 1756DG     SC311396  60.986  19.755  83.431
 1756DG     SC411397  60.989  19.697  83.712
 1757DA     BB111398  61.164  20.171  84.259
 1757DA     BB211399  61.105  20.417  83.994
 1757DA     BB311400  60.896  20.455  83.973
 1757DA     SC111401  60.852  20.233  83.760
 1757DA     SC211402  60.799  20.218  83.516
 1757DA     SC311403  60.723  19.978  83.568
 1757DA     SC411404  60.808  20.087  83.812
 1758DA     BB111405  61.024  20.752  84.006
 1758DA     BB211406  60.887  20.823  83.673
 1758DA     BB311407  60.675  20.842  83.683
 1758DA     SC111408  60.621  20.541  83.628
 1758DA     SC211409  60.527  20.400  83.444
 1758DA     SC311410  60.492  20.222  83.626
 1758DA     SC411411  60.606  20.444  83.755
 1759DG     BB111412  60.764  21.112  83.568
 1759DG     BB211413  60.573  20.997  83.283
 1759DG     BB311414  60.378  21.018  83.319
 1759DG     SC111415  60.346  20.741  83.443
 1759DG     SC211416  60.189  20.514  83.328
 1759DG     SC311417  60.278  20.452  83.603
 1759DG     SC411418  60.370  20.723  83.601
 1760DA     BB111419  60.397  21.167  83.008
 1760DA     BB211420  60.145  20.931  82.885
 1760DA     BB311421  59.954  20.975  82.970
 1760DA     SC111422  59.993  20.788  83.215
 1760DA     SC211423  59.899  20.572  83.299
 1760DA     SC311424  59.989  20.646  83.528
 1760DA     SC411425  60.055  20.852  83.349
 1761DT     BB111426  59.823  21.034  82.845
 1761DT     BB211427  59.614  20.740  82.847
 1761DT     BB311428  59.449  20.772  82.967
 1761DT     SC111429  59.593  20.748  83.185
 1761DT     SC211430  59.539  20.565  83.286
 1761DT     SC311431  59.711  20.809  83.413
 1762DC     BB111432  59.287  20.792  82.749
 1762DC     BB211433  59.131  20.538  82.951
 1762DC     BB311434  59.003  20.625  83.088
 1762DC     SC111435  59.204  20.706  83.235
 1762DC     SC211436  59.207  20.595  83.420
 1762DC     SC311437  59.372  20.868  83.360
 1763DT     BB111438  58.771  20.549  82.953
 1763DT     BB211439  58.723  20.418  83.286
 1763DT     BB311440  58.630  20.559  83.405
 1763DT     SC111441  58.851  20.700  83.425
 1763DT     SC211442  58.926  20.687  83.626
 1763DT     SC311443  59.020  20.901  83.401
 1764DC     BB111444  58.382  20.430  83.405
 1764DC     BB211445  58.461  20.464  83.756
 1764DC     BB311446  58.386  20.643  83.828
 1764DC     SC111447  58.575  20.780  83.707
 1764DC     SC211448  58.709  20.862  83.855
 1764DC     SC311449  58.692  20.950  83.543
 1765DT     BB111450  58.183  20.519  83.970
 1765DT     BB211451  58.359  20.710  84.220
 1765DT     BB311452  58.279  20.900  84.233
 1765DT     SC111453  58.393  20.973  84.008
 1765DT     SC211454  58.549  21.115  84.049
 1765DT     SC311455  58.420  21.053  83.758
 1766DA     BB111456  58.285  20.746  84.623
 1766DA     BB211457  58.434  21.081  84.634
 1766DA     BB311458  58.282  21.230  84.614
 1766DA     SC111459  58.302  21.244  84.304
 1766DA     SC211460  58.381  21.406  84.132
 1766DA     SC311461  58.234  21.273  83.969
 1766DA     SC411462  58.204  21.150  84.219
 1767DT     BB111463  58.243  21.353  84.773
 1767DT     BB211464  58.397  21.650  84.638
 1767DT     BB311465  58.251  21.783  84.576
 1767DT     SC111466  58.199  21.639  84.363
 1767DT     SC211467  58.265  21.743  84.187
 1767DT     SC311468  58.067  21.487  84.192
 1768DA     BB111469  58.500  22.005  84.832
 1768DA     BB211470  58.451  22.203  84.527
 1768DA     BB311471  58.255  22.287  84.523
 1768DA     SC111472  58.128  22.046  84.373
 1768DA     SC211473  58.032  21.999  84.148
 1768DA     SC311474  57.916  21.801  84.261
 1768DA     SC411475  58.063  21.929  84.462
 1769DC     BB111476  58.215  22.502  84.541
 1769DC     BB211477  58.128  22.558  84.195
 1769DC     BB311478  57.925  22.593  84.178
 1769DC     SC111479  57.870  22.339  84.216
 1769DC     SC211480  57.796  22.254  84.033
 1769DC     SC311481  57.774  22.120  84.327
 1770DG     BB111482  58.080  22.944  84.029
 1770DG     BB211483  57.845  22.798  83.795
 1770DG     BB311484  57.660  22.847  83.846
 1770DG     SC111485  57.619  22.604  84.028
 1770DG     SC211486  57.429  22.379  83.978
 1770DG     SC311487  57.547  22.360  84.249
 1770DG     SC411488  57.661  22.614  84.182
 1771DC     BB111489  57.497  22.987  83.719
 1771DC     BB211490  57.283  22.728  83.589
 1771DC     BB311491  57.097  22.737  83.680
 1771DC     SC111492  57.192  22.634  83.902
 1771DC     SC211493  57.113  22.436  83.928
 1771DC     SC311494  57.263  22.612  84.155
 1772DA     BB111495  57.030  22.739  83.267
 1772DA     BB211496  56.821  22.476  83.414
 1772DA     BB311497  56.655  22.561  83.516
 1772DA     SC111498  56.802  22.581  83.790
 1772DA     SC211499  56.790  22.472  84.014
 1772DA     SC311500  56.915  22.680  84.098
 1772DA     SC411501  56.878  22.718  83.823
 1773DC     BB111502  56.474  22.522  83.442
 1773DC     BB211503  56.380  22.282  83.693
 1773DC     BB311504  56.245  22.366  83.825
 1773DC     SC111505  56.434  22.506  83.941
 1773DC     SC211506  56.467  22.430  84.140
 1773DC     SC311507  56.573  22.714  84.024
 1774DA     BB111508  56.097  22.000  83.685
 1774DA     BB211509  56.075  22.001  84.051
 1774DA     BB311510  55.920  22.132  84.116
 1774DA     SC111511  56.106  22.381  84.138
 1774DA     SC211512  56.202  22.523  84.319
 1774DA     SC311513  56.237  22.698  84.134
 1774DA     SC411514  56.118  22.477  84.010
 1775DG     BB111515  55.829  21.865  84.234
 1775DG     BB211516  55.890  22.039  84.545
 1775DG     BB311517  55.738  22.161  84.585
 1775DG     SC111518  55.858  22.400  84.436
 1775DG     SC211519  55.953  22.654  84.560
 1775DG     SC311520  55.950  22.675  84.265
 1775DG     SC411521  55.827  22.417  84.280
 1776DG     BB111522  55.734  21.989  84.858
 1776DG     BB211523  55.809  22.303  85.022
 1776DG     BB311524  55.643  22.413  85.037
 1776DG     SC111525  55.683  22.553  84.767
 1776DG     SC211526  55.741  22.843  84.727
 1776DG     SC311527  55.684  22.710  84.469
 1776DG     SC411528  55.623  22.485  84.635
 1777DT     BB111529  55.602  22.453  85.224
 1777DT     BB211530  55.685  22.803  85.247
 1777DT     BB311531  55.515  22.919  85.220
 1777DT     SC111532  55.515  22.872  84.962
 1777DT     SC211533  55.565  23.053  84.857
 1777DT     SC311534  55.436  22.786  84.725
 1778DG     BB111535  55.729  23.000  85.559
 1778DG     BB211536  55.658  23.297  85.365
 1778DG     BB311537  55.464  23.342  85.378
 1778DG     SC111538  55.384  23.173  85.136
 1778DG     SC211539  55.279  23.278  84.877
 1778DG     SC311540  55.258  22.983  84.887
 1778DG     SC411541  55.347  23.019  85.157
 1779DT     BB111542  55.445  23.517  85.451
 1779DT     BB211543  55.322  23.711  85.173
 1779DT     BB311544  55.115  23.711  85.173
 1779DT     SC111545  55.107  23.465  85.084
 1779DT     SC211546  55.034  23.464  84.882
 1779DT     SC311547  55.060  23.205  85.076
 1780DA     BB111548  55.258  24.107  85.131
 1780DA     BB211549  54.983  24.058  84.894
 1780DA     BB311550  54.798  24.037  84.998
 1780DA     SC111551  54.818  23.727  85.021
 1780DA     SC211552  54.703  23.527  84.926
 1780DA     SC311553  54.800  23.401  85.127
 1780DA     SC411554  54.886  23.667  85.154
 1781DA     BB111555  54.682  24.288  84.807
 1781DA     BB211556  54.413  24.065  84.696
 1781DA     BB311557  54.266  24.043  84.850
 1781DA     SC111558  54.403  23.795  84.979
 1781DA     SC211559  54.358  23.551  85.003
 1781DA     SC311560  54.523  23.560  85.199
 1781DA     SC411561  54.507  23.822  85.098
 1782DT     BB111562  54.038  24.128  84.865
 1782DT     BB211563  53.867  23.813  84.824
 1782DT     BB311564  53.774  23.759  85.001
 1782DT     SC111565  54.003  23.692  85.110
 1782DT     SC211566  54.011  23.478  85.135
 1782DT     SC311567  54.210  23.693  85.274
 1783DG     BB111568  53.417  23.792  84.786
 1783DG     BB211569  53.427  23.473  84.955
 1783DG     BB311570  53.355  23.491  85.139
 1783DG     SC111571  53.627  23.557  85.264
 1783DG     SC211572  53.777  23.385  85.457
 1783DG     SC311573  53.904  23.651  85.431
 1783DG     SC411574  53.674  23.710  85.270
 1784DA     BB111575  53.101  23.237  85.114
 1784DA     BB211576  53.263  23.038  85.377
 1784DA     BB311577  53.200  23.104  85.569
 1784DA     SC111578  53.431  23.310  85.601
 1784DA     SC211579  53.637  23.338  85.739
 1784DA     SC311580  53.620  23.586  85.677
 1784DA     SC411581  53.403  23.461  85.552
 1785DT     BB111582  53.072  22.984  85.715
 1785DT     BB211583  53.341  22.895  85.937
 1785DT     BB311584  53.319  22.992  86.119
 1785DT     SC111585  53.397  23.220  86.015
 1785DT     SC211586  53.589  23.273  86.095
 1785DT     SC311587  53.390  23.471  85.934
 1786DG     BB111588  53.316  22.595  86.218
 1786DG     BB211589  53.564  22.775  86.410
 1786DG     BB311590  53.478  22.867  86.563
 1786DG     SC111591  53.421  23.125  86.409
 1786DG     SC211592  53.546  23.391  86.461
 1786DG     SC311593  53.326  23.414  86.265
 1786DG     SC411594  53.284  23.138  86.328
 1787DT     BB111595  53.525  22.817  86.784
 1787DT     BB211596  53.730  23.100  86.874
 1787DT     BB311597  53.623  23.229  86.995
 1787DT     SC111598  53.482  23.317  86.792
 1787DT     SC211599  53.537  23.520  86.749
 1787DT     SC311600  53.274  23.367  86.637
 1788DT     BB111601  53.765  23.158  87.225
 1788DT     BB211602  53.811  23.515  87.200
 1788DT     BB311603  53.659  23.613  87.302
 1788DT     SC111604  53.486  23.559  87.112
 1788DT     SC211605  53.434  23.741  87.010
 1788DT     SC311606  53.274  23.460  86.990
 1789DT     BB111607  53.826  23.689  87.512
 1789DT     BB211608  53.695  24.000  87.385
 1789DT     BB311609  53.520  24.048  87.484
 1789DT     SC111610  53.385  23.866  87.352
 1789DT     SC211611  53.249  23.962  87.216
 1789DT     SC311612  53.242  23.650  87.302
 1790DA     BB111613  53.771  24.381  87.510
 1790DA     BB211614  53.447  24.495  87.382
 1790DA     BB311615  53.303  24.500  87.539
 1790DA     SC111616  53.205  24.208  87.493
 1790DA     SC211617  53.001  24.093  87.409
 1790DA     SC311618  53.090  23.887  87.533
 1790DA     SC411619  53.277  24.092  87.578
 1791DT     BB111620  53.236  24.677  87.583
 1791DT     BB211621  52.916  24.638  87.420
 1791DT     BB311622  52.768  24.609  87.562
 1791DT     SC111623  52.846  24.362  87.605
 1791DT     SC211624  52.698  24.226  87.530
 1791DT     SC311625  52.941  24.151  87.731
 1792DG     BB111626  52.690  24.919  87.312
 1792DG     BB211627  52.418  24.681  87.322
 1792DG     BB311628  52.315  24.703  87.491
 1792DG     SC111629  52.485  24.503  87.649
 1792DG     SC211630  52.393  24.240  87.755
 1792DG     SC311631  52.663  24.306  87.857
 1792DG     SC411632  52.616  24.556  87.725
 1793DG     BB111633  52.079  24.737  87.277
 1793DG     BB211634  51.932  24.447  87.435
 1793DG     BB311635  51.847  24.499  87.607
 1793DG     SC111636  52.099  24.453  87.774
 1793DG     SC211637  52.135  24.242  87.982
 1793DG     SC311638  52.362  24.433  87.985
 1793DG     SC411639  52.203  24.574  87.792
 1794DT     BB111640  51.648  24.463  87.614
 1794DT     BB211641  51.625  24.185  87.843
 1794DT     BB311642  51.576  24.254  88.032
 1794DT     SC111643  51.819  24.346  88.070
 1794DT     SC211644  51.918  24.226  88.219
 1794DT     SC311645  52.017  24.515  88.111
 1795DC     BB111646  51.336  24.144  87.994
 1795DC     BB211647  51.452  24.000  88.303
 1795DC     BB311648  51.407  24.126  88.461
 1795DC     SC111649  51.600  24.291  88.394
 1795DC     SC211650  51.756  24.283  88.541
 1795DC     SC311651  51.721  24.512  88.314
 1796DT     BB111652  51.214  23.954  88.542
 1796DT     BB211653  51.419  23.998  88.836
 1796DT     BB311654  51.355  24.164  88.942
 1796DT     SC111655  51.461  24.328  88.767
 1796DT     SC211656  51.630  24.428  88.855
 1796DT     SC311657  51.480  24.514  88.581
 1797DT     BB111658  51.240  24.009  89.142
 1797DT     BB211659  51.459  24.230  89.324
 1797DT     BB311660  51.358  24.404  89.374
 1797DT     SC111661  51.370  24.493  89.128
 1797DT     SC211662  51.504  24.661  89.119
 1797DT     SC311663  51.293  24.574  88.889
 1798DG     BB111664  51.466  24.257  89.741
 1798DG     BB211665  51.557  24.606  89.714
 1798DG     BB311666  51.398  24.720  89.752
 1798DG     SC111667  51.305  24.729  89.461
 1798DG     SC211668  51.301  24.971  89.285
 1798DG     SC311669  51.163  24.744  89.155
 1798DG     SC411670  51.206  24.615  89.407
 1799DT     BB111671  51.359  24.878  89.944
 1799DT     BB211672  51.394  25.198  89.781
 1799DT     BB311673  51.210  25.291  89.768
 1799DT     SC111674  51.134  25.132  89.574
 1799DT     SC211675  51.121  25.243  89.391
 1799DT     SC311676  50.997  24.948  89.443
 1800DG     BB111677  51.400  25.574  90.005
 1800DG     BB211678  51.243  25.737  89.723
 1800DG     BB311679  51.052  25.776  89.764
 1800DG     SC111680  50.949  25.508  89.657
 1800DG     SC211681  50.776  25.470  89.417
 1800DG     SC311682  50.805  25.217  89.567
 1800DG     SC411683  50.943  25.382  89.756
 1801DT     BB111684  50.913  26.007  89.802
 1801DT     BB211685  50.732  26.022  89.490
 1801DT     BB311686  50.530  25.999  89.524
 1801DT     SC111687  50.558  25.742  89.567
 1801DT     SC211688  50.468  25.632  89.406
 1801DT     SC311689  50.558  25.509  89.692
 1802DT     BB111690  50.443  26.275  89.488
 1802DT     BB211691  50.244  26.092  89.249
 1802DT     BB311692  50.061  26.043  89.333
 1802DT     SC111693  50.170  25.855  89.479
 1802DT     SC211694  50.106  25.662  89.407
 1802DT     SC311695  50.249  25.720  89.692
 1803DA     BB111696  49.961  26.242  88.978
 1803DA     BB211697  49.778  25.924  88.981
 1803DA     BB311698  49.610  25.936  89.111
 1803DA     SC111699  49.765  25.835  89.361
 1803DA     SC211700  49.769  25.632  89.505
 1803DA     SC311701  49.881  25.783  89.680
 1803DA     SC411702  49.832  25.946  89.456
 1804DG     BB111703  49.459  25.874  88.850
 1804DG     BB211704  49.381  25.567  89.024
 1804DG     BB311705  49.225  25.595  89.144
 1804DG     SC111706  49.396  25.679  89.384
 1804DG     SC211707  49.427  25.526  89.639
 1804DG     SC311708  49.550  25.794  89.661
 1804DG     SC411709  49.434  25.833  89.402
 1805DA     BB111710  49.124  25.313  88.981
 1805DA     BB211711  49.101  25.140  89.303
 1805DA     BB311712  48.932  25.210  89.413
 1805DA     SC111713  49.092  25.435  89.559
 1805DA     SC211714  49.172  25.483  89.790
 1805DA     SC311715  49.189  25.727  89.711
 1805DA     SC411716  49.094  25.580  89.491
 1806DT     BB111717  48.817  25.075  89.434
 1806DT     BB211718  48.871  25.020  89.787
 1806DT     BB311719  48.725  25.118  89.897
 1806DT     SC111720  48.838  25.351  89.852
 1806DT     SC211721  48.922  25.426  90.036
 1806DT     SC311722  48.871  25.598  89.766
 1807DA     BB111723  48.760  24.719  90.025
 1807DA     BB211724  48.748  24.935  90.322
 1807DA     BB311725  48.552  25.018  90.345
 1807DA     SC111726  48.614  25.272  90.177
 1807DA     SC211727  48.643  25.517  90.216
 1807DA     SC311728  48.595  25.542  89.966
 1807DA     SC411729  48.580  25.268  90.020
 1808DC     BB111730  48.434  24.961  90.504
 1808DC     BB211731  48.447  25.269  90.691
 1808DC     BB311732  48.268  25.372  90.670
 1808DC     SC111733  48.329  25.445  90.426
 1808DC     SC211734  48.366  25.657  90.422
 1808DC     SC311735  48.317  25.467  90.163
 1809DA     BB111736  48.286  25.347  91.093
 1809DA     BB211737  48.200  25.694  91.013
 1809DA     BB311738  47.994  25.709  90.961
 1809DA     SC111739  48.042  25.664  90.657
 1809DA     SC211740  48.030  25.797  90.446
 1809DA     SC311741  48.016  25.569  90.328
 1809DA     SC411742  48.033  25.513  90.602
 1810DT     BB111743  47.788  25.813  91.082
 1810DT     BB211744  47.760  26.102  90.868
 1810DT     BB311745  47.582  26.095  90.763
 1810DT     SC111746  47.673  25.908  90.604
 1810DT     SC211747  47.701  25.989  90.407
 1810DT     SC311748  47.698  25.675  90.483
 1811DA     BB111749  47.508  26.472  90.948
 1811DA     BB211750  47.452  26.522  90.589
 1811DA     BB311751  47.255  26.461  90.536
 1811DA     SC111752  47.338  26.168  90.470
 1811DA     SC211753  47.359  26.024  90.268
 1811DA     SC311754  47.347  25.827  90.432
 1811DA     SC411755  47.327  26.060  90.588
 1812DT     BB111756  47.081  26.600  90.461
 1812DT     BB211757  47.120  26.512  90.114
 1812DT     BB311758  46.954  26.408  90.048
 1812DT     SC111759  47.028  26.192  90.176
 1812DT     SC211760  47.087  26.041  90.033
 1812DT     SC311761  47.025  25.992  90.347
 1813DG     BB111762  46.996  26.737  89.813
 1813DG     BB211763  46.992  26.432  89.617
 1813DG     BB311764  46.805  26.370  89.593
 1813DG     SC111765  46.803  26.198  89.846
 1813DG     SC211766  46.786  25.900  89.856
 1813DG     SC311767  46.759  26.017  90.127
 1813DG     SC411768  46.760  26.265  89.985
 1814DT     BB111769  46.749  26.358  89.398
 1814DT     BB211770  46.758  26.002  89.343
 1814DT     BB311771  46.567  25.923  89.354
 1814DT     SC111772  46.565  25.946  89.616
 1814DT     SC211773  46.571  25.750  89.704
 1814DT     SC311774  46.496  26.025  89.858
 1815DG     BB111775  46.770  25.832  89.013
 1815DG     BB211776  46.638  25.538  89.178
 1815DG     BB311777  46.440  25.530  89.155
 1815DG     SC111778  46.380  25.691  89.408
 1815DG     SC211779  46.246  25.587  89.654
 1815DG     SC311780  46.277  25.881  89.668
 1815DG     SC411781  46.372  25.850  89.399
 1816DT     BB111782  46.384  25.365  89.062
 1816DT     BB211783  46.226  25.175  89.324
 1816DT     BB311784  46.022  25.206  89.321
 1816DT     SC111785  46.049  25.445  89.426
 1816DT     SC211786  45.971  25.444  89.627
 1816DT     SC311787  46.041  25.708  89.451
 1817DG     BB111788  46.101  24.807  89.293
 1817DG     BB211789  45.857  24.877  89.550
 1817DG     BB311790  45.681  24.919  89.468
 1817DG     SC111791  45.734  25.219  89.447
 1817DG     SC211792  45.591  25.434  89.598
 1817DG     SC311793  45.767  25.550  89.390
 1817DG     SC411794  45.806  25.276  89.316
 1818DT     BB111795  45.504  24.790  89.502
 1818DT     BB211796  45.301  24.995  89.719
 1818DT     BB311797  45.147  25.081  89.611
 1818DT     SC111798  45.311  25.253  89.499
 1818DT     SC211799  45.270  25.450  89.575
 1818DT     SC311800  45.449  25.380  89.313
 1819DA     BB111801  44.952  24.891  89.931
 1819DA     BB211802  44.817  25.231  89.908
 1819DA     BB311803  44.683  25.247  89.743
 1819DA     SC111804  44.904  25.334  89.541
 1819DA     SC211805  44.968  25.539  89.415
 1819DA     SC311806  45.097  25.379  89.261
 1819DA     SC411807  44.977  25.218  89.457
 1820DT     BB111808  44.467  25.277  89.763
 1820DT     BB211809  44.463  25.623  89.661
 1820DT     BB311810  44.376  25.640  89.474
 1820DT     SC111811  44.590  25.544  89.357
 1820DT     SC211812  44.687  25.700  89.245
 1820DT     SC311813  44.745  25.382  89.218
 1821DA     BB111814  44.153  25.908  89.708
 1821DA     BB211815  44.254  26.088  89.405
 1821DA     BB311816  44.133  26.029  89.240
 1821DA     SC111817  44.323  25.799  89.152
 1821DA     SC211818  44.477  25.749  88.963
 1821DA     SC311819  44.453  25.504  89.034
 1821DA     SC411820  44.294  25.652  89.211
 1822DT     BB111821  43.995  26.164  89.146
 1822DT     BB211822  44.193  26.222  88.850
 1822DT     BB311823  44.106  26.129  88.687
 1822DT     SC111824  44.186  25.893  88.770
 1822DT     SC211825  44.339  25.819  88.637
 1822DT     SC311826  44.178  25.644  88.857
 1823DT     BB111827  44.018  26.368  88.577
 1823DT     BB211828  44.223  26.221  88.319
 1823DT     BB311829  44.108  26.100  88.197
 1823DT     SC111830  44.095  25.913  88.380
 1823DT     SC211831  44.209  25.743  88.316
 1823DT     SC311832  43.994  25.747  88.559
 1824DG     BB111833  44.276  26.381  87.955
 1824DG     BB211834  44.345  26.047  87.836
 1824DG     BB311835  44.187  25.976  87.738
 1824DG     SC111836  44.057  25.853  87.986
 1824DG     SC211837  44.019  25.561  88.038
 1824DG     SC311838  43.877  25.724  88.240
 1824DG     SC411839  43.958  25.943  88.075
 1825DT     BB111840  44.210  25.925  87.531
 1825DT     BB211841  44.220  25.565  87.548
 1825DT     BB311842  44.038  25.487  87.489
 1825DT     SC111843  43.925  25.556  87.715
 1825DT     SC211844  43.880  25.380  87.830
 1825DT     SC311845  43.763  25.677  87.885
 1826DA     BB111846  44.362  25.302  87.298
 1826DA     BB211847  44.141  25.042  87.432
 1826DA     BB311848  43.959  25.035  87.321
 1826DA     SC111849  43.811  25.237  87.504
 1826DA     SC211850  43.625  25.234  87.670
 1826DA     SC311851  43.610  25.487  87.628
 1826DA     SC411852  43.816  25.393  87.463
 1827DA     BB111853  44.078  24.732  87.339
 1827DA     BB211854  43.760  24.646  87.499
 1827DA     BB311855  43.600  24.660  87.358
 1827DA     SC111856  43.538  24.958  87.423
 1827DA     SC211857  43.356  25.090  87.532
 1827DA     SC311858  43.452  25.290  87.404
 1827DA     SC411859  43.611  25.070  87.333
 1828DA     BB111860  43.579  24.370  87.510
 1828DA     BB211861  43.239  24.475  87.602
 1828DA     BB311862  43.117  24.490  87.427
 1828DA     SC111863  43.183  24.790  87.377
 1828DA     SC211864  43.066  25.010  87.390
 1828DA     SC311865  43.252  25.095  87.235
 1828DA     SC411866  43.307  24.823  87.279
 1829DC     BB111867  42.982  24.367  87.429
 1829DC     BB211868  42.703  24.591  87.476
 1829DC     BB311869  42.616  24.634  87.293
 1829DC     SC111870  42.814  24.794  87.227
 1829DC     SC211871  42.744  24.997  87.225
 1829DC     SC311872  43.022  24.890  87.097
 1830DT     BB111873  42.400  24.475  87.348
 1830DT     BB211874  42.250  24.788  87.250
 1830DT     BB311875  42.228  24.795  87.045
 1830DT     SC111876  42.485  24.835  87.010
 1830DT     SC211877  42.517  25.036  86.939
 1830DT     SC311878  42.734  24.796  86.934
 1831DC     BB111879  41.940  24.737  87.017
 1831DC     BB211880  41.977  25.037  86.819
 1831DC     BB311881  42.009  24.987  86.620
 1831DC     SC111882  42.256  24.914  86.670
 1831DC     SC211883  42.391  25.054  86.579
 1831DC     SC311884  42.470  24.761  86.693
 1832DT     BB111885  41.738  25.027  86.479
 1832DT     BB211886  41.961  25.223  86.273
 1832DT     BB311887  42.020  25.114  86.108
 1832DT     SC111888  42.182  24.967  86.253
 1832DT     SC211889  42.385  25.014  86.203
 1832DT     SC311890  42.287  24.756  86.371
 1833DT     BB111891  41.852  25.223  85.874
 1833DT     BB211892  42.191  25.264  85.756
 1833DT     BB311893  42.242  25.107  85.631
 1833DT     SC111894  42.266  24.943  85.834
 1833DT     SC211895  42.474  24.892  85.861
 1833DT     SC311896  42.222  24.738  85.995
 1834DG     BB111897  42.282  25.421  85.367
 1834DG     BB211898  42.588  25.230  85.386
 1834DG     BB311899  42.580  25.075  85.261
 1834DG     SC111900  42.457  24.884  85.467
 1834DG     SC211901  42.590  24.644  85.583
 1834DG     SC311902  42.304  24.655  85.660
 1834DG     SC411903  42.298  24.878  85.481
 1835DC     BB111904  42.725  25.049  85.082
 1835DC     BB211905  42.948  24.801  85.222
 1835DC     BB311906  42.917  24.618  85.130
 1835DC     SC111907  42.693  24.581  85.261
 1835DC     SC211908  42.719  24.422  85.404
 1835DC     SC311909  42.435  24.548  85.309
 1836DA     BB111910  43.321  24.724  85.141
 1836DA     BB211911  43.285  24.384  85.274
 1836DA     BB311912  43.239  24.248  85.117
 1836DA     SC111913  42.931  24.279  85.148
 1836DA     SC211914  42.738  24.141  85.227
 1836DA     SC311915  42.593  24.304  85.092
 1836DA     SC411916  42.858  24.390  85.058
 1837DT     BB111917  43.372  24.137  85.111
 1837DT     BB211918  43.201  23.854  85.255
 1837DT     BB311919  43.128  23.732  85.105
 1837DT     SC111920  42.934  23.900  85.052
 1837DT     SC211921  42.746  23.815  85.112
 1837DT     SC311922  42.784  24.073  84.920
 1838DA     BB111923  43.334  23.524  85.408
 1838DA     BB211924  43.019  23.349  85.337
 1838DA     BB311925  43.025  23.262  85.143
 1838DA     SC111926  42.905  23.511  85.001
 1838DA     SC211927  42.692  23.574  84.887
 1838DA     SC311928  42.829  23.762  84.778
 1838DA     SC411929  43.007  23.621  84.943
 1839DC     BB111930  43.018  23.082  85.155
 1839DC     BB211931  42.686  23.034  85.023
 1839DC     BB311932  42.696  22.988  84.821
 1839DC     SC111933  42.753  23.237  84.759
 1839DC     SC211934  42.586  23.324  84.655
 1839DC     SC311935  42.886  23.446  84.669
 1840DC     BB111936  42.628  22.732  84.878
 1840DC     BB211937  42.388  22.832  84.628
 1840DC     BB311938  42.467  22.802  84.439
 1840DC     SC111939  42.624  23.012  84.462
 1840DC     SC211940  42.556  23.167  84.329
 1840DC     SC311941  42.843  23.157  84.479
 1841DT     BB111942  42.315  22.571  84.379
 1841DT     BB211943  42.249  22.787  84.098
 1841DT     BB311944  42.388  22.752  83.948
 1841DT     SC111945  42.575  22.879  84.081
 1841DT     SC211946  42.622  23.063  83.980
 1841DT     SC311947  42.800  22.923  84.212
 1842DA     BB111948  42.026  22.695  83.737
 1842DA     BB211949  42.233  22.921  83.536
 1842DA     BB311950  42.386  22.811  83.435
 1842DA     SC111951  42.594  22.844  83.665
 1842DA     SC211952  42.808  22.966  83.703
 1842DA     SC311953  42.847  22.796  83.892
 1842DA     SC411954  42.601  22.728  83.776
 1843DA     BB111955  42.276  22.934  83.143
 1843DA     BB211956  42.601  23.100  83.107
 1843DA     BB311957  42.746  22.964  83.032
 1843DA     SC111958  42.839  22.870  83.314
 1843DA     SC211959  43.041  22.893  83.459
 1843DA     SC311960  42.950  22.688  83.583
 1843DA     SC411961  42.767  22.741  83.377
 1844DA     BB111962  42.793  23.187  82.793
 1844DA     BB211963  43.134  23.227  82.922
 1844DA     BB311964  43.259  23.067  82.854
 1844DA     SC111965  43.200  22.884  83.099
 1844DA     SC211966  43.323  22.798  83.298
 1844DA     SC311967  43.141  22.617  83.306
 1844DA     SC411968  43.079  22.780  83.086
 1845DT     BB111969  43.412  23.111  82.728
 1845DT     BB211970  43.673  23.083  82.975
 1845DT     BB311971  43.779  22.907  82.946
 1845DT     SC111972  43.584  22.763  83.045
 1845DT     SC211973  43.645  22.682  83.235
 1845DT     SC311974  43.389  22.587  83.060
 1846DG     BB111975  44.030  23.228  82.938
 1846DG     BB211976  44.135  22.980  83.179
 1846DG     BB311977  44.219  22.826  83.086
 1846DG     SC111978  43.956  22.671  83.052
 1846DG     SC211979  43.887  22.413  83.185
 1846DG     SC311980  43.685  22.485  82.981
 1846DG     SC411981  43.867  22.698  82.922
 1847DT     BB111982  44.412  22.791  83.138
 1847DT     BB211983  44.381  22.496  83.344
 1847DT     BB311984  44.424  22.327  83.232
 1847DT     SC111985  44.194  22.341  83.107
 1847DT     SC211986  44.069  22.177  83.170
 1847DT     SC311987  44.019  22.366  82.912
 1848DA     BB111988  44.637  22.328  83.595
 1848DA     BB211989  44.479  22.000  83.553
 1848DA     BB311990  44.573  21.892  83.395
 1848DA     SC111991  44.381  21.999  83.175
 1848DA     SC211992  44.200  21.911  83.029
 1848DA     SC311993  44.246  22.115  82.881
 1848DA     SC411994  44.426  22.132  83.095
 1849DT     BB111995  44.663  21.736  83.453
 1849DT     BB211996  44.427  21.497  83.321
 1849DT     BB311997  44.497  21.419  83.142
 1849DT     SC111998  44.439  21.641  83.014
 1849DT     SC211999  44.275  21.605  82.880
 1849DT     SC312000  44.471  21.863  82.875
 1850DG     BB112001  44.434  21.106  83.396
 1850DG     BB212002  44.268  21.056  83.079
 1850DG     BB312003  44.400  21.001  82.941
 1850DG     SC112004  44.465  21.287  82.853
 1850DG     SC212005  44.401  21.408  82.588
 1850DG     SC312006  44.574  21.588  82.746
 1850DG     SC412007  44.581  21.367  82.929
 1851DT     BB112008  44.386  20.805  82.843
 1851DT     BB212009  44.263  20.898  82.516
 1851DT     BB312010  44.417  20.891  82.378
 1851DT     SC112011  44.519  21.114  82.471
 1851DT     SC212012  44.494  21.271  82.326
 1851DT     SC312013  44.690  21.281  82.584
 1852DA     BB112014  44.089  20.672  82.231
 1852DA     BB212015  44.201  20.904  81.969
 1852DA     BB312016  44.389  20.841  81.890
 1852DA     SC112017  44.557  21.007  82.093
 1852DA     SC212018  44.705  21.208  82.089
 1852DA     SC312019  44.798  21.119  82.310
 1852DA     SC412020  44.603  20.934  82.228
 1853DA     BB112021  44.212  20.869  81.615
 1853DA     BB212022  44.455  21.123  81.512
 1853DA     BB312023  44.640  21.032  81.459
 1853DA     SC112024  44.760  21.051  81.746
 1853DA     SC212025  44.940  21.178  81.863
 1853DA     SC312026  44.928  20.992  82.039
 1853DA     SC412027  44.739  20.925  81.844
 1854DC     BB112028  44.693  21.046  81.272
 1854DC     BB212029  44.952  21.293  81.320
 1854DC     BB312030  45.138  21.203  81.315
 1854DC     SC112031  45.104  21.100  81.554
 1854DC     SC212032  45.237  21.197  81.692
 1854DC     SC312033  45.075  20.922  81.746
 1855DC     BB112034  45.182  21.318  81.076
 1855DC     BB212035  45.452  21.432  81.285
 1855DC     BB312036  45.605  21.293  81.285
 1855DC     SC112037  45.469  21.132  81.441
 1855DC     SC212038  45.562  21.125  81.635
 1855DC     SC312039  45.339  20.918  81.524
 1856DG     BB112040  45.756  21.651  81.160
 1856DG     BB212041  45.943  21.516  81.438
 1856DG     BB312042  46.061  21.369  81.375
 1856DG     SC112043  45.852  21.149  81.419
 1856DG     SC212044  45.868  20.929  81.620
 1856DG     SC312045  45.641  20.887  81.435
 1856DG     SC412046  45.750  21.114  81.300
 1857DT     BB112047  46.267  21.394  81.402
 1857DT     BB212048  46.331  21.174  81.680
 1857DT     BB312049  46.411  20.995  81.612
 1857DT     SC112050  46.177  20.916  81.522
 1857DT     SC212051  46.106  20.753  81.642
 1857DT     SC312052  45.989  20.841  81.353
 1858DA     BB112053  46.635  21.157  81.929
 1858DA     BB212054  46.563  20.805  82.003
 1858DA     BB312055  46.672  20.677  81.871
 1858DA     SC112056  46.447  20.666  81.656
 1858DA     SC212057  46.286  20.498  81.566
 1858DA     SC312058  46.271  20.652  81.362
 1858DA     SC412059  46.453  20.774  81.537
 1859DC     BB112060  46.779  20.585  81.971
 1859DC     BB212061  46.603  20.271  81.946
 1859DC     BB312062  46.684  20.157  81.793
 1859DC     SC112063  46.569  20.307  81.611
 1859DC     SC212064  46.414  20.195  81.513
 1859DC     SC312065  46.542  20.474  81.408
 1860DT     BB112066  46.756  20.016  81.997
 1860DT     BB212067  46.562  19.796  81.787
 1860DT     BB312068  46.676  19.732  81.626
 1860DT     SC112069  46.655  19.965  81.508
 1860DT     SC212070  46.532  19.946  81.333
 1860DT     SC312071  46.723  20.198  81.404
 1861DA     BB112072  46.481  19.410  81.817
 1861DA     BB212073  46.435  19.378  81.455
 1861DA     BB312074  46.621  19.333  81.360
 1861DA     SC112075  46.697  19.631  81.312
 1861DA     SC212076  46.719  19.787  81.119
 1861DA     SC312077  46.864  19.929  81.277
 1861DA     SC412078  46.785  19.704  81.425
 1862DT     BB112079  46.646  19.151  81.273
 1862DT     BB212080  46.639  19.259  80.929
 1862DT     BB312081  46.831  19.259  80.851
 1862DT     SC112082  46.893  19.477  80.984
 1862DT     SC212083  46.916  19.641  80.845
 1862DT     SC312084  47.013  19.638  81.155
 1863DA     BB112085  46.624  19.019  80.574
 1863DA     BB212086  46.823  19.258  80.380
 1863DA     BB312087  47.028  19.201  80.378
 1863DA     SC112088  47.101  19.364  80.633
 1863DA     SC212089  47.234  19.568  80.689
 1863DA     SC312090  47.237  19.474  80.928
 1863DA     SC412091  47.093  19.289  80.774
 1864DT     BB112092  47.155  19.119  80.196
 1864DT     BB212093  47.351  19.418  80.143
 1864DT     BB312094  47.548  19.382  80.193
 1864DT     SC112095  47.493  19.388  80.450
 1864DT     SC212096  47.580  19.565  80.537
 1864DT     SC312097  47.465  19.309  80.700
 1865DA     BB112098  47.603  19.513  79.795
 1865DA     BB212099  47.839  19.705  80.001
 1865DA     BB312100  48.012  19.588  80.044
 1865DA     SC112101  47.896  19.470  80.308
 1865DA     SC212102  47.937  19.490  80.553
 1865DA     SC312103  47.814  19.266  80.572
 1865DA     SC412104  47.817  19.330  80.298
 1866DA     BB112105  48.208  19.825  79.910
 1866DA     BB212106  48.357  19.874  80.242
 1866DA     BB312107  48.512  19.731  80.275
 1866DA     SC112108  48.323  19.520  80.404
 1866DA     SC212109  48.284  19.421  80.629
 1866DA     SC312110  48.170  19.228  80.502
 1866DA     SC412111  48.258  19.409  80.307
 1867DA     BB112112  48.705  19.991  80.334
 1867DA     BB212113  48.741  19.867  80.678
 1867DA     BB312114  48.888  19.713  80.686
 1867DA     SC112115  48.684  19.482  80.636
 1867DA     SC212116  48.584  19.294  80.765
 1867DA     SC312117  48.530  19.193  80.535
 1867DA     SC412118  48.661  19.436  80.484
 1868DA     BB112119  49.004  19.912  80.915
 1868DA     BB212120  48.948  19.639  81.153
 1868DA     BB312121  49.101  19.491  81.134
 1868DA     SC112122  48.946  19.323  80.923
 1868DA     SC212123  48.832  19.101  80.911
 1868DA     SC312124  48.859  19.124  80.657
 1868DA     SC412125  48.973  19.355  80.767
 1869DG     BB112126  49.134  19.574  81.426
 1869DG     BB212127  49.031  19.232  81.483
 1869DG     BB312128  49.185  19.109  81.458
 1869DG     SC112129  49.134  19.067  81.159
 1869DG     SC212130  49.049  18.811  81.030
 1869DG     SC312131  49.118  19.014  80.826
 1869DG     SC412132  49.200  19.168  81.054
 1870DT     BB112133  49.232  19.002  81.622
 1870DT     BB212134  49.116  18.672  81.535
 1870DT     BB312135  49.274  18.557  81.469
 1870DT     SC112136  49.280  18.683  81.239
 1870DT     SC212137  49.214  18.551  81.083
 1870DT     SC312138  49.367  18.833  81.040
 1871DC     BB112139  49.238  18.428  81.695
 1871DC     BB212140  49.213  18.176  81.438
 1871DC     BB312141  49.402  18.112  81.382
 1871DC     SC112142  49.444  18.334  81.248
 1871DC     SC212143  49.448  18.290  81.038
 1871DC     SC312144  49.552  18.564  81.177
 1872DG     BB112145  49.184  17.789  81.502
 1872DG     BB212146  49.343  17.731  81.182
 1872DG     BB312147  49.537  17.695  81.208
 1872DG     SC112148  49.620  17.989  81.188
 1872DG     SC212149  49.784  18.110  80.970
 1872DG     SC312150  49.744  18.302  81.192
 1872DG     SC412151  49.622  18.078  81.321
 1873DA     BB112152  49.510  17.397  81.021
 1873DA     BB212153  49.764  17.515  80.784
 1873DA     BB312154  49.959  17.492  80.868
 1873DA     SC112155  49.964  17.776  80.995
 1873DA     SC212156  50.083  17.993  80.960
 1873DA     SC312157  50.014  18.046  81.201
 1873DA     SC412158  49.913  17.791  81.147
 1874DA     BB112159  50.058  17.305  80.604
 1874DA     BB212160  50.313  17.558  80.530
 1874DA     BB312161  50.485  17.528  80.652
 1874DA     SC112162  50.384  17.714  80.881
 1874DA     SC212163  50.443  17.936  80.978
 1874DA     SC312164  50.314  17.857  81.185
 1874DA     SC412165  50.301  17.646  81.001
 1875DT     BB112166  50.711  17.451  80.591
 1875DT     BB212167  50.868  17.775  80.618
 1875DT     BB312168  51.005  17.775  80.774
 1875DT     SC112169  50.813  17.783  80.952
 1875DT     SC212170  50.814  17.975  81.049
 1875DT     SC312171  50.656  17.712  81.152
 1876DG     BB112172  51.256  17.857  80.458
 1876DG     BB212173  51.291  18.108  80.717
 1876DG     BB312174  51.419  18.045  80.855
 1876DG     SC112175  51.207  17.908  81.027
 1876DG     SC212176  51.121  17.992  81.300
 1876DG     SC312177  51.003  17.731  81.229
 1876DG     SC412178  51.169  17.755  80.997
 1877DA     BB112179  51.590  18.341  80.811
 1877DA     BB212180  51.522  18.435  81.159
 1877DA     BB312181  51.659  18.338  81.290
 1877DA     SC112182  51.478  18.088  81.334
 1877DA     SC212183  51.344  17.988  81.519
 1877DA     SC312184  51.359  17.770  81.384
 1877DA     SC412185  51.500  17.962  81.237
 1878DT     BB112186  51.765  18.461  81.377
 1878DT     BB212187  51.598  18.439  81.697
 1878DT     BB312188  51.709  18.323  81.827
 1878DT     SC112189  51.636  18.103  81.704
 1878DT     SC212190  51.505  17.990  81.831
 1878DT     SC312191  51.653  17.879  81.564
 1879DT     BB112192  51.722  18.556  81.932
 1879DT     BB212193  51.576  18.342  82.183
 1879DT     BB312194  51.723  18.228  82.273
 1879DT     SC112195  51.743  18.072  82.062
 1879DT     SC212196  51.666  17.877  82.110
 1879DT     SC312197  51.846  17.953  81.851
 1880DA     BB112198  51.431  18.406  82.525
 1880DA     BB212199  51.489  18.060  82.631
 1880DA     BB312200  51.688  18.036  82.702
 1880DA     SC112201  51.804  17.958  82.424
 1880DA     SC212202  51.896  17.754  82.313
 1880DA     SC312203  52.003  17.918  82.147
 1880DA     SC412204  51.862  18.075  82.331
 1881DA     BB112205  51.503  17.906  82.942
 1881DA     BB212206  51.709  17.605  82.907
 1881DA     BB312207  51.909  17.643  82.972
 1881DA     SC112208  52.010  17.731  82.691
 1881DA     SC212209  52.163  17.644  82.515
 1881DA     SC312210  52.172  17.886  82.431
 1881DA     SC412211  52.004  17.888  82.656
 1882DA     BB112212  51.849  17.373  83.158
 1882DA     BB212213  52.148  17.226  83.004
 1882DA     BB312214  52.324  17.323  83.076
 1882DA     SC112215  52.328  17.537  82.851
 1882DA     SC212216  52.467  17.592  82.651
 1882DA     SC312217  52.363  17.826  82.669
 1882DA     SC412218  52.253  17.676  82.879
 1883DA     BB112219  52.441  17.021  83.170
 1883DA     BB212220  52.728  17.077  82.949
 1883DA     BB312221  52.867  17.210  83.041
 1883DA     SC112222  52.739  17.466  82.919
 1883DA     SC212223  52.798  17.639  82.749
 1883DA     SC312224  52.622  17.784  82.865
 1883DA     SC412225  52.627  17.542  83.006
 1884DT     BB112226  53.077  17.160  83.120
 1884DT     BB212227  53.263  17.323  82.857
 1884DT     BB312228  53.357  17.492  82.932
 1884DT     SC112229  53.130  17.624  82.938
 1884DT     SC212230  53.133  17.778  82.788
 1884DT     SC312231  52.922  17.755  83.033
 1885DA     BB112232  53.688  17.285  82.769
 1885DA     BB212233  53.704  17.629  82.643
 1885DA     BB312234  53.778  17.760  82.794
 1885DA     SC112235  53.496  17.828  82.908
 1885DA     SC212236  53.343  18.024  82.916
 1885DA     SC312237  53.231  17.903  83.113
 1885DA     SC412238  53.442  17.737  83.029
 1886DA     BB112239  54.020  17.858  82.583
 1886DA     BB212240  53.877  18.195  82.596
 1886DA     BB312241  53.942  18.297  82.771
 1886DA     SC112242  53.703  18.202  82.945
 1886DA     SC212243  53.500  18.302  83.051
 1886DA     SC312244  53.502  18.095  83.202
 1886DA     SC412245  53.722  18.067  83.031
 1887DT     BB112246  54.079  18.476  82.774
 1887DT     BB212247  53.821  18.719  82.843
 1887DT     BB312248  53.842  18.792  83.035
 1887DT     SC112249  53.748  18.570  83.139
 1887DT     SC212250  53.555  18.607  83.225
 1887DT     SC312251  53.738  18.345  83.277
 1888DA     BB112252  53.837  19.139  82.798
 1888DA     BB212253  53.587  19.182  83.063
 1888DA     BB312254  53.683  19.229  83.248
 1888DA     SC112255  53.708  18.932  83.338
 1888DA     SC212256  53.609  18.783  83.510
 1888DA     SC312257  53.815  18.635  83.472
 1888DA     SC412258  53.844  18.855  83.300
 1889DT     BB112259  53.658  19.421  83.344
 1889DT     BB212260  53.425  19.303  83.593
 1889DT     BB312261  53.516  19.300  83.779
 1889DT     SC112262  53.654  19.086  83.717
 1889DT     SC212263  53.581  18.919  83.831
 1889DT     SC312264  53.860  18.929  83.666
 1890DA     BB112265  53.155  19.509  83.804
 1890DA     BB212266  53.155  19.247  84.060
 1890DA     BB312267  53.286  19.299  84.220
 1890DA     SC112268  53.534  19.159  84.094
 1890DA     SC212269  53.676  18.959  84.139
 1890DA     SC312270  53.851  19.075  83.992
 1890DA     SC412271  53.630  19.248  84.001
 1891DG     BB112272  53.013  19.264  84.345
 1891DG     BB212273  53.180  18.980  84.495
 1891DG     BB312274  53.297  19.041  84.644
 1891DG     SC112275  53.543  19.083  84.467
 1891DG     SC212276  53.796  18.925  84.478
 1891DG     SC312277  53.826  19.159  84.300
 1891DG     SC412278  53.564  19.225  84.396
 1892DA     BB112279  53.116  18.777  84.760
 1892DA     BB212280  53.432  18.607  84.833
 1892DA     BB312281  53.535  18.706  84.992
 1892DA     SC112282  53.694  18.896  84.804
 1892DA     SC212283  53.930  18.927  84.730
 1892DA     SC312284  53.857  19.164  84.664
 1892DA     SC412285  53.629  19.039  84.771
 1893DT     BB112286  53.540  18.586  85.109
 1893DT     BB212287  53.894  18.517  85.087
 1893DT     BB312288  53.997  18.634  85.222
 1893DT     SC112289  53.966  18.848  85.072
 1893DT     SC212290  54.156  18.905  84.990
 1893DT     SC312291  53.888  19.088  84.996
 1894DT     BB112292  54.035  18.404  85.340
 1894DT     BB212293  54.365  18.538  85.284
 1894DT     BB312294  54.410  18.677  85.431
 1894DT     SC112295  54.251  18.856  85.323
 1894DT     SC212296  54.369  19.015  85.239
 1894DT     SC312297  54.050  19.023  85.294
 1895DT     BB112298  54.583  18.498  85.529
 1895DT     BB212299  54.781  18.794  85.471
 1895DT     BB312300  54.766  18.921  85.634
 1895DT     SC112301  54.524  18.994  85.565
 1895DT     SC212302  54.527  19.199  85.498
 1895DT     SC312303  54.262  19.028  85.575
 1896DA     BB112304  55.173  18.866  85.554
 1896DA     BB212305  55.114  19.226  85.593
 1896DA     BB312306  55.081  19.274  85.798
 1896DA     SC112307  54.772  19.237  85.781
 1896DA     SC212308  54.569  19.381  85.790
 1896DA     SC312309  54.443  19.164  85.848
 1896DA     SC412310  54.713  19.092  85.817
 1897DA     BB112311  55.319  19.484  85.723
 1897DA     BB212312  55.085  19.751  85.814
 1897DA     BB312313  55.061  19.760  86.026
 1897DA     SC112314  54.820  19.563  86.032
 1897DA     SC212315  54.575  19.572  86.077
 1897DA     SC312316  54.593  19.320  86.117
 1897DA     SC412317  54.852  19.407  86.054
 1898DT     BB112318  55.123  19.918  86.092
 1898DT     BB212319  54.804  20.067  86.170
 1898DT     BB312320  54.763  20.044  86.372
 1898DT     SC112321  54.706  19.790  86.338
 1898DT     SC212322  54.495  19.759  86.367
 1898DT     SC312323  54.721  19.527  86.359
 1899DA     BB112324  54.701  20.441  86.247
 1899DA     BB212325  54.416  20.338  86.453
 1899DA     BB312326  54.475  20.315  86.657
 1899DA     SC112327  54.547  20.014  86.626
 1899DA     SC212328  54.457  19.794  86.703
 1899DA     SC312329  54.691  19.703  86.652
 1899DA     SC412330  54.699  19.976  86.589
 1900DA     BB112331  54.214  20.516  86.694
 1900DA     BB212332  54.076  20.264  86.922
 1900DA     BB312333  54.187  20.259  87.104
 1900DA     SC112334  54.387  20.042  87.004
 1900DA     SC212335  54.439  19.803  87.052
 1900DA     SC312336  54.667  19.852  86.945
 1900DA     SC412337  54.524  20.093  86.936
 1901DT     BB112338  54.114  20.330  87.302
 1901DT     BB212339  54.090  20.011  87.469
 1901DT     BB312340  54.243  19.992  87.607
 1901DT     SC112341  54.420  19.950  87.418
 1901DT     SC212342  54.486  19.745  87.426
 1901DT     SC312343  54.630  19.985  87.262
 1902DT     BB112344  54.108  20.050  87.866
 1902DT     BB212345  54.274  19.738  87.937
 1902DT     BB312346  54.458  19.774  88.025
 1902DT     SC112347  54.562  19.849  87.796
 1902DT     SC212348  54.705  19.702  87.731
 1902DT     SC312349  54.673  20.002  87.612
 1903DA     BB112350  54.310  19.538  88.349
 1903DA     BB212351  54.642  19.404  88.272
 1903DA     BB312352  54.793  19.523  88.364
 1903DA     SC112353  54.826  19.714  88.120
 1903DA     SC212354  54.997  19.762  87.945
 1903DA     SC312355  54.876  19.986  87.917
 1903DA     SC412356  54.738  19.848  88.118
 1904DG     BB112357  54.915  19.290  88.564
 1904DG     BB212358  55.212  19.320  88.359
 1904DG     BB312359  55.337  19.451  88.440
 1904DG     SC112360  55.219  19.692  88.292
 1904DG     SC212361  55.358  19.853  88.082
 1904DG     SC312362  55.103  19.980  88.162
 1904DG     SC412363  55.097  19.772  88.358
 1905DA     BB112364  55.610  19.224  88.447
 1905DA     BB212365  55.799  19.437  88.216
 1905DA     BB312366  55.898  19.593  88.322
 1905DA     SC112367  55.662  19.794  88.295
 1905DA     SC212368  55.613  20.006  88.173
 1905DA     SC312369  55.429  20.040  88.348
 1905DA     SC412370  55.553  19.797  88.413
 1906DG     BB112371  56.175  19.477  88.223
 1906DG     BB212372  56.189  19.787  88.038
 1906DG     BB312373  56.270  19.930  88.151
 1906DG     SC112374  56.004  20.021  88.270
 1906DG     SC212375  55.873  20.286  88.223
 1906DG     SC312376  55.732  20.134  88.435
 1906DG     SC412377  55.950  19.951  88.403
 1907DT     BB112378  56.472  20.039  88.101
 1907DT     BB212379  56.345  20.353  87.978
 1907DT     BB312380  56.381  20.503  88.116
 1907DT     SC112381  56.189  20.415  88.272
 1907DT     SC212382  56.027  20.556  88.272
 1907DT     SC312383  56.068  20.315  88.484
 1908DA     BB112384  56.531  20.634  87.748
 1908DA     BB212385  56.312  20.897  87.881
 1908DA     BB312386  56.409  21.000  88.041
 1908DA     SC112387  56.298  20.812  88.262
 1908DA     SC212388  56.134  20.825  88.450
 1908DA     SC312389  56.257  20.620  88.544
 1908DA     SC412390  56.388  20.686  88.305
 1909DG     BB112391  56.364  21.235  87.848
 1909DG     BB212392  56.141  21.344  88.110
 1909DG     BB312393  56.244  21.434  88.254
 1909DG     SC112394  56.294  21.177  88.413
 1909DG     SC212395  56.183  21.113  88.683
 1909DG     SC312396  56.385  20.912  88.602
 1909DG     SC412397  56.424  21.089  88.379
 1910DA     BB112398  55.997  21.659  88.195
 1910DA     BB212399  55.891  21.622  88.544
 1910DA     BB312400  56.031  21.715  88.674
 1910DA     SC112401  56.203  21.459  88.713
 1910DA     SC212402  56.253  21.296  88.894
 1910DA     SC312403  56.461  21.237  88.756
 1910DA     SC412404  56.328  21.438  88.613
 1911DC     BB112405  55.936  21.832  88.746
 1911DC     BB212406  55.910  21.674  89.069
 1911DC     BB312407  56.060  21.743  89.194
 1911DC     SC112408  56.240  21.599  89.069
 1911DC     SC212409  56.306  21.440  89.198
 1911DC     SC312410  56.453  21.537  88.926
 1912DT     BB112411  55.837  21.818  89.291
 1912DT     BB212412  56.001  21.622  89.546
 1912DT     BB312413  56.159  21.728  89.625
 1912DT     SC112414  56.305  21.686  89.411
 1912DT     SC212415  56.466  21.552  89.460
 1912DT     SC312416  56.445  21.734  89.193
 1913DA     BB112417  55.907  21.541  89.911
 1913DA     BB212418  56.258  21.482  90.002
 1913DA     BB312419  56.352  21.666  90.055
 1913DA     SC112420  56.450  21.728  89.766
 1913DA     SC212421  56.666  21.737  89.643
 1913DA     SC312422  56.540  21.882  89.473
 1913DA     SC412423  56.354  21.818  89.673
 1914DA     BB112424  56.422  21.469  90.310
 1914DA     BB212425  56.774  21.542  90.239
 1914DA     BB312426  56.818  21.746  90.286
 1914DA     SC112427  56.752  21.851  90.001
 1914DA     SC212428  56.874  21.946  89.806
 1914DA     SC312429  56.647  22.039  89.734
 1914DA     SC412430  56.601  21.902  89.974
 1915DC     BB112431  56.943  21.789  90.441
 1915DC     BB212432  57.225  21.903  90.248
 1915DC     BB312433  57.236  22.110  90.254
 1915DC     SC112434  57.034  22.133  90.089
 1915DC     SC212435  57.104  22.209  89.900
 1915DC     SC312436  56.795  22.196  89.996
 1916DG     BB112437  57.596  22.000  90.417
 1916DG     BB212438  57.644  22.242  90.153
 1916DG     BB312439  57.609  22.426  90.222
 1916DG     SC112440  57.311  22.421  90.154
 1916DG     SC212441  57.175  22.590  89.948
 1916DG     SC312442  56.977  22.442  90.111
 1916DG     SC412443  57.207  22.363  90.262
 1917DA     BB112444  57.924  22.547  90.115
 1917DA     BB212445  57.762  22.794  89.897
 1917DA     BB312446  57.700  22.963  90.010
 1917DA     SC112447  57.417  22.850  90.072
 1917DA     SC212448  57.181  22.898  90.009
 1917DA     SC312449  57.119  22.767  90.220
 1917DA     SC412450  57.399  22.767  90.209
 1918DA     BB112451  57.878  23.144  89.796
 1918DA     BB212452  57.566  23.309  89.699
 1918DA     BB312453  57.513  23.458  89.843
 1918DA     SC112454  57.342  23.263  90.016
 1918DA     SC212455  57.101  23.228  90.071
 1918DA     SC312456  57.188  23.099  90.275
 1918DA     SC412457  57.416  23.188  90.137
 1919DA     BB112458  57.505  23.660  89.582
 1919DA     BB212459  57.149  23.710  89.652
 1919DA     BB312460  57.124  23.846  89.815
 1919DA     SC112461  57.123  23.623  90.032
 1919DA     SC212462  56.960  23.518  90.189
 1919DA     SC312463  57.166  23.440  90.320
 1919DA     SC412464  57.264  23.585  90.100
 1920DA     BB112465  56.935  24.008  89.601
 1920DA     BB212466  56.655  23.951  89.831
 1920DA     BB312467  56.666  24.086  89.996
 1920DA     SC112468  56.835  23.895  90.173
 1920DA     SC212469  56.804  23.759  90.380
 1920DA     SC312470  57.060  23.761  90.395
 1920DA     SC412471  56.995  23.908  90.166
 1921DA     BB112472  56.359  24.158  89.902
 1921DA     BB212473  56.250  24.039  90.231
 1921DA     BB312474  56.291  24.185  90.380
 1921DA     SC112475  56.574  24.073  90.446
 1921DA     SC212476  56.685  23.955  90.635
 1921DA     SC312477  56.905  24.037  90.531
 1921DA     SC412478  56.699  24.135  90.367
 1922DC     BB112479  56.136  24.269  90.469
 1922DC     BB212480  56.168  24.093  90.783
 1922DC     BB312481  56.249  24.218  90.926
 1922DC     SC112482  56.488  24.199  90.820
 1922DC     SC212483  56.616  24.086  90.951
 1922DC     SC312484  56.712  24.268  90.701
 1923DT     BB112485  56.008  24.222  91.043
 1923DT     BB212486  56.232  24.100  91.298
 1923DT     BB312487  56.322  24.259  91.396
 1923DT     SC112488  56.479  24.306  91.191
 1923DT     SC212489  56.682  24.256  91.244
 1923DT     SC312490  56.590  24.431  90.987
 1924DT     BB112491  56.171  24.197  91.607
 1924DT     BB212492  56.511  24.185  91.728
 1924DT     BB312493  56.574  24.375  91.782
 1924DT     SC112494  56.599  24.446  91.530
 1924DT     SC212495  56.808  24.471  91.484
 1924DT     SC312496  56.560  24.575  91.304
 1925DA     BB112497  56.654  24.116  92.102
 1925DA     BB212498  56.955  24.314  92.038
 1925DA     BB312499  56.926  24.516  92.102
 1925DA     SC112500  56.819  24.613  91.826
 1925DA     SC212501  56.895  24.759  91.639
 1925DA     SC312502  56.647  24.772  91.575
 1925DA     SC412503  56.660  24.609  91.803
 1926DA     BB112504  57.203  24.456  92.272
 1926DA     BB212505  57.357  24.730  92.082
 1926DA     BB312506  57.287  24.919  92.155
 1926DA     SC112507  57.047  24.933  91.958
 1926DA     SC212508  56.979  25.067  91.759
 1926DA     SC312509  56.741  24.989  91.812
 1926DA     SC412510  56.906  24.875  92.008
 1927DC     BB112511  57.416  25.056  92.256
 1927DC     BB212512  57.446  25.293  91.985
 1927DC     BB312513  57.338  25.464  92.029
 1927DC     SC112514  57.110  25.343  91.980
 1927DC     SC212515  57.023  25.422  91.800
 1927DC     SC312516  56.871  25.239  92.020
 1928DA     BB112517  57.723  25.606  91.939
 1928DA     BB212518  57.484  25.801  91.741
 1928DA     BB312519  57.384  25.944  91.864
 1928DA     SC112520  57.149  25.753  91.936
 1928DA     SC212521  56.906  25.733  91.887
 1928DA     SC312522  56.896  25.584  92.096
 1928DA     SC412523  57.164  25.664  92.070
 1929DG     BB112524  57.510  26.165  91.681
 1929DG     BB212525  57.164  26.222  91.589
 1929DG     BB312526  57.079  26.346  91.720
 1929DG     SC112527  56.985  26.122  91.907
 1929DG     SC212528  56.701  26.046  91.959
 1929DG     SC312529  56.884  25.905  92.144
 1929DG     SC412530  57.083  26.072  92.023
 1930DA     BB112531  56.987  26.524  91.441
 1930DA     BB212532  56.634  26.471  91.528
 1930DA     BB312533  56.577  26.600  91.688
 1930DA     SC112534  56.650  26.395  91.911
 1930DA     SC212535  56.530  26.254  92.078
 1930DA     SC312536  56.755  26.245  92.201
 1930DA     SC412537  56.798  26.403  91.973
 1931DA     BB112538  56.355  26.653  91.458
 1931DA     BB212539  56.109  26.532  91.702
 1931DA     BB312540  56.081  26.677  91.856
 1931DA     SC112541  56.303  26.561  92.040
 1931DA     SC212542  56.318  26.439  92.258
 1931DA     SC312543  56.561  26.521  92.263
 1931DA     SC412544  56.451  26.622  92.026
 1932DT     BB112545  55.915  26.725  91.845
 1932DT     BB212546  55.798  26.555  92.141
 1932DT     BB312547  55.801  26.685  92.302
 1932DT     SC112548  56.063  26.668  92.320
 1932DT     SC212549  56.115  26.561  92.499
 1932DT     SC312550  56.316  26.740  92.319
 1933DG     BB112551  55.431  26.521  92.250
 1933DG     BB212552  55.549  26.484  92.590
 1933DG     BB312553  55.539  26.658  92.684
 1933DG     SC112554  55.822  26.745  92.604
 1933DG     SC212555  56.054  26.781  92.788
 1933DG     SC312556  56.118  26.881  92.517
 1933DG     SC412557  55.842  26.824  92.466
 1934DA     BB112558  55.367  26.484  92.931
 1934DA     BB212559  55.619  26.585  93.177
 1934DA     BB312560  55.596  26.791  93.228
 1934DA     SC112561  55.789  26.892  93.006
 1934DA     SC212562  56.015  26.996  92.992
 1934DA     SC312563  55.943  27.073  92.758
 1934DA     SC412564  55.725  26.931  92.864
 1935DT     BB112565  55.535  26.849  93.419
 1935DT     BB212566  55.855  26.972  93.532
 1935DT     BB312567  55.854  27.179  93.536
 1935DT     SC112568  55.870  27.192  93.274
 1935DT     SC212569  56.064  27.267  93.218
 1935DT     SC312570  55.806  27.243  93.023
 1936DT     BB112571  55.840  27.196  93.814
 1936DT     BB212572  56.136  27.384  93.728
 1936DT     BB312573  56.087  27.582  93.695
 1936DT     SC112574  55.980  27.525  93.463
 1936DT     SC212575  56.102  27.607  93.306
 1936DT     SC312576  55.798  27.499  93.273
 1937DA     BB112577  56.398  27.583  93.976
 1937DA     BB212578  56.490  27.812  93.705
 1937DA     BB312579  56.378  27.993  93.720
 1937DA     SC112580  56.146  27.892  93.539
 1937DA     SC212581  56.055  27.939  93.312
 1937DA     SC312582  55.839  27.830  93.397
 1937DA     SC412583  56.020  27.822  93.611
 1938DA     BB112584  56.685  28.095  93.705
 1938DA     BB212585  56.588  28.261  93.392
 1938DA     BB312586  56.467  28.431  93.433
 1938DA     SC112587  56.199  28.274  93.419
 1938DA     SC212588  56.001  28.260  93.268
 1938DA     SC312589  55.880  28.159  93.469
 1938DA     SC412590  56.141  28.214  93.556
 1939DA     BB112591  56.710  28.511  93.232
 1939DA     BB212592  56.444  28.604  92.998
 1939DA     BB312593  56.337  28.774  93.071
 1939DA     SC112594  56.126  28.605  93.225
 1939DA     SC212595  55.883  28.551  93.206
 1939DA     SC312596  55.899  28.488  93.454
 1939DA     SC412597  56.156  28.572  93.379
 1940DT     BB112598  56.369  28.872  92.947
 1940DT     BB212599  56.037  28.881  92.807
 1940DT     BB312600  55.925  29.028  92.900
 1940DT     SC112601  55.897  28.881  93.115
 1940DT     SC212602  55.692  28.818  93.132
 1940DT     SC312603  55.915  28.803  93.367
 1941DA     BB112604  55.896  29.021  92.476
 1941DA     BB212605  55.562  29.065  92.618
 1941DA     BB312606  55.548  29.252  92.720
 1941DA     SC112607  55.637  29.138  92.995
 1941DA     SC212608  55.535  29.092  93.218
 1941DA     SC312609  55.777  29.093  93.305
 1941DA     SC412610  55.794  29.143  93.030
 1942DA     BB112611  55.284  29.267  92.521
 1942DA     BB212612  55.086  29.323  92.824
 1942DA     BB312613  55.127  29.515  92.906
 1942DA     SC112614  55.358  29.415  93.089
 1942DA     SC212615  55.399  29.383  93.333
 1942DA     SC312616  55.648  29.385  93.270
 1942DA     SC412617  55.507  29.420  93.030
 1943DT     BB112618  54.985  29.671  92.906
 1943DT     BB212619  54.916  29.676  93.260
 1943DT     BB312620  55.005  29.841  93.347
 1943DT     SC112621  55.242  29.730  93.332
 1943DT     SC212622  55.311  29.680  93.530
 1943DT     SC312623  55.494  29.690  93.262
 1944DA     BB112624  54.604  29.888  93.467
 1944DA     BB212625  54.812  29.934  93.766
 1944DA     BB312626  54.904  30.126  93.763
 1944DA     SC112627  55.160  30.028  93.615
 1944DA     SC212628  55.401  29.993  93.667
 1944DA     SC312629  55.436  30.002  93.413
 1944DA     SC412630  55.161  30.038  93.455
 1945DG     BB112631  54.752  30.209  94.031
 1945DG     BB212632  55.086  30.221  94.171
 1945DG     BB312633  55.165  30.401  94.140
 1945DG     SC112634  55.289  30.329  93.870
 1945DG     SC212635  55.580  30.310  93.810
 1945DG     SC312636  55.420  30.289  93.562
 1945DG     SC412637  55.201  30.348  93.737
 1946DA     BB112638  55.236  30.430  94.483
 1946DA     BB212639  55.594  30.460  94.410
 1946DA     BB312640  55.641  30.658  94.346
 1946DA     SC112641  55.597  30.596  94.044
 1946DA     SC212642  55.736  30.574  93.838
 1946DA     SC312643  55.517  30.613  93.711
 1946DA     SC412644  55.451  30.623  93.983
 1947DG     BB112645  55.830  30.679  94.596
 1947DG     BB212646  56.090  30.705  94.346
 1947DG     BB312647  56.107  30.893  94.285
 1947DG     SC112648  55.902  30.866  94.060
 1947DG     SC212649  55.959  30.881  93.767
 1947DG     SC312650  55.668  30.877  93.817
 1947DG     SC412651  55.747  30.893  94.092
 1948DG     BB112652  56.427  30.911  94.379
 1948DG     BB212653  56.505  30.964  94.030
 1948DG     BB312654  56.489  31.157  93.985
 1948DG     SC112655  56.193  31.139  93.909
 1948DG     SC212656  56.080  31.178  93.635
 1948DG     SC312657  55.864  31.161  93.837
 1948DG     SC412658  56.082  31.159  94.022
 1949DT     BB112659  56.667  31.308  93.915
 1949DT     BB212660  56.595  31.336  93.563
 1949DT     BB312661  56.520  31.525  93.521
 1949DT     SC112662  56.287  31.464  93.627
 1949DT     SC212663  56.139  31.451  93.472
 1949DT     SC312664  56.080  31.468  93.790
 1950DC     BB112665  56.754  31.635  93.396
 1950DC     BB212666  56.498  31.673  93.145
 1950DC     BB312667  56.410  31.860  93.162
 1950DC     SC112668  56.277  31.786  93.376
 1950DC     SC212669  56.067  31.772  93.329
 1950DC     SC312670  56.195  31.777  93.627
 1951DG     BB112671  56.563  31.879  92.781
 1951DG     BB212672  56.208  31.950  92.781
 1951DG     BB312673  56.177  32.141  92.825
 1951DG     SC112674  56.160  32.095  93.127
 1951DG     SC212675  55.917  32.129  93.297
 1951DG     SC312676  56.156  32.083  93.464
 1951DG     SC412677  56.294  32.099  93.214
 1952DA     BB112678  55.987  32.158  92.538
 1952DA     BB212679  55.691  32.239  92.738
 1952DA     BB312680  55.692  32.445  92.793
 1952DA     SC112681  55.845  32.398  93.060
 1952DA     SC212682  55.797  32.409  93.304
 1952DA     SC312683  56.051  32.426  93.333
 1952DA     SC412684  56.005  32.409  93.057
 1953DA     BB112685  55.401  32.401  92.658
 1953DA     BB212686  55.262  32.498  92.984
 1953DA     BB312687  55.286  32.707  93.016
 1953DA     SC112688  55.563  32.679  93.156
 1953DA     SC212689  55.658  32.707  93.384
 1953DA     SC312690  55.885  32.725  93.266
 1953DA     SC412691  55.694  32.689  93.063
 1954DT     BB112692  55.122  32.796  93.025
 1954DT     BB212693  55.124  32.859  93.380
 1954DT     BB312694  55.182  33.054  93.417
 1954DT     SC112695  55.433  32.998  93.363
 1954DT     SC212696  55.549  33.007  93.544
 1954DT     SC312697  55.667  33.001  93.243
 1955DA     BB112698  54.826  32.980  93.627
 1955DA     BB212699  55.060  33.143  93.857
 1955DA     BB312700  55.083  33.349  93.805
 1955DA     SC112701  55.324  33.299  93.614
 1955DA     SC212702  55.569  33.346  93.610
 1955DA     SC312703  55.550  33.312  93.357
 1955DA     SC412704  55.292  33.276  93.459
 1956DG     BB112705  54.970  33.420  94.091
 1956DG     BB212706  55.297  33.566  94.141
 1956DG     BB312707  55.301  33.751  94.068
 1956DG     SC112708  55.389  33.666  93.788
 1956DG     SC212709  55.652  33.727  93.660
 1956DG     SC312710  55.466  33.606  93.465
 1956DG     SC412711  55.277  33.628  93.679
 1957DA     BB112712  55.414  33.896  94.372
 1957DA     BB212713  55.718  34.019  94.210
 1957DA     BB312714  55.679  34.201  94.107
 1957DA     SC112715  55.606  34.063  93.838
 1957DA     SC212716  55.703  34.040  93.610
 1957DA     SC312717  55.465  33.978  93.536
 1957DA     SC412718  55.451  34.028  93.812
 1958DA     BB112719  55.923  34.346  94.284
 1958DA     BB212720  56.104  34.396  93.968
 1958DA     BB312721  56.034  34.571  93.869
 1958DA     SC112722  55.815  34.421  93.706
 1958DA     SC212723  55.773  34.358  93.469
 1958DA     SC312724  55.528  34.332  93.541
 1958DA     SC412725  55.668  34.412  93.770
 1959DA     BB112726  56.349  34.656  93.876
 1959DA     BB212727  56.342  34.640  93.509
 1959DA     BB312728  56.256  34.818  93.429
 1959DA     SC112729  55.966  34.706  93.427
 1959DA     SC212730  55.796  34.635  93.259
 1959DA     SC312731  55.625  34.670  93.447
 1959DA     SC412732  55.875  34.735  93.557
 1960DT     BB112733  56.380  34.906  93.329
 1960DT     BB212734  56.247  34.808  93.008
 1960DT     BB312735  56.137  34.964  92.927
 1960DT     SC112736  55.938  34.921  93.092
 1960DT     SC212737  55.770  34.843  92.983
 1960DT     SC312738  55.763  34.960  93.285
 1961DG     BB112739  56.426  34.783  92.702
 1961DG     BB212740  56.106  34.795  92.535
 1961DG     BB312741  56.063  34.982  92.483
 1961DG     SC112742  55.921  35.049  92.746
 1961DG     SC212743  55.629  35.107  92.777
 1961DG     SC312744  55.776  35.162  93.029
 1961DG     SC412745  56.006  35.105  92.869
 1962DC     BB112746  56.037  34.944  92.317
 1962DC     BB212747  55.684  35.008  92.275
 1962DC     BB312748  55.651  35.212  92.256
 1962DC     SC112749  55.691  35.250  92.512
 1962DC     SC212750  55.505  35.304  92.607
 1962DC     SC312751  55.800  35.337  92.736
 1963DC     BB112752  55.590  35.125  92.022
 1963DC     BB212753  55.302  35.309  92.139
 1963DC     BB312754  55.338  35.512  92.126
 1963DC     SC112755  55.497  35.506  92.335
 1963DC     SC212756  55.403  35.608  92.499
 1963DC     SC312757  55.716  35.524  92.481
 1964DT     BB112758  55.164  35.511  91.927
 1964DT     BB212759  55.042  35.761  92.157
 1964DT     BB312760  55.141  35.940  92.127
 1964DT     SC112761  55.357  35.848  92.244
 1964DT     SC212762  55.385  35.949  92.432
 1964DT     SC312763  55.607  35.769  92.279
 1965DA     BB112764  54.732  36.033  92.111
 1965DA     BB212765  54.894  36.277  92.331
 1965DA     BB312766  55.010  36.415  92.216
 1965DA     SC112767  55.271  36.246  92.232
 1965DA     SC212768  55.494  36.262  92.341
 1965DA     SC312769  55.570  36.091  92.165
 1965DA     SC412770  55.299  36.141  92.113
 1966DA     BB112771  54.829  36.639  92.377
 1966DA     BB212772  55.143  36.769  92.514
 1966DA     BB312773  55.248  36.881  92.366
 1966DA     SC112774  55.409  36.638  92.259
 1966DA     SC212775  55.645  36.558  92.260
 1966DA     SC312776  55.575  36.412  92.061
 1966DA     SC412777  55.346  36.556  92.135
 1967DG     BB112778  55.217  37.113  92.571
 1967DG     BB212779  55.578  37.093  92.579
 1967DG     BB312780  55.655  37.192  92.424
 1967DG     SC112781  55.653  36.950  92.237
 1967DG     SC212782  55.894  36.811  92.128
 1967DG     SC312783  55.647  36.710  92.000
 1967DG     SC412784  55.522  36.920  92.150
 1968DA     BB112785  55.851  37.351  92.662
 1968DA     BB212786  56.153  37.233  92.490
 1968DA     BB312787  56.183  37.343  92.310
 1968DA     SC112788  56.020  37.146  92.133
 1968DA     SC212789  56.065  36.979  91.953
 1968DA     SC312790  55.816  37.005  91.895
 1968DA     SC412791  55.864  37.177  92.112
 1969DT     BB112792  56.343  37.461  92.299
 1969DT     BB212793  56.536  37.262  92.069
 1969DT     BB312794  56.527  37.344  91.880
 1969DT     SC112795  56.282  37.259  91.845
 1969DT     SC212796  56.281  37.103  91.697
 1969DT     SC312797  56.021  37.262  91.807
 1970DT     BB112798  56.787  37.444  91.889
 1970DT     BB212799  56.783  37.247  91.587
 1970DT     BB312800  56.721  37.364  91.427
 1970DT     SC112801  56.472  37.358  91.509
 1970DT     SC212802  56.354  37.240  91.373
 1970DT     SC312803  56.238  37.441  91.599
 1971DT     BB112804  56.977  37.411  91.295
 1971DT     BB212805  56.774  37.276  91.030
 1971DT     BB312806  56.685  37.430  90.923
 1971DT     SC112807  56.513  37.475  91.117
 1971DT     SC212808  56.317  37.416  91.052
 1971DT     SC312809  56.385  37.599  91.311
 1972DC     BB112810  56.850  37.440  90.675
 1972DC     BB212811  56.515  37.395  90.549
 1972DC     BB312812  56.433  37.579  90.499
 1972DC     SC112813  56.396  37.640  90.751
 1972DC     SC212814  56.186  37.640  90.795
 1972DC     SC312815  56.419  37.766  90.982
 1973DC     BB112816  56.451  37.555  90.213
 1973DC     BB212817  56.099  37.607  90.273
 1973DC     BB312818  56.054  37.809  90.259
 1973DC     SC112819  56.165  37.857  90.492
 1973DC     SC212820  56.012  37.908  90.634
 1973DC     SC312821  56.331  37.955  90.672
 1974DG     BB112822  55.822  37.615  89.987
 1974DG     BB212823  55.623  37.815  90.213
 1974DG     BB312824  55.629  38.006  90.158
 1974DG     SC112825  55.875  38.073  90.327
 1974DG     SC212826  55.880  38.254  90.564
 1974DG     SC312827  56.154  38.176  90.485
 1974DG     SC412828  56.020  38.052  90.264
 1975DG     BB112829  55.307  37.974  90.147
 1975DG     BB212830  55.302  38.223  90.409
 1975DG     BB312831  55.325  38.405  90.331
 1975DG     SC112832  55.630  38.401  90.351
 1975DG     SC212833  55.796  38.575  90.528
 1975DG     SC312834  55.966  38.424  90.339
 1975DG     SC412835  55.715  38.341  90.229
 1976DT     BB112836  55.169  38.534  90.364
 1976DT     BB212837  55.306  38.761  90.608
 1976DT     BB312838  55.373  38.933  90.515
 1976DT     SC112839  55.584  38.810  90.419
 1976DT     SC212840  55.760  38.883  90.518
 1976DT     SC312841  55.754  38.707  90.246
 1977DA     BB112842  55.123  39.049  90.832
 1977DA     BB212843  55.427  39.253  90.849
 1977DA     BB312844  55.429  39.397  90.691
 1977DA     SC112845  55.578  39.212  90.491
 1977DA     SC212846  55.803  39.199  90.383
 1977DA     SC312847  55.688  39.049  90.209
 1977DA     SC412848  55.489  39.121  90.392
 1978DG     BB112849  55.433  39.623  90.912
 1978DG     BB212850  55.754  39.702  90.768
 1978DG     BB312851  55.731  39.820  90.609
 1978DG     SC112852  55.705  39.590  90.410
 1978DG     SC212853  55.900  39.523  90.194
 1978DG     SC312854  55.654  39.362  90.167
 1978DG     SC412855  55.561  39.527  90.381
 1979DA     BB112856  55.951  40.072  90.731
 1979DA     BB212857  56.173  40.027  90.442
 1979DA     BB312858  56.099  40.136  90.275
 1979DA     SC112859  55.928  39.899  90.166
 1979DA     SC212860  55.931  39.744  89.971
 1979DA     SC312861  55.683  39.706  90.022
 1979DA     SC412862  55.775  39.891  90.213
 1980DC     BB112863  56.197  40.324  90.174
 1980DC     BB212864  56.327  40.145  89.889
 1980DC     BB312865  56.229  40.205  89.717
 1980DC     SC112866  56.013  40.070  89.783
 1980DC     SC212867  55.991  39.903  89.649
 1980DC     SC312868  55.764  40.018  89.850
 1981DA     BB112869  56.636  40.251  89.638
 1981DA     BB212870  56.491  40.049  89.368
 1981DA     BB312871  56.383  40.173  89.233
 1981DA     SC112872  56.112  40.143  89.384
 1981DA     SC212873  55.891  40.034  89.346
 1981DA     SC312874  55.804  40.196  89.524
 1981DA     SC412875  56.077  40.253  89.495
 1982DC     BB112876  56.460  40.170  89.065
 1982DC     BB212877  56.215  39.953  88.913
 1982DC     BB312878  56.082  40.065  88.800
 1982DC     SC112879  55.961  40.154  89.016
 1982DC     SC212880  55.765  40.068  89.028
 1982DC     SC312881  55.872  40.321  89.199
 1983DA     BB112882  56.235  39.724  88.608
 1983DA     BB212883  55.871  39.729  88.568
 1983DA     BB312884  55.812  39.890  88.441
 1983DA     SC112885  55.778  40.094  88.673
 1983DA     SC212886  55.591  40.213  88.788
 1983DA     SC312887  55.772  40.377  88.867
 1983DA     SC412888  55.905  40.185  88.711
 1984DT     BB112889  55.738  39.817  88.301
 1984DT     BB212890  55.398  39.913  88.369
 1984DT     BB312891  55.353  40.089  88.271
 1984DT     SC112892  55.493  40.230  88.443
 1984DT     SC212893  55.360  40.349  88.562
 1984DT     SC312894  55.681  40.387  88.540
 1985DA     BB112895  55.052  39.809  88.184
 1985DA     BB212896  54.890  40.126  88.269
 1985DA     BB312897  54.919  40.269  88.113
 1985DA     SC112898  55.181  40.384  88.233
 1985DA     SC212899  55.257  40.596  88.341
 1985DA     SC312900  55.494  40.519  88.279
 1985DA     SC412901  55.320  40.320  88.185
 1986DG     BB112902  54.605  40.279  88.078
 1986DG     BB212903  54.645  40.625  88.173
 1986DG     BB312904  54.693  40.734  88.013
 1986DG     SC112905  54.995  40.697  88.048
 1986DG     SC212906  55.190  40.912  88.118
 1986DG     SC312907  55.330  40.661  88.045
 1986DG     SC412908  55.066  40.571  87.980
 1987DT     BB112909  54.561  40.913  87.902
 1987DT     BB212910  54.742  41.206  88.011
 1987DT     BB312911  54.845  41.289  87.852
 1987DT     SC112912  55.025  41.098  87.860
 1987DT     SC212913  55.212  41.179  87.928
 1987DT     SC312914  55.171  40.891  87.786
 1988DA     BB112915  54.619  41.617  87.985
 1988DA     BB212916  54.966  41.731  87.957
 1988DA     BB312917  55.016  41.769  87.753
 1988DA     SC112918  55.118  41.481  87.698
 1988DA     SC212919  55.336  41.367  87.653
 1988DA     SC312920  55.193  41.178  87.555
 1988DA     SC412921  55.012  41.374  87.640
 1989DC     BB112922  55.059  41.969  87.680
 1989DC     BB212923  55.416  41.924  87.661
 1989DC     BB312924  55.476  41.917  87.463
 1989DC     SC112925  55.382  41.674  87.434
 1989DC     SC212926  55.545  41.536  87.412
 1989DC     SC312927  55.234  41.474  87.347
 1990DC     BB112928  55.589  42.156  87.503
 1990DC     BB212929  55.860  41.941  87.401
 1990DC     BB312930  55.870  41.933  87.195
 1990DC     SC112931  55.659  41.778  87.182
 1990DC     SC212932  55.719  41.581  87.119
 1990DC     SC312933  55.416  41.694  87.125
 1991DC     BB112934  56.092  42.065  87.237
 1991DC     BB212935  56.190  41.767  87.059
 1991DC     BB312936  56.158  41.793  86.856
 1991DC     SC112937  55.899  41.765  86.885
 1991DC     SC212938  55.836  41.580  86.796
 1991DC     SC312939  55.642  41.824  86.883
 1992DT     BB112940  56.417  41.785  86.862
 1992DT     BB212941  56.316  41.523  86.635
 1992DT     BB312942  56.266  41.604  86.451
 1992DT     SC112943  56.039  41.696  86.545
 1992DT     SC212944  55.876  41.585  86.459
 1992DT     SC312945  55.851  41.866  86.619
 1993DT     BB112946  56.491  41.496  86.356
 1993DT     BB212947  56.231  41.370  86.140
 1993DT     BB312948  56.191  41.507  85.991
 1993DT     SC112949  56.062  41.663  86.158
 1993DT     SC212950  55.852  41.660  86.111
 1993DT     SC312951  56.001  41.874  86.304
 1994DT     BB112952  56.317  41.355  85.798
 1994DT     BB212953  55.987  41.409  85.663
 1994DT     BB312954  55.983  41.585  85.554
 1994DT     SC112955  55.985  41.730  85.773
 1994DT     SC212956  55.795  41.827  85.796
 1994DT     SC312957  56.067  41.901  85.957
 1995DT     BB112958  55.979  41.462  85.300
 1995DT     BB212959  55.688  41.675  85.296
 1995DT     BB312960  55.738  41.861  85.220
 1995DT     SC112961  55.861  41.928  85.442
 1995DT     SC212962  55.748  42.081  85.543
 1995DT     SC312963  56.055  41.996  85.608
 1996DA     BB112964  55.414  41.740  84.983
 1996DA     BB212965  55.341  42.078  85.103
 1996DA     BB312966  55.453  42.222  84.993
 1996DA     SC112967  55.695  42.218  85.189
 1996DA     SC212968  55.800  42.371  85.355
 1996DA     SC312969  56.009  42.225  85.327
 1996DA     SC412970  55.815  42.116  85.156
 1997DG     BB112971  55.173  42.328  84.917
 1997DG     BB212972  55.280  42.614  85.111
 1997DG     BB312973  55.391  42.735  84.998
 1997DG     SC112974  55.656  42.598  85.067
 1997DG     SC212975  55.880  42.719  85.223
 1997DG     SC312976  55.961  42.460  85.104
 1997DG     SC412977  55.705  42.475  84.977
 1998DG     BB112978  55.167  42.944  85.091
 1998DG     BB212979  55.440  43.120  85.251
 1998DG     BB312980  55.542  43.224  85.115
 1998DG     SC112981  55.736  42.996  85.052
 1998DG     SC212982  56.028  42.993  85.111
 1998DG     SC312983  55.952  42.761  84.943
 1998DG     SC412984  55.697  42.890  84.938
 1999DT     BB112985  55.539  43.406  85.167
 1999DT     BB212986  55.878  43.467  85.273
 1999DT     BB312987  55.990  43.539  85.114
 1999DT     SC112988  56.001  43.300  85.005
 1999DT     SC212989  56.203  43.225  85.017
 1999DT     SC312990  55.966  43.106  84.830
 2000DC     BB112991  55.982  43.744  85.269
 2000DC     BB212992  56.332  43.684  85.204
 2000DC     BB312993  56.381  43.751  85.015
 2000DC     SC112994  56.262  43.545  84.903
 2000DC     SC212995  56.409  43.416  84.816
 2000DC     SC312996  56.090  43.406  84.759
 2001DC     BB112997  56.512  43.954  85.129
 2001DC     BB212998  56.753  43.814  84.901
 2001DC     BB312999  56.723  43.891  84.711
 2001DC     SC113000  56.510  43.742  84.675
 2001DC     SC213001  56.552  43.591  84.528
 2001DC     SC313002  56.258  43.675  84.636
 2002DA     BB113003  57.131  43.992  84.764
 2002DA     BB213004  57.101  43.853  84.426
 2002DA     BB313005  57.013  43.996  84.294
 2002DA     SC113006  56.721  43.901  84.347
 2002DA     SC213007  56.540  43.784  84.222
 2002DA     SC313008  56.382  43.886  84.396
 2002DA     SC413009  56.639  43.975  84.463
 2003DT     BB113010  57.110  44.126  84.108
 2003DT     BB213011  56.950  43.944  83.841
 2003DT     BB313012  56.813  44.065  83.745
 2003DT     SC113013  56.643  44.045  83.945
 2003DT     SC213014  56.473  43.930  83.882
 2003DT     SC313015  56.490  44.114  84.148
 2004DC     BB113016  56.958  44.135  83.497
 2004DC     BB213017  56.648  43.995  83.374
 2004DC     BB313018  56.513  44.147  83.336
 2004DC     SC113019  56.468  44.181  83.592
 2004DC     SC213020  56.269  44.115  83.639
 2004DC     SC313021  56.458  44.297  83.829
 2005DG     BB113022  56.550  43.981  82.961
 2005DG     BB213023  56.203  43.995  83.061
 2005DG     BB313024  56.128  44.175  83.024
 2005DG     SC113025  56.204  44.290  83.297
 2005DG     SC213026  56.012  44.375  83.510
 2005DG     SC313027  56.289  44.454  83.579
 2005DG     SC413028  56.348  44.356  83.317
 2006DC     BB113029  55.953  44.224  82.870
 2006DC     BB213030  55.679  44.275  83.099
 2006DC     BB313031  55.629  44.476  83.106
 2006DC     SC113032  55.842  44.532  83.249
 2006DC     SC213033  55.781  44.586  83.449
 2006DC     SC313034  56.074  44.636  83.319
 2007DG     BB113035  55.291  44.279  82.991
 2007DG     BB213036  55.230  44.488  83.279
 2007DG     BB313037  55.208  44.678  83.222
 2007DG     SC113038  55.506  44.744  83.246
 2007DG     SC213039  55.629  44.931  83.444
 2007DG     SC313040  55.828  44.846  83.243
 2007DG     SC413041  55.602  44.720  83.120
 2008DT     BB113042  55.015  44.793  83.252
 2008DT     BB213043  55.104  45.005  83.530
 2008DT     BB313044  55.134  45.199  83.464
 2008DT     SC113045  55.365  45.136  83.357
 2008DT     SC213046  55.523  45.229  83.470
 2008DT     SC313047  55.552  45.096  83.175
 2009DT     BB113048  54.901  45.279  83.582
 2009DT     BB213049  55.154  45.489  83.730
 2009DT     BB313050  55.184  45.657  83.613
 2009DT     SC113051  55.316  45.518  83.433
 2009DT     SC213052  55.523  45.575  83.437
 2009DT     SC313053  55.377  45.406  83.203
 2010DA     BB113054  55.114  45.789  84.004
 2010DA     BB213055  55.419  45.953  83.883
 2010DA     BB313056  55.370  46.106  83.742
 2010DA     SC113057  55.387  45.918  83.495
 2010DA     SC213058  55.536  45.885  83.298
 2010DA     SC313059  55.336  45.762  83.193
 2010DA     SC413060  55.251  45.846  83.447
 2011DA     BB113061  55.553  46.275  83.952
 2011DA     BB213062  55.784  46.332  83.673
 2011DA     BB313063  55.705  46.478  83.540
 2011DA     SC113064  55.557  46.272  83.360
 2011DA     SC213065  55.579  46.179  83.130
 2011DA     SC313066  55.333  46.110  83.157
 2011DA     SC413067  55.404  46.238  83.396
 2012DG     BB113068  55.975  46.589  83.631
 2012DG     BB213069  56.051  46.543  83.280
 2012DG     BB313070  55.965  46.686  83.173
 2012DG     SC113071  55.705  46.531  83.129
 2012DG     SC213072  55.605  46.426  82.868
 2012DG     SC313073  55.399  46.398  83.079
 2012DG     SC413074  55.587  46.545  83.237
 2013DA     BB113075  56.287  46.694  83.053
 2013DA     BB213076  56.155  46.630  82.717
 2013DA     BB313077  56.048  46.801  82.646
 2013DA     SC113078  55.774  46.706  82.758
 2013DA     SC213079  55.557  46.623  82.669
 2013DA     SC313080  55.460  46.691  82.897
 2013DA     SC413081  55.733  46.756  82.905
 2014DT     BB113082  56.132  46.867  82.502
 2014DT     BB213083  55.891  46.764  82.254
 2014DT     BB313084  55.760  46.919  82.214
 2014DT     SC113085  55.635  46.883  82.442
 2014DT     SC213086  55.438  46.805  82.403
 2014DT     SC313087  55.541  46.931  82.684
 2015DA     BB113088  55.911  46.774  81.848
 2015DA     BB213089  55.546  46.806  81.818
 2015DA     BB313090  55.490  47.011  81.811
 2015DA     SC113091  55.455  47.037  82.119
 2015DA     SC213092  55.268  47.067  82.282
 2015DA     SC313093  55.449  47.150  82.444
 2015DA     SC413094  55.582  47.087  82.205
 2016DG     BB113095  55.371  46.946  81.528
 2016DG     BB213096  55.058  47.032  81.688
 2016DG     BB313097  55.035  47.230  81.689
 2016DG     SC113098  55.175  47.271  81.958
 2016DG     SC213099  55.047  47.364  82.210
 2016DG     SC313100  55.341  47.354  82.239
 2016DG     SC413101  55.334  47.292  81.960
 2017DG     BB113102  54.750  47.211  81.516
 2017DG     BB213103  54.590  47.352  81.808
 2017DG     BB313104  54.603  47.550  81.803
 2017DG     SC113105  54.869  47.561  81.954
 2017DG     SC213106  54.912  47.673  82.227
 2017DG     SC313107  55.170  47.608  82.098
 2017DG     SC413108  55.006  47.553  81.870
 2018DA     BB113109  54.258  47.564  81.846
 2018DA     BB213110  54.304  47.743  82.163
 2018DA     BB313111  54.349  47.949  82.126
 2018DA     SC113112  54.657  47.906  82.119
 2018DA     SC213113  54.855  47.963  82.260
 2018DA     SC313114  54.992  47.923  82.047
 2018DA     SC413115  54.725  47.877  81.976
 2019DC     BB113116  54.216  48.077  82.188
 2019DC     BB213117  54.401  48.189  82.477
 2019DC     BB313118  54.485  48.374  82.439
 2019DC     SC113119  54.669  48.268  82.285
 2019DC     SC213120  54.860  48.283  82.381
 2019DC     SC313121  54.810  48.213  82.069
 2020DT     BB113122  54.310  48.456  82.615
 2020DT     BB213123  54.632  48.547  82.749
 2020DT     BB313124  54.698  48.723  82.663
 2020DT     SC113125  54.756  48.600  82.438
 2020DT     SC213126  54.970  48.595  82.413
 2020DT     SC313127  54.750  48.533  82.183
 2021DT     BB113128  54.657  48.805  82.905
 2021DT     BB213129  55.005  48.873  82.834
 2021DT     BB313130  55.021  49.044  82.719
 2021DT     SC113131  54.938  48.918  82.505
 2021DT     SC213132  55.101  48.897  82.366
 2021DT     SC313133  54.787  48.851  82.299
 2022DA     BB113134  55.283  49.050  83.049
 2022DA     BB213135  55.470  49.149  82.749
 2022DA     BB313136  55.405  49.340  82.681
 2022DA     SC113137  55.186  49.226  82.492
 2022DA     SC213138  55.146  49.206  82.247
 2022DA     SC313139  54.899  49.175  82.310
 2022DA     SC413140  55.037  49.210  82.552
 2023DG     BB113141  55.704  49.402  82.729
 2023DG     BB213142  55.701  49.466  82.373
 2023DG     BB313143  55.623  49.645  82.337
 2023DG     SC113144  55.336  49.544  82.314
 2023DG     SC213145  55.170  49.543  82.066
 2023DG     SC313146  55.007  49.470  82.302
 2023DG     SC413147  55.246  49.534  82.446
 2024DA     BB113148  55.908  49.706  82.148
 2024DA     BB213149  55.701  49.773  81.854
 2024DA     BB313150  55.609  49.964  81.870
 2024DA     SC113151  55.353  49.857  82.010
 2024DA     SC213152  55.112  49.826  81.956
 2024DA     SC313153  55.076  49.817  82.210
 2024DA     SC413154  55.352  49.855  82.171
 2025DA     BB113155  55.749  50.005  81.575
 2025DA     BB213156  55.412  50.060  81.441
 2025DA     BB313157  55.341  50.254  81.496
 2025DA     SC113158  55.208  50.157  81.760
 2025DA     SC213159  54.977  50.127  81.851
 2025DA     SC313160  55.089  50.132  82.082
 2025DA     SC413161  55.296  50.164  81.895
 2026DT     BB113162  55.312  50.394  81.351
 2026DT     BB213163  54.952  50.389  81.353
 2026DT     BB313164  54.879  50.558  81.448
 2026DT     SC113165  54.943  50.462  81.684
 2026DT     SC213166  54.764  50.414  81.792
 2026DT     SC313167  55.062  50.439  81.918
 2027DA     BB113168  54.684  50.551  81.076
 2027DA     BB213169  54.429  50.610  81.333
 2027DA     BB313170  54.442  50.811  81.405
 2027DA     SC113171  54.639  50.741  81.635
 2027DA     SC213172  54.636  50.729  81.884
 2027DA     SC313173  54.891  50.747  81.868
 2027DA     SC413174  54.797  50.755  81.604
 2028DA     BB113175  54.120  50.832  81.324
 2028DA     BB213176  54.050  50.903  81.677
 2028DA     BB313177  54.100  51.105  81.723
 2028DA     SC113178  54.392  51.040  81.807
 2028DA     SC213179  54.528  51.035  82.016
 2028DA     SC313180  54.731  51.049  81.860
 2028DA     SC413181  54.506  51.050  81.693
 2029DA     BB113182  53.786  51.150  81.835
 2029DA     BB213183  53.926  51.227  82.165
 2029DA     BB313184  53.994  51.429  82.171
 2029DA     SC113185  54.283  51.359  82.079
 2029DA     SC213186  54.512  51.354  82.177
 2029DA     SC313187  54.594  51.362  81.934
 2029DA     SC413188  54.314  51.366  81.921
 2030DA     BB113189  53.796  51.495  82.437
 2030DA     BB213190  54.098  51.563  82.633
 2030DA     BB313191  54.165  51.763  82.599
 2030DA     SC113192  54.351  51.686  82.361
 2030DA     SC213193  54.595  51.673  82.315
 2030DA     SC313194  54.528  51.681  82.068
 2030DA     SC413195  54.289  51.693  82.213
 2031DG     BB113196  54.123  51.863  82.907
 2031DG     BB213197  54.484  51.891  82.907
 2031DG     BB313198  54.537  52.075  82.854
 2031DG     SC113199  54.549  52.012  82.555
 2031DG     SC213200  54.796  52.010  82.386
 2031DG     SC313201  54.553  51.984  82.219
 2031DG     SC413202  54.417  52.028  82.467
 2032DA     BB113203  54.732  52.110  83.143
 2032DA     BB213204  55.035  52.142  82.939
 2032DA     BB313205  55.055  52.342  82.868
 2032DA     SC113206  54.898  52.290  82.605
 2032DA     SC213207  54.947  52.275  82.360
 2032DA     SC313208  54.696  52.317  82.329
 2032DA     SC413209  54.740  52.318  82.606
 2033DA     BB113210  55.348  52.309  83.010
 2033DA     BB213211  55.493  52.351  82.675
 2033DA     BB313212  55.488  52.557  82.618
 2033DA     SC113213  55.209  52.539  82.482
 2033DA     SC213214  55.116  52.549  82.251
 2033DA     SC313215  54.893  52.603  82.366
 2033DA     SC413216  55.080  52.573  82.572
 2034DT     BB113217  55.664  52.645  82.596
 2034DT     BB213218  55.661  52.651  82.235
 2034DT     BB313219  55.620  52.842  82.168
 2034DT     SC113220  55.366  52.817  82.232
 2034DT     SC213221  55.248  52.808  82.052
 2034DT     SC313222  55.135  52.860  82.351
 2035DT     BB113223  55.875  52.859  82.088
 2035DT     BB213224  55.681  52.916  81.790
 2035DT     BB313225  55.628  53.116  81.777
 2035DT     SC113226  55.447  53.088  81.965
 2035DT     SC213227  55.251  53.106  81.879
 2035DT     SC313228  55.321  53.118  82.195
 2036DG     BB113229  55.833  53.019  81.439
 2036DG     BB213230  55.514  53.171  81.362
 2036DG     BB313231  55.525  53.368  81.387
 2036DG     SC113232  55.442  53.360  81.681
 2036DG     SC213233  55.188  53.470  81.795
 2036DG     SC313234  55.374  53.387  82.011
 2036DG     SC413235  55.555  53.343  81.793
 2037DA     BB113236  55.395  53.386  81.068
 2037DA     BB213237  55.105  53.569  81.197
 2037DA     BB313238  55.158  53.771  81.239
 2037DA     SC113239  55.238  53.714  81.535
 2037DA     SC213240  55.151  53.765  81.763
 2037DA     SC313241  55.390  53.714  81.843
 2037DA     SC413242  55.392  53.679  81.564
 2038DG     BB113243  54.937  53.821  81.031
 2038DG     BB213244  54.770  53.970  81.315
 2038DG     BB313245  54.838  54.155  81.345
 2038DG     SC113246  55.064  54.068  81.532
 2038DG     SC213247  55.084  54.132  81.823
 2038DG     SC313248  55.334  54.007  81.725
 2038DG     SC413249  55.206  54.029  81.470
 2039DT     BB113250  54.696  54.300  81.332
 2039DT     BB213251  54.650  54.389  81.678
 2039DT     BB313252  54.756  54.561  81.722
 2039DT     SC113253  54.983  54.429  81.722
 2039DT     SC213254  55.060  54.419  81.922
 2039DT     SC313255  55.226  54.353  81.652
 2040DA     BB113256  54.359  54.560  81.860
 2040DA     BB213257  54.580  54.669  82.132
 2040DA     BB313258  54.665  54.859  82.086
 2040DA     SC113259  54.916  54.740  81.946
 2040DA     SC213260  55.161  54.722  81.990
 2040DA     SC313261  55.183  54.681  81.738
 2040DA     SC413262  54.909  54.718  81.787
 2041DG     BB113263  54.520  54.888  82.355
 2041DG     BB213264  54.855  54.967  82.468
 2041DG     BB313265  54.907  55.147  82.403
 2041DG     SC113266  55.027  55.046  82.140
 2041DG     SC213267  55.316  55.054  82.065
 2041DG     SC313268  55.149  54.971  81.835
 2041DG     SC413269  54.932  55.030  82.012
 2042DT     BB113270  54.947  55.267  82.551
 2042DT     BB213271  55.304  55.313  82.526
 2042DT     BB313272  55.346  55.481  82.412
 2042DT     SC113273  55.283  55.355  82.190
 2042DT     SC213274  55.461  55.322  82.074
 2042DT     SC313275  55.157  55.293  81.967
 2043DT     BB113276  55.422  55.605  82.636
 2043DT     BB213277  55.705  55.638  82.415
 2043DT     BB313278  55.678  55.801  82.290
 2043DT     SC113279  55.501  55.672  82.146
 2043DT     SC213280  55.584  55.630  81.952
 2043DT     SC313281  55.271  55.609  82.034
 2044DT     BB113282  55.867  55.943  82.426
 2044DT     BB213283  55.980  55.950  82.084
 2044DT     BB313284  55.892  56.109  81.984
 2044DT     SC113285  55.662  55.983  81.971
 2044DT     SC213286  55.622  55.929  81.766
 2044DT     SC313287  55.407  55.928  82.009
 2045DA     BB113288  56.304  56.148  81.918
 2045DA     BB213289  56.137  56.182  81.594
 2045DA     BB313290  56.039  56.371  81.580
 2045DA     SC113291  55.769  56.268  81.696
 2045DA     SC213292  55.538  56.225  81.614
 2045DA     SC313293  55.470  56.238  81.861
 2045DA     SC413294  55.747  56.281  81.855
 2046DT     BB113295  56.108  56.502  81.446
 2046DT     BB213296  55.836  56.473  81.210
 2046DT     BB313297  55.711  56.637  81.226
 2046DT     SC113298  55.609  56.548  81.450
 2046DT     SC213299  55.405  56.488  81.417
 2046DT     SC313300  55.544  56.534  81.706
 2047DT     BB113301  55.804  56.731  80.989
 2047DT     BB213302  55.446  56.712  80.945
 2047DT     BB313303  55.357  56.886  81.014
 2047DT     SC113304  55.392  56.813  81.264
 2047DT     SC213305  55.202  56.768  81.352
 2047DT     SC313306  55.479  56.815  81.513
 2048DC     BB113307  55.305  56.978  80.759
 2048DC     BB213308  54.982  56.983  80.920
 2048DC     BB313309  54.955  57.164  81.017
 2048DC     SC113310  55.119  57.095  81.209
 2048DC     SC213311  55.008  57.065  81.391
 2048DC     SC313312  55.329  57.097  81.368
 2049DA     BB113313  54.611  57.155  80.770
 2049DA     BB213314  54.497  57.242  81.107
 2049DA     BB313315  54.540  57.447  81.149
 2049DA     SC113316  54.820  57.388  81.272
 2049DA     SC213317  54.928  57.394  81.497
 2049DA     SC313318  55.150  57.401  81.368
 2049DA     SC413319  54.947  57.393  81.174
 2050DG     BB113320  54.228  57.551  81.182
 2050DG     BB213321  54.321  57.608  81.527
 2050DG     BB313322  54.386  57.795  81.550
 2050DG     SC113323  54.678  57.726  81.489
 2050DG     SC213324  54.905  57.740  81.683
 2050DG     SC313325  55.004  57.691  81.408
 2050DG     SC413326  54.729  57.730  81.337
 2051DT     BB113327  54.291  58.020  81.688
 2051DT     BB213328  54.515  58.002  81.971
 2051DT     BB313329  54.640  58.167  81.972
 2051DT     SC113330  54.782  58.071  81.774
 2051DT     SC213331  54.977  58.015  81.847
 2051DT     SC313332  54.893  58.050  81.536
 2052DT     BB113333  54.520  58.321  82.193
 2052DT     BB213334  54.859  58.261  82.302
 2052DT     BB313335  54.978  58.424  82.255
 2052DT     SC113336  54.982  58.359  82.001
 2052DT     SC213337  55.179  58.292  81.947
 2052DT     SC313338  54.943  58.373  81.741
 2053DG     BB113339  55.000  58.368  82.657
 2053DG     BB213340  55.327  58.356  82.503
 2053DG     BB313341  55.394  58.541  82.470
 2053DG     SC113342  55.271  58.563  82.191
 2053DG     SC213343  55.421  58.580  81.933
 2053DG     SC313344  55.133  58.628  81.890
 2053DG     SC413345  55.121  58.617  82.176
 2054DA     BB113346  55.658  58.399  82.627
 2054DA     BB213347  55.862  58.466  82.329
 2054DA     BB313348  55.907  58.674  82.315
 2054DA     SC113349  55.656  58.740  82.143
 2054DA     SC213350  55.606  58.809  81.909
 2054DA     SC313351  55.381  58.891  82.002
 2054DA     SC413352  55.523  58.786  82.221
 2055DT     BB113353  56.074  58.675  82.326
 2055DT     BB213354  56.141  58.752  81.980
 2055DT     BB313355  56.160  58.957  81.956
 2055DT     SC113356  55.901  58.991  81.978
 2055DT     SC213357  55.820  59.051  81.788
 2055DT     SC313358  55.668  59.072  82.074
 2056DC     BB113359  56.397  58.872  81.907
 2056DC     BB213360  56.295  59.056  81.614
 2056DC     BB313361  56.308  59.260  81.650
 2056DC     SC113362  56.093  59.256  81.799
 2056DC     SC213363  55.934  59.359  81.698
 2056DC     SC313364  55.937  59.277  82.011
 2057DA     BB113365  56.482  59.146  81.283
 2057DA     BB213366  56.279  59.446  81.229
 2057DA     BB313367  56.366  59.614  81.327
 2057DA     SC113368  56.210  59.570  81.593
 2057DA     SC213369  56.028  59.683  81.720
 2057DA     SC313370  56.116  59.552  81.923
 2057DA     SC413371  56.281  59.481  81.707
 2058DT     BB113372  56.432  59.752  81.211
 2058DT     BB213373  56.187  60.006  81.286
 2058DT     BB313374  56.267  60.143  81.420
 2058DT     SC113375  56.244  59.974  81.619
 2058DT     SC213376  56.091  60.043  81.754
 2058DT     SC313377  56.311  59.814  81.817
 2059DA     BB113378  56.132  60.387  81.103
 2059DA     BB213379  56.022  60.545  81.415
 2059DA     BB313380  56.186  60.639  81.513
 2059DA     SC113381  56.261  60.388  81.681
 2059DA     SC213382  56.254  60.317  81.920
 2059DA     SC313383  56.429  60.142  81.852
 2059DA     SC413384  56.370  60.287  81.619
 2060DC     BB113385  56.230  60.871  81.540
 2060DC     BB213386  56.160  60.889  81.894
 2060DC     BB313387  56.335  60.924  81.999
 2060DC     SC113388  56.414  60.677  81.964
 2060DC     SC213389  56.409  60.573  82.152
 2060DC     SC313390  56.559  60.471  81.884
 2061DA     BB113391  56.129  61.269  82.144
 2061DA     BB213392  56.269  61.104  82.440
 2061DA     BB313393  56.474  61.157  82.463
 2061DA     SC113394  56.580  60.918  82.295
 2061DA     SC213395  56.706  60.706  82.334
 2061DA     SC313396  56.760  60.715  82.084
 2061DA     SC413397  56.604  60.942  82.138
 2062DA     BB113398  56.422  61.277  82.776
 2062DA     BB213399  56.639  61.010  82.903
 2062DA     BB313400  56.844  61.069  82.892
 2062DA     SC113401  56.887  60.953  82.607
 2062DA     SC213402  57.012  60.764  82.502
 2062DA     SC313403  56.989  60.897  82.284
 2062DA     SC413404  56.864  61.051  82.482
 2063DG     BB113405  56.861  61.044  83.206
 2063DG     BB213406  57.082  60.768  83.127
 2063DG     BB313407  57.269  60.835  83.107
 2063DG     SC113408  57.242  60.890  82.807
 2063DG     SC213409  57.385  60.745  82.588
 2063DG     SC313410  57.241  60.980  82.482
 2063DG     SC413411  57.188  61.032  82.758
 2064DG     BB113412  57.354  60.629  83.344
 2064DG     BB213413  57.553  60.461  83.093
 2064DG     BB313414  57.729  60.553  83.074
 2064DG     SC113415  57.633  60.747  82.858
 2064DG     SC213416  57.723  60.751  82.574
 2064DG     SC313417  57.557  60.988  82.635
 2064DG     SC413418  57.568  60.886  82.902
 2065DT     BB113419  57.900  60.438  83.117
 2065DT     BB213420  58.032  60.376  82.787
 2065DT     BB313421  58.189  60.505  82.748
 2065DT     SC113422  58.025  60.707  82.713
 2065DT     SC213423  58.025  60.764  82.505
 2065DT     SC313424  57.906  60.940  82.750
 2066DA     BB113425  58.308  60.112  82.662
 2066DA     BB213426  58.404  60.325  82.379
 2066DA     BB313427  58.567  60.452  82.433
 2066DA     SC113428  58.385  60.684  82.532
 2066DA     SC213429  58.325  60.915  82.459
 2066DA     SC313430  58.251  60.951  82.702
 2066DA     SC413431  58.346  60.687  82.688
 2067DT     BB113432  58.751  60.426  82.345
 2067DT     BB213433  58.743  60.719  82.135
 2067DT     BB313434  58.868  60.865  82.213
 2067DT     SC113435  58.696  60.920  82.404
 2067DT     SC213436  58.611  61.115  82.369
 2067DT     SC313437  58.594  60.946  82.645
 2068DT     BB113438  59.077  60.834  82.023
 2068DT     BB213439  58.992  61.184  82.000
 2068DT     BB313440  59.110  61.294  82.130
 2068DT     SC113441  58.973  61.210  82.337
 2068DT     SC213442  58.859  61.374  82.419
 2068DT     SC313443  58.917  61.091  82.565
 2069DT     BB113444  59.287  61.412  81.935
 2069DT     BB213445  59.142  61.696  82.103
 2069DT     BB313446  59.264  61.755  82.260
 2069DT     SC113447  59.189  61.551  82.406
 2069DT     SC213448  59.069  61.622  82.570
 2069DT     SC313449  59.201  61.327  82.544
 2070DT     BB113450  59.356  61.986  82.130
 2070DT     BB213451  59.196  62.107  82.430
 2070DT     BB313452  59.335  62.121  82.583
 2070DT     SC113453  59.339  61.861  82.615
 2070DT     SC213454  59.247  61.810  82.802
 2070DT     SC313455  59.428  61.613  82.621
 2071DG     BB113456  59.145  62.471  82.515
 2071DG     BB213457  59.109  62.360  82.858
 2071DG     BB313458  59.277  62.395  82.958
 2071DG     SC113459  59.403  62.124  82.891
 2071DG     SC213460  59.461  61.905  83.085
 2071DG     SC313461  59.579  61.845  82.821
 2071DG     SC413462  59.489  62.110  82.757
 2072DT     BB113463  59.219  62.498  83.097
 2072DT     BB213464  59.242  62.269  83.376
 2072DT     BB313465  59.429  62.283  83.463
 2072DT     SC113466  59.539  62.150  83.265
 2072DT     SC213467  59.602  61.957  83.335
 2072DT     SC313468  59.693  62.097  83.057
 2073DT     BB113469  59.270  62.372  83.643
 2073DT     BB213470  59.448  62.097  83.794
 2073DT     BB313471  59.640  62.155  83.842
 2073DT     SC113472  59.714  62.146  83.590
 2073DT     SC213473  59.849  61.982  83.561
 2073DT     SC313474  59.799  62.226  83.354
 2074DA     BB113475  59.453  61.962  84.166
 2074DA     BB213476  59.791  61.826  84.129
 2074DA     BB313477  59.937  61.973  84.181
 2074DA     SC113478  59.963  62.086  83.893
 2074DA     SC213479  60.133  62.089  83.710
 2074DA     SC313480  60.002  62.289  83.619
 2074DA     SC413481  59.869  62.210  83.853
 2075DT     BB113482  60.050  61.944  84.347
 2075DT     BB213483  60.362  61.873  84.180
 2075DT     BB313484  60.487  62.037  84.191
 2075DT     SC113485  60.348  62.166  84.010
 2075DT     SC213486  60.463  62.183  83.830
 2075DT     SC313487  60.195  62.350  83.900
 2076DG     BB113488  60.703  61.743  84.378
 2076DG     BB213489  60.900  61.905  84.121
 2076DG     BB313490  60.975  62.076  84.190
 2076DG     SC113491  60.735  62.244  84.102
 2076DG     SC213492  60.737  62.454  83.890
 2076DG     SC313493  60.480  62.455  84.036
 2076DG     SC413494  60.610  62.261  84.201
 2077DA     BB113495  61.298  61.977  84.099
 2077DA     BB213496  61.325  62.263  83.871
 2077DA     BB313497  61.374  62.440  83.980
 2077DA     SC113498  61.077  62.522  84.027
 2077DA     SC213499  60.920  62.700  83.950
 2077DA     SC313500  60.783  62.641  84.159
 2077DA     SC413501  61.007  62.471  84.163
 2078DT     BB113502  61.552  62.526  83.946
 2078DT     BB213503  61.429  62.802  83.749
 2078DT     BB313504  61.434  62.976  83.860
 2078DT     SC113505  61.225  62.901  84.001
 2078DT     SC213506  61.057  63.026  83.951
 2078DT     SC313507  61.078  62.830  84.208
 2079DC     BB113508  61.629  63.048  83.698
 2079DC     BB213509  61.378  63.305  83.664
 2079DC     BB313510  61.399  63.445  83.815
 2079DC     SC113511  61.296  63.280  83.992
 2079DC     SC213512  61.103  63.353  84.052
 2079DC     SC313513  61.277  63.125  84.204
 2080DG     BB113514  61.399  63.609  83.442
 2080DG     BB213515  61.163  63.772  83.662
 2080DG     BB313516  61.260  63.884  83.795
 2080DG     SC113517  61.288  63.660  84.002
 2080DG     SC213518  61.156  63.651  84.269
 2080DG     SC313519  61.354  63.433  84.242
 2080DG     SC413520  61.415  63.563  83.995
 2081DG     BB113521  61.071  64.121  83.676
 2081DG     BB213522  60.949  64.159  84.015
 2081DG     BB313523  61.083  64.257  84.125
 2081DG     SC113524  61.231  64.004  84.214
 2081DG     SC213525  61.243  63.897  84.492
 2081DG     SC313526  61.428  63.750  84.315
 2081DG     SC413527  61.350  63.948  84.123
 2082DA     BB113528  60.824  64.473  84.218
 2082DA     BB213529  60.888  64.399  84.572
 2082DA     BB313530  61.067  64.495  84.637
 2082DA     SC113531  61.252  64.255  84.565
 2082DA     SC213532  61.387  64.084  84.685
 2082DA     SC313533  61.513  64.057  84.464
 2082DA     SC413534  61.319  64.254  84.419
 2083DT     BB113535  61.076  64.664  84.780
 2083DT     BB213536  61.210  64.479  85.059
 2083DT     BB313537  61.407  64.534  85.092
 2083DT     SC113538  61.488  64.398  84.882
 2083DT     SC213539  61.602  64.227  84.947
 2083DT     SC313540  61.592  64.346  84.646
 2084DT     BB113541  61.361  64.691  85.324
 2084DT     BB213542  61.604  64.447  85.433
 2084DT     BB313543  61.796  64.521  85.406
 2084DT     SC113544  61.782  64.485  85.146
 2084DT     SC213545  61.916  64.326  85.090
 2084DT     SC313546  61.777  64.538  84.888
 2085DT     BB113547  61.839  64.564  85.678
 2085DT     BB213548  62.106  64.342  85.579
 2085DT     BB313549  62.271  64.452  85.518
 2085DT     SC113550  62.155  64.515  85.291
 2085DT     SC213551  62.255  64.414  85.130
 2085DT     SC313552  62.046  64.661  85.100
 2086DT     BB113553  62.396  64.373  85.742
 2086DT     BB213554  62.606  64.257  85.473
 2086DT     BB313555  62.736  64.407  85.415
 2086DT     SC113556  62.544  64.537  85.292
 2086DT     SC213557  62.576  64.529  85.080
 2086DT     SC313558  62.373  64.729  85.233
 2087DT     BB113559  62.914  64.247  85.520
 2087DT     BB213560  63.017  64.293  85.178
 2087DT     BB313561  63.120  64.472  85.159
 2087DT     SC113562  62.897  64.610  85.176
 2087DT     SC213563  62.854  64.699  84.985
 2087DT     SC313564  62.716  64.778  85.267
 2088DG     BB113565  63.329  64.152  85.017
 2088DG     BB213566  63.316  64.423  84.778
 2088DG     BB313567  63.433  64.572  84.837
 2088DG     SC113568  63.214  64.713  84.998
 2088DG     SC213569  63.094  64.978  84.935
 2088DG     SC313570  63.004  64.883  85.200
 2088DG     SC413571  63.193  64.672  85.152
 2089DA     BB113572  63.564  64.555  84.514
 2089DA     BB213573  63.488  64.910  84.465
 2089DA     BB313574  63.621  65.031  84.580
 2089DA     SC113575  63.437  65.038  84.830
 2089DA     SC213576  63.297  65.205  84.951
 2089DA     SC313577  63.313  65.044  85.150
 2089DA     SC413578  63.460  64.926  84.943
 2090DG     BB113579  63.743  65.171  84.315
 2090DG     BB213580  63.616  65.477  84.462
 2090DG     BB313581  63.749  65.552  84.589
 2090DG     SC113582  63.640  65.399  84.831
 2090DG     SC213583  63.506  65.520  85.069
 2090DG     SC313584  63.559  65.232  85.113
 2090DG     SC413585  63.696  65.252  84.862
 2091DA     BB113586  63.818  65.900  84.460
 2091DA     BB213587  63.696  66.054  84.769
 2091DA     BB313588  63.853  66.071  84.911
 2091DA     SC113589  63.797  65.794  85.042
 2091DA     SC213590  63.709  65.707  85.258
 2091DA     SC313591  63.826  65.487  85.194
 2091DA     SC413592  63.878  65.667  84.985
 2092DT     BB113593  64.006  66.279  85.025
 2092DT     BB213594  63.831  66.276  85.340
 2092DT     BB313595  63.962  66.228  85.493
 2092DT     SC113596  63.966  65.975  85.421
 2092DT     SC213597  63.865  65.857  85.570
 2092DT     SC313598  64.057  65.743  85.335
 2093DC     BB113599  64.008  66.492  85.627
 2093DC     BB213600  63.877  66.286  85.892
 2093DC     BB313601  64.032  66.209  86.005
 2093DC     SC113602  64.093  66.036  85.816
 2093DC     SC213603  64.043  65.838  85.883
 2093DC     SC313604  64.230  65.912  85.629
 2094DA     BB113605  63.780  66.396  86.282
 2094DA     BB213606  63.835  66.052  86.397
 2094DA     BB313607  64.028  66.033  86.486
 2094DA     SC113608  64.170  65.954  86.221
 2094DA     SC213609  64.276  65.751  86.121
 2094DA     SC313610  64.394  65.916  85.964
 2094DA     SC413611  64.234  66.072  86.133
 2095DC     BB113612  64.030  65.991  86.679
 2095DC     BB213613  64.120  65.643  86.641
 2095DC     BB313614  64.319  65.616  86.691
 2095DC     SC113615  64.398  65.725  86.466
 2095DC     SC213616  64.485  65.574  86.340
 2095DC     SC313617  64.512  65.894  86.299
 2096DT     BB113618  64.230  65.488  86.907
 2096DT     BB213619  64.435  65.247  86.734
 2096DT     BB313620  64.634  65.273  86.786
 2096DT     SC113621  64.652  65.489  86.637
 2096DT     SC213622  64.778  65.449  86.468
 2096DT     SC313623  64.685  65.742  86.570
 2097DA     BB113624  64.531  64.870  86.833
 2097DA     BB213625  64.842  64.887  86.640
 2097DA     BB313626  65.004  64.944  86.767
 2097DA     SC113627  64.969  65.249  86.714
 2097DA     SC213628  65.092  65.431  86.595
 2097DA     SC313629  64.955  65.591  86.743
 2097DA     SC413630  64.876  65.332  86.815
 2098DT     BB113631  65.144  64.810  86.795
 2098DT     BB213632  65.395  64.964  86.586
 2098DT     BB313633  65.537  65.058  86.703
 2098DT     SC113634  65.371  65.255  86.758
 2098DT     SC213635  65.440  65.434  86.660
 2098DT     SC313636  65.217  65.418  86.895
 2099DT     BB113637  65.716  64.865  86.640
 2099DT     BB213638  65.873  65.173  86.536
 2099DT     BB313639  65.976  65.257  86.694
 2099DT     SC113640  65.753  65.336  86.808
 2099DT     SC213641  65.741  65.550  86.799
 2099DT     SC313642  65.559  65.357  86.986
 2100DT     BB113643  66.200  65.190  86.565
 2100DT     BB213644  66.220  65.548  86.610
 2100DT     BB313645  66.298  65.592  86.796
 2100DT     SC113646  66.073  65.526  86.915
 2100DT     SC213647  65.980  65.704  86.994
 2100DT     SC313648  65.903  65.398  87.069
 2101DG     BB113649  66.511  65.769  86.499
 2101DG     BB213650  66.407  66.007  86.752
 2101DG     BB313651  66.519  65.986  86.915
 2101DG     SC113652  66.336  65.778  87.045
 2101DG     SC213653  66.175  65.817  87.293
 2101DG     SC313654  66.168  65.534  87.207
 2101DG     SC413655  66.359  65.623  87.012
 2102DT     BB113656  66.604  66.152  86.950
 2102DT     BB213657  66.430  66.269  87.243
 2102DT     BB313658  66.529  66.206  87.414
 2102DT     SC113659  66.441  65.960  87.383
 2102DT     SC213660  66.298  65.916  87.538
 2102DT     SC313661  66.441  65.700  87.343
 2103DA     BB113662  66.443  66.619  87.432
 2103DA     BB213663  66.344  66.464  87.749
 2103DA     BB313664  66.517  66.400  87.858
 2103DA     SC113665  66.520  66.115  87.733
 2103DA     SC213666  66.477  65.881  87.807
 2103DA     SC313667  66.613  65.812  87.601
 2103DA     SC413668  66.609  66.093  87.601
 2104DG     BB113669  66.407  66.598  88.072
 2104DG     BB213670  66.377  66.295  88.268
 2104DG     BB313671  66.555  66.245  88.344
 2104DG     SC113672  66.636  66.073  88.104
 2104DG     SC213673  66.675  65.777  88.105
 2104DG     SC313674  66.766  65.894  87.849
 2104DG     SC413675  66.711  66.143  87.980
 2105DA     BB113676  66.405  66.230  88.659
 2105DA     BB213677  66.499  65.877  88.687
 2105DA     BB313678  66.707  65.859  88.733
 2105DA     SC113679  66.797  65.847  88.436
 2105DA     SC213680  66.891  65.678  88.278
 2105DA     SC313681  66.967  65.880  88.140
 2105DA     SC413682  66.836  65.985  88.365
 2106DC     BB113683  66.766  65.782  88.916
 2106DC     BB213684  66.868  65.459  88.791
 2106DC     BB313685  67.075  65.447  88.787
 2106DC     SC113686  67.088  65.602  88.576
 2106DC     SC213687  67.151  65.486  88.406
 2106DC     SC313688  67.145  65.810  88.424
 2107DG     BB113689  66.935  65.143  89.019
 2107DG     BB213690  67.149  65.022  88.753
 2107DG     BB313691  67.340  65.054  88.800
 2107DG     SC113692  67.350  65.332  88.672
 2107DG     SC213693  67.510  65.408  88.432
 2107DG     SC313694  67.391  65.647  88.560
 2107DG     SC413695  67.310  65.459  88.760
 2108DA     BB113696  67.348  64.724  88.711
 2108DA     BB213697  67.589  64.809  88.448
 2108DA     BB313698  67.778  64.859  88.534
 2108DA     SC113699  67.713  65.163  88.557
 2108DA     SC213700  67.787  65.376  88.451
 2108DA     SC313701  67.691  65.490  88.659
 2108DA     SC413702  67.649  65.215  88.695
 2109DT     BB113703  67.877  64.742  88.470
 2109DT     BB213704  68.056  64.956  88.241
 2109DT     BB313705  68.225  65.033  88.333
 2109DT     SC113706  68.080  65.201  88.474
 2109DT     SC213707  68.116  65.401  88.405
 2109DT     SC313708  67.970  65.319  88.683
 2110DT     BB113709  68.323  64.880  88.154
 2110DT     BB213710  68.463  65.207  88.094
 2110DT     BB313711  68.608  65.249  88.235
 2110DT     SC113712  68.427  65.291  88.421
 2110DT     SC213713  68.423  65.500  88.470
 2110DT     SC313714  68.287  65.262  88.642
 2111DT     BB113715  68.765  65.225  88.030
 2111DT     BB213716  68.841  65.548  88.171
 2111DT     BB313717  68.963  65.525  88.337
 2111DT     SC113718  68.761  65.440  88.482
 2111DT     SC213719  68.712  65.588  88.630
 2111DT     SC313720  68.611  65.280  88.629
 2112DC     BB113721  69.192  65.613  88.206
 2112DC     BB213722  69.180  65.820  88.502
 2112DC     BB313723  69.279  65.727  88.658
 2112DC     SC113724  69.081  65.558  88.692
 2112DC     SC213725  68.982  65.601  88.878
 2112DC     SC313726  68.949  65.330  88.703
 2113DT     BB113727  69.529  65.879  88.659
 2113DT     BB213728  69.418  65.905  89.001
 2113DT     BB313729  69.505  65.756  89.116
 2113DT     SC113730  69.347  65.574  89.013
 2113DT     SC213731  69.208  65.507  89.163
 2113DT     SC313732  69.268  65.360  88.880
 2114DA     BB113733  69.629  66.094  89.336
 2114DA     BB213734  69.483  65.860  89.577
 2114DA     BB313735  69.623  65.706  89.626
 2114DA     SC113736  69.527  65.515  89.400
 2114DA     SC213737  69.406  65.298  89.381
 2114DA     SC313738  69.510  65.283  89.147
 2114DA     SC413739  69.603  65.523  89.258
 2115DA     BB113740  69.581  65.793  89.943
 2115DA     BB213741  69.444  65.458  90.002
 2115DA     BB313742  69.602  65.317  90.025
 2115DA     SC113743  69.615  65.245  89.723
 2115DA     SC213744  69.561  65.050  89.577
 2115DA     SC313745  69.720  65.159  89.407
 2115DA     SC413746  69.719  65.327  89.632
 2116DG     BB113747  69.478  65.273  90.306
 2116DG     BB213748  69.407  64.944  90.174
 2116DG     BB313749  69.566  64.827  90.195
 2116DG     SC113750  69.687  64.902  89.924
 2116DG     SC213751  69.719  64.719  89.690
 2116DG     SC313752  69.858  64.976  89.643
 2116DG     SC413753  69.784  65.028  89.915
 2117DT     BB113754  69.550  64.650  90.317
 2117DT     BB213755  69.539  64.390  90.068
 2117DT     BB313756  69.723  64.295  90.056
 2117DT     SC113757  69.827  64.499  89.928
 2117DT     SC213758  69.868  64.443  89.724
 2117DT     SC313759  69.983  64.706  89.875
 2118DT     BB113760  69.607  64.084  90.171
 2118DT     BB213761  69.744  63.957  89.862
 2118DT     BB313762  69.943  63.907  89.889
 2118DT     SC113763  70.014  64.160  89.889
 2118DT     SC213764  70.125  64.203  89.710
 2118DT     SC313765  70.109  64.391  89.974
 2119DT     BB113766  69.882  63.641  89.881
 2119DT     BB213767  70.134  63.681  89.625
 2119DT     BB313768  70.323  63.662  89.708
 2119DT     SC113769  70.307  63.900  89.818
 2119DT     SC213770  70.444  64.034  89.720
 2119DT     SC313771  70.296  64.088  90.003
 2120DC     BB113772  70.370  63.406  89.602
 2120DC     BB213773  70.653  63.599  89.488
 2120DC     BB313774  70.806  63.588  89.627
 2120DC     SC113775  70.682  63.752  89.790
 2120DC     SC213776  70.787  63.939  89.798
 2120DC     SC313777  70.558  63.841  90.005
 2121DA     BB113778  71.008  63.453  89.281
 2121DA     BB213779  71.220  63.712  89.433
 2121DA     BB313780  71.328  63.631  89.598
 2121DA     SC113781  71.109  63.705  89.807
 2121DA     SC213782  71.082  63.865  89.997
 2121DA     SC313783  70.895  63.707  90.076
 2121DA     SC413784  70.998  63.594  89.841
 2122DA     BB113785  71.602  63.738  89.443
 2122DA     BB213786  71.656  63.962  89.728
 2122DA     BB313787  71.742  63.856  89.892
 2122DA     SC113788  71.468  63.780  90.018
 2122DA     SC213789  71.336  63.840  90.222
 2122DA     SC313790  71.210  63.620  90.179
 2122DA     SC413791  71.403  63.640  89.976
 2123DT     BB113792  71.937  63.898  89.957
 2123DT     BB213793  71.840  64.081  90.252
 2123DT     BB313794  71.878  63.968  90.421
 2123DT     SC113795  71.672  63.812  90.374
 2123DT     SC213796  71.520  63.848  90.522
 2123DT     SC313797  71.532  63.596  90.318
 2124DA     BB113798  72.054  64.344  90.477
 2124DA     BB213799  71.850  64.270  90.772
 2124DA     BB313800  71.945  64.122  90.893
 2124DA     SC113801  71.806  63.882  90.752
 2124DA     SC213802  71.634  63.711  90.806
 2124DA     SC313803  71.734  63.577  90.611
 2124DA     SC413804  71.883  63.814  90.628
 2125DC     BB113805  72.002  64.182  91.070
 2125DC     BB213806  71.740  64.017  91.255
 2125DC     BB313807  71.814  63.847  91.346
 2125DC     SC113808  71.820  63.717  91.118
 2125DC     SC213809  71.669  63.564  91.120
 2125DC     SC313810  71.914  63.588  90.909
 2126DC     BB113811  71.785  63.980  91.574
 2126DC     BB213812  71.583  63.683  91.610
 2126DC     BB313813  71.701  63.524  91.671
 2126DC     SC113814  71.805  63.500  91.431
 2126DC     SC213815  71.734  63.318  91.341
 2126DC     SC313816  71.984  63.497  91.237
 2127DT     BB113817  71.574  63.545  91.902
 2127DT     BB213818  71.511  63.208  91.789
 2127DT     BB313819  71.670  63.086  91.840
 2127DT     SC113820  71.820  63.188  91.651
 2127DT     SC213821  71.852  63.041  91.497
 2127DT     SC313822  72.018  63.317  91.533
 2128DT     BB113823  71.499  62.980  92.009
 2128DT     BB213824  71.609  62.708  91.799
 2128DT     BB313825  71.790  62.635  91.867
 2128DT     SC113826  71.918  62.843  91.771
 2128DT     SC213827  72.040  62.782  91.604
 2128DT     SC313828  72.063  63.063  91.763
 2129DC     BB113829  71.647  62.426  91.933
 2129DC     BB213830  71.904  62.301  91.713
 2129DC     BB313831  72.080  62.273  91.818
 2129DC     SC113832  72.125  62.531  91.825
 2129DC     SC213833  72.294  62.578  91.700
 2129DC     SC313834  72.162  62.774  91.922
 2130DA     BB113835  71.978  61.938  91.583
 2130DA     BB213836  72.331  62.019  91.527
 2130DA     BB313837  72.446  61.978  91.702
 2130DA     SC113838  72.411  62.264  91.821
 2130DA     SC213839  72.554  62.464  91.863
 2130DA     SC313840  72.371  62.533  92.030
 2130DA     SC413841  72.288  62.288  91.921
 2131DA     BB113842  72.609  61.821  91.465
 2131DA     BB213843  72.897  62.026  91.561
 2131DA     BB313844  72.971  61.966  91.752
 2131DA     SC113845  72.792  62.166  91.910
 2131DA     SC213846  72.822  62.374  92.044
 2131DA     SC313847  72.592  62.318  92.144
 2131DA     SC413848  72.649  62.113  91.961
 2132DT     BB113849  73.149  61.884  91.756
 2132DT     BB213850  73.324  62.158  91.914
 2132DT     BB313851  73.355  62.116  92.114
 2132DT     SC113852  73.103  62.164  92.170
 2132DT     SC213853  73.088  62.345  92.285
 2132DT     SC313854  72.854  62.124  92.248
 2133DG     BB113855  73.734  62.166  91.969
 2133DG     BB213856  73.683  62.367  92.265
 2133DG     BB313857  73.700  62.254  92.428
 2133DG     SC113858  73.404  62.177  92.437
 2133DG     SC213859  73.209  62.258  92.647
 2133DG     SC313860  73.090  62.057  92.466
 2133DG     SC413861  73.355  62.048  92.356
 2134DC     BB113862  73.872  62.266  92.605
 2134DC     BB213863  73.682  62.414  92.874
 2134DC     BB313864  73.647  62.273  93.022
 2134DC     SC113865  73.465  62.153  92.876
 2134DC     SC213866  73.271  62.185  92.963
 2134DC     SC313867  73.344  61.966  92.735
 2135DT     BB113868  73.837  62.372  93.212
 2135DT     BB213869  73.526  62.371  93.395
 2135DT     BB313870  73.504  62.191  93.496
 2135DT     SC113871  73.446  62.064  93.274
 2135DT     SC213872  73.239  62.006  93.277
 2135DT     SC313873  73.465  61.894  93.073
 2136DT     BB113874  73.559  62.297  93.753
 2136DT     BB213875  73.232  62.148  93.788
 2136DT     BB313876  73.250  61.951  93.851
 2136DT     SC113877  73.329  61.874  93.613
 2136DT     SC213878  73.175  61.753  93.523
 2136DT     SC313879  73.482  61.776  93.422
 2137DA     BB113880  72.985  62.137  94.117
 2137DA     BB213881  72.828  61.827  93.999
 2137DA     BB313882  72.917  61.658  94.093
 2137DA     SC113883  73.132  61.618  93.872
 2137DA     SC213884  73.183  61.454  93.691
 2137DA     SC313885  73.421  61.550  93.698
 2137DA     SC413886  73.274  61.691  93.892
 2138DA     BB113887  72.604  61.604  94.162
 2138DA     BB213888  72.635  61.294  93.969
 2138DA     BB313889  72.742  61.147  94.081
 2138DA     SC113890  73.021  61.230  93.971
 2138DA     SC213891  73.195  61.136  93.820
 2138DA     SC313892  73.355  61.301  93.934
 2138DA     SC413893  73.105  61.339  94.055
 2139DT     BB113894  72.638  60.995  94.126
 2139DT     BB213895  72.789  60.767  93.891
 2139DT     BB313896  72.923  60.644  93.989
 2139DT     SC113897  73.099  60.838  94.008
 2139DT     SC213898  73.266  60.796  93.880
 2139DT     SC313899  73.258  61.018  94.116
 2140DA     BB113900  72.662  60.415  93.754
 2140DA     BB213901  73.004  60.303  93.687
 2140DA     BB313902  73.082  60.197  93.855
 2140DA     SC113903  73.204  60.450  93.989
 2140DA     SC213904  73.430  60.544  94.035
 2140DA     SC313905  73.313  60.686  94.213
 2140DA     SC413906  73.113  60.529  94.096
 2141DT     BB113907  73.119  60.007  93.827
 2141DT     BB213908  73.479  60.028  93.822
 2141DT     BB313909  73.556  59.963  94.003
 2141DT     SC113910  73.482  60.184  94.123
 2141DT     SC213911  73.657  60.299  94.174
 2141DT     SC313912  73.358  60.347  94.289
 2142DA     BB113913  73.755  59.755  93.697
 2142DA     BB213914  74.008  59.883  93.931
 2142DA     BB313915  74.003  59.772  94.113
 2142DA     SC113916  73.797  59.961  94.251
 2142DA     SC213917  73.795  60.127  94.437
 2142DA     SC313918  73.541  60.091  94.439
 2142DA     SC413919  73.642  59.923  94.237
 2143DA     BB113920  74.323  59.732  94.049
 2143DA     BB213921  74.391  59.901  94.367
 2143DA     BB313922  74.354  59.769  94.531
 2143DA     SC113923  74.056  59.853  94.563
 2143DA     SC213924  73.917  59.978  94.728
 2143DA     SC313925  73.718  59.858  94.620
 2143DA     SC413926  73.946  59.767  94.484
 2144DA     BB113927  74.663  59.851  94.614
 2144DA     BB213928  74.526  59.984  94.927
 2144DA     BB313929  74.478  59.825  95.060
 2144DA     SC113930  74.185  59.795  94.959
 2144DA     SC213931  73.955  59.839  95.045
 2144DA     SC313932  73.879  59.674  94.863
 2144DA     SC413933  74.158  59.689  94.842
 2145DT     BB113934  74.585  59.802  95.236
 2145DT     BB213935  74.328  59.918  95.461
 2145DT     BB313936  74.245  59.758  95.562
 2145DT     SC113937  74.111  59.682  95.350
 2145DT     SC213938  73.901  59.715  95.381
 2145DT     SC313939  74.032  59.533  95.147
 2146DT     BB113940  74.370  59.830  95.796
 2146DT     BB213941  74.021  59.817  95.885
 2146DT     BB313942  73.970  59.625  95.943
 2146DT     SC113943  73.975  59.540  95.695
 2146DT     SC213944  73.774  59.494  95.632
 2146DT     SC313945  74.046  59.404  95.481
 2147DA     BB113946  73.842  59.871  96.258
 2147DA     BB213947  73.564  59.647  96.174
 2147DA     BB313948  73.603  59.450  96.248
 2147DA     SC113949  73.744  59.354  95.987
 2147DA     SC213950  73.697  59.196  95.800
 2147DA     SC313951  73.951  59.203  95.759
 2147DA     SC413952  73.903  59.370  95.979
 2148DA     BB113953  73.310  59.474  96.404
 2148DA     BB213954  73.197  59.186  96.207
 2148DA     BB313955  73.272  59.005  96.290
 2148DA     SC113956  73.531  59.006  96.118
 2148DA     SC213957  73.628  58.874  95.929
 2148DA     SC313958  73.853  58.971  96.003
 2148DA     SC413959  73.662  59.075  96.180
 2149DA     BB113960  72.957  58.900  96.306
 2149DA     BB213961  73.048  58.631  96.075
 2149DA     BB313962  73.146  58.473  96.180
 2149DA     SC113963  73.432  58.589  96.140
 2149DA     SC213964  73.637  58.531  96.011
 2149DA     SC313965  73.759  58.683  96.179
 2149DA     SC413966  73.489  58.685  96.255
 2150DA     BB113967  72.914  58.270  96.055
 2150DA     BB213968  73.184  58.094  95.880
 2150DA     BB313969  73.281  57.958  96.012
 2150DA     SC113970  73.494  58.164  96.107
 2150DA     SC213971  73.739  58.202  96.081
 2150DA     SC313972  73.718  58.349  96.290
 2150DA     SC413973  73.461  58.251  96.238
 2151DA     BB113974  73.211  57.732  95.784
 2151DA     BB213975  73.572  57.687  95.739
 2151DA     BB313976  73.651  57.563  95.894
 2151DA     SC113977  73.716  57.801  96.084
 2151DA     SC213978  73.918  57.916  96.173
 2151DA     SC313979  73.763  58.002  96.358
 2151DA     SC413980  73.603  57.843  96.191
 2152DT     BB113981  73.723  57.394  95.834
 2152DT     BB213982  74.071  57.484  95.865
 2152DT     BB313983  74.150  57.399  96.036
 2152DT     SC113984  74.027  57.573  96.189
 2152DT     SC213985  74.172  57.706  96.277
 2152DT     SC313986  73.864  57.671  96.372
 2153DA     BB113987  74.394  57.322  95.703
 2153DA     BB213988  74.605  57.450  95.975
 2153DA     BB313989  74.623  57.304  96.130
 2153DA     SC113990  74.377  57.408  96.289
 2153DA     SC213991  74.332  57.526  96.504
 2153DA     SC313992  74.094  57.434  96.481
 2153DA     SC413993  74.234  57.341  96.257
 2154DA     BB113994  74.934  57.381  96.063
 2154DA     BB213995  74.958  57.486  96.414
 2154DA     BB313996  74.954  57.315  96.542
 2154DA     SC113997  74.645  57.316  96.576
 2154DA     SC213998  74.479  57.364  96.755
 2154DA     SC313999  74.316  57.226  96.612
 2154DA     SC414000  74.559  57.226  96.473
 2155DT     BB114001  75.118  57.279  96.644
 2155DT     BB214002  74.995  57.380  96.968
 2155DT     BB314003  74.948  57.214  97.081
 2155DT     SC114004  74.729  57.172  96.942
 2155DT     SC214005  74.557  57.213  97.064
 2155DT     SC314006  74.555  57.054  96.782
 2156DT     BB114007  75.169  57.243  97.244
 2156DT     BB214008  74.891  57.240  97.473
 2156DT     BB314009  74.847  57.046  97.529
 2156DT     SC114010  74.736  56.996  97.296
 2156DT     SC214011  74.524  56.973  97.321
 2156DT     SC314012  74.694  56.887  97.059
 2157DC     BB114013  74.954  57.068  97.787
 2157DC     BB214014  74.613  56.966  97.843
 2157DC     BB314015  74.601  56.760  97.849
 2157DC     SC114016  74.629  56.743  97.588
 2157DC     SC214017  74.444  56.678  97.500
 2157DC     SC314018  74.733  56.683  97.353
 2158DA     BB114019  74.419  56.892  98.202
 2158DA     BB214020  74.187  56.661  98.036
 2158DA     BB314021  74.253  56.459  98.061
 2158DA     SC114022  74.423  56.457  97.801
 2158DA     SC214023  74.414  56.349  97.576
 2158DA     SC314024  74.665  56.401  97.564
 2158DA     SC414025  74.578  56.496  97.813
 2159DC     BB114026  74.134  56.346  98.166
 2159DC     BB214027  73.996  56.167  97.884
 2159DC     BB314028  74.078  55.978  97.873
 2159DC     SC114029  74.305  56.073  97.781
 2159DC     SC214030  74.328  56.015  97.576
 2159DC     SC314031  74.561  56.134  97.767
 2160DG     BB114032  73.672  55.989  97.880
 2160DG     BB214033  73.801  55.807  97.595
 2160DG     BB314034  73.874  55.632  97.654
 2160DG     SC114035  74.156  55.738  97.705
 2160DG     SC214036  74.401  55.665  97.551
 2160DG     SC314037  74.471  55.825  97.790
 2160DG     SC414038  74.192  55.798  97.849
 2161DC     BB114039  73.780  55.513  97.553
 2161DC     BB214040  74.028  55.390  97.322
 2161DC     BB314041  74.126  55.227  97.404
 2161DC     SC114042  74.263  55.381  97.566
 2161DC     SC214043  74.470  55.381  97.506
 2161DC     SC314044  74.354  55.487  97.789
 2162DC     BB114045  73.998  55.145  97.200
 2162DC     BB214046  74.343  55.055  97.149
 2162DC     BB314047  74.396  54.902  97.278
 2162DC     SC114048  74.404  55.066  97.483
 2162DC     SC214049  74.608  55.091  97.547
 2162DC     SC314050  74.344  55.177  97.715
 2163DA     BB114051  74.518  54.823  96.881
 2163DA     BB214052  74.793  54.740  97.109
 2163DA     BB314053  74.742  54.572  97.229
 2163DA     SC114054  74.619  54.743  97.459
 2163DA     SC214055  74.675  54.803  97.694
 2163DA     SC314056  74.426  54.862  97.717
 2163DA     SC414057  74.462  54.773  97.453
 2164DT     BB114058  74.843  54.408  97.200
 2164DT     BB214059  75.030  54.407  97.509
 2164DT     BB314060  74.944  54.276  97.644
 2164DT     SC114061  74.746  54.442  97.691
 2164DT     SC214062  74.764  54.520  97.891
 2164DT     SC314063  74.501  54.540  97.702
 2165DT     BB114064  75.140  54.081  97.615
 2165DT     BB214065  75.130  54.140  97.971
 2165DT     BB314066  74.989  54.016  98.059
 2165DT     SC114067  74.791  54.161  97.966
 2165DT     SC214068  74.695  54.263  98.129
 2165DT     SC314069  74.576  54.228  97.830
 2166DA     BB114070  75.334  53.920  98.283
 2166DA     BB214071  75.065  53.987  98.523
 2166DA     BB314072  74.932  53.820  98.533
 2166DA     SC114073  74.743  53.927  98.309
 2166DA     SC214074  74.512  54.018  98.291
 2166DA     SC314075  74.529  53.956  98.043
 2166DA     SC414076  74.772  53.880  98.158
 2167DT     BB114077  74.904  53.682  98.711
 2167DT     BB214078  74.588  53.819  98.816
 2167DT     BB314079  74.436  53.682  98.782
 2167DT     SC114080  74.441  53.729  98.524
 2167DT     SC214081  74.261  53.832  98.467
 2167DT     SC314082  74.471  53.689  98.265
 2168DT     BB114083  74.405  53.620  99.052
 2168DT     BB214084  74.080  53.738  98.948
 2168DT     BB314085  73.966  53.581  98.878
 2168DT     SC114086  74.103  53.570  98.654
 2168DT     SC214087  73.979  53.636  98.491
 2168DT     SC314088  74.260  53.479  98.464
 2169DC     BB114089  73.811  53.595  99.100
 2169DC     BB214090  73.584  53.648  98.823
 2169DC     BB314091  73.517  53.466  98.752
 2169DC     SC114092  73.747  53.417  98.636
 2169DC     SC214093  73.722  53.426  98.422
 2169DC     SC314094  73.976  53.300  98.579
 2170DT     BB114095  73.283  53.536  98.855
 2170DT     BB214096  73.222  53.488  98.502
 2170DT     BB314097  73.191  53.287  98.463
 2170DT     SC114098  73.447  53.234  98.490
 2170DT     SC214099  73.529  53.182  98.298
 2170DT     SC314100  73.670  53.131  98.586
 2171DT     BB114101  72.947  53.369  98.416
 2171DT     BB214102  73.059  53.214  98.110
 2171DT     BB314103  73.040  53.008  98.124
 2171DT     SC114104  73.249  52.991  98.282
 2171DT     SC214105  73.410  52.895  98.177
 2171DT     SC314106  73.394  52.944  98.497
 2172DG     BB114107  72.850  53.164  97.798
 2172DG     BB214108  73.074  52.894  97.710
 2172DG     BB314109  72.996  52.720  97.766
 2172DG     SC114110  73.123  52.725  98.045
 2172DG     SC214111  73.334  52.538  98.145
 2172DG     SC314112  73.230  52.707  98.364
 2172DG     SC414113  73.044  52.796  98.165
 2173DT     BB114114  72.967  52.594  97.614
 2173DT     BB214115  73.223  52.346  97.666
 2173DT     BB314116  73.145  52.184  97.769
 2173DT     SC114117  73.142  52.318  97.994
 2173DT     SC214118  73.290  52.237  98.128
 2173DT     SC314119  73.050  52.439  98.210
 2174DA     BB114120  73.351  52.047  97.429
 2174DA     BB214121  73.455  51.843  97.715
 2174DA     BB314122  73.295  51.715  97.776
 2174DA     SC114123  73.177  51.919  97.980
 2174DA     SC214124  73.156  51.942  98.227
 2174DA     SC314125  72.968  52.108  98.175
 2174DA     SC414126  73.062  52.018  97.927
 2175DA     BB114127  73.535  51.491  97.741
 2175DA     BB214128  73.483  51.409  98.094
 2175DA     BB314129  73.300  51.302  98.120
 2175DA     SC114130  73.129  51.557  98.166
 2175DA     SC214131  73.007  51.666  98.355
 2175DA     SC314132  72.877  51.791  98.172
 2175DA     SC414133  73.059  51.624  98.038
 2176DA     BB114134  73.492  51.078  98.271
 2176DA     BB214135  73.288  51.129  98.571
 2176DA     BB314136  73.100  51.031  98.551
 2176DA     SC114137  72.957  51.278  98.426
 2176DA     SC214138  72.782  51.443  98.492
 2176DA     SC314139  72.757  51.486  98.240
 2176DA     SC414140  72.956  51.290  98.266
 2177DT     BB114141  73.039  50.857  98.669
 2177DT     BB214142  72.802  51.028  98.881
 2177DT     BB314143  72.609  50.974  98.829
 2177DT     SC114144  72.617  51.122  98.612
 2177DT     SC214145  72.485  51.290  98.636
 2177DT     SC314146  72.616  51.188  98.357
 2178DT     BB114147  72.564  50.806  99.052
 2178DT     BB214148  72.294  51.044  99.067
 2178DT     BB314149  72.131  50.972  98.962
 2178DT     SC114150  72.246  51.025  98.732
 2178DT     SC214151  72.144  51.187  98.636
 2178DT     SC314152  72.356  50.987  98.495
 2179DT     BB114153  71.974  50.905  99.188
 2179DT     BB214154  71.764  51.133  99.003
 2179DT     BB314155  71.644  51.027  98.872
 2179DT     SC114156  71.845  50.982  98.710
 2179DT     SC214157  71.818  51.094  98.528
 2179DT     SC314158  72.028  50.852  98.571
 2180DA     BB114159  71.376  51.263  99.092
 2180DA     BB214160  71.304  51.317  98.737
 2180DA     BB314161  71.197  51.150  98.657
 2180DA     SC114162  71.454  50.998  98.569
 2180DA     SC214163  71.568  50.935  98.356
 2180DA     SC314164  71.688  50.757  98.496
 2180DA     SC414165  71.517  50.893  98.673
 2181DT     BB114166  71.001  51.174  98.592
 2181DT     BB214167  71.077  51.175  98.239
 2181DT     BB314168  71.015  50.997  98.153
 2181DT     SC114169  71.215  50.866  98.260
 2181DT     SC214170  71.353  50.807  98.105
 2181DT     SC314171  71.347  50.692  98.408
 2182DC     BB114172  70.822  51.138  98.030
 2182DC     BB214173  71.012  50.986  97.763
 2182DC     BB314174  70.942  50.795  97.726
 2182DC     SC114175  71.056  50.703  97.944
 2182DC     SC214176  71.219  50.574  97.889
 2182DC     SC314177  71.083  50.595  98.183
 2183DT     BB114178  70.846  50.893  97.497
 2183DT     BB214179  71.065  50.623  97.399
 2183DT     BB314180  70.963  50.443  97.407
 2183DT     SC114181  70.974  50.440  97.670
 2183DT     SC214182  71.107  50.283  97.733
 2183DT     SC314183  70.896  50.441  97.921
 2184DC     BB114184  70.970  50.443  97.140
 2184DC     BB214185  71.127  50.133  97.237
 2184DC     BB314186  70.982  49.988  97.269
 2184DC     SC114187  70.914  50.097  97.498
 2184DC     SC214188  70.974  49.968  97.659
 2184DC     SC314189  70.768  50.217  97.682
 2185DA     BB114190  71.258  49.820  97.001
 2185DA     BB214191  71.197  49.575  97.266
 2185DA     BB314192  71.005  49.485  97.242
 2185DA     SC114193  70.859  49.695  97.420
 2185DA     SC214194  70.747  49.702  97.643
 2185DA     SC314195  70.631  49.913  97.555
 2185DA     SC414196  70.796  49.823  97.346
 2186DC     BB114197  70.982  49.280  97.191
 2186DC     BB214198  70.875  49.166  97.516
 2186DC     BB314199  70.673  49.120  97.511
 2186DC     SC114200  70.608  49.374  97.510
 2186DC     SC214201  70.517  49.426  97.698
 2186DC     SC314202  70.509  49.605  97.428
 2187DA     BB114203  70.853  48.773  97.662
 2187DA     BB214204  70.577  48.859  97.887
 2187DA     BB314205  70.390  48.806  97.799
 2187DA     SC114206  70.348  49.082  97.662
 2187DA     SC214207  70.198  49.279  97.686
 2187DA     SC314208  70.265  49.334  97.445
 2187DA     SC414209  70.401  49.098  97.511
 2188DG     BB114210  70.358  48.620  98.047
 2188DG     BB214211  70.086  48.845  98.124
 2188DG     BB314212  69.922  48.789  98.027
 2188DG     SC114213  69.981  48.957  97.779
 2188DG     SC214214  69.823  49.193  97.685
 2188DG     SC314215  70.024  49.114  97.483
 2188DG     SC414216  70.069  48.894  97.661
 2189DA     BB114217  69.785  48.812  98.340
 2189DA     BB214218  69.550  49.065  98.214
 2189DA     BB314219  69.399  48.973  98.096
 2189DA     SC114220  69.555  49.004  97.829
 2189DA     SC214221  69.537  49.136  97.618
 2189DA     SC314222  69.689  48.956  97.516
 2189DA     SC414223  69.649  48.881  97.783
 2190DT     BB114224  69.245  49.001  98.177
 2190DT     BB214225  69.115  49.247  97.948
 2190DT     BB314226  68.990  49.156  97.810
 2190DT     SC114227  69.195  49.054  97.681
 2190DT     SC214228  69.214  49.150  97.490
 2190DT     SC314229  69.360  48.875  97.580
 2191DC     BB114230  68.812  49.292  97.941
 2191DC     BB214231  68.776  49.393  97.597
 2191DC     BB314232  68.666  49.252  97.493
 2191DC     SC114233  68.870  49.087  97.488
 2191DC     SC214234  68.943  49.071  97.286
 2191DC     SC314235  69.016  48.872  97.532
 2192DT     BB114236  68.484  49.440  97.491
 2192DT     BB214237  68.530  49.349  97.145
 2192DT     BB314238  68.424  49.177  97.102
 2192DT     SC114239  68.599  49.028  97.230
 2192DT     SC214240  68.708  48.908  97.088
 2192DT     SC314241  68.702  48.864  97.409
 2193DT     BB114242  68.240  49.319  96.961
 2193DT     BB214243  68.347  49.063  96.731
 2193DT     BB314244  68.235  48.891  96.760
 2193DT     SC114245  68.365  48.834  96.981
 2193DT     SC214246  68.487  48.661  96.949
 2193DT     SC314247  68.412  48.789  97.236
 2194DC     BB114248  68.072  48.920  96.529
 2194DC     BB214249  68.211  48.588  96.493
 2194DC     BB314250  68.085  48.449  96.581
 2194DC     SC114251  68.160  48.522  96.822
 2194DC     SC214252  68.275  48.364  96.911
 2194DC     SC314253  68.147  48.618  97.067
 2195DC     BB114254  67.971  48.338  96.341
 2195DC     BB214255  68.105  48.050  96.511
 2195DC     BB314256  67.959  47.963  96.630
 2195DC     SC114257  67.979  48.155  96.808
 2195DC     SC214258  68.067  48.077  96.988
 2195DC     SC314259  67.913  48.361  96.959
 2196DA     BB114260  68.086  47.642  96.392
 2196DA     BB214261  68.096  47.529  96.741
 2196DA     BB314262  67.900  47.483  96.810
 2196DA     SC114263  67.844  47.770  96.916
 2196DA     SC214264  67.816  47.883  97.137
 2196DA     SC314265  67.698  48.068  97.005
 2196DA     SC414266  67.772  47.874  96.817
 2197DC     BB114267  67.847  47.286  96.859
 2197DC     BB214268  67.859  47.331  97.216
 2197DC     BB314269  67.667  47.330  97.294
 2197DC     SC114270  67.620  47.571  97.203
 2197DC     SC214271  67.607  47.709  97.368
 2197DC     SC314272  67.512  47.767  97.064
 2198DT     BB114273  67.728  47.093  97.401
 2198DT     BB214274  67.640  47.303  97.681
 2198DT     BB314275  67.435  47.303  97.709
 2198DT     SC114276  67.399  47.458  97.500
 2198DT     SC214277  67.333  47.652  97.566
 2198DT     SC314278  67.319  47.540  97.263
 2199DT     BB114279  67.495  47.168  97.926
 2199DT     BB214280  67.313  47.458  98.040
 2199DT     BB314281  67.109  47.426  98.021
 2199DT     SC114282  67.120  47.457  97.761
 2199DT     SC214283  67.021  47.640  97.707
 2199DT     SC314284  67.104  47.402  97.503
 2200DA     BB114285  67.210  47.576  98.401
 2200DA     BB214286  66.924  47.765  98.273
 2200DA     BB314287  66.750  47.642  98.267
 2200DA     SC114288  66.799  47.544  97.976
 2200DA     SC214289  66.696  47.574  97.751
 2200DA     SC314290  66.819  47.357  97.689
 2200DA     SC414291  66.882  47.407  97.957
 2201DT     BB114292  66.608  47.693  98.388
 2201DT     BB214293  66.374  47.816  98.143
 2201DT     BB314294  66.228  47.674  98.107
 2201DT     SC114295  66.394  47.528  97.966
 2201DT     SC214296  66.336  47.533  97.759
 2201DT     SC314297  66.544  47.323  97.893
 2202DA     BB114298  66.022  48.030  98.196
 2202DA     BB214299  65.870  47.885  97.896
 2202DA     BB314300  65.755  47.712  97.947
 2202DA     SC114301  65.992  47.514  97.908
 2202DA     SC214302  66.058  47.334  97.748
 2202DA     SC314303  66.214  47.253  97.935
 2202DA     SC414304  66.082  47.479  98.037
 2203DT     BB114305  65.540  47.704  97.932
 2203DT     BB214306  65.522  47.491  97.642
 2203DT     BB314307  65.459  47.302  97.697
 2203DT     SC114308  65.693  47.245  97.801
 2203DT     SC214309  65.791  47.097  97.680
 2203DT     SC314310  65.877  47.184  97.980
 2204DT     BB114311  65.202  47.331  97.591
 2204DT     BB214312  65.329  47.036  97.428
 2204DT     BB314313  65.284  46.868  97.540
 2204DT     SC114314  65.469  46.926  97.717
 2204DT     SC214315  65.629  46.783  97.703
 2204DT     SC314316  65.582  46.991  97.947
 2205DA     BB114317  65.133  46.778  97.159
 2205DA     BB214318  65.337  46.492  97.266
 2205DA     BB314319  65.232  46.376  97.411
 2205DA     SC114320  65.345  46.533  97.655
 2205DA     SC214321  65.503  46.493  97.843
 2205DA     SC314322  65.387  46.691  97.957
 2205DA     SC414323  65.260  46.658  97.709
 2206DA     BB114324  65.293  46.130  97.202
 2206DA     BB214325  65.488  45.974  97.470
 2206DA     BB314326  65.359  45.883  97.614
 2206DA     SC114327  65.338  46.138  97.792
 2206DA     SC214328  65.415  46.212  98.017
 2206DA     SC314329  65.230  46.388  98.000
 2206DA     SC414330  65.217  46.239  97.763
 2207DA     BB114331  65.548  45.624  97.547
 2207DA     BB214332  65.648  45.631  97.900
 2207DA     BB314333  65.491  45.553  98.022
 2207DA     SC114334  65.356  45.830  98.067
 2207DA     SC214335  65.323  45.991  98.255
 2207DA     SC314336  65.130  46.084  98.114
 2207DA     SC414337  65.239  45.873  97.965
 2208DC     BB114338  65.526  45.382  98.119
 2208DC     BB214339  65.567  45.527  98.447
 2208DC     BB314340  65.398  45.492  98.561
 2208DC     SC114341  65.261  45.673  98.429
 2208DC     SC214342  65.223  45.842  98.558
 2208DC     SC314343  65.076  45.782  98.275
 2209DT     BB114344  65.536  45.313  98.711
 2209DT     BB214345  65.415  45.556  98.948
 2209DT     BB314346  65.225  45.505  99.011
 2209DT     SC114347  65.121  45.584  98.783
 2209DT     SC214348  65.004  45.762  98.816
 2209DT     SC314349  64.996  45.575  98.551
 2210DA     BB114350  65.458  45.567  99.354
 2210DA     BB214351  65.148  45.760  99.391
 2210DA     BB314352  64.984  45.629  99.431
 2210DA     SC114353  64.910  45.592  99.131
 2210DA     SC214354  64.726  45.658  98.977
 2210DA     SC314355  64.809  45.466  98.828
 2210DA     SC414356  64.976  45.467  99.053
 2211DG     BB114357  64.965  45.795  99.692
 2211DG     BB214358  64.648  45.895  99.550
 2211DG     BB314359  64.510  45.756  99.587
 2211DG     SC114360  64.566  45.598  99.331
 2211DG     SC214361  64.380  45.566  99.100
 2211DG     SC314362  64.615  45.389  99.071
 2211DG     SC414363  64.678  45.484  99.334
 2212DT     BB114364  64.332  45.804  99.709
 2212DT     BB214365  64.074  45.823  99.457
 2212DT     BB314366  63.957  45.653  99.462
 2212DT     SC114367  64.145  45.510  99.348
 2212DT     SC214368  64.084  45.457  99.149
 2212DT     SC314369  64.330  45.324  99.313
 2213DT     BB114370  63.760  45.804  99.564
 2213DT     BB214371  63.617  45.654  99.268
 2213DT     BB314372  63.541  45.467  99.313
 2213DT     SC114373  63.782  45.364  99.325
 2213DT     SC214374  63.810  45.231  99.158
 2213DT     SC314375  63.998  45.247  99.422
 2214DG     BB114376  63.233  45.686  99.160
 2214DG     BB214377  63.261  45.366  98.994
 2214DG     BB314378  63.183  45.223  99.108
 2214DG     SC114379  63.444  45.162  99.254
 2214DG     SC214380  63.601  44.908  99.234
 2214DG     SC314381  63.709  45.082  99.448
 2214DG     SC414382  63.480  45.244  99.387
 2215DA     BB114383  62.983  45.121  98.838
 2215DA     BB214384  63.125  44.784  98.853
 2215DA     BB314385  63.039  44.674  99.014
 2215DA     SC114386  63.255  44.761  99.221
 2215DA     SC214387  63.443  44.656  99.346
 2215DA     SC314388  63.421  44.856  99.506
 2215DA     SC414389  63.224  44.892  99.309
 2216DG     BB114390  62.911  44.451  98.817
 2216DG     BB214391  63.131  44.222  98.990
 2216DG     BB314392  63.040  44.149  99.152
 2216DG     SC114393  63.137  44.372  99.338
 2216DG     SC214394  63.328  44.339  99.565
 2216DG     SC314395  63.210  44.610  99.565
 2216DG     SC414396  63.050  44.505  99.352
 2217DT     BB114397  62.948  43.900  99.221
 2217DT     BB214398  63.204  43.806  99.458
 2217DT     BB314399  63.123  43.793  99.648
 2217DT     SC114400  63.110  44.054  99.670
 2217DT     SC214401  63.253  44.120  99.816
 2217DT     SC314402  63.009  44.296  99.696
 2218DG     BB114403  63.226  43.387  99.626
 2218DG     BB214404  63.368  43.534  99.925
 2218DG     BB314405  63.238  43.521 100.075
 2218DG     SC114406  63.105  43.790 100.014
 2218DG     SC214407  63.114  44.034 100.187
 2218DG     SC314408  62.923  44.070  99.965
 2218DG     SC414409  62.982  43.795  99.912
 2219DT     BB114410  63.248  43.387 100.310
 2219DT     BB214411  63.343  43.666 100.517
 2219DT     BB314412  63.193  43.707 100.654
 2219DT     SC114413  63.043  43.816 100.468
 2219DT     SC214414  63.030  44.028 100.502
 2219DT     SC314415  62.839  43.855 100.305
 2220DT     BB114416  63.352  43.614 100.854
 2220DT     BB214417  63.300  43.964 100.925
 2220DT     BB314418  63.132  43.988 101.043
 2220DT     SC114419  62.973  43.941 100.839
 2220DT     SC214420  62.871  44.123 100.785
 2220DT     SC314421  62.792  43.824 100.687
 2221DA     BB114422  63.492  44.192 101.117
 2221DA     BB214423  63.215  44.432 101.103
 2221DA     BB314424  63.081  44.400 101.266
 2221DA     SC114425  62.900  44.200 101.111
 2221DA     SC214426  62.670  44.195 101.016
 2221DA     SC314427  62.695  43.939 101.022
 2221DA     SC414428  62.935  44.043 101.124
 2222DA     BB114429  63.190  44.700 101.144
 2222DA     BB214430  62.830  44.769 101.130
 2222DA     BB314431  62.741  44.738 101.321
 2222DA     SC114432  62.674  44.438 101.268
 2222DA     SC214433  62.471  44.298 101.232
 2222DA     SC314434  62.620  44.101 101.298
 2222DA     SC414435  62.782  44.329 101.313
 2223DA     BB114436  62.654  45.015 101.151
 2223DA     BB214437  62.313  44.900 101.218
 2223DA     BB314438  62.280  44.882 101.428
 2223DA     SC114439  62.370  44.585 101.443
 2223DA     SC214440  62.266  44.362 101.482
 2223DA     SC314441  62.503  44.283 101.539
 2223DA     SC414442  62.525  44.556 101.476
 2224DT     BB114443  62.158  44.998 101.468
 2224DT     BB214444  61.894  44.771 101.561
 2224DT     BB314445  61.902  44.733 101.764
 2224DT     SC114446  62.111  44.577 101.736
 2224DT     SC214447  62.053  44.374 101.775
 2224DT     SC314448  62.357  44.486 101.757
 2225DT     BB114449  61.682  44.895 101.821
 2225DT     BB214450  61.600  44.584 101.986
 2225DT     BB314451  61.676  44.584 102.179
 2225DT     SC114452  61.920  44.546 102.091
 2225DT     SC214453  61.985  44.348 102.145
 2225DT     SC314454  62.176  44.589 102.042
 2226DA     BB114455  61.269  44.514 102.280
 2226DA     BB214456  61.465  44.274 102.476
 2226DA     BB314457  61.550  44.369 102.647
 2226DA     SC114458  61.814  44.449 102.502
 2226DA     SC214459  62.055  44.384 102.509
 2226DA     SC314460  62.097  44.610 102.395
 2226DA     SC414461  61.820  44.594 102.433
 2227DA     BB114462  61.406  44.161 102.885
 2227DA     BB214463  61.742  44.052 102.985
 2227DA     BB314464  61.822  44.184 103.133
 2227DA     SC114465  61.958  44.372 102.926
 2227DA     SC214466  62.189  44.430 102.853
 2227DA     SC314467  62.084  44.643 102.757
 2227DA     SC414468  61.874  44.499 102.874
 2228DA     BB114469  61.870  43.936 103.363
 2228DA     BB214470  62.231  43.996 103.338
 2228DA     BB314471  62.290  44.150 103.473
 2228DA     SC114472  62.250  44.379 103.267
 2228DA     SC214473  62.392  44.538 103.138
 2228DA     SC314474  62.179  44.678 103.113
 2228DA     SC414475  62.107  44.452 103.264
 2229DT     BB114476  62.425  44.123 103.661
 2229DT     BB214477  62.721  44.260 103.507
 2229DT     BB314478  62.773  44.438 103.598
 2229DT     SC114479  62.576  44.565 103.479
 2229DT     SC214480  62.657  44.702 103.334
 2229DT     SC314481  62.353  44.702 103.446
 2230DT     BB114482  62.988  44.316 103.713
 2230DT     BB214483  63.127  44.582 103.513
 2230DT     BB314484  63.138  44.757 103.624
 2230DT     SC114485  62.879  44.794 103.606
 2230DT     SC214486  62.840  44.964 103.480
 2230DT     SC314487  62.626  44.820 103.677
 2231DT     BB114488  63.395  44.711 103.604
 2231DT     BB214489  63.341  45.035 103.453
 2231DT     BB314490  63.334  45.181 103.600
 2231DT     SC114491  63.094  45.106 103.674
 2231DT     SC214492  62.952  45.258 103.619
 2231DT     SC314493  62.898  45.013 103.824
 2232DT     BB114494  63.546  45.233 103.466
 2232DT     BB214495  63.338  45.528 103.450
 2232DT     BB314496  63.346  45.630 103.630
 2232DT     SC114497  63.192  45.452 103.746
 2232DT     SC214498  63.000  45.540 103.788
 2232DT     SC314499  63.112  45.262 103.911
 2233DT     BB114500  63.470  45.798 103.477
 2233DT     BB214501  63.198  45.983 103.625
 2233DT     BB314502  63.247  46.038 103.819
 2233DT     SC114503  63.210  45.793 103.905
 2233DT     SC214504  63.034  45.787 104.030
 2233DT     SC314505  63.261  45.556 104.010
 2234DA     BB114506  63.102  46.369 103.604
 2234DA     BB214507  62.942  46.365 103.934
 2234DA     BB314508  63.083  46.412 104.086
 2234DA     SC114509  63.165  46.116 104.136
 2234DA     SC214510  63.139  45.945 104.315
 2234DA     SC314511  63.338  45.827 104.203
 2234DA     SC414512  63.291  46.059 104.053
 2235DT     BB114513  63.058  46.582 104.183
 2235DT     BB214514  62.954  46.444 104.500
 2235DT     BB314515  63.112  46.450 104.635
 2235DT     SC114516  63.231  46.249 104.516
 2235DT     SC214517  63.224  46.076 104.644
 2235DT     SC314518  63.412  46.111 104.382
 2236DA     BB114519  62.793  46.638 104.833
 2236DA     BB214520  62.943  46.400 105.068
 2236DA     BB314521  63.130  46.473 105.140
 2236DA     SC114522  63.297  46.339 104.915
 2236DA     SC214523  63.462  46.153 104.893
 2236DA     SC314524  63.531  46.267 104.674
 2236DA     SC414525  63.327  46.425 104.782
 2237DA     BB114526  63.003  46.429 105.444
 2237DA     BB214527  63.279  46.197 105.511
 2237DA     BB314528  63.458  46.306 105.552
 2237DA     SC114529  63.552  46.311 105.256
 2237DA     SC214530  63.732  46.209 105.117
 2237DA     SC314531  63.685  46.400 104.952
 2237DA     SC414532  63.509  46.439 105.167
 2238DT     BB114533  63.552  46.308 105.747
 2238DT     BB214534  63.834  46.098 105.666
 2238DT     BB314535  64.007  46.212 105.655
 2238DT     SC114536  63.935  46.312 105.423
 2238DT     SC214537  64.064  46.236 105.269
 2238DT     SC314538  63.865  46.489 105.241
 2239DA     BB114539  64.116  45.915 105.933
 2239DA     BB214540  64.388  45.936 105.688
 2239DA     BB314541  64.508  46.109 105.726
 2239DA     SC114542  64.342  46.295 105.540
 2239DA     SC214543  64.372  46.412 105.322
 2239DA     SC314544  64.179  46.562 105.400
 2239DA     SC414545  64.222  46.378 105.607
 2240DC     BB114546  64.732  46.117 105.806
 2240DC     BB214547  64.885  46.210 105.493
 2240DC     BB314548  64.959  46.403 105.505
 2240DC     SC114549  64.718  46.505 105.488
 2240DC     SC214550  64.694  46.603 105.299
 2240DC     SC314551  64.498  46.635 105.555
 2241DT     BB114552  65.251  46.354 105.535
 2241DT     BB214553  65.235  46.571 105.247
 2241DT     BB314554  65.264  46.767 105.304
 2241DT     SC114555  65.023  46.782 105.406
 2241DT     SC214556  64.902  46.912 105.285
 2241DT     SC314557  64.829  46.808 105.584
 2242DT     BB114558  65.530  46.797 105.205
 2242DT     BB214559  65.345  47.056 105.036
 2242DT     BB314560  65.356  47.232 105.144
 2242DT     SC114561  65.186  47.142 105.323
 2242DT     SC214562  65.001  47.249 105.306
 2242DT     SC314563  65.090  47.061 105.555
 2243DT     BB114564  65.522  47.343 104.958
 2243DT     BB214565  65.235  47.561 104.967
 2243DT     BB314566  65.260  47.705 105.113
 2243DT     SC114567  65.212  47.532 105.304
 2243DT     SC214568  65.023  47.577 105.396
 2243DT     SC314569  65.250  47.379 105.515
 2244DC     BB114570  65.286  47.877 104.912
 2244DC     BB214571  65.006  47.998 105.105
 2244DC     BB314572  65.073  48.113 105.263
 2244DC     SC114573  65.152  47.900 105.395
 2244DC     SC214574  65.025  47.870 105.566
 2244DC     SC314575  65.310  47.726 105.515
 2245DT     BB114576  64.965  48.308 105.126
 2245DT     BB214577  64.800  48.313 105.447
 2245DT     BB314578  64.919  48.411 105.586
 2245DT     SC114579  65.082  48.206 105.603
 2245DT     SC214580  65.061  48.114 105.796
 2245DT     SC314581  65.303  48.063 105.587
 2246DA     BB114582  64.526  48.563 105.596
 2246DA     BB214583  64.634  48.496 105.940
 2246DA     BB314584  64.783  48.636 106.000
 2246DA     SC114585  65.021  48.459 105.904
 2246DA     SC214586  65.206  48.328 106.007
 2246DA     SC314587  65.319  48.345 105.777
 2246DA     SC414588  65.075  48.482 105.754
 2247DA     BB114589  64.572  48.680 106.250
 2247DA     BB214590  64.845  48.577 106.472
 2247DA     BB314591  64.990  48.732 106.489
 2247DA     SC114592  65.162  48.631 106.251
 2247DA     SC214593  65.386  48.525 106.216
 2247DA     SC314594  65.364  48.608 105.974
 2247DA     SC414595  65.131  48.691 106.105
 2248DA     BB114596  64.941  48.709 106.818
 2248DA     BB214597  65.295  48.617 106.847
 2248DA     BB314598  65.418  48.791 106.832
 2248DA     SC114599  65.451  48.770 106.523
 2248DA     SC214600  65.632  48.717 106.360
 2248DA     SC314601  65.485  48.838 106.188
 2248DA     SC414602  65.346  48.850 106.432
 2249DT     BB114603  65.542  48.879 107.000
 2249DT     BB214604  65.860  48.762 106.878
 2249DT     BB314605  65.974  48.922 106.811
 2249DT     SC114606  65.828  48.944 106.594
 2249DT     SC214607  65.945  48.885 106.423
 2249DT     SC314608  65.665  49.047 106.414
 2250DC     BB114609  66.148  48.915 107.028
 2250DC     BB214610  66.360  48.868 106.740
 2250DC     BB314611  66.425  49.052 106.670
 2250DC     SC114612  66.190  49.105 106.567
 2250DC     SC214613  66.204  49.102 106.352
 2250DC     SC314614  65.959  49.225 106.524
 2251DT     BB114615  66.672  48.991 106.760
 2251DT     BB214616  66.709  49.040 106.404
 2251DT     BB314617  66.741  49.240 106.363
 2251DT     SC114618  66.489  49.298 106.408
 2251DT     SC214619  66.395  49.351 106.222
 2251DT     SC314620  66.275  49.403 106.518
 2252DA     BB114621  67.009  48.979 106.173
 2252DA     BB214622  66.871  49.209 105.924
 2252DA     BB314623  66.944  49.407 105.957
 2252DA     SC114624  66.710  49.489 106.145
 2252DA     SC214625  66.513  49.642 106.138
 2252DA     SC314626  66.518  49.626 106.394
 2252DA     SC414627  66.731  49.467 106.303
 2253DT     BB114628  67.034  49.445 105.814
 2253DT     BB214629  66.801  49.683 105.675
 2253DT     BB314630  66.853  49.875 105.732
 2253DT     SC114631  66.763  49.835 105.975
 2253DT     SC214632  66.586  49.953 106.006
 2253DT     SC314633  66.761  49.809 106.238
 2254DA     BB114634  66.781  49.849 105.318
 2254DA     BB214635  66.606  50.143 105.449
 2254DA     BB314636  66.746  50.293 105.507
 2254DA     SC114637  66.769  50.191 105.800
 2254DA     SC214638  66.702  50.267 106.028
 2254DA     SC314639  66.881  50.104 106.113
 2254DA     SC414640  66.886  50.085 105.834
 2255DA     BB114641  66.554  50.471 105.308
 2255DA     BB214642  66.490  50.688 105.596
 2255DA     BB314643  66.662  50.807 105.639
 2255DA     SC114644  66.785  50.600 105.837
 2255DA     SC214645  66.827  50.582 106.082
 2255DA     SC314646  66.999  50.402 106.019
 2255DA     SC414647  66.888  50.492 105.778
 2256DA     BB114648  66.455  51.064 105.615
 2256DA     BB214649  66.538  51.145 105.962
 2256DA     BB314650  66.729  51.239 105.973
 2256DA     SC114651  66.885  50.972 106.010
 2256DA     SC214652  67.013  50.857 106.191
 2256DA     SC314653  67.119  50.721 106.001
 2256DA     SC414654  66.941  50.900 105.878
 2257DG     BB114655  66.591  51.497 106.093
 2257DG     BB214656  66.787  51.416 106.386
 2257DG     BB314657  66.968  51.496 106.371
 2257DG     SC114658  67.091  51.253 106.231
 2257DG     SC214659  67.300  51.072 106.344
 2257DG     SC314660  67.253  51.013 106.058
 2257DG     SC414661  67.084  51.244 106.071
 2258DA     BB114662  66.919  51.641 106.683
 2258DA     BB214663  67.207  51.457 106.816
 2258DA     BB314664  67.389  51.551 106.757
 2258DA     SC114665  67.418  51.384 106.495
 2258DA     SC214666  67.566  51.204 106.407
 2258DA     SC314667  67.484  51.278 106.175
 2258DA     SC414668  67.356  51.446 106.361
 2259DA     BB114669  67.433  51.536 107.079
 2259DA     BB214670  67.724  51.324 107.009
 2259DA     BB314671  67.886  51.442 106.936
 2259DA     SC114672  67.806  51.410 106.637
 2259DA     SC214673  67.894  51.296 106.434
 2259DA     SC314674  67.749  51.462 106.303
 2259DA     SC414675  67.711  51.523 106.574
 2260DG     BB114676  68.009  51.314 107.186
 2260DG     BB214677  68.226  51.159 106.940
 2260DG     BB314678  68.365  51.289 106.881
 2260DG     SC114679  68.197  51.402 106.652
 2260DG     SC214680  68.256  51.373 106.361
 2260DG     SC314681  68.033  51.563 106.405
 2260DG     SC414682  68.098  51.525 106.681
 2261DC     BB114683  68.557  51.232 106.918
 2261DC     BB214684  68.679  51.151 106.589
 2261DC     BB314685  68.787  51.310 106.512
 2261DC     SC114686  68.567  51.445 106.465
 2261DC     SC214687  68.536  51.459 106.252
 2261DC     SC314688  68.384  51.635 106.479
 2262DA     BB114689  69.006  50.952 106.474
 2262DA     BB214690  69.017  51.132 106.154
 2262DA     BB314691  69.134  51.309 106.172
 2262DA     SC114692  68.894  51.489 106.252
 2262DA     SC214693  68.761  51.675 106.151
 2262DA     SC314694  68.691  51.728 106.392
 2262DA     SC414695  68.863  51.507 106.408
 2263DA     BB114696  69.286  51.173 105.913
 2263DA     BB214697  69.194  51.475 105.726
 2263DA     BB314698  69.315  51.639 105.787
 2263DA     SC114699  69.119  51.732 106.011
 2263DA     SC214700  68.965  51.924 106.053
 2263DA     SC314701  68.981  51.855 106.300
 2263DA     SC414702  69.143  51.675 106.159
 2264DA     BB114703  69.375  51.658 105.464
 2264DA     BB214704  69.227  51.993 105.475
 2264DA     BB314705  69.363  52.131 105.564
 2264DA     SC114706  69.257  52.088 105.853
 2264DA     SC214707  69.128  52.216 106.024
 2264DA     SC314708  69.227  52.051 106.193
 2264DA     SC414709  69.329  51.976 105.943
 2265DA     BB114710  69.301  52.290 105.283
 2265DA     BB214711  69.166  52.560 105.491
 2265DA     BB314712  69.324  52.669 105.584
 2265DA     SC114713  69.328  52.491 105.839
 2265DA     SC214714  69.269  52.514 106.081
 2265DA     SC314715  69.422  52.311 106.116
 2265DA     SC414716  69.429  52.366 105.841
 2266DC     BB114717  69.340  52.850 105.527
 2266DC     BB214718  69.206  53.001 105.827
 2266DC     BB314719  69.360  53.074 105.944
 2266DC     SC114720  69.427  52.832 106.020
 2266DC     SC214721  69.379  52.807 106.229
 2266DC     SC314722  69.569  52.612 106.053
 2267DT     BB114723  69.267  53.310 105.875
 2267DT     BB214724  69.258  53.305 106.236
 2267DT     BB314725  69.445  53.350 106.312
 2267DT     SC114726  69.537  53.112 106.249
 2267DT     SC214727  69.572  53.000 106.429
 2267DT     SC314728  69.682  52.925 106.133
 2268DA     BB114729  69.148  53.584 106.498
 2268DA     BB214730  69.365  53.443 106.758
 2268DA     BB314731  69.559  53.533 106.749
 2268DA     SC114732  69.675  53.321 106.553
 2268DA     SC214733  69.841  53.135 106.560
 2268DA     SC314734  69.848  53.159 106.305
 2268DA     SC414735  69.666  53.352 106.396
 2269DC     BB114736  69.609  53.642 106.901
 2269DC     BB214737  69.854  53.419 107.043
 2269DC     BB314738  70.045  53.483 106.992
 2269DC     SC114739  70.017  53.396 106.746
 2269DC     SC214740  70.145  53.226 106.715
 2269DC     SC314741  69.998  53.398 106.483
 2270DC     BB114742  70.102  53.582 107.246
 2270DC     BB214743  70.375  53.356 107.179
 2270DC     BB314744  70.528  53.457 107.081
 2270DC     SC114745  70.392  53.459 106.856
 2270DC     SC214746  70.487  53.329 106.714
 2270DC     SC314747  70.261  53.551 106.646
 2271DT     BB114748  70.717  53.490 107.300
 2271DT     BB214749  70.914  53.327 107.046
 2271DT     BB314750  71.013  53.469 106.931
 2271DT     SC114751  70.791  53.533 106.806
 2271DT     SC214752  70.803  53.467 106.602
 2271DT     SC314753  70.587  53.677 106.722
 2272DT     BB114754  71.285  53.444 107.036
 2272DT     BB214755  71.325  53.383 106.683
 2272DT     BB314756  71.374  53.558 106.586
 2272DT     SC114757  71.129  53.648 106.606
 2272DT     SC214758  71.038  53.652 106.411
 2272DT     SC314759  70.925  53.800 106.676
 2273DT     BB114760  71.648  53.496 106.540
 2273DT     BB214761  71.513  53.550 106.210
 2273DT     BB314762  71.537  53.748 106.155
 2273DT     SC114763  71.344  53.825 106.315
 2273DT     SC214764  71.176  53.890 106.197
 2273DT     SC314765  71.219  53.945 106.514
 2274DA     BB114766  71.691  53.507 105.850
 2274DA     BB214767  71.454  53.744 105.701
 2274DA     BB314768  71.539  53.939 105.694
 2274DA     SC114769  71.428  54.023 105.973
 2274DA     SC214770  71.256  54.179 106.064
 2274DA     SC314771  71.385  54.159 106.285
 2274DA     SC414772  71.522  53.999 106.101
 2275DC     BB114773  71.562  54.000 105.519
 2275DC     BB214774  71.283  54.229 105.518
 2275DC     BB314775  71.351  54.422 105.547
 2275DC     SC114776  71.394  54.378 105.802
 2275DC     SC214777  71.251  54.489 105.919
 2275DC     SC314778  71.522  54.350 106.031
 2276DT     BB114779  71.274  54.447 105.299
 2276DT     BB214780  71.084  54.691 105.485
 2276DT     BB314781  71.199  54.859 105.520
 2276DT     SC114782  71.339  54.735 105.704
 2276DT     SC214783  71.292  54.818 105.897
 2276DT     SC314784  71.544  54.627 105.829
 2277DT     BB114785  71.030  54.966 105.352
 2277DT     BB214786  71.006  55.163 105.654
 2277DT     BB314787  71.163  55.298 105.663
 2277DT     SC114788  71.333  55.109 105.725
 2277DT     SC214789  71.397  55.134 105.929
 2277DT     SC314790  71.539  54.945 105.708
 2278DT     BB114791  70.975  55.478 105.621
 2278DT     BB214792  71.135  55.577 105.929
 2278DT     BB314793  71.309  55.681 105.887
 2278DT     SC114794  71.435  55.460 105.820
 2278DT     SC214795  71.584  55.415 105.968
 2278DT     SC314796  71.562  55.282 105.673
 2279DA     BB114797  71.078  55.901 106.160
 2279DA     BB214798  71.422  55.887 106.286
 2279DA     BB314799  71.550  56.008 106.165
 2279DA     SC114800  71.624  55.777 105.971
 2279DA     SC214801  71.825  55.638 105.916
 2279DA     SC314802  71.706  55.589 105.694
 2279DA     SC414803  71.535  55.760 105.838
 2280DT     BB114804  71.628  56.164 106.252
 2280DT     BB214805  71.964  56.036 106.281
 2280DT     BB314806  72.085  56.119 106.134
 2280DT     SC114807  71.976  55.968 105.949
 2280DT     SC214808  72.121  55.824 105.881
 2280DT     SC314809  71.843  55.898 105.733
 2281DG     BB114810  72.254  56.208 106.494
 2281DG     BB214811  72.492  56.054 106.270
 2281DG     BB314812  72.555  56.187 106.136
 2281DG     SC114813  72.335  56.124 105.933
 2281DG     SC214814  72.373  55.999 105.665
 2281DG     SC314815  72.096  56.095 105.697
 2281DG     SC414816  72.196  56.203 105.943
 2282DA     BB114817  72.875  56.092 106.230
 2282DA     BB214818  72.947  55.992 105.885
 2282DA     BB314819  72.978  56.163 105.763
 2282DA     SC114820  72.679  56.189 105.680
 2282DA     SC214821  72.541  56.158 105.475
 2282DA     SC314822  72.368  56.307 105.594
 2282DA     SC414823  72.585  56.284 105.770
 2283DA     BB114824  73.258  56.005 105.691
 2283DA     BB214825  73.146  56.002 105.342
 2283DA     BB314826  73.170  56.195 105.255
 2283DA     SC114827  72.884  56.291 105.333
 2283DA     SC214828  72.670  56.345 105.217
 2283DA     SC314829  72.612  56.477 105.430
 2283DA     SC414830  72.867  56.369 105.472
 2284DT     BB114831  73.308  56.225 105.103
 2284DT     BB214832  73.071  56.254 104.833
 2284DT     BB314833  73.055  56.452 104.774
 2284DT     SC114834  72.913  56.512 104.987
 2284DT     SC214835  72.711  56.554 104.928
 2284DT     SC314836  72.844  56.623 105.215
 2285DG     BB114837  73.181  56.264 104.433
 2285DG     BB214838  72.885  56.462 104.369
 2285DG     BB314839  72.936  56.653 104.345
 2285DG     SC114840  72.909  56.722 104.642
 2285DG     SC214841  72.705  56.904 104.762
 2285DG     SC314842  72.909  56.828 104.963
 2285DG     SC414843  73.036  56.703 104.738
 2286DT     BB114844  72.912  56.787 104.144
 2286DT     BB214845  72.626  56.988 104.232
 2286DT     BB314846  72.685  57.183 104.267
 2286DT     SC114847  72.790  57.119 104.499
 2286DT     SC214848  72.672  57.205 104.657
 2286DT     SC314849  72.970  57.082 104.688
 2287DT     BB114850  72.580  57.289 104.026
 2287DT     BB214851  72.417  57.481 104.285
 2287DT     BB314852  72.527  57.652 104.325
 2287DT     SC114853  72.708  57.514 104.456
 2287DT     SC214854  72.696  57.560 104.665
 2287DT     SC314855  72.941  57.406 104.518
 2288DA     BB114856  72.136  57.778 104.247
 2288DA     BB214857  72.239  57.923 104.568
 2288DA     BB314858  72.374  58.085 104.535
 2288DA     SC114859  72.629  57.907 104.548
 2288DA     SC214860  72.822  57.872 104.702
 2288DA     SC314861  72.939  57.768 104.498
 2288DA     SC414862  72.685  57.848 104.410
 2289DT     BB114863  72.307  58.256 104.592
 2289DT     BB214864  72.503  58.277 104.894
 2289DT     BB314865  72.662  58.408 104.866
 2289DT     SC114866  72.791  58.232 104.720
 2289DT     SC214867  72.964  58.162 104.828
 2289DT     SC314868  72.908  58.122 104.511
 2290DT     BB114869  72.520  58.537 105.038
 2290DT     BB214870  72.840  58.480 105.194
 2290DT     BB314871  72.979  58.616 105.122
 2290DT     SC114872  72.998  58.488 104.894
 2290DT     SC214873  73.191  58.395 104.880
 2290DT     SC314874  72.983  58.439 104.635
 2291DA     BB114875  72.969  58.552 105.540
 2291DA     BB214876  73.316  58.540 105.424
 2291DA     BB314877  73.377  58.731 105.353
 2291DA     SC114878  73.290  58.676 105.059
 2291DA     SC214879  73.399  58.640 104.838
 2291DA     SC314880  73.171  58.704 104.738
 2291DA     SC414881  73.141  58.720 105.016
 2292DA     BB114882  73.599  58.603 105.562
 2292DA     BB214883  73.836  58.651 105.286
 2292DA     BB314884  73.856  58.859 105.240
 2292DA     SC114885  73.627  58.859 105.029
 2292DA     SC214886  73.605  58.881 104.781
 2292DA     SC314887  73.360  58.942 104.830
 2292DA     SC414888  73.479  58.896 105.079
 2293DA     BB114889  74.167  58.756 105.276
 2293DA     BB214890  74.221  58.881 104.936
 2293DA     BB314891  74.210  59.094 104.932
 2293DA     SC114892  73.904  59.101 104.873
 2293DA     SC214893  73.754  59.162 104.684
 2293DA     SC314894  73.571  59.183 104.862
 2293DA     SC414895  73.805  59.110 104.999
 2294DA     BB114896  74.506  59.065 104.788
 2294DA     BB214897  74.364  59.240 104.500
 2294DA     BB314898  74.342  59.448 104.543
 2294DA     SC114899  74.052  59.419 104.653
 2294DA     SC214900  73.822  59.484 104.584
 2294DA     SC314901  73.761  59.453 104.831
 2294DA     SC414902  74.035  59.396 104.811
 2295DA     BB114903  74.521  59.491 104.267
 2295DA     BB214904  74.234  59.673 104.130
 2295DA     BB314905  74.223  59.869 104.213
 2295DA     SC114906  74.041  59.785 104.450
 2295DA     SC214907  73.805  59.820 104.523
 2295DA     SC314908  73.889  59.754 104.757
 2295DA     SC414909  74.112  59.743 104.588
 2296DA     BB114910  74.222  59.963 103.897
 2296DA     BB214911  73.892  60.109 103.959
 2296DA     BB314912  73.911  60.293 104.065
 2296DA     SC114913  73.893  60.162 104.347
 2296DA     SC214914  73.731  60.154 104.536
 2296DA     SC314915  73.933  60.082 104.678
 2296DA     SC414916  74.030  60.120 104.418
 2297DT     BB114917  73.856  60.460 103.971
 2297DT     BB214918  73.548  60.513 104.151
 2297DT     BB314919  73.572  60.665 104.289
 2297DT     SC114920  73.711  60.510 104.448
 2297DT     SC214921  73.596  60.468 104.625
 2297DT     SC314922  73.914  60.417 104.588
 2298DT     BB114923  73.414  60.811 104.131
 2298DT     BB214924  73.250  60.810 104.453
 2298DT     BB314925  73.331  60.957 104.574
 2298DT     SC114926  73.548  60.815 104.615
 2298DT     SC214927  73.552  60.748 104.819
 2298DT     SC314928  73.802  60.743 104.612
 2299DT     BB114929  73.102  61.090 104.543
 2299DT     BB214930  73.141  61.055 104.900
 2299DT     BB314931  73.264  61.205 104.973
 2299DT     SC114932  73.478  61.089 104.875
 2299DT     SC214933  73.598  61.013 105.037
 2299DT     SC314934  73.694  61.048 104.729
 2300DA     BB114935  72.915  61.218 105.209
 2300DA     BB214936  73.204  61.230 105.435
 2300DA     BB314937  73.298  61.421 105.425
 2300DA     SC114938  73.495  61.339 105.199
 2300DA     SC214939  73.739  61.297 105.172
 2300DA     SC314940  73.698  61.334 104.922
 2300DA     SC414941  73.449  61.366 105.047
 2301DA     BB114942  73.259  61.449 105.758
 2301DA     BB214943  73.624  61.469 105.788
 2301DA     BB314944  73.691  61.666 105.740
 2301DA     SC114945  73.731  61.604 105.437
 2301DA     SC214946  73.921  61.579 105.277
 2301DA     SC314947  73.746  61.622 105.095
 2301DA     SC414948  73.608  61.635 105.338
 2302DG     BB114949  73.813  61.725 106.036
 2302DG     BB214950  74.131  61.734 105.862
 2302DG     BB314951  74.170  61.919 105.801
 2302DG     SC114952  74.031  61.885 105.530
 2302DG     SC214953  74.165  61.885 105.264
 2302DG     SC314954  73.871  61.889 105.234
 2302DG     SC414955  73.875  61.917 105.519
 2303DA     BB114956  74.487  61.936 105.961
 2303DA     BB214957  74.655  61.973 105.638
 2303DA     BB314958  74.652  62.177 105.575
 2303DA     SC114959  74.384  62.150 105.420
 2303DA     SC214960  74.307  62.152 105.182
 2303DA     SC314961  74.075  62.205 105.279
 2303DA     SC414962  74.248  62.184 105.499
 2304DT     BB114963  74.833  62.305 105.559
 2304DT     BB214964  74.853  62.290 105.199
 2304DT     BB314965  74.807  62.475 105.118
 2304DT     SC114966  74.551  62.441 105.166
 2304DT     SC214967  74.446  62.415 104.981
 2304DT     SC314968  74.311  62.478 105.268
 2305DT     BB114969  75.069  62.516 105.049
 2305DT     BB214970  74.888  62.533 104.737
 2305DT     BB314971  74.823  62.727 104.704
 2305DT     SC114972  74.634  62.703 104.884
 2305DT     SC214973  74.442  62.700 104.786
 2305DT     SC314974  74.493  62.744 105.103
 2306DT     BB114975  75.006  62.743 104.507
 2306DT     BB214976  74.689  62.805 104.346
 2306DT     BB314977  74.640  63.006 104.362
 2306DT     SC114978  74.576  62.978 104.615
 2306DT     SC214979  74.364  63.000 104.638
 2306DT     SC314980  74.583  63.008 104.877
 2307DT     BB114981  74.686  63.016 104.101
 2307DT     BB214982  74.345  63.125 104.141
 2307DT     BB314983  74.340  63.326 104.189
 2307DT     SC114984  74.419  63.278 104.434
 2307DT     SC214985  74.257  63.318 104.570
 2307DT     SC314986  74.568  63.279 104.651
 2308DA     BB114987  74.078  63.238 103.873
 2308DA     BB214988  73.897  63.438 104.122
 2308DA     BB314989  73.969  63.639 104.122
 2308DA     SC114990  74.186  63.588 104.338
 2308DA     SC214991  74.228  63.650 104.576
 2308DA     SC314992  74.473  63.591 104.527
 2308DA     SC414993  74.333  63.547 104.288
 2309DA     BB114994  73.646  63.675 104.090
 2309DA     BB214995  73.659  63.867 104.402
 2309DA     BB314996  73.751  64.056 104.368
 2309DA     SC114997  74.039  63.956 104.432
 2309DA     SC214998  74.210  63.986 104.611
 2309DA     SC314999  74.378  63.903 104.436
 2309DA     SC415000  74.128  63.903 104.309
 2310DT     BB115001  73.634  64.201 104.394
 2310DT     BB215002  73.776  64.319 104.705
 2310DT     BB315003  73.899  64.481 104.669
 2310DT     SC115004  74.087  64.327 104.570
 2310DT     SC215005  74.254  64.323 104.705
 2310DT     SC315006  74.256  64.220 104.398
 2311DA     BB115007  73.630  64.583 104.974
 2311DA     BB215008  73.967  64.681 105.082
 2311DA     BB315009  74.033  64.851 104.971
 2311DA     SC115010  74.167  64.682 104.747
 2311DA     SC215011  74.398  64.631 104.667
 2311DA     SC315012  74.285  64.564 104.446
 2311DA     SC415013  74.079  64.647 104.617
 2312DA     BB115014  74.081  64.957 105.278
 2312DA     BB215015  74.434  64.994 105.189
 2312DA     BB315016  74.461  65.162 105.059
 2312DA     SC115017  74.425  64.996 104.798
 2312DA     SC215018  74.566  64.919 104.608
 2312DA     SC315019  74.344  64.891 104.482
 2312DA     SC415020  74.277  64.987 104.736
 2313DA     BB115021  74.682  65.244 105.290
 2313DA     BB215022  74.935  65.235 105.024
 2313DA     BB315023  74.917  65.407 104.899
 2313DA     SC115024  74.721  65.271 104.700
 2313DA     SC215025  74.724  65.190 104.464
 2313DA     SC315026  74.468  65.205 104.477
 2313DA     SC415027  74.563  65.289 104.727
 2314DT     BB115028  75.066  65.550 104.897
 2314DT     BB215029  75.202  65.471 104.572
 2314DT     BB315030  75.145  65.615 104.435
 2314DT     SC115031  74.900  65.520 104.425
 2314DT     SC215032  74.867  65.429 104.233
 2314DT     SC315033  74.638  65.506 104.449
 2315DT     BB115034  75.397  65.736 104.423
 2315DT     BB215035  75.323  65.658 104.079
 2315DT     BB315036  75.223  65.817 103.990
 2315DT     SC115037  75.001  65.757 104.116
 2315DT     SC215038  74.856  65.682 103.975
 2315DT     SC315039  74.794  65.778 104.278
 2316DT     BB115040  75.442  65.917 103.836
 2316DT     BB215041  75.183  65.863 103.590
 2316DT     BB315042  75.073  66.036 103.565
 2316DT     SC115043  74.949  65.999 103.793
 2316DT     SC215044  74.743  65.950 103.756
 2316DT     SC315045  74.868  66.040 104.041
 2317DA     BB115046  75.194  65.966 103.166
 2317DA     BB215047  74.832  66.019 103.158
 2317DA     BB315048  74.787  66.227 103.172
 2317DA     SC115049  74.769  66.229 103.482
 2317DA     SC215050  74.592  66.254 103.657
 2317DA     SC315051  74.785  66.313 103.815
 2317DA     SC415052  74.902  66.264 103.564
 2318DA     BB115053  74.614  66.207 102.884
 2318DA     BB215054  74.313  66.290 103.076
 2318DA     BB315055  74.296  66.501 103.101
 2318DA     SC115056  74.454  66.507 103.369
 2318DA     SC215057  74.406  66.548 103.610
 2318DA     SC315058  74.658  66.592 103.632
 2318DA     SC415059  74.613  66.531 103.362
 2319DA     BB115060  74.000  66.467 102.963
 2319DA     BB215061  73.859  66.573 103.285
 2319DA     BB315062  73.864  66.785 103.301
 2319DA     SC115063  74.144  66.793 103.436
 2319DA     SC215064  74.240  66.846 103.659
 2319DA     SC315065  74.462  66.878 103.534
 2319DA     SC415066  74.272  66.809 103.339
 2320DT     BB115067  73.689  66.869 103.311
 2320DT     BB215068  73.699  66.924 103.668
 2320DT     BB315069  73.734  67.124 103.707
 2320DT     SC115070  73.986  67.102 103.641
 2320DT     SC215071  74.109  67.121 103.817
 2320DT     SC315072  74.213  67.137 103.510
 2321DG     BB115073  73.413  66.948 103.885
 2321DG     BB215074  73.639  67.101 104.123
 2321DG     BB315075  73.624  67.299 104.113
 2321DG     SC115076  73.841  67.329 103.899
 2321DG     SC215077  74.107  67.460 103.937
 2321DG     SC315078  74.059  67.397 103.651
 2321DG     SC415079  73.800  67.321 103.745
 2322DG     BB115080  73.590  67.200 104.417
 2322DG     BB215081  73.879  67.409 104.477
 2322DG     BB315082  73.830  67.600 104.456
 2322DG     SC115083  73.894  67.610 104.157
 2322DG     SC215084  74.115  67.766 104.029
 2322DG     SC315085  73.935  67.651 103.824
 2322DG     SC415086  73.780  67.572 104.052
 2323DA     BB115087  74.011  67.580 104.750
 2323DA     BB215088  74.232  67.841 104.618
 2323DA     BB315089  74.124  68.024 104.596
 2323DA     SC115090  74.038  67.966 104.302
 2323DA     SC215091  74.090  68.052 104.074
 2323DA     SC315092  73.867  67.944 104.005
 2323DA     SC415093  73.897  67.893 104.280
 2324DA     BB115094  74.390  68.111 104.768
 2324DA     BB215095  74.458  68.350 104.499
 2324DA     BB315096  74.313  68.507 104.501
 2324DA     SC115097  74.118  68.362 104.307
 2324DA     SC215098  74.036  68.389 104.073
 2324DA     SC315099  73.839  68.242 104.146
 2324DA     SC415100  74.003  68.271 104.372
 2325DT     BB115101  74.371  68.696 104.549
 2325DT     BB215102  74.344  68.841 104.220
 2325DT     BB315103  74.174  68.959 104.209
 2325DT     SC115104  74.019  68.747 104.197
 2325DT     SC215105  73.932  68.733 104.000
 2325DT     SC315106  73.834  68.571 104.263
 2326DT     BB115107  74.317  69.196 104.215
 2326DT     BB215108  74.119  69.223 103.915
 2326DT     BB315109  73.936  69.309 103.959
 2326DT     SC115110  73.849  69.088 104.071
 2326DT     SC215111  73.696  69.001 103.948
 2326DT     SC315112  73.761  68.922 104.255
 2327DT     BB115113  74.007  69.545 103.837
 2327DT     BB215114  73.704  69.446 103.668
 2327DT     BB315115  73.540  69.521 103.769
 2327DT     SC115116  73.565  69.343 103.959
 2327DT     SC215117  73.402  69.203 103.948
 2327DT     SC315118  73.605  69.239 104.199
 2328DG     BB115119  73.522  69.662 103.387
 2328DG     BB215120  73.211  69.503 103.484
 2328DG     BB315121  73.105  69.626 103.598
 2328DG     SC115122  73.228  69.528 103.861
 2328DG     SC215123  73.086  69.378 104.076
 2328DG     SC315124  73.356  69.458 104.165
 2328DG     SC415125  73.362  69.597 103.914
 2329DA     BB115126  72.846  69.559 103.378
 2329DA     BB215127  72.641  69.436 103.655
 2329DA     BB315128  72.569  69.599 103.773
 2329DA     SC115129  72.811  69.597 103.968
 2329DA     SC215130  72.856  69.539 104.206
 2329DA     SC315131  73.066  69.684 104.181
 2329DA     SC415132  72.936  69.692 103.933
 2330DA     BB115133  72.282  69.448 103.712
 2330DA     BB215134  72.241  69.418 104.075
 2330DA     BB315135  72.193  69.607 104.160
 2330DA     SC115136  72.489  69.687 104.212
 2330DA     SC215137  72.640  69.719 104.408
 2330DA     SC315138  72.785  69.857 104.248
 2330DA     SC415139  72.565  69.770 104.098
 2331DA     BB115140  71.924  69.459 104.293
 2331DA     BB215141  72.050  69.554 104.624
 2331DA     BB315142  72.010  69.760 104.662
 2331DA     SC115143  72.280  69.859 104.545
 2331DA     SC215144  72.492  69.960 104.629
 2331DA     SC315145  72.527  70.038 104.387
 2331DA     SC415146  72.283  69.900 104.389
 2332DT     BB115147  71.861  69.847 104.815
 2332DT     BB215148  72.104  69.966 105.053
 2332DT     BB315149  72.109  70.173 105.052
 2332DT     SC115150  72.238  70.177 104.824
 2332DT     SC215151  72.439  70.246 104.856
 2332DT     SC315152  72.290  70.222 104.569
 2333DT     BB115153  71.962  70.230 105.300
 2333DT     BB215154  72.273  70.408 105.346
 2333DT     BB315155  72.251  70.605 105.286
 2333DT     SC115156  72.256  70.535 105.033
 2333DT     SC215157  72.439  70.605 104.944
 2333DT     SC315158  72.178  70.500 104.783
 2334DC     BB115159  72.236  70.734 105.546
 2334DC     BB215160  72.512  70.902 105.385
 2334DC     BB315161  72.446  71.074 105.292
 2334DC     SC115162  72.335  70.936 105.098
 2334DC     SC215163  72.445  70.969 104.916
 2334DC     SC315164  72.150  70.836 104.940
 2335DC     BB115165  72.555  71.257 105.481
 2335DC     BB215166  72.704  71.356 105.167
 2335DC     BB315167  72.588  71.502 105.077
 2335DC     SC115168  72.407  71.325 105.007
 2335DC     SC215169  72.410  71.300 104.793
 2335DC     SC315170  72.175  71.200 104.993
 2336DA     BB115171  72.976  71.659 105.093
 2336DA     BB215172  72.857  71.691 104.747
 2336DA     BB315173  72.718  71.852 104.731
 2336DA     SC115174  72.469  71.674 104.788
 2336DA     SC215175  72.272  71.587 104.662
 2336DA     SC315176  72.165  71.553 104.893
 2336DA     SC415177  72.419  71.662 104.940
 2337DC     BB115178  72.772  72.010 104.619
 2337DC     BB215179  72.564  71.930 104.336
 2337DC     BB315180  72.401  72.058 104.329
 2337DC     SC115181  72.285  71.932 104.529
 2337DC     SC215182  72.112  71.827 104.456
 2337DC     SC315183  72.181  71.888 104.767
 2338DG     BB115184  72.608  72.076 103.980
 2338DG     BB215185  72.258  72.002 103.925
 2338DG     BB315186  72.149  72.167 103.945
 2338DG     SC115187  72.103  72.130 104.246
 2338DG     SC215188  71.841  72.073 104.377
 2338DG     SC315189  72.049  72.131 104.579
 2338DG     SC415190  72.209  72.191 104.349
 2339DG     BB115191  72.056  72.089 103.647
 2339DG     BB215192  71.725  72.058 103.790
 2339DG     BB315193  71.644  72.238 103.813
 2339DG     SC115194  71.754  72.278 104.096
 2339DG     SC215195  71.592  72.293 104.346
 2339DG     SC315196  71.875  72.364 104.399
 2339DG     SC415197  71.899  72.344 104.114
 2340DC     BB115198  71.476  72.257 103.711
 2340DC     BB215199  71.226  72.251 103.971
 2340DC     BB315200  71.174  72.445 104.023
 2340DC     SC115201  71.399  72.478 104.154
 2340DC     SC215202  71.358  72.489 104.365
 2340DC     SC315203  71.636  72.575 104.220
 2341DG     BB115204  70.849  72.224 103.918
 2341DG     BB215205  70.803  72.389 104.237
 2341DG     BB315206  70.770  72.583 104.208
 2341DG     SC115207  71.066  72.660 104.219
 2341DG     SC215208  71.197  72.825 104.431
 2341DG     SC315209  71.382  72.777 104.206
 2341DG     SC415210  71.152  72.657 104.084
 2342DA     BB115211  70.506  72.513 104.421
 2342DA     BB215212  70.628  72.774 104.648
 2342DA     BB315213  70.599  72.967 104.562
 2342DA     SC115214  70.878  72.974 104.424
 2342DA     SC215215  71.093  73.097 104.449
 2342DA     SC315216  71.139  73.025 104.207
 2342DA     SC415217  70.887  72.920 104.272
 2343DA     BB115218  70.452  73.011 104.853
 2343DA     BB215219  70.693  73.282 104.910
 2343DA     BB315220  70.646  73.450 104.788
 2343DA     SC115221  70.823  73.359 104.550
 2343DA     SC215222  71.035  73.430 104.439
 2343DA     SC315223  70.952  73.295 104.238
 2343DA     SC415224  70.754  73.270 104.435
 2344DA     BB115225  70.653  73.607 105.079
 2344DA     BB215226  70.922  73.814 104.939
 2344DA     BB315227  70.842  73.956 104.801
 2344DA     SC115228  70.873  73.770 104.554
 2344DA     SC215229  71.014  73.758 104.348
 2344DA     SC315230  70.830  73.605 104.256
 2344DA     SC415231  70.748  73.678 104.514
 2345DG     BB115232  70.959  74.173 104.994
 2345DG     BB215233  71.166  74.252 104.708
 2345DG     BB315234  71.067  74.371 104.583
 2345DG     SC115235  70.945  74.141 104.422
 2345DG     SC215236  71.005  74.075 104.137
 2345DG     SC315237  70.778  73.914 104.236
 2345DG     SC415238  70.805  74.079 104.469
 2346DA     BB115239  71.342  74.584 104.595
 2346DA     BB215240  71.385  74.550 104.233
 2346DA     BB315241  71.239  74.666 104.129
 2346DA     SC115242  71.031  74.435 104.114
 2346DA     SC215243  70.931  74.287 103.939
 2346DA     SC315244  70.743  74.249 104.108
 2346DA     SC415245  70.922  74.425 104.232
 2347DA     BB115246  71.507  74.788 103.984
 2347DA     BB215247  71.370  74.663 103.667
 2347DA     BB315248  71.210  74.788 103.601
 2347DA     SC115249  70.990  74.625 103.748
 2347DA     SC215250  70.800  74.474 103.687
 2347DA     SC315251  70.710  74.527 103.921
 2347DA     SC415252  70.949  74.671 103.897
 2348DT     BB115253  71.234  74.897 103.431
 2348DT     BB215254  71.017  74.699 103.221
 2348DT     BB315255  70.838  74.798 103.191
 2348DT     SC115256  70.757  74.742 103.434
 2348DT     SC215257  70.596  74.600 103.424
 2348DT     SC315258  70.679  74.775 103.684
 2349DA     BB115259  70.977  74.705 102.805
 2349DA     BB215260  70.626  74.600 102.825
 2349DA     BB315261  70.497  74.770 102.819
 2349DA     SC115262  70.491  74.808 103.127
 2349DA     SC215263  70.327  74.782 103.313
 2349DA     SC315264  70.482  74.938 103.445
 2349DA     SC415265  70.600  74.907 103.192
 2350DT     BB115266  70.364  74.813 102.652
 2350DT     BB215267  70.058  74.719 102.819
 2350DT     BB315268  69.947  74.888 102.862
 2350DT     SC115269  70.107  74.953 103.059
 2350DT     SC215270  70.005  74.927 103.246
 2350DT     SC315271  70.282  75.090 103.202
 2351DG     BB115272  69.691  74.678 102.619
 2351DG     BB215273  69.529  74.764 102.931
 2351DG     BB315274  69.462  74.951 102.923
 2351DG     SC115275  69.720  75.076 103.030
 2351DG     SC215276  69.752  75.215 103.292
 2351DG     SC315277  69.994  75.248 103.126
 2351DG     SC415278  69.835  75.116 102.927
 2352DA     BB115279  69.144  74.840 103.016
 2352DA     BB215280  69.161  75.041 103.322
 2352DA     BB315281  69.114  75.245 103.279
 2352DA     SC115282  69.409  75.327 103.223
 2352DA     SC215283  69.585  75.466 103.331
 2352DA     SC315284  69.695  75.471 103.099
 2352DA     SC415285  69.460  75.319 103.071
 2353DA     BB115286  68.894  75.197 103.517
 2353DA     BB215287  69.072  75.454 103.708
 2353DA     BB315288  69.022  75.648 103.635
 2353DA     SC115289  69.254  75.658 103.429
 2353DA     SC215290  69.468  75.781 103.397
 2353DA     SC315291  69.448  75.713 103.151
 2353DA     SC415292  69.223  75.607 103.279
 2354DT     BB115293  68.921  75.770 103.759
 2354DT     BB215294  69.199  75.984 103.841
 2354DT     BB315295  69.181  76.165 103.743
 2354DT     SC115296  69.251  76.057 103.514
 2354DT     SC215297  69.445  76.130 103.457
 2354DT     SC315298  69.237  75.974 103.264
 2355DC     BB115299  69.126  76.278 103.980
 2355DC     BB215300  69.415  76.455 103.858
 2355DC     BB315301  69.355  76.610 103.733
 2355DC     SC115302  69.299  76.442 103.539
 2355DC     SC215303  69.441  76.466 103.380
 2355DC     SC315304  69.159  76.307 103.361
 2356DT     BB115305  69.429  76.782 103.926
 2356DT     BB215306  69.622  76.878 103.637
 2356DT     BB315307  69.513  77.007 103.518
 2356DT     SC115308  69.363  76.811 103.430
 2356DT     SC215309  69.407  76.775 103.223
 2356DT     SC315310  69.149  76.663 103.384
 2357DT     BB115311  69.680  77.199 103.598
 2357DT     BB215312  69.706  77.195 103.238
 2357DT     BB315313  69.555  77.310 103.155
 2357DT     SC115314  69.375  77.125 103.207
 2357DT     SC215315  69.308  77.037 103.022
 2357DT     SC315316  69.163  77.007 103.311
 2358DA     BB115317  69.925  77.418 102.992
 2358DA     BB215318  69.688  77.368 102.717
 2358DA     BB315319  69.545  77.526 102.712
 2358DA     SC115320  69.342  77.381 102.898
 2358DA     SC215321  69.117  77.274 102.878
 2358DA     SC315322  69.103  77.304 103.132
 2358DA     SC415323  69.352  77.409 103.055
 2359DT     BB115324  69.560  77.626 102.558
 2359DT     BB215325  69.261  77.506 102.397
 2359DT     BB315326  69.107  77.642 102.423
 2359DT     SC115327  69.075  77.571 102.673
 2359DT     SC215328  68.888  77.467 102.695
 2359DT     SC315329  69.068  77.585 102.936
 2360DT     BB115330  69.139  77.681 102.166
 2360DT     BB215331  68.793  77.590 102.205
 2360DT     BB315332  68.682  77.755 102.264
 2360DT     SC115333  68.778  77.740 102.508
 2360DT     SC215334  68.622  77.679 102.643
 2360DT     SC315335  68.907  77.807 102.728
 2361DG     BB115336  68.522  77.602 101.922
 2361DG     BB215337  68.270  77.652 102.177
 2361DG     BB315338  68.226  77.846 102.192
 2361DG     SC115339  68.440  77.903 102.403
 2361DG     SC215340  68.390  77.981 102.687
 2361DG     SC315341  68.677  78.005 102.620
 2361DG     SC415342  68.587  77.943 102.355
 2362DC     BB115343  68.030  77.905 102.149
 2362DC     BB215344  67.900  77.989 102.476
 2362DC     BB315345  67.910  78.194 102.505
 2362DC     SC115346  68.170  78.184 102.541
 2362DC     SC215347  68.214  78.227 102.747
 2362DC     SC315348  68.427  78.226 102.503
 2363DT     BB115349  67.640  78.215 102.477
 2363DT     BB215350  67.709  78.368 102.796
 2363DT     BB315351  67.758  78.568 102.770
 2363DT     SC115352  67.996  78.505 102.678
 2363DT     SC215353  68.146  78.564 102.821
 2363DT     SC315354  68.200  78.483 102.512
 2364DT     BB115355  67.516  78.659 102.868
 2364DT     BB215356  67.761  78.826 103.073
 2364DT     BB315357  67.817  79.004 102.984
 2364DT     SC115358  67.962  78.878 102.805
 2364DT     SC215359  68.171  78.916 102.842
 2364DT     SC315360  68.046  78.790 102.571
 2365DC     BB115361  67.677  79.163 103.164
 2365DC     BB215362  68.015  79.285 103.186
 2365DC     BB315363  68.046  79.434 103.046
 2365DC     SC115364  68.056  79.260 102.850
 2365DC     SC215365  68.256  79.249 102.774
 2365DC     SC315366  67.992  79.132 102.629
 2366DA     BB115367  68.164  79.608 103.410
 2366DA     BB215368  68.434  79.665 103.168
 2366DA     BB315369  68.379  79.819 103.031
 2366DA     SC115370  68.251  79.623 102.825
 2366DA     SC215371  68.302  79.537 102.596
 2366DA     SC315372  68.053  79.476 102.587
 2366DA     SC415373  68.094  79.594 102.838
 2367DC     BB115374  68.479  80.005 103.026
 2367DC     BB215375  68.668  79.941 102.726
 2367DC     BB315376  68.592  80.054 102.569
 2367DC     SC115377  68.384  79.895 102.547
 2367DC     SC215378  68.399  79.784 102.363
 2367DC     SC315379  68.134  79.813 102.547
 2368DA     BB115380  69.004  80.132 102.585
 2368DA     BB215381  68.919  80.041 102.240
 2368DA     BB315382  68.815  80.202 102.145
 2368DA     SC115383  68.533  80.100 102.228
 2368DA     SC215384  68.332  80.001 102.118
 2368DA     SC315385  68.205  80.078 102.327
 2368DA     SC415386  68.471  80.157 102.365
 2369DT     BB115387  68.906  80.292 101.992
 2369DT     BB215388  68.707  80.140 101.732
 2369DT     BB315389  68.570  80.277 101.659
 2369DT     SC115390  68.420  80.255 101.873
 2369DT     SC215391  68.237  80.156 101.822
 2369DT     SC315392  68.294  80.320 102.095
 2370DT     BB115393  68.715  80.282 101.435
 2370DT     BB215394  68.386  80.177 101.332
 2370DT     BB315395  68.265  80.343 101.301
 2370DT     SC115396  68.240  80.382 101.559
 2370DT     SC215397  68.038  80.338 101.619
 2370DT     SC315398  68.258  80.498 101.795
 2371DA     BB115399  68.248  80.081 100.974
 2371DA     BB215400  67.906  80.164 101.075
 2371DA     BB315401  67.860  80.366 101.025
 2371DA     SC115402  67.956  80.481 101.298
 2371DA     SC215403  67.854  80.585 101.500
 2371DA     SC315404  68.089  80.676 101.547
 2371DA     SC415405  68.109  80.530 101.309
 2372DC     BB115406  67.728  80.369 100.903
 2372DC     BB215407  67.467  80.484 101.124
 2372DC     BB315408  67.443  80.689 101.106
 2372DC     SC115409  67.664  80.734 101.241
 2372DC     SC215410  67.614  80.819 101.432
 2372DC     SC315411  67.909  80.815 101.297
 2373DT     BB115412  67.213  80.630 100.989
 2373DT     BB215413  67.127  80.845 101.265
 2373DT     BB315414  67.153  81.043 101.212
 2373DT     SC115415  67.414  81.021 101.229
 2373DT     SC215416  67.484  81.135 101.399
 2373DT     SC315417  67.668  81.018 101.159
 2374DT     BB115418  66.884  81.073 101.205
 2374DT     BB215419  66.998  81.326 101.436
 2374DT     BB315420  67.053  81.497 101.332
 2374DT     SC115421  67.275  81.385 101.248
 2374DT     SC215422  67.443  81.479 101.345
 2374DT     SC315423  67.456  81.286 101.085
 2375DT     BB115424  66.830  81.630 101.420
 2375DT     BB215425  67.106  81.837 101.526
 2375DT     BB315426  67.157  81.969 101.374
 2375DT     SC115427  67.273  81.777 101.237
 2375DT     SC215428  67.486  81.808 101.236
 2375DT     SC315429  67.322  81.607 101.041
 2376DT     BB115430  67.049  82.183 101.508
 2376DT     BB215431  67.393  82.276 101.453
 2376DT     BB315432  67.413  82.370 101.270
 2376DT     SC115433  67.388  82.143 101.141
 2376DT     SC215434  67.576  82.091 101.051
 2376DT     SC315435  67.289  81.957 100.982
 2377DA     BB115436  67.591  82.612 101.561
 2377DA     BB215437  67.830  82.569 101.287
 2377DA     BB315438  67.769  82.683 101.117
 2377DA     SC115439  67.603  82.451 100.992
 2377DA     SC215440  67.617  82.300 100.794
 2377DA     SC315441  67.365  82.265 100.828
 2377DA     SC415442  67.446  82.444 101.028
 2378DT     BB115443  67.891  82.817 101.075
 2378DT     BB215444  68.035  82.657 100.786
 2378DT     BB315445  67.954  82.737 100.613
 2378DT     SC115446  67.728  82.609 100.649
 2378DT     SC215447  67.708  82.456 100.500
 2378DT     SC315448  67.471  82.565 100.692
 2379DA     BB115449  68.374  82.706 100.609
 2379DA     BB215450  68.241  82.568 100.297
 2379DA     BB315451  68.157  82.723 100.177
 2379DA     SC115452  67.871  82.694 100.296
 2379DA     SC215453  67.647  82.614 100.222
 2379DA     SC315454  67.556  82.752 100.417
 2379DA     SC415455  67.834  82.786 100.422
 2380DC     BB115456  68.253  82.718 100.039
 2380DC     BB215457  68.007  82.585  99.812
 2380DC     BB315458  67.903  82.740  99.722
 2380DC     SC115459  67.766  82.786  99.941
 2380DC     SC215460  67.561  82.729  99.911
 2380DC     SC315461  67.673  82.910 100.154
 2381DT     BB115462  68.033  82.662  99.510
 2381DT     BB215463  67.686  82.659  99.413
 2381DT     BB315464  67.624  82.851  99.367
 2381DT     SC115465  67.617  82.917  99.621
 2381DT     SC215466  67.412  82.945  99.682
 2381DT     SC315467  67.674  83.041  99.847
 2382DA     BB115468  67.516  82.618  99.033
 2382DA     BB215469  67.230  82.832  99.117
 2382DA     BB315470  67.270  83.035  99.063
 2382DA     SC115471  67.392  83.110  99.339
 2382DA     SC215472  67.331  83.251  99.535
 2382DA     SC315473  67.582  83.244  99.592
 2382DA     SC415474  67.551  83.095  99.356
 2383DA     BB115475  66.990  83.031  98.879
 2383DA     BB215476  66.864  83.304  99.089
 2383DA     BB315477  66.950  83.490  99.029
 2383DA     SC115478  67.192  83.468  99.223
 2383DA     SC215479  67.273  83.581  99.431
 2383DA     SC315480  67.502  83.484  99.369
 2383DA     SC415481  67.327  83.401  99.167
 2384DT     BB115482  66.840  83.662  98.930
 2384DT     BB215483  66.835  83.879  99.218
 2384DT     BB315484  66.961  84.040  99.188
 2384DT     SC115485  67.173  83.891  99.227
 2384DT     SC215486  67.267  83.947  99.412
 2384DT     SC315487  67.400  83.765  99.179
 2385DT     BB115488  66.755  84.227  99.146
 2385DT     BB215489  66.944  84.367  99.420
 2385DT     BB315490  67.093  84.491  99.347
 2385DT     SC115491  67.237  84.286  99.269
 2385DT     SC215492  67.413  84.272  99.393
 2385DT     SC315493  67.366  84.119  99.111
 2386DC     BB115494  66.960  84.719  99.429
 2386DC     BB215495  67.281  84.741  99.591
 2386DC     BB315496  67.416  84.838  99.468
 2386DC     SC115497  67.439  84.628  99.313
 2386DC     SC215498  67.635  84.542  99.337
 2386DC     SC315499  67.426  84.475  99.098
 2387DA     BB115500  67.429  85.031  99.840
 2387DA     BB215501  67.774  84.958  99.739
 2387DA     BB315502  67.835  85.089  99.583
 2387DA     SC115503  67.741  84.900  99.354
 2387DA     SC215504  67.845  84.758  99.178
 2387DA     SC315505  67.616  84.769  99.062
 2387DA     SC415506  67.592  84.919  99.298
 2388DG     BB115507  68.056  85.185  99.782
 2388DG     BB215508  68.279  85.044  99.534
 2388DG     BB315509  68.310  85.176  99.388
 2388DG     SC115510  68.074  85.082  99.218
 2388DG     SC215511  68.091  84.948  98.952
 2388DG     SC315512  67.811  85.019  99.017
 2388DG     SC415513  67.930  85.148  99.243
 2389DA     BB115514  68.656  85.139  99.432
 2389DA     BB215515  68.691  85.024  99.086
 2389DA     BB315516  68.685  85.189  98.951
 2389DA     SC115517  68.377  85.178  98.912
 2389DA     SC215518  68.216  85.119  98.730
 2389DA     SC315519  68.046  85.256  98.865
 2389DA     SC415520  68.286  85.268  99.009
 2390DA     BB115521  68.979  85.083  98.835
 2390DA     BB215522  68.815  85.032  98.511
 2390DA     BB315523  68.799  85.217  98.406
 2390DA     SC115524  68.518  85.286  98.523
 2390DA     SC215525  68.283  85.302  98.441
 2390DA     SC315526  68.243  85.446  98.649
 2390DA     SC415527  68.514  85.374  98.657
 2391DA     BB115528  68.960  85.070  98.156
 2391DA     BB215529  68.658  85.115  97.954
 2391DA     BB315530  68.650  85.314  97.876
 2391DA     SC115531  68.490  85.428  98.118
 2391DA     SC215532  68.261  85.514  98.164
 2391DA     SC315533  68.366  85.627  98.369
 2391DA     SC415534  68.575  85.491  98.239
 2392DA     BB115535  68.618  85.143  97.600
 2392DA     BB215536  68.285  85.294  97.571
 2392DA     BB315537  68.301  85.497  97.507
 2392DA     SC115538  68.316  85.614  97.795
 2392DA     SC215539  68.172  85.750  97.946
 2392DA     SC315540  68.389  85.801  98.073
 2392DA     SC415541  68.461  85.635  97.859
 2393DT     BB115542  68.223  85.524  97.338
 2393DT     BB215543  67.927  85.693  97.457
 2393DT     BB315544  67.946  85.897  97.430
 2393DT     SC115545  68.113  85.916  97.632
 2393DT     SC215546  68.018  86.020  97.794
 2393DT     SC315547  68.335  85.960  97.767
 2394DA     BB115548  67.579  85.746  97.291
 2394DA     BB215549  67.514  86.040  97.500
 2394DA     BB315550  67.584  86.217  97.403
 2394DA     SC115551  67.867  86.204  97.530
 2394DA     SC215552  68.000  86.332  97.698
 2394DA     SC315553  68.205  86.223  97.588
 2394DA     SC415554  67.982  86.128  97.447
 2395DG     BB115555  67.284  86.274  97.447
 2395DG     BB215556  67.417  86.541  97.652
 2395DG     BB315557  67.485  86.688  97.537
 2395DG     SC115558  67.768  86.574  97.514
 2395DG     SC215559  68.016  86.697  97.627
 2395DG     SC315560  68.082  86.468  97.451
 2395DG     SC415561  67.801  86.471  97.396
 2396DA     BB115562  67.289  86.892  97.739
 2396DA     BB215563  67.586  87.089  97.825
 2396DA     BB315564  67.645  87.211  97.660
 2396DA     SC115565  67.836  86.997  97.540
 2396DA     SC215566  68.082  86.965  97.511
 2396DA     SC315567  68.018  86.796  97.329
 2396DA     SC415568  67.776  86.897  97.430
 2397DT     BB115569  67.629  87.417  97.670
 2397DT     BB215570  67.982  87.487  97.700
 2397DT     BB315571  68.054  87.562  97.521
 2397DT     SC115572  68.048  87.324  97.410
 2397DT     SC215573  68.249  87.255  97.378
 2397DT     SC315574  67.980  87.128  97.247
 2398DT     BB115575  68.076  87.826  97.612
 2398DT     BB215576  68.408  87.747  97.495
 2398DT     BB315577  68.427  87.796  97.295
 2398DT     SC115578  68.284  87.587  97.223
 2398DT     SC215579  68.411  87.445  97.124
 2398DT     SC315580  68.087  87.445  97.121
 2399DA     BB115581  68.747  87.995  97.479
 2399DA     BB215582  68.882  87.807  97.195
 2399DA     BB315583  68.836  87.905  97.012
 2399DA     SC115584  68.568  87.753  96.970
 2399DA     SC215585  68.477  87.579  96.815
 2399DA     SC315586  68.246  87.664  96.889
 2399DA     SC415587  68.434  87.820  97.027
 2400DA     BB115588  69.160  87.885  96.972
 2400DA     BB215589  69.091  87.673  96.681
 2400DA     BB315590  69.029  87.793  96.515
 2400DA     SC115591  68.726  87.775  96.585
 2400DA     SC215592  68.521  87.669  96.491
 2400DA     SC315593  68.392  87.842  96.629
 2400DA     SC415594  68.664  87.892  96.677
 2401DA     BB115595  69.272  87.616  96.393
 2401DA     BB215596  69.024  87.477  96.162
 2401DA     BB315597  68.971  87.622  96.014
 2401DA     SC115598  68.735  87.740  96.179
 2401DA     SC215599  68.486  87.744  96.167
 2401DA     SC315600  68.502  87.948  96.322
 2401DA     SC415601  68.766  87.865  96.274
 2402DC     BB115602  69.021  87.558  95.857
 2402DC     BB215603  68.691  87.479  95.734
 2402DC     BB315604  68.620  87.633  95.616
 2402DC     SC115605  68.574  87.783  95.827
 2402DC     SC215606  68.361  87.805  95.854
 2402DC     SC315607  68.591  87.984  95.997
 2403DT     BB115608  68.651  87.459  95.424
 2403DT     BB215609  68.304  87.557  95.408
 2403DT     BB315610  68.287  87.737  95.307
 2403DT     SC115611  68.380  87.871  95.514
 2403DT     SC215612  68.222  87.988  95.600
 2403DT     SC315613  68.538  88.022  95.660
 2404DA     BB115614  68.017  87.463  95.138
 2404DA     BB215615  67.838  87.778  95.196
 2404DA     BB315616  67.904  87.927  95.058
 2404DA     SC115617  68.129  88.034  95.244
 2404DA     SC215618  68.177  88.240  95.377
 2404DA     SC315619  68.421  88.164  95.370
 2404DA     SC415620  68.276  87.971  95.228
 2405DT     BB115621  67.777  87.999  94.911
 2405DT     BB215622  67.719  88.325  95.055
 2405DT     BB315623  67.825  88.469  94.950
 2405DT     SC115624  68.052  88.392  95.057
 2405DT     SC215625  68.122  88.545  95.191
 2405DT     SC315626  68.296  88.296  95.078
 2406DA     BB115627  67.431  88.619  94.941
 2406DA     BB215628  67.650  88.893  95.047
 2406DA     BB315629  67.756  88.972  94.880
 2406DA     SC115630  67.999  88.782  94.914
 2406DA     SC215631  68.239  88.798  94.981
 2406DA     SC315632  68.268  88.574  94.860
 2406DA     SC415633  67.997  88.643  94.832
 2407DA     BB115634  67.630  89.270  94.960
 2407DA     BB215635  67.973  89.383  95.020
 2407DA     BB315636  68.068  89.433  94.836
 2407DA     SC115637  68.183  89.148  94.789
 2407DA     SC215638  68.406  89.036  94.790
 2407DA     SC315639  68.293  88.853  94.651
 2407DA     SC415640  68.095  89.045  94.703
 2408DT     BB115641  68.124  89.634  94.791
 2408DT     BB215642  68.477  89.588  94.854
 2408DT     BB315643  68.581  89.591  94.676
 2408DT     SC115644  68.498  89.350  94.613
 2408DT     SC215645  68.663  89.213  94.622
 2408DT     SC315646  68.375  89.156  94.482
 2409DT     BB115647  68.680  89.827  94.753
 2409DT     BB215648  68.968  89.614  94.709
 2409DT     BB315649  69.027  89.616  94.510
 2409DT     SC115650  68.825  89.463  94.441
 2409DT     SC215651  68.899  89.269  94.384
 2409DT     SC315652  68.602  89.385  94.324
 2410DC     BB115653  69.228  89.738  94.618
 2410DC     BB215654  69.365  89.446  94.458
 2410DC     BB315655  69.384  89.479  94.254
 2410DC     SC115656  69.125  89.455  94.218
 2410DC     SC215657  69.085  89.273  94.109
 2410DC     SC315658  68.876  89.517  94.157
 2411DA     BB115659  69.719  89.305  94.442
 2411DA     BB215660  69.645  89.121  94.134
 2411DA     BB315661  69.681  89.244  93.963
 2411DA     SC115662  69.391  89.355  93.952
 2411DA     SC215663  69.190  89.335  93.805
 2411DA     SC315664  69.113  89.554  93.914
 2411DA     SC415665  69.361  89.492  94.031
 2412DA     BB115666  69.832  88.954  93.918
 2412DA     BB215667  69.634  88.933  93.610
 2412DA     BB315668  69.693  89.086  93.474
 2412DA     SC115669  69.486  89.294  93.579
 2412DA     SC215670  69.277  89.403  93.498
 2412DA     SC315671  69.325  89.581  93.676
 2412DA     SC415672  69.534  89.394  93.694
 2413DA     BB115673  69.713  88.817  93.286
 2413DA     BB215674  69.474  88.982  93.062
 2413DA     BB315675  69.567  89.145  92.962
 2413DA     SC115676  69.491  89.354  93.178
 2413DA     SC215677  69.338  89.550  93.200
 2413DA     SC315678  69.488  89.620  93.396
 2413DA     SC415679  69.597  89.382  93.296
 2414DT     BB115680  69.593  89.131  92.765
 2414DT     BB215681  69.343  89.372  92.667
 2414DT     BB315682  69.434  89.550  92.613
 2414DT     SC115683  69.483  89.610  92.864
 2414DT     SC215684  69.360  89.776  92.923
 2414DT     SC315685  69.617  89.663  93.085
 2415DT     BB115686  69.383  89.505  92.349
 2415DT     BB215687  69.237  89.828  92.413
 2415DT     BB315688  69.380  89.977  92.389
 2415DT     SC115689  69.495  89.914  92.617
 2415DT     SC215690  69.462  90.071  92.759
 2415DT     SC315691  69.678  89.831  92.788
 2416DT     BB115692  69.269  90.061  92.153
 2416DT     BB215693  69.276  90.358  92.358
 2416DT     BB315694  69.458  90.455  92.336
 2416DT     SC115695  69.580  90.275  92.482
 2416DT     SC215696  69.640  90.363  92.669
 2416DT     SC315697  69.746  90.081  92.550
 2417DT     BB115698  69.347  90.657  92.186
 2417DT     BB215699  69.508  90.829  92.459
 2417DT     BB315700  69.705  90.869  92.411
 2417DT     SC115701  69.773  90.618  92.446
 2417DT     SC215702  69.897  90.601  92.621
 2417DT     SC315703  69.860  90.374  92.393
 2418DA     BB115704  69.550  91.243  92.524
 2418DA     BB215705  69.866  91.197  92.704
 2418DA     BB315706  70.031  91.226  92.572
 2418DA     SC115707  70.049  90.926  92.489
 2418DA     SC215708  70.204  90.734  92.524
 2418DA     SC315709  70.090  90.632  92.318
 2418DA     SC415710  69.967  90.880  92.358
 2419DT     BB115711  70.170  91.393  92.588
 2419DT     BB215712  70.447  91.205  92.723
 2419DT     BB315713  70.595  91.184  92.580
 2419DT     SC115714  70.455  91.004  92.450
 2419DT     SC215715  70.550  90.812  92.470
 2419DT     SC315716  70.319  90.889  92.256
 2420DC     BB115717  70.776  91.373  92.692
 2420DC     BB215718  70.970  91.069  92.673
 2420DC     BB315719  71.070  91.061  92.493
 2420DC     SC115720  70.850  91.002  92.363
 2420DC     SC215721  70.860  90.799  92.294
 2420DC     SC315722  70.648  91.024  92.195
 2421DG     BB115723  71.386  91.056  92.757
 2421DG     BB215724  71.404  90.775  92.531
 2421DG     BB315725  71.490  90.830  92.360
 2421DG     SC115726  71.228  90.912  92.226
 2421DG     SC215727  71.101  90.777  91.991
 2421DG     SC315728  70.961  91.030  92.055
 2421DG     SC415729  71.174  91.062  92.244
 2422DG     BB115730  71.740  90.611  92.390
 2422DG     BB215731  71.602  90.449  92.098
 2422DG     BB315732  71.682  90.528  91.933
 2422DG     SC115733  71.467  90.745  91.904
 2422DG     SC215734  71.266  90.764  91.685
 2422DG     SC315735  71.261  91.007  91.854
 2422DG     SC415736  71.488  90.885  91.979
 2423DT     BB115737  71.806  90.404  91.789
 2423DT     BB215738  71.567  90.354  91.524
 2423DT     BB315739  71.617  90.470  91.360
 2423DT     SC115740  71.533  90.688  91.478
 2423DT     SC215741  71.355  90.758  91.380
 2423DT     SC315742  71.536  90.927  91.589
 2424DA     BB115743  71.548  90.073  91.247
 2424DA     BB215744  71.354  90.292  91.025
 2424DA     BB315745  71.484  90.394  90.890
 2424DA     SC115746  71.525  90.639  91.076
 2424DA     SC215747  71.460  90.880  91.081
 2424DA     SC315748  71.654  90.908  91.247
 2424DA     SC415749  71.650  90.637  91.177
 2425DA     BB115750  71.258  90.258  90.699
 2425DA     BB215751  71.181  90.599  90.589
 2425DA     BB315752  71.338  90.675  90.465
 2425DA     SC115753  71.496  90.800  90.702
 2425DA     SC215754  71.552  91.028  90.786
 2425DA     SC315755  71.743  90.912  90.913
 2425DA     SC415756  71.610  90.710  90.771
 2426DC     BB115757  71.283  90.706  90.288
 2426DC     BB215758  71.282  91.067  90.300
 2426DC     BB315759  71.454  91.141  90.213
 2426DC     SC115760  71.599  91.072  90.421
 2426DC     SC215761  71.663  91.249  90.526
 2426DC     SC315762  71.782  90.950  90.567
 2427DT     BB115763  71.305  91.225  90.006
 2427DT     BB215764  71.475  91.522  90.120
 2427DT     BB315765  71.662  91.534  90.032
 2427DT     SC115766  71.756  91.345  90.187
 2427DT     SC215767  71.897  91.430  90.326
 2427DT     SC315768  71.859  91.114  90.263
 2428DT     BB115769  71.579  91.739  89.869
 2428DT     BB215770  71.869  91.873  90.037
 2428DT     BB315771  72.040  91.825  89.932
 2428DT     SC115772  72.031  91.576  90.013
 2428DT     SC215773  72.193  91.539  90.149
 2428DT     SC315774  72.011  91.313  90.005
 2429DA     BB115775  72.060  92.241  89.981
 2429DA     BB215776  72.386  92.105  90.077
 2429DA     BB315777  72.497  92.050  89.903
 2429DA     SC115778  72.391  91.758  89.897
 2429DA     SC215779  72.480  91.529  89.937
 2429DA     SC315780  72.277  91.449  89.801
 2429DA     SC415781  72.260  91.729  89.809
 2430DT     BB115782  72.676  92.154  89.843
 2430DT     BB215783  72.911  91.898  89.940
 2430DT     BB315784  72.990  91.807  89.772
 2430DT     SC115785  72.768  91.675  89.728
 2430DT     SC215786  72.801  91.466  89.766
 2430DT     SC315787  72.547  91.593  89.610
 2431DT     BB115788  73.237  91.932  89.802
 2431DT     BB215789  73.317  91.580  89.794
 2431DT     BB315790  73.352  91.519  89.600
 2431DT     SC115791  73.095  91.525  89.544
 2431DT     SC215792  73.023  91.325  89.516
 2431DT     SC315793  72.867  91.596  89.432
 2432DT     BB115794  73.611  91.497  89.662
 2432DT     BB215795  73.515  91.170  89.544
 2432DT     BB315796  73.527  91.163  89.338
 2432DT     SC115797  73.307  91.304  89.313
 2432DT     SC215798  73.150  91.179  89.236
 2432DT     SC315799  73.145  91.503  89.251
 2433DA     BB115800  73.739  90.836  89.494
 2433DA     BB215801  73.514  90.712  89.232
 2433DA     BB315802  73.584  90.771  89.040
 2433DA     SC115803  73.423  91.037  89.035
 2433DA     SC215804  73.228  91.132  88.913
 2433DA     SC315805  73.319  91.360  88.987
 2433DA     SC415806  73.496  91.169  89.090
 2434DG     BB115807  73.588  90.464  89.002
 2434DG     BB215808  73.336  90.539  88.753
 2434DG     BB315809  73.423  90.605  88.587
 2434DG     SC115810  73.418  90.899  88.671
 2434DG     SC215811  73.257  91.116  88.543
 2434DG     SC315812  73.446  91.228  88.740
 2434DG     SC415813  73.541  90.958  88.755
 2435DG     BB115814  73.275  90.359  88.429
 2435DG     BB215815  73.105  90.615  88.239
 2435DG     BB315816  73.224  90.681  88.094
 2435DG     SC115817  73.350  90.902  88.264
 2435DG     SC215818  73.317  91.196  88.223
 2435DG     SC315819  73.523  91.141  88.428
 2435DG     SC415820  73.480  90.868  88.351
 2436DA     BB115821  72.962  90.618  87.872
 2436DA     BB215822  72.958  90.972  87.775
 2436DA     BB315823  73.122  91.015  87.645
 2436DA     SC115824  73.316  91.093  87.875
 2436DA     SC215825  73.425  91.299  87.962
 2436DA     SC315826  73.591  91.139  88.075
 2436DA     SC415827  73.409  90.977  87.936
 2437DA     BB115828  72.886  91.130  87.443
 2437DA     BB215829  73.050  91.457  87.467
 2437DA     BB315830  73.226  91.462  87.346
 2437DA     SC115831  73.414  91.364  87.574
 2437DA     SC215832  73.597  91.457  87.715
 2437DA     SC315833  73.663  91.213  87.756
 2437DA     SC415834  73.440  91.205  87.586
 2438DC     BB115835  73.242  91.585  87.171
 2438DC     BB215836  73.460  91.833  87.318
 2438DC     BB315837  73.651  91.814  87.240
 2438DC     SC115838  73.696  91.599  87.384
 2438DC     SC215839  73.842  91.643  87.535
 2438DC     SC315840  73.747  91.347  87.444
 2439DC     BB115841  73.628  92.043  87.087
 2439DC     BB215842  73.915  92.103  87.298
 2439DC     BB315843  74.086  92.032  87.206
 2439DC     SC115844  74.022  91.784  87.258
 2439DC     SC215845  74.157  91.704  87.405
 2439DC     SC315846  73.955  91.531  87.221
 2440DC     BB115847  74.167  92.287  87.161
 2440DC     BB215848  74.429  92.140  87.360
 2440DC     BB315849  74.566  92.044  87.237
 2440DC     SC115850  74.400  91.845  87.195
 2440DC     SC215851  74.475  91.668  87.292
 2440DC     SC315852  74.240  91.677  87.069
 2441DT     BB115853  74.734  92.239  87.302
 2441DT     BB215854  74.894  91.934  87.410
 2441DT     BB315855  74.996  91.848  87.251
 2441DT     SC115856  74.771  91.765  87.143
 2441DT     SC215857  74.760  91.551  87.157
 2441DT     SC315858  74.575  91.739  86.969
 2442DG     BB115859  75.239  91.911  87.570
 2442DG     BB215860  75.251  91.568  87.457
 2442DG     BB315861  75.358  91.556  87.290
 2442DG     SC115862  75.119  91.601  87.104
 2442DG     SC215863  75.004  91.401  86.915
 2442DG     SC315864  74.884  91.668  86.872
 2442DG     SC415865  75.079  91.751  87.064
 2443DG     BB115866  75.525  91.343  87.465
 2443DG     BB215867  75.430  91.101  87.213
 2443DG     BB315868  75.545  91.123  87.052
 2443DG     SC115869  75.359  91.326  86.917
 2443DG     SC215870  75.203  91.282  86.667
 2443DG     SC315871  75.189  91.565  86.751
 2443DG     SC415872  75.378  91.482  86.949
 2444DG     BB115873  75.612  90.810  87.102
 2444DG     BB215874  75.473  90.754  86.774
 2444DG     BB315875  75.606  90.804  86.634
 2444DG     SC115876  75.513  91.095  86.615
 2444DG     SC215877  75.380  91.222  86.380
 2444DG     SC315878  75.450  91.425  86.583
 2444DG     SC415879  75.578  91.204  86.713
 2445DT     BB115880  75.678  90.653  86.501
 2445DT     BB215881  75.518  90.739  86.189
 2445DT     BB315882  75.652  90.838  86.066
 2445DT     SC115883  75.633  91.057  86.209
 2445DT     SC215884  75.530  91.208  86.095
 2445DT     SC315885  75.701  91.258  86.365
 2446DA     BB115886  75.495  90.524  85.836
 2446DA     BB215887  75.484  90.828  85.631
 2446DA     BB315888  75.680  90.880  85.565
 2446DA     SC115889  75.741  91.062  85.810
 2446DA     SC215890  75.771  91.305  85.856
 2446DA     SC315891  75.892  91.229  86.069
 2446DA     SC415892  75.814  90.995  85.936
 2447DG     BB115893  75.580  90.844  85.267
 2447DG     BB215894  75.656  91.197  85.240
 2447DG     BB315895  75.849  91.222  85.197
 2447DG     SC115896  75.938  91.232  85.490
 2447DG     SC215897  76.051  91.470  85.630
 2447DG     SC315898  76.073  91.228  85.799
 2447DG     SC415899  75.975  91.096  85.565
 2448DA     BB115900  75.776  91.422  84.915
 2448DA     BB215901  75.962  91.704  85.059
 2448DA     BB315902  76.172  91.678  85.027
 2448DA     SC115903  76.219  91.527  85.294
 2448DA     SC215904  76.331  91.569  85.513
 2448DA     SC315905  76.331  91.313  85.539
 2448DA     SC415906  76.210  91.366  85.291
 2449DC     BB115907  76.301  91.806  84.890
 2449DC     BB215908  76.470  91.989  85.150
 2449DC     BB315909  76.669  91.932  85.159
 2449DC     SC115910  76.607  91.704  85.273
 2449DC     SC215911  76.676  91.706  85.477
 2449DC     SC315912  76.581  91.445  85.311
 2450DT     BB115913  76.773  92.168  85.040
 2450DT     BB215914  76.946  92.149  85.355
 2450DT     BB315915  77.123  92.045  85.333
 2450DT     SC115916  76.997  91.816  85.317
 2450DT     SC215917  77.037  91.700  85.494
 2450DT     SC315918  76.906  91.588  85.219
 2451DT     BB115919  77.294  92.272  85.348
 2451DT     BB215920  77.415  92.057  85.611
 2451DT     BB315921  77.567  91.936  85.539
 2451DT     SC115922  77.397  91.785  85.409
 2451DT     SC215923  77.387  91.592  85.502
 2451DT     SC315924  77.272  91.667  85.209
 2452DT     BB115925  77.770  92.076  85.673
 2452DT     BB215926  77.806  91.737  85.791
 2452DT     BB315927  77.938  91.634  85.669
 2452DT     SC115928  77.760  91.614  85.478
 2452DT     SC215929  77.697  91.409  85.459
 2452DT     SC315930  77.642  91.645  85.244
 2453DT     BB115931  78.142  91.635  85.860
 2453DT     BB215932  78.094  91.285  85.786
 2453DT     BB315933  78.219  91.227  85.631
 2453DT     SC115934  78.068  91.349  85.455
 2453DT     SC215935  77.969  91.203  85.332
 2453DT     SC315936  77.993  91.520  85.268
 2454DT     BB115937  78.391  91.085  85.799
 2454DT     BB215938  78.286  90.841  85.555
 2454DT     BB315939  78.417  90.841  85.395
 2454DT     SC115940  78.318  91.066  85.304
 2454DT     SC215941  78.211  91.029  85.121
 2454DT     SC315942  78.303  91.319  85.230
 2455DA     BB115943  78.401  90.441  85.518
 2455DA     BB215944  78.349  90.445  85.155
 2455DA     BB315945  78.534  90.476  85.054
 2455DA     SC115946  78.507  90.786  85.049
 2455DA     SC215947  78.468  90.965  84.880
 2455DA     SC315948  78.568  91.123  85.055
 2455DA     SC415949  78.573  90.868  85.170
 2456DG     BB115950  78.487  90.196  84.921
 2456DG     BB215951  78.464  90.391  84.618
 2456DG     BB315952  78.646  90.421  84.542
 2456DG     SC115953  78.695  90.680  84.697
 2456DG     SC215954  78.720  90.953  84.578
 2456DG     SC315955  78.790  90.957  84.865
 2456DG     SC415956  78.760  90.673  84.843
 2457DT     BB115957  78.709  90.340  84.337
 2457DT     BB215958  78.700  90.642  84.140
 2457DT     BB315959  78.893  90.704  84.097
 2457DT     SC115960  78.927  90.791  84.342
 2457DT     SC215961  78.936  91.006  84.341
 2457DT     SC315962  79.025  90.814  84.586
 2458DG     BB115963  78.686  90.653  83.752
 2458DG     BB215964  78.835  90.982  83.771
 2458DG     BB315965  79.029  90.971  83.729
 2458DG     SC115966  79.115  90.924  84.019
 2458DG     SC215967  79.273  91.112  84.188
 2458DG     SC315968  79.242  90.851  84.322
 2458DG     SC415969  79.121  90.774  84.074
 2459DT     BB115970  79.080  91.082  83.570
 2459DT     BB215971  79.258  91.357  83.721
 2459DT     BB315972  79.462  91.323  83.710
 2459DT     SC115973  79.450  91.145  83.902
 2459DT     SC215974  79.546  91.223  84.078
 2459DT     SC315975  79.466  90.913  84.027
 2460DA     BB115976  79.347  91.709  83.590
 2460DA     BB215977  79.637  91.737  83.812
 2460DA     BB315978  79.811  91.658  83.718
 2460DA     SC115979  79.769  91.370  83.828
 2460DA     SC215980  79.879  91.218  83.993
 2460DA     SC315981  79.757  91.029  83.868
 2460DA     SC415982  79.686  91.267  83.737
 2461DA     BB115983  79.909  91.954  83.820
 2461DA     BB215984  80.180  91.781  83.996
 2461DA     BB315985  80.320  91.701  83.856
 2461DA     SC115986  80.176  91.426  83.832
 2461DA     SC215987  80.218  91.189  83.898
 2461DA     SC315988  80.045  91.130  83.718
 2461DA     SC415989  80.067  91.409  83.715
 2462DT     BB115990  80.495  91.780  83.857
 2462DT     BB215991  80.680  91.501  83.991
 2462DT     BB315992  80.774  91.398  83.838
 2462DT     SC115993  80.548  91.291  83.759
 2462DT     SC215994  80.550  91.081  83.802
 2462DT     SC315995  80.341  91.233  83.607
 2463DA     BB115996  81.095  91.481  84.099
 2463DA     BB215997  81.123  91.128  84.002
 2463DA     BB315998  81.198  91.112  83.803
 2463DA     SC115999  80.916  91.113  83.672
 2463DA     SC216000  80.767  90.952  83.552
 2463DA     SC316001  80.648  91.161  83.462
 2463DA     SC416002  80.856  91.255  83.626
 2464DA     BB116003  81.455  90.918  83.907
 2464DA     BB216004  81.326  90.649  83.695
 2464DA     BB316005  81.389  90.677  83.493
 2464DA     SC116006  81.139  90.844  83.412
 2464DA     SC216007  80.938  90.816  83.268
 2464DA     SC316008  80.925  91.072  83.272
 2464DA     SC416009  81.149  91.004  83.425
 2465DA     BB116010  81.527  90.371  83.496
 2465DA     BB216011  81.292  90.275  83.231
 2465DA     BB316012  81.364  90.340  83.041
 2465DA     SC116013  81.220  90.616  83.053
 2465DA     SC216014  81.030  90.730  82.938
 2465DA     SC316015  81.137  90.947  83.023
 2465DA     SC416016  81.302  90.740  83.113
 2466DT     BB116017  81.429  90.203  82.882
 2466DT     BB216018  81.137  90.242  82.674
 2466DT     BB316019  81.185  90.347  82.503
 2466DT     SC116020  81.197  90.573  82.636
 2466DT     SC216021  81.033  90.699  82.579
 2466DT     SC316022  81.295  90.793  82.743
 2467DG     BB116023  81.041  89.990  82.367
 2467DG     BB216024  80.867  90.268  82.214
 2467DG     BB316025  80.975  90.342  82.065
 2467DG     SC116026  81.125  90.543  82.242
 2467DG     SC216027  81.101  90.840  82.228
 2467DG     SC316028  81.322  90.760  82.408
 2467DG     SC416029  81.260  90.497  82.314
 2468DA     BB116030  80.692  90.307  81.869
 2468DA     BB216031  80.689  90.668  81.806
 2468DA     BB316032  80.838  90.719  81.662
 2468DA     SC116033  81.060  90.770  81.874
 2468DA     SC216034  81.186  90.964  81.966
 2468DA     SC316035  81.358  90.790  82.043
 2468DA     SC416036  81.156  90.646  81.912
 2469DA     BB116037  80.580  90.857  81.512
 2469DA     BB216038  80.755  91.177  81.546
 2469DA     BB316039  80.912  91.192  81.402
 2469DA     SC116040  81.128  91.068  81.588
 2469DA     SC216041  81.332  91.144  81.710
 2469DA     SC316042  81.396  90.895  81.715
 2469DA     SC416043  81.151  90.909  81.579
 2470DA     BB116044  80.756  91.472  81.327
 2470DA     BB216045  81.065  91.647  81.421
 2470DA     BB316046  81.211  91.627  81.267
 2470DA     SC116047  81.336  91.368  81.384
 2470DA     SC216048  81.549  91.299  81.494
 2470DA     SC316049  81.484  91.061  81.425
 2470DA     SC416050  81.279  91.227  81.331
 2471DA     BB116051  81.214  91.955  81.287
 2471DA     BB216052  81.566  91.928  81.384
 2471DA     BB316053  81.688  91.890  81.213
 2471DA     SC116054  81.669  91.580  81.240
 2471DA     SC216055  81.820  91.391  81.299
 2471DA     SC316056  81.648  91.243  81.178
 2471DA     SC416057  81.552  91.505  81.159
 2472DT     BB116058  81.816  92.031  81.162
 2472DT     BB216059  82.112  91.863  81.282
 2472DT     BB316060  82.218  91.784  81.123
 2472DT     SC116061  82.044  91.589  81.093
 2472DT     SC216062  82.135  91.403  81.150
 2472DT     SC316063  81.859  91.437  80.983
 2473DT     BB116064  82.405  91.973  81.164
 2473DT     BB216065  82.581  91.660  81.193
 2473DT     BB316066  82.640  91.594  81.005
 2473DT     SC116067  82.395  91.522  80.945
 2473DT     SC216068  82.384  91.307  80.936
 2473DT     SC316069  82.162  91.514  80.823
 2474DT     BB116070  82.891  91.653  81.077
 2474DT     BB216071  82.897  91.302  80.992
 2474DT     BB316072  82.921  91.279  80.788
 2474DT     SC116073  82.673  91.350  80.742
 2474DT     SC216074  82.561  91.179  80.674
 2474DT     SC316075  82.466  91.488  80.654
 2475DT     BB116076  83.168  91.190  80.840
 2475DT     BB216077  83.008  90.922  80.659
 2475DT     BB316078  83.023  90.956  80.455
 2475DT     SC116079  82.839  91.143  80.464
 2475DT     SC216080  82.662  91.073  80.365
 2475DT     SC316081  82.726  91.380  80.446
 2476DA     BB116082  83.150  90.566  80.547
 2476DA     BB216083  82.911  90.548  80.270
 2476DA     BB316084  82.998  90.625  80.091
 2476DA     SC116085  82.901  90.916  80.140
 2476DA     SC216086  82.736  91.075  80.041
 2476DA     SC316087  82.873  91.258  80.156
 2476DA     SC416088  83.000  91.016  80.218
 2477DT     BB116089  83.015  90.494  79.963
 2477DT     BB216090  82.748  90.608  79.748
 2477DT     BB316091  82.826  90.718  79.591
 2477DT     SC116092  82.873  90.924  79.747
 2477DT     SC216093  82.739  91.084  79.695
 2477DT     SC316094  83.004  91.110  79.879
 2478DA     BB116095  82.555  90.426  79.458
 2478DA     BB216096  82.471  90.745  79.298
 2478DA     BB316097  82.621  90.799  79.157
 2478DA     SC116098  82.791  90.960  79.362
 2478DA     SC216099  82.850  91.198  79.406
 2478DA     SC316100  83.047  91.103  79.540
 2478DA     SC416101  82.908  90.881  79.440
 2479DA     BB116102  82.340  90.821  78.990
 2479DA     BB216103  82.432  91.172  78.932
 2479DA     BB316104  82.599  91.184  78.799
 2479DA     SC116105  82.811  91.178  79.026
 2479DA     SC216106  82.975  91.335  79.130
 2479DA     SC316107  83.093  91.124  79.215
 2479DA     SC416108  82.870  91.035  79.069
 2480DC     BB116109  82.555  91.265  78.639
 2480DC     BB216110  82.734  91.574  78.690
 2480DC     BB316111  82.917  91.567  78.594
 2480DC     SC116112  83.015  91.407  78.778
 2480DC     SC216113  83.163  91.513  78.893
 2480DC     SC316114  83.118  91.192  78.891
 2481DT     BB116115  82.829  91.738  78.403
 2481DT     BB216116  83.130  91.893  78.527
 2481DT     BB316117  83.295  91.818  78.426
 2481DT     SC116118  83.282  91.592  78.558
 2481DT     SC216119  83.450  91.578  78.692
 2481DT     SC316120  83.254  91.334  78.607
 2482DG     BB116121  83.314  92.219  78.343
 2482DG     BB216122  83.631  92.098  78.467
 2482DG     BB316123  83.731  92.007  78.321
 2482DG     SC116124  83.611  91.731  78.378
 2482DG     SC216125  83.761  91.493  78.479
 2482DG     SC316126  83.486  91.419  78.400
 2482DG     SC416127  83.474  91.690  78.307
 2483DC     BB116128  83.941  92.076  78.220
 2483DC     BB216129  84.167  91.836  78.366
 2483DC     BB316130  84.227  91.699  78.222
 2483DC     SC116131  83.994  91.578  78.230
 2483DC     SC216132  84.018  91.383  78.319
 2483DC     SC316133  83.759  91.485  78.153
 2484DA     BB116134  84.590  91.844  78.376
 2484DA     BB216135  84.608  91.478  78.379
 2484DA     BB316136  84.642  91.403  78.182
 2484DA     SC116137  84.339  91.375  78.115
 2484DA     SC216138  84.175  91.192  78.078
 2484DA     SC316139  84.034  91.370  77.958
 2484DA     SC416140  84.267  91.500  78.043
 2485DA     BB116141  84.900  91.251  78.320
 2485DA     BB216142  84.741  90.934  78.227
 2485DA     BB316143  84.770  90.894  78.020
 2485DA     SC116144  84.509  91.037  77.931
 2485DA     SC216145  84.287  90.974  77.837
 2485DA     SC316146  84.272  91.219  77.761
 2485DA     SC416147  84.519  91.193  77.890
 2486DT     BB116148  84.887  90.734  77.961
 2486DT     BB216149  84.614  90.521  77.858
 2486DT     BB316150  84.606  90.511  77.651
 2486DT     SC116151  84.505  90.753  77.636
 2486DT     SC216152  84.301  90.741  77.571
 2486DT     SC316153  84.483  91.009  77.578
 2487DT     BB116154  84.701  90.254  77.654
 2487DT     BB216155  84.385  90.233  77.480
 2487DT     BB316156  84.413  90.270  77.278
 2487DT     SC116157  84.444  90.527  77.321
 2487DT     SC216158  84.275  90.633  77.241
 2487DT     SC316159  84.557  90.765  77.331
 2488DT     BB116160  84.373  90.005  77.217
 2488DT     BB216161  84.124  90.182  77.024
 2488DT     BB316162  84.204  90.238  76.841
 2488DT     SC116163  84.344  90.430  76.953
 2488DT     SC216164  84.264  90.621  76.893
 2488DT     SC316165  84.552  90.571  77.033
 2489DT     BB116166  84.055  90.049  76.709
 2489DT     BB216167  83.960  90.362  76.556
 2489DT     BB316168  84.088  90.405  76.400
 2489DT     SC116169  84.280  90.473  76.565
 2489DT     SC216170  84.313  90.685  76.554
 2489DT     SC316171  84.512  90.469  76.691
 2490DA     BB116172  83.696  90.433  76.257
 2490DA     BB216173  83.872  90.740  76.164
 2490DA     BB316174  84.009  90.702  76.005
 2490DA     SC116175  84.248  90.636  76.194
 2490DA     SC216176  84.465  90.740  76.259
 2490DA     SC316177  84.530  90.504  76.337
 2490DA     SC416178  84.270  90.483  76.235
 2491DT     BB116179  83.967  90.792  75.842
 2491DT     BB216180  84.224  91.044  75.868
 2491DT     BB316181  84.381  90.997  75.742
 2491DT     SC116182  84.464  90.807  75.903
 2491DT     SC216183  84.650  90.866  75.994
 2491DT     SC316184  84.526  90.567  75.993
 2492DG     BB116185  84.232  91.371  75.677
 2492DG     BB216186  84.589  91.374  75.734
 2492DG     BB316187  84.684  91.303  75.574
 2492DG     SC116188  84.679  91.012  75.669
 2492DG     SC216189  84.917  90.849  75.747
 2492DG     SC316190  84.674  90.681  75.732
 2492DG     SC416191  84.553  90.921  75.631
 2493DT     BB116192  84.809  91.436  75.498
 2493DT     BB216193  85.131  91.302  75.590
 2493DT     BB316194  85.208  91.190  75.435
 2493DT     SC116195  85.042  90.993  75.484
 2493DT     SC216196  85.152  90.825  75.562
 2493DT     SC316197  84.848  90.818  75.451
 2494DG     BB116198  85.471  91.482  75.543
 2494DG     BB216199  85.628  91.157  75.533
 2494DG     BB316200  85.657  91.102  75.344
 2494DG     SC116201  85.386  90.963  75.316
 2494DG     SC216202  85.341  90.670  75.280
 2494DG     SC316203  85.089  90.821  75.244
 2494DG     SC416204  85.259  91.049  75.268
 2495DA     BB116205  85.984  91.042  75.444
 2495DA     BB216206  85.953  90.693  75.338
 2495DA     BB316207  85.956  90.679  75.125
 2495DA     SC116208  85.648  90.704  75.094
 2495DA     SC216209  85.457  90.559  75.027
 2495DA     SC316210  85.331  90.779  74.984
 2495DA     SC416211  85.587  90.852  75.072
 2496DT     BB116212  86.112  90.587  75.039
 2496DT     BB216213  85.938  90.287  74.941
 2496DT     BB316214  85.898  90.291  74.738
 2496DT     SC116215  85.706  90.465  74.772
 2496DT     SC216216  85.516  90.371  74.732
 2496DT     SC316217  85.569  90.690  74.755
 2497DT     BB116218  86.089  90.101  74.692
 2497DT     BB216219  85.787  89.960  74.554
 2497DT     BB316220  85.762  90.023  74.359
 2497DT     SC116221  85.689  90.263  74.437
 2497DT     SC216222  85.480  90.291  74.394
 2497DT     SC316223  85.692  90.525  74.471
 2498DT     BB116224  85.824  89.775  74.272
 2498DT     BB216225  85.498  89.842  74.133
 2498DT     BB316226  85.517  89.943  73.954
 2498DT     SC116227  85.579  90.166  74.077
 2498DT     SC216228  85.418  90.307  74.055
 2498DT     SC316229  85.718  90.376  74.155
 2499DT     BB116230  85.438  89.719  73.828
 2499DT     BB216231  85.201  89.971  73.725
 2499DT     BB316232  85.276  90.077  73.563
 2499DT     SC116233  85.444  90.208  73.717
 2499DT     SC216234  85.383  90.414  73.729
 2499DT     SC316235  85.671  90.295  73.819
 2500DC     BB116236  85.093  89.954  73.413
 2500DC     BB216237  85.030  90.306  73.366
 2500DC     BB316238  85.155  90.381  73.218
 2500DC     SC116239  85.362  90.375  73.380
 2500DC     SC216240  85.420  90.577  73.428
 2500DC     SC316241  85.597  90.310  73.479
 2501DT     BB116242  84.942  90.401  73.055
 2501DT     BB216243  85.079  90.734  73.066
 2501DT     BB316244  85.230  90.752  72.925
 2501DT     SC116245  85.396  90.612  73.072
 2501DT     SC216246  85.551  90.741  73.148
 2501DT     SC316247  85.556  90.417  73.149
 2502DT     BB116248  85.066  90.908  72.782
 2502DT     BB216249  85.360  91.109  72.837
 2502DT     BB316250  85.504  91.066  72.694
 2502DT     SC116251  85.562  90.838  72.811
 2502DT     SC216252  85.758  90.850  72.898
 2502DT     SC316253  85.589  90.578  72.849
 2503DT     BB116254  85.456  91.305  72.583
 2503DT     BB216255  85.809  91.307  72.657
 2503DT     BB316256  85.914  91.216  72.504
 2503DT     SC116257  85.835  90.977  72.580
 2503DT     SC216258  86.003  90.869  72.660
 2503DT     SC316259  85.718  90.741  72.575
 2504DT     BB116260  86.006  91.458  72.438
 2504DT     BB216261  86.301  91.260  72.498
 2504DT     BB316262  86.350  91.153  72.328
 2504DT     SC116263  86.153  90.984  72.367
 2504DT     SC216264  86.233  90.792  72.421
 2504DT     SC316265  85.928  90.851  72.327
 2505DA     BB116266  86.692  91.357  72.462
 2505DA     BB216267  86.784  91.007  72.398
 2505DA     BB316268  86.787  90.969  72.188
 2505DA     SC116269  86.490  90.880  72.176
 2505DA     SC216270  86.361  90.669  72.139
 2505DA     SC316271  86.164  90.823  72.081
 2505DA     SC416272  86.380  90.992  72.142
 2506DG     BB116273  87.083  90.899  72.250
 2506DG     BB216274  86.979  90.569  72.143
 2506DG     BB316275  86.974  90.561  71.944
 2506DG     SC116276  86.682  90.653  71.923
 2506DG     SC216277  86.453  90.487  71.827
 2506DG     SC316278  86.372  90.769  71.862
 2506DG     SC416279  86.651  90.809  71.915
 2507DT     BB116280  87.105  90.424  71.831
 2507DT     BB216281  86.872  90.170  71.724
 2507DT     BB316282  86.824  90.198  71.525
 2507DT     SC116283  86.671  90.403  71.582
 2507DT     SC216284  86.465  90.350  71.548
 2507DT     SC316285  86.579  90.650  71.590
 2508DA     BB116286  86.950  89.797  71.550
 2508DA     BB216287  86.632  89.803  71.368
 2508DA     BB316288  86.661  89.878  71.170
 2508DA     SC116289  86.607  90.174  71.249
 2508DA     SC216290  86.430  90.346  71.211
 2508DA     SC316291  86.612  90.516  71.274
 2508DA     SC416292  86.734  90.264  71.290
 2509DA     BB116293  86.521  89.595  71.062
 2509DA     BB216294  86.253  89.801  70.918
 2509DA     BB316295  86.317  89.888  70.734
 2509DA     SC116296  86.429  90.146  70.866
 2509DA     SC216297  86.370  90.389  70.876
 2509DA     SC316298  86.614  90.424  70.946
 2509DA     SC416299  86.584  90.148  70.907
 2510DC     BB116300  86.232  89.835  70.537
 2510DC     BB216301  86.034  90.134  70.502
 2510DC     BB316302  86.115  90.256  70.355
 2510DC     SC116303  86.312  90.329  70.512
 2510DC     SC216304  86.287  90.536  70.565
 2510DC     SC316305  86.556  90.361  70.605
 2511DG     BB116306  85.734  90.175  70.232
 2511DG     BB216307  85.794  90.531  70.252
 2511DG     BB316308  85.892  90.593  70.090
 2511DG     SC116309  86.170  90.546  70.210
 2511DG     SC216310  86.370  90.758  70.277
 2511DG     SC316311  86.489  90.488  70.302
 2511DG     SC416312  86.238  90.402  70.193
 2512DA     BB116313  85.642  90.825  70.069
 2512DA     BB216314  85.889  91.093  70.107
 2512DA     BB316315  85.995  91.124  69.924
 2512DA     SC116316  86.221  90.921  69.992
 2512DA     SC216317  86.464  90.927  70.048
 2512DA     SC316318  86.466  90.681  69.977
 2512DA     SC416319  86.202  90.769  69.942
 2513DT     BB116320  85.963  91.294  69.854
 2513DT     BB216321  86.282  91.436  69.941
 2513DT     BB316322  86.405  91.441  69.775
 2513DT     SC116323  86.447  91.182  69.789
 2513DT     SC216324  86.651  91.145  69.847
 2513DT     SC316325  86.447  90.927  69.723
 2514DT     BB116326  86.371  91.701  69.792
 2514DT     BB216327  86.727  91.651  69.813
 2514DT     BB316328  86.807  91.631  69.623
 2514DT     SC116329  86.711  91.387  69.600
 2514DT     SC216330  86.874  91.246  69.604
 2514DT     SC316331  86.569  91.184  69.511
 2515DT     BB116332  86.914  91.867  69.672
 2515DT     BB216333  87.193  91.651  69.595
 2515DT     BB316334  87.215  91.635  69.389
 2515DT     SC116335  87.007  91.477  69.371
 2515DT     SC216336  87.072  91.278  69.319
 2515DT     SC316337  86.768  91.388  69.304
 2516DA     BB116338  87.585  91.733  69.561
 2516DA     BB216339  87.638  91.458  69.325
 2516DA     BB316340  87.620  91.527  69.124
 2516DA     SC116341  87.315  91.468  69.106
 2516DA     SC216342  87.165  91.308  68.987
 2516DA     SC316343  86.979  91.478  69.035
 2516DA     SC416344  87.214  91.587  69.144
 2517DA     BB116345  87.914  91.382  69.108
 2517DA     BB216346  87.772  91.168  68.847
 2517DA     BB316347  87.748  91.277  68.665
 2517DA     SC116348  87.458  91.370  68.730
 2517DA     SC216349  87.227  91.325  68.648
 2517DA     SC316350  87.166  91.547  68.759
 2517DA     SC416351  87.440  91.511  68.804
 2518DC     BB116352  87.862  91.226  68.506
 2518DC     BB216353  87.601  91.073  68.309
 2518DC     BB316354  87.545  91.199  68.155
 2518DC     SC116355  87.414  91.355  68.321
 2518DC     SC216356  87.203  91.337  68.284
 2518DC     SC316357  87.346  91.570  68.458
 2519DT     BB116358  87.670  91.040  67.970
 2519DT     BB216359  87.330  91.065  67.850
 2519DT     BB316360  87.310  91.232  67.729
 2519DT     SC116361  87.314  91.393  67.937
 2519DT     SC216362  87.119  91.479  67.964
 2519DT     SC316363  87.394  91.581  68.104
 2520DT     BB116364  87.297  91.079  67.501
 2520DT     BB216365  86.996  91.278  67.491
 2520DT     BB316366  87.034  91.458  67.395
 2520DT     SC116367  87.162  91.551  67.604
 2520DT     SC216368  87.047  91.708  67.695
 2520DT     SC316369  87.359  91.644  67.754
 2521DG     BB116370  86.740  91.290  67.165
 2521DG     BB216371  86.652  91.629  67.257
 2521DG     BB316372  86.744  91.758  67.137
 2521DG     SC116373  86.993  91.782  67.313
 2521DG     SC216374  87.079  92.027  67.462
 2521DG     SC316375  87.288  91.818  67.472
 2521DG     SC416376  87.114  91.680  67.291
 2522DT     BB116377  86.635  91.900  66.993
 2522DT     BB216378  86.672  92.216  67.165
 2522DT     BB316379  86.814  92.332  67.069
 2522DT     SC116380  87.010  92.186  67.164
 2522DT     SC216381  87.121  92.300  67.309
 2522DT     SC316382  87.217  92.023  67.171
 2523DA     BB116383  86.471  92.570  67.107
 2523DA     BB216384  86.757  92.765  67.227
 2523DA     BB316385  86.877  92.831  67.063
 2523DA     SC116386  87.062  92.580  67.067
 2523DA     SC216387  87.298  92.526  67.125
 2523DA     SC316388  87.264  92.316  66.981
 2523DA     SC416389  87.021  92.456  66.973
 2524DT     BB116390  86.886  93.027  67.028
 2524DT     BB216391  87.221  93.079  67.151
 2524DT     BB316392  87.353  93.101  66.993
 2524DT     SC116393  87.345  92.843  66.941
 2524DT     SC216394  87.535  92.755  66.990
 2524DT     SC316395  87.301  92.618  66.812
 2525DC     BB116396  87.373  93.361  67.055
 2525DC     BB216397  87.712  93.238  67.065
 2525DC     BB316398  87.794  93.242  66.875
 2525DC     SC116399  87.654  93.032  66.802
 2525DC     SC216400  87.785  92.864  66.775
 2525DC     SC316401  87.479  92.884  66.672
 2526DA     BB116402  88.065  93.444  67.124
 2526DA     BB216403  88.256  93.204  66.923
 2526DA     BB316404  88.271  93.272  66.721
 2526DA     SC116405  88.012  93.127  66.627
 2526DA     SC216406  87.951  92.935  66.481
 2526DA     SC316407  87.718  93.041  66.471
 2526DA     SC416408  87.874  93.210  66.633
 2527DT     BB116409  88.456  93.333  66.636
 2527DT     BB216410  88.504  93.046  66.424
 2527DT     BB316411  88.470  93.097  66.226
 2527DT     SC116412  88.210  93.103  66.265
 2527DT     SC216413  88.119  92.938  66.161
 2527DT     SC316414  87.964  93.196  66.282
 2528DC     BB116415  88.743  93.104  66.140
 2528DC     BB216416  88.588  92.872  65.911
 2528DC     BB316417  88.522  92.972  65.743
 2528DC     SC116418  88.319  93.074  65.874
 2528DC     SC216419  88.136  92.985  65.803
 2528DC     SC316420  88.160  93.253  65.985
 2529DT     BB116421  88.728  92.892  65.551
 2529DT     BB216422  88.420  92.786  65.395
 2529DT     BB316423  88.353  92.932  65.265
 2529DT     SC116424  88.272  93.083  65.465
 2529DT     SC216425  88.057  93.089  65.467
 2529DT     SC316426  88.255  93.287  65.630
 2530DA     BB116427  88.373  92.596  65.015
 2530DA     BB216428  88.035  92.735  64.985
 2530DA     BB316429  88.035  92.904  64.855
 2530DA     SC116430  88.086  93.109  65.084
 2530DA     SC216431  87.960  93.290  65.202
 2530DA     SC316432  88.191  93.376  65.273
 2530DA     SC416433  88.238  93.148  65.117
 2531DT     BB116434  87.932  92.893  64.678
 2531DT     BB216435  87.649  93.083  64.795
 2531DT     BB316436  87.648  93.270  64.706
 2531DT     SC116437  87.845  93.352  64.859
 2531DT     SC216438  87.772  93.499  64.998
 2531DT     SC316439  88.083  93.440  64.931
 2532DT     BB116440  87.437  93.164  64.602
 2532DT     BB216441  87.323  93.450  64.790
 2532DT     BB316442  87.358  93.623  64.683
 2532DT     SC116443  87.615  93.613  64.734
 2532DT     SC216444  87.667  93.774  64.868
 2532DT     SC316445  87.875  93.594  64.696
 2533DA     BB116446  86.979  93.578  64.868
 2533DA     BB216447  87.114  93.909  64.946
 2533DA     BB316448  87.127  94.028  64.769
 2533DA     SC116449  87.418  93.939  64.702
 2533DA     SC216450  87.646  94.039  64.699
 2533DA     SC316451  87.707  93.846  64.542
 2533DA     SC416452  87.436  93.812  64.605
 2534DG     BB116453  86.958  94.175  64.979
 2534DG     BB216454  87.226  94.415  64.945
 2534DG     BB316455  87.215  94.505  64.769
 2534DG     SC116456  87.390  94.299  64.625
 2534DG     SC216457  87.662  94.349  64.511
 2534DG     SC316458  87.562  94.082  64.432
 2534DG     SC416459  87.321  94.170  64.560
 2535DG     BB116460  87.209  94.773  64.953
 2535DG     BB216461  87.510  94.868  64.776
 2535DG     BB316462  87.463  94.933  64.593
 2535DG     SC116463  87.483  94.656  64.464
 2535DG     SC216464  87.687  94.571  64.263
 2535DG     SC316465  87.477  94.365  64.293
 2535DG     SC416466  87.354  94.562  64.460
 2536DT     BB116467  87.508  95.135  64.539
 2536DT     BB216468  87.784  95.095  64.311
 2536DT     BB316469  87.718  95.109  64.115
 2536DT     SC116470  87.611  94.870  64.126
 2536DT     SC216471  87.723  94.736  64.001
 2536DT     SC316472  87.429  94.679  64.124
 2537DG     BB116473  87.998  95.404  64.154
 2537DG     BB216474  88.066  95.196  63.866
 2537DG     BB316475  87.946  95.248  63.715
 2537DG     SC116476  87.723  95.054  63.794
 2537DG     SC216477  87.636  94.814  63.638
 2537DG     SC316478  87.450  94.867  63.863
 2537DG     SC416479  87.610  95.102  63.897
 2538DT     BB116480  88.021  95.334  63.516
 2538DT     BB216481  87.979  95.049  63.297
 2538DT     BB316482  87.815  95.078  63.174
 2538DT     SC116483  87.649  95.031  63.371
 2538DT     SC216484  87.549  94.843  63.336
 2538DT     SC316485  87.460  95.069  63.551
 2539DT     BB116486  87.980  95.117  62.962
 2539DT     BB216487  87.768  94.842  62.864
 2539DT     BB316488  87.593  94.914  62.779
 2539DT     SC116489  87.499  94.985  63.013
 2539DT     SC216490  87.334  94.858  63.065
 2539DT     SC316491  87.411  95.138  63.209
 2540DT     BB116492  87.684  94.825  62.544
 2540DT     BB216493  87.367  94.660  62.590
 2540DT     BB316494  87.213  94.783  62.525
 2540DT     SC116495  87.235  94.935  62.738
 2540DT     SC216496  87.062  94.908  62.863
 2540DT     SC316497  87.279  95.148  62.887
 2541DG     BB116498  87.193  94.429  62.324
 2541DG     BB216499  86.876  94.514  62.477
 2541DG     BB316500  86.786  94.656  62.370
 2541DG     SC116501  86.914  94.887  62.524
 2541DG     SC216502  86.770  95.081  62.700
 2541DG     SC316503  87.051  95.165  62.658
 2541DG     SC416504  87.055  94.945  62.475
 2542DT     BB116505  86.604  94.604  62.293
 2542DT     BB216506  86.378  94.792  62.502
 2542DT     BB316507  86.325  94.968  62.408
 2542DT     SC116508  86.559  95.075  62.459
 2542DT     SC216509  86.536  95.232  62.604
 2542DT     SC316510  86.797  95.181  62.419
 2543DT     BB116511  86.083  94.862  62.374
 2543DT     BB216512  86.026  95.169  62.555
 2543DT     BB316513  86.020  95.328  62.423
 2543DT     SC116514  86.281  95.322  62.391
 2543DT     SC216515  86.368  95.496  62.483
 2543DT     SC316516  86.516  95.297  62.275
 2544DA     BB116517  85.678  95.344  62.667
 2544DA     BB216518  85.835  95.676  62.666
 2544DA     BB316519  85.807  95.770  62.477
 2544DA     SC116520  86.071  95.659  62.356
 2544DA     SC216521  86.294  95.747  62.286
 2544DA     SC316522  86.312  95.532  62.146
 2544DA     SC416523  86.063  95.520  62.274
 2545DT     BB116524  85.699  95.928  62.480
 2545DT     BB216525  85.968  96.166  62.440
 2545DT     BB316526  85.975  96.231  62.243
 2545DT     SC116527  86.079  96.004  62.163
 2545DT     SC216528  86.284  96.037  62.104
 2545DT     SC316529  86.106  95.774  62.037
 2546DT     BB116530  85.890  96.460  62.341
 2546DT     BB216531  86.202  96.535  62.176
 2546DT     BB316532  86.171  96.557  61.972
 2546DT     SC116533  86.144  96.298  61.941
 2546DT     SC216534  86.314  96.222  61.832
 2546DT     SC316535  86.035  96.065  61.885
 2547DT     BB116536  86.222  96.810  62.019
 2547DT     BB216537  86.464  96.706  61.773
 2547DT     BB316538  86.379  96.707  61.584
 2547DT     SC116539  86.244  96.488  61.635
 2547DT     SC216540  86.323  96.327  61.517
 2547DT     SC316541  86.040  96.326  61.675
 2548DA     BB116542  86.746  96.914  61.581
 2548DA     BB216543  86.741  96.680  61.299
 2548DA     BB316544  86.600  96.744  61.152
 2548DA     SC116545  86.363  96.584  61.274
 2548DA     SC216546  86.225  96.385  61.214
 2548DA     SC316547  86.054  96.480  61.380
 2548DA     SC416548  86.269  96.659  61.380
 2549DA     BB116549  86.873  96.705  60.970
 2549DA     BB216550  86.681  96.458  60.779
 2549DA     BB316551  86.532  96.555  60.660
 2549DA     SC116552  86.312  96.539  60.879
 2549DA     SC216553  86.097  96.417  60.916
 2549DA     SC316554  86.045  96.602  61.086
 2549DA     SC416555  86.297  96.664  60.979
 2550DT     BB116556  86.551  96.548  60.462
 2550DT     BB216557  86.285  96.313  60.400
 2550DT     BB316558  86.118  96.413  60.329
 2550DT     SC116559  86.063  96.508  60.567
 2550DT     SC216560  85.884  96.415  60.642
 2550DT     SC316561  86.024  96.681  60.762
 2551DA     BB116562  86.189  96.110  60.045
 2551DA     BB216563  85.834  96.096  60.137
 2551DA     BB316564  85.728  96.258  60.048
 2551DA     SC116565  85.770  96.450  60.288
 2551DA     SC216566  85.632  96.554  60.468
 2551DA     SC316567  85.822  96.725  60.488
 2551DA     SC416568  85.898  96.547  60.284
 2552DG     BB116569  85.550  96.050  59.886
 2552DG     BB216570  85.283  96.183  60.091
 2552DG     BB316571  85.205  96.344  60.005
 2552DG     SC116572  85.397  96.541  60.140
 2552DG     SC216573  85.323  96.748  60.342
 2552DG     SC316574  85.603  96.782  60.254
 2552DG     SC416575  85.536  96.574  60.069
 2553DT     BB116576  84.983  96.360  59.930
 2553DT     BB216577  84.841  96.563  60.193
 2553DT     BB316578  84.804  96.754  60.122
 2553DT     SC116579  85.059  96.814  60.128
 2553DT     SC216580  85.094  96.958  60.284
 2553DT     SC316581  85.299  96.883  60.044
 2554DT     BB116582  84.539  96.699  60.132
 2554DT     BB216583  84.583  96.985  60.348
 2554DT     BB316584  84.573  97.159  60.237
 2554DT     SC116585  84.813  97.119  60.138
 2554DT     SC216586  84.949  97.265  60.218
 2554DT     SC316587  85.004  97.075  59.962
 2555DA     BB116588  84.327  97.174  60.575
 2555DA     BB216589  84.529  97.480  60.565
 2555DA     BB316590  84.465  97.606  60.405
 2555DA     SC116591  84.661  97.483  60.197
 2555DA     SC216592  84.866  97.553  60.073
 2555DA     SC316593  84.808  97.363  59.911
 2555DA     SC416594  84.607  97.361  60.107
 2556DG     BB116595  84.440  97.775  60.659
 2556DG     BB216596  84.689  97.974  60.488
 2556DG     BB316597  84.603  98.077  60.341
 2556DG     SC116598  84.645  97.858  60.131
 2556DG     SC216599  84.824  97.876  59.893
 2556DG     SC316600  84.657  97.632  59.881
 2556DG     SC416601  84.533  97.745  60.113
 2557DC     BB116602  84.623  98.274  60.362
 2557DC     BB216603  84.856  98.362  60.101
 2557DC     BB316604  84.753  98.424  59.932
 2557DC     SC116605  84.685  98.178  59.874
 2557DC     SC216606  84.789  98.114  59.697
 2557DC     SC316607  84.534  97.966  59.830
 2558DT     BB116608  84.834  98.674  59.985
 2558DT     BB216609  84.937  98.618  59.644
 2558DT     BB316610  84.780  98.658  59.515
 2558DT     SC116611  84.659  98.434  59.582
 2558DT     SC216612  84.664  98.298  59.415
 2558DT     SC316613  84.476  98.270  59.678
 2559DA     BB116614  85.085  98.904  59.358
 2559DA     BB216615  84.931  98.729  59.075
 2559DA     BB316616  84.742  98.815  59.028
 2559DA     SC116617  84.583  98.625  59.216
 2559DA     SC216618  84.421  98.436  59.194
 2559DA     SC316619  84.357  98.490  59.437
 2559DA     SC416620  84.556  98.674  59.367
 2560DA     BB116621  84.819  98.890  58.700
 2560DA     BB216622  84.551  98.665  58.590
 2560DA     BB316623  84.364  98.768  58.591
 2560DA     SC116624  84.294  98.689  58.884
 2560DA     SC216625  84.131  98.542  59.002
 2560DA     SC316626  84.180  98.686  59.208
 2560DA     SC416627  84.337  98.792  59.000
 2561DG     BB116628  84.287  98.762  58.261
 2561DG     BB216629  84.016  98.546  58.363
 2561DG     BB316630  83.850  98.652  58.388
 2561DG     SC116631  83.903  98.713  58.683
 2561DG     SC216632  83.743  98.612  58.915
 2561DG     SC316633  83.940  98.815  59.003
 2561DG     SC416634  83.989  98.842  58.722
 2562DA     BB116635  83.656  98.455  58.166
 2562DA     BB216636  83.443  98.346  58.444
 2562DA     BB316637  83.289  98.490  58.480
 2562DA     SC116638  83.456  98.652  58.687
 2562DA     SC216639  83.454  98.695  58.933
 2562DA     SC316640  83.597  98.901  58.877
 2562DA     SC416641  83.543  98.775  58.632
 2563DG     BB116642  83.096  98.256  58.413
 2563DG     BB216643  83.017  98.285  58.765
 2563DG     BB316644  82.879  98.425  58.792
 2563DG     SC116645  83.081  98.652  58.826
 2563DG     SC216646  83.131  98.806  59.077
 2563DG     SC316647  83.274  98.928  58.849
 2563DG     SC416648  83.132  98.731  58.697
 2564DT     BB116649  82.705  98.359  58.878
 2564DT     BB216650  82.744  98.483  59.215
 2564DT     BB316651  82.635  98.656  59.240
 2564DT     SC116652  82.810  98.795  59.102
 2564DT     SC216653  82.914  98.930  59.233
 2564DT     SC316654  82.913  98.944  58.910
 2565DT     BB116655  82.495  98.500  59.394
 2565DT     BB216656  82.610  98.770  59.605
 2565DT     BB316657  82.490  98.937  59.577
 2565DT     SC116658  82.601  98.988  59.345
 2565DT     SC216659  82.720  99.167  59.360
 2565DT     SC316660  82.627  99.023  59.085
 2566DA     BB116661  82.552  98.842  59.984
 2566DA     BB216662  82.615  99.200  59.934
 2566DA     BB316663  82.433  99.302  59.888
 2566DA     SC116664  82.462  99.266  59.580
 2566DA     SC216665  82.508  99.409  59.381
 2566DA     SC316666  82.405  99.218  59.245
 2566DA     SC416667  82.394  99.137  59.513
 2567DG     BB116668  82.522  99.451  60.143
 2567DG     BB216669  82.540  99.730  59.914
 2567DG     BB316670  82.357  99.799  59.877
 2567DG     SC116671  82.309  99.615  59.637
 2567DG     SC216672  82.281  99.701  59.352
 2567DG     SC316673  82.215  99.414  59.383
 2567DG     SC416674  82.246  99.470  59.662
 2568DT     BB116675  82.311  99.999  59.932
 2568DT     BB216676  82.304 100.165  59.611
 2568DT     BB316677  82.108 100.189  59.549
 2568DT     SC116678  82.087  99.935  59.488
 2568DT     SC216679  82.075  99.914  59.274
 2568DT     SC316680  82.004  99.685  59.493
 2569DG     BB116681  82.281 100.559  59.561
 2569DG     BB216682  82.128 100.494  59.240
 2569DG     BB316683  81.930 100.515  59.253
 2569DG     SC116684  81.879 100.223  59.329
 2569DG     SC216685  81.736 100.021  59.161
 2569DG     SC316686  81.788  99.915  59.432
 2569DG     SC416687  81.882 100.181  59.483
 2570DA     BB116688  81.971 100.722  58.980
 2570DA     BB216689  81.748 100.504  58.786
 2570DA     BB316690  81.545 100.532  58.847
 2570DA     SC116691  81.554 100.310  59.065
 2570DA     SC216692  81.457 100.083  59.101
 2570DA     SC316693  81.510 100.122  59.349
 2570DA     SC416694  81.594 100.354  59.214
 2571DA     BB116695  81.533 100.570  58.524
 2571DA     BB216696  81.302 100.285  58.523
 2571DA     BB316697  81.114 100.342  58.606
 2571DA     SC116698  81.190 100.264  58.897
 2571DA     SC216699  81.128 100.090  59.064
 2571DA     SC316700  81.223 100.252  59.239
 2571DA     SC416701  81.252 100.379  58.991
 2572DT     BB116702  80.969 100.336  58.481
 2572DT     BB216703  80.806 100.042  58.612
 2572DT     BB316704  80.643 100.096  58.727
 2572DT     SC116705  80.798 100.175  58.924
 2572DT     SC216706  80.776 100.039  59.089
 2572DT     SC316707  80.914 100.332  59.100
 2573DT     BB116708  80.479 100.005  58.531
 2573DT     BB216709  80.375  99.825  58.826
 2573DT     BB316710  80.237  99.936  58.932
 2573DT     SC116711  80.422 100.099  59.020
 2573DT     SC216712  80.449 100.069  59.232
 2573DT     SC316713  80.560 100.321  59.060
 2574DT     BB116714  80.030  99.771  58.855
 2574DT     BB216715  80.013  99.770  59.215
 2574DT     BB316716  79.893  99.926  59.281
 2574DT     SC116717  80.080 100.102  59.228
 2574DT     SC216718  80.157 100.182  59.412
 2574DT     SC316719  80.204 100.307  59.117
 2575DG     BB116720  79.712  99.591  59.429
 2575DG     BB216721  79.767  99.834  59.691
 2575DG     BB316722  79.625  99.973  59.685
 2575DG     SC116723  79.777 100.156  59.493
 2575DG     SC216724  79.887 100.426  59.558
 2575DG     SC316725  79.907 100.371  59.268
 2575DG     SC416726  79.759 100.135  59.335
 2576DG     BB116727  79.531  99.904  59.995
 2576DG     BB216728  79.630 100.242  60.079
 2576DG     BB316729  79.480 100.367  60.042
 2576DG     SC116730  79.564 100.422  59.753
 2576DG     SC216731  79.664 100.682  59.646
 2576DG     SC316732  79.615 100.489  59.427
 2576DG     SC416733  79.509 100.327  59.637
 2577DG     BB116734  79.483 100.462  60.358
 2577DG     BB216735  79.570 100.791  60.236
 2577DG     BB316736  79.405 100.890  60.185
 2577DG     SC116737  79.406 100.791  59.895
 2577DG     SC216738  79.451 100.959  59.653
 2577DG     SC316739  79.364 100.686  59.578
 2577DG     SC416740  79.331 100.654  59.860
 2578DT     BB116741  79.350 101.076  60.289
 2578DT     BB216742  79.433 101.325  60.042
 2578DT     BB316743  79.260 101.395  59.952
 2578DT     SC116744  79.235 101.175  59.812
 2578DT     SC216745  79.272 101.218  59.604
 2578DT     SC316746  79.134 100.949  59.721
 2579DA     BB116747  79.481 101.727  60.082
 2579DA     BB216748  79.379 101.788  59.735
 2579DA     BB316749  79.171 101.832  59.726
 2579DA     SC116750  79.085 101.536  59.685
 2579DA     SC216751  78.990 101.395  59.503
 2579DA     SC316752  78.921 101.235  59.691
 2579DA     SC416753  79.050 101.450  59.816
 2580DA     BB116754  79.287 102.095  59.565
 2580DA     BB216755  79.087 101.985  59.278
 2580DA     BB316756  78.880 102.026  59.312
 2580DA     SC116757  78.823 101.749  59.442
 2580DA     SC216758  78.698 101.541  59.386
 2580DA     SC316759  78.703 101.493  59.638
 2580DA     SC416760  78.835 101.738  59.602
 2581DT     BB116761  78.775 102.171  59.199
 2581DT     BB216762  78.578 101.942  59.001
 2581DT     BB316763  78.381 101.945  59.064
 2581DT     SC116764  78.440 101.807  59.279
 2581DT     SC216765  78.354 101.610  59.263
 2581DT     SC316766  78.471 101.745  59.533
 2582DG     BB116767  78.361 102.055  58.670
 2582DG     BB216768  78.135 101.782  58.741
 2582DG     BB316769  77.969 101.851  58.826
 2582DG     SC116770  78.077 101.827  59.112
 2582DG     SC216771  77.976 101.640  59.322
 2582DG     SC316772  78.170 101.832  59.436
 2582DG     SC416773  78.158 101.949  59.175
 2583DT     BB116774  77.757 101.838  58.733
 2583DT     BB216775  77.613 101.573  58.931
 2583DT     BB316776  77.475 101.651  59.064
 2583DT     SC116777  77.666 101.747  59.217
 2583DT     SC216778  77.672 101.636  59.402
 2583DT     SC316779  77.818 101.920  59.346
 2584DT     BB116780  77.266 101.548  58.921
 2584DT     BB216781  77.229 101.405  59.250
 2584DT     BB316782  77.116 101.531  59.369
 2584DT     SC116783  77.317 101.699  59.396
 2584DT     SC216784  77.389 101.692  59.599
 2584DT     SC316785  77.459 101.920  59.379
 2585DT     BB116786  76.923 101.348  59.355
 2585DT     BB216787  76.992 101.384  59.707
 2585DT     BB316788  76.885 101.543  59.784
 2585DT     SC116789  77.047 101.717  59.671
 2585DT     SC216790  77.163 101.816  59.823
 2585DT     SC316791  77.132 101.911  59.515
 2586DG     BB116792  76.817 101.197  59.987
 2586DG     BB216793  76.915 101.467  60.207
 2586DG     BB316794  76.764 101.595  60.229
 2586DG     SC116795  76.846 101.769  59.991
 2586DG     SC216796  76.943 102.051  60.006
 2586DG     SC316797  76.894 101.971  59.725
 2586DG     SC416798  76.790 101.733  59.845
 2587DT     BB116799  76.712 101.610  60.416
 2587DT     BB216800  76.827 101.940  60.507
 2587DT     BB316801  76.674 102.077  60.483
 2587DT     SC116802  76.699 102.072  60.222
 2587DT     SC216803  76.778 102.260  60.154
 2587DT     SC316804  76.639 102.034  59.968
 2588DA     BB116805  76.852 102.122  60.863
 2588DA     BB216806  76.809 102.455  60.715
 2588DA     BB316807  76.602 102.506  60.706
 2588DA     SC116808  76.560 102.387  60.421
 2588DA     SC216809  76.516 102.472  60.191
 2588DA     SC316810  76.432 102.234  60.142
 2588DA     SC416811  76.511 102.234  60.411
 2589DT     BB116812  76.528 102.657  60.823
 2589DT     BB216813  76.464 102.899  60.563
 2589DT     BB316814  76.262 102.906  60.521
 2589DT     SC116815  76.272 102.678  60.392
 2589DT     SC216816  76.242 102.713  60.182
 2589DT     SC316817  76.227 102.425  60.331
 2590DG     BB116818  76.300 103.300  60.651
 2590DG     BB216819  76.125 103.292  60.335
 2590DG     BB316820  75.932 103.256  60.365
 2590DG     SC116821  75.961 102.951  60.348
 2590DG     SC216822  75.849 102.776  60.134
 2590DG     SC316823  75.960 102.614  60.356
 2590DG     SC416824  75.995 102.869  60.481
 2591DA     BB116825  75.755 103.549  60.208
 2591DA     BB216826  75.588 103.333  59.962
 2591DA     BB316827  75.403 103.263  60.040
 2591DA     SC116828  75.525 103.006  60.165
 2591DA     SC216829  75.518 102.759  60.125
 2591DA     SC316830  75.597 102.738  60.368
 2591DA     SC416831  75.572 103.013  60.319
 2592DG     BB116832  75.185 103.406  59.824
 2592DG     BB216833  75.127 103.066  59.715
 2592DG     BB316834  74.967 102.992  59.806
 2592DG     SC116835  75.123 102.881  60.045
 2592DG     SC216836  75.160 102.592  60.111
 2592DG     SC316837  75.261 102.764  60.330
 2592DG     SC416838  75.149 102.975  60.171
 2593DG     BB116839  74.782 102.932  59.527
 2593DG     BB216840  74.821 102.581  59.604
 2593DG     BB316841  74.668 102.519  59.715
 2593DG     SC116842  74.804 102.584  59.982
 2593DG     SC216843  74.892 102.386  60.187
 2593DG     SC316844  74.914 102.663  60.290
 2593DG     SC416845  74.786 102.731  60.044
 2594DT     BB116846  74.520 102.356  59.645
 2594DT     BB216847  74.646 102.074  59.833
 2594DT     BB316848  74.515 102.028  59.987
 2594DT     SC116849  74.593 102.236  60.127
 2594DT     SC216850  74.703 102.169  60.299
 2594DT     SC316851  74.585 102.467  60.253
 2595DT     BB116852  74.449 101.805  59.851
 2595DT     BB216853  74.577 101.687  60.167
 2595DT     BB316854  74.425 101.684  60.308
 2595DT     SC116855  74.431 101.946  60.332
 2595DT     SC216856  74.510 101.998  60.525
 2595DT     SC316857  74.354 102.198  60.323
 2596DA     BB116858  74.630 101.319  60.301
 2596DA     BB216859  74.611 101.434  60.648
 2596DA     BB316860  74.411 101.417  60.721
 2596DA     SC116861  74.329 101.704  60.633
 2596DA     SC216862  74.273 101.922  60.743
 2596DA     SC316863  74.159 101.981  60.520
 2596DA     SC416864  74.263 101.722  60.488
 2597DA     BB116865  74.586 101.260  60.945
 2597DA     BB216866  74.461 101.510  61.183
 2597DA     BB316867  74.255 101.475  61.225
 2597DA     SC116868  74.151 101.658  60.996
 2597DA     SC216869  74.035 101.878  60.974
 2597DA     SC316870  73.972 101.797  60.738
 2597DA     SC416871  74.122 101.590  60.854
 2598DG     BB116872  74.379 101.453  61.505
 2598DG     BB216873  74.176 101.746  61.564
 2598DG     BB316874  73.987 101.693  61.594
 2598DG     SC116875  73.909 101.707  61.298
 2598DG     SC216876  73.720 101.903  61.176
 2598DG     SC316877  73.795 101.694  60.981
 2598DG     SC416878  73.928 101.578  61.207
 2599DT     BB116879  73.915 101.748  61.774
 2599DT     BB216880  73.696 102.021  61.688
 2599DT     BB316881  73.501 101.955  61.677
 2599DT     SC116882  73.546 101.836  61.447
 2599DT     SC216883  73.441 101.941  61.291
 2599DT     SC316884  73.571 101.645  61.267
 2600DT     BB116885  73.483 102.105  61.887
 2600DT     BB216886  73.241 102.235  61.653
 2600DT     BB316887  73.070 102.118  61.656
 2600DT     SC116888  73.189 101.926  61.522
 2600DT     SC216889  73.105 101.915  61.324
 2600DT     SC316890  73.292 101.690  61.465
 2601DT     BB116891  72.979 102.337  61.758
 2601DT     BB216892  72.770 102.268  61.473
 2601DT     BB316893  72.632 102.121  61.520
 2601DT     SC116894  72.816 101.934  61.508
 2601DT     SC216895  72.780 101.810  61.336
 2601DT     SC316896  72.978 101.740  61.584
 2602DA     BB116897  72.453 102.455  61.330
 2602DA     BB216898  72.324 102.147  61.177
 2602DA     BB316899  72.204 102.040  61.317
 2602DA     SC116900  72.441 101.871  61.428
 2602DA     SC216901  72.517 101.634  61.422
 2602DA     SC316902  72.656 101.695  61.629
 2602DA     SC416903  72.519 101.928  61.557
 2603DT     BB116904  72.013 102.026  61.277
 2603DT     BB216905  72.008 101.675  61.191
 2603DT     BB316906  71.934 101.565  61.350
 2603DT     SC116907  72.157 101.593  61.484
 2603DT     SC216908  72.258 101.403  61.494
 2603DT     SC316909  72.326 101.664  61.674
 2604DT     BB116910  71.694 101.520  61.223
 2604DT     BB216911  71.815 101.189  61.303
 2604DT     BB316912  71.753 101.136  61.493
 2604DT     SC116913  71.929 101.295  61.604
 2604DT     SC216914  72.082 101.178  61.701
 2604DT     SC316915  72.030 101.495  61.745
 2605DA     BB116916  71.630 100.821  61.246
 2605DA     BB216917  71.807 100.674  61.531
 2605DA     BB316918  71.685 100.682  61.706
 2605DA     SC116919  71.791 100.959  61.798
 2605DA     SC216920  71.932 101.051  61.981
 2605DA     SC316921  71.821 101.276  61.927
 2605DA     SC416922  71.710 101.089  61.750
 2606DC     BB116923  71.628 100.509  61.780
 2606DC     BB216924  71.852 100.509  62.063
 2606DC     BB316925  71.748 100.557  62.235
 2606DC     SC116926  71.735 100.810  62.166
 2606DC     SC216927  71.860 100.926  62.297
 2606DC     SC316928  71.634 101.044  62.097
 2607DA     BB116929  71.978 100.211  62.291
 2607DA     BB216930  72.041 100.439  62.572
 2607DA     BB316931  71.869 100.451  62.698
 2607DA     SC116932  71.743 100.691  62.546
 2607DA     SC216933  71.700 100.933  62.587
 2607DA     SC316934  71.528 100.914  62.398
 2607DA     SC416935  71.640 100.658  62.427
 2608DT     BB116936  71.910 100.386  62.859
 2608DT     BB216937  71.911 100.699  63.038
 2608DT     BB316938  71.728 100.729  63.129
 2608DT     SC116939  71.615 100.789  62.900
 2608DT     SC216940  71.565 100.998  62.898
 2608DT     SC316941  71.455 100.774  62.691
 2609DT     BB116942  71.853 100.683  63.359
 2609DT     BB216943  71.693 101.003  63.404
 2609DT     BB316944  71.494 100.976  63.458
 2609DT     SC116945  71.430 100.908  63.212
 2609DT     SC216946  71.308 101.063  63.125
 2609DT     SC316947  71.345 100.762  63.009
 2610DT     BB116948  71.535 101.045  63.724
 2610DT     BB216949  71.265 101.261  63.621
 2610DT     BB316950  71.083 101.165  63.650
 2610DT     SC116951  71.122 101.011  63.441
 2610DT     SC216952  70.985 101.066  63.285
 2610DT     SC316953  71.160 100.794  63.297
 2611DA     BB116954  70.994 101.504  63.896
 2611DA     BB216955  70.704 101.459  63.675
 2611DA     BB316956  70.578 101.303  63.750
 2611DA     SC116957  70.720 101.078  63.590
 2611DA     SC216958  70.669 100.927  63.397
 2611DA     SC316959  70.859 100.780  63.488
 2611DA     SC416960  70.840 100.999  63.662
 2612DC     BB116961  70.331 101.295  63.864
 2612DC     BB216962  70.164 101.170  63.570
 2612DC     BB316963  70.083 100.983  63.608
 2612DC     SC116964  70.320 100.871  63.597
 2612DC     SC216965  70.333 100.748  63.421
 2612DC     SC316966  70.537 100.741  63.673
 2613DC     BB116967  69.787 101.038  63.641
 2613DC     BB216968  69.796 100.797  63.373
 2613DC     BB316969  69.761 100.607  63.447
 2613DC     SC116970  70.002 100.594  63.551
 2613DC     SC216971  70.118 100.450  63.442
 2613DC     SC316972  70.194 100.577  63.730
 2614DC     BB116973  69.490 100.574  63.349
 2614DC     BB216974  69.670 100.300  63.200
 2614DC     BB316975  69.651 100.130  63.317
 2614DC     SC116976  69.819 100.225  63.495
 2614DC     SC216977  70.001 100.111  63.490
 2614DC     SC316978  69.913 100.316  63.724
 2615DG     BB116979  69.505 100.033  62.950
 2615DG     BB216980  69.767  99.806  63.053
 2615DG     BB316981  69.694  99.669  63.178
 2615DG     SC116982  69.749  99.835  63.429
 2615DG     SC216983  69.946  99.768  63.644
 2615DG     SC316984  69.777  99.997  63.724
 2615DG     SC416985  69.638  99.938  63.480
 2616DA     BB116986  69.843  99.451  62.962
 2616DA     BB216987  70.055  99.328  63.236
 2616DA     BB316988  69.942  99.201  63.365
 2616DA     SC116989  69.851  99.430  63.554
 2616DA     SC216990  69.896  99.506  63.787
 2616DA     SC316991  69.675  99.634  63.766
 2616DA     SC416992  69.711  99.502  63.521
 2617DA     BB116993  70.207  99.031  63.287
 2617DA     BB216994  70.282  99.030  63.646
 2617DA     BB316995  70.147  98.900  63.749
 2617DA     SC116996  69.937  99.122  63.805
 2617DA     SC216997  69.851  99.249  64.002
 2617DA     SC316998  69.647  99.299  63.855
 2617DA     SC416999  69.819  99.141  63.699
 2618DT     BB117000  70.240  98.762  63.822
 2618DT     BB217001  70.218  98.872  64.165
 2618DT     BB317002  70.066  98.771  64.262
 2618DT     SC117003  69.883  98.913  64.140
 2618DT     SC217004  69.787  99.044  64.282
 2618DT     SC317005  69.679  98.974  63.984
 2619DC     BB117006  70.267  98.662  64.388
 2619DC     BB217007  70.060  98.809  64.645
 2619DC     BB317008  69.902  98.683  64.689
 2619DC     SC117009  69.779  98.747  64.466
 2619DC     SC217010  69.604  98.862  64.513
 2619DC     SC317011  69.670  98.723  64.228
 2620DT     BB117012  70.033  98.657  64.913
 2620DT     BB217013  69.702  98.765  65.008
 2620DT     BB317014  69.572  98.604  65.007
 2620DT     SC117015  69.564  98.601  64.745
 2620DT     SC217016  69.369  98.664  64.679
 2620DT     SC317017  69.593  98.517  64.497
 2621DT     BB117018  69.575  98.632  65.269
 2621DT     BB217019  69.226  98.642  65.180
 2621DT     BB317020  69.153  98.449  65.158
 2621DT     SC117021  69.275  98.421  64.928
 2621DT     SC217022  69.129  98.415  64.770
 2621DT     SC317023  69.440  98.328  64.745
 2622DA     BB117024  68.891  98.652  65.418
 2622DA     BB217025  68.688  98.471  65.173
 2622DA     BB317026  68.696  98.261  65.211
 2622DA     SC117027  68.942  98.212  65.026
 2622DA     SC217028  68.989  98.101  64.808
 2622DA     SC317029  69.233  98.098  64.886
 2622DA     SC417030  69.088  98.218  65.093
 2623DT     BB117031  68.527  98.144  65.282
 2623DT     BB217032  68.460  97.966  64.976
 2623DT     BB317033  68.517  97.769  64.995
 2623DT     SC117034  68.771  97.832  64.976
 2623DT     SC217035  68.849  97.760  64.789
 2623DT     SC317036  69.025  97.863  65.040
 2624DA     BB117037  68.116  97.733  64.875
 2624DA     BB217038  68.312  97.510  64.660
 2624DA     BB317039  68.366  97.333  64.766
 2624DA     SC117040  68.634  97.448  64.873
 2624DA     SC217041  68.878  97.412  64.836
 2624DA     SC317042  68.909  97.526  65.064
 2624DA     SC417043  68.633  97.520  65.017
 2625DT     BB117044  68.288  97.135  64.717
 2625DT     BB217045  68.589  97.010  64.562
 2625DT     BB317046  68.676  96.866  64.682
 2625DT     SC117047  68.763  97.049  64.850
 2625DT     SC217048  68.977  97.062  64.836
 2625DT     SC317049  68.794  97.187  65.073
 2626DA     BB117050  68.638  96.697  64.302
 2626DA     BB217051  68.983  96.643  64.413
 2626DA     BB317052  68.989  96.490  64.562
 2626DA     SC117053  68.956  96.687  64.801
 2626DA     SC217054  69.094  96.775  64.989
 2626DA     SC317055  68.870  96.836  65.098
 2626DA     SC417056  68.806  96.716  64.853
 2627DT     BB117057  69.084  96.328  64.512
 2627DT     BB217058  69.378  96.382  64.714
 2627DT     BB317059  69.370  96.264  64.883
 2627DT     SC117060  69.189  96.419  64.993
 2627DT     SC217061  69.277  96.524  65.160
 2627DT     SC317062  68.960  96.499  65.096
 2628DC     BB117063  69.565  96.112  64.777
 2628DC     BB217064  69.694  96.215  65.098
 2628DC     BB317065  69.628  96.086  65.246
 2628DC     SC117066  69.387  96.190  65.240
 2628DC     SC217067  69.352  96.299  65.422
 2628DC     SC317068  69.126  96.210  65.206
 2629DG     BB117069  70.036  96.064  65.267
 2629DG     BB217070  69.893  96.126  65.593
 2629DG     BB317071  69.824  95.956  65.670
 2629DG     SC117072  69.544  95.988  65.550
 2629DG     SC217073  69.291  96.033  65.702
 2629DG     SC317074  69.234  95.980  65.417
 2629DG     SC417075  69.516  95.930  65.403
 2630DA     BB117076  70.011  95.989  65.971
 2630DA     BB217077  69.704  95.992  66.171
 2630DA     BB317078  69.633  95.792  66.200
 2630DA     SC117079  69.453  95.793  65.945
 2630DA     SC217080  69.210  95.795  65.891
 2630DA     SC317081  69.281  95.707  65.661
 2630DA     SC417082  69.518  95.738  65.809
 2631DC     BB117083  69.625  95.659  66.404
 2631DC     BB217084  69.270  95.689  66.456
 2631DC     BB317085  69.179  95.505  66.433
 2631DC     SC117086  69.205  95.516  66.172
 2631DC     SC217087  69.011  95.541  66.082
 2631DC     SC317088  69.283  95.455  65.927
 2632DA     BB117089  69.048  95.614  66.817
 2632DA     BB217090  68.750  95.521  66.625
 2632DA     BB317091  68.732  95.308  66.615
 2632DA     SC117092  68.895  95.283  66.351
 2632DA     SC217093  68.851  95.225  66.112
 2632DA     SC317094  69.103  95.178  66.099
 2632DA     SC417095  69.053  95.257  66.363
 2633DA     BB117096  68.434  95.368  66.737
 2633DA     BB217097  68.297  95.225  66.428
 2633DA     BB317098  68.305  95.012  66.435
 2633DA     SC117099  68.587  94.994  66.304
 2633DA     SC217100  68.685  94.918  66.088
 2633DA     SC317101  68.906  94.904  66.218
 2633DA     SC417102  68.714  94.990  66.402
 2634DG     BB117103  68.000  95.046  66.402
 2634DG     BB217104  68.062  94.879  66.087
 2634DG     BB317105  68.074  94.683  66.115
 2634DG     SC117106  68.376  94.684  66.166
 2634DG     SC217107  68.584  94.561  65.990
 2634DG     SC317108  68.702  94.651  66.246
 2634DG     SC417109  68.430  94.706  66.315
 2635DT     BB117110  67.930  94.553  66.018
 2635DT     BB217111  68.128  94.401  65.758
 2635DT     BB317112  68.182  94.209  65.813
 2635DT     SC117113  68.361  94.299  65.983
 2635DT     SC217114  68.558  94.254  65.909
 2635DT     SC317115  68.484  94.347  66.211
 2636DA     BB117116  68.007  94.172  65.433
 2636DA     BB217117  68.320  93.982  65.429
 2636DA     BB317118  68.298  93.800  65.538
 2636DA     SC117119  68.390  93.923  65.808
 2636DA     SC217120  68.587  93.906  65.961
 2636DA     SC317121  68.430  94.002  66.140
 2636DA     SC417122  68.277  93.982  65.906
 2637DA     BB117123  68.396  93.632  65.265
 2637DA     BB217124  68.681  93.506  65.458
 2637DA     BB317125  68.621  93.342  65.580
 2637DA     SC117126  68.548  93.519  65.825
 2637DA     SC217127  68.637  93.562  66.054
 2637DA     SC317128  68.402  93.652  66.106
 2637DA     SC417129  68.396  93.569  65.838
 2638DA     BB117130  68.855  93.139  65.441
 2638DA     BB217131  69.014  93.114  65.770
 2638DA     BB317132  68.920  92.963  65.887
 2638DA     SC117133  68.713  93.156  66.015
 2638DA     SC217134  68.667  93.255  66.239
 2638DA     SC317135  68.430  93.296  66.150
 2638DA     SC417136  68.570  93.172  65.942
 2639DA     BB117137  69.214  92.808  65.925
 2639DA     BB217138  69.192  92.884  66.283
 2639DA     BB317139  69.078  92.735  66.384
 2639DA     SC117140  68.807  92.883  66.348
 2639DA     SC217141  68.641  93.003  66.491
 2639DA     SC317142  68.476  92.962  66.299
 2639DA     SC417143  68.719  92.847  66.218
 2640DG     BB117144  69.339  92.689  66.538
 2640DG     BB217145  69.145  92.833  66.808
 2640DG     BB317146  69.040  92.691  66.900
 2640DG     SC117147  68.796  92.719  66.718
 2640DG     SC217148  68.527  92.819  66.801
 2640DG     SC317149  68.519  92.709  66.526
 2640DG     SC417150  68.789  92.633  66.583
 2641DA     BB117151  69.196  92.876  67.129
 2641DA     BB217152  68.866  92.962  67.265
 2641DA     BB317153  68.778  92.791  67.358
 2641DA     SC117154  68.633  92.696  67.100
 2641DA     SC217155  68.399  92.680  67.014
 2641DA     SC317156  68.493  92.508  66.848
 2641DA     SC417157  68.710  92.590  67.006
 2642DA     BB117158  68.777  93.098  67.494
 2642DA     BB217159  68.414  93.044  67.503
 2642DA     BB317160  68.368  92.869  67.616
 2642DA     SC117161  68.378  92.678  67.370
 2642DA     SC217162  68.218  92.544  67.234
 2642DA     SC317163  68.424  92.410  67.160
 2642DA     SC417164  68.518  92.606  67.338
 2643DC     BB117165  68.283  92.955  67.711
 2643DC     BB217166  67.962  92.814  67.626
 2643DC     BB317167  67.936  92.633  67.722
 2643DC     SC117168  68.103  92.513  67.559
 2643DC     SC217169  67.994  92.377  67.433
 2643DC     SC317170  68.315  92.383  67.473
 2644DC     BB117171  67.759  92.773  67.851
 2644DC     BB217172  67.582  92.483  67.729
 2644DC     BB317173  67.621  92.321  67.852
 2644DC     SC117174  67.862  92.293  67.752
 2644DC     SC217175  67.870  92.113  67.634
 2644DC     SC317176  68.125  92.284  67.737
 2645DC     BB117177  67.370  92.338  67.953
 2645DC     BB217178  67.397  91.995  67.844
 2645DC     BB317179  67.481  91.880  67.993
 2645DC     SC117180  67.719  91.979  67.946
 2645DC     SC217181  67.844  91.827  67.859
 2645DC     SC317182  67.946  92.108  67.983
 2646DT     BB117183  67.240  91.755  68.068
 2646DT     BB217184  67.462  91.477  68.003
 2646DT     BB317185  67.560  91.423  68.177
 2646DT     SC117186  67.718  91.633  68.162
 2646DT     SC217187  67.918  91.569  68.116
 2646DT     SC317188  67.832  91.862  68.225
 2647DT     BB117189  67.410  91.190  68.218
 2647DT     BB217190  67.751  91.072  68.216
 2647DT     BB317191  67.828  91.075  68.409
 2647DT     SC117192  67.852  91.336  68.404
 2647DT     SC217193  68.061  91.388  68.400
 2647DT     SC317194  67.816  91.590  68.467
 2648DT     BB117195  67.818  90.798  68.434
 2648DT     BB217196  68.163  90.878  68.501
 2648DT     BB317197  68.190  90.913  68.703
 2648DT     SC117198  68.074  91.148  68.686
 2648DT     SC217199  68.220  91.302  68.715
 2648DT     SC317200  67.899  91.342  68.724
 2649DA     BB117201  68.477  90.629  68.593
 2649DA     BB217202  68.648  90.890  68.786
 2649DA     BB317203  68.601  90.872  68.993
 2649DA     SC117204  68.354  91.061  68.979
 2649DA     SC217205  68.290  91.288  69.059
 2649DA     SC317206  68.048  91.211  69.024
 2649DA     SC417207  68.210  90.994  68.952
 2650DA     BB117208  68.929  90.868  69.025
 2650DA     BB217209  68.896  91.168  69.234
 2650DA     BB317210  68.826  91.115  69.429
 2650DA     SC117211  68.525  91.149  69.355
 2650DA     SC217212  68.338  91.305  69.409
 2650DA     SC317213  68.184  91.116  69.330
 2650DA     SC417214  68.446  91.019  69.304
 2651DT     BB117215  68.948  91.131  69.609
 2651DT     BB217216  68.782  91.417  69.754
 2651DT     BB317217  68.671  91.358  69.918
 2651DT     SC117218  68.487  91.250  69.766
 2651DT     SC217219  68.307  91.367  69.778
 2651DT     SC317220  68.332  91.068  69.656
 2652DA     BB117221  68.912  91.668  70.070
 2652DA     BB217222  68.569  91.735  70.180
 2652DA     BB317223  68.515  91.603  70.339
 2652DA     SC117224  68.400  91.384  70.152
 2652DA     SC217225  68.176  91.288  70.094
 2652DA     SC317226  68.308  91.086  70.008
 2652DA     SC417227  68.499  91.266  70.104
 2653DT     BB117228  68.479  91.667  70.550
 2653DT     BB217229  68.120  91.634  70.545
 2653DT     BB317230  68.062  91.473  70.661
 2653DT     SC117231  68.143  91.302  70.478
 2653DT     SC217232  67.972  91.206  70.390
 2653DT     SC317233  68.280  91.109  70.362
 2654DT     BB117234  67.962  91.623  70.881
 2654DT     BB217235  67.682  91.417  70.786
 2654DT     BB317236  67.684  91.240  70.894
 2654DT     SC117237  67.882  91.146  70.750
 2654DT     SC217238  67.811  90.984  70.628
 2654DT     SC317239  68.121  91.055  70.687
 2655DT     BB117240  67.470  91.304  71.073
 2655DT     BB217241  67.363  90.995  70.920
 2655DT     BB317242  67.424  90.834  71.036
 2655DT     SC117243  67.673  90.861  70.956
 2655DT     SC217244  67.725  90.695  70.829
 2655DT     SC317245  67.933  90.904  70.964
 2656DA     BB117246  67.010  90.767  71.004
 2656DA     BB217247  67.177  90.455  70.910
 2656DA     BB317248  67.243  90.351  71.084
 2656DA     SC117249  67.524  90.485  71.088
 2656DA     SC217250  67.761  90.419  71.048
 2656DA     SC317251  67.821  90.629  71.183
 2656DA     SC417252  67.541  90.619  71.176
 2657DA     BB117253  67.068  90.093  70.972
 2657DA     BB217254  67.385  89.912  70.940
 2657DA     BB317255  67.444  89.832  71.128
 2657DA     SC117256  67.610  90.082  71.210
 2657DA     SC217257  67.850  90.142  71.241
 2657DA     SC317258  67.761  90.338  71.382
 2657DA     SC417259  67.535  90.196  71.295
 2658DG     BB117260  67.423  89.554  70.990
 2658DG     BB217261  67.781  89.557  71.035
 2658DG     BB317262  67.827  89.486  71.215
 2658DG     SC117263  67.816  89.760  71.352
 2658DG     SC217264  68.047  89.907  71.470
 2658DG     SC317265  67.792  90.041  71.537
 2658DG     SC417266  67.676  89.812  71.410
 2659DA     BB117267  68.032  89.296  71.024
 2659DA     BB217268  68.320  89.442  71.198
 2659DA     BB317269  68.338  89.360  71.394
 2659DA     SC117270  68.162  89.579  71.528
 2659DA     SC217271  68.193  89.771  71.684
 2659DA     SC317272  67.941  89.750  71.727
 2659DA     SC417273  68.004  89.549  71.542
 2660DA     BB117274  68.611  89.361  71.220
 2660DA     BB217275  68.741  89.570  71.492
 2660DA     BB317276  68.750  89.458  71.673
 2660DA     SC117277  68.464  89.538  71.766
 2660DA     SC217278  68.361  89.680  71.943
 2660DA     SC317279  68.148  89.542  71.900
 2660DA     SC417280  68.343  89.441  71.725
 2661DG     BB117281  69.005  89.603  71.577
 2661DG     BB217282  68.956  89.769  71.894
 2661DG     BB317283  68.979  89.639  72.043
 2661DG     SC117284  68.685  89.555  72.049
 2661DG     SC217285  68.492  89.607  72.271
 2661DG     SC317286  68.374  89.425  72.070
 2661DG     SC417287  68.636  89.435  71.955
 2662DA     BB117288  69.142  89.944  72.112
 2662DA     BB217289  68.964  89.941  72.433
 2662DA     BB317290  69.015  89.767  72.544
 2662DA     SC117291  68.784  89.594  72.428
 2662DA     SC217292  68.570  89.494  72.509
 2662DA     SC317293  68.591  89.338  72.306
 2662DA     SC417294  68.815  89.506  72.298
 2663DA     BB117295  69.056  90.022  72.750
 2663DA     BB217296  68.825  89.843  72.972
 2663DA     BB317297  68.915  89.663  73.043
 2663DA     SC117298  68.805  89.489  72.809
 2663DA     SC217299  68.637  89.307  72.777
 2663DA     SC317300  68.765  89.255  72.561
 2663DA     SC417301  68.899  89.471  72.680
 2664DG     BB117302  68.872  89.792  73.324
 2664DG     BB217303  68.663  89.502  73.377
 2664DG     BB317304  68.775  89.344  73.420
 2664DG     SC117305  68.809  89.257  73.128
 2664DG     SC217306  68.699  89.008  73.005
 2664DG     SC317307  68.884  89.145  72.819
 2664DG     SC417308  68.931  89.317  73.043
 2665DA     BB117309  68.581  89.289  73.707
 2665DA     BB217310  68.492  88.955  73.587
 2665DA     BB317311  68.654  88.819  73.616
 2665DA     SC117312  68.782  88.873  73.337
 2665DA     SC217313  68.814  88.750  73.123
 2665DA     SC317314  68.999  88.921  73.076
 2665DA     SC417315  68.894  88.987  73.327
 2666DA     BB117316  68.425  88.643  73.773
 2666DA     BB217317  68.484  88.379  73.526
 2666DA     BB317318  68.667  88.277  73.569
 2666DA     SC117319  68.841  88.465  73.392
 2666DA     SC217320  68.969  88.451  73.178
 2666DA     SC317321  69.095  88.658  73.264
 2666DA     SC417322  68.909  88.592  73.464
 2667DT     BB117323  68.656  88.086  73.623
 2667DT     BB217324  68.778  87.944  73.315
 2667DT     BB317325  68.974  87.882  73.339
 2667DT     SC117326  69.062  88.129  73.333
 2667DT     SC217327  69.172  88.161  73.151
 2667DT     SC317328  69.174  88.355  73.411
 2668DG     BB117329  68.755  87.561  73.217
 2668DG     BB217330  69.048  87.607  73.011
 2668DG     BB317331  69.210  87.543  73.107
 2668DG     SC117332  69.269  87.813  73.239
 2668DG     SC217333  69.505  87.987  73.184
 2668DG     SC317334  69.352  88.088  73.416
 2668DG     SC417335  69.201  87.847  73.380
 2669DC     BB117336  69.328  87.376  73.029
 2669DC     BB217337  69.626  87.541  72.910
 2669DC     BB317338  69.779  87.516  73.046
 2669DC     SC117339  69.673  87.691  73.210
 2669DC     SC217340  69.795  87.868  73.215
 2669DC     SC317341  69.561  87.793  73.426
 2670DG     BB117342  69.936  87.341  72.708
 2670DG     BB217343  70.170  87.579  72.848
 2670DG     BB317344  70.267  87.496  73.001
 2670DG     SC117345  70.063  87.584  73.211
 2670DG     SC217346  70.110  87.782  73.429
 2670DG     SC317347  69.850  87.647  73.464
 2670DG     SC417348  69.938  87.489  73.242
 2671DG     BB117349  70.597  87.509  72.885
 2671DG     BB217350  70.670  87.729  73.162
 2671DG     BB317351  70.730  87.623  73.319
 2671DG     SC117352  70.448  87.586  73.432
 2671DG     SC217353  70.345  87.702  73.687
 2671DG     SC317354  70.152  87.509  73.574
 2671DG     SC417355  70.361  87.461  73.384
 2672DA     BB117356  71.047  87.788  73.375
 2672DA     BB217357  70.937  87.907  73.704
 2672DA     BB317358  70.972  87.758  73.852
 2672DA     SC117359  70.693  87.624  73.820
 2672DA     SC217360  70.483  87.602  73.952
 2672DA     SC317361  70.433  87.401  73.801
 2672DA     SC417362  70.681  87.502  73.717
 2673DC     BB117363  71.121  87.776  74.022
 2673DC     BB217364  70.875  87.846  74.276
 2673DC     BB317365  70.862  87.686  74.408
 2673DC     SC117366  70.731  87.542  74.232
 2673DC     SC217367  70.528  87.517  74.298
 2673DC     SC317368  70.674  87.347  74.064
 2674DC     BB117369  70.986  87.832  74.602
 2674DC     BB217370  70.667  87.741  74.744
 2674DC     BB317371  70.681  87.556  74.837
 2674DC     SC117372  70.684  87.432  74.606
 2674DC     SC217373  70.500  87.323  74.581
 2674DC     SC317374  70.769  87.284  74.405
 2675DA     BB117375  70.506  87.834  75.099
 2675DA     BB217376  70.296  87.534  75.092
 2675DA     BB317377  70.392  87.373  75.194
 2675DA     SC117378  70.534  87.265  74.939
 2675DA     SC217379  70.519  87.065  74.791
 2675DA     SC317380  70.757  87.127  74.718
 2675DA     SC417381  70.682  87.319  74.908
 2676DT     BB117382  70.306  87.311  75.359
 2676DT     BB217383  70.177  87.001  75.227
 2676DT     BB317384  70.295  86.843  75.289
 2676DT     SC117385  70.485  86.907  75.121
 2676DT     SC217386  70.497  86.759  74.966
 2676DT     SC317387  70.720  86.985  75.030
 2677DT     BB117388  70.102  86.755  75.466
 2677DT     BB217389  70.166  86.469  75.255
 2677DT     BB317390  70.322  86.358  75.333
 2677DT     SC117391  70.499  86.535  75.253
 2677DT     SC217392  70.616  86.451  75.093
 2677DT     SC317393  70.688  86.718  75.261
 2678DT     BB117394  70.161  86.147  75.430
 2678DT     BB217395  70.395  85.984  75.209
 2678DT     BB317396  70.562  85.924  75.315
 2678DT     SC117397  70.651  86.170  75.329
 2678DT     SC217398  70.827  86.190  75.206
 2678DT     SC317399  70.728  86.401  75.431
 2679DG     BB117400  70.417  85.571  75.167
 2679DG     BB217401  70.762  85.620  75.072
 2679DG     BB317402  70.882  85.564  75.221
 2679DG     SC117403  70.887  85.840  75.353
 2679DG     SC217404  71.124  86.020  75.375
 2679DG     SC317405  70.898  86.124  75.536
 2679DG     SC417406  70.774  85.877  75.461
 2680DA     BB117407  71.034  85.376  74.981
 2680DA     BB217408  71.341  85.572  75.028
 2680DA     BB317409  71.444  85.508  75.204
 2680DA     SC117410  71.300  85.711  75.391
 2680DA     SC217411  71.358  85.916  75.519
 2680DA     SC317412  71.147  85.866  75.656
 2680DA     SC417413  71.166  85.662  75.465
 2681DC     BB117414  71.591  85.453  75.142
 2681DC     BB217415  71.785  85.738  75.248
 2681DC     BB317416  71.874  85.699  75.430
 2681DC     SC117417  71.646  85.729  75.557
 2681DC     SC217418  71.653  85.909  75.675
 2681DC     SC317419  71.434  85.672  75.702
 2682DA     BB117420  72.084  85.896  75.111
 2682DA     BB217421  72.134  86.078  75.425
 2682DA     BB317422  72.236  85.955  75.566
 2682DA     SC117423  71.975  85.839  75.689
 2682DA     SC217424  71.849  85.856  75.904
 2682DA     SC317425  71.738  85.635  75.832
 2682DA     SC417426  71.919  85.701  75.628
 2683DG     BB117427  72.372  86.230  75.515
 2683DG     BB217428  72.306  86.259  75.870
 2683DG     BB317429  72.417  86.128  75.970
 2683DG     SC117430  72.207  85.905  75.958
 2683DG     SC217431  72.057  85.792  76.190
 2683DG     SC317432  72.008  85.633  75.945
 2683DG     SC417433  72.207  85.805  75.832
 2684DC     BB117434  72.534  86.218  76.096
 2684DC     BB217435  72.398  86.126  76.417
 2684DC     BB317436  72.491  85.955  76.487
 2684DC     SC117437  72.358  85.805  76.319
 2684DC     SC217438  72.217  85.684  76.427
 2684DC     SC317439  72.308  85.639  76.119
 2685DT     BB117440  72.628  86.102  76.670
 2685DT     BB217441  72.467  85.844  76.865
 2685DT     BB317442  72.585  85.673  76.866
 2685DT     SC117443  72.517  85.615  76.619
 2685DT     SC217444  72.392  85.440  76.619
 2685DT     SC317445  72.539  85.570  76.361
 2686DA     BB117446  72.529  85.745  77.278
 2686DA     BB217447  72.457  85.391  77.219
 2686DA     BB317448  72.638  85.282  77.192
 2686DA     SC117449  72.643  85.320  76.883
 2686DA     SC217450  72.613  85.179  76.680
 2686DA     SC317451  72.738  85.366  76.557
 2686DA     SC417452  72.724  85.446  76.825
 2687DA     BB117453  72.546  85.080  77.443
 2687DA     BB217454  72.541  84.804  77.201
 2687DA     BB317455  72.738  84.731  77.168
 2687DA     SC117456  72.797  84.922  76.930
 2687DA     SC217457  72.828  84.906  76.683
 2687DA     SC317458  72.945  85.134  76.704
 2687DA     SC417459  72.867  85.063  76.964
 2688DT     BB117460  72.799  84.533  77.228
 2688DT     BB217461  72.791  84.389  76.897
 2688DT     BB317462  72.984  84.353  76.831
 2688DT     SC117463  73.026  84.608  76.788
 2688DT     SC217464  73.039  84.643  76.576
 2688DT     SC317465  73.129  84.850  76.808
 2689DG     BB117466  72.775  84.004  76.822
 2689DG     BB217467  72.923  84.081  76.501
 2689DG     BB317468  73.117  84.038  76.503
 2689DG     SC117469  73.203  84.315  76.600
 2689DG     SC217470  73.360  84.515  76.444
 2689DG     SC317471  73.330  84.601  76.726
 2689DG     SC417472  73.210  84.343  76.758
 2690DT     BB117473  73.169  83.902  76.365
 2690DT     BB217474  73.337  84.104  76.119
 2690DT     BB317475  73.542  84.094  76.147
 2690DT     SC117476  73.529  84.250  76.358
 2690DT     SC217477  73.620  84.439  76.312
 2690DT     SC317478  73.547  84.331  76.609
 2691DA     BB117479  73.422  84.040  75.747
 2691DA     BB217480  73.699  84.280  75.756
 2691DA     BB317481  73.879  84.182  75.816
 2691DA     SC117482  73.837  84.237  76.119
 2691DA     SC217483  73.941  84.378  76.297
 2691DA     SC317484  73.830  84.215  76.462
 2691DA     SC417485  73.762  84.124  76.205
 2692DG     BB117486  73.954  84.300  75.540
 2692DG     BB217487  74.196  84.481  75.738
 2692DG     BB317488  74.346  84.361  75.789
 2692DG     SC117489  74.215  84.267  76.049
 2692DG     SC217490  74.312  84.325  76.325
 2692DG     SC317491  74.092  84.127  76.330
 2692DG     SC417492  74.117  84.140  76.045
 2693DT     BB117493  74.551  84.399  75.719
 2693DT     BB217494  74.715  84.511  76.020
 2693DT     BB317495  74.830  84.357  76.099
 2693DT     SC117496  74.616  84.233  76.188
 2693DT     SC217497  74.612  84.243  76.403
 2693DT     SC317498  74.431  84.047  76.217
 2694DA     BB117499  75.101  84.677  76.065
 2694DA     BB217500  75.139  84.537  76.402
 2694DA     BB317501  75.245  84.352  76.394
 2694DA     SC117502  74.989  84.178  76.363
 2694DA     SC217503  74.860  84.014  76.500
 2694DA     SC317504  74.761  83.937  76.276
 2694DA     SC417505  74.940  84.143  76.214
 2695DA     BB117506  75.457  84.487  76.611
 2695DA     BB217507  75.362  84.221  76.846
 2695DA     BB317508  75.464  84.040  76.798
 2695DA     SC117509  75.240  83.936  76.609
 2695DA     SC217510  75.069  83.755  76.608
 2695DA     SC317511  75.065  83.788  76.354
 2695DA     SC417512  75.253  83.971  76.453
 2696DA     BB117513  75.563  84.054  77.112
 2696DA     BB217514  75.384  83.738  77.164
 2696DA     BB317515  75.499  83.574  77.088
 2696DA     SC117516  75.371  83.586  76.805
 2696DA     SC217517  75.217  83.447  76.666
 2696DA     SC317518  75.315  83.575  76.466
 2696DA     SC417519  75.446  83.675  76.693
 2697DA     BB117520  75.448  83.467  77.393
 2697DA     BB217521  75.271  83.183  77.242
 2697DA     BB317522  75.410  83.044  77.159
 2697DA     SC117523  75.411  83.178  76.877
 2697DA     SC217524  75.331  83.124  76.647
 2697DA     SC317525  75.500  83.300  76.569
 2697DA     SC417526  75.523  83.290  76.849
 2698DA     BB117527  75.227  82.854  77.350
 2698DA     BB217528  75.141  82.669  77.045
 2698DA     BB317529  75.307  82.553  76.979
 2698DA     SC117530  75.421  82.778  76.796
 2698DA     SC217531  75.448  82.822  76.552
 2698DA     SC317532  75.627  82.991  76.622
 2698DA     SC417533  75.531  82.877  76.860
 2699DA     BB117534  75.071  82.326  76.989
 2699DA     BB217535  75.133  82.274  76.632
 2699DA     BB317536  75.319  82.172  76.603
 2699DA     SC117537  75.487  82.434  76.582
 2699DA     SC217538  75.611  82.559  76.406
 2699DA     SC317539  75.734  82.671  76.602
 2699DA     SC417540  75.552  82.491  76.717
 2700DA     BB117541  75.127  81.968  76.428
 2700DA     BB217542  75.339  82.043  76.139
 2700DA     BB317543  75.527  81.944  76.157
 2700DA     SC117544  75.665  82.180  76.305
 2700DA     SC217545  75.842  82.350  76.258
 2700DA     SC317546  75.859  82.373  76.513
 2700DA     SC417547  75.662  82.179  76.466
 2701DA     BB117548  75.470  81.805  75.858
 2701DA     BB217549  75.774  81.971  75.736
 2701DA     BB317550  75.947  81.862  75.796
 2701DA     SC117551  75.982  82.019  76.062
 2701DA     SC217552  76.142  82.185  76.159
 2701DA     SC317553  76.048  82.112  76.386
 2701DA     SC417554  75.912  81.959  76.194
 2702DA     BB117555  76.031  81.850  75.474
 2702DA     BB217556  76.331  82.042  75.561
 2702DA     BB317557  76.478  81.914  75.647
 2702DA     SC117558  76.380  81.957  75.939
 2702DA     SC217559  76.461  82.070  76.147
 2702DA     SC317560  76.296  81.918  76.270
 2702DA     SC417561  76.272  81.854  75.998
 2703DG     BB117562  76.665  81.991  75.407
 2703DG     BB217563  76.861  82.147  75.667
 2703DG     BB317564  76.983  82.013  75.750
 2703DG     SC117565  76.782  81.926  75.964
 2703DG     SC217566  76.808  81.971  76.258
 2703DG     SC317567  76.579  81.793  76.198
 2703DG     SC417568  76.679  81.808  75.930
 2704DT     BB117569  77.201  82.039  75.739
 2704DT     BB217570  77.273  82.149  76.075
 2704DT     BB317571  77.357  81.994  76.184
 2704DT     SC117572  77.124  81.875  76.207
 2704DT     SC217573  77.058  81.885  76.411
 2704DT     SC317574  76.935  81.692  76.181
 2705DA     BB117575  77.587  82.343  76.220
 2705DA     BB217576  77.524  82.210  76.556
 2705DA     BB317577  77.635  82.029  76.585
 2705DA     SC117578  77.406  81.844  76.482
 2705DA     SC217579  77.248  81.677  76.577
 2705DA     SC317580  77.225  81.592  76.336
 2705DA     SC417581  77.407  81.806  76.326
 2706DC     BB117582  77.758  82.051  76.717
 2706DC     BB217583  77.591  81.854  76.969
 2706DC     BB317584  77.671  81.663  76.974
 2706DC     SC117585  77.547  81.598  76.752
 2706DC     SC217586  77.392  81.455  76.796
 2706DC     SC317587  77.508  81.525  76.502
 2707DT     BB117588  77.778  81.732  77.207
 2707DT     BB217589  77.585  81.436  77.277
 2707DT     BB317590  77.694  81.266  77.229
 2707DT     SC117591  77.656  81.306  76.972
 2707DT     SC217592  77.525  81.154  76.895
 2707DT     SC317593  77.708  81.354  76.718
 2708DT     BB117594  77.729  81.212  77.492
 2708DT     BB217595  77.580  80.912  77.357
 2708DT     BB317596  77.727  80.790  77.279
 2708DT     SC117597  77.755  80.944  77.069
 2708DT     SC217598  77.681  80.843  76.895
 2708DT     SC317599  77.867  81.109  76.895
 2709DC     BB117600  77.720  80.602  77.488
 2709DC     BB217601  77.662  80.403  77.193
 2709DC     BB317602  77.842  80.337  77.116
 2709DC     SC117603  77.899  80.574  77.021
 2709DC     SC217604  77.889  80.569  76.806
 2709DC     SC317605  78.023  80.804  76.985
 2710DT     BB117606  77.818  80.066  77.201
 2710DT     BB217607  77.861  80.042  76.844
 2710DT     BB317608  78.062  80.023  76.798
 2710DT     SC117609  78.105  80.277  76.848
 2710DT     SC217610  78.148  80.380  76.664
 2710DT     SC317611  78.201  80.495  76.963
 2711DA     BB117612  77.882  79.696  76.607
 2711DA     BB217613  78.082  79.874  76.357
 2711DA     BB317614  78.289  79.831  76.383
 2711DA     SC117615  78.340  80.069  76.576
 2711DA     SC217616  78.462  80.287  76.572
 2711DA     SC317617  78.454  80.273  76.828
 2711DA     SC417618  78.327  80.041  76.733
 2712DT     BB117619  78.380  79.732  76.235
 2712DT     BB217620  78.550  80.018  76.097
 2712DT     BB317621  78.751  80.011  76.144
 2712DT     SC117622  78.704  80.080  76.393
 2712DT     SC217623  78.779  80.278  76.427
 2712DT     SC317624  78.690  80.067  76.656
 2713DC     BB117625  78.780  79.967  75.886
 2713DC     BB217626  78.968  80.267  75.955
 2713DC     BB317627  79.156  80.218  76.028
 2713DC     SC117628  79.056  80.153  76.262
 2713DC     SC217629  79.117  80.297  76.409
 2713DC     SC317630  78.988  80.006  76.471
 2714DA     BB117631  79.167  80.504  75.720
 2714DA     BB217632  79.378  80.621  75.997
 2714DA     BB317633  79.551  80.498  76.015
 2714DA     SC117634  79.419  80.299  76.215
 2714DA     SC217635  79.440  80.238  76.455
 2714DA     SC317636  79.324  80.018  76.389
 2714DA     SC417637  79.348  80.168  76.153
 2715DT     BB117638  79.703  80.594  75.980
 2715DT     BB217639  79.830  80.608  76.318
 2715DT     BB317640  79.972  80.460  76.346
 2715DT     SC117641  79.787  80.274  76.357
 2715DT     SC217642  79.775  80.197  76.558
 2715DT     SC317643  79.647  80.060  76.294
 2716DA     BB117644  80.151  80.819  76.471
 2716DA     BB217645  80.216  80.567  76.729
 2716DA     BB317646  80.362  80.428  76.661
 2716DA     SC117647  80.153  80.232  76.539
 2716DA     SC217648  80.064  80.004  76.588
 2716DA     SC317649  79.989  80.004  76.342
 2716DA     SC417650  80.116  80.250  76.384
 2717DA     BB117651  80.535  80.504  76.936
 2717DA     BB217652  80.506  80.152  77.035
 2717DA     BB317653  80.647  80.033  76.929
 2717DA     SC117654  80.452  79.970  76.694
 2717DA     SC217655  80.328  79.773  76.605
 2717DA     SC317656  80.315  79.907  76.386
 2717DA     SC417657  80.456  80.068  76.566
 2718DA     BB117658  80.764  79.926  77.223
 2718DA     BB217659  80.660  79.588  77.126
 2718DA     BB317660  80.805  79.500  76.997
 2718DA     SC117661  80.671  79.603  76.736
 2718DA     SC217662  80.547  79.506  76.542
 2718DA     SC317663  80.610  79.723  76.421
 2718DA     SC417664  80.721  79.744  76.677
 2719DG     BB117665  80.851  79.275  77.214
 2719DG     BB217666  80.708  79.061  76.960
 2719DG     BB317667  80.850  78.996  76.837
 2719DG     SC117668  80.826  79.232  76.643
 2719DG     SC217669  80.729  79.217  76.361
 2719DG     SC317670  80.840  79.485  76.421
 2719DG     SC417671  80.912  79.364  76.670
 2720DC     BB117672  80.893  78.780  76.820
 2720DC     BB217673  80.735  78.706  76.504
 2720DC     BB317674  80.879  78.682  76.357
 2720DC     SC117675  80.923  78.940  76.346
 2720DC     SC217676  80.850  79.017  76.159
 2720DC     SC317677  81.048  79.172  76.363
 2721DA     BB117678  80.596  78.374  76.363
 2721DA     BB217679  80.628  78.497  76.019
 2721DA     BB317680  80.818  78.441  75.938
 2721DA     SC117681  80.962  78.700  76.032
 2721DA     SC217682  81.060  78.905  75.928
 2721DA     SC317683  81.191  78.929  76.147
 2721DA     SC417684  81.035  78.697  76.175
 2722DT     BB117685  80.775  78.342  75.808
 2722DT     BB217686  80.864  78.572  75.544
 2722DT     BB317687  81.060  78.539  75.485
 2722DT     SC117688  81.153  78.654  75.702
 2722DT     SC217689  81.246  78.841  75.650
 2722DT     SC317690  81.278  78.685  75.932
 2723DT     BB117691  80.935  78.460  75.273
 2723DT     BB217692  81.162  78.718  75.163
 2723DT     BB317693  81.353  78.642  75.148
 2723DT     SC117694  81.382  78.641  75.409
 2723DT     SC217695  81.525  78.792  75.465
 2723DT     SC317696  81.417  78.552  75.654
 2724DT     BB117697  81.315  78.669  74.889
 2724DT     BB217698  81.617  78.853  74.959
 2724DT     BB317699  81.778  78.724  74.969
 2724DT     SC117700  81.703  78.635  75.204
 2724DT     SC217701  81.843  78.703  75.354
 2724DT     SC317702  81.621  78.470  75.392
 2725DT     BB117703  81.859  78.827  74.736
 2725DT     BB217704  82.141  78.867  74.958
 2725DT     BB317705  82.253  78.693  74.963
 2725DT     SC117706  82.073  78.574  75.112
 2725DT     SC217707  82.153  78.544  75.310
 2725DT     SC317708  81.888  78.402  75.189
 2726DA     BB117709  82.527  78.999  74.874
 2726DA     BB217710  82.673  78.793  75.140
 2726DA     BB317711  82.738  78.605  75.061
 2726DA     SC117712  82.467  78.461  75.114
 2726DA     SC217713  82.379  78.284  75.266
 2726DA     SC317714  82.190  78.260  75.095
 2726DA     SC417715  82.359  78.460  74.996
 2727DT     BB117716  82.944  78.552  75.049
 2727DT     BB217717  82.944  78.309  75.316
 2727DT     BB317718  82.957  78.118  75.237
 2727DT     SC117719  82.706  78.125  75.160
 2727DT     SC217720  82.591  77.988  75.280
 2727DT     SC317721  82.496  78.124  75.001
 2728DG     BB117722  83.293  78.139  75.472
 2728DG     BB217723  83.101  77.843  75.550
 2728DG     BB317724  83.140  77.700  75.417
 2728DG     SC117725  82.917  77.785  75.225
 2728DG     SC217726  82.672  77.627  75.160
 2728DG     SC317727  82.696  77.863  74.982
 2728DG     SC417728  82.949  77.894  75.112
 2729DT     BB117729  83.249  77.482  75.455
 2729DT     BB217730  82.964  77.262  75.439
 2729DT     BB317731  82.970  77.150  75.265
 2729DT     SC117732  82.897  77.356  75.121
 2729DT     SC217733  82.698  77.324  75.046
 2729DT     SC317734  82.906  77.549  74.941
 2730DC     BB117735  83.049  76.904  75.385
 2730DC     BB217736  82.744  76.821  75.211
 2730DC     BB317737  82.788  76.754  75.020
 2730DC     SC117738  82.841  76.998  74.939
 2730DC     SC217739  82.688  77.063  74.802
 2730DC     SC317740  82.975  77.205  74.847
 2731DA     BB117741  82.556  76.441  75.178
 2731DA     BB217742  82.410  76.532  74.854
 2731DA     BB317743  82.527  76.452  74.695
 2731DA     SC117744  82.709  76.702  74.669
 2731DA     SC217745  82.747  76.887  74.506
 2731DA     SC317746  82.974  76.916  74.623
 2731DA     SC417747  82.846  76.703  74.754
 2732DC     BB117748  82.444  76.309  74.575
 2732DC     BB217749  82.382  76.527  74.294
 2732DC     BB317750  82.518  76.488  74.143
 2732DC     SC117751  82.710  76.609  74.275
 2732DC     SC217752  82.762  76.791  74.173
 2732DC     SC317753  82.937  76.646  74.404
 2733DT     BB117754  82.312  76.387  74.009
 2733DT     BB217755  82.439  76.653  73.802
 2733DT     BB317756  82.598  76.584  73.688
 2733DT     SC117757  82.758  76.586  73.896
 2733DT     SC217758  82.904  76.742  73.872
 2733DT     SC317759  82.919  76.498  74.086
 2734DC     BB117760  82.426  76.618  73.495
 2734DC     BB217761  82.709  76.826  73.411
 2734DC     BB317762  82.859  76.711  73.327
 2734DC     SC117763  82.923  76.610  73.561
 2734DC     SC217764  83.115  76.685  73.621
 2734DC     SC317765  82.960  76.433  73.753
 2735DG     BB117766  82.754  77.022  73.086
 2735DG     BB217767  83.111  77.008  73.142
 2735DG     BB317768  83.190  76.858  73.039
 2735DG     SC117769  83.154  76.653  73.263
 2735DG     SC217770  83.373  76.519  73.416
 2735DG     SC317771  83.111  76.397  73.479
 2735DG     SC417772  83.016  76.571  73.272
 2736DT     BB117773  83.332  76.905  72.891
 2736DT     BB217774  83.640  76.790  73.041
 2736DT     BB317775  83.690  76.604  72.965
 2736DT     SC117776  83.504  76.486  73.108
 2736DT     SC217777  83.596  76.367  73.261
 2736DT     SC317778  83.286  76.350  73.168
 2737DC     BB117779  83.892  76.713  72.820
 2737DC     BB217780  84.052  76.456  73.015
 2737DC     BB317781  84.039  76.274  72.917
 2737DC     SC117782  83.785  76.250  72.979
 2737DC     SC217783  83.761  76.091  73.122
 2737DC     SC317784  83.524  76.231  72.951
 2738DT     BB117785  84.308  76.269  72.838
 2738DT     BB217786  84.264  75.959  73.018
 2738DT     BB317787  84.204  75.810  72.889
 2738DT     SC117788  83.961  75.908  72.875
 2738DT     SC217789  83.825  75.775  72.975
 2738DT     SC317790  83.743  76.017  72.775
 2739DA     BB117791  84.546  75.642  73.069
 2739DA     BB217792  84.276  75.396  73.096
 2739DA     BB317793  84.246  75.298  72.908
 2739DA     SC117794  84.033  75.502  72.808
 2739DA     SC217795  83.788  75.506  72.763
 2739DA     SC317796  83.838  75.711  72.618
 2739DA     SC417797  84.085  75.627  72.722
 2740DA     BB117798  84.291  75.024  73.084
 2740DA     BB217799  83.945  74.936  73.002
 2740DA     BB317800  83.933  74.858  72.803
 2740DA     SC117801  83.882  75.135  72.671
 2740DA     SC217802  83.694  75.253  72.557
 2740DA     SC317803  83.876  75.405  72.459
 2740DA     SC417804  84.010  75.217  72.619
 2741DT     BB117805  83.878  74.672  72.791
 2741DT     BB217806  83.540  74.740  72.684
 2741DT     BB317807  83.522  74.703  72.481
 2741DT     SC117808  83.652  74.922  72.420
 2741DT     SC217809  83.516  75.063  72.332
 2741DT     SC317810  83.839  75.081  72.325
 2742DA     BB117811  83.219  74.536  72.722
 2742DA     BB217812  83.064  74.720  72.445
 2742DA     BB317813  83.103  74.621  72.260
 2742DA     SC117814  83.365  74.779  72.202
 2742DA     SC217815  83.444  74.953  72.042
 2742DA     SC317816  83.680  74.873  72.104
 2742DA     SC417817  83.503  74.714  72.252
 2743DG     BB117818  82.799  74.646  72.291
 2743DG     BB217819  82.840  74.851  71.996
 2743DG     BB317820  82.878  74.736  71.839
 2743DG     SC117821  83.182  74.743  71.876
 2743DG     SC217822  83.378  74.872  71.693
 2743DG     SC317823  83.517  74.712  71.899
 2743DG     SC417824  83.251  74.633  71.970
 2744DC     BB117825  82.743  74.761  71.703
 2744DC     BB217826  82.920  74.942  71.446
 2744DC     BB317827  82.997  74.810  71.306
 2744DC     SC117828  83.186  74.734  71.471
 2744DC     SC217829  83.376  74.804  71.399
 2744DC     SC317830  83.332  74.579  71.627
 2745DA     BB117831  82.789  75.122  71.115
 2745DA     BB217832  83.111  75.075  70.945
 2745DA     BB317833  83.112  74.889  70.839
 2745DA     SC117834  83.227  74.726  71.078
 2745DA     SC217835  83.440  74.610  71.136
 2745DA     SC317836  83.299  74.481  71.308
 2745DA     SC417837  83.122  74.655  71.177
 2746DT     BB117838  83.120  74.899  70.644
 2746DT     BB217839  83.460  74.785  70.604
 2746DT     BB317840  83.462  74.587  70.545
 2746DT     SC117841  83.397  74.506  70.786
 2746DT     SC217842  83.564  74.404  70.875
 2746DT     SC317843  83.258  74.397  70.982
 2747DG     BB117844  83.663  74.789  70.252
 2747DG     BB217845  83.855  74.507  70.372
 2747DG     BB317846  83.786  74.338  70.292
 2747DG     SC117847  83.583  74.287  70.516
 2747DG     SC217848  83.592  74.062  70.712
 2747DG     SC317849  83.337  74.210  70.733
 2747DG     SC417850  83.436  74.350  70.504
 2748DC     BB117851  83.907  74.202  70.151
 2748DC     BB217852  83.986  73.926  70.370
 2748DC     BB317853  83.869  73.762  70.322
 2748DC     SC117854  83.657  73.871  70.433
 2748DC     SC217855  83.606  73.763  70.611
 2748DC     SC317856  83.416  73.976  70.458
 2749DA     BB117857  84.264  73.622  70.319
 2749DA     BB217858  84.065  73.391  70.523
 2749DA     BB317859  83.942  73.269  70.398
 2749DA     SC117860  83.700  73.464  70.405
 2749DA     SC217861  83.470  73.469  70.502
 2749DA     SC317862  83.423  73.650  70.326
 2749DA     SC417863  83.690  73.573  70.288
 2750DC     BB117864  83.978  73.068  70.389
 2750DC     BB217865  83.696  72.965  70.589
 2750DC     BB317866  83.549  72.884  70.468
 2750DC     SC117867  83.480  73.122  70.380
 2750DC     SC217868  83.286  73.173  70.457
 2750DC     SC317869  83.439  73.323  70.214
 2751DT     BB117870  83.605  72.635  70.562
 2751DT     BB217871  83.254  72.683  70.634
 2751DT     BB317872  83.140  72.626  70.471
 2751DT     SC117873  83.207  72.842  70.339
 2751DT     SC217874  83.035  72.971  70.321
 2751DT     SC317875  83.310  72.997  70.152
 2752DT     BB117876  83.058  72.408  70.608
 2752DT     BB217877  82.754  72.582  70.520
 2752DT     BB317878  82.692  72.525  70.331
 2752DT     SC117879  82.881  72.667  70.217
 2752DT     SC217880  82.792  72.835  70.115
 2752DT     SC317881  83.095  72.728  70.077
 2753DT     BB117882  82.491  72.395  70.450
 2753DT     BB217883  82.332  72.627  70.223
 2753DT     BB317884  82.321  72.544  70.034
 2753DT     SC117885  82.577  72.584  69.993
 2753DT     SC217886  82.604  72.737  69.845
 2753DT     SC317887  82.832  72.533  69.949
 2754DT     BB117888  82.060  72.528  70.077
 2754DT     BB217889  82.093  72.726  69.777
 2754DT     BB317890  82.115  72.602  69.613
 2754DT     SC117891  82.363  72.545  69.678
 2754DT     SC217892  82.496  72.635  69.535
 2754DT     SC317893  82.575  72.406  69.750
 2755DC     BB117894  81.874  72.686  69.551
 2755DC     BB217895  82.078  72.767  69.266
 2755DC     BB317896  82.100  72.601  69.145
 2755DC     SC117897  82.269  72.491  69.313
 2755DC     SC217898  82.466  72.489  69.226
 2755DC     SC317899  82.372  72.321  69.487
 2756DA     BB117900  81.980  72.927  68.909
 2756DA     BB217901  82.259  72.761  68.740
 2756DA     BB317902  82.197  72.572  68.663
 2756DA     SC117903  82.274  72.414  68.919
 2756DA     SC217904  82.446  72.247  68.989
 2756DA     SC317905  82.285  72.191  69.181
 2756DA     SC417906  82.160  72.393  69.031
 2757DA     BB117907  82.321  72.696  68.382
 2757DA     BB217908  82.549  72.409  68.376
 2757DA     BB317909  82.444  72.232  68.320
 2757DA     SC117910  82.372  72.153  68.612
 2757DA     SC217911  82.434  71.976  68.776
 2757DA     SC317912  82.215  72.037  68.894
 2757DA     SC417913  82.231  72.204  68.670
 2758DG     BB117914  82.629  72.201  68.060
 2758DG     BB217915  82.733  71.893  68.218
 2758DG     BB317916  82.606  71.747  68.172
 2758DG     SC117917  82.422  71.798  68.411
 2758DG     SC217918  82.379  71.614  68.642
 2758DG     SC317919  82.188  71.840  68.650
 2758DG     SC417920  82.302  71.904  68.396
 2759DA     BB117921  82.849  71.516  68.036
 2759DA     BB217922  82.768  71.266  68.291
 2759DA     BB317923  82.597  71.153  68.233
 2759DA     SC117924  82.393  71.343  68.372
 2759DA     SC217925  82.239  71.338  68.568
 2759DA     SC317926  82.118  71.532  68.452
 2759DA     SC417927  82.330  71.462  68.283
 2760DA     BB117928  82.759  70.851  68.250
 2760DA     BB217929  82.534  70.757  68.524
 2760DA     BB317930  82.353  70.674  68.446
 2760DA     SC117931  82.205  70.947  68.434
 2760DA     SC217932  82.017  71.061  68.552
 2760DA     SC317933  82.005  71.212  68.345
 2760DA     SC417934  82.212  71.030  68.296
 2761DC     BB117935  82.272  70.445  68.463
 2761DC     BB217936  82.036  70.519  68.725
 2761DC     BB317937  81.842  70.491  68.657
 2761DC     SC117938  81.851  70.713  68.517
 2761DC     SC217939  81.720  70.858  68.605
 2761DC     SC317940  81.851  70.875  68.309
 2762DA     BB117941  81.884  70.272  69.010
 2762DA     BB217942  81.592  70.491  69.046
 2762DA     BB317943  81.428  70.414  68.934
 2762DA     SC117944  81.499  70.572  68.675
 2762DA     SC217945  81.406  70.763  68.544
 2762DA     SC317946  81.547  70.671  68.350
 2762DA     SC417947  81.592  70.499  68.567
 2763DT     BB117948  81.288  70.369  69.046
 2763DT     BB217949  81.084  70.657  68.971
 2763DT     BB317950  80.935  70.605  68.837
 2763DT     SC117951  81.107  70.598  68.638
 2763DT     SC217952  81.068  70.762  68.505
 2763DT     SC317953  81.253  70.503  68.440
 2764DT     BB117954  80.787  70.649  69.047
 2764DT     BB217955  80.671  70.879  68.794
 2764DT     BB317956  80.545  70.782  68.662
 2764DT     SC117957  80.746  70.660  68.547
 2764DT     SC217958  80.773  70.738  68.348
 2764DT     SC317959  80.905  70.466  68.465
 2765DT     BB117960  80.372  70.938  68.778
 2765DT     BB217961  80.356  71.016  68.426
 2765DT     BB317962  80.241  70.874  68.328
 2765DT     SC117963  80.435  70.697  68.343
 2765DT     SC217964  80.515  70.662  68.146
 2765DT     SC317965  80.565  70.478  68.408
 2766DA     BB117966  80.127  71.267  68.228
 2766DA     BB217967  80.162  71.072  67.919
 2766DA     BB317968  80.007  70.926  67.906
 2766DA     SC117969  80.171  70.704  68.050
 2766DA     SC217970  80.281  70.488  67.991
 2766DA     SC317971  80.270  70.438  68.242
 2766DA     SC417972  80.154  70.691  68.209
 2767DA     BB117973  79.985  71.080  67.618
 2767DA     BB217974  80.047  70.753  67.464
 2767DA     BB317975  79.877  70.627  67.487
 2767DA     SC117976  79.973  70.505  67.757
 2767DA     SC217977  80.057  70.285  67.841
 2767DA     SC317978  79.991  70.372  68.073
 2767DA     SC417979  79.924  70.576  67.892
 2768DA     BB117980  79.927  70.608  67.164
 2768DA     BB217981  79.967  70.247  67.212
 2768DA     BB317982  79.779  70.156  67.253
 2768DA     SC117983  79.803  70.188  67.562
 2768DA     SC217984  79.836  70.041  67.761
 2768DA     SC317985  79.741  70.238  67.896
 2768DA     SC417986  79.741  70.321  67.628
 2769DC     BB117987  79.715  70.034  67.119
 2769DC     BB217988  79.770  69.729  67.304
 2769DC     BB317989  79.591  69.661  67.382
 2769DC     SC117990  79.593  69.846  67.568
 2769DC     SC217991  79.627  69.755  67.760
 2769DC     SC317992  79.520  70.057  67.708
 2770DT     BB117993  79.597  69.462  67.202
 2770DT     BB217994  79.570  69.295  67.521
 2770DT     BB317995  79.371  69.285  67.579
 2770DT     SC117996  79.368  69.539  67.642
 2770DT     SC217997  79.352  69.560  67.855
 2770DT     SC317998  79.304  69.795  67.638
 2771DA     BB117999  79.524  68.894  67.606
 2771DA     BB218000  79.341  68.964  67.916
 2771DA     BB318001  79.130  68.964  67.880
 2771DA     SC118002  79.116  69.268  67.817
 2771DA     SC218003  79.024  69.474  67.922
 2771DA     SC318004  79.038  69.576  67.687
 2771DA     SC418005  79.131  69.313  67.663
 2772DC     BB118006  79.002  68.814  67.960
 2772DC     BB218007  78.844  69.020  68.210
 2772DC     BB318008  78.649  69.064  68.153
 2772DC     SC118009  78.732  69.237  67.974
 2772DC     SC218010  78.680  69.436  68.037
 2772DC     SC318011  78.776  69.349  67.740
 2773DA     BB118012  78.604  68.901  68.537
 2773DA     BB218013  78.413  69.213  68.529
 2773DA     BB318014  78.231  69.186  68.422
 2773DA     SC118015  78.351  69.266  68.147
 2773DA     SC218016  78.333  69.456  67.985
 2773DA     SC318017  78.428  69.291  67.813
 2773DA     SC418018  78.410  69.149  68.054
 2774DT     BB118019  78.045  69.198  68.520
 2774DT     BB218020  77.952  69.522  68.393
 2774DT     BB318021  77.802  69.503  68.252
 2774DT     SC118022  77.970  69.412  68.073
 2774DT     SC218023  77.995  69.558  67.918
 2774DT     SC318024  78.086  69.247  67.902
 2775DT     BB118025  77.630  69.611  68.430
 2775DT     BB218026  77.613  69.827  68.141
 2775DT     BB318027  77.474  69.753  68.006
 2775DT     SC118028  77.638  69.562  67.931
 2775DT     SC218029  77.704  69.601  67.730
 2775DT     SC318030  77.735  69.321  67.890
 2776DT     BB118031  77.327  69.962  68.075
 2776DT     BB218032  77.368  69.991  67.718
 2776DT     BB318033  77.228  69.874  67.621
 2776DT     SC118034  77.359  69.654  67.681
 2776DT     SC218035  77.444  69.571  67.502
 2776DT     SC318036  77.413  69.419  67.787
 2777DC     BB118037  77.117  70.103  67.550
 2777DC     BB218038  77.176  69.929  67.240
 2777DC     BB318039  77.022  69.796  67.203
 2777DC     SC118040  77.113  69.630  67.385
 2777DC     SC218041  77.190  69.454  67.289
 2777DC     SC318042  77.124  69.484  67.605
 2778DT     BB118043  76.933  69.958  67.008
 2778DT     BB218044  76.971  69.638  66.846
 2778DT     BB318045  76.801  69.523  66.874
 2778DT     SC118046  76.866  69.475  67.124
 2778DT     SC218047  76.920  69.268  67.145
 2778DT     SC318048  76.854  69.473  67.388
 2779DT     BB118049  76.698  69.555  66.613
 2779DT     BB218050  76.702  69.197  66.656
 2779DT     BB318051  76.522  69.133  66.735
 2779DT     SC118052  76.584  69.225  66.972
 2779DT     SC218053  76.617  69.061  67.107
 2779DT     SC318054  76.575  69.370  67.193
 2780DG     BB118055  76.489  68.925  66.375
 2780DG     BB218056  76.431  68.700  66.652
 2780DG     BB318057  76.240  68.709  66.708
 2780DG     SC118058  76.283  68.935  66.909
 2780DG     SC218059  76.255  68.914  67.206
 2780DG     SC318060  76.291  69.195  67.124
 2780DG     SC418061  76.273  69.087  66.859
 2781DC     BB118062  76.021  68.529  66.700
 2781DC     BB218063  76.018  68.436  67.049
 2781DC     BB318064  75.843  68.501  67.138
 2781DC     SC118065  75.927  68.749  67.141
 2781DC     SC218066  75.966  68.809  67.344
 2781DC     SC318067  75.941  69.008  67.089
 2782DT     BB118068  75.703  68.247  67.160
 2782DT     BB218069  75.723  68.364  67.501
 2782DT     BB318070  75.551  68.466  67.551
 2782DT     SC118071  75.624  68.674  67.409
 2782DT     SC218072  75.671  68.838  67.542
 2782DT     SC318073  75.622  68.860  67.222
 2783DT     BB118074  75.460  68.262  67.716
 2783DT     BB218075  75.483  68.548  67.933
 2783DT     BB318076  75.304  68.652  67.932
 2783DT     SC118077  75.353  68.751  67.694
 2783DT     SC218078  75.391  68.962  67.711
 2783DT     SC318079  75.329  68.801  67.437
 2784DA     BB118080  75.411  68.578  68.330
 2784DA     BB218081  75.334  68.935  68.299
 2784DA     BB318082  75.124  68.964  68.280
 2784DA     SC118083  75.125  68.950  67.970
 2784DA     SC218084  75.090  69.104  67.777
 2784DA     SC318085  75.045  68.892  67.641
 2784DA     SC418086  75.099  68.806  67.902
 2785DA     BB118087  75.186  69.164  68.532
 2785DA     BB218088  75.065  69.437  68.319
 2785DA     BB318089  74.852  69.432  68.305
 2785DA     SC118090  74.849  69.250  68.053
 2785DA     SC218091  74.791  69.270  67.811
 2785DA     SC318092  74.771  69.014  67.815
 2785DA     SC418093  74.840  69.091  68.076
 2786DA     BB118094  74.887  69.742  68.405
 2786DA     BB218095  74.731  69.841  68.088
 2786DA     BB318096  74.520  69.808  68.096
 2786DA     SC118097  74.537  69.518  67.984
 2786DA     SC218098  74.474  69.397  67.774
 2786DA     SC318099  74.486  69.185  67.918
 2786DA     SC418100  74.548  69.398  68.090
 2787DA     BB118101  74.519  70.123  68.010
 2787DA     BB218102  74.352  70.017  67.701
 2787DA     BB318103  74.146  69.974  67.739
 2787DA     SC118104  74.195  69.673  67.802
 2787DA     SC218105  74.147  69.452  67.697
 2787DA     SC318106  74.183  69.355  67.932
 2787DA     SC418107  74.220  69.632  67.955
 2788DG     BB118108  74.113  70.197  67.532
 2788DG     BB218109  73.977  69.927  67.335
 2788DG     BB318110  73.787  69.895  67.385
 2788DG     SC118111  73.853  69.692  67.604
 2788DG     SC218112  73.786  69.401  67.600
 2788DG     SC318113  73.889  69.482  67.865
 2788DG     SC418114  73.880  69.745  67.753
 2789DT     BB118115  73.676  69.917  67.229
 2789DT     BB218116  73.593  69.574  67.151
 2789DT     BB318117  73.409  69.525  67.232
 2789DT     SC118118  73.511  69.511  67.473
 2789DT     SC218119  73.512  69.306  67.538
 2789DT     SC318120  73.556  69.565  67.728
 2790DT     BB118121  73.398  69.513  66.981
 2790DT     BB218122  73.313  69.186  67.106
 2790DT     BB318123  73.125  69.190  67.193
 2790DT     SC118124  73.218  69.315  67.404
 2790DT     SC218125  73.212  69.183  67.574
 2790DT     SC318126  73.254  69.504  67.585
 2791DA     BB118127  73.268  68.857  66.953
 2791DA     BB218128  73.084  68.735  67.246
 2791DA     BB318129  72.884  68.808  67.244
 2791DA     SC118130  72.950  69.065  67.407
 2791DA     SC218131  72.903  69.156  67.634
 2791DA     SC318132  72.960  69.385  67.532
 2791DA     SC418133  72.987  69.198  67.324
 2792DT     BB118134  72.819  68.665  67.239
 2792DT     BB218135  72.644  68.677  67.554
 2792DT     BB318136  72.468  68.784  67.534
 2792DT     SC118137  72.599  69.012  67.526
 2792DT     SC218138  72.559  69.123  67.706
 2792DT     SC318139  72.693  69.241  67.435
 2793DT     BB118140  72.327  68.554  67.545
 2793DT     BB218141  72.162  68.768  67.785
 2793DT     BB318142  72.023  68.887  67.689
 2793DT     SC118143  72.212  69.040  67.589
 2793DT     SC218144  72.205  69.233  67.683
 2793DT     SC318145  72.366  69.160  67.412
 2794DA     BB118146  71.758  68.707  67.967
 2794DA     BB218147  71.681  69.066  67.971
 2794DA     BB318148  71.562  69.118  67.802
 2794DA     SC118149  71.806  69.184  67.620
 2794DA     SC218150  71.910  69.386  67.518
 2794DA     SC318151  72.021  69.221  67.355
 2794DA     SC418152  71.864  69.066  67.528
 2795DC     BB118153  71.317  69.187  67.780
 2795DC     BB218154  71.381  69.536  67.715
 2795DC     BB318155  71.319  69.585  67.524
 2795DC     SC118156  71.526  69.463  67.418
 2795DC     SC218157  71.659  69.609  67.333
 2795DC     SC318158  71.667  69.290  67.277
 2796DC     BB118159  71.073  69.730  67.586
 2796DC     BB218160  71.264  69.969  67.394
 2796DC     BB318161  71.209  69.959  67.194
 2796DC     SC118162  71.340  69.734  67.161
 2796DC     SC218163  71.512  69.768  67.036
 2796DC     SC318164  71.387  69.479  67.112
 2797DA     BB118165  71.169  70.362  67.298
 2797DA     BB218166  71.372  70.347  66.993
 2797DA     BB318167  71.248  70.309  66.824
 2797DA     SC118168  71.276  69.999  66.843
 2797DA     SC218169  71.384  69.816  66.714
 2797DA     SC318170  71.220  69.661  66.836
 2797DA     SC418171  71.165  69.920  66.928
 2798DA     BB118172  71.405  70.576  66.725
 2798DA     BB218173  71.539  70.372  66.451
 2798DA     BB318174  71.388  70.338  66.303
 2798DA     SC118175  71.286  70.075  66.433
 2798DA     SC218176  71.288  69.831  66.382
 2798DA     SC318177  71.092  69.815  66.547
 2798DA     SC418178  71.164  70.086  66.538
 2799DC     BB118179  71.427  70.418  66.135
 2799DC     BB218180  71.507  70.114  65.957
 2799DC     BB318181  71.347  70.057  65.840
 2799DC     SC118182  71.214  69.972  66.049
 2799DC     SC218183  71.200  69.758  66.044
 2799DC     SC318184  71.025  69.954  66.233
 2800DT     BB118185  71.487  70.131  65.621
 2800DT     BB218186  71.397  69.787  65.557
 2800DT     BB318187  71.208  69.779  65.471
 2800DT     SC118188  71.093  69.831  65.701
 2800DT     SC218189  70.989  69.656  65.771
 2800DT     SC318190  70.952  69.957  65.885
 2801DT     BB118191  71.303  69.719  65.214
 2801DT     BB218192  71.067  69.455  65.279
 2801DT     BB318193  70.879  69.511  65.214
 2801DT     SC118194  70.848  69.673  65.419
 2801DT     SC218195  70.698  69.593  65.551
 2801DT     SC318196  70.815  69.895  65.556
 2802DT     BB118197  70.874  69.349  64.981
 2802DT     BB218198  70.574  69.251  65.158
 2802DT     BB318199  70.415  69.368  65.096
 2802DT     SC118200  70.503  69.574  65.232
 2802DT     SC218201  70.371  69.612  65.398
 2802DT     SC318202  70.597  69.815  65.285
 2803DT     BB118203  70.282  69.172  64.932
 2803DT     BB218204  70.027  69.272  65.167
 2803DT     BB318205  69.915  69.427  65.088
 2803DT     SC118206  70.108  69.599  65.129
 2803DT     SC218207  70.050  69.735  65.285
 2803DT     SC318208  70.298  69.775  65.080
 2804DC     BB118209  69.680  69.274  65.027
 2804DC     BB218210  69.559  69.535  65.244
 2804DC     BB318211  69.494  69.697  65.132
 2804DC     SC118212  69.740  69.769  65.079
 2804DC     SC218213  69.784  69.953  65.182
 2804DC     SC318214  69.959  69.823  64.942
 2805DC     BB118215  69.223  69.647  65.180
 2805DC     BB218216  69.275  69.981  65.304
 2805DC     BB318217  69.239  70.119  65.154
 2805DC     SC118218  69.466  70.060  65.036
 2805DC     SC218219  69.601  70.227  65.055
 2805DC     SC318220  69.636  69.976  64.853
 2806DT     BB118221  69.011  70.195  65.279
 2806DT     BB218222  69.209  70.495  65.259
 2806DT     BB318223  69.175  70.591  65.079
 2806DT     SC118224  69.317  70.413  64.948
 2806DT     SC218225  69.498  70.505  64.878
 2806DT     SC318226  69.379  70.220  64.779
 2807DT     BB118227  69.051  70.776  65.223
 2807DT     BB218228  69.315  70.951  65.050
 2807DT     BB318229  69.252  71.003  64.860
 2807DT     SC118230  69.276  70.756  64.776
 2807DT     SC218231  69.441  70.743  64.639
 2807DT     SC318232  69.211  70.518  64.681
 2808DT     BB118233  69.257  71.248  64.956
 2808DT     BB218234  69.481  71.252  64.673
 2808DT     BB318235  69.373  71.275  64.498
 2808DT     SC118236  69.289  71.026  64.508
 2808DT     SC218237  69.381  70.914  64.349
 2808DT     SC318238  69.125  70.820  64.525
 2809DA     BB118239  69.695  71.544  64.516
 2809DA     BB218240  69.696  71.384  64.187
 2809DA     BB318241  69.531  71.452  64.070
 2809DA     SC118242  69.339  71.226  64.166
 2809DA     SC218243  69.230  71.024  64.070
 2809DA     SC318244  69.066  71.044  64.266
 2809DA     SC418245  69.247  71.257  64.294
 2810DT     BB118246  69.584  71.549  63.920
 2810DT     BB218247  69.501  71.301  63.671
 2810DT     BB318248  69.319  71.345  63.585
 2810DT     SC118249  69.189  71.265  63.798
 2810DT     SC218250  69.083  71.084  63.753
 2810DT     SC318251  69.035  71.272  64.012
 2811DA     BB118252  69.595  71.285  63.274
 2811DA     BB218253  69.292  71.095  63.194
 2811DA     BB318254  69.135  71.227  63.137
 2811DA     SC118255  69.023  71.259  63.425
 2811DA     SC218256  68.821  71.191  63.554
 2811DA     SC318257  68.884  71.380  63.715
 2811DA     SC418258  69.079  71.382  63.513
 2812DA     BB118259  69.132  71.024  62.877
 2812DA     BB218260  68.785  70.948  62.965
 2812DA     BB318261  68.658  71.112  62.916
 2812DA     SC118262  68.686  71.248  63.194
 2812DA     SC218263  68.543  71.292  63.394
 2812DA     SC318264  68.714  71.474  63.451
 2812DA     SC418265  68.802  71.358  63.212
 2813DG     BB118266  68.511  70.911  62.726
 2813DG     BB218267  68.232  70.973  62.948
 2813DG     BB318268  68.140  71.141  62.895
 2813DG     SC118269  68.312  71.320  63.074
 2813DG     SC218270  68.218  71.471  63.314
 2813DG     SC318271  68.495  71.547  63.243
 2813DG     SC418272  68.449  71.380  63.016
 2814DG     BB118273  67.850  70.983  62.845
 2814DG     BB218274  67.717  71.188  63.112
 2814DG     BB318275  67.659  71.364  63.040
 2814DG     SC118276  67.931  71.498  63.083
 2814DG     SC218277  67.989  71.719  63.276
 2814DG     SC318278  68.220  71.671  63.097
 2814DG     SC418279  68.040  71.490  62.967
 2815DA     BB118280  67.336  71.327  63.178
 2815DA     BB218281  67.384  71.627  63.383
 2815DA     BB318282  67.351  71.803  63.266
 2815DA     SC118283  67.648  71.830  63.178
 2815DA     SC218284  67.840  71.983  63.221
 2815DA     SC318285  67.938  71.888  63.003
 2815DA     SC418286  67.692  71.760  63.040
 2816DA     BB118287  67.127  71.888  63.497
 2816DA     BB218288  67.339  72.178  63.570
 2816DA     BB318289  67.307  72.332  63.425
 2816DA     SC118290  67.532  72.232  63.235
 2816DA     SC218291  67.757  72.307  63.159
 2816DA     SC318292  67.722  72.149  62.961
 2816DA     SC418293  67.491  72.129  63.118
 2817DA     BB118294  67.242  72.522  63.687
 2817DA     BB218295  67.536  72.720  63.593
 2817DA     BB318296  67.488  72.853  63.433
 2817DA     SC118297  67.569  72.651  63.210
 2817DA     SC218298  67.749  72.626  63.040
 2817DA     SC318299  67.587  72.466  62.921
 2817DA     SC418300  67.453  72.556  63.151
 2818DT     BB118301  67.494  73.050  63.470
 2818DT     BB218302  67.809  73.108  63.303
 2818DT     BB318303  67.777  73.204  63.123
 2818DT     SC118304  67.689  72.982  63.013
 2818DT     SC218305  67.831  72.913  62.867
 2818DT     SC318306  67.525  72.811  62.897
 2819DA     BB118307  68.072  73.392  63.352
 2819DA     BB218308  68.206  73.332  63.017
 2819DA     BB318309  68.111  73.460  62.875
 2819DA     SC118310  67.884  73.259  62.807
 2819DA     SC218311  67.815  73.116  62.615
 2819DA     SC318312  67.584  73.113  62.726
 2819DA     SC418313  67.747  73.270  62.891
 2820DA     BB118314  68.436  73.466  62.851
 2820DA     BB218315  68.379  73.349  62.508
 2820DA     BB318316  68.279  73.499  62.394
 2820DA     SC118317  67.994  73.396  62.463
 2820DA     SC218318  67.804  73.284  62.346
 2820DA     SC318319  67.660  73.372  62.539
 2820DA     SC418320  67.921  73.461  62.591
 2821DT     BB118321  68.394  73.517  62.283
 2821DT     BB218322  68.217  73.365  62.008
 2821DT     BB318323  68.098  73.506  61.914
 2821DT     SC118324  67.924  73.502  62.110
 2821DT     SC218325  67.741  73.411  62.041
 2821DT     SC318326  67.777  73.584  62.313
 2822DA     BB118327  68.327  73.261  61.654
 2822DA     BB218328  67.985  73.288  61.525
 2822DA     BB318329  67.945  73.489  61.464
 2822DA     SC118330  67.834  73.576  61.741
 2822DA     SC218331  67.614  73.639  61.840
 2822DA     SC318332  67.752  73.751  62.024
 2822DA     SC418333  67.937  73.641  61.845
 2823DT     BB118334  67.918  73.503  61.281
 2823DT     BB218335  67.564  73.573  61.287
 2823DT     BB318336  67.532  73.777  61.269
 2823DT     SC118337  67.608  73.818  61.517
 2823DT     SC218338  67.437  73.876  61.635
 2823DT     SC318339  67.748  73.906  61.723
 2824DT     BB118340  67.443  73.743  61.015
 2824DT     BB218341  67.176  73.921  61.179
 2824DT     BB318342  67.212  74.125  61.171
 2824DT     SC118343  67.397  74.107  61.356
 2824DT     SC218344  67.327  74.202  61.536
 2824DT     SC318345  67.634  74.118  61.472
 2825DT     BB118346  67.017  74.167  60.980
 2825DT     BB218347  66.927  74.393  61.246
 2825DT     BB318348  67.022  74.575  61.219
 2825DT     SC118349  67.252  74.475  61.298
 2825DT     SC218350  67.304  74.559  61.489
 2825DT     SC318351  67.503  74.396  61.291
 2826DA     BB118352  66.616  74.669  61.263
 2826DA     BB218353  66.804  74.891  61.486
 2826DA     BB318354  66.903  75.043  61.373
 2826DA     SC118355  67.164  74.879  61.334
 2826DA     SC218356  67.401  74.887  61.414
 2826DA     SC318357  67.453  74.740  61.210
 2826DA     SC418358  67.177  74.789  61.202
 2827DG     BB118359  66.731  75.241  61.543
 2827DG     BB218360  67.054  75.349  61.665
 2827DG     BB318361  67.135  75.479  61.537
 2827DG     SC118362  67.277  75.264  61.371
 2827DG     SC218363  67.573  75.226  61.350
 2827DG     SC318364  67.430  75.055  61.156
 2827DG     SC418365  67.199  75.196  61.249
 2828DT     BB118366  67.178  75.693  61.593
 2828DT     BB218367  67.537  75.692  61.622
 2828DT     BB318368  67.622  75.782  61.456
 2828DT     SC118369  67.571  75.572  61.307
 2828DT     SC218370  67.756  75.474  61.256
 2828DT     SC318371  67.469  75.424  61.114
 2829DG     BB118372  67.757  76.008  61.770
 2829DG     BB218373  68.031  75.906  61.557
 2829DG     BB318374  68.040  76.024  61.397
 2829DG     SC118375  67.854  75.849  61.228
 2829DG     SC218376  67.932  75.694  60.985
 2829DG     SC318377  67.639  75.691  61.022
 2829DG     SC418378  67.696  75.874  61.235
 2830DT     BB118379  68.218  76.186  61.331
 2830DT     BB218380  68.377  76.007  61.061
 2830DT     BB318381  68.332  76.099  60.880
 2830DT     SC118382  68.088  76.003  60.883
 2830DT     SC218383  68.068  75.854  60.729
 2830DT     SC318384  67.824  75.995  60.890
 2831DA     BB118385  68.755  76.116  60.853
 2831DA     BB218386  68.637  75.976  60.536
 2831DA     BB318387  68.568  76.132  60.407
 2831DA     SC118388  68.274  76.118  60.509
 2831DA     SC218389  68.052  76.047  60.421
 2831DA     SC318390  67.954  76.194  60.607
 2831DA     SC418391  68.233  76.216  60.630
 2832DC     BB118392  68.665  76.205  60.205
 2832DC     BB218393  68.425  76.044  59.990
 2832DC     BB318394  68.310  76.187  59.893
 2832DC     SC118395  68.174  76.238  60.112
 2832DC     SC218396  67.972  76.166  60.088
 2832DC     SC318397  68.077  76.369  60.319
 2833DC     BB118398  68.432  76.155  59.639
 2833DC     BB218399  68.082  76.089  59.577
 2833DC     BB318400  67.986  76.263  59.523
 2833DC     SC118401  67.989  76.352  59.769
 2833DC     SC218402  67.789  76.353  59.848
 2833DC     SC318403  68.045  76.505  59.977
 2834DT     BB118404  67.962  76.183  59.258
 2834DT     BB218405  67.622  76.240  59.366
 2834DT     BB318406  67.570  76.438  59.332
 2834DT     SC118407  67.714  76.519  59.536
 2834DT     SC218408  67.583  76.588  59.692
 2834DT     SC318409  67.902  76.643  59.673
 2835DT     BB118410  67.406  76.363  59.126
 2835DT     BB218411  67.189  76.535  59.358
 2835DT     BB318412  67.189  76.738  59.318
 2835DT     SC118413  67.428  76.766  59.424
 2835DT     SC218414  67.413  76.877  59.607
 2835DT     SC318415  67.686  76.818  59.444
 2836DT     BB118416  66.936  76.720  59.221
 2836DT     BB218417  66.913  76.957  59.491
 2836DT     BB318418  66.955  77.148  59.421
 2836DT     SC118419  67.211  77.095  59.406
 2836DT     SC218420  67.317  77.207  59.557
 2836DT     SC318421  67.451  77.056  59.303
 2837DT     BB118422  66.696  77.201  59.458
 2837DT     BB218423  66.873  77.437  59.666
 2837DT     BB318424  66.928  77.603  59.555
 2837DT     SC118425  67.120  77.468  59.436
 2837DT     SC218426  67.310  77.542  59.503
 2837DT     SC318427  67.260  77.352  59.246
 2838DC     BB118428  66.748  77.723  59.703
 2838DC     BB218429  67.059  77.895  59.766
 2838DC     BB318430  67.094  78.034  59.617
 2838DC     SC118431  67.161  77.846  59.447
 2838DC     SC218432  67.372  77.858  59.406
 2838DC     SC318433  67.155  77.690  59.234
 2839DA     BB118434  67.151  78.160  60.016
 2839DA     BB218435  67.443  78.257  59.815
 2839DA     BB318436  67.388  78.405  59.671
 2839DA     SC118437  67.318  78.198  59.449
 2839DA     SC218438  67.412  78.124  59.230
 2839DA     SC318439  67.177  78.030  59.185
 2839DA     SC418440  67.166  78.148  59.439
 2840DA     BB118441  67.665  78.457  59.846
 2840DA     BB218442  67.821  78.488  59.515
 2840DA     BB318443  67.731  78.647  59.405
 2840DA     SC118444  67.515  78.467  59.273
 2840DA     SC218445  67.462  78.378  59.046
 2840DA     SC318446  67.225  78.343  59.138
 2840DA     SC418447  67.373  78.454  59.348
 2841DC     BB118448  67.867  78.722  59.391
 2841DC     BB218449  67.903  78.695  59.033
 2841DC     BB318450  67.786  78.838  58.939
 2841DC     SC118451  67.566  78.703  58.990
 2841DC     SC218452  67.487  78.624  58.807
 2841DC     SC318453  67.330  78.643  59.089
 2842DC     BB118454  68.023  78.920  58.886
 2842DC     BB218455  67.849  78.905  58.571
 2842DC     BB318456  67.716  79.063  58.555
 2842DC     SC118457  67.550  78.949  58.723
 2842DC     SC218458  67.373  78.887  58.618
 2842DC     SC318459  67.404  78.909  58.940
 2843DT     BB118460  67.878  79.186  58.377
 2843DT     BB218461  67.556  79.183  58.215
 2843DT     BB318462  67.444  79.345  58.277
 2843DT     SC118463  67.397  79.233  58.510
 2843DT     SC218464  67.189  79.178  58.522
 2843DT     SC318465  67.397  79.194  58.770
 2844DA     BB118466  67.433  79.405  57.858
 2844DA     BB218467  67.089  79.444  57.979
 2844DA     BB318468  67.065  79.634  58.073
 2844DA     SC118469  67.140  79.531  58.357
 2844DA     SC218470  67.026  79.490  58.575
 2844DA     SC318471  67.262  79.499  58.677
 2844DA     SC418472  67.294  79.541  58.401
 2845DT     BB118473  66.940  79.811  57.997
 2845DT     BB218474  66.670  79.776  58.233
 2845DT     BB318475  66.673  79.933  58.368
 2845DT     SC118476  66.879  79.832  58.494
 2845DT     SC218477  66.818  79.763  58.688
 2845DT     SC318478  67.123  79.807  58.591
 2846DT     BB118479  66.451  80.067  58.260
 2846DT     BB218480  66.360  80.013  58.604
 2846DT     BB318481  66.421  80.174  58.720
 2846DT     SC118482  66.671  80.097  58.709
 2846DT     SC218483  66.733  80.029  58.903
 2846DT     SC318484  66.929  80.099  58.654
 2847DC     BB118485  66.163  80.268  58.751
 2847DC     BB218486  66.281  80.217  59.088
 2847DC     BB318487  66.375  80.389  59.156
 2847DC     SC118488  66.587  80.341  59.008
 2847DC     SC218489  66.752  80.288  59.135
 2847DC     SC318490  66.771  80.370  58.822
 2848DT     BB118491  66.167  80.440  59.323
 2848DT     BB218492  66.454  80.421  59.540
 2848DT     BB318493  66.547  80.606  59.552
 2848DT     SC118494  66.648  80.578  59.312
 2848DT     SC218495  66.861  80.553  59.327
 2848DT     SC318496  66.697  80.623  59.056
 2849DA     BB118497  66.479  80.478  59.946
 2849DA     BB218498  66.829  80.582  59.920
 2849DA     BB318499  66.843  80.795  59.908
 2849DA     SC118500  66.830  80.803  59.597
 2849DA     SC218501  66.982  80.855  59.407
 2849DA     SC318502  66.768  80.888  59.270
 2849DA     SC418503  66.685  80.820  59.529
 2850DA     BB118504  67.046  80.756  60.165
 2850DA     BB218505  67.309  80.901  59.955
 2850DA     BB318506  67.286  81.113  59.942
 2850DA     SC118507  67.106  81.102  59.688
 2850DA     SC218508  67.123  81.162  59.447
 2850DA     SC318509  66.867  81.161  59.449
 2850DA     SC418510  66.947  81.097  59.710
 2851DA     BB118511  67.598  81.115  60.047
 2851DA     BB218512  67.685  81.275  59.729
 2851DA     BB318513  67.632  81.482  59.733
 2851DA     SC118514  67.346  81.437  59.619
 2851DA     SC218515  67.222  81.485  59.408
 2851DA     SC318516  67.010  81.455  59.550
 2851DA     SC418517  67.227  81.416  59.724
 2852DA     BB118518  67.946  81.514  59.650
 2852DA     BB218519  67.828  81.665  59.337
 2852DA     BB318520  67.765  81.866  59.371
 2852DA     SC118521  67.470  81.789  59.432
 2852DA     SC218522  67.246  81.815  59.324
 2852DA     SC318523  67.151  81.774  59.559
 2852DA     SC418524  67.430  81.764  59.586
 2853DC     BB118525  67.871  82.001  59.280
 2853DC     BB218526  67.630  82.079  59.023
 2853DC     BB318527  67.536  82.258  59.067
 2853DC     SC118528  67.392  82.146  59.255
 2853DC     SC218529  67.186  82.138  59.192
 2853DC     SC318530  67.294  82.091  59.494
 2854DA     BB118531  67.675  82.253  58.672
 2854DA     BB218532  67.327  82.368  58.669
 2854DA     BB318533  67.313  82.564  58.753
 2854DA     SC118534  67.266  82.463  59.043
 2854DA     SC218535  67.079  82.458  59.209
 2854DA     SC318536  67.263  82.426  59.385
 2854DA     SC418537  67.394  82.445  59.138
 2855DG     BB118538  67.196  82.609  58.471
 2855DG     BB218539  66.900  82.694  58.660
 2855DG     BB318540  66.918  82.877  58.736
 2855DG     SC118541  67.048  82.783  58.996
 2855DG     SC218542  66.927  82.800  59.269
 2855DG     SC318543  67.211  82.717  59.284
 2855DG     SC418544  67.207  82.767  59.002
 2856DG     BB118545  66.643  82.963  58.576
 2856DG     BB218546  66.502  83.036  58.901
 2856DG     BB318547  66.561  83.216  58.962
 2856DG     SC118548  66.813  83.114  59.102
 2856DG     SC218549  66.864  83.119  59.396
 2856DG     SC318550  67.108  83.040  59.248
 2856DG     SC418551  66.949  83.101  59.018
 2857DA     BB118552  66.226  83.316  59.018
 2857DA     BB218553  66.300  83.383  59.371
 2857DA     BB318554  66.400  83.571  59.392
 2857DA     SC118555  66.685  83.449  59.368
 2857DA     SC218556  66.883  83.410  59.516
 2857DA     SC318557  67.017  83.392  59.298
 2857DA     SC418558  66.752  83.442  59.221
 2858DA     BB118559  66.162  83.681  59.605
 2858DA     BB218560  66.421  83.710  59.863
 2858DA     BB318561  66.527  83.894  59.841
 2858DA     SC118562  66.745  83.774  59.654
 2858DA     SC218563  66.988  83.719  59.665
 2858DA     SC318564  66.979  83.724  59.408
 2858DA     SC418565  66.719  83.783  59.495
 2859DG     BB118566  66.434  84.009  60.130
 2859DG     BB218567  66.785  83.979  60.211
 2859DG     BB318568  66.879  84.150  60.169
 2859DG     SC118569  66.946  84.069  59.881
 2859DG     SC218570  67.220  84.018  59.773
 2859DG     SC318571  67.020  84.022  59.555
 2859DG     SC418572  66.841  84.101  59.765
 2860DT     BB118573  66.991  84.303  60.327
 2860DT     BB218574  67.334  84.210  60.264
 2860DT     BB318575  67.433  84.364  60.169
 2860DT     SC118576  67.312  84.313  59.942
 2860DT     SC218577  67.454  84.233  59.801
 2860DT     SC318578  67.158  84.344  59.730
 2861DA     BB118579  67.654  84.245  60.501
 2861DA     BB218580  67.876  84.243  60.209
 2861DA     BB318581  67.927  84.443  60.153
 2861DA     SC118582  67.689  84.474  59.956
 2861DA     SC218583  67.654  84.492  59.710
 2861DA     SC318584  67.426  84.595  59.770
 2861DA     SC418585  67.552  84.537  60.014
 2862DA     BB118586  68.204  84.278  60.180
 2862DA     BB218587  68.254  84.356  59.825
 2862DA     BB318588  68.298  84.563  59.800
 2862DA     SC118589  68.000  84.647  59.764
 2862DA     SC218590  67.853  84.731  59.581
 2862DA     SC318591  67.700  84.813  59.770
 2862DA     SC418592  67.919  84.692  59.896
 2863DT     BB118593  68.465  84.581  59.734
 2863DT     BB218594  68.373  84.682  59.400
 2863DT     BB318595  68.385  84.888  59.382
 2863DT     SC118596  68.163  84.919  59.520
 2863DT     SC218597  68.008  84.991  59.390
 2863DT     SC318598  68.000  84.992  59.714
 2864DG     BB118599  68.617  84.712  59.098
 2864DG     BB218600  68.396  84.959  58.955
 2864DG     BB318601  68.464  85.142  58.993
 2864DG     SC118602  68.312  85.170  59.258
 2864DG     SC218603  68.089  85.360  59.312
 2864DG     SC318604  68.176  85.226  59.561
 2864DG     SC418605  68.381  85.118  59.393
 2865DC     BB118606  68.532  85.284  58.831
 2865DC     BB218607  68.264  85.526  58.827
 2865DC     BB318608  68.326  85.701  58.918
 2865DC     SC118609  68.308  85.592  59.156
 2865DC     SC218610  68.144  85.681  59.263
 2865DC     SC318611  68.378  85.500  59.393
 2866DT     BB118612  68.352  85.844  58.678
 2866DT     BB218613  68.130  86.049  58.875
 2866DT     BB318614  68.239  86.186  58.986
 2866DT     SC118615  68.317  85.999  59.154
 2866DT     SC218616  68.224  86.031  59.344
 2866DT     SC318617  68.476  85.836  59.287
 2867DA     BB118618  67.965  86.426  58.779
 2867DA     BB218619  67.952  86.527  59.132
 2867DA     BB318620  68.121  86.648  59.180
 2867DA     SC118621  68.299  86.408  59.268
 2867DA     SC218622  68.396  86.317  59.479
 2867DA     SC318623  68.561  86.195  59.326
 2867DA     SC418624  68.394  86.342  59.156
 2868DG     BB118625  67.915  86.873  59.249
 2868DG     BB218626  68.045  86.830  59.585
 2868DG     BB318627  68.208  86.941  59.609
 2868DG     SC118628  68.400  86.722  59.514
 2868DG     SC218629  68.603  86.582  59.683
 2868DG     SC318630  68.638  86.513  59.398
 2868DG     SC418631  68.435  86.711  59.358
 2869DA     BB118632  68.049  87.058  59.890
 2869DA     BB218633  68.326  86.938  60.098
 2869DA     BB318634  68.494  87.069  60.081
 2869DA     SC118635  68.621  86.913  59.843
 2869DA     SC218636  68.820  86.769  59.802
 2869DA     SC318637  68.784  86.825  59.555
 2869DA     SC418638  68.583  86.960  59.694
 2870DT     BB118639  68.534  87.155  60.242
 2870DT     BB218640  68.835  86.971  60.320
 2870DT     BB318641  69.001  87.083  60.270
 2870DT     SC118642  68.965  87.037  60.014
 2870DT     SC218643  69.121  86.908  59.942
 2870DT     SC318644  68.918  87.080  59.758
 2871DG     BB118645  69.025  86.983  60.663
 2871DG     BB218646  69.333  86.906  60.490
 2871DG     BB318647  69.437  87.073  60.459
 2871DG     SC118648  69.308  87.134  60.188
 2871DG     SC218649  69.445  87.129  59.924
 2871DG     SC318650  69.173  87.241  59.899
 2871DG     SC418651  69.173  87.220  60.184
 2872DT     BB118652  69.634  87.101  60.551
 2872DT     BB218653  69.857  87.073  60.269
 2872DT     BB318654  69.918  87.262  60.209
 2872DT     SC118655  69.685  87.311  60.099
 2872DT     SC218656  69.707  87.317  59.885
 2872DT     SC318657  69.452  87.425  60.053
 2873DT     BB118658  70.178  87.241  60.317
 2873DT     BB218659  70.238  87.331  59.972
 2873DT     BB318660  70.248  87.536  59.954
 2873DT     SC118661  69.987  87.558  59.979
 2873DT     SC218662  69.902  87.619  59.791
 2873DT     SC318663  69.752  87.625  60.078
 2874DT     BB118664  70.533  87.562  59.925
 2874DT     BB218665  70.407  87.733  59.634
 2874DT     BB318666  70.386  87.935  59.673
 2874DT     SC118667  70.172  87.893  59.819
 2874DT     SC218668  70.000  87.971  59.716
 2874DT     SC318669  70.012  87.884  60.028
 2875DC     BB118670  70.614  88.026  59.525
 2875DC     BB218671  70.342  88.215  59.384
 2875DC     BB318672  70.324  88.397  59.482
 2875DC     SC118673  70.217  88.282  59.692
 2875DC     SC218674  70.010  88.338  59.706
 2875DC     SC318675  70.186  88.200  59.940
 2876DT     BB118676  70.432  88.552  59.271
 2876DT     BB218677  70.107  88.699  59.328
 2876DT     BB318678  70.122  88.853  59.465
 2876DT     SC118679  70.150  88.685  59.664
 2876DT     SC218680  69.974  88.691  59.788
 2876DT     SC318681  70.259  88.557  59.868
 2877DT     BB118682  70.085  89.045  59.270
 2877DT     BB218683  69.822  89.109  59.508
 2877DT     BB318684  69.888  89.241  59.653
 2877DT     SC118685  70.033  89.054  59.768
 2877DT     SC218686  69.946  89.004  59.958
 2877DT     SC318687  70.243  88.923  59.858
 2878DT     BB118688  69.734  89.443  59.550
 2878DT     BB218689  69.627  89.417  59.893
 2878DT     BB318690  69.744  89.538  60.013
 2878DT     SC118691  69.946  89.371  59.998
 2878DT     SC218692  69.976  89.278  60.190
 2878DT     SC318693  70.185  89.275  59.942
 2879DT     BB118694  69.537  89.713  60.045
 2879DT     BB218695  69.628  89.621  60.382
 2879DT     BB318696  69.777  89.746  60.451
 2879DT     SC118697  69.957  89.626  60.303
 2879DT     SC218698  70.092  89.517  60.430
 2879DT     SC318699  70.141  89.589  60.118
 2880DA     BB118700  69.476  89.760  60.743
 2880DA     BB218701  69.794  89.703  60.916
 2880DA     BB318702  69.908  89.884  60.924
 2880DA     SC118703  70.057  89.828  60.657
 2880DA     SC218704  70.289  89.771  60.583
 2880DA     SC318705  70.215  89.857  60.353
 2880DA     SC418706  69.993  89.887  60.522
 2881DT     BB118707  69.947  89.989  61.108
 2881DT     BB218708  70.294  89.896  61.137
 2881DT     BB318709  70.415  90.060  61.100
 2881DT     SC118710  70.368  90.046  60.842
 2881DT     SC218711  70.547  89.983  60.741
 2881DT     SC318712  70.284  90.112  60.601
 2882DA     BB118713  70.538  89.897  61.467
 2882DA     BB218714  70.836  89.944  61.258
 2882DA     BB318715  70.884  90.152  61.244
 2882DA     SC118716  70.712  90.199  60.989
 2882DA     SC218717  70.751  90.248  60.747
 2882DA     SC318718  70.508  90.332  60.747
 2882DA     SC418719  70.561  90.248  61.009
 2883DA     BB118720  71.173  90.036  61.347
 2883DA     BB218721  71.312  90.162  61.032
 2883DA     BB318722  71.331  90.375  61.039
 2883DA     SC118723  71.048  90.428  60.921
 2883DA     SC218724  70.950  90.517  60.710
 2883DA     SC318725  70.739  90.558  60.849
 2883DA     SC418726  70.927  90.447  61.025
 2884DA     BB118727  71.635  90.287  60.954
 2884DA     BB218728  71.580  90.481  60.647
 2884DA     BB318729  71.587  90.690  60.689
 2884DA     SC118730  71.281  90.713  60.744
 2884DA     SC218731  71.082  90.816  60.635
 2884DA     SC318732  70.973  90.800  60.867
 2884DA     SC418733  71.232  90.696  60.896
 2885DA     BB118734  71.802  90.663  60.445
 2885DA     BB218735  71.585  90.891  60.258
 2885DA     BB318736  71.601  91.089  60.336
 2885DA     SC118737  71.369  91.054  60.540
 2885DA     SC218738  71.136  91.139  60.571
 2885DA     SC318739  71.165  91.068  60.816
 2885DA     SC418740  71.407  91.005  60.688
 2886DA     BB118741  71.658  91.138  60.017
 2886DA     BB218742  71.364  91.357  60.021
 2886DA     BB318743  71.408  91.539  60.123
 2886DA     SC118744  71.318  91.433  60.402
 2886DA     SC218745  71.132  91.472  60.563
 2886DA     SC318746  71.288  91.367  60.737
 2886DA     SC418747  71.430  91.366  60.496
 2887DT     BB118748  71.406  91.699  60.014
 2887DT     BB218749  71.097  91.835  60.142
 2887DT     BB318750  71.138  91.987  60.277
 2887DT     SC118751  71.210  91.814  60.461
 2887DT     SC218752  71.063  91.812  60.619
 2887DT     SC318753  71.360  91.683  60.634
 2888DC     BB118754  71.052  92.168  60.096
 2888DC     BB218755  70.848  92.227  60.388
 2888DC     BB318756  70.947  92.355  60.518
 2888DC     SC118757  71.110  92.164  60.594
 2888DC     SC218758  71.066  92.110  60.798
 2888DC     SC318759  71.333  92.029  60.633
 2889DT     BB118760  70.777  92.558  60.455
 2889DT     BB218761  70.748  92.525  60.813
 2889DT     BB318762  70.894  92.639  60.906
 2889DT     SC118763  71.081  92.465  60.842
 2889DT     SC218764  71.149  92.365  61.020
 2889DT     SC318765  71.297  92.363  60.732
 2890DA     BB118766  70.531  92.755  61.081
 2890DA     BB218767  70.767  92.682  61.352
 2890DA     BB318768  70.911  92.838  61.369
 2890DA     SC118769  71.113  92.705  61.173
 2890DA     SC218770  71.337  92.596  61.185
 2890DA     SC318771  71.352  92.645  60.934
 2890DA     SC418772  71.104  92.746  61.018
 2891DT     BB118773  70.915  92.958  61.538
 2891DT     BB218774  71.209  92.811  61.686
 2891DT     BB318775  71.370  92.940  61.668
 2891DT     SC118776  71.395  92.884  61.413
 2891DT     SC218777  71.576  92.772  61.381
 2891DT     SC318778  71.399  92.916  61.151
 2892DA     BB118779  71.340  92.826  62.070
 2892DA     BB218780  71.687  92.776  61.962
 2892DA     BB318781  71.786  92.963  61.940
 2892DA     SC118782  71.710  92.996  61.640
 2892DA     SC218783  71.826  92.991  61.419
 2892DA     SC318784  71.621  93.119  61.333
 2892DA     SC418785  71.575  93.076  61.606
 2893DG     BB118786  71.968  92.837  62.154
 2893DG     BB218787  72.213  92.856  61.888
 2893DG     BB318788  72.286  93.041  61.877
 2893DG     SC118789  72.074  93.139  61.680
 2893DG     SC218790  72.122  93.220  61.396
 2893DG     SC318791  71.846  93.286  61.479
 2893DG     SC418792  71.937  93.200  61.736
 2894DA     BB118793  72.585  92.870  61.885
 2894DA     BB218794  72.674  93.019  61.562
 2894DA     BB318795  72.721  93.226  61.586
 2894DA     SC118796  72.430  93.323  61.537
 2894DA     SC218797  72.304  93.447  61.361
 2894DA     SC318798  72.131  93.493  61.546
 2894DA     SC418799  72.335  93.342  61.666
 2895DA     BB118800  72.982  93.110  61.425
 2895DA     BB218801  72.898  93.352  61.162
 2895DA     BB318802  72.941  93.550  61.227
 2895DA     SC118803  72.658  93.599  61.346
 2895DA     SC218804  72.457  93.738  61.294
 2895DA     SC318805  72.393  93.700  61.540
 2895DA     SC418806  72.636  93.566  61.502
 2896DA     BB118807  73.104  93.542  60.942
 2896DA     BB218808  72.893  93.824  60.838
 2896DA     BB318809  72.951  94.002  60.939
 2896DA     SC118810  72.756  93.959  61.177
 2896DA     SC218811  72.548  94.064  61.266
 2896DA     SC318812  72.609  93.949  61.487
 2896DA     SC418813  72.812  93.881  61.306
 2897DG     BB118814  73.007  94.113  60.652
 2897DG     BB218815  72.745  94.346  60.739
 2897DG     BB318816  72.819  94.494  60.849
 2897DG     SC118817  72.772  94.353  61.116
 2897DG     SC218818  72.580  94.439  61.328
 2897DG     SC318819  72.753  94.219  61.425
 2897DG     SC418820  72.886  94.256  61.174
 2898DG     BB118821  72.724  94.725  60.628
 2898DG     BB218822  72.514  94.859  60.890
 2898DG     BB318823  72.619  94.983  61.004
 2898DG     SC118824  72.710  94.765  61.199
 2898DG     SC218825  72.630  94.741  61.486
 2898DG     SC318826  72.844  94.548  61.420
 2898DG     SC418827  72.844  94.684  61.167
 2899DT     BB118828  72.582  95.217  61.029
 2899DT     BB218829  72.429  95.226  61.356
 2899DT     BB318830  72.562  95.304  61.494
 2899DT     SC118831  72.702  95.082  61.497
 2899DT     SC218832  72.676  94.984  61.687
 2899DT     SC318833  72.904  94.915  61.466
 2900DT     BB118834  72.430  95.549  61.516
 2900DT     BB218835  72.437  95.422  61.853
 2900DT     BB318836  72.608  95.486  61.949
 2900DT     SC118837  72.756  95.315  61.816
 2900DT     SC218838  72.827  95.162  61.949
 2900DT     SC318839  72.940  95.221  61.652
 2901DA     BB118840  72.288  95.592  62.197
 2901DA     BB218841  72.533  95.411  62.402
 2901DA     BB318842  72.701  95.536  62.443
 2901DA     SC118843  72.862  95.445  62.192
 2901DA     SC218844  73.065  95.310  62.143
 2901DA     SC318845  73.065  95.431  61.916
 2901DA     SC418846  72.845  95.531  62.058
 2902DA     BB118847  72.605  95.427  62.735
 2902DA     BB218848  72.936  95.270  62.755
 2902DA     BB318849  73.087  95.418  62.783
 2902DA     SC118850  73.138  95.458  62.479
 2902DA     SC218851  73.319  95.408  62.314
 2902DA     SC318852  73.207  95.588  62.168
 2902DA     SC418853  73.055  95.573  62.404
 2903DT     BB118854  73.166  95.392  62.942
 2903DT     BB218855  73.476  95.257  62.816
 2903DT     BB318856  73.619  95.407  62.806
 2903DT     SC118857  73.506  95.512  62.593
 2903DT     SC218858  73.632  95.480  62.422
 2903DT     SC318859  73.382  95.685  62.438
 2904DA     BB118860  73.760  95.056  62.993
 2904DA     BB218861  74.005  95.164  62.743
 2904DA     BB318862  74.097  95.347  62.803
 2904DA     SC118863  73.888  95.527  62.659
 2904DA     SC218864  73.881  95.680  62.462
 2904DA     SC318865  73.672  95.780  62.573
 2904DA     SC418866  73.761  95.576  62.744
 2905DA     BB118867  74.350  95.148  62.735
 2905DA     BB218868  74.448  95.401  62.488
 2905DA     BB318869  74.516  95.578  62.586
 2905DA     SC118870  74.235  95.711  62.593
 2905DA     SC218871  74.119  95.903  62.484
 2905DA     SC318872  73.954  95.889  62.680
 2905DA     SC418873  74.144  95.687  62.723
 2906DT     BB118874  74.703  95.621  62.563
 2906DT     BB218875  74.658  95.903  62.342
 2906DT     BB318876  74.678  96.080  62.448
 2906DT     SC118877  74.441  96.049  62.558
 2906DT     SC218878  74.306  96.197  62.480
 2906DT     SC318879  74.256  96.014  62.743
 2907DT     BB118880  74.922  96.131  62.336
 2907DT     BB218881  74.726  96.424  62.261
 2907DT     BB318882  74.738  96.559  62.418
 2907DT     SC118883  74.578  96.414  62.566
 2907DT     SC218884  74.390  96.516  62.589
 2907DT     SC318885  74.492  96.263  62.765
 2908DA     BB118886  74.851  96.785  62.081
 2908DA     BB218887  74.594  96.975  62.261
 2908DA     BB318888  74.677  97.063  62.437
 2908DA     SC118889  74.608  96.820  62.619
 2908DA     SC218890  74.451  96.769  62.807
 2908DA     SC318891  74.611  96.575  62.860
 2908DA     SC418892  74.720  96.707  62.637
 2909DT     BB118893  74.696  97.273  62.458
 2909DT     BB218894  74.418  97.314  62.684
 2909DT     BB318895  74.487  97.355  62.875
 2909DT     SC118896  74.560  97.105  62.910
 2909DT     SC218897  74.432  97.013  63.056
 2909DT     SC318898  74.714  96.895  62.951
 2910DA     BB118899  74.204  97.646  62.772
 2910DA     BB218900  74.112  97.506  63.098
 2910DA     BB318901  74.246  97.575  63.249
 2910DA     SC118902  74.444  97.338  63.217
 2910DA     SC218903  74.515  97.138  63.347
 2910DA     SC318904  74.724  97.140  63.199
 2910DA     SC418905  74.567  97.357  63.115
 2911DA     BB118906  73.949  97.642  63.363
 2911DA     BB218907  74.033  97.414  63.638
 2911DA     BB318908  74.177  97.504  63.767
 2911DA     SC118909  74.422  97.388  63.613
 2911DA     SC218910  74.600  97.218  63.651
 2911DA     SC318911  74.728  97.341  63.466
 2911DA     SC418912  74.486  97.479  63.497
 2912DA     BB118913  73.930  97.396  63.951
 2912DA     BB218914  74.182  97.188  64.116
 2912DA     BB318915  74.317  97.309  64.228
 2912DA     SC118916  74.518  97.345  63.994
 2912DA     SC218917  74.749  97.270  63.935
 2912DA     SC318918  74.749  97.467  63.771
 2912DA     SC418919  74.500  97.473  63.899
 2913DA     BB118920  74.212  97.073  64.430
 2913DA     BB218921  74.566  96.983  64.465
 2913DA     BB318922  74.671  97.136  64.570
 2913DA     SC118923  74.749  97.293  64.313
 2913DA     SC218924  74.955  97.342  64.182
 2913DA     SC318925  74.822  97.538  64.084
 2913DA     SC418926  74.650  97.410  64.265
 2914DT     BB118927  74.735  97.077  64.733
 2914DT     BB218928  75.085  97.069  64.649
 2914DT     BB318929  75.179  97.241  64.716
 2914DT     SC118930  75.072  97.384  64.523
 2914DT     SC218931  75.225  97.443  64.385
 2914DT     SC318932  74.926  97.567  64.402
 2915DG     BB118933  75.377  96.932  64.896
 2915DG     BB218934  75.608  97.161  64.737
 2915DG     BB318935  75.631  97.323  64.850
 2915DG     SC118936  75.401  97.477  64.721
 2915DG     SC218937  75.426  97.724  64.554
 2915DG     SC318938  75.142  97.667  64.616
 2915DG     SC418939  75.253  97.460  64.780
 2916DA     BB118940  75.985  97.290  64.855
 2916DA     BB218941  76.024  97.620  64.700
 2916DA     BB318942  76.001  97.774  64.846
 2916DA     SC118943  75.694  97.803  64.803
 2916DA     SC218944  75.536  97.971  64.707
 2916DA     SC318945  75.357  97.850  64.845
 2916DA     SC418946  75.597  97.715  64.896
 2917DA     BB118947  76.305  97.897  64.767
 2917DA     BB218948  76.139  98.205  64.659
 2917DA     BB318949  76.099  98.331  64.827
 2917DA     SC118950  75.816  98.211  64.879
 2917DA     SC218951  75.579  98.284  64.860
 2917DA     SC318952  75.528  98.093  65.024
 2917DA     SC418953  75.806  98.089  64.983
 2918DC     BB118954  76.197  98.535  64.872
 2918DC     BB218955  75.914  98.733  64.769
 2918DC     BB318956  75.829  98.827  64.933
 2918DC     SC118957  75.722  98.602  65.016
 2918DC     SC218958  75.508  98.613  64.993
 2918DC     SC318959  75.670  98.393  65.169
 2919DG     BB118960  75.935  99.123  64.674
 2919DG     BB218961  75.584  99.139  64.758
 2919DG     BB318962  75.560  99.226  64.935
 2919DG     SC118963  75.579  98.964  65.094
 2919DG     SC218964  75.358  98.837  65.249
 2919DG     SC318965  75.615  98.700  65.300
 2919DG     SC418966  75.723  98.912  65.141
 2920DA     BB118967  75.340  99.405  64.750
 2920DA     BB218968  75.070  99.288  64.969
 2920DA     BB318969  75.080  99.387  65.158
 2920DA     SC118970  75.263  99.171  65.288
 2920DA     SC218971  75.244  98.994  65.463
 2920DA     SC318972  75.500  99.006  65.473
 2920DA     SC418973  75.422  99.194  65.280
 2921DA     BB118974  74.782  99.394  65.028
 2921DA     BB218975  74.680  99.219  65.333
 2921DA     BB318976  74.706  99.345  65.503
 2921DA     SC118977  74.997  99.251  65.560
 2921DA     SC218978  75.117  99.116  65.732
 2921DA     SC318979  75.329  99.233  65.647
 2921DA     SC418980  75.117  99.335  65.494
 2922DC     BB118981  74.552  99.347  65.548
 2922DC     BB218982  74.590  99.150  65.848
 2922DC     BB318983  74.643  99.272  66.007
 2922DC     SC118984  74.888  99.295  65.916
 2922DC     SC218985  75.023  99.191  66.048
 2922DC     SC318986  75.108  99.405  65.820
 2923DA     BB118987  74.330  99.001  66.098
 2923DA     BB218988  74.573  99.001  66.373
 2923DA     BB318989  74.572  99.189  66.473
 2923DA     SC118990  74.794  99.313  66.293
 2923DA     SC218991  75.032  99.383  66.316
 2923DA     SC318992  74.989  99.524  66.106
 2923DA     SC418993  74.747  99.394  66.163
 2924DC     BB118994  74.511  99.178  66.648
 2924DC     BB218995  74.825  99.241  66.816
 2924DC     BB318996  74.837  99.440  66.870
 2924DC     SC118997  74.883  99.514  66.623
 2924DC     SC218998  75.086  99.583  66.605
 2924DC     SC318999  74.850  99.630  66.388
 2925DA     BB119000  74.912  99.234  67.230
 2925DA     BB219001  75.165  99.498  67.201
 2925DA     BB319002  75.078  99.689  67.241
 2925DA     SC119003  75.003  99.745  66.944
 2925DA     SC219004  75.075  99.897  66.761
 2925DA     SC319005  74.847  99.846  66.656
 2925DA     SC419006  74.856  99.701  66.896
 2926DA     BB119007  75.308  99.743  67.483
 2926DA     BB219008  75.424 100.034  67.293
 2926DA     BB319009  75.296 100.201  67.328
 2926DA     SC119010  75.107 100.137  67.089
 2926DA     SC219011  75.051 100.233  66.866
 2926DA     SC319012  74.835 100.097  66.884
 2926DA     SC419013  74.978 100.046  67.120
 2927DA     BB119014  75.557 100.390  67.433
 2927DA     BB219015  75.496 100.614  67.149
 2927DA     BB319016  75.341 100.753  67.196
 2927DA     SC119017  75.112 100.572  67.087
 2927DA     SC219018  74.953 100.571  66.895
 2927DA     SC319019  74.814 100.409  67.038
 2927DA     SC419020  75.040 100.473  67.192
 2928DT     BB119021  75.364 100.983  67.224
 2928DT     BB219022  75.222 101.072  66.904
 2928DT     BB319023  75.041 101.167  66.932
 2928DT     SC119024  74.922 100.940  66.991
 2928DT     SC219025  74.787 100.887  66.833
 2928DT     SC319026  74.793 100.757  67.130
 2929DA     BB119027  75.265 101.426  66.691
 2929DA     BB219028  74.943 101.371  66.525
 2929DA     BB319029  74.789 101.483  66.622
 2929DA     SC119030  74.713 101.255  66.819
 2929DA     SC219031  74.522 101.099  66.856
 2929DA     SC319032  74.616 101.073  67.094
 2929DA     SC419033  74.786 101.253  66.962
 2930DC     BB119034  74.705 101.627  66.515
 2930DC     BB219035  74.400 101.447  66.445
 2930DC     BB319036  74.246 101.522  66.561
 2930DC     SC119037  74.339 101.405  66.776
 2930DC     SC219038  74.206 101.245  66.833
 2930DC     SC319039  74.441 101.373  67.017
 2931DT     BB119040  74.157 101.609  66.329
 2931DT     BB219041  73.898 101.393  66.458
 2931DT     BB319042  73.780 101.497  66.593
 2931DT     SC119043  73.967 101.486  66.777
 2931DT     SC219044  73.905 101.354  66.935
 2931DT     SC319045  74.151 101.564  66.949
 2932DA     BB119046  73.569 101.273  66.305
 2932DA     BB219047  73.431 101.202  66.637
 2932DA     BB319048  73.334 101.375  66.716
 2932DA     SC119049  73.589 101.483  66.858
 2932DA     SC219050  73.671 101.513  67.091
 2932DA     SC319051  73.835 101.683  66.990
 2932DA     SC419052  73.681 101.586  66.776
 2933DA     BB119053  73.127 101.122  66.744
 2933DA     BB219054  73.126 101.200  67.102
 2933DA     BB319055  73.032 101.388  67.137
 2933DA     SC119056  73.296 101.551  67.115
 2933DA     SC219057  73.446 101.681  67.266
 2933DA     SC319058  73.532 101.793  67.052
 2933DA     SC419059  73.335 101.610  66.970
 2934DT     BB119060  72.878 101.369  67.234
 2934DT     BB219061  72.993 101.515  67.543
 2934DT     BB319062  72.935 101.713  67.554
 2934DT     SC119063  73.117 101.784  67.379
 2934DT     SC219064  73.269 101.900  67.478
 2934DT     SC319065  73.226 101.878  67.158
 2935DT     BB119066  72.751 101.648  67.741
 2935DT     BB219067  72.946 101.911  67.894
 2935DT     BB319068  72.871 102.096  67.839
 2935DT     SC119069  72.974 102.074  67.599
 2935DT     SC219070  73.135 102.215  67.577
 2935DT     SC319071  72.990 102.054  67.336
 2936DA     BB119072  72.872 102.118  68.260
 2936DA     BB219073  73.026 102.427  68.134
 2936DA     BB319074  72.877 102.558  68.058
 2936DA     SC119075  72.892 102.447  67.768
 2936DA     SC219076  72.971 102.524  67.544
 2936DA     SC319077  72.820 102.340  67.449
 2936DA     SC419078  72.791 102.328  67.728
 2937DA     BB119079  72.987 102.796  68.267
 2937DA     BB219080  73.072 102.998  67.973
 2937DA     BB319081  72.898 103.097  67.899
 2937DA     SC119082  72.822 102.867  67.703
 2937DA     SC219083  72.816 102.828  67.457
 2937DA     SC319084  72.653 102.638  67.511
 2937DA     SC419085  72.721 102.754  67.757
 2938DT     BB119086  72.866 103.317  67.905
 2938DT     BB219087  72.930 103.374  67.554
 2938DT     BB319088  72.754 103.424  67.458
 2938DT     SC119089  72.669 103.176  67.466
 2938DT     SC219090  72.668 103.095  67.267
 2938DT     SC319091  72.520 102.967  67.525
 2939DT     BB119092  72.828 103.690  67.430
 2939DT     BB219093  72.769 103.577  67.092
 2939DT     BB319094  72.571 103.606  67.041
 2939DT     SC119095  72.495 103.403  67.189
 2939DT     SC219096  72.428 103.243  67.061
 2939DT     SC319097  72.376 103.266  67.380
 2940DG     BB119098  72.799 103.807  66.771
 2940DG     BB219099  72.570 103.580  66.608
 2940DG     BB319100  72.388 103.659  66.603
 2940DG     SC119101  72.302 103.541  66.873
 2940DG     SC219102  72.092 103.333  66.914
 2940DG     SC319103  72.183 103.444  67.173
 2940DG     SC419104  72.332 103.623  67.007
 2941DT     BB119105  72.303 103.693  66.414
 2941DT     BB219106  72.060 103.427  66.394
 2941DT     BB319107  71.871 103.501  66.435
 2941DT     SC119108  71.924 103.518  66.692
 2941DT     SC219109  71.809 103.370  66.798
 2941DT     SC319110  71.965 103.622  66.930
 2942DA     BB119111  71.879 103.267  66.086
 2942DA     BB219112  71.599 103.157  66.295
 2942DA     BB319113  71.447 103.306  66.301
 2942DA     SC119114  71.563 103.449  66.552
 2942DA     SC219115  71.501 103.480  66.792
 2942DA     SC319116  71.661 103.681  66.786
 2942DA     SC419117  71.666 103.570  66.528
 2943DT     BB119118  71.292 103.247  66.224
 2943DT     BB219119  71.098 103.209  66.526
 2943DT     BB319120  70.977 103.375  66.553
 2943DT     SC119121  71.181 103.522  66.627
 2943DT     SC219122  71.163 103.567  66.837
 2943DT     SC319123  71.361 103.714  66.627
 2944DA     BB119124  70.748 103.024  66.591
 2944DA     BB219125  70.665 103.247  66.870
 2944DA     BB319126  70.555 103.415  66.801
 2944DA     SC119127  70.807 103.591  66.751
 2944DA     SC219128  70.914 103.793  66.851
 2944DA     SC319129  71.036 103.814  66.626
 2944DA     SC419130  70.873 103.587  66.604
 2945DC     BB119131  70.364 103.434  66.858
 2945DC     BB219132  70.408 103.711  67.085
 2945DC     BB319133  70.343 103.886  66.996
 2945DC     SC119134  70.556 103.897  66.843
 2945DC     SC219135  70.680 104.061  66.905
 2945DC     SC319136  70.706 103.898  66.626
 2946DC     BB119137  70.109 103.901  67.146
 2946DC     BB219138  70.267 104.221  67.201
 2946DC     BB319139  70.207 104.356  67.056
 2946DC     SC119140  70.359 104.241  66.876
 2946DC     SC219141  70.522 104.373  66.826
 2946DC     SC319142  70.431 104.111  66.658
 2947DA     BB119143  70.098 104.572  67.403
 2947DA     BB219144  70.286 104.803  67.190
 2947DA     BB319145  70.163 104.875  67.032
 2947DA     SC119146  70.241 104.648  66.834
 2947DA     SC219147  70.372 104.624  66.623
 2947DA     SC319148  70.240 104.406  66.590
 2947DA     SC419149  70.148 104.517  66.831
 2948DC     BB119150  70.075 105.099  66.995
 2948DC     BB219151  70.306 105.183  66.731
 2948DC     BB319152  70.204 105.205  66.552
 2948DC     SC119153  70.175 104.945  66.529
 2948DC     SC219154  70.296 104.874  66.366
 2948DC     SC319155  70.059 104.709  66.512
 2949DA     BB119156  70.402 105.575  66.582
 2949DA     BB219157  70.484 105.433  66.253
 2949DA     BB319158  70.322 105.463  66.118
 2949DA     SC119159  70.183 105.193  66.186
 2949DA     SC219160  70.140 104.974  66.075
 2949DA     SC319161  69.954 104.945  66.249
 2949DA     SC419162  70.071 105.195  66.301
 2950DT     BB119163  70.345 105.589  65.948
 2950DT     BB219164  70.386 105.318  65.714
 2950DT     BB319165  70.219 105.303  65.592
 2950DT     SC119166  70.077 105.197  65.786
 2950DT     SC219167  70.037 104.991  65.740
 2950DT     SC319168  69.888 105.168  65.968
 2951DA     BB119169  70.582 105.302  65.386
 2951DA     BB219170  70.384 105.012  65.280
 2951DA     BB319171  70.218 105.074  65.163
 2951DA     SC119172  70.025 105.101  65.405
 2951DA     SC219173  69.825 104.984  65.496
 2951DA     SC319174  69.781 105.202  65.625
 2951DA     SC419175  70.015 105.246  65.476
 2952DT     BB119176  70.257 104.994  65.026
 2952DT     BB219177  70.003 104.739  65.053
 2952DT     BB319178  69.829 104.802  64.961
 2952DT     SC119179  69.774 104.965  65.159
 2952DT     SC219180  69.603 104.892  65.267
 2952DT     SC319181  69.729 105.190  65.290
 2953DA     BB119182  69.959 104.407  64.879
 2953DA     BB219183  69.601 104.403  64.958
 2953DA     BB319184  69.491 104.507  64.808
 2953DA     SC119185  69.508 104.783  64.951
 2953DA     SC219186  69.354 104.939  65.070
 2953DA     SC319187  69.532 105.117  65.024
 2953DA     SC419188  69.630 104.879  64.912
 2954DA     BB119189  69.351 104.215  64.859
 2954DA     BB219190  69.048 104.407  64.935
 2954DA     BB319191  68.977 104.506  64.760
 2954DA     SC119192  69.140 104.766  64.812
 2954DA     SC219193  69.095 105.003  64.876
 2954DA     SC319194  69.327 105.052  64.778
 2954DA     SC419195  69.286 104.777  64.745
 2955DT     BB119196  68.815 104.441  64.714
 2955DT     BB219197  68.619 104.730  64.804
 2955DT     BB319198  68.584 104.847  64.637
 2955DT     SC119199  68.831 104.937  64.639
 2955DT     SC219200  68.830 105.145  64.694
 2955DT     SC319201  69.078 104.983  64.561
 2956DA     BB119202  68.221 104.776  64.836
 2956DA     BB219203  68.241 105.134  64.757
 2956DA     BB319204  68.219 105.164  64.547
 2956DA     SC119205  68.524 105.147  64.489
 2956DA     SC219206  68.708 105.300  64.419
 2956DA     SC319207  68.832 105.087  64.348
 2956DA     SC419208  68.584 105.003  64.450
 2957DA     BB119209  67.990 105.370  64.662
 2957DA     BB219210  68.171 105.637  64.489
 2957DA     BB319211  68.144 105.621  64.278
 2957DA     SC119212  68.393 105.441  64.234
 2957DA     SC219213  68.619 105.459  64.130
 2957DA     SC319214  68.614 105.203  64.123
 2957DA     SC419215  68.371 105.281  64.237
 2958DG     BB119216  68.024 105.907  64.312
 2958DG     BB219217  68.299 106.000  64.096
 2958DG     BB319218  68.254 105.958  63.907
 2958DG     SC119219  68.367 105.674  63.917
 2958DG     SC219220  68.606 105.575  63.767
 2958DG     SC319221  68.463 105.351  63.898
 2958DG     SC419222  68.272 105.554  63.963
 2959DT     BB119223  68.234 106.117  63.749
 2959DT     BB219224  68.531 106.065  63.550
 2959DT     BB319225  68.482 105.966  63.375
 2959DT     SC119226  68.452 105.739  63.502
 2959DT     SC219227  68.610 105.605  63.447
 2959DT     SC319228  68.337 105.522  63.600
 2960DG     BB119229  68.642 106.317  63.231
 2960DG     BB219230  68.793 106.032  63.067
 2960DG     BB319231  68.674 105.966  62.922
 2960DG     SC119232  68.521 105.772  63.103
 2960DG     SC219233  68.526 105.474  63.085
 2960DG     SC319234  68.319 105.564  63.276
 2960DG     SC419235  68.392 105.824  63.182
 2961DC     BB119236  68.700 105.963  62.661
 2961DC     BB219237  68.765 105.613  62.604
 2961DC     BB319238  68.604 105.525  62.509
 2961DC     SC119239  68.462 105.527  62.729
 2961DC     SC219240  68.435 105.326  62.799
 2961DC     SC319241  68.269 105.585  62.900
 2962DT     BB119242  68.701 105.501  62.228
 2962DT     BB219243  68.607 105.162  62.310
 2962DT     BB319244  68.414 105.124  62.244
 2962DT     SC119245  68.311 105.267  62.439
 2962DT     SC219246  68.210 105.136  62.577
 2962DT     SC319247  68.179 105.458  62.563
 2963DA     BB119248  68.630 104.814  62.060
 2963DA     BB219249  68.346 104.659  62.234
 2963DA     BB319250  68.167 104.684  62.121
 2963DA     SC119251  68.089 104.952  62.257
 2963DA     SC219252  67.914 105.035  62.415
 2963DA     SC319253  67.972 105.268  62.324
 2963DA     SC419254  68.138 105.088  62.187
 2964DC     BB119255  68.071 104.517  62.039
 2964DC     BB219256  67.803 104.504  62.279
 2964DC     BB319257  67.626 104.567  62.191
 2964DC     SC119258  67.703 104.818  62.198
 2964DC     SC219259  67.584 104.925  62.341
 2964DC     SC319260  67.774 105.058  62.114
 2965DT     BB119261  67.537 104.312  62.197
 2965DT     BB219262  67.290 104.498  62.383
 2965DT     BB319263  67.148 104.576  62.253
 2965DT     SC119264  67.315 104.760  62.169
 2965DT     SC219265  67.250 104.953  62.238
 2965DT     SC319266  67.470 104.899  62.007
 2966DC     BB119267  66.968 104.397  62.347
 2966DC     BB219268  66.812 104.718  62.401
 2966DC     BB319269  66.711 104.776  62.230
 2966DC     SC119270  66.935 104.835  62.107
 2966DC     SC219271  66.948 105.049  62.083
 2966DC     SC319272  67.130 104.828  61.931
 2967DT     BB119273  66.465 104.726  62.346
 2967DT     BB219274  66.445 105.071  62.242
 2967DT     BB319275  66.377 105.082  62.046
 2967DT     SC119276  66.609 105.002  61.953
 2967DT     SC219277  66.705 105.166  61.851
 2967DT     SC319278  66.790 104.854  61.831
 2968DA     BB119279  66.103 105.330  62.249
 2968DA     BB219280  66.225 105.518  61.958
 2968DA     BB319281  66.129 105.450  61.780
 2968DA     SC119282  66.346 105.236  61.717
 2968DA     SC219283  66.526 105.199  61.548
 2968DA     SC319284  66.513 104.953  61.618
 2968DA     SC419285  66.322 105.087  61.774
 2969DA     BB119286  66.027 105.763  61.723
 2969DA     BB219287  66.236 105.761  61.422
 2969DA     BB319288  66.133 105.667  61.261
 2969DA     SC119289  66.241 105.383  61.323
 2969DA     SC219290  66.399 105.218  61.221
 2969DA     SC319291  66.278 105.044  61.365
 2969DA     SC419292  66.153 105.289  61.419
 2970DT     BB119293  66.071 105.777  61.083
 2970DT     BB219294  66.340 105.654  60.877
 2970DT     BB319295  66.265 105.526  60.732
 2970DT     SC119296  66.228 105.335  60.908
 2970DT     SC219297  66.368 105.176  60.870
 2970DT     SC319298  66.106 105.158  61.059
 2971DT     BB119299  66.333 105.720  60.566
 2971DT     BB219300  66.530 105.434  60.470
 2971DT     BB319301  66.421 105.311  60.344
 2971DT     SC119302  66.275 105.222  60.543
 2971DT     SC219303  66.324 105.016  60.580
 2971DT     SC319304  66.065 105.174  60.694
 2972DT     BB119305  66.620 105.403  60.213
 2972DT     BB219306  66.654 105.043  60.217
 2972DT     BB319307  66.515 104.958  60.089
 2972DT     SC119308  66.320 105.004  60.259
 2972DT     SC219309  66.250 104.817  60.340
 2972DT     SC319310  66.096 105.101  60.360
 2973DT     BB119311  66.746 104.908  59.995
 2973DT     BB219312  66.584 104.590  60.046
 2973DT     BB319313  66.436 104.562  59.904
 2973DT     SC119314  66.277 104.733  60.024
 2973DT     SC219315  66.111 104.627  60.110
 2973DT     SC319316  66.130 104.948  60.066
 2974DG     BB119317  66.703 104.253  59.920
 2974DG     BB219318  66.361 104.138  59.927
 2974DG     BB319319  66.278 104.160  59.747
 2974DG     SC119320  66.176 104.444  59.802
 2974DG     SC219321  65.890 104.526  59.824
 2974DG     SC319322  66.068 104.763  59.821
 2974DG     SC419323  66.272 104.568  59.771
 2975DT     BB119324  66.211 103.987  59.636
 2975DT     BB219325  65.852 104.017  59.652
 2975DT     BB319326  65.780 104.096  59.475
 2975DT     SC119327  65.865 104.336  59.537
 2975DT     SC219328  65.696 104.463  59.577
 2975DT     SC319329  66.001 104.562  59.527
 2976DT     BB119330  65.677 103.853  59.384
 2976DT     BB219331  65.394 104.076  59.369
 2976DT     BB319332  65.388 104.170  59.184
 2976DT     SC119333  65.588 104.327  59.249
 2976DT     SC219334  65.516 104.528  59.271
 2976DT     SC319335  65.826 104.440  59.245
 2977DT     BB119336  65.172 104.019  59.085
 2977DT     BB219337  65.061 104.361  59.053
 2977DT     BB319338  65.115 104.436  58.867
 2977DT     SC119339  65.366 104.458  58.940
 2977DT     SC219340  65.417 104.667  58.957
 2977DT     SC319341  65.627 104.420  58.947
 2978DA     BB119342  64.703 104.507  58.897
 2978DA     BB219343  64.863 104.822  58.798
 2978DA     BB319344  64.918 104.815  58.592
 2978DA     SC119345  65.202 104.702  58.646
 2978DA     SC219346  65.438 104.782  58.632
 2978DA     SC319347  65.501 104.533  58.629
 2978DA     SC419348  65.221 104.543  58.644
 2979DG     BB119349  64.727 105.057  58.577
 2979DG     BB219350  65.031 105.233  58.493
 2979DG     BB319351  65.073 105.209  58.300
 2979DG     SC119352  65.239 104.956  58.342
 2979DG     SC219353  65.533 104.930  58.296
 2979DG     SC319354  65.411 104.666  58.349
 2979DG     SC419355  65.166 104.814  58.341
 2980DG     BB119356  65.068 105.532  58.300
 2980DG     BB219357  65.415 105.510  58.201
 2980DG     BB319358  65.429 105.469  58.007
 2980DG     SC119359  65.428 105.165  58.046
 2980DG     SC219360  65.655 104.980  57.990
 2980DG     SC319361  65.409 104.828  58.051
 2980DG     SC419362  65.288 105.088  58.051
 2981DT     BB119363  65.525 105.610  57.896
 2981DT     BB219364  65.838 105.448  57.816
 2981DT     BB319365  65.828 105.365  57.627
 2981DT     SC119366  65.676 105.168  57.712
 2981DT     SC219367  65.788 104.985  57.706
 2981DT     SC319368  65.466 105.011  57.740
 2982DA     BB119369  66.178 105.597  57.660
 2982DA     BB219370  66.266 105.275  57.508
 2982DA     BB319371  66.188 105.262  57.310
 2982DA     SC119372  65.919 105.133  57.397
 2982DA     SC219373  65.806 104.912  57.378
 2982DA     SC319374  65.589 105.042  57.426
 2982DA     SC419375  65.796 105.232  57.427
 2983DT     BB119376  66.317 105.259  57.152
 2983DT     BB219377  66.273 104.912  57.063
 2983DT     BB319378  66.155 104.896  56.894
 2983DT     SC119379  65.938 104.953  57.031
 2983DT     SC219380  65.814 104.778  57.044
 2983DT     SC319381  65.723 105.081  57.112
 2984DA     BB119382  66.500 104.676  56.800
 2984DA     BB219383  66.211 104.469  56.714
 2984DA     BB319384  66.119 104.540  56.535
 2984DA     SC119385  65.923 104.731  56.682
 2984DA     SC219386  65.678 104.746  56.727
 2984DA     SC319387  65.722 104.995  56.772
 2984DA     SC419388  65.970 104.883  56.705
 2985DA     BB119389  66.161 104.230  56.429
 2985DA     BB219390  65.796 104.208  56.400
 2985DA     BB319391  65.730 104.309  56.224
 2985DA     SC119392  65.690 104.582  56.367
 2985DA     SC219393  65.500 104.729  56.435
 2985DA     SC319394  65.675 104.917  56.444
 2985DA     SC419395  65.814 104.686  56.365
 2986DT     BB119396  65.646 104.201  56.070
 2986DT     BB219397  65.304 104.302  56.130
 2986DT     BB319398  65.244 104.437  55.986
 2986DT     SC119399  65.386 104.629  56.096
 2986DT     SC219400  65.254 104.775  56.182
 2986DT     SC319401  65.570 104.815  56.126
 2987DA     BB119402  64.957 104.133  56.003
 2987DA     BB219403  64.781 104.455  56.018
 2987DA     BB319404  64.784 104.550  55.826
 2987DA     SC119405  65.048 104.705  55.880
 2987DA     SC219406  65.120 104.941  55.917
 2987DA     SC319407  65.353 104.859  55.850
 2987DA     SC419408  65.186 104.635  55.834
 2988DT     BB119409  64.611 104.570  55.741
 2988DT     BB219410  64.577 104.926  55.792
 2988DT     BB319411  64.621 105.027  55.616
 2988DT     SC119412  64.878 104.984  55.646
 2988DT     SC219413  64.977 105.170  55.691
 2988DT     SC319414  65.122 104.895  55.599
 2989DT     BB119415  64.358 105.085  55.587
 2989DT     BB219416  64.523 105.406  55.581
 2989DT     BB319417  64.586 105.449  55.389
 2989DT     SC119418  64.784 105.278  55.407
 2989DT     SC219419  64.971 105.385  55.414
 2989DT     SC319420  64.936 105.068  55.358
 2990DA     BB119421  64.361 105.784  55.507
 2990DA     BB219422  64.677 105.907  55.368
 2990DA     BB319423  64.676 105.889  55.155
 2990DA     SC119424  64.800 105.604  55.154
 2990DA     SC219425  65.016 105.497  55.090
 2990DA     SC319426  64.882 105.278  55.083
 2990DA     SC419427  64.700 105.479  55.154
 2991DT     BB119428  64.672 106.061  55.015
 2991DT     BB219429  65.016 106.037  54.911
 2991DT     BB319430  65.027 105.970  54.715
 2991DT     SC119431  64.966 105.725  54.787
 2991DT     SC219432  65.138 105.598  54.762
 2991DT     SC319433  64.834 105.498  54.808
 2992DT     BB119434  65.097 106.219  54.606
 2992DT     BB219435  65.364 106.000  54.502
 2992DT     BB319436  65.319 105.915  54.319
 2992DT     SC119437  65.144 105.753  54.428
 2992DT     SC219438  65.219 105.551  54.420
 2992DT     SC319439  64.913 105.638  54.484
 2993DA     BB119440  65.699 106.086  54.271
 2993DA     BB219441  65.717 105.740  54.151
 2993DA     BB319442  65.624 105.722  53.960
 2993DA     SC119443  65.343 105.654  54.077
 2993DA     SC219444  65.192 105.457  54.089
 2993DA     SC319445  65.006 105.628  54.135
 2993DA     SC419446  65.242 105.776  54.103
 2994DG     BB119447  65.906 105.631  53.869
 2994DG     BB219448  65.734 105.317  53.810
 2994DG     BB319449  65.643 105.322  53.634
 2994DG     SC119450  65.381 105.436  53.744
 2994DG     SC219451  65.119 105.295  53.753
 2994DG     SC319452  65.088 105.580  53.827
 2994DG     SC419453  65.364 105.595  53.754
 2995DG     BB119454  65.819 105.058  53.554
 2995DG     BB219455  65.502 104.886  53.528
 2995DG     BB319456  65.420 104.921  53.350
 2995DG     SC119457  65.268 105.170  53.443
 2995DG     SC219458  64.971 105.197  53.464
 2995DG     SC319459  65.104 105.459  53.504
 2995DG     SC419460  65.341 105.313  53.434
 2996DT     BB119461  65.384 104.756  53.213
 2996DT     BB219462  65.026 104.717  53.239
 2996DT     BB319463  64.934 104.800  53.073
 2996DT     SC119464  64.977 105.043  53.161
 2996DT     SC219465  64.789 105.133  53.218
 2996DT     SC319466  65.069 105.290  53.174
 2997DA     BB119467  64.789 104.410  53.123
 2997DA     BB219468  64.501 104.633  53.079
 2997DA     BB319469  64.488 104.698  52.876
 2997DA     SC119470  64.663 104.951  52.920
 2997DA     SC219471  64.632 105.199  52.925
 2997DA     SC319472  64.885 105.211  52.885
 2997DA     SC419473  64.821 104.938  52.893
 2998DA     BB119474  64.185 104.580  52.914
 2998DA     BB219475  64.066 104.920  52.842
 2998DA     BB319476  64.083 104.961  52.634
 2998DA     SC119477  64.370 105.080  52.657
 2998DA     SC219478  64.479 105.303  52.636
 2998DA     SC319479  64.696 105.171  52.601
 2998DA     SC419480  64.494 104.980  52.635
 2999DT     BB119481  63.915 104.987  52.535
 2999DT     BB219482  63.941 105.345  52.498
 2999DT     BB319483  63.999 105.392  52.305
 2999DT     SC119484  64.246 105.317  52.352
 2999DT     SC219485  64.374 105.489  52.354
 2999DT     SC319486  64.471 105.180  52.336
 3000DC     BB119487  63.751 105.485  52.261
 3000DC     BB219488  63.967 105.764  52.188
 3000DC     BB319489  64.032 105.754  51.992
 3000DC     SC119490  64.199 105.560  52.050
 3000DC     SC219491  64.401 105.633  52.036
 3000DC     SC319492  64.312 105.321  52.051
 3001DT     BB119493  63.874 105.962  51.942
 3001DT     BB219494  64.203 106.070  51.840
 3001DT     BB319495  64.242 106.006  51.647
 3001DT     SC119496  64.279 105.759  51.727
 3001DT     SC219497  64.487 105.708  51.707
 3001DT     SC319498  64.243 105.499  51.755
 3002DT     BB119499  64.221 106.262  51.577
 3002DT     BB219500  64.548 106.160  51.465
 3002DT     BB319501  64.534 106.067  51.281
 3002DT     SC119502  64.436 105.850  51.389
 3002DT     SC219503  64.581 105.691  51.376
 3002DT     SC319504  64.267 105.656  51.447
 3003DT     BB119505  64.649 106.284  51.171
 3003DT     BB219506  64.861 106.009  51.074
 3003DT     BB319507  64.787 105.919  50.904
 3003DT     SC119508  64.594 105.804  51.039
 3003DT     SC219509  64.629 105.591  51.047
 3003DT     SC319510  64.351 105.741  51.121
 3004DA     BB119511  65.190 106.006  50.829
 3004DA     BB219512  65.131 105.658  50.733
 3004DA     BB319513  65.019 105.649  50.551
 3004DA     SC119514  64.742 105.644  50.694
 3004DA     SC219515  64.557 105.481  50.731
 3004DA     SC319516  64.413 105.688  50.780
 3004DA     SC419517  64.669 105.784  50.719
 3005DT     BB119518  65.108 105.574  50.387
 3005DT     BB219519  64.933 105.259  50.382
 3005DT     BB319520  64.790 105.260  50.233
 3005DT     SC119521  64.633 105.415  50.375
 3005DT     SC219522  64.460 105.304  50.439
 3005DT     SC319523  64.492 105.626  50.447
 3006DA     BB119524  65.023 104.914  50.188
 3006DA     BB219525  64.670 104.815  50.177
 3006DA     BB319526  64.581 104.877  49.993
 3006DA     SC119527  64.488 105.153  50.104
 3006DA     SC219528  64.273 105.266  50.161
 3006DA     SC319529  64.406 105.484  50.141
 3006DA     SC419530  64.588 105.278  50.084
 3007DC     BB119531  64.524 104.735  49.875
 3007DC     BB219532  64.169 104.770  49.929
 3007DC     BB319533  64.083 104.869  49.769
 3007DC     SC119534  64.181 105.099  49.848
 3007DC     SC219535  64.021 105.226  49.918
 3007DC     SC319536  64.323 105.322  49.848
 3008DT     BB119537  63.970 104.637  49.700
 3008DT     BB219538  63.693 104.865  49.737
 3008DT     BB319539  63.666 104.972  49.562
 3008DT     SC119540  63.877 105.121  49.611
 3008DT     SC219541  63.813 105.322  49.656
 3008DT     SC319542  64.116 105.229  49.584
 3009DT     BB119543  63.441 104.830  49.514
 3009DT     BB219544  63.333 105.174  49.507
 3009DT     BB319545  63.362 105.254  49.318
 3009DT     SC119546  63.621 105.271  49.355
 3009DT     SC219547  63.678 105.478  49.371
 3009DT     SC319548  63.879 105.228  49.325
 3010DG     BB119549  62.962 105.296  49.392
 3010DG     BB219550  63.108 105.609  49.286
 3010DG     BB319551  63.132 105.610  49.089
 3010DG     SC119552  63.413 105.489  49.097
 3010DG     SC219553  63.665 105.628  49.018
 3010DG     SC319554  63.714 105.340  49.068
 3010DG     SC419555  63.429 105.330  49.096
 3011DA     BB119556  62.955 105.913  49.060
 3011DA     BB219557  63.248 106.076  48.911
 3011DA     BB319558  63.264 106.024  48.705
 3011DA     SC119559  63.443 105.775  48.756
 3011DA     SC219560  63.680 105.707  48.717
 3011DA     SC319561  63.594 105.467  48.743
 3011DA     SC419562  63.370 105.633  48.774
 3012DT     BB119563  63.236 106.167  48.540
 3012DT     BB219564  63.585 106.200  48.455
 3012DT     BB319565  63.622 106.107  48.274
 3012DT     SC119566  63.607 105.869  48.383
 3012DT     SC219567  63.802 105.779  48.386
 3012DT     SC319568  63.521 105.625  48.436
 3013DT     BB119569  63.650 106.346  48.131
 3013DT     BB219570  63.962 106.174  48.074
 3013DT     BB319571  63.948 106.056  47.905
 3013DT     SC119572  63.801 105.879  48.032
 3013DT     SC219573  63.915 105.698  48.058
 3013DT     SC319574  63.594 105.728  48.096
 3014DT     BB119575  64.108 106.225  47.757
 3014DT     BB219576  64.277 105.906  47.742
 3014DT     BB319577  64.207 105.797  47.580
 3014DT     SC119578  63.982 105.743  47.704
 3014DT     SC219579  63.977 105.534  47.753
 3014DT     SC319580  63.724 105.737  47.758
 3015DA     BB119581  64.625 105.805  47.553
 3015DA     BB219582  64.517 105.457  47.519
 3015DA     BB319583  64.430 105.424  47.327
 3015DA     SC119584  64.141 105.492  47.420
 3015DA     SC219585  63.926 105.371  47.457
 3015DA     SC319586  63.817 105.603  47.438
 3015DA     SC419587  64.092 105.644  47.403
 3016DG     BB119588  64.661 105.220  47.307
 3016DG     BB219589  64.388 104.983  47.298
 3016DG     BB319590  64.313 104.973  47.114
 3016DG     SC119591  64.108 105.197  47.158
 3016DG     SC219592  63.812 105.165  47.163
 3016DG     SC319593  63.887 105.451  47.166
 3016DG     SC419594  64.152 105.348  47.130
 3017DA     BB119595  64.355 104.634  47.154
 3017DA     BB219596  63.996 104.585  47.103
 3017DA     BB319597  63.946 104.607  46.897
 3017DA     SC119598  63.889 104.912  46.919
 3017DA     SC219599  63.691 105.064  46.907
 3017DA     SC319600  63.862 105.249  46.859
 3017DA     SC419601  64.010 105.013  46.889
 3018DA     BB119602  63.816 104.317  46.971
 3018DA     BB219603  63.494 104.464  46.877
 3018DA     BB319604  63.482 104.488  46.666
 3018DA     SC119605  63.599 104.776  46.668
 3018DA     SC219606  63.518 105.009  46.626
 3018DA     SC319607  63.766 105.067  46.592
 3018DA     SC419608  63.758 104.792  46.649
 3019DT     BB119609  63.349 104.381  46.584
 3019DT     BB219610  63.114 104.645  46.513
 3019DT     BB319611  63.127 104.700  46.314
 3019DT     SC119612  63.353 104.827  46.355
 3019DT     SC219613  63.321 105.038  46.335
 3019DT     SC319614  63.609 104.890  46.340
 3020DT     BB119615  62.889 104.585  46.287
 3020DT     BB219616  62.844 104.924  46.171
 3020DT     BB319617  62.904 104.940  45.973
 3020DT     SC119618  63.157 104.931  46.041
 3020DT     SC219619  63.247 105.123  46.007
 3020DT     SC319620  63.406 104.846  46.060
 3021DC     BB119621  62.645 104.965  45.908
 3021DC     BB219622  62.803 105.259  45.770
 3021DC     BB319623  62.882 105.216  45.584
 3021DC     SC119624  63.081 105.083  45.691
 3021DC     SC219625  63.264 105.192  45.661
 3021DC     SC319626  63.241 104.882  45.752
 3022DC     BB119627  62.685 105.362  45.471
 3022DC     BB219628  62.990 105.509  45.345
 3022DC     BB319629  63.054 105.405  45.178
 3022DC     SC119630  63.137 105.204  45.324
 3022DC     SC219631  63.352 105.197  45.319
 3022DC     SC319632  63.156 104.960  45.422
 3023DT     BB119633  62.979 105.609  45.007
 3023DT     BB219634  63.328 105.557  44.931
 3023DT     BB319635  63.347 105.411  44.785
 3023DT     SC119636  63.291 105.220  44.956
 3023DT     SC219637  63.467 105.103  44.992
 3023DT     SC319638  63.164 105.020  45.072
 3024DT     BB119639  63.412 105.591  44.578
 3024DT     BB219640  63.687 105.357  44.579
 3024DT     BB319641  63.647 105.201  44.449
 3024DT     SC119642  63.475 105.095  44.618
 3024DT     SC219643  63.556 104.912  44.697
 3024DT     SC319644  63.247 105.009  44.719
 3025DG     BB119645  63.990 105.361  44.295
 3025DG     BB219646  64.027 105.005  44.351
 3025DG     BB319647  63.947 104.904  44.199
 3025DG     SC119648  63.669 104.888  44.327
 3025DG     SC219649  63.534 104.639  44.422
 3025DG     SC319650  63.347 104.868  44.427
 3025DG     SC419651  63.564 105.006  44.300
 3026DG     BB119652  64.236 104.758  44.131
 3026DG     BB219653  64.074 104.447  44.218
 3026DG     BB319654  63.979 104.373  44.060
 3026DG     SC119655  63.716 104.518  44.118
 3026DG     SC219656  63.458 104.389  44.195
 3026DG     SC319657  63.419 104.677  44.140
 3026DG     SC419658  63.694 104.665  44.059
 3027DT     BB119659  64.037 104.176  43.971
 3027DT     BB219660  63.768 103.966  44.088
 3027DT     BB319661  63.637 103.925  43.933
 3027DT     SC119662  63.536 104.168  43.944
 3027DT     SC219663  63.335 104.158  44.018
 3027DT     SC319664  63.471 104.413  43.871
 3028DA     BB119665  63.747 103.569  44.125
 3028DA     BB219666  63.381 103.575  44.094
 3028DA     BB319667  63.323 103.545  43.891
 3028DA     SC119668  63.322 103.848  43.821
 3028DA     SC219669  63.154 104.025  43.766
 3028DA     SC319670  63.352 104.152  43.663
 3028DA     SC419671  63.458 103.911  43.761
 3029DA     BB119672  63.149 103.321  44.050
 3029DA     BB219673  62.852 103.488  43.915
 3029DA     BB319674  62.833 103.450  43.706
 3029DA     SC119675  62.998 103.699  43.621
 3029DA     SC219676  62.957 103.919  43.510
 3029DA     SC319677  63.209 103.918  43.461
 3029DA     SC419678  63.156 103.680  43.599
 3030DA     BB119679  62.537 103.363  43.815
 3030DA     BB219680  62.402 103.618  43.588
 3030DA     BB319681  62.417 103.552  43.386
 3030DA     SC119682  62.698 103.678  43.341
 3030DA     SC219683  62.797 103.867  43.211
 3030DA     SC319684  63.020 103.743  43.240
 3030DA     SC419685  62.826 103.585  43.368
 3031DT     BB119686  62.247 103.515  43.285
 3031DT     BB219687  62.256 103.803  43.068
 3031DT     BB319688  62.315 103.746  42.878
 3031DT     SC119689  62.565 103.719  42.955
 3031DT     SC219690  62.684 103.874  42.866
 3031DT     SC319691  62.797 103.606  43.009
 3032DG     BB119692  61.948 103.919  42.830
 3032DG     BB219693  62.191 104.064  42.605
 3032DG     BB319694  62.221 103.943  42.450
 3032DG     SC119695  62.448 103.788  42.584
 3032DG     SC219696  62.735 103.789  42.500
 3032DG     SC319697  62.687 103.584  42.708
 3032DG     SC419698  62.413 103.660  42.674
 3033DT     BB119699  62.169 103.992  42.224
 3033DT     BB219700  62.499 104.054  42.091
 3033DT     BB319701  62.558 103.896  41.971
 3033DT     SC119702  62.602 103.744  42.180
 3033DT     SC219703  62.814 103.711  42.200
 3033DT     SC319704  62.580 103.544  42.351
 3034DG     BB119705  62.567 104.216  41.716
 3034DG     BB219706  62.883 104.040  41.715
 3034DG     BB319707  62.871 103.881  41.597
 3034DG     SC119708  62.776 103.692  41.818
 3034DG     SC219709  62.929 103.462  41.931
 3034DG     SC319710  62.650 103.463  42.032
 3034DG     SC419711  62.619 103.679  41.847
 3035DC     BB119712  63.000 103.857  41.411
 3035DC     BB219713  63.243 103.619  41.530
 3035DC     BB319714  63.206 103.432  41.448
 3035DC     SC119715  63.000 103.395  41.606
 3035DC     SC219716  63.047 103.241  41.749
 3035DC     SC319717  62.751 103.357  41.684
 3036DT     BB119718  63.429 103.468  41.305
 3036DT     BB219719  63.487 103.169  41.498
 3036DT     BB319720  63.407 103.005  41.400
 3036DT     SC119721  63.163 103.074  41.465
 3036DT     SC219722  63.085 102.934  41.608
 3036DT     SC319723  62.912 103.151  41.441
 3037DA     BB119724  63.800 102.952  41.539
 3037DA     BB219725  63.597 102.665  41.643
 3037DA     BB319726  63.541 102.548  41.473
 3037DA     SC119727  63.276 102.703  41.424
 3037DA     SC219728  63.031 102.660  41.443
 3037DA     SC319729  63.004 102.858  41.282
 3037DA     SC419730  63.280 102.828  41.323
 3038DT     BB119731  63.613 102.405  41.511
 3038DT     BB219732  63.313 102.217  41.582
 3038DT     BB319733  63.243 102.129  41.408
 3038DT     SC119734  63.153 102.359  41.319
 3038DT     SC219735  62.938 102.357  41.320
 3038DT     SC319736  63.124 102.572  41.166
 3039DT     BB119737  63.316 101.924  41.544
 3039DT     BB219738  62.972 101.865  41.455
 3039DT     BB319739  62.959 101.808  41.257
 3039DT     SC119740  63.002 102.053  41.175
 3039DT     SC219741  62.823 102.132  41.088
 3039DT     SC319742  63.119 102.259  41.059
 3040DA     BB119743  62.741 101.526  41.485
 3040DA     BB219744  62.544 101.608  41.187
 3040DA     BB319745  62.636 101.528  41.012
 3040DA     SC119746  62.806 101.782  40.955
 3040DA     SC219747  62.813 101.965  40.786
 3040DA     SC319748  63.054 102.001  40.864
 3040DA     SC419749  62.954 101.788  41.017
 3041DA     BB119750  62.353 101.354  40.926
 3041DA     BB219751  62.349 101.532  40.606
 3041DA     BB319752  62.489 101.445  40.471
 3041DA     SC119753  62.724 101.630  40.557
 3041DA     SC219754  62.857 101.818  40.460
 3041DA     SC319755  63.032 101.759  40.638
 3041DA     SC419756  62.821 101.578  40.674
 3042DC     BB119757  62.468 101.299  40.254
 3042DC     BB219758  62.566 101.557  40.021
 3042DC     BB319759  62.747 101.507  39.933
 3042DC     SC119760  62.880 101.567  40.151
 3042DC     SC219761  62.996 101.744  40.117
 3042DC     SC319762  63.031 101.538  40.365
 3043DA     BB119763  62.533 101.534  39.563
 3043DA     BB219764  62.834 101.739  39.521
 3043DA     BB319765  63.001 101.617  39.469
 3043DA     SC119766  63.088 101.570  39.764
 3043DA     SC219767  63.276 101.637  39.914
 3043DA     SC319768  63.207 101.436  40.057
 3043DA     SC419769  63.031 101.440  39.839
 3044DA     BB119770  63.055 101.796  39.188
 3044DA     BB219771  63.373 101.905  39.334
 3044DA     BB319772  63.525 101.761  39.297
 3044DA     SC119773  63.473 101.602  39.559
 3044DA     SC219774  63.589 101.561  39.777
 3044DA     SC319775  63.436 101.356  39.796
 3044DA     SC419776  63.370 101.478  39.552
 3045DT     BB119777  63.695 101.803  39.171
 3045DT     BB219778  63.928 101.852  39.441
 3045DT     BB319779  64.063 101.695  39.448
 3045DT     SC119780  63.883 101.534  39.549
 3045DT     SC219781  63.934 101.489  39.754
 3045DT     SC319782  63.717 101.330  39.573
 3046DT     BB119783  64.250 101.867  39.362
 3046DT     BB219784  64.371 101.747  39.680
 3046DT     BB319785  64.474 101.569  39.654
 3046DT     SC119786  64.250 101.436  39.618
 3046DT     SC219787  64.217 101.306  39.786
 3046DT     SC319788  64.064 101.291  39.500
 3047DT     BB119789  64.690 101.710  39.713
 3047DT     BB219790  64.677 101.447  39.960
 3047DT     BB319791  64.761 101.274  39.883
 3047DT     SC119792  64.551 101.229  39.733
 3047DT     SC219793  64.445 101.057  39.808
 3047DT     SC319794  64.402 101.195  39.518
 3048DA     BB119795  64.923 101.363  40.260
 3048DA     BB219796  64.822 101.010  40.257
 3048DA     BB319797  64.953 100.897  40.133
 3048DA     SC119798  64.782 100.935  39.876
 3048DA     SC219799  64.638 100.796  39.728
 3048DA     SC319800  64.674 100.980  39.553
 3048DA     SC419801  64.817 101.060  39.781
 3049DT     BB119802  65.055 100.769  40.227
 3049DT     BB219803  64.876 100.477  40.113
 3049DT     BB319804  64.981 100.384  39.961
 3049DT     SC119805  64.913 100.570  39.789
 3049DT     SC219806  64.777 100.488  39.645
 3049DT     SC319807  64.934 100.770  39.618
 3050DT     BB119808  65.035 100.188  40.134
 3050DT     BB219809  64.872 100.025  39.856
 3050DT     BB319810  65.010  99.982  39.708
 3050DT     SC119811  65.021 100.234  39.635
 3050DT     SC219812  64.930 100.256  39.441
 3050DT     SC319813  65.118 100.475  39.589
 3051DA     BB119814  64.795  99.633  39.794
 3051DA     BB219815  64.798  99.679  39.430
 3051DA     BB319816  64.992  99.636  39.351
 3051DA     SC119817  65.093  99.929  39.377
 3051DA     SC219818  65.153 100.118  39.225
 3051DA     SC319819  65.284 100.211  39.425
 3051DA     SC419820  65.170  99.970  39.512
 3052DA     BB119821  64.804  99.444  39.165
 3052DA     BB219822  64.929  99.635  38.879
 3052DA     BB319823  65.132  99.582  38.838
 3052DA     SC119824  65.252  99.803  39.022
 3052DA     SC219825  65.379 100.016  38.996
 3052DA     SC319826  65.447  99.981  39.241
 3052DA     SC419827  65.285  99.762  39.174
 3053DG     BB119828  65.014  99.500  38.562
 3053DG     BB219829  65.229  99.764  38.442
 3053DG     BB319830  65.416  99.698  38.424
 3053DG     SC119831  65.495  99.773  38.710
 3053DG     SC219832  65.693  99.983  38.788
 3053DG     SC319833  65.611  99.824  39.023
 3053DG     SC419834  65.471  99.667  38.828
 3054DC     BB119835  65.525  99.686  38.225
 3054DC     BB219836  65.754  99.963  38.253
 3054DC     BB319837  65.945  99.893  38.290
 3054DC     SC119838  65.885  99.837  38.539
 3054DC     SC219839  65.989  99.973  38.670
 3054DC     SC319840  65.843  99.697  38.759
 3055DT     BB119841  66.029  99.953  38.035
 3055DT     BB219842  66.256 100.134  38.249
 3055DT     BB319843  66.417 100.014  38.298
 3055DT     SC119844  66.272  99.875  38.466
 3055DT     SC219845  66.336  99.916  38.667
 3055DT     SC319846  66.147  99.670  38.575
 3056DA     BB119847  66.579 100.369  38.145
 3056DA     BB219848  66.745 100.299  38.465
 3056DA     BB319849  66.885 100.140  38.443
 3056DA     SC119850  66.679  99.917  38.514
 3056DA     SC219851  66.638  99.757  38.701
 3056DA     SC319852  66.500  99.625  38.530
 3056DA     SC419853  66.599  99.848  38.393
 3057DA     BB119854  67.074 100.369  38.576
 3057DA     BB219855  67.119 100.138  38.857
 3057DA     BB319856  67.252  99.980  38.803
 3057DA     SC119857  67.025  99.792  38.701
 3057DA     SC219858  66.917  99.579  38.771
 3057DA     SC319859  66.839  99.562  38.527
 3057DA     SC419860  66.988  99.799  38.545
 3058DT     BB119861  67.404  99.985  38.904
 3058DT     BB219862  67.327  99.703  39.115
 3058DT     BB319863  67.426  99.534  39.047
 3058DT     SC119864  67.260  99.509  38.845
 3058DT     SC219865  67.137  99.335  38.875
 3058DT     SC319866  67.170  99.498  38.597
 3059DT     BB119867  67.556  99.569  39.269
 3059DT     BB219868  67.418  99.236  39.288
 3059DT     BB319869  67.536  99.105  39.179
 3059DT     SC119870  67.443  99.197  38.952
 3059DT     SC219871  67.319  99.048  38.859
 3059DT     SC319872  67.437  99.313  38.715
 3060DT     BB119873  67.586  99.017  39.418
 3060DT     BB219874  67.463  98.732  39.235
 3060DT     BB319875  67.613  98.655  39.116
 3060DT     SC119876  67.590  98.853  38.945
 3060DT     SC219877  67.507  98.779  38.761
 3060DT     SC319878  67.651  99.066  38.802
 3061DA     BB119879  67.440  98.341  39.338
 3061DA     BB219880  67.476  98.229  38.990
 3061DA     BB319881  67.682  98.199  38.943
 3061DA     SC119882  67.727  98.489  38.841
 3061DA     SC219883  67.769  98.604  38.624
 3061DA     SC319884  67.857  98.798  38.767
 3061DA     SC419885  67.779  98.598  38.947
 3062DG     BB119886  67.608  97.898  38.886
 3062DG     BB219887  67.722  97.975  38.552
 3062DG     BB319888  67.920  97.961  38.543
 3062DG     SC119889  67.968  98.254  38.618
 3062DG     SC219890  68.084  98.464  38.441
 3062DG     SC319891  68.058  98.563  38.718
 3062DG     SC419892  67.981  98.293  38.773
 3063DC     BB119893  68.055  97.801  38.416
 3063DC     BB219894  68.184  98.009  38.151
 3063DC     BB319895  68.385  98.046  38.181
 3063DC     SC119896  68.334  98.215  38.374
 3063DC     SC219897  68.384  98.415  38.309
 3063DC     SC319898  68.328  98.323  38.615
 3064DC     BB119899  68.490  97.867  37.981
 3064DC     BB219900  68.640  98.184  37.895
 3064DC     BB319901  68.825  98.201  37.986
 3064DC     SC119902  68.714  98.247  38.220
 3064DC     SC219903  68.748  98.451  38.277
 3064DC     SC319904  68.645  98.214  38.472
 3065DA     BB119905  68.927  98.266  37.583
 3065DA     BB219906  69.079  98.538  37.776
 3065DA     BB319907  69.255  98.471  37.874
 3065DA     SC119908  69.107  98.385  38.134
 3065DA     SC219909  69.092  98.461  38.371
 3065DA     SC319910  69.006  98.224  38.420
 3065DA     SC419911  69.057  98.233  38.144
 3066DA     BB119912  69.418  98.719  37.722
 3066DA     BB219913  69.488  98.858  38.054
 3066DA     BB319914  69.654  98.757  38.143
 3066DA     SC119915  69.479  98.542  38.283
 3066DA     SC219916  69.411  98.482  38.516
 3066DA     SC319917  69.357  98.251  38.419
 3066DA     SC419918  69.453  98.404  38.204
 3067DG     BB119919  69.810  99.032  38.147
 3067DG     BB219920  69.783  98.993  38.506
 3067DG     BB319921  69.936  98.885  38.574
 3067DG     SC119922  69.793  98.617  38.541
 3067DG     SC219923  69.708  98.435  38.763
 3067DG     SC319924  69.674  98.304  38.500
 3067DG     SC419925  69.804  98.539  38.401
 3068DC     BB119926  70.099  98.965  38.723
 3068DC     BB219927  69.991  98.807  39.028
 3068DC     BB319928  70.122  98.655  39.079
 3068DC     SC119929  70.026  98.499  38.892
 3068DC     SC219930  69.918  98.337  38.982
 3068DC     SC319931  70.014  98.352  38.673
 3069DA     BB119932  70.082  98.903  39.414
 3069DA     BB219933  70.024  98.557  39.522
 3069DA     BB319934  70.209  98.450  39.530
 3069DA     SC119935  70.191  98.349  39.237
 3069DA     SC219936  70.155  98.132  39.118
 3069DA     SC319937  70.262  98.249  38.916
 3069DA     SC419938  70.261  98.438  39.123
 3070DA     BB119939  70.091  98.396  39.829
 3070DA     BB219940  70.089  98.041  39.741
 3070DA     BB319941  70.287  97.962  39.744
 3070DA     SC119942  70.342  98.024  39.444
 3070DA     SC219943  70.373  97.896  39.232
 3070DA     SC319944  70.487  98.109  39.144
 3070DA     SC419945  70.411  98.165  39.408
 3071DT     BB119946  70.313  97.831  39.877
 3071DT     BB219947  70.318  97.546  39.656
 3071DT     BB319948  70.513  97.483  39.626
 3071DT     SC119949  70.561  97.686  39.467
 3071DT     SC219950  70.585  97.615  39.265
 3071DT     SC319951  70.669  97.909  39.374
 3072DA     BB119952  70.269  97.160  39.731
 3072DA     BB219953  70.467  97.063  39.438
 3072DA     BB319954  70.671  97.033  39.493
 3072DA     SC119955  70.754  97.327  39.436
 3072DA     SC219956  70.893  97.451  39.270
 3072DA     SC319957  70.901  97.638  39.446
 3072DA     SC419958  70.749  97.431  39.559
 3073DT     BB119959  70.738  96.848  39.478
 3073DT     BB219960  70.950  96.895  39.190
 3073DT     BB319961  71.149  96.905  39.249
 3073DT     SC119962  71.117  97.148  39.344
 3073DT     SC219963  71.224  97.287  39.219
 3073DT     SC319964  71.106  97.348  39.515
 3074DT     BB119965  71.201  96.652  39.150
 3074DT     BB219966  71.450  96.860  38.991
 3074DT     BB319967  71.619  96.871  39.109
 3074DT     SC119968  71.501  97.033  39.278
 3074DT     SC219969  71.589  97.229  39.262
 3074DT     SC319970  71.396  97.126  39.502
 3075DA     BB119971  71.781  96.738  38.744
 3075DA     BB219972  71.994  97.013  38.859
 3075DA     BB319973  72.126  96.945  39.012
 3075DA     SC119974  71.931  97.016  39.245
 3075DA     SC219975  71.918  97.182  39.430
 3075DA     SC319976  71.752  97.018  39.537
 3075DA     SC419977  71.832  96.900  39.295
 3076DT     BB119978  72.363  96.918  39.000
 3076DT     BB219979  72.448  97.206  39.199
 3076DT     BB319980  72.534  97.146  39.378
 3076DT     SC119981  72.302  97.071  39.474
 3076DT     SC219982  72.244  97.204  39.632
 3076DT     SC319983  72.112  96.915  39.569
 3077DC     BB119984  72.810  97.213  39.316
 3077DC     BB219985  72.746  97.397  39.620
 3077DC     BB319986  72.808  97.287  39.784
 3077DC     SC119987  72.601  97.127  39.764
 3077DC     SC219988  72.468  97.161  39.929
 3077DC     SC319989  72.461  96.906  39.728
 3078DA     BB119990  72.999  97.656  39.825
 3078DA     BB219991  72.835  97.582  40.145
 3078DA     BB319992  72.949  97.438  40.255
 3078DA     SC119993  72.799  97.193  40.135
 3078DA     SC219994  72.639  97.018  40.213
 3078DA     SC319995  72.717  96.884  40.008
 3078DA     SC419996  72.862  97.125  40.004
 3079DA     BB119997  72.922  97.672  40.478
 3079DA     BB219998  72.745  97.429  40.687
 3079DA     BB319999  72.884  97.291  40.774
 3079DA     SC120000  72.865  97.087  40.541
 3079DA     SC220001  72.773  96.858  40.503
 3079DA     SC320002  72.932  96.849  40.302
 3079DA     SC420003  72.971  97.100  40.421
 3080DA     BB120004  72.712  97.399  41.028
 3080DA     BB220005  72.618  97.049  41.086
 3080DA     BB320006  72.784  96.940  41.163
 3080DA     SC120007  72.887  96.853  40.882
 3080DA     SC220008  72.903  96.643  40.749
 3080DA     SC320009  73.081  96.767  40.613
 3080DA     SC420010  72.996  96.946  40.811
 3081DA     BB120011  72.553  96.869  41.383
 3081DA     BB220012  72.609  96.516  41.302
 3081DA     BB320013  72.795  96.449  41.383
 3081DA     SC120014  72.959  96.521  41.129
 3081DA     SC220015  73.079  96.401  40.946
 3081DA     SC320016  73.205  96.622  40.911
 3081DA     SC420017  73.027  96.667  41.123
 3082DA     BB120018  72.594  96.219  41.506
 3082DA     BB220019  72.804  95.972  41.333
 3082DA     BB320020  72.992  95.952  41.433
 3082DA     SC120021  73.132  96.172  41.263
 3082DA     SC220022  73.308  96.186  41.087
 3082DA     SC320023  73.328  96.432  41.155
 3082DA     SC420024  73.130  96.323  41.320
 3083DT     BB120025  73.051  95.773  41.540
 3083DT     BB220026  73.296  95.657  41.301
 3083DT     BB320027  73.487  95.684  41.377
 3083DT     SC120028  73.476  95.942  41.334
 3083DT     SC220029  73.612  95.994  41.175
 3083DT     SC320030  73.472  96.202  41.381
 3084DG     BB120031  73.475  95.277  41.324
 3084DG     BB220032  73.768  95.418  41.164
 3084DG     BB320033  73.912  95.445  41.298
 3084DG     SC120034  73.824  95.729  41.373
 3084DG     SC220035  73.977  95.979  41.319
 3084DG     SC320036  73.744  96.033  41.493
 3084DG     SC420037  73.716  95.748  41.489
 3085DG     BB120038  74.125  95.245  41.137
 3085DG     BB220039  74.330  95.539  41.088
 3085DG     BB320040  74.452  95.563  41.244
 3085DG     SC120041  74.255  95.736  41.402
 3085DG     SC220042  74.289  96.025  41.468
 3085DG     SC320043  74.056  95.912  41.611
 3085DG     SC420044  74.149  95.665  41.499
 3086DG     BB120045  74.703  95.547  41.037
 3086DG     BB220046  74.772  95.889  41.133
 3086DG     BB320047  74.879  95.892  41.301
 3086DG     SC120048  74.635  95.897  41.485
 3086DG     SC220049  74.553  96.124  41.661
 3086DG     SC320050  74.390  95.884  41.716
 3086DG     SC420051  74.570  95.759  41.532
 3087DA     BB120052  75.073  96.102  41.112
 3087DA     BB220053  75.025  96.366  41.362
 3087DA     BB320054  75.138  96.323  41.538
 3087DA     SC120055  74.908  96.166  41.677
 3087DA     SC220056  74.755  96.197  41.871
 3087DA     SC320057  74.724  95.943  41.861
 3087DA     SC420058  74.903  96.007  41.655
 3088DA     BB120059  75.212  96.630  41.454
 3088DA     BB220060  75.092  96.724  41.787
 3088DA     BB320061  75.226  96.651  41.937
 3088DA     SC120062  75.077  96.380  41.973
 3088DA     SC220063  74.937  96.267  42.146
 3088DA     SC320064  74.998  96.050  42.024
 3088DA     SC420065  75.127  96.255  41.884
 3089DA     BB120066  75.198  96.969  42.017
 3089DA     BB220067  75.084  96.855  42.346
 3089DA     BB320068  75.246  96.769  42.455
 3089DA     SC120069  75.195  96.480  42.351
 3089DA     SC220070  75.114  96.263  42.442
 3089DA     SC320071  75.230  96.158  42.239
 3089DA     SC420072  75.274  96.434  42.219
 3090DA     BB120073  75.161  96.987  42.693
 3090DA     BB220074  75.115  96.702  42.919
 3090DA     BB320075  75.304  96.625  42.980
 3090DA     SC120076  75.325  96.421  42.746
 3090DA     SC220077  75.317  96.174  42.716
 3090DA     SC320078  75.437  96.218  42.493
 3090DA     SC420079  75.401  96.469  42.613
 3091DT     BB120080  75.412  96.635  43.198
 3091DT     BB220081  75.372  96.288  43.285
 3091DT     BB320082  75.557  96.194  43.288
 3091DT     SC120083  75.568  96.191  43.026
 3091DT     SC220084  75.549  95.989  42.956
 3091DT     SC320085  75.651  96.242  42.781
 3092DC     BB120086  75.609  96.175  43.577
 3092DC     BB220087  75.641  95.833  43.466
 3092DC     BB320088  75.839  95.790  43.425
 3092DC     SC120089  75.832  95.928  43.202
 3092DC     SC220090  75.845  95.793  43.035
 3092DC     SC320091  75.885  96.115  43.024
 3093DA     BB120092  75.743  95.487  43.701
 3093DA     BB220093  75.896  95.324  43.410
 3093DA     BB320094  76.108  95.346  43.416
 3093DA     SC120095  76.109  95.611  43.252
 3093DA     SC220096  76.179  95.687  43.026
 3093DA     SC320097  76.178  95.923  43.127
 3093DA     SC420098  76.104  95.749  43.334
 3094DT     BB120099  76.230  95.179  43.441
 3094DT     BB220100  76.338  95.157  43.097
 3094DT     BB320101  76.535  95.218  43.081
 3094DT     SC120102  76.467  95.470  43.108
 3094DT     SC220103  76.496  95.573  42.922
 3094DT     SC320104  76.450  95.712  43.210
 3095DA     BB120105  76.490  94.845  42.894
 3095DA     BB220106  76.663  95.070  42.661
 3095DA     BB320107  76.863  95.104  42.727
 3095DA     SC120108  76.791  95.355  42.896
 3095DA     SC220109  76.828  95.602  42.886
 3095DA     SC320110  76.775  95.599  43.137
 3095DA     SC420111  76.756  95.333  43.051
 3096DT     BB120112  77.000  95.035  42.609
 3096DT     BB220113  77.109  95.352  42.475
 3096DT     BB320114  77.285  95.411  42.567
 3096DT     SC120115  77.157  95.477  42.787
 3096DT     SC220116  77.160  95.691  42.809
 3096DT     SC320117  77.081  95.477  43.039
 3097DA     BB120118  77.356  95.431  42.153
 3097DA     BB220119  77.473  95.745  42.302
 3097DA     BB320120  77.654  95.713  42.410
 3097DA     SC120121  77.511  95.653  42.680
 3097DA     SC220122  77.482  95.762  42.902
 3097DA     SC320123  77.421  95.528  42.987
 3097DA     SC420124  77.477  95.499  42.713
 3098DA     BB120125  77.791  95.953  42.222
 3098DA     BB220126  77.845  96.145  42.529
 3098DA     BB320127  78.017  96.073  42.632
 3098DA     SC120128  77.859  95.867  42.803
 3098DA     SC220129  77.793  95.837  43.042
 3098DA     SC320130  77.759  95.590  42.980
 3098DA     SC420131  77.845  95.717  42.745
 3099DT     BB120132  78.220  96.185  42.663
 3099DT     BB220133  78.161  96.269  43.008
 3099DT     BB320134  78.292  96.164  43.130
 3099DT     SC120135  78.156  95.942  43.096
 3099DT     SC220136  78.059  95.889  43.281
 3099DT     SC320137  78.099  95.695  43.025
 3100DA     BB120138  78.359  96.563  43.242
 3100DA     BB220139  78.283  96.374  43.547
 3100DA     BB320140  78.455  96.263  43.610
 3100DA     SC120141  78.380  96.008  43.448
 3100DA     SC220142  78.303  95.776  43.495
 3100DA     SC320143  78.388  95.722  43.259
 3100DA     SC420144  78.440  95.994  43.300
 3101DA     BB120145  78.373  96.432  43.869
 3101DA     BB220146  78.297  96.108  44.023
 3101DA     BB320147  78.477  96.008  44.078
 3101DA     SC120148  78.506  95.859  43.807
 3101DA     SC220149  78.488  95.625  43.721
 3101DA     SC320150  78.626  95.709  43.522
 3101DA     SC420151  78.594  95.929  43.692
 3102DA     BB120152  78.252  96.023  44.310
 3102DA     BB220153  78.258  95.657  44.291
 3102DA     BB320154  78.446  95.582  44.357
 3102DA     SC120155  78.576  95.587  44.074
 3102DA     SC220156  78.652  95.422  43.904
 3102DA     SC320157  78.792  95.615  43.809
 3102DA     SC420158  78.656  95.719  44.031
 3103DC     BB120159  78.383  95.497  44.475
 3103DC     BB220160  78.439  95.172  44.328
 3103DC     BB320161  78.630  95.106  44.374
 3103DC     SC120162  78.738  95.271  44.202
 3103DC     SC220163  78.818  95.160  44.036
 3103DC     SC320164  78.882  95.470  44.105
 3104DA     BB120165  78.314  94.826  44.419
 3104DA     BB220166  78.595  94.666  44.245
 3104DA     BB320167  78.764  94.651  44.375
 3104DA     SC120168  78.884  94.925  44.292
 3104DA     SC220169  79.081  95.009  44.165
 3104DA     SC320170  79.040  95.231  44.288
 3104DA     SC420171  78.843  95.054  44.379
 3105DA     BB120172  78.717  94.352  44.246
 3105DA     BB220173  79.064  94.378  44.130
 3105DA     BB320174  79.198  94.376  44.296
 3105DA     SC120175  79.199  94.685  44.331
 3105DA     SC220176  79.358  94.874  44.298
 3105DA     SC320177  79.205  95.004  44.458
 3105DA     SC420178  79.092  94.749  44.433
 3106DT     BB120179  79.314  94.221  44.308
 3106DT     BB220180  79.624  94.384  44.223
 3106DT     BB320181  79.735  94.421  44.394
 3106DT     SC120182  79.577  94.619  44.463
 3106DT     SC220183  79.684  94.805  44.443
 3106DT     SC320184  79.404  94.762  44.601
 3107DT     BB120185  79.911  94.222  44.329
 3107DT     BB220186  80.120  94.512  44.377
 3107DT     BB320187  80.172  94.530  44.576
 3107DT     SC120188  79.932  94.615  44.639
 3107DT     SC220189  79.942  94.823  44.694
 3107DT     SC320190  79.693  94.624  44.750
 3108DG     BB120191  80.530  94.501  44.381
 3108DG     BB220192  80.527  94.786  44.603
 3108DG     BB320193  80.561  94.727  44.790
 3108DG     SC120194  80.265  94.682  44.855
 3108DG     SC220195  80.103  94.840  45.050
 3108DG     SC320196  79.953  94.604  44.955
 3108DG     SC420197  80.200  94.539  44.825
 3109DT     BB120198  80.746  94.788  44.914
 3109DT     BB220199  80.602  95.025  45.146
 3109DT     BB320200  80.586  94.940  45.333
 3109DT     SC120201  80.381  94.794  45.258
 3109DT     SC220202  80.203  94.865  45.356
 3109DT     SC320203  80.235  94.582  45.201
 3110DG     BB120204  80.826  95.266  45.395
 3110DG     BB220205  80.550  95.262  45.629
 3110DG     BB320206  80.589  95.138  45.779
 3110DG     SC120207  80.465  94.894  45.641
 3110DG     SC220208  80.220  94.749  45.728
 3110DG     SC320209  80.357  94.602  45.511
 3110DG     SC420210  80.557  94.804  45.545
 3111DT     BB120211  80.620  95.195  46.012
 3111DT     BB220212  80.310  95.078  46.155
 3111DT     BB320213  80.344  94.908  46.268
 3111DT     SC120214  80.373  94.761  46.053
 3111DT     SC220215  80.206  94.626  46.035
 3111DT     SC320216  80.485  94.605  45.872
 3112DG     BB120217  80.195  95.161  46.557
 3112DG     BB220218  80.014  94.848  46.558
 3112DG     BB320219  80.112  94.713  46.667
 3112DG     SC120220  80.277  94.608  46.431
 3112DG     SC220221  80.257  94.336  46.310
 3112DG     SC320222  80.488  94.483  46.200
 3112DG     SC420223  80.417  94.678  46.397
 3113DA     BB120224  79.833  94.644  46.871
 3113DA     BB220225  79.828  94.295  46.761
 3113DA     BB320226  79.968  94.179  46.873
 3113DA     SC120227  80.204  94.226  46.676
 3113DA     SC220228  80.336  94.093  46.512
 3113DA     SC320229  80.512  94.279  46.534
 3113DA     SC420230  80.301  94.351  46.704
 3114DT     BB120231  79.906  94.023  47.012
 3114DT     BB220232  79.996  93.745  46.800
 3114DT     BB320233  80.159  93.646  46.879
 3114DT     SC120234  80.322  93.837  46.804
 3114DT     SC220235  80.448  93.765  46.645
 3114DT     SC320236  80.496  94.035  46.817
 3115DA     BB120237  79.859  93.369  46.797
 3115DA     BB220238  80.170  93.244  46.650
 3115DA     BB320239  80.300  93.171  46.803
 3115DA     SC120240  80.444  93.444  46.844
 3115DA     SC220241  80.669  93.543  46.801
 3115DA     SC320242  80.603  93.717  46.977
 3115DA     SC420243  80.385  93.542  46.957
 3116DT     BB120244  80.329  92.989  46.785
 3116DT     BB220245  80.668  93.005  46.665
 3116DT     BB320246  80.800  92.966  46.820
 3116DT     SC120247  80.760  93.203  46.925
 3116DT     SC220248  80.938  93.322  46.902
 3116DT     SC320249  80.688  93.390  47.096
 3117DC     BB120250  80.842  92.745  46.686
 3117DC     BB220251  81.168  92.894  46.725
 3117DC     BB320252  81.244  92.848  46.912
 3117DC     SC120253  81.084  93.020  47.028
 3117DC     SC220254  81.199  93.185  47.103
 3117DC     SC320255  80.892  93.115  47.182
 3118DA     BB120256  81.538  92.754  46.626
 3118DA     BB220257  81.704  92.928  46.903
 3118DA     BB320258  81.712  92.802  47.075
 3118DA     SC120259  81.441  92.900  47.191
 3118DA     SC220260  81.362  93.036  47.385
 3118DA     SC320261  81.135  92.922  47.345
 3118DA     SC420262  81.309  92.818  47.151
 3119DA     BB120263  82.049  92.841  47.088
 3119DA     BB220264  82.015  92.968  47.430
 3119DA     BB320265  81.989  92.807  47.567
 3119DA     SC120266  81.678  92.810  47.548
 3119DA     SC220267  81.485  92.869  47.694
 3119DA     SC320268  81.346  92.723  47.536
 3119DA     SC420269  81.610  92.713  47.439
 3120DA     BB120270  82.270  92.850  47.789
 3120DA     BB220271  82.043  92.893  48.074
 3120DA     BB320272  81.997  92.704  48.161
 3120DA     SC120273  81.746  92.656  47.984
 3120DA     SC220274  81.498  92.648  48.013
 3120DA     SC320275  81.497  92.517  47.792
 3120DA     SC420276  81.766  92.575  47.846
 3121DA     BB120277  82.114  92.708  48.521
 3121DA     BB220278  81.768  92.677  48.636
 3121DA     BB320279  81.720  92.473  48.675
 3121DA     SC120280  81.616  92.417  48.387
 3121DA     SC220281  81.398  92.371  48.276
 3121DA     SC320282  81.540  92.274  48.085
 3121DA     SC420283  81.722  92.360  48.280
 3122DT     BB120284  81.664  92.308  48.908
 3122DT     BB220285  81.307  92.313  48.851
 3122DT     BB320286  81.237  92.120  48.824
 3122DT     SC120287  81.339  92.110  48.582
 3122DT     SC220288  81.179  92.110  48.437
 3122DT     SC320289  81.488  92.034  48.378
 3123DA     BB120290  80.996  92.251  49.141
 3123DA     BB220291  80.772  92.134  48.875
 3123DA     BB320292  80.757  91.922  48.879
 3123DA     SC120293  80.994  91.877  48.682
 3123DA     SC220294  81.027  91.798  48.448
 3123DA     SC320295  81.270  91.756  48.518
 3123DA     SC420296  81.140  91.857  48.746
 3124DA     BB120297  80.444  92.003  48.893
 3124DA     BB220298  80.409  91.841  48.566
 3124DA     BB320299  80.405  91.629  48.588
 3124DA     SC120300  80.713  91.595  48.559
 3124DA     SC220301  80.873  91.502  48.393
 3124DA     SC320302  81.039  91.492  48.588
 3124DA     SC420303  80.801  91.596  48.694
 3125DT     BB120304  80.242  91.561  48.533
 3125DT     BB220305  80.359  91.426  48.220
 3125DT     BB320306  80.389  91.222  48.238
 3125DT     SC120307  80.609  91.259  48.375
 3125DT     SC220308  80.778  91.199  48.257
 3125DT     SC320309  80.780  91.254  48.576
 3126DA     BB120310  80.162  91.320  47.899
 3126DA     BB220311  80.431  91.092  47.798
 3126DA     BB320312  80.395  90.896  47.874
 3126DA     SC120313  80.551  90.944  48.139
 3126DA     SC220314  80.763  90.867  48.245
 3126DA     SC320315  80.658  90.944  48.465
 3126DA     SC420316  80.468  90.996  48.266
 3127DA     BB120317  80.446  90.847  47.556
 3127DA     BB220318  80.726  90.633  47.658
 3127DA     BB320319  80.653  90.452  47.744
 3127DA     SC120320  80.648  90.564  48.035
 3127DA     SC220321  80.772  90.529  48.248
 3127DA     SC320322  80.568  90.635  48.361
 3127DA     SC420323  80.511  90.630  48.086
 3128DG     BB120324  80.816  90.335  47.510
 3128DG     BB220325  81.010  90.191  47.780
 3128DG     BB320326  80.917  90.031  47.852
 3128DG     SC120327  80.756  90.187  48.060
 3128DG     SC220328  80.787  90.168  48.357
 3128DG     SC320329  80.550  90.329  48.286
 3128DG     SC420330  80.614  90.248  48.019
 3129DA     BB120331  81.220  89.872  47.806
 3129DA     BB220332  81.232  89.792  48.163
 3129DA     BB320333  81.097  89.633  48.208
 3129DA     SC120334  80.858  89.822  48.271
 3129DA     SC220335  80.726  89.893  48.470
 3129DA     SC320336  80.546  89.963  48.301
 3129DA     SC420337  80.758  89.858  48.150
 3130DT     BB120338  81.179  89.468  48.267
 3130DT     BB220339  81.087  89.494  48.615
 3130DT     BB320340  80.926  89.369  48.655
 3130DT     SC120341  80.759  89.531  48.534
 3130DT     SC220342  80.630  89.623  48.680
 3130DT     SC320343  80.584  89.622  48.359
 3131DG     BB120344  81.235  89.277  48.904
 3131DG     BB220345  80.928  89.332  49.087
 3131DG     BB320346  80.809  89.174  49.069
 3131DG     SC120347  80.669  89.278  48.817
 3131DG     SC220348  80.382  89.359  48.797
 3131DG     SC320349  80.508  89.351  48.530
 3131DG     SC420350  80.731  89.244  48.674
 3132DT     BB120351  80.761  89.077  49.244
 3132DT     BB220352  80.415  89.170  49.291
 3132DT     BB320353  80.291  89.019  49.223
 3132DT     SC120354  80.339  89.082  48.973
 3132DT     SC220355  80.161  89.166  48.885
 3132DT     SC320356  80.422  89.061  48.723
 3133DC     BB120357  80.230  88.960  49.479
 3133DC     BB220358  79.911  89.022  49.321
 3133DC     BB320359  79.843  88.849  49.231
 3133DC     SC120360  80.015  88.873  49.035
 3133DC     SC220361  79.910  88.922  48.853
 3133DC     SC320362  80.217  88.820  48.874
 3134DT     BB120363  79.653  88.821  49.424
 3134DT     BB220364  79.467  88.825  49.115
 3134DT     BB320365  79.457  88.634  49.035
 3134DT     SC120366  79.707  88.644  48.958
 3134DT     SC220367  79.715  88.653  48.743
 3134DT     SC320368  79.964  88.587  48.939
 3135DT     BB120369  79.193  88.617  49.102
 3135DT     BB220370  79.201  88.558  48.746
 3135DT     BB320371  79.232  88.357  48.708
 3135DT     SC120372  79.486  88.376  48.773
 3135DT     SC220373  79.607  88.353  48.597
 3135DT     SC320374  79.712  88.339  48.904
 3136DA     BB120375  78.898  88.482  48.489
 3136DA     BB220376  79.122  88.301  48.262
 3136DA     BB320377  79.117  88.092  48.304
 3136DA     SC120378  79.352  88.103  48.508
 3136DA     SC220379  79.589  88.025  48.521
 3136DA     SC320380  79.561  88.051  48.775
 3136DA     SC420381  79.315  88.123  48.663
 3137DT     BB120382  79.045  87.986  48.164
 3137DT     BB220383  79.356  87.841  48.052
 3137DT     BB320384  79.374  87.648  48.125
 3137DT     SC120385  79.430  87.736  48.366
 3137DT     SC220386  79.635  87.694  48.412
 3137DT     SC320387  79.407  87.781  48.625
 3138DA     BB120388  79.448  87.650  47.712
 3138DA     BB220389  79.714  87.458  47.875
 3138DA     BB320390  79.638  87.272  47.947
 3138DA     SC120391  79.564  87.384  48.228
 3138DA     SC220392  79.643  87.360  48.463
 3138DA     SC320393  79.411  87.450  48.528
 3138DA     SC420394  79.414  87.440  48.248
 3139DT     BB120395  79.708  87.114  47.861
 3139DT     BB220396  79.913  86.997  48.135
 3139DT     BB320397  79.816  86.843  48.234
 3139DT     SC120398  79.650  87.011  48.349
 3139DT     SC220399  79.693  87.022  48.559
 3139DT     SC320400  79.425  87.132  48.414
 3140DA     BB120401  80.194  86.681  48.141
 3140DA     BB220402  80.126  86.605  48.493
 3140DA     BB320403  79.981  86.450  48.509
 3140DA     SC120404  79.738  86.644  48.517
 3140DA     SC220405  79.568  86.721  48.683
 3140DA     SC320406  79.431  86.792  48.478
 3140DA     SC420407  79.667  86.681  48.377
 3141DA     BB120408  80.193  86.262  48.695
 3141DA     BB220409  79.951  86.277  48.969
 3141DA     BB320410  79.797  86.131  48.941
 3141DA     SC120411  79.611  86.323  48.782
 3141DA     SC220412  79.393  86.439  48.816
 3141DA     SC320413  79.386  86.458  48.560
 3141DA     SC420414  79.624  86.323  48.621
 3142DG     BB120415  79.872  85.970  49.211
 3142DG     BB220416  79.546  86.081  49.320
 3142DG     BB320417  79.408  85.948  49.267
 3142DG     SC120418  79.353  86.078  48.995
 3142DG     SC220419  79.099  86.212  48.913
 3142DG     SC320420  79.282  86.182  48.683
 3142DG     SC420421  79.440  86.034  48.869
 3143DC     BB120422  79.265  85.810  49.414
 3143DC     BB220423  78.955  85.992  49.385
 3143DC     BB320424  78.818  85.882  49.276
 3143DC     SC120425  78.942  85.936  49.051
 3143DC     SC220426  78.821  86.067  48.932
 3143DC     SC320427  79.078  85.899  48.828
 3144DA     BB120428  78.620  85.978  49.633
 3144DA     BB220429  78.403  86.079  49.355
 3144DA     BB320430  78.310  85.908  49.268
 3144DA     SC120431  78.536  85.861  49.059
 3144DA     SC220432  78.565  85.881  48.812
 3144DA     SC320433  78.765  85.723  48.844
 3144DA     SC420434  78.655  85.761  49.099
 3145DA     BB120435  78.048  86.090  49.332
 3145DA     BB220436  77.993  86.099  48.970
 3145DA     BB320437  77.913  85.913  48.902
 3145DA     SC120438  78.192  85.786  48.845
 3145DA     SC220439  78.326  85.718  48.647
 3145DA     SC320440  78.458  85.572  48.811
 3145DA     SC420441  78.261  85.701  48.963
 3146DG     BB120442  77.695  86.109  48.817
 3146DG     BB220443  77.805  86.008  48.487
 3146DG     BB320444  77.727  85.830  48.442
 3146DG     SC120445  77.959  85.670  48.561
 3146DG     SC220446  78.153  85.502  48.408
 3146DG     SC320447  78.186  85.463  48.699
 3146DG     SC420448  77.954  85.630  48.716
 3147DT     BB120449  77.612  85.834  48.277
 3147DT     BB220450  77.825  85.672  48.035
 3147DT     BB320451  77.773  85.472  48.017
 3147DT     SC120452  77.884  85.414  48.248
 3147DT     SC220453  78.060  85.295  48.214
 3147DT     SC320454  77.910  85.336  48.498
 3148DT     BB120455  77.699  85.557  47.784
 3148DT     BB220456  77.941  85.296  47.723
 3148DT     BB320457  77.852  85.111  47.745
 3148DT     SC120458  77.850  85.134  48.007
 3148DT     SC220459  77.991  84.995  48.091
 3148DT     SC320460  77.760  85.155  48.253
 3149DC     BB120461  77.894  85.108  47.490
 3149DC     BB220462  78.064  84.818  47.622
 3149DC     BB320463  77.928  84.667  47.658
 3149DC     SC120464  77.838  84.789  47.873
 3149DC     SC220465  77.897  84.678  48.048
 3149DC     SC320466  77.673  84.913  48.037
 3150DT     BB120467  78.050  84.555  47.457
 3150DT     BB220468  78.075  84.319  47.729
 3150DT     BB320469  77.898  84.213  47.747
 3150DT     SC120470  77.777  84.419  47.855
 3150DT     SC220471  77.737  84.378  48.062
 3150DT     SC320472  77.607  84.618  47.888
 3151DA     BB120473  78.223  83.945  47.739
 3151DA     BB220474  78.000  83.848  48.014
 3151DA     BB320475  77.817  83.768  47.937
 3151DA     SC120476  77.671  84.043  47.931
 3151DA     SC220477  77.486  84.156  48.053
 3151DA     SC320478  77.473  84.311  47.849
 3151DA     SC420479  77.678  84.128  47.794
 3152DC     BB120480  77.773  83.570  47.964
 3152DC     BB220481  77.510  83.611  48.207
 3152DC     BB320482  77.326  83.581  48.118
 3152DC     SC120483  77.336  83.814  47.997
 3152DC     SC220484  77.190  83.946  48.084
 3152DC     SC320485  77.347  83.993  47.804
 3153DG     BB120486  77.324  83.286  48.405
 3153DG     BB220487  77.020  83.481  48.422
 3153DG     BB320488  76.890  83.417  48.286
 3153DG     SC120489  76.990  83.605  48.066
 3153DG     SC220490  76.836  83.832  47.947
 3153DG     SC320491  77.087  83.783  47.797
 3153DG     SC420492  77.109  83.557  47.971
 3154DA     BB120493  76.623  83.358  48.517
 3154DA     BB220494  76.411  83.605  48.347
 3154DA     BB320495  76.315  83.516  48.178
 3154DA     SC120496  76.542  83.591  47.979
 3154DA     SC220497  76.575  83.746  47.786
 3154DA     SC320498  76.770  83.592  47.722
 3154DA     SC420499  76.658  83.482  47.955
 3155DA     BB120500  76.015  83.604  48.301
 3155DA     BB220501  75.972  83.821  48.009
 3155DA     BB320502  75.898  83.708  47.843
 3155DA     SC120503  76.181  83.638  47.734
 3155DA     SC220504  76.323  83.696  47.538
 3155DA     SC320505  76.452  83.482  47.593
 3155DA     SC420506  76.247  83.500  47.784
 3156DT     BB120507  75.697  83.738  47.757
 3156DT     BB220508  75.813  83.922  47.469
 3156DT     BB320509  75.787  83.809  47.297
 3156DT     SC120510  75.991  83.656  47.359
 3156DT     SC220511  76.153  83.693  47.222
 3156DT     SC320512  76.130  83.441  47.424
 3157DT     BB120513  75.591  83.978  47.226
 3157DT     BB220514  75.836  84.000  46.962
 3157DT     BB320515  75.802  83.853  46.821
 3157DT     SC120516  75.898  83.667  46.979
 3157DT     SC220517  76.085  83.596  46.901
 3157DT     SC320518  75.909  83.452  47.132
 3158DC     BB120519  75.744  84.064  46.682
 3158DC     BB220520  76.016  83.902  46.508
 3158DC     BB320521  75.944  83.745  46.395
 3158DC     SC120522  75.910  83.597  46.609
 3158DC     SC220523  76.053  83.436  46.608
 3158DC     SC320524  75.790  83.455  46.796
 3159DA     BB120525  76.232  84.009  46.226
 3159DA     BB220526  76.327  83.661  46.157
 3159DA     BB320527  76.182  83.568  46.032
 3159DA     SC120528  76.010  83.461  46.269
 3159DA     SC220529  75.956  83.241  46.373
 3159DA     SC320530  75.753  83.362  46.473
 3159DA     SC420531  75.889  83.554  46.320
 3160DA     BB120532  76.495  83.515  45.934
 3160DA     BB220533  76.401  83.161  45.941
 3160DA     BB320534  76.243  83.123  45.803
 3160DA     SC120535  76.017  83.175  46.011
 3160DA     SC220536  75.845  83.043  46.133
 3160DA     SC320537  75.726  83.267  46.167
 3160DA     SC420538  75.958  83.324  46.021
 3161DT     BB120539  76.304  83.016  45.679
 3161DT     BB220540  76.103  82.724  45.751
 3161DT     BB320541  75.930  82.728  45.637
 3161DT     SC120542  75.825  82.915  45.789
 3161DT     SC220543  75.662  82.831  45.901
 3161DT     SC320544  75.725  83.147  45.863
 3162DT     BB120545  76.023  82.534  45.466
 3162DT     BB220546  75.695  82.415  45.560
 3162DT     BB320547  75.552  82.498  45.436
 3162DT     SC120548  75.570  82.730  45.556
 3162DT     SC220549  75.390  82.768  45.667
 3162DT     SC320550  75.617  82.987  45.594
 3163DT     BB120551  75.494  82.274  45.252
 3163DT     BB220552  75.165  82.366  45.366
 3163DT     BB320553  75.079  82.500  45.234
 3163DT     SC120554  75.232  82.695  45.320
 3163DT     SC220555  75.112  82.838  45.427
 3163DT     SC320556  75.414  82.886  45.320
 3164DT     BB120557  74.886  82.330  45.081
 3164DT     BB220558  74.677  82.596  45.207
 3164DT     BB320559  74.656  82.744  45.063
 3164DT     SC120560  74.900  82.831  45.105
 3164DT     SC220561  74.891  83.024  45.199
 3164DT     SC320562  75.153  82.891  45.062
 3165DC     BB120563  74.386  82.685  44.984
 3165DC     BB220564  74.372  83.030  45.090
 3165DC     BB320565  74.401  83.155  44.928
 3165DC     SC120566  74.658  83.102  44.923
 3165DC     SC220567  74.768  83.277  44.983
 3165DC     SC320568  74.892  83.015  44.836
 3166DT     BB120569  74.138  83.229  44.932
 3166DT     BB220570  74.321  83.537  44.976
 3166DT     BB320571  74.367  83.619  44.792
 3166DT     SC120572  74.555  83.441  44.751
 3166DT     SC220573  74.748  83.536  44.759
 3166DT     SC320574  74.688  83.240  44.642
 3167DC     BB120575  74.190  83.808  44.851
 3167DC     BB220576  74.500  83.984  44.797
 3167DC     BB320577  74.527  84.019  44.595
 3167DC     SC120578  74.590  83.768  44.552
 3167DC     SC220579  74.799  83.754  44.502
 3167DC     SC320580  74.577  83.521  44.459
 3168DC     BB120581  74.485  84.270  44.661
 3168DC     BB220582  74.809  84.266  44.502
 3168DC     BB320583  74.787  84.268  44.297
 3168DC     SC120584  74.714  84.016  44.294
 3168DC     SC220585  74.868  83.898  44.202
 3168DC     SC320586  74.564  83.802  44.260
 3169DA     BB120587  75.057  84.571  44.407
 3169DA     BB220588  75.204  84.383  44.129
 3169DA     BB320589  75.100  84.425  43.947
 3169DA     SC120590  74.896  84.193  43.981
 3169DA     SC220591  74.846  83.973  43.873
 3169DA     SC320592  74.614  83.996  43.981
 3169DA     SC420593  74.757  84.226  44.055
 3170DT     BB120594  75.193  84.529  43.793
 3170DT     BB220595  75.235  84.249  43.569
 3170DT     BB320596  75.098  84.262  43.414
 3170DT     SC120597  74.901  84.188  43.571
 3170DT     SC220598  74.835  83.991  43.514
 3170DT     SC320599  74.676  84.197  43.707
 3171DT     BB120600  75.283  84.345  43.214
 3171DT     BB220601  75.131  84.050  43.073
 3171DT     BB320602  74.966  84.102  42.960
 3171DT     SC120603  74.824  84.148  43.175
 3171DT     SC220604  74.671  83.997  43.193
 3171DT     SC320605  74.682  84.277  43.356
 3172DT     BB120606  75.087  84.059  42.709
 3172DT     BB220607  74.798  83.843  42.705
 3172DT     BB320608  74.636  83.944  42.625
 3172DT     SC120609  74.605  84.085  42.844
 3172DT     SC220610  74.425  84.024  42.944
 3172DT     SC320611  74.594  84.293  43.006
 3173DA     BB120612  74.672  83.585  42.413
 3173DA     BB220613  74.325  83.613  42.529
 3173DA     BB320614  74.220  83.757  42.412
 3173DA     SC120615  74.289  83.996  42.600
 3173DA     SC220616  74.170  84.145  42.760
 3173DA     SC320617  74.369  84.304  42.728
 3173DA     SC420618  74.421  84.081  42.566
 3174DG     BB120619  74.052  83.506  42.362
 3174DG     BB220620  73.803  83.697  42.541
 3174DG     BB320621  73.719  83.830  42.420
 3174DG     SC120622  73.923  84.051  42.481
 3174DG     SC220623  73.865  84.307  42.624
 3174DG     SC320624  74.139  84.308  42.510
 3174DG     SC420625  74.057  84.059  42.394
 3175DT     BB120626  73.523  83.805  42.402
 3175DT     BB220627  73.392  84.081  42.594
 3175DT     BB320628  73.345  84.239  42.467
 3175DT     SC120629  73.598  84.299  42.435
 3175DT     SC220630  73.640  84.487  42.533
 3175DT     SC320631  73.832  84.338  42.318
 3176DT     BB120632  73.101  84.174  42.535
 3176DT     BB220633  73.136  84.523  42.622
 3176DT     BB320634  73.112  84.640  42.453
 3176DT     SC120635  73.350  84.574  42.364
 3176DT     SC220636  73.481  84.745  42.376
 3176DT     SC320637  73.538  84.473  42.210
 3177DA     BB120638  72.862  84.789  42.757
 3177DA     BB220639  73.039  85.072  42.606
 3177DA     BB320640  72.966  85.109  42.409
 3177DA     SC120641  73.173  84.921  42.271
 3177DA     SC220642  73.373  84.943  42.123
 3177DA     SC320643  73.331  84.697  42.065
 3177DA     SC420644  73.130  84.768  42.247
 3178DC     BB120645  72.857  85.283  42.360
 3178DC     BB220646  73.114  85.447  42.167
 3178DC     BB320647  73.068  85.437  41.966
 3178DC     SC120648  73.135  85.183  41.955
 3178DC     SC220649  73.316  85.162  41.840
 3178DC     SC320650  73.115  84.922  41.925
 3179DA     BB120651  73.109  85.856  42.009
 3179DA     BB220652  73.308  85.760  41.716
 3179DA     BB320653  73.182  85.727  41.548
 3179DA     SC120654  73.142  85.424  41.605
 3179DA     SC220655  73.210  85.206  41.505
 3179DA     SC320656  73.015  85.107  41.637
 3179DA     SC420657  73.015  85.381  41.695
 3180DT     BB120658  73.160  85.858  41.342
 3180DT     BB220659  73.344  85.625  41.136
 3180DT     BB320660  73.218  85.540  40.995
 3180DT     SC120661  73.106  85.387  41.177
 3180DT     SC220662  73.162  85.183  41.142
 3180DT     SC320663  72.921  85.284  41.334
 3181DA     BB120664  73.527  85.698  40.760
 3181DA     BB220665  73.489  85.345  40.669
 3181DA     BB320666  73.321  85.320  40.540
 3181DA     SC120667  73.120  85.269  40.772
 3181DA     SC220668  72.988  85.078  40.863
 3181DA     SC320669  72.842  85.258  40.974
 3181DA     SC420670  73.041  85.396  40.831
 3182DT     BB120671  73.362  85.257  40.359
 3182DT     BB220672  73.260  84.915  40.414
 3182DT     BB320673  73.077  84.881  40.324
 3182DT     SC120674  72.951  85.015  40.511
 3182DT     SC220675  72.835  84.878  40.630
 3182DT     SC320676  72.805  85.201  40.627
 3183DT     BB120677  73.221  84.731  40.165
 3183DT     BB220678  72.978  84.509  40.314
 3183DT     BB320679  72.798  84.525  40.214
 3183DT     SC120680  72.747  84.757  40.325
 3183DT     SC220681  72.584  84.735  40.463
 3183DT     SC320682  72.701  85.015  40.349
 3184DA     BB120683  72.920  84.126  40.270
 3184DA     BB220684  72.569  84.158  40.373
 3184DA     BB320685  72.445  84.192  40.203
 3184DA     SC120686  72.466  84.502  40.220
 3184DA     SC220687  72.317  84.694  40.277
 3184DA     SC320688  72.488  84.837  40.149
 3184DA     SC420689  72.583  84.574  40.136
 3185DA     BB120690  72.297  83.937  40.346
 3185DA     BB220691  72.001  84.152  40.371
 3185DA     BB320692  71.914  84.181  40.178
 3185DA     SC120693  72.080  84.436  40.115
 3185DA     SC220694  72.039  84.681  40.090
 3185DA     SC320695  72.260  84.684  39.961
 3185DA     SC420696  72.219  84.417  40.037
 3186DT     BB120697  71.732  84.103  40.143
 3186DT     BB220698  71.549  84.414  40.147
 3186DT     BB320699  71.502  84.470  39.954
 3186DT     SC120700  71.749  84.544  39.906
 3186DT     SC220701  71.757  84.759  39.888
 3186DT     SC320702  71.989  84.551  39.798
 3187DG     BB120703  71.141  84.437  40.143
 3187DG     BB220704  71.176  84.760  39.984
 3187DG     BB320705  71.139  84.744  39.789
 3187DG     SC120706  71.429  84.683  39.713
 3187DG     SC220707  71.609  84.859  39.553
 3187DG     SC320708  71.733  84.594  39.597
 3187DG     SC420709  71.479  84.531  39.714
 3188DT     BB120710  70.965  84.851  39.684
 3188DT     BB220711  71.143  85.118  39.519
 3188DT     BB320712  71.153  85.081  39.316
 3188DT     SC120713  71.336  84.896  39.351
 3188DT     SC220714  71.524  84.967  39.273
 3188DT     SC320715  71.454  84.660  39.352
 3189DC     BB120716  70.983  85.283  39.288
 3189DC     BB220717  71.276  85.378  39.100
 3189DC     BB320718  71.269  85.295  38.911
 3189DC     SC120719  71.328  85.057  39.003
 3189DC     SC220720  71.526  85.003  38.938
 3189DC     SC320721  71.305  84.801  39.063
 3190DT     BB120722  71.246  85.546  38.860
 3190DT     BB220723  71.542  85.435  38.687
 3190DT     BB320724  71.489  85.334  38.514
 3190DT     SC120725  71.414  85.123  38.651
 3190DT     SC220726  71.552  84.962  38.614
 3190DT     SC320727  71.259  84.935  38.751
 3191DA     BB120728  71.805  85.617  38.488
 3191DA     BB220729  71.902  85.309  38.315
 3191DA     BB320730  71.777  85.277  38.145
 3191DA     SC120731  71.568  85.108  38.301
 3191DA     SC220732  71.492  84.871  38.311
 3191DA     SC320733  71.278  84.964  38.418
 3191DA     SC420734  71.442  85.186  38.365
 3192DA     BB120735  72.096  85.244  38.061
 3192DA     BB220736  71.995  84.914  37.937
 3192DA     BB320737  71.856  84.934  37.776
 3192DA     SC120738  71.606  84.928  37.961
 3192DA     SC220739  71.416  84.774  38.010
 3192DA     SC320740  71.298  84.982  38.104
 3192DA     SC420741  71.548  85.069  38.013
 3193DA     BB120742  72.080  84.735  37.639
 3193DA     BB220743  71.804  84.500  37.582
 3193DA     BB320744  71.673  84.574  37.431
 3193DA     SC120745  71.489  84.724  37.631
 3193DA     SC220746  71.256  84.703  37.719
 3193DA     SC320747  71.280  84.951  37.783
 3193DA     SC420748  71.522  84.879  37.662
 3194DA     BB120749  71.724  84.283  37.276
 3194DA     BB220750  71.362  84.225  37.298
 3194DA     BB320751  71.260  84.341  37.151
 3194DA     SC120752  71.219  84.586  37.337
 3194DA     SC220753  71.031  84.701  37.453
 3194DA     SC320754  71.188  84.903  37.465
 3194DA     SC420755  71.331  84.702  37.333
 3195DT     BB120756  71.155  84.256  36.976
 3195DT     BB220757  70.819  84.311  37.097
 3195DT     BB320758  70.730  84.464  36.989
 3195DT     SC120759  70.871  84.646  37.113
 3195DT     SC220760  70.743  84.761  37.242
 3195DT     SC320761  71.044  84.841  37.153
 3196DA     BB120762  70.458  84.145  36.957
 3196DA     BB220763  70.268  84.440  37.063
 3196DA     BB320764  70.239  84.572  36.897
 3196DA     SC120765  70.498  84.735  36.950
 3196DA     SC220766  70.560  84.964  37.028
 3196DA     SC320767  70.787  84.918  36.917
 3196DA     SC420768  70.632  84.688  36.874
 3197DT     BB120769  70.050  84.601  36.829
 3197DT     BB220770  70.006  84.931  36.968
 3197DT     BB320771  70.019  85.073  36.818
 3197DT     SC120772  70.280  85.046  36.804
 3197DT     SC220773  70.375  85.224  36.879
 3197DT     SC320774  70.519  84.990  36.706
 3198DA     BB120775  69.670  85.139  37.040
 3198DA     BB220776  69.848  85.458  37.009
 3198DA     BB320777  69.834  85.532  36.809
 3198DA     SC120778  70.094  85.391  36.713
 3198DA     SC220779  70.325  85.457  36.643
 3198DA     SC320780  70.333  85.227  36.530
 3198DA     SC420781  70.080  85.245  36.648
 3199DT     BB120782  69.735  85.697  36.789
 3199DT     BB220783  70.016  85.914  36.727
 3199DT     BB320784  70.030  85.954  36.524
 3199DT     SC120785  70.125  85.714  36.475
 3199DT     SC220786  70.331  85.729  36.417
 3199DT     SC320787  70.142  85.469  36.378
 3200DT     BB120788  69.945  86.206  36.571
 3200DT     BB220789  70.259  86.248  36.399
 3200DT     BB320790  70.229  86.241  36.194
 3200DT     SC120791  70.196  85.981  36.200
 3200DT     SC220792  70.363  85.885  36.105
 3200DT     SC320793  70.080  85.745  36.178
 3201DA     BB120794  70.433  86.606  36.246
 3201DA     BB220795  70.600  86.426  35.973
 3201DA     BB320796  70.483  86.437  35.795
 3201DA     SC120797  70.324  86.176  35.854
 3201DA     SC220798  70.309  85.945  35.762
 3201DA     SC320799  70.081  85.935  35.880
 3201DA     SC420800  70.185  86.190  35.932
 3202DT     BB120801  70.538  86.550  35.606
 3202DT     BB220802  70.625  86.261  35.410
 3202DT     BB320803  70.484  86.231  35.261
 3202DT     SC120804  70.310  86.139  35.434
 3202DT     SC220805  70.281  85.928  35.401
 3202DT     SC320806  70.091  86.120  35.580
 3203DA     BB120807  70.844  86.247  35.044
 3203DA     BB220808  70.665  85.944  34.937
 3203DA     BB320809  70.507  85.995  34.803
 3203DA     SC120810  70.294  86.027  35.028
 3203DA     SC220811  70.091  85.907  35.107
 3203DA     SC320812  70.030  86.128  35.221
 3203DA     SC420813  70.273  86.174  35.090
 3204DT     BB120814  70.510  85.937  34.596
 3204DT     BB220815  70.268  85.671  34.629
 3204DT     BB320816  70.090  85.726  34.539
 3204DT     SC120817  70.031  85.888  34.737
 3204DT     SC220818  69.865  85.809  34.847
 3204DT     SC320819  69.979  86.111  34.868
 3205DT     BB120820  70.135  85.551  34.335
 3205DT     BB220821  69.819  85.448  34.476
 3205DT     BB320822  69.664  85.552  34.386
 3205DT     SC120823  69.724  85.770  34.520
 3205DT     SC220824  69.569  85.810  34.664
 3205DT     SC320825  69.799  86.018  34.569
 3206DT     BB120826  69.593  85.324  34.262
 3206DT     BB220827  69.301  85.423  34.450
 3206DT     BB320828  69.188  85.557  34.339
 3206DT     SC120829  69.359  85.751  34.384
 3206DT     SC220830  69.270  85.897  34.515
 3206DT     SC320831  69.539  85.939  34.339
 3207DG     BB120832  68.956  85.239  34.441
 3207DG     BB220833  68.802  85.552  34.537
 3207DG     BB320834  68.724  85.641  34.377
 3207DG     SC120835  68.979  85.795  34.307
 3207DG     SC220836  69.013  86.091  34.320
 3207DG     SC320837  69.247  85.964  34.191
 3207DG     SC420838  69.088  85.726  34.212
 3208DA     BB120839  68.442  85.660  34.574
 3208DA     BB220840  68.446  86.025  34.541
 3208DA     BB320841  68.382  86.083  34.346
 3208DA     SC120842  68.667  86.080  34.223
 3208DA     SC220843  68.833  86.246  34.138
 3208DA     SC320844  68.938  86.047  34.015
 3208DA     SC420845  68.717  85.944  34.154
 3209DA     BB120846  68.184  86.263  34.534
 3209DA     BB220847  68.332  86.556  34.373
 3209DA     BB320848  68.260  86.575  34.173
 3209DA     SC120849  68.490  86.406  34.048
 3209DA     SC220850  68.689  86.444  33.903
 3209DA     SC320851  68.677  86.192  33.856
 3209DA     SC420852  68.465  86.248  34.031
 3210DT     BB120853  68.151  86.731  34.137
 3210DT     BB220854  68.396  86.915  33.947
 3210DT     BB320855  68.353  86.902  33.745
 3210DT     SC120856  68.440  86.654  33.735
 3210DT     SC220857  68.622  86.647  33.621
 3210DT     SC320858  68.439  86.392  33.703
 3211DA     BB120859  68.405  87.306  33.842
 3211DA     BB220860  68.605  87.235  33.543
 3211DA     BB320861  68.478  87.209  33.373
 3211DA     SC120862  68.449  86.902  33.412
 3211DA     SC220863  68.523  86.693  33.297
 3211DA     SC320864  68.332  86.579  33.425
 3211DA     SC420865  68.324  86.849  33.499
 3212DC     BB120866  68.496  87.343  33.236
 3212DC     BB220867  68.669  87.137  32.995
 3212DC     BB320868  68.538  87.074  32.849
 3212DC     SC120869  68.428  86.900  33.012
 3212DC     SC220870  68.479  86.701  32.949
 3212DC     SC320871  68.247  86.779  33.160
 3213DT     BB120872  68.654  87.242  32.671
 3213DT     BB220873  68.679  86.917  32.517
 3213DT     BB320874  68.507  86.877  32.410
 3213DT     SC120875  68.371  86.831  32.630
 3213DT     SC220876  68.325  86.621  32.643
 3213DT     SC320877  68.190  86.856  32.820
 3214DA     BB120878  68.831  86.812  32.153
 3214DA     BB220879  68.611  86.520  32.131
 3214DA     BB320880  68.434  86.569  32.023
 3214DA     SC120881  68.274  86.655  32.275
 3214DA     SC220882  68.082  86.572  32.410
 3214DA     SC320883  68.063  86.813  32.496
 3214DA     SC420884  68.278  86.811  32.316
 3215DA     BB120885  68.530  86.306  31.853
 3215DA     BB220886  68.213  86.150  31.950
 3215DA     BB320887  68.052  86.234  31.838
 3215DA     SC120888  67.992  86.459  32.045
 3215DA     SC220889  67.812  86.516  32.208
 3215DA     SC320890  67.907  86.754  32.197
 3215DA     SC420891  68.065  86.600  32.024
 3216DA     BB120892  68.006  85.915  31.783
 3216DA     BB220893  67.678  85.956  31.941
 3216DA     BB320894  67.545  86.060  31.810
 3216DA     SC120895  67.619  86.341  31.919
 3216DA     SC220896  67.511  86.522  32.053
 3216DA     SC320897  67.690  86.676  31.951
 3216DA     SC420898  67.737  86.421  31.844
 3217DA     BB120899  67.368  85.794  31.883
 3217DA     BB220900  67.118  86.024  32.020
 3217DA     BB320901  67.017  86.126  31.862
 3217DA     SC120902  67.216  86.365  31.856
 3217DA     SC220903  67.215  86.607  31.914
 3217DA     SC320904  67.418  86.625  31.759
 3217DA     SC420905  67.340  86.356  31.754
 3218DA     BB120906  66.760  86.007  32.028
 3218DA     BB220907  66.652  86.354  32.072
 3218DA     BB320908  66.575  86.432  31.888
 3218DA     SC120909  66.849  86.542  31.792
 3218DA     SC220910  66.957  86.764  31.756
 3218DA     SC320911  67.121  86.637  31.604
 3218DA     SC420912  66.940  86.445  31.700
 3219DC     BB120913  66.378  86.477  31.876
 3219DC     BB220914  66.412  86.836  31.878
 3219DC     BB320915  66.383  86.911  31.687
 3219DC     SC120916  66.619  86.826  31.609
 3219DC     SC220917  66.748  86.995  31.576
 3219DC     SC320918  66.803  86.692  31.477
 3220DA     BB120919  66.116  87.130  31.927
 3220DA     BB220920  66.300  87.370  31.719
 3220DA     BB320921  66.228  87.364  31.519
 3220DA     SC120922  66.432  87.148  31.427
 3220DA     SC220923  66.632  87.134  31.279
 3220DA     SC320924  66.586  86.881  31.275
 3220DA     SC420925  66.386  86.994  31.436
 3221DG     BB120926  66.137  87.669  31.540
 3221DG     BB220927  66.389  87.721  31.286
 3221DG     BB320928  66.310  87.692  31.105
 3221DG     SC120929  66.375  87.393  31.099
 3221DG     SC220930  66.570  87.260  30.915
 3221DG     SC320931  66.413  87.059  31.066
 3221DG     SC420932  66.269  87.289  31.159
 3222DC     BB120933  66.274  87.858  30.916
 3222DC     BB220934  66.541  87.761  30.694
 3222DC     BB320935  66.464  87.674  30.523
 3222DC     SC120936  66.407  87.453  30.652
 3222DC     SC220937  66.536  87.295  30.585
 3222DC     SC320938  66.266  87.257  30.759
 3223DT     BB120939  66.507  87.895  30.342
 3223DT     BB220940  66.681  87.621  30.184
 3223DT     BB320941  66.557  87.528  30.047
 3223DT     SC120942  66.420  87.413  30.238
 3223DT     SC220943  66.459  87.201  30.236
 3223DT     SC320944  66.217  87.348  30.394
 3224DG     BB120945  66.869  87.654  29.813
 3224DG     BB220946  66.811  87.300  29.769
 3224DG     BB320947  66.664  87.271  29.637
 3224DG     SC120948  66.441  87.274  29.847
 3224DG     SC220949  66.270  87.042  29.924
 3224DG     SC320950  66.171  87.292  30.047
 3224DG     SC420951  66.374  87.414  29.887
 3225DT     BB120952  66.691  87.162  29.429
 3225DT     BB220953  66.543  86.842  29.504
 3225DT     BB320954  66.362  86.824  29.406
 3225DT     SC120955  66.245  86.987  29.574
 3225DT     SC220956  66.106  86.877  29.696
 3225DT     SC320957  66.119  87.200  29.667
 3226DA     BB120958  66.593  86.487  29.323
 3226DA     BB220959  66.263  86.372  29.434
 3226DA     BB320960  66.119  86.403  29.280
 3226DA     SC120961  66.039  86.687  29.378
 3226DA     SC220962  65.843  86.798  29.485
 3226DA     SC320963  65.943  87.017  29.397
 3226DA     SC420964  66.117  86.813  29.314
 3227DA     BB120965  66.084  86.091  29.359
 3227DA     BB220966  65.739  86.176  29.451
 3227DA     BB320967  65.622  86.210  29.276
 3227DA     SC120968  65.681  86.515  29.265
 3227DA     SC220969  65.557  86.728  29.300
 3227DA     SC320970  65.745  86.836  29.162
 3227DA     SC420971  65.806  86.563  29.176
 3228DG     BB120972  65.480  85.986  29.427
 3228DG     BB220973  65.216  86.233  29.442
 3228DG     BB320974  65.125  86.246  29.266
 3228DG     SC120975  65.312  86.463  29.158
 3228DG     SC220976  65.236  86.745  29.095
 3228DG     SC320977  65.510  86.686  29.000
 3228DG     SC420978  65.446  86.419  29.082
 3229DA     BB120979  64.856  86.219  29.477
 3229DA     BB220980  64.720  86.529  29.337
 3229DA     BB320981  64.655  86.498  29.137
 3229DA     SC120982  64.928  86.575  29.010
 3229DA     SC220983  65.023  86.761  28.874
 3229DA     SC320984  65.208  86.595  28.812
 3229DA     SC420985  65.034  86.457  28.983
 3230DA     BB120986  64.394  86.640  29.278
 3230DA     BB220987  64.414  86.893  29.014
 3230DA     BB320988  64.358  86.808  28.826
 3230DA     SC120989  64.648  86.724  28.750
 3230DA     SC220990  64.823  86.791  28.586
 3230DA     SC320991  64.925  86.560  28.630
 3230DA     SC420992  64.695  86.576  28.790
 3231DT     BB120993  64.184  86.866  28.734
 3231DT     BB220994  64.326  87.046  28.455
 3231DT     BB320995  64.311  86.933  28.283
 3231DT     SC120996  64.506  86.775  28.360
 3231DT     SC220997  64.678  86.807  28.236
 3231DT     SC320998  64.633  86.556  28.436
 3232DT     BB120999  64.107  87.086  28.180
 3232DT     BB221000  64.352  87.081  27.916
 3232DT     BB321001  64.323  86.914  27.796
 3232DT     SC121002  64.426  86.756  27.978
 3232DT     SC221003  64.616  86.681  27.910
 3232DT     SC321004  64.444  86.564  28.159
 3233DA     BB121005  64.308  87.223  27.509
 3233DA     BB221006  64.537  86.967  27.379
 3233DA     BB321007  64.427  86.801  27.304
 3233DA     SC121008  64.427  86.647  27.574
 3233DA     SC221009  64.532  86.442  27.670
 3233DA     SC321010  64.345  86.453  27.845
 3233DA     SC421011  64.302  86.670  27.673
 3234DT     BB121012  64.412  86.740  27.088
 3234DT     BB221013  64.631  86.455  27.111
 3234DT     BB321014  64.522  86.280  27.092
 3234DT     SC121015  64.426  86.304  27.335
 3234DT     SC221016  64.509  86.151  27.461
 3234DT     SC321017  64.252  86.335  27.531
 3235DT     BB121018  64.613  86.225  26.834
 3235DT     BB221019  64.704  85.932  27.024
 3235DT     BB321020  64.549  85.794  27.019
 3235DT     SC121021  64.407  85.936  27.188
 3235DT     SC221022  64.396  85.832  27.376
 3235DT     SC321023  64.211  86.083  27.286
 3236DT     BB121024  64.688  85.629  26.850
 3236DT     BB221025  64.616  85.423  27.138
 3236DT     BB321026  64.431  85.333  27.115
 3236DT     SC121027  64.306  85.558  27.167
 3236DT     SC221028  64.208  85.544  27.358
 3236DT     SC321029  64.153  85.771  27.133
 3237DA     BB121030  64.702  85.024  27.202
 3237DA     BB221031  64.416  84.991  27.430
 3237DA     BB321032  64.247  84.915  27.325
 3237DA     SC121033  64.137  85.196  27.249
 3237DA     SC221034  63.944  85.341  27.309
 3237DA     SC321035  63.993  85.463  27.089
 3237DA     SC421036  64.183  85.258  27.108
 3238DG     BB121037  64.261  84.673  27.523
 3238DG     BB221038  63.943  84.805  27.636
 3238DG     BB321039  63.797  84.737  27.519
 3238DG     SC121040  63.815  84.970  27.320
 3238DG     SC221041  63.607  85.179  27.276
 3238DG     SC321042  63.821  85.198  27.073
 3238DG     SC421043  63.915  84.958  27.196
 3239DA     BB121044  63.634  84.629  27.807
 3239DA     BB221045  63.354  84.854  27.732
 3239DA     BB321046  63.230  84.770  27.581
 3239DA     SC121047  63.384  84.904  27.346
 3239DA     SC221048  63.344  85.083  27.177
 3239DA     SC321049  63.534  84.973  27.045
 3239DA     SC421050  63.503  84.820  27.278
 3240DT     BB121051  63.039  84.716  27.629
 3240DT     BB221052  62.881  84.999  27.471
 3240DT     BB321053  62.788  84.940  27.296
 3240DT     SC121054  63.018  84.920  27.172
 3240DT     SC221055  63.033  85.076  27.024
 3240DT     SC321056  63.223  84.814  27.044
 3241DT     BB121057  62.557  84.982  27.422
 3241DT     BB221058  62.554  85.205  27.138
 3241DT     BB321059  62.487  85.104  26.971
 3241DT     SC121060  62.714  84.976  26.946
 3241DT     SC221061  62.818  85.047  26.771
 3241DT     SC321062  62.887  84.777  26.937
 3242DA     BB121063  62.305  85.478  27.036
 3242DA     BB221064  62.423  85.462  26.689
 3242DA     BB321065  62.307  85.320  26.579
 3242DA     SC121066  62.496  85.081  26.641
 3242DA     SC221067  62.658  84.936  26.518
 3242DA     SC321068  62.626  84.771  26.712
 3242DA     SC421069  62.462  84.991  26.770
 3243DA     BB121070  62.314  85.600  26.410
 3243DA     BB221071  62.467  85.401  26.142
 3243DA     BB321072  62.325  85.262  26.063
 3243DA     SC121073  62.401  85.034  26.260
 3243DA     SC221074  62.515  84.812  26.250
 3243DA     SC321075  62.396  84.765  26.473
 3243DA     SC421076  62.318  85.023  26.397
 3244DT     BB121077  62.290  85.302  25.889
 3244DT     BB221078  62.463  85.022  25.741
 3244DT     BB321079  62.329  84.870  25.700
 3244DT     SC121080  62.312  84.805  25.953
 3244DT     SC221081  62.406  84.614  25.985
 3244DT     SC321082  62.210  84.766  26.193
 3245DA     BB121083  62.551  84.945  25.350
 3245DA     BB221084  62.546  84.583  25.407
 3245DA     BB321085  62.352  84.504  25.366
 3245DA     SC121086  62.250  84.538  25.658
 3245DA     SC221087  62.190  84.392  25.851
 3245DA     SC321088  62.060  84.596  25.938
 3245DA     SC421089  62.175  84.675  25.695
 3246DT     BB121090  62.321  84.375  25.205
 3246DT     BB221091  62.284  84.072  25.397
 3246DT     BB321092  62.085  84.015  25.402
 3246DT     SC121093  62.026  84.205  25.573
 3246DT     SC221094  61.979  84.117  25.763
 3246DT     SC321095  61.916  84.423  25.674
 3247DT     BB121096  62.127  83.804  25.228
 3247DT     BB221097  61.985  83.651  25.522
 3247DT     BB321098  61.778  83.650  25.508
 3247DT     SC121099  61.765  83.907  25.559
 3247DT     SC221100  61.678  83.937  25.754
 3247DT     SC321101  61.717  84.164  25.527
 3248DA     BB121102  61.909  83.263  25.600
 3248DA     BB221103  61.646  83.354  25.838
 3248DA     BB321104  61.455  83.353  25.742
 3248DA     SC121105  61.468  83.653  25.660
 3248DA     SC221106  61.355  83.866  25.722
 3248DA     SC321107  61.438  83.953  25.496
 3248DA     SC421108  61.528  83.688  25.515
 3249DT     BB121109  61.348  83.225  25.815
 3249DT     BB221110  61.134  83.448  26.001
 3249DT     BB321111  60.958  83.481  25.897
 3249DT     SC121112  61.079  83.639  25.725
 3249DT     SC221113  61.012  83.841  25.755
 3249DT     SC321114  61.175  83.730  25.498
 3250DT     BB121115  60.870  83.348  26.099
 3250DT     BB221116  60.691  83.661  26.101
 3250DT     BB321117  60.540  83.657  25.959
 3250DT     SC121118  60.713  83.685  25.764
 3250DT     SC221119  60.689  83.880  25.676
 3250DT     SC321120  60.853  83.632  25.547
 3251DT     BB121121  60.402  83.660  26.176
 3251DT     BB221122  60.286  83.941  25.982
 3251DT     BB321123  60.160  83.876  25.831
 3251DT     SC121124  60.362  83.783  25.692
 3251DT     SC221125  60.389  83.904  25.516
 3251DT     SC321126  60.521  83.613  25.569
 3252DA     BB121127  59.966  84.188  26.037
 3252DA     BB221128  59.923  84.244  25.677
 3252DA     BB321129  59.789  84.100  25.595
 3252DA     SC121130  60.013  83.897  25.524
 3252DA     SC221131  60.121  83.806  25.318
 3252DA     SC321132  60.196  83.612  25.468
 3252DA     SC421133  60.049  83.784  25.633
 3253DT     BB121134  59.588  84.147  25.522
 3253DT     BB221135  59.651  84.102  25.170
 3253DT     BB321136  59.561  83.928  25.103
 3253DT     SC121137  59.745  83.780  25.218
 3253DT     SC221138  59.867  83.688  25.067
 3253DT     SC321139  59.856  83.604  25.381
 3254DG     BB121140  59.357  84.199  24.867
 3254DG     BB221141  59.488  83.931  24.663
 3254DG     BB321142  59.364  83.775  24.668
 3254DG     SC121143  59.498  83.645  24.911
 3254DG     SC221144  59.648  83.387  24.912
 3254DG     SC321145  59.606  83.486  25.188
 3254DG     SC421146  59.448  83.686  25.057
 3255DA     BB121147  59.317  83.743  24.311
 3255DA     BB221148  59.460  83.406  24.312
 3255DA     BB321149  59.311  83.262  24.362
 3255DA     SC121150  59.368  83.273  24.667
 3255DA     SC221151  59.466  83.125  24.842
 3255DA     SC321152  59.340  83.274  25.009
 3255DA     SC421153  59.281  83.376  24.755
 3256DA     BB121154  59.373  83.097  24.075
 3256DA     BB221155  59.483  82.811  24.276
 3256DA     BB321156  59.315  82.694  24.338
 3256DA     SC121157  59.273  82.850  24.604
 3256DA     SC221158  59.300  82.808  24.848
 3256DA     SC321159  59.140  83.007  24.879
 3256DA     SC421160  59.172  82.975  24.602
 3257DT     BB121161  59.273  82.486  24.267
 3257DT     BB221162  59.379  82.322  24.570
 3257DT     BB321163  59.216  82.239  24.667
 3257DT     SC121164  59.136  82.476  24.749
 3257DT     SC221165  59.162  82.490  24.962
 3257DT     SC321166  58.986  82.690  24.778
 3258DT     BB121167  59.289  81.980  24.599
 3258DT     BB221168  59.275  81.978  24.959
 3258DT     BB321169  59.085  81.926  25.023
 3258DT     SC121170  58.992  82.163  24.959
 3258DT     SC221171  58.942  82.271  25.138
 3258DT     SC321172  58.850  82.350  24.838
 3259DT     BB121173  59.181  81.687  25.104
 3259DT     BB221174  59.038  81.834  25.401
 3259DT     BB321175  58.837  81.789  25.412
 3259DT     SC121176  58.779  81.962  25.223
 3259DT     SC221177  58.672  82.128  25.308
 3259DT     SC321178  58.696  82.059  24.992
 3260DA     BB121179  59.020  81.694  25.776
 3260DA     BB221180  58.720  81.892  25.848
 3260DA     BB321181  58.545  81.776  25.815
 3260DA     SC121182  58.515  81.862  25.517
 3260DA     SC221183  58.360  82.001  25.380
 3260DA     SC321184  58.453  81.871  25.180
 3260DA     SC421185  58.584  81.769  25.406
 3261DA     BB121186  58.494  81.883  26.119
 3261DA     BB221187  58.190  82.043  25.991
 3261DA     BB321188  58.040  81.896  25.953
 3261DA     SC121189  58.125  81.849  25.658
 3261DA     SC221190  58.035  81.895  25.430
 3261DA     SC321191  58.196  81.712  25.351
 3261DA     SC421192  58.231  81.731  25.629
 3262DT     BB121193  57.889  81.914  26.064
 3262DT     BB221194  57.663  82.042  25.814
 3262DT     BB321195  57.539  81.891  25.746
 3262DT     SC121196  57.734  81.785  25.605
 3262DT     SC221197  57.693  81.812  25.396
 3262DT     SC321198  57.914  81.612  25.522
 3263DT     BB121199  57.340  82.010  25.878
 3263DT     BB221200  57.222  81.986  25.538
 3263DT     BB321201  57.137  81.800  25.506
 3263DT     SC121202  57.373  81.684  25.499
 3263DT     SC221203  57.414  81.618  25.298
 3263DT     SC321204  57.574  81.527  25.565
 3264DG     BB121205  56.856  82.081  25.416
 3264DG     BB221206  56.891  81.840  25.149
 3264DG     BB321207  56.798  81.671  25.198
 3264DG     SC121208  57.043  81.546  25.332
 3264DG     SC221209  57.194  81.307  25.235
 3264DG     SC321210  57.285  81.388  25.505
 3264DG     SC421211  57.068  81.574  25.488
 3265DC     BB121212  56.620  81.591  25.083
 3265DC     BB221213  56.761  81.309  24.909
 3265DC     BB321214  56.704  81.133  25.001
 3265DC     SC121215  56.871  81.173  25.199
 3265DC     SC221216  57.031  81.030  25.188
 3265DC     SC321217  56.961  81.217  25.444
 3266DG     BB121218  56.549  81.083  24.624
 3266DG     BB221219  56.741  80.792  24.721
 3266DG     BB321220  56.632  80.674  24.837
 3266DG     SC121221  56.717  80.808  25.098
 3266DG     SC221222  56.882  80.684  25.314
 3266DG     SC321223  56.774  80.945  25.401
 3266DG     SC421224  56.633  80.934  25.152
 3267DA     BB121225  56.671  80.377  24.638
 3267DA     BB221226  56.831  80.200  24.916
 3267DA     BB321227  56.683  80.120  25.048
 3267DA     SC121228  56.673  80.372  25.229
 3267DA     SC221229  56.740  80.435  25.461
 3267DA     SC321230  56.574  80.629  25.435
 3267DA     SC421231  56.564  80.485  25.194
 3268DA     BB121232  56.796  79.797  25.018
 3268DA     BB221233  56.879  79.802  25.375
 3268DA     BB321234  56.708  79.749  25.491
 3268DA     SC121235  56.609  80.043  25.523
 3268DA     SC221236  56.590  80.212  25.704
 3268DA     SC321237  56.418  80.326  25.551
 3268DA     SC421238  56.504  80.097  25.414
 3269DT     BB121239  56.666  79.546  25.628
 3269DT     BB221240  56.729  79.710  25.944
 3269DT     BB321241  56.555  79.714  26.057
 3269DT     SC121242  56.453  79.905  25.907
 3269DT     SC221243  56.444  80.087  26.020
 3269DT     SC321244  56.292  80.029  25.740
 3270DA     BB121245  56.836  79.535  26.309
 3270DA     BB221246  56.691  79.818  26.490
 3270DA     BB321247  56.498  79.767  26.565
 3270DA     SC121248  56.345  79.865  26.313
 3270DA     SC221249  56.191  80.051  26.251
 3270DA     SC321250  56.124  79.902  26.053
 3270DA     SC421251  56.316  79.757  26.197
 3271DA     BB121252  56.653  79.873  26.825
 3271DA     BB221253  56.406  80.145  26.832
 3271DA     BB321254  56.220  80.073  26.907
 3271DA     SC121255  56.109  79.996  26.626
 3271DA     SC221256  55.933  80.075  26.469
 3271DA     SC321257  55.950  79.842  26.364
 3271DA     SC421258  56.134  79.845  26.576
 3272DG     BB121259  56.321  80.307  27.073
 3272DG     BB221260  56.024  80.460  26.932
 3272DG     BB321261  55.862  80.384  27.018
 3272DG     SC121262  55.831  80.156  26.816
 3272DG     SC221263  55.609  80.125  26.619
 3272DG     SC321264  55.780  79.883  26.625
 3272DG     SC421265  55.907  80.018  26.843
 3273DT     BB121266  55.769  80.529  27.093
 3273DT     BB221267  55.481  80.559  26.878
 3273DT     BB321268  55.324  80.446  26.953
 3273DT     SC121269  55.438  80.223  26.874
 3273DT     SC221270  55.325  80.138  26.712
 3273DT     SC321271  55.553  79.985  26.884
 3274DA     BB121272  55.199  80.836  26.857
 3274DA     BB221273  54.955  80.598  26.721
 3274DA     BB321274  54.847  80.505  26.880
 3274DA     SC121275  55.046  80.267  26.907
 3274DA     SC221276  55.047  80.022  26.862
 3274DA     SC321277  55.244  80.013  27.026
 3274DA     SC421278  55.165  80.282  27.013
 3275DA     BB121279  54.587  80.613  26.708
 3275DA     BB221280  54.481  80.263  26.681
 3275DA     BB321281  54.400  80.196  26.867
 3275DA     SC121282  54.673  80.093  26.975
 3275DA     SC221283  54.780  79.873  27.026
 3275DA     SC321284  54.940  80.008  27.174
 3275DA     SC421285  54.761  80.194  27.064
 3276DT     BB121286  54.193  80.148  26.892
 3276DT     BB221287  54.234  79.790  26.904
 3276DT     BB321288  54.204  79.722  27.097
 3276DT     SC121289  54.438  79.814  27.174
 3276DT     SC221290  54.570  79.649  27.214
 3276DT     SC321291  54.618  79.957  27.302
 3277DT     BB121292  53.955  79.609  27.041
 3277DT     BB221293  54.150  79.334  27.169
 3277DT     BB321294  54.128  79.322  27.374
 3277DT     SC121295  54.284  79.530  27.411
 3277DT     SC221296  54.469  79.466  27.501
 3277DT     SC321297  54.362  79.772  27.481
 3278DT     BB121298  53.980  79.098  27.343
 3278DT     BB221299  54.259  78.997  27.549
 3278DT     BB321300  54.215  79.032  27.749
 3278DT     SC121301  54.250  79.290  27.719
 3278DT     SC221302  54.428  79.351  27.824
 3278DT     SC321303  54.197  79.548  27.712
 3279DT     BB121304  54.215  78.772  27.754
 3279DT     BB221305  54.469  78.875  27.989
 3279DT     BB321306  54.381  78.928  28.169
 3279DT     SC121307  54.294  79.154  28.069
 3279DT     SC221308  54.402  79.318  28.157
 3279DT     SC321309  54.128  79.341  27.986
 3280DT     BB121310  54.518  78.720  28.223
 3280DT     BB221311  54.638  78.980  28.443
 3280DT     BB321312  54.501  79.012  28.595
 3280DT     SC121313  54.339  79.139  28.432
 3280DT     SC221314  54.335  79.348  28.484
 3280DT     SC321315  54.124  79.195  28.291
 3281DT     BB121316  54.704  78.915  28.718
 3281DT     BB221317  54.628  79.226  28.884
 3281DT     BB321318  54.460  79.203  29.003
 3281DT     SC121319  54.302  79.205  28.793
 3281DT     SC221320  54.186  79.386  28.792
 3281DT     SC321321  54.127  79.122  28.613
 3282DT     BB121322  54.633  79.224  29.196
 3282DT     BB221323  54.377  79.469  29.269
 3282DT     BB321324  54.212  79.376  29.353
 3282DT     SC121325  54.140  79.278  29.120
 3282DT     SC221326  53.960  79.375  29.055
 3282DT     SC321327  54.084  79.102  28.931
 3283DA     BB121328  54.304  79.680  29.630
 3283DA     BB221329  53.941  79.687  29.575
 3283DA     BB321330  53.848  79.521  29.671
 3283DA     SC121331  53.870  79.334  29.424
 3283DA     SC221332  53.717  79.230  29.257
 3283DA     SC321333  53.909  79.065  29.214
 3283DA     SC421334  54.001  79.240  29.413
 3284DA     BB121335  53.647  79.732  29.841
 3284DA     BB221336  53.360  79.570  29.680
 3284DA     BB321337  53.314  79.387  29.779
 3284DA     SC121338  53.498  79.214  29.596
 3284DA     SC221339  53.472  79.041  29.418
 3284DA     SC321340  53.715  78.979  29.472
 3284DA     SC421341  53.649  79.189  29.645
 3285DT     BB121342  53.128  79.342  29.904
 3285DT     BB221343  52.964  79.133  29.660
 3285DT     BB321344  52.963  78.936  29.725
 3285DT     SC121345  53.218  78.908  29.669
 3285DT     SC221346  53.240  78.776  29.501
 3285DT     SC321347  53.476  78.868  29.703
 3286DC     BB121348  52.690  78.931  29.792
 3286DC     BB221349  52.727  78.661  29.556
 3286DC     BB321350  52.772  78.485  29.656
 3286DC     SC121351  53.018  78.564  29.700
 3286DC     SC221352  53.153  78.445  29.582
 3286DC     SC321353  53.236  78.637  29.828
 3287DG     BB121354  52.424  78.400  29.459
 3287DG     BB221355  52.680  78.156  29.382
 3287DG     BB321356  52.693  78.023  29.530
 3287DG     SC121357  52.902  78.182  29.688
 3287DG     SC221358  53.185  78.101  29.735
 3287DG     SC321359  53.115  78.339  29.896
 3287DG     SC421360  52.852  78.291  29.794
 3288DA     BB121361  52.656  77.770  29.293
 3288DA     BB221362  52.986  77.637  29.382
 3288DA     BB321363  52.975  77.525  29.563
 3288DA     SC121364  53.037  77.769  29.746
 3288DA     SC221365  53.223  77.848  29.892
 3288DA     SC321366  53.046  77.996  30.003
 3288DA     SC421367  52.912  77.853  29.803
 3289DT     BB121368  53.008  77.317  29.564
 3289DT     BB221369  53.338  77.331  29.709
 3289DT     BB321370  53.332  77.265  29.905
 3289DT     SC121371  53.220  77.489  29.984
 3289DT     SC221372  53.360  77.601  30.103
 3289DT     SC321373  53.041  77.656  30.084
 3290DA     BB121374  53.630  77.039  29.717
 3290DA     BB221375  53.773  77.181  30.023
 3290DA     BB321376  53.700  77.077  30.194
 3290DA     SC121377  53.456  77.267  30.234
 3290DA     SC221378  53.382  77.440  30.398
 3290DA     SC321379  53.147  77.398  30.304
 3290DA     SC421380  53.318  77.226  30.164
 3291DT     BB121381  53.831  76.969  30.306
 3291DT     BB221382  53.854  77.207  30.576
 3291DT     BB321383  53.750  77.137  30.741
 3291DT     SC121384  53.519  77.192  30.629
 3291DT     SC221385  53.426  77.356  30.733
 3291DT     SC321386  53.280  77.157  30.523
 3292DG     BB121387  54.136  77.215  30.841
 3292DG     BB221388  53.903  77.391  31.055
 3292DG     BB321389  53.826  77.265  31.189
 3292DG     SC121390  53.590  77.183  31.012
 3292DG     SC221391  53.302  77.243  31.064
 3292DG     SC321392  53.331  77.056  30.837
 3292DG     SC421393  53.608  77.060  30.910
 3293DA     BB121394  53.923  77.527  31.386
 3293DA     BB221395  53.577  77.560  31.502
 3293DA     BB321396  53.524  77.396  31.627
 3293DA     SC121397  53.417  77.220  31.394
 3293DA     SC221398  53.197  77.134  31.313
 3293DA     SC321399  53.335  76.959  31.187
 3293DA     SC421400  53.521  77.118  31.324
 3294DA     BB121401  53.442  77.670  31.786
 3294DA     BB221402  53.102  77.531  31.792
 3294DA     BB321403  53.095  77.360  31.919
 3294DA     SC121404  53.160  77.158  31.691
 3294DA     SC221405  53.041  76.980  31.563
 3294DA     SC321406  53.276  76.894  31.505
 3294DA     SC421407  53.314  77.120  31.667
 3295DT     BB121408  52.987  77.384  32.070
 3295DT     BB221409  52.714  77.169  31.975
 3295DT     BB321410  52.733  76.985  32.068
 3295DT     SC121411  52.928  76.914  31.907
 3295DT     SC221412  52.859  76.758  31.776
 3295DT     SC321413  53.168  76.844  31.824
 3296DA     BB121414  52.343  77.110  32.163
 3296DA     BB221415  52.323  76.760  32.055
 3296DA     BB321416  52.398  76.631  32.207
 3296DA     SC121417  52.690  76.635  32.099
 3296DA     SC221418  52.848  76.477  31.988
 3296DA     SC321419  53.032  76.637  32.069
 3296DA     SC421420  52.790  76.746  32.159
 3297DT     BB121421  52.277  76.484  32.336
 3297DT     BB221422  52.392  76.182  32.176
 3297DT     BB321423  52.515  76.076  32.304
 3297DT     SC121424  52.712  76.245  32.268
 3297DT     SC221425  52.870  76.148  32.157
 3297DT     SC321426  52.896  76.427  32.320
 3298DT     BB121427  52.331  75.863  32.383
 3298DT     BB221428  52.616  75.684  32.253
 3298DT     BB321429  52.745  75.635  32.407
 3298DT     SC121430  52.831  75.882  32.425
 3298DT     SC221431  53.034  75.892  32.356
 3298DT     SC321432  52.879  76.122  32.524
 3299DT     BB121433  52.683  75.355  32.421
 3299DT     BB221434  53.038  75.363  32.357
 3299DT     BB321435  53.143  75.356  32.536
 3299DT     SC121436  53.084  75.606  32.589
 3299DT     SC221437  53.262  75.726  32.575
 3299DT     SC321438  52.982  75.816  32.711
 3300DA     BB121439  53.293  75.055  32.289
 3300DA     BB221440  53.576  75.256  32.407
 3300DA     BB321441  53.619  75.211  32.611
 3300DA     SC121442  53.430  75.431  32.725
 3300DA     SC221443  53.452  75.649  32.844
 3300DA     SC321444  53.208  75.612  32.915
 3300DA     SC421445  53.279  75.389  32.759
 3301DG     BB121446  53.878  75.148  32.466
 3301DG     BB221447  53.996  75.426  32.664
 3301DG     BB321448  54.031  75.367  32.850
 3301DG     SC121449  53.747  75.428  32.948
 3301DG     SC221450  53.671  75.639  33.145
 3301DG     SC321451  53.440  75.464  33.084
 3301DG     SC421452  53.635  75.314  32.935
 3302DT     BB121453  54.217  75.399  32.897
 3302DT     BB221454  54.192  75.680  33.122
 3302DT     BB321455  54.189  75.613  33.318
 3302DT     SC121456  53.941  75.531  33.294
 3302DT     SC221457  53.812  75.656  33.412
 3302DT     SC321458  53.733  75.369  33.286
 3303DT     BB121459  54.421  75.730  33.316
 3303DT     BB221460  54.233  75.889  33.580
 3303DT     BB321461  54.235  75.770  33.750
 3303DT     SC121462  54.063  75.603  33.643
 3303DT     SC221463  53.874  75.619  33.746
 3303DT     SC321464  53.962  75.380  33.546
 3304DG     BB121465  54.369  76.146  33.829
 3304DG     BB221466  54.113  76.043  34.062
 3304DG     BB321467  54.187  75.912  34.191
 3304DG     SC121468  54.120  75.667  34.020
 3304DG     SC221469  53.920  75.456  34.087
 3304DG     SC321470  54.078  75.379  33.849
 3304DG     SC421471  54.226  75.617  33.911
 3305DT     BB121472  54.182  75.969  34.386
 3305DT     BB221473  53.928  75.755  34.527
 3305DT     BB321474  54.016  75.593  34.620
 3305DT     SC121475  54.071  75.481  34.389
 3305DT     SC221476  53.948  75.306  34.364
 3305DT     SC321477  54.210  75.381  34.188
 3306DA     BB121478  53.745  75.765  34.891
 3306DA     BB221479  53.695  75.402  34.897
 3306DA     BB321480  53.859  75.306  34.993
 3306DA     SC121481  54.022  75.267  34.731
 3306DA     SC221482  54.092  75.078  34.583
 3306DA     SC321483  54.271  75.240  34.496
 3306DA     SC421484  54.127  75.382  34.691
 3307DT     BB121485  53.835  75.212  35.177
 3307DT     BB221486  53.867  74.870  35.065
 3307DT     BB321487  54.053  74.796  35.118
 3307DT     SC121488  54.172  74.934  34.930
 3307DT     SC221489  54.244  74.801  34.778
 3307DT     SC321490  54.329  75.111  34.814
 3308DA     BB121491  53.801  74.504  35.294
 3308DA     BB221492  54.066  74.321  35.119
 3308DA     BB321493  54.247  74.328  35.232
 3308DA     SC121494  54.352  74.587  35.095
 3308DA     SC221495  54.534  74.651  34.937
 3308DA     SC321496  54.500  74.889  35.027
 3308DA     SC421497  54.317  74.727  35.165
 3309DA     BB121498  54.294  73.981  35.266
 3309DA     BB221499  54.611  74.008  35.083
 3309DA     BB321500  54.770  74.057  35.217
 3309DA     SC121501  54.737  74.365  35.181
 3309DA     SC221502  54.863  74.553  35.077
 3309DA     SC321503  54.723  74.704  35.230
 3309DA     SC421504  54.641  74.442  35.285
 3310DT     BB121505  55.004  73.926  35.336
 3310DT     BB221506  55.244  74.096  35.127
 3310DT     BB321507  55.372  74.209  35.243
 3310DT     SC121508  55.186  74.390  35.284
 3310DT     SC221509  55.238  74.571  35.181
 3310DT     SC321510  55.012  74.542  35.411
 3311DT     BB121511  55.668  74.060  35.290
 3311DT     BB221512  55.762  74.376  35.143
 3311DT     BB321513  55.835  74.503  35.289
 3311DT     SC121514  55.594  74.547  35.383
 3311DT     SC221515  55.537  74.750  35.340
 3311DT     SC321516  55.390  74.551  35.550
 3312DA     BB121517  56.165  74.503  35.027
 3312DA     BB221518  56.061  74.852  35.069
 3312DA     BB321519  56.142  74.933  35.249
 3312DA     SC121520  55.899  74.851  35.425
 3312DA     SC221521  55.712  74.964  35.545
 3312DA     SC321522  55.696  74.747  35.681
 3312DA     SC421523  55.906  74.708  35.499
 3313DT     BB121524  56.273  75.085  35.229
 3313DT     BB221525  56.033  75.342  35.311
 3313DT     BB321526  56.072  75.417  35.500
 3313DT     SC121527  55.975  75.203  35.615
 3313DT     SC221528  55.791  75.252  35.714
 3313DT     SC321529  55.964  74.982  35.758
 3314DT     BB121530  56.131  75.626  35.356
 3314DT     BB221531  55.859  75.727  35.570
 3314DT     BB321532  55.931  75.773  35.759
 3314DT     SC121533  55.965  75.519  35.816
 3314DT     SC221534  55.822  75.460  35.966
 3314DT     SC321535  56.085  75.293  35.878
 3315DA     BB121536  55.664  76.055  35.595
 3315DA     BB221537  55.560  75.977  35.937
 3315DA     BB321538  55.703  76.051  36.077
 3315DA     SC121539  55.871  75.789  36.081
 3315DA     SC221540  55.919  75.603  36.240
 3315DA     SC321541  56.125  75.558  36.093
 3315DA     SC421542  55.994  75.778  35.978
 3316DG     BB121543  55.442  76.190  36.161
 3316DG     BB221544  55.498  76.000  36.464
 3316DG     BB321545  55.642  76.085  36.571
 3316DG     SC121546  55.868  75.927  36.439
 3316DG     SC221547  56.040  75.723  36.572
 3316DG     SC321548  56.143  75.787  36.302
 3316DG     SC421549  55.937  75.986  36.307
 3317DT     BB121550  55.591  76.155  36.763
 3317DT     BB221551  55.750  75.911  36.977
 3317DT     BB321552  55.929  75.987  37.049
 3317DT     SC121553  56.046  75.953  36.816
 3317DT     SC221554  56.192  75.795  36.833
 3317DT     SC321555  56.169  76.008  36.590
 3318DA     BB121556  55.709  75.850  37.378
 3318DA     BB221557  56.049  75.715  37.405
 3318DA     BB321558  56.186  75.868  37.461
 3318DA     SC121559  56.253  75.948  37.168
 3318DA     SC221560  56.448  75.932  37.012
 3318DA     SC321561  56.332  76.120  36.881
 3318DA     SC421562  56.166  76.066  37.101
 3319DG     BB121563  56.232  75.682  37.703
 3319DG     BB221564  56.564  75.657  37.561
 3319DG     BB321565  56.672  75.816  37.614
 3319DG     SC121566  56.589  75.985  37.373
 3319DG     SC221567  56.768  76.074  37.151
 3319DG     SC321568  56.504  76.205  37.132
 3319DG     SC421569  56.457  76.075  37.383
 3320DA     BB121570  56.897  75.573  37.705
 3320DA     BB221571  57.143  75.718  37.475
 3320DA     BB321572  57.219  75.901  37.555
 3320DA     SC121573  57.004  76.079  37.418
 3320DA     SC221574  56.993  76.248  37.235
 3320DA     SC321575  56.774  76.323  37.345
 3320DA     SC421576  56.871  76.112  37.502
 3321DC     BB121577  57.394  75.882  37.586
 3321DC     BB221578  57.513  76.088  37.315
 3321DC     BB321579  57.555  76.278  37.384
 3321DC     SC121580  57.300  76.337  37.399
 3321DC     SC221581  57.251  76.482  37.248
 3321DC     SC321582  57.066  76.402  37.501
 3322DA     BB121583  57.864  76.115  37.145
 3322DA     BB221584  57.795  76.457  37.034
 3322DA     BB321585  57.851  76.597  37.185
 3322DA     SC121586  57.572  76.598  37.323
 3322DA     SC221587  57.381  76.755  37.351
 3322DA     SC321588  57.315  76.607  37.550
 3322DA     SC421589  57.549  76.494  37.443
 3323DA     BB121590  58.004  76.711  36.917
 3323DA     BB221591  57.815  77.020  36.972
 3323DA     BB321592  57.886  77.121  37.146
 3323DA     SC121593  57.687  76.980  37.339
 3323DA     SC221594  57.487  77.040  37.475
 3323DA     SC321595  57.539  76.828  37.609
 3323DA     SC421596  57.737  76.845  37.411
 3324DC     BB121597  57.970  77.292  37.115
 3324DC     BB221598  57.706  77.499  37.248
 3324DC     BB321599  57.754  77.561  37.439
 3324DC     SC121600  57.702  77.324  37.538
 3324DC     SC221601  57.524  77.334  37.658
 3324DC     SC321602  57.738  77.090  37.655
 3325DA     BB121603  57.653  77.906  37.221
 3325DA     BB221604  57.470  77.915  37.538
 3325DA     BB321605  57.602  77.957  37.700
 3325DA     SC121606  57.666  77.659  37.759
 3325DA     SC221607  57.619  77.492  37.938
 3325DA     SC321608  57.819  77.363  37.842
 3325DA     SC421609  57.794  77.594  37.686
 3326DA     BB121610  57.379  78.193  37.752
 3326DA     BB221611  57.321  78.037  38.079
 3326DA     BB321612  57.483  78.078  38.211
 3326DA     SC121613  57.645  77.824  38.131
 3326DA     SC221614  57.711  77.608  38.235
 3326DA     SC321615  57.894  77.601  38.055
 3326DA     SC421616  57.753  77.839  38.013
 3327DT     BB121617  57.444  78.190  38.368
 3327DT     BB221618  57.457  77.927  38.614
 3327DT     BB321619  57.636  77.935  38.717
 3327DT     SC121620  57.767  77.835  38.512
 3327DT     SC221621  57.833  77.636  38.560
 3327DT     SC321622  57.937  77.816  38.312
 3328DA     BB121623  57.328  77.925  39.003
 3328DA     BB221624  57.578  77.673  39.096
 3328DA     BB321625  57.755  77.768  39.170
 3328DA     SC121626  57.892  77.783  38.891
 3328DA     SC221627  58.085  77.677  38.774
 3328DA     SC321628  58.074  77.879  38.617
 3328DA     SC421629  57.870  77.917  38.805
 3329DA     BB121630  57.701  77.569  39.428
 3329DA     BB221631  58.027  77.418  39.356
 3329DA     BB321632  58.184  77.548  39.418
 3329DA     SC121633  58.204  77.694  39.144
 3329DA     SC221634  58.365  77.709  38.954
 3329DA     SC321635  58.244  77.927  38.894
 3329DA     SC421636  58.117  77.828  39.124
 3330DA     BB121637  58.292  77.287  39.592
 3330DA     BB221638  58.597  77.299  39.389
 3330DA     BB321639  58.724  77.457  39.456
 3330DA     SC121640  58.602  77.669  39.264
 3330DA     SC221641  58.672  77.797  39.061
 3330DA     SC321642  58.483  77.959  39.122
 3330DA     SC421643  58.481  77.759  39.319
 3331DA     BB121644  58.962  77.226  39.491
 3331DA     BB221645  59.152  77.406  39.235
 3331DA     BB321646  59.249  77.576  39.320
 3331DA     SC121647  59.012  77.770  39.263
 3331DA     SC221648  58.964  77.964  39.113
 3331DA     SC321649  58.778  78.020  39.280
 3331DA     SC421650  58.903  77.789  39.379
 3332DG     BB121651  59.524  77.447  39.238
 3332DG     BB221652  59.539  77.730  39.013
 3332DG     BB321653  59.617  77.887  39.107
 3332DG     SC121654  59.348  77.991  39.209
 3332DG     SC221655  59.215  78.245  39.125
 3332DG     SC321656  59.073  78.122  39.353
 3332DG     SC421657  59.293  77.938  39.349
 3333DT     BB121658  59.806  77.978  39.036
 3333DT     BB221659  59.678  78.271  38.870
 3333DT     BB321660  59.713  78.439  38.986
 3333DT     SC121661  59.520  78.373  39.152
 3333DT     SC221662  59.357  78.512  39.131
 3333DT     SC321663  59.398  78.302  39.375
 3334DT     BB121664  59.888  78.505  38.799
 3334DT     BB221665  59.649  78.776  38.808
 3334DT     BB321666  59.698  78.908  38.959
 3334DT     SC121667  59.611  78.743  39.143
 3334DT     SC221668  59.432  78.823  39.231
 3334DT     SC321669  59.611  78.581  39.351
 3335DA     BB121670  59.617  79.092  38.589
 3335DA     BB221671  59.425  79.263  38.851
 3335DA     BB321672  59.557  79.369  38.982
 3335DA     SC121673  59.593  79.131  39.179
 3335DA     SC221674  59.526  79.073  39.412
 3335DA     SC321675  59.717  78.902  39.402
 3335DA     SC421676  59.717  79.032  39.154
 3336DT     BB121677  59.515  79.536  38.964
 3336DT     BB221678  59.357  79.578  39.286
 3336DT     BB321679  59.495  79.648  39.424
 3336DT     SC121680  59.610  79.413  39.441
 3336DT     SC221681  59.570  79.328  39.635
 3336DT     SC321682  59.794  79.225  39.425
 3337DT     BB121683  59.350  79.865  39.407
 3337DT     BB221684  59.354  79.778  39.758
 3337DT     BB321685  59.531  79.841  39.844
 3337DT     SC121686  59.665  79.646  39.730
 3337DT     SC221687  59.728  79.506  39.880
 3337DT     SC321688  59.839  79.522  39.577
 3338DT     BB121689  59.388  80.027  39.969
 3338DT     BB221690  59.561  79.852  40.232
 3338DT     BB321691  59.753  79.927  40.253
 3338DT     SC121692  59.832  79.806  40.035
 3338DT     SC221693  59.968  79.647  40.087
 3338DT     SC321694  59.924  79.769  39.790
 3339DT     BB121695  59.689  80.056  40.486
 3339DT     BB221696  59.974  79.853  40.574
 3339DT     BB321697  60.149  79.956  40.533
 3339DT     SC121698  60.121  79.917  40.275
 3339DT     SC221699  60.273  79.780  40.207
 3339DT     SC321700  60.088  79.968  40.019
 3340DT     BB121701  60.211  80.016  40.802
 3340DT     BB221702  60.506  79.848  40.682
 3340DT     BB321703  60.639  79.985  40.603
 3340DT     SC121704  60.493  80.015  40.387
 3340DT     SC221705  60.596  79.930  40.219
 3340DT     SC321706  60.340  80.129  40.205
 3341DC     BB121707  60.828  79.985  40.819
 3341DC     BB221708  61.027  79.899  40.530
 3341DC     BB321709  61.108  80.071  40.447
 3341DC     SC121710  60.877  80.139  40.344
 3341DC     SC221711  60.885  80.120  40.130
 3341DC     SC321712  60.657  80.278  40.298
 3342DT     BB121713  61.371  80.025  40.538
 3342DT     BB221714  61.405  80.048  40.179
 3342DT     BB321715  61.445  80.244  40.125
 3342DT     SC121716  61.195  80.314  40.168
 3342DT     SC221717  61.100  80.359  39.981
 3342DT     SC321718  60.987  80.435  40.275
 3343DG     BB121719  61.758  80.025  39.984
 3343DG     BB221720  61.606  80.220  39.721
 3343DG     BB321721  61.670  80.409  39.730
 3343DG     SC121722  61.446  80.501  39.918
 3343DG     SC221723  61.228  80.693  39.850
 3343DG     SC321724  61.227  80.631  40.139
 3343DG     SC421725  61.467  80.488  40.076
 3344DT     BB121726  61.783  80.495  39.563
 3344DT     BB221727  61.535  80.709  39.413
 3344DT     BB321728  61.572  80.907  39.463
 3344DT     SC121729  61.483  80.870  39.707
 3344DT     SC221730  61.297  80.976  39.732
 3344DT     SC321731  61.480  80.854  39.970
 3345DA     BB121732  61.527  80.882  39.047
 3345DA     BB221733  61.317  81.157  39.167
 3345DA     BB321734  61.437  81.323  39.226
 3345DA     SC121735  61.465  81.230  39.521
 3345DA     SC221736  61.385  81.303  39.746
 3345DA     SC321737  61.580  81.164  39.838
 3345DA     SC421738  61.593  81.139  39.559
 3346DT     BB121739  61.428  81.499  39.118
 3346DT     BB221740  61.242  81.690  39.362
 3346DT     BB321741  61.367  81.826  39.455
 3346DT     SC121742  61.480  81.636  39.597
 3346DT     SC221743  61.423  81.658  39.804
 3346DT     SC321744  61.665  81.473  39.692
 3347DT     BB121745  61.258  82.043  39.322
 3347DT     BB221746  61.217  82.124  39.671
 3347DT     BB321747  61.384  82.225  39.740
 3347DT     SC121748  61.526  82.005  39.744
 3347DT     SC221749  61.566  81.949  39.948
 3347DT     SC321750  61.714  81.830  39.685
 3348DG     BB121751  61.076  82.486  39.804
 3348DG     BB221752  61.263  82.429  40.108
 3348DG     BB321753  61.427  82.541  40.109
 3348DG     SC121754  61.602  82.332  39.970
 3348DG     SC221755  61.833  82.187  40.092
 3348DG     SC321756  61.817  82.134  39.801
 3348DG     SC421757  61.608  82.329  39.810
 3349DC     BB121758  61.460  82.698  40.265
 3349DC     BB221759  61.701  82.532  40.475
 3349DC     BB321760  61.889  82.614  40.447
 3349DC     SC121761  61.915  82.494  40.215
 3349DC     SC221762  62.066  82.341  40.230
 3349DC     SC321763  61.943  82.460  39.955
 3350DC     BB121764  61.853  82.704  40.691
 3350DC     BB221765  62.149  82.498  40.704
 3350DC     BB321766  62.314  82.606  40.642
 3350DC     SC121767  62.239  82.591  40.391
 3350DC     SC221768  62.375  82.463  40.284
 3350DC     SC321769  62.159  82.665  40.151
 3351DA     BB121770  62.357  82.377  40.993
 3351DA     BB221771  62.643  82.315  40.772
 3351DA     BB321772  62.762  82.491  40.754
 3351DA     SC121773  62.609  82.598  40.505
 3351DA     SC221774  62.652  82.632  40.262
 3351DA     SC321775  62.456  82.797  40.271
 3351DA     SC421776  62.486  82.698  40.531
 3352DA     BB121777  62.942  82.222  40.819
 3352DA     BB221778  63.125  82.312  40.515
 3352DA     BB321779  63.222  82.500  40.539
 3352DA     SC121780  62.983  82.666  40.430
 3352DA     SC221781  62.930  82.802  40.227
 3352DA     SC321782  62.746  82.907  40.372
 3352DA     SC421783  62.875  82.720  40.536
 3353DT     BB121784  63.397  82.474  40.531
 3353DT     BB221785  63.460  82.636  40.215
 3353DT     BB321786  63.516  82.833  40.247
 3353DT     SC121787  63.270  82.903  40.305
 3353DT     SC221788  63.193  83.028  40.148
 3353DT     SC321789  63.063  82.990  40.443
 3354DT     BB121790  63.770  82.768  40.178
 3354DT     BB221791  63.688  83.046  39.963
 3354DT     BB321792  63.726  83.224  40.061
 3354DT     SC121793  63.512  83.197  40.211
 3354DT     SC221794  63.366  83.344  40.154
 3354DT     SC321795  63.362  83.166  40.425
 3355DT     BB121796  63.959  83.282  39.916
 3355DT     BB221797  63.758  83.579  39.874
 3355DT     BB321798  63.799  83.714  40.025
 3355DT     SC121799  63.663  83.571  40.199
 3355DT     SC221800  63.484  83.677  40.253
 3355DT     SC321801  63.610  83.423  40.410
 3356DT     BB121802  63.952  83.893  39.868
 3356DT     BB221803  63.696  84.104  40.009
 3356DT     BB321804  63.762  84.185  40.187
 3356DT     SC121805  63.730  83.957  40.312
 3356DT     SC221806  63.566  83.973  40.450
 3356DT     SC321807  63.788  83.737  40.446
 3357DG     BB121808  63.686  84.517  39.959
 3357DG     BB221809  63.515  84.538  40.277
 3357DG     BB321810  63.641  84.601  40.418
 3357DG     SC121811  63.734  84.320  40.495
 3357DG     SC221812  63.683  84.184  40.756
 3357DG     SC321813  63.874  84.029  40.592
 3357DG     SC421814  63.858  84.256  40.417
 3358DT     BB121815  63.619  84.803  40.535
 3358DT     BB221816  63.501  84.683  40.855
 3358DT     BB321817  63.652  84.698  40.996
 3358DT     SC121818  63.779  84.492  40.894
 3358DT     SC221819  63.768  84.327  41.032
 3358DT     SC321820  63.968  84.350  40.778
 3359DA     BB121821  63.317  84.889  41.160
 3359DA     BB221822  63.448  84.657  41.412
 3359DA     BB321823  63.627  84.735  41.499
 3359DA     SC121824  63.815  84.598  41.293
 3359DA     SC221825  63.983  84.414  41.291
 3359DA     SC321826  64.071  84.524  41.076
 3359DA     SC421827  63.856  84.682  41.162
 3360DC     BB121828  63.626  84.789  41.696
 3360DC     BB221829  63.818  84.510  41.819
 3360DC     BB321830  64.010  84.572  41.865
 3360DC     SC121831  64.076  84.585  41.611
 3360DC     SC221832  64.216  84.429  41.566
 3360DC     SC321833  64.150  84.686  41.379
 3361DT     BB121834  63.963  84.557  42.138
 3361DT     BB221835  64.251  84.345  42.087
 3361DT     BB321836  64.425  84.456  42.102
 3361DT     SC121837  64.385  84.565  41.866
 3361DT     SC221838  64.532  84.491  41.728
 3361DT     SC321839  64.340  84.748  41.682
 3362DG     BB121840  64.462  84.170  42.392
 3362DG     BB221841  64.753  84.176  42.177
 3362DG     BB321842  64.874  84.325  42.231
 3362DG     SC121843  64.743  84.532  42.047
 3362DG     SC221844  64.870  84.661  41.810
 3362DG     SC321845  64.611  84.788  41.873
 3362DG     SC421846  64.619  84.616  42.102
 3363DT     BB121847  65.096  84.301  42.317
 3363DT     BB221848  65.291  84.399  42.030
 3363DT     BB321849  65.377  84.584  42.063
 3363DT     SC121850  65.147  84.706  42.026
 3363DT     SC221851  65.153  84.817  41.842
 3363DT     SC321852  64.931  84.849  42.076
 3364DG     BB121853  65.695  84.337  41.998
 3364DG     BB221854  65.706  84.624  41.777
 3364DG     BB321855  65.782  84.781  41.874
 3364DG     SC121856  65.510  84.879  41.976
 3364DG     SC221857  65.374  85.132  41.895
 3364DG     SC321858  65.233  85.003  42.121
 3364DG     SC421859  65.455  84.823  42.115
 3365DA     BB121860  66.005  84.812  41.612
 3365DA     BB221861  65.873  85.146  41.538
 3365DA     BB321862  65.951  85.289  41.675
 3365DA     SC121863  65.719  85.256  41.880
 3365DA     SC221864  65.526  85.390  41.963
 3365DA     SC321865  65.530  85.232  42.165
 3365DA     SC421866  65.739  85.148  41.998
 3366DA     BB121867  66.022  85.424  41.389
 3366DA     BB221868  65.808  85.703  41.493
 3366DA     BB321869  65.907  85.822  41.640
 3366DA     SC121870  65.794  85.661  41.881
 3366DA     SC221871  65.631  85.697  42.066
 3366DA     SC321872  65.751  85.502  42.182
 3366DA     SC421873  65.882  85.539  41.937
 3367DA     BB121874  65.808  86.030  41.411
 3367DA     BB221875  65.614  86.191  41.677
 3367DA     BB321876  65.744  86.292  41.813
 3367DA     SC121877  65.777  86.047  42.002
 3367DA     SC221878  65.707  85.980  42.232
 3367DA     SC321879  65.898  85.809  42.218
 3367DA     SC421880  65.901  85.948  41.975
 3368DA     BB121881  65.512  86.504  41.725
 3368DA     BB221882  65.435  86.528  42.083
 3368DA     BB321883  65.595  86.624  42.186
 3368DA     SC121884  65.747  86.360  42.249
 3368DA     SC221885  65.799  86.220  42.448
 3368DA     SC321886  65.987  86.121  42.304
 3368DA     SC421887  65.859  86.312  42.144
 3369DA     BB121888  65.325  86.785  42.280
 3369DA     BB221889  65.422  86.698  42.623
 3369DA     BB321890  65.597  86.805  42.680
 3369DA     SC121891  65.793  86.584  42.582
 3369DA     SC221892  65.949  86.417  42.683
 3369DA     SC321893  66.059  86.411  42.451
 3369DA     SC421894  65.848  86.595  42.432
 3370DG     BB121895  65.411  86.916  42.904
 3370DG     BB221896  65.653  86.761  43.124
 3370DG     BB321897  65.814  86.877  43.140
 3370DG     SC121898  65.960  86.751  42.902
 3370DG     SC221899  66.210  86.589  42.915
 3370DG     SC321900  66.139  86.650  42.635
 3370DG     SC421901  65.935  86.811  42.755
 3371DG     BB121902  65.793  86.919  43.476
 3371DG     BB221903  66.120  86.768  43.502
 3371DG     BB321904  66.261  86.907  43.477
 3371DG     SC121905  66.276  86.871  43.173
 3371DG     SC221906  66.509  86.763  43.021
 3371DG     SC321907  66.305  86.873  42.837
 3371DG     SC421908  66.179  86.957  43.080
 3372DG     BB121909  66.427  86.895  43.785
 3372DG     BB221910  66.725  86.794  43.606
 3372DG     BB321911  66.831  86.954  43.557
 3372DG     SC121912  66.692  86.994  43.287
 3372DG     SC221913  66.818  86.961  43.018
 3372DG     SC321914  66.548  87.078  42.994
 3372DG     SC421915  66.560  87.083  43.280
 3373DA     BB121916  67.146  86.862  43.712
 3373DA     BB221917  67.318  86.859  43.388
 3373DA     BB321918  67.386  87.055  43.339
 3373DA     SC121919  67.126  87.133  43.186
 3373DA     SC221920  67.056  87.177  42.951
 3373DA     SC321921  66.857  87.301  43.055
 3373DA     SC421922  67.011  87.207  43.270
 3374DC     BB121923  67.611  87.132  43.326
 3374DC     BB221924  67.627  87.136  42.965
 3374DC     BB321925  67.645  87.330  42.897
 3374DC     SC121926  67.392  87.380  42.948
 3374DC     SC221927  67.285  87.403  42.763
 3374DC     SC321928  67.178  87.487  43.057
 3375DT     BB121929  67.915  87.305  42.826
 3375DT     BB221930  67.752  87.403  42.519
 3375DT     BB321931  67.753  87.609  42.502
 3375DT     SC121932  67.564  87.633  42.682
 3375DT     SC221933  67.382  87.699  42.588
 3375DT     SC321934  67.442  87.700  42.907
 3376DC     BB121935  67.942  87.600  42.302
 3376DC     BB221936  67.664  87.773  42.152
 3376DC     BB321937  67.680  87.977  42.187
 3376DC     SC121938  67.607  87.947  42.438
 3376DC     SC221939  67.412  88.033  42.466
 3376DC     SC321940  67.619  87.949  42.701
 3377DA     BB121941  67.624  87.925  41.776
 3377DA     BB221942  67.387  88.181  41.889
 3377DA     BB321943  67.489  88.364  41.929
 3377DA     SC121944  67.543  88.298  42.228
 3377DA     SC221945  67.465  88.378  42.451
 3377DA     SC321946  67.680  88.270  42.541
 3377DA     SC421947  67.682  88.227  42.264
 3378DA     BB121948  67.262  88.481  41.722
 3378DA     BB221949  67.147  88.695  41.997
 3378DA     BB321950  67.280  88.859  42.024
 3378DA     SC121951  67.459  88.711  42.230
 3378DA     SC221952  67.509  88.724  42.474
 3378DA     SC321953  67.723  88.594  42.417
 3378DA     SC421954  67.587  88.631  42.174
 3379DT     BB121955  67.219  89.058  41.982
 3379DT     BB221956  67.189  89.166  42.325
 3379DT     BB321957  67.344  89.295  42.373
 3379DT     SC121958  67.515  89.096  42.385
 3379DT     SC221959  67.575  89.066  42.590
 3379DT     SC321960  67.723  88.943  42.328
 3380DA     BB121961  66.994  89.500  42.478
 3380DA     BB221962  67.222  89.517  42.764
 3380DA     BB321963  67.378  89.658  42.727
 3380DA     SC121964  67.571  89.449  42.601
 3380DA     SC221965  67.786  89.338  42.660
 3380DA     SC321966  67.806  89.289  42.409
 3380DA     SC421967  67.566  89.430  42.442
 3381DA     BB121968  67.275  89.787  43.011
 3381DA     BB221969  67.609  89.715  43.145
 3381DA     BB321970  67.749  89.862  43.078
 3381DA     SC121971  67.830  89.704  42.823
 3381DA     SC221972  68.030  89.581  42.738
 3381DA     SC321973  67.926  89.612  42.506
 3381DA     SC421974  67.750  89.735  42.687
 3382DT     BB121975  67.822  89.971  43.218
 3382DT     BB221976  68.149  89.817  43.225
 3382DT     BB321977  68.286  89.938  43.127
 3382DT     SC121978  68.190  89.870  42.892
 3382DT     SC221979  68.334  89.749  42.789
 3382DT     SC321980  68.075  89.891  42.656
 3383DT     BB121981  68.389  89.987  43.368
 3383DT     BB221982  68.663  89.854  43.174
 3383DT     BB321983  68.752  90.005  43.064
 3383DT     SC121984  68.552  90.010  42.894
 3383DT     SC221985  68.618  89.933  42.704
 3383DT     SC321986  68.344  90.098  42.758
 3384DG     BB121987  69.034  89.826  43.298
 3384DG     BB221988  69.139  89.844  42.952
 3384DG     BB321989  69.197  90.030  42.909
 3384DG     SC121990  68.918  90.122  42.821
 3384DG     SC221991  68.837  90.198  42.544
 3384DG     SC321992  68.623  90.262  42.737
 3384DG     SC421993  68.818  90.182  42.931
 3385DG     BB121994  69.495  89.916  42.823
 3385DG     BB221995  69.426  90.046  42.492
 3385DG     BB321996  69.468  90.240  42.485
 3385DG     SC121997  69.188  90.329  42.570
 3385DG     SC221998  68.992  90.477  42.401
 3385DG     SC321999  68.898  90.462  42.681
 3385DG     SC422000  69.156  90.345  42.726
 3386DA     BB122001  69.673  90.187  42.204
 3386DA     BB222002  69.466  90.416  42.005
 3386DA     BB322003  69.514  90.619  42.052
 3386DA     SC122004  69.302  90.643  42.278
 3386DA     SC222005  69.086  90.761  42.316
 3386DA     SC322006  69.131  90.721  42.566
 3386DA     SC422007  69.349  90.609  42.428
 3387DT     BB122008  69.615  90.761  41.912
 3387DT     BB222009  69.321  90.957  41.836
 3387DT     BB322010  69.338  91.145  41.922
 3387DT     SC122011  69.288  91.049  42.161
 3387DT     SC222012  69.095  91.117  42.227
 3387DT     SC322013  69.323  90.982  42.414
 3388DT     BB122014  69.390  91.284  41.681
 3388DT     BB222015  69.097  91.448  41.813
 3388DT     BB322016  69.154  91.608  41.931
 3388DT     SC122017  69.229  91.449  42.125
 3388DT     SC222018  69.093  91.470  42.291
 3388DT     SC322019  69.384  91.328  42.300
 3389DT     BB122020  69.070  91.792  41.742
 3389DT     BB222021  68.879  91.873  42.037
 3389DT     BB322022  68.982  92.009  42.153
 3389DT     SC122023  69.149  91.825  42.236
 3389DT     SC222024  69.114  91.785  42.444
 3389DT     SC322025  69.374  91.693  42.274
 3390DT     BB122026  68.798  92.189  42.081
 3390DT     BB222027  68.781  92.175  42.441
 3390DT     BB322028  68.921  92.302  42.523
 3390DT     SC122029  69.117  92.137  42.464
 3390DT     SC222030  69.195  92.051  42.645
 3390DT     SC322031  69.336  92.041  42.354
 3391DT     BB122032  68.710  92.441  42.595
 3391DT     BB222033  68.883  92.364  42.902
 3391DT     BB322034  69.036  92.500  42.933
 3391DT     SC122035  69.184  92.386  42.748
 3391DT     SC222036  69.352  92.288  42.842
 3391DT     SC322037  69.322  92.353  42.526
 3392DC     BB122038  68.876  92.562  43.125
 3392DC     BB222039  69.190  92.480  43.281
 3392DC     BB322040  69.323  92.637  43.259
 3392DC     SC122041  69.362  92.579  43.006
 3392DC     SC222042  69.562  92.504  42.980
 3392DC     SC322043  69.365  92.604  42.744
 3393DG     BB122044  69.278  92.532  43.651
 3393DG     BB222045  69.626  92.550  43.554
 3393DG     BB322046  69.681  92.740  43.535
 3393DG     SC122047  69.606  92.756  43.238
 3393DG     SC222048  69.796  92.791  43.011
 3393DG     SC322049  69.516  92.816  42.919
 3393DG     SC422050  69.457  92.798  43.199
 3394DT     BB122051  69.833  92.812  43.661
 3394DT     BB222052  70.113  92.846  43.437
 3394DT     BB322053  70.133  93.044  43.377
 3394DT     SC122054  69.926  93.024  43.217
 3394DT     SC222055  69.994  93.033  43.013
 3394DT     SC322056  69.687  93.066  43.113
 3395DT     BB122057  70.353  93.069  43.533
 3395DT     BB222058  70.463  93.168  43.204
 3395DT     BB322059  70.423  93.369  43.173
 3395DT     SC122060  70.167  93.320  43.141
 3395DT     SC222061  70.113  93.354  42.936
 3395DT     SC322062  69.907  93.323  43.183
 3396DT     BB122063  70.688  93.439  43.197
 3396DT     BB222064  70.591  93.571  42.876
 3396DT     BB322065  70.513  93.761  42.898
 3396DT     SC122066  70.289  93.667  42.997
 3396DT     SC222067  70.130  93.699  42.856
 3396DT     SC322068  70.094  93.619  43.168
 3397DA     BB122069  70.814  93.802  42.608
 3397DA     BB222070  70.513  93.966  42.478
 3397DA     BB322071  70.481  94.152  42.578
 3397DA     SC122072  70.304  94.030  42.802
 3397DA     SC222073  70.064  94.035  42.872
 3397DA     SC322074  70.151  93.958  43.101
 3397DA     SC422075  70.377  93.984  42.938
 3398DG     BB122076  70.509  94.288  42.296
 3398DG     BB222077  70.163  94.376  42.351
 3398DG     BB322078  70.152  94.542  42.460
 3398DG     SC122079  70.150  94.396  42.728
 3398DG     SC222080  69.922  94.385  42.921
 3398DG     SC322081  70.166  94.270  43.041
 3398DG     SC422082  70.289  94.362  42.799
 3399DT     BB122083  70.060  94.741  42.384
 3399DT     BB222084  69.744  94.741  42.559
 3399DT     BB322085  69.748  94.879  42.712
 3399DT     SC122086  69.900  94.724  42.859
 3399DT     SC222087  69.787  94.651  43.027
 3399DT     SC322088  70.110  94.638  42.994
 3400DT     BB122089  69.581  95.047  42.576
 3400DT     BB222090  69.410  94.984  42.887
 3400DT     BB322091  69.472  95.120  43.030
 3400DT     SC122092  69.702  94.997  43.059
 3400DT     SC222093  69.709  94.903  43.252
 3400DT     SC322094  69.962  94.954  43.057
 3401DT     BB122095  69.231  95.249  43.018
 3401DT     BB222096  69.265  95.153  43.364
 3401DT     BB322097  69.368  95.299  43.469
 3401DT     SC122098  69.596  95.226  43.361
 3401DT     SC222099  69.719  95.135  43.512
 3401DT     SC322100  69.819  95.236  43.221
 3402DT     BB122101  69.138  95.366  43.592
 3402DT     BB222102  69.364  95.280  43.859
 3402DT     BB322103  69.477  95.445  43.912
 3402DT     SC122104  69.625  95.423  43.696
 3402DT     SC222105  69.823  95.361  43.751
 3402DT     SC322106  69.735  95.480  43.463
 3403DT     BB122107  69.336  95.454  44.139
 3403DT     BB222108  69.680  95.426  44.244
 3403DT     BB322109  69.768  95.613  44.250
 3403DT     SC122110  69.784  95.623  43.988
 3403DT     SC222111  69.990  95.609  43.929
 3403DT     SC322112  69.743  95.701  43.740
 3404DT     BB122113  69.765  95.586  44.514
 3404DT     BB222114  70.111  95.646  44.430
 3404DT     BB322115  70.145  95.849  44.411
 3404DT     SC122116  70.023  95.855  44.178
 3404DT     SC222117  70.167  95.891  44.023
 3404DT     SC322118  69.845  95.915  43.993
 3405DT     BB122119  70.282  95.843  44.642
 3405DT     BB222120  70.513  95.985  44.405
 3405DT     BB322121  70.482  96.190  44.390
 3405DT     SC122122  70.263  96.154  44.250
 3405DT     SC222123  70.296  96.219  44.047
 3405DT     SC322124  70.008  96.158  44.182
 3406DG     BB122125  70.872  96.158  44.509
 3406DG     BB222126  70.843  96.373  44.220
 3406DG     BB322127  70.782  96.554  44.276
 3406DG     SC122128  70.484  96.489  44.249
 3406DG     SC222129  70.296  96.607  44.049
 3406DG     SC322130  70.149  96.446  44.249
 3406DG     SC422131  70.406  96.427  44.374
 3407DT     BB122132  70.904  96.768  44.262
 3407DT     BB222133  70.735  96.924  43.985
 3407DT     BB322134  70.619  97.082  44.052
 3407DT     SC122135  70.439  96.917  44.149
 3407DT     SC222136  70.259  96.930  44.032
 3407DT     SC322137  70.287  96.791  44.324
 3408DA     BB122138  70.857  97.277  43.765
 3408DA     BB222139  70.509  97.365  43.693
 3408DA     BB322140  70.441  97.516  43.827
 3408DA     SC122141  70.333  97.314  44.038
 3408DA     SC222142  70.112  97.239  44.125
 3408DA     SC322143  70.245  97.154  44.328
 3408DA     SC422144  70.433  97.270  44.156
 3409DG     BB122145  70.396  97.710  43.581
 3409DG     BB222146  70.047  97.671  43.671
 3409DG     BB322147  69.997  97.807  43.807
 3409DG     SC122148  70.071  97.631  44.047
 3409DG     SC222149  69.880  97.518  44.247
 3409DG     SC322150  70.160  97.473  44.331
 3409DG     SC422151  70.221  97.635  44.102
 3410DC     BB122152  69.839  97.964  43.766
 3410DC     BB222153  69.562  97.824  43.950
 3410DC     BB322154  69.529  97.933  44.123
 3410DC     SC122155  69.740  97.829  44.239
 3410DC     SC222156  69.676  97.698  44.398
 3410DC     SC322157  69.977  97.811  44.353
 3411DA     BB122158  69.178  97.871  43.904
 3411DA     BB222159  69.118  97.773  44.252
 3411DA     BB322160  69.110  97.945  44.377
 3411DA     SC122161  69.415  97.941  44.442
 3411DA     SC222162  69.561  97.894  44.638
 3411DA     SC322163  69.740  98.027  44.511
 3411DA     SC422164  69.512  98.028  44.347
 3412DT     BB122165  68.949  97.949  44.442
 3412DT     BB222166  69.036  97.847  44.778
 3412DT     BB322167  69.060  98.014  44.898
 3412DT     SC122168  69.292  98.068  44.788
 3412DT     SC222169  69.449  98.033  44.931
 3412DT     SC322170  69.478  98.197  44.653
 3413DA     BB122171  68.817  97.717  45.070
 3413DA     BB222172  69.064  97.825  45.318
 3413DA     BB322173  69.024  98.026  45.380
 3413DA     SC122174  69.204  98.155  45.161
 3413DA     SC222175  69.420  98.279  45.150
 3413DA     SC322176  69.337  98.362  44.921
 3413DA     SC422177  69.134  98.196  45.022
 3414DT     BB122178  68.983  98.026  45.554
 3414DT     BB222179  69.286  98.179  45.676
 3414DT     BB322180  69.257  98.382  45.702
 3414DT     SC122181  69.265  98.424  45.443
 3414DT     SC222182  69.446  98.531  45.394
 3414DT     SC322183  69.189  98.493  45.200
 3415DA     BB122184  69.435  98.207  46.041
 3415DA     BB222185  69.618  98.514  45.957
 3415DA     BB322186  69.497  98.685  45.997
 3415DA     SC122187  69.375  98.695  45.710
 3415DA     SC222188  69.389  98.841  45.509
 3415DA     SC322189  69.167  98.733  45.440
 3415DA     SC422190  69.237  98.617  45.686
 3416DT     BB122191  69.565  98.791  46.133
 3416DT     BB222192  69.671  99.071  45.931
 3416DT     BB322193  69.529  99.221  45.938
 3416DT     SC122194  69.369  99.087  45.779
 3416DT     SC222195  69.357  99.187  45.589
 3416DT     SC322196  69.157  98.956  45.694
 3417DA     BB122197  69.897  99.402  46.032
 3417DA     BB222198  69.726  99.618  45.790
 3417DA     BB322199  69.561  99.717  45.883
 3417DA     SC122200  69.356  99.495  45.812
 3417DA     SC222201  69.159  99.467  45.661
 3417DA     SC322202  69.094  99.272  45.815
 3417DA     SC422203  69.332  99.379  45.920
 3418DG     BB122204  69.697  99.999  45.820
 3418DG     BB222205  69.399 100.059  45.625
 3418DG     BB322206  69.253 100.125  45.742
 3418DG     SC122207  69.146  99.846  45.808
 3418DG     SC222208  68.881  99.736  45.725
 3418DG     SC322209  69.014  99.555  45.917
 3418DG     SC422210  69.207  99.767  45.933
 3419DT     BB122211  69.126 100.363  45.766
 3419DT     BB222212  68.804 100.283  45.625
 3419DT     BB322213  68.659 100.282  45.773
 3419DT     SC122214  68.745 100.053  45.867
 3419DT     SC222215  68.598  99.900  45.826
 3419DT     SC322216  68.847  99.875  46.032
 3420DA     BB122217  68.435 100.607  45.577
 3420DA     BB222218  68.183 100.352  45.653
 3420DA     BB322219  68.110 100.377  45.851
 3420DA     SC122220  68.321 100.189  45.980
 3420DA     SC222221  68.327  99.964  46.088
 3420DA     SC322222  68.550 100.041  46.189
 3420DA     SC422223  68.457 100.256  46.034
 3421DG     BB122224  67.744 100.478  45.863
 3421DG     BB222225  67.693 100.146  45.997
 3421DG     BB322226  67.658 100.157  46.193
 3421DG     SC122227  67.952 100.135  46.272
 3421DG     SC222228  68.078  99.907  46.418
 3421DG     SC322229  68.267 100.134  46.393
 3421DG     SC422230  68.040 100.269  46.283
 3422DT     BB122231  67.425 100.095  46.389
 3422DT     BB222232  67.549  99.769  46.482
 3422DT     BB322233  67.585  99.763  46.686
 3422DT     SC122234  67.803  99.908  46.660
 3422DT     SC222235  67.975  99.785  46.700
 3422DT     SC322236  67.971 100.109  46.684
 3423DC     BB122237  67.366  99.594  46.748
 3423DC     BB222238  67.658  99.403  46.839
 3423DC     BB322239  67.703  99.434  47.039
 3423DC     SC122240  67.798  99.673  46.990
 3423DC     SC222241  68.011  99.673  47.019
 3423DC     SC322242  67.823  99.936  46.994
 3424DA     BB122243  67.692  99.030  46.932
 3424DA     BB222244  68.013  99.099  47.096
 3424DA     BB322245  67.984  99.131  47.305
 3424DA     SC122246  67.945  99.438  47.278
 3424DA     SC222247  68.069  99.646  47.338
 3424DA     SC322248  67.842  99.764  47.315
 3424DA     SC422249  67.794  99.493  47.261
 3425DT     BB122250  68.072  99.003  47.387
 3425DT     BB222251  68.347  99.207  47.500
 3425DT     BB322252  68.314  99.268  47.695
 3425DT     SC122253  68.134  99.443  47.619
 3425DT     SC222254  68.211  99.642  47.648
 3425DT     SC322255  67.901  99.564  47.593
 3426DT     BB122256  68.515  99.106  47.741
 3426DT     BB222257  68.620  99.429  47.865
 3426DT     BB322258  68.540  99.462  48.053
 3426DT     SC122259  68.302  99.508  47.952
 3426DT     SC222260  68.254  99.716  47.976
 3426DT     SC322261  68.045  99.480  47.901
 3427DA     BB122262  68.953  99.540  48.041
 3427DA     BB222263  68.784  99.823  48.203
 3427DA     BB322264  68.709  99.765  48.395
 3427DA     SC122265  68.431  99.676  48.287
 3427DA     SC222266  68.195  99.754  48.300
 3427DA     SC322267  68.133  99.514  48.233
 3427DA     SC422268  68.413  99.521  48.246
 3428DG     BB122269  68.897  99.996  48.469
 3428DG     BB222270  68.587 100.147  48.578
 3428DG     BB322271  68.533 100.071  48.754
 3428DG     SC122272  68.371  99.842  48.633
 3428DG     SC222273  68.074  99.809  48.651
 3428DG     SC322274  68.201  99.568  48.535
 3428DG     SC422275  68.444  99.704  48.599
 3429DT     BB122276  68.520 100.207  48.907
 3429DT     BB222277  68.163 100.235  48.952
 3429DT     BB322278  68.102 100.117  49.110
 3429DT     SC122279  68.129  99.898  48.968
 3429DT     SC222280  67.935  99.815  48.927
 3429DT     SC322281  68.219  99.663  48.889
 3430DA     BB122282  67.946 100.506  49.133
 3430DA     BB222283  67.674 100.267  49.193
 3430DA     BB322284  67.702 100.169  49.380
 3430DA     SC122285  67.866  99.934  49.260
 3430DA     SC222286  67.836  99.690  49.219
 3430DA     SC322287  68.092  99.681  49.206
 3430DA     SC422288  68.026  99.949  49.257
 3431DC     BB122289  67.567 100.212  49.491
 3431DC     BB222290  67.400  99.892  49.493
 3431DC     BB322291  67.459  99.782  49.658
 3431DC     SC122292  67.692  99.729  49.549
 3431DC     SC222293  67.701  99.520  49.498
 3431DC     SC322294  67.953  99.724  49.511
 3432DG     BB122295  67.052  99.820  49.659
 3432DG     BB222296  67.156  99.476  49.703
 3432DG     BB322297  67.226  99.450  49.888
 3432DG     SC122298  67.515  99.520  49.814
 3432DG     SC222299  67.747  99.332  49.817
 3432DG     SC322300  67.837  99.611  49.774
 3432DG     SC422301  67.561  99.673  49.821
 3433DC     BB122302  67.128  99.313  50.036
 3433DC     BB222303  67.360  99.037  50.046
 3433DC     BB322304  67.474  99.047  50.218
 3433DC     SC122305  67.617  99.244  50.120
 3433DC     SC222306  67.817  99.175  50.079
 3433DC     SC322307  67.723  99.485  50.092
 3434DG     BB122308  67.287  98.685  50.249
 3434DG     BB222309  67.644  98.650  50.290
 3434DG     BB322310  67.697  98.700  50.475
 3434DG     SC122311  67.741  98.996  50.409
 3434DG     SC222312  68.003  99.139  50.413
 3434DG     SC322313  67.779  99.329  50.376
 3434DG     SC422314  67.617  99.097  50.419
 3435DC     BB122315  67.790  98.553  50.618
 3435DC     BB222316  68.134  98.662  50.611
 3435DC     BB322317  68.179  98.764  50.785
 3435DC     SC122318  68.046  98.976  50.705
 3435DC     SC222319  68.184  99.135  50.662
 3435DC     SC322320  67.863  99.165  50.696
 3436DC     BB122321  68.328  98.554  50.850
 3436DC     BB222322  68.555  98.835  50.850
 3436DC     BB322323  68.545  98.934  51.032
 3436DC     SC122324  68.313  99.041  50.969
 3436DC     SC222325  68.339  99.253  50.939
 3436DC     SC322326  68.056  99.098  50.977
 3437DA     BB122327  68.940  98.854  50.912
 3437DA     BB222328  68.917  99.205  51.016
 3437DA     BB322329  68.884  99.218  51.226
 3437DA     SC122330  68.574  99.217  51.203
 3437DA     SC222331  68.386  99.376  51.238
 3437DA     SC322332  68.238  99.167  51.255
 3437DA     SC422333  68.500  99.075  51.212
 3438DT     BB122334  69.024  99.299  51.299
 3438DT     BB222335  68.864  99.610  51.387
 3438DT     BB322336  68.798  99.603  51.583
 3438DT     SC122337  68.597  99.446  51.517
 3438DT     SC222338  68.413  99.555  51.536
 3438DT     SC322339  68.442  99.234  51.507
 3439DT     BB122340  68.995  99.772  51.648
 3439DT     BB222341  68.697  99.928  51.780
 3439DT     BB322342  68.651  99.847  51.965
 3439DT     SC122343  68.562  99.626  51.855
 3439DT     SC222344  68.349  99.615  51.880
 3439DT     SC322345  68.543  99.371  51.793
 3440DT     BB122346  68.748 100.059  52.144
 3440DT     BB222347  68.413 100.005  52.265
 3440DT     BB322348  68.414  99.865  52.418
 3440DT     SC122349  68.452  99.668  52.248
 3440DT     SC222350  68.274  99.547  52.239
 3440DT     SC322351  68.566  99.465  52.125
 3441DA     BB122352  68.255 100.152  52.714
 3441DA     BB222353  68.047  99.852  52.752
 3441DA     BB322354  68.138  99.715  52.887
 3441DA     SC122355  68.295  99.564  52.665
 3441DA     SC222356  68.290  99.340  52.556
 3441DA     SC322357  68.531  99.391  52.486
 3441DA     SC422358  68.444  99.613  52.633
 3442DA     BB122359  67.895  99.669  53.161
 3442DA     BB222360  67.844  99.324  53.049
 3442DA     BB322361  67.968  99.191  53.159
 3442DA     SC122362  68.206  99.208  52.959
 3442DA     SC222363  68.318  99.059  52.793
 3442DA     SC322364  68.517  99.220  52.815
 3442DA     SC422365  68.319  99.318  52.987
 3443DT     BB122366  67.910  99.006  53.329
 3443DT     BB222367  67.948  98.740  53.088
 3443DT     BB322368  68.102  98.615  53.145
 3443DT     SC122369  68.283  98.791  53.073
 3443DT     SC222370  68.387  98.719  52.899
 3443DT     SC322371  68.481  98.964  53.089
 3444DA     BB122372  67.768  98.372  53.081
 3444DA     BB222373  68.044  98.240  52.878
 3444DA     BB322374  68.183  98.135  53.001
 3444DA     SC122375  68.360  98.384  53.057
 3444DA     SC222376  68.587  98.467  52.996
 3444DA     SC322377  68.564  98.621  53.200
 3444DA     SC422378  68.327  98.471  53.188
 3445DA     BB122379  68.110  97.922  52.768
 3445DA     BB222380  68.464  97.942  52.674
 3445DA     BB322381  68.584  97.837  52.816
 3445DA     SC122382  68.631  98.087  52.996
 3445DA     SC222383  68.819  98.238  53.056
 3445DA     SC322384  68.677  98.300  53.261
 3445DA     SC422385  68.528  98.111  53.118
 3446DT     BB122386  68.669  97.692  52.738
 3446DT     BB222387  68.998  97.839  52.723
 3446DT     BB322388  69.114  97.769  52.880
 3446DT     SC122389  68.986  97.920  53.052
 3446DT     SC222390  69.117  98.076  53.122
 3446DT     SC322391  68.836  97.990  53.258
 3447DC     BB122392  69.248  97.640  52.692
 3447DC     BB222393  69.492  97.849  52.857
 3447DC     BB322394  69.560  97.756  53.028
 3447DC     SC122395  69.337  97.809  53.156
 3447DC     SC222396  69.375  97.956  53.309
 3447DC     SC322397  69.109  97.772  53.283
 3448DC     BB122398  69.786  97.730  52.895
 3448DC     BB222399  69.872  97.915  53.192
 3448DC     BB322400  69.900  97.785  53.351
 3448DC     SC122401  69.642  97.745  53.374
 3448DC     SC222402  69.573  97.835  53.557
 3448DC     SC322403  69.409  97.621  53.376
 3449DA     BB122404  70.218  98.056  53.315
 3449DA     BB222405  70.107  98.051  53.665
 3449DA     BB322406  70.160  97.866  53.757
 3449DA     SC122407  69.893  97.725  53.682
 3449DA     SC222408  69.689  97.641  53.799
 3449DA     SC322409  69.653  97.497  53.591
 3449DA     SC422410  69.888  97.642  53.544
 3450DC     BB122411  70.274  97.901  53.887
 3450DC     BB222412  70.049  97.839  54.162
 3450DC     BB322413  70.074  97.646  54.232
 3450DC     SC122414  69.947  97.547  54.025
 3450DC     SC222415  69.758  97.467  54.089
 3450DC     SC322416  69.902  97.410  53.804
 3451DG     BB122417  70.109  97.929  54.524
 3451DG     BB222418  69.878  97.667  54.615
 3451DG     BB322419  69.977  97.500  54.658
 3451DG     SC122420  69.972  97.394  54.371
 3451DG     SC222421  69.826  97.152  54.276
 3451DG     SC322422  70.003  97.257  54.064
 3451DG     SC422423  70.090  97.436  54.271
 3452DC     BB122424  69.952  97.434  54.847
 3452DC     BB222425  69.752  97.137  54.803
 3452DC     BB322426  69.874  96.969  54.800
 3452DC     SC122427  69.958  97.024  54.558
 3452DC     SC222428  69.880  96.879  54.421
 3452DC     SC322429  70.121  97.087  54.360
 3453DG     BB122430  69.607  96.912  55.104
 3453DG     BB222431  69.622  96.623  54.887
 3453DG     BB322432  69.785  96.516  54.928
 3453DG     SC122433  69.963  96.666  54.729
 3453DG     SC222434  70.083  96.551  54.481
 3453DG     SC322435  70.192  96.821  54.536
 3453DG     SC422436  70.041  96.797  54.778
 3454DA     BB122437  69.587  96.229  54.965
 3454DA     BB222438  69.775  96.059  54.700
 3454DA     BB322439  69.962  95.989  54.774
 3454DA     SC122440  70.116  96.249  54.700
 3454DA     SC222441  70.290  96.320  54.536
 3454DA     SC322442  70.330  96.517  54.696
 3454DA     SC422443  70.127  96.364  54.813
 3455DA     BB122444  69.861  95.697  54.659
 3455DA     BB222445  70.154  95.700  54.438
 3455DA     BB322446  70.330  95.650  54.548
 3455DA     SC122447  70.398  95.944  54.623
 3455DA     SC222448  70.571  96.114  54.565
 3455DA     SC322449  70.501  96.230  54.783
 3455DA     SC422450  70.341  96.000  54.762
 3456DA     BB122451  70.361  95.424  54.310
 3456DA     BB222452  70.679  95.584  54.223
 3456DA     BB322453  70.830  95.530  54.364
 3456DA     SC122454  70.775  95.771  54.552
 3456DA     SC222455  70.889  95.982  54.621
 3456DA     SC322456  70.734  95.976  54.825
 3456DA     SC422457  70.671  95.749  54.673
 3457DA     BB122458  70.985  95.446  54.087
 3457DA     BB222459  71.245  95.687  54.180
 3457DA     BB322460  71.365  95.608  54.338
 3457DA     SC122461  71.189  95.729  54.564
 3457DA     SC222462  71.208  95.908  54.737
 3457DA     SC322463  71.017  95.785  54.856
 3457DA     SC422464  71.071  95.637  54.624
 3458DT     BB122465  71.559  95.564  54.300
 3458DT     BB222466  71.709  95.836  54.485
 3458DT     BB322467  71.787  95.766  54.663
 3458DT     SC122468  71.547  95.744  54.768
 3458DT     SC222469  71.523  95.892  54.922
 3458DT     SC322470  71.332  95.634  54.874
 3459DC     BB122471  72.054  95.780  54.579
 3459DC     BB222472  72.054  95.968  54.887
 3459DC     BB322473  72.092  95.843  55.047
 3459DC     SC122474  71.850  95.742  55.035
 3459DC     SC222475  71.738  95.806  55.208
 3459DC     SC322476  71.655  95.567  55.005
 3460DG     BB122477  72.432  96.079  55.094
 3460DG     BB222478  72.260  96.051  55.411
 3460DG     BB322479  72.317  95.885  55.504
 3460DG     SC122480  72.099  95.710  55.378
 3460DG     SC222481  71.870  95.583  55.522
 3460DG     SC322482  71.886  95.486  55.243
 3460DG     SC422483  72.129  95.638  55.238
 3461DT     BB122484  72.470  95.816  55.745
 3461DT     BB222485  72.195  95.723  55.959
 3461DT     BB322486  72.208  95.522  56.008
 3461DT     SC122487  72.127  95.451  55.768
 3461DT     SC222488  71.930  95.366  55.782
 3461DT     SC322489  72.129  95.344  55.527
 3462DG     BB122490  72.248  95.665  56.396
 3462DG     BB222491  71.973  95.431  56.377
 3462DG     BB322492  72.039  95.246  56.403
 3462DG     SC122493  72.092  95.197  56.105
 3462DG     SC222494  71.946  95.003  55.931
 3462DG     SC322495  72.181  95.116  55.790
 3462DG     SC422496  72.235  95.236  56.044
 3463DT     BB122497  71.978  95.100  56.583
 3463DT     BB222498  71.740  94.891  56.411
 3463DT     BB322499  71.819  94.701  56.385
 3463DT     SC122500  71.978  94.784  56.194
 3463DT     SC222501  71.912  94.703  56.006
 3463DT     SC322502  72.199  94.842  56.062
 3464DA     BB122503  71.440  94.670  56.559
 3464DA     BB222504  71.450  94.449  56.267
 3464DA     BB322505  71.568  94.276  56.309
 3464DA     SC122506  71.833  94.403  56.206
 3464DA     SC222507  71.989  94.375  56.014
 3464DA     SC322508  72.161  94.496  56.161
 3464DA     SC422509  71.926  94.479  56.313
 3465DA     BB122510  71.287  94.154  56.199
 3465DA     BB222511  71.486  94.004  55.930
 3465DA     BB322512  71.604  93.843  56.006
 3465DA     SC122513  71.850  94.022  56.071
 3465DA     SC222514  72.082  94.055  55.986
 3465DA     SC322515  72.128  94.162  56.214
 3465DA     SC422516  71.859  94.084  56.219
 3466DC     BB122517  71.556  93.670  55.937
 3466DC     BB222518  71.843  93.629  55.721
 3466DC     BB322519  71.981  93.503  55.810
 3466DC     SC122520  72.056  93.690  55.977
 3466DC     SC222521  72.255  93.754  55.928
 3466DC     SC322522  72.097  93.818  56.204
 3467DA     BB122523  71.909  93.350  55.425
 3467DA     BB222524  72.272  93.367  55.474
 3467DA     BB322525  72.337  93.213  55.606
 3467DA     SC122526  72.307  93.387  55.863
 3467DA     SC222527  72.456  93.494  56.032
 3467DA     SC322528  72.248  93.499  56.182
 3467DA     SC422529  72.167  93.380  55.941
 3468DC     BB122530  72.458  93.055  55.538
 3468DC     BB222531  72.765  93.170  55.690
 3468DC     BB322532  72.813  93.050  55.852
 3468DC     SC122533  72.625  93.160  55.999
 3468DC     SC222534  72.716  93.278  56.154
 3468DC     SC322535  72.406  93.184  56.143
 3469DC     BB122536  73.020  92.935  55.714
 3469DC     BB222537  73.174  93.079  56.007
 3469DC     BB322538  73.171  92.942  56.162
 3469DC     SC122539  72.914  92.981  56.201
 3469DC     SC222540  72.885  93.084  56.388
 3469DC     SC322541  72.655  92.933  56.217
 3470DA     BB122542  73.555  93.097  56.110
 3470DA     BB222543  73.464  93.130  56.464
 3470DA     BB322544  73.465  92.938  56.559
 3470DA     SC122545  73.165  92.880  56.499
 3470DA     SC222546  72.952  92.862  56.627
 3470DA     SC322547  72.865  92.731  56.424
 3470DA     SC422548  73.130  92.801  56.364
 3471DG     BB122549  73.658  93.117  56.711
 3471DG     BB222550  73.415  93.063  56.974
 3471DG     BB322551  73.434  92.880  57.047
 3471DG     SC122552  73.237  92.753  56.850
 3471DG     SC222553  72.972  92.635  56.918
 3471DG     SC322554  73.043  92.579  56.637
 3471DG     SC422555  73.292  92.700  56.709
 3472DT     BB122556  73.467  92.902  57.229
 3472DT     BB222557  73.161  92.784  57.381
 3472DT     BB322558  73.175  92.582  57.420
 3472DT     SC122559  73.145  92.522  57.166
 3472DT     SC222560  72.954  92.428  57.137
 3472DT     SC322561  73.199  92.431  56.925
 3473DT     BB122562  73.178  92.667  57.667
 3473DT     BB222563  72.907  92.430  57.652
 3473DT     BB322564  72.982  92.237  57.664
 3473DT     SC122565  73.070  92.246  57.417
 3473DT     SC222566  72.952  92.114  57.295
 3473DT     SC322567  73.237  92.247  57.213
 3474DT     BB122568  72.880  92.224  57.912
 3474DT     BB222569  72.744  91.935  57.744
 3474DT     BB322570  72.878  91.778  57.753
 3474DT     SC122571  73.031  91.889  57.571
 3474DT     SC222572  73.022  91.774  57.389
 3474DT     SC322573  73.242  92.001  57.459
 3475DT     BB122574  72.732  91.640  57.944
 3475DT     BB222575  72.776  91.399  57.679
 3475DT     BB322576  72.952  91.293  57.708
 3475DT     SC122577  73.096  91.498  57.630
 3475DT     SC222578  73.187  91.454  57.441
 3475DT     SC322579  73.270  91.697  57.638
 3476DT     BB122580  72.833  91.051  57.800
 3476DT     BB222581  73.040  90.943  57.524
 3476DT     BB322582  73.227  90.890  57.593
 3476DT     SC122583  73.295  91.141  57.627
 3476DT     SC222584  73.445  91.195  57.483
 3476DT     SC322585  73.367  91.364  57.748
 3477DA     BB122586  73.110  90.543  57.386
 3477DA     BB222587  73.447  90.628  57.270
 3477DA     BB322588  73.592  90.567  57.414
 3477DA     SC122589  73.590  90.839  57.565
 3477DA     SC222590  73.743  91.033  57.599
 3477DA     SC322591  73.599  91.085  57.805
 3477DA     SC422592  73.489  90.854  57.690
 3478DC     BB122593  73.735  90.410  57.376
 3478DC     BB222594  74.020  90.625  57.325
 3478DC     BB322595  74.150  90.608  57.485
 3478DC     SC122596  73.992  90.750  57.639
 3478DC     SC222597  74.084  90.940  57.680
 3478DC     SC322598  73.831  90.813  57.838
 3479DG     BB122599  74.366  90.506  57.155
 3479DG     BB222600  74.532  90.765  57.345
 3479DG     BB322601  74.627  90.685  57.500
 3479DG     SC122602  74.389  90.709  57.690
 3479DG     SC222603  74.373  90.886  57.930
 3479DG     SC322604  74.142  90.702  57.920
 3479DG     SC422605  74.283  90.590  57.697
 3480DT     BB122606  74.847  90.700  57.517
 3480DT     BB222607  74.882  90.949  57.776
 3480DT     BB322608  74.935  90.858  57.955
 3480DT     SC122609  74.691  90.766  57.989
 3480DT     SC222610  74.599  90.869  58.154
 3480DT     SC322611  74.492  90.596  58.017
 3481DA     BB122612  75.210  91.166  57.887
 3481DA     BB222613  75.093  91.196  58.233
 3481DA     BB322614  75.178  91.042  58.354
 3481DA     SC122615  74.947  90.841  58.305
 3481DA     SC222616  74.760  90.738  58.436
 3481DA     SC322617  74.759  90.558  58.254
 3481DA     SC422618  74.963  90.737  58.183
 3482DA     BB122619  75.262  91.305  58.532
 3482DA     BB222620  75.066  91.158  58.805
 3482DA     BB322621  75.171  90.992  58.890
 3482DA     SC122622  75.043  90.782  58.701
 3482DA     SC222623  74.881  90.593  58.717
 3482DA     SC322624  74.985  90.512  58.497
 3482DA     SC422625  75.122  90.747  58.565
 3483DA     BB122626  75.120  91.163  59.167
 3483DA     BB222627  74.932  90.873  59.289
 3483DA     BB322628  75.065  90.716  59.345
 3483DA     SC122629  75.065  90.583  59.064
 3483DA     SC222630  74.980  90.374  58.959
 3483DA     SC322631  75.153  90.419  58.775
 3483DA     SC422632  75.180  90.628  58.961
 3484DC     BB122633  75.081  90.660  59.544
 3484DC     BB222634  74.901  90.349  59.516
 3484DC     BB322635  75.034  90.190  59.524
 3484DC     SC122636  75.116  90.236  59.279
 3484DC     SC222637  75.049  90.078  59.150
 3484DC     SC322638  75.276  90.297  59.078
 3485DC     BB122639  74.952  90.123  59.777
 3485DC     BB222640  74.900  89.822  59.584
 3485DC     BB322641  75.072  89.708  59.583
 3485DC     SC122642  75.189  89.872  59.413
 3485DC     SC222643  75.211  89.774  59.223
 3485DC     SC322644  75.360  90.046  59.315
 3486DT     BB122645  74.960  89.524  59.751
 3486DT     BB222646  75.058  89.333  59.461
 3486DT     BB322647  75.254  89.269  59.481
 3486DT     SC122648  75.345  89.510  59.431
 3486DT     SC222649  75.443  89.511  59.239
 3486DT     SC322650  75.467  89.741  59.465
 3487DT     BB122651  75.172  89.011  59.524
 3487DT     BB222652  75.393  88.990  59.239
 3487DT     BB322653  75.588  88.965  59.303
 3487DT     SC122654  75.605  89.217  59.375
 3487DT     SC222655  75.739  89.321  59.243
 3487DT     SC322656  75.631  89.430  59.528
 3488DA     BB122657  75.508  88.663  59.024
 3488DA     BB222658  75.824  88.824  58.929
 3488DA     BB322659  75.979  88.767  59.063
 3488DA     SC122660  75.932  89.004  59.259
 3488DA     SC222661  76.049  89.213  59.327
 3488DA     SC322662  75.901  89.202  59.537
 3488DA     SC422663  75.832  88.979  59.382
 3489DG     BB122664  76.107  88.658  58.802
 3489DG     BB222665  76.356  88.911  58.874
 3489DG     BB322666  76.485  88.843  59.009
 3489DG     SC122667  76.323  88.944  59.249
 3489DG     SC222668  76.406  89.160  59.438
 3489DG     SC322669  76.163  89.023  59.535
 3489DG     SC422670  76.211  88.849  59.313
 3490DG     BB122671  76.720  88.901  58.790
 3490DG     BB222672  76.851  89.138  59.029
 3490DG     BB322673  76.958  89.044  59.167
 3490DG     SC122674  76.722  88.996  59.355
 3490DG     SC222675  76.685  89.118  59.625
 3490DG     SC322676  76.482  88.908  59.575
 3490DG     SC422677  76.634  88.863  59.337
 3491DT     BB122678  77.171  89.087  59.188
 3491DT     BB222679  77.176  89.281  59.493
 3491DT     BB322680  77.243  89.164  59.650
 3491DT     SC122681  77.014  89.036  59.662
 3491DT     SC222682  76.911  89.090  59.842
 3491DT     SC322683  76.840  88.838  59.651
 3492DT     BB122684  77.465  89.311  59.645
 3492DT     BB222685  77.337  89.346  59.980
 3492DT     BB322686  77.398  89.186  60.096
 3492DT     SC122687  77.225  89.026  59.981
 3492DT     SC222688  77.071  88.974  60.121
 3492DT     SC322689  77.129  88.826  59.839
 3493DA     BB122690  77.489  89.544  60.297
 3493DA     BB222691  77.318  89.320  60.532
 3493DA     BB322692  77.446  89.159  60.587
 3493DA     SC122693  77.349  88.972  60.358
 3493DA     SC222694  77.215  88.763  60.334
 3493DA     SC322695  77.329  88.740  60.105
 3493DA     SC422696  77.431  88.975  60.219
 3494DT     BB122697  77.499  89.156  60.771
 3494DT     BB222698  77.293  88.877  60.872
 3494DT     BB322699  77.408  88.705  60.886
 3494DT     SC122700  77.418  88.683  60.624
 3494DT     SC222701  77.303  88.513  60.563
 3494DT     SC322702  77.517  88.673  60.380
 3495DT     BB122703  77.383  88.721  61.152
 3495DT     BB222704  77.257  88.394  61.066
 3495DT     BB322705  77.414  88.259  61.051
 3495DT     SC122706  77.489  88.359  60.820
 3495DT     SC222707  77.449  88.217  60.664
 3495DT     SC322708  77.637  88.479  60.638
 3496DT     BB122709  77.336  88.143  61.283
 3496DT     BB222710  77.340  87.873  61.043
 3496DT     BB322711  77.530  87.793  61.031
 3496DT     SC122712  77.617  87.999  60.894
 3496DT     SC222713  77.658  87.938  60.691
 3496DT     SC322714  77.755  88.214  60.830
 3497DT     BB122715  77.450  87.569  61.164
 3497DT     BB222716  77.587  87.445  60.854
 3497DT     BB322717  77.791  87.418  60.873
 3497DT     SC122718  77.834  87.677  60.861
 3497DT     SC222719  77.932  87.724  60.675
 3497DT     SC322720  77.908  87.920  60.933
 3498DA     BB122721  77.647  87.049  60.732
 3498DA     BB222722  77.931  87.145  60.521
 3498DA     BB322723  78.114  87.117  60.626
 3498DA     SC122724  78.120  87.405  60.743
 3498DA     SC222725  78.253  87.613  60.714
 3498DA     SC322726  78.162  87.679  60.945
 3498DA     SC422727  78.054  87.427  60.888
 3499DT     BB122728  78.258  86.968  60.568
 3499DT     BB222729  78.495  87.197  60.421
 3499DT     BB322730  78.662  87.214  60.543
 3499DT     SC122731  78.531  87.362  60.715
 3499DT     SC222732  78.607  87.563  60.709
 3499DT     SC322733  78.418  87.439  60.941
 3500DA     BB122734  78.810  87.117  60.162
 3500DA     BB222735  78.994  87.410  60.282
 3500DA     BB322736  79.135  87.353  60.432
 3500DA     SC122737  78.938  87.395  60.669
 3500DA     SC222738  78.910  87.553  60.860
 3500DA     SC322739  78.765  87.368  60.964
 3500DA     SC422740  78.853  87.268  60.718
 3501DA     BB122741  79.335  87.511  60.227
 3501DA     BB222742  79.395  87.747  60.501
 3501DA     BB322743  79.526  87.661  60.645
 3501DA     SC122744  79.296  87.539  60.817
 3501DA     SC222745  79.193  87.578  61.040
 3501DA     SC322746  79.103  87.338  61.017
 3501DA     SC422747  79.251  87.388  60.784
 3502DT     BB122748  79.698  87.749  60.663
 3502DT     BB222749  79.627  87.914  60.975
 3502DT     BB322750  79.720  87.815  61.131
 3502DT     SC122751  79.545  87.620  61.123
 3502DT     SC222752  79.422  87.628  61.299
 3502DT     SC322753  79.443  87.379  61.093
 3503DC     BB122754  79.880  88.027  61.144
 3503DC     BB222755  79.729  88.002  61.471
 3503DC     BB322756  79.835  87.866  61.587
 3503DC     SC122757  79.734  87.663  61.456
 3503DC     SC222758  79.599  87.555  61.584
 3503DC     SC322759  79.719  87.448  61.303
 3504DC     BB122760  79.910  88.080  61.722
 3504DC     BB222761  79.751  87.865  61.964
 3504DC     BB322762  79.885  87.722  62.031
 3504DC     SC122763  79.866  87.588  61.806
 3504DC     SC222764  79.763  87.402  61.842
 3504DC     SC322765  79.933  87.476  61.577
 3505DT     BB122766  79.883  87.854  62.261
 3505DT     BB222767  79.787  87.517  62.346
 3505DT     BB322768  79.955  87.399  62.370
 3505DT     SC122769  79.994  87.389  62.110
 3505DT     SC222770  79.955  87.189  62.040
 3505DT     SC322771  80.109  87.422  61.875
 3506DA     BB122772  79.706  87.351  62.704
 3506DA     BB222773  79.807  87.018  62.588
 3506DA     BB322774  80.012  86.983  62.632
 3506DA     SC122775  80.115  87.096  62.361
 3506DA     SC222776  80.220  87.007  62.152
 3506DA     SC322777  80.296  87.249  62.113
 3506DA     SC422778  80.154  87.251  62.355
 3507DA     BB122779  79.878  86.717  62.768
 3507DA     BB222780  80.086  86.520  62.540
 3507DA     BB322781  80.289  86.524  62.603
 3507DA     SC122782  80.362  86.775  62.433
 3507DA     SC222783  80.499  86.828  62.231
 3507DA     SC322784  80.495  87.069  62.318
 3507DA     SC422785  80.349  86.918  62.504
 3508DA     BB122786  80.248  86.198  62.583
 3508DA     BB222787  80.518  86.198  62.335
 3508DA     BB322788  80.706  86.227  62.430
 3508DA     SC122789  80.699  86.537  62.404
 3508DA     SC222790  80.819  86.714  62.276
 3508DA     SC322791  80.733  86.875  62.456
 3508DA     SC422792  80.637  86.620  62.527
 3509DA     BB122793  80.780  85.951  62.267
 3509DA     BB222794  81.043  86.142  62.098
 3509DA     BB322795  81.208  86.174  62.229
 3509DA     SC122796  81.099  86.444  62.340
 3509DA     SC222797  81.158  86.686  62.325
 3509DA     SC322798  81.017  86.711  62.539
 3509DA     SC422799  81.009  86.439  62.472
 3510DC     BB122800  81.393  86.084  62.193
 3510DC     BB222801  81.568  86.380  62.084
 3510DC     BB322802  81.698  86.443  62.232
 3510DC     SC122803  81.501  86.537  62.378
 3510DC     SC222804  81.510  86.752  62.381
 3510DC     SC322805  81.334  86.566  62.579
 3511DA     BB122806  81.938  86.412  61.889
 3511DA     BB222807  82.007  86.739  62.041
 3511DA     BB322808  82.129  86.716  62.214
 3511DA     SC122809  81.888  86.689  62.409
 3511DA     SC222810  81.782  86.823  62.591
 3511DA     SC322811  81.678  86.600  62.667
 3511DA     SC422812  81.834  86.541  62.441
 3512DG     BB122813  82.350  86.892  62.072
 3512DG     BB222814  82.282  87.122  62.342
 3512DG     BB322815  82.391  87.074  62.501
 3512DG     SC122816  82.180  86.885  62.619
 3512DG     SC222817  82.028  86.929  62.872
 3512DG     SC322818  81.981  86.657  62.766
 3512DG     SC422819  82.181  86.731  62.576
 3513DC     BB122820  82.566  87.207  62.603
 3513DC     BB222821  82.397  87.328  62.898
 3513DC     BB322822  82.473  87.234  63.066
 3513DC     SC122823  82.347  87.011  63.009
 3513DC     SC222824  82.190  86.979  63.152
 3513DC     SC322825  82.305  86.759  62.945
 3514DT     BB122826  82.622  87.457  63.161
 3514DT     BB222827  82.407  87.373  63.439
 3514DT     BB322828  82.503  87.241  63.565
 3514DT     SC122829  82.468  87.042  63.397
 3514DT     SC222830  82.326  86.903  63.480
 3514DT     SC322831  82.523  86.847  63.229
 3515DC     BB122832  82.557  87.429  63.772
 3515DC     BB222833  82.369  87.169  63.938
 3515DC     BB322834  82.498  87.029  64.019
 3515DC     SC122835  82.548  86.928  63.782
 3515DC     SC222836  82.461  86.732  63.769
 3515DC     SC322837  82.681  86.856  63.566
 3516DA     BB122838  82.254  87.147  64.337
 3516DA     BB222839  82.248  86.781  64.324
 3516DA     BB322840  82.429  86.701  64.404
 3516DA     SC122841  82.577  86.697  64.130
 3516DA     SC222842  82.659  86.527  63.967
 3516DA     SC322843  82.812  86.714  63.879
 3516DA     SC422844  82.665  86.826  64.091
 3517DA     BB122845  82.214  86.539  64.586
 3517DA     BB222846  82.344  86.233  64.431
 3517DA     BB322847  82.531  86.180  64.518
 3517DA     SC122848  82.701  86.341  64.313
 3517DA     SC222849  82.857  86.293  64.125
 3517DA     SC322850  82.940  86.533  64.159
 3517DA     SC422851  82.739  86.492  64.351
 3518DT     BB122852  82.518  86.018  64.605
 3518DT     BB222853  82.692  85.824  64.356
 3518DT     BB322854  82.887  85.791  64.416
 3518DT     SC122855  82.956  86.038  64.361
 3518DT     SC222856  83.087  86.040  64.191
 3518DT     SC322857  83.038  86.286  64.395
 3519DA     BB122858  82.674  85.461  64.264
 3519DA     BB222859  83.003  85.477  64.103
 3519DA     BB322860  83.157  85.437  64.245
 3519DA     SC122861  83.195  85.735  64.325
 3519DA     SC222862  83.367  85.913  64.296
 3519DA     SC322863  83.251  86.028  64.494
 3519DA     SC422864  83.110  85.790  64.449
 3520DG     BB122865  83.168  85.257  63.996
 3520DG     BB222866  83.492  85.415  63.968
 3520DG     BB322867  83.610  85.354  64.116
 3520DG     SC122868  83.526  85.578  64.307
 3520DG     SC222869  83.701  85.799  64.405
 3520DG     SC322870  83.443  85.797  64.550
 3520DG     SC422871  83.400  85.555  64.403
 3521DA     BB122872  83.808  85.330  63.830
 3521DA     BB222873  84.066  85.523  64.004
 3521DA     BB322874  84.139  85.414  64.173
 3521DA     SC122875  83.932  85.535  64.371
 3521DA     SC222876  83.931  85.692  64.565
 3521DA     SC322877  83.706  85.584  64.626
 3521DA     SC422878  83.794  85.454  64.393
 3522DA     BB122879  84.426  85.487  64.022
 3522DA     BB222880  84.533  85.634  64.341
 3522DA     BB322881  84.563  85.482  64.486
 3522DA     SC122882  84.271  85.491  64.593
 3522DA     SC222883  84.153  85.564  64.801
 3522DA     SC322884  83.962  85.412  64.720
 3522DA     SC422885  84.165  85.391  64.527
 3523DA     BB122886  84.884  85.582  64.542
 3523DA     BB222887  84.800  85.634  64.895
 3523DA     BB322888  84.803  85.449  65.000
 3523DA     SC122889  84.502  85.388  64.950
 3523DA     SC222890  84.292  85.377  65.083
 3523DA     SC322891  84.201  85.235  64.889
 3523DA     SC422892  84.464  85.301  64.820
 3524DT     BB122893  84.963  85.354  65.173
 3524DT     BB222894  84.741  85.390  65.456
 3524DT     BB322895  84.689  85.203  65.529
 3524DT     SC122896  84.526  85.161  65.327
 3524DT     SC222897  84.323  85.164  65.398
 3524DT     SC322898  84.423  85.053  65.110
 3525DT     BB122899  84.859  85.179  65.775
 3525DT     BB222900  84.525  85.128  65.901
 3525DT     BB322901  84.485  84.925  65.916
 3525DT     SC122902  84.457  84.904  65.656
 3525DT     SC222903  84.250  84.866  65.609
 3525DT     SC322904  84.500  84.829  65.407
 3526DT     BB122905  84.503  84.908  66.200
 3526DT     BB222906  84.169  84.791  66.126
 3526DT     BB322907  84.169  84.585  66.105
 3526DT     SC122908  84.283  84.602  65.869
 3526DT     SC222909  84.142  84.543  65.718
 3526DT     SC322910  84.462  84.573  65.678
 3527DT     BB122911  84.037  84.562  66.342
 3527DT     BB222912  83.821  84.405  66.100
 3527DT     BB322913  83.871  84.205  66.079
 3527DT     SC122914  84.085  84.265  65.941
 3527DT     SC222915  84.058  84.204  65.736
 3527DT     SC322916  84.339  84.287  65.873
 3528DT     BB122917  83.640  84.159  66.201
 3528DT     BB222918  83.616  83.987  65.885
 3528DT     BB322919  83.706  83.801  65.899
 3528DT     SC122920  83.946  83.907  65.894
 3528DT     SC222921  84.042  83.858  65.707
 3528DT     SC322922  84.188  83.977  65.971
 3529DA     BB122923  83.324  83.772  65.728
 3529DA     BB222924  83.557  83.577  65.523
 3529DA     BB322925  83.619  83.402  65.628
 3529DA     SC122926  83.866  83.538  65.758
 3529DA     SC222927  84.115  83.526  65.739
 3529DA     SC322928  84.117  83.634  65.972
 3529DA     SC422929  83.847  83.604  65.903
 3530DC     BB122930  83.561  83.235  65.551
 3530DC     BB222931  83.880  83.121  65.428
 3530DC     BB322932  83.959  82.980  65.557
 3530DC     SC122933  84.022  83.165  65.733
 3530DC     SC222934  84.236  83.185  65.742
 3530DC     SC322935  84.025  83.303  65.958
 3531DA     BB122936  83.968  82.779  65.187
 3531DA     BB222937  84.295  82.728  65.344
 3531DA     BB322938  84.281  82.582  65.499
 3531DA     SC122939  84.221  82.791  65.722
 3531DA     SC222940  84.336  82.886  65.922
 3531DA     SC322941  84.101  82.954  65.999
 3531DA     SC422942  84.066  82.823  65.754
 3532DG     BB122943  84.485  82.391  65.345
 3532DG     BB222944  84.695  82.448  65.633
 3532DG     BB322945  84.650  82.318  65.777
 3532DG     SC122946  84.438  82.497  65.906
 3532DG     SC222947  84.456  82.623  66.176
 3532DG     SC322948  84.185  82.658  66.061
 3532DG     SC422949  84.287  82.488  65.854
 3533DT     BB122950  84.792  82.141  65.869
 3533DT     BB222951  84.883  82.286  66.186
 3533DT     BB322952  84.785  82.187  66.340
 3533DT     SC122953  84.557  82.303  66.281
 3533DT     SC222954  84.506  82.441  66.437
 3533DT     SC322955  84.306  82.333  66.206
 3534DT     BB122956  85.013  82.047  66.432
 3534DT     BB222957  84.897  82.227  66.723
 3534DT     BB322958  84.764  82.110  66.830
 3534DT     SC122959  84.575  82.151  66.653
 3534DT     SC222960  84.421  82.275  66.739
 3534DT     SC322961  84.395  82.102  66.467
 3535DC     BB122962  84.943  82.052  67.039
 3535DC     BB222963  84.661  82.204  67.205
 3535DC     BB322964  84.524  82.058  67.260
 3535DC     SC122965  84.443  82.030  67.012
 3535DC     SC222966  84.242  82.107  66.994
 3535DC     SC322967  84.395  81.919  66.778
 3536DA     BB122968  84.601  82.266  67.617
 3536DA     BB222969  84.238  82.249  67.576
 3536DA     BB322970  84.166  82.054  67.624
 3536DA     SC122971  84.192  81.946  67.333
 3536DA     SC222972  84.040  81.876  67.148
 3536DA     SC322973  84.244  81.750  67.056
 3536DA     SC422974  84.330  81.873  67.293
 3537DT     BB122975  84.039  82.016  67.796
 3537DT     BB222976  83.734  81.981  67.607
 3537DT     BB322977  83.673  81.783  67.607
 3537DT     SC122978  83.860  81.717  67.435
 3537DT     SC222979  83.770  81.668  67.247
 3537DT     SC322980  84.075  81.602  67.334
 3538DG     BB122981  83.368  81.998  67.769
 3538DG     BB222982  83.257  81.802  67.486
 3538DG     BB322983  83.229  81.613  67.541
 3538DG     SC122984  83.516  81.527  67.480
 3538DG     SC222985  83.599  81.337  67.265
 3538DG     SC322986  83.827  81.402  67.443
 3538DG     SC422987  83.627  81.540  67.594
 3539DA     BB122988  82.929  81.668  67.390
 3539DA     BB222989  83.009  81.404  67.148
 3539DA     BB322990  82.988  81.212  67.239
 3539DA     SC122991  83.284  81.198  67.334
 3539DA     SC222992  83.490  81.068  67.279
 3539DA     SC322993  83.573  81.140  67.511
 3539DA     SC422994  83.317  81.251  67.482
 3540DA     BB122995  82.833  81.234  66.956
 3540DA     BB222996  83.057  80.964  66.850
 3540DA     BB322997  83.013  80.785  66.958
 3540DA     SC122998  83.214  80.845  67.188
 3540DA     SC222999  83.431  80.755  67.271
 3540DA     SC323000  83.371  80.871  67.492
 3540DA     SC423001  83.158  80.922  67.317
 3541DA     BB123002  83.053  80.767  66.631
 3541DA     BB223003  83.314  80.524  66.715
 3541DA     BB323004  83.229  80.358  66.819
 3541DA     SC123005  83.271  80.482  67.101
 3541DA     SC223006  83.414  80.442  67.301
 3541DA     SC323007  83.238  80.578  67.429
 3541DA     SC423008  83.150  80.568  67.163
 3542DT     BB123009  83.276  80.254  66.710
 3542DT     BB223010  83.518  80.078  66.912
 3542DT     BB323011  83.424  79.936  67.028
 3542DT     SC123012  83.329  80.119  67.190
 3542DT     SC223013  83.427  80.103  67.381
 3542DT     SC323014  83.157  80.271  67.320
 3543DA     BB123015  83.759  79.773  66.830
 3543DA     BB223016  83.757  79.651  67.176
 3543DA     BB323017  83.594  79.517  67.207
 3543DA     SC123018  83.396  79.738  67.297
 3543DA     SC223019  83.281  79.810  67.506
 3543DA     SC323020  83.117  79.931  67.351
 3543DA     SC423021  83.304  79.806  67.184
 3544DC     BB123022  83.626  79.312  67.239
 3544DC     BB223023  83.528  79.298  67.586
 3544DC     BB323024  83.341  79.209  67.603
 3544DC     SC123025  83.222  79.426  67.513
 3544DC     SC223026  83.112  79.517  67.674
 3544DC     SC323027  83.080  79.584  67.358
 3545DA     BB123028  83.556  78.949  67.859
 3545DA     BB223029  83.249  79.037  68.038
 3545DA     BB323030  83.085  78.922  67.965
 3545DA     SC123031  83.004  79.130  67.748
 3545DA     SC223032  82.816  79.289  67.706
 3545DA     SC323033  82.894  79.284  67.461
 3545DA     SC423034  83.066  79.112  67.601
 3546DA     BB123035  83.010  78.793  68.272
 3546DA     BB223036  82.683  78.958  68.255
 3546DA     BB323037  82.544  78.836  68.149
 3546DA     SC123038  82.608  78.961  67.872
 3546DA     SC223039  82.495  79.107  67.705
 3546DA     SC323040  82.665  79.013  67.537
 3546DA     SC423041  82.721  78.889  67.782
 3547DC     BB123042  82.351  78.722  68.236
 3547DC     BB223043  82.109  78.953  68.101
 3547DC     BB323044  81.994  78.858  67.958
 3547DC     SC123045  82.190  78.866  67.784
 3547DC     SC223046  82.141  79.004  67.626
 3547DC     SC323047  82.379  78.783  67.619
 3548DG     BB123048  81.722  78.980  68.236
 3548DG     BB223049  81.632  79.100  67.907
 3548DG     BB323050  81.536  78.957  67.807
 3548DG     SC123051  81.791  78.838  67.686
 3548DG     SC223052  81.865  78.840  67.396
 3548DG     SC323053  82.051  78.670  67.551
 3548DG     SC423054  81.870  78.725  67.767
 3549DT     BB123055  81.328  78.988  67.742
 3549DT     BB223056  81.372  79.047  67.388
 3549DT     BB323057  81.314  78.879  67.281
 3549DT     SC123058  81.532  78.750  67.350
 3549DT     SC223059  81.658  78.726  67.178
 3549DT     SC323060  81.688  78.568  67.459
 3550DT     BB123061  81.108  79.026  67.201
 3550DT     BB223062  81.269  78.921  66.896
 3550DT     BB323063  81.203  78.733  66.843
 3550DT     SC123064  81.347  78.620  67.031
 3550DT     SC223065  81.508  78.509  66.942
 3550DT     SC323066  81.408  78.484  67.249
 3551DT     BB123067  81.066  78.846  66.639
 3551DT     BB223068  81.271  78.597  66.479
 3551DT     BB323069  81.174  78.414  66.481
 3551DT     SC123070  81.225  78.381  66.736
 3551DT     SC223071  81.368  78.222  66.761
 3551DT     SC323072  81.186  78.351  66.995
 3552DG     BB123073  81.260  78.508  66.093
 3552DG     BB223074  81.371  78.174  66.177
 3552DG     BB323075  81.215  78.050  66.183
 3552DG     SC123076  81.158  78.098  66.480
 3552DG     SC223077  81.188  77.897  66.699
 3552DG     SC323078  81.054  78.142  66.798
 3552DG     SC423079  81.061  78.218  66.522
 3553DT     BB123080  81.196  77.879  66.043
 3553DT     BB223081  81.265  77.598  66.258
 3553DT     BB323082  81.088  77.502  66.309
 3553DT     SC123083  81.023  77.693  66.476
 3553DT     SC223084  81.034  77.619  66.677
 3553DT     SC323085  80.889  77.894  66.584
 3554DG     BB123086  81.316  77.216  66.127
 3554DG     BB223087  81.192  77.100  66.446
 3554DG     BB323088  81.003  77.043  66.428
 3554DG     SC123089  80.888  77.319  66.492
 3554DG     SC223090  80.729  77.391  66.735
 3554DG     SC323091  80.728  77.612  66.539
 3554DG     SC423092  80.865  77.423  66.373
 3555DT     BB123093  80.935  76.830  66.462
 3555DT     BB223094  80.768  76.856  66.781
 3555DT     BB323095  80.563  76.852  66.754
 3555DT     SC123096  80.563  77.099  66.663
 3555DT     SC223097  80.467  77.228  66.807
 3555DT     SC323098  80.533  77.302  66.498
 3556DA     BB123099  80.637  76.551  67.037
 3556DA     BB223100  80.361  76.756  67.165
 3556DA     BB323101  80.181  76.713  67.058
 3556DA     SC123102  80.228  76.932  66.843
 3556DA     SC223103  80.129  77.152  66.777
 3556DA     SC323104  80.242  77.112  66.550
 3556DA     SC423105  80.305  76.889  66.708
 3557DT     BB123106  80.008  76.614  67.148
 3557DT     BB223107  79.797  76.906  67.168
 3557DT     BB323108  79.645  76.894  67.028
 3557DT     SC123109  79.811  76.951  66.832
 3557DT     SC223110  79.766  77.147  66.755
 3557DT     SC323111  79.953  76.924  66.612
 3558DA     BB123112  79.422  76.950  67.382
 3558DA     BB223113  79.297  77.192  67.138
 3558DA     BB323114  79.169  77.096  66.997
 3558DA     SC123115  79.398  77.031  66.796
 3558DA     SC223116  79.471  77.104  66.570
 3558DA     SC323117  79.602  76.883  66.563
 3558DA     SC423118  79.471  76.888  66.811
 3559DT     BB123119  78.930  77.120  66.968
 3559DT     BB223120  78.951  77.323  66.671
 3559DT     BB323121  78.876  77.219  66.508
 3559DT     SC123122  79.091  77.069  66.496
 3559DT     SC223123  79.203  77.119  66.319
 3559DT     SC323124  79.245  76.855  66.502
 3560DC     BB123125  78.622  77.357  66.478
 3560DC     BB223126  78.787  77.406  66.161
 3560DC     BB323127  78.728  77.260  66.027
 3560DC     SC123128  78.877  77.080  66.147
 3560DC     SC223129  79.042  77.026  66.019
 3560DC     SC323130  78.944  76.863  66.282
 3561DA     BB123131  78.657  77.623  65.835
 3561DA     BB223132  78.867  77.420  65.614
 3561DA     BB323133  78.750  77.270  65.517
 3561DA     SC123134  78.795  77.056  65.738
 3561DA     SC223135  78.917  76.840  65.764
 3561DA     SC323136  78.759  76.798  65.962
 3561DA     SC423137  78.687  77.048  65.857
 3562DT     BB123138  78.754  77.299  65.339
 3562DT     BB223139  78.989  77.036  65.264
 3562DT     BB323140  78.889  76.870  65.193
 3562DT     SC123141  78.803  76.809  65.433
 3562DT     SC223142  78.901  76.630  65.501
 3562DT     SC323143  78.637  76.765  65.633
 3563DG     BB123144  79.195  77.011  64.963
 3563DG     BB223145  79.231  76.659  65.042
 3563DG     BB323146  79.098  76.553  64.940
 3563DG     SC123147  78.881  76.572  65.155
 3563DG     SC223148  78.776  76.345  65.318
 3563DG     SC323149  78.615  76.589  65.361
 3563DG     SC423150  78.780  76.696  65.153
 3564DA     BB123151  79.399  76.389  64.898
 3564DA     BB223152  79.238  76.086  65.029
 3564DA     BB323153  79.088  76.018  64.894
 3564DA     SC123154  78.860  76.182  65.028
 3564DA     SC223155  78.655  76.137  65.164
 3564DA     SC323156  78.579  76.371  65.089
 3564DA     SC423157  78.829  76.329  64.969
 3565DG     BB123158  79.278  75.777  64.918
 3565DG     BB223159  78.980  75.619  65.049
 3565DG     BB323160  78.854  75.579  64.900
 3565DG     SC123161  78.710  75.848  64.917
 3565DG     SC223162  78.426  75.891  65.000
 3565DG     SC323163  78.543  76.140  64.893
 3565DG     SC423164  78.766  75.972  64.832
 3566DT     BB123165  78.801  75.374  64.856
 3566DT     BB223166  78.460  75.355  64.972
 3566DT     BB323167  78.330  75.370  64.811
 3566DT     SC123168  78.374  75.627  64.789
 3566DT     SC223169  78.197  75.735  64.847
 3566DT     SC323170  78.451  75.858  64.687
 3567DA     BB123171  78.210  75.017  65.006
 3567DA     BB223172  77.908  75.214  64.941
 3567DA     BB323173  77.856  75.204  64.735
 3567DA     SC123174  78.022  75.454  64.655
 3567DA     SC223175  77.979  75.688  64.579
 3567DA     SC323176  78.220  75.682  64.491
 3567DA     SC423177  78.173  75.430  64.606
 3568DA     BB123178  77.556  75.096  64.833
 3568DA     BB223179  77.413  75.395  64.676
 3568DA     BB323180  77.397  75.367  64.465
 3568DA     SC123181  77.678  75.484  64.403
 3568DA     SC223182  77.773  75.688  64.296
 3568DA     SC323183  77.988  75.550  64.271
 3568DA     SC423184  77.801  75.382  64.396
 3569DA     BB123185  77.079  75.443  64.512
 3569DA     BB223186  77.135  75.736  64.299
 3569DA     BB323187  77.136  75.679  64.093
 3569DA     SC123188  77.443  75.628  64.083
 3569DA     SC223189  77.644  75.732  63.980
 3569DA     SC323190  77.756  75.504  64.016
 3569DA     SC423191  77.495  75.478  64.113
 3570DA     BB123192  76.912  75.915  64.085
 3570DA     BB223193  77.138  76.094  63.858
 3570DA     BB323194  77.132  76.006  63.664
 3570DA     SC123195  77.364  75.807  63.719
 3570DA     SC223196  77.601  75.774  63.647
 3570DA     SC323197  77.571  75.533  63.728
 3570DA     SC423198  77.326  75.661  63.774
 3571DC     BB123199  77.063  76.123  63.533
 3571DC     BB223200  77.377  76.197  63.372
 3571DC     BB323201  77.395  76.087  63.198
 3571DC     SC123202  77.445  75.868  63.333
 3571DC     SC223203  77.651  75.811  63.303
 3571DC     SC323204  77.418  75.624  63.429
 3572DT     BB123205  77.367  76.321  63.084
 3572DT     BB223206  77.682  76.192  62.964
 3572DT     BB323207  77.649  76.058  62.809
 3572DT     SC123208  77.566  75.874  62.976
 3572DT     SC223209  77.711  75.715  62.985
 3572DT     SC323210  77.407  75.701  63.097
 3573DA     BB123211  77.936  76.339  62.688
 3573DA     BB223212  78.060  76.005  62.603
 3573DA     BB323213  77.949  75.923  62.440
 3573DA     SC123214  77.738  75.786  62.622
 3573DA     SC223215  77.673  75.554  62.688
 3573DA     SC323216  77.448  75.657  62.755
 3573DA     SC423217  77.604  75.868  62.657
 3574DT     BB123218  78.044  75.894  62.266
 3574DT     BB223219  78.062  75.534  62.283
 3574DT     BB323220  77.921  75.451  62.157
 3574DT     SC123221  77.726  75.511  62.323
 3574DT     SC223222  77.648  75.330  62.410
 3574DT     SC323223  77.506  75.622  62.418
 3575DA     BB123224  78.285  75.271  62.051
 3575DA     BB223225  78.038  75.004  62.094
 3575DA     BB323226  77.903  75.001  61.929
 3575DA     SC123227  77.699  75.194  62.062
 3575DA     SC223228  77.468  75.183  62.157
 3575DA     SC323229  77.463  75.437  62.123
 3575DA     SC423230  77.714  75.351  62.031
 3576DG     BB123231  78.007  74.710  61.875
 3576DG     BB223232  77.667  74.620  61.958
 3576DG     BB323233  77.551  74.637  61.797
 3576DG     SC123234  77.478  74.930  61.850
 3576DG     SC223235  77.208  75.033  61.922
 3576DG     SC323236  77.394  75.256  61.867
 3576DG     SC423237  77.573  75.045  61.792
 3577DT     BB123238  77.447  74.461  61.711
 3577DT     BB223239  77.109  74.519  61.822
 3577DT     BB323240  76.994  74.588  61.665
 3577DT     SC123241  77.105  74.825  61.676
 3577DT     SC223242  76.960  74.968  61.747
 3577DT     SC323243  77.243  75.038  61.605
 3578DT     BB123244  76.872  74.351  61.672
 3578DT     BB223245  76.609  74.593  61.721
 3578DT     BB323246  76.543  74.663  61.538
 3578DT     SC123247  76.758  74.811  61.508
 3578DT     SC223248  76.706  75.019  61.524
 3578DT     SC323249  76.985  74.902  61.408
 3579DA     BB123250  76.223  74.545  61.782
 3579DA     BB223251  76.148  74.877  61.645
 3579DA     BB323252  76.109  74.864  61.435
 3579DA     SC123253  76.405  74.909  61.352
 3579DA     SC223254  76.541  75.087  61.242
 3579DA     SC323255  76.710  74.900  61.195
 3579DA     SC423256  76.498  74.779  61.332
 3580DC     BB123257  75.938  74.911  61.402
 3580DC     BB223258  76.007  75.228  61.244
 3580DC     BB323259  76.007  75.206  61.038
 3580DC     SC123260  76.241  75.088  61.043
 3580DC     SC223261  76.389  75.218  60.956
 3580DC     SC323262  76.426  74.901  61.016
 3581DG     BB123263  75.730  75.491  61.131
 3581DG     BB223264  75.955  75.605  60.872
 3581DG     BB323265  75.906  75.521  60.698
 3581DG     SC123266  76.087  75.277  60.738
 3581DG     SC223267  76.330  75.212  60.577
 3581DG     SC323268  76.259  74.988  60.757
 3581DG     SC423269  76.029  75.149  60.813
 3582DG     BB123270  75.860  75.819  60.560
 3582DG     BB223271  76.125  75.731  60.331
 3582DG     BB323272  76.052  75.619  60.182
 3582DG     SC123273  76.098  75.353  60.327
 3582DG     SC223274  76.291  75.141  60.246
 3582DG     SC323275  76.115  75.046  60.464
 3582DG     SC423276  75.983  75.296  60.422
 3583DA     BB123277  76.193  75.839  59.948
 3583DA     BB223278  76.394  75.566  59.808
 3583DA     BB323279  76.274  75.443  59.683
 3583DA     SC123280  76.191  75.249  59.911
 3583DA     SC223281  76.235  75.013  59.978
 3583DA     SC323282  76.020  75.033  60.117
 3583DA     SC423283  76.054  75.281  59.990
 3584DC     BB123284  76.306  75.433  59.474
 3584DC     BB223285  76.460  75.107  59.471
 3584DC     BB323286  76.329  74.968  59.392
 3584DC     SC123287  76.185  74.967  59.611
 3584DC     SC223288  76.209  74.778  59.711
 3584DC     SC323289  75.979  74.997  59.773
 3585DG     BB123290  76.666  74.957  59.162
 3585DG     BB223291  76.578  74.628  59.283
 3585DG     BB323292  76.428  74.554  59.175
 3585DG     SC123293  76.209  74.670  59.354
 3585DG     SC223294  76.019  74.514  59.523
 3585DG     SC323295  75.943  74.800  59.516
 3585DG     SC423296  76.154  74.818  59.323
 3586DC     BB123297  76.460  74.373  59.063
 3586DC     BB223298  76.278  74.132  59.260
 3586DC     BB323299  76.096  74.092  59.172
 3586DC     SC123300  75.998  74.322  59.250
 3586DC     SC223301  75.849  74.288  59.402
 3586DC     SC323302  75.896  74.565  59.239
 3587DA     BB123303  76.289  73.727  59.252
 3587DA     BB223304  75.945  73.704  59.376
 3587DA     BB323305  75.808  73.691  59.213
 3587DA     SC123306  75.766  73.999  59.192
 3587DA     SC223307  75.585  74.164  59.236
 3587DA     SC323308  75.716  74.319  59.080
 3587DA     SC423309  75.862  74.080  59.091
 3588DT     BB123310  75.704  73.520  59.187
 3588DT     BB223311  75.383  73.644  59.297
 3588DT     BB323312  75.261  73.678  59.134
 3588DT     SC123313  75.393  73.895  59.070
 3588DT     SC223314  75.269  74.067  59.106
 3588DT     SC323315  75.542  74.063  58.933
 3589DT     BB123316  75.102  73.455  59.184
 3589DT     BB223317  74.868  73.729  59.175
 3589DT     BB323318  74.802  73.759  58.981
 3589DT     SC123319  75.030  73.870  58.913
 3589DT     SC223320  74.999  74.081  58.878
 3589DT     SC323321  75.260  73.909  58.791
 3590DT     BB123322  74.543  73.647  59.015
 3590DT     BB223323  74.477  73.981  58.895
 3590DT     BB323324  74.464  73.981  58.688
 3590DT     SC123325  74.725  73.956  58.664
 3590DT     SC223326  74.806  74.139  58.586
 3590DT     SC323327  74.960  73.854  58.602
 3591DT     BB123328  74.181  74.010  58.671
 3591DT     BB223329  74.310  74.294  58.490
 3591DT     BB323330  74.328  74.247  58.289
 3591DT     SC123331  74.541  74.100  58.334
 3591DT     SC223332  74.714  74.197  58.251
 3591DT     SC323333  74.698  73.889  58.348
 3592DC     BB123334  74.112  74.406  58.216
 3592DC     BB223335  74.391  74.542  58.032
 3592DC     BB323336  74.407  74.449  57.848
 3592DC     SC123337  74.505  74.231  57.958
 3592DC     SC223338  74.712  74.211  57.903
 3592DC     SC323339  74.526  73.980  58.034
 3593DT     BB123340  74.327  74.680  57.743
 3593DT     BB223341  74.652  74.617  57.599
 3593DT     BB323342  74.634  74.495  57.434
 3593DT     SC123343  74.590  74.284  57.584
 3593DT     SC223344  74.759  74.152  57.572
 3593DT     SC323345  74.468  74.077  57.692
 3594DA     BB123346  74.873  74.833  57.368
 3594DA     BB223347  75.052  74.537  57.248
 3594DA     BB323348  74.958  74.458  57.074
 3594DA     SC123349  74.771  74.266  57.233
 3594DA     SC223350  74.747  74.020  57.269
 3594DA     SC323351  74.507  74.076  57.342
 3594DA     SC423352  74.626  74.320  57.274
 3595DT     BB123353  75.073  74.471  56.942
 3595DT     BB223354  75.151  74.121  56.910
 3595DT     BB323355  75.034  74.035  56.763
 3595DT     SC123356  74.823  74.037  56.918
 3595DT     SC223357  74.772  73.836  56.973
 3595DT     SC323358  74.582  74.096  57.008
 3596DA     BB123359  75.440  73.934  56.711
 3596DA     BB223360  75.239  73.630  56.675
 3596DA     BB323361  75.125  73.637  56.495
 3596DA     SC123362  74.877  73.770  56.629
 3596DA     SC223363  74.643  73.707  56.688
 3596DA     SC323364  74.599  73.959  56.696
 3596DA     SC423365  74.869  73.931  56.627
 3597DC     BB123366  75.170  73.507  56.353
 3597DC     BB223367  74.879  73.297  56.382
 3597DC     BB323368  74.746  73.338  56.229
 3597DC     SC123369  74.672  73.563  56.344
 3597DC     SC223370  74.470  73.543  56.415
 3597DC     SC323371  74.635  73.821  56.383
 3598DT     BB123372  74.804  73.105  56.089
 3598DT     BB223373  74.446  73.093  56.130
 3598DT     BB323374  74.353  73.189  55.971
 3598DT     SC123375  74.419  73.425  56.065
 3598DT     SC223376  74.242  73.526  56.134
 3598DT     SC323377  74.531  73.663  56.082
 3599DT     BB123378  74.264  72.954  55.838
 3599DT     BB223379  73.962  73.145  55.883
 3599DT     BB323380  73.929  73.265  55.717
 3599DT     SC123381  74.119  73.431  55.791
 3599DT     SC223382  74.031  73.618  55.852
 3599DT     SC323383  74.344  73.568  55.787
 3600DA     BB123384  73.568  73.052  55.745
 3600DA     BB223385  73.481  73.407  55.717
 3600DA     BB323386  73.502  73.472  55.514
 3600DA     SC123387  73.798  73.560  55.547
 3600DA     SC223388  73.929  73.772  55.552
 3600DA     SC323389  74.132  73.625  55.497
 3600DA     SC423390  73.912  73.452  55.511
 3601DA     BB123391  73.188  73.571  55.544
 3601DA     BB223392  73.307  73.913  55.490
 3601DA     BB323393  73.339  73.948  55.282
 3601DA     SC123394  73.637  73.859  55.289
 3601DA     SC223395  73.862  73.965  55.268
 3601DA     SC323396  73.946  73.728  55.214
 3601DA     SC423397  73.669  73.705  55.256
 3602DA     BB123398  73.141  74.199  55.353
 3602DA     BB223399  73.419  74.418  55.258
 3602DA     BB323400  73.441  74.422  55.045
 3602DA     SC123401  73.641  74.184  55.037
 3602DA     SC223402  73.883  74.148  54.989
 3602DA     SC323403  73.819  73.903  54.951
 3602DA     SC423404  73.581  74.037  55.017
 3603DC     BB123405  73.405  74.594  54.956
 3603DC     BB223406  73.749  74.679  54.887
 3603DC     BB323407  73.791  74.646  54.687
 3603DC     SC123408  73.797  74.386  54.722
 3603DC     SC223409  73.999  74.316  54.701
 3603DC     SC323410  73.732  74.131  54.702
 3604DA     BB123411  73.912  75.037  54.778
 3604DA     BB223412  74.189  74.871  54.605
 3604DA     BB323413  74.145  74.850  54.397
 3604DA     SC123414  74.012  74.571  54.428
 3604DA     SC223415  74.063  74.335  54.366
 3604DA     SC323416  73.811  74.294  54.396
 3604DA     SC423417  73.853  74.566  54.450
 3605DG     BB123418  74.400  75.024  54.361
 3605DG     BB223419  74.526  74.723  54.205
 3605DG     BB323420  74.465  74.714  54.016
 3605DG     SC123421  74.207  74.563  54.081
 3605DG     SC223422  74.142  74.283  54.001
 3605DG     SC323423  73.906  74.416  54.119
 3605DG     SC423424  74.075  74.647  54.117
 3606DC     BB123425  74.610  74.716  53.844
 3606DC     BB223426  74.604  74.369  53.746
 3606DC     BB323427  74.495  74.347  53.571
 3606DC     SC123428  74.268  74.380  53.699
 3606DC     SC223429  74.161  74.193  53.702
 3606DC     SC323430  74.038  74.485  53.773
 3607DA     BB123431  74.867  74.159  53.534
 3607DA     BB223432  74.606  73.921  53.434
 3607DA     BB323433  74.524  73.977  53.245
 3607DA     SC123434  74.299  74.153  53.368
 3607DA     SC223435  74.051  74.145  53.392
 3607DA     SC323436  74.067  74.399  53.430
 3607DA     SC423437  74.329  74.310  53.388
 3608DT     BB123438  74.560  73.847  53.133
 3608DT     BB223439  74.227  73.710  53.117
 3608DT     BB323440  74.128  73.784  52.951
 3608DT     SC123441  74.093  74.018  53.066
 3608DT     SC223442  73.885  74.045  53.112
 3608DT     SC323443  74.111  74.277  53.112
 3609DT     BB123444  74.155  73.535  52.901
 3609DT     BB223445  73.800  73.603  52.891
 3609DT     BB323446  73.752  73.701  52.715
 3609DT     SC123447  73.856  73.925  52.802
 3609DT     SC223448  73.698  74.068  52.838
 3609DT     SC323449  74.015  74.135  52.818
 3610DA     BB123450  73.497  73.385  52.850
 3610DA     BB223451  73.294  73.668  52.736
 3610DA     BB323452  73.325  73.703  52.528
 3610DA     SC123453  73.559  73.903  52.572
 3610DA     SC223454  73.600  74.148  52.544
 3610DA     SC323455  73.849  74.085  52.544
 3610DA     SC423456  73.708  73.844  52.572
 3611DT     BB123457  73.174  73.676  52.463
 3611DT     BB223458  73.099  74.010  52.351
 3611DT     BB323459  73.173  74.039  52.160
 3611DT     SC123460  73.419  74.057  52.249
 3611DT     SC223461  73.489  74.259  52.227
 3611DT     SC323462  73.674  74.000  52.288
 3612DT     BB123463  72.922  74.025  52.059
 3612DT     BB223464  73.057  74.326  51.913
 3612DT     BB323465  73.164  74.280  51.742
 3612DT     SC123466  73.364  74.185  51.883
 3612DT     SC223467  73.533  74.316  51.865
 3612DT     SC323468  73.538  74.013  51.982
 3613DC     BB123469  72.972  74.357  51.534
 3613DC     BB223470  73.272  74.529  51.429
 3613DC     BB323471  73.376  74.412  51.293
 3613DC     SC123472  73.460  74.252  51.484
 3613DC     SC223473  73.671  74.279  51.511
 3613DC     SC323474  73.494  74.033  51.626
 3614DT     BB123475  73.310  74.541  51.032
 3614DT     BB223476  73.670  74.538  51.029
 3614DT     BB323477  73.739  74.371  50.926
 3614DT     SC123478  73.677  74.213  51.126
 3614DT     SC223479  73.858  74.140  51.217
 3614DT     SC323480  73.559  74.021  51.264
 3615DT     BB123481  73.822  74.496  50.675
 3615DT     BB223482  74.121  74.327  50.786
 3615DT     BB323483  74.133  74.140  50.699
 3615DT     SC123484  73.946  74.045  50.857
 3615DT     SC223485  74.033  73.905  50.995
 3615DT     SC323486  73.717  73.941  50.935
 3616DT     BB123487  74.339  74.206  50.517
 3616DT     BB223488  74.475  73.929  50.704
 3616DT     BB323489  74.432  73.751  50.607
 3616DT     SC123490  74.182  73.761  50.684
 3616DT     SC223491  74.145  73.606  50.829
 3616DT     SC323492  73.919  73.776  50.672
 3617DT     BB123493  74.694  73.721  50.528
 3617DT     BB223494  74.622  73.421  50.715
 3617DT     BB323495  74.544  73.276  50.589
 3617DT     SC123496  74.313  73.399  50.578
 3617DT     SC223497  74.165  73.283  50.683
 3617DT     SC323498  74.105  73.529  50.480
 3618DG     BB123499  74.878  73.113  50.758
 3618DG     BB223500  74.592  72.897  50.800
 3618DG     BB323501  74.557  72.796  50.632
 3618DG     SC123502  74.370  73.008  50.515
 3618DG     SC223503  74.077  72.976  50.465
 3618DG     SC323504  74.177  73.229  50.347
 3618DG     SC423505  74.433  73.127  50.428
 3619DA     BB123506  74.560  72.502  50.819
 3619DA     BB223507  74.217  72.428  50.715
 3619DA     BB323508  74.214  72.352  50.516
 3619DA     SC123509  74.182  72.631  50.383
 3619DA     SC223510  74.006  72.758  50.259
 3619DA     SC323511  74.200  72.902  50.173
 3619DA     SC423512  74.316  72.709  50.339
 3620DA     BB123513  74.051  72.091  50.641
 3620DA     BB223514  73.770  72.181  50.424
 3620DA     BB323515  73.805  72.113  50.224
 3620DA     SC123516  73.944  72.377  50.134
 3620DA     SC223517  73.895  72.569  49.982
 3620DA     SC323518  74.148  72.610  49.985
 3620DA     SC423519  74.104  72.385  50.147
 3621DT     BB123520  73.690  71.948  50.118
 3621DT     BB223521  73.498  72.167  49.905
 3621DT     BB323522  73.557  72.144  49.708
 3621DT     SC123523  73.779  72.278  49.752
 3621DT     SC223524  73.769  72.467  49.650
 3621DT     SC323525  74.036  72.332  49.774
 3622DT     BB123526  73.325  72.010  49.640
 3622DT     BB223527  73.332  72.297  49.421
 3622DT     BB323528  73.434  72.250  49.247
 3622DT     SC123529  73.665  72.262  49.371
 3622DT     SC223530  73.775  72.433  49.302
 3622DT     SC323531  73.897  72.186  49.471
 3623DT     BB123532  73.200  72.251  49.108
 3623DT     BB223533  73.404  72.497  48.942
 3623DT     BB323534  73.520  72.407  48.797
 3623DT     SC123535  73.681  72.305  48.978
 3623DT     SC223536  73.872  72.402  48.966
 3623DT     SC323537  73.808  72.126  49.124
 3624DT     BB123538  73.365  72.526  48.612
 3624DT     BB223539  73.699  72.638  48.537
 3624DT     BB323540  73.795  72.500  48.416
 3624DT     SC123541  73.828  72.335  48.617
 3624DT     SC223542  74.037  72.325  48.668
 3624DT     SC323543  73.808  72.119  48.767
 3625DG     BB123544  73.799  72.856  48.219
 3625DG     BB223545  74.130  72.714  48.239
 3625DG     BB323546  74.150  72.569  48.104
 3625DG     SC123547  74.051  72.347  48.290
 3625DG     SC223548  74.215  72.121  48.395
 3625DG     SC323549  73.929  72.083  48.460
 3625DG     SC423550  73.894  72.316  48.296
 3626DA     BB123551  74.439  72.730  47.993
 3626DA     BB223552  74.637  72.432  48.069
 3626DA     BB323553  74.609  72.284  47.918
 3626DA     SC123554  74.370  72.147  48.062
 3626DA     SC223555  74.324  71.931  48.179
 3626DA     SC323556  74.077  71.984  48.136
 3626DA     SC423557  74.222  72.197  48.024
 3627DT     BB123558  74.767  72.226  47.787
 3627DT     BB223559  74.835  71.907  47.941
 3627DT     BB323560  74.769  71.754  47.818
 3627DT     SC123561  74.518  71.802  47.881
 3627DT     SC223562  74.443  71.639  48.000
 3627DT     SC323563  74.264  71.868  47.855
 3628DA     BB123564  75.168  71.669  47.909
 3628DA     BB223565  74.971  71.367  47.978
 3628DA     BB323566  74.916  71.271  47.795
 3628DA     SC123567  74.648  71.426  47.767
 3628DA     SC223568  74.404  71.376  47.782
 3628DA     SC323569  74.372  71.592  47.646
 3628DA     SC423570  74.649  71.562  47.681
 3629DA     BB123571  75.056  71.029  47.960
 3629DA     BB223572  74.730  70.861  47.944
 3629DA     BB323573  74.695  70.785  47.748
 3629DA     SC123574  74.553  71.043  47.648
 3629DA     SC223575  74.323  71.114  47.583
 3629DA     SC323576  74.439  71.307  47.459
 3629DA     SC423577  74.644  71.155  47.576
 3630DA     BB123578  74.644  70.540  47.953
 3630DA     BB223579  74.303  70.534  47.819
 3630DA     BB323580  74.303  70.462  47.618
 3630DA     SC123581  74.335  70.744  47.491
 3630DA     SC223582  74.197  70.903  47.357
 3630DA     SC323583  74.421  71.010  47.291
 3630DA     SC423584  74.484  70.796  47.461
 3631DA     BB123585  74.079  70.296  47.786
 3631DA     BB223586  73.840  70.419  47.537
 3631DA     BB323587  73.880  70.331  47.346
 3631DA     SC123588  74.074  70.557  47.256
 3631DA     SC223589  74.076  70.743  47.089
 3631DA     SC323590  74.331  70.737  47.116
 3631DA     SC423591  74.231  70.537  47.285
 3632DT     BB123592  73.740  70.241  47.311
 3632DT     BB223593  73.615  70.449  47.045
 3632DT     BB323594  73.687  70.382  46.863
 3632DT     SC123595  73.925  70.480  46.911
 3632DT     SC223596  73.962  70.647  46.780
 3632DT     SC323597  74.185  70.490  46.956
 3633DG     BB123598  73.279  70.398  46.856
 3633DG     BB223599  73.425  70.563  46.569
 3633DG     BB323600  73.494  70.428  46.441
 3633DG     SC123601  73.773  70.414  46.566
 3633DG     SC223602  74.027  70.505  46.438
 3633DG     SC323603  74.082  70.360  46.690
 3633DG     SC423604  73.799  70.311  46.685
 3634DC     BB123605  73.409  70.418  46.245
 3634DC     BB223606  73.673  70.549  46.038
 3634DC     BB323607  73.777  70.394  45.948
 3634DC     SC123608  73.898  70.335  46.173
 3634DC     SC223609  74.107  70.386  46.158
 3634DC     SC323610  73.973  70.200  46.387
 3635DA     BB123611  73.667  70.650  45.633
 3635DA     BB223612  74.022  70.566  45.590
 3635DA     BB323613  74.043  70.365  45.522
 3635DA     SC123614  74.062  70.245  45.809
 3635DA     SC223615  74.235  70.138  45.953
 3635DA     SC323616  74.036  70.044  46.086
 3635DA     SC423617  73.925  70.195  45.877
 3636DA     BB123618  74.220  70.489  45.268
 3636DA     BB223619  74.503  70.287  45.384
 3636DA     BB323620  74.478  70.084  45.326
 3636DA     SC123621  74.328  70.003  45.587
 3636DA     SC223622  74.372  69.863  45.789
 3636DA     SC323623  74.117  69.860  45.817
 3636DA     SC423624  74.168  70.011  45.586
 3637DT     BB123625  74.602  69.971  45.172
 3637DT     BB223626  74.787  69.768  45.406
 3637DT     BB323627  74.726  69.571  45.392
 3637DT     SC123628  74.502  69.623  45.519
 3637DT     SC223629  74.507  69.531  45.713
 3637DT     SC323630  74.244  69.650  45.565
 3638DT     BB123631  74.953  69.462  45.248
 3638DT     BB223632  74.936  69.256  45.544
 3638DT     BB323633  74.822  69.088  45.506
 3638DT     SC123634  74.599  69.227  45.514
 3638DT     SC223635  74.488  69.172  45.690
 3638DT     SC323636  74.373  69.339  45.436
 3639DC     BB123637  75.033  68.886  45.482
 3639DC     BB223638  74.822  68.757  45.745
 3639DC     BB323639  74.683  68.625  45.666
 3639DC     SC123640  74.542  68.822  45.564
 3639DC     SC223641  74.356  68.839  45.670
 3639DC     SC323642  74.426  68.977  45.385
 3640DT     BB123643  74.800  68.376  45.759
 3640DT     BB223644  74.470  68.378  45.905
 3640DT     BB323645  74.338  68.276  45.783
 3640DT     SC123646  74.332  68.473  45.611
 3640DT     SC223647  74.138  68.567  45.617
 3640DT     SC323648  74.361  68.608  45.386
 3641DA     BB123649  74.305  68.110  46.164
 3641DA     BB223650  73.970  68.210  46.054
 3641DA     BB323651  73.894  68.071  45.912
 3641DA     SC123652  74.007  68.223  45.665
 3641DA     SC223653  73.919  68.356  45.474
 3641DA     SC323654  74.144  68.307  45.362
 3641DA     SC423655  74.153  68.181  45.612
 3642DT     BB123656  73.748  67.997  45.982
 3642DT     BB223657  73.512  68.189  45.787
 3642DT     BB323658  73.447  68.077  45.626
 3642DT     SC123659  73.674  68.112  45.500
 3642DT     SC223660  73.643  68.240  45.330
 3642DT     SC323661  73.905  68.057  45.384
 3643DA     BB123662  73.157  68.285  45.853
 3643DA     BB223663  73.107  68.357  45.497
 3643DA     BB323664  73.046  68.181  45.394
 3643DA     SC123665  73.336  68.092  45.323
 3643DA     SC223666  73.479  68.075  45.120
 3643DA     SC323667  73.621  67.912  45.259
 3643DA     SC423668  73.410  67.993  45.425
 3644DA     BB123669  72.856  68.439  45.325
 3644DA     BB223670  72.953  68.376  44.978
 3644DA     BB323671  72.879  68.186  44.913
 3644DA     SC123672  73.133  68.030  45.001
 3644DA     SC223673  73.323  67.911  44.891
 3644DA     SC323674  73.353  67.793  45.117
 3644DA     SC423675  73.135  67.966  45.148
 3645DT     BB123676  72.773  68.226  44.788
 3645DT     BB223677  72.972  68.097  44.516
 3645DT     BB323678  72.922  67.899  44.480
 3645DT     SC123679  73.050  67.819  44.694
 3645DT     SC223680  73.226  67.709  44.635
 3645DT     SC323681  73.095  67.714  44.932
 3646DC     BB123682  72.817  67.994  44.259
 3646DC     BB223683  73.048  67.739  44.151
 3646DC     BB323684  72.961  67.553  44.169
 3646DC     SC123685  72.990  67.556  44.430
 3646DC     SC223686  73.138  67.411  44.488
 3646DC     SC323687  72.928  67.558  44.687
 3647DA     BB123688  73.112  67.582  43.778
 3647DA     BB223689  73.218  67.260  43.916
 3647DA     BB323690  73.052  67.127  43.930
 3647DA     SC123691  72.976  67.212  44.219
 3647DA     SC223692  72.981  67.113  44.448
 3647DA     SC323693  72.808  67.293  44.508
 3647DA     SC423694  72.868  67.330  44.236
 3648DG     BB123695  73.214  66.943  43.736
 3648DG     BB223696  73.211  66.716  44.017
 3648DG     BB323697  73.039  66.616  44.021
 3648DG     SC123698  72.895  66.822  44.195
 3648DG     SC223699  72.800  66.780  44.475
 3648DG     SC323700  72.700  67.037  44.368
 3648DG     SC423701  72.819  66.944  44.124
 3649DA     BB123702  73.225  66.321  44.036
 3649DA     BB223703  73.067  66.237  44.357
 3649DA     BB323704  72.869  66.165  44.325
 3649DA     SC123705  72.737  66.445  44.347
 3649DA     SC223706  72.589  66.567  44.507
 3649DA     SC323707  72.536  66.721  44.308
 3649DA     SC423708  72.716  66.529  44.212
 3650DC     BB123709  72.828  65.972  44.369
 3650DC     BB223710  72.639  66.035  44.670
 3650DC     BB323711  72.437  66.010  44.633
 3650DC     SC123712  72.425  66.238  44.504
 3650DC     SC223713  72.312  66.380  44.619
 3650DC     SC323714  72.392  66.410  44.306
 3651DA     BB123715  72.526  65.773  44.968
 3651DA     BB223716  72.229  65.973  45.048
 3651DA     BB323717  72.059  65.898  44.944
 3651DA     SC123718  72.100  66.081  44.695
 3651DA     SC223719  71.988  66.277  44.590
 3651DA     SC323720  72.114  66.209  44.377
 3651DA     SC423721  72.186  66.022  44.573
 3652DA     BB123722  71.928  65.887  45.247
 3652DA     BB223723  71.675  66.125  45.127
 3652DA     BB323724  71.531  66.025  45.006
 3652DA     SC123725  71.685  66.073  44.740
 3652DA     SC223726  71.658  66.209  44.533
 3652DA     SC323727  71.823  66.044  44.427
 3652DA     SC423728  71.788  65.959  44.692
 3653DA     BB123729  71.310  66.153  45.215
 3653DA     BB223730  71.168  66.334  44.929
 3653DA     BB323731  71.047  66.204  44.812
 3653DA     SC123732  71.280  66.115  44.625
 3653DA     SC223733  71.349  66.147  44.388
 3653DA     SC323734  71.494  65.938  44.423
 3653DA     SC423735  71.362  65.983  44.667
 3654DC     BB123736  70.836  66.230  44.797
 3654DC     BB223737  70.837  66.367  44.463
 3654DC     BB323738  70.761  66.229  44.329
 3654DC     SC123739  70.982  66.087  44.339
 3654DC     SC223740  71.085  66.103  44.151
 3654DC     SC323741  71.146  65.885  44.383
 3655DA     BB123742  70.547  66.583  44.271
 3655DA     BB223743  70.667  66.470  43.944
 3655DA     BB323744  70.553  66.303  43.877
 3655DA     SC123745  70.742  66.091  44.006
 3655DA     SC223746  70.904  65.918  43.930
 3655DA     SC323747  70.871  65.814  44.163
 3655DA     SC423748  70.706  66.041  44.155
 3656DA     BB123749  70.532  66.507  43.625
 3656DA     BB223750  70.704  66.248  43.431
 3656DA     BB323751  70.571  66.086  43.389
 3656DA     SC123752  70.645  65.926  43.645
 3656DA     SC223753  70.766  65.716  43.703
 3656DA     SC323754  70.638  65.727  43.925
 3656DA     SC423755  70.556  65.950  43.776
 3657DA     BB123756  70.702  66.174  43.105
 3657DA     BB223757  70.833  65.832  43.090
 3657DA     BB323758  70.674  65.693  43.056
 3657DA     SC123759  70.619  65.645  43.359
 3657DA     SC223760  70.647  65.462  43.525
 3657DA     SC323761  70.472  65.588  43.664
 3657DA     SC423762  70.508  65.738  43.429
 3658DG     BB123763  70.880  65.657  42.833
 3658DG     BB223764  70.905  65.328  42.983
 3658DG     BB323765  70.743  65.222  42.939
 3658DG     SC123766  70.585  65.314  43.185
 3658DG     SC223767  70.503  65.143  43.415
 3658DG     SC323768  70.377  65.410  43.432
 3658DG     SC423769  70.497  65.447  43.175
 3659DT     BB123770  70.794  65.062  42.846
 3659DT     BB223771  70.730  64.801  43.087
 3659DT     BB323772  70.539  64.726  43.060
 3659DT     SC123773  70.432  64.938  43.169
 3659DT     SC223774  70.347  64.885  43.360
 3659DT     SC323775  70.290  65.159  43.196
 3660DT     BB123776  70.668  64.514  42.975
 3660DT     BB223777  70.447  64.392  43.233
 3660DT     BB323778  70.256  64.369  43.157
 3660DT     SC123779  70.216  64.629  43.159
 3660DT     SC223780  70.071  64.678  43.310
 3660DT     SC323781  70.170  64.873  43.071
 3661DT     BB123782  70.279  64.096  43.153
 3661DT     BB223783  69.973  64.152  43.334
 3661DT     BB323784  69.814  64.167  43.202
 3661DT     SC123785  69.888  64.408  43.129
 3661DT     SC223786  69.745  64.552  43.202
 3661DT     SC323787  69.972  64.607  42.977
 3662DA     BB123788  69.671  63.855  43.449
 3662DA     BB223789  69.395  64.094  43.410
 3662DA     BB323790  69.304  64.071  43.219
 3662DA     SC123791  69.488  64.280  43.079
 3662DA     SC223792  69.467  64.508  42.981
 3662DA     SC323793  69.683  64.452  42.855
 3662DA     SC423794  69.622  64.225  43.009
 3663DT     BB123795  69.086  63.986  43.165
 3663DT     BB223796  68.938  64.306  43.085
 3663DT     BB323797  68.895  64.315  42.883
 3663DT     SC123798  69.148  64.347  42.822
 3663DT     SC223799  69.179  64.547  42.749
 3663DT     SC323800  69.386  64.299  42.720
 3664DA     BB123801  68.526  64.406  43.062
 3664DA     BB223802  68.593  64.666  42.812
 3664DA     BB323803  68.553  64.593  42.616
 3664DA     SC123804  68.843  64.490  42.569
 3664DA     SC223805  69.040  64.551  42.428
 3664DA     SC323806  69.120  64.311  42.473
 3664DA     SC423807  68.875  64.337  42.608
 3665DT     BB123808  68.396  64.672  42.503
 3665DT     BB223809  68.601  64.867  42.280
 3665DT     BB323810  68.605  64.780  42.092
 3665DT     SC123811  68.766  64.590  42.175
 3665DT     SC223812  68.959  64.616  42.085
 3665DT     SC323813  68.855  64.350  42.237
 3666DT     BB123814  68.452  64.982  42.001
 3666DT     BB223815  68.745  64.989  41.792
 3666DT     BB323816  68.722  64.858  41.633
 3666DT     SC123817  68.761  64.650  41.789
 3666DT     SC223818  68.950  64.559  41.740
 3666DT     SC323819  68.715  64.426  41.919
 3667DT     BB123820  68.696  65.071  41.470
 3667DT     BB223821  68.969  64.881  41.329
 3667DT     BB323822  68.896  64.734  41.204
 3667DT     SC123823  68.818  64.588  41.408
 3667DT     SC223824  68.941  64.413  41.422
 3667DT     SC323825  68.659  64.459  41.574
 3668DA     BB123826  69.176  64.942  40.969
 3668DA     BB223827  69.245  64.584  40.930
 3668DA     BB323828  69.098  64.493  40.805
 3668DA     SC123829  68.908  64.419  41.040
 3668DA     SC223830  68.831  64.213  41.156
 3668DA     SC323831  68.634  64.356  41.237
 3668DA     SC423832  68.793  64.525  41.078
 3669DA     BB123833  69.345  64.383  40.605
 3669DA     BB223834  69.240  64.041  40.683
 3669DA     BB323835  69.072  63.986  40.563
 3669DA     SC123836  68.861  64.085  40.770
 3669DA     SC223837  68.692  63.985  40.924
 3669DA     SC323838  68.584  64.218  40.922
 3669DA     SC423839  68.808  64.236  40.755
 3670DA     BB123840  69.238  63.718  40.441
 3670DA     BB223841  68.988  63.505  40.605
 3670DA     BB323842  68.816  63.484  40.481
 3670DA     SC123843  68.669  63.729  40.603
 3670DA     SC223844  68.470  63.772  40.748
 3670DA     SC323845  68.477  64.010  40.653
 3670DA     SC423846  68.689  63.871  40.531
 3671DT     BB123847  68.744  63.288  40.376
 3671DT     BB223848  68.481  63.222  40.614
 3671DT     BB323849  68.296  63.241  40.522
 3671DT     SC123850  68.315  63.502  40.521
 3671DT     SC223851  68.172  63.585  40.660
 3671DT     SC323852  68.331  63.750  40.431
 3672DA     BB123853  68.309  62.870  40.714
 3672DA     BB223854  68.007  63.045  40.826
 3672DA     BB323855  67.859  63.042  40.673
 3672DA     SC123856  67.951  63.310  40.545
 3672DA     SC223857  67.865  63.543  40.523
 3672DA     SC323858  68.029  63.563  40.326
 3672DA     SC423859  68.058  63.302  40.425
 3673DA     BB123860  67.707  62.927  40.935
 3673DA     BB223861  67.485  63.218  40.904
 3673DA     BB323862  67.353  63.192  40.738
 3673DA     SC123863  67.542  63.330  40.534
 3673DA     SC223864  67.549  63.542  40.402
 3673DA     SC323865  67.718  63.419  40.253
 3673DA     SC423866  67.644  63.236  40.452
 3674DC     BB123867  67.175  63.181  40.793
 3674DC     BB223868  67.074  63.509  40.682
 3674DC     BB323869  66.973  63.495  40.502
 3674DC     SC123870  67.197  63.451  40.372
 3674DC     SC223871  67.242  63.622  40.249
 3674DC     SC323872  67.379  63.329  40.225
 3675DC     BB123873  66.750  63.557  40.637
 3675DC     BB223874  66.776  63.808  40.379
 3675DC     BB323875  66.692  63.738  40.204
 3675DC     SC123876  66.897  63.582  40.158
 3675DC     SC223877  67.008  63.656  39.989
 3675DC     SC323878  67.039  63.362  40.122
 3676DA     BB123879  66.525  64.113  40.288
 3676DA     BB223880  66.632  64.113  39.937
 3676DA     BB323881  66.501  63.994  39.819
 3676DA     SC123882  66.665  63.733  39.857
 3676DA     SC223883  66.808  63.583  39.717
 3676DA     SC323884  66.763  63.406  39.898
 3676DA     SC423885  66.624  63.636  39.979
 3677DT     BB123886  66.392  64.089  39.682
 3677DT     BB223887  66.577  63.976  39.394
 3677DT     BB323888  66.471  63.829  39.294
 3677DT     SC123889  66.528  63.652  39.479
 3677DT     SC223890  66.664  63.505  39.397
 3677DT     SC323891  66.496  63.476  39.673
 3678DC     BB123892  66.437  64.012  39.105
 3678DC     BB223893  66.600  63.734  38.941
 3678DC     BB323894  66.459  63.593  38.884
 3678DC     SC123895  66.430  63.511  39.132
 3678DC     SC223896  66.513  63.313  39.151
 3678DC     SC323897  66.318  63.460  39.365
 3679DT     BB123898  66.525  63.676  38.646
 3679DT     BB223899  66.588  63.320  38.645
 3679DT     BB323900  66.411  63.217  38.613
 3679DT     SC123901  66.328  63.266  38.857
 3679DT     SC223902  66.328  63.083  38.970
 3679DT     SC323903  66.182  63.359  39.055
 3680DC     BB123904  66.544  63.167  38.399
 3680DC     BB223905  66.455  62.846  38.538
 3680DC     BB323906  66.256  62.804  38.498
 3680DC     SC123907  66.176  62.975  38.681
 3680DC     SC223908  66.090  62.867  38.846
 3680DC     SC323909  66.061  63.185  38.790
 3681DA     BB123910  66.501  62.475  38.400
 3681DA     BB223911  66.204  62.350  38.574
 3681DA     BB323912  66.030  62.376  38.453
 3681DA     SC123913  65.963  62.658  38.566
 3681DA     SC223914  65.788  62.762  38.710
 3681DA     SC323915  65.862  62.984  38.604
 3681DA     SC423916  66.022  62.785  38.487
 3682DC     BB123917  65.948  62.215  38.390
 3682DC     BB223918  65.643  62.232  38.582
 3682DC     BB323919  65.490  62.309  38.466
 3682DC     SC123920  65.588  62.552  38.483
 3682DC     SC223921  65.458  62.673  38.604
 3682DC     SC323922  65.694  62.782  38.412
 3683DT     BB123923  65.360  62.064  38.424
 3683DT     BB223924  65.097  62.277  38.548
 3683DT     BB323925  65.005  62.374  38.390
 3683DT     SC123926  65.208  62.537  38.361
 3683DT     SC223927  65.150  62.735  38.421
 3683DT     SC323928  65.415  62.658  38.252
 3684DT     BB123929  64.763  62.218  38.378
 3684DT     BB223930  64.641  62.557  38.407
 3684DT     BB323931  64.611  62.637  38.219
 3684DT     SC123932  64.869  62.667  38.181
 3684DT     SC223933  64.917  62.876  38.181
 3684DT     SC323934  65.109  62.637  38.077
 3685DG     BB123935  64.226  62.657  38.366
 3685DG     BB223936  64.330  62.980  38.240
 3685DG     BB323937  64.304  62.988  38.043
 3685DG     SC123938  64.582  62.880  37.976
 3685DG     SC223939  64.802  63.032  37.843
 3685DG     SC323940  64.872  62.745  37.868
 3685DG     SC423941  64.603  62.722  37.965
 3686DA     BB123942  64.111  63.283  38.065
 3686DA     BB223943  64.359  63.465  37.866
 3686DA     BB323944  64.330  63.427  37.658
 3686DA     SC123945  64.522  63.182  37.651
 3686DA     SC223946  64.745  63.125  37.556
 3686DA     SC323947  64.672  62.881  37.584
 3686DA     SC423948  64.458  63.037  37.675
 3687DT     BB123949  64.266  63.580  37.521
 3687DT     BB223950  64.588  63.631  37.367
 3687DT     BB323951  64.588  63.554  37.175
 3687DT     SC123952  64.600  63.308  37.265
 3687DT     SC223953  64.793  63.225  37.219
 3687DT     SC323954  64.532  63.058  37.314
 3688DT     BB123955  64.586  63.806  37.062
 3688DT     BB223956  64.883  63.650  36.929
 3688DT     BB323957  64.837  63.547  36.755
 3688DT     SC123958  64.721  63.354  36.891
 3688DT     SC223959  64.840  63.176  36.878
 3688DT     SC323960  64.533  63.192  36.981
 3689DT     BB123961  64.966  63.734  36.605
 3689DT     BB223962  65.134  63.424  36.528
 3689DT     BB323963  65.036  63.327  36.373
 3689DT     SC123964  64.840  63.255  36.531
 3689DT     SC223965  64.847  63.042  36.561
 3689DT     SC323966  64.597  63.235  36.632
 3690DC     BB123967  65.244  63.386  36.210
 3690DC     BB223968  65.222  63.026  36.206
 3690DC     BB323969  65.086  62.965  36.062
 3690DC     SC123970  64.883  63.039  36.210
 3690DC     SC223971  64.777  62.864  36.278
 3690DC     SC323972  64.668  63.169  36.290
 3691DT     BB123973  65.296  62.875  35.922
 3691DT     BB223974  65.087  62.586  35.977
 3691DT     BB323975  64.940  62.576  35.831
 3691DT     SC123976  64.806  62.772  35.942
 3691DT     SC223977  64.623  62.695  36.026
 3691DT     SC323978  64.691  63.008  35.973
 3692DT     BB123979  65.079  62.368  35.761
 3692DT     BB223980  64.747  62.245  35.833
 3692DT     BB323981  64.622  62.282  35.672
 3692DT     SC123982  64.608  62.537  35.731
 3692DT     SC223983  64.410  62.584  35.801
 3692DT     SC323984  64.635  62.799  35.709
 3693DT     BB123985  64.633  62.023  35.655
 3693DT     BB223986  64.283  62.104  35.689
 3693DT     BB323987  64.207  62.166  35.507
 3693DT     SC123988  64.327  62.399  35.528
 3693DT     SC223989  64.180  62.553  35.559
 3693DT     SC323990  64.489  62.600  35.475
 3694DA     BB123991  63.958  61.871  35.676
 3694DA     BB223992  63.748  62.148  35.561
 3694DA     BB323993  63.745  62.156  35.348
 3694DA     SC123994  63.989  62.348  35.326
 3694DA     SC223995  64.032  62.585  35.261
 3694DA     SC323996  64.275  62.510  35.229
 3694DA     SC423997  64.134  62.282  35.311
 3695DT     BB123998  63.574  62.117  35.259
 3695DT     BB223999  63.499  62.453  35.151
 3695DT     BB324000  63.542  62.474  34.950
 3695DT     SC124001  63.800  62.480  34.998
 3695DT     SC224002  63.875  62.678  34.960
 3695DT     SC324003  64.054  62.411  34.997
 3696DC     BB124004  63.275  62.473  34.869
 3696DC     BB224005  63.406  62.780  34.732
 3696DC     BB324006  63.483  62.746  34.544
 3696DC     SC124007  63.695  62.627  34.643
 3696DC     SC224008  63.868  62.751  34.612
 3696DC     SC324009  63.871  62.439  34.698
 3697DT     BB124010  63.272  62.868  34.400
 3697DT     BB224011  63.567  63.046  34.290
 3697DT     BB324012  63.646  62.953  34.123
 3697DT     SC124013  63.742  62.756  34.267
 3697DT     SC224014  63.957  62.769  34.271
 3697DT     SC324015  63.780  62.513  34.360
 3698DT     BB124016  63.562  63.153  33.946
 3698DT     BB224017  63.920  63.142  33.906
 3698DT     BB324018  63.971  63.008  33.757
 3698DT     SC124019  63.920  62.803  33.914
 3698DT     SC224020  64.104  62.704  33.964
 3698DT     SC324021  63.806  62.585  34.007
 3699DT     BB124022  64.041  63.216  33.602
 3699DT     BB224023  64.341  63.019  33.638
 3699DT     BB324024  64.345  62.871  33.494
 3699DT     SC124025  64.164  62.731  33.622
 3699DT     SC224026  64.254  62.553  33.703
 3699DT     SC324027  63.936  62.608  33.674
 3700DC     BB124028  64.541  63.017  33.412
 3700DC     BB224029  64.682  62.693  33.483
 3700DC     BB324030  64.643  62.563  33.327
 3700DC     SC124031  64.392  62.539  33.400
 3700DC     SC224032  64.359  62.341  33.477
 3700DC     SC324033  64.129  62.553  33.392
 3701DA     BB124034  65.037  62.567  33.485
 3701DA     BB224035  64.921  62.220  33.453
 3701DA     BB324036  64.893  62.170  33.248
 3701DA     SC124037  64.595  62.257  33.242
 3701DA     SC224038  64.371  62.148  33.223
 3701DA     SC324039  64.287  62.380  33.151
 3701DA     SC424040  64.562  62.408  33.197
 3702DA     BB124041  65.071  61.939  33.403
 3702DA     BB224042  64.812  61.708  33.285
 3702DA     BB324043  64.812  61.698  33.072
 3702DA     SC124044  64.606  61.928  33.037
 3702DA     SC224045  64.369  61.954  32.962
 3702DA     SC324046  64.429  62.201  32.925
 3702DA     SC424047  64.663  62.077  33.018
 3703DG     BB124048  64.858  61.404  33.155
 3703DG     BB224049  64.549  61.357  32.974
 3703DG     BB324050  64.582  61.368  32.778
 3703DG     SC124051  64.536  61.670  32.762
 3703DG     SC224052  64.311  61.806  32.621
 3703DG     SC324053  64.513  62.003  32.712
 3703DG     SC424054  64.660  61.769  32.786
 3704DT     BB124055  64.544  61.197  32.655
 3704DT     BB224056  64.250  61.294  32.470
 3704DT     BB324057  64.304  61.358  32.281
 3704DT     SC124058  64.396  61.585  32.375
 3704DT     SC224059  64.268  61.746  32.312
 3704DT     SC324060  64.566  61.778  32.436
 3705DT     BB124061  64.208  61.129  32.164
 3705DT     BB224062  64.041  61.395  31.985
 3705DT     BB324063  64.158  61.457  31.827
 3705DT     SC124064  64.322  61.584  31.987
 3705DT     SC224065  64.300  61.796  31.959
 3705DT     SC324066  64.543  61.650  32.114
 3706DT     BB124067  64.002  61.333  31.628
 3706DT     BB224068  64.017  61.677  31.521
 3706DT     BB324069  64.181  61.706  31.398
 3706DT     SC124070  64.346  61.698  31.602
 3706DT     SC224071  64.429  61.893  31.635
 3706DT     SC324072  64.539  61.616  31.762
 3707DT     BB124073  64.039  61.720  31.151
 3707DT     BB224074  64.228  62.028  31.157
 3707DT     BB324075  64.410  62.001  31.063
 3707DT     SC124076  64.504  61.866  31.268
 3707DT     SC224077  64.655  61.983  31.367
 3707DT     SC324078  64.601  61.667  31.411
 3708DA     BB124079  64.255  62.328  30.848
 3708DA     BB224080  64.596  62.418  30.949
 3708DA     BB324081  64.738  62.322  30.823
 3708DA     SC124082  64.764  62.070  31.004
 3708DA     SC224083  64.935  61.967  31.153
 3708DA     SC324084  64.801  61.750  31.122
 3708DA     SC424085  64.668  61.945  30.971
 3709DA     BB124086  64.864  62.624  30.754
 3709DA     BB224087  65.176  62.514  30.913
 3709DA     BB324088  65.292  62.398  30.777
 3709DA     SC124089  65.166  62.127  30.864
 3709DA     SC224090  65.237  61.921  30.986
 3709DA     SC324091  65.038  61.809  30.871
 3709DA     SC424092  65.038  62.074  30.782
 3710DA     BB124093  65.537  62.614  30.833
 3710DA     BB224094  65.726  62.336  30.979
 3710DA     BB324095  65.817  62.219  30.825
 3710DA     SC124096  65.576  62.024  30.798
 3710DA     SC224097  65.524  61.786  30.848
 3710DA     SC324098  65.333  61.812  30.679
 3710DA     SC424099  65.463  62.060  30.688
 3711DA     BB124100  66.090  62.281  30.995
 3711DA     BB224101  66.111  61.920  31.056
 3711DA     BB324102  66.188  61.819  30.885
 3711DA     SC124103  65.909  61.770  30.757
 3711DA     SC224104  65.759  61.576  30.712
 3711DA     SC324105  65.647  61.729  30.539
 3711DA     SC424106  65.854  61.880  30.653
 3712DT     BB124107  66.348  61.740  30.924
 3712DT     BB224108  66.220  61.403  30.944
 3712DT     BB324109  66.258  61.302  30.767
 3712DT     SC124110  66.068  61.434  30.643
 3712DT     SC224111  65.906  61.300  30.598
 3712DT     SC324112  65.950  61.595  30.470
 3713DG     BB124113  66.396  61.110  31.100
 3713DG     BB224114  66.180  60.900  30.899
 3713DG     BB324115  66.275  60.845  30.733
 3713DG     SC124116  66.181  61.086  30.569
 3713DG     SC224117  65.996  61.078  30.335
 3713DG     SC324118  66.114  61.347  30.367
 3713DG     SC424119  66.269  61.220  30.571
 3714DT     BB124120  66.285  60.652  30.724
 3714DT     BB224121  66.048  60.574  30.464
 3714DT     BB324122  66.145  60.561  30.282
 3714DT     SC124123  66.170  60.821  30.267
 3714DT     SC224124  66.043  60.897  30.110
 3714DT     SC324125  66.283  61.060  30.255
 3715DG     BB124126  65.928  60.225  30.368
 3715DG     BB224127  65.850  60.358  30.041
 3715DG     BB324128  66.000  60.323  29.916
 3715DG     SC124129  66.147  60.584  29.979
 3715DG     SC224130  66.187  60.812  29.791
 3715DG     SC324131  66.344  60.850  30.039
 3715DG     SC424132  66.252  60.586  30.100
 3716DT     BB124133  65.956  60.206  29.751
 3716DT     BB224134  65.956  60.449  29.484
 3716DT     BB324135  66.138  60.445  29.386
 3716DT     SC124136  66.257  60.570  29.583
 3716DT     SC224137  66.311  60.768  29.520
 3716DT     SC324138  66.421  60.617  29.785
 3717DA     BB124139  65.830  60.415  29.101
 3717DA     BB224140  66.064  60.674  28.991
 3717DA     BB324141  66.248  60.586  28.927
 3717DA     SC124142  66.381  60.602  29.208
 3717DA     SC224143  66.565  60.730  29.318
 3717DA     SC324144  66.565  60.540  29.491
 3717DA     SC424145  66.367  60.474  29.304
 3718DC     BB124146  66.289  60.606  28.739
 3718DC     BB224147  66.548  60.854  28.778
 3718DC     BB324148  66.734  60.765  28.760
 3718DC     SC124149  66.715  60.658  28.999
 3718DC     SC224150  66.854  60.754  29.132
 3718DC     SC324151  66.698  60.476  29.188
 3719DA     BB124152  66.710  61.102  28.510
 3719DA     BB224153  67.020  61.124  28.706
 3719DA     BB324154  67.159  60.976  28.640
 3719DA     SC124155  67.061  60.760  28.841
 3719DA     SC224156  67.147  60.646  29.046
 3719DA     SC324157  66.972  60.465  28.993
 3719DA     SC424158  66.948  60.658  28.791
 3720DT     BB124159  67.310  61.053  28.568
 3720DT     BB224160  67.533  60.981  28.842
 3720DT     BB324161  67.644  60.811  28.799
 3720DT     SC124162  67.438  60.655  28.845
 3720DT     SC224163  67.472  60.543  29.025
 3720DT     SC324164  67.245  60.481  28.802
 3721DA     BB124165  67.894  61.125  28.927
 3721DA     BB224166  67.983  60.822  29.113
 3721DA     BB324167  68.076  60.680  28.984
 3721DA     SC124168  67.809  60.540  28.906
 3721DA     SC224169  67.697  60.321  28.946
 3721DA     SC324170  67.556  60.378  28.739
 3721DA     SC424171  67.733  60.593  28.775
 3722DT     BB124172  68.263  60.641  29.020
 3722DT     BB224173  68.214  60.310  29.157
 3722DT     BB324174  68.262  60.167  29.015
 3722DT     SC124175  68.040  60.213  28.882
 3722DT     SC224176  67.909  60.044  28.901
 3722DT     SC324177  67.878  60.285  28.686
 3723DT     BB124178  68.492  60.103  29.148
 3723DT     BB224179  68.313  59.791  29.121
 3723DT     BB324180  68.359  59.697  28.942
 3723DT     SC124181  68.210  59.866  28.807
 3723DT     SC224182  68.037  59.764  28.731
 3723DT     SC324183  68.142  60.055  28.636
 3724DA     BB124184  68.422  59.416  29.246
 3724DA     BB224185  68.215  59.258  28.988
 3724DA     BB324186  68.333  59.213  28.816
 3724DA     SC124187  68.278  59.486  28.677
 3724DA     SC224188  68.152  59.570  28.478
 3724DA     SC324189  68.304  59.777  28.495
 3724DA     SC424190  68.383  59.605  28.703
 3725DT     BB124191  68.354  59.024  28.775
 3725DT     BB224192  68.130  59.016  28.493
 3725DT     BB324193  68.238  59.013  28.317
 3725DT     SC124194  68.300  59.267  28.340
 3725DT     SC224195  68.197  59.379  28.188
 3725DT     SC324196  68.444  59.486  28.369
 3726DA     BB124197  67.942  58.715  28.323
 3726DA     BB224198  67.919  58.896  28.005
 3726DA     BB324199  68.087  58.851  27.881
 3726DA     SC124200  68.260  59.086  27.989
 3726DA     SC224201  68.349  59.304  27.905
 3726DA     SC324202  68.519  59.285  28.097
 3726DA     SC424203  68.358  59.056  28.113
 3727DT     BB124204  68.028  58.770  27.737
 3727DT     BB224205  68.083  59.040  27.503
 3727DT     BB324206  68.265  59.015  27.409
 3727DT     SC124207  68.396  59.091  27.624
 3727DT     SC224208  68.486  59.283  27.588
 3727DT     SC324209  68.556  59.082  27.832
 3728DG     BB124210  67.966  59.048  27.134
 3728DG     BB224211  68.242  59.269  27.058
 3728DG     BB324212  68.395  59.164  26.987
 3728DG     SC124213  68.520  59.113  27.262
 3728DG     SC224214  68.781  59.222  27.358
 3728DG     SC324215  68.674  59.021  27.547
 3728DG     SC424216  68.475  58.984  27.345
 3729DA     BB124217  68.405  59.387  26.714
 3729DA     BB224218  68.756  59.464  26.786
 3729DA     BB324219  68.881  59.301  26.729
 3729DA     SC124220  68.867  59.161  27.007
 3729DA     SC224221  69.020  59.117  27.199
 3729DA     SC324222  68.853  58.932  27.262
 3729DA     SC424223  68.753  59.051  27.029
 3730DA     BB124224  69.076  59.492  26.518
 3730DA     BB224225  69.369  59.407  26.721
 3730DA     BB324226  69.445  59.215  26.665
 3730DA     SC124227  69.272  59.060  26.872
 3730DA     SC224228  69.307  58.932  27.083
 3730DA     SC324229  69.078  58.827  27.033
 3730DA     SC424230  69.129  59.005  26.823
 3731DG     BB124231  69.764  59.274  26.528
 3731DG     BB224232  69.887  59.086  26.811
 3731DG     BB324233  69.919  58.897  26.758
 3731DG     SC124234  69.636  58.804  26.829
 3731DG     SC224235  69.564  58.616  27.050
 3731DG     SC324236  69.330  58.672  26.877
 3731DG     SC424237  69.521  58.813  26.718
 3732DT     BB124238  70.158  58.697  26.718
 3732DT     BB224239  70.118  58.518  27.028
 3732DT     BB324240  70.077  58.319  26.990
 3732DT     SC124241  69.831  58.375  26.919
 3732DT     SC224242  69.695  58.298  27.067
 3732DT     SC324243  69.615  58.399  26.769
 3733DA     BB124244  70.423  58.260  27.228
 3733DA     BB224245  70.157  58.058  27.379
 3733DA     BB324246  70.140  57.871  27.279
 3733DA     SC124247  69.929  57.972  27.074
 3733DA     SC224248  69.687  57.938  27.026
 3733DA     SC324249  69.741  58.028  26.792
 3733DA     SC424250  69.983  58.029  26.934
 3734DA     BB124251  70.181  57.749  27.579
 3734DA     BB224252  69.839  57.619  27.554
 3734DA     BB324253  69.837  57.437  27.442
 3734DA     SC124254  69.791  57.578  27.168
 3734DA     SC224255  69.608  57.599  27.000
 3734DA     SC324256  69.794  57.667  26.836
 3734DA     SC424257  69.921  57.617  27.082
 3735DA     BB124258  69.684  57.357  27.715
 3735DA     BB224259  69.391  57.291  27.505
 3735DA     BB324260  69.416  57.109  27.397
 3735DA     SC124261  69.548  57.244  27.150
 3735DA     SC224262  69.490  57.291  26.912
 3735DA     SC324263  69.742  57.316  26.876
 3735DA     SC424264  69.708  57.254  27.148
 3736DT     BB124265  69.290  56.980  27.448
 3736DT     BB224266  69.085  57.001  27.152
 3736DT     BB324267  69.127  56.842  27.025
 3736DT     SC124268  69.354  56.951  26.952
 3736DT     SC224269  69.339  57.015  26.747
 3736DT     SC324270  69.613  56.986  26.917
 3737DA     BB124271  68.714  56.878  27.086
 3737DA     BB224272  68.775  56.845  26.726
 3737DA     BB324273  68.836  56.646  26.679
 3737DA     SC124274  69.140  56.705  26.713
 3737DA     SC224275  69.342  56.723  26.568
 3737DA     SC324276  69.475  56.685  26.783
 3737DA     SC424277  69.205  56.678  26.858
 3738DC     BB124278  68.712  56.547  26.569
 3738DC     BB224279  68.904  56.553  26.264
 3738DC     BB324280  68.997  56.370  26.236
 3738DC     SC124281  69.175  56.422  26.422
 3738DC     SC224282  69.367  56.451  26.331
 3738DC     SC324283  69.312  56.403  26.646
 3739DT     BB124284  68.824  56.322  26.034
 3739DT     BB224285  69.150  56.288  25.884
 3739DT     BB324286  69.221  56.095  25.911
 3739DT     SC124287  69.274  56.142  26.164
 3739DT     SC224288  69.487  56.145  26.193
 3739DT     SC324289  69.264  56.124  26.427
 3740DA     BB124290  69.253  56.185  25.504
 3740DA     BB224291  69.573  56.041  25.612
 3740DA     BB324292  69.552  55.831  25.643
 3740DA     SC124293  69.477  55.858  25.943
 3740DA     SC224294  69.579  55.807  26.165
 3740DA     SC324295  69.339  55.816  26.255
 3740DA     SC424296  69.320  55.866  25.980
 3741DG     BB124297  69.771  55.815  25.424
 3741DG     BB224298  69.966  55.666  25.690
 3741DG     BB324299  69.921  55.473  25.708
 3741DG     SC124300  69.695  55.520  25.909
 3741DG     SC224301  69.694  55.434  26.195
 3741DG     SC324302  69.428  55.536  26.115
 3741DG     SC424303  69.547  55.547  25.855
 3742DT     BB124304  70.074  55.330  25.674
 3742DT     BB224305  70.142  55.212  26.008
 3742DT     BB324306  70.048  55.030  26.040
 3742DT     SC124307  69.814  55.147  26.062
 3742DT     SC224308  69.746  55.134  26.266
 3742DT     SC324309  69.564  55.214  26.011
 3743DA     BB124310  70.451  54.977  26.147
 3743DA     BB224311  70.244  54.839  26.416
 3743DA     BB324312  70.154  54.656  26.354
 3743DA     SC124313  69.897  54.792  26.243
 3743DA     SC224314  69.655  54.806  26.303
 3743DA     SC324315  69.620  54.876  26.058
 3743DA     SC424316  69.895  54.832  26.087
 3744DA     BB124317  70.294  54.531  26.627
 3744DA     BB224318  69.956  54.447  26.743
 3744DA     BB324319  69.884  54.274  26.642
 3744DA     SC124320  69.752  54.434  26.411
 3744DA     SC224321  69.521  54.487  26.331
 3744DA     SC324322  69.633  54.539  26.106
 3744DA     SC424323  69.840  54.460  26.279
 3745DT     BB124324  69.850  54.084  26.742
 3745DT     BB224325  69.490  54.102  26.745
 3745DT     BB324326  69.411  53.966  26.610
 3745DT     SC124327  69.479  54.118  26.407
 3745DT     SC224328  69.302  54.199  26.316
 3745DT     SC324329  69.598  54.197  26.185
 3746DA     BB124330  69.217  53.871  26.970
 3746DA     BB224331  68.959  53.904  26.712
 3746DA     BB324332  68.957  53.731  26.586
 3746DA     SC124333  69.160  53.849  26.381
 3746DA     SC224334  69.158  53.930  26.146
 3746DA     SC324335  69.411  53.892  26.151
 3746DA     SC424336  69.316  53.816  26.404
 3747DA     BB124337  68.639  53.718  26.669
 3747DA     BB224338  68.563  53.767  26.313
 3747DA     BB324339  68.589  53.585  26.206
 3747DA     SC124340  68.887  53.640  26.137
 3747DA     SC224341  69.023  53.694  25.935
 3747DA     SC324342  69.223  53.610  26.073
 3747DA     SC424343  68.999  53.583  26.238
 3748DT     BB124344  68.425  53.496  26.123
 3748DT     BB224345  68.497  53.589  25.782
 3748DT     BB324346  68.565  53.425  25.676
 3748DT     SC124347  68.799  53.435  25.794
 3748DT     SC224348  68.948  53.496  25.651
 3748DT     SC324349  69.006  53.365  25.942
 3749DT     BB124350  68.331  53.425  25.544
 3749DT     BB224351  68.583  53.458  25.288
 3749DT     BB324352  68.652  53.271  25.232
 3749DT     SC124353  68.791  53.248  25.454
 3749DT     SC224354  69.001  53.258  25.407
 3749DT     SC324355  68.873  53.157  25.687
 3750DT     BB124356  68.524  53.311  25.003
 3750DT     BB224357  68.868  53.254  24.910
 3750DT     BB324358  68.905  53.051  24.898
 3750DT     SC124359  68.907  53.028  25.159
 3750DT     SC224360  69.107  52.986  25.226
 3750DT     SC324361  68.837  52.953  25.402
 3751DA     BB124362  69.040  53.239  24.549
 3751DA     BB224363  69.307  53.020  24.671
 3751DA     BB324364  69.255  52.815  24.640
 3751DA     SC124365  69.118  52.783  24.917
 3751DA     SC224366  69.161  52.663  25.132
 3751DA     SC324367  68.910  52.693  25.176
 3751DA     SC424368  68.960  52.810  24.926
 3752DA     BB124369  69.552  52.837  24.504
 3752DA     BB224370  69.655  52.579  24.744
 3752DA     BB324371  69.568  52.391  24.692
 3752DA     SC124372  69.313  52.433  24.865
 3752DA     SC224373  69.214  52.340  25.074
 3752DA     SC324374  68.992  52.436  24.987
 3752DA     SC424375  69.185  52.499  24.794
 3753DT     BB124376  69.692  52.249  24.635
 3753DT     BB224377  69.669  52.045  24.932
 3753DT     BB324378  69.546  51.882  24.897
 3753DT     SC124379  69.331  52.032  24.907
 3753DT     SC224380  69.219  51.984  25.085
 3753DT     SC324381  69.110  52.154  24.831
 3754DT     BB124382  69.760  51.710  24.890
 3754DT     BB224383  69.542  51.570  25.142
 3754DT     BB324384  69.405  51.443  25.054
 3754DT     SC124385  69.268  51.645  24.958
 3754DT     SC224386  69.079  51.658  25.060
 3754DT     SC324387  69.156  51.809  24.784
 3755DA     BB124388  69.582  51.207  25.353
 3755DA     BB224389  69.218  51.172  25.387
 3755DA     BB324390  69.142  51.045  25.233
 3755DA     SC124391  69.089  51.278  25.034
 3755DA     SC224392  68.892  51.395  24.934
 3755DA     SC324393  69.056  51.472  24.752
 3755DA     SC424394  69.206  51.314  24.929
 3756DT     BB124395  69.055  50.845  25.270
 3756DT     BB224396  68.711  50.943  25.223
 3756DT     BB324397  68.638  50.863  25.046
 3756DT     SC124398  68.772  51.037  24.903
 3756DT     SC224399  68.635  51.175  24.811
 3756DT     SC324400  68.946  51.135  24.731
 3757DA     BB124401  68.364  50.744  25.341
 3757DA     BB224402  68.174  50.897  25.068
 3757DA     BB324403  68.161  50.763  24.902
 3757DA     SC124404  68.419  50.869  24.765
 3757DA     SC224405  68.480  50.999  24.561
 3757DA     SC324406  68.713  50.898  24.591
 3757DA     SC424407  68.557  50.794  24.799
 3758DT     BB124408  67.979  50.693  24.854
 3758DT     BB224409  67.933  50.902  24.563
 3758DT     BB324410  67.957  50.790  24.391
 3758DT     SC124411  68.218  50.783  24.422
 3758DT     SC224412  68.311  50.903  24.269
 3758DT     SC324413  68.460  50.688  24.461
 3759DA     BB124414  67.605  51.017  24.382
 3759DA     BB224415  67.790  51.075  24.070
 3759DA     BB324416  67.783  50.901  23.947
 3759DA     SC124417  68.044  50.778  24.064
 3759DA     SC224418  68.277  50.734  23.989
 3759DA     SC324419  68.286  50.565  24.182
 3759DA     SC424420  68.029  50.677  24.188
 3760DA     BB124421  67.694  51.158  23.768
 3760DA     BB224422  67.979  51.071  23.554
 3760DA     BB324423  67.943  50.887  23.454
 3760DA     SC124424  68.072  50.712  23.676
 3760DA     SC224425  68.276  50.571  23.705
 3760DA     SC324426  68.147  50.461  23.898
 3760DA     SC424427  67.975  50.655  23.791
 3761DG     BB124428  67.996  51.094  23.234
 3761DG     BB224429  68.275  50.874  23.166
 3761DG     BB324430  68.209  50.707  23.079
 3761DG     SC124431  68.164  50.558  23.342
 3761DG     SC224432  68.317  50.319  23.437
 3761DG     SC324433  68.084  50.371  23.612
 3761DG     SC424434  68.023  50.571  23.416
 3762DC     BB124435  68.286  50.676  22.896
 3762DC     BB224436  68.508  50.396  22.947
 3762DC     BB324437  68.411  50.219  22.899
 3762DC     SC124438  68.269  50.227  23.119
 3762DC     SC224439  68.334  50.070  23.251
 3762DC     SC324440  68.060  50.242  23.279
 3763DA     BB124441  68.777  50.221  22.691
 3763DA     BB224442  68.737  49.891  22.845
 3763DA     BB324443  68.587  49.779  22.744
 3763DA     SC124444  68.355  49.879  22.925
 3763DA     SC224445  68.204  49.784  23.100
 3763DA     SC324446  68.052  49.985  23.048
 3763DA     SC424447  68.274  50.009  22.878
 3764DC     BB124448  68.636  49.609  22.632
 3764DC     BB224449  68.497  49.363  22.857
 3764DC     BB324450  68.320  49.288  22.780
 3764DC     SC124451  68.191  49.509  22.841
 3764DC     SC224452  68.052  49.468  23.000
 3764DC     SC324453  68.054  49.732  22.812
 3765DA     BB124454  68.542  48.937  22.847
 3765DA     BB224455  68.208  48.881  22.988
 3765DA     BB324456  68.067  48.842  22.833
 3765DA     SC124457  67.988  49.141  22.796
 3765DA     SC224458  67.790  49.286  22.839
 3765DA     SC324459  67.896  49.446  22.667
 3765DA     SC424460  68.069  49.226  22.685
 3766DA     BB124461  67.988  48.555  22.987
 3766DA     BB224462  67.647  48.683  23.026
 3766DA     BB324463  67.537  48.658  22.845
 3766DA     SC124464  67.615  48.935  22.729
 3766DA     SC224465  67.504  49.153  22.681
 3766DA     SC324466  67.701  49.196  22.523
 3766DA     SC424467  67.745  48.943  22.635
 3767DT     BB124468  67.361  48.516  22.816
 3767DT     BB224469  67.105  48.770  22.818
 3767DT     BB324470  67.023  48.789  22.629
 3767DT     SC124471  67.235  48.916  22.541
 3767DT     SC224472  67.185  49.122  22.504
 3767DT     SC324473  67.452  48.969  22.401
 3768DA     BB124474  66.686  48.721  22.871
 3768DA     BB224475  66.615  49.018  22.668
 3768DA     BB324476  66.563  48.961  22.469
 3768DA     SC124477  66.856  48.974  22.363
 3768DA     SC224478  66.991  49.117  22.210
 3768DA     SC324479  67.151  48.917  22.197
 3768DA     SC424480  66.942  48.838  22.367
 3769DA     BB124481  66.290  49.138  22.522
 3769DA     BB224482  66.401  49.360  22.253
 3769DA     BB324483  66.357  49.275  22.063
 3769DA     SC124484  66.631  49.128  22.038
 3769DA     SC224485  66.838  49.146  21.901
 3769DA     SC324486  66.881  48.903  21.971
 3769DA     SC424487  66.639  48.977  22.092
 3770DT     BB124488  66.217  49.366  21.938
 3770DT     BB224489  66.458  49.510  21.711
 3770DT     BB324490  66.454  49.408  21.531
 3770DT     SC124491  66.582  49.203  21.634
 3770DT     SC224492  66.780  49.193  21.552
 3770DT     SC324493  66.631  48.958  21.718
 3771DA     BB124494  66.420  49.818  21.461
 3771DA     BB224495  66.687  49.687  21.246
 3771DA     BB324496  66.605  49.573  21.086
 3771DA     SC124497  66.614  49.304  21.242
 3771DA     SC224498  66.741  49.089  21.232
 3771DA     SC324499  66.546  48.992  21.368
 3771DA     SC424500  66.483  49.261  21.325
 3772DA     BB124501  66.807  49.788  20.951
 3772DA     BB224502  66.990  49.496  20.825
 3772DA     BB324503  66.876  49.398  20.673
 3772DA     SC124504  66.732  49.206  20.872
 3772DA     SC224505  66.733  48.963  20.928
 3772DA     SC324506  66.504  49.008  21.034
 3772DA     SC424507  66.591  49.254  20.931
 3773DA     BB124508  67.173  49.446  20.546
 3773DA     BB224509  67.188  49.082  20.508
 3773DA     BB324510  67.051  49.017  20.358
 3773DA     SC124511  66.815  48.975  20.556
 3773DA     SC224512  66.686  48.784  20.652
 3773DA     SC324513  66.505  48.959  20.703
 3773DA     SC424514  66.714  49.098  20.578
 3774DA     BB124515  67.334  48.879  20.267
 3774DA     BB224516  67.159  48.558  20.294
 3774DA     BB324517  67.017  48.537  20.137
 3774DA     SC124518  66.783  48.665  20.297
 3774DA     SC224519  66.569  48.591  20.402
 3774DA     SC324520  66.503  48.839  20.393
 3774DA     SC424521  66.760  48.823  20.282
 3775DA     BB124522  67.183  48.256  20.095
 3775DA     BB224523  66.865  48.082  20.153
 3775DA     BB324524  66.738  48.102  19.982
 3775DA     SC124525  66.601  48.362  20.084
 3775DA     SC224526  66.376  48.431  20.168
 3775DA     SC324527  66.450  48.669  20.107
 3775DA     SC424528  66.664  48.502  20.038
 3776DT     BB124529  66.691  47.936  19.868
 3776DT     BB224530  66.349  47.901  19.978
 3776DT     BB324531  66.220  47.965  19.829
 3776DT     SC124532  66.276  48.217  19.878
 3776DT     SC224533  66.104  48.312  19.965
 3776DT     SC324534  66.363  48.463  19.841
 3777DT     BB124535  66.143  47.707  19.769
 3777DT     BB224536  65.834  47.877  19.846
 3777DT     BB324537  65.757  47.964  19.675
 3777DT     SC124538  65.936  48.156  19.683
 3777DT     SC224539  65.840  48.342  19.732
 3777DT     SC324540  66.139  48.308  19.612
 3778DC     BB124541  65.558  47.777  19.662
 3778DC     BB224542  65.384  48.093  19.676
 3778DC     BB324543  65.361  48.169  19.485
 3778DC     SC124544  65.614  48.238  19.472
 3778DC     SC224545  65.630  48.452  19.476
 3778DC     SC324546  65.865  48.246  19.393
 3779DA     BB124547  64.986  48.171  19.671
 3779DA     BB224548  65.041  48.503  19.524
 3779DA     BB324549  65.022  48.494  19.312
 3779DA     SC124550  65.324  48.436  19.263
 3779DA     SC224551  65.521  48.554  19.168
 3779DA     SC324552  65.623  48.320  19.142
 3779DA     SC424553  65.369  48.282  19.254
 3780DA     BB124554  64.817  48.736  19.388
 3780DA     BB224555  65.027  48.951  19.178
 3780DA     BB324556  64.997  48.905  18.971
 3780DA     SC124557  65.224  48.692  18.961
 3780DA     SC224558  65.450  48.669  18.858
 3780DA     SC324559  65.417  48.417  18.892
 3780DA     SC424560  65.184  48.539  18.989
 3781DA     BB124561  64.949  49.229  18.974
 3781DA     BB224562  65.227  49.251  18.737
 3781DA     BB324563  65.168  49.180  18.545
 3781DA     SC124564  65.255  48.886  18.601
 3781DA     SC224565  65.432  48.728  18.524
 3781DA     SC324566  65.277  48.544  18.612
 3781DA     SC424567  65.144  48.786  18.660
 3782DG     BB124568  65.238  49.467  18.447
 3782DG     BB224569  65.487  49.294  18.250
 3782DG     BB324570  65.405  49.223  18.083
 3782DG     SC124571  65.325  48.954  18.206
 3782DG     SC224572  65.439  48.688  18.133
 3782DG     SC324573  65.206  48.658  18.314
 3782DG     SC424574  65.183  48.941  18.279
 3783DA     BB124575  65.658  49.381  17.906
 3783DA     BB224576  65.763  49.061  17.762
 3783DA     BB324577  65.631  49.004  17.605
 3783DA     SC124578  65.440  48.843  17.791
 3783DA     SC224579  65.379  48.605  17.832
 3783DA     SC324580  65.167  48.699  17.940
 3783DA     SC424581  65.314  48.921  17.853
 3784DC     BB124582  65.702  48.998  17.415
 3784DC     BB224583  65.714  48.640  17.379
 3784DC     BB324584  65.558  48.576  17.259
 3784DC     SC124585  65.384  48.613  17.452
 3784DC     SC224586  65.311  48.422  17.520
 3784DC     SC324587  65.178  48.711  17.585
 3785DT     BB124588  65.730  48.524  17.051
 3785DT     BB224589  65.555  48.212  17.098
 3785DT     BB324590  65.382  48.210  16.985
 3785DT     SC124591  65.262  48.374  17.152
 3785DT     SC224592  65.107  48.268  17.257
 3785DT     SC324593  65.143  48.590  17.244
 3786DA     BB124594  65.579  47.856  16.872
 3786DA     BB224595  65.228  47.768  16.934
 3786DA     BB324596  65.105  47.834  16.773
 3786DA     SC124597  65.046  48.112  16.900
 3786DA     SC224598  64.851  48.231  17.002
 3786DA     SC324599  64.983  48.445  16.954
 3786DA     SC424600  65.143  48.234  16.861
 3787DT     BB124601  64.996  47.702  16.616
 3787DT     BB224602  64.660  47.751  16.738
 3787DT     BB324603  64.552  47.865  16.603
 3787DT     SC124604  64.677  48.084  16.675
 3787DT     SC224605  64.540  48.212  16.780
 3787DT     SC324606  64.829  48.299  16.661
 3788DA     BB124607  64.284  47.530  16.593
 3788DA     BB224608  64.072  47.825  16.638
 3788DA     BB324609  64.035  47.920  16.450
 3788DA     SC124610  64.281  48.109  16.470
 3788DA     SC224611  64.325  48.353  16.502
 3788DA     SC324612  64.556  48.303  16.402
 3788DA     SC424613  64.419  48.059  16.405
 3789DC     BB124614  63.812  47.950  16.274
 3789DC     BB224615  63.751  48.294  16.363
 3789DC     BB324616  63.772  48.415  16.196
 3789DC     SC124617  64.034  48.395  16.205
 3789DC     SC224618  64.118  48.584  16.263
 3789DC     SC324619  64.280  48.334  16.134
 3790DA     BB124620  63.363  48.535  16.259
 3790DA     BB224621  63.559  48.845  16.246
 3790DA     BB324622  63.581  48.910  16.044
 3790DA     SC124623  63.847  48.754  15.998
 3790DA     SC224624  64.088  48.807  15.965
 3790DA     SC324625  64.105  48.572  15.863
 3790DA     SC424626  63.836  48.606  15.937
 3791DA     BB124627  63.443  49.201  16.126
 3791DA     BB224628  63.773  49.352  16.071
 3791DA     BB324629  63.796  49.409  15.867
 3791DA     SC124630  63.920  49.137  15.781
 3791DA     SC224631  64.142  49.050  15.707
 3791DA     SC324632  64.010  48.853  15.610
 3791DA     SC424633  63.820  49.023  15.727
 3792DC     BB124634  63.818  49.590  15.857
 3792DC     BB224635  64.176  49.577  15.817
 3792DC     BB324636  64.226  49.608  15.618
 3792DC     SC124637  64.147  49.367  15.552
 3792DC     SC224638  64.318  49.248  15.500
 3792DC     SC324639  64.009  49.174  15.437
 3793DT     BB124640  64.320  49.806  15.749
 3793DT     BB224641  64.602  49.639  15.597
 3793DT     BB324642  64.609  49.683  15.395
 3793DT     SC124643  64.407  49.523  15.345
 3793DT     SC224644  64.477  49.352  15.235
 3793DT     SC324645  64.168  49.441  15.270
 3794DG     BB124646  64.947  49.725  15.627
 3794DG     BB224647  65.005  49.532  15.326
 3794DG     BB324648  64.991  49.649  15.166
 3794DG     SC124649  64.691  49.604  15.129
 3794DG     SC224650  64.562  49.462  14.900
 3794DG     SC324651  64.359  49.593  15.070
 3794DG     SC424652  64.588  49.700  15.205
 3795DT     BB124653  65.155  49.637  15.077
 3795DT     BB224654  65.073  49.465  14.771
 3795DT     BB324655  65.019  49.601  14.625
 3795DT     SC124656  64.785  49.641  14.738
 3795DT     SC224657  64.631  49.558  14.614
 3795DT     SC324658  64.587  49.765  14.860
 3796DG     BB124659  65.329  49.378  14.481
 3796DG     BB224660  65.060  49.401  14.240
 3796DG     BB324661  65.060  49.581  14.155
 3796DG     SC124662  64.875  49.707  14.364
 3796DG     SC224663  64.597  49.805  14.315
 3796DG     SC324664  64.690  49.882  14.585
 3796DG     SC424665  64.939  49.772  14.495
 3797DA     BB124666  65.070  49.449  13.824
 3797DA     BB224667  64.760  49.625  13.736
 3797DA     BB324668  64.800  49.830  13.695
 3797DA     SC124669  64.755  49.923  13.988
 3797DA     SC224670  64.588  50.057  14.116
 3797DA     SC324671  64.773  50.083  14.291
 3797DA     SC424672  64.884  49.929  14.085
 3798DA     BB124673  64.666  49.818  13.379
 3798DA     BB224674  64.417  50.067  13.482
 3798DA     BB324675  64.498  50.264  13.465
 3798DA     SC124676  64.608  50.270  13.756
 3798DA     SC224677  64.557  50.388  13.970
 3798DA     SC324678  64.796  50.325  14.038
 3798DA     SC424679  64.759  50.222  13.779
 3799DG     BB124680  64.291  50.378  13.232
 3799DG     BB224681  64.176  50.599  13.494
 3799DG     BB324682  64.274  50.772  13.486
 3799DG     SC124683  64.500  50.681  13.672
 3799DG     SC224684  64.556  50.787  13.945
 3799DG     SC324685  64.773  50.608  13.855
 3799DG     SC424686  64.628  50.608  13.609
 3800DA     BB124687  63.983  50.975  13.465
 3800DA     BB224688  64.061  51.129  13.788
 3800DA     BB324689  64.194  51.293  13.762
 3800DA     SC124690  64.451  51.121  13.796
 3800DA     SC224691  64.634  51.093  13.963
 3800DA     SC324692  64.767  50.989  13.770
 3800DA     SC424693  64.518  51.060  13.663
 3801DT     BB124694  64.133  51.495  13.805
 3801DT     BB224695  64.304  51.514  14.122
 3801DT     BB324696  64.464  51.644  14.108
 3801DT     SC124697  64.605  51.469  13.973
 3801DT     SC224698  64.767  51.398  14.094
 3801DT     SC324699  64.738  51.358  13.774
 3802DT     BB124700  64.312  51.781  14.269
 3802DT     BB224701  64.615  51.710  14.452
 3802DT     BB324702  64.764  51.842  14.396
 3802DT     SC124703  64.799  51.717  14.168
 3802DT     SC224704  64.990  51.618  14.170
 3802DT     SC324705  64.807  51.672  13.908
 3803DA     BB124706  64.709  51.775  14.810
 3803DA     BB224707  65.064  51.739  14.727
 3803DA     BB324708  65.146  51.927  14.665
 3803DA     SC124709  65.082  51.883  14.364
 3803DA     SC224710  65.209  51.841  14.153
 3803DA     SC324711  64.997  51.924  14.034
 3803DA     SC424712  64.942  51.938  14.308
 3804DT     BB124713  65.257  51.939  14.781
 3804DT     BB224714  65.545  51.883  14.572
 3804DT     BB324715  65.607  52.061  14.488
 3804DT     SC124716  65.407  52.061  14.318
 3804DT     SC224717  65.481  52.027  14.120
 3804DT     SC324718  65.186  52.135  14.196
 3805DC     BB124719  65.800  52.001  14.645
 3805DC     BB224720  65.946  52.038  14.317
 3805DC     BB324721  65.959  52.238  14.268
 3805DC     SC124722  65.701  52.253  14.224
 3805DC     SC224723  65.666  52.280  14.013
 3805DC     SC324724  65.449  52.326  14.249
 3806DA     BB124725  66.319  52.029  14.194
 3806DA     BB224726  66.243  52.240  13.904
 3806DA     BB324727  66.260  52.446  13.956
 3806DA     SC124728  65.962  52.476  14.041
 3806DA     SC224729  65.757  52.589  13.957
 3806DA     SC324730  65.669  52.564  14.196
 3806DA     SC424731  65.926  52.451  14.196
 3807DT     BB124732  66.399  52.532  13.867
 3807DT     BB224733  66.197  52.737  13.648
 3807DT     BB324734  66.179  52.928  13.727
 3807DT     SC124735  66.009  52.845  13.909
 3807DT     SC224736  65.814  52.924  13.866
 3807DT     SC324737  65.906  52.789  14.145
 3808DA     BB124738  66.308  52.974  13.329
 3808DA     BB224739  66.032  53.208  13.386
 3808DA     BB324740  66.095  53.368  13.512
 3808DA     SC124741  66.012  53.225  13.776
 3808DA     SC224742  65.838  53.251  13.953
 3808DA     SC324743  65.995  53.109  14.098
 3808DA     SC424744  66.124  53.137  13.851
 3809DT     BB124745  66.111  53.563  13.440
 3809DT     BB224746  65.824  53.700  13.610
 3809DT     BB324747  65.885  53.816  13.769
 3809DT     SC124748  65.945  53.604  13.911
 3809DT     SC224749  65.806  53.585  14.074
 3809DT     SC324750  66.088  53.428  14.046
 3810DT     BB124751  65.831  54.064  13.647
 3810DT     BB224752  65.645  54.080  13.956
 3810DT     BB324753  65.763  54.160  14.106
 3810DT     SC124754  65.901  53.937  14.127
 3810DT     SC224755  65.855  53.843  14.315
 3810DT     SC324756  66.104  53.770  14.121
 3811DG     BB124757  65.464  54.445  14.100
 3811DG     BB224758  65.514  54.322  14.436
 3811DG     BB324759  65.666  54.418  14.522
 3811DG     SC124760  65.878  54.220  14.425
 3811DG     SC224761  66.039  54.037  14.598
 3811DG     SC324762  66.139  54.034  14.320
 3811DG     SC424763  65.947  54.243  14.283
 3812DT     BB124764  65.672  54.582  14.725
 3812DT     BB224765  65.807  54.360  14.976
 3812DT     BB324766  65.998  54.421  15.029
 3812DT     SC124767  66.098  54.329  14.804
 3812DT     SC224768  66.221  54.157  14.846
 3812DT     SC324769  66.216  54.325  14.568
 3813DA     BB124770  65.798  54.403  15.397
 3813DA     BB224771  66.108  54.211  15.433
 3813DA     BB324772  66.275  54.343  15.457
 3813DA     SC124773  66.335  54.361  15.153
 3813DA     SC224774  66.512  54.285  14.995
 3813DA     SC324775  66.424  54.467  14.838
 3813DA     SC424776  66.267  54.481  15.070
 3814DT     BB124777  66.383  54.351  15.640
 3814DT     BB224778  66.672  54.170  15.523
 3814DT     BB324779  66.833  54.299  15.502
 3814DT     SC124780  66.731  54.402  15.283
 3814DT     SC224781  66.851  54.343  15.114
 3814DT     SC324782  66.628  54.579  15.116
 3815DA     BB124783  66.965  53.979  15.737
 3815DA     BB224784  67.211  54.029  15.470
 3815DA     BB324785  67.328  54.203  15.509
 3815DA     SC124786  67.139  54.395  15.354
 3815DA     SC224787  67.143  54.528  15.143
 3815DA     SC324788  66.953  54.665  15.250
 3815DA     SC424789  67.023  54.468  15.438
 3816DC     BB124790  67.533  54.186  15.552
 3816DC     BB224791  67.653  54.306  15.234
 3816DC     BB324792  67.731  54.497  15.255
 3816DC     SC124793  67.490  54.601  15.274
 3816DC     SC224794  67.449  54.717  15.098
 3816DC     SC324795  67.281  54.726  15.375
 3817DT     BB124796  67.998  54.415  15.232
 3817DT     BB224797  67.961  54.661  14.971
 3817DT     BB324798  68.009  54.849  15.043
 3817DT     SC124799  67.783  54.864  15.176
 3817DT     SC224800  67.656  55.012  15.085
 3817DT     SC324801  67.615  54.882  15.378
 3818DT     BB124802  68.255  54.864  14.908
 3818DT     BB224803  68.072  55.153  14.792
 3818DT     BB324804  68.113  55.316  14.913
 3818DT     SC124805  67.963  55.220  15.105
 3818DT     SC224806  67.787  55.343  15.126
 3818DT     SC324807  67.892  55.124  15.340
 3819DT     BB124808  68.266  55.436  14.717
 3819DT     BB224809  68.004  55.674  14.788
 3819DT     BB324810  68.064  55.802  14.939
 3819DT     SC124811  68.029  55.615  15.121
 3819DT     SC224812  67.861  55.666  15.244
 3819DT     SC324813  68.083  55.440  15.311
 3820DA     BB124814  67.914  56.009  14.611
 3820DA     BB224815  67.744  56.130  14.912
 3820DA     BB324816  67.877  56.247  15.030
 3820DA     SC124817  67.978  56.007  15.199
 3820DA     SC224818  67.959  55.924  15.433
 3820DA     SC324819  68.169  55.787  15.381
 3820DA     SC424820  68.110  55.930  15.147
 3821DT     BB124821  67.802  56.400  15.031
 3821DT     BB224822  67.687  56.390  15.373
 3821DT     BB324823  67.825  56.481  15.497
 3821DT     SC124824  67.987  56.275  15.481
 3821DT     SC224825  67.993  56.174  15.670
 3821DT     SC324826  68.201  56.132  15.425
 3822DT     BB124827  67.616  56.628  15.506
 3822DT     BB224828  67.686  56.528  15.845
 3822DT     BB324829  67.851  56.631  15.917
 3822DT     SC124830  68.015  56.484  15.774
 3822DT     SC224831  68.129  56.357  15.904
 3822DT     SC324832  68.194  56.418  15.593
 3823DG     BB124833  67.523  56.669  16.158
 3823DG     BB224834  67.818  56.569  16.342
 3823DG     BB324835  67.944  56.723  16.357
 3823DG     SC124836  68.093  56.659  16.098
 3823DG     SC224837  68.377  56.570  16.076
 3823DG     SC324838  68.264  56.630  15.809
 3823DG     SC424839  68.039  56.720  15.960
 3824DC     BB124840  67.988  56.792  16.549
 3824DC     BB224841  68.328  56.680  16.594
 3824DC     BB324842  68.459  56.835  16.557
 3824DC     SC124843  68.421  56.816  16.298
 3824DC     SC224844  68.600  56.740  16.205
 3824DC     SC324845  68.350  56.879  16.052
 3825DA     BB124846  68.558  56.671  16.930
 3825DA     BB224847  68.867  56.705  16.735
 3825DA     BB324848  68.923  56.910  16.719
 3825DA     SC124849  68.765  56.958  16.455
 3825DA     SC224850  68.816  57.000  16.215
 3825DA     SC324851  68.577  57.092  16.202
 3825DA     SC424852  68.614  57.012  16.468
 3826DG     BB124853  69.176  56.803  16.860
 3826DG     BB224854  69.334  56.905  16.551
 3826DG     BB324855  69.364  57.102  16.552
 3826DG     SC124856  69.093  57.170  16.428
 3826DG     SC224857  69.049  57.289  16.158
 3826DG     SC324858  68.797  57.282  16.313
 3826DG     SC424859  68.967  57.192  16.525
 3827DC     BB124860  69.560  57.162  16.537
 3827DC     BB224861  69.576  57.291  16.201
 3827DC     BB324862  69.558  57.497  16.203
 3827DC     SC124863  69.301  57.482  16.252
 3827DC     SC224864  69.192  57.548  16.079
 3827DC     SC324865  69.070  57.509  16.376
 3828DA     BB124866  69.886  57.375  15.967
 3828DA     BB224867  69.695  57.626  15.781
 3828DA     BB324868  69.714  57.818  15.872
 3828DA     SC124869  69.465  57.782  16.056
 3828DA     SC224870  69.236  57.877  16.075
 3828DA     SC324871  69.242  57.790  16.317
 3828DA     SC424872  69.490  57.722  16.203
 3829DC     BB124873  69.806  57.946  15.768
 3829DC     BB224874  69.526  58.160  15.688
 3829DC     BB324875  69.524  58.323  15.814
 3829DC     SC124876  69.436  58.177  16.014
 3829DC     SC224877  69.233  58.233  16.059
 3829DC     SC324878  69.428  58.056  16.248
 3830DC     BB124879  69.618  58.505  15.623
 3830DC     BB224880  69.322  58.667  15.750
 3830DC     BB324881  69.370  58.783  15.914
 3830DC     SC124882  69.395  58.571  16.067
 3830DC     SC224883  69.233  58.567  16.209
 3830DC     SC324884  69.504  58.390  16.223
 3831DA     BB124885  69.216  59.123  15.695
 3831DA     BB224886  69.069  59.148  16.030
 3831DA     BB324887  69.208  59.238  16.165
 3831DA     SC124888  69.333  58.967  16.254
 3831DA     SC224889  69.337  58.824  16.458
 3831DA     SC324890  69.547  58.718  16.354
 3831DA     SC424891  69.462  58.915  16.174
 3832DT     BB124892  69.248  59.497  16.313
 3832DT     BB224893  69.149  59.363  16.633
 3832DT     BB324894  69.305  59.379  16.768
 3832DT     SC124895  69.434  59.181  16.655
 3832DT     SC224896  69.434  59.011  16.788
 3832DT     SC324897  69.622  59.048  16.526
 3833DA     BB124898  69.034  59.611  17.005
 3833DA     BB224899  69.159  59.345  17.225
 3833DA     BB324900  69.345  59.402  17.312
 3833DA     SC124901  69.518  59.279  17.085
 3833DA     SC224902  69.675  59.088  17.055
 3833DA     SC324903  69.761  59.217  16.851
 3833DA     SC424904  69.559  59.376  16.963
 3834DA     BB124905  69.202  59.345  17.603
 3834DA     BB224906  69.438  59.068  17.647
 3834DA     BB324907  69.624  59.140  17.722
 3834DA     SC124908  69.748  59.186  17.441
 3834DA     SC224909  69.927  59.085  17.300
 3834DA     SC324910  69.923  59.307  17.172
 3834DA     SC424911  69.731  59.331  17.375
 3835DT     BB124912  69.669  59.075  17.900
 3835DT     BB224913  69.913  58.833  17.790
 3835DT     BB324914  70.104  58.903  17.829
 3835DT     SC124915  70.091  59.073  17.629
 3835DT     SC224916  70.225  59.010  17.473
 3835DT     SC324917  70.086  59.301  17.498
 3836DT     BB124918  70.102  58.708  18.004
 3836DT     BB224919  70.381  58.638  17.785
 3836DT     BB324920  70.546  58.749  17.842
 3836DT     SC124921  70.442  58.969  17.743
 3836DT     SC224922  70.555  59.029  17.570
 3836DT     SC324923  70.342  59.212  17.732
 3837DT     BB124924  70.638  58.513  17.911
 3837DT     BB224925  70.882  58.648  17.682
 3837DT     BB324926  71.008  58.778  17.782
 3837DT     SC124927  70.822  58.963  17.791
 3837DT     SC224928  70.878  59.126  17.661
 3837DT     SC324929  70.647  59.134  17.888
 3838DA     BB124930  71.244  58.504  17.569
 3838DA     BB224931  71.378  58.839  17.508
 3838DA     BB324932  71.476  58.913  17.683
 3838DA     SC124933  71.222  59.049  17.798
 3838DA     SC224934  71.137  59.281  17.836
 3838DA     SC324935  70.976  59.173  18.004
 3838DA     SC424936  71.131  58.963  17.899
 3839DC     BB124937  71.688  58.941  17.691
 3839DC     BB224938  71.687  59.302  17.685
 3839DC     BB324939  71.736  59.376  17.872
 3839DC     SC124940  71.499  59.315  17.967
 3839DC     SC224941  71.389  59.496  18.006
 3839DC     SC324942  71.313  59.200  18.114
 3840DA     BB124943  72.023  59.568  17.629
 3840DA     BB224944  71.873  59.827  17.842
 3840DA     BB324945  71.955  59.816  18.039
 3840DA     SC124946  71.737  59.621  18.145
 3840DA     SC224947  71.545  59.627  18.303
 3840DA     SC324948  71.567  59.371  18.309
 3840DA     SC424949  71.768  59.463  18.136
 3841DG     BB124950  72.084  60.111  18.021
 3841DG     BB224951  71.846  60.190  18.282
 3841DG     BB324952  71.929  60.159  18.461
 3841DG     SC124953  71.840  59.866  18.478
 3841DG     SC224954  71.642  59.754  18.671
 3841DG     SC324955  71.776  59.538  18.520
 3841DG     SC424956  71.934  59.752  18.417
 3842DA     BB124957  71.837  60.482  18.546
 3842DA     BB224958  71.623  60.351  18.813
 3842DA     BB324959  71.741  60.296  18.982
 3842DA     SC124960  71.784  60.003  18.889
 3842DA     SC224961  71.710  59.775  18.957
 3842DA     SC324962  71.913  59.691  18.823
 3842DA     SC424963  71.915  59.971  18.802
 3843DA     BB124964  71.520  60.495  19.117
 3843DA     BB224965  71.412  60.203  19.311
 3843DA     BB324966  71.553  60.160  19.465
 3843DA     SC124967  71.720  59.965  19.288
 3843DA     SC224968  71.767  59.720  19.277
 3843DA     SC324969  71.974  59.786  19.141
 3843DA     SC424970  71.845  60.026  19.207
 3844DA     BB124971  71.268  60.178  19.620
 3844DA     BB224972  71.325  59.827  19.711
 3844DA     BB324973  71.480  59.813  19.856
 3844DA     SC124974  71.707  59.782  19.646
 3844DA     SC224975  71.863  59.604  19.567
 3844DA     SC324976  72.005  59.797  19.474
 3844DA     SC424977  71.782  59.916  19.596
 3845DT     BB124978  71.412  59.746  20.009
 3845DT     BB224979  71.557  59.417  19.981
 3845DT     BB324980  71.731  59.407  20.093
 3845DT     SC124981  71.863  59.548  19.916
 3845DT     SC224982  72.007  59.422  19.818
 3845DT     SC324983  72.001  59.746  19.809
 3846DT     BB124984  71.584  59.248  20.239
 3846DT     BB224985  71.872  59.053  20.141
 3846DT     BB324986  72.033  59.100  20.261
 3846DT     SC124987  72.069  59.329  20.138
 3846DT     SC224988  72.250  59.321  20.023
 3846DT     SC324989  72.084  59.589  20.097
 3847DA     BB124990  71.979  58.683  20.235
 3847DA     BB224991  72.333  58.759  20.177
 3847DA     BB324992  72.424  58.826  20.357
 3847DA     SC124993  72.364  59.127  20.304
 3847DA     SC224994  72.492  59.334  20.247
 3847DA     SC324995  72.286  59.460  20.335
 3847DA     SC424996  72.228  59.187  20.364
 3848DT     BB124997  72.556  58.710  20.420
 3848DT     BB224998  72.842  58.914  20.339
 3848DT     BB324999  72.907  59.015  20.507
 3848DT     SC125000  72.706  59.183  20.494
 3848DT     SC225001  72.778  59.378  20.439
 3848DT     SC325002  72.485  59.311  20.560
 3849DT     BB125003  73.121  58.853  20.513
 3849DT     BB225004  73.259  59.186  20.504
 3849DT     BB325005  73.268  59.264  20.695
 3849DT     SC125006  73.008  59.305  20.699
 3849DT     SC225007  72.969  59.516  20.694
 3849DT     SC325008  72.755  59.285  20.771
 3850DA     BB125009  73.651  59.309  20.528
 3850DA     BB225010  73.554  59.630  20.676
 3850DA     BB325011  73.561  59.618  20.889
 3850DA     SC125012  73.264  59.530  20.918
 3850DA     SC225013  73.050  59.626  21.003
 3850DA     SC325014  72.971  59.382  21.018
 3850DA     SC425015  73.234  59.372  20.922
 3851DA     BB125016  73.758  59.882  20.858
 3851DA     BB225017  73.510  60.067  21.056
 3851DA     BB325018  73.525  60.015  21.262
 3851DA     SC125019  73.319  59.783  21.243
 3851DA     SC225020  73.087  59.735  21.323
 3851DA     SC325021  73.147  59.489  21.283
 3851DA     SC425022  73.375  59.636  21.213
 3852DT     BB125023  73.592  60.154  21.409
 3852DT     BB225024  73.269  60.215  21.558
 3852DT     BB325025  73.259  60.125  21.744
 3852DT     SC125026  73.233  59.887  21.635
 3852DT     SC225027  73.034  59.814  21.670
 3852DT     SC325028  73.286  59.637  21.569
 3853DA     BB125029  73.154  60.524  21.815
 3853DA     BB225030  72.898  60.313  21.973
 3853DA     BB325031  72.974  60.227  22.152
 3853DA     SC125032  73.083  59.971  22.013
 3853DA     SC225033  73.028  59.728  22.005
 3853DA     SC325034  73.269  59.697  21.921
 3853DA     SC425035  73.235  59.973  21.963
 3854DA     BB125036  72.707  60.364  22.288
 3854DA     BB225037  72.598  60.024  22.374
 3854DA     BB325038  72.703  59.953  22.545
 3854DA     SC125039  72.933  59.825  22.380
 3854DA     SC225040  73.015  59.596  22.325
 3854DA     SC325041  73.238  59.711  22.268
 3854DA     SC425042  73.064  59.915  22.351
 3855DG     BB125043  72.420  59.935  22.670
 3855DG     BB225044  72.493  59.581  22.668
 3855DG     BB325045  72.601  59.533  22.828
 3855DG     SC125046  72.870  59.582  22.691
 3855DG     SC225047  73.074  59.373  22.627
 3855DG     SC325048  73.182  59.645  22.579
 3855DG     SC425049  72.934  59.728  22.695
 3856DT     BB125050  72.519  59.394  22.971
 3856DT     BB225051  72.710  59.096  22.897
 3856DT     BB325052  72.858  59.070  23.040
 3856DT     SC125053  73.002  59.263  22.938
 3856DT     SC225054  73.179  59.181  22.846
 3856DT     SC325055  73.130  59.493  22.917
 3857DG     BB125056  72.622  58.739  23.019
 3857DG     BB225057  72.973  58.656  22.985
 3857DG     BB325058  73.062  58.664  23.162
 3857DG     SC125059  73.137  58.960  23.140
 3857DG     SC225060  73.414  59.070  23.118
 3857DG     SC325061  73.217  59.287  23.158
 3857DG     SC425062  73.033  59.070  23.191
 3858DT     BB125063  73.147  58.487  23.230
 3858DT     BB225064  73.500  58.551  23.191
 3858DT     BB325065  73.583  58.606  23.372
 3858DT     SC125066  73.474  58.844  23.359
 3858DT     SC225067  73.628  58.991  23.329
 3858DT     SC325068  73.323  59.052  23.420
 3859DA     BB125069  73.813  58.301  23.198
 3859DA     BB225070  74.040  58.566  23.312
 3859DA     BB325071  74.050  58.569  23.525
 3859DA     SC125072  73.816  58.771  23.558
 3859DA     SC225073  73.786  59.009  23.628
 3859DA     SC325074  73.540  58.945  23.667
 3859DA     SC425075  73.668  58.712  23.576
 3860DA     BB125076  74.371  58.550  23.457
 3860DA     BB225077  74.409  58.866  23.639
 3860DA     BB325078  74.389  58.833  23.849
 3860DA     SC125079  74.082  58.881  23.854
 3860DA     SC225080  73.923  59.053  23.940
 3860DA     SC325081  73.746  58.869  23.922
 3860DA     SC425082  73.987  58.753  23.837
 3861DT     BB125083  74.553  58.858  23.979
 3861DT     BB225084  74.444  59.164  24.134
 3861DT     BB325085  74.379  59.126  24.327
 3861DT     SC125086  74.156  59.019  24.239
 3861DT     SC225087  73.991  59.148  24.287
 3861DT     SC325088  73.969  58.839  24.191
 3862DT     BB125089  74.602  59.241  24.440
 3862DT     BB225090  74.326  59.421  24.587
 3862DT     BB325091  74.260  59.323  24.757
 3862DT     SC125092  74.144  59.136  24.614
 3862DT     SC225093  73.930  59.156  24.632
 3862DT     SC325094  74.089  58.899  24.514
 3863DG     BB125095  74.368  59.695  24.889
 3863DG     BB225096  74.030  59.613  24.988
 3863DG     BB325097  74.032  59.495  25.148
 3863DG     SC125098  74.039  59.235  24.986
 3863DG     SC225099  73.823  59.031  24.973
 3863DG     SC325100  74.068  58.933  24.840
 3863DG     SC425101  74.181  59.175  24.942
 3864DT     BB125102  73.943  59.557  25.345
 3864DT     BB225103  73.638  59.366  25.344
 3864DT     BB325104  73.654  59.206  25.475
 3864DT     SC125105  73.810  59.076  25.308
 3864DT     SC225106  73.704  58.905  25.230
 3864DT     SC325107  74.023  58.956  25.210
 3865DA     BB125108  73.301  59.420  25.546
 3865DA     BB225109  73.217  59.064  25.517
 3865DA     BB325110  73.288  58.957  25.687
 3865DA     SC125111  73.565  58.890  25.561
 3865DA     SC225112  73.685  58.689  25.476
 3865DA     SC325113  73.898  58.828  25.508
 3865DA     SC425114  73.686  58.992  25.589
 3866DT     BB125115  73.148  58.888  25.777
 3866DT     BB225116  73.197  58.543  25.682
 3866DT     BB325117  73.298  58.442  25.831
 3866DT     SC125118  73.525  58.558  25.766
 3866DT     SC225119  73.657  58.412  25.679
 3866DT     SC325120  73.742  58.706  25.785
 3867DG     BB125121  72.947  58.260  25.730
 3867DG     BB225122  73.227  58.030  25.726
 3867DG     BB325123  73.283  57.988  25.912
 3867DG     SC125124  73.483  58.219  25.930
 3867DG     SC225125  73.780  58.193  25.950
 3867DG     SC325126  73.695  58.474  25.991
 3867DG     SC425127  73.432  58.362  25.980
 3868DA     BB125128  73.260  57.661  25.797
 3868DA     BB225129  73.610  57.606  25.894
 3868DA     BB325130  73.628  57.601  26.107
 3868DA     SC125131  73.680  57.906  26.135
 3868DA     SC225132  73.870  58.056  26.196
 3868DA     SC325133  73.689  58.232  26.242
 3868DA     SC425134  73.553  58.001  26.159
 3869DA     BB125135  73.776  57.308  26.051
 3869DA     BB225136  74.071  57.445  26.220
 3869DA     BB325137  74.040  57.452  26.431
 3869DA     SC125138  73.923  57.740  26.428
 3869DA     SC225139  73.991  57.968  26.504
 3869DA     SC325140  73.741  58.025  26.491
 3869DA     SC425141  73.763  57.756  26.415
 3870DA     BB125142  74.317  57.265  26.484
 3870DA     BB225143  74.457  57.545  26.674
 3870DA     BB325144  74.378  57.547  26.872
 3870DA     SC125145  74.138  57.731  26.801
 3870DA     SC225146  74.064  57.964  26.848
 3870DA     SC325147  73.829  57.881  26.784
 3870DA     SC425148  74.000  57.660  26.759
 3871DG     BB125149  74.663  57.495  27.033
 3871DG     BB225150  74.610  57.829  27.161
 3871DG     BB325151  74.511  57.820  27.334
 3871DG     SC125152  74.234  57.833  27.205
 3871DG     SC225153  74.039  58.058  27.231
 3871DG     SC325154  73.915  57.825  27.097
 3871DG     SC425155  74.163  57.697  27.161
 3872DT     BB125156  74.583  57.887  27.580
 3872DT     BB225157  74.410  58.202  27.605
 3872DT     BB325158  74.258  58.187  27.746
 3872DT     SC125159  74.109  58.047  27.582
 3872DT     SC225160  73.940  58.165  27.521
 3872DT     SC325161  73.971  57.845  27.483
 3873DA     BB125162  74.482  58.519  27.871
 3873DA     BB225163  74.132  58.625  27.851
 3873DA     BB325164  74.023  58.553  28.020
 3873DA     SC125165  73.938  58.287  27.882
 3873DA     SC225166  73.728  58.183  27.795
 3873DA     SC325167  73.855  57.961  27.815
 3873DA     SC425168  74.032  58.159  27.903
 3874DT     BB125169  73.948  58.689  28.154
 3874DT     BB225170  73.605  58.667  28.044
 3874DT     BB325171  73.493  58.562  28.184
 3874DT     SC125172  73.597  58.334  28.109
 3874DT     SC225173  73.447  58.216  28.009
 3874DT     SC325174  73.732  58.107  28.118
 3875DA     BB125175  73.298  58.924  28.101
 3875DA     BB225176  73.052  58.653  28.070
 3875DA     BB325177  72.999  58.579  28.263
 3875DA     SC125178  73.221  58.361  28.268
 3875DA     SC225179  73.235  58.112  28.256
 3875DA     SC325180  73.468  58.141  28.361
 3875DA     SC425181  73.362  58.400  28.334
 3876DC     BB125182  72.811  58.608  28.321
 3876DC     BB225183  72.700  58.267  28.276
 3876DC     BB325184  72.684  58.174  28.460
 3876DC     SC125185  72.944  58.152  28.481
 3876DC     SC225186  73.000  57.945  28.463
 3876DC     SC325187  73.189  58.184  28.573
 3877DT     BB125188  72.414  58.181  28.436
 3877DT     BB225189  72.494  57.831  28.475
 3877DT     BB325190  72.504  57.783  28.676
 3877DT     SC125191  72.736  57.903  28.701
 3877DT     SC225192  72.889  57.756  28.734
 3877DT     SC325193  72.919  58.075  28.781
 3878DA     BB125194  72.248  57.511  28.489
 3878DA     BB225195  72.491  57.321  28.687
 3878DA     BB325196  72.447  57.337  28.895
 3878DA     SC125197  72.626  57.588  28.938
 3878DA     SC225198  72.839  57.645  29.054
 3878DA     SC325199  72.757  57.887  29.044
 3878DA     SC425200  72.556  57.732  28.923
 3879DC     BB125201  72.399  57.173  28.971
 3879DC     BB225202  72.708  57.118  29.150
 3879DC     BB325203  72.683  57.166  29.350
 3879DC     SC125204  72.687  57.423  29.297
 3879DC     SC225205  72.868  57.509  29.375
 3879DC     SC325206  72.606  57.673  29.277
 3880DC     BB125207  72.714  56.910  29.368
 3880DC     BB225208  72.976  57.055  29.568
 3880DC     BB325209  72.901  57.113  29.752
 3880DC     SC125210  72.781  57.321  29.646
 3880DC     SC225211  72.879  57.501  29.711
 3880DC     SC325212  72.589  57.484  29.569
 3881DT     BB125213  73.060  56.922  29.812
 3881DT     BB225214  73.172  57.209  30.001
 3881DT     BB325215  73.047  57.240  30.163
 3881DT     SC125216  72.858  57.337  30.009
 3881DT     SC225217  72.837  57.548  30.046
 3881DT     SC325218  72.626  57.361  29.886
 3882DG     BB125219  73.442  57.214  30.264
 3882DG     BB225220  73.281  57.500  30.415
 3882DG     BB325221  73.158  57.441  30.559
 3882DG     SC125222  72.916  57.410  30.375
 3882DG     SC225223  72.668  57.577  30.383
 3882DG     SC325224  72.635  57.347  30.199
 3882DG     SC425225  72.892  57.270  30.301
 3883DT     BB125226  73.196  57.501  30.763
 3883DT     BB225227  72.929  57.733  30.831
 3883DT     BB325228  72.779  57.640  30.938
 3883DT     SC125229  72.696  57.510  30.725
 3883DT     SC225230  72.504  57.587  30.665
 3883DT     SC325231  72.639  57.310  30.563
 3884DG     BB125232  72.889  57.940  31.196
 3884DG     BB225233  72.529  57.934  31.155
 3884DG     BB325234  72.450  57.794  31.272
 3884DG     SC125235  72.470  57.572  31.062
 3884DG     SC225236  72.241  57.436  30.928
 3884DG     SC325237  72.496  57.302  30.862
 3884DG     SC425238  72.605  57.486  31.053
 3885DA     BB125239  72.221  58.012  31.440
 3885DA     BB225240  71.934  57.817  31.321
 3885DA     BB325241  71.902  57.648  31.447
 3885DA     SC125242  72.084  57.459  31.280
 3885DA     SC225243  72.056  57.261  31.130
 3885DA     SC325244  72.305  57.217  31.177
 3885DA     SC425245  72.238  57.447  31.323
 3886DA     BB125246  71.587  57.750  31.501
 3886DA     BB225247  71.471  57.441  31.342
 3886DA     BB325248  71.474  57.280  31.482
 3886DA     SC125249  71.765  57.193  31.412
 3886DA     SC225250  71.878  57.001  31.299
 3886DA     SC325251  72.088  57.079  31.423
 3886DA     SC425252  71.884  57.256  31.499
 3887DC     BB125253  71.292  57.177  31.561
 3887DC     BB225254  71.327  56.877  31.364
 3887DC     BB325255  71.376  56.717  31.487
 3887DC     SC125256  71.623  56.804  31.513
 3887DC     SC225257  71.756  56.671  31.410
 3887DC     SC325258  71.842  56.897  31.626
 3888DT     BB125259  71.125  56.607  31.462
 3888DT     BB225260  71.348  56.347  31.347
 3888DT     BB325261  71.406  56.229  31.507
 3888DT     SC125262  71.568  56.415  31.596
 3888DT     SC225263  71.772  56.351  31.569
 3888DT     SC325264  71.673  56.598  31.754
 3889DT     BB125265  71.250  56.026  31.414
 3889DT     BB225266  71.581  55.883  31.435
 3889DT     BB325267  71.614  55.806  31.624
 3889DT     SC125268  71.643  56.047  31.725
 3889DT     SC225269  71.849  56.076  31.781
 3889DT     SC325270  71.599  56.262  31.871
 3890DA     BB125271  71.708  55.503  31.351
 3890DA     BB225272  71.984  55.526  31.592
 3890DA     BB325273  71.925  55.444  31.780
 3890DA     SC125274  71.820  55.714  31.893
 3890DA     SC225275  71.886  55.879  32.067
 3890DA     SC325276  71.642  55.958  32.056
 3890DA     SC425277  71.664  55.748  31.872
 3891DT     BB125278  72.014  55.267  31.852
 3891DT     BB225279  72.216  55.421  32.109
 3891DT     BB325280  72.136  55.380  32.295
 3891DT     SC125281  71.942  55.552  32.258
 3891DT     SC225282  71.970  55.721  32.389
 3891DT     SC325283  71.698  55.649  32.228
 3892DT     BB125284  72.339  55.208  32.348
 3892DT     BB225285  72.351  55.448  32.617
 3892DT     BB325286  72.223  55.391  32.769
 3892DT     SC125287  72.013  55.464  32.630
 3892DT     SC225288  71.924  55.638  32.720
 3892DT     SC325289  71.786  55.448  32.496
 3893DG     BB125290  72.593  55.415  32.940
 3893DG     BB225291  72.351  55.613  33.121
 3893DG     BB325292  72.239  55.495  33.237
 3893DG     SC125293  72.027  55.444  33.022
 3893DG     SC225294  71.743  55.537  33.031
 3893DG     SC325295  71.786  55.351  32.806
 3893DG     SC425296  72.047  55.322  32.921
 3894DT     BB125297  72.240  55.516  33.458
 3894DT     BB225298  71.923  55.681  33.510
 3894DT     BB325299  71.785  55.547  33.584
 3894DT     SC125300  71.758  55.433  33.349
 3894DT     SC225301  71.562  55.478  33.271
 3894DT     SC325302  71.764  55.249  33.160
 3895DA     BB125303  71.792  55.891  33.822
 3895DA     BB225304  71.444  55.820  33.732
 3895DA     BB325305  71.374  55.648  33.836
 3895DA     SC125306  71.460  55.448  33.614
 3895DA     SC225307  71.349  55.301  33.446
 3895DA     SC325308  71.572  55.174  33.441
 3895DA     SC425309  71.605  55.382  33.627
 3896DT     BB125310  71.240  55.697  33.944
 3896DT     BB225311  70.972  55.555  33.749
 3896DT     BB325312  70.920  55.369  33.825
 3896DT     SC125313  71.136  55.259  33.724
 3896DT     SC225314  71.081  55.127  33.564
 3896DT     SC325315  71.369  55.136  33.712
 3897DA     BB125316  70.595  55.626  33.743
 3897DA     BB225317  70.526  55.295  33.601
 3897DA     BB325318  70.501  55.151  33.756
 3897DA     SC125319  70.802  55.072  33.765
 3897DA     SC225320  70.942  54.874  33.705
 3897DA     SC325321  71.117  54.976  33.864
 3897DA     SC425322  70.896  55.150  33.868
 3898DT     BB125323  70.344  55.101  33.732
 3898DT     BB225324  70.415  54.768  33.614
 3898DT     BB325325  70.425  54.637  33.774
 3898DT     SC125326  70.661  54.729  33.845
 3898DT     SC225327  70.810  54.579  33.808
 3898DT     SC325328  70.849  54.845  33.989
 3899DG     BB125329  70.153  54.505  33.499
 3899DG     BB225330  70.381  54.243  33.599
 3899DG     BB325331  70.338  54.182  33.783
 3899DG     SC125332  70.522  54.384  33.920
 3899DG     SC225333  70.769  54.320  34.075
 3899DG     SC325334  70.698  54.606  34.104
 3899DG     SC425335  70.464  54.529  33.958
 3900DA     BB125336  70.323  53.846  33.671
 3900DA     BB225337  70.576  53.748  33.917
 3900DA     BB325338  70.491  53.740  34.112
 3900DA     SC125339  70.558  54.036  34.179
 3900DA     SC225340  70.712  54.161  34.331
 3900DA     SC325341  70.551  54.359  34.298
 3900DA     SC425342  70.445  54.147  34.148
 3901DC     BB125343  70.441  53.549  34.255
 3901DC     BB225344  70.703  53.603  34.497
 3901DC     BB325345  70.621  53.660  34.678
 3901DC     SC125346  70.569  53.901  34.588
 3901DC     SC225347  70.698  54.043  34.685
 3901DC     SC325348  70.433  54.114  34.513
 3902DA     BB125349  70.821  53.317  34.836
 3902DA     BB225350  70.910  53.597  35.056
 3902DA     BB325351  70.754  53.632  35.197
 3902DA     SC125352  70.605  53.837  35.017
 3902DA     SC225353  70.559  54.083  35.015
 3902DA     SC325354  70.366  54.025  34.856
 3902DA     SC425355  70.489  53.781  34.921
 3903DT     BB125356  70.752  53.599  35.441
 3903DT     BB225357  70.790  53.949  35.521
 3903DT     BB325358  70.619  54.019  35.615
 3903DT     SC125359  70.486  54.021  35.388
 3903DT     SC225360  70.448  54.225  35.330
 3903DT     SC325361  70.305  53.961  35.207
 3904DT     BB125362  70.735  54.036  35.871
 3904DT     BB225363  70.626  54.372  35.800
 3904DT     BB325364  70.433  54.400  35.870
 3904DT     SC125365  70.333  54.260  35.672
 3904DT     SC225366  70.225  54.390  35.539
 3904DT     SC325367  70.208  54.067  35.543
 3905DA     BB125368  70.671  54.710  36.020
 3905DA     BB225369  70.376  54.860  35.863
 3905DA     BB325370  70.204  54.830  35.985
 3905DA     SC125371  70.124  54.562  35.850
 3905DA     SC225372  69.944  54.477  35.700
 3905DA     SC325373  70.011  54.244  35.785
 3905DA     SC425374  70.180  54.426  35.915
 3906DT     BB125375  70.130  54.992  36.054
 3906DT     BB225376  69.844  55.003  35.834
 3906DT     BB325377  69.675  54.938  35.934
 3906DT     SC125378  69.754  54.688  35.921
 3906DT     SC225379  69.626  54.580  35.786
 3906DT     SC325380  69.833  54.448  35.997
 3907DG     BB125381  69.606  55.313  35.791
 3907DG     BB225382  69.348  55.082  35.688
 3907DG     BB325383  69.224  55.046  35.840
 3907DG     SC125384  69.385  54.809  35.948
 3907DG     SC225385  69.296  54.524  35.950
 3907DG     SC325386  69.546  54.557  36.104
 3907DG     SC425387  69.502  54.836  36.053
 3908DT     BB125388  69.013  55.101  35.824
 3908DT     BB225389  68.860  54.777  35.777
 3908DT     BB325390  68.772  54.714  35.953
 3908DT     SC125391  69.005  54.658  36.059
 3908DT     SC225392  69.025  54.444  36.079
 3908DT     SC325393  69.213  54.666  36.222
 3909DC     BB125394  68.530  54.757  35.842
 3909DC     BB225395  68.529  54.409  35.936
 3909DC     BB325396  68.470  54.389  36.134
 3909DC     SC125397  68.703  54.476  36.219
 3909DC     SC225398  68.810  54.313  36.311
 3909DC     SC325399  68.883  54.628  36.337
 3910DT     BB125400  68.241  54.284  36.044
 3910DT     BB225401  68.386  54.029  36.254
 3910DT     BB325402  68.334  54.063  36.452
 3910DT     SC125403  68.503  54.263  36.471
 3910DT     SC225404  68.666  54.206  36.600
 3910DT     SC325405  68.596  54.507  36.503
 3911DG     BB125406  68.228  53.691  36.329
 3911DG     BB225407  68.431  53.683  36.628
 3911DG     BB325408  68.322  53.738  36.785
 3911DG     SC125409  68.388  54.036  36.757
 3911DG     SC225410  68.549  54.199  36.949
 3911DG     SC325411  68.423  54.371  36.744
 3911DG     SC425412  68.295  54.127  36.664
 3912DT     BB125413  68.317  53.597  36.921
 3912DT     BB225414  68.529  53.729  37.180
 3912DT     BB325415  68.415  53.823  37.324
 3912DT     SC125416  68.374  54.029  37.167
 3912DT     SC225417  68.479  54.200  37.244
 3912DT     SC325418  68.247  54.206  37.018
 3913DT     BB125419  68.491  53.620  37.469
 3913DT     BB225420  68.597  53.912  37.652
 3913DT     BB325421  68.437  53.991  37.757
 3913DT     SC125422  68.331  54.089  37.538
 3913DT     SC225423  68.344  54.304  37.543
 3913DT     SC325424  68.159  54.129  37.342
 3914DA     BB125425  68.765  53.947  38.015
 3914DA     BB225426  68.623  54.281  38.067
 3914DA     BB325427  68.435  54.267  38.166
 3914DA     SC125428  68.270  54.251  37.903
 3914DA     SC225429  68.110  54.394  37.776
 3914DA     SC325430  68.036  54.176  37.662
 3914DA     SC425431  68.237  54.104  37.845
 3915DT     BB125432  68.422  54.341  38.350
 3915DT     BB225433  68.224  54.632  38.271
 3915DT     BB325434  68.028  54.601  38.327
 3915DT     SC125435  67.986  54.441  38.123
 3915DT     SC225436  67.854  54.537  37.983
 3915DT     SC325437  67.932  54.222  37.987
 3916DT     BB125438  68.050  54.771  38.543
 3916DT     BB225439  67.771  54.903  38.356
 3916DT     BB325440  67.595  54.811  38.418
 3916DT     SC125441  67.657  54.590  38.290
 3916DT     SC225442  67.524  54.565  38.122
 3916DT     SC325443  67.718  54.337  38.247
 3917DG     BB125444  67.533  55.209  38.487
 3917DG     BB225445  67.263  55.067  38.293
 3917DG     BB325446  67.137  54.970  38.412
 3917DG     SC125447  67.285  54.702  38.389
 3917DG     SC225448  67.180  54.455  38.259
 3917DG     SC325449  67.432  54.399  38.403
 3917DG     SC425450  67.403  54.670  38.492
 3918DT     BB125451  66.919  55.031  38.442
 3918DT     BB225452  66.747  54.776  38.252
 3918DT     BB325453  66.659  54.640  38.381
 3918DT     SC125454  66.891  54.530  38.437
 3918DT     SC225455  66.899  54.333  38.351
 3918DT     SC325456  67.101  54.452  38.575
 3919DA     BB125457  66.358  54.767  38.118
 3919DA     BB225458  66.349  54.401  38.129
 3919DA     BB325459  66.265  54.334  38.313
 3919DA     SC125460  66.538  54.320  38.461
 3919DA     SC225461  66.690  54.144  38.550
 3919DA     SC325462  66.790  54.332  38.694
 3919DA     SC425463  66.585  54.450  38.543
 3920DA     BB125464  66.063  54.168  38.113
 3920DA     BB225465  66.190  53.861  38.268
 3920DA     BB325466  66.104  53.834  38.461
 3920DA     SC125467  66.329  53.988  38.610
 3920DA     SC225468  66.516  53.936  38.766
 3920DA     SC325469  66.509  54.186  38.826
 3920DA     SC425470  66.308  54.146  38.635
 3921DA     BB125471  66.014  53.537  38.346
 3921DA     BB225472  66.216  53.389  38.613
 3921DA     BB325473  66.112  53.398  38.799
 3921DA     SC125474  66.231  53.674  38.879
 3921DA     SC225475  66.392  53.764  39.047
 3921DA     SC325476  66.280  53.991  39.003
 3921DA     SC425477  66.148  53.806  38.838
 3922DT     BB125478  66.057  53.228  38.881
 3922DT     BB225479  66.305  53.224  39.143
 3922DT     BB325480  66.218  53.279  39.323
 3922DT     SC125481  66.208  53.531  39.250
 3922DT     SC225482  66.348  53.645  39.368
 3922DT     SC325483  66.110  53.767  39.185
 3923DA     BB125484  66.425  52.919  39.384
 3923DA     BB225485  66.524  53.153  39.648
 3923DA     BB325486  66.364  53.180  39.787
 3923DA     SC125487  66.240  53.422  39.635
 3923DA     SC225488  66.214  53.668  39.669
 3923DA     SC325489  66.026  53.651  39.496
 3923DA     SC425490  66.126  53.391  39.527
 3924DT     BB125491  66.397  53.116  39.967
 3924DT     BB225492  66.439  53.439  40.122
 3924DT     BB325493  66.267  53.491  40.224
 3924DT     SC125494  66.142  53.546  40.000
 3924DT     SC225495  66.110  53.758  39.986
 3924DT     SC325496  65.965  53.532  39.805
 3925DA     BB125497  66.590  53.535  40.489
 3925DA     BB225498  66.389  53.841  40.504
 3925DA     BB325499  66.205  53.804  40.606
 3925DA     SC125500  66.050  53.728  40.347
 3925DA     SC225501  65.868  53.825  40.206
 3925DA     SC325502  65.837  53.586  40.117
 3925DA     SC425503  66.045  53.573  40.305
 3926DG     BB125504  66.308  54.021  40.805
 3926DG     BB225505  66.020  54.203  40.683
 3926DG     BB325506  65.856  54.142  40.776
 3926DG     SC125507  65.793  53.921  40.574
 3926DG     SC225508  65.559  53.914  40.390
 3926DG     SC325509  65.705  53.657  40.384
 3926DG     SC425510  65.857  53.775  40.596
 3927DA     BB125511  65.786  54.475  40.859
 3927DA     BB225512  65.470  54.455  40.673
 3927DA     BB325513  65.323  54.351  40.788
 3927DA     SC125514  65.395  54.071  40.672
 3927DA     SC225515  65.292  53.902  40.521
 3927DA     SC325516  65.455  53.736  40.629
 3927DA     SC425517  65.503  53.983  40.752
 3928DG     BB125518  65.152  54.615  40.781
 3928DG     BB225519  64.928  54.411  40.583
 3928DG     BB325520  64.808  54.307  40.702
 3928DG     SC125521  64.996  54.067  40.723
 3928DG     SC225522  64.945  53.794  40.614
 3928DG     SC325523  65.187  53.795  40.784
 3928DG     SC425524  65.107  54.065  40.838
 3929DT     BB125525  64.584  54.334  40.700
 3929DT     BB225526  64.486  54.041  40.515
 3929DT     BB325527  64.404  53.900  40.643
 3929DT     SC125528  64.640  53.838  40.738
 3929DT     SC225529  64.693  53.639  40.673
 3929DT     SC325530  64.839  53.808  40.909
 3930DA     BB125531  64.153  53.966  40.315
 3930DA     BB225532  64.211  53.606  40.346
 3930DA     BB325533  64.108  53.528  40.516
 3930DA     SC125534  64.346  53.572  40.712
 3930DA     SC225535  64.509  53.432  40.838
 3930DA     SC325536  64.542  53.639  40.986
 3930DA     SC425537  64.351  53.711  40.793
 3931DT     BB125538  63.996  53.416  40.451
 3931DT     BB225539  64.174  53.119  40.552
 3931DT     BB325540  64.101  53.050  40.733
 3931DT     SC125541  64.222  53.243  40.864
 3931DT     SC225542  64.382  53.160  40.981
 3931DT     SC325543  64.257  53.457  41.014
 3932DT     BB125544  64.034  52.865  40.568
 3932DT     BB225545  64.242  52.708  40.818
 3932DT     BB325546  64.134  52.681  40.992
 3932DT     SC125547  64.149  52.936  41.051
 3932DT     SC225548  64.277  52.963  41.222
 3932DT     SC325549  64.074  53.184  41.100
 3933DA     BB125550  64.352  52.341  40.867
 3933DA     BB225551  64.408  52.394  41.226
 3933DA     BB325552  64.228  52.358  41.335
 3933DA     SC125553  64.131  52.653  41.319
 3933DA     SC225554  64.101  52.846  41.474
 3933DA     SC325555  63.942  52.939  41.295
 3933DA     SC425556  64.035  52.694  41.196
 3934DA     BB125557  64.453  52.175  41.488
 3934DA     BB225558  64.367  52.365  41.789
 3934DA     BB325559  64.171  52.314  41.856
 3934DA     SC125560  64.030  52.536  41.690
 3934DA     SC225561  63.909  52.750  41.733
 3934DA     SC325562  63.810  52.717  41.499
 3934DA     SC425563  63.978  52.497  41.543
 3935DG     BB125564  64.325  52.230  42.112
 3935DG     BB225565  64.123  52.490  42.263
 3935DG     BB325566  63.940  52.421  42.300
 3935DG     SC125567  63.828  52.502  42.027
 3935DG     SC225568  63.620  52.711  41.978
 3935DG     SC325569  63.677  52.558  41.731
 3935DG     SC425570  63.839  52.399  41.905
 3936DA     BB125571  63.979  52.534  42.627
 3936DA     BB225572  63.684  52.747  42.591
 3936DA     BB325573  63.506  52.630  42.602
 3936DA     SC125574  63.492  52.579  42.295
 3936DA     SC225575  63.348  52.648  42.103
 3936DA     SC325576  63.445  52.442  41.984
 3936DA     SC425577  63.562  52.446  42.239
 3937DA     BB125578  63.428  52.847  42.838
 3937DA     BB225579  63.138  52.939  42.633
 3937DA     BB325580  62.987  52.789  42.647
 3937DA     SC125581  63.092  52.626  42.403
 3937DA     SC225582  63.019  52.575  42.170
 3937DA     SC325583  63.180  52.376  42.186
 3937DA     SC425584  63.196  52.508  42.433
 3938DA     BB125585  62.801  53.048  42.731
 3938DA     BB225586  62.594  52.972  42.437
 3938DA     BB325587  62.470  52.803  42.476
 3938DA     SC125588  62.677  52.596  42.369
 3938DA     SC225589  62.700  52.443  42.173
 3938DA     SC325590  62.871  52.318  42.318
 3938DA     SC425591  62.779  52.531  42.474
 3939DT     BB125592  62.272  52.831  42.484
 3939DT     BB225593  62.191  52.677  42.168
 3939DT     BB325594  62.110  52.489  42.200
 3939DT     SC125595  62.345  52.389  42.260
 3939DT     SC225596  62.407  52.255  42.103
 3939DT     SC325597  62.539  52.276  42.399
 3940DT     BB125598  61.859  52.577  42.132
 3940DT     BB225599  61.918  52.298  41.910
 3940DT     BB325600  61.859  52.122  42.001
 3940DT     SC125601  62.070  52.123  42.157
 3940DT     SC225602  62.202  51.963  42.100
 3940DT     SC325603  62.217  52.131  42.376
 3941DG     BB125604  61.625  52.134  41.665
 3941DG     BB225605  61.796  51.816  41.691
 3941DG     BB325606  61.699  51.698  41.818
 3941DG     SC125607  61.854  51.793  42.064
 3941DG     SC225608  62.044  51.629  42.226
 3941DG     SC325609  61.990  51.889  42.357
 3941DG     SC425610  61.800  51.920  42.145
 3942DT     BB125611  61.588  51.489  41.766
 3942DT     BB225612  61.822  51.252  41.904
 3942DT     BB325613  61.744  51.166  42.075
 3942DT     SC125614  61.788  51.385  42.214
 3942DT     SC225615  61.945  51.348  42.356
 3942DT     SC325616  61.742  51.601  42.358
 3943DA     BB125617  61.848  50.838  41.836
 3943DA     BB225618  61.989  50.779  42.169
 3943DA     BB325619  61.836  50.718  42.305
 3943DA     SC125620  61.770  51.008  42.398
 3943DA     SC225621  61.796  51.146  42.603
 3943DA     SC325622  61.611  51.294  42.503
 3943DA     SC425623  61.653  51.086  42.319
 3944DT     BB125624  61.837  50.526  42.384
 3944DT     BB225625  61.947  50.616  42.716
 3944DT     BB325626  61.789  50.601  42.849
 3944DT     SC125627  61.680  50.821  42.758
 3944DT     SC225628  61.696  50.975  42.907
 3944DT     SC325629  61.507  50.983  42.644
 3945DT     BB125630  61.896  50.374  42.961
 3945DT     BB225631  61.857  50.600  43.240
 3945DT     BB325632  61.668  50.580  43.321
 3945DT     SC125633  61.559  50.709  43.120
 3945DT     SC225634  61.487  50.900  43.189
 3945DT     SC325635  61.410  50.757  42.908
 3946DT     BB125636  61.765  50.449  43.544
 3946DT     BB225637  61.582  50.728  43.680
 3946DT     BB325638  61.383  50.675  43.708
 3946DT     SC125639  61.335  50.689  43.451
 3946DT     SC225640  61.208  50.858  43.411
 3946DT     SC325641  61.271  50.614  43.206
 3947DT     BB125642  61.398  50.652  43.991
 3947DT     BB225643  61.130  50.888  43.940
 3947DT     BB325644  60.949  50.788  43.929
 3947DT     SC125645  61.003  50.702  43.687
 3947DT     SC225646  60.873  50.799  43.546
 3947DT     SC325647  61.052  50.535  43.488
 3948DT     BB125648  60.847  50.856  44.191
 3948DT     BB225649  60.588  50.972  43.968
 3948DT     BB325650  60.445  50.825  43.944
 3948DT     SC125651  60.603  50.685  43.788
 3948DT     SC225652  60.527  50.688  43.587
 3948DT     SC325653  60.752  50.486  43.701
 3949DG     BB125654  60.217  51.127  44.107
 3949DG     BB225655  60.073  51.013  43.795
 3949DG     BB325656  59.959  50.853  43.827
 3949DG     SC125657  60.187  50.652  43.787
 3949DG     SC225658  60.210  50.456  43.563
 3949DG     SC325659  60.417  50.406  43.770
 3949DG     SC425660  60.276  50.610  43.913
 3950DA     BB125661  59.703  51.017  43.665
 3950DA     BB225662  59.704  50.761  43.403
 3950DA     BB325663  59.596  50.588  43.467
 3950DA     SC125664  59.845  50.448  43.590
 3950DA     SC225665  59.988  50.250  43.540
 3950DA     SC325666  60.059  50.264  43.786
 3950DA     SC425667  59.876  50.473  43.746
 3951DG     BB125668  59.444  50.672  43.219
 3951DG     BB225669  59.579  50.361  43.094
 3951DG     BB325670  59.468  50.208  43.159
 3951DG     SC125671  59.629  50.167  43.415
 3951DG     SC225672  59.798  49.930  43.480
 3951DG     SC325673  59.772  50.107  43.715
 3951DG     SC425674  59.589  50.249  43.547
 3952DC     BB125675  59.409  50.119  43.005
 3952DC     BB225676  59.610  49.819  43.009
 3952DC     BB325677  59.508  49.667  43.105
 3952DC     SC125678  59.552  49.775  43.341
 3952DC     SC225679  59.689  49.652  43.451
 3952DC     SC325680  59.505  49.889  43.574
 3953DT     BB125681  59.519  49.583  42.862
 3953DT     BB225682  59.673  49.326  43.064
 3953DT     BB325683  59.527  49.214  43.159
 3953DT     SC125684  59.480  49.407  43.330
 3953DT     SC225685  59.549  49.348  43.525
 3953DT     SC325686  59.353  49.598  43.461
 3954DA     BB125687  59.812  48.969  42.970
 3954DA     BB225688  59.749  48.837  43.306
 3954DA     BB325689  59.553  48.755  43.319
 3954DA     SC125690  59.421  49.021  43.411
 3954DA     SC225691  59.317  49.113  43.619
 3954DA     SC325692  59.207  49.285  43.463
 3954DA     SC425693  59.361  49.118  43.298
 3955DT     BB125694  59.534  48.557  43.343
 3955DT     BB225695  59.416  48.559  43.684
 3955DT     BB325696  59.212  48.524  43.688
 3955DT     SC125697  59.160  48.767  43.603
 3955DT     SC225698  59.069  48.880  43.762
 3955DT     SC325699  59.075  48.963  43.448
 3956DG     BB125700  59.358  48.212  43.910
 3956DG     BB225701  59.091  48.378  44.087
 3956DG     BB325702  58.915  48.315  44.019
 3956DG     SC125703  58.893  48.528  43.801
 3956DG     SC225704  58.694  48.750  43.792
 3956DG     SC325705  58.847  48.735  43.539
 3956DG     SC425706  58.956  48.498  43.657
 3957DA     BB125707  58.797  48.223  44.341
 3957DA     BB225708  58.517  48.458  44.315
 3957DA     BB325709  58.358  48.371  44.202
 3957DA     SC125710  58.459  48.481  43.929
 3957DA     SC225711  58.389  48.651  43.761
 3957DA     SC325712  58.539  48.521  43.598
 3957DA     SC425713  58.556  48.386  43.843
 3958DG     BB125714  58.162  48.388  44.454
 3958DG     BB225715  57.980  48.623  44.247
 3958DG     BB325716  57.847  48.526  44.135
 3958DG     SC125717  58.040  48.481  43.902
 3958DG     SC225718  58.017  48.602  43.630
 3958DG     SC325719  58.229  48.397  43.636
 3958DG     SC425720  58.132  48.350  43.901
 3959DT     BB125721  57.613  48.553  44.150
 3959DT     BB225722  57.550  48.752  43.856
 3959DT     BB325723  57.455  48.637  43.712
 3959DT     SC125724  57.678  48.510  43.655
 3959DT     SC225725  57.744  48.568  43.459
 3959DT     SC325726  57.851  48.314  43.629
 3960DT     BB125727  57.225  48.774  43.757
 3960DT     BB225728  57.291  48.820  43.405
 3960DT     BB325729  57.208  48.664  43.297
 3960DT     SC125730  57.397  48.500  43.374
 3960DT     SC225731  57.524  48.452  43.207
 3960DT     SC325732  57.515  48.294  43.490
 3961DC     BB125733  57.022  48.836  43.203
 3961DC     BB225734  57.177  48.702  42.907
 3961DC     BB325735  57.084  48.525  42.852
 3961DC     SC125736  57.200  48.394  43.047
 3961DC     SC225737  57.345  48.257  42.965
 3961DC     SC325738  57.230  48.254  43.269
 3962DA     BB125739  57.108  48.780  42.519
 3962DA     BB225740  57.224  48.447  42.418
 3962DA     BB325741  57.060  48.311  42.409
 3962DA     SC125742  57.089  48.218  42.704
 3962DA     SC225743  57.159  48.013  42.827
 3962DA     SC325744  57.031  48.113  43.025
 3962DA     SC425745  57.003  48.296  42.815
 3963DA     BB125746  57.182  48.265  42.106
 3963DA     BB225747  57.228  47.913  42.199
 3963DA     BB325748  57.040  47.812  42.202
 3963DA     SC125749  56.985  47.871  42.502
 3963DA     SC225750  56.974  47.745  42.717
 3963DA     SC325751  56.838  47.944  42.804
 3963DA     SC425752  56.901  48.004  42.538
 3964DA     BB125753  57.195  47.605  41.997
 3964DA     BB225754  57.135  47.342  42.246
 3964DA     BB325755  56.932  47.279  42.239
 3964DA     SC125756  56.836  47.485  42.452
 3964DA     SC225757  56.753  47.482  42.687
 3964DA     SC325758  56.656  47.713  42.634
 3964DA     SC425759  56.782  47.626  42.399
 3965DA     BB125760  57.062  46.978  42.199
 3965DA     BB225761  56.897  46.882  42.512
 3965DA     BB325762  56.689  46.849  42.479
 3965DA     SC125763  56.607  47.142  42.540
 3965DA     SC225764  56.484  47.267  42.718
 3965DA     SC325765  56.455  47.451  42.541
 3965DA     SC425766  56.598  47.244  42.416
 3966DC     BB125767  56.606  46.656  42.499
 3966DC     BB225768  56.440  46.714  42.813
 3966DC     BB325769  56.235  46.728  42.784
 3966DC     SC125770  56.258  46.968  42.681
 3966DC     SC225771  56.174  47.112  42.816
 3966DC     SC325772  56.249  47.165  42.505
 3967DC     BB125773  56.199  46.484  42.900
 3967DC     BB225774  55.995  46.709  43.096
 3967DC     BB325775  55.807  46.726  43.011
 3967DC     SC125776  55.899  46.877  42.817
 3967DC     SC225777  55.825  47.078  42.842
 3967DC     SC325778  55.964  46.958  42.575
 3968DC     BB125779  55.710  46.584  43.217
 3968DC     BB225780  55.526  46.894  43.223
 3968DC     BB325781  55.363  46.882  43.095
 3968DC     SC125782  55.518  46.906  42.884
 3968DC     SC225783  55.483  47.097  42.791
 3968DC     SC325784  55.640  46.846  42.658
 3969DT     BB125785  55.206  46.875  43.312
 3969DT     BB225786  55.087  47.157  43.122
 3969DT     BB325787  54.951  47.094  42.979
 3969DT     SC125788  55.143  46.995  42.829
 3969DT     SC225789  55.164  47.114  42.651
 3969DT     SC325790  55.290  46.819  42.699
 3970DG     BB125791  54.767  47.373  43.212
 3970DG     BB225792  54.735  47.453  42.861
 3970DG     BB325793  54.596  47.337  42.777
 3970DG     SC125794  54.792  47.115  42.701
 3970DG     SC225795  54.869  47.036  42.424
 3970DG     SC325796  54.975  46.843  42.622
 3970DG     SC425797  54.822  46.998  42.807
 3971DA     BB125798  54.448  47.628  42.655
 3971DA     BB225799  54.484  47.506  42.312
 3971DA     BB325800  54.337  47.358  42.269
 3971DA     SC125801  54.515  47.120  42.360
 3971DA     SC225802  54.634  46.927  42.255
 3971DA     SC325803  54.632  46.824  42.490
 3971DA     SC425804  54.503  47.072  42.513
 3972DT     BB125805  54.191  47.397  42.132
 3972DT     BB225806  54.320  47.186  41.869
 3972DT     BB325807  54.205  47.014  41.855
 3972DT     SC125808  54.313  46.915  42.072
 3972DT     SC225809  54.438  46.748  42.020
 3972DT     SC325810  54.334  46.822  42.318
 3973DA     BB125811  54.224  47.179  41.469
 3973DA     BB225812  54.310  46.824  41.444
 3973DA     BB325813  54.136  46.703  41.467
 3973DA     SC125814  54.166  46.676  41.776
 3973DA     SC225815  54.223  46.498  41.940
 3973DA     SC325816  54.109  46.649  42.113
 3973DA     SC425817  54.090  46.784  41.868
 3974DA     BB125818  54.249  46.586  41.183
 3974DA     BB225819  54.278  46.262  41.353
 3974DA     BB325820  54.086  46.174  41.380
 3974DA     SC125821  54.039  46.303  41.659
 3974DA     SC225822  54.025  46.229  41.897
 3974DA     SC325823  53.901  46.449  41.937
 3974DA     SC425824  53.962  46.444  41.664
 3975DG     BB125825  54.220  45.954  41.211
 3975DG     BB225826  54.171  45.760  41.513
 3975DG     BB325827  53.983  45.698  41.523
 3975DG     SC125828  53.883  45.945  41.674
 3975DG     SC225829  53.783  45.949  41.955
 3975DG     SC325830  53.736  46.210  41.822
 3975DG     SC425831  53.834  46.072  41.591
 3976DA     BB125832  54.132  45.391  41.578
 3976DA     BB225833  53.955  45.365  41.898
 3976DA     BB325834  53.748  45.326  41.866
 3976DA     SC125835  53.667  45.627  41.859
 3976DA     SC225836  53.540  45.787  42.002
 3976DA     SC325837  53.520  45.928  41.789
 3976DA     SC425838  53.664  45.699  41.716
 3977DT     BB125839  53.686  45.155  41.928
 3977DT     BB225840  53.497  45.272  42.212
 3977DT     BB325841  53.295  45.277  42.166
 3977DT     SC125842  53.326  45.492  42.019
 3977DT     SC225843  53.233  45.659  42.116
 3977DT     SC325844  53.330  45.650  41.807
 3978DA     BB125845  53.320  45.053  42.521
 3978DA     BB225846  53.053  45.301  42.565
 3978DA     BB325847  52.881  45.245  42.453
 3978DA     SC125848  52.966  45.400  42.197
 3978DA     SC225849  52.893  45.603  42.071
 3978DA     SC325850  53.022  45.501  41.874
 3978DA     SC425851  53.050  45.320  42.086
 3979DG     BB125852  52.710  45.224  42.722
 3979DG     BB225853  52.523  45.498  42.577
 3979DG     BB325854  52.381  45.427  42.457
 3979DG     SC125855  52.558  45.426  42.208
 3979DG     SC225856  52.523  45.599  41.967
 3979DG     SC325857  52.729  45.392  41.919
 3979DG     SC425858  52.646  45.296  42.176
 3980DA     BB125859  52.115  45.600  42.621
 3980DA     BB225860  52.041  45.788  42.315
 3980DA     BB325861  51.917  45.672  42.185
 3980DA     SC125862  52.156  45.542  42.034
 3980DA     SC225863  52.259  45.554  41.806
 3980DA     SC325864  52.364  45.327  41.865
 3980DA     SC425865  52.211  45.401  42.088
 3981DC     BB125866  51.697  45.717  42.129
 3981DC     BB225867  51.773  45.845  41.801
 3981DC     BB325868  51.700  45.716  41.656
 3981DC     SC125869  51.892  45.544  41.701
 3981DC     SC225870  52.026  45.540  41.532
 3981DC     SC325871  52.014  45.320  41.771
 3982DC     BB125872  51.488  45.885  41.580
 3982DC     BB225873  51.680  45.840  41.278
 3982DC     BB325874  51.607  45.680  41.170
 3982DC     SC125875  51.714  45.508  41.338
 3982DC     SC225876  51.876  45.405  41.241
 3982DC     SC325877  51.734  45.317  41.519
 3983DT     BB125878  51.511  45.854  40.986
 3983DT     BB225879  51.739  45.642  40.803
 3983DT     BB325880  51.639  45.474  40.735
 3983DT     SC125881  51.635  45.368  40.975
 3983DT     SC225882  51.767  45.198  40.980
 3983DT     SC325883  51.543  45.272  41.202
 3984DG     BB125884  51.823  45.676  40.435
 3984DG     BB225885  51.917  45.327  40.440
 3984DG     BB325886  51.769  45.216  40.367
 3984DG     SC125887  51.632  45.176  40.637
 3984DG     SC225888  51.607  44.917  40.784
 3984DG     SC325889  51.445  45.128  40.914
 3984DG     SC425890  51.524  45.283  40.686
 3985DC     BB125891  51.824  45.112  40.206
 3985DC     BB225892  51.840  44.774  40.332
 3985DC     BB325893  51.664  44.674  40.288
 3985DC     SC125894  51.534  44.805  40.476
 3985DC     SC225895  51.485  44.669  40.636
 3985DC     SC325896  51.360  44.965  40.591
 3986DC     BB125897  51.811  44.537  40.116
 3986DC     BB225898  51.658  44.287  40.327
 3986DC     BB325899  51.467  44.245  40.260
 3986DC     SC125900  51.375  44.472  40.355
 3986DC     SC225901  51.245  44.432  40.522
 3986DC     SC325902  51.268  44.713  40.362
 3987DT     BB125903  51.555  44.005  40.170
 3987DT     BB225904  51.275  43.923  40.383
 3987DT     BB325905  51.099  43.933  40.275
 3987DT     SC125906  51.103  44.195  40.277
 3987DT     SC225907  50.944  44.268  40.402
 3987DT     SC325908  51.115  44.444  40.190
 3988DT     BB125909  51.068  43.655  40.259
 3988DT     BB225910  50.754  43.766  40.397
 3988DT     BB325911  50.620  43.807  40.245
 3988DT     SC125912  50.744  44.030  40.185
 3988DT     SC225913  50.620  44.197  40.239
 3988DT     SC325914  50.881  44.208  40.047
 3989DT     BB125915  50.459  43.573  40.276
 3989DT     BB225916  50.219  43.841  40.297
 3989DT     BB325917  50.141  43.881  40.109
 3989DT     SC125918  50.362  44.001  40.034
 3989DT     SC225919  50.326  44.212  40.014
 3989DT     SC325920  50.584  44.052  39.901
 3990DA     BB125921  49.786  43.810  40.325
 3990DA     BB225922  49.736  44.124  40.143
 3990DA     BB325923  49.689  44.085  39.938
 3990DA     SC125924  49.985  44.090  39.843
 3990DA     SC225925  50.132  44.237  39.705
 3990DA     SC325926  50.283  44.031  39.683
 3990DA     SC425927  50.065  43.951  39.840
 3991DA     BB125928  49.410  44.265  39.976
 3991DA     BB225929  49.541  44.499  39.726
 3991DA     BB325930  49.502  44.427  39.529
 3991DA     SC125931  49.771  44.271  39.507
 3991DA     SC225932  49.984  44.290  39.379
 3991DA     SC325933  50.016  44.041  39.436
 3991DA     SC425934  49.771  44.117  39.551
 3992DA     BB125935  49.366  44.723  39.498
 3992DA     BB225936  49.618  44.791  39.241
 3992DA     BB325937  49.566  44.692  39.059
 3992DA     SC125938  49.723  44.432  39.126
 3992DA     SC225939  49.927  44.314  39.047
 3992DA     SC325940  49.825  44.106  39.158
 3992DA     SC425941  49.642  44.314  39.200
 3993DT     BB125942  49.521  44.807  38.901
 3993DT     BB225943  49.830  44.755  38.722
 3993DT     BB325944  49.798  44.626  38.563
 3993DT     SC125945  49.784  44.419  38.724
 3993DT     SC225946  49.957  44.295  38.696
 3993DT     SC325947  49.686  44.210  38.852
 3994DG     BB125948  49.952  44.974  38.417
 3994DG     BB225949  50.144  44.687  38.308
 3994DG     BB325950  50.048  44.593  38.161
 3994DG     SC125951  49.891  44.408  38.347
 3994DG     SC225952  49.923  44.112  38.368
 3994DG     SC325953  49.688  44.204  38.523
 3994DG     SC425954  49.750  44.457  38.404
 3995DT     BB125955  50.142  44.579  37.967
 3995DT     BB225956  50.244  44.233  37.961
 3995DT     BB325957  50.113  44.123  37.845
 3995DT     SC125958  49.929  44.130  38.032
 3995DT     SC225959  49.904  43.934  38.116
 3995DT     SC325960  49.701  44.183  38.154
 3996DA     BB125961  50.502  44.042  37.712
 3996DA     BB225962  50.331  43.722  37.762
 3996DA     BB325963  50.187  43.690  37.607
 3996DA     SC125964  49.954  43.825  37.764
 3996DA     SC225965  49.742  43.756  37.875
 3996DA     SC325966  49.673  44.002  37.853
 3996DA     SC425967  49.929  43.982  37.739
 3997DG     BB125968  50.361  43.441  37.553
 3997DG     BB225969  50.059  43.267  37.652
 3997DG     BB325970  49.933  43.258  37.498
 3997DG     SC125971  49.794  43.522  37.565
 3997DG     SC225972  49.511  43.553  37.656
 3997DG     SC325973  49.633  43.817  37.598
 3997DG     SC425974  49.853  43.658  37.505
 3998DA     BB125975  49.926  42.922  37.573
 3998DA     BB225976  49.564  42.945  37.630
 3998DA     BB325977  49.461  42.961  37.444
 3998DA     SC125978  49.468  43.272  37.439
 3998DA     SC225979  49.306  43.461  37.462
 3998DA     SC325980  49.486  43.602  37.345
 3998DA     SC425981  49.591  43.343  37.364
 3999DA     BB125982  49.311  42.714  37.593
 3999DA     BB225983  49.006  42.916  37.572
 3999DA     BB325984  48.937  42.925  37.370
 3999DA     SC125985  49.098  43.182  37.300
 3999DA     SC225986  49.051  43.421  37.249
 3999DA     SC325987  49.284  43.423  37.141
 3999DA     SC425988  49.245  43.162  37.236
 4000DT     BB125989  48.774  42.844  37.354
 4000DT     BB225990  48.577  43.144  37.310
 4000DT     BB325991  48.540  43.175  37.109
 4000DT     SC125992  48.786  43.256  37.068
 4000DT     SC225993  48.786  43.467  37.025
 4000DT     SC325994  49.032  43.262  36.974
 4001DA     BB125995  48.186  43.205  37.335
 4001DA     BB225996  48.201  43.490  37.105
 4001DA     BB325997  48.174  43.425  36.904
 4001DA     SC125998  48.477  43.381  36.850
 4001DA     SC225999  48.657  43.486  36.714
 4001DA     SC326000  48.780  43.263  36.742
 4001DA     SC426001  48.536  43.234  36.877
 4002DT     BB126002  48.014  43.489  36.823
 4002DT     BB226003  48.166  43.723  36.594
 4002DT     BB326004  48.178  43.640  36.405
 4002DT     SC126005  48.378  43.485  36.478
 4002DT     SC226006  48.558  43.551  36.380
 4002DT     SC326007  48.516  43.267  36.531
 4003DC     BB126008  47.979  43.802  36.318
 4003DC     BB226009  48.250  43.864  36.089
 4003DC     BB326010  48.246  43.726  35.935
 4003DC     SC126011  48.338  43.537  36.091
 4003DC     SC226012  48.539  43.486  36.031
 4003DC     SC326013  48.350  43.312  36.229
 4004DT     BB126014  48.153  43.911  35.752
 4004DT     BB226015  48.452  43.779  35.598
 4004DT     BB326016  48.406  43.611  35.486
 4004DT     SC126017  48.377  43.465  35.702
 4004DT     SC226018  48.537  43.322  35.714
 4004DT     SC326019  48.263  43.314  35.886
 4005DA     BB126020  48.612  43.861  35.218
 4005DA     BB226021  48.762  43.527  35.195
 4005DA     BB326022  48.634  43.396  35.086
 4005DA     SC126023  48.481  43.296  35.337
 4005DA     SC226024  48.461  43.086  35.471
 4005DA     SC326025  48.242  43.186  35.558
 4005DA     SC426026  48.346  43.375  35.379
 4006DG     BB126027  48.866  43.364  34.875
 4006DG     BB226028  48.864  43.020  34.988
 4006DG     BB326029  48.727  42.917  34.888
 4006DG     SC126030  48.502  42.976  35.087
 4006DG     SC226031  48.366  42.776  35.263
 4006DG     SC326032  48.227  43.037  35.273
 4006DG     SC426033  48.413  43.108  35.067
 4007DG     BB126034  48.954  42.704  34.771
 4007DG     BB226035  48.779  42.448  34.957
 4007DG     BB326036  48.629  42.376  34.848
 4007DG     SC126037  48.424  42.579  34.950
 4007DG     SC226038  48.186  42.519  35.119
 4007DG     SC326039  48.179  42.799  35.025
 4007DG     SC426040  48.409  42.719  34.873
 4008DA     BB126041  48.754  42.055  34.904
 4008DA     BB226042  48.441  41.959  35.069
 4008DA     BB326043  48.290  41.919  34.924
 4008DA     SC126044  48.183  42.212  34.919
 4008DA     SC226045  47.979  42.335  34.991
 4008DA     SC326046  48.054  42.515  34.825
 4008DA     SC426047  48.246  42.311  34.809
 4009DT     BB126048  48.214  41.725  34.900
 4009DT     BB226049  47.898  41.784  35.063
 4009DT     BB326050  47.746  41.791  34.922
 4009DT     SC126051  47.820  42.030  34.843
 4009DT     SC226052  47.672  42.174  34.902
 4009DT     SC326053  47.909  42.224  34.687
 4010DT     BB126054  47.649  41.546  35.000
 4010DT     BB226055  47.369  41.770  35.041
 4010DT     BB326056  47.262  41.783  34.864
 4010DT     SC126057  47.446  41.933  34.753
 4010DT     SC226058  47.370  42.132  34.728
 4010DT     SC326059  47.636  42.011  34.588
 4011DT     BB126060  47.058  41.638  34.973
 4011DT     BB226061  46.904  41.948  34.872
 4011DT     BB326062  46.842  41.935  34.675
 4011DT     SC126063  47.089  41.956  34.587
 4011DT     SC226064  47.114  42.146  34.490
 4011DT     SC326065  47.317  41.894  34.470
 4012DT     BB126066  46.592  41.933  34.768
 4012DT     BB226067  46.609  42.219  34.548
 4012DT     BB326068  46.576  42.159  34.352
 4012DT     SC126069  46.816  42.054  34.336
 4012DT     SC226070  46.937  42.172  34.203
 4012DT     SC326071  47.007  41.874  34.309
 4013DT     BB126072  46.346  42.287  34.374
 4013DT     BB226073  46.517  42.444  34.098
 4013DT     BB326074  46.487  42.335  33.925
 4013DT     SC126075  46.656  42.150  34.005
 4013DT     SC226076  46.833  42.157  33.883
 4013DT     SC326077  46.748  41.915  34.082
 4014DT     BB126078  46.340  42.539  33.851
 4014DT     BB226079  46.594  42.508  33.597
 4014DT     BB326080  46.540  42.362  33.461
 4014DT     SC126081  46.598  42.170  33.631
 4014DT     SC226082  46.772  42.065  33.563
 4014DT     SC326083  46.566  41.964  33.792
 4015DA     BB126084  46.660  42.717  33.271
 4015DA     BB226085  46.833  42.435  33.112
 4015DA     BB326086  46.695  42.316  33.002
 4015DA     SC126087  46.630  42.127  33.240
 4015DA     SC226088  46.672  41.889  33.304
 4015DA     SC326089  46.475  41.920  33.466
 4015DA     SC426090  46.505  42.165  33.333
 4016DG     BB126091  46.900  42.401  32.788
 4016DG     BB226092  46.956  42.044  32.774
 4016DG     BB326093  46.808  41.955  32.676
 4016DG     SC126094  46.636  41.911  32.925
 4016DG     SC226095  46.567  41.647  33.046
 4016DG     SC326096  46.413  41.864  33.174
 4016DG     SC426097  46.534  42.026  32.970
 4017DC     BB126098  46.861  41.854  32.504
 4017DC     BB226099  46.824  41.509  32.602
 4017DC     BB326100  46.641  41.437  32.538
 4017DC     SC126101  46.514  41.568  32.727
 4017DC     SC226102  46.436  41.429  32.871
 4017DC     SC326103  46.352  41.741  32.843
 4018DG     BB126104  46.930  41.196  32.379
 4018DG     BB226105  46.674  41.003  32.545
 4018DG     BB326106  46.510  40.995  32.431
 4018DG     SC126107  46.386  41.248  32.549
 4018DG     SC226108  46.137  41.260  32.715
 4018DG     SC326109  46.229  41.532  32.642
 4018DG     SC426110  46.421  41.390  32.484
 4019DA     BB126111  46.512  40.644  32.458
 4019DA     BB226112  46.176  40.651  32.605
 4019DA     BB326113  46.029  40.684  32.454
 4019DA     SC126114  46.035  40.994  32.483
 4019DA     SC226115  45.885  41.175  32.567
 4019DA     SC326116  46.029  41.333  32.425
 4019DA     SC426117  46.136  41.076  32.388
 4020DC     BB126118  45.878  40.535  32.385
 4020DC     BB226119  45.592  40.686  32.543
 4020DC     BB326120  45.468  40.771  32.400
 4020DC     SC126121  45.634  40.972  32.365
 4020DC     SC226122  45.544  41.151  32.442
 4020DC     SC326123  45.803  41.136  32.248
 4021DG     BB126124  45.206  40.493  32.557
 4021DG     BB226125  45.057  40.822  32.558
 4021DG     BB326126  44.977  40.861  32.380
 4021DG     SC126127  45.233  40.985  32.266
 4021DG     SC226128  45.270  41.272  32.191
 4021DG     SC326129  45.501  41.109  32.102
 4021DG     SC426130  45.340  40.890  32.194
 4022DA     BB126131  44.655  40.936  32.508
 4022DA     BB226132  44.681  41.281  32.388
 4022DA     BB326133  44.624  41.292  32.182
 4022DA     SC126134  44.912  41.246  32.075
 4022DA     SC226135  45.088  41.378  31.957
 4022DA     SC326136  45.185  41.150  31.891
 4022DA     SC426137  44.956  41.095  32.042
 4023DT     BB126138  44.445  41.398  32.115
 4023DT     BB226139  44.620  41.687  31.988
 4023DT     BB326140  44.610  41.691  31.782
 4023DT     SC126141  44.786  41.498  31.762
 4023DT     SC226142  44.969  41.576  31.680
 4023DT     SC326143  44.891  41.263  31.705
 4024DG     BB126144  44.455  42.038  31.925
 4024DG     BB226145  44.718  42.099  31.685
 4024DG     BB326146  44.648  42.075  31.500
 4024DG     SC126147  44.717  41.776  31.488
 4024DG     SC226148  44.921  41.651  31.311
 4024DG     SC326149  44.760  41.444  31.448
 4024DG     SC426150  44.609  41.670  31.540
 4025DT     BB126151  44.658  42.241  31.378
 4025DT     BB226152  44.930  42.157  31.157
 4025DT     BB326153  44.856  42.088  30.976
 4025DT     SC126154  44.788  41.858  31.082
 4025DT     SC226155  44.916  41.703  31.004
 4025DT     SC326156  44.638  41.658  31.166
 4026DA     BB126157  45.148  42.384  30.915
 4026DA     BB226158  45.221  42.101  30.693
 4026DA     BB326159  45.076  42.090  30.537
 4026DA     SC126160  44.886  41.901  30.695
 4026DA     SC226161  44.810  41.663  30.684
 4026DA     SC326162  44.612  41.741  30.827
 4026DA     SC426163  44.769  41.969  30.783
 4027DT     BB126164  45.141  42.124  30.355
 4027DT     BB226165  45.122  41.785  30.232
 4027DT     BB326166  44.954  41.763  30.113
 4027DT     SC126167  44.796  41.762  30.322
 4027DT     SC226168  44.713  41.565  30.349
 4027DT     SC326169  44.607  41.836  30.491
 4028DT     BB126170  45.104  41.756  29.881
 4028DT     BB226171  44.910  41.452  29.868
 4028DT     BB326172  44.729  41.488  29.776
 4028DT     SC126173  44.636  41.611  29.988
 4028DT     SC226174  44.482  41.492  30.079
 4028DT     SC326175  44.542  41.804  30.142
 4029DA     BB126176  44.884  41.167  29.552
 4029DA     BB226177  44.538  41.081  29.638
 4029DA     BB326178  44.402  41.188  29.515
 4029DA     SC126179  44.377  41.429  29.709
 4029DA     SC226180  44.205  41.528  29.860
 4029DA     SC326181  44.345  41.743  29.846
 4029DA     SC426182  44.477  41.553  29.687
 4030DG     BB126183  44.290  40.915  29.394
 4030DG     BB226184  43.984  41.013  29.560
 4030DG     BB326185  43.875  41.127  29.439
 4030DG     SC126186  44.001  41.390  29.532
 4030DG     SC226187  43.863  41.608  29.683
 4030DG     SC326188  44.132  41.694  29.596
 4030DG     SC426189  44.133  41.443  29.459
 4031DT     BB126190  43.659  41.072  29.354
 4031DT     BB226191  43.451  41.280  29.562
 4031DT     BB326192  43.373  41.436  29.451
 4031DT     SC126193  43.604  41.561  29.448
 4031DT     SC226194  43.591  41.738  29.569
 4031DT     SC326195  43.826  41.670  29.358
 4032DC     BB126196  43.132  41.317  29.467
 4032DC     BB226197  43.085  41.644  29.614
 4032DC     BB326198  43.043  41.782  29.466
 4032DC     SC126199  43.294  41.785  29.387
 4032DC     SC226200  43.382  41.975  29.437
 4032DC     SC326201  43.506  41.755  29.232
 4033DT     BB126202  42.794  41.790  29.561
 4033DT     BB226203  42.911  42.130  29.581
 4033DT     BB326204  42.884  42.225  29.399
 4033DT     SC126205  43.085  42.096  29.292
 4033DT     SC226206  43.247  42.233  29.255
 4033DT     SC326207  43.220  41.934  29.133
 4034DA     BB126208  42.716  42.467  29.698
 4034DA     BB226209  42.930  42.678  29.488
 4034DA     BB326210  42.838  42.711  29.298
 4034DA     SC126211  42.970  42.464  29.163
 4034DA     SC226212  43.144  42.419  28.990
 4034DA     SC326213  43.036  42.187  28.972
 4034DA     SC426214  42.889  42.326  29.166
 4035DA     BB126215  42.889  43.025  29.381
 4035DA     BB226216  43.102  43.049  29.083
 4035DA     BB326217  42.982  43.060  28.907
 4035DA     SC126218  42.976  42.752  28.863
 4035DA     SC226219  43.070  42.586  28.702
 4035DA     SC326220  42.885  42.430  28.786
 4035DA     SC426221  42.854  42.670  28.928
 4036DA     BB126222  43.161  43.330  28.856
 4036DA     BB226223  43.286  43.167  28.552
 4036DA     BB326224  43.139  43.174  28.398
 4036DA     SC126225  43.009  42.902  28.476
 4036DA     SC226226  42.991  42.672  28.382
 4036DA     SC326227  42.789  42.646  28.537
 4036DA     SC426228  42.885  42.906  28.579
 4037DA     BB126229  43.394  43.304  28.243
 4037DA     BB226230  43.373  43.019  28.014
 4037DA     BB326231  43.208  43.043  27.880
 4037DA     SC126232  43.005  42.895  28.065
 4037DA     SC226233  42.879  42.680  28.065
 4037DA     SC326234  42.725  42.794  28.235
 4037DA     SC426235  42.920  42.984  28.168
 4038DG     BB126236  43.447  43.022  27.692
 4038DG     BB226237  43.278  42.717  27.596
 4038DG     BB326238  43.126  42.758  27.475
 4038DG     SC126239  42.923  42.791  27.702
 4038DG     SC226240  42.690  42.612  27.756
 4038DG     SC326241  42.679  42.853  27.927
 4038DG     SC426242  42.905  42.934  27.770
 4039DA     BB126243  43.294  42.504  27.322
 4039DA     BB226244  42.983  42.309  27.327
 4039DA     BB326245  42.839  42.397  27.196
 4039DA     SC126246  42.715  42.578  27.416
 4039DA     SC226247  42.501  42.594  27.543
 4039DA     SC326248  42.569  42.837  27.588
 4039DA     SC426249  42.774  42.727  27.431
 4040DG     BB126250  42.891  42.100  27.135
 4040DG     BB226251  42.538  42.082  27.212
 4040DG     BB326252  42.433  42.174  27.071
 4040DG     SC126253  42.442  42.447  27.210
 4040DG     SC226254  42.209  42.593  27.327
 4040DG     SC326255  42.449  42.765  27.324
 4040DG     SC426256  42.565  42.546  27.179
 4041DC     BB126257  42.315  42.048  27.003
 4041DC     BB226258  41.990  42.167  27.105
 4041DC     BB326259  41.916  42.300  26.964
 4041DC     SC126260  42.079  42.489  27.045
 4041DC     SC226261  41.967  42.644  27.142
 4041DC     SC326262  42.274  42.667  27.041
 4042DA     BB126263  41.618  42.011  27.047
 4042DA     BB226264  41.460  42.342  27.036
 4042DA     BB326265  41.461  42.418  26.837
 4042DA     SC126266  41.734  42.563  26.867
 4042DA     SC226267  41.818  42.797  26.878
 4042DA     SC326268  42.045  42.698  26.813
 4042DA     SC426269  41.866  42.482  26.824
 4043DG     BB126270  41.142  42.423  26.839
 4043DG     BB226271  41.186  42.779  26.791
 4043DG     BB326272  41.213  42.818  26.598
 4043DG     SC126273  41.517  42.790  26.609
 4043DG     SC226274  41.715  43.009  26.569
 4043DG     SC326275  41.850  42.746  26.580
 4043DG     SC426276  41.582  42.645  26.585
 4044DT     BB126277  41.066  42.944  26.443
 4044DT     BB226278  41.252  43.251  26.407
 4044DT     BB326279  41.337  43.260  26.218
 4044DT     SC126280  41.520  43.084  26.282
 4044DT     SC226281  41.712  43.181  26.292
 4044DT     SC326282  41.661  42.861  26.283
 4045DT     BB126283  41.157  43.452  26.108
 4045DT     BB226284  41.482  43.601  26.056
 4045DT     BB326285  41.555  43.546  25.870
 4045DT     SC126286  41.611  43.304  25.955
 4045DT     SC226287  41.825  43.280  25.965
 4045DT     SC326288  41.605  43.042  25.976
 4046DC     BB126289  41.512  43.797  25.754
 4046DC     BB226290  41.865  43.738  25.705
 4046DC     BB326291  41.897  43.640  25.526
 4046DC     SC126292  41.809  43.414  25.624
 4046DC     SC226293  41.973  43.276  25.643
 4046DC     SC326294  41.658  43.200  25.660
 4047DT     BB126295  42.001  43.866  25.408
 4047DT     BB226296  42.261  43.619  25.373
 4047DT     BB326297  42.234  43.512  25.199
 4047DT     SC126298  42.035  43.377  25.304
 4047DT     SC226299  42.095  43.173  25.334
 4047DT     SC326300  41.791  43.285  25.343
 4048DC     BB126301  42.446  43.636  25.072
 4048DC     BB226302  42.526  43.284  25.054
 4048DC     BB326303  42.444  43.201  24.883
 4048DC     SC126304  42.203  43.205  24.988
 4048DC     SC226305  42.140  43.004  25.027
 4048DC     SC326306  41.949  43.266  25.023
 4049DT     BB126307  42.689  43.180  24.755
 4049DT     BB226308  42.561  42.843  24.756
 4049DT     BB326309  42.446  42.811  24.587
 4049DT     SC126310  42.248  42.953  24.684
 4049DT     SC226311  42.083  42.823  24.732
 4049DT     SC326312  42.071  43.146  24.710
 4050DT     BB126313  42.637  42.649  24.458
 4050DT     BB226314  42.343  42.441  24.478
 4050DT     BB326315  42.227  42.466  24.308
 4050DT     SC126316  42.143  42.700  24.392
 4050DT     SC226317  41.934  42.687  24.443
 4050DT     SC326318  42.102  42.961  24.401
 4051DT     BB126319  42.294  42.217  24.201
 4051DT     BB226320  41.935  42.208  24.232
 4051DT     BB326321  41.847  42.278  24.059
 4051DT     SC126322  41.908  42.526  24.119
 4051DT     SC226323  41.729  42.635  24.167
 4051DT     SC326324  42.018  42.766  24.104
 4052DT     BB126325  41.769  42.028  24.012
 4052DT     BB226326  41.465  42.220  24.033
 4052DT     BB326327  41.423  42.306  23.849
 4052DT     SC126328  41.612  42.485  23.882
 4052DT     SC226329  41.523  42.679  23.911
 4052DT     SC326330  41.834  42.622  23.843
 4053DG     BB126331  41.113  42.080  23.986
 4053DG     BB226332  41.011  42.418  23.907
 4053DG     BB326333  41.002  42.442  23.709
 4053DG     SC126334  41.294  42.531  23.682
 4053DG     SC226335  41.388  42.802  23.600
 4053DG     SC326336  41.614  42.612  23.613
 4053DG     SC426337  41.407  42.420  23.661
 4054DT     BB126338  40.820  42.494  23.645
 4054DT     BB226339  40.866  42.842  23.561
 4054DT     BB326340  40.903  42.861  23.359
 4054DT     SC126341  41.148  42.771  23.387
 4054DT     SC226342  41.287  42.932  23.353
 4054DT     SC326343  41.360  42.616  23.362
 4055DT     BB126344  40.662  42.969  23.346
 4055DT     BB226345  40.885  43.219  23.212
 4055DT     BB326346  40.925  43.179  23.013
 4055DT     SC126347  41.085  42.981  23.078
 4055DT     SC226348  41.288  43.035  23.031
 4055DT     SC326349  41.182  42.736  23.098
 4056DT     BB126350  40.774  43.391  22.950
 4056DT     BB226351  41.097  43.457  22.802
 4056DT     BB326352  41.110  43.365  22.617
 4056DT     SC126353  41.141  43.129  22.729
 4056DT     SC226354  41.342  43.060  22.696
 4056DT     SC326355  41.093  42.879  22.798
 4057DA     BB126356  41.217  43.768  22.571
 4057DA     BB226357  41.477  43.562  22.415
 4057DA     BB326358  41.404  43.476  22.234
 4057DA     SC126359  41.298  43.217  22.371
 4057DA     SC226360  41.357  42.975  22.378
 4057DA     SC326361  41.116  42.940  22.460
 4057DA     SC426362  41.145  43.216  22.420
 4058DA     BB126363  41.681  43.621  22.142
 4058DA     BB226364  41.796  43.285  22.050
 4058DA     BB326365  41.696  43.218  21.875
 4058DA     SC126366  41.463  43.082  22.031
 4058DA     SC226367  41.383  42.851  22.078
 4058DA     SC326368  41.158  42.962  22.132
 4058DA     SC426369  41.331  43.170  22.059
 4059DA     BB126370  42.015  43.179  21.824
 4059DA     BB226371  41.936  42.823  21.787
 4059DA     BB326372  41.826  42.790  21.608
 4059DA     SC126373  41.548  42.824  21.744
 4059DA     SC226374  41.353  42.681  21.805
 4059DA     SC326375  41.221  42.900  21.815
 4059DA     SC426376  41.483  42.971  21.744
 4060DA     BB126377  42.078  42.581  21.627
 4060DA     BB226378  41.822  42.320  21.607
 4060DA     BB326379  41.725  42.325  21.417
 4060DA     SC126380  41.501  42.520  21.509
 4060DA     SC226381  41.256  42.512  21.552
 4060DA     SC326382  41.263  42.767  21.525
 4060DA     SC426383  41.526  42.677  21.487
 4061DA     BB126384  41.819  42.016  21.487
 4061DA     BB226385  41.465  41.932  21.439
 4061DA     BB326386  41.407  41.967  21.237
 4061DA     SC126387  41.318  42.260  21.287
 4061DA     SC226388  41.105  42.390  21.294
 4061DA     SC326389  41.254  42.596  21.259
 4061DA     SC426390  41.427  42.376  21.264
 4062DA     BB126391  41.305  41.656  21.280
 4062DA     BB226392  40.972  41.774  21.183
 4062DA     BB326393  40.967  41.821  20.975
 4062DA     SC126394  41.048  42.118  21.015
 4062DA     SC226395  40.941  42.343  20.994
 4062DA     SC326396  41.181  42.433  20.982
 4062DA     SC426397  41.204  42.155  21.008
 4063DT     BB126398  40.856  41.706  20.833
 4063DT     BB226399  40.597  41.948  20.764
 4063DT     BB326400  40.627  42.032  20.577
 4063DT     SC126401  40.826  42.178  20.667
 4063DT     SC226402  40.768  42.385  20.669
 4063DT     SC326403  41.071  42.273  20.696
 4064DA     BB126404  40.233  41.888  20.518
 4064DA     BB226405  40.235  42.235  20.399
 4064DA     BB326406  40.323  42.246  20.205
 4064DA     SC126407  40.611  42.293  20.311
 4064DA     SC226408  40.778  42.479  20.316
 4064DA     SC326409  40.952  42.294  20.355
 4064DA     SC426410  40.705  42.164  20.332
 4065DA     BB126411  40.047  42.392  20.063
 4065DA     BB226412  40.250  42.689  19.994
 4065DA     BB326413  40.355  42.666  19.809
 4065DA     SC126414  40.607  42.539  19.941
 4065DA     SC226415  40.844  42.602  19.983
 4065DA     SC326416  40.886  42.350  20.008
 4065DA     SC426417  40.613  42.379  19.951
 4066DA     BB126418  40.217  42.948  19.689
 4066DA     BB226419  40.553  43.095  19.681
 4066DA     BB326420  40.653  43.042  19.500
 4066DA     SC126421  40.781  42.784  19.618
 4066DA     SC226422  41.008  42.703  19.682
 4066DA     SC326423  40.908  42.468  19.664
 4066DA     SC426424  40.700  42.646  19.600
 4067DT     BB126425  40.705  43.189  19.350
 4067DT     BB226426  41.055  43.205  19.438
 4067DT     BB326427  41.169  43.120  19.288
 4067DT     SC126428  41.098  42.878  19.360
 4067DT     SC226429  41.267  42.776  19.445
 4067DT     SC326430  40.990  42.637  19.348
 4068DG     BB126431  41.286  43.501  19.364
 4068DG     BB226432  41.560  43.267  19.394
 4068DG     BB326433  41.624  43.214  19.214
 4068DG     SC126434  41.433  42.976  19.188
 4068DG     SC226435  41.512  42.688  19.180
 4068DG     SC326436  41.225  42.720  19.118
 4068DG     SC426437  41.288  43.000  19.126
 4069DA     BB126438  41.906  43.294  19.387
 4069DA     BB226439  42.033  42.957  19.319
 4069DA     BB326440  42.078  42.935  19.112
 4069DA     SC126441  41.794  42.831  19.036
 4069DA     SC226442  41.690  42.616  18.962
 4069DA     SC326443  41.498  42.763  18.877
 4069DA     SC426444  41.685  42.939  18.989
 4070DA     BB126445  42.322  42.829  19.304
 4070DA     BB226446  42.284  42.513  19.123
 4070DA     BB326447  42.332  42.538  18.917
 4070DA     SC126448  42.041  42.608  18.833
 4070DA     SC226449  41.857  42.503  18.701
 4070DA     SC326450  41.763  42.740  18.682
 4070DA     SC426451  42.000  42.763  18.830
 4071DA     BB126452  42.500  42.276  19.024
 4071DA     BB226453  42.340  42.095  18.748
 4071DA     BB326454  42.408  42.169  18.560
 4071DA     SC126455  42.184  42.383  18.535
 4071DA     SC226456  41.982  42.423  18.395
 4071DA     SC326457  42.003  42.668  18.470
 4071DA     SC426458  42.215  42.530  18.592
 4072DA     BB126459  42.469  41.847  18.511
 4072DA     BB226460  42.259  41.871  18.211
 4072DA     BB326461  42.360  41.980  18.059
 4072DA     SC126462  42.246  42.256  18.146
 4072DA     SC226463  42.084  42.425  18.059
 4072DA     SC326464  42.202  42.589  18.217
 4072DA     SC426465  42.332  42.343  18.250
 4073DA     BB126466  42.321  41.720  17.846
 4073DA     BB226467  42.140  41.943  17.618
 4073DA     BB326468  42.277  42.063  17.507
 4073DA     SC126469  42.278  42.296  17.714
 4073DA     SC226470  42.197  42.531  17.728
 4073DA     SC326471  42.368  42.558  17.918
 4073DA     SC426472  42.391  42.293  17.828
 4074DA     BB126473  42.165  41.961  17.197
 4074DA     BB226474  42.073  42.307  17.119
 4074DA     BB326475  42.243  42.414  17.045
 4074DA     SC126476  42.334  42.513  17.326
 4074DA     SC226477  42.344  42.729  17.451
 4074DA     SC326478  42.517  42.611  17.599
 4074DA     SC426479  42.440  42.423  17.406
 4075DT     BB126480  42.305  42.506  16.808
 4075DT     BB226481  42.243  42.853  16.887
 4075DT     BB326482  42.419  42.961  16.874
 4075DT     SC126483  42.506  42.860  17.101
 4075DT     SC226484  42.508  43.014  17.251
 4075DT     SC326485  42.655  42.726  17.272
 4076DT     BB126486  42.392  43.107  16.611
 4076DT     BB226487  42.447  43.374  16.848
 4076DT     BB326488  42.646  43.429  16.848
 4076DT     SC126489  42.713  43.213  16.982
 4076DT     SC226490  42.773  43.268  17.181
 4076DT     SC326491  42.824  42.981  17.040
 4077DG     BB126492  42.476  43.783  16.729
 4077DG     BB226493  42.682  43.834  17.022
 4077DG     BB326494  42.871  43.861  16.968
 4077DG     SC126495  42.943  43.564  16.977
 4077DG     SC226496  43.131  43.435  17.170
 4077DG     SC326497  43.051  43.245  16.958
 4077DG     SC426498  42.921  43.475  16.846
 4078DT     BB126499  42.993  44.060  17.008
 4078DT     BB226500  43.190  43.953  17.290
 4078DT     BB326501  43.388  43.932  17.234
 4078DT     SC126502  43.337  43.709  17.107
 4078DT     SC226503  43.426  43.544  17.212
 4078DT     SC326504  43.313  43.536  16.909
 4079DT     BB126505  43.439  44.150  17.383
 4079DT     BB226506  43.640  43.887  17.528
 4079DT     BB326507  43.822  43.875  17.429
 4079DT     SC126508  43.710  43.760  17.222
 4079DT     SC226509  43.773  43.555  17.211
 4079DT     SC326510  43.627  43.721  16.974
 4080DA     BB126511  43.851  43.879  17.847
 4080DA     BB226512  44.052  43.601  17.717
 4080DA     BB326513  44.224  43.675  17.615
 4080DA     SC126514  44.083  43.687  17.338
 4080DA     SC226515  44.095  43.567  17.119
 4080DA     SC326516  43.980  43.774  17.022
 4080DA     SC426517  44.013  43.825  17.296
 4081DA     BB126518  44.309  43.444  17.828
 4081DA     BB226519  44.453  43.271  17.539
 4081DA     BB326520  44.619  43.381  17.462
 4081DA     SC126521  44.447  43.547  17.262
 4081DA     SC226522  44.416  43.563  17.016
 4081DA     SC326523  44.318  43.796  17.064
 4081DA     SC426524  44.392  43.689  17.313
 4082DT     BB126525  44.746  43.274  17.484
 4082DT     BB226526  44.805  43.197  17.136
 4082DT     BB326527  44.943  43.329  17.057
 4082DT     SC126528  44.765  43.522  17.049
 4082DT     SC226529  44.717  43.566  16.844
 4082DT     SC326530  44.646  43.752  17.099
 4083DA     BB126531  45.056  42.935  16.963
 4083DA     BB226532  45.089  43.139  16.661
 4083DA     BB326533  45.253  43.275  16.680
 4083DA     SC126534  45.080  43.504  16.801
 4083DA     SC226535  44.997  43.728  16.732
 4083DA     SC326536  44.965  43.771  16.983
 4083DA     SC426537  45.069  43.512  16.962
 4084DT     BB126538  45.416  43.251  16.563
 4084DT     BB226539  45.365  43.537  16.349
 4084DT     BB326540  45.495  43.689  16.401
 4084DT     SC126541  45.354  43.746  16.615
 4084DT     SC226542  45.259  43.936  16.589
 4084DT     SC326543  45.290  43.776  16.869
 4085DC     BB126544  45.659  43.651  16.180
 4085DC     BB226545  45.570  44.000  16.163
 4085DC     BB326546  45.707  44.114  16.269
 4085DC     SC126547  45.605  44.035  16.498
 4085DC     SC226548  45.506  44.201  16.592
 4085DC     SC326549  45.587  43.921  16.735
 4086DA     BB126550  45.701  44.293  15.889
 4086DA     BB226551  45.665  44.561  16.137
 4086DA     BB326552  45.853  44.602  16.230
 4086DA     SC126553  45.809  44.399  16.462
 4086DA     SC226554  45.769  44.405  16.708
 4086DA     SC326555  45.851  44.162  16.707
 4086DA     SC426556  45.865  44.249  16.441
 4087DT     BB126557  45.949  44.784  16.199
 4087DT     BB226558  45.880  44.925  16.524
 4087DT     BB326559  46.053  44.926  16.638
 4087DT     SC126560  46.037  44.667  16.679
 4087DT     SC226561  45.988  44.630  16.885
 4087DT     SC326562  46.098  44.411  16.673
 4088DT     BB126563  46.077  45.198  16.613
 4088DT     BB226564  46.073  45.143  16.969
 4088DT     BB326565  46.265  45.107  17.038
 4088DT     SC126566  46.264  44.865  16.938
 4088DT     SC226567  46.260  44.721  17.098
 4088DT     SC326568  46.331  44.658  16.788
 4089DT     BB126569  46.279  45.355  17.156
 4089DT     BB226570  46.351  45.126  17.425
 4089DT     BB326571  46.554  45.086  17.431
 4089DT     SC126572  46.537  44.930  17.220
 4089DT     SC226573  46.569  44.726  17.279
 4089DT     SC326574  46.574  44.839  16.976
 4090DA     BB126575  46.471  45.213  17.824
 4090DA     BB226576  46.665  44.903  17.850
 4090DA     BB326577  46.871  44.941  17.808
 4090DA     SC126578  46.844  44.884  17.503
 4090DA     SC226579  46.917  44.710  17.340
 4090DA     SC326580  46.875  44.889  17.161
 4090DA     SC426581  46.813  45.009  17.406
 4091DA     BB126582  46.956  44.811  18.107
 4091DA     BB226583  47.145  44.552  17.928
 4091DA     BB326584  47.336  44.626  17.871
 4091DA     SC126585  47.241  44.730  17.594
 4091DA     SC226586  47.273  44.671  17.354
 4091DA     SC326587  47.195  44.911  17.306
 4091DA     SC426588  47.192  44.883  17.585
 4092DT     BB126589  47.529  44.553  17.954
 4092DT     BB226590  47.623  44.358  17.666
 4092DT     BB326591  47.782  44.448  17.569
 4092DT     SC126592  47.626  44.635  17.470
 4092DT     SC226593  47.608  44.607  17.257
 4092DT     SC326594  47.524  44.873  17.422
 4093DT     BB126595  47.961  44.256  17.654
 4093DT     BB226596  47.982  44.245  17.294
 4093DT     BB326597  48.125  44.379  17.227
 4093DT     SC126598  47.966  44.583  17.274
 4093DT     SC226599  47.904  44.669  17.087
 4093DT     SC326600  47.874  44.806  17.379
 4094DC     BB126601  48.281  44.169  17.163
 4094DC     BB226602  48.234  44.349  16.854
 4094DC     BB326603  48.374  44.501  16.838
 4094DC     SC126604  48.246  44.647  17.015
 4094DC     SC226605  48.159  44.817  16.917
 4094DC     SC326606  48.196  44.780  17.236
 4095DC     BB126607  48.487  44.355  16.646
 4095DC     BB226608  48.409  44.671  16.491
 4095DC     BB326609  48.559  44.808  16.530
 4095DC     SC126610  48.478  44.839  16.777
 4095DC     SC226611  48.394  45.035  16.801
 4095DC     SC326612  48.479  44.835  17.041
 4096DT     BB126613  48.623  44.786  16.273
 4096DT     BB226614  48.557  45.137  16.322
 4096DT     BB326615  48.725  45.230  16.398
 4096DT     SC126616  48.686  45.125  16.636
 4096DT     SC226617  48.629  45.280  16.773
 4096DT     SC326618  48.727  44.982  16.853
 4097DA     BB126619  48.598  45.450  16.063
 4097DA     BB226620  48.654  45.685  16.339
 4097DA     BB326621  48.863  45.709  16.375
 4097DA     SC126622  48.877  45.479  16.584
 4097DA     SC226623  48.912  45.455  16.830
 4097DA     SC326624  48.975  45.212  16.777
 4097DA     SC426625  48.915  45.332  16.531
 4098DA     BB126626  48.790  46.027  16.336
 4098DA     BB226627  48.904  46.076  16.681
 4098DA     BB326628  49.117  46.072  16.690
 4098DA     SC126629  49.134  45.766  16.740
 4098DA     SC226630  49.196  45.613  16.927
 4098DA     SC326631  49.227  45.435  16.744
 4098DA     SC426632  49.149  45.670  16.612
 4099DG     BB126633  49.088  46.363  16.799
 4099DG     BB226634  49.225  46.214  17.099
 4099DG     BB326635  49.423  46.205  17.085
 4099DG     SC126636  49.426  45.928  16.955
 4099DG     SC226637  49.532  45.677  17.079
 4099DG     SC326638  49.466  45.634  16.794
 4099DG     SC426639  49.418  45.917  16.796
 4100DT     BB126640  49.547  46.314  17.228
 4100DT     BB226641  49.659  46.044  17.440
 4100DT     BB326642  49.856  45.996  17.396
 4100DT     SC126643  49.784  45.875  17.174
 4100DT     SC226644  49.814  45.663  17.195
 4100DT     SC326645  49.762  45.821  16.917
 4101DG     BB126646  49.814  46.087  17.789
 4101DG     BB226647  49.968  45.764  17.741
 4101DG     BB326648  50.158  45.787  17.685
 4101DG     SC126649  50.095  45.794  17.385
 4101DG     SC226650  50.175  45.588  17.185
 4101DG     SC326651  50.060  45.826  17.052
 4101DG     SC426652  50.060  45.934  17.317
 4102DT     BB126653  50.286  45.702  17.812
 4102DT     BB226654  50.397  45.412  17.628
 4102DT     BB326655  50.577  45.453  17.534
 4102DT     SC126656  50.458  45.600  17.352
 4102DT     SC226657  50.466  45.500  17.162
 4102DT     SC326658  50.390  45.811  17.209
 4103DA     BB126659  50.592  45.090  17.745
 4103DA     BB226660  50.731  45.035  17.410
 4103DA     BB326661  50.919  45.134  17.391
 4103DA     SC126662  50.797  45.399  17.284
 4103DA     SC226663  50.792  45.526  17.069
 4103DA     SC326664  50.730  45.729  17.215
 4103DA     SC426665  50.762  45.513  17.391
 4104DG     BB126666  51.005  44.843  17.333
 4104DG     BB226667  51.096  44.983  17.012
 4104DG     BB326668  51.269  45.080  17.027
 4104DG     SC126669  51.140  45.348  17.099
 4104DG     SC226670  51.141  45.594  16.930
 4104DG     SC326671  51.033  45.652  17.200
 4104DG     SC426672  51.111  45.381  17.253
 4105DT     BB126673  51.449  45.015  16.916
 4105DT     BB226674  51.480  45.270  16.662
 4105DT     BB326675  51.630  45.403  16.714
 4105DT     SC126676  51.479  45.515  16.897
 4105DT     SC226677  51.425  45.713  16.834
 4105DT     SC326678  51.393  45.594  17.133
 4106DT     BB126679  51.806  45.304  16.524
 4106DT     BB226680  51.790  45.657  16.450
 4106DT     BB326681  51.933  45.759  16.560
 4106DT     SC126682  51.792  45.734  16.780
 4106DT     SC226683  51.716  45.927  16.838
 4106DT     SC326684  51.724  45.662  17.025
 4107DT     BB126685  52.113  45.805  16.345
 4107DT     BB226686  52.052  46.136  16.476
 4107DT     BB326687  52.194  46.182  16.620
 4107DT     SC126688  52.079  46.024  16.795
 4107DT     SC226689  51.990  46.142  16.951
 4107DT     SC326690  52.044  45.823  16.963
 4108DT     BB126691  52.344  46.362  16.460
 4108DT     BB226692  52.255  46.558  16.750
 4108DT     BB326693  52.404  46.544  16.893
 4108DT     SC126694  52.329  46.301  16.957
 4108DT     SC226695  52.241  46.302  17.154
 4108DT     SC326696  52.337  46.039  16.991
 4109DC     BB126697  52.506  46.804  16.852
 4109DC     BB226698  52.419  46.799  17.202
 4109DC     BB326699  52.583  46.738  17.315
 4109DC     SC126700  52.552  46.489  17.239
 4109DC     SC226701  52.486  46.371  17.407
 4109DC     SC326702  52.602  46.255  17.128
 4110DT     BB126703  52.624  46.993  17.413
 4110DT     BB226704  52.577  46.790  17.707
 4110DT     BB326705  52.759  46.715  17.771
 4110DT     SC126706  52.763  46.540  17.575
 4110DT     SC226707  52.736  46.342  17.655
 4110DT     SC326708  52.840  46.413  17.357
 4111DG     BB126709  52.599  46.926  18.079
 4111DG     BB226710  52.686  46.590  18.180
 4111DG     BB326711  52.882  46.578  18.213
 4111DG     SC126712  52.949  46.500  17.924
 4111DG     SC226713  53.057  46.237  17.834
 4111DG     SC326714  53.061  46.433  17.613
 4111DG     SC426715  52.977  46.616  17.817
 4112DG     BB126716  52.789  46.477  18.507
 4112DG     BB226717  52.953  46.167  18.421
 4112DG     BB326718  53.150  46.185  18.445
 4112DG     SC126719  53.200  46.282  18.158
 4112DG     SC226720  53.349  46.133  17.947
 4112DG     SC326721  53.288  46.409  17.859
 4112DG     SC426722  53.192  46.438  18.127
 4113DT     BB126723  53.240  46.059  18.584
 4113DT     BB226724  53.412  45.823  18.372
 4113DT     BB326725  53.612  45.873  18.358
 4113DT     SC126726  53.559  46.074  18.198
 4113DT     SC226727  53.633  46.029  18.001
 4113DT     SC326728  53.540  46.321  18.108
 4114DA     BB126729  53.577  45.467  18.459
 4114DA     BB226730  53.815  45.496  18.181
 4114DA     BB326731  53.997  45.584  18.249
 4114DA     SC126732  53.908  45.876  18.187
 4114DA     SC226733  53.966  46.056  18.025
 4114DA     SC326734  53.858  46.215  18.195
 4114DA     SC426735  53.838  45.958  18.306
 4115DC     BB126736  54.154  45.469  18.242
 4115DC     BB226737  54.312  45.626  17.958
 4115DC     BB326738  54.467  45.748  18.022
 4115DC     SC126739  54.298  45.930  18.108
 4115DC     SC226740  54.311  46.104  17.982
 4115DC     SC326741  54.168  46.089  18.273
 4116DT     BB126742  54.640  45.569  17.921
 4116DT     BB226743  54.721  45.879  17.756
 4116DT     BB326744  54.851  45.990  17.873
 4116DT     SC126745  54.659  46.056  18.039
 4116DT     SC226746  54.616  46.266  18.019
 4116DT     SC326747  54.519  46.074  18.262
 4117DA     BB126748  55.002  45.962  17.483
 4117DA     BB226749  55.016  46.313  17.586
 4117DA     BB326750  55.168  46.341  17.733
 4117DA     SC126751  54.978  46.290  17.975
 4117DA     SC226752  54.876  46.421  18.160
 4117DA     SC326753  54.843  46.194  18.276
 4117DA     SC426754  54.968  46.139  18.031
 4118DA     BB126755  55.238  46.569  17.510
 4118DA     BB226756  55.192  46.814  17.778
 4118DA     BB326757  55.354  46.803  17.917
 4118DA     SC126758  55.214  46.594  18.100
 4118DA     SC226759  55.112  46.587  18.328
 4118DA     SC326760  55.144  46.332  18.312
 4118DA     SC426761  55.243  46.439  18.072
 4119DA     BB126762  55.347  47.122  17.842
 4119DA     BB226763  55.291  47.182  18.200
 4119DA     BB326764  55.469  47.141  18.310
 4119DA     SC126765  55.399  46.843  18.362
 4119DA     SC226766  55.334  46.699  18.555
 4119DA     SC326767  55.412  46.503  18.409
 4119DA     SC426768  55.454  46.734  18.256
 4120DT     BB126769  55.550  47.294  18.395
 4120DT     BB226770  55.465  47.211  18.736
 4120DT     BB326771  55.629  47.129  18.832
 4120DT     SC126772  55.600  46.902  18.703
 4120DT     SC226773  55.536  46.749  18.841
 4120DT     SC326774  55.652  46.699  18.542
 4121DA     BB126775  55.504  47.442  19.083
 4121DA     BB226776  55.558  47.146  19.294
 4121DA     BB326777  55.766  47.109  19.318
 4121DA     SC126778  55.787  46.922  19.071
 4121DA     SC226779  55.823  46.679  19.025
 4121DA     SC326780  55.891  46.755  18.789
 4121DA     SC426781  55.827  46.989  18.930
 4122DA     BB126782  55.700  47.119  19.643
 4122DA     BB226783  55.817  46.772  19.660
 4122DA     BB326784  56.030  46.765  19.653
 4122DA     SC126785  56.044  46.742  19.344
 4122DA     SC226786  56.106  46.570  19.174
 4122DA     SC326787  56.134  46.769  19.013
 4122DA     SC426788  56.057  46.879  19.259
 4123DT     BB126789  56.143  46.701  19.819
 4123DT     BB226790  56.231  46.378  19.686
 4123DT     BB326791  56.431  46.376  19.631
 4123DT     SC126792  56.381  46.520  19.417
 4123DT     SC226793  56.407  46.398  19.242
 4123DT     SC326794  56.385  46.722  19.247
 4124DC     BB126795  56.487  46.216  19.841
 4124DC     BB226796  56.597  46.030  19.552
 4124DC     BB326797  56.791  46.084  19.503
 4124DC     SC126798  56.709  46.313  19.403
 4124DC     SC226799  56.734  46.310  19.189
 4124DC     SC326800  56.679  46.573  19.371
 4125DG     BB126801  56.767  45.682  19.562
 4125DG     BB226802  56.914  45.763  19.242
 4125DG     BB326803  57.100  45.826  19.267
 4125DG     SC126804  57.023  46.121  19.298
 4125DG     SC226805  57.090  46.341  19.107
 4125DG     SC326806  56.972  46.449  19.356
 4125DG     SC426807  56.988  46.177  19.443
 4126DC     BB126808  57.240  45.713  19.173
 4126DC     BB226809  57.340  45.926  18.898
 4126DC     BB326810  57.512  46.029  18.948
 4126DC     SC126811  57.380  46.190  19.106
 4126DC     SC226812  57.375  46.387  19.020
 4126DC     SC326813  57.301  46.312  19.326
 4127DA     BB126814  57.561  45.845  18.571
 4127DA     BB226815  57.674  46.193  18.546
 4127DA     BB326816  57.856  46.221  18.654
 4127DA     SC126817  57.714  46.299  18.920
 4127DA     SC226818  57.684  46.503  19.060
 4127DA     SC326819  57.627  46.339  19.250
 4127DA     SC426820  57.682  46.181  19.025
 4128DT     BB126821  58.030  46.262  18.554
 4128DT     BB226822  58.059  46.608  18.651
 4128DT     BB326823  58.204  46.629  18.797
 4128DT     SC126824  58.046  46.526  18.980
 4128DT     SC226825  57.989  46.679  19.119
 4128DT     SC326826  57.953  46.360  19.163
 4129DG     BB126827  58.365  46.866  18.501
 4129DG     BB226828  58.353  47.046  18.814
 4129DG     BB326829  58.509  46.996  18.927
 4129DG     SC126830  58.367  46.762  19.064
 4129DG     SC226831  58.291  46.747  19.352
 4129DG     SC326832  58.249  46.487  19.218
 4129DG     SC426833  58.373  46.617  18.996
 4130DA     BB126834  58.637  47.330  18.979
 4130DA     BB226835  58.576  47.304  19.339
 4130DA     BB326836  58.740  47.207  19.435
 4130DA     SC126837  58.621  46.922  19.407
 4130DA     SC226838  58.525  46.746  19.555
 4130DA     SC326839  58.576  46.584  19.363
 4130DA     SC426840  58.662  46.837  19.276
 4131DG     BB126841  58.822  47.465  19.617
 4131DG     BB226842  58.703  47.256  19.888
 4131DG     BB326843  58.855  47.154  19.966
 4131DG     SC126844  58.823  46.915  19.777
 4131DG     SC226845  58.739  46.640  19.856
 4131DG     SC326846  58.829  46.646  19.575
 4131DG     SC426847  58.900  46.916  19.637
 4132DT     BB126848  58.934  47.174  20.193
 4132DT     BB226849  58.777  46.880  20.332
 4132DT     BB326850  58.920  46.739  20.379
 4132DT     SC126851  58.954  46.677  20.126
 4132DT     SC226852  58.878  46.480  20.089
 4132DT     SC326853  59.071  46.648  19.891
 4133DA     BB126854  58.654  46.807  20.693
 4133DA     BB226855  58.671  46.446  20.632
 4133DA     BB326856  58.858  46.368  20.699
 4133DA     SC126857  59.000  46.408  20.425
 4133DA     SC226858  59.089  46.266  20.240
 4133DA     SC326859  59.227  46.472  20.176
 4133DA     SC426860  59.079  46.547  20.401
 4134DC     BB126861  58.822  46.254  20.828
 4134DC     BB226862  58.891  45.952  20.644
 4134DC     BB326863  59.084  45.888  20.682
 4134DC     SC126864  59.186  46.077  20.532
 4134DC     SC226865  59.271  45.990  20.355
 4134DC     SC326866  59.322  46.292  20.461
 4135DA     BB126867  58.810  45.573  20.726
 4135DA     BB226868  59.094  45.453  20.527
 4135DA     BB326869  59.267  45.434  20.649
 4135DA     SC126870  59.367  45.723  20.594
 4135DA     SC226871  59.555  45.834  20.472
 4135DA     SC326872  59.504  46.037  20.621
 4135DA     SC426873  59.322  45.838  20.697
 4136DA     BB126874  59.265  45.129  20.524
 4136DA     BB226875  59.599  45.198  20.391
 4136DA     BB326876  59.744  45.194  20.548
 4136DA     SC126877  59.719  45.497  20.613
 4136DA     SC226878  59.858  45.702  20.589
 4136DA     SC326879  59.705  45.802  20.770
 4136DA     SC426880  59.614  45.540  20.727
 4137DT     BB126881  59.902  45.038  20.569
 4137DT     BB226882  60.181  45.244  20.470
 4137DT     BB326883  60.301  45.284  20.634
 4137DT     SC126884  60.127  45.456  20.729
 4137DT     SC226885  60.208  45.655  20.714
 4137DT     SC326886  59.951  45.567  20.891
 4138DA     BB126887  60.575  45.120  20.361
 4138DA     BB226888  60.722  45.432  20.486
 4138DA     BB326889  60.803  45.403  20.681
 4138DA     SC126890  60.540  45.481  20.828
 4138DA     SC226891  60.457  45.669  20.970
 4138DA     SC326892  60.278  45.503  21.049
 4138DA     SC426893  60.438  45.363  20.866
 4139DA     BB126894  61.083  45.518  20.553
 4139DA     BB226895  61.057  45.799  20.787
 4139DA     BB326896  61.126  45.742  20.980
 4139DA     SC126897  60.847  45.648  21.080
 4139DA     SC226898  60.675  45.723  21.244
 4139DA     SC326899  60.588  45.482  21.232
 4139DA     SC426900  60.809  45.493  21.060
 4140DC     BB126901  61.288  45.833  21.044
 4140DC     BB226902  61.120  46.051  21.278
 4140DC     BB326903  61.152  45.985  21.471
 4140DC     SC126904  60.984  45.786  21.439
 4140DC     SC226905  60.809  45.821  21.559
 4140DC     SC326906  60.891  45.540  21.421
 4141DA     BB126907  61.223  46.394  21.424
 4141DA     BB226908  61.009  46.346  21.718
 4141DA     BB326909  61.120  46.256  21.876
 4141DA     SC126910  61.050  45.965  21.792
 4141DA     SC226911  60.912  45.776  21.879
 4141DA     SC326912  61.057  45.627  21.728
 4141DA     SC426913  61.152  45.889  21.693
 4142DA     BB126914  60.954  46.521  21.982
 4142DA     BB226915  60.800  46.288  22.219
 4142DA     BB326916  60.947  46.210  22.353
 4142DA     SC126917  61.016  45.965  22.175
 4142DA     SC226918  60.985  45.717  22.182
 4142DA     SC326919  61.176  45.709  22.010
 4142DA     SC426920  61.137  45.981  22.070
 4143DT     BB126921  60.912  46.264  22.523
 4143DT     BB226922  60.805  45.945  22.652
 4143DT     BB326923  60.962  45.851  22.748
 4143DT     SC126924  61.075  45.790  22.519
 4143DT     SC226925  61.064  45.577  22.488
 4143DT     SC326926  61.253  45.784  22.324
 4144DA     BB126927  60.634  45.852  23.011
 4144DA     BB226928  60.772  45.512  23.003
 4144DA     BB326929  60.960  45.506  23.105
 4144DA     SC126930  61.128  45.568  22.850
 4144DA     SC226931  61.288  45.448  22.701
 4144DA     SC326932  61.365  45.683  22.629
 4144DA     SC426933  61.163  45.722  22.820
 4145DA     BB126934  60.805  45.265  23.264
 4145DA     BB226935  61.067  45.042  23.137
 4145DA     BB326936  61.250  45.074  23.244
 4145DA     SC126937  61.355  45.290  23.047
 4145DA     SC226938  61.536  45.312  22.877
 4145DA     SC326939  61.505  45.565  22.907
 4145DA     SC426940  61.322  45.444  23.081
 4146DA     BB126941  61.207  44.752  23.271
 4146DA     BB226942  61.524  44.719  23.090
 4146DA     BB326943  61.687  44.773  23.216
 4146DA     SC126944  61.685  45.073  23.133
 4146DA     SC226945  61.828  45.229  23.002
 4146DA     SC326946  61.704  45.415  23.128
 4146DA     SC426947  61.597  45.174  23.222
 4147DA     BB126948  61.756  44.482  23.087
 4147DA     BB226949  62.051  44.647  22.944
 4147DA     BB326950  62.189  44.699  23.099
 4147DA     SC126951  62.068  44.982  23.146
 4147DA     SC226952  62.134  45.219  23.107
 4147DA     SC326953  61.957  45.275  23.284
 4147DA     SC426954  61.954  44.996  23.258
 4148DA     BB126955  62.339  44.543  22.850
 4148DA     BB226956  62.550  44.842  22.834
 4148DA     BB326957  62.663  44.863  23.013
 4148DA     SC126958  62.449  45.037  23.157
 4148DA     SC226959  62.423  45.273  23.232
 4148DA     SC326960  62.241  45.182  23.389
 4148DA     SC426961  62.340  44.961  23.248
 4149DG     BB126962  62.865  44.859  22.778
 4149DG     BB226963  62.947  45.185  22.913
 4149DG     BB326964  63.040  45.164  23.088
 4149DG     SC126965  62.782  45.168  23.254
 4149DG     SC226966  62.701  45.382  23.446
 4149DG     SC326967  62.520  45.149  23.464
 4149DG     SC426968  62.706  45.031  23.281
 4150DG     BB126969  63.291  45.339  22.959
 4150DG     BB226970  63.244  45.568  23.235
 4150DG     BB326971  63.321  45.491  23.401
 4150DG     SC126972  63.063  45.349  23.485
 4150DG     SC226973  62.896  45.416  23.723
 4150DG     SC326974  62.804  45.165  23.596
 4150DG     SC426975  63.036  45.201  23.432
 4151DA     BB126976  63.551  45.763  23.494
 4151DA     BB226977  63.392  45.804  23.821
 4151DA     BB326978  63.465  45.657  23.958
 4151DA     SC126979  63.244  45.449  23.890
 4151DA     SC226980  63.046  45.348  24.002
 4151DA     SC326981  63.070  45.160  23.829
 4151DA     SC426982  63.277  45.341  23.775
 4152DT     BB126983  63.639  45.646  24.186
 4152DT     BB226984  63.378  45.599  24.430
 4152DT     BB326985  63.402  45.416  24.524
 4152DT     SC126986  63.314  45.287  24.313
 4152DT     SC226987  63.122  45.201  24.357
 4152DT     SC326988  63.311  45.125  24.105
 4153DT     BB126989  63.529  45.471  24.806
 4153DT     BB226990  63.229  45.289  24.890
 4153DT     BB326991  63.275  45.091  24.928
 4153DT     SC126992  63.309  45.041  24.673
 4153DT     SC226993  63.150  44.914  24.603
 4153DT     SC326994  63.426  44.976  24.446
 4154DT     BB126995  63.245  45.097  25.215
 4154DT     BB226996  63.008  44.847  25.108
 4154DT     BB326997  63.094  44.659  25.118
 4154DT     SC126998  63.237  44.705  24.902
 4154DT     SC226999  63.164  44.583  24.741
 4154DT     SC327000  63.447  44.741  24.747
 4155DG     BB127001  62.756  44.667  25.342
 4155DG     BB227002  62.747  44.401  25.097
 4155DG     BB327003  62.858  44.248  25.158
 4155DG     SC127004  63.116  44.351  25.028
 4155DG     SC227005  63.259  44.222  24.800
 4155DG     SC327006  63.420  44.443  24.914
 4155DG     SC427007  63.211  44.449  25.110
 4156DT     BB127008  62.752  44.083  25.175
 4156DT     BB227009  62.864  43.888  24.893
 4156DT     BB327010  63.010  43.755  24.953
 4156DT     SC127011  63.189  43.946  24.971
 4156DT     SC227012  63.335  43.922  24.815
 4156DT     SC327013  63.364  44.112  25.077
 4157DC     BB127014  62.822  43.581  24.902
 4157DC     BB227015  63.103  43.474  24.704
 4157DC     BB327016  63.237  43.369  24.822
 4157DC     SC127017  63.322  43.590  24.936
 4157DC     SC227018  63.523  43.630  24.873
 4157DC     SC327019  63.371  43.769  25.123
 4158DG     BB127020  63.132  43.114  24.519
 4158DG     BB227021  63.491  43.122  24.563
 4158DG     BB327022  63.543  43.012  24.721
 4158DG     SC127023  63.521  43.244  24.920
 4158DG     SC227024  63.747  43.369  25.070
 4158DG     SC327025  63.487  43.470  25.168
 4158DG     SC427026  63.380  43.273  24.990
 4159DC     BB127027  63.674  42.782  24.747
 4159DC     BB227028  63.987  42.894  24.889
 4159DC     BB327029  64.000  42.832  25.086
 4159DC     SC127030  63.828  43.015  25.163
 4159DC     SC227031  63.930  43.164  25.280
 4159DC     SC327032  63.609  43.123  25.262
 4160DT     BB127033  64.184  42.551  25.125
 4160DT     BB227034  64.341  42.771  25.365
 4160DT     BB327035  64.278  42.723  25.556
 4160DT     SC127036  64.043  42.834  25.514
 4160DT     SC227037  64.026  43.012  25.633
 4160DT     SC327038  63.782  42.858  25.486
 4161DA     BB127039  64.685  42.614  25.702
 4161DA     BB227040  64.562  42.866  25.939
 4161DA     BB327041  64.461  42.772  26.102
 4161DA     SC127042  64.182  42.780  25.966
 4161DA     SC227043  63.965  42.899  25.996
 4161DA     SC327044  63.864  42.708  25.858
 4161DA     SC427045  64.137  42.651  25.879
 4162DA     BB127046  64.665  42.911  26.335
 4162DA     BB227047  64.380  43.123  26.428
 4162DA     BB327048  64.266  43.030  26.582
 4162DA     SC127049  64.076  42.881  26.386
 4162DA     SC227050  63.837  42.892  26.317
 4162DA     SC327051  63.871  42.652  26.234
 4162DA     SC427052  64.117  42.732  26.342
 4163DT     BB127053  64.260  43.129  26.756
 4163DT     BB227054  63.936  43.274  26.690
 4163DT     BB327055  63.793  43.185  26.811
 4163DT     SC127056  63.794  42.968  26.665
 4163DT     SC227057  63.608  42.952  26.559
 4163DT     SC327058  63.825  42.715  26.596
 4164DA     BB127059  63.802  43.606  26.771
 4164DA     BB227060  63.464  43.483  26.699
 4164DA     BB327061  63.375  43.401  26.876
 4164DA     SC127062  63.479  43.113  26.824
 4164DA     SC227063  63.383  42.891  26.761
 4164DA     SC327064  63.600  42.793  26.857
 4164DA     SC427065  63.620  43.071  26.889
 4165DC     BB127066  63.256  43.503  26.869
 4165DC     BB227067  63.003  43.266  26.773
 4165DC     BB327068  62.929  43.169  26.940
 4165DC     SC127069  63.145  43.023  26.962
 4165DC     SC227070  63.099  42.819  26.914
 4165DC     SC327071  63.368  42.923  27.061
 4166DA     BB127072  62.651  43.306  26.647
 4166DA     BB227073  62.566  42.964  26.747
 4166DA     BB327074  62.509  42.959  26.952
 4166DA     SC127075  62.798  42.904  27.056
 4166DA     SC227076  62.924  42.717  27.161
 4166DA     SC327077  63.088  42.898  27.239
 4166DA     SC427078  62.887  43.032  27.096
 4167DT     BB127079  62.349  42.907  26.947
 4167DT     BB227080  62.396  42.580  27.091
 4167DT     BB327081  62.375  42.590  27.297
 4167DT     SC127082  62.610  42.704  27.324
 4167DT     SC227083  62.745  42.567  27.419
 4167DT     SC327084  62.792  42.886  27.382
 4168DA     BB127085  62.137  42.276  27.148
 4168DA     BB227086  62.316  42.154  27.444
 4168DA     BB327087  62.240  42.247  27.621
 4168DA     SC127088  62.440  42.485  27.612
 4168DA     SC227089  62.636  42.566  27.742
 4168DA     SC327090  62.589  42.794  27.634
 4168DA     SC427091  62.394  42.619  27.535
 4169DA     BB127092  62.202  41.935  27.726
 4169DA     BB227093  62.419  42.021  28.009
 4169DA     BB327094  62.313  42.141  28.150
 4169DA     SC127095  62.397  42.411  28.019
 4169DA     SC227096  62.544  42.604  28.074
 4169DA     SC327097  62.405  42.733  27.900
 4169DA     SC427098  62.298  42.473  27.909
 4170DC     BB127099  62.253  42.076  28.353
 4170DC     BB227100  62.490  42.275  28.538
 4170DC     BB327101  62.393  42.430  28.634
 4170DC     SC127102  62.364  42.561  28.408
 4170DC     SC227103  62.490  42.736  28.411
 4170DC     SC327104  62.249  42.678  28.202
 4171DA     BB127105  62.574  42.255  28.976
 4171DA     BB227106  62.645  42.615  28.994
 4171DA     BB327107  62.475  42.720  29.068
 4171DA     SC127108  62.353  42.771  28.786
 4171DA     SC227109  62.316  42.964  28.633
 4171DA     SC327110  62.141  42.815  28.520
 4171DA     SC427111  62.248  42.663  28.730
 4172DA     BB127112  62.649  42.857  29.327
 4172DA     BB227113  62.591  43.187  29.179
 4172DA     BB327114  62.401  43.263  29.239
 4172DA     SC127115  62.248  43.141  28.998
 4172DA     SC227116  62.133  43.222  28.792
 4172DA     SC327117  62.013  42.995  28.794
 4172DA     SC427118  62.183  42.995  29.017
 4173DT     BB127119  62.360  43.448  29.379
 4173DT     BB227120  62.269  43.671  29.111
 4173DT     BB327121  62.069  43.721  29.124
 4173DT     SC127122  61.996  43.485  29.036
 4173DT     SC227123  61.912  43.505  28.839
 4173DT     SC327124  61.888  43.244  29.030
 4174DA     BB127125  62.279  44.081  29.102
 4174DA     BB227126  62.020  44.086  28.843
 4174DA     BB327127  61.828  44.122  28.930
 4174DA     SC127128  61.764  43.820  28.971
 4174DA     SC227129  61.608  43.650  28.876
 4174DA     SC327130  61.652  43.519  29.093
 4174DA     SC427131  61.803  43.755  29.113
 4175DA     BB127132  61.854  44.344  28.696
 4175DA     BB227133  61.564  44.180  28.543
 4175DA     BB327134  61.387  44.224  28.653
 4175DA     SC127135  61.412  43.977  28.840
 4175DA     SC227136  61.294  43.761  28.878
 4175DA     SC327137  61.406  43.763  29.108
 4175DA     SC427138  61.490  43.997  28.979
 4176DC     BB127139  61.279  44.314  28.545
 4176DC     BB227140  61.044  44.047  28.486
 4176DC     BB327141  60.882  44.066  28.613
 4176DC     SC127142  61.022  43.981  28.817
 4176DC     SC227143  60.952  43.786  28.876
 4176DC     SC327144  61.145  43.979  29.051
 4177DG     BB127145  60.774  44.044  28.220
 4177DG     BB227146  60.595  43.805  28.424
 4177DG     BB327147  60.459  43.899  28.534
 4177DG     SC127148  60.647  43.949  28.770
 4177DG     SC227149  60.624  43.827  29.042
 4177DG     SC327150  60.831  44.038  29.039
 4177DG     SC427151  60.736  44.082  28.772
 4178DA     BB127152  60.254  43.653  28.403
 4178DA     BB227153  60.167  43.549  28.744
 4178DA     BB327154  60.042  43.694  28.836
 4178DA     SC127155  60.277  43.856  28.959
 4178DA     SC227156  60.373  43.901  29.185
 4178DA     SC327157  60.483  44.105  29.075
 4178DA     SC427158  60.336  43.978  28.873
 4179DA     BB127159  59.856  43.426  28.883
 4179DA     BB227160  59.882  43.495  29.243
 4179DA     BB327161  59.760  43.662  29.295
 4179DA     SC127162  59.986  43.872  29.251
 4179DA     SC227163  60.126  44.023  29.390
 4179DA     SC327164  60.165  44.154  29.172
 4179DA     SC427165  59.996  43.940  29.106
 4180DA     BB127166  59.632  43.451  29.515
 4180DA     BB227167  59.745  43.683  29.776
 4180DA     BB327168  59.615  43.852  29.786
 4180DA     SC127169  59.780  44.020  29.583
 4180DA     SC227170  59.926  44.223  29.586
 4180DA     SC327171  59.880  44.235  29.334
 4180DA     SC427172  59.738  44.012  29.428
 4181DA     BB127173  59.587  43.771  30.105
 4181DA     BB227174  59.731  44.098  30.185
 4181DA     BB327175  59.584  44.251  30.163
 4181DA     SC127176  59.652  44.308  29.865
 4181DA     SC227177  59.756  44.490  29.730
 4181DA     SC327178  59.637  44.383  29.530
 4181DA     SC427179  59.568  44.227  29.753
 4182DA     BB127180  59.675  44.319  30.472
 4182DA     BB227181  59.783  44.646  30.348
 4182DA     BB327182  59.614  44.772  30.314
 4182DA     SC127183  59.578  44.685  30.017
 4182DA     SC227184  59.606  44.785  29.791
 4182DA     SC327185  59.450  44.598  29.711
 4182DA     SC427186  59.478  44.562  29.987
 4183DT     BB127187  59.592  44.936  30.429
 4183DT     BB227188  59.691  45.176  30.178
 4183DT     BB327189  59.525  45.275  30.106
 4183DT     SC127190  59.451  45.066  29.966
 4183DT     SC227191  59.476  45.108  29.756
 4183DT     SC327192  59.306  44.862  29.882
 4184DT     BB127193  59.608  45.496  30.236
 4184DT     BB227194  59.588  45.594  29.889
 4184DT     BB327195  59.395  45.654  29.844
 4184DT     SC127196  59.310  45.405  29.843
 4184DT     SC227197  59.260  45.347  29.642
 4184DT     SC327198  59.176  45.189  29.912
 4185DA     BB127199  59.676  45.937  29.715
 4185DA     BB227200  59.450  45.862  29.436
 4185DA     BB327201  59.256  45.943  29.474
 4185DA     SC127202  59.149  45.686  29.614
 4185DA     SC227203  58.985  45.505  29.567
 4185DA     SC327204  58.988  45.464  29.820
 4185DA     SC427205  59.164  45.677  29.774
 4186DA     BB127206  59.341  46.047  29.177
 4186DA     BB227207  59.042  45.870  29.059
 4186DA     BB327208  58.866  45.970  29.125
 4186DA     SC127209  58.843  45.808  29.389
 4186DA     SC227210  58.693  45.634  29.486
 4186DA     SC327211  58.787  45.708  29.713
 4186DA     SC427212  58.913  45.869  29.520
 4187DA     BB127213  58.837  45.921  28.803
 4187DA     BB227214  58.532  45.735  28.887
 4187DA     BB327215  58.383  45.868  28.963
 4187DA     SC127216  58.471  45.836  29.260
 4187DA     SC227217  58.382  45.732  29.469
 4187DA     SC327218  58.545  45.888  29.591
 4187DA     SC427219  58.578  45.941  29.318
 4188DA     BB127220  58.235  45.695  28.727
 4188DA     BB227221  57.998  45.593  28.987
 4188DA     BB327222  57.880  45.759  29.050
 4188DA     SC127223  58.075  45.843  29.277
 4188DA     SC227224  58.078  45.845  29.526
 4188DA     SC327225  58.264  46.019  29.503
 4188DA     SC427226  58.188  45.951  29.241
 4189DA     BB127227  57.642  45.542  28.979
 4189DA     BB227228  57.531  45.582  29.326
 4189DA     BB327229  57.440  45.773  29.354
 4189DA     SC127230  57.706  45.914  29.435
 4189DA     SC227231  57.807  46.013  29.640
 4189DA     SC327232  57.962  46.139  29.479
 4189DA     SC427233  57.791  45.984  29.318
 4190DT     BB127234  57.236  45.792  29.393
 4190DT     BB227235  57.262  45.890  29.739
 4190DT     BB327236  57.225  46.093  29.758
 4190DT     SC127237  57.460  46.153  29.659
 4190DT     SC227238  57.584  46.237  29.814
 4190DT     SC327239  57.643  46.251  29.496
 4191DT     BB127240  56.960  46.075  29.866
 4191DT     BB227241  57.134  46.280  30.107
 4191DT     BB327242  57.112  46.480  30.058
 4191DT     SC127243  57.283  46.458  29.860
 4191DT     SC227244  57.463  46.565  29.909
 4191DT     SC327245  57.380  46.458  29.615
 4192DG     BB127246  56.923  46.493  30.427
 4192DG     BB227247  57.180  46.746  30.411
 4192DG     BB327248  57.108  46.910  30.325
 4192DG     SC127249  57.185  46.825  30.041
 4192DG     SC227250  57.390  46.955  29.868
 4192DG     SC327251  57.237  46.753  29.715
 4192DG     SC427252  57.082  46.737  29.955
 4193DT     BB127253  57.066  47.154  30.420
 4193DT     BB227254  57.349  47.323  30.273
 4193DT     BB327255  57.284  47.460  30.132
 4193DT     SC127256  57.231  47.270  29.960
 4193DT     SC227257  57.371  47.279  29.797
 4193DT     SC327258  57.094  47.111  29.800
 4194DA     BB127259  57.518  47.700  30.387
 4194DA     BB227260  57.636  47.760  30.045
 4194DA     BB327261  57.503  47.892  29.943
 4194DA     SC127262  57.325  47.665  29.829
 4194DA     SC227263  57.276  47.562  29.607
 4194DA     SC327264  57.061  47.474  29.717
 4194DA     SC427265  57.196  47.621  29.915
 4195DA     BB127266  57.776  48.068  29.893
 4195DA     BB227267  57.728  48.005  29.535
 4195DA     BB327268  57.580  48.137  29.455
 4195DA     SC127269  57.344  47.942  29.508
 4195DA     SC227270  57.186  47.802  29.375
 4195DA     SC327271  57.038  47.805  29.584
 4195DA     SC427272  57.265  47.957  29.648
 4196DT     BB127273  57.639  48.277  29.317
 4196DT     BB227274  57.504  48.104  29.030
 4196DT     BB327275  57.335  48.202  28.962
 4196DT     SC127276  57.192  48.110  29.162
 4196DT     SC227277  57.049  47.967  29.089
 4196DT     SC327278  57.044  48.108  29.381
 4197DC     BB127279  57.484  48.268  28.753
 4197DC     BB227280  57.207  48.082  28.617
 4197DC     BB327281  57.045  48.207  28.588
 4197DC     SC127282  56.995  48.214  28.845
 4197DC     SC227283  56.812  48.108  28.885
 4197DC     SC327284  56.964  48.309  29.089
 4198DA     BB127285  57.136  47.960  28.261
 4198DA     BB227286  56.777  47.936  28.332
 4198DA     BB327287  56.679  48.120  28.284
 4198DA     SC127288  56.715  48.241  28.568
 4198DA     SC227289  56.571  48.300  28.763
 4198DA     SC327290  56.765  48.453  28.834
 4198DA     SC427291  56.846  48.331  28.595
 4199DT     BB127292  56.575  48.068  28.167
 4199DT     BB227293  56.270  48.100  28.357
 4199DT     BB327294  56.190  48.289  28.332
 4199DT     SC127295  56.372  48.395  28.488
 4199DT     SC227296  56.280  48.461  28.671
 4199DT     SC327297  56.576  48.544  28.567
 4200DA     BB127298  55.915  47.969  28.301
 4200DA     BB227299  55.768  48.236  28.506
 4200DA     BB327300  55.734  48.410  28.388
 4200DA     SC127301  56.012  48.535  28.447
 4200DA     SC227302  56.105  48.728  28.574
 4200DA     SC327303  56.312  48.700  28.426
 4200DA     SC427304  56.132  48.502  28.344
 4201DA     BB127305  55.447  48.356  28.543
 4201DA     BB227306  55.474  48.701  28.662
 4201DA     BB327307  55.454  48.838  28.499
 4201DA     SC127308  55.759  48.848  28.439
 4201DA     SC227309  55.946  49.012  28.459
 4201DA     SC327310  56.067  48.865  28.286
 4201DA     SC427311  55.817  48.744  28.330
 4202DG     BB127312  55.210  48.945  28.664
 4202DG     BB227313  55.397  49.254  28.659
 4202DG     BB327314  55.376  49.343  28.482
 4202DG     SC127315  55.618  49.203  28.356
 4202DG     SC227316  55.872  49.335  28.270
 4202DG     SC327317  55.864  49.054  28.180
 4202DG     SC427318  55.597  49.062  28.284
 4203DT     BB127319  55.268  49.552  28.436
 4203DT     BB227320  55.548  49.767  28.363
 4203DT     BB327321  55.557  49.804  28.159
 4203DT     SC127322  55.650  49.563  28.112
 4203DT     SC227323  55.855  49.577  28.049
 4203DT     SC327324  55.665  49.317  28.019
 4204DA     BB127325  55.546  50.198  28.310
 4204DA     BB227326  55.820  50.185  28.067
 4204DA     BB327327  55.744  50.190  27.868
 4204DA     SC127328  55.722  49.881  27.842
 4204DA     SC227329  55.835  49.698  27.716
 4204DA     SC327330  55.623  49.561  27.766
 4204DA     SC427331  55.582  49.812  27.882
 4205DG     BB127332  55.898  50.463  27.814
 4205DG     BB227333  56.083  50.264  27.574
 4205DG     BB327334  55.987  50.262  27.400
 4205DG     SC127335  55.820  50.014  27.466
 4205DG     SC227336  55.842  49.748  27.333
 4205DG     SC327337  55.607  49.757  27.513
 4205DG     SC427338  55.679  50.033  27.540
 4206DC     BB127339  56.069  50.352  27.198
 4206DC     BB227340  56.160  50.052  27.020
 4206DC     BB327341  56.025  50.016  26.868
 4206DC     SC127342  55.843  49.934  27.039
 4206DC     SC227343  55.813  49.722  27.016
 4206DC     SC327344  55.618  49.925  27.177
 4207DT     BB127345  56.203  50.090  26.670
 4207DT     BB227346  56.106  49.755  26.579
 4207DT     BB327347  55.937  49.760  26.459
 4207DT     SC127348  55.784  49.816  26.664
 4207DT     SC227349  55.658  49.646  26.707
 4207DT     SC327350  55.618  49.947  26.822
 4208DC     BB127351  56.076  49.697  26.224
 4208DC     BB227352  55.821  49.442  26.246
 4208DC     BB327353  55.649  49.506  26.150
 4208DC     SC127354  55.590  49.669  26.347
 4208DC     SC227355  55.417  49.596  26.451
 4208DC     SC327356  55.543  49.893  26.478
 4209DA     BB127357  55.726  49.139  25.958
 4209DA     BB227358  55.374  49.135  26.063
 4209DA     BB327359  55.256  49.253  25.931
 4209DA     SC127360  55.290  49.515  26.096
 4209DA     SC227361  55.149  49.663  26.238
 4209DA     SC327362  55.328  49.841  26.195
 4209DA     SC427363  55.412  49.612  26.056
 4210DA     BB127364  55.062  48.986  25.873
 4210DA     BB227365  54.786  49.172  26.030
 4210DA     BB327366  54.696  49.304  25.888
 4210DA     SC127367  54.882  49.544  25.958
 4210DA     SC227368  54.862  49.766  26.070
 4210DA     SC327369  55.079  49.825  25.946
 4210DA     SC427370  55.016  49.562  25.872
 4211DG     BB127371  54.423  49.147  25.917
 4211DG     BB227372  54.315  49.455  26.073
 4211DG     BB327373  54.242  49.579  25.935
 4211DG     SC127374  54.511  49.712  25.877
 4211DG     SC227375  54.584  49.995  25.936
 4211DG     SC327376  54.793  49.865  25.773
 4211DG     SC427377  54.607  49.648  25.765
 4212DT     BB127378  54.026  49.649  25.940
 4212DT     BB227379  54.070  49.981  26.074
 4212DT     BB327380  54.038  50.122  25.925
 4212DT     SC127381  54.270  50.068  25.814
 4212DT     SC227382  54.403  50.235  25.841
 4212DT     SC327383  54.447  49.989  25.635
 4213DA     BB127384  53.820  50.213  26.269
 4213DA     BB227385  54.001  50.515  26.165
 4213DA     BB327386  53.912  50.597  25.989
 4213DA     SC127387  54.093  50.436  25.794
 4213DA     SC227388  54.279  50.482  25.634
 4213DA     SC327389  54.216  50.257  25.528
 4213DA     SC427390  54.038  50.295  25.741
 4214DA     BB127391  53.928  50.848  26.197
 4214DA     BB227392  54.133  51.016  25.943
 4214DA     BB327393  54.013  51.072  25.776
 4214DA     SC127394  54.059  50.806  25.621
 4214DA     SC227395  54.180  50.731  25.416
 4214DA     SC327396  54.025  50.527  25.425
 4214DA     SC427397  53.953  50.688  25.643
 4215DA     BB127398  54.147  51.366  25.839
 4215DA     BB227399  54.281  51.360  25.498
 4215DA     BB327400  54.127  51.400  25.356
 4215DA     SC127401  54.050  51.101  25.319
 4215DA     SC227402  54.067  50.927  25.141
 4215DA     SC327403  53.881  50.806  25.270
 4215DA     SC427404  53.933  51.042  25.412
 4216DT     BB127405  54.114  51.585  25.234
 4216DT     BB227406  54.207  51.436  24.919
 4216DT     BB327407  54.043  51.429  24.793
 4216DT     SC127408  53.939  51.229  24.928
 4216DT     SC227409  53.947  51.051  24.808
 4216DT     SC327410  53.771  51.091  25.077
 4217DT     BB127411  54.110  51.650  24.613
 4217DT     BB227412  54.064  51.372  24.388
 4217DT     BB327413  53.870  51.371  24.316
 4217DT     SC127414  53.777  51.282  24.544
 4217DT     SC227415  53.710  51.079  24.520
 4217DT     SC327416  53.643  51.272  24.771
 4218DT     BB127417  53.925  51.468  24.048
 4218DT     BB227418  53.762  51.150  23.994
 4218DT     BB327419  53.559  51.178  23.965
 4218DT     SC127420  53.522  51.224  24.221
 4218DT     SC227421  53.412  51.061  24.307
 4218DT     SC327422  53.460  51.351  24.444
 4219DA     BB127423  53.707  50.949  23.652
 4219DA     BB227424  53.420  50.772  23.796
 4219DA     BB327425  53.238  50.866  23.736
 4219DA     SC127426  53.227  51.057  23.981
 4219DA     SC227427  53.090  51.086  24.187
 4219DA     SC327428  53.181  51.326  24.190
 4219DA     SC427429  53.294  51.203  23.964
 4220DC     BB127430  53.164  50.743  23.653
 4220DC     BB227431  52.919  50.661  23.905
 4220DC     BB327432  52.743  50.762  23.867
 4220DC     SC127433  52.845  50.989  23.951
 4220DC     SC227434  52.751  51.045  24.136
 4220DC     SC327435  52.932  51.238  23.948
 4221DT     BB127436  52.720  50.511  23.862
 4221DT     BB227437  52.487  50.633  24.109
 4221DT     BB327438  52.333  50.736  24.016
 4221DT     SC127439  52.489  50.943  23.970
 4221DT     SC227440  52.427  51.108  24.094
 4221DT     SC327441  52.627  51.125  23.839
 4222DC     BB127442  52.258  50.531  24.146
 4222DC     BB227443  52.063  50.812  24.261
 4222DC     BB327444  51.940  50.880  24.109
 4222DC     SC127445  52.143  50.992  23.985
 4222DC     SC227446  52.124  51.206  23.997
 4222DC     SC327447  52.322  51.043  23.799
 4223DT     BB127448  51.761  50.780  24.267
 4223DT     BB227449  51.650  51.116  24.195
 4223DT     BB327450  51.565  51.124  24.007
 4223DT     SC127451  51.800  51.109  23.891
 4223DT     SC227452  51.845  51.298  23.797
 4223DT     SC327453  51.999  51.018  23.745
 4224DT     BB127454  51.311  51.141  24.111
 4224DT     BB227455  51.327  51.416  23.878
 4224DT     BB327456  51.273  51.352  23.689
 4224DT     SC127457  51.503  51.230  23.656
 4224DT     SC227458  51.618  51.335  23.508
 4224DT     SC327459  51.678  51.037  23.620
 4225DG     BB127460  50.976  51.632  23.750
 4225DG     BB227461  51.131  51.685  23.428
 4225DG     BB327462  51.051  51.562  23.293
 4225DG     SC127463  51.250  51.336  23.344
 4225DG     SC227464  51.455  51.236  23.151
 4225DG     SC327465  51.439  51.059  23.388
 4225DG     SC427466  51.217  51.228  23.458
 4226DA     BB127467  50.959  51.819  23.060
 4226DA     BB227468  51.173  51.673  22.800
 4226DA     BB327469  51.071  51.514  22.701
 4226DA     SC127470  51.175  51.293  22.894
 4226DA     SC227471  51.332  51.100  22.885
 4226DA     SC327472  51.207  51.015  23.093
 4226DA     SC427473  51.084  51.257  23.021
 4227DT     BB127474  50.998  51.515  22.484
 4227DT     BB227475  51.254  51.296  22.355
 4227DT     BB327476  51.171  51.114  22.300
 4227DT     SC127477  51.146  51.041  22.551
 4227DT     SC227478  51.284  50.881  22.592
 4227DT     SC327479  51.035  50.970  22.779
 4228DT     BB127480  51.187  51.161  22.022
 4228DT     BB227481  51.369  50.853  22.069
 4228DT     BB327482  51.241  50.691  22.048
 4228DT     SC127483  51.133  50.736  22.283
 4228DT     SC227484  51.190  50.579  22.419
 4228DT     SC327485  50.953  50.794  22.466
 4229DT     BB127486  51.343  50.619  21.799
 4229DT     BB227487  51.384  50.322  22.000
 4229DT     BB327488  51.216  50.202  21.985
 4229DT     SC127489  51.078  50.364  22.139
 4229DT     SC227490  51.040  50.266  22.328
 4229DT     SC327491  50.892  50.534  22.218
 4230DG     BB127492  51.519  49.963  21.851
 4230DG     BB227493  51.330  49.799  22.112
 4230DG     BB327494  51.164  49.720  22.036
 4230DG     SC127495  50.995  49.971  22.082
 4230DG     SC227496  50.766  49.996  22.272
 4230DG     SC327497  50.785  50.234  22.098
 4230DG     SC427498  50.990  50.083  21.967
 4231DG     BB127499  51.245  49.409  22.129
 4231DG     BB227500  50.953  49.418  22.343
 4231DG     BB327501  50.793  49.358  22.241
 4231DG     SC127502  50.721  49.639  22.143
 4231DG     SC227503  50.478  49.795  22.221
 4231DG     SC327504  50.624  49.929  22.001
 4231DG     SC427505  50.785  49.692  22.006
 4232DT     BB127506  50.673  49.172  22.295
 4232DT     BB227507  50.383  49.321  22.450
 4232DT     BB327508  50.221  49.308  22.322
 4232DT     SC127509  50.315  49.499  22.169
 4232DT     SC227510  50.191  49.674  22.189
 4232DT     SC327511  50.411  49.622  21.957
 4233DA     BB127512  50.110  49.158  22.697
 4233DA     BB227513  49.856  49.400  22.592
 4233DA     BB327514  49.736  49.319  22.435
 4233DA     SC127515  49.916  49.427  22.206
 4233DA     SC227516  49.903  49.599  22.027
 4233DA     SC327517  50.092  49.467  21.915
 4233DA     SC427518  50.033  49.330  22.152
 4234DT     BB127519  49.553  49.293  22.484
 4234DT     BB227520  49.418  49.568  22.293
 4234DT     BB327521  49.331  49.497  22.119
 4234DT     SC127522  49.567  49.456  22.010
 4234DT     SC227523  49.597  49.597  21.850
 4234DT     SC327524  49.772  49.329  21.903
 4235DC     BB127525  49.099  49.560  22.231
 4235DC     BB227526  49.104  49.741  21.918
 4235DC     BB327527  49.042  49.618  21.764
 4235DC     SC127528  49.270  49.488  21.765
 4235DC     SC227529  49.379  49.535  21.585
 4235DC     SC327530  49.444  49.291  21.789
 4236DG     BB127531  48.797  49.943  21.768
 4236DG     BB227532  48.930  49.882  21.437
 4236DG     BB327533  48.833  49.731  21.352
 4236DG     SC127534  49.023  49.517  21.460
 4236DG     SC227535  49.208  49.348  21.298
 4236DG     SC327536  49.200  49.254  21.578
 4236DG     SC427537  48.994  49.452  21.604
 4237DC     BB127538  48.705  49.751  21.163
 4237DC     BB227539  48.913  49.592  20.915
 4237DC     BB327540  48.838  49.405  20.869
 4237DC     SC127541  48.925  49.306  21.096
 4237DC     SC227542  49.087  49.170  21.057
 4237DC     SC327543  48.924  49.196  21.336
 4238DA     BB127544  48.860  49.585  20.489
 4238DA     BB227545  49.017  49.255  20.461
 4238DA     BB327546  48.868  49.102  20.452
 4238DA     SC127547  48.860  49.059  20.760
 4238DA     SC227548  48.927  48.883  20.924
 4238DA     SC327549  48.763  48.998  21.084
 4238DA     SC427550  48.753  49.144  20.845
 4239DA     BB127551  48.999  48.996  20.163
 4239DA     BB227552  49.076  48.679  20.328
 4239DA     BB327553  48.904  48.553  20.332
 4239DA     SC127554  48.803  48.658  20.607
 4239DA     SC227555  48.780  48.572  20.840
 4239DA     SC327556  48.610  48.761  20.871
 4239DA     SC427557  48.699  48.780  20.606
 4240DT     BB127558  48.888  48.363  20.219
 4240DT     BB227559  48.938  48.148  20.504
 4240DT     BB327560  48.761  48.049  20.550
 4240DT     SC127561  48.657  48.266  20.653
 4240DT     SC227562  48.640  48.243  20.866
 4240DT     SC327563  48.496  48.472  20.688
 4241DC     BB127564  48.862  47.811  20.457
 4241DC     BB227565  48.780  47.746  20.802
 4241DC     BB327566  48.584  47.682  20.817
 4241DC     SC127567  48.493  47.925  20.775
 4241DC     SC227568  48.404  48.000  20.957
 4241DC     SC327569  48.368  48.127  20.661
 4242DT     BB127570  48.700  47.458  20.883
 4242DT     BB227571  48.496  47.550  21.166
 4242DT     BB327572  48.299  47.496  21.131
 4242DT     SC127573  48.266  47.695  20.963
 4242DT     SC227574  48.133  47.840  21.050
 4242DT     SC327575  48.220  47.825  20.738
 4243DT     BB127576  48.358  47.331  21.322
 4243DT     BB227577  48.077  47.524  21.441
 4243DT     BB327578  47.902  47.453  21.358
 4243DT     SC127579  47.959  47.562  21.126
 4243DT     SC227580  47.824  47.726  21.089
 4243DT     SC327581  48.016  47.584  20.869
 4244DG     BB127582  47.891  47.470  21.766
 4244DG     BB227583  47.607  47.634  21.614
 4244DG     BB327584  47.482  47.499  21.539
 4244DG     SC127585  47.616  47.493  21.264
 4244DG     SC227586  47.495  47.587  21.008
 4244DG     SC327587  47.750  47.446  20.958
 4244DG     SC427588  47.738  47.391  21.239
 4245DC     BB127589  47.296  47.499  21.619
 4245DC     BB227590  47.094  47.635  21.352
 4245DC     BB327591  47.007  47.481  21.244
 4245DC     SC127592  47.235  47.423  21.128
 4245DC     SC227593  47.224  47.476  20.919
 4245DC     SC327594  47.449  47.287  21.056
 4246DT     BB127595  46.769  47.544  21.353
 4246DT     BB227596  46.711  47.555  20.997
 4246DT     BB327597  46.667  47.365  20.927
 4246DT     SC127598  46.918  47.291  20.947
 4246DT     SC227599  47.001  47.264  20.751
 4246DT     SC327600  47.133  47.160  21.028
 4247DC     BB127601  46.399  47.423  20.893
 4247DC     BB227602  46.506  47.306  20.568
 4247DC     BB327603  46.488  47.100  20.558
 4247DC     SC127604  46.700  47.066  20.709
 4247DC     SC227605  46.859  46.984  20.591
 4247DC     SC327606  46.849  46.994  20.914
 4248DT     BB127607  46.262  47.104  20.392
 4248DT     BB227608  46.501  46.905  20.209
 4248DT     BB327609  46.482  46.705  20.261
 4248DT     SC127610  46.599  46.746  20.492
 4248DT     SC227611  46.792  46.651  20.492
 4248DT     SC327612  46.635  46.762  20.753
 4249DT     BB127613  46.361  46.632  20.021
 4249DT     BB227614  46.653  46.422  20.041
 4249DT     BB327615  46.606  46.246  20.139
 4249DT     SC127616  46.602  46.367  20.372
 4249DT     SC227617  46.769  46.303  20.489
 4249DT     SC327618  46.510  46.463  20.600
 4250DC     BB127619  46.622  46.107  19.905
 4250DC     BB227620  46.866  45.952  20.121
 4250DC     BB327621  46.776  45.804  20.235
 4250DC     SC127622  46.661  45.983  20.389
 4250DC     SC227623  46.750  45.976  20.585
 4250DC     SC327624  46.471  46.123  20.508
 4251DT     BB127625  46.910  45.626  20.087
 4251DT     BB227626  47.016  45.566  20.427
 4251DT     BB327627  46.881  45.439  20.521
 4251DT     SC127628  46.704  45.632  20.544
 4251DT     SC227629  46.685  45.686  20.752
 4251DT     SC327630  46.481  45.768  20.514
 4252DA     BB127631  47.278  45.313  20.572
 4252DA     BB227632  47.114  45.316  20.900
 4252DA     BB327633  46.969  45.159  20.912
 4252DA     SC127634  46.735  45.334  20.805
 4252DA     SC227635  46.525  45.435  20.894
 4252DA     SC327636  46.451  45.448  20.649
 4252DA     SC427637  46.707  45.332  20.647
 4253DT     BB127638  47.019  45.043  21.039
 4253DT     BB227639  46.769  45.132  21.283
 4253DT     BB327640  46.609  45.001  21.272
 4253DT     SC127641  46.523  45.114  21.051
 4253DT     SC227642  46.339  45.218  21.091
 4253DT     SC327643  46.455  45.144  20.798
 4254DA     BB127644  46.738  45.038  21.670
 4254DA     BB227645  46.372  45.069  21.663
 4254DA     BB327646  46.283  44.881  21.618
 4254DA     SC127647  46.281  44.929  21.310
 4254DA     SC227648  46.112  44.971  21.131
 4254DA     SC327649  46.296  44.893  20.969
 4254DA     SC427650  46.407  44.877  21.226
 4255DA     BB127651  46.117  44.949  21.894
 4255DA     BB227652  45.810  44.930  21.694
 4255DA     BB327653  45.765  44.727  21.647
 4255DA     SC127654  45.925  44.728  21.380
 4255DA     SC227655  45.876  44.719  21.136
 4255DA     SC327656  46.120  44.644  21.110
 4255DA     SC427657  46.079  44.681  21.385
 4256DC     BB127658  45.597  44.630  21.727
 4256DC     BB227659  45.399  44.623  21.425
 4256DC     BB327660  45.395  44.431  21.348
 4256DC     SC127661  45.642  44.452  21.261
 4256DC     SC227662  45.641  44.460  21.046
 4256DC     SC327663  45.900  44.407  21.233
 4257DA     BB127664  44.986  44.523  21.381
 4257DA     BB227665  45.040  44.391  21.043
 4257DA     BB327666  45.061  44.178  21.049
 4257DA     SC127667  45.370  44.186  21.083
 4257DA     SC227668  45.572  44.129  20.948
 4257DA     SC327669  45.695  44.121  21.173
 4257DA     SC427670  45.429  44.184  21.233
 4258DT     BB127671  44.914  44.032  20.963
 4258DT     BB227672  45.110  43.945  20.674
 4258DT     BB327673  45.180  43.751  20.691
 4258DT     SC127674  45.359  43.823  20.869
 4258DT     SC227675  45.556  43.807  20.782
 4258DT     SC327676  45.489  43.840  21.098
 4259DC     BB127677  45.005  43.648  20.500
 4259DC     BB227678  45.332  43.564  20.374
 4259DC     BB327679  45.390  43.378  20.445
 4259DC     SC127680  45.438  43.476  20.684
 4259DC     SC227681  45.650  43.474  20.720
 4259DC     SC327682  45.419  43.516  20.944
 4260DT     BB127683  45.357  43.275  20.196
 4260DT     BB227684  45.703  43.213  20.278
 4260DT     BB327685  45.721  43.034  20.380
 4260DT     SC127686  45.623  43.141  20.599
 4260DT     SC227687  45.779  43.156  20.747
 4260DT     SC327688  45.462  43.187  20.803
 4261DT     BB127689  45.837  42.943  20.160
 4261DT     BB227690  46.082  42.900  20.422
 4261DT     BB327691  46.047  42.723  20.523
 4261DT     SC127692  45.840  42.825  20.648
 4261DT     SC227693  45.887  42.849  20.856
 4261DT     SC327694  45.591  42.863  20.725
 4262DT     BB127695  46.271  42.660  20.407
 4262DT     BB227696  46.330  42.621  20.761
 4262DT     BB327697  46.252  42.441  20.826
 4262DT     SC127698  46.007  42.534  20.814
 4262DT     SC227699  45.928  42.556  21.013
 4262DT     SC327700  45.755  42.562  20.739
 4263DT     BB127701  46.504  42.382  20.853
 4263DT     BB227702  46.357  42.332  21.179
 4263DT     BB327703  46.260  42.149  21.185
 4263DT     SC127704  46.061  42.241  21.041
 4263DT     SC227705  45.885  42.255  21.163
 4263DT     SC327706  45.893  42.269  20.839
 4264DT     BB127707  46.457  42.069  21.345
 4264DT     BB227708  46.154  42.007  21.532
 4264DT     BB327709  46.072  41.826  21.475
 4264DT     SC127710  45.986  41.926  21.249
 4264DT     SC227711  45.771  41.938  21.253
 4264DT     SC327712  45.958  41.966  20.989
 4265DG     BB127713  46.138  41.800  21.877
 4265DG     BB227714  45.799  41.706  21.793
 4265DG     BB327715  45.797  41.521  21.719
 4265DG     SC127716  45.836  41.610  21.429
 4265DG     SC227717  45.636  41.584  21.209
 4265DG     SC327718  45.898  41.671  21.103
 4265DG     SC427719  45.985  41.628  21.373
 4266DT     BB127720  45.690  41.345  21.820
 4266DT     BB227721  45.402  41.305  21.606
 4266DT     BB327722  45.427  41.139  21.484
 4266DT     SC127723  45.600  41.265  21.333
 4266DT     SC227724  45.512  41.302  21.140
 4266DT     SC327725  45.827  41.327  21.214
 4267DA     BB127726  45.055  41.081  21.671
 4267DA     BB227727  45.008  41.027  21.311
 4267DA     BB327728  45.090  40.839  21.253
 4267DA     SC127729  45.371  40.954  21.187
 4267DA     SC227730  45.511  40.995  20.984
 4267DA     SC327731  45.709  41.000  21.147
 4267DA     SC427732  45.481  40.952  21.304
 4268DT     BB127733  44.965  40.688  21.187
 4268DT     BB227734  45.048  40.716  20.837
 4268DT     BB327735  45.167  40.557  20.780
 4268DT     SC127736  45.376  40.659  20.902
 4268DT     SC227737  45.520  40.724  20.755
 4268DT     SC327738  45.575  40.686  21.072
 4269DA     BB127739  44.847  40.579  20.511
 4269DA     BB227740  45.158  40.558  20.316
 4269DA     BB327741  45.238  40.361  20.326
 4269DA     SC127742  45.413  40.418  20.576
 4269DA     SC227743  45.655  40.440  20.631
 4269DA     SC327744  45.584  40.394  20.873
 4269DA     SC427745  45.349  40.386  20.720
 4270DA     BB127746  45.226  40.412  20.003
 4270DA     BB227747  45.590  40.366  20.005
 4270DA     BB327748  45.639  40.160  20.034
 4270DA     SC127749  45.652  40.181  20.344
 4270DA     SC227750  45.826  40.172  20.522
 4270DA     SC327751  45.631  40.121  20.681
 4270DA     SC427752  45.517  40.149  20.426
 4271DT     BB127753  45.726  40.076  19.884
 4271DT     BB227754  46.056  40.057  20.029
 4271DT     BB327755  46.093  39.865  20.097
 4271DT     SC127756  45.936  39.900  20.304
 4271DT     SC227757  46.055  39.906  20.483
 4271DT     SC327758  45.733  39.868  20.470
 4272DT     BB127759  46.266  39.830  19.892
 4272DT     BB227760  46.460  39.761  20.188
 4272DT     BB327761  46.437  39.563  20.243
 4272DT     SC127762  46.196  39.610  20.337
 4272DT     SC227763  46.198  39.593  20.551
 4272DT     SC327764  45.934  39.599  20.364
 4273DC     BB127765  46.690  39.498  20.158
 4273DC     BB227766  46.685  39.396  20.504
 4273DC     BB327767  46.615  39.201  20.519
 4273DC     SC127768  46.368  39.278  20.473
 4273DC     SC227769  46.252  39.255  20.652
 4273DC     SC327770  46.134  39.302  20.353
 4274DA     BB127771  46.980  39.206  20.726
 4274DA     BB227772  46.731  39.048  20.944
 4274DA     BB327773  46.689  38.850  20.877
 4274DA     SC127774  46.454  38.936  20.691
 4274DA     SC227775  46.206  38.912  20.685
 4274DA     SC327776  46.228  38.964  20.435
 4274DA     SC427777  46.489  38.968  20.538
 4275DT     BB127778  46.742  38.693  20.995
 4275DT     BB227779  46.410  38.614  21.111
 4275DT     BB327780  46.342  38.442  21.019
 4275DT     SC127781  46.300  38.569  20.794
 4275DT     SC227782  46.089  38.584  20.758
 4275DT     SC327783  46.322  38.639  20.540
 4276DA     BB127784  46.291  38.408  21.433
 4276DA     BB227785  45.974  38.318  21.271
 4276DA     BB327786  45.990  38.128  21.177
 4276DA     SC127787  46.083  38.244  20.904
 4276DA     SC227788  45.991  38.269  20.673
 4276DA     SC327789  46.235  38.297  20.600
 4276DA     SC427790  46.241  38.257  20.878
 4277DT     BB127791  45.878  38.012  21.256
 4277DT     BB227792  45.634  37.995  20.990
 4277DT     BB327793  45.668  37.828  20.873
 4277DT     SC127794  45.877  37.939  20.760
 4277DT     SC227795  45.832  37.983  20.554
 4277DT     SC327796  46.127  37.982  20.688
 4278DC     BB127797  45.444  37.753  20.982
 4278DC     BB227798  45.388  37.736  20.626
 4278DC     BB327799  45.469  37.561  20.550
 4278DC     SC127800  45.713  37.656  20.570
 4278DC     SC227801  45.792  37.691  20.374
 4278DC     SC327802  45.963  37.682  20.649
 4279DT     BB127803  45.218  37.489  20.518
 4279DT     BB227804  45.368  37.449  20.192
 4279DT     BB327805  45.469  37.268  20.183
 4279DT     SC127806  45.665  37.361  20.331
 4279DT     SC227807  45.842  37.382  20.210
 4279DT     SC327808  45.831  37.388  20.534
 4280DC     BB127809  45.275  37.162  20.023
 4280DC     BB227810  45.579  37.098  19.841
 4280DC     BB327811  45.664  36.921  19.905
 4280DC     SC127812  45.747  37.032  20.128
 4280DC     SC227813  45.962  37.048  20.124
 4280DC     SC327814  45.773  37.083  20.385
 4281DT     BB127815  45.588  36.742  19.686
 4281DT     BB227816  45.944  36.687  19.709
 4281DT     BB327817  45.982  36.526  19.832
 4281DT     SC127818  45.927  36.666  20.047
 4281DT     SC227819  46.107  36.700  20.159
 4281DT     SC327820  45.805  36.745  20.268
 4282DT     BB127821  46.045  36.305  19.640
 4282DT     BB227822  46.333  36.305  19.857
 4282DT     BB327823  46.309  36.165  20.007
 4282DT     SC127824  46.136  36.317  20.133
 4282DT     SC227825  46.225  36.389  20.315
 4282DT     SC327826  45.910  36.401  20.239
 4283DT     BB127827  46.486  35.947  19.914
 4283DT     BB227828  46.612  36.023  20.243
 4283DT     BB327829  46.528  35.895  20.383
 4283DT     SC127830  46.299  36.023  20.373
 4283DT     SC227831  46.267  36.127  20.559
 4283DT     SC327832  46.043  36.070  20.332
 4284DT     BB127833  46.761  35.740  20.424
 4284DT     BB227834  46.683  35.871  20.750
 4284DT     BB327835  46.561  35.739  20.853
 4284DT     SC127836  46.353  35.807  20.707
 4284DT     SC227837  46.213  35.916  20.830
 4284DT     SC327838  46.152  35.788  20.538
 4285DA     BB127839  46.887  35.834  21.097
 4285DA     BB227840  46.580  35.890  21.289
 4285DA     BB327841  46.493  35.704  21.346
 4285DA     SC127842  46.315  35.682  21.092
 4285DA     SC227843  46.072  35.695  21.034
 4285DA     SC327844  46.137  35.569  20.820
 4285DA     SC427845  46.375  35.602  20.966
 4286DA     BB127846  46.516  35.871  21.624
 4286DA     BB227847  46.151  35.847  21.640
 4286DA     BB327848  46.092  35.647  21.687
 4286DA     SC127849  46.073  35.557  21.389
 4286DA     SC227850  45.895  35.494  21.227
 4286DA     SC327851  46.083  35.379  21.096
 4286DA     SC427852  46.203  35.491  21.323
 4287DC     BB127853  46.007  35.644  21.847
 4287DC     BB227854  45.673  35.594  21.719
 4287DC     BB327855  45.623  35.393  21.729
 4287DC     SC127856  45.777  35.337  21.524
 4287DC     SC227857  45.655  35.284  21.355
 4287DC     SC327858  45.974  35.233  21.382
 4288DG     BB127859  45.348  35.619  21.928
 4288DG     BB227860  45.193  35.398  21.686
 4288DG     BB327861  45.195  35.211  21.755
 4288DG     SC127862  45.467  35.142  21.633
 4288DG     SC227863  45.516  34.946  21.413
 4288DG     SC327864  45.771  35.039  21.530
 4288DG     SC427865  45.600  35.171  21.718
 4289DT     BB127866  45.008  35.110  21.790
 4289DT     BB227867  44.996  34.877  21.515
 4289DT     BB327868  45.050  34.688  21.581
 4289DT     SC127869  45.303  34.756  21.594
 4289DT     SC227870  45.413  34.653  21.440
 4289DT     SC327871  45.541  34.806  21.695
 4290DT     BB127872  44.793  34.608  21.556
 4290DT     BB227873  44.979  34.378  21.350
 4290DT     BB327874  45.050  34.222  21.466
 4290DT     SC127875  45.235  34.374  21.572
 4290DT     SC227876  45.428  34.311  21.501
 4290DT     SC327877  45.373  34.507  21.754
 4291DA     BB127878  44.848  34.051  21.140
 4291DA     BB227879  45.175  33.889  21.167
 4291DA     BB327880  45.179  33.756  21.334
 4291DA     SC127881  45.282  33.970  21.534
 4291DA     SC227882  45.491  34.018  21.661
 4291DA     SC327883  45.342  34.162  21.812
 4291DA     SC427884  45.172  34.053  21.617
 4292DA     BB127885  45.276  33.549  21.099
 4292DA     BB227886  45.588  33.511  21.289
 4292DA     BB327887  45.555  33.389  21.460
 4292DA     SC127888  45.484  33.628  21.647
 4292DA     SC227889  45.586  33.747  21.841
 4292DA     SC327890  45.348  33.830  21.888
 4292DA     SC427891  45.329  33.668  21.661
 4293DA     BB127892  45.807  33.223  21.330
 4293DA     BB227893  45.991  33.297  21.639
 4293DA     BB327894  45.923  33.172  21.798
 4293DA     SC127895  45.705  33.373  21.894
 4293DA     SC227896  45.665  33.521  22.090
 4293DA     SC327897  45.419  33.517  22.017
 4293DA     SC427898  45.557  33.357  21.833
 4294DT     BB127899  46.050  33.033  21.875
 4294DT     BB227900  46.118  33.205  22.185
 4294DT     BB327901  46.018  33.112  22.341
 4294DT     SC127902  45.788  33.214  22.263
 4294DT     SC227903  45.723  33.361  22.406
 4294DT     SC327904  45.541  33.228  22.174
 4295DA     BB127905  46.419  33.140  22.458
 4295DA     BB227906  46.213  33.267  22.733
 4295DA     BB327907  46.116  33.106  22.834
 4295DA     SC127908  45.861  33.116  22.655
 4295DA     SC227909  45.621  33.179  22.678
 4295DA     SC327910  45.584  33.036  22.469
 4295DA     SC427911  45.859  33.021  22.525
 4296DA     BB127912  46.259  33.242  23.097
 4296DA     BB227913  45.921  33.296  23.230
 4296DA     BB327914  45.841  33.113  23.305
 4296DA     SC127915  45.709  33.032  23.035
 4296DA     SC227916  45.478  33.010  22.942
 4296DA     SC327917  45.587  32.859  22.765
 4296DA     SC427918  45.794  32.940  22.935
 4297DC     BB127919  45.806  33.094  23.506
 4297DC     BB227920  45.447  33.124  23.489
 4297DC     BB327921  45.360  32.939  23.520
 4297DC     SC127922  45.426  32.858  23.279
 4297DC     SC227923  45.250  32.840  23.158
 4297DC     SC327924  45.542  32.719  23.087
 4298DC     BB127925  45.276  33.024  23.762
 4298DC     BB227926  44.974  32.927  23.589
 4298DC     BB327927  44.940  32.725  23.615
 4298DC     SC127928  45.131  32.663  23.446
 4298DC     SC227929  45.044  32.581  23.267
 4298DC     SC327930  45.356  32.565  23.351
 4299DT     BB127931  44.736  32.796  23.771
 4299DT     BB227932  44.590  32.592  23.511
 4299DT     BB327933  44.606  32.391  23.561
 4299DT     SC127934  44.863  32.391  23.504
 4299DT     SC227935  44.896  32.274  23.326
 4299DT     SC327936  45.124  32.372  23.535
 4300DT     BB127937  44.345  32.402  23.594
 4300DT     BB227938  44.398  32.142  23.350
 4300DT     BB327939  44.446  31.964  23.445
 4300DT     SC127940  44.688  32.049  23.499
 4300DT     SC227941  44.831  31.939  23.382
 4300DT     SC327942  44.899  32.125  23.638
 4301DG     BB127943  44.121  31.907  23.206
 4301DG     BB227944  44.377  31.658  23.145
 4301DG     BB327945  44.377  31.523  23.291
 4301DG     SC127946  44.577  31.676  23.465
 4301DG     SC227947  44.854  31.588  23.532
 4301DG     SC327948  44.778  31.826  23.691
 4301DG     SC427949  44.522  31.785  23.569
 4302DT     BB127950  44.334  31.320  23.243
 4302DT     BB227951  44.656  31.162  23.277
 4302DT     BB327952  44.668  31.064  23.459
 4302DT     SC127953  44.697  31.292  23.587
 4302DT     SC227954  44.898  31.305  23.664
 4302DT     SC327955  44.648  31.492  23.751
 4303DA     BB127956  44.773  30.774  23.173
 4303DA     BB227957  45.022  30.760  23.441
 4303DA     BB327958  44.940  30.667  23.615
 4303DA     SC127959  44.839  30.934  23.739
 4303DA     SC227960  44.896  31.080  23.933
 4303DA     SC327961  44.660  31.176  23.904
 4303DA     SC427962  44.689  30.980  23.706
 4304DC     BB127963  45.003  30.472  23.690
 4304DC     BB227964  45.185  30.591  23.977
 4304DC     BB327965  45.081  30.547  24.151
 4304DC     SC127966  44.907  30.738  24.104
 4304DC     SC227967  44.933  30.895  24.248
 4304DC     SC327968  44.677  30.857  24.052
 4305DA     BB127969  45.456  30.373  24.229
 4305DA     BB227970  45.368  30.575  24.522
 4305DA     BB327971  45.223  30.474  24.642
 4305DA     SC127972  44.979  30.599  24.497
 4305DA     SC227973  44.798  30.764  24.548
 4305DA     SC327974  44.673  30.656  24.352
 4305DA     SC427975  44.916  30.518  24.373
 4306DT     BB127976  45.261  30.392  24.848
 4306DT     BB227977  45.083  30.650  25.025
 4306DT     BB327978  44.910  30.572  25.108
 4306DT     SC127979  44.792  30.565  24.873
 4306DT     SC227980  44.635  30.712  24.868
 4306DT     SC327981  44.675  30.469  24.657
 4307DG     BB127982  45.116  30.711  25.433
 4307DG     BB227983  44.782  30.850  25.422
 4307DG     BB327984  44.652  30.721  25.497
 4307DG     SC127985  44.595  30.584  25.229
 4307DG     SC227986  44.337  30.590  25.080
 4307DG     SC327987  44.525  30.398  24.957
 4307DG     SC427988  44.688  30.461  25.184
 4308DT     BB127989  44.529  30.766  25.683
 4308DT     BB227990  44.209  30.839  25.535
 4308DT     BB327991  44.078  30.682  25.568
 4308DT     SC127992  44.197  30.533  25.388
 4308DT     SC227993  44.067  30.508  25.219
 4308DT     SC327994  44.333  30.334  25.282
 4309DT     BB127995  43.950  30.847  25.734
 4309DT     BB227996  43.705  30.753  25.486
 4309DT     BB327997  43.617  30.574  25.539
 4309DT     SC127998  43.831  30.439  25.468
 4309DT     SC227999  43.789  30.324  25.291
 4309DT     SC328000  44.045  30.285  25.486
 4310DA     BB128001  43.335  30.866  25.439
 4310DA     BB228002  43.254  30.559  25.256
 4310DA     BB328003  43.182  30.410  25.390
 4310DA     SC128004  43.463  30.289  25.445
 4310DA     SC228005  43.587  30.079  25.393
 4310DA     SC328006  43.739  30.144  25.590
 4310DA     SC428007  43.545  30.346  25.571
 4311DC     BB128008  43.012  30.372  25.348
 4311DC     BB228009  43.070  30.045  25.206
 4311DC     BB328010  43.033  29.899  25.348
 4311DC     SC128011  43.258  29.953  25.473
 4311DC     SC228012  43.395  29.790  25.446
 4311DC     SC328013  43.424  30.029  25.663
 4312DT     BB128014  42.826  29.846  25.196
 4312DT     BB228015  43.008  29.536  25.221
 4312DT     BB328016  42.963  29.442  25.399
 4312DT     SC128017  43.111  29.611  25.535
 4312DT     SC228018  43.285  29.510  25.610
 4312DT     SC328019  43.178  29.800  25.706
 4313DC     BB128020  42.820  29.258  25.263
 4313DC     BB228021  43.059  29.064  25.452
 4313DC     BB328022  42.986  29.028  25.642
 4313DC     SC128023  43.034  29.275  25.716
 4313DC     SC228024  43.196  29.277  25.858
 4313DC     SC328025  42.992  29.522  25.798
 4314DA     BB128026  43.090  28.650  25.491
 4314DA     BB228027  43.236  28.680  25.826
 4314DA     BB328028  43.085  28.660  25.975
 4314DA     SC128029  43.024  28.965  25.988
 4314DA     SC228030  43.056  29.153  26.148
 4314DA     SC328031  42.872  29.272  26.015
 4314DA     SC428032  42.907  29.022  25.893
 4315DA     BB128033  43.284  28.424  26.089
 4315DA     BB228034  43.316  28.624  26.395
 4315DA     BB328035  43.141  28.604  26.516
 4315DA     SC128036  42.994  28.845  26.387
 4315DA     SC228037  42.924  29.075  26.454
 4315DA     SC328038  42.758  29.059  26.259
 4315DA     SC428039  42.897  28.816  26.263
 4316DT     BB128040  43.165  28.515  26.691
 4316DT     BB228041  43.143  28.813  26.892
 4316DT     BB328042  42.958  28.823  26.985
 4316DT     SC128043  42.840  28.891  26.760
 4316DT     SC228044  42.775  29.095  26.772
 4316DT     SC328045  42.681  28.879  26.550
 4317DC     BB128046  43.096  28.778  27.203
 4317DC     BB228047  42.925  29.091  27.260
 4317DC     BB328048  42.731  29.054  27.322
 4317DC     SC128049  42.658  28.987  27.079
 4317DC     SC228050  42.526  29.138  27.000
 4317DC     SC328051  42.570  28.841  26.878
 4318DA     BB128052  42.932  29.337  27.561
 4318DA     BB228053  42.601  29.468  27.477
 4318DA     BB328054  42.449  29.354  27.573
 4318DA     SC128055  42.416  29.153  27.338
 4318DA     SC228056  42.245  29.098  27.165
 4318DA     SC328057  42.367  28.873  27.146
 4318DA     SC428058  42.504  29.019  27.342
 4319DT     BB128059  42.361  29.457  27.690
 4319DT     BB228060  42.047  29.480  27.514
 4319DT     BB328061  41.916  29.337  27.586
 4319DT     SC128062  42.044  29.146  27.460
 4319DT     SC228063  41.921  29.072  27.299
 4319DT     SC328064  42.185  28.927  27.419
 4320DG     BB128065  41.726  29.695  27.643
 4320DG     BB228066  41.506  29.456  27.483
 4320DG     BB328067  41.437  29.327  27.618
 4320DG     SC128068  41.667  29.129  27.582
 4320DG     SC228069  41.646  28.854  27.467
 4320DG     SC328070  41.914  28.899  27.582
 4320DG     SC428071  41.800  29.146  27.670
 4321DT     BB128072  41.203  29.293  27.706
 4321DT     BB228073  41.113  28.980  27.550
 4321DT     BB328074  41.110  28.829  27.692
 4321DT     SC128075  41.372  28.821  27.702
 4321DT     SC228076  41.441  28.637  27.615
 4321DT     SC328077  41.617  28.839  27.797
 4322DT     BB128078  40.820  28.795  27.737
 4322DT     BB228079  40.928  28.461  27.654
 4322DT     BB328080  40.968  28.355  27.827
 4322DT     SC128081  41.193  28.485  27.864
 4322DT     SC228082  41.359  28.352  27.832
 4322DT     SC328083  41.373  28.642  27.976
 4323DA     BB128084  40.689  28.100  27.642
 4323DA     BB228085  40.978  27.893  27.732
 4323DA     BB328086  40.973  27.847  27.941
 4323DA     SC128087  41.140  28.096  28.024
 4323DA     SC228088  41.368  28.143  28.114
 4323DA     SC328089  41.269  28.368  28.189
 4323DA     SC428090  41.060  28.229  28.064
 4324DA     BB128091  40.992  27.533  27.839
 4324DA     BB228092  41.315  27.514  28.013
 4324DA     BB328093  41.285  27.490  28.222
 4324DA     SC128094  41.284  27.795  28.283
 4324DA     SC228095  41.430  27.961  28.398
 4324DA     SC328096  41.220  28.107  28.412
 4324DA     SC428097  41.142  27.870  28.283
 4325DT     BB128098  41.343  27.315  28.310
 4325DT     BB228099  41.637  27.446  28.474
 4325DT     BB328100  41.602  27.466  28.677
 4325DT     SC128101  41.452  27.678  28.638
 4325DT     SC228102  41.554  27.852  28.713
 4325DT     SC328103  41.240  27.835  28.634
 4326DC     BB128104  41.765  27.254  28.729
 4326DC     BB228105  41.906  27.525  28.921
 4326DC     BB328106  41.814  27.536  29.106
 4326DC     SC128107  41.597  27.640  29.001
 4326DC     SC228108  41.580  27.846  29.062
 4326DC     SC328109  41.346  27.667  28.927
 4327DT     BB128110  42.034  27.433  29.241
 4327DT     BB228111  41.972  27.749  29.403
 4327DT     BB328112  41.838  27.724  29.559
 4327DT     SC128113  41.637  27.699  29.392
 4327DT     SC228114  41.509  27.871  29.408
 4327DT     SC328115  41.434  27.592  29.263
 4328DA     BB128116  42.163  27.908  29.756
 4328DA     BB228117  41.861  28.095  29.847
 4328DA     BB328118  41.750  27.990  29.995
 4328DA     SC128119  41.577  27.834  29.789
 4328DA     SC228120  41.339  27.831  29.713
 4328DA     SC328121  41.392  27.596  29.624
 4328DA     SC428122  41.629  27.690  29.742
 4329DT     BB128123  41.716  28.054  30.220
 4329DT     BB228124  41.378  28.169  30.167
 4329DT     BB328125  41.245  28.047  30.268
 4329DT     SC128126  41.274  27.856  30.090
 4329DT     SC228127  41.093  27.836  29.976
 4329DT     SC328128  41.336  27.622  29.985
 4330DG     BB128129  41.188  28.420  30.419
 4330DG     BB228130  40.884  28.285  30.276
 4330DG     BB328131  40.796  28.164  30.406
 4330DG     SC128132  40.944  27.913  30.310
 4330DG     SC228133  40.820  27.678  30.173
 4330DG     SC328134  41.102  27.623  30.244
 4330DG     SC428135  41.085  27.876  30.376
 4331DT     BB128136  40.616  28.227  30.443
 4331DT     BB228137  40.426  27.999  30.237
 4331DT     BB328138  40.348  27.848  30.353
 4331DT     SC128139  40.582  27.731  30.374
 4331DT     SC228140  40.580  27.547  30.263
 4331DT     SC328141  40.803  27.635  30.482
 4332DT     BB128142  40.172  27.991  30.239
 4332DT     BB228143  40.134  27.655  30.113
 4332DT     BB328144  40.062  27.531  30.262
 4332DT     SC128145  40.294  27.527  30.383
 4332DT     SC228146  40.381  27.331  30.365
 4332DT     SC328147  40.479  27.563  30.568
 4333DA     BB128148  39.916  27.506  29.858
 4333DA     BB228149  39.981  27.170  29.990
 4333DA     BB328150  39.854  27.131  30.157
 4333DA     SC128151  40.057  27.239  30.367
 4333DA     SC228152  40.203  27.147  30.547
 4333DA     SC328153  40.206  27.387  30.639
 4333DA     SC428154  40.046  27.394  30.409
 4334DT     BB128155  39.763  27.002  30.103
 4334DT     BB228156  39.902  26.749  30.320
 4334DT     BB328157  39.794  26.740  30.496
 4334DT     SC128158  39.902  26.963  30.583
 4334DT     SC228159  40.034  26.919  30.747
 4334DT     SC328160  39.925  27.213  30.664
 4335DA     BB128161  39.833  26.352  30.338
 4335DA     BB228162  39.911  26.339  30.696
 4335DA     BB328163  39.734  26.368  30.812
 4335DA     SC128164  39.766  26.677  30.828
 4335DA     SC228165  39.819  26.848  31.002
 4335DA     SC328166  39.710  27.016  30.841
 4335DA     SC428167  39.693  26.766  30.715
 4336DA     BB128168  39.832  26.086  30.949
 4336DA     BB228169  39.846  26.267  31.268
 4336DA     BB328170  39.649  26.300  31.343
 4336DA     SC128171  39.615  26.575  31.202
 4336DA     SC228172  39.601  26.816  31.267
 4336DA     SC328173  39.491  26.850  31.038
 4336DA     SC428174  39.547  26.576  31.056
 4337DC     BB128175  39.593  26.207  31.514
 4337DC     BB228176  39.603  26.497  31.729
 4337DC     BB328177  39.411  26.561  31.770
 4337DC     SC128178  39.384  26.662  31.530
 4337DC     SC228179  39.379  26.877  31.543
 4337DC     SC328180  39.293  26.701  31.285
 4338DT     BB128181  39.449  26.471  32.019
 4338DT     BB228182  39.364  26.820  32.057
 4338DT     BB328183  39.158  26.843  32.058
 4338DT     SC128184  39.145  26.804  31.799
 4338DT     SC228185  39.091  26.988  31.702
 4338DT     SC328186  39.085  26.694  31.567
 4339DA     BB128187  39.326  27.044  32.385
 4339DA     BB228188  39.087  27.270  32.222
 4339DA     BB328189  38.887  27.203  32.255
 4339DA     SC128190  38.877  27.027  31.999
 4339DA     SC228191  38.762  27.029  31.778
 4339DA     SC328192  38.816  26.778  31.771
 4339DA     SC428193  38.919  26.872  32.014
 4340DA     BB128194  38.869  27.518  32.350
 4340DA     BB228195  38.604  27.557  32.099
 4340DA     BB328196  38.427  27.455  32.162
 4340DA     SC128197  38.503  27.187  32.023
 4340DA     SC228198  38.425  27.051  31.829
 4340DA     SC328199  38.545  26.856  31.944
 4340DA     SC428200  38.582  27.078  32.111
 4341DG     BB128201  38.281  27.736  32.154
 4341DG     BB228202  38.072  27.577  31.905
 4341DG     BB328203  37.931  27.469  31.994
 4341DG     SC128204  38.099  27.213  32.006
 4341DG     SC228205  38.044  26.961  31.856
 4341DG     SC328206  38.261  26.922  32.054
 4341DG     SC428207  38.193  27.188  32.133
 4342DA     BB128208  37.648  27.623  31.830
 4342DA     BB228209  37.540  27.302  31.690
 4342DA     BB328210  37.430  27.191  31.835
 4342DA     SC128211  37.679  27.044  31.949
 4342DA     SC228212  37.773  26.813  31.950
 4342DA     SC328213  37.910  26.891  32.152
 4342DA     SC428214  37.755  27.112  32.074
 4343DT     BB128215  37.182  27.132  31.853
 4343DT     BB228216  37.220  26.784  31.766
 4343DT     BB328217  37.171  26.665  31.928
 4343DT     SC128218  37.396  26.723  32.049
 4343DT     SC228219  37.522  26.548  32.053
 4343DT     SC328220  37.563  26.817  32.230
 4344DA     BB128221  36.888  26.497  31.657
 4344DA     BB228222  37.071  26.214  31.802
 4344DA     BB328223  36.991  26.164  31.993
 4344DA     SC128224  37.182  26.352  32.150
 4344DA     SC228225  37.374  26.331  32.307
 4344DA     SC328226  37.318  26.572  32.376
 4344DA     SC428227  37.130  26.502  32.180
 4345DA     BB128228  36.936  25.849  31.889
 4345DA     BB228229  37.184  25.739  32.135
 4345DA     BB328230  37.093  25.715  32.327
 4345DA     SC128231  37.150  26.007  32.418
 4345DA     SC228232  37.297  26.124  32.582
 4345DA     SC328233  37.133  26.320  32.558
 4345DA     SC428234  37.037  26.117  32.390
 4346DT     BB128235  37.073  25.520  32.424
 4346DT     BB228236  37.347  25.571  32.654
 4346DT     BB328237  37.275  25.591  32.847
 4346DT     SC128238  37.189  25.834  32.797
 4346DT     SC228239  37.309  25.975  32.906
 4346DT     SC328240  37.024  26.037  32.765
 4347DG     BB128241  37.540  25.284  32.834
 4347DG     BB228242  37.632  25.531  33.081
 4347DG     BB328243  37.521  25.508  33.245
 4347DG     SC128244  37.299  25.696  33.150
 4347DG     SC228245  37.229  25.960  33.272
 4347DG     SC328246  37.028  25.881  33.070
 4347DG     SC428247  37.179  25.637  33.063
 4348DT     BB128248  37.632  25.471  33.406
 4348DT     BB228249  37.617  25.787  33.578
 4348DT     BB328250  37.473  25.779  33.727
 4348DT     SC128251  37.279  25.795  33.552
 4348DT     SC228252  37.181  25.986  33.570
 4348DT     SC328253  37.067  25.728  33.410
 4349DT     BB128254  37.691  25.800  33.863
 4349DT     BB228255  37.488  26.082  33.958
 4349DT     BB328256  37.341  26.022  34.090
 4349DT     SC128257  37.203  25.908  33.898
 4349DT     SC228258  37.022  26.020  33.864
 4349DT     SC328259  37.084  25.721  33.756
 4350DA     BB128260  37.549  26.374  34.198
 4350DA     BB228261  37.189  26.428  34.244
 4350DA     BB328262  37.115  26.305  34.402
 4350DA     SC128263  37.043  26.067  34.215
 4350DA     SC228264  36.837  25.955  34.130
 4350DA     SC328265  36.990  25.755  34.081
 4350DA     SC428266  37.154  25.953  34.194
 4351DT     BB128267  37.058  26.410  34.532
 4351DT     BB228268  36.705  26.347  34.501
 4351DT     BB328269  36.648  26.197  34.632
 4351DT     SC128270  36.757  26.012  34.482
 4351DT     SC228271  36.603  25.892  34.393
 4351DT     SC328272  36.918  25.818  34.405
 4352DA     BB128273  36.386  26.525  34.681
 4352DA     BB228274  36.186  26.218  34.669
 4352DA     BB328275  36.216  26.102  34.845
 4352DA     SC128276  36.452  25.938  34.726
 4352DA     SC228277  36.496  25.704  34.653
 4352DA     SC328278  36.744  25.763  34.680
 4352DA     SC428279  36.601  25.994  34.751
 4353DA     BB128280  35.884  26.110  34.887
 4353DA     BB228281  35.887  25.744  34.871
 4353DA     BB328282  35.955  25.662  35.056
 4353DA     SC128283  36.254  25.656  34.971
 4353DA     SC228284  36.427  25.485  34.915
 4353DA     SC328285  36.597  25.670  34.965
 4353DA     SC428286  36.344  25.784  35.008
 4354DT     BB128287  35.830  25.544  35.208
 4354DT     BB228288  35.970  25.220  35.134
 4354DT     BB328289  36.086  25.155  35.293
 4354DT     SC128290  36.278  25.322  35.230
 4354DT     SC228291  36.448  25.211  35.157
 4354DT     SC328292  36.449  25.522  35.249
 4355DA     BB128293  35.817  24.836  35.240
 4355DA     BB228294  36.154  24.693  35.249
 4355DA     BB328295  36.226  24.686  35.450
 4355DA     SC128296  36.358  24.967  35.439
 4355DA     SC228297  36.589  25.063  35.437
 4355DA     SC328298  36.477  25.281  35.513
 4355DA     SC428299  36.270  25.093  35.487
 4356DA     BB128300  36.271  24.370  35.377
 4356DA     BB228301  36.629  24.428  35.429
 4356DA     BB328302  36.674  24.435  35.638
 4356DA     SC128303  36.633  24.743  35.660
 4356DA     SC228304  36.773  24.946  35.697
 4356DA     SC328305  36.554  25.060  35.767
 4356DA     SC428306  36.486  24.796  35.701
 4357DA     BB128307  36.885  24.214  35.527
 4357DA     BB228308  37.148  24.441  35.641
 4357DA     BB328309  37.160  24.440  35.854
 4357DA     SC128310  36.958  24.673  35.892
 4357DA     SC228311  36.963  24.911  35.967
 4357DA     SC328312  36.711  24.882  36.008
 4357DA     SC428313  36.803  24.635  35.912
 4358DA     BB128314  37.466  24.385  35.756
 4358DA     BB228315  37.554  24.691  35.938
 4358DA     BB328316  37.541  24.658  36.148
 4358DA     SC128317  37.244  24.745  36.169
 4358DA     SC228318  37.113  24.935  36.264
 4358DA     SC328319  36.912  24.776  36.254
 4358DA     SC428320  37.131  24.631  36.156
 4359DA     BB128321  37.842  24.785  36.111
 4359DA     BB228322  37.732  25.051  36.337
 4359DA     BB328323  37.712  24.976  36.536
 4359DA     SC128324  37.412  24.898  36.502
 4359DA     SC228325  37.191  24.976  36.586
 4359DA     SC328326  37.107  24.743  36.518
 4359DA     SC428327  37.380  24.748  36.454
 4360DT     BB128328  37.837  25.045  36.673
 4360DT     BB228329  37.601  25.249  36.855
 4360DT     BB328330  37.544  25.153  37.029
 4360DT     SC128331  37.392  24.986  36.896
 4360DT     SC228332  37.185  25.028  36.938
 4360DT     SC328333  37.299  24.760  36.797
 4361DG     BB128334  37.711  25.500  37.174
 4361DG     BB228335  37.382  25.448  37.315
 4361DG     BB328336  37.392  25.319  37.466
 4361DG     SC128337  37.348  25.072  37.291
 4361DG     SC228338  37.109  24.893  37.297
 4361DG     SC328339  37.322  24.779  37.127
 4361DG     SC428340  37.475  25.000  37.225
 4362DT     BB128341  37.345  25.362  37.701
 4362DT     BB228342  37.022  25.203  37.732
 4362DT     BB328343  37.040  25.029  37.842
 4362DT     SC128344  37.152  24.903  37.641
 4362DT     SC228345  37.016  24.754  37.566
 4362DT     SC328346  37.333  24.775  37.499
 4363DG     BB128347  36.774  25.255  38.056
 4363DG     BB228348  36.637  24.929  37.980
 4363DG     BB328349  36.707  24.794  38.109
 4363DG     SC128350  36.952  24.723  37.939
 4363DG     SC228351  37.002  24.461  37.805
 4363DG     SC328352  37.240  24.635  37.788
 4363DG     SC428353  37.086  24.807  37.957
 4364DT     BB128354  36.570  24.686  38.240
 4364DT     BB228355  36.558  24.365  38.076
 4364DT     BB328356  36.672  24.228  38.181
 4364DT     SC128357  36.895  24.335  38.093
 4364DT     SC228358  36.990  24.198  37.956
 4364DT     SC328359  37.128  24.458  38.092
 4365DC     BB128360  36.441  24.118  38.243
 4365DC     BB228361  36.627  23.859  38.074
 4365DC     BB328362  36.756  23.767  38.207
 4365DC     SC128363  36.919  23.972  38.205
 4365DC     SC228364  37.101  23.918  38.105
 4365DC     SC328365  37.057  24.180  38.290
 4366DT     BB128366  36.592  23.566  38.174
 4366DT     BB228367  36.918  23.442  38.079
 4366DT     BB328368  37.025  23.391  38.248
 4366DT     SC128369  37.069  23.643  38.307
 4366DT     SC228370  37.277  23.688  38.278
 4366DT     SC328371  37.064  23.871  38.438
 4367DA     BB128372  37.036  23.079  37.965
 4367DA     BB228373  37.377  23.138  38.086
 4367DA     BB328374  37.396  23.075  38.289
 4367DA     SC128375  37.319  23.352  38.408
 4367DA     SC228376  37.431  23.537  38.531
 4367DA     SC328377  37.194  23.606  38.602
 4367DA     SC428378  37.164  23.377  38.442
 4368DA     BB128379  37.648  22.908  38.158
 4368DA     BB228380  37.864  23.089  38.392
 4368DA     BB328381  37.838  23.015  38.590
 4368DA     SC128382  37.612  23.217  38.661
 4368DA     SC228383  37.581  23.416  38.809
 4368DA     SC328384  37.330  23.369  38.785
 4368DA     SC428385  37.460  23.171  38.635
 4369DC     BB128386  37.990  22.910  38.693
 4369DC     BB228387  38.079  23.173  38.923
 4369DC     BB328388  38.008  23.128  39.112
 4369DC     SC128389  37.762  23.186  39.043
 4369DC     SC228390  37.700  23.367  39.143
 4369DC     SC328391  37.505  23.157  38.991
 4370DG     BB128392  38.413  23.150  39.181
 4370DG     BB228393  38.232  23.363  39.410
 4370DG     BB328394  38.162  23.255  39.562
 4370DG     SC128395  37.896  23.189  39.425
 4370DG     SC228396  37.627  23.284  39.511
 4370DG     SC328397  37.604  23.081  39.297
 4370DG     SC428398  37.887  23.059  39.332
 4371DC     BB128399  38.224  23.273  39.799
 4371DC     BB228400  37.934  23.448  39.924
 4371DC     BB328401  37.820  23.321  40.042
 4371DC     SC128402  37.730  23.194  39.831
 4371DC     SC228403  37.521  23.237  39.805
 4371DC     SC328404  37.684  22.998  39.660
 4372DT     BB128405  37.895  23.452  40.273
 4372DT     BB228406  37.536  23.480  40.265
 4372DT     BB328407  37.450  23.316  40.360
 4372DT     SC128408  37.505  23.160  40.156
 4372DT     SC228409  37.321  23.106  40.057
 4372DT     SC328410  37.610  22.964  40.015
 4373DA     BB128411  37.288  23.671  40.511
 4373DA     BB228412  37.012  23.449  40.420
 4373DA     BB328413  36.998  23.287  40.558
 4373DA     SC128414  37.186  23.100  40.395
 4373DA     SC228415  37.167  22.891  40.261
 4373DA     SC328416  37.420  22.868  40.299
 4373DA     SC428417  37.343  23.103  40.432
 4374DT     BB128418  36.839  23.291  40.654
 4374DT     BB228419  36.678  23.014  40.487
 4374DT     BB328420  36.695  22.843  40.602
 4374DT     SC128421  36.948  22.815  40.539
 4374DT     SC228422  36.971  22.643  40.412
 4374DT     SC328423  37.210  22.801  40.565
 4375DT     BB128424  36.433  22.867  40.649
 4375DT     BB228425  36.472  22.536  40.509
 4375DT     BB328426  36.525  22.402  40.658
 4375DT     SC128427  36.770  22.496  40.666
 4375DT     SC228428  36.906  22.349  40.588
 4375DT     SC328429  36.989  22.611  40.758
 4376DC     BB128430  36.276  22.289  40.655
 4376DC     BB228431  36.500  22.012  40.599
 4376DC     BB328432  36.561  21.933  40.780
 4376DC     SC128433  36.722  22.135  40.822
 4376DC     SC228434  36.926  22.068  40.808
 4376DC     SC328435  36.827  22.350  40.935
 4377DT     BB128436  36.402  21.704  40.759
 4377DT     BB228437  36.735  21.574  40.805
 4377DT     BB328438  36.774  21.550  41.007
 4377DT     SC128439  36.803  21.809  41.040
 4377DT     SC228440  37.010  21.853  41.080
 4377DT     SC328441  36.760  22.054  41.126
 4378DC     BB128442  36.754  21.269  41.005
 4378DC     BB228443  37.085  21.332  41.134
 4378DC     BB328444  37.079  21.345  41.340
 4378DC     SC128445  36.970  21.583  41.330
 4378DC     SC228446  37.112  21.730  41.398
 4378DC     SC328447  36.794  21.777  41.360
 4379DT     BB128448  37.203  21.100  41.372
 4379DT     BB228449  37.420  21.334  41.540
 4379DT     BB328450  37.364  21.353  41.738
 4379DT     SC128451  37.155  21.498  41.673
 4379DT     SC228452  37.185  21.700  41.739
 4379DT     SC328453  36.903  21.571  41.643
 4380DG     BB128454  37.753  21.243  41.708
 4380DG     BB228455  37.712  21.544  41.905
 4380DG     BB328456  37.644  21.498  42.086
 4380DG     SC128457  37.349  21.517  42.008
 4380DG     SC228458  37.154  21.721  42.106
 4380DG     SC328459  37.016  21.510  41.951
 4380DG     SC428460  37.275  21.387  41.950
 4381DA     BB128461  37.905  21.709  42.142
 4381DA     BB228462  37.675  21.930  42.324
 4381DA     BB328463  37.613  21.838  42.506
 4381DA     SC128464  37.363  21.701  42.380
 4381DA     SC228465  37.115  21.724  42.392
 4381DA     SC328466  37.110  21.484  42.300
 4381DA     SC428467  37.381  21.551  42.324
 4382DT     BB128468  37.672  21.946  42.617
 4382DT     BB228469  37.356  22.081  42.726
 4382DT     BB328470  37.283  21.970  42.885
 4382DT     SC128471  37.215  21.773  42.726
 4382DT     SC228472  37.000  21.761  42.714
 4382DT     SC328473  37.208  21.533  42.617
 4383DT     BB128474  37.339  22.185  43.027
 4383DT     BB228475  36.991  22.117  43.095
 4383DT     BB328476  36.975  21.970  43.240
 4383DT     SC128477  37.043  21.783  43.069
 4383DT     SC228478  36.872  21.658  43.028
 4383DT     SC328479  37.180  21.589  42.955
 4384DA     BB128480  36.739  22.286  43.387
 4384DA     BB228481  36.545  21.978  43.426
 4384DA     BB328482  36.622  21.862  43.587
 4384DA     SC128483  36.820  21.700  43.410
 4384DA     SC228484  36.844  21.467  43.326
 4384DA     SC328485  37.090  21.528  43.288
 4384DA     SC428486  36.969  21.757  43.395
 4385DA     BB128487  36.317  21.861  43.734
 4385DA     BB228488  36.315  21.496  43.705
 4385DA     BB328489  36.427  21.408  43.863
 4385DA     SC128490  36.696  21.407  43.706
 4385DA     SC228491  36.848  21.239  43.602
 4385DA     SC328492  37.026  21.423  43.614
 4385DA     SC428493  36.792  21.534  43.723
 4386DG     BB128494  36.172  21.253  43.988
 4386DG     BB228495  36.353  20.956  43.890
 4386DG     BB328496  36.469  20.895  44.039
 4386DG     SC128497  36.711  21.062  43.951
 4386DG     SC228498  36.970  20.955  43.849
 4386DG     SC328499  36.987  21.246  43.895
 4386DG     SC428500  36.725  21.212  44.005
 4387DA     BB128501  36.327  20.577  44.023
 4387DA     BB228502  36.653  20.433  43.934
 4387DA     BB328503  36.771  20.404  44.109
 4387DA     SC128504  36.905  20.685  44.095
 4387DA     SC228505  37.131  20.779  44.046
 4387DA     SC328506  37.047  20.988  44.170
 4387DA     SC428507  36.835  20.804  44.176
 4388DC     BB128508  36.813  20.218  44.153
 4388DC     BB228509  37.156  20.228  44.039
 4388DC     BB328510  37.284  20.235  44.201
 4388DC     SC128511  37.226  20.487  44.246
 4388DC     SC228512  37.397  20.608  44.199
 4388DC     SC328513  37.137  20.703  44.368
 4389DA     BB128514  37.386  19.951  43.910
 4389DA     BB228515  37.684  20.148  43.992
 4389DA     BB328516  37.750  20.104  44.191
 4389DA     SC128517  37.579  20.328  44.323
 4389DA     SC228518  37.617  20.547  44.437
 4389DA     SC328519  37.383  20.513  44.536
 4389DA     SC428520  37.432  20.289  44.375
 4390DT     BB128521  37.902  20.042  44.163
 4390DT     BB228522  38.093  20.317  44.298
 4390DT     BB328523  38.129  20.285  44.500
 4390DT     SC128524  37.882  20.345  44.562
 4390DT     SC228525  37.878  20.533  44.667
 4390DT     SC328526  37.635  20.319  44.651
 4391DT     BB128527  38.373  20.255  44.412
 4391DT     BB228528  38.396  20.506  44.670
 4391DT     BB328529  38.396  20.415  44.857
 4391DT     SC128530  38.138  20.366  44.841
 4391DT     SC228531  38.033  20.489  44.982
 4391DT     SC328532  37.912  20.231  44.828
 4392DA     BB128533  38.732  20.667  44.856
 4392DA     BB228534  38.561  20.713  45.177
 4392DA     BB328535  38.592  20.543  45.302
 4392DA     SC128536  38.338  20.393  45.203
 4392DA     SC228537  38.115  20.327  45.293
 4392DA     SC328538  38.112  20.154  45.103
 4392DA     SC428539  38.356  20.291  45.079
 4393DA     BB128540  38.711  20.750  45.537
 4393DA     BB228541  38.448  20.631  45.763
 4393DA     BB328542  38.501  20.442  45.845
 4393DA     SC128543  38.364  20.278  45.619
 4393DA     SC228544  38.166  20.129  45.593
 4393DA     SC328545  38.285  20.041  45.383
 4393DA     SC428546  38.455  20.235  45.493
 4394DA     BB128547  38.464  20.566  46.157
 4394DA     BB228548  38.203  20.315  46.217
 4394DA     BB328549  38.291  20.127  46.268
 4394DA     SC128550  38.303  20.026  45.974
 4394DA     SC228551  38.190  19.854  45.833
 4394DA     SC328552  38.393  19.877  45.678
 4394DA     SC428553  38.438  20.054  45.891
 4395DA     BB128554  38.115  20.120  46.555
 4395DA     BB228555  37.953  19.812  46.439
 4395DA     BB328556  38.079  19.644  46.477
 4395DA     SC128557  38.222  19.658  46.201
 4395DA     SC228558  38.230  19.525  45.990
 4395DA     SC328559  38.451  19.647  45.946
 4395DA     SC428560  38.358  19.743  46.192
 4396DA     BB128561  37.833  19.493  46.654
 4396DA     BB228562  37.835  19.219  46.411
 4396DA     BB328563  37.991  19.080  46.456
 4396DA     SC128564  38.203  19.223  46.280
 4396DA     SC228565  38.326  19.179  46.067
 4396DA     SC328566  38.494  19.354  46.151
 4396DA     SC428567  38.297  19.333  46.350
 4397DG     BB128568  37.793  18.825  46.515
 4397DG     BB228569  37.953  18.677  46.226
 4397DG     BB328570  38.110  18.570  46.283
 4397DG     SC128571  38.308  18.803  46.264
 4397DG     SC228572  38.532  18.827  46.069
 4397DG     SC328573  38.547  19.040  46.274
 4397DG     SC428574  38.329  18.897  46.392
 4398DA     BB128575  38.020  18.248  46.135
 4398DA     BB228576  38.315  18.253  45.917
 4398DA     BB328577  38.483  18.169  46.018
 4398DA     SC128578  38.580  18.440  46.135
 4398DA     SC228579  38.770  18.598  46.103
 4398DA     SC328580  38.709  18.687  46.335
 4398DA     SC428581  38.527  18.481  46.282
 4399DA     BB128582  38.548  17.917  45.786
 4399DA     BB228583  38.865  18.083  45.707
 4399DA     BB328584  39.020  18.010  45.834
 4399DA     SC128585  38.976  18.226  46.054
 4399DA     SC228586  39.096  18.425  46.143
 4399DA     SC328587  38.949  18.395  46.351
 4399DA     SC428588  38.876  18.190  46.174
 4400DT     BB128589  39.235  17.864  45.782
 4400DT     BB228590  39.452  18.152  45.784
 4400DT     BB328591  39.594  18.132  45.934
 4400DT     SC128592  39.418  18.186  46.120
 4400DT     SC228593  39.461  18.379  46.206
 4400DT     SC328594  39.262  18.156  46.330
 4401DA     BB128595  39.797  18.206  45.580
 4401DA     BB228596  39.893  18.464  45.822
 4401DA     BB328597  40.037  18.387  45.959
 4401DA     SC128598  39.825  18.290  46.165
 4401DA     SC228599  39.748  18.352  46.394
 4401DA     SC328600  39.651  18.115  46.404
 4401DA     SC428601  39.773  18.138  46.152
 4402DT     BB128602  40.151  18.495  45.922
 4402DT     BB228603  40.102  18.700  46.215
 4402DT     BB328604  40.225  18.634  46.368
 4402DT     SC128605  40.072  18.426  46.412
 4402DT     SC228606  39.972  18.449  46.601
 4402DT     SC328607  39.994  18.174  46.431
 4403DT     BB128608  40.282  18.871  46.297
 4403DT     BB228609  40.185  18.885  46.644
 4403DT     BB328610  40.330  18.796  46.762
 4403DT     SC128611  40.255  18.556  46.686
 4403DT     SC228612  40.163  18.454  46.851
 4403DT     SC328613  40.264  18.316  46.576
 4404DT     BB128614  40.317  19.043  46.821
 4404DT     BB228615  40.256  18.859  47.125
 4404DT     BB328616  40.431  18.770  47.190
 4404DT     SC128617  40.417  18.587  47.003
 4404DT     SC228618  40.374  18.396  47.092
 4404DT     SC328619  40.480  18.444  46.790
 4405DC     BB128620  40.391  18.946  47.374
 4405DC     BB228621  40.417  18.628  47.543
 4405DC     BB328622  40.615  18.570  47.555
 4405DC     SC128623  40.618  18.505  47.300
 4405DC     SC228624  40.633  18.291  47.281
 4405DC     SC328625  40.683  18.507  47.044
 4406DT     BB128626  40.595  18.622  47.813
 4406DT     BB228627  40.711  18.280  47.795
 4406DT     BB328628  40.916  18.277  47.768
 4406DT     SC128629  40.892  18.348  47.516
 4406DT     SC228630  40.946  18.182  47.390
 4406DT     SC328631  40.913  18.491  47.295
 4407DT     BB128632  40.945  18.192  48.021
 4407DT     BB228633  41.115  17.944  47.823
 4407DT     BB328634  41.310  18.004  47.786
 4407DT     SC128635  41.229  18.180  47.609
 4407DT     SC228636  41.289  18.117  47.412
 4407DT     SC328637  41.185  18.413  47.492
 4408DT     BB128638  41.399  17.816  47.958
 4408DT     BB228639  41.570  17.745  47.648
 4408DT     BB328640  41.741  17.860  47.634
 4408DT     SC128641  41.601  18.076  47.579
 4408DT     SC228642  41.635  18.133  47.374
 4408DT     SC328643  41.498  18.317  47.603
 4409DC     BB128644  41.889  17.639  47.676
 4409DC     BB228645  42.010  17.771  47.362
 4409DC     BB328646  42.155  17.914  47.397
 4409DC     SC128647  41.975  18.089  47.473
 4409DC     SC228648  41.960  18.245  47.325
 4409DC     SC328649  41.840  18.257  47.626
 4410DT     BB128650  42.341  17.742  47.307
 4410DT     BB228651  42.382  18.035  47.100
 4410DT     BB328652  42.506  18.171  47.194
 4410DT     SC128653  42.317  18.239  47.362
 4410DT     SC228654  42.252  18.440  47.319
 4410DT     SC328655  42.187  18.273  47.589
 4411DA     BB128656  42.665  18.115  46.809
 4411DA     BB228657  42.650  18.476  46.872
 4411DA     BB328658  42.802  18.534  47.012
 4411DA     SC128659  42.621  18.494  47.262
 4411DA     SC228660  42.510  18.637  47.434
 4411DA     SC328661  42.499  18.423  47.575
 4411DA     SC428662  42.624  18.351  47.334
 4412DT     BB128663  42.970  18.656  46.957
 4412DT     BB228664  42.863  18.958  47.124
 4412DT     BB328665  42.978  18.990  47.292
 4412DT     SC128666  42.855  18.799  47.424
 4412DT     SC228667  42.734  18.886  47.579
 4412DT     SC328668  42.814  18.573  47.553
 4413DT     BB128669  43.130  19.202  47.183
 4413DT     BB228670  42.990  19.344  47.483
 4413DT     BB328671  43.119  19.316  47.643
 4413DT     SC128672  43.055  19.062  47.659
 4413DT     SC228673  42.942  19.028  47.839
 4413DT     SC328674  43.078  18.799  47.654
 4414DT     BB128675  43.204  19.583  47.654
 4414DT     BB228676  43.077  19.519  47.985
 4414DT     BB328677  43.229  19.449  48.107
 4414DT     SC128678  43.224  19.213  47.992
 4414DT     SC228679  43.147  19.068  48.130
 4414DT     SC328680  43.303  19.003  47.854
 4415DT     BB128681  43.245  19.687  48.248
 4415DT     BB228682  43.179  19.438  48.501
 4415DT     BB328683  43.358  19.361  48.572
 4415DT     SC128684  43.392  19.219  48.354
 4415DT     SC228685  43.369  19.010  48.400
 4415DT     SC328686  43.499  19.132  48.129
 4416DA     BB128687  43.139  19.484  48.907
 4416DA     BB228688  43.254  19.141  48.969
 4416DA     BB328689  43.462  19.140  49.014
 4416DA     SC128690  43.550  19.103  48.718
 4416DA     SC228691  43.654  18.925  48.577
 4416DA     SC328692  43.716  19.116  48.417
 4416DA     SC428693  43.581  19.236  48.632
 4417DA     BB128694  43.351  18.977  49.276
 4417DA     BB228695  43.556  18.694  49.163
 4417DA     BB328696  43.762  18.730  49.204
 4417DA     SC128697  43.819  18.866  48.930
 4417DA     SC228698  43.945  18.814  48.721
 4417DA     SC328699  43.937  19.067  48.678
 4417DA     SC428700  43.804  19.026  48.922
 4418DA     BB128701  43.731  18.438  49.351
 4418DA     BB228702  43.985  18.315  49.117
 4418DA     BB328703  44.179  18.385  49.174
 4418DA     SC128704  44.163  18.644  49.002
 4418DA     SC228705  44.271  18.736  48.797
 4418DA     SC328706  44.192  18.964  48.883
 4418DA     SC428707  44.107  18.777  49.073
 4419DA     BB128708  44.251  18.064  49.163
 4419DA     BB228709  44.495  18.146  48.902
 4419DA     BB328710  44.669  18.234  48.988
 4419DA     SC128711  44.564  18.525  48.964
 4419DA     SC228712  44.615  18.730  48.831
 4419DA     SC328713  44.492  18.857  49.016
 4419DA     SC428714  44.485  18.586  49.090
 4420DT     BB128715  44.853  18.133  48.982
 4420DT     BB228716  45.005  18.337  48.726
 4420DT     BB328717  45.148  18.461  48.810
 4420DT     SC128718  44.965  18.617  48.914
 4420DT     SC228719  44.967  18.807  48.812
 4420DT     SC328720  44.819  18.744  49.094
 4421DA     BB128721  45.337  18.260  48.494
 4421DA     BB228722  45.407  18.618  48.457
 4421DA     BB328723  45.552  18.681  48.600
 4421DA     SC128724  45.343  18.757  48.816
 4421DA     SC228725  45.255  18.965  48.923
 4421DA     SC328726  45.175  18.809  49.111
 4421DA     SC428727  45.302  18.644  48.924
 4422DA     BB128728  45.694  18.788  48.325
 4422DA     BB228729  45.667  19.125  48.467
 4422DA     BB328730  45.814  19.154  48.618
 4422DA     SC128731  45.630  19.056  48.849
 4422DA     SC228732  45.513  19.153  49.046
 4422DA     SC328733  45.506  18.913  49.136
 4422DA     SC428734  45.637  18.900  48.888
 4423DC     BB128735  45.955  19.289  48.582
 4423DC     BB228736  45.831  19.544  48.805
 4423DC     BB328737  45.948  19.551  48.976
 4423DC     SC128738  45.840  19.330  49.068
 4423DC     SC228739  45.718  19.376  49.239
 4423DC     SC328740  45.818  19.081  49.151
 4424DA     BB128741  45.914  19.939  48.820
 4424DA     BB228742  45.839  19.954  49.179
 4424DA     BB328743  46.017  19.929  49.293
 4424DA     SC128744  45.991  19.620  49.313
 4424DA     SC228745  45.942  19.449  49.488
 4424DA     SC328746  46.053  19.282  49.328
 4424DA     SC428747  46.065  19.532  49.200
 4425DA     BB128748  45.905  20.208  49.423
 4425DA     BB228749  45.893  20.031  49.744
 4425DA     BB328750  46.090  20.007  49.822
 4425DA     SC128751  46.136  19.731  49.686
 4425DA     SC228752  46.158  19.492  49.755
 4425DA     SC328753  46.273  19.458  49.528
 4425DA     SC428754  46.206  19.731  49.541
 4426DA     BB128755  45.946  20.149  50.080
 4426DA     BB228756  46.031  19.846  50.270
 4426DA     BB328757  46.239  19.843  50.316
 4426DA     SC128758  46.319  19.689  50.057
 4426DA     SC228759  46.403  19.463  49.996
 4426DA     SC328760  46.480  19.573  49.777
 4426DA     SC428761  46.360  19.776  49.929
 4427DA     BB128762  46.122  19.802  50.619
 4427DA     BB228763  46.302  19.483  50.627
 4427DA     BB328764  46.511  19.516  50.654
 4427DA     SC128765  46.573  19.531  50.349
 4427DA     SC228766  46.691  19.393  50.178
 4427DA     SC328767  46.701  19.609  50.040
 4427DA     SC428768  46.570  19.676  50.279
 4428DA     BB128769  46.464  19.307  50.902
 4428DA     BB228770  46.706  19.086  50.739
 4428DA     BB328771  46.904  19.159  50.767
 4428DA     SC128772  46.904  19.331  50.508
 4428DA     SC228773  47.015  19.328  50.284
 4428DA     SC328774  46.954  19.577  50.273
 4428DA     SC428775  46.858  19.484  50.520
 4429DA     BB128776  46.953  18.854  50.881
 4429DA     BB228777  47.201  18.812  50.615
 4429DA     BB328778  47.382  18.915  50.665
 4429DA     SC128779  47.297  19.181  50.527
 4429DA     SC228780  47.362  19.314  50.326
 4429DA     SC328781  47.248  19.511  50.445
 4429DA     SC428782  47.222  19.291  50.617
 4430DT     BB128783  47.553  18.808  50.703
 4430DT     BB228784  47.726  18.888  50.396
 4430DT     BB328785  47.876  19.025  50.433
 4430DT     SC128786  47.703  19.220  50.460
 4430DT     SC228787  47.722  19.356  50.294
 4430DT     SC328788  47.564  19.415  50.571
 4431DA     BB128789  48.063  18.710  50.229
 4431DA     BB228790  48.167  19.022  50.067
 4431DA     BB328791  48.310  19.124  50.188
 4431DA     SC128792  48.098  19.289  50.344
 4431DA     SC228793  48.024  19.527  50.359
 4431DA     SC328794  47.922  19.459  50.585
 4431DA     SC428795  48.043  19.228  50.482
 4432DT     BB128796  48.504  19.144  50.121
 4432DT     BB228797  48.486  19.495  50.040
 4432DT     BB328798  48.588  19.606  50.182
 4432DT     SC128799  48.396  19.573  50.358
 4432DT     SC228800  48.296  19.760  50.390
 4432DT     SC328801  48.270  19.496  50.577
 4433DA     BB128802  48.739  19.724  49.810
 4433DA     BB228803  48.659  20.028  49.999
 4433DA     BB328804  48.804  20.060  50.152
 4433DA     SC128805  48.648  19.899  50.368
 4433DA     SC228806  48.522  19.946  50.578
 4433DA     SC328807  48.559  19.698  50.631
 4433DA     SC428808  48.683  19.743  50.383
 4434DT     BB128809  48.925  20.221  50.137
 4434DT     BB228810  48.771  20.417  50.399
 4434DT     BB328811  48.890  20.415  50.568
 4434DT     SC128812  48.820  20.169  50.625
 4434DT     SC228813  48.697  20.169  50.801
 4434DT     SC328814  48.838  19.909  50.668
 4435DA     BB128815  48.810  20.819  50.485
 4435DA     BB228816  48.747  20.764  50.842
 4435DA     BB328817  48.931  20.743  50.947
 4435DA     SC128818  48.943  20.434  50.914
 4435DA     SC228819  48.921  20.232  51.059
 4435DA     SC328820  49.045  20.109  50.871
 4435DA     SC428821  49.022  20.376  50.787
 4436DA     BB128822  48.817  20.989  51.139
 4436DA     BB228823  48.838  20.758  51.423
 4436DA     BB328824  49.040  20.739  51.488
 4436DA     SC128825  49.102  20.497  51.302
 4436DA     SC228826  49.148  20.253  51.326
 4436DA     SC328827  49.253  20.271  51.092
 4436DA     SC428828  49.164  20.529  51.157
 4437DT     BB128829  49.124  20.815  51.686
 4437DT     BB228830  49.155  20.493  51.846
 4437DT     BB328831  49.355  20.443  51.867
 4437DT     SC128832  49.375  20.388  51.611
 4437DT     SC228833  49.401  20.175  51.586
 4437DT     SC328834  49.454  20.401  51.359
 4438DT     BB128835  49.388  20.495  52.152
 4438DT     BB228836  49.493  20.151  52.116
 4438DT     BB328837  49.698  20.142  52.090
 4438DT     SC128838  49.678  20.227  51.842
 4438DT     SC228839  49.728  20.067  51.708
 4438DT     SC328840  49.706  20.381  51.630
 4439DT     BB128841  49.776  20.047  52.355
 4439DT     BB228842  49.909  19.797  52.132
 4439DT     BB328843  50.106  19.840  52.087
 4439DT     SC128844  50.036  20.035  51.926
 4439DT     SC228845  50.079  19.979  51.723
 4439DT     SC328846  50.010  20.278  51.828
 4440DA     BB128847  50.109  19.447  52.228
 4440DA     BB228848  50.276  19.449  51.902
 4440DA     BB328849  50.474  19.526  51.920
 4440DA     SC128850  50.391  19.821  51.866
 4440DA     SC228851  50.420  19.991  51.686
 4440DA     SC328852  50.364  20.163  51.868
 4440DA     SC428853  50.355  19.913  51.994
 4441DA     BB128854  50.509  19.244  51.771
 4441DA     BB228855  50.636  19.439  51.488
 4441DA     BB328856  50.833  19.509  51.528
 4441DA     SC128857  50.738  19.777  51.654
 4441DA     SC228858  50.742  20.020  51.597
 4441DA     SC328859  50.705  20.059  51.848
 4441DA     SC428860  50.716  19.781  51.813
 4442DT     BB128861  50.916  19.435  51.405
 4442DT     BB228862  50.966  19.729  51.203
 4442DT     BB328863  51.146  19.819  51.252
 4442DT     SC128864  51.047  19.913  51.476
 4442DT     SC228865  51.029  20.127  51.462
 4442DT     SC328866  51.011  19.953  51.735
 4443DT     BB128867  51.183  19.737  51.012
 4443DT     BB228868  51.239  20.093  51.007
 4443DT     BB328869  51.424  20.136  51.089
 4443DT     SC128870  51.336  20.091  51.332
 4443DT     SC228871  51.326  20.277  51.440
 4443DT     SC328872  51.310  19.980  51.570
 4444DA     BB128873  51.352  20.333  50.722
 4444DA     BB228874  51.488  20.574  50.962
 4444DA     BB328875  51.691  20.528  51.007
 4444DA     SC128876  51.621  20.345  51.249
 4444DA     SC228877  51.644  20.351  51.497
 4444DA     SC328878  51.616  20.097  51.485
 4444DA     SC428879  51.604  20.188  51.221
 4445DG     BB128880  51.724  20.815  50.896
 4445DG     BB228881  51.848  20.879  51.230
 4445DG     BB328882  52.035  20.812  51.247
 4445DG     SC128883  51.952  20.532  51.339
 4445DG     SC228884  52.001  20.415  51.609
 4445DG     SC328885  51.897  20.210  51.423
 4445DG     SC428886  51.925  20.419  51.229
 4446DA     BB128887  52.114  21.129  51.367
 4446DA     BB228888  52.239  20.980  51.678
 4446DA     BB328889  52.429  20.888  51.645
 4446DA     SC128890  52.308  20.610  51.575
 4446DA     SC228891  52.297  20.382  51.677
 4446DA     SC328892  52.246  20.301  51.439
 4446DA     SC428893  52.279  20.578  51.420
 4447DT     BB128894  52.598  20.965  51.734
 4447DT     BB228895  52.643  20.707  51.981
 4447DT     BB328896  52.801  20.585  51.928
 4447DT     SC128897  52.658  20.468  51.742
 4447DT     SC228898  52.617  20.265  51.800
 4447DT     SC328899  52.578  20.389  51.503
 4448DA     BB128900  52.873  20.708  52.322
 4448DA     BB228901  52.919  20.344  52.308
 4448DA     BB328902  53.101  20.296  52.208
 4448DA     SC128903  52.970  20.278  51.927
 4448DA     SC228904  52.916  20.102  51.759
 4448DA     SC328905  52.905  20.294  51.590
 4448DA     SC428906  52.969  20.411  51.837
 4449DC     BB128907  53.247  20.210  52.315
 4449DC     BB228908  53.216  19.878  52.177
 4449DC     BB328909  53.369  19.843  52.043
 4449DC     SC128910  53.257  19.996  51.862
 4449DC     SC228911  53.186  19.875  51.699
 4449DC     SC328912  53.222  20.197  51.694
 4450DT     BB128913  53.488  19.673  52.219
 4450DT     BB228914  53.447  19.475  51.921
 4450DT     BB328915  53.609  19.502  51.795
 4450DT     SC128916  53.524  19.740  51.724
 4450DT     SC228917  53.460  19.735  51.519
 4450DT     SC328918  53.517  20.002  51.693
 4451DA     BB128919  53.577  19.085  51.841
 4451DA     BB228920  53.614  19.154  51.482
 4451DA     BB328921  53.815  19.207  51.437
 4451DA     SC128922  53.769  19.512  51.479
 4451DA     SC228923  53.760  19.718  51.338
 4451DA     SC328924  53.803  19.845  51.557
 4451DA     SC428925  53.798  19.573  51.625
 4452DT     BB128926  53.943  19.083  51.321
 4452DT     BB228927  53.940  19.285  51.022
 4452DT     BB328928  54.122  19.382  51.000
 4452DT     SC128929  54.063  19.552  51.190
 4452DT     SC228930  54.032  19.747  51.105
 4452DT     SC328931  54.075  19.682  51.420
 4453DT     BB128932  54.214  19.218  50.790
 4453DT     BB228933  54.234  19.551  50.654
 4453DT     BB328934  54.421  19.632  50.693
 4453DT     SC128935  54.359  19.672  50.945
 4453DT     SC228936  54.341  19.883  50.982
 4453DT     SC328937  54.364  19.653  51.208
 4454DA     BB128938  54.384  19.673  50.276
 4454DA     BB228939  54.486  19.999  50.409
 4454DA     BB328940  54.693  19.997  50.459
 4454DA     SC128941  54.647  19.906  50.753
 4454DA     SC228942  54.667  20.003  50.981
 4454DA     SC328943  54.673  19.759  51.062
 4454DA     SC428944  54.650  19.748  50.783
 4455DA     BB128945  54.715  20.260  50.259
 4455DA     BB228946  54.820  20.454  50.552
 4455DA     BB328947  55.025  20.417  50.596
 4455DA     SC128948  54.967  20.180  50.788
 4455DA     SC228949  54.982  20.132  51.033
 4455DA     SC328950  54.980  19.885  50.964
 4455DA     SC428951  54.966  20.032  50.726
 4456DT     BB128952  55.173  20.570  50.575
 4456DT     BB228953  55.210  20.635  50.928
 4456DT     BB328954  55.393  20.563  50.995
 4456DT     SC128955  55.306  20.315  50.986
 4456DT     SC228956  55.286  20.239  51.186
 4456DT     SC328957  55.285  20.062  50.915
 4457DA     BB128958  55.368  20.963  51.116
 4457DA     BB228959  55.457  20.761  51.409
 4457DA     BB328960  55.661  20.699  51.397
 4457DA     SC128961  55.597  20.433  51.249
 4457DA     SC228962  55.601  20.189  51.298
 4457DA     SC328963  55.605  20.158  51.043
 4457DA     SC428964  55.600  20.435  51.088
 4458DT     BB128965  55.782  20.772  51.535
 4458DT     BB228966  55.805  20.470  51.730
 4458DT     BB328967  55.988  20.378  51.697
 4458DT     SC128968  55.912  20.294  51.461
 4458DT     SC228969  55.889  20.080  51.466
 4458DT     SC328970  55.904  20.263  51.199
 4459DT     BB128971  56.042  20.451  51.946
 4459DT     BB228972  56.074  20.091  51.942
 4459DT     BB328973  56.261  20.038  51.873
 4459DT     SC128974  56.196  20.097  51.626
 4459DT     SC228975  56.183  19.916  51.510
 4459DT     SC328976  56.197  20.218  51.391
 4460DT     BB128977  56.288  19.962  52.120
 4460DT     BB228978  56.345  19.667  51.921
 4460DT     BB328979  56.538  19.667  51.846
 4460DT     SC128980  56.478  19.851  51.669
 4460DT     SC228981  56.481  19.765  51.472
 4460DT     SC328982  56.478  20.082  51.541
 4461DA     BB128983  56.426  19.301  52.021
 4461DA     BB228984  56.583  19.235  51.696
 4461DA     BB328985  56.791  19.282  51.703
 4461DA     SC128986  56.752  19.576  51.611
 4461DA     SC228987  56.802  19.715  51.409
 4461DA     SC328988  56.778  19.916  51.567
 4461DA     SC428989  56.735  19.688  51.725
 4462DT     BB128990  56.881  19.133  51.678
 4462DT     BB228991  57.005  19.206  51.347
 4462DT     BB328992  57.194  19.289  51.360
 4462DT     SC128993  57.097  19.519  51.442
 4462DT     SC228994  57.123  19.666  51.288
 4462DT     SC328995  57.048  19.726  51.597
 4463DA     BB128996  57.211  18.971  51.085
 4463DA     BB228997  57.381  19.260  50.935
 4463DA     BB328998  57.567  19.295  51.034
 4463DA     SC128999  57.447  19.490  51.244
 4463DA     SC229000  57.455  19.734  51.297
 4463DA     SC329001  57.375  19.666  51.531
 4463DA     SC429002  57.398  19.428  51.384
 4464DG     BB129003  57.705  19.245  50.755
 4464DG     BB229004  57.806  19.591  50.790
 4464DG     BB329005  57.969  19.602  50.902
 4464DG     SC129006  57.816  19.628  51.166
 4464DG     SC229007  57.810  19.869  51.343
 4464DG     SC329008  57.681  19.638  51.475
 4464DG     SC429009  57.774  19.495  51.245
 4465DC     BB129010  58.184  19.679  50.832
 4465DC     BB229011  58.193  20.005  50.986
 4465DC     BB329012  58.325  20.003  51.146
 4465DC     SC129013  58.155  19.869  51.294
 4465DC     SC229014  58.081  19.996  51.451
 4465DC     SC329015  58.052  19.674  51.439
 4466DC     BB129016  58.514  20.152  51.010
 4466DC     BB229017  58.444  20.345  51.307
 4466DC     BB329018  58.568  20.287  51.461
 4466DC     SC129019  58.432  20.065  51.497
 4466DC     SC229020  58.328  20.076  51.685
 4466DC     SC329021  58.376  19.808  51.509
 4467DG     BB129022  58.623  20.685  51.400
 4467DG     BB229023  58.541  20.613  51.745
 4467DG     BB329024  58.701  20.543  51.839
 4467DG     SC129025  58.643  20.250  51.771
 4467DG     SC229026  58.568  20.036  51.966
 4467DG     SC329027  58.620  19.921  51.699
 4467DG     SC429028  58.700  20.189  51.635
 4468DC     BB129029  58.766  20.654  52.000
 4468DC     BB229030  58.659  20.451  52.278
 4468DC     BB329031  58.819  20.341  52.351
 4468DC     SC129032  58.807  20.176  52.146
 4468DC     SC229033  58.739  19.984  52.213
 4468DC     SC329034  58.878  20.047  51.928
 4469DA     BB129035  58.609  20.539  52.657
 4469DA     BB229036  58.659  20.190  52.756
 4469DA     BB329037  58.865  20.153  52.795
 4469DA     SC129038  58.931  20.067  52.504
 4469DA     SC229039  58.991  19.858  52.382
 4469DA     SC329040  59.082  20.014  52.200
 4469DA     SC429041  58.982  20.180  52.402
 4470DA     BB129042  58.710  20.040  53.062
 4470DA     BB229043  58.867  19.717  52.987
 4470DA     BB329044  59.078  19.728  53.021
 4470DA     SC129045  59.144  19.814  52.729
 4470DA     SC229046  59.255  19.717  52.528
 4470DA     SC329047  59.282  19.959  52.450
 4470DA     SC429048  59.153  19.972  52.699
 4471DA     BB129049  59.014  19.463  53.209
 4471DA     BB229050  59.251  19.278  52.998
 4471DA     BB329051  59.451  19.337  53.043
 4471DA     SC129052  59.458  19.565  52.831
 4471DA     SC229053  59.571  19.611  52.613
 4471DA     SC329054  59.516  19.857  52.660
 4471DA     SC429055  59.417  19.712  52.879
 4472DA     BB129056  59.515  19.013  53.096
 4472DA     BB229057  59.763  19.032  52.827
 4472DA     BB329058  59.941  19.125  52.897
 4472DA     SC129059  59.851  19.412  52.817
 4472DA     SC229060  59.913  19.585  52.649
 4472DA     SC329061  59.796  19.751  52.806
 4472DA     SC429062  59.775  19.500  52.929
 4473DT     BB129063  60.145  19.025  52.927
 4473DT     BB229064  60.306  19.170  52.639
 4473DT     BB329065  60.449  19.306  52.699
 4473DT     SC129066  60.266  19.483  52.763
 4473DT     SC229067  60.273  19.647  52.625
 4473DT     SC329068  60.118  19.645  52.910
 4474DT     BB129069  60.672  19.144  52.637
 4474DT     BB229070  60.726  19.444  52.444
 4474DT     BB329071  60.838  19.580  52.554
 4474DT     SC129072  60.632  19.640  52.705
 4474DT     SC229073  60.567  19.840  52.661
 4474DT     SC329074  60.480  19.664  52.919
 4475DT     BB129075  61.061  19.538  52.398
 4475DT     BB229076  60.994  19.891  52.368
 4475DT     BB329077  61.091  19.995  52.518
 4475DT     SC129078  60.916  19.914  52.697
 4475DT     SC229079  60.796  20.081  52.760
 4475DT     SC329080  60.816  19.793  52.909
 4476DA     BB129081  61.179  20.169  52.149
 4476DA     BB229082  61.070  20.434  52.377
 4476DA     BB329083  61.220  20.473  52.523
 4476DA     SC129084  61.109  20.267  52.728
 4476DA     SC229085  60.996  20.270  52.950
 4476DA     SC329086  61.076  20.027  52.972
 4476DA     SC429087  61.169  20.118  52.723
 4477DA     BB129088  61.149  20.765  52.397
 4477DA     BB229089  61.052  20.860  52.738
 4477DA     BB329090  61.225  20.878  52.862
 4477DA     SC129091  61.217  20.581  52.956
 4477DA     SC229092  61.168  20.455  53.165
 4477DA     SC329093  61.299  20.263  53.056
 4477DA     SC429094  61.302  20.474  52.871
 4478DC     BB129095  61.248  21.050  52.919
 4478DC     BB229096  61.151  20.999  53.263
 4478DC     BB329097  61.320  20.976  53.381
 4478DC     SC129098  61.360  20.733  53.291
 4478DC     SC229099  61.320  20.591  53.448
 4478DC     SC329100  61.475  20.529  53.170
 4479DT     BB129101  61.268  21.218  53.483
 4479DT     BB229102  61.283  21.000  53.769
 4479DT     BB329103  61.480  20.976  53.829
 4479DT     SC129104  61.530  20.816  53.627
 4479DT     SC229105  61.561  20.616  53.700
 4479DT     SC329106  61.637  20.725  53.404
 4480DA     BB129107  61.272  21.095  54.175
 4480DA     BB229108  61.478  20.805  54.263
 4480DA     BB329109  61.684  20.861  54.275
 4480DA     SC129110  61.744  20.797  53.977
 4480DA     SC229111  61.873  20.628  53.847
 4480DA     SC329112  61.865  20.799  53.655
 4480DA     SC429113  61.729  20.917  53.871
 4481DT     BB129114  61.798  20.865  54.462
 4481DT     BB229115  61.994  20.568  54.398
 4481DT     BB329116  62.190  20.620  54.358
 4481DT     SC129117  62.127  20.706  54.118
 4481DT     SC229118  62.209  20.573  53.971
 4481DT     SC329119  62.092  20.869  53.914
 4482DT     BB129120  62.299  20.537  54.608
 4482DT     BB229121  62.493  20.352  54.367
 4482DT     BB329122  62.664  20.458  54.318
 4482DT     SC129123  62.526  20.627  54.171
 4482DT     SC229124  62.574  20.597  53.963
 4482DT     SC329125  62.420  20.853  54.087
 4483DA     BB129126  62.811  20.083  54.434
 4483DA     BB229127  62.967  20.165  54.113
 4483DA     BB329128  63.124  20.307  54.140
 4483DA     SC129129  62.939  20.554  54.099
 4483DA     SC229130  62.905  20.733  53.929
 4483DA     SC329131  62.790  20.863  54.117
 4483DA     SC429132  62.872  20.619  54.230
 4484DA     BB129133  63.311  20.085  53.984
 4484DA     BB229134  63.368  20.337  53.723
 4484DA     BB329135  63.514  20.478  53.787
 4484DA     SC129136  63.305  20.672  53.913
 4484DA     SC229137  63.212  20.899  53.866
 4484DA     SC329138  63.142  20.899  54.113
 4484DA     SC429139  63.272  20.654  54.069
 4485DA     BB129140  63.680  20.403  53.510
 4485DA     BB229141  63.642  20.753  53.407
 4485DA     BB329142  63.787  20.875  53.505
 4485DA     SC129143  63.604  20.939  53.748
 4485DA     SC229144  63.482  21.137  53.840
 4485DA     SC329145  63.481  21.007  54.061
 4485DA     SC429146  63.615  20.843  53.876
 4486DT     BB129147  63.963  20.979  53.403
 4486DT     BB229148  63.824  21.312  53.416
 4486DT     BB329149  63.932  21.429  53.549
 4486DT     SC129150  63.824  21.308  53.755
 4486DT     SC229151  63.692  21.445  53.857
 4486DT     SC329152  63.801  21.163  53.974
 4487DA     BB129153  63.951  21.660  53.198
 4487DA     BB229154  63.841  21.883  53.467
 4487DA     BB329155  64.007  21.943  53.586
 4487DA     SC129156  63.978  21.707  53.787
 4487DA     SC229157  63.912  21.674  54.025
 4487DA     SC329158  64.038  21.451  54.009
 4487DA     SC429159  64.063  21.574  53.757
 4488DA     BB129160  63.919  22.255  53.520
 4488DA     BB229161  63.851  22.296  53.878
 4488DA     BB329162  64.032  22.339  53.984
 4488DA     SC129163  64.096  22.040  54.043
 4488DA     SC229164  64.102  21.888  54.240
 4488DA     SC329165  64.252  21.739  54.095
 4488DA     SC429166  64.189  21.962  53.937
 4489DT     BB129167  64.053  22.523  54.074
 4489DT     BB229168  63.990  22.406  54.409
 4489DT     BB329169  64.165  22.408  54.519
 4489DT     SC129170  64.255  22.195  54.395
 4489DT     SC229171  64.258  22.029  54.531
 4489DT     SC329172  64.407  22.042  54.244
 4490DT     BB129173  64.036  22.597  54.642
 4490DT     BB229174  64.099  22.342  54.890
 4490DT     BB329175  64.292  22.361  54.964
 4490DT     SC129176  64.395  22.261  54.744
 4490DT     SC229177  64.477  22.067  54.785
 4490DT     SC329178  64.533  22.245  54.520
 4491DA     BB129179  63.975  22.294  55.234
 4491DA     BB229180  64.252  22.067  55.313
 4491DA     BB329181  64.421  22.178  55.382
 4491DA     SC129182  64.545  22.212  55.098
 4491DA     SC229183  64.743  22.127  54.972
 4491DA     SC329184  64.706  22.330  54.819
 4491DA     SC429185  64.506  22.344  55.015
 4492DA     BB129186  64.332  21.903  55.555
 4492DA     BB229187  64.681  21.807  55.499
 4492DA     BB329188  64.812  21.954  55.580
 4492DA     SC129189  64.828  22.120  55.317
 4492DA     SC229190  64.997  22.172  55.141
 4492DA     SC329191  64.848  22.373  55.086
 4492DA     SC429192  64.723  22.241  55.299
 4493DT     BB129193  64.899  21.873  55.702
 4493DT     BB229194  65.222  21.870  55.542
 4493DT     BB329195  65.328  22.039  55.594
 4493DT     SC129196  65.182  22.190  55.436
 4493DT     SC229197  65.301  22.256  55.270
 4493DT     SC329198  65.014  22.377  55.358
 4494DG     BB129199  65.559  21.722  55.710
 4494DG     BB229200  65.750  21.960  55.516
 4494DG     BB329201  65.797  22.117  55.628
 4494DG     SC129202  65.543  22.274  55.558
 4494DG     SC229203  65.532  22.527  55.400
 4494DG     SC329204  65.268  22.465  55.519
 4494DG     SC429205  65.412  22.253  55.647
 4495DT     BB129206  66.012  22.179  55.686
 4495DT     BB229207  66.062  22.466  55.474
 4495DT     BB329208  66.050  22.640  55.586
 4495DT     SC129209  65.789  22.620  55.604
 4495DT     SC229210  65.698  22.776  55.488
 4495DT     SC329211  65.549  22.592  55.709
 4496DA     BB129212  66.416  22.665  55.382
 4496DA     BB229213  66.234  22.979  55.326
 4496DA     BB329214  66.240  23.100  55.502
 4496DA     SC129215  65.977  22.983  55.620
 4496DA     SC229216  65.743  23.060  55.662
 4496DA     SC329217  65.732  22.865  55.829
 4496DA     SC429218  65.990  22.857  55.720
 4497DA     BB129219  66.351  23.306  55.275
 4497DA     BB229220  66.056  23.511  55.351
 4497DA     BB329221  66.080  23.608  55.540
 4497DA     SC129222  65.948  23.379  55.703
 4497DA     SC229223  65.738  23.341  55.831
 4497DA     SC329224  65.865  23.150  55.945
 4497DA     SC429225  66.045  23.265  55.763
 4498DA     BB129226  65.996  23.833  55.320
 4498DA     BB229227  65.703  23.890  55.533
 4498DA     BB329228  65.762  23.978  55.718
 4498DA     SC129229  65.801  23.706  55.864
 4498DA     SC229230  65.689  23.576  56.045
 4498DA     SC329231  65.912  23.450  56.064
 4498DA     SC429232  65.948  23.640  55.861
 4499DA     BB129233  65.512  24.147  55.587
 4499DA     BB229234  65.339  24.074  55.902
 4499DA     BB329235  65.437  24.170  56.065
 4499DA     SC129236  65.625  23.929  56.126
 4499DA     SC229237  65.653  23.758  56.305
 4499DA     SC329238  65.891  23.730  56.213
 4499DA     SC429239  65.769  23.927  56.055
 4500DA     BB129240  65.116  24.246  56.089
 4500DA     BB229241  65.137  24.104  56.427
 4500DA     BB329242  65.265  24.223  56.549
 4500DA     SC129243  65.523  24.064  56.479
 4500DA     SC229244  65.680  23.907  56.593
 4500DA     SC329245  65.845  23.970  56.406
 4500DA     SC429246  65.611  24.116  56.355
 4501DT     BB129247  65.184  24.324  56.702
 4501DT     BB229248  65.326  24.135  56.974
 4501DT     BB329249  65.488  24.236  57.054
 4501DT     SC129250  65.639  24.173  56.849
 4501DT     SC229251  65.790  24.034  56.912
 4501DT     SC329252  65.789  24.200  56.634
 4502DT     BB129253  65.370  24.351  57.298
 4502DT     BB229254  65.665  24.189  57.426
 4502DT     BB329255  65.822  24.324  57.435
 4502DT     SC129256  65.854  24.316  57.175
 4502DT     SC229257  66.040  24.218  57.129
 4502DT     SC329258  65.863  24.396  56.924
 4503DA     BB129259  65.832  24.225  57.851
 4503DA     BB229260  66.179  24.201  57.733
 4503DA     BB329261  66.268  24.395  57.727
 4503DA     SC129262  66.185  24.450  57.432
 4503DA     SC229263  66.296  24.471  57.210
 4503DA     SC329264  66.084  24.596  57.138
 4503DA     SC429265  66.046  24.526  57.407
 4504DG     BB129266  66.502  24.340  57.953
 4504DG     BB229267  66.730  24.380  57.676
 4504DG     BB329268  66.790  24.569  57.663
 4504DG     SC129269  66.562  24.655  57.478
 4504DG     SC229270  66.589  24.741  57.194
 4504DG     SC329271  66.314  24.787  57.292
 4504DG     SC429272  66.424  24.705  57.543
 4505DT     BB129273  67.023  24.669  57.694
 4505DT     BB229274  67.112  24.724  57.349
 4505DT     BB329275  67.120  24.928  57.310
 4505DT     SC129276  66.858  24.947  57.311
 4505DT     SC229277  66.789  24.986  57.112
 4505DT     SC329278  66.615  25.019  57.383
 4506DA     BB129279  67.494  24.786  57.183
 4506DA     BB229280  67.353  24.984  56.908
 4506DA     BB329281  67.372  25.192  56.948
 4506DA     SC129282  67.097  25.215  57.091
 4506DA     SC229283  66.874  25.319  57.047
 4506DA     SC329284  66.838  25.300  57.300
 4506DA     SC429285  67.093  25.196  57.250
 4507DA     BB129286  67.524  25.202  56.656
 4507DA     BB229287  67.253  25.420  56.541
 4507DA     BB329288  67.285  25.620  56.610
 4507DA     SC129289  67.124  25.580  56.873
 4507DA     SC229290  66.909  25.658  56.972
 4507DA     SC329291  67.012  25.592  57.198
 4507DA     SC429292  67.206  25.535  57.004
 4508DT     BB129293  67.326  25.777  56.473
 4508DT     BB229294  66.998  25.927  56.487
 4508DT     BB329295  67.007  26.106  56.590
 4508DT     SC129296  67.028  25.981  56.820
 4508DT     SC229297  66.847  26.010  56.934
 4508DT     SC329298  67.129  25.899  57.050
 4509DC     BB129299  66.973  26.248  56.358
 4509DC     BB229300  66.697  26.347  56.568
 4509DC     BB329301  66.752  26.508  56.686
 4509DC     SC129302  66.897  26.355  56.842
 4509DC     SC229303  66.803  26.340  57.035
 4509DC     SC329304  67.107  26.254  56.965
 4510DT     BB129305  66.589  26.663  56.536
 4510DT     BB229306  66.463  26.691  56.873
 4510DT     BB329307  66.563  26.842  56.974
 4510DT     SC129308  66.777  26.693  57.000
 4510DT     SC229309  66.802  26.639  57.207
 4510DT     SC329310  67.026  26.609  56.975
 4511DT     BB129311  66.331  26.966  56.959
 4511DT     BB229312  66.404  26.938  57.311
 4511DT     BB329313  66.529  27.092  57.370
 4511DT     SC129314  66.736  26.978  57.255
 4511DT     SC229315  66.872  26.909  57.406
 4511DT     SC329316  66.938  26.940  57.090
 4512DC     BB129317  66.309  27.135  57.492
 4512DC     BB229318  66.563  27.099  57.746
 4512DC     BB329319  66.681  27.269  57.754
 4512DC     SC129320  66.804  27.202  57.532
 4512DC     SC229321  67.008  27.148  57.577
 4512DC     SC329322  66.889  27.211  57.283
 4513DT     BB129323  66.558  27.272  57.979
 4513DT     BB229324  66.911  27.278  58.056
 4513DT     BB329325  66.988  27.466  58.019
 4513DT     SC129326  66.982  27.427  57.759
 4513DT     SC229327  67.183  27.411  57.685
 4513DT     SC329328  66.916  27.457  57.506
 4514DT     BB129329  67.007  27.464  58.277
 4514DT     BB229330  67.339  27.537  58.157
 4514DT     BB329331  67.351  27.736  58.100
 4514DT     SC129332  67.214  27.690  57.881
 4514DT     SC229333  67.344  27.709  57.710
 4514DT     SC329334  67.020  27.700  57.703
 4515DA     BB129335  67.673  27.662  58.361
 4515DA     BB229336  67.802  27.848  58.072
 4515DA     BB329337  67.735  28.050  58.078
 4515DA     SC129338  67.477  27.995  57.913
 4515DA     SC229339  67.388  28.049  57.686
 4515DA     SC329340  67.157  27.997  57.786
 4515DA     SC429341  67.343  27.960  57.994
 4516DA     BB129342  68.057  28.136  58.057
 4516DA     BB229343  67.975  28.312  57.746
 4516DA     BB329344  67.879  28.498  57.789
 4516DA     SC129345  67.592  28.379  57.783
 4516DA     SC229346  67.390  28.391  57.637
 4516DA     SC329347  67.261  28.308  57.843
 4516DA     SC429348  67.530  28.328  57.922
 4517DC     BB129349  67.967  28.703  57.754
 4517DC     BB229350  67.764  28.787  57.468
 4517DC     BB329351  67.627  28.933  57.518
 4517DC     SC129352  67.479  28.761  57.650
 4517DC     SC229353  67.295  28.728  57.544
 4517DC     SC329354  67.356  28.642  57.851
 4518DT     BB129355  67.754  29.154  57.388
 4518DT     BB229356  67.424  29.149  57.243
 4518DT     BB329357  67.298  29.273  57.350
 4518DT     SC129358  67.282  29.100  57.547
 4518DT     SC229359  67.084  29.017  57.553
 4518DT     SC329360  67.306  28.996  57.788
 4519DT     BB129361  67.289  29.474  57.155
 4519DT     BB229362  66.944  29.378  57.200
 4519DT     BB329363  66.857  29.495  57.347
 4519DT     SC129364  66.983  29.365  57.536
 4519DT     SC229365  66.841  29.248  57.649
 4519DT     SC329366  67.145  29.316  57.738
 4520DT     BB129367  66.711  29.628  57.159
 4520DT     BB229368  66.466  29.482  57.380
 4520DT     BB329369  66.429  29.610  57.538
 4520DT     SC129370  66.658  29.550  57.651
 4520DT     SC229371  66.622  29.437  57.830
 4520DT     SC329372  66.902  29.579  57.748
 4521DG     BB129373  66.083  29.522  57.344
 4521DG     BB229374  66.061  29.449  57.697
 4521DG     BB329375  66.038  29.618  57.800
 4521DG     SC129376  66.338  29.666  57.836
 4521DG     SC229377  66.487  29.658  58.094
 4521DG     SC329378  66.659  29.761  57.877
 4521DG     SC429379  66.417  29.749  57.724
 4522DA     BB129380  65.785  29.429  57.933
 4522DA     BB229381  65.936  29.471  58.265
 4522DA     BB329382  65.910  29.672  58.333
 4522DA     SC129383  66.177  29.774  58.211
 4522DA     SC229384  66.399  29.852  58.294
 4522DA     SC329385  66.424  29.961  58.063
 4522DA     SC429386  66.173  29.836  58.063
 4523DT     BB129387  65.806  29.672  58.479
 4523DT     BB229388  66.064  29.751  58.719
 4523DT     BB329389  66.064  29.954  58.758
 4523DT     SC129390  66.176  30.007  58.527
 4523DT     SC229391  66.377  30.075  58.559
 4523DT     SC329392  66.209  30.102  58.284
 4524DC     BB129393  65.966  29.892  58.998
 4524DC     BB229394  66.262  30.085  59.067
 4524DC     BB329395  66.219  30.288  59.058
 4524DC     SC129396  66.208  30.281  58.796
 4524DC     SC229397  66.376  30.389  58.715
 4524DC     SC329398  66.112  30.298  58.551
 4525DA     BB129399  66.403  30.233  59.432
 4525DA     BB229400  66.561  30.523  59.272
 4525DA     BB329401  66.430  30.691  59.278
 4525DA     SC129402  66.298  30.627  59.003
 4525DA     SC229403  66.294  30.724  58.773
 4525DA     SC329404  66.077  30.590  58.743
 4525DA     SC429405  66.164  30.538  59.004
 4526DG     BB129406  66.643  30.849  59.452
 4526DG     BB229407  66.658  31.068  59.164
 4526DG     BB329408  66.515  31.205  59.176
 4526DG     SC129409  66.306  31.037  59.029
 4526DG     SC229410  66.190  31.096  58.761
 4526DG     SC329411  66.047  30.872  58.890
 4526DG     SC429412  66.213  30.937  59.113
 4527DT     BB129413  66.543  31.447  59.199
 4527DT     BB229414  66.465  31.552  58.863
 4527DT     BB329415  66.282  31.649  58.859
 4527DT     SC129416  66.152  31.423  58.885
 4527DT     SC229417  66.049  31.379  58.702
 4527DT     SC329418  65.997  31.236  58.989
 4528DT     BB129419  66.395  31.902  58.823
 4528DT     BB229420  66.177  31.860  58.539
 4528DT     BB329421  65.988  31.933  58.584
 4528DT     SC129422  65.935  31.724  58.734
 4528DT     SC229423  65.785  31.603  58.638
 4528DT     SC329424  65.878  31.580  58.948
 4529DT     BB129425  66.036  32.137  58.416
 4529DT     BB229426  65.743  31.973  58.283
 4529DT     BB329427  65.573  32.047  58.375
 4529DT     SC129428  65.624  31.914  58.595
 4529DT     SC229429  65.480  31.757  58.619
 4529DT     SC329430  65.682  31.865  58.848
 4530DA     BB129431  65.546  32.032  57.957
 4530DA     BB229432  65.246  31.876  58.100
 4530DA     BB329433  65.124  32.024  58.194
 4530DA     SC129434  65.258  31.994  58.473
 4530DA     SC229435  65.198  31.905  58.698
 4530DA     SC329436  65.392  32.050  58.784
 4530DA     SC429437  65.382  32.091  58.506
 4531DA     BB129438  64.940  31.842  57.994
 4531DA     BB229439  64.741  31.766  58.293
 4531DA     BB329440  64.642  31.942  58.362
 4531DA     SC129441  64.873  32.028  58.552
 4531DA     SC229442  64.914  32.042  58.797
 4531DA     SC329443  65.102  32.206  58.735
 4531DA     SC429444  64.984  32.128  58.493
 4532DA     BB129445  64.418  31.701  58.341
 4532DA     BB229446  64.356  31.767  58.696
 4532DA     BB329447  64.271  31.961  58.722
 4532DA     SC129448  64.545  32.104  58.755
 4532DA     SC229449  64.674  32.217  58.937
 4532DA     SC329450  64.805  32.329  58.747
 4532DA     SC429451  64.614  32.165  58.623
 4533DC     BB129452  64.097  31.956  58.787
 4533DC     BB229453  64.163  32.084  59.118
 4533DC     BB329454  64.119  32.286  59.126
 4533DC     SC129455  64.337  32.346  58.992
 4533DC     SC229456  64.476  32.446  59.122
 4533DC     SC329457  64.492  32.436  58.798
 4534DA     BB129458  63.912  32.111  59.447
 4534DA     BB229459  64.082  32.410  59.574
 4534DA     BB329460  63.984  32.586  59.503
 4534DA     SC129461  64.159  32.610  59.247
 4534DA     SC229462  64.337  32.760  59.159
 4534DA     SC329463  64.275  32.665  58.929
 4534DA     SC429464  64.105  32.540  59.113
 4535DT     BB129465  63.875  32.721  59.632
 4535DT     BB229466  64.114  32.991  59.628
 4535DT     BB329467  64.042  33.148  59.514
 4535DT     SC129468  64.092  33.018  59.291
 4535DT     SC229469  64.254  33.114  59.187
 4535DT     SC329470  64.051  32.894  59.062
 4536DT     BB129471  63.973  33.319  59.730
 4536DT     BB229472  64.191  33.523  59.527
 4536DT     BB329473  64.080  33.630  59.390
 4536DT     SC129474  64.041  33.417  59.243
 4536DT     SC229475  64.150  33.435  59.058
 4536DT     SC329476  63.915  33.220  59.119
 4537DT     BB129477  64.100  33.883  59.519
 4537DT     BB229478  64.229  33.946  59.188
 4537DT     BB329479  64.077  34.009  59.063
 4537DT     SC129480  63.980  33.765  59.047
 4537DT     SC229481  64.011  33.689  58.848
 4537DT     SC329482  63.813  33.563  59.071
 4538DA     BB129483  64.362  34.314  59.023
 4538DA     BB229484  64.269  34.207  58.685
 4538DA     BB329485  64.079  34.288  58.632
 4538DA     SC129486  63.918  34.044  58.740
 4538DA     SC229487  63.784  33.856  58.647
 4538DA     SC329488  63.681  33.841  58.882
 4538DA     SC429489  63.866  34.052  58.892
 4539DA     BB129490  64.239  34.408  58.370
 4539DA     BB229491  64.023  34.196  58.162
 4539DA     BB329492  63.832  34.287  58.138
 4539DA     SC129493  63.708  34.148  58.388
 4539DA     SC229494  63.538  33.971  58.436
 4539DA     SC329495  63.528  34.074  58.670
 4539DA     SC429496  63.715  34.226  58.528
 4540DG     BB129497  63.906  34.281  57.838
 4540DG     BB229498  63.633  34.044  57.824
 4540DG     BB329499  63.460  34.141  57.810
 4540DG     SC129500  63.419  34.159  58.113
 4540DG     SC229501  63.205  34.021  58.270
 4540DG     SC329502  63.352  34.214  58.439
 4540DG     SC429503  63.480  34.284  58.193
 4541DT     BB129504  63.339  34.109  57.637
 4541DT     BB229505  63.082  33.894  57.772
 4541DT     BB329506  62.908  34.002  57.803
 4541DT     SC129507  63.010  34.118  58.015
 4541DT     SC229508  62.909  34.046  58.191
 4541DT     SC329509  63.100  34.307  58.175
 4542DT     BB129510  62.817  33.857  57.604
 4542DT     BB229511  62.598  33.787  57.881
 4542DT     BB329512  62.455  33.937  57.898
 4542DT     SC129513  62.631  34.104  57.998
 4542DT     SC229514  62.586  34.140  58.205
 4542DT     SC329515  62.787  34.316  58.021
 4543DT     BB129516  62.286  33.750  57.817
 4543DT     BB229517  62.157  33.864  58.134
 4543DT     BB329518  62.046  34.037  58.107
 4543DT     SC129519  62.263  34.181  58.073
 4543DT     SC229520  62.289  34.312  58.242
 4543DT     SC329521  62.442  34.335  57.958
 4544DG     BB129522  61.813  33.756  58.289
 4544DG     BB229523  61.809  34.070  58.469
 4544DG     BB329524  61.693  34.201  58.375
 4544DG     SC129525  61.918  34.312  58.200
 4544DG     SC229526  62.031  34.588  58.215
 4544DG     SC329527  62.136  34.444  57.979
 4544DG     SC429528  61.949  34.243  58.059
 4545DA     BB129529  61.536  34.245  58.681
 4545DA     BB229530  61.621  34.601  58.673
 4545DA     BB329531  61.494  34.705  58.537
 4545DA     SC129532  61.684  34.667  58.293
 4545DA     SC229533  61.831  34.808  58.150
 4545DA     SC329534  61.814  34.617  57.979
 4545DA     SC429535  61.660  34.538  58.200
 4546DT     BB129536  61.364  34.840  58.611
 4546DT     BB229537  61.540  35.135  58.500
 4546DT     BB329538  61.443  35.218  58.337
 4546DT     SC129539  61.532  35.029  58.178
 4546DT     SC229540  61.676  35.112  58.042
 4546DT     SC329541  61.533  34.823  58.013
 4547DT     BB129542  61.363  35.421  58.495
 4547DT     BB229543  61.544  35.579  58.226
 4547DT     BB329544  61.417  35.612  58.065
 4547DT     SC129545  61.420  35.358  58.001
 4547DT     SC229546  61.528  35.332  57.816
 4547DT     SC329547  61.335  35.112  57.956
 4548DG     BB129548  61.587  35.963  58.181
 4548DG     BB229549  61.631  35.903  57.827
 4548DG     BB329550  61.461  35.940  57.730
 4548DG     SC129551  61.355  35.654  57.758
 4548DG     SC229552  61.313  35.461  57.535
 4548DG     SC329553  61.199  35.357  57.787
 4548DG     SC429554  61.269  35.616  57.888
 4549DA     BB129555  61.673  36.127  57.533
 4549DA     BB229556  61.567  35.931  57.241
 4549DA     BB329557  61.368  35.983  57.186
 4549DA     SC129558  61.236  35.764  57.364
 4549DA     SC229559  61.113  35.550  57.333
 4549DA     SC329560  61.028  35.588  57.572
 4549DA     SC429561  61.193  35.806  57.513
 4550DT     BB129562  61.358  36.064  57.018
 4550DT     BB229563  61.204  35.791  56.839
 4550DT     BB329564  61.000  35.824  56.822
 4550DT     SC129565  60.962  35.762  57.074
 4550DT     SC229566  60.857  35.574  57.087
 4550DT     SC329567  60.897  35.786  57.329
 4551DA     BB129568  61.133  35.747  56.431
 4551DA     BB229569  60.830  35.548  56.485
 4551DA     BB329570  60.658  35.674  56.484
 4551DA     SC129571  60.664  35.725  56.791
 4551DA     SC229572  60.529  35.664  56.991
 4551DA     SC329573  60.642  35.864  57.104
 4551DA     SC429574  60.744  35.855  56.843
 4552DT     BB129575  60.505  35.673  56.328
 4552DT     BB229576  60.243  35.514  56.519
 4552DT     BB329577  60.096  35.653  56.565
 4552DT     SC129578  60.248  35.765  56.748
 4552DT     SC229579  60.167  35.723  56.943
 4552DT     SC329580  60.391  35.947  56.874
 4553DC     BB129581  59.904  35.561  56.377
 4553DC     BB229582  59.725  35.553  56.691
 4553DC     BB329583  59.626  35.732  56.720
 4553DC     SC129584  59.850  35.855  56.780
 4553DC     SC229585  59.851  35.905  56.989
 4553DC     SC329586  60.053  36.023  56.765
 4554DG     BB129587  59.316  35.464  56.720
 4554DG     BB229588  59.302  35.673  57.014
 4554DG     BB329589  59.216  35.847  56.970
 4554DG     SC129590  59.477  35.986  56.892
 4554DG     SC229591  59.606  36.212  57.039
 4554DG     SC329592  59.742  36.162  56.781
 4554DG     SC429593  59.529  35.976  56.741
 4555DT     BB129594  59.008  35.927  57.058
 4555DT     BB229595  59.125  36.179  57.290
 4555DT     BB329596  59.083  36.368  57.215
 4555DT     SC129597  59.278  36.350  57.040
 4555DT     SC229598  59.435  36.486  57.094
 4555DT     SC329599  59.402  36.338  56.808
 4556DA     BB129600  58.911  36.373  57.599
 4556DA     BB229601  59.111  36.678  57.566
 4556DA     BB329602  59.010  36.821  57.444
 4556DA     SC129603  59.139  36.723  57.179
 4556DA     SC229604  59.304  36.806  57.012
 4556DA     SC329605  59.199  36.635  56.852
 4556DA     SC429606  59.059  36.611  57.095
 4557DT     BB129607  58.923  37.018  57.517
 4557DT     BB229608  59.175  37.232  57.373
 4557DT     BB329609  59.095  37.341  57.216
 4557DT     SC129610  59.094  37.130  57.060
 4557DT     SC229611  59.241  37.156  56.905
 4557DT     SC329612  59.004  36.935  56.907
 4558DT     BB129613  59.071  37.600  57.348
 4558DT     BB229614  59.270  37.673  57.056
 4558DT     BB329615  59.148  37.736  56.901
 4558DT     SC129616  59.062  37.492  56.858
 4558DT     SC229617  59.139  37.421  56.670
 4558DT     SC329618  58.898  37.286  56.840
 4559DT     BB129619  59.204  38.026  56.904
 4559DT     BB229620  59.289  37.927  56.568
 4559DT     BB329621  59.128  37.960  56.441
 4559DT     SC129622  59.000  37.752  56.537
 4559DT     SC229623  58.991  37.599  56.387
 4559DT     SC329624  58.814  37.609  56.658
 4560DG     BB129625  59.417  38.199  56.277
 4560DG     BB229626  59.289  37.964  56.034
 4560DG     BB329627  59.123  38.036  55.952
 4560DG     SC129628  58.936  37.911  56.160
 4560DG     SC229629  58.738  37.694  56.110
 4560DG     SC329630  58.705  37.806  56.382
 4560DG     SC429631  58.903  37.993  56.293
 4561DC     BB129632  59.113  38.076  55.732
 4561DC     BB229633  58.930  37.784  55.626
 4561DC     BB329634  58.737  37.837  55.573
 4561DC     SC129635  58.667  37.866  55.824
 4561DC     SC229636  58.530  37.709  55.879
 4561DC     SC329637  58.587  37.981  56.048
 4562DG     BB129638  58.954  37.623  55.301
 4562DG     BB229639  58.640  37.464  55.384
 4562DG     BB329640  58.490  37.566  55.304
 4562DG     SC129641  58.452  37.750  55.546
 4562DG     SC229642  58.215  37.754  55.727
 4562DG     SC329643  58.396  37.981  55.785
 4562DG     SC429644  58.536  37.886  55.553
 4563DC     BB129645  58.402  37.442  55.199
 4563DC     BB229646  58.097  37.385  55.384
 4563DC     BB329647  57.951  37.518  55.322
 4563DC     SC129648  58.066  37.715  55.451
 4563DC     SC229649  57.943  37.772  55.619
 4563DC     SC329650  58.189  37.944  55.496
 4564DA     BB129651  57.819  37.117  55.345
 4564DA     BB229652  57.573  37.333  55.509
 4564DA     BB329653  57.476  37.458  55.366
 4564DA     SC129654  57.681  37.691  55.393
 4564DA     SC229655  57.686  37.923  55.484
 4564DA     SC329656  57.892  37.955  55.335
 4564DA     SC429657  57.807  37.692  55.293
 4565DA     BB129658  57.228  37.318  55.528
 4565DA     BB229659  57.124  37.660  55.612
 4565DA     BB329660  57.050  37.760  55.439
 4565DA     SC129661  57.327  37.877  55.359
 4565DA     SC229662  57.438  38.100  55.351
 4565DA     SC329663  57.601  37.991  55.186
 4565DA     SC429664  57.418  37.791  55.257
 4566DT     BB129665  56.862  37.805  55.442
 4566DT     BB229666  56.901  38.160  55.488
 4566DT     BB329667  56.871  38.259  55.308
 4566DT     SC129668  57.106  38.182  55.219
 4566DT     SC229669  57.237  38.352  55.206
 4566DT     SC329670  57.287  38.063  55.069
 4567DT     BB129671  56.641  38.349  55.409
 4567DT     BB229672  56.825  38.645  55.317
 4567DT     BB329673  56.796  38.687  55.116
 4567DT     SC129674  56.955  38.491  55.045
 4567DT     SC229675  57.135  38.572  54.960
 4567DT     SC329676  57.037  38.265  54.937
 4568DG     BB129677  56.691  39.008  55.343
 4568DG     BB229678  56.925  39.098  55.082
 4568DG     BB329679  56.831  39.104  54.906
 4568DG     SC129680  56.883  38.810  54.841
 4568DG     SC229681  57.057  38.707  54.621
 4568DG     SC329682  56.904  38.486  54.747
 4568DG     SC429683  56.778  38.699  54.890
 4569DA     BB129684  56.990  39.410  54.893
 4569DA     BB229685  57.151  39.308  54.579
 4569DA     BB329686  57.007  39.301  54.422
 4569DA     SC129687  56.935  39.001  54.468
 4569DA     SC229688  56.967  38.784  54.351
 4569DA     SC329689  56.773  38.700  54.496
 4569DA     SC429690  56.812  38.969  54.566
 4570DA     BB129691  57.250  39.486  54.298
 4570DA     BB229692  57.267  39.240  54.026
 4570DA     BB329693  57.093  39.252  53.904
 4570DA     SC129694  56.933  39.041  54.069
 4570DA     SC229695  56.850  38.808  54.038
 4570DA     SC329696  56.687  38.864  54.229
 4570DA     SC429697  56.839  39.095  54.188
 4571DG     BB129698  57.293  39.318  53.671
 4571DG     BB229699  57.157  39.016  53.524
 4571DG     BB329700  56.983  39.055  53.438
 4571DG     SC129701  56.818  38.999  53.689
 4571DG     SC229702  56.625  38.773  53.725
 4571DG     SC329703  56.608  38.964  53.951
 4571DG     SC429704  56.790  39.118  53.793
 4572DA     BB129705  57.068  38.926  53.112
 4572DA     BB229706  56.792  38.686  53.123
 4572DA     BB329707  56.609  38.781  53.068
 4572DA     SC129708  56.535  38.861  53.360
 4572DA     SC229709  56.366  38.796  53.532
 4572DA     SC329710  56.420  39.022  53.640
 4572DA     SC429711  56.581  39.006  53.411
 4573DC     BB129712  56.463  38.760  52.863
 4573DC     BB229713  56.199  38.572  53.020
 4573DC     BB329714  56.025  38.684  53.026
 4573DC     SC129715  56.119  38.834  53.220
 4573DC     SC229716  56.010  38.793  53.401
 4573DC     SC329717  56.204  39.047  53.349
 4574DA     BB129718  55.870  38.349  52.817
 4574DA     BB229719  55.641  38.412  53.096
 4574DA     BB329720  55.506  38.570  53.047
 4574DA     SC129721  55.688  38.794  53.162
 4574DA     SC229722  55.687  38.952  53.355
 4574DA     SC329723  55.855  39.089  53.218
 4574DA     SC429724  55.790  38.866  53.061
 4575DT     BB129725  55.276  38.550  53.015
 4575DT     BB229726  55.185  38.687  53.335
 4575DT     BB329727  55.089  38.869  53.309
 4575DT     SC129728  55.315  38.989  53.252
 4575DT     SC229729  55.368  39.123  53.412
 4575DT     SC329730  55.499  39.120  53.116
 4576DA     BB129731  54.848  38.631  53.553
 4576DA     BB229732  54.895  38.953  53.722
 4576DA     BB329733  54.777  39.104  53.627
 4576DA     SC129734  55.002  39.189  53.429
 4576DA     SC229735  55.151  39.385  53.392
 4576DA     SC329736  55.178  39.294  53.154
 4576DA     SC429737  55.004  39.117  53.285
 4577DA     BB129738  54.697  39.125  53.940
 4577DA     BB229739  54.827  39.467  53.927
 4577DA     BB329740  54.694  39.594  53.818
 4577DA     SC129741  54.830  39.543  53.543
 4577DA     SC229742  54.968  39.671  53.379
 4577DA     SC329743  54.895  39.493  53.210
 4577DA     SC429744  54.773  39.424  53.452
 4578DG     BB129745  54.718  39.724  54.094
 4578DG     BB229746  54.862  39.992  53.897
 4578DG     BB329747  54.718  40.091  53.802
 4578DG     SC129748  54.726  39.914  53.553
 4578DG     SC229749  54.814  39.998  53.281
 4578DG     SC329750  54.693  39.728  53.274
 4578DG     SC429751  54.634  39.783  53.548
 4579DG     BB129752  54.844  40.348  53.956
 4579DG     BB229753  54.906  40.483  53.627
 4579DG     BB329754  54.738  40.558  53.551
 4579DG     SC129755  54.652  40.295  53.419
 4579DG     SC229756  54.633  40.244  53.126
 4579DG     SC329757  54.518  40.019  53.279
 4579DG     SC429758  54.565  40.191  53.504
 4580DA     BB129759  54.922  40.847  53.491
 4580DA     BB229760  54.838  40.827  53.134
 4580DA     BB329761  54.635  40.885  53.102
 4580DA     SC129762  54.523  40.596  53.132
 4580DA     SC229763  54.420  40.422  52.986
 4580DA     SC329764  54.329  40.322  53.204
 4580DA     SC429765  54.475  40.550  53.279
 4581DA     BB129766  54.757  41.105  52.885
 4581DA     BB229767  54.557  40.941  52.626
 4581DA     BB329768  54.353  41.001  52.641
 4581DA     SC129769  54.273  40.769  52.832
 4581DA     SC229770  54.136  40.561  52.823
 4581DA     SC329771  54.132  40.576  53.079
 4581DA     SC429772  54.281  40.797  52.990
 4582DG     BB129773  54.371  41.125  52.349
 4582DG     BB229774  54.127  40.871  52.269
 4582DG     BB329775  53.944  40.937  52.311
 4582DG     SC129776  53.945  40.835  52.599
 4582DG     SC229777  53.773  40.617  52.709
 4582DG     SC329778  53.920  40.754  52.926
 4582DG     SC429779  54.003  40.930  52.715
 4583DT     BB129780  53.766  40.977  52.153
 4583DT     BB229781  53.556  40.691  52.219
 4583DT     BB329782  53.384  40.752  52.318
 4583DT     SC129783  53.516  40.784  52.542
 4583DT     SC229784  53.456  40.633  52.683
 4583DT     SC329785  53.622  40.902  52.753
 4584DT     BB129786  53.218  40.720  52.095
 4584DT     BB229787  53.070  40.508  52.347
 4584DT     BB329788  52.931  40.615  52.457
 4584DT     SC129789  53.120  40.742  52.586
 4584DT     SC229790  53.123  40.677  52.791
 4584DT     SC329791  53.272  40.940  52.674
 4585DA     BB129792  52.735  40.270  52.323
 4585DA     BB229793  52.679  40.298  52.684
 4585DA     BB329794  52.537  40.452  52.725
 4585DA     SC129795  52.751  40.675  52.754
 4585DA     SC229796  52.848  40.816  52.936
 4585DA     SC329797  52.923  40.972  52.747
 4585DA     SC429798  52.788  40.760  52.623
 4586DA     BB129799  52.399  40.202  52.884
 4586DA     BB229800  52.443  40.399  53.190
 4586DA     BB329801  52.299  40.556  53.198
 4586DA     SC129802  52.480  40.763  53.053
 4586DA     SC229803  52.604  40.972  53.109
 4586DA     SC329804  52.601  41.018  52.857
 4586DA     SC429805  52.467  40.775  52.893
 4587DG     BB129806  52.228  40.405  53.457
 4587DG     BB229807  52.339  40.714  53.609
 4587DG     BB329808  52.195  40.850  53.599
 4587DG     SC129809  52.284  40.961  53.328
 4587DG     SC229810  52.395  41.233  53.277
 4587DG     SC329811  52.343  41.092  53.023
 4587DG     SC429812  52.227  40.894  53.194
 4588DA     BB129813  52.260  40.880  53.935
 4588DA     BB229814  52.339  41.235  53.885
 4588DA     BB329815  52.160  41.346  53.850
 4588DA     SC129816  52.171  41.313  53.541
 4588DA     SC229817  52.212  41.456  53.341
 4588DA     SC329818  52.092  41.271  53.209
 4588DA     SC429819  52.092  41.188  53.477
 4589DA     BB129820  52.300  41.514  54.094
 4589DA     BB229821  52.304  41.800  53.865
 4589DA     BB329822  52.107  41.876  53.838
 4589DA     SC129823  52.045  41.696  53.592
 4589DA     SC229824  52.011  41.724  53.347
 4589DA     SC329825  51.893  41.496  53.358
 4589DA     SC429826  51.974  41.554  53.620
 4590DT     BB129827  52.077  42.055  53.906
 4590DT     BB229828  52.063  42.223  53.588
 4590DT     BB329829  51.866  42.262  53.537
 4590DT     SC129830  51.824  42.011  53.476
 4590DT     SC229831  51.798  41.992  53.263
 4590DT     SC329832  51.723  41.767  53.484
 4591DA     BB129833  52.079  42.622  53.502
 4591DA     BB229834  51.881  42.578  53.196
 4591DA     BB329835  51.674  42.612  53.236
 4591DA     SC129836  51.613  42.315  53.305
 4591DA     SC229837  51.487  42.125  53.204
 4591DA     SC329838  51.489  42.025  53.440
 4591DA     SC429839  51.624  42.270  53.459
 4592DT     BB129840  51.589  42.770  53.150
 4592DT     BB229841  51.396  42.588  52.905
 4592DT     BB329842  51.197  42.581  52.963
 4592DT     SC129843  51.249  42.401  53.147
 4592DT     SC229844  51.163  42.213  53.089
 4592DT     SC329845  51.273  42.288  53.384
 4593DG     BB129846  51.206  42.758  52.595
 4593DG     BB229847  50.972  42.482  52.604
 4593DG     BB329848  50.804  42.538  52.695
 4593DG     SC129849  50.899  42.456  52.974
 4593DG     SC229850  50.786  42.235  53.140
 4593DG     SC329851  50.979  42.397  53.296
 4593DG     SC429852  50.980  42.563  53.063
 4594DT     BB129853  50.605  42.545  52.589
 4594DT     BB229854  50.439  42.257  52.729
 4594DT     BB329855  50.298  42.317  52.868
 4594DT     SC129856  50.484  42.373  53.045
 4594DT     SC229857  50.475  42.231  53.206
 4594DT     SC329858  50.636  42.512  53.209
 4595DT     BB129859  50.087  42.257  52.700
 4595DT     BB229860  50.018  42.066  52.998
 4595DT     BB329861  49.908  42.181  53.132
 4595DT     SC129862  50.120  42.322  53.196
 4595DT     SC229863  50.178  42.276  53.398
 4595DT     SC329864  50.281  42.529  53.224
 4596DA     BB129865  49.680  41.830  53.088
 4596DA     BB229866  49.715  41.895  53.448
 4596DA     BB329867  49.587  42.054  53.507
 4596DA     SC129868  49.800  42.276  53.459
 4596DA     SC229869  49.938  42.432  53.596
 4596DA     SC329870  49.962  42.568  53.380
 4596DA     SC429871  49.802  42.347  53.315
 4597DA     BB129872  49.465  41.841  53.730
 4597DA     BB229873  49.585  42.068  53.991
 4597DA     BB329874  49.451  42.232  54.014
 4597DA     SC129875  49.597  42.412  53.807
 4597DA     SC229876  49.736  42.619  53.808
 4597DA     SC329877  49.674  42.638  53.560
 4597DA     SC429878  49.546  42.407  53.655
 4598DA     BB129879  49.444  42.139  54.331
 4598DA     BB229880  49.591  42.465  54.412
 4598DA     BB329881  49.442  42.617  54.408
 4598DA     SC129882  49.484  42.686  54.108
 4598DA     SC229883  49.575  42.875  53.973
 4598DA     SC329884  49.440  42.775  53.779
 4598DA     SC429885  49.392  42.609  54.001
 4599DT     BB129886  49.392  42.712  54.584
 4599DT     BB229887  49.567  43.019  54.512
 4599DT     BB329888  49.432  43.169  54.466
 4599DT     SC129889  49.387  43.066  54.229
 4599DT     SC229890  49.469  43.196  54.078
 4599DT     SC329891  49.259  42.954  54.027
 4600DA     BB129892  49.701  43.301  54.758
 4600DA     BB229893  49.690  43.550  54.489
 4600DA     BB329894  49.505  43.657  54.495
 4600DA     SC129895  49.359  43.461  54.302
 4600DA     SC229896  49.270  43.464  54.069
 4600DA     SC329897  49.127  43.264  54.143
 4600DA     SC429898  49.277  43.339  54.368
 4601DC     BB129899  49.534  43.834  54.532
 4601DC     BB229900  49.471  43.959  54.199
 4601DC     BB329901  49.278  44.035  54.188
 4601DC     SC129902  49.175  43.793  54.184
 4601DC     SC229903  49.093  43.754  53.989
 4601DC     SC329904  49.036  43.582  54.258
 4602DA     BB129905  49.575  44.288  54.025
 4602DA     BB229906  49.298  44.260  53.787
 4602DA     BB329907  49.123  44.353  53.866
 4602DA     SC129908  49.017  44.094  54.002
 4602DA     SC229909  48.829  43.933  53.970
 4602DA     SC329910  48.872  43.867  54.215
 4602DA     SC429911  49.058  44.068  54.155
 4603DT     BB129912  49.074  44.498  53.765
 4603DT     BB229913  48.781  44.353  53.613
 4603DT     BB329914  48.611  44.411  53.716
 4603DT     SC129915  48.666  44.247  53.914
 4603DT     SC229916  48.523  44.087  53.916
 4603DT     SC329917  48.727  44.162  54.156
 4604DT     BB129918  48.545  44.571  53.510
 4604DT     BB229919  48.258  44.358  53.556
 4604DT     BB329920  48.134  44.436  53.701
 4604DT     SC129921  48.297  44.362  53.892
 4604DT     SC229922  48.207  44.203  54.006
 4604DT     SC329923  48.466  44.377  54.095
 4605DA     BB129924  47.886  44.373  53.368
 4605DA     BB229925  47.720  44.226  53.660
 4605DA     BB329926  47.640  44.380  53.784
 4605DA     SC129927  47.897  44.405  53.958
 4605DA     SC229928  47.968  44.353  54.192
 4605DA     SC329929  48.157  44.521  54.151
 4605DA     SC429930  48.006  44.514  53.914
 4606DG     BB129931  47.360  44.251  53.729
 4606DG     BB229932  47.374  44.179  54.084
 4606DG     BB329933  47.311  44.337  54.188
 4606DG     SC129934  47.589  44.463  54.210
 4606DG     SC229935  47.747  44.497  54.461
 4606DG     SC329936  47.875  44.640  54.236
 4606DG     SC429937  47.639  44.562  54.094
 4607DA     BB129938  47.100  44.114  54.343
 4607DA     BB229939  47.260  44.188  54.664
 4607DA     BB329940  47.194  44.377  54.738
 4607DA     SC129941  47.421  44.539  54.601
 4607DA     SC229942  47.625  44.666  54.669
 4607DA     SC329943  47.606  44.779  54.439
 4607DA     SC429944  47.392  44.599  54.454
 4608DT     BB129945  47.104  44.354  54.894
 4608DT     BB229946  47.364  44.478  55.111
 4608DT     BB329947  47.326  44.675  55.161
 4608DT     SC129948  47.399  44.758  54.923
 4608DT     SC229949  47.583  44.867  54.939
 4608DT     SC329950  47.385  44.867  54.683
 4609DA     BB129951  47.430  44.424  55.484
 4609DA     BB229952  47.629  44.732  55.501
 4609DA     BB329953  47.504  44.899  55.544
 4609DA     SC129954  47.449  44.965  55.245
 4609DA     SC229955  47.509  45.144  55.081
 4609DA     SC329956  47.307  45.060  54.947
 4609DA     SC429957  47.319  44.900  55.177
 4610DT     BB129958  47.564  44.952  55.690
 4610DT     BB229959  47.714  45.259  55.574
 4610DT     BB329960  47.575  45.413  55.584
 4610DT     SC129961  47.448  45.323  55.373
 4610DT     SC229962  47.477  45.458  55.209
 4610DT     SC329963  47.255  45.223  55.224
 4611DT     BB129964  47.730  45.496  55.777
 4611DT     BB229965  47.702  45.776  55.551
 4611DT     BB329966  47.523  45.874  55.581
 4611DT     SC129967  47.389  45.682  55.460
 4611DT     SC229968  47.313  45.756  55.273
 4611DT     SC329969  47.220  45.484  55.422
 4612DC     BB129970  47.650  46.081  55.703
 4612DC     BB229971  47.452  46.238  55.445
 4612DC     BB329972  47.260  46.273  55.515
 4612DC     SC129973  47.197  46.019  55.495
 4612DC     SC229974  47.055  45.993  55.336
 4612DC     SC329975  47.127  45.775  55.565
 4613DG     BB129976  47.384  46.656  55.429
 4613DG     BB229977  47.062  46.589  55.278
 4613DG     BB329978  46.918  46.611  55.413
 4613DG     SC129979  46.926  46.320  55.506
 4613DG     SC229980  46.710  46.118  55.469
 4613DG     SC329981  46.922  46.013  55.646
 4613DG     SC429982  47.026  46.279  55.624
 4614DT     BB129983  46.737  46.779  55.417
 4614DT     BB229984  46.455  46.575  55.319
 4614DT     BB329985  46.330  46.545  55.481
 4614DT     SC129986  46.497  46.373  55.588
 4614DT     SC229987  46.412  46.175  55.578
 4614DT     SC329988  46.666  46.264  55.759
 4615DC     BB129989  46.131  46.719  55.391
 4615DC     BB229990  45.958  46.405  55.434
 4615DC     BB329991  45.883  46.392  55.626
 4615DC     SC129992  46.122  46.346  55.725
 4615DC     SC229993  46.132  46.142  55.794
 4615DC     SC329994  46.343  46.378  55.865
 4616DG     BB129995  45.557  46.357  55.383
 4616DG     BB229996  45.575  46.082  55.617
 4616DG     BB329997  45.507  46.139  55.794
 4616DG     SC129998  45.779  46.234  55.896
 4616DG     SC229999  45.936  46.111  56.118
 4616DG     SC330000  46.058  46.366  56.032
 4616DG     SC430001  45.825  46.385  55.868
 4617DT     BB130002  45.325  46.046  55.889
 4617DT     BB230003  45.476  45.840  56.143
 4617DT     BB330004  45.452  45.927  56.329
 4617DT     SC130005  45.636  46.107  56.277
 4617DT     SC230006  45.809  46.068  56.399
 4617DT     SC330007  45.750  46.341  56.234
 4618DA     BB130008  45.305  45.536  56.371
 4618DA     BB230009  45.537  45.598  56.648
 4618DA     BB330010  45.447  45.726  56.793
 4618DA     SC130011  45.552  45.988  56.662
 4618DA     SC230012  45.719  46.166  56.714
 4618DA     SC330013  45.588  46.309  56.546
 4618DA     SC430014  45.457  46.061  56.555
 4619DT     BB130015  45.396  45.659  56.991
 4619DT     BB230016  45.667  45.825  57.161
 4619DT     BB330017  45.595  45.985  57.270
 4619DT     SC130018  45.560  46.128  57.052
 4619DT     SC230019  45.703  46.289  57.050
 4619DT     SC330020  45.440  46.265  56.862
 4620DC     BB130021  45.625  45.861  57.520
 4620DC     BB230022  45.822  46.162  57.546
 4620DC     BB330023  45.706  46.316  57.620
 4620DC     SC130024  45.582  46.343  57.390
 4620DC     SC230025  45.640  46.529  57.299
 4620DC     SC330026  45.387  46.345  57.212
 4621DT     BB130027  45.831  46.312  57.867
 4621DT     BB230028  45.886  46.646  57.742
 4621DT     BB330029  45.731  46.770  57.801
 4621DT     SC130030  45.568  46.663  57.625
 4621DT     SC230031  45.527  46.807  57.470
 4621DT     SC330032  45.363  46.533  57.524
 4622DT     BB130033  45.911  46.884  57.958
 4622DT     BB230034  45.796  47.145  57.737
 4622DT     BB330035  45.620  47.227  57.809
 4622DT     SC130036  45.482  47.016  57.734
 4622DT     SC230037  45.353  47.070  57.571
 4622DT     SC330038  45.332  46.800  57.749
 4623DT     BB130039  45.778  47.430  57.844
 4623DT     BB230040  45.516  47.544  57.623
 4623DT     BB330041  45.346  47.589  57.732
 4623DT     SC130042  45.292  47.334  57.766
 4623DT     SC230043  45.117  47.282  57.653
 4623DT     SC330044  45.251  47.103  57.887
 4624DC     BB130045  45.409  47.831  57.660
 4624DC     BB230046  45.075  47.776  57.536
 4624DC     BB330047  44.938  47.800  57.689
 4624DC     SC130048  45.003  47.569  57.795
 4624DC     SC230049  44.841  47.431  57.771
 4624DC     SC330050  45.094  47.393  57.969
 4625DA     BB130051  44.824  48.021  57.349
 4625DA     BB230052  44.533  47.834  57.470
 4625DA     BB330053  44.465  47.913  57.656
 4625DA     SC130054  44.643  47.726  57.829
 4625DA     SC230055  44.611  47.533  57.984
 4625DA     SC330056  44.844  47.593  58.073
 4625DA     SC430057  44.788  47.780  57.872
 4626DT     BB130058  44.289  47.996  57.654
 4626DT     BB230059  44.115  47.737  57.834
 4626DT     BB330060  44.086  47.794  58.031
 4626DT     SC130061  44.339  47.750  58.088
 4626DT     SC230062  44.354  47.579  58.217
 4626DT     SC330063  44.588  47.796  58.160
 4627DT     BB130064  43.823  47.829  57.982
 4627DT     BB230065  43.835  47.592  58.254
 4627DT     BB330066  43.848  47.692  58.434
 4627DT     SC130067  44.100  47.752  58.392
 4627DT     SC230068  44.223  47.641  58.529
 4627DT     SC330069  44.318  47.895  58.352
 4628DA     BB130070  43.529  47.422  58.464
 4628DA     BB230071  43.743  47.377  58.758
 4628DA     BB330072  43.720  47.541  58.893
 4628DA     SC130073  43.949  47.709  58.766
 4628DA     SC230074  44.178  47.786  58.828
 4628DA     SC330075  44.146  47.964  58.647
 4628DA     SC430076  43.909  47.814  58.651
 4629DT     BB130077  43.644  47.494  59.061
 4629DT     BB230078  43.949  47.517  59.253
 4629DT     BB330079  43.954  47.695  59.358
 4629DT     SC130080  44.006  47.831  59.140
 4629DT     SC230081  44.208  47.906  59.150
 4629DT     SC330082  43.979  48.004  58.942
 4630DA     BB130083  44.044  47.367  59.604
 4630DA     BB230084  44.298  47.626  59.656
 4630DA     BB330085  44.214  47.793  59.758
 4630DA     SC130086  44.132  47.942  59.497
 4630DA     SC230087  44.202  48.146  59.372
 4630DA     SC330088  43.972  48.132  59.260
 4630DA     SC430089  43.984  47.917  59.440
 4631DG     BB130090  44.445  47.703  59.938
 4631DG     BB230091  44.569  48.033  59.857
 4631DG     BB330092  44.467  48.170  59.958
 4631DG     SC130093  44.253  48.206  59.742
 4631DG     SC230094  44.208  48.451  59.578
 4631DG     SC330095  43.990  48.255  59.536
 4631DG     SC430096  44.123  48.111  59.745
 4632DT     BB130097  44.578  48.285  60.086
 4632DT     BB230098  44.584  48.605  59.919
 4632DT     BB330099  44.438  48.728  59.997
 4632DT     SC130100  44.249  48.597  59.872
 4632DT     SC230101  44.166  48.721  59.717
 4632DT     SC330102  44.035  48.448  59.832
 4633DG     BB130103  44.792  48.926  60.050
 4633DG     BB230104  44.545  49.138  59.890
 4633DG     BB330105  44.417  49.206  60.026
 4633DG     SC130106  44.223  48.971  59.997
 4633DG     SC230107  43.946  48.985  59.887
 4633DG     SC330108  43.999  48.719  60.005
 4633DG     SC430109  44.245  48.841  60.087
 4634DT     BB130110  44.393  49.429  60.080
 4634DT     BB230111  44.079  49.506  59.919
 4634DT     BB330112  43.929  49.522  60.060
 4634DT     SC130113  43.920  49.261  60.091
 4634DT     SC230114  43.735  49.186  60.011
 4634DT     SC330115  43.938  49.024  60.205
 4635DG     BB130116  43.935  49.885  59.873
 4635DG     BB230117  43.603  49.742  59.871
 4635DG     BB330118  43.515  49.771  60.048
 4635DG     SC130119  43.619  49.510  60.170
 4635DG     SC230120  43.452  49.276  60.249
 4635DG     SC330121  43.732  49.243  60.342
 4635DG     SC430122  43.761  49.510  60.243
 4636DA     BB130123  43.252  49.903  59.867
 4636DA     BB230124  43.030  49.645  60.004
 4636DA     BB330125  42.978  49.692  60.205
 4636DA     SC130126  43.216  49.535  60.329
 4636DA     SC230127  43.251  49.327  60.463
 4636DA     SC330128  43.478  49.430  60.525
 4636DA     SC430129  43.352  49.616  60.357
 4637DA     BB130130  42.687  49.646  60.066
 4637DA     BB230131  42.640  49.373  60.307
 4637DA     BB330132  42.606  49.452  60.502
 4637DA     SC130133  42.907  49.454  60.581
 4637DA     SC230134  43.058  49.330  60.736
 4637DA     SC330135  43.215  49.532  60.711
 4637DA     SC430136  42.990  49.589  60.553
 4638DT     BB130137  42.438  49.409  60.562
 4638DT     BB230138  42.536  49.162  60.806
 4638DT     BB330139  42.541  49.247  60.995
 4638DT     SC130140  42.765  49.374  60.941
 4638DT     SC230141  42.925  49.288  61.055
 4638DT     SC330142  42.934  49.571  60.899
 4639DA     BB130143  42.317  48.891  61.008
 4639DA     BB230144  42.552  48.890  61.289
 4639DA     BB330145  42.493  49.033  61.436
 4639DA     SC130146  42.662  49.264  61.312
 4639DA     SC230147  42.866  49.395  61.370
 4639DA     SC330148  42.777  49.569  61.203
 4639DA     SC430149  42.590  49.360  61.205
 4640DA     BB130150  42.511  48.771  61.637
 4640DA     BB230151  42.762  48.958  61.829
 4640DA     BB330152  42.668  49.112  61.943
 4640DA     SC130153  42.696  49.328  61.720
 4640DA     SC230154  42.826  49.537  61.680
 4640DA     SC330155  42.645  49.592  61.506
 4640DA     SC430156  42.573  49.345  61.617
 4641DG     BB130157  42.767  48.980  62.217
 4641DG     BB230158  42.953  49.287  62.255
 4641DG     BB330159  42.839  49.426  62.340
 4641DG     SC130160  42.728  49.533  62.076
 4641DG     SC230161  42.781  49.804  61.961
 4641DG     SC330162  42.571  49.663  61.807
 4641DG     SC430163  42.596  49.467  62.014
 4642DA     BB130164  43.068  49.495  62.605
 4642DA     BB230165  43.102  49.843  62.495
 4642DA     BB330166  42.940  49.960  62.569
 4642DA     SC130167  42.759  49.911  62.321
 4642DA     SC230168  42.671  50.043  62.128
 4642DA     SC330169  42.494  49.858  62.110
 4642DA     SC430170  42.657  49.787  62.327
 4643DT     BB130171  42.956  50.126  62.724
 4643DT     BB230172  42.923  50.399  62.491
 4643DT     BB330173  42.742  50.494  62.519
 4643DT     SC130174  42.611  50.297  62.404
 4643DT     SC230175  42.534  50.364  62.215
 4643DT     SC330176  42.446  50.095  62.371
 4644DT     BB130177  42.856  50.719  62.637
 4644DT     BB230178  42.678  50.849  62.351
 4644DT     BB330179  42.484  50.897  62.405
 4644DT     SC130180  42.415  50.644  62.412
 4644DT     SC230181  42.281  50.603  62.249
 4644DT     SC330182  42.332  50.412  62.505
 4645DT     BB130183  42.543  51.162  62.387
 4645DT     BB230184  42.273  51.112  62.153
 4645DT     BB330185  42.091  51.131  62.250
 4645DT     SC130186  42.118  50.897  62.365
 4645DT     SC230187  41.975  50.760  62.282
 4645DT     SC330188  42.145  50.715  62.554
 4646DT     BB130189  42.062  51.359  62.114
 4646DT     BB230190  41.778  51.156  62.022
 4646DT     BB330191  41.628  51.175  62.163
 4646DT     SC130192  41.758  51.026  62.335
 4646DT     SC230193  41.655  50.838  62.359
 4646DT     SC330194  41.888  50.953  62.553
 4647DA     BB130195  41.474  51.234  61.778
 4647DA     BB230196  41.258  50.995  61.953
 4647DA     BB330197  41.145  51.094  62.105
 4647DA     SC130198  41.358  51.047  62.327
 4647DA     SC230199  41.381  50.912  62.535
 4647DA     SC330200  41.565  51.078  62.600
 4647DA     SC430201  41.468  51.162  62.350
 4648DG     BB130202  40.918  50.978  61.932
 4648DG     BB230203  40.850  50.791  62.233
 4648DG     BB330204  40.754  50.906  62.364
 4648DG     SC130205  41.010  51.011  62.496
 4648DG     SC230206  41.098  50.955  62.776
 4648DG     SC330207  41.268  51.162  62.651
 4648DG     SC430208  41.079  51.142  62.437
 4649DC     BB130209  40.560  50.847  62.425
 4649DC     BB230210  40.619  50.727  62.760
 4649DC     BB330211  40.563  50.871  62.897
 4649DC     SC130212  40.776  51.015  62.844
 4649DC     SC230213  40.908  51.011  63.014
 4649DC     SC330214  40.925  51.217  62.764
 4650DG     BB130215  40.357  50.528  62.977
 4650DG     BB230216  40.527  50.654  63.271
 4650DG     BB330217  40.427  50.809  63.345
 4650DG     SC130218  40.578  51.017  63.178
 4650DG     SC230219  40.764  51.225  63.284
 4650DG     SC330220  40.708  51.269  62.997
 4650DG     SC430221  40.522  51.055  63.033
 4651DA     BB130222  40.442  50.638  63.645
 4651DA     BB230223  40.620  50.921  63.797
 4651DA     BB330224  40.484  51.081  63.835
 4651DA     SC130225  40.529  51.217  63.559
 4651DA     SC230226  40.635  51.424  63.470
 4651DA     SC330227  40.490  51.386  63.263
 4651DA     SC430228  40.429  51.177  63.439
 4652DA     BB130229  40.621  51.044  64.130
 4652DA     BB230230  40.736  51.391  64.097
 4652DA     BB330231  40.573  51.526  64.121
 4652DA     SC130232  40.502  51.533  63.818
 4652DA     SC230233  40.513  51.695  63.629
 4652DA     SC330234  40.338  51.545  63.516
 4652DA     SC430235  40.392  51.427  63.765
 4653DA     BB130236  40.784  51.647  64.340
 4653DA     BB230237  40.774  51.958  64.146
 4653DA     BB330238  40.589  52.059  64.177
 4653DA     SC130239  40.444  51.921  63.939
 4653DA     SC230240  40.357  51.983  63.714
 4653DA     SC330241  40.214  51.771  63.733
 4653DA     SC430242  40.363  51.786  63.971
 4654DA     BB130243  40.801  52.299  64.247
 4654DA     BB230244  40.646  52.488  63.973
 4654DA     BB330245  40.453  52.558  64.032
 4654DA     SC130246  40.303  52.307  63.927
 4654DA     SC230247  40.145  52.249  63.743
 4654DA     SC330248  40.085  52.044  63.885
 4654DA     SC430249  40.278  52.186  64.031
 4655DT     BB130250  40.432  52.752  64.047
 4655DT     BB230251  40.232  52.801  63.751
 4655DT     BB330252  40.033  52.827  63.803
 4655DT     SC130253  40.006  52.571  63.855
 4655DT     SC230254  39.878  52.482  63.707
 4655DT     SC330255  39.963  52.349  63.990
 4656DT     BB130256  40.052  53.089  63.740
 4656DT     BB230257  39.777  52.968  63.540
 4656DT     BB330258  39.602  52.975  63.650
 4656DT     SC130259  39.673  52.766  63.791
 4656DT     SC230260  39.547  52.599  63.740
 4656DT     SC330261  39.741  52.618  63.999
 4657DG     BB130262  39.525  53.212  63.325
 4657DG     BB230263  39.263  52.966  63.370
 4657DG     BB330264  39.138  53.025  63.513
 4657DG     SC130265  39.294  52.890  63.739
 4657DG     SC230266  39.200  52.659  63.904
 4657DG     SC330267  39.451  52.772  64.014
 4657DG     SC430268  39.412  52.971  63.812
 4658DA     BB130269  38.857  52.990  63.302
 4658DA     BB230270  38.710  52.742  63.529
 4658DA     BB330271  38.616  52.840  63.694
 4658DA     SC130272  38.870  52.835  63.873
 4658DA     SC230273  38.948  52.720  64.080
 4658DA     SC330274  39.119  52.911  64.098
 4658DA     SC430275  38.967  52.963  63.868
 4659DA     BB130276  38.332  52.680  63.616
 4659DA     BB230277  38.352  52.514  63.943
 4659DA     BB330278  38.277  52.642  64.096
 4659DA     SC130279  38.554  52.770  64.157
 4659DA     SC230280  38.722  52.767  64.342
 4659DA     SC330281  38.810  52.985  64.238
 4659DA     SC430282  38.593  52.905  64.079
 4660DT     BB130283  38.087  52.608  64.216
 4660DT     BB230284  38.253  52.500  64.517
 4660DT     BB330285  38.230  52.642  64.665
 4660DT     SC130286  38.405  52.801  64.552
 4660DT     SC230287  38.582  52.810  64.673
 4660DT     SC330288  38.506  53.013  64.432
 4661DC     BB130289  38.047  52.488  64.812
 4661DC     BB230290  38.319  52.547  65.041
 4661DC     BB330291  38.284  52.719  65.150
 4661DC     SC130292  38.344  52.870  64.943
 4661DC     SC230293  38.530  52.972  64.981
 4661DC     SC330294  38.317  53.044  64.747
 4662DA     BB130295  38.372  52.410  65.416
 4662DA     BB230296  38.590  52.693  65.496
 4662DA     BB330297  38.479  52.848  65.592
 4662DA     SC130298  38.406  52.994  65.328
 4662DA     SC230299  38.464  53.207  65.213
 4662DA     SC330300  38.247  53.171  65.080
 4662DA     SC430301  38.267  52.954  65.256
 4663DC     BB130302  38.531  52.882  65.775
 4663DC     BB230303  38.707  53.190  65.709
 4663DC     BB330304  38.591  53.351  65.767
 4663DC     SC130305  38.434  53.324  65.559
 4663DC     SC230306  38.465  53.489  65.424
 4663DC     SC330307  38.217  53.280  65.416
 4664DA     BB130308  38.979  53.380  65.923
 4664DA     BB230309  38.894  53.700  65.765
 4664DA     BB330310  38.749  53.804  65.881
 4664DA     SC130311  38.505  53.680  65.734
 4664DA     SC230312  38.326  53.755  65.577
 4664DA     SC330313  38.199  53.546  65.654
 4664DA     SC430314  38.441  53.546  65.795
 4665DC     BB130315  38.820  53.959  65.945
 4665DC     BB230316  38.639  54.182  65.726
 4665DC     BB330317  38.475  54.261  65.824
 4665DC     SC130318  38.344  54.035  65.804
 4665DC     SC230319  38.181  54.059  65.667
 4665DC     SC330320  38.220  53.813  65.874
 4666DC     BB130321  38.616  54.481  65.810
 4666DC     BB230322  38.302  54.556  65.648
 4666DC     BB330323  38.158  54.600  65.789
 4666DC     SC130324  38.135  54.348  65.856
 4666DC     SC230325  37.943  54.274  65.792
 4666DC     SC330326  38.142  54.128  66.002
 4667DA     BB130327  38.170  54.881  65.477
 4667DA     BB230328  37.821  54.789  65.538
 4667DA     BB330329  37.756  54.864  65.726
 4667DA     SC130330  37.838  54.609  65.884
 4667DA     SC230331  37.726  54.420  66.002
 4667DA     SC330332  37.950  54.388  66.122
 4667DA     SC430333  37.985  54.605  65.949
 4668DT     BB130334  37.625  54.986  65.702
 4668DT     BB230335  37.350  54.792  65.832
 4668DT     BB330336  37.315  54.842  66.030
 4668DT     SC130337  37.527  54.708  66.108
 4668DT     SC230338  37.465  54.534  66.218
 4668DT     SC330339  37.765  54.658  66.212
 4669DA     BB130340  36.949  54.862  65.824
 4669DA     BB230341  36.891  54.687  66.141
 4669DA     BB330342  36.906  54.823  66.305
 4669DA     SC130343  37.211  54.777  66.348
 4669DA     SC230344  37.359  54.670  66.518
 4669DA     SC330345  37.545  54.814  66.416
 4669DA     SC430346  37.312  54.875  66.272
 4670DA     BB130347  36.599  54.722  66.398
 4670DA     BB230348  36.741  54.625  66.722
 4670DA     BB330349  36.773  54.798  66.843
 4670DA     SC130350  37.064  54.843  66.744
 4670DA     SC230351  37.295  54.826  66.835
 4670DA     SC330352  37.362  54.981  66.642
 4670DA     SC430353  37.085  54.942  66.618
 4671DA     BB130354  36.576  54.693  67.110
 4671DA     BB230355  36.870  54.709  67.329
 4671DA     BB330356  36.899  54.908  67.400
 4671DA     SC130357  37.085  54.990  67.165
 4671DA     SC230358  37.326  55.045  67.130
 4671DA     SC330359  37.248  55.161  66.915
 4671DA     SC430360  37.016  55.058  67.036
 4672DT     BB130361  36.870  55.023  67.633
 4672DT     BB230362  37.222  55.051  67.705
 4672DT     BB330363  37.277  55.250  67.712
 4672DT     SC130364  37.265  55.272  67.451
 4672DT     SC230365  37.464  55.296  67.372
 4672DT     SC330366  37.188  55.352  67.212
 4673DA     BB130367  37.409  55.131  68.096
 4673DA     BB230368  37.692  55.299  67.935
 4673DA     BB330369  37.670  55.511  67.947
 4673DA     SC130370  37.517  55.535  67.677
 4673DA     SC230371  37.559  55.626  67.449
 4673DA     SC330372  37.304  55.627  67.424
 4673DA     SC430373  37.357  55.530  67.682
 4674DT     BB130374  37.805  55.634  68.063
 4674DT     BB230375  37.990  55.759  67.780
 4674DT     BB330376  37.947  55.959  67.749
 4674DT     SC130377  37.712  55.901  67.648
 4674DT     SC230378  37.712  55.945  67.438
 4674DT     SC330379  37.450  55.889  67.621
 4675DC     BB130380  38.195  56.013  67.834
 4675DC     BB230381  38.179  56.148  67.500
 4675DC     BB330382  38.099  56.338  67.505
 4675DC     SC130383  37.857  56.244  67.545
 4675DC     SC230384  37.737  56.277  67.370
 4675DC     SC330385  37.626  56.195  67.663
 4676DA     BB130386  38.455  56.329  67.282
 4676DA     BB230387  38.199  56.503  67.085
 4676DA     BB330388  38.155  56.693  67.172
 4676DA     SC130389  37.926  56.585  67.352
 4676DA     SC230390  37.677  56.603  67.365
 4676DA     SC330391  37.705  56.528  67.609
 4676DA     SC430392  37.964  56.539  67.501
 4677DT     BB130393  38.204  56.841  67.063
 4677DT     BB230394  37.870  56.941  66.967
 4677DT     BB330395  37.809  57.101  67.082
 4677DT     SC130396  37.770  56.947  67.291
 4677DT     SC230397  37.559  56.933  67.330
 4677DT     SC330398  37.797  56.846  67.532
 4678DG     BB130399  37.789  57.236  66.695
 4678DG     BB230400  37.478  57.296  66.870
 4678DG     BB330401  37.496  57.456  66.987
 4678DG     SC130402  37.594  57.299  67.230
 4678DG     SC230403  37.446  57.264  67.487
 4678DG     SC330404  37.723  57.161  67.510
 4678DG     SC430405  37.751  57.273  67.247
 4679DA     BB130406  37.213  57.618  66.845
 4679DA     BB230407  37.044  57.619  67.171
 4679DA     BB330408  37.114  57.782  67.290
 4679DA     SC130409  37.343  57.619  67.423
 4679DA     SC230410  37.397  57.526  67.648
 4679DA     SC330411  37.639  57.518  67.564
 4679DA     SC430412  37.488  57.623  67.353
 4680DT     BB130413  36.991  57.969  67.354
 4680DT     BB230414  36.939  57.859  67.694
 4680DT     BB330415  37.044  57.981  67.824
 4680DT     SC130416  37.272  57.870  67.757
 4680DT     SC230417  37.346  57.754  67.923
 4680DT     SC330418  37.516  57.843  67.662
 4681DA     BB130419  36.649  57.979  67.961
 4681DA     BB230420  36.866  57.885  68.241
 4681DA     BB330421  36.964  58.057  68.320
 4681DA     SC130422  37.212  58.030  68.135
 4681DA     SC230423  37.454  57.972  68.157
 4681DA     SC330424  37.483  58.091  67.932
 4681DA     SC430425  37.210  58.110  67.995
 4682DA     BB130426  36.824  57.918  68.574
 4682DA     BB230427  37.164  57.869  68.702
 4682DA     BB330428  37.245  58.054  68.771
 4682DA     SC130429  37.371  58.129  68.497
 4682DA     SC230430  37.600  58.149  68.398
 4682DA     SC330431  37.487  58.295  68.220
 4682DA     SC430432  37.283  58.217  68.396
 4683DA     BB130433  37.279  57.824  68.996
 4683DA     BB230434  37.639  57.887  68.961
 4683DA     BB330435  37.688  58.080  69.036
 4683DA     SC130436  37.648  58.223  68.762
 4683DA     SC230437  37.790  58.334  68.590
 4683DA     SC330438  37.573  58.448  68.514
 4683DA     SC430439  37.503  58.285  68.731
 4684DA     BB130440  37.887  57.854  69.159
 4684DA     BB230441  38.156  58.054  69.011
 4684DA     BB330442  38.170  58.243  69.110
 4684DA     SC130443  37.973  58.386  68.916
 4684DA     SC230444  37.984  58.560  68.737
 4684DA     SC330445  37.732  58.588  68.778
 4684DA     SC430446  37.818  58.390  68.957
 4685DA     BB130447  38.468  58.106  69.092
 4685DA     BB230448  38.567  58.414  68.920
 4685DA     BB330449  38.555  58.581  69.053
 4685DA     SC130450  38.260  58.649  68.980
 4685DA     SC230451  38.136  58.829  68.860
 4685DA     SC330452  37.930  58.745  68.988
 4685DA     SC430453  38.144  58.583  69.070
 4686DC     BB130454  38.719  58.649  69.080
 4686DC     BB230455  38.675  58.959  68.901
 4686DC     BB330456  38.624  59.111  69.032
 4686DC     SC130457  38.380  59.018  69.056
 4686DC     SC230458  38.242  59.154  68.961
 4686DC     SC330459  38.163  58.914  69.165
 4687DT     BB130460  38.871  59.214  69.002
 4687DT     BB230461  38.649  59.490  68.929
 4687DT     BB330462  38.594  59.585  69.105
 4687DT     SC130463  38.432  59.389  69.169
 4687DT     SC230464  38.228  59.458  69.155
 4687DT     SC330465  38.327  59.187  69.301
 4688DA     BB130466  38.746  59.904  68.875
 4688DA     BB230467  38.429  60.018  69.021
 4688DA     BB330468  38.455  60.064  69.228
 4688DA     SC130469  38.383  59.778  69.325
 4688DA     SC230470  38.197  59.666  69.448
 4688DA     SC330471  38.367  59.480  69.495
 4688DA     SC430472  38.504  59.673  69.345
 4689DA     BB130473  38.339  60.380  69.180
 4689DA     BB230474  38.067  60.306  69.414
 4689DA     BB330475  38.134  60.327  69.615
 4689DA     SC130476  38.223  60.030  69.643
 4689DA     SC230477  38.149  59.826  69.767
 4689DA     SC330478  38.386  59.740  69.725
 4689DA     SC430479  38.375  59.995  69.608
 4690DA     BB130480  37.894  60.558  69.694
 4690DA     BB230481  37.759  60.323  69.940
 4690DA     BB330482  37.865  60.340  70.125
 4690DA     SC130483  38.076  60.123  70.051
 4690DA     SC230484  38.136  59.892  70.123
 4690DA     SC330485  38.365  59.940  70.017
 4690DA     SC430486  38.212  60.173  69.982
 4691DT     BB130487  37.791  60.428  70.348
 4691DT     BB230488  37.755  60.104  70.502
 4691DT     BB330489  37.892  60.083  70.656
 4691DT     SC130490  38.089  60.049  70.485
 4691DT     SC230491  38.158  59.846  70.495
 4691DT     SC330492  38.313  60.092  70.353
 4692DT     BB130493  37.712  60.113  70.881
 4692DT     BB230494  37.861  59.789  70.933
 4692DT     BB330495  38.025  59.805  71.058
 4692DT     SC130496  38.170  59.910  70.866
 4692DT     SC230497  38.322  59.770  70.807
 4692DT     SC330498  38.315  60.085  70.732
 4693DT     BB130499  37.893  59.686  71.272
 4693DT     BB230500  38.179  59.475  71.214
 4693DT     BB330501  38.340  59.540  71.328
 4693DT     SC130502  38.380  59.744  71.168
 4693DT     SC230503  38.564  59.715  71.060
 4693DT     SC330504  38.399  59.993  71.084
 4694DG     BB130505  38.265  59.152  71.424
 4694DG     BB230506  38.610  59.201  71.327
 4694DG     BB330507  38.712  59.280  71.478
 4694DG     SC130508  38.657  59.569  71.397
 4694DG     SC230509  38.859  59.766  71.299
 4694DG     SC330510  38.598  59.898  71.348
 4694DG     SC430511  38.525  59.642  71.452
 4695DG     BB130512  38.904  59.019  71.449
 4695DG     BB230513  39.167  59.253  71.369
 4695DG     BB330514  39.242  59.331  71.536
 4695DG     SC130515  39.046  59.566  71.544
 4695DG     SC230516  39.116  59.854  71.507
 4695DG     SC330517  38.835  59.824  71.594
 4695DG     SC430518  38.906  59.548  71.618
 4696DG     BB130519  39.531  59.216  71.436
 4696DG     BB230520  39.639  59.561  71.430
 4696DG     BB330521  39.690  59.619  71.613
 4696DG     SC130522  39.409  59.717  71.687
 4696DG     SC230523  39.330  60.000  71.736
 4696DG     SC330524  39.110  59.815  71.808
 4696DG     SC430525  39.306  59.613  71.751
 4697DT     BB130526  39.898  59.681  71.660
 4697DT     BB230527  39.863  60.039  71.688
 4697DT     BB330528  39.867  60.095  71.887
 4697DT     SC130529  39.623  60.006  71.924
 4697DT     SC230530  39.490  60.172  71.956
 4697DT     SC330531  39.423  59.861  72.018
 4698DG     BB130532  40.170  60.295  71.703
 4698DG     BB230533  39.957  60.521  71.888
 4698DG     BB330534  40.001  60.513  72.082
 4698DG     SC130535  39.802  60.287  72.142
 4698DG     SC230536  39.557  60.310  72.311
 4698DG     SC330537  39.610  60.028  72.240
 4698DG     SC430538  39.851  60.135  72.128
 4699DA     BB130539  40.026  60.857  72.066
 4699DA     BB230540  39.763  60.890  72.319
 4699DA     BB330541  39.840  60.846  72.513
 4699DA     SC130542  39.772  60.543  72.499
 4699DA     SC230543  39.613  60.384  72.607
 4699DA     SC330544  39.775  60.201  72.530
 4699DA     SC430545  39.886  60.444  72.444
 4700DA     BB130546  39.701  61.137  72.559
 4700DA     BB230547  39.488  60.973  72.808
 4700DA     BB330548  39.600  60.929  72.984
 4700DA     SC130549  39.687  60.646  72.889
 4700DA     SC230550  39.640  60.409  72.949
 4700DA     SC330551  39.860  60.356  72.828
 4700DA     SC430552  39.827  60.634  72.811
 4701DC     BB130553  39.544  61.026  73.140
 4701DC     BB230554  39.390  60.750  73.314
 4701DC     BB330555  39.515  60.681  73.463
 4701DC     SC130556  39.672  60.564  73.288
 4701DC     SC230557  39.653  60.351  73.307
 4701DC     SC330558  39.887  60.508  73.147
 4702DT     BB130559  39.335  60.785  73.623
 4702DT     BB230560  39.362  60.439  73.721
 4702DT     BB330561  39.527  60.413  73.843
 4702DT     SC130562  39.691  60.432  73.639
 4702DT     SC230563  39.781  60.241  73.601
 4702DT     SC330564  39.882  60.525  73.482
 4703DC     BB130565  39.360  60.379  74.051
 4703DC     BB230566  39.563  60.081  74.048
 4703DC     BB330567  39.740  60.114  74.151
 4703DC     SC130568  39.836  60.258  73.954
 4703DC     SC230569  39.998  60.151  73.860
 4703DC     SC330570  39.930  60.465  73.820
 4704DA     BB130571  39.570  59.765  74.310
 4704DA     BB230572  39.922  59.696  74.237
 4704DA     BB330573  40.048  59.794  74.379
 4704DA     SC130574  40.076  60.054  74.210
 4704DA     SC230575  40.254  60.171  74.080
 4704DA     SC330576  40.107  60.380  74.105
 4704DA     SC430577  39.971  60.173  74.238
 4705DA     BB130578  40.162  59.488  74.408
 4705DA     BB230579  40.486  59.620  74.297
 4705DA     BB330580  40.578  59.732  74.454
 4705DA     SC130581  40.451  60.003  74.369
 4705DA     SC230582  40.527  60.219  74.269
 4705DA     SC330583  40.310  60.316  74.364
 4705DA     SC430584  40.312  60.045  74.437
 4706DT     BB130585  40.742  59.657  74.524
 4706DT     BB230586  40.967  59.895  74.372
 4706DT     BB330587  41.029  60.034  74.513
 4706DT     SC130588  40.796  60.155  74.507
 4706DT     SC230589  40.819  60.348  74.415
 4706DT     SC330590  40.563  60.249  74.587
 4707DG     BB130591  41.353  59.853  74.344
 4707DG     BB230592  41.377  60.214  74.331
 4707DG     BB330593  41.423  60.285  74.511
 4707DG     SC130594  41.132  60.316  74.600
 4707DG     SC230595  40.991  60.573  74.654
 4707DG     SC330596  40.826  60.343  74.738
 4707DG     SC430597  41.059  60.192  74.671
 4708DT     BB130598  41.605  60.391  74.532
 4708DT     BB230599  41.493  60.732  74.569
 4708DT     BB330600  41.494  60.785  74.769
 4708DT     SC130601  41.278  60.644  74.816
 4708DT     SC230602  41.114  60.776  74.857
 4708DT     SC330603  41.120  60.457  74.915
 4709DT     BB130604  41.709  60.941  74.724
 4709DT     BB230605  41.467  61.163  74.874
 4709DT     BB330606  41.477  61.149  75.080
 4709DT     SC130607  41.356  60.917  75.079
 4709DT     SC230608  41.160  60.938  75.164
 4709DT     SC330609  41.315  60.658  75.112
 4710DA     BB130610  41.523  61.564  75.014
 4710DA     BB230611  41.271  61.523  75.277
 4710DA     BB330612  41.365  61.471  75.462
 4710DA     SC130613  41.345  61.164  75.413
 4710DA     SC230614  41.220  60.970  75.506
 4710DA     SC330615  41.405  60.826  75.402
 4710DA     SC430616  41.471  61.092  75.343
 4711DG     BB130617  41.271  61.741  75.621
 4711DG     BB230618  41.079  61.511  75.824
 4711DG     BB330619  41.189  61.450  75.979
 4711DG     SC130620  41.309  61.210  75.832
 4711DG     SC230621  41.258  60.923  75.895
 4711DG     SC330622  41.474  60.950  75.695
 4711DG     SC430623  41.443  61.230  75.748
 4712DT     BB130624  41.167  61.488  76.249
 4712DT     BB230625  41.037  61.164  76.340
 4712DT     BB330626  41.174  61.063  76.457
 4712DT     SC130627  41.326  61.013  76.248
 4712DT     SC230628  41.319  60.802  76.204
 4712DT     SC330629  41.534  61.014  76.086
 4713DG     BB130630  40.854  61.087  76.711
 4713DG     BB230631  40.960  60.744  76.671
 4713DG     BB330632  41.110  60.703  76.796
 4713DG     SC130633  41.328  60.786  76.598
 4713DG     SC230634  41.529  60.604  76.472
 4713DG     SC330635  41.593  60.887  76.414
 4713DG     SC430636  41.376  60.939  76.594
 4714DA     BB130637  40.920  60.436  76.896
 4714DA     BB230638  41.183  60.206  76.783
 4714DA     BB330639  41.341  60.199  76.927
 4714DA     SC130640  41.503  60.430  76.796
 4714DA     SC230641  41.717  60.457  76.669
 4714DA     SC330642  41.702  60.704  76.738
 4714DA     SC430643  41.477  60.579  76.849
 4715DG     BB130644  41.253  59.907  76.915
 4715DG     BB230645  41.586  59.862  76.783
 4715DG     BB330646  41.718  59.860  76.932
 4715DG     SC130647  41.765  60.163  76.926
 4715DG     SC230648  42.019  60.299  76.848
 4715DG     SC330649  41.826  60.493  76.961
 4715DG     SC430650  41.671  60.257  77.014
 4716DA     BB130651  41.815  59.577  76.764
 4716DA     BB230652  42.153  59.716  76.730
 4716DA     BB330653  42.252  59.716  76.919
 4716DA     SC130654  42.156  60.001  76.998
 4716DA     SC230655  42.255  60.228  77.028
 4716DA     SC330656  42.046  60.278  77.168
 4716DA     SC430657  42.019  60.013  77.083
 4717DT     BB130658  42.402  59.600  76.926
 4717DT     BB230659  42.660  59.852  76.933
 4717DT     BB330660  42.728  59.878  77.127
 4717DT     SC130661  42.511  60.009  77.194
 4717DT     SC230662  42.561  60.216  77.228
 4717DT     SC330663  42.285  60.070  77.316
 4718DC     BB130664  42.964  59.747  77.071
 4718DC     BB230665  43.072  60.062  77.211
 4718DC     BB330666  43.085  60.046  77.417
 4718DC     SC130667  42.824  60.054  77.442
 4718DC     SC230668  42.766  60.240  77.534
 4718DC     SC330669  42.578  59.978  77.500
 4719DA     BB130670  43.476  60.179  77.327
 4719DA     BB230671  43.358  60.386  77.606
 4719DA     BB330672  43.372  60.278  77.790
 4719DA     SC130673  43.084  60.161  77.770
 4719DA     SC230674  42.865  60.189  77.887
 4719DA     SC330675  42.806  59.960  77.787
 4719DA     SC430676  43.067  60.017  77.700
 4720DG     BB130677  43.593  60.474  77.936
 4720DG     BB230678  43.326  60.543  78.170
 4720DG     BB330679  43.337  60.418  78.325
 4720DG     SC130680  43.159  60.205  78.196
 4720DG     SC230681  42.887  60.124  78.290
 4720DG     SC330682  42.985  59.942  78.077
 4720DG     SC430683  43.226  60.093  78.104
 4721DA     BB130684  43.351  60.667  78.585
 4721DA     BB230685  43.034  60.549  78.727
 4721DA     BB330686  43.068  60.389  78.863
 4721DA     SC130687  43.040  60.167  78.647
 4721DA     SC230688  42.879  59.986  78.589
 4721DA     SC330689  43.074  59.882  78.458
 4721DA     SC430690  43.174  60.118  78.573
 4722DT     BB130691  43.031  60.407  79.076
 4722DT     BB230692  42.722  60.220  79.073
 4722DT     BB330693  42.749  60.037  79.167
 4722DT     SC130694  42.881  59.942  78.960
 4722DT     SC230695  42.763  59.792  78.863
 4722DT     SC330696  43.079  59.845  78.816
 4723DG     BB130697  42.450  60.233  79.359
 4723DG     BB230698  42.345  59.905  79.249
 4723DG     BB330699  42.415  59.767  79.373
 4723DG     SC130700  42.676  59.726  79.219
 4723DG     SC230701  42.757  59.480  79.071
 4723DG     SC330702  42.982  59.671  79.086
 4723DG     SC430703  42.803  59.818  79.254
 4724DA     BB130704  42.086  59.666  79.373
 4724DA     BB230705  42.190  59.339  79.245
 4724DA     BB330706  42.284  59.225  79.399
 4724DA     SC130707  42.570  59.327  79.333
 4724DA     SC230708  42.781  59.236  79.237
 4724DA     SC330709  42.895  59.435  79.352
 4724DA     SC430710  42.623  59.457  79.413
 4725DA     BB130711  42.054  59.018  79.290
 4725DA     BB230712  42.330  58.791  79.207
 4725DA     BB330713  42.413  58.707  79.385
 4725DA     SC130714  42.625  58.932  79.421
 4725DA     SC230715  42.873  58.957  79.405
 4725DA     SC330716  42.841  59.166  79.550
 4725DA     SC430717  42.585  59.058  79.513
 4726DG     BB130718  42.327  58.439  79.254
 4726DG     BB230719  42.684  58.378  79.252
 4726DG     BB330720  42.743  58.314  79.431
 4726DG     SC130721  42.798  58.594  79.541
 4726DG     SC230722  43.066  58.704  79.614
 4726DG     SC330723  42.850  58.886  79.701
 4726DG     SC430724  42.679  58.674  79.612
 4727DC     BB130725  42.832  58.108  79.464
 4727DC     BB230726  43.180  58.190  79.509
 4727DC     BB330727  43.231  58.174  79.709
 4727DC     SC130728  43.107  58.398  79.766
 4727DC     SC230729  43.251  58.549  79.818
 4727DC     SC330730  42.933  58.564  79.873
 4728DT     BB130731  43.374  57.947  79.658
 4728DT     BB230732  43.612  58.173  79.807
 4728DT     BB330733  43.607  58.156  80.013
 4728DT     SC130734  43.380  58.288  80.026
 4728DT     SC230735  43.414  58.480  80.117
 4728DT     SC330736  43.125  58.339  80.071
 4729DT     BB130737  43.847  58.037  80.001
 4729DT     BB230738  43.896  58.325  80.212
 4729DT     BB330739  43.847  58.279  80.408
 4729DT     SC130740  43.591  58.285  80.353
 4729DT     SC230741  43.501  58.456  80.449
 4729DT     SC330742  43.342  58.204  80.322
 4730DA     BB130743  44.219  58.469  80.376
 4730DA     BB230744  44.023  58.638  80.635
 4730DA     BB330745  44.002  58.513  80.806
 4730DA     SC130746  43.737  58.382  80.708
 4730DA     SC230747  43.496  58.384  80.771
 4730DA     SC330748  43.481  58.164  80.641
 4730DA     SC430749  43.749  58.246  80.624
 4731DG     BB130750  44.133  58.771  80.905
 4731DG     BB230751  43.827  58.791  81.097
 4731DG     BB330752  43.832  58.660  81.247
 4731DG     SC130753  43.708  58.432  81.085
 4731DG     SC230754  43.439  58.310  81.133
 4731DG     SC330755  43.592  58.155  80.932
 4731DG     SC430756  43.803  58.335  81.001
 4732DA     BB130757  43.732  58.952  81.404
 4732DA     BB230758  43.438  58.771  81.527
 4732DA     BB330759  43.495  58.622  81.668
 4732DA     SC130760  43.527  58.399  81.453
 4732DA     SC230761  43.411  58.188  81.387
 4732DA     SC330762  43.632  58.127  81.271
 4732DA     SC430763  43.673  58.378  81.389
 4733DT     BB130764  43.432  58.654  81.841
 4733DT     BB230765  43.183  58.393  81.851
 4733DT     BB330766  43.257  58.228  81.951
 4733DT     SC130767  43.409  58.162  81.748
 4733DT     SC230768  43.333  57.982  81.658
 4733DT     SC330769  43.625  58.112  81.605
 4734DT     BB130770  43.092  58.287  82.155
 4734DT     BB230771  43.009  57.948  82.064
 4734DT     BB330772  43.137  57.816  82.159
 4734DT     SC130773  43.334  57.878  81.996
 4734DT     SC230774  43.375  57.710  81.868
 4734DT     SC330775  43.566  57.968  81.911
 4735DC     BB130776  42.932  57.742  82.315
 4735DC     BB230777  43.045  57.437  82.159
 4735DC     BB330778  43.202  57.357  82.266
 4735DC     SC130779  43.368  57.538  82.174
 4735DC     SC230780  43.508  57.445  82.040
 4735DC     SC330781  43.537  57.741  82.170
 4736DA     BB130782  42.910  57.063  82.195
 4736DA     BB230783  43.238  56.926  82.103
 4736DA     BB330784  43.355  56.891  82.278
 4736DA     SC130785  43.486  57.173  82.276
 4736DA     SC230786  43.711  57.272  82.233
 4736DA     SC330787  43.625  57.475  82.364
 4736DA     SC430788  43.415  57.289  82.361
 4737DT     BB130789  43.389  56.713  82.299
 4737DT     BB230790  43.739  56.721  82.211
 4737DT     BB330791  43.855  56.727  82.382
 4737DT     SC130792  43.796  56.979  82.422
 4737DT     SC230793  43.970  57.100  82.388
 4737DT     SC330794  43.699  57.196  82.537
 4738DT     BB130795  43.920  56.482  82.314
 4738DT     BB230796  44.234  56.658  82.346
 4738DT     BB330797  44.289  56.670  82.545
 4738DT     SC130798  44.109  56.855  82.591
 4738DT     SC230799  44.207  57.043  82.629
 4738DT     SC330800  43.896  56.975  82.691
 4739DA     BB130801  44.624  56.511  82.344
 4739DA     BB230802  44.743  56.774  82.570
 4739DA     BB330803  44.732  56.709  82.773
 4739DA     SC130804  44.444  56.818  82.817
 4739DA     SC230805  44.333  57.001  82.946
 4739DA     SC330806  44.119  56.864  82.917
 4739DA     SC430807  44.321  56.718  82.790
 4740DT     BB130808  44.907  56.660  82.912
 4740DT     BB230809  44.878  56.948  83.128
 4740DT     BB330810  44.806  56.890  83.313
 4740DT     SC130811  44.563  56.859  83.218
 4740DT     SC230812  44.435  57.012  83.298
 4740DT     SC330813  44.337  56.742  83.147
 4741DA     BB130814  45.168  57.058  83.474
 4741DA     BB230815  44.895  57.196  83.676
 4741DA     BB330816  44.836  57.057  83.826
 4741DA     SC130817  44.620  56.920  83.650
 4741DA     SC230818  44.371  56.904  83.641
 4741DA     SC330819  44.409  56.694  83.499
 4741DA     SC430820  44.664  56.791  83.564
 4742DT     BB130821  44.858  57.055  84.087
 4742DT     BB230822  44.513  57.144  84.146
 4742DT     BB330823  44.417  56.990  84.245
 4742DT     SC130824  44.407  56.845  84.026
 4742DT     SC230825  44.204  56.831  83.959
 4742DT     SC330826  44.450  56.646  83.858
 4743DT     BB130827  44.401  57.118  84.498
 4743DT     BB230828  44.057  57.055  84.409
 4743DT     BB330829  43.996  56.873  84.486
 4743DT     SC130830  44.132  56.741  84.305
 4743DT     SC230831  43.996  56.645  84.169
 4743DT     SC330832  44.312  56.581  84.198
 4744DG     BB130833  43.751  57.170  84.616
 4744DG     BB230834  43.567  56.906  84.450
 4744DG     BB330835  43.549  56.750  84.571
 4744DG     SC130836  43.809  56.616  84.479
 4744DG     SC230837  43.830  56.359  84.329
 4744DG     SC330838  44.097  56.453  84.417
 4744DG     SC430839  43.946  56.654  84.553
 4745DA     BB130840  43.227  56.794  84.462
 4745DA     BB230841  43.232  56.450  84.333
 4745DA     BB330842  43.232  56.311  84.495
 4745DA     SC130843  43.542  56.295  84.513
 4745DA     SC230844  43.722  56.129  84.465
 4745DA     SC330845  43.867  56.271  84.622
 4745DA     SC430846  43.616  56.395  84.615
 4746DA     BB130847  42.989  56.216  84.295
 4746DA     BB230848  43.167  55.897  84.273
 4746DA     BB330849  43.159  55.794  84.459
 4746DA     SC130850  43.423  55.919  84.567
 4746DA     SC230851  43.655  55.845  84.619
 4746DA     SC330852  43.668  56.055  84.765
 4746DA     SC430853  43.411  56.054  84.654
 4747DA     BB130854  43.043  55.552  84.266
 4747DA     BB230855  43.324  55.348  84.384
 4747DA     BB330856  43.291  55.286  84.585
 4747DA     SC130857  43.433  55.533  84.711
 4747DA     SC230858  43.643  55.581  84.837
 4747DA     SC330859  43.525  55.796  84.912
 4747DA     SC430860  43.342  55.660  84.747
 4748DA     BB130861  43.330  54.966  84.487
 4748DA     BB230862  43.616  54.944  84.715
 4748DA     BB330863  43.550  54.914  84.915
 4748DA     SC130864  43.537  55.218  84.981
 4748DA     SC230865  43.660  55.382  85.123
 4748DA     SC330866  43.450  55.528  85.102
 4748DA     SC430867  43.396  55.293  84.957
 4749DT     BB130868  43.568  54.716  85.065
 4749DT     BB230869  43.832  54.852  85.269
 4749DT     BB330870  43.763  54.884  85.462
 4749DT     SC130871  43.628  55.096  85.386
 4749DT     SC230872  43.720  55.272  85.468
 4749DT     SC330873  43.424  55.256  85.337
 4750DC     BB130874  43.888  54.658  85.609
 4750DC     BB230875  44.015  54.953  85.775
 4750DC     BB330876  43.901  54.994  85.942
 4750DC     SC130877  43.704  55.086  85.795
 4750DC     SC230878  43.688  55.299  85.821
 4750DC     SC330879  43.465  55.107  85.685
 4751DA     BB130880  44.300  54.978  86.054
 4751DA     BB230881  44.165  55.304  86.155
 4751DA     BB330882  44.042  55.283  86.328
 4751DA     SC130883  43.780  55.237  86.167
 4751DA     SC230884  43.568  55.360  86.121
 4751DA     SC330885  43.473  55.130  86.058
 4751DA     SC430886  43.739  55.085  86.133
 4752DC     BB130887  44.124  55.379  86.441
 4752DC     BB230888  43.896  55.658  86.421
 4752DC     BB330889  43.754  55.645  86.572
 4752DC     SC130890  43.628  55.452  86.447
 4752DC     SC230891  43.438  55.525  86.376
 4752DC     SC330892  43.527  55.214  86.396
 4753DT     BB130893  43.894  55.854  86.612
 4753DT     BB230894  43.554  55.963  86.566
 4753DT     BB330895  43.441  55.916  86.733
 4753DT     SC130896  43.434  55.662  86.667
 4753DT     SC230897  43.234  55.609  86.609
 4753DT     SC330898  43.473  55.402  86.679
 4754DA     BB130899  43.398  56.301  86.555
 4754DA     BB230900  43.067  56.158  86.624
 4754DA     BB330901  43.040  56.135  86.835
 4754DA     SC130902  43.153  55.845  86.841
 4754DA     SC230903  43.066  55.614  86.877
 4754DA     SC330904  43.310  55.553  86.929
 4754DA     SC430905  43.310  55.827  86.871
 4755DC     BB130906  42.911  56.234  86.859
 4755DC     BB230907  42.665  55.980  86.932
 4755DC     BB330908  42.665  55.938  87.135
 4755DC     SC130909  42.890  55.803  87.114
 4755DC     SC230910  42.851  55.594  87.146
 4755DC     SC330911  43.143  55.736  87.149
 4756DA     BB130912  42.276  55.999  86.983
 4756DA     BB230913  42.274  55.702  87.197
 4756DA     BB330914  42.307  55.757  87.401
 4756DA     SC130915  42.616  55.728  87.385
 4756DA     SC230916  42.793  55.576  87.474
 4756DA     SC330917  42.955  55.768  87.423
 4756DA     SC430918  42.701  55.860  87.347
 4757DA     BB130919  42.034  55.575  87.426
 4757DA     BB230920  42.220  55.364  87.661
 4757DA     BB330921  42.252  55.468  87.844
 4757DA     SC130922  42.524  55.590  87.757
 4757DA     SC230923  42.765  55.564  87.814
 4757DA     SC330924  42.794  55.796  87.709
 4757DA     SC430925  42.521  55.736  87.688
 4758DA     BB130926  42.115  55.194  87.971
 4758DA     BB230927  42.421  55.152  88.168
 4758DA     BB330928  42.428  55.295  88.326
 4758DA     SC130929  42.579  55.510  88.159
 4758DA     SC230930  42.806  55.613  88.153
 4758DA     SC330931  42.693  55.803  88.022
 4758DA     SC430932  42.490  55.618  88.080
 4759DT     BB130933  42.410  55.241  88.532
 4759DT     BB230934  42.753  55.302  88.629
 4759DT     BB330935  42.765  55.475  88.741
 4759DT     SC130936  42.733  55.625  88.527
 4759DT     SC230937  42.917  55.728  88.484
 4759DT     SC330938  42.626  55.798  88.359
 4760DC     BB130939  42.796  55.358  89.003
 4760DC     BB230940  43.076  55.585  88.984
 4760DC     BB330941  43.023  55.768  89.063
 4760DC     SC130942  42.880  55.828  88.851
 4760DC     SC230943  42.978  55.986  88.742
 4760DC     SC330944  42.672  55.886  88.701
 4761DA     BB130945  43.353  55.702  89.328
 4761DA     BB230946  43.395  56.042  89.197
 4761DA     BB330947  43.271  56.179  89.304
 4761DA     SC130948  43.029  56.148  89.111
 4761DA     SC230949  42.909  56.286  88.941
 4761DA     SC330950  42.714  56.122  88.975
 4761DA     SC430951  42.918  56.037  89.148
 4762DT     BB130952  43.323  56.372  89.473
 4762DT     BB230953  43.264  56.638  89.236
 4762DT     BB330954  43.102  56.751  89.296
 4762DT     SC130955  42.933  56.564  89.223
 4762DT     SC230956  42.823  56.631  89.051
 4762DT     SC330957  42.748  56.378  89.238
 4763DA     BB130958  43.396  57.052  89.265
 4763DA     BB230959  43.109  57.163  89.067
 4763DA     BB330960  42.958  57.245  89.194
 4763DA     SC130961  42.810  56.975  89.235
 4763DA     SC230962  42.593  56.871  89.168
 4763DA     SC330963  42.633  56.710  89.363
 4763DA     SC430964  42.852  56.886  89.362
 4764DT     BB130965  42.903  57.457  89.189
 4764DT     BB230966  42.597  57.408  89.005
 4764DT     BB330967  42.434  57.445  89.127
 4764DT     SC130968  42.467  57.217  89.253
 4764DT     SC230969  42.307  57.083  89.203
 4764DT     SC330970  42.515  57.046  89.448
 4765DA     BB130971  42.391  57.667  88.776
 4765DA     BB230972  42.081  57.480  88.830
 4765DA     BB330973  41.969  57.566  88.990
 4765DA     SC130974  42.100  57.389  89.209
 4765DA     SC230975  42.033  57.202  89.360
 4765DA     SC330976  42.236  57.270  89.501
 4765DA     SC430977  42.230  57.448  89.284
 4766DA     BB130978  41.749  57.555  88.749
 4766DA     BB230979  41.555  57.334  88.967
 4766DA     BB330980  41.465  57.445  89.126
 4766DA     SC130981  41.705  57.407  89.321
 4766DA     SC230982  41.753  57.284  89.532
 4766DA     SC330983  41.947  57.450  89.561
 4766DA     SC430984  41.819  57.520  89.321
 4767DT     BB130985  41.272  57.450  89.122
 4767DT     BB230986  41.218  57.222  89.396
 4767DT     BB330987  41.167  57.327  89.567
 4767DT     SC130988  41.415  57.407  89.601
 4767DT     SC230989  41.498  57.311  89.774
 4767DT     SC330990  41.623  57.568  89.621
 4768DG     BB130991  40.873  57.058  89.486
 4768DG     BB230992  40.994  57.026  89.825
 4768DG     BB330993  40.918  57.171  89.939
 4768DG     SC130994  41.147  57.367  89.883
 4768DG     SC230995  41.346  57.464  90.083
 4768DG     SC330996  41.370  57.614  89.829
 4768DG     SC430997  41.136  57.464  89.757
 4769DC     BB130998  40.794  57.116  90.104
 4769DC     BB230999  41.017  57.175  90.382
 4769DC     BB331000  40.968  57.353  90.476
 4769DC     SC131001  41.073  57.493  90.281
 4769DC     SC231002  41.252  57.591  90.351
 4769DC     SC331003  41.093  57.660  90.078
 4770DA     BB131004  41.008  57.039  90.750
 4770DA     BB231005  41.204  57.325  90.870
 4770DA     BB331006  41.074  57.481  90.936
 4770DA     SC131007  41.062  57.621  90.658
 4770DA     SC231008  41.145  57.832  90.555
 4770DA     SC331009  40.964  57.792  90.377
 4770DA     SC431010  40.943  57.579  90.559
 4771DT     BB131011  41.104  57.501  91.106
 4771DT     BB231012  41.279  57.816  91.085
 4771DT     BB331013  41.147  57.972  91.117
 4771DT     SC131014  41.042  57.943  90.878
 4771DT     SC231015  41.097  58.112  90.756
 4771DT     SC331016  40.865  57.895  90.689
 4772DG     BB131017  41.471  57.983  91.365
 4772DG     BB231018  41.414  58.300  91.200
 4772DG     BB331019  41.255  58.390  91.279
 4772DG     SC131020  41.056  58.262  91.085
 4772DG     SC231021  40.898  58.405  90.876
 4772DG     SC331022  40.808  58.124  90.903
 4772DG     SC431023  40.991  58.121  91.123
 4773DA     BB131024  41.468  58.663  91.306
 4773DA     BB231025  41.233  58.865  91.110
 4773DA     BB331026  41.060  58.911  91.227
 4773DA     SC131027  40.902  58.660  91.136
 4773DA     SC231028  40.703  58.608  90.994
 4773DA     SC331029  40.696  58.385  91.121
 4773DA     SC431030  40.913  58.528  91.227
 4774DA     BB131031  41.131  59.226  91.148
 4774DA     BB231032  40.800  59.245  90.992
 4774DA     BB331033  40.649  59.264  91.141
 4774DA     SC131034  40.604  58.957  91.168
 4774DA     SC231035  40.427  58.790  91.112
 4774DA     SC331036  40.543  58.640  91.285
 4774DA     SC431037  40.689  58.879  91.280
 4775DG     BB131038  40.565  59.547  91.023
 4775DG     BB231039  40.252  59.381  90.951
 4775DG     BB331040  40.132  59.390  91.110
 4775DG     SC131041  40.234  59.129  91.234
 4775DG     SC231042  40.077  58.878  91.266
 4775DG     SC331043  40.336  58.859  91.407
 4775DG     SC431044  40.360  59.134  91.332
 4776DT     BB131045  39.919  59.506  91.125
 4776DT     BB231046  39.691  59.227  91.111
 4776DT     BB331047  39.603  59.198  91.296
 4776DT     SC131048  39.824  59.093  91.392
 4776DT     SC231049  39.793  58.883  91.427
 4776DT     SC331050  40.039  59.061  91.542
 4777DT     BB131051  39.358  59.298  91.214
 4777DT     BB231052  39.283  58.965  91.331
 4777DT     BB331053  39.237  58.970  91.533
 4777DT     SC131054  39.490  59.003  91.597
 4777DT     SC231055  39.563  58.825  91.693
 4777DT     SC331056  39.709  59.114  91.692
 4778DT     BB131057  38.979  58.921  91.472
 4778DT     BB231058  39.073  58.652  91.693
 4778DT     BB331059  39.047  58.709  91.890
 4778DT     SC131060  39.260  58.862  91.882
 4778DT     SC231061  39.414  58.775  92.006
 4778DT     SC331062  39.411  59.078  91.889
 4779DG     BB131063  38.832  58.371  91.820
 4779DG     BB231064  39.045  58.336  92.110
 4779DG     BB331065  38.966  58.432  92.265
 4779DG     SC131066  39.105  58.697  92.204
 4779DG     SC231067  39.315  58.828  92.371
 4779DG     SC331068  39.225  59.009  92.155
 4779DG     SC431069  39.033  58.802  92.106
 4780DA     BB131070  39.017  58.132  92.431
 4780DA     BB231071  39.222  58.305  92.680
 4780DA     BB331072  39.099  58.422  92.810
 4780DA     SC131073  39.116  58.679  92.635
 4780DA     SC231074  39.220  58.905  92.649
 4780DA     SC331075  39.049  58.972  92.470
 4780DA     SC431076  39.001  58.701  92.524
 4781DA     BB131077  39.254  58.252  93.048
 4781DA     BB231078  39.371  58.574  93.180
 4781DA     BB331079  39.213  58.674  93.282
 4781DA     SC131080  39.115  58.827  93.030
 4781DA     SC231081  39.112  59.062  92.946
 4781DA     SC331082  38.924  58.982  92.790
 4781DA     SC431083  38.999  58.759  92.942
 4782DG     BB131084  39.383  58.663  93.550
 4782DG     BB231085  39.378  59.024  93.522
 4782DG     BB331086  39.212  59.096  93.605
 4782DG     SC131087  39.047  59.081  93.348
 4782DG     SC231088  38.941  59.313  93.194
 4782DG     SC331089  38.832  59.059  93.090
 4782DG     SC431090  38.968  58.946  93.314
 4783DA     BB131091  39.395  59.315  93.812
 4783DA     BB231092  39.230  59.605  93.661
 4783DA     BB331093  39.037  59.634  93.749
 4783DA     SC131094  38.889  59.457  93.540
 4783DA     SC231095  38.729  59.488  93.352
 4783DA     SC331096  38.676  59.239  93.382
 4783DA     SC431097  38.869  59.301  93.575
 4784DA     BB131098  39.145  59.939  93.811
 4784DA     BB231099  38.876  60.063  93.596
 4784DA     BB331100  38.690  60.061  93.701
 4784DA     SC131101  38.614  59.773  93.611
 4784DA     SC231102  38.446  59.665  93.462
 4784DA     SC331103  38.494  59.452  93.596
 4784DA     SC431104  38.656  59.652  93.708
 4785DC     BB131105  38.599  60.239  93.744
 4785DC     BB231106  38.337  60.214  93.497
 4785DC     BB331107  38.157  60.171  93.589
 4785DC     SC131108  38.229  59.922  93.630
 4785DC     SC231109  38.111  59.792  93.504
 4785DC     SC331110  38.292  59.699  93.756
 4786DA     BB131111  38.099  60.502  93.339
 4786DA     BB231112  37.830  60.262  93.273
 4786DA     BB331113  37.691  60.261  93.434
 4786DA     SC131114  37.837  60.035  93.590
 4786DA     SC231115  37.797  59.796  93.649
 4786DA     SC331116  37.971  59.834  93.834
 4786DA     SC431117  37.946  60.079  93.700
 4787DT     BB131118  37.506  60.328  93.398
 4787DT     BB231119  37.338  60.009  93.404
 4787DT     BB331120  37.235  59.986  93.583
 4787DT     SC131121  37.457  59.942  93.715
 4787DT     SC231122  37.463  59.736  93.778
 4787DT     SC331123  37.654  59.974  93.887
 4788DA     BB131124  36.947  59.912  93.285
 4788DA     BB231125  36.919  59.644  93.533
 4788DA     BB331126  36.824  59.715  93.710
 4788DA     SC131127  37.089  59.800  93.849
 4788DA     SC231128  37.228  59.725  94.042
 4788DA     SC331129  37.329  59.961  94.033
 4788DA     SC431130  37.139  59.951  93.828
 4789DA     BB131131  36.596  59.470  93.677
 4789DA     BB231132  36.706  59.341  94.002
 4789DA     BB331133  36.616  59.452  94.161
 4789DA     SC131134  36.846  59.660  94.179
 4789DA     SC231135  37.028  59.720  94.339
 4789DA     SC331136  37.032  59.946  94.218
 4789DA     SC431137  36.832  59.794  94.092
 4790DA     BB131138  36.484  59.170  94.293
 4790DA     BB231139  36.687  59.227  94.592
 4790DA     BB331140  36.589  59.364  94.723
 4790DA     SC131141  36.723  59.616  94.599
 4790DA     SC231142  36.892  59.787  94.665
 4790DA     SC331143  36.788  59.931  94.480
 4790DA     SC431144  36.644  59.691  94.481
 4791DA     BB131145  36.605  59.136  94.968
 4791DA     BB231146  36.824  59.367  95.151
 4791DA     BB331147  36.708  59.511  95.258
 4791DA     SC131148  36.705  59.717  95.025
 4791DA     SC231149  36.803  59.941  94.976
 4791DA     SC331150  36.618  59.961  94.800
 4791DA     SC431151  36.582  59.711  94.922
 4792DG     BB131152  36.848  59.387  95.505
 4792DG     BB231153  37.004  59.713  95.518
 4792DG     BB331154  36.884  59.841  95.612
 4792DG     SC131155  36.739  59.930  95.358
 4792DG     SC231156  36.752  60.201  95.233
 4792DG     SC331157  36.545  60.035  95.102
 4792DG     SC431158  36.610  59.848  95.310
 4793DA     BB131159  37.175  59.895  95.782
 4793DA     BB231160  37.167  60.245  95.671
 4793DA     BB331161  37.016  60.352  95.776
 4793DA     SC131162  36.794  60.293  95.565
 4793DA     SC231163  36.664  60.419  95.394
 4793DA     SC331164  36.497  60.224  95.407
 4793DA     SC431165  36.702  60.163  95.589
 4794DA     BB131166  37.297  60.515  95.791
 4794DA     BB231167  37.115  60.784  95.622
 4794DA     BB331168  36.966  60.865  95.751
 4794DA     SC131169  36.743  60.671  95.655
 4794DA     SC231170  36.531  60.682  95.523
 4794DA     SC331171  36.472  60.460  95.636
 4794DA     SC431172  36.723  60.534  95.737
 4795DG     BB131173  37.151  61.092  95.660
 4795DG     BB231174  36.843  61.212  95.515
 4795DG     BB331175  36.721  61.276  95.658
 4795DG     SC131176  36.587  61.005  95.701
 4795DG     SC231177  36.302  60.938  95.640
 4795DG     SC331178  36.433  60.717  95.788
 4795DG     SC431179  36.651  60.902  95.805
 4796DA     BB131180  36.710  61.540  95.433
 4796DA     BB231181  36.345  61.506  95.424
 4796DA     BB331182  36.261  61.561  95.613
 4796DA     SC131183  36.272  61.273  95.730
 4796DA     SC231184  36.112  61.093  95.793
 4796DA     SC331185  36.304  61.000  95.936
 4796DA     SC431186  36.404  61.232  95.813
 4797DT     BB131187  36.155  61.713  95.603
 4797DT     BB231188  35.834  61.556  95.654
 4797DT     BB331189  35.778  61.573  95.852
 4797DT     SC131190  35.950  61.388  95.925
 4797DT     SC231191  35.843  61.212  95.986
 4797DT     SC331192  36.156  61.274  96.042
 4798DT     BB131193  35.589  61.765  95.797
 4798DT     BB231194  35.405  61.514  95.979
 4798DT     BB331195  35.419  61.549  96.183
 4798DT     SC131196  35.667  61.461  96.188
 4798DT     SC231197  35.674  61.275  96.295
 4798DT     SC331198  35.929  61.459  96.218
 4799DT     BB131199  35.157  61.661  96.230
 4799DT     BB231200  35.175  61.392  96.469
 4799DT     BB331201  35.247  61.463  96.650
 4799DT     SC131202  35.492  61.479  96.555
 4799DT     SC231203  35.614  61.329  96.649
 4799DT     SC331204  35.721  61.582  96.477
 4800DA     BB131205  34.882  61.301  96.793
 4800DA     BB231206  35.147  61.168  97.009
 4800DA     BB331207  35.204  61.314  97.154
 4800DA     SC131208  35.427  61.439  96.977
 4800DA     SC231209  35.676  61.450  96.975
 4800DA     SC331210  35.645  61.654  96.822
 4800DA     SC431211  35.387  61.564  96.885
 4801DT     BB131212  35.172  61.312  97.399
 4801DT     BB231213  35.513  61.221  97.471
 4801DT     BB331214  35.608  61.375  97.572
 4801DT     SC131215  35.627  61.517  97.352
 4801DT     SC231216  35.833  61.528  97.292
 4801DT     SC331217  35.592  61.714  97.181
 4802DT     BB131218  35.616  61.260  97.844
 4802DT     BB231219  35.963  61.317  97.765
 4802DT     BB331220  36.025  61.498  97.845
 4802DT     SC131221  35.896  61.632  97.660
 4802DT     SC231222  36.038  61.726  97.528
 4802DT     SC331223  35.722  61.796  97.548
 4803DA     BB131224  36.294  61.208  97.974
 4803DA     BB231225  36.489  61.479  97.822
 4803DA     BB331226  36.501  61.645  97.956
 4803DA     SC131227  36.245  61.784  97.847
 4803DA     SC231228  36.187  61.988  97.716
 4803DA     SC331229  35.952  61.960  97.815
 4803DA     SC431230  36.106  61.750  97.920
 4804DA     BB131231  36.808  61.586  97.877
 4804DA     BB231232  36.814  61.924  97.735
 4804DA     BB331233  36.822  62.069  97.891
 4804DA     SC131234  36.513  62.097  97.914
 4804DA     SC231235  36.339  62.268  97.862
 4804DA     SC331236  36.191  62.138  98.027
 4804DA     SC431237  36.438  62.004  98.021
 4805DA     BB131238  37.064  62.146  97.691
 4805DA     BB231239  36.897  62.469  97.649
 4805DA     BB331240  36.919  62.588  97.825
 4805DA     SC131241  36.657  62.483  97.957
 4805DA     SC231242  36.431  62.572  98.013
 4805DA     SC331243  36.418  62.376  98.178
 4805DA     SC431244  36.669  62.356  98.055
 4806DT     BB131245  37.019  62.739  97.791
 4806DT     BB231246  36.750  62.979  97.808
 4806DT     BB331247  36.750  63.073  97.993
 4806DT     SC131248  36.651  62.860  98.110
 4806DT     SC231249  36.450  62.901  98.173
 4806DT     SC331250  36.633  62.651  98.270
 4807DA     BB131251  36.729  63.356  97.686
 4807DA     BB231252  36.479  63.445  97.939
 4807DA     BB331253  36.575  63.521  98.114
 4807DA     SC131254  36.598  63.242  98.251
 4807DA     SC231255  36.497  63.124  98.446
 4807DA     SC331256  36.701  62.970  98.433
 4807DA     SC431257  36.733  63.159  98.228
 4808DC     BB131258  36.542  63.708  98.153
 4808DC     BB231259  36.331  63.664  98.443
 4808DC     BB331260  36.440  63.701  98.615
 4808DC     SC131261  36.566  63.472  98.594
 4808DC     SC231262  36.501  63.340  98.752
 4808DC     SC331263  36.762  63.298  98.565
 4809DA     BB131264  36.094  63.936  98.642
 4809DA     BB231265  36.141  63.774  98.967
 4809DA     BB331266  36.302  63.866  99.073
 4809DA     SC131267  36.518  63.673  98.959
 4809DA     SC231268  36.664  63.489  99.043
 4809DA     SC331269  36.808  63.535  98.836
 4809DA     SC431270  36.595  63.718  98.825
 4810DC     BB131271  36.275  63.986  99.252
 4810DC     BB231272  36.418  63.758  99.492
 4810DC     BB331273  36.602  63.829  99.556
 4810DC     SC131274  36.716  63.761  99.330
 4810DC     SC231275  36.851  63.597  99.364
 4810DC     SC331276  36.842  63.783  99.099
 4811DG     BB131277  36.405  63.831  99.920
 4811DG     BB231278  36.727  63.670  99.957
 4811DG     BB331279  36.868  63.808  99.987
 4811DG     SC131280  36.930  63.845  99.690
 4811DG     SC231281  37.184  63.771  99.553
 4811DG     SC331282  37.009  63.926  99.372
 4811DG     SC431283  36.846  63.953  99.606
 4812DA     BB131284  36.989  63.660 100.290
 4812DA     BB231285  37.322  63.615 100.142
 4812DA     BB331286  37.432  63.798 100.150
 4812DA     SC131287  37.335  63.896  99.871
 4812DA     SC231288  37.432  63.932  99.644
 4812DA     SC331289  37.230  64.085  99.604
 4812DA     SC431290  37.203  63.988  99.866
 4813DT     BB131291  37.621  63.847 100.280
 4813DT     BB231292  37.859  63.830 100.010
 4813DT     BB331293  37.934  64.019  99.970
 4813DT     SC131294  37.711  64.091  99.852
 4813DT     SC231295  37.747  64.114  99.641
 4813DT     SC331296  37.488  64.222  99.803
 4814DT     BB131297  38.192  63.982 100.088
 4814DT     BB231298  38.264  64.074  99.746
 4814DT     BB331299  38.288  64.279  99.732
 4814DT     SC131300  38.029  64.319  99.754
 4814DT     SC231301  37.952  64.389  99.565
 4814DT     SC331302  37.798  64.400  99.850
 4815DT     BB131303  38.564  64.264  99.698
 4815DT     BB231304  38.446  64.433  99.402
 4815DT     BB331305  38.442  64.637  99.434
 4815DT     SC131306  38.227  64.618  99.584
 4815DT     SC231307  38.060  64.705  99.481
 4815DT     SC331308  38.071  64.629  99.796
 4816DA     BB131309  38.653  64.563  99.081
 4816DA     BB231310  38.394  64.813  99.009
 4816DA     BB331311  38.448  65.001  99.093
 4816DA     SC131312  38.304  64.948  99.364
 4816DA     SC231313  38.104  65.032  99.487
 4816DA     SC331314  38.217  64.936  99.696
 4816DA     SC431315  38.391  64.883  99.483
 4817DA     BB131316  38.383  65.067  98.782
 4817DA     BB231317  38.115  65.282  98.910
 4817DA     BB331318  38.196  65.457  99.000
 4817DA     SC131319  38.216  65.333  99.284
 4817DA     SC231320  38.105  65.360  99.506
 4817DA     SC331321  38.314  65.246  99.602
 4817DA     SC431322  38.355  65.262  99.325
 4818DA     BB131323  37.969  65.554  98.787
 4818DA     BB231324  37.802  65.702  99.078
 4818DA     BB331325  37.913  65.868  99.151
 4818DA     SC131326  38.082  65.699  99.350
 4818DA     SC231327  38.102  65.670  99.597
 4818DA     SC331328  38.333  65.571  99.546
 4818DA     SC431329  38.223  65.642  99.298
 4819DC     BB131330  37.813  66.012  99.132
 4819DC     BB231331  37.734  66.058  99.481
 4819DC     BB331332  37.864  66.194  99.566
 4819DC     SC131333  38.059  66.019  99.569
 4819DC     SC231334  38.102  65.963  99.772
 4819DC     SC331335  38.290  65.904  99.515
 4820DT     BB131336  37.646  66.335  99.575
 4820DT     BB231337  37.765  66.316  99.915
 4820DT     BB331338  37.919  66.451  99.944
 4820DT     SC131339  38.087  66.299  99.811
 4820DT     SC231340  38.232  66.217  99.947
 4820DT     SC331341  38.255  66.219  99.624
 4821DA     BB131342  37.630  66.487 100.247
 4821DA     BB231343  37.962  66.476 100.403
 4821DA     BB331344  38.070  66.656 100.360
 4821DA     SC131345  38.201  66.544 100.101
 4821DA     SC231346  38.428  66.475 100.024
 4821DA     SC331347  38.334  66.506  99.787
 4821DA     SC431348  38.125  66.570  99.962
 4822DA     BB131349  38.092  66.635 100.688
 4822DA     BB231350  38.455  66.630 100.638
 4822DA     BB331351  38.523  66.821 100.573
 4822DA     SC131352  38.493  66.756 100.270
 4822DA     SC231353  38.642  66.717 100.074
 4822DA     SC331354  38.436  66.772  99.932
 4822DA     SC431355  38.354  66.795 100.200
 4823DA     BB131356  38.724  66.780 100.832
 4823DA     BB231357  39.002  66.803 100.594
 4823DA     BB331358  39.027  67.005 100.529
 4823DA     SC131359  38.836  66.976 100.285
 4823DA     SC231360  38.855  66.971 100.036
 4823DA     SC331361  38.605  67.030 100.037
 4823DA     SC431362  38.682  67.015 100.307
 4824DA     BB131363  39.335  66.950 100.632
 4824DA     BB231364  39.440  67.013 100.286
 4824DA     BB331365  39.431  67.222 100.243
 4824DA     SC131366  39.138  67.214 100.140
 4824DA     SC231367  39.018  67.238  99.923
 4824DA     SC331368  38.810  67.286 100.066
 4824DA     SC431369  39.021  67.242 100.246
 4825DT     BB131370  39.603  67.317 100.206
 4825DT     BB231371  39.558  67.350  99.850
 4825DT     BB331372  39.504  67.544  99.803
 4825DT     SC131373  39.261  67.507  99.893
 4825DT     SC231374  39.123  67.507  99.728
 4825DT     SC331375  39.044  67.533 100.041
 4826DT     BB131376  39.747  67.571  99.696
 4826DT     BB231377  39.517  67.645  99.428
 4826DT     BB331378  39.456  67.842  99.439
 4826DT     SC131379  39.299  67.791  99.643
 4826DT     SC231380  39.094  67.808  99.581
 4826DT     SC331381  39.200  67.796  99.887
 4827DT     BB131382  39.601  67.879  99.221
 4827DT     BB231383  39.268  67.984  99.131
 4827DT     BB331384  39.236  68.178  99.195
 4827DT     SC131385  39.211  68.101  99.444
 4827DT     SC231386  39.007  68.125  99.507
 4827DT     SC331387  39.261  68.076  99.702
 4828DT     BB131388  39.243  68.242  98.938
 4828DT     BB231389  38.923  68.360  99.057
 4828DT     BB331390  38.945  68.544  99.149
 4828DT     SC131391  39.053  68.434  99.361
 4828DT     SC231392  38.917  68.450  99.527
 4828DT     SC331393  39.231  68.373  99.546
 4829DG     BB131394  38.674  68.591  98.846
 4829DG     BB231395  38.546  68.718  99.160
 4829DG     BB331396  38.630  68.894  99.201
 4829DG     SC131397  38.866  68.774  99.354
 4829DG     SC231398  38.919  68.804  99.647
 4829DG     SC331399  39.149  68.676  99.510
 4829DG     SC431400  38.998  68.733  99.273
 4830DT     BB131401  38.512  69.088  99.216
 4830DT     BB231402  38.509  69.143  99.572
 4830DT     BB331403  38.644  69.292  99.622
 4830DT     SC131404  38.847  69.130  99.586
 4830DT     SC231405  38.938  69.086  99.776
 4830DT     SC331406  39.069  69.028  99.485
 4831DA     BB131407  38.285  69.430  99.794
 4831DA     BB231408  38.544  69.447 100.053
 4831DA     BB331409  38.672  69.614 100.018
 4831DA     SC131410  38.874  69.454  99.843
 4831DA     SC231411  39.108  69.370  99.862
 4831DA     SC331412  39.102  69.355  99.606
 4831DA     SC431413  38.851  69.453  99.684
 4832DT     BB131414  38.685  69.796 100.149
 4832DT     BB231415  39.000  69.709 100.303
 4832DT     BB331416  39.148  69.838 100.238
 4832DT     SC131417  39.159  69.720 100.004
 4832DT     SC231418  39.345  69.614  99.986
 4832DT     SC331419  39.143  69.684  99.743
 4833DG     BB131420  39.143  69.888 100.644
 4833DG     BB231421  39.476  69.806 100.527
 4833DG     BB331422  39.565  69.969 100.456
 4833DG     SC131423  39.463  69.930 100.170
 4833DG     SC231424  39.631  69.867  99.931
 4833DG     SC331425  39.353  69.929  99.851
 4833DG     SC431426  39.321  69.993 100.129
 4834DC     BB131427  39.754  70.056 100.549
 4834DC     BB231428  40.002  69.953 100.309
 4834DC     BB331429  40.062  70.115 100.195
 4834DC     SC131430  39.838  70.112 100.058
 4834DC     SC231431  39.879  70.049  99.856
 4834DC     SC331432  39.606  70.191  99.960
 4835DC     BB131433  40.303  70.117 100.323
 4835DC     BB231434  40.386  70.081  99.973
 4835DC     BB331435  40.401  70.267  99.885
 4835DC     SC131436  40.140  70.296  99.884
 4835DC     SC231437  40.068  70.287  99.681
 4835DC     SC331438  39.901  70.394  99.938
 4836DT     BB131439  40.674  70.244  99.869
 4836DT     BB231440  40.569  70.299  99.529
 4836DT     BB331441  40.559  70.502  99.489
 4836DT     SC131442  40.337  70.525  99.627
 4836DT     SC231443  40.173  70.566  99.493
 4836DT     SC331444  40.168  70.602  99.815
 4837DA     BB131445  40.797  70.334  99.188
 4837DA     BB231446  40.543  70.543  99.026
 4837DA     BB331447  40.590  70.749  99.051
 4837DA     SC131448  40.429  70.780  99.315
 4837DA     SC231449  40.220  70.893  99.392
 4837DA     SC331450  40.319  70.869  99.628
 4837DA     SC431451  40.508  70.757  99.453
 4838DA     BB131452  40.558  70.739  98.726
 4838DA     BB231453  40.281  70.975  98.766
 4838DA     BB331454  40.355  71.171  98.806
 4838DA     SC131455  40.353  71.135  99.115
 4838DA     SC231456  40.225  71.223  99.310
 4838DA     SC331457  40.426  71.146  99.450
 4838DA     SC431458  40.488  71.082  99.184
 4839DA     BB131459  40.158  71.224  98.553
 4839DA     BB231460  39.966  71.442  98.777
 4839DA     BB331461  40.071  71.625  98.810
 4839DA     SC131462  40.223  71.522  99.060
 4839DA     SC231463  40.222  71.563  99.306
 4839DA     SC331464  40.457  71.460  99.304
 4839DA     SC431465  40.368  71.456  99.038
 4840DT     BB131466  39.975  71.763  98.743
 4840DT     BB231467  39.864  71.897  99.059
 4840DT     BB331468  39.984  72.057  99.114
 4840DT     SC131469  40.181  71.897  99.180
 4840DT     SC231470  40.207  71.899  99.393
 4840DT     SC331471  40.418  71.781  99.178
 4841DC     BB131472  39.764  72.187  99.067
 4841DC     BB231473  39.851  72.265  99.408
 4841DC     BB331474  39.998  72.411  99.412
 4841DC     SC131475  40.182  72.240  99.338
 4841DC     SC231476  40.317  72.205  99.502
 4841DC     SC331477  40.369  72.125  99.192
 4842DT     BB131478  39.797  72.541  99.511
 4842DT     BB231479  40.061  72.563  99.756
 4842DT     BB331480  40.202  72.702  99.697
 4842DT     SC131481  40.299  72.539  99.516
 4842DT     SC231482  40.495  72.475  99.575
 4842DT     SC331483  40.365  72.441  99.280
 4843DA     BB131484  40.087  72.781 100.094
 4843DA     BB231485  40.453  72.790 100.075
 4843DA     BB331486  40.518  72.962  99.967
 4843DA     SC131487  40.519  72.818  99.691
 4843DA     SC231488  40.687  72.740  99.525
 4843DA     SC331489  40.492  72.741  99.358
 4843DA     SC431490  40.385  72.827  99.602
 4844DA     BB131491  40.695  73.006 100.241
 4844DA     BB231492  40.992  72.984 100.028
 4844DA     BB331493  41.015  73.163  99.914
 4844DA     SC131494  40.849  73.060  99.673
 4844DA     SC231495  40.891  72.991  99.436
 4844DA     SC331496  40.640  73.032  99.402
 4844DA     SC431497  40.692  73.092  99.671
 4845DT     BB131498  41.174  73.278  99.953
 4845DT     BB231499  41.361  73.192  99.656
 4845DT     BB331500  41.350  73.346  99.519
 4845DT     SC131501  41.103  73.285  99.456
 4845DT     SC231502  41.098  73.205  99.257
 4845DT     SC331503  40.842  73.306  99.428
 4846DG     BB131504  41.740  73.264  99.603
 4846DG     BB231505  41.674  73.255  99.247
 4846DG     BB331506  41.657  73.441  99.177
 4846DG     SC131507  41.355  73.458  99.226
 4846DG     SC231508  41.144  73.475  99.015
 4846DG     SC331509  41.029  73.519  99.283
 4846DG     SC431510  41.302  73.510  99.367
 4847DT     BB131511  41.791  73.483  99.036
 4847DT     BB231512  41.589  73.484  98.737
 4847DT     BB331513  41.533  73.677  98.689
 4847DT     SC131514  41.356  73.681  98.884
 4847DT     SC231515  41.158  73.682  98.800
 4847DT     SC331516  41.235  73.751  99.107
 4848DC     BB131517  41.693  73.631  98.492
 4848DC     BB231518  41.378  73.722  98.342
 4848DC     BB331519  41.353  73.927  98.349
 4848DC     SC131520  41.300  73.920  98.606
 4848DC     SC231521  41.093  73.968  98.637
 4848DC     SC331522  41.323  73.962  98.865
 4849DT     BB131523  41.385  73.906  98.091
 4849DT     BB231524  41.072  74.080  98.134
 4849DT     BB331525  41.107  74.279  98.177
 4849DT     SC131526  41.180  74.221  98.422
 4849DT     SC231527  41.032  74.294  98.560
 4849DT     SC331528  41.332  74.197  98.637
 4850DT     BB131529  41.028  74.354  97.927
 4850DT     BB231530  40.829  74.561  98.147
 4850DT     BB331531  40.935  74.731  98.199
 4850DT     SC131532  41.088  74.594  98.363
 4850DT     SC231533  41.042  74.650  98.566
 4850DT     SC331534  41.303  74.485  98.469
 4851DC     BB131535  40.814  74.938  98.024
 4851DC     BB231536  40.792  75.091  98.350
 4851DC     BB331537  40.957  75.211  98.383
 4851DC     SC131538  41.111  75.002  98.423
 4851DC     SC231539  41.167  74.993  98.630
 4851DC     SC331540  41.305  74.827  98.389
 4852DT     BB131541  40.881  75.521  98.330
 4852DT     BB231542  41.021  75.536  98.662
 4852DT     BB331543  41.216  75.605  98.654
 4852DT     SC131544  41.301  75.374  98.561
 4852DT     SC231545  41.419  75.276  98.711
 4852DT     SC331546  41.406  75.196  98.397
 4853DA     BB131547  41.089  75.924  98.910
 4853DA     BB231548  41.383  75.778  99.073
 4853DA     BB331549  41.562  75.863  98.994
 4853DA     SC131550  41.594  75.649  98.770
 4853DA     SC231551  41.747  75.460  98.716
 4853DA     SC331552  41.660  75.485  98.476
 4853DA     SC431553  41.529  75.682  98.627
 4854DA     BB131554  41.652  75.955  99.303
 4854DA     BB231555  41.931  75.718  99.277
 4854DA     BB331556  42.097  75.809  99.179
 4854DA     SC131557  42.010  75.720  98.894
 4854DA     SC231558  42.088  75.561  98.719
 4854DA     SC331559  41.949  75.702  98.557
 4854DA     SC431560  41.919  75.821  98.809
 4855DA     BB131561  42.252  75.713  99.449
 4855DA     BB231562  42.453  75.494  99.235
 4855DA     BB331563  42.606  75.606  99.137
 4855DA     SC131564  42.433  75.672  98.887
 4855DA     SC231565  42.427  75.610  98.646
 4855DA     SC331566  42.288  75.824  98.616
 4855DA     SC431567  42.350  75.810  98.889
 4856DA     BB131568  42.769  75.363  99.276
 4856DA     BB231569  42.866  75.264  98.937
 4856DA     BB331570  43.014  75.397  98.860
 4856DA     SC131571  42.807  75.591  98.732
 4856DA     SC231572  42.734  75.657  98.503
 4856DA     SC331573  42.640  75.868  98.615
 4856DA     SC431574  42.757  75.716  98.820
 4857DA     BB131575  43.144  75.103  98.817
 4857DA     BB231576  43.148  75.182  98.459
 4857DA     BB331577  43.300  75.326  98.417
 4857DA     SC131578  43.113  75.571  98.457
 4857DA     SC231579  43.008  75.748  98.316
 4857DA     SC331580  42.982  75.879  98.535
 4857DA     SC431581  43.107  75.637  98.604
 4858DT     BB131582  43.437  75.258  98.307
 4858DT     BB231583  43.348  75.435  98.006
 4858DT     BB331584  43.472  75.599  97.981
 4858DT     SC131585  43.348  75.732  98.171
 4858DT     SC231586  43.238  75.895  98.084
 4858DT     SC331587  43.306  75.858  98.398
 4859DT     BB131588  43.587  75.467  97.777
 4859DT     BB231589  43.477  75.780  97.634
 4859DT     BB331590  43.621  75.925  97.663
 4859DT     SC131591  43.558  75.948  97.917
 4859DT     SC231592  43.464  76.138  97.950
 4859DT     SC331593  43.579  75.941  98.179
 4860DA     BB131594  43.520  75.923  97.257
 4860DA     BB231595  43.516  76.271  97.372
 4860DA     BB331596  43.715  76.341  97.403
 4860DA     SC131597  43.724  76.255  97.702
 4860DA     SC231598  43.728  76.365  97.926
 4860DA     SC331599  43.821  76.142  98.012
 4860DA     SC431600  43.783  76.109  97.736
 4861DT     BB131601  43.789  76.488  97.282
 4861DT     BB231602  43.781  76.757  97.522
 4861DT     BB331603  43.973  76.799  97.587
 4861DT     SC131604  43.978  76.583  97.736
 4861DT     SC231605  43.974  76.639  97.944
 4861DT     SC331606  44.050  76.346  97.828
 4862DT     BB131607  43.950  77.023  97.449
 4862DT     BB231608  44.026  77.127  97.786
 4862DT     BB331609  44.230  77.116  97.820
 4862DT     SC131610  44.221  76.854  97.836
 4862DT     SC231611  44.259  76.793  98.039
 4862DT     SC331612  44.264  76.600  97.779
 4863DA     BB131613  44.106  77.501  97.934
 4863DA     BB231614  44.313  77.363  98.204
 4863DA     BB331615  44.518  77.357  98.145
 4863DA     SC131616  44.500  77.069  98.027
 4863DA     SC231617  44.585  76.842  98.083
 4863DA     SC331618  44.540  76.787  97.836
 4863DA     SC431619  44.467  77.055  97.870
 4864DT     BB131620  44.655  77.477  98.239
 4864DT     BB231621  44.815  77.216  98.430
 4864DT     BB331622  44.999  77.170  98.347
 4864DT     SC131623  44.885  77.041  98.149
 4864DT     SC231624  44.925  76.830  98.169
 4864DT     SC331625  44.811  76.978  97.904
 4865DA     BB131626  45.079  77.251  98.751
 4865DA     BB231627  45.237  76.931  98.668
 4865DA     BB331628  45.412  76.964  98.549
 4865DA     SC131629  45.260  76.946  98.278
 4865DA     SC231630  45.246  76.789  98.084
 4865DA     SC331631  45.154  76.991  97.955
 4865DA     SC431632  45.206  77.083  98.214
 4866DC     BB131633  45.601  76.918  98.624
 4866DC     BB231634  45.646  76.615  98.433
 4866DC     BB331635  45.784  76.647  98.282
 4866DC     SC131636  45.609  76.784  98.141
 4866DC     SC231637  45.554  76.671  97.967
 4866DC     SC331638  45.495  76.986  98.016
 4867DT     BB131639  45.957  76.493  98.417
 4867DT     BB231640  45.915  76.331  98.098
 4867DT     BB331641  46.043  76.414  97.958
 4867DT     SC131642  45.894  76.630  97.939
 4867DT     SC231643  45.800  76.634  97.745
 4867DT     SC331644  45.821  76.882  97.952
 4868DA     BB131645  46.069  75.996  97.960
 4868DA     BB231646  46.020  76.109  97.615
 4868DA     BB331647  46.195  76.207  97.543
 4868DA     SC131648  46.105  76.490  97.636
 4868DA     SC231649  46.031  76.703  97.531
 4868DA     SC331650  46.094  76.811  97.755
 4868DA     SC431651  46.151  76.538  97.782
 4869DA     BB131652  46.108  75.981  97.325
 4869DA     BB231653  46.077  76.262  97.091
 4869DA     BB331654  46.269  76.344  97.049
 4869DA     SC131655  46.258  76.551  97.281
 4869DA     SC231656  46.238  76.799  97.306
 4869DA     SC331657  46.335  76.762  97.541
 4869DA     SC431658  46.320  76.508  97.422
 4870DA     BB131659  46.111  76.286  96.767
 4870DA     BB231660  46.154  76.645  96.706
 4870DA     BB331661  46.361  76.692  96.681
 4870DA     SC131662  46.409  76.750  96.983
 4870DA     SC231663  46.456  76.948  97.127
 4870DA     SC331664  46.542  76.777  97.298
 4870DA     SC431665  46.459  76.628  97.075
 4871DA     BB131666  46.203  76.825  96.425
 4871DA     BB231667  46.346  77.143  96.538
 4871DA     BB331668  46.558  77.142  96.513
 4871DA     SC131669  46.615  77.029  96.797
 4871DA     SC231670  46.714  77.110  97.011
 4871DA     SC331671  46.747  76.861  97.066
 4871DA     SC431672  46.628  76.870  96.812
 4872DA     BB131673  46.477  77.421  96.358
 4872DA     BB231674  46.698  77.592  96.595
 4872DA     BB331675  46.902  77.547  96.551
 4872DA     SC131676  46.913  77.299  96.738
 4872DA     SC231677  47.021  77.235  96.954
 4872DA     SC331678  46.979  76.993  96.879
 4872DA     SC431679  46.880  77.155  96.674
 4873DT     BB131680  47.028  77.695  96.483
 4873DT     BB231681  47.221  77.734  96.785
 4873DT     BB331682  47.408  77.647  96.761
 4873DT     SC131683  47.306  77.405  96.783
 4873DT     SC231684  47.370  77.318  96.968
 4873DT     SC331685  47.236  77.159  96.720
 4874DT     BB131686  47.532  77.891  96.744
 4874DT     BB231687  47.700  77.724  97.016
 4874DT     BB331688  47.858  77.611  96.943
 4874DT     SC131689  47.694  77.429  96.850
 4874DT     SC231690  47.716  77.248  96.965
 4874DT     SC331691  47.567  77.274  96.678
 4875DT     BB131692  48.033  77.789  97.048
 4875DT     BB231693  48.124  77.473  97.196
 4875DT     BB331694  48.255  77.372  97.071
 4875DT     SC131695  48.061  77.309  96.906
 4875DT     SC231696  48.024  77.098  96.916
 4875DT     SC331697  47.918  77.299  96.685
 4876DA     BB131698  48.418  77.383  97.457
 4876DA     BB231699  48.437  77.037  97.336
 4876DA     BB331700  48.586  77.020  97.185
 4876DA     SC131701  48.391  77.079  96.950
 4876DA     SC231702  48.287  76.955  96.760
 4876DA     SC331703  48.248  77.187  96.657
 4876DA     SC431704  48.376  77.232  96.902
 4877DT     BB131705  48.730  76.910  97.235
 4877DT     BB231706  48.650  76.628  97.024
 4877DT     BB331707  48.767  76.632  96.853
 4877DT     SC131708  48.627  76.828  96.751
 4877DT     SC231709  48.514  76.756  96.583
 4877DT     SC331710  48.565  77.067  96.657
 4878DG     BB131711  48.832  76.274  97.038
 4878DG     BB231712  48.753  76.229  96.688
 4878DG     BB331713  48.911  76.274  96.576
 4878DG     SC131714  48.839  76.570  96.548
 4878DG     SC231715  48.759  76.707  96.295
 4878DG     SC331716  48.800  76.903  96.513
 4878DG     SC431717  48.891  76.674  96.658
 4879DT     BB131718  49.024  76.122  96.444
 4879DT     BB231719  48.923  76.224  96.113
 4879DT     BB331720  49.078  76.325  96.020
 4879DT     SC131721  49.035  76.539  96.166
 4879DT     SC231722  48.956  76.696  96.042
 4879DT     SC331723  49.076  76.733  96.340
 4880DC     BB131724  49.163  76.116  95.842
 4880DC     BB231725  49.101  76.394  95.620
 4880DC     BB331726  49.276  76.502  95.592
 4880DC     SC131727  49.256  76.609  95.832
 4880DC     SC231728  49.210  76.818  95.813
 4880DC     SC331729  49.314  76.670  96.082
 4881DA     BB131730  49.195  76.414  95.185
 4881DA     BB231731  49.253  76.776  95.204
 4881DA     BB331732  49.462  76.817  95.211
 4881DA     SC131733  49.479  76.810  95.522
 4881DA     SC231734  49.515  76.971  95.708
 4881DA     SC331735  49.578  76.765  95.847
 4881DA     SC431736  49.516  76.670  95.591
 4882DA     BB131737  49.446  77.015  94.936
 4882DA     BB231738  49.539  77.299  95.148
 4882DA     BB331739  49.751  77.312  95.166
 4882DA     SC131740  49.767  77.133  95.419
 4882DA     SC231741  49.818  77.160  95.662
 4882DA     SC331742  49.861  76.907  95.660
 4882DA     SC431743  49.790  76.975  95.398
 4883DT     BB131744  49.882  77.483  95.080
 4883DT     BB231745  49.929  77.648  95.397
 4883DT     BB331746  50.128  77.636  95.454
 4883DT     SC131747  50.101  77.383  95.520
 4883DT     SC231748  50.115  77.363  95.733
 4883DT     SC331749  50.135  77.122  95.518
 4884DC     BB131750  50.165  77.904  95.403
 4884DC     BB231751  50.244  77.865  95.753
 4884DC     BB331752  50.444  77.821  95.776
 4884DC     SC131753  50.408  77.575  95.693
 4884DC     SC231754  50.434  77.439  95.858
 4884DC     SC331755  50.425  77.358  95.545
 4885DA     BB131756  50.326  78.134  96.025
 4885DA     BB231757  50.503  77.886  96.228
 4885DA     BB331758  50.712  77.890  96.185
 4885DA     SC131759  50.695  77.676  95.960
 4885DA     SC231760  50.767  77.440  95.925
 4885DA     SC331761  50.741  77.492  95.675
 4885DA     SC431762  50.675  77.728  95.810
 4886DT     BB131763  50.795  77.939  96.334
 4886DT     BB231764  50.933  77.616  96.416
 4886DT     BB331765  51.129  77.603  96.351
 4886DT     SC131766  51.052  77.577  96.102
 4886DT     SC231767  51.095  77.376  96.035
 4886DT     SC331768  51.020  77.628  95.845
 4887DA     BB131769  51.068  77.472  96.746
 4887DA     BB231770  51.273  77.225  96.569
 4887DA     BB331771  51.466  77.306  96.526
 4887DA     SC131772  51.383  77.419  96.248
 4887DA     SC231773  51.430  77.370  96.008
 4887DA     SC331774  51.349  77.610  95.965
 4887DA     SC431775  51.330  77.570  96.242
 4888DA     BB131776  51.511  77.014  96.667
 4888DA     BB231777  51.704  76.929  96.366
 4888DA     BB331778  51.883  77.045  96.358
 4888DA     SC131779  51.753  77.277  96.195
 4888DA     SC231780  51.767  77.370  95.964
 4888DA     SC331781  51.666  77.583  96.066
 4888DA     SC431782  51.691  77.400  96.277
 4889DT     BB131783  52.038  76.943  96.374
 4889DT     BB231784  52.162  76.976  96.037
 4889DT     BB331785  52.308  77.123  96.030
 4889DT     SC131786  52.129  77.314  96.050
 4889DT     SC231787  52.117  77.420  95.863
 4889DT     SC331788  51.994  77.519  96.146
 4890DT     BB131789  52.504  76.935  96.004
 4890DT     BB231790  52.568  77.162  95.731
 4890DT     BB331791  52.687  77.318  95.795
 4890DT     SC131792  52.487  77.429  95.923
 4890DT     SC231793  52.431  77.611  95.822
 4890DT     SC331794  52.341  77.523  96.121
 4891DG     BB131795  52.948  77.163  95.512
 4891DG     BB231796  52.922  77.521  95.468
 4891DG     BB331797  53.047  77.614  95.593
 4891DG     SC131798  52.843  77.634  95.821
 4891DG     SC231799  52.723  77.886  95.927
 4891DG     SC331800  52.653  77.655  96.098
 4891DG     SC431801  52.833  77.514  95.926
 4892DT     BB131802  53.270  77.761  95.557
 4892DT     BB231803  53.141  78.091  95.625
 4892DT     BB331804  53.221  78.163  95.801
 4892DT     SC131805  53.068  78.006  95.945
 4892DT     SC231806  52.922  78.125  96.049
 4892DT     SC331807  52.996  77.816  96.112
 4893DT     BB131808  53.423  78.356  95.700
 4893DT     BB231809  53.216  78.558  95.916
 4893DT     BB331810  53.302  78.570  96.105
 4893DT     SC131811  53.230  78.324  96.161
 4893DT     SC231812  53.076  78.328  96.312
 4893DT     SC331813  53.247  78.068  96.222
 4894DA     BB131814  53.246  78.971  95.996
 4894DA     BB231815  53.095  78.925  96.327
 4894DA     BB331816  53.246  78.919  96.477
 4894DA     SC131817  53.281  78.610  96.464
 4894DA     SC231818  53.233  78.413  96.608
 4894DA     SC331819  53.407  78.291  96.465
 4894DA     SC431820  53.394  78.553  96.365
 4895DA     BB131821  53.052  79.152  96.595
 4895DA     BB231822  52.997  78.932  96.882
 4895DA     BB331823  53.167  78.933  97.010
 4895DA     SC131824  53.306  78.693  96.869
 4895DA     SC231825  53.360  78.455  96.919
 4895DA     SC331826  53.534  78.476  96.731
 4895DA     SC431827  53.409  78.726  96.750
 4896DT     BB131828  53.126  79.003  97.175
 4896DT     BB231829  53.128  78.693  97.359
 4896DT     BB331830  53.308  78.671  97.458
 4896DT     SC131831  53.433  78.612  97.235
 4896DT     SC231832  53.491  78.405  97.238
 4896DT     SC331833  53.601  78.630  97.033
 4897DA     BB131834  52.989  78.604  97.723
 4897DA     BB231835  53.232  78.332  97.765
 4897DA     BB331836  53.408  78.405  97.860
 4897DA     SC131837  53.552  78.476  97.594
 4897DA     SC231838  53.746  78.393  97.461
 4897DA     SC331839  53.743  78.624  97.349
 4897DA     SC431840  53.535  78.626  97.538
 4898DA     BB131841  53.347  78.156  98.070
 4898DA     BB231842  53.676  78.023  97.982
 4898DA     BB331843  53.830  78.137  98.075
 4898DA     SC131844  53.861  78.336  97.838
 4898DA     SC231845  54.029  78.389  97.662
 4898DA     SC331846  53.909  78.615  97.644
 4898DA     SC431847  53.774  78.471  97.843
 4899DA     BB131848  53.947  77.853  98.213
 4899DA     BB231849  54.261  77.909  98.032
 4899DA     BB331850  54.381  78.052  98.135
 4899DA     SC131851  54.264  78.296  97.981
 4899DA     SC231852  54.340  78.461  97.811
 4899DA     SC331853  54.145  78.606  97.893
 4899DA     SC431854  54.138  78.372  98.047
 4900DT     BB131855  54.591  78.021  98.254
 4900DT     BB231856  54.799  78.169  97.999
 4900DT     BB331857  54.882  78.345  98.069
 4900DT     SC131858  54.653  78.472  98.044
 4900DT     SC231859  54.668  78.615  97.884
 4900DT     SC331860  54.435  78.604  98.109
 4901DT     BB131861  55.158  78.257  98.117
 4901DT     BB231862  55.194  78.528  97.882
 4901DT     BB331863  55.233  78.704  97.983
 4901DT     SC131864  54.984  78.724  98.062
 4901DT     SC231865  54.889  78.888  97.961
 4901DT     SC331866  54.774  78.734  98.221
 4902DT     BB131867  55.485  78.698  97.887
 4902DT     BB231868  55.340  79.000  97.755
 4902DT     BB331869  55.362  79.155  97.891
 4902DT     SC131870  55.173  79.057  98.044
 4902DT     SC231871  55.001  79.187  98.037
 4902DT     SC331872  55.054  78.952  98.254
 4903DT     BB131873  55.525  79.245  97.708
 4903DT     BB231874  55.266  79.493  97.740
 4903DT     BB331875  55.304  79.614  97.904
 4903DT     SC131876  55.231  79.426  98.071
 4903DT     SC231877  55.046  79.482  98.165
 4903DT     SC331878  55.244  79.244  98.262
 4904DT     BB131879  55.330  79.774  97.705
 4904DT     BB231880  55.067  79.909  97.910
 4904DT     BB331881  55.147  80.000  98.078
 4904DT     SC131882  55.199  79.767  98.188
 4904DT     SC231883  55.069  79.738  98.357
 4904DT     SC331884  55.335  79.566  98.290
 4905DG     BB131885  54.891  80.232  97.859
 4905DG     BB231886  54.803  80.221  98.209
 4905DG     BB331887  54.936  80.324  98.316
 4905DG     SC131888  55.120  80.084  98.362
 4905DG     SC231889  55.174  79.952  98.624
 4905DG     SC331890  55.355  79.847  98.415
 4905DG     SC431891  55.235  80.052  98.255
 4906DC     BB131892  54.850  80.468  98.412
 4906DC     BB231893  54.864  80.355  98.755
 4906DC     BB331894  55.034  80.429  98.847
 4906DC     SC131895  55.187  80.258  98.718
 4906DC     SC231896  55.264  80.113  98.857
 4906DC     SC331897  55.373  80.165  98.556
 4907DC     BB131898  54.867  80.580  98.982
 4907DC     BB231899  55.056  80.400  99.232
 4907DC     BB331900  55.239  80.493  99.262
 4907DC     SC131901  55.332  80.401  99.035
 4907DC     SC231902  55.484  80.254  99.074
 4907DC     SC331903  55.428  80.398  98.789
 4908DA     BB131904  55.059  80.440  99.638
 4908DA     BB231905  55.405  80.323  99.660
 4908DA     BB331906  55.540  80.488  99.654
 4908DA     SC131907  55.571  80.485  99.345
 4908DA     SC231908  55.747  80.429  99.178
 4908DA     SC331909  55.608  80.571  99.015
 4908DA     SC431910  55.471  80.578  99.259
 4909DT     BB131911  55.649  80.529  99.818
 4909DT     BB231912  55.965  80.410  99.692
 4909DT     BB331913  56.085  80.571  99.640
 4909DT     SC131914  55.944  80.615  99.423
 4909DT     SC231915  56.062  80.566  99.250
 4909DT     SC331916  55.787  80.737  99.250
 4910DC     BB131917  56.240  80.519  99.853
 4910DC     BB231918  56.464  80.506  99.571
 4910DC     BB331919  56.531  80.696  99.524
 4910DC     SC131920  56.300  80.759  99.417
 4910DC     SC231921  56.323  80.779  99.204
 4910DC     SC331922  56.069  80.882  99.378
 4911DG     BB131923  56.861  80.469  99.599
 4911DG     BB231924  56.884  80.636  99.278
 4911DG     BB331925  56.933  80.827  99.305
 4911DG     SC131926  56.643  80.923  99.326
 4911DG     SC231927  56.502  81.098  99.130
 4911DG     SC331928  56.338  81.060  99.373
 4911DG     SC431929  56.572  80.924  99.469
 4912DA     BB131930  57.185  80.765  99.075
 4912DA     BB231931  57.044  81.022  98.855
 4912DA     BB331932  57.088  81.217  98.930
 4912DA     SC131933  56.828  81.237  99.099
 4912DA     SC231934  56.615  81.366  99.096
 4912DA     SC331935  56.597  81.304  99.344
 4912DA     SC431936  56.836  81.189  99.253
 4913DA     BB131937  57.202  81.244  98.624
 4913DA     BB231938  56.953  81.510  98.579
 4913DA     BB331939  57.015  81.687  98.681
 4913DA     SC131940  56.870  81.613  98.946
 4913DA     SC231941  56.674  81.693  99.078
 4913DA     SC331942  56.784  81.573  99.276
 4913DA     SC431943  56.955  81.534  99.057
 4914DT     BB131944  57.050  81.832  98.565
 4914DT     BB231945  56.751  82.019  98.640
 4914DT     BB331946  56.795  82.172  98.773
 4914DT     SC131947  56.815  82.004  98.973
 4914DT     SC231948  56.650  82.034  99.108
 4914DT     SC331949  56.920  81.866  99.172
 4915DA     BB131950  56.574  82.310  98.443
 4915DA     BB231951  56.416  82.434  98.750
 4915DA     BB331952  56.539  82.581  98.842
 4915DA     SC131953  56.694  82.377  99.019
 4915DA     SC231954  56.711  82.317  99.260
 4915DA     SC331955  56.934  82.208  99.197
 4915DA     SC431956  56.831  82.316  98.960
 4916DT     BB131957  56.449  82.731  98.841
 4916DT     BB231958  56.374  82.743  99.194
 4916DT     BB331959  56.516  82.858  99.292
 4916DT     SC131960  56.695  82.667  99.273
 4916DT     SC231961  56.733  82.585  99.468
 4916DT     SC331962  56.915  82.539  99.204
 4917DT     BB131963  56.312  83.017  99.319
 4917DT     BB231964  56.431  82.954  99.654
 4917DT     BB331965  56.598  83.070  99.692
 4917DT     SC131966  56.750  82.917  99.543
 4917DT     SC231967  56.887  82.809  99.668
 4917DT     SC331968  56.907  82.840  99.346
 4918DT     BB131969  56.442  83.209  99.855
 4918DT     BB231970  56.722  83.109 100.059
 4918DT     BB331971  56.880  83.239 100.030
 4918DT     SC131972  56.934  83.133  99.796
 4918DT     SC231973  57.120  83.025  99.807
 4918DT     SC331974  56.965  83.111  99.535
 4919DG     BB131975  56.803  83.267 100.432
 4919DG     BB231976  57.155  83.210 100.371
 4919DG     BB331977  57.242  83.380 100.315
 4919DG     SC131978  57.191  83.336 100.016
 4919DG     SC231979  57.400  83.287  99.808
 4919DG     SC331980  57.135  83.330  99.684
 4919DG     SC431981  57.054  83.388  99.952
 4920DT     BB131982  57.417  83.520 100.432
 4920DT     BB231983  57.709  83.444 100.234
 4920DT     BB331984  57.761  83.608 100.119
 4920DT     SC131985  57.561  83.567  99.954
 4920DT     SC231986  57.638  83.502  99.764
 4920DT     SC331987  57.337  83.606  99.822
 4921DC     BB131988  57.998  83.725 100.266
 4921DC     BB231989  58.127  83.673  99.933
 4921DC     BB331990  58.113  83.848  99.824
 4921DC     SC131991  57.854  83.819  99.795
 4921DC     SC231992  57.810  83.774  99.589
 4921DC     SC331993  57.595  83.867  99.814
 4922DA     BB131994  58.535  83.805  99.780
 4922DA     BB231995  58.403  83.851  99.441
 4922DA     BB331996  58.378  84.058  99.398
 4922DA     SC131997  58.085  84.070  99.502
 4922DA     SC231998  57.857  84.098  99.406
 4922DA     SC331999  57.787  84.166  99.643
 4922DA     SC432000  58.062  84.111  99.655
 4923DA     BB132001  58.575  84.027  99.129
 4923DA     BB232002  58.283  84.104  98.921
 4923DA     BB332003  58.261  84.315  98.900
 4923DA     SC132004  58.076  84.345  99.149
 4923DA     SC232005  57.837  84.398  99.196
 4923DA     SC332006  57.918  84.458  99.432
 4923DA     SC432007  58.146  84.379  99.290
 4924DT     BB132008  58.285  84.410  98.708
 4924DT     BB232009  57.933  84.455  98.646
 4924DT     BB332010  57.884  84.656  98.654
 4924DT     SC132011  57.901  84.657  98.916
 4924DT     SC232012  57.705  84.682  99.000
 4924DT     SC332013  57.986  84.716  99.159
 4925DG     BB132014  57.774  84.497  98.298
 4925DG     BB232015  57.497  84.661  98.462
 4925DG     BB332016  57.511  84.858  98.439
 4925DG     SC132017  57.677  84.901  98.693
 4925DG     SC232018  57.588  85.046  98.938
 4925DG     SC332019  57.876  84.982  98.952
 4925DG     SC432020  57.837  84.891  98.684
 4926DT     BB132021  57.353  84.937  98.343
 4926DT     BB232022  57.179  85.108  98.609
 4926DT     BB332023  57.225  85.310  98.605
 4926DT     SC132024  57.463  85.265  98.706
 4926DT     SC232025  57.471  85.342  98.907
 4926DT     SC332026  57.726  85.254  98.726
 4927DT     BB132027  56.975  85.329  98.530
 4927DT     BB232028  57.002  85.540  98.821
 4927DT     BB332029  57.079  85.725  98.768
 4927DT     SC132030  57.320  85.624  98.742
 4927DT     SC232031  57.447  85.699  98.899
 4927DT     SC332032  57.547  85.550  98.629
 4928DG     BB132033  56.723  85.776  98.958
 4928DG     BB232034  56.978  85.993  99.095
 4928DG     BB332035  57.010  86.146  98.972
 4928DG     SC132036  57.229  86.003  98.812
 4928DG     SC232037  57.518  86.077  98.804
 4928DG     SC332038  57.457  85.870  98.602
 4928DG     SC432039  57.186  85.914  98.685
 4929DT     BB132040  56.966  86.362  99.027
 4929DT     BB232041  57.295  86.507  99.063
 4929DT     BB332042  57.339  86.623  98.897
 4929DT     SC132043  57.380  86.411  98.749
 4929DT     SC232044  57.589  86.396  98.702
 4929DT     SC332045  57.350  86.233  98.556
 4930DA     BB132046  57.400  86.906  99.205
 4930DA     BB232047  57.685  86.940  98.978
 4930DA     BB332048  57.629  87.050  98.804
 4930DA     SC132049  57.545  86.798  98.642
 4930DA     SC232050  57.627  86.670  98.445
 4930DA     SC332051  57.388  86.577  98.431
 4930DA     SC432052  57.391  86.753  98.649
 4931DT     BB132053  57.687  87.288  98.724
 4931DT     BB232054  57.906  87.191  98.454
 4931DT     BB332055  57.824  87.247  98.273
 4931DT     SC132056  57.649  87.052  98.283
 4931DT     SC232057  57.696  86.906  98.133
 4931DT     SC332058  57.416  86.928  98.296
 4932DA     BB132059  58.191  87.458  98.230
 4932DA     BB232060  58.145  87.268  97.920
 4932DA     BB332061  58.011  87.371  97.789
 4932DA     SC132062  57.757  87.229  97.900
 4932DA     SC232063  57.590  87.061  97.820
 4932DA     SC332064  57.439  87.154  98.006
 4932DA     SC432065  57.677  87.301  98.019
 4933DT     BB132066  58.057  87.480  97.576
 4933DT     BB232067  57.914  87.218  97.373
 4933DT     BB332068  57.746  87.288  97.275
 4933DT     SC132069  57.604  87.281  97.496
 4933DT     SC232070  57.457  87.124  97.481
 4933DT     SC332071  57.460  87.362  97.701
 4934DA     BB132072  57.985  87.134  96.968
 4934DA     BB232073  57.652  86.983  96.935
 4934DA     BB332074  57.517  87.121  96.846
 4934DA     SC132075  57.422  87.240  97.118
 4934DA     SC232076  57.216  87.239  97.258
 4934DA     SC332077  57.315  87.448  97.369
 4934DA     SC432078  57.500  87.369  97.174
 4935DT     BB132079  57.442  87.077  96.663
 4935DT     BB232080  57.116  86.975  96.779
 4935DT     BB332081  56.975  87.120  96.731
 4935DT     SC132082  57.062  87.278  96.921
 4935DT     SC232083  56.914  87.291  97.077
 4935DT     SC332084  57.169  87.489  97.040
 4936DT     BB132085  56.885  86.939  96.561
 4936DT     BB232086  56.608  87.011  96.780
 4936DT     BB332087  56.509  87.181  96.715
 4936DT     SC132088  56.701  87.336  96.804
 4936DT     SC232089  56.628  87.449  96.973
 4936DT     SC332090  56.899  87.510  96.806
 4937DA     BB132091  56.247  86.863  96.794
 4937DA     BB232092  56.116  87.165  96.956
 4937DA     BB332093  56.047  87.303  96.809
 4937DA     SC132094  56.320  87.450  96.783
 4937DA     SC232095  56.416  87.672  96.842
 4937DA     SC332096  56.596  87.618  96.666
 4937DA     SC432097  56.421  87.399  96.669
 4938DC     BB132098  55.865  87.329  96.822
 4938DC     BB232099  55.873  87.663  96.957
 4938DC     BB332100  55.842  87.801  96.805
 4938DC     SC132101  56.085  87.766  96.713
 4938DC     SC232102  56.202  87.942  96.750
 4938DC     SC332103  56.282  87.700  96.550
 4939DA     BB132104  55.575  87.889  97.117
 4939DA     BB232105  55.733  88.203  97.012
 4939DA     BB332106  55.659  88.263  96.821
 4939DA     SC132107  55.879  88.112  96.661
 4939DA     SC232108  56.077  88.169  96.521
 4939DA     SC332109  56.053  87.932  96.426
 4939DA     SC432110  55.847  87.962  96.613
 4940DA     BB132111  55.587  88.549  96.973
 4940DA     BB232112  55.808  88.716  96.732
 4940DA     BB332113  55.711  88.736  96.543
 4940DA     SC132114  55.815  88.464  96.433
 4940DA     SC232115  55.976  88.385  96.260
 4940DA     SC332116  55.849  88.163  96.272
 4940DA     SC432117  55.723  88.335  96.454
 4941DA     BB132118  55.772  89.063  96.564
 4941DA     BB232119  55.970  89.032  96.257
 4941DA     BB332120  55.843  89.027  96.086
 4941DA     SC132121  55.816  88.717  96.085
 4941DA     SC232122  55.891  88.526  95.944
 4941DA     SC332123  55.701  88.395  96.057
 4941DA     SC432124  55.692  88.653  96.165
 4942DT     BB132125  55.838  89.185  95.941
 4942DT     BB232126  56.017  89.009  95.682
 4942DT     BB332127  55.888  88.955  95.530
 4942DT     SC132128  55.784  88.763  95.675
 4942DT     SC232129  55.841  88.573  95.594
 4942DT     SC332130  55.607  88.623  95.811
 4943DT     BB132131  55.985  89.147  95.353
 4943DT     BB232132  56.027  88.835  95.177
 4943DT     BB332133  55.857  88.792  95.067
 4943DT     SC132134  55.725  88.724  95.284
 4943DT     SC232135  55.691  88.512  95.282
 4943DT     SC332136  55.544  88.727  95.475
 4944DT     BB132137  55.980  88.851  94.826
 4944DT     BB232138  55.869  88.510  94.789
 4944DT     BB332139  55.676  88.506  94.714
 4944DT     SC132140  55.576  88.579  94.945
 4944DT     SC232141  55.467  88.415  95.031
 4944DT     SC332142  55.451  88.724  95.127
 4945DA     BB132143  55.911  88.256  94.473
 4945DA     BB232144  55.613  88.069  94.574
 4945DA     BB332145  55.442  88.139  94.468
 4945DA     SC132146  55.366  88.351  94.682
 4945DA     SC232147  55.185  88.387  94.851
 4945DA     SC332148  55.257  88.633  94.845
 4945DA     SC432149  55.424  88.500  94.663
 4946DT     BB132150  55.360  88.011  94.345
 4946DT     BB232151  55.074  87.935  94.551
 4946DT     BB332152  54.906  88.031  94.478
 4946DT     SC132153  54.989  88.263  94.571
 4946DT     SC232154  54.863  88.324  94.734
 4946DT     SC332155  55.073  88.513  94.575
 4947DA     BB132156  54.829  87.625  94.545
 4947DA     BB232157  54.563  87.821  94.703
 4947DA     BB332158  54.437  87.909  94.555
 4947DA     SC132159  54.603  88.172  94.535
 4947DA     SC232160  54.576  88.412  94.596
 4947DA     SC332161  54.763  88.455  94.426
 4947DA     SC432162  54.719  88.178  94.424
 4948DT     BB132163  54.268  87.842  94.567
 4948DT     BB232164  54.114  88.135  94.710
 4948DT     BB332165  54.020  88.245  94.562
 4948DT     SC132166  54.249  88.334  94.470
 4948DT     SC232167  54.266  88.544  94.513
 4948DT     SC332168  54.451  88.376  94.306
 4949DA     BB132169  53.772  88.182  94.897
 4949DA     BB232170  53.758  88.537  94.805
 4949DA     BB332171  53.656  88.561  94.619
 4949DA     SC132172  53.915  88.539  94.446
 4949DA     SC232173  54.056  88.689  94.306
 4949DA     SC332174  54.143  88.473  94.199
 4949DA     SC432175  53.955  88.394  94.392
 4950DT     BB132176  53.502  88.655  94.641
 4950DT     BB232177  53.607  88.961  94.483
 4950DT     BB332178  53.541  88.966  94.287
 4950DT     SC132179  53.722  88.792  94.212
 4950DT     SC232180  53.868  88.890  94.088
 4950DT     SC332181  53.830  88.570  94.120
 4951DT     BB132182  53.370  89.154  94.365
 4951DT     BB232183  53.551  89.304  94.091
 4951DT     BB332184  53.468  89.246  93.911
 4951DT     SC132185  53.571  89.006  93.931
 4951DT     SC232186  53.725  88.982  93.782
 4951DT     SC332187  53.587  88.743  93.953
 4952DT     BB132188  53.361  89.495  93.874
 4952DT     BB232189  53.553  89.436  93.575
 4952DT     BB332190  53.437  89.335  93.435
 4952DT     SC132191  53.459  89.110  93.568
 4952DT     SC232192  53.581  88.973  93.457
 4952DT     SC332193  53.391  88.897  93.708
 4953DC     BB132194  53.402  89.559  93.273
 4953DC     BB232195  53.541  89.312  93.050
 4953DC     BB332196  53.389  89.201  92.964
 4953DC     SC132197  53.348  89.068  93.186
 4953DC     SC232198  53.412  88.864  93.160
 4953DC     SC332199  53.227  88.977  93.402
 4954DA     BB132200  53.612  89.341  92.637
 4954DA     BB232201  53.564  88.980  92.590
 4954DA     BB332202  53.365  88.939  92.525
 4954DA     SC132203  53.252  88.905  92.813
 4954DA     SC232204  53.165  88.721  92.957
 4954DA     SC332205  53.054  88.907  93.093
 4954DA     SC432206  53.190  89.035  92.884
 4955DA     BB132207  53.524  88.783  92.284
 4955DA     BB232208  53.362  88.476  92.401
 4955DA     BB332209  53.158  88.471  92.339
 4955DA     SC132210  53.051  88.611  92.595
 4955DA     SC232211  52.915  88.550  92.795
 4955DA     SC332212  52.874  88.803  92.818
 4955DA     SC432213  53.036  88.771  92.591
 4956DA     BB132214  53.263  88.182  92.226
 4956DA     BB232215  53.013  88.029  92.446
 4956DA     BB332216  52.817  88.055  92.366
 4956DA     SC132217  52.766  88.324  92.514
 4956DA     SC232218  52.621  88.407  92.700
 4956DA     SC332219  52.665  88.640  92.601
 4956DA     SC432220  52.803  88.460  92.437
 4957DT     BB132221  52.726  87.893  92.311
 4957DT     BB232222  52.489  87.878  92.582
 4957DT     BB332223  52.303  87.943  92.517
 4957DT     SC132224  52.382  88.194  92.517
 4957DT     SC232225  52.282  88.300  92.674
 4957DT     SC332226  52.445  88.434  92.428
 4958DT     BB132227  52.216  87.689  92.530
 4958DT     BB232228  51.986  87.873  92.737
 4958DT     BB332229  51.835  87.954  92.621
 4958DT     SC132230  51.995  88.139  92.527
 4958DT     SC232231  51.937  88.331  92.605
 4958DT     SC332232  52.138  88.280  92.355
 4959DA     BB132233  51.635  87.743  92.925
 4959DA     BB232234  51.480  88.074  92.902
 4959DA     BB332235  51.358  88.087  92.727
 4959DA     SC132236  51.586  88.194  92.545
 4959DA     SC232237  51.645  88.406  92.429
 4959DA     SC332238  51.795  88.260  92.281
 4959DA     SC432239  51.672  88.085  92.462
 4960DT     BB132240  51.132  88.101  92.727
 4960DT     BB232241  51.113  88.449  92.633
 4960DT     BB332242  51.041  88.467  92.440
 4960DT     SC132243  51.271  88.388  92.339
 4960DT     SC232244  51.366  88.554  92.240
 4960DT     SC332245  51.448  88.242  92.210
 4961DA     BB132246  50.764  88.709  92.646
 4961DA     BB232247  50.885  88.906  92.361
 4961DA     BB332248  50.788  88.844  92.182
 4961DA     SC132249  51.002  88.630  92.110
 4961DA     SC232250  51.180  88.598  91.939
 4961DA     SC332251  51.166  88.349  92.000
 4961DA     SC432252  50.977  88.480  92.161
 4962DC     BB132253  50.651  88.972  92.072
 4962DC     BB232254  50.885  89.056  91.809
 4962DC     BB332255  50.829  88.963  91.633
 4962DC     SC132256  50.913  88.730  91.719
 4962DC     SC232257  51.088  88.672  91.608
 4962DC     SC332258  50.910  88.478  91.797
 4963DT     BB132259  50.751  89.203  91.528
 4963DT     BB232260  51.004  89.081  91.302
 4963DT     BB332261  50.918  88.960  91.158
 4963DT     SC132262  50.889  88.764  91.329
 4963DT     SC232263  51.023  88.603  91.278
 4963DT     SC332264  50.772  88.583  91.482
 4964DT     BB132265  50.973  89.157  90.989
 4964DT     BB232266  51.149  88.869  90.861
 4964DT     BB332267  51.021  88.752  90.748
 4964DT     SC132268  50.901  88.661  90.963
 4964DT     SC232269  50.949  88.453  90.989
 4964DT     SC332270  50.711  88.614  91.140
 4965DT     BB132271  51.166  88.835  90.544
 4965DT     BB232272  51.189  88.475  90.538
 4965DT     BB332273  51.023  88.395  90.444
 4965DT     SC132274  50.872  88.444  90.653
 4965DT     SC232275  50.817  88.258  90.746
 4965DT     SC332276  50.679  88.546  90.801
 4966DT     BB132277  51.194  88.333  90.253
 4966DT     BB232278  51.044  88.020  90.353
 4966DT     BB332279  50.861  87.996  90.260
 4966DT     SC132280  50.749  88.172  90.419
 4966DT     SC232281  50.612  88.072  90.551
 4966DT     SC332282  50.626  88.392  90.499
 4967DT     BB132283  50.980  87.807  90.119
 4967DT     BB232284  50.699  87.645  90.276
 4967DT     BB332285  50.527  87.679  90.166
 4967DT     SC132286  50.512  87.927  90.252
 4967DT     SC232287  50.343  87.947  90.383
 4967DT     SC332288  50.509  88.190  90.249
 4968DT     BB132289  50.533  87.421  90.091
 4968DT     BB232290  50.209  87.464  90.244
 4968DT     BB332291  50.075  87.538  90.105
 4968DT     SC132292  50.181  87.777  90.117
 4968DT     SC232293  50.043  87.912  90.212
 4968DT     SC332294  50.306  87.997  90.042
 4969DT     BB132295  49.956  87.297  90.104
 4969DT     BB232296  49.695  87.529  90.193
 4969DT     BB332297  49.612  87.611  90.022
 4969DT     SC132298  49.821  87.765  89.984
 4969DT     SC232299  49.766  87.970  90.020
 4969DT     SC332300  50.036  87.868  89.872
 4970DT     BB132301  49.391  87.465  90.067
 4970DT     BB232302  49.275  87.806  90.055
 4970DT     BB332303  49.239  87.862  89.859
 4970DT     SC132304  49.496  87.882  89.810
 4970DT     SC232305  49.548  88.088  89.781
 4970DT     SC332306  49.733  87.834  89.703
 4971DT     BB132307  48.977  87.857  89.915
 4971DT     BB232308  49.040  88.192  89.795
 4971DT     BB332309  49.031  88.195  89.588
 4971DT     SC132310  49.265  88.077  89.568
 4971DT     SC232311  49.409  88.217  89.491
 4971DT     SC332312  49.447  87.896  89.510
 4972DG     BB132313  48.761  88.465  89.731
 4972DG     BB232314  48.983  88.615  89.488
 4972DG     BB332315  48.929  88.561  89.304
 4972DG     SC132316  49.105  88.311  89.300
 4972DG     SC232317  49.343  88.267  89.125
 4972DG     SC332318  49.271  88.019  89.268
 4972DG     SC432319  49.045  88.173  89.355
 4973DG     BB132320  48.893  88.879  89.230
 4973DG     BB232321  49.156  88.827  88.987
 4973DG     BB332322  49.081  88.750  88.820
 4973DG     SC132323  49.116  88.459  88.910
 4973DG     SC232324  49.302  88.259  88.788
 4973DG     SC332325  49.121  88.130  88.984
 4973DG     SC432326  48.998  88.388  88.993
 4974DT     BB132327  49.091  88.859  88.628
 4974DT     BB232328  49.350  88.675  88.456
 4974DT     BB332329  49.265  88.552  88.313
 4974DT     SC132330  49.181  88.384  88.496
 4974DT     SC232331  49.293  88.201  88.482
 4974DT     SC332332  49.016  88.243  88.646
 4975DA     BB132333  49.566  88.777  88.128
 4975DA     BB232334  49.617  88.425  88.039
 4975DA     BB332335  49.469  88.362  87.899
 4975DA     SC132336  49.269  88.265  88.117
 4975DA     SC232337  49.178  88.049  88.201
 4975DA     SC332338  48.987  88.190  88.298
 4975DA     SC432339  49.159  88.370  88.168
 4976DA     BB132340  49.746  88.275  87.749
 4976DA     BB232341  49.620  87.931  87.763
 4976DA     BB332342  49.462  87.904  87.623
 4976DA     SC132343  49.238  87.982  87.824
 4976DA     SC232344  49.052  87.868  87.946
 4976DA     SC332345  48.953  88.104  87.972
 4976DA     SC432346  49.192  88.136  87.829
 4977DT     BB132347  49.506  87.782  87.489
 4977DT     BB232348  49.298  87.511  87.604
 4977DT     BB332349  49.123  87.505  87.494
 4977DT     SC132350  49.027  87.714  87.620
 4977DT     SC232351  48.864  87.652  87.746
 4977DT     SC332352  48.935  87.957  87.663
 4978DA     BB132353  49.300  87.124  87.509
 4978DA     BB232354  48.944  87.089  87.590
 4978DA     BB332355  48.825  87.123  87.416
 4978DA     SC132356  48.794  87.429  87.467
 4978DA     SC232357  48.614  87.588  87.533
 4978DA     SC332358  48.765  87.769  87.433
 4978DA     SC432359  48.902  87.527  87.399
 4979DT     BB132360  48.728  86.971  87.352
 4979DT     BB232361  48.398  87.079  87.450
 4979DT     BB332362  48.296  87.154  87.286
 4979DT     SC132363  48.438  87.375  87.290
 4979DT     SC232364  48.313  87.539  87.350
 4979DT     SC332365  48.606  87.564  87.214
 4980DA     BB132366  48.038  86.866  87.452
 4980DA     BB232367  47.840  87.168  87.386
 4980DA     BB332368  47.806  87.190  87.177
 4980DA     SC132369  48.061  87.361  87.128
 4980DA     SC232370  48.116  87.597  87.070
 4980DA     SC332371  48.343  87.504  86.995
 4980DA     SC432372  48.195  87.284  87.086
 4981DA     BB132373  47.477  87.200  87.243
 4981DA     BB232374  47.471  87.537  87.097
 4981DA     BB332375  47.468  87.525  86.884
 4981DA     SC132376  47.778  87.531  86.855
 4981DA     SC232377  47.952  87.688  86.771
 4981DA     SC332378  48.102  87.481  86.755
 4981DA     SC432379  47.855  87.390  86.850
 4982DG     BB132380  47.179  87.669  86.858
 4982DG     BB232381  47.364  87.930  86.690
 4982DG     BB332382  47.372  87.892  86.495
 4982DG     SC132383  47.631  87.729  86.511
 4982DG     SC232384  47.895  87.808  86.396
 4982DG     SC332385  47.901  87.529  86.495
 4982DG     SC432386  47.622  87.572  86.538
 4983DT     BB132387  47.270  88.022  86.301
 4983DT     BB232388  47.566  88.183  86.170
 4983DT     BB332389  47.614  88.104  85.985
 4983DT     SC132390  47.706  87.884  86.095
 4983DT     SC232391  47.920  87.877  86.071
 4983DT     SC332392  47.730  87.629  86.157
 4984DC     BB132393  47.525  88.326  85.830
 4984DC     BB232394  47.871  88.286  85.732
 4984DC     BB332395  47.883  88.163  85.566
 4984DC     SC132396  47.834  87.950  85.710
 4984DC     SC232397  48.012  87.829  85.721
 4984DC     SC332398  47.712  87.734  85.801
 4985DG     BB132399  48.052  88.513  85.433
 4985DG     BB232400  48.274  88.233  85.375
 4985DG     BB332401  48.222  88.139  85.208
 4985DG     SC132402  48.028  87.947  85.347
 4985DG     SC232403  48.063  87.651  85.374
 4985DG     SC332404  47.794  87.734  85.464
 4985DG     SC432405  47.876  87.991  85.367
 4986DT     BB132406  48.355  88.121  85.008
 4986DT     BB232407  48.468  87.779  85.036
 4986DT     BB332408  48.374  87.662  84.894
 4986DT     SC132409  48.149  87.664  85.029
 4986DT     SC232410  48.111  87.468  85.109
 4986DT     SC332411  47.896  87.710  85.089
 4987DT     BB132412  48.603  87.636  84.734
 4987DT     BB232413  48.512  87.296  84.812
 4987DT     BB332414  48.384  87.222  84.667
 4987DT     SC132415  48.183  87.363  84.760
 4987DT     SC232416  48.039  87.231  84.849
 4987DT     SC332417  47.990  87.542  84.771
 4988DT     BB132418  48.581  87.058  84.561
 4988DT     BB232419  48.315  86.832  84.653
 4988DT     BB332420  48.185  86.808  84.494
 4988DT     SC132421  48.080  87.046  84.534
 4988DT     SC232422  47.879  87.025  84.607
 4988DT     SC332423  48.011  87.297  84.492
 4989DT     BB132424  48.279  86.557  84.462
 4989DT     BB232425  47.925  86.517  84.522
 4989DT     BB332426  47.822  86.530  84.343
 4989DT     SC132427  47.854  86.790  84.334
 4989DT     SC232428  47.664  86.887  84.366
 4989DT     SC332429  47.933  87.028  84.252
 4990DT     BB132430  47.780  86.275  84.386
 4990DT     BB232431  47.452  86.425  84.368
 4990DT     BB332432  47.395  86.445  84.170
 4990DT     SC132433  47.558  86.648  84.135
 4990DT     SC232434  47.443  86.828  84.110
 4990DT     SC332435  47.758  86.792  84.043
 4991DA     BB132436  47.104  86.280  84.424
 4991DA     BB232437  46.949  86.542  84.219
 4991DA     BB332438  46.941  86.482  84.015
 4991DA     SC132439  47.217  86.605  83.942
 4991DA     SC232440  47.304  86.795  83.806
 4991DA     SC332441  47.527  86.667  83.808
 4991DA     SC432442  47.346  86.510  83.953
 4992DT     BB132443  46.776  86.480  83.988
 4992DT     BB232444  46.760  86.765  83.768
 4992DT     BB332445  46.786  86.704  83.572
 4992DT     SC132446  47.044  86.669  83.609
 4992DT     SC232447  47.153  86.819  83.500
 4992DT     SC332448  47.278  86.549  83.628
 4993DA     BB132449  46.442  86.944  83.592
 4993DA     BB232450  46.640  87.054  83.304
 4993DA     BB332451  46.633  86.907  83.149
 4993DA     SC132452  46.885  86.754  83.249
 4993DA     SC232453  47.120  86.716  83.174
 4993DA     SC332454  47.115  86.513  83.331
 4993DA     SC432455  46.862  86.631  83.350
 4994DC     BB132456  46.535  86.945  82.967
 4994DC     BB232457  46.830  86.976  82.762
 4994DC     BB332458  46.853  86.808  82.643
 4994DC     SC132459  46.934  86.666  82.848
 4994DC     SC232460  47.143  86.620  82.825
 4994DC     SC332461  46.940  86.478  83.034
 4995DA     BB132462  46.861  87.121  82.363
 4995DA     BB232463  47.148  86.905  82.293
 4995DA     BB332464  47.085  86.727  82.194
 4995DA     SC132465  47.044  86.566  82.457
 4995DA     SC232466  47.151  86.375  82.576
 4995DA     SC332467  46.928  86.353  82.701
 4995DA     SC432468  46.897  86.568  82.523
 4996DA     BB132469  47.307  86.815  81.967
 4996DA     BB232470  47.486  86.505  82.047
 4996DA     BB332471  47.391  86.338  81.953
 4996DA     SC132472  47.204  86.278  82.194
 4996DA     SC232473  47.179  86.102  82.369
 4996DA     SC332474  46.939  86.190  82.394
 4996DA     SC432475  47.058  86.346  82.194
 4997DA     BB132476  47.698  86.305  81.852
 4997DA     BB232477  47.698  85.984  82.029
 4997DA     BB332478  47.584  85.839  81.920
 4997DA     SC132479  47.317  85.905  82.065
 4997DA     SC232480  47.163  85.796  82.229
 4997DA     SC332481  46.987  85.961  82.142
 4997DA     SC432482  47.221  86.015  81.997
 4998DG     BB132483  47.862  85.715  81.944
 4998DG     BB232484  47.680  85.470  82.138
 4998DG     BB332485  47.578  85.349  82.016
 4998DG     SC132486  47.326  85.524  82.014
 4998DG     SC232487  47.061  85.452  82.131
 4998DG     SC332488  47.042  85.701  81.973
 4998DG     SC432489  47.314  85.641  81.905
 4999DA     BB132490  47.734  85.124  82.225
 4999DA     BB232491  47.406  84.983  82.307
 4999DA     BB332492  47.323  84.883  82.138
 4999DA     SC132493  47.175  85.135  82.031
 4999DA     SC232494  46.940  85.215  82.007
 4999DA     SC332495  47.034  85.377  81.833
 4999DA     SC432496  47.253  85.227  81.925
 5000DA     BB132497  47.299  84.657  82.377
 5000DA     BB232498  46.940  84.649  82.302
 5000DA     BB332499  46.907  84.561  82.111
 5000DA     SC132500  46.921  84.831  81.957
 5000DA     SC232501  46.765  84.982  81.834
 5000DA     SC332502  46.976  85.077  81.723
 5000DA     SC432503  47.064  84.876  81.898
 5001DA     BB132504  46.699  84.349  82.267
 5001DA     BB232505  46.432  84.463  82.043
 5001DA     BB332506  46.456  84.377  81.849
 5001DA     SC132507  46.631  84.610  81.740
 5001DA     SC232508  46.609  84.796  81.575
 5001DA     SC332509  46.866  84.799  81.576
 5001DA     SC432510  46.791  84.596  81.754
 5002DT     BB132511  46.324  84.206  81.734
 5002DT     BB232512  46.168  84.424  81.493
 5002DT     BB332513  46.237  84.381  81.303
 5002DT     SC132514  46.467  84.497  81.352
 5002DT     SC232515  46.482  84.677  81.236
 5002DT     SC332516  46.727  84.528  81.388
 5003DT     BB132517  46.009  84.227  81.186
 5003DT     BB232518  46.059  84.492  80.946
 5003DT     BB332519  46.178  84.425  80.791
 5003DT     SC132520  46.393  84.436  80.941
 5003DT     SC232521  46.520  84.596  80.871
 5003DT     SC332522  46.607  84.358  81.075
 5004DG     BB132523  45.835  84.522  80.588
 5004DG     BB232524  46.120  84.688  80.440
 5004DG     BB332525  46.212  84.565  80.313
 5004DG     SC132526  46.399  84.446  80.524
 5004DG     SC232527  46.695  84.480  80.534
 5004DG     SC332528  46.605  84.281  80.734
 5004DG     SC432529  46.350  84.319  80.609
 5005DT     BB132530  46.229  84.605  80.087
 5005DT     BB232531  46.574  84.706  80.062
 5005DT     BB332532  46.686  84.556  79.973
 5005DT     SC132533  46.679  84.411  80.192
 5005DT     SC232534  46.876  84.405  80.279
 5005DT     SC332535  46.627  84.211  80.356
 5006DC     BB132536  46.708  84.706  79.747
 5006DC     BB232537  47.049  84.636  79.842
 5006DC     BB332538  47.110  84.456  79.760
 5006DC     SC132539  46.968  84.320  79.935
 5006DC     SC232540  47.101  84.219  80.071
 5006DC     SC332541  46.784  84.159  80.033
 5007DA     BB132542  47.403  84.735  79.647
 5007DA     BB232543  47.577  84.439  79.777
 5007DA     BB332544  47.569  84.280  79.635
 5007DA     SC132545  47.306  84.160  79.749
 5007DA     SC232546  47.234  83.956  79.874
 5007DA     SC332547  46.999  84.010  79.787
 5007DA     SC432548  47.167  84.210  79.684
 5008DA     BB132549  47.905  84.264  79.644
 5008DA     BB232550  47.875  83.918  79.763
 5008DA     BB332551  47.836  83.787  79.600
 5008DA     SC132552  47.527  83.809  79.623
 5008DA     SC232553  47.336  83.664  79.690
 5008DA     SC332554  47.190  83.828  79.558
 5008DA     SC432555  47.453  83.922  79.535
 5009DT     BB132556  47.981  83.608  79.487
 5009DT     BB232557  47.807  83.325  79.629
 5009DT     BB332558  47.714  83.218  79.478
 5009DT     SC132559  47.527  83.400  79.454
 5009DT     SC232560  47.340  83.320  79.525
 5009DT     SC332561  47.376  83.588  79.346
 5010DG     BB132562  47.972  82.898  79.578
 5010DG     BB232563  47.628  82.787  79.591
 5010DG     BB332564  47.573  82.717  79.414
 5010DG     SC132565  47.473  82.988  79.311
 5010DG     SC232566  47.190  83.059  79.250
 5010DG     SC332567  47.374  83.272  79.159
 5010DG     SC432568  47.577  83.085  79.237
 5011DT     BB132569  47.498  82.467  79.332
 5011DT     BB232570  47.142  82.526  79.342
 5011DT     BB332571  47.062  82.508  79.151
 5011DT     SC132572  47.161  82.741  79.080
 5011DT     SC232573  47.001  82.882  79.054
 5011DT     SC332574  47.306  82.920  78.952
 5012DT     BB132575  46.945  82.290  79.246
 5012DT     BB232576  46.678  82.518  79.164
 5012DT     BB332577  46.630  82.502  78.963
 5012DT     SC132578  46.847  82.633  78.894
 5012DT     SC232579  46.792  82.826  78.816
 5012DT     SC332580  47.082  82.684  78.785
 5013DA     BB132581  46.315  82.508  79.245
 5013DA     BB232582  46.250  82.757  78.984
 5013DA     BB332583  46.214  82.661  78.797
 5013DA     SC132584  46.513  82.666  78.710
 5013DA     SC232585  46.654  82.782  78.541
 5013DA     SC332586  46.821  82.590  78.578
 5013DA     SC432587  46.603  82.537  78.746
 5014DT     BB132588  46.064  82.716  78.775
 5014DT     BB232589  46.142  82.946  78.507
 5014DT     BB332590  46.134  82.847  78.325
 5014DT     SC132591  46.363  82.727  78.372
 5014DT     SC232592  46.513  82.805  78.240
 5014DT     SC332593  46.537  82.534  78.416
 5015DA     BB132594  45.927  83.215  78.328
 5015DA     BB232595  46.136  83.198  78.028
 5015DA     BB332596  46.064  83.048  77.895
 5015DA     SC132597  46.240  82.822  78.016
 5015DA     SC232598  46.436  82.684  77.948
 5015DA     SC332599  46.361  82.522  78.131
 5015DA     SC432600  46.176  82.733  78.134
 5016DC     BB132601  46.003  83.120  77.737
 5016DC     BB232602  46.272  83.004  77.526
 5016DC     BB332603  46.215  82.831  77.428
 5016DC     SC132604  46.242  82.688  77.646
 5016DC     SC232605  46.411  82.557  77.626
 5016DC     SC332606  46.179  82.535  77.851
 5017DA     BB132607  46.364  83.101  77.142
 5017DA     BB232608  46.523  82.776  77.085
 5017DA     BB332609  46.383  82.638  77.003
 5017DA     SC132610  46.289  82.530  77.279
 5017DA     SC232611  46.308  82.320  77.411
 5017DA     SC332612  46.105  82.407  77.541
 5017DA     SC432613  46.162  82.601  77.347
 5018DA     BB132614  46.626  82.616  76.785
 5018DA     BB232615  46.647  82.262  76.877
 5018DA     BB332616  46.482  82.154  76.796
 5018DA     SC132617  46.300  82.196  77.045
 5018DA     SC232618  46.206  82.058  77.230
 5018DA     SC332619  46.035  82.247  77.257
 5018DA     SC432620  46.202  82.323  77.045
 5019DA     BB132621  46.740  81.981  76.696
 5019DA     BB232622  46.596  81.702  76.885
 5019DA     BB332623  46.423  81.627  76.786
 5019DA     SC132624  46.226  81.815  76.936
 5019DA     SC232625  46.047  81.794  77.109
 5019DA     SC332626  45.966  82.021  77.022
 5019DA     SC432627  46.190  81.956  76.868
 5020DA     BB132628  46.611  81.366  76.842
 5020DA     BB232629  46.327  81.235  77.033
 5020DA     BB332630  46.166  81.185  76.902
 5020DA     SC132631  46.033  81.466  76.919
 5020DA     SC232632  45.826  81.566  77.016
 5020DA     SC332633  45.867  81.758  76.851
 5020DA     SC432634  46.074  81.575  76.809
 5021DA     BB132635  46.211  80.918  77.088
 5021DA     BB232636  45.860  80.957  77.185
 5021DA     BB332637  45.732  80.916  77.019
 5021DA     SC132638  45.725  81.211  76.920
 5021DA     SC232639  45.561  81.398  76.908
 5021DA     SC332640  45.716  81.497  76.729
 5021DA     SC432641  45.834  81.256  76.810
 5022DA     BB132642  45.604  80.719  77.250
 5022DA     BB232643  45.289  80.900  77.197
 5022DA     BB332644  45.206  80.850  77.007
 5022DA     SC132645  45.350  81.081  76.856
 5022DA     SC232646  45.288  81.295  76.745
 5022DA     SC332647  45.513  81.273  76.623
 5022DA     SC432648  45.493  81.048  76.790
 5023DT     BB132649  45.032  80.744  76.997
 5023DT     BB232650  44.820  81.013  76.884
 5023DT     BB332651  44.779  80.991  76.682
 5023DT     SC132652  45.020  81.071  76.617
 5023DT     SC232653  45.009  81.264  76.523
 5023DT     SC332654  45.266  81.066  76.520
 5024DT     BB132655  44.519  80.908  76.726
 5024DT     BB232656  44.485  81.189  76.502
 5024DT     BB332657  44.497  81.125  76.306
 5024DT     SC132658  44.756  81.092  76.324
 5024DT     SC232659  44.856  81.240  76.204
 5024DT     SC332660  44.991  80.972  76.327
 5025DA     BB132661  44.136  81.342  76.320
 5025DA     BB232662  44.326  81.463  76.030
 5025DA     BB332663  44.318  81.321  75.872
 5025DA     SC132664  44.575  81.170  75.962
 5025DA     SC232665  44.809  81.138  75.881
 5025DA     SC332666  44.812  80.931  76.031
 5025DA     SC432667  44.557  81.044  76.060
 5026DT     BB132668  44.217  81.360  75.688
 5026DT     BB232669  44.512  81.412  75.487
 5026DT     BB332670  44.540  81.251  75.360
 5026DT     SC132671  44.625  81.100  75.558
 5026DT     SC232672  44.835  81.062  75.533
 5026DT     SC332673  44.635  80.903  75.733
 5027DG     BB132674  44.506  81.574  75.111
 5027DG     BB232675  44.808  81.387  75.043
 5027DG     BB332676  44.766  81.226  74.933
 5027DG     SC132677  44.716  81.044  75.174
 5027DG     SC232678  44.883  80.810  75.254
 5027DG     SC332679  44.635  80.822  75.415
 5027DG     SC432680  44.569  81.037  75.237
 5028DA     BB132681  45.010  81.327  74.705
 5028DA     BB232682  45.195  81.016  74.764
 5028DA     BB332683  45.104  80.855  74.659
 5028DA     SC132684  44.917  80.774  74.894
 5028DA     SC232685  44.895  80.586  75.056
 5028DA     SC332686  44.654  80.667  75.086
 5028DA     SC432687  44.770  80.839  74.898
 5029DA     BB132688  45.406  80.815  74.531
 5029DA     BB232689  45.410  80.485  74.690
 5029DA     BB332690  45.293  80.346  74.578
 5029DA     SC132691  45.030  80.405  74.733
 5029DA     SC232692  44.881  80.287  74.895
 5029DA     SC332693  44.702  80.456  74.822
 5029DA     SC432694  44.932  80.518  74.674
 5030DT     BB132695  45.384  80.184  74.480
 5030DT     BB232696  45.276  79.934  74.717
 5030DT     BB332697  45.127  79.817  74.634
 5030DT     SC132698  44.950  80.009  74.662
 5030DT     SC232699  44.808  79.953  74.813
 5030DT     SC332700  44.774  80.195  74.600
 5031DG     BB132701  45.429  79.563  74.736
 5031DG     BB232702  45.115  79.463  74.886
 5031DG     BB332703  45.003  79.368  74.752
 5031DG     SC132704  44.865  79.622  74.650
 5031DG     SC232705  44.576  79.689  74.681
 5031DG     SC332706  44.710  79.881  74.500
 5031DG     SC432707  44.933  79.704  74.530
 5032DT     BB132708  44.947  79.163  74.790
 5032DT     BB232709  44.602  79.203  74.888
 5032DT     BB332710  44.477  79.146  74.733
 5032DT     SC132711  44.530  79.366  74.600
 5032DT     SC232712  44.355  79.491  74.597
 5032DT     SC332713  44.617  79.526  74.409
 5033DT     BB132714  44.418  78.943  74.891
 5033DT     BB232715  44.105  79.110  74.828
 5033DT     BB332716  44.026  79.047  74.647
 5033DT     SC132717  44.201  79.190  74.513
 5033DT     SC232718  44.100  79.354  74.416
 5033DT     SC332719  44.400  79.251  74.351
 5034DT     BB132720  43.845  78.927  74.796
 5034DT     BB232721  43.658  79.143  74.576
 5034DT     BB332722  43.630  79.050  74.393
 5034DT     SC132723  43.880  79.093  74.324
 5034DT     SC232724  43.886  79.239  74.166
 5034DT     SC332725  44.130  79.045  74.257
 5035DA     BB132726  43.262  79.194  74.535
 5035DA     BB232727  43.296  79.294  74.184
 5035DA     BB332728  43.276  79.124  74.056
 5035DA     SC132729  43.581  79.059  74.055
 5035DA     SC232730  43.770  79.068  73.893
 5035DA     SC332731  43.886  78.902  74.051
 5035DA     SC432732  43.635  78.956  74.165
 5036DT     BB132733  43.118  79.118  73.937
 5036DT     BB232734  43.289  79.182  73.626
 5036DT     BB332735  43.310  79.007  73.519
 5036DT     SC132736  43.501  78.923  73.679
 5036DT     SC232737  43.688  78.923  73.573
 5036DT     SC332738  43.630  78.775  73.855
 5037DT     BB132739  43.117  79.081  73.337
 5037DT     BB232740  43.406  79.009  73.133
 5037DT     BB332741  43.408  78.808  73.083
 5037DT     SC132742  43.484  78.740  73.324
 5037DT     SC232743  43.687  78.668  73.318
 5037DT     SC332744  43.480  78.631  73.564
 5038DC     BB132745  43.334  78.856  72.819
 5038DC     BB232746  43.642  78.670  72.790
 5038DC     BB332747  43.602  78.467  72.785
 5038DC     SC132748  43.550  78.462  73.042
 5038DC     SC232749  43.706  78.354  73.144
 5038DC     SC332750  43.417  78.435  73.269
 5039DA     BB132751  43.839  78.540  72.447
 5039DA     BB232752  43.984  78.253  72.624
 5039DA     BB332753  43.866  78.079  72.591
 5039DA     SC132754  43.685  78.125  72.841
 5039DA     SC232755  43.648  78.021  73.064
 5039DA     SC332756  43.422  78.142  73.061
 5039DA     SC432757  43.549  78.208  72.819
 5040DC     BB132758  43.943  77.920  72.483
 5040DC     BB232759  44.000  77.701  72.764
 5040DC     BB332760  43.860  77.549  72.765
 5040DC     SC132761  43.672  77.712  72.850
 5040DC     SC232762  43.620  77.661  73.053
 5040DC     SC332763  43.450  77.854  72.855
 5041DC     BB132764  44.049  77.368  72.688
 5041DC     BB232765  43.916  77.233  72.995
 5041DC     BB332766  43.752  77.114  72.954
 5041DC     SC132767  43.602  77.325  72.909
 5041DC     SC232768  43.457  77.344  73.067
 5041DC     SC332769  43.449  77.498  72.782
 5042DA     BB132770  44.015  76.893  73.193
 5042DA     BB232771  43.680  76.867  73.340
 5042DA     BB332772  43.557  76.740  73.221
 5042DA     SC132773  43.448  76.972  73.044
 5042DA     SC232774  43.232  77.092  73.010
 5042DA     SC332775  43.331  77.163  72.784
 5042DA     SC432776  43.526  77.004  72.908
 5043DA     BB132777  43.521  76.600  73.514
 5043DA     BB232778  43.163  76.673  73.483
 5043DA     BB332779  43.072  76.540  73.344
 5043DA     SC132780  43.118  76.726  73.098
 5043DA     SC232781  42.981  76.865  72.944
 5043DA     SC332782  43.183  76.851  72.785
 5043DA     SC432783  43.253  76.704  73.014
 5044DT     BB132784  42.942  76.420  73.420
 5044DT     BB232785  42.647  76.579  73.286
 5044DT     BB332786  42.577  76.473  73.123
 5044DT     SC132787  42.771  76.563  72.970
 5044DT     SC232788  42.690  76.697  72.824
 5044DT     SC332789  42.985  76.564  72.817
 5045DA     BB132790  42.261  76.541  73.389
 5045DA     BB232791  42.146  76.628  73.051
 5045DA     BB332792  42.119  76.451  72.935
 5045DA     SC132793  42.410  76.451  72.823
 5045DA     SC232794  42.523  76.490  72.605
 5045DA     SC332795  42.720  76.360  72.707
 5045DA     SC432796  42.520  76.367  72.904
 5046DA     BB132797  41.825  76.591  72.892
 5046DA     BB232798  41.895  76.587  72.532
 5046DA     BB332799  41.879  76.388  72.456
 5046DA     SC132800  42.179  76.320  72.503
 5046DA     SC232801  42.383  76.279  72.366
 5046DA     SC332802  42.476  76.163  72.575
 5046DA     SC432803  42.219  76.251  72.643
 5047DA     BB132804  41.669  76.526  72.240
 5047DA     BB232805  41.889  76.407  71.972
 5047DA     BB332806  41.864  76.197  71.943
 5047DA     SC132807  42.088  76.119  72.145
 5047DA     SC232808  42.316  76.019  72.138
 5047DA     SC332809  42.277  75.963  72.385
 5047DA     SC432810  42.044  76.091  72.297
 5048DA     BB132811  41.795  76.255  71.618
 5048DA     BB232812  42.084  76.048  71.530
 5048DA     BB332813  42.034  75.841  71.543
 5048DA     SC132814  42.121  75.813  71.840
 5048DA     SC232815  42.302  75.702  71.970
 5048DA     SC332816  42.145  75.726  72.171
 5048DA     SC432817  42.008  75.836  71.953
 5049DC     BB132818  42.005  75.672  71.364
 5049DC     BB232819  42.313  75.494  71.427
 5049DC     BB332820  42.272  75.304  71.498
 5049DC     SC132821  42.204  75.397  71.733
 5049DC     SC232822  42.352  75.338  71.878
 5049DC     SC332823  42.057  75.455  71.944
 5050DC     BB132824  42.320  75.126  71.257
 5050DC     BB232825  42.537  74.983  71.507
 5050DC     BB332826  42.443  74.822  71.598
 5050DC     SC132827  42.285  74.980  71.735
 5050DC     SC232828  42.339  74.972  71.943
 5050DC     SC332829  42.065  75.096  71.822
 5051DC     BB132830  42.585  74.592  71.473
 5051DC     BB232831  42.643  74.545  71.826
 5051DC     BB332832  42.504  74.411  71.903
 5051DC     SC132833  42.314  74.592  71.894
 5051DC     SC232834  42.261  74.649  72.095
 5051DC     SC332835  42.089  74.713  71.827
 5052DT     BB132836  42.692  74.207  71.933
 5052DT     BB232837  42.568  74.267  72.267
 5052DT     BB332838  42.406  74.145  72.305
 5052DT     SC132839  42.250  74.292  72.154
 5052DT     SC232840  42.108  74.396  72.278
 5052DT     SC332841  42.090  74.363  71.956
 5053DA     BB132842  42.686  74.113  72.613
 5053DA     BB232843  42.358  74.181  72.763
 5053DA     BB332844  42.233  74.008  72.749
 5053DA     SC132845  42.111  74.087  72.475
 5053DA     SC232846  41.891  74.163  72.385
 5053DA     SC332847  41.979  74.085  72.158
 5053DA     SC432848  42.183  74.031  72.342
 5054DC     BB132849  42.188  73.933  72.919
 5054DC     BB232850  41.845  74.045  72.926
 5054DC     BB332851  41.719  73.889  72.878
 5054DC     SC132852  41.784  73.904  72.624
 5054DC     SC232853  41.616  73.977  72.511
 5054DC     SC332854  41.880  73.836  72.388
 5055DC     BB132855  41.641  73.886  73.135
 5055DC     BB232856  41.337  73.933  72.947
 5055DC     BB332857  41.262  73.750  72.886
 5055DC     SC132858  41.446  73.727  72.701
 5055DC     SC232859  41.355  73.745  72.507
 5055DC     SC332860  41.653  73.634  72.567
 5056DT     BB132861  41.058  73.765  73.069
 5056DT     BB232862  40.891  73.722  72.753
 5056DT     BB332863  40.870  73.521  72.710
 5056DT     SC132864  41.125  73.500  72.649
 5056DT     SC232865  41.145  73.467  72.438
 5056DT     SC332866  41.377  73.423  72.660
 5057DA     BB132867  40.486  73.683  72.674
 5057DA     BB232868  40.553  73.488  72.371
 5057DA     BB332869  40.538  73.279  72.413
 5057DA     SC132870  40.839  73.247  72.485
 5057DA     SC232871  41.042  73.139  72.387
 5057DA     SC332872  41.138  73.153  72.625
 5057DA     SC432873  40.880  73.263  72.639
 5058DC     BB132874  40.388  73.174  72.325
 5058DC     BB232875  40.596  73.011  72.079
 5058DC     BB332876  40.622  72.812  72.129
 5058DC     SC132877  40.789  72.873  72.321
 5058DC     SC232878  40.987  72.809  72.267
 5058DC     SC332879  40.892  72.898  72.563
 5059DT     BB132880  40.473  72.772  71.917
 5059DT     BB232881  40.784  72.601  71.851
 5059DT     BB332882  40.782  72.415  71.941
 5059DT     SC132883  40.819  72.520  72.178
 5059DT     SC232884  41.016  72.471  72.249
 5059DT     SC332885  40.773  72.588  72.429
 5060DA     BB132886  40.924  72.450  71.543
 5060DA     BB232887  41.160  72.249  71.740
 5060DA     BB332888  41.068  72.066  71.802
 5060DA     SC132889  40.961  72.182  72.070
 5060DA     SC232890  41.007  72.156  72.314
 5060DA     SC332891  40.772  72.254  72.348
 5060DA     SC432892  40.812  72.243  72.070
 5061DG     BB132893  41.341  72.039  71.656
 5061DG     BB232894  41.422  71.874  71.968
 5061DG     BB332895  41.315  71.708  71.987
 5061DG     SC132896  41.081  71.846  72.129
 5061DG     SC232897  40.999  71.802  72.413
 5061DG     SC332898  40.800  71.968  72.269
 5061DG     SC432899  40.963  71.909  72.041
 5062DA     BB132900  41.637  71.598  72.067
 5062DA     BB232901  41.499  71.452  72.374
 5062DA     BB332902  41.363  71.294  72.327
 5062DA     SC132903  41.114  71.479  72.317
 5062DA     SC232904  40.907  71.518  72.452
 5062DA     SC332905  40.814  71.627  72.240
 5062DA     SC432906  41.073  71.542  72.175
 5063DA     BB132907  41.553  71.111  72.530
 5063DA     BB232908  41.250  71.037  72.724
 5063DA     BB332909  41.127  70.897  72.619
 5063DA     SC132910  40.964  71.115  72.469
 5063DA     SC232911  40.732  71.207  72.471
 5063DA     SC332912  40.786  71.294  72.236
 5063DA     SC432913  41.016  71.161  72.323
 5064DT     BB132914  41.086  70.676  72.675
 5064DT     BB232915  40.743  70.715  72.779
 5064DT     BB332916  40.617  70.625  72.642
 5064DT     SC132917  40.652  70.818  72.469
 5064DT     SC232918  40.470  70.931  72.450
 5064DT     SC332919  40.723  70.944  72.248
 5065DT     BB132920  40.549  70.386  72.793
 5065DT     BB232921  40.226  70.525  72.712
 5065DT     BB332922  40.154  70.440  72.537
 5065DT     SC132923  40.321  70.581  72.391
 5065DT     SC232924  40.211  70.727  72.278
 5065DT     SC332925  40.518  70.638  72.226
 5066DA     BB132926  39.839  70.367  72.806
 5066DA     BB232927  39.691  70.514  72.505
 5066DA     BB332928  39.675  70.368  72.350
 5066DA     SC132929  39.955  70.431  72.229
 5066DA     SC232930  40.047  70.535  72.021
 5066DA     SC332931  40.264  70.412  72.080
 5066DA     SC432932  40.080  70.346  72.282
 5067DG     BB132933  39.365  70.414  72.359
 5067DG     BB232934  39.415  70.537  72.023
 5067DG     BB332935  39.412  70.385  71.894
 5067DG     SC132936  39.713  70.332  71.912
 5067DG     SC232937  39.911  70.372  71.692
 5067DG     SC332938  40.036  70.234  71.922
 5067DG     SC432939  39.768  70.232  72.024
 5068DT     BB132940  39.255  70.365  71.732
 5068DT     BB232941  39.443  70.452  71.437
 5068DT     BB332942  39.486  70.282  71.327
 5068DT     SC132943  39.670  70.208  71.499
 5068DT     SC232944  39.864  70.226  71.407
 5068DT     SC332945  39.797  70.065  71.681
 5069DT     BB132946  39.299  70.342  71.129
 5069DT     BB232947  39.607  70.299  70.946
 5069DT     BB332948  39.630  70.101  70.890
 5069DT     SC132949  39.693  70.032  71.136
 5069DT     SC232950  39.901  69.976  71.143
 5069DT     SC332951  39.680  69.915  71.372
 5070DA     BB132952  39.664  70.291  70.515
 5070DA     BB232953  39.944  70.056  70.538
 5070DA     BB332954  39.877  69.857  70.500
 5070DA     SC132955  39.815  69.794  70.798
 5070DA     SC232956  39.907  69.650  70.980
 5070DA     SC332957  39.677  69.678  71.091
 5070DA     SC432958  39.665  69.822  70.851
 5071DT     BB132959  39.921  69.707  70.306
 5071DT     BB232960  40.153  69.491  70.479
 5071DT     BB332961  40.073  69.301  70.496
 5071DT     SC132962  39.908  69.379  70.685
 5071DT     SC232963  39.968  69.291  70.872
 5071DT     SC332964  39.683  69.434  70.811
 5072DA     BB132965  40.438  69.215  70.304
 5072DA     BB232966  40.418  68.996  70.598
 5072DA     BB332967  40.290  68.830  70.558
 5072DA     SC132968  40.033  68.972  70.661
 5072DA     SC232969  39.876  68.953  70.854
 5072DA     SC332970  39.711  69.082  70.706
 5072DA     SC432971  39.944  69.052  70.553
 5073DA     BB132972  40.549  68.648  70.647
 5073DA     BB232973  40.347  68.528  70.928
 5073DA     BB332974  40.213  68.375  70.863
 5073DA     SC132975  39.982  68.571  70.796
 5073DA     SC232976  39.757  68.629  70.887
 5073DA     SC332977  39.712  68.730  70.655
 5073DA     SC432978  39.973  68.627  70.646
 5074DA     BB132979  40.360  68.219  71.109
 5074DA     BB232980  40.031  68.203  71.269
 5074DA     BB332981  39.911  68.053  71.177
 5074DA     SC132982  39.786  68.246  70.967
 5074DA     SC232983  39.564  68.349  70.920
 5074DA     SC332984  39.654  68.385  70.683
 5074DA     SC432985  39.860  68.258  70.825
 5075DA     BB132986  39.892  67.967  71.491
 5075DA     BB232987  39.531  68.023  71.462
 5075DA     BB332988  39.440  67.864  71.352
 5075DA     SC132989  39.471  68.004  71.076
 5075DA     SC232990  39.324  68.109  70.905
 5075DA     SC332991  39.520  68.073  70.744
 5075DA     SC432992  39.604  67.972  70.991
 5076DT     BB132993  39.315  67.750  71.452
 5076DT     BB232994  39.012  67.880  71.306
 5076DT     BB332995  38.938  67.746  71.166
 5076DT     SC132996  39.124  67.811  70.993
 5076DT     SC232997  39.034  67.918  70.829
 5076DT     SC332998  39.332  67.790  70.833
 5077DT     BB132999  38.735  67.683  71.336
 5077DT     BB233000  38.571  67.794  71.034
 5077DT     BB333001  38.549  67.635  70.903
 5077DT     SC133002  38.804  67.641  70.841
 5077DT     SC233003  38.826  67.709  70.638
 5077DT     SC333004  39.055  67.565  70.816
 5078DC     BB133005  38.281  67.632  70.953
 5078DC     BB233006  38.308  67.678  70.596
 5078DC     BB333007  38.321  67.494  70.502
 5078DC     SC133008  38.570  67.463  70.579
 5078DC     SC233009  38.700  67.478  70.408
 5078DC     SC333010  38.781  67.363  70.700
 5079DA     BB133011  38.020  67.721  70.320
 5079DA     BB233012  38.239  67.590  70.057
 5079DA     BB333013  38.208  67.381  70.031
 5079DA     SC133014  38.426  67.298  70.237
 5079DA     SC233015  38.651  67.191  70.235
 5079DA     SC333016  38.607  67.140  70.482
 5079DA     SC433017  38.379  67.275  70.389
 5080DA     BB133018  38.181  67.508  69.734
 5080DA     BB233019  38.463  67.292  69.643
 5080DA     BB333020  38.401  67.088  69.637
 5080DA     SC133021  38.471  67.033  69.936
 5080DA     SC233022  38.639  66.902  70.065
 5080DA     SC333023  38.473  66.920  70.260
 5080DA     SC433024  38.354  67.053  70.044
 5081DC     BB133025  38.420  67.032  69.472
 5081DC     BB233026  38.707  66.819  69.526
 5081DC     BB333027  38.646  66.624  69.554
 5081DC     SC133028  38.560  66.676  69.796
 5081DC     SC233029  38.688  66.579  69.940
 5081DC     SC333030  38.396  66.706  70.001
 5082DT     BB133031  38.757  66.588  69.319
 5082DT     BB233032  38.918  66.349  69.537
 5082DT     BB333033  38.800  66.181  69.556
 5082DT     SC133034  38.632  66.307  69.715
 5082DT     SC233035  38.649  66.228  69.914
 5082DT     SC333036  38.409  66.415  69.804
 5083DA     BB133037  39.190  66.062  69.457
 5083DA     BB233038  39.072  65.848  69.731
 5083DA     BB333039  38.923  65.712  69.661
 5083DA     SC133040  38.685  65.903  69.723
 5083DA     SC233041  38.495  65.914  69.884
 5083DA     SC333042  38.389  66.077  69.716
 5083DA     SC433043  38.635  66.001  69.606
 5084DT     BB133044  38.962  65.510  69.653
 5084DT     BB233045  38.749  65.406  69.925
 5084DT     BB333046  38.579  65.314  69.850
 5084DT     SC133047  38.477  65.544  69.776
 5084DT     SC233048  38.308  65.591  69.900
 5084DT     SC333049  38.384  65.736  69.620
 5085DC     BB133050  38.660  65.053  69.917
 5085DC     BB233051  38.334  65.080  70.069
 5085DC     BB333052  38.189  65.016  69.935
 5085DC     SC133053  38.210  65.236  69.795
 5085DC     SC233054  38.031  65.354  69.818
 5085DC     SC333055  38.258  65.397  69.591
 5086DT     BB133056  38.134  64.759  70.054
 5086DT     BB233057  37.807  64.909  70.035
 5086DT     BB333058  37.714  64.855  69.858
 5086DT     SC133059  37.865  65.018  69.719
 5086DT     SC233060  37.746  65.181  69.645
 5086DT     SC333061  38.043  65.102  69.544
 5087DA     BB133062  37.418  64.720  70.130
 5087DA     BB233063  37.241  64.914  69.874
 5087DA     BB333064  37.212  64.796  69.699
 5087DA     SC133065  37.478  64.885  69.565
 5087DA     SC233066  37.549  65.025  69.371
 5087DA     SC333067  37.771  64.897  69.387
 5087DA     SC433068  37.608  64.794  69.590
 5088DC     BB133069  37.004  64.705  69.605
 5088DC     BB233070  36.978  64.941  69.333
 5088DC     BB333071  37.001  64.843  69.152
 5088DC     SC133072  37.260  64.819  69.190
 5088DC     SC233073  37.364  64.945  69.050
 5088DC     SC333074  37.496  64.707  69.226
 5089DT     BB133075  36.721  64.836  69.058
 5089DT     BB233076  36.895  65.003  68.790
 5089DT     BB333077  36.945  64.867  68.642
 5089DT     SC133078  37.139  64.768  68.789
 5089DT     SC233079  37.328  64.820  68.702
 5089DT     SC333080  37.279  64.595  68.930
 5090DA     BB133081  36.730  65.155  68.425
 5090DA     BB233082  37.049  65.106  68.251
 5090DA     BB333083  37.042  64.929  68.133
 5090DA     SC133084  37.151  64.744  68.358
 5090DA     SC233085  37.359  64.615  68.408
 5090DA     SC333086  37.212  64.481  68.570
 5090DA     SC433087  37.043  64.671  68.453
 5091DT     BB133088  37.050  64.937  67.917
 5091DT     BB233089  37.395  64.832  67.891
 5091DT     BB333090  37.405  64.642  67.809
 5091DT     SC133091  37.324  64.534  68.034
 5091DT     SC233092  37.487  64.425  68.123
 5091DT     SC333093  37.174  64.401  68.206
 5092DT     BB133094  37.511  64.775  67.611
 5092DT     BB233095  37.764  64.542  67.721
 5092DT     BB333096  37.726  64.354  67.643
 5092DT     SC133097  37.529  64.316  67.812
 5092DT     SC233098  37.585  64.165  67.954
 5092DT     SC333099  37.285  64.275  67.904
 5093DT     BB133100  37.942  64.413  67.513
 5093DT     BB233101  38.015  64.109  67.693
 5093DT     BB333102  37.932  63.946  67.594
 5093DT     SC133103  37.691  64.010  67.674
 5093DT     SC233104  37.622  63.865  67.817
 5093DT     SC333105  37.437  64.084  67.665
 5094DA     BB133106  38.335  63.884  67.703
 5094DA     BB233107  38.139  63.590  67.801
 5094DA     BB333108  38.071  63.486  67.627
 5094DA     SC133109  37.804  63.643  67.608
 5094DA     SC233110  37.560  63.598  67.641
 5094DA     SC333111  37.523  63.807  67.496
 5094DA     SC433112  37.801  63.774  67.515
 5095DA     BB133113  38.217  63.246  67.800
 5095DA     BB233114  37.891  63.078  67.797
 5095DA     BB333115  37.847  63.005  67.601
 5095DA     SC133116  37.701  63.264  67.511
 5095DA     SC233117  37.468  63.336  67.457
 5095DA     SC333118  37.578  63.530  67.331
 5095DA     SC433119  37.788  63.377  67.436
 5096DC     BB133120  37.838  62.807  67.573
 5096DC     BB233121  37.480  62.782  67.539
 5096DC     BB333122  37.429  62.757  67.340
 5096DC     SC133123  37.479  63.009  67.288
 5096DC     SC233124  37.295  63.111  67.246
 5096DC     SC333125  37.592  63.223  67.183
 5097DT     BB133126  37.364  62.495  67.383
 5097DT     BB233127  37.065  62.642  67.245
 5097DT     BB333128  37.072  62.636  67.038
 5097DT     SC133129  37.246  62.832  67.030
 5097DT     SC233130  37.153  63.007  66.948
 5097DT     SC333131  37.472  62.962  66.987
 5098DG     BB133132  36.735  62.435  67.150
 5098DG     BB233133  36.661  62.696  66.911
 5098DG     BB333134  36.709  62.635  66.727
 5098DG     SC133135  36.996  62.740  66.741
 5098DG     SC233136  37.109  62.964  66.579
 5098DG     SC333137  37.322  62.825  66.729
 5098DG     SC433138  37.111  62.645  66.800
 5099DT     BB133139  36.554  62.626  66.588
 5099DT     BB233140  36.622  62.917  66.386
 5099DT     BB333141  36.717  62.860  66.211
 5099DT     SC133142  36.943  62.819  66.337
 5099DT     SC233143  37.085  62.969  66.280
 5099DT     SC333144  37.152  62.693  66.436
 5100DT     BB133145  36.490  62.934  66.106
 5100DT     BB233146  36.741  63.137  65.946
 5100DT     BB333147  36.834  63.029  65.796
 5100DT     SC133148  36.970  62.888  65.971
 5100DT     SC233149  37.178  62.942  65.960
 5100DT     SC333150  37.058  62.681  66.108
 5101DT     BB133151  36.708  63.201  65.647
 5101DT     BB233152  37.056  63.235  65.559
 5101DT     BB333153  37.111  63.082  65.430
 5101DT     SC133154  37.113  62.907  65.625
 5101DT     SC233155  37.316  62.847  65.665
 5101DT     SC333156  37.049  62.697  65.771
 5102DA     BB133157  37.235  63.460  65.286
 5102DA     BB233158  37.515  63.224  65.259
 5102DA     BB333159  37.474  63.076  65.112
 5102DA     SC133160  37.342  62.878  65.313
 5102DA     SC233161  37.395  62.657  65.415
 5102DA     SC333162  37.144  62.642  65.463
 5102DA     SC433163  37.183  62.887  65.332
 5103DT     BB133164  37.587  63.081  64.959
 5103DT     BB233165  37.778  62.783  65.032
 5103DT     BB333166  37.706  62.625  64.920
 5103DT     SC133167  37.494  62.602  65.074
 5103DT     SC233168  37.508  62.420  65.188
 5103DT     SC333169  37.242  62.601  65.150
 5104DT     BB133170  37.927  62.637  64.770
 5104DT     BB233171  37.919  62.298  64.893
 5104DT     BB333172  37.798  62.182  64.772
 5104DT     SC133173  37.580  62.290  64.871
 5104DT     SC233174  37.476  62.144  64.990
 5104DT     SC333175  37.355  62.425  64.885
 5105DA     BB133176  38.165  61.980  64.806
 5105DA     BB233177  37.897  61.739  64.873
 5105DA     BB333178  37.795  61.689  64.692
 5105DA     SC133179  37.583  61.915  64.721
 5105DA     SC233180  37.339  61.934  64.768
 5105DA     SC333181  37.357  62.167  64.663
 5105DA     SC433182  37.615  62.056  64.651
 5106DT     BB133183  37.811  61.504  64.628
 5106DT     BB233184  37.478  61.397  64.715
 5106DT     BB333185  37.359  61.392  64.546
 5106DT     SC133186  37.341  61.654  64.540
 5106DT     SC233187  37.140  61.713  64.590
 5106DT     SC333188  37.366  61.902  64.456
 5107DC     BB133189  37.362  61.122  64.554
 5107DC     BB233190  37.012  61.209  64.563
 5107DC     BB333191  36.941  61.236  64.370
 5107DC     SC133192  37.062  61.468  64.349
 5107DC     SC233193  36.916  61.625  64.346
 5107DC     SC333194  37.227  61.655  64.263
 5108DA     BB133195  36.680  60.963  64.555
 5108DA     BB233196  36.477  61.224  64.397
 5108DA     BB333197  36.478  61.201  64.185
 5108DA     SC133198  36.725  61.384  64.141
 5108DA     SC233199  36.774  61.608  64.044
 5108DA     SC333200  37.017  61.526  64.027
 5108DA     SC433201  36.870  61.314  64.138
 5109DT     BB133202  36.304  61.148  64.082
 5109DT     BB233203  36.240  61.474  63.940
 5109DT     BB333204  36.286  61.474  63.739
 5109DT     SC133205  36.544  61.478  63.790
 5109DT     SC233206  36.625  61.669  63.733
 5109DT     SC333207  36.796  61.402  63.800
 5110DG     BB133208  35.889  61.573  63.747
 5110DG     BB233209  36.081  61.817  63.561
 5110DG     BB333210  36.117  61.748  63.377
 5110DG     SC133211  36.380  61.610  63.454
 5110DG     SC233212  36.652  61.688  63.361
 5110DG     SC333213  36.660  61.431  63.507
 5110DG     SC433214  36.375  61.459  63.506
 5111DT     BB133215  36.039  61.847  63.177
 5111DT     BB233216  36.341  62.009  63.066
 5111DT     BB333217  36.419  61.909  62.903
 5111DT     SC133218  36.506  61.713  63.055
 5111DT     SC233219  36.721  61.718  63.062
 5111DT     SC333220  36.534  61.472  63.157
 5112DA     BB133221  36.386  62.311  62.792
 5112DA     BB233222  36.729  62.202  62.720
 5112DA     BB333223  36.733  62.080  62.546
 5112DA     SC133224  36.695  61.813  62.702
 5112DA     SC233225  36.829  61.611  62.759
 5112DA     SC333226  36.603  61.498  62.801
 5112DA     SC433227  36.544  61.760  62.722
 5113DA     BB133228  36.956  62.306  62.480
 5113DA     BB233229  37.198  62.032  62.468
 5113DA     BB333230  37.174  61.918  62.289
 5113DA     SC133231  36.971  61.718  62.415
 5113DA     SC233232  36.967  61.478  62.482
 5113DA     SC333233  36.711  61.501  62.471
 5113DA     SC433234  36.815  61.752  62.401
 5114DC     BB133235  37.323  61.931  62.183
 5114DC     BB233236  37.450  61.599  62.246
 5114DC     BB333237  37.399  61.473  62.090
 5114DC     SC133238  37.149  61.461  62.170
 5114DC     SC233239  37.108  61.263  62.245
 5114DC     SC333240  36.887  61.488  62.170
 5115DT     BB133241  37.657  61.480  62.042
 5115DT     BB233242  37.577  61.131  62.086
 5115DT     BB333243  37.499  61.054  61.910
 5115DT     SC133244  37.270  61.175  61.949
 5115DT     SC233245  37.119  61.029  61.994
 5115DT     SC333246  37.066  61.338  61.912
 5116DC     BB133247  37.728  60.921  61.891
 5116DC     BB233248  37.472  60.667  61.878
 5116DC     BB333249  37.399  60.651  61.685
 5116DC     SC133250  37.263  60.874  61.709
 5116DC     SC233251  37.053  60.830  61.714
 5116DC     SC333252  37.185  61.123  61.667
 5117DT     BB133253  37.526  60.414  61.662
 5117DT     BB233254  37.182  60.339  61.583
 5117DT     BB333255  37.146  60.375  61.383
 5117DT     SC133256  37.145  60.635  61.422
 5117DT     SC233257  36.945  60.710  61.397
 5117DT     SC333258  37.216  60.888  61.407
 5118DT     BB133259  37.135  60.107  61.326
 5118DT     BB233260  36.821  60.234  61.204
 5118DT     BB333261  36.842  60.300  61.009
 5118DT     SC133262  36.970  60.515  61.087
 5118DT     SC233263  36.847  60.688  61.054
 5118DT     SC333264  37.164  60.691  61.117
 5119DC     BB133265  36.705  60.083  60.902
 5119DC     BB233266  36.526  60.370  60.776
 5119DC     BB333267  36.609  60.432  60.596
 5119DC     SC133268  36.816  60.536  60.718
 5119DC     SC233269  36.807  60.751  60.703
 5119DC     SC333270  37.066  60.577  60.792
 5120DT     BB133271  36.396  60.335  60.444
 5120DT     BB233272  36.414  60.684  60.356
 5120DT     BB333273  36.542  60.710  60.195
 5120DT     SC133274  36.753  60.673  60.347
 5120DT     SC233275  36.860  60.859  60.366
 5120DT     SC333276  36.974  60.565  60.443
 5121DG     BB133277  36.184  60.858  60.068
 5121DG     BB233278  36.448  61.100  60.021
 5121DG     BB333279  36.550  61.057  59.856
 5121DG     SC133280  36.752  60.876  59.998
 5121DG     SC233281  37.043  60.931  60.033
 5121DG     SC333282  36.977  60.655  60.117
 5121DG     SC433283  36.718  60.720  60.014
 5122DT     BB133284  36.553  61.201  59.700
 5122DT     BB233285  36.886  61.336  59.733
 5122DT     BB333286  37.010  61.254  59.590
 5122DT     SC133287  37.022  61.026  59.720
 5122DT     SC233288  37.220  61.000  59.800
 5122DT     SC333289  36.994  60.770  59.774
 5123DA     BB133290  37.044  61.672  59.587
 5123DA     BB233291  37.381  61.529  59.599
 5123DA     BB333292  37.429  61.438  59.412
 5123DA     SC133293  37.321  61.158  59.492
 5123DA     SC233294  37.413  60.931  59.543
 5123DA     SC333295  37.176  60.846  59.493
 5123DA     SC433296  37.168  61.124  59.455
 5124DA     BB133297  37.680  61.638  59.474
 5124DA     BB233298  37.889  61.337  59.465
 5124DA     BB333299  37.903  61.263  59.265
 5124DA     SC133300  37.656  61.076  59.291
 5124DA     SC233301  37.610  60.831  59.301
 5124DA     SC333302  37.371  60.893  59.233
 5124DA     SC433303  37.513  61.135  59.247
 5125DG     BB133304  38.199  61.313  59.337
 5125DG     BB233305  38.219  60.955  59.292
 5125DG     BB333306  38.218  60.910  59.098
 5125DG     SC133307  37.914  60.889  59.079
 5125DG     SC233308  37.759  60.639  59.024
 5125DG     SC333309  37.582  60.877  59.017
 5125DG     SC433310  37.828  61.020  59.046
 5126DA     BB133311  38.499  60.722  59.177
 5126DA     BB233312  38.333  60.423  59.045
 5126DA     BB333313  38.324  60.431  58.832
 5126DA     SC133314  38.047  60.573  58.825
 5126DA     SC233315  37.813  60.518  58.760
 5126DA     SC333316  37.779  60.772  58.744
 5126DA     SC433317  38.047  60.734  58.819
 5127DG     BB133318  38.491  60.167  58.847
 5127DG     BB233319  38.198  60.025  58.689
 5127DG     BB333320  38.202  60.062  58.494
 5127DG     SC133321  38.052  60.328  58.516
 5127DG     SC233322  37.779  60.385  58.410
 5127DG     SC333323  37.909  60.633  58.505
 5127DG     SC433324  38.136  60.462  58.540
 5128DT     BB133325  38.217  59.899  58.326
 5128DT     BB233326  37.880  59.899  58.197
 5128DT     BB333327  37.875  59.994  58.013
 5128DT     SC133328  37.898  60.230  58.126
 5128DT     SC233329  37.713  60.338  58.105
 5128DT     SC333330  37.998  60.465  58.191
 5129DC     BB133331  37.846  59.759  57.863
 5129DC     BB233332  37.562  59.960  57.767
 5129DC     BB333333  37.610  60.079  57.605
 5129DC     SC133334  37.752  60.240  57.756
 5129DC     SC233335  37.652  60.430  57.771
 5129DC     SC333336  37.960  60.370  57.853
 5130DT     BB133337  37.461  59.929  57.422
 5130DT     BB233338  37.324  60.262  57.399
 5130DT     BB333339  37.426  60.370  57.255
 5130DT     SC133340  37.633  60.400  57.414
 5130DT     SC233341  37.648  60.606  57.474
 5130DT     SC333342  37.879  60.381  57.506
 5131DT     BB133343  37.214  60.359  57.081
 5131DT     BB233344  37.271  60.711  57.134
 5131DT     BB333345  37.409  60.782  56.997
 5131DT     SC133346  37.607  60.667  57.126
 5131DT     SC233347  37.730  60.818  57.217
 5131DT     SC333348  37.810  60.507  57.176
 5132DT     BB133349  37.207  60.914  56.880
 5132DT     BB233350  37.444  61.169  56.977
 5132DT     BB333351  37.589  61.189  56.831
 5132DT     SC133352  37.705  60.966  56.905
 5132DT     SC233353  37.895  61.010  56.996
 5132DT     SC333354  37.797  60.719  56.894
 5133DA     BB133355  37.428  61.562  56.932
 5133DA     BB233356  37.793  61.586  56.948
 5133DA     BB333357  37.876  61.581  56.751
 5133DA     SC133358  37.909  61.272  56.746
 5133DA     SC233359  38.095  61.106  56.750
 5133DA     SC333360  37.923  60.942  56.653
 5133DA     SC433361  37.788  61.186  56.685
 5134DC     BB133362  37.962  61.740  56.710
 5134DC     BB233363  38.299  61.616  56.740
 5134DC     BB333364  38.376  61.574  56.552
 5134DC     SC133365  38.231  61.356  56.534
 5134DC     SC233366  38.359  61.184  56.544
 5134DC     SC333367  38.050  61.185  56.446
 5135DC     BB133368  38.529  61.781  56.601
 5135DC     BB233369  38.754  61.506  56.544
 5135DC     BB333370  38.779  61.476  56.340
 5135DC     SC133371  38.542  61.367  56.319
 5135DC     SC233372  38.563  61.157  56.277
 5135DC     SC333373  38.291  61.331  56.245
 5136DA     BB133374  39.144  61.488  56.550
 5136DA     BB233375  39.143  61.195  56.330
 5136DA     BB333376  39.153  61.255  56.126
 5136DA     SC133377  38.844  61.268  56.089
 5136DA     SC233378  38.667  61.141  55.968
 5136DA     SC333379  38.525  61.353  55.996
 5136DA     SC433380  38.772  61.409  56.115
 5137DA     BB133381  39.384  61.029  56.176
 5137DA     BB233382  39.214  60.839  55.913
 5137DA     BB333383  39.235  60.937  55.725
 5137DA     SC133384  38.975  61.104  55.755
 5137DA     SC233385  38.748  61.113  55.652
 5137DA     SC333386  38.736  61.351  55.746
 5137DA     SC433387  38.987  61.250  55.821
 5138DG     BB133388  39.350  60.655  55.685
 5138DG     BB233389  39.083  60.637  55.442
 5138DG     BB333390  39.129  60.747  55.283
 5138DG     SC133391  39.002  61.003  55.393
 5138DG     SC233392  38.760  61.140  55.283
 5138DG     SC333393  38.890  61.306  55.490
 5138DG     SC433394  39.090  61.101  55.483
 5139DT     BB133395  39.136  60.641  55.117
 5139DT     BB233396  38.849  60.753  54.930
 5139DT     BB333397  38.903  60.906  54.802
 5139DT     SC133398  38.920  61.077  55.000
 5139DT     SC233399  38.760  61.220  54.984
 5139DT     SC333400  39.023  61.249  55.172
 5140DC     BB133401  38.877  60.736  54.597
 5140DC     BB233402  38.675  61.019  54.501
 5140DC     BB333403  38.794  61.165  54.415
 5140DC     SC133404  38.893  61.234  54.648
 5140DC     SC233405  38.821  61.430  54.701
 5140DC     SC333406  39.068  61.274  54.841
 5141DA     BB133407  38.514  61.115  54.099
 5141DA     BB233408  38.557  61.476  54.143
 5141DA     BB333409  38.741  61.540  54.057
 5141DA     SC133410  38.906  61.501  54.318
 5141DA     SC233411  39.020  61.644  54.487
 5141DA     SC333412  39.152  61.432  54.547
 5141DA     SC433413  38.979  61.359  54.339
 5142DT     BB133414  38.793  61.677  53.853
 5142DT     BB233415  38.893  61.976  54.028
 5142DT     BB333416  39.095  62.010  54.000
 5142DT     SC133417  39.159  61.816  54.166
 5142DT     SC233418  39.244  61.900  54.344
 5142DT     SC333419  39.258  61.589  54.255
 5143DA     BB133420  38.951  62.381  53.855
 5143DA     BB233421  39.211  62.458  54.102
 5143DA     BB333422  39.405  62.435  54.015
 5143DA     SC133423  39.433  62.136  54.096
 5143DA     SC233424  39.569  62.000  54.256
 5143DA     SC333425  39.507  61.801  54.106
 5143DA     SC433426  39.385  62.025  53.990
 5144DT     BB133427  39.545  62.602  53.979
 5144DT     BB233428  39.761  62.529  54.259
 5144DT     BB333429  39.943  62.457  54.191
 5144DT     SC133430  39.838  62.225  54.130
 5144DT     SC233431  39.913  62.075  54.265
 5144DT     SC333432  39.758  62.019  53.986
 5145DT     BB133433  40.061  62.690  54.265
 5145DT     BB233434  40.236  62.434  54.450
 5145DT     BB333435  40.390  62.357  54.336
 5145DT     SC133436  40.223  62.222  54.186
 5145DT     SC233437  40.245  62.011  54.225
 5145DT     SC333438  40.089  62.142  53.973
 5146DT     BB133439  40.558  62.481  54.503
 5146DT     BB233440  40.650  62.133  54.520
 5146DT     BB333441  40.779  62.086  54.365
 5146DT     SC133442  40.583  62.090  54.190
 5146DT     SC233443  40.545  61.890  54.121
 5146DT     SC333444  40.437  62.162  53.983
 5147DT     BB133445  40.976  62.066  54.546
 5147DT     BB233446  40.969  61.745  54.382
 5147DT     BB333447  41.081  61.753  54.207
 5147DT     SC133448  40.894  61.890  54.084
 5147DT     SC233449  40.803  61.767  53.933
 5147DT     SC333450  40.773  62.088  53.959
 5148DT     BB133451  41.276  61.601  54.321
 5148DT     BB233452  41.179  61.418  54.026
 5148DT     BB333453  41.286  61.486  53.862
 5148DT     SC133454  41.142  61.705  53.850
 5148DT     SC233455  41.018  61.698  53.674
 5148DT     SC333456  41.078  61.961  53.855
 5149DT     BB133457  41.450  61.260  53.849
 5149DT     BB233458  41.294  61.276  53.524
 5149DT     BB333459  41.409  61.391  53.396
 5149DT     SC133460  41.331  61.613  53.513
 5149DT     SC233461  41.204  61.723  53.379
 5149DT     SC333462  41.343  61.839  53.649
 5150DT     BB133463  41.495  61.171  53.252
 5150DT     BB233464  41.328  61.380  53.010
 5150DT     BB333465  41.463  61.513  52.927
 5150DT     SC133466  41.464  61.660  53.144
 5150DT     SC233467  41.367  61.847  53.105
 5150DT     SC333468  41.552  61.780  53.362
 5151DT     BB133469  41.444  61.373  52.699
 5151DT     BB233470  41.330  61.706  52.618
 5151DT     BB333471  41.491  61.826  52.570
 5151DT     SC133472  41.562  61.845  52.822
 5151DT     SC233473  41.527  62.045  52.891
 5151DT     SC333474  41.706  61.821  53.041
 5152DT     BB133475  41.377  61.813  52.337
 5152DT     BB233476  41.378  62.162  52.427
 5152DT     BB333477  41.564  62.244  52.389
 5152DT     SC133478  41.668  62.126  52.598
 5152DT     SC233479  41.714  62.273  52.748
 5152DT     SC333480  41.820  61.967  52.744
 5153DA     BB133481  41.234  62.469  52.250
 5153DA     BB233482  41.461  62.690  52.434
 5153DA     BB333483  41.645  62.712  52.328
 5153DA     SC133484  41.784  62.472  52.469
 5153DA     SC233485  41.968  62.436  52.634
 5153DA     SC333486  41.975  62.196  52.542
 5153DA     SC433487  41.774  62.328  52.398
 5154DA     BB133488  41.538  63.013  52.401
 5154DA     BB233489  41.857  63.052  52.578
 5154DA     BB333490  42.019  63.057  52.439
 5154DA     SC133491  42.067  62.750  52.447
 5154DA     SC233492  42.240  62.592  52.532
 5154DA     SC333493  42.138  62.424  52.368
 5154DA     SC433494  41.990  62.660  52.338
 5155DA     BB133495  42.067  63.326  52.619
 5155DA     BB233496  42.393  63.182  52.705
 5155DA     BB333497  42.523  63.187  52.536
 5155DA     SC133498  42.439  62.906  52.433
 5155DA     SC233499  42.541  62.679  52.412
 5155DA     SC333500  42.359  62.636  52.237
 5155DA     SC433501  42.320  62.899  52.325
 5156DT     BB133502  42.675  63.301  52.557
 5156DT     BB233503  42.922  63.040  52.595
 5156DT     BB333504  43.024  63.013  52.417
 5156DT     SC133505  42.819  62.890  52.309
 5156DT     SC233506  42.867  62.682  52.283
 5156DT     SC333507  42.618  62.838  52.146
 5157DT     BB133508  43.234  63.124  52.537
 5157DT     BB233509  43.349  62.800  52.426
 5157DT     BB333510  43.409  62.811  52.228
 5157DT     SC133511  43.160  62.820  52.145
 5157DT     SC233512  43.112  62.637  52.044
 5157DT     SC333513  42.939  62.911  52.033
 5158DA     BB133514  43.703  62.625  52.462
 5158DA     BB233515  43.646  62.419  52.164
 5158DA     BB333516  43.722  62.518  51.991
 5158DA     SC133517  43.455  62.664  51.926
 5158DA     SC233518  43.277  62.654  51.753
 5158DA     SC333519  43.218  62.892  51.829
 5158DA     SC433520  43.435  62.812  51.987
 5159DA     BB133521  43.848  62.215  51.984
 5159DA     BB233522  43.685  62.183  51.657
 5159DA     BB333523  43.780  62.310  51.514
 5159DA     SC133524  43.593  62.553  51.570
 5159DA     SC233525  43.412  62.677  51.452
 5159DA     SC333526  43.464  62.867  51.616
 5159DA     SC433527  43.641  62.660  51.680
 5160DA     BB133528  43.776  62.017  51.364
 5160DA     BB233529  43.593  62.184  51.093
 5160DA     BB333530  43.721  62.320  50.990
 5160DA     SC133531  43.651  62.563  51.171
 5160DA     SC233532  43.527  62.778  51.151
 5160DA     SC333533  43.660  62.851  51.358
 5160DA     SC433534  43.744  62.589  51.299
 5161DA     BB133535  43.622  62.152  50.720
 5161DA     BB233536  43.503  62.470  50.583
 5161DA     BB333537  43.669  62.590  50.520
 5161DA     SC133538  43.701  62.733  50.794
 5161DA     SC233539  43.665  62.961  50.889
 5161DA     SC333540  43.825  62.887  51.075
 5161DA     SC433541  43.803  62.669  50.900
 5162DT     BB133542  43.723  62.640  50.308
 5162DT     BB233543  43.630  62.989  50.316
 5162DT     BB333544  43.800  63.107  50.314
 5162DT     SC133545  43.851  63.051  50.566
 5162DT     SC233546  43.819  63.226  50.686
 5162DT     SC333547  43.975  62.958  50.779
 5163DT     BB133548  43.799  63.198  50.037
 5163DT     BB233549  43.813  63.507  50.223
 5163DT     BB333550  44.010  63.566  50.247
 5163DT     SC133551  44.051  63.382  50.429
 5163DT     SC233552  44.077  63.476  50.621
 5163DT     SC333553  44.151  63.169  50.548
 5164DT     BB133554  44.020  63.781  50.053
 5164DT     BB233555  44.120  63.941  50.360
 5164DT     BB333556  44.326  63.939  50.377
 5164DT     SC133557  44.327  63.683  50.436
 5164DT     SC233558  44.384  63.658  50.642
 5164DT     SC333559  44.374  63.425  50.418
 5165DC     BB133560  44.365  64.214  50.321
 5165DC     BB233561  44.514  64.170  50.646
 5165DC     BB333562  44.715  64.125  50.626
 5165DC     SC133563  44.661  63.880  50.549
 5165DC     SC233564  44.721  63.742  50.702
 5165DC     SC333565  44.648  63.666  50.396
 5166DT     BB133566  44.783  64.372  50.719
 5166DT     BB233567  44.938  64.142  50.949
 5166DT     BB333568  45.125  64.087  50.879
 5166DT     SC133569  45.020  63.931  50.696
 5166DT     SC233570  45.060  63.726  50.746
 5166DT     SC333571  44.955  63.835  50.459
 5167DA     BB133572  45.158  64.214  51.277
 5167DA     BB233573  45.325  63.889  51.246
 5167DA     BB333574  45.509  63.910  51.139
 5167DA     SC133575  45.380  63.858  50.860
 5167DA     SC233576  45.384  63.679  50.686
 5167DA     SC333577  45.300  63.861  50.526
 5167DA     SC433578  45.330  63.985  50.776
 5168DG     BB133579  45.613  63.797  51.405
 5168DG     BB233580  45.706  63.519  51.193
 5168DG     BB333581  45.873  63.561  51.095
 5168DG     SC133582  45.731  63.687  50.855
 5168DG     SC233583  45.725  63.577  50.578
 5168DG     SC333584  45.608  63.849  50.586
 5168DG     SC433585  45.696  63.843  50.859
 5169DA     BB133586  45.976  63.256  51.219
 5169DA     BB233587  46.027  63.137  50.876
 5169DA     BB333588  46.203  63.225  50.792
 5169DA     SC133589  46.052  63.470  50.672
 5169DA     SC233590  45.989  63.555  50.446
 5169DA     SC333591  45.963  63.783  50.562
 5169DA     SC433592  46.042  63.602  50.762
 5170DA     BB133593  46.259  62.907  50.741
 5170DA     BB233594  46.266  62.988  50.384
 5170DA     BB333595  46.445  63.092  50.335
 5170DA     SC133596  46.324  63.375  50.384
 5170DA     SC233597  46.259  63.574  50.249
 5170DA     SC333598  46.275  63.703  50.470
 5170DA     SC433599  46.341  63.438  50.531
 5171DA     BB133600  46.453  62.849  50.116
 5171DA     BB233601  46.445  63.110  49.858
 5171DA     BB333602  46.634  63.208  49.846
 5171DA     SC133603  46.560  63.428  50.054
 5171DA     SC233604  46.515  63.673  50.054
 5171DA     SC333605  46.567  63.661  50.305
 5171DA     SC433606  46.598  63.400  50.208
 5172DG     BB133607  46.607  63.099  49.559
 5172DG     BB233608  46.598  63.452  49.480
 5172DG     BB333609  46.783  63.527  49.485
 5172DG     SC133610  46.771  63.601  49.782
 5172DG     SC233611  46.773  63.877  49.894
 5172DG     SC333612  46.800  63.676  50.109
 5172DG     SC433613  46.815  63.492  49.891
 5173DT     BB133614  46.860  63.609  49.307
 5173DT     BB233615  46.843  63.963  49.377
 5173DT     BB333616  47.030  64.033  49.432
 5173DT     SC133617  47.011  63.922  49.669
 5173DT     SC233618  46.990  64.075  49.818
 5173DT     SC333619  47.062  63.764  49.874
 5174DT     BB133620  47.033  64.158  49.198
 5174DT     BB233621  47.075  64.418  49.444
 5174DT     BB333622  47.274  64.430  49.500
 5174DT     SC133623  47.256  64.211  49.643
 5174DT     SC233624  47.271  64.261  49.852
 5174DT     SC333625  47.298  63.964  49.725
 5175DT     BB133626  47.275  64.660  49.370
 5175DT     BB233627  47.376  64.741  49.706
 5175DT     BB333628  47.579  64.705  49.730
 5175DT     SC133629  47.539  64.446  49.738
 5175DT     SC233630  47.578  64.374  49.937
 5175DT     SC333631  47.549  64.191  49.671
 5176DA     BB133632  47.480  65.089  49.868
 5176DA     BB233633  47.682  64.922  50.124
 5176DA     BB333634  47.884  64.901  50.057
 5176DA     SC133635  47.838  64.622  49.928
 5176DA     SC233636  47.905  64.385  49.970
 5176DA     SC333637  47.847  64.346  49.723
 5176DA     SC433638  47.799  64.618  49.772
 5177DT     BB133639  47.998  64.998  50.162
 5177DT     BB233640  48.151  64.720  50.334
 5177DT     BB333641  48.331  64.671  50.244
 5177DT     SC133642  48.208  64.559  50.041
 5177DT     SC233643  48.238  64.346  50.048
 5177DT     SC333644  48.126  64.514  49.794
 5178DA     BB133645  48.388  64.711  50.659
 5178DA     BB233646  48.549  64.400  50.549
 5178DA     BB333647  48.722  64.443  50.432
 5178DA     SC133648  48.569  64.445  50.162
 5178DA     SC233649  48.554  64.304  49.956
 5178DA     SC333650  48.459  64.514  49.844
 5178DA     SC433651  48.512  64.587  50.109
 5179DA     BB133652  48.858  64.240  50.655
 5179DA     BB233653  48.951  64.026  50.373
 5179DA     BB333654  49.111  64.114  50.262
 5179DA     SC133655  48.924  64.268  50.067
 5179DA     SC233656  48.859  64.259  49.827
 5179DA     SC333657  48.783  64.501  49.858
 5179DA     SC433658  48.883  64.419  50.107
 5180DT     BB133659  49.304  64.028  50.257
 5180DT     BB233660  49.291  63.904  49.919
 5180DT     BB333661  49.408  64.022  49.795
 5180DT     SC133662  49.230  64.215  49.798
 5180DT     SC233663  49.139  64.231  49.604
 5180DT     SC333664  49.121  64.451  49.841
 5181DT     BB133665  49.622  63.839  49.768
 5181DT     BB233666  49.525  63.908  49.427
 5181DT     BB333667  49.633  64.068  49.354
 5181DT     SC133668  49.492  64.238  49.495
 5181DT     SC233669  49.369  64.356  49.363
 5181DT     SC333670  49.431  64.422  49.674
 5182DA     BB133671  49.713  63.772  49.066
 5182DA     BB233672  49.604  64.072  48.885
 5182DA     BB333673  49.763  64.214  48.876
 5182DA     SC133674  49.682  64.358  49.140
 5182DA     SC233675  49.586  64.578  49.208
 5182DA     SC333676  49.682  64.525  49.440
 5182DA     SC433677  49.750  64.308  49.276
 5183DA     BB133678  49.717  64.205  48.549
 5183DA     BB233679  49.621  64.559  48.569
 5183DA     BB333680  49.795  64.682  48.581
 5183DA     SC133681  49.805  64.679  48.892
 5183DA     SC233682  49.768  64.840  49.079
 5183DA     SC333683  49.907  64.676  49.220
 5183DA     SC433684  49.895  64.566  48.962
 5184DG     BB133685  49.686  64.804  48.316
 5184DG     BB233686  49.646  65.098  48.523
 5184DG     BB333687  49.818  65.197  48.534
 5184DG     SC133688  49.918  65.047  48.780
 5184DG     SC233689  49.960  65.163  49.052
 5184DG     SC333690  50.068  64.888  49.038
 5184DG     SC433691  50.001  64.911  48.760
 5185DT     BB133692  49.828  65.400  48.457
 5185DT     BB233693  49.830  65.590  48.764
 5185DT     BB333694  50.022  65.657  48.805
 5185DT     SC133695  50.098  65.417  48.880
 5185DT     SC233696  50.133  65.416  49.092
 5185DT     SC333697  50.228  65.188  48.883
 5186DT     BB133698  49.934  65.901  48.745
 5186DT     BB233699  50.059  65.926  49.083
 5186DT     BB333700  50.264  65.959  49.080
 5186DT     SC133701  50.311  65.709  49.014
 5186DT     SC233702  50.403  65.608  49.180
 5186DT     SC333703  50.390  65.500  48.875
 5187DT     BB133704  50.211  66.207  49.164
 5187DT     BB233705  50.432  66.068  49.413
 5187DT     BB333706  50.629  66.090  49.353
 5187DT     SC133707  50.605  65.896  49.177
 5187DT     SC233708  50.720  65.726  49.242
 5187DT     SC333709  50.597  65.771  48.945
 5188DA     BB133710  50.591  66.239  49.743
 5188DA     BB233711  50.879  66.013  49.735
 5188DA     BB333712  51.041  66.103  49.629
 5188DA     SC133713  50.957  65.986  49.353
 5188DA     SC233714  51.042  65.816  49.191
 5188DA     SC333715  50.896  65.938  49.019
 5188DA     SC433716  50.862  66.076  49.260
 5189DA     BB133717  51.189  66.023  49.910
 5189DA     BB233718  51.411  65.812  49.708
 5189DA     BB333719  51.549  65.933  49.599
 5189DA     SC133720  51.366  65.959  49.349
 5189DA     SC233721  51.362  65.878  49.113
 5189DA     SC333722  51.200  66.072  49.070
 5189DA     SC433723  51.267  66.086  49.342
 5190DT     BB133724  51.737  65.913  49.648
 5190DT     BB233725  51.839  65.727  49.357
 5190DT     BB333726  51.941  65.850  49.226
 5190DT     SC133727  51.717  65.966  49.150
 5190DT     SC233728  51.673  65.909  48.947
 5190DT     SC333729  51.535  66.153  49.111
 5191DA     BB133730  52.168  65.505  49.294
 5191DA     BB233731  52.150  65.561  48.932
 5191DA     BB333732  52.270  65.729  48.877
 5191DA     SC133733  52.038  65.934  48.908
 5191DA     SC233734  51.898  66.078  48.760
 5191DA     SC333735  51.850  66.215  48.972
 5191DA     SC433736  52.022  66.007  49.050
 5192DA     BB133737  52.388  65.502  48.673
 5192DA     BB233738  52.282  65.721  48.399
 5192DA     BB333739  52.413  65.889  48.384
 5192DA     SC133740  52.245  66.067  48.576
 5192DA     SC233741  52.100  66.270  48.560
 5192DA     SC333742  52.142  66.294  48.812
 5192DA     SC433743  52.284  66.066  48.732
 5193DA     BB133744  52.438  65.788  48.072
 5193DA     BB233745  52.303  66.114  47.972
 5193DA     BB333746  52.453  66.265  47.989
 5193DA     SC133747  52.382  66.338  48.283
 5193DA     SC233748  52.280  66.530  48.405
 5193DA     SC333749  52.394  66.431  48.613
 5193DA     SC433750  52.462  66.262  48.400
 5194DA     BB133751  52.374  66.322  47.674
 5194DA     BB233752  52.276  66.660  47.778
 5194DA     BB333753  52.449  66.782  47.807
 5194DA     SC133754  52.478  66.710  48.109
 5194DA     SC233755  52.450  66.824  48.329
 5194DA     SC333756  52.599  66.637  48.422
 5194DA     SC433757  52.573  66.586  48.147
 5195DC     BB133758  52.486  66.943  47.681
 5195DC     BB233759  52.395  67.202  47.915
 5195DC     BB333760  52.565  67.299  47.983
 5195DC     SC133761  52.630  67.097  48.136
 5195DC     SC233762  52.605  67.152  48.343
 5195DC     SC333763  52.766  66.893  48.234
 5196DA     BB133764  52.296  67.590  47.848
 5196DA     BB233765  52.412  67.690  48.181
 5196DA     BB333766  52.613  67.762  48.171
 5196DA     SC133767  52.741  67.484  48.223
 5196DA     SC233768  52.868  67.371  48.406
 5196DA     SC333769  52.945  67.208  48.223
 5196DA     SC433770  52.779  67.394  48.096
 5197DA     BB133771  52.458  68.004  48.325
 5197DA     BB233772  52.688  67.945  48.604
 5197DA     BB333773  52.883  68.015  48.555
 5197DA     SC133774  52.978  67.744  48.435
 5197DA     SC233775  53.138  67.562  48.494
 5197DA     SC333776  53.127  67.500  48.246
 5197DA     SC433777  52.959  67.722  48.277
 5198DT     BB133778  52.937  68.157  48.664
 5198DT     BB233779  53.182  67.979  48.860
 5198DT     BB333780  53.372  68.019  48.788
 5198DT     SC133781  53.334  67.863  48.580
 5198DT     SC233782  53.457  67.688  48.599
 5198DT     SC333783  53.307  67.787  48.329
 5199DA     BB133784  53.368  68.081  49.204
 5199DA     BB233785  53.666  67.884  49.122
 5199DA     BB333786  53.809  68.005  49.020
 5199DA     SC133787  53.701  67.938  48.736
 5199DA     SC233788  53.776  67.809  48.536
 5199DA     SC333789  53.604  67.950  48.407
 5199DA     SC433790  53.590  68.036  48.673
 5200DT     BB133791  53.989  68.054  49.111
 5200DT     BB233792  54.206  67.850  48.907
 5200DT     BB333793  54.310  67.968  48.773
 5200DT     SC133794  54.097  68.000  48.624
 5200DT     SC233795  54.123  67.895  48.438
 5200DT     SC333796  53.896  68.118  48.500
 5201DA     BB133797  54.634  67.773  48.963
 5201DA     BB233798  54.699  67.755  48.603
 5201DA     BB333799  54.772  67.942  48.531
 5201DA     SC133800  54.491  68.054  48.463
 5201DA     SC233801  54.359  68.111  48.258
 5201DA     SC333802  54.217  68.257  48.415
 5201DA     SC433803  54.415  68.141  48.576
 5202DA     BB133804  55.055  67.798  48.406
 5202DA     BB233805  54.950  67.906  48.071
 5202DA     BB333806  55.005  68.109  48.038
 5202DA     SC133807  54.738  68.226  48.146
 5202DA     SC233808  54.537  68.342  48.055
 5202DA     SC333809  54.498  68.420  48.296
 5202DA     SC433810  54.732  68.265  48.302
 5203DA     BB133811  55.181  68.026  47.760
 5203DA     BB233812  54.948  68.229  47.564
 5203DA     BB333813  55.006  68.434  47.569
 5203DA     SC133814  54.835  68.502  47.820
 5203DA     SC233815  54.630  68.634  47.874
 5203DA     SC333816  54.716  68.631  48.115
 5203DA     SC433817  54.906  68.490  47.964
 5204DA     BB133818  55.014  68.433  47.235
 5204DA     BB233819  54.740  68.677  47.240
 5204DA     BB333820  54.817  68.874  47.271
 5204DA     SC133821  54.795  68.860  47.581
 5204DA     SC233822  54.657  68.964  47.761
 5204DA     SC333823  54.847  68.894  47.919
 5204DA     SC433824  54.924  68.809  47.663
 5205DA     BB133825  54.656  68.949  46.993
 5205DA     BB233826  54.447  69.173  47.195
 5205DA     BB333827  54.549  69.357  47.231
 5205DA     SC133828  54.681  69.261  47.496
 5205DA     SC233829  54.661  69.309  47.740
 5205DA     SC333830  54.895  69.206  47.758
 5205DA     SC433831  54.827  69.195  47.486
 5206DC     BB133832  54.474  69.532  47.149
 5206DC     BB233833  54.332  69.658  47.456
 5206DC     BB333834  54.445  69.817  47.526
 5206DC     SC133835  54.636  69.655  47.607
 5206DC     SC233836  54.640  69.653  47.822
 5206DC     SC333837  54.872  69.540  47.626
 5207DA     BB133838  54.040  69.919  47.513
 5207DA     BB233839  54.169  70.001  47.846
 5207DA     BB333840  54.297  70.171  47.836
 5207DA     SC133841  54.556  70.005  47.790
 5207DA     SC233842  54.763  69.948  47.916
 5207DA     SC333843  54.863  69.893  47.686
 5207DA     SC433844  54.600  69.978  47.638
 5208DT     BB133845  54.224  70.306  47.932
 5208DT     BB233846  54.451  70.286  48.213
 5208DT     BB333847  54.599  70.429  48.194
 5208DT     SC133848  54.720  70.291  48.006
 5208DT     SC233849  54.906  70.215  48.083
 5208DT     SC333850  54.819  70.227  47.771
 5209DA     BB133851  54.420  70.414  48.575
 5209DA     BB233852  54.784  70.417  48.615
 5209DA     BB333853  54.864  70.606  48.556
 5209DA     SC133854  54.910  70.523  48.260
 5209DA     SC233855  55.102  70.476  48.109
 5209DA     SC333856  54.936  70.517  47.918
 5209DA     SC433857  54.791  70.553  48.155
 5210DG     BB133858  54.952  70.556  48.846
 5210DG     BB233859  55.279  70.569  48.692
 5210DG     BB333860  55.324  70.757  48.643
 5210DG     SC133861  55.201  70.739  48.363
 5210DG     SC233862  55.351  70.751  48.105
 5210DG     SC333863  55.059  70.760  48.058
 5210DG     SC433864  55.046  70.773  48.344
 5211DT     BB133865  55.487  70.824  48.734
 5211DT     BB233866  55.728  70.846  48.466
 5211DT     BB333867  55.732  71.038  48.390
 5211DT     SC133868  55.504  71.002  48.266
 5211DT     SC233869  55.538  70.997  48.053
 5211DT     SC333870  55.251  71.032  48.198
 5212DT     BB133871  55.971  71.066  48.507
 5212DT     BB233872  56.028  71.153  48.161
 5212DT     BB333873  55.977  71.352  48.130
 5212DT     SC133874  55.721  71.296  48.138
 5212DT     SC233875  55.636  71.320  47.942
 5212DT     SC333876  55.470  71.295  48.219
 5213DA     BB133877  56.371  71.323  47.984
 5213DA     BB233878  56.173  71.501  47.731
 5213DA     BB333879  56.134  71.701  47.794
 5213DA     SC133880  55.866  71.629  47.936
 5213DA     SC233881  55.622  71.669  47.902
 5213DA     SC333882  55.599  71.614  48.151
 5213DA     SC433883  55.872  71.593  48.093
 5214DA     BB133884  56.271  71.803  47.509
 5214DA     BB233885  55.948  71.954  47.422
 5214DA     BB333886  55.925  72.141  47.521
 5214DA     SC133887  55.787  72.018  47.771
 5214DA     SC233888  55.560  72.017  47.875
 5214DA     SC333889  55.681  71.947  48.090
 5214DA     SC433890  55.880  71.977  47.895
 5215DT     BB133891  55.920  72.329  47.415
 5215DT     BB233892  55.564  72.383  47.446
 5215DT     BB333893  55.528  72.538  47.579
 5215DT     SC133894  55.585  72.385  47.784
 5215DT     SC233895  55.405  72.345  47.895
 5215DT     SC333896  55.708  72.293  47.998
 5216DT     BB133897  55.454  72.693  47.371
 5216DT     BB233898  55.166  72.688  47.589
 5216DT     BB333899  55.185  72.836  47.733
 5216DT     SC133900  55.365  72.698  47.864
 5216DT     SC233901  55.281  72.630  48.051
 5216DT     SC333902  55.595  72.630  47.973
 5217DT     BB133903  54.988  72.961  47.605
 5217DT     BB233904  54.868  72.922  47.942
 5217DT     BB333905  54.939  73.076  48.061
 5217DT     SC133906  55.179  72.970  48.068
 5217DT     SC233907  55.219  72.898  48.267
 5217DT     SC333908  55.438  72.942  48.032
 5218DG     BB133909  54.532  73.065  48.081
 5218DG     BB233910  54.681  73.073  48.411
 5218DG     BB333911  54.747  73.257  48.451
 5218DG     SC133912  55.026  73.209  48.333
 5218DG     SC233913  55.282  73.202  48.487
 5218DG     SC333914  55.333  73.199  48.196
 5218DG     SC433915  55.050  73.238  48.178
 5219DT     BB133916  54.663  73.382  48.618
 5219DT     BB233917  54.930  73.380  48.860
 5219DT     BB333918  55.031  73.560  48.854
 5219DT     SC133919  55.151  73.495  48.630
 5219DT     SC233920  55.360  73.462  48.667
 5219DT     SC333921  55.223  73.501  48.376
 5220DT     BB133922  54.922  73.678  49.094
 5220DT     BB233923  55.277  73.707  49.146
 5220DT     BB333924  55.345  73.890  49.076
 5220DT     SC133925  55.325  73.810  48.827
 5220DT     SC233926  55.522  73.788  48.743
 5220DT     SC333927  55.244  73.796  48.576
 5221DC     BB133928  55.379  74.062  49.327
 5221DC     BB233929  55.703  74.089  49.170
 5221DC     BB333930  55.714  74.263  49.059
 5221DC     SC133931  55.562  74.161  48.871
 5221DC     SC233932  55.680  74.129  48.694
 5221DC     SC333933  55.356  74.127  48.709
 5222DT     BB133934  55.880  74.446  49.231
 5222DT     BB233935  56.063  74.435  48.920
 5222DT     BB333936  56.015  74.599  48.803
 5222DT     SC133937  55.781  74.496  48.742
 5222DT     SC233938  55.781  74.440  48.534
 5222DT     SC333939  55.520  74.466  48.725
 5223DC     BB133940  56.259  74.738  48.842
 5223DC     BB233941  56.239  74.692  48.485
 5223DC     BB333942  56.149  74.856  48.397
 5223DC     SC133943  55.912  74.781  48.483
 5223DC     SC233944  55.793  74.718  48.315
 5223DC     SC333945  55.683  74.784  48.613
 5224DT     BB133946  56.388  74.921  48.295
 5224DT     BB233947  56.173  74.876  48.009
 5224DT     BB333948  56.072  75.052  47.968
 5224DT     SC133949  55.911  75.017  48.173
 5224DT     SC233950  55.713  74.973  48.102
 5224DT     SC333951  55.792  75.057  48.405
 5225DT     BB133952  56.225  75.059  47.754
 5225DT     BB233953  55.887  75.063  47.629
 5225DT     BB333954  55.812  75.256  47.634
 5225DT     SC133955  55.782  75.245  47.894
 5225DT     SC233956  55.572  75.241  47.941
 5225DT     SC333957  55.812  75.301  48.150
 5226DT     BB133958  55.829  75.244  47.370
 5226DT     BB233959  55.484  75.324  47.438
 5226DT     BB333960  55.464  75.528  47.471
 5226DT     SC133961  55.571  75.508  47.710
 5226DT     SC233962  55.421  75.543  47.859
 5226DT     SC333963  55.741  75.541  47.909
 5227DC     BB133964  55.342  75.555  47.230
 5227DC     BB233965  55.108  75.698  47.464
 5227DC     BB333966  55.154  75.897  47.497
 5227DC     SC133967  55.360  75.833  47.647
 5227DC     SC233968  55.319  75.884  47.851
 5227DC     SC333969  55.609  75.810  47.729
 5228DA     BB133970  54.750  75.920  47.380
 5228DA     BB233971  54.784  76.121  47.684
 5228DA     BB333972  54.877  76.308  47.639
 5228DA     SC133973  55.166  76.205  47.689
 5228DA     SC233974  55.348  76.239  47.856
 5228DA     SC333975  55.504  76.148  47.674
 5228DA     SC433976  55.247  76.148  47.562
 5229DC     BB133977  54.779  76.526  47.645
 5229DC     BB233978  54.939  76.630  47.951
 5229DC     BB333979  55.075  76.781  47.912
 5229DC     SC133980  55.245  76.612  47.807
 5229DC     SC233981  55.416  76.593  47.937
 5229DC     SC333982  55.399  76.493  47.629
 5230DA     BB133983  54.830  76.953  48.206
 5230DA     BB233984  55.176  76.987  48.320
 5230DA     BB333985  55.272  77.149  48.219
 5230DA     SC133986  55.378  76.973  47.985
 5230DA     SC233987  55.598  76.888  47.904
 5230DA     SC333988  55.478  76.854  47.679
 5230DA     SC433989  55.286  76.961  47.854
 5231DA     BB133990  55.325  77.228  48.527
 5231DA     BB233991  55.681  77.181  48.454
 5231DA     BB333992  55.758  77.348  48.347
 5231DA     SC133993  55.697  77.228  48.067
 5231DA     SC233994  55.825  77.137  47.873
 5231DA     SC333995  55.612  77.182  47.737
 5231DA     SC433996  55.555  77.264  47.999
 5232DG     BB133997  55.918  77.311  48.602
 5232DG     BB233998  56.177  77.234  48.361
 5232DG     BB333999  56.240  77.401  48.274
 5232DG     SC134000  56.035  77.390  48.047
 5232DG     SC234001  56.096  77.346  47.758
 5232DG     SC334002  55.812  77.420  47.796
 5232DG     SC434003  55.892  77.459  48.068
 5233DG     BB134004  56.507  77.265  48.387
 5233DG     BB234005  56.610  77.256  48.040
 5233DG     BB334006  56.658  77.439  47.979
 5233DG     SC134007  56.375  77.510  47.886
 5233DG     SC234008  56.290  77.557  47.604
 5233DG     SC334009  56.074  77.628  47.793
 5233DG     SC434010  56.273  77.575  47.991
 5234DA     BB134011  56.927  77.253  47.871
 5234DA     BB234012  56.866  77.376  47.531
 5234DA     BB334013  56.910  77.584  47.519
 5234DA     SC134014  56.622  77.675  47.591
 5234DA     SC234015  56.428  77.784  47.476
 5234DA     SC334016  56.348  77.843  47.713
 5234DA     SC434017  56.589  77.704  47.746
 5235DT     BB134018  57.054  77.619  47.406
 5235DT     BB234019  56.868  77.768  47.136
 5235DT     BB334020  56.878  77.975  47.148
 5235DT     SC134021  56.710  77.979  47.349
 5235DT     SC234022  56.524  78.066  47.285
 5235DT     SC334023  56.614  78.016  47.592
 5236DC     BB134024  57.042  77.975  46.934
 5236DC     BB234025  56.771  78.195  46.842
 5236DC     BB334026  56.808  78.386  46.911
 5236DC     SC134027  56.750  78.316  47.157
 5236DC     SC234028  56.566  78.409  47.217
 5236DC     SC334029  56.779  78.268  47.415
 5237DA     BB134030  56.723  78.424  46.502
 5237DA     BB234031  56.522  78.672  46.682
 5237DA     BB334032  56.644  78.833  46.749
 5237DA     SC134033  56.707  78.702  47.024
 5237DA     SC234034  56.650  78.742  47.264
 5237DA     SC334035  56.857  78.598  47.315
 5237DA     SC434036  56.839  78.612  47.035
 5238DT     BB134037  56.613  79.012  46.668
 5238DT     BB234038  56.452  79.162  46.954
 5238DT     BB334039  56.583  79.289  47.050
 5238DT     SC134040  56.716  79.088  47.153
 5238DT     SC234041  56.683  79.081  47.365
 5238DT     SC334042  56.915  78.922  47.204
 5239DT     BB134043  56.436  79.493  46.958
 5239DT     BB234044  56.439  79.537  47.316
 5239DT     BB334045  56.609  79.640  47.373
 5239DT     SC134046  56.760  79.429  47.335
 5239DT     SC234047  56.830  79.356  47.525
 5239DT     SC334048  56.947  79.272  47.235
 5240DA     BB134049  56.271  79.820  47.546
 5240DA     BB234050  56.526  79.779  47.807
 5240DA     BB334051  56.688  79.915  47.774
 5240DA     SC134052  56.851  79.715  47.600
 5240DA     SC234053  57.062  79.583  47.620
 5240DA     SC334054  57.054  79.571  47.364
 5240DA     SC434055  56.830  79.721  47.441
 5241DT     BB134056  56.715  80.060  47.907
 5241DT     BB234057  57.016  79.933  48.060
 5241DT     BB334058  57.181  80.038  47.991
 5241DT     SC134059  57.171  79.914  47.759
 5241DT     SC234060  57.341  79.783  47.742
 5241DT     SC334061  57.146  79.875  47.500
 5242DT     BB134062  57.212  80.178  48.227
 5242DT     BB234063  57.536  80.030  48.172
 5242DT     BB334064  57.653  80.156  48.056
 5242DT     SC134065  57.518  80.093  47.839
 5242DT     SC234066  57.643  79.978  47.708
 5242DT     SC334067  57.363  80.119  47.628
 5243DG     BB134068  57.882  80.138  48.398
 5243DG     BB234069  58.084  80.065  48.107
 5243DG     BB334070  58.142  80.235  48.021
 5243DG     SC134071  57.898  80.254  47.837
 5243DG     SC234072  57.900  80.230  47.539
 5243DG     SC334073  57.635  80.318  47.636
 5243DG     SC434074  57.767  80.329  47.890
 5244DG     BB134075  58.478  80.187  48.053
 5244DG     BB234076  58.496  80.182  47.692
 5244DG     BB334077  58.524  80.366  47.623
 5244DG     SC134078  58.225  80.430  47.601
 5244DG     SC234079  58.074  80.475  47.347
 5244DG     SC334080  57.907  80.540  47.582
 5244DG     SC434081  58.149  80.491  47.727
 5245DA     BB134082  58.808  80.270  47.438
 5245DA     BB234083  58.643  80.364  47.125
 5245DA     BB334084  58.658  80.575  47.093
 5245DA     SC134085  58.392  80.641  47.240
 5245DA     SC234086  58.164  80.723  47.180
 5245DA     SC334087  58.145  80.788  47.428
 5245DA     SC434088  58.400  80.676  47.397
 5246DA     BB134089  58.792  80.494  46.802
 5246DA     BB234090  58.508  80.661  46.642
 5246DA     BB334091  58.537  80.873  46.641
 5246DA     SC134092  58.395  80.918  46.914
 5246DA     SC234093  58.183  81.021  46.997
 5246DA     SC334094  58.302  81.033  47.224
 5246DA     SC434095  58.486  80.918  47.046
 5247DA     BB134096  58.485  80.833  46.320
 5247DA     BB234097  58.189  81.046  46.360
 5247DA     BB334098  58.247  81.251  46.374
 5247DA     SC134099  58.272  81.248  46.684
 5247DA     SC234100  58.151  81.344  46.880
 5247DA     SC334101  58.369  81.302  47.009
 5247DA     SC434102  58.417  81.215  46.747
 5248DC     BB134103  58.190  81.373  46.226
 5248DC     BB234104  57.928  81.541  46.409
 5248DC     BB334105  57.990  81.731  46.463
 5248DC     SC134106  58.146  81.635  46.651
 5248DC     SC234107  58.065  81.687  46.844
 5248DC     SC334108  58.365  81.577  46.786
 5249DG     BB134109  57.648  81.765  46.245
 5249DG     BB234110  57.622  81.938  46.562
 5249DG     BB334111  57.719  82.112  46.552
 5249DG     SC134112  57.986  81.995  46.646
 5249DG     SC234113  58.123  82.057  46.904
 5249DG     SC334114  58.299  81.898  46.727
 5249DG     SC434115  58.087  81.936  46.537
 5250DA     BB134116  57.424  82.241  46.673
 5250DA     BB234117  57.602  82.371  46.966
 5250DA     BB334118  57.717  82.543  46.912
 5250DA     SC134119  57.973  82.381  46.844
 5250DA     SC234120  58.201  82.348  46.938
 5250DA     SC334121  58.264  82.265  46.704
 5250DA     SC434122  57.993  82.334  46.691
 5251DT     BB134123  57.660  82.712  46.993
 5251DT     BB234124  57.933  82.742  47.228
 5251DT     BB334125  58.069  82.882  47.161
 5251DT     SC134126  58.161  82.716  46.979
 5251DT     SC234127  58.361  82.655  47.033
 5251DT     SC334128  58.221  82.614  46.744
 5252DT     BB134129  57.984  83.042  47.357
 5252DT     BB234130  58.340  83.011  47.411
 5252DT     BB334131  58.441  83.149  47.294
 5252DT     SC134132  58.399  83.007  47.077
 5252DT     SC234133  58.584  82.923  47.009
 5252DT     SC334134  58.310  82.941  46.838
 5253DG     BB134135  58.549  83.229  47.680
 5253DG     BB234136  58.840  83.191  47.468
 5253DG     BB334137  58.870  83.358  47.364
 5253DG     SC134138  58.696  83.272  47.128
 5253DG     SC234139  58.793  83.212  46.851
 5253DG     SC334140  58.497  83.218  46.861
 5253DG     SC434141  58.540  83.305  47.130
 5254DA     BB134142  59.199  83.362  47.481
 5254DA     BB234143  59.325  83.345  47.137
 5254DA     BB334144  59.312  83.536  47.043
 5254DA     SC134145  59.027  83.489  46.929
 5254DA     SC234146  58.921  83.454  46.706
 5254DA     SC334147  58.703  83.525  46.821
 5254DA     SC434148  58.902  83.537  47.018
 5255DG     BB134149  59.624  83.522  47.013
 5255DG     BB234150  59.547  83.517  46.660
 5255DG     BB334151  59.524  83.703  46.592
 5255DG     SC134152  59.224  83.714  46.650
 5255DG     SC234153  59.006  83.730  46.447
 5255DG     SC334154  58.898  83.768  46.719
 5255DG     SC434155  59.175  83.763  46.795
 5256DC     BB134156  59.660  83.789  46.436
 5256DC     BB234157  59.446  83.779  46.146
 5256DC     BB334158  59.379  83.970  46.100
 5256DC     SC134159  59.211  83.967  46.302
 5256DC     SC234160  59.010  83.958  46.227
 5256DC     SC334161  59.096  84.032  46.530
 5257DC     BB134162  59.539  83.961  45.886
 5257DC     BB234163  59.208  84.020  45.754
 5257DC     BB334164  59.166  84.222  45.756
 5257DC     SC134165  59.129  84.220  46.016
 5257DC     SC234166  58.921  84.251  46.059
 5257DC     SC334167  59.164  84.272  46.272
 5258DA     BB134168  59.081  84.052  45.383
 5258DA     BB234169  58.793  84.255  45.486
 5258DA     BB334170  58.842  84.462  45.477
 5258DA     SC134171  58.942  84.476  45.772
 5258DA     SC234172  58.867  84.577  45.987
 5258DA     SC334173  59.112  84.550  46.061
 5258DA     SC434174  59.098  84.452  45.798
 5259DT     BB134175  58.740  84.543  45.353
 5259DT     BB234176  58.529  84.731  45.577
 5259DT     BB334177  58.601  84.924  45.596
 5259DT     SC134178  58.798  84.844  45.750
 5259DT     SC234179  58.765  84.914  45.951
 5259DT     SC334180  59.043  84.795  45.834
 5260DT     BB134181  58.389  85.000  45.454
 5260DT     BB234182  58.374  85.201  45.752
 5260DT     BB334183  58.496  85.367  45.733
 5260DT     SC134184  58.712  85.221  45.767
 5260DT     SC234185  58.801  85.270  45.957
 5260DT     SC334186  58.942  85.104  45.717
 5261DT     BB134187  58.284  85.543  45.695
 5261DT     BB234188  58.471  85.695  45.963
 5261DT     BB334189  58.616  85.821  45.885
 5261DT     SC134190  58.765  85.618  45.813
 5261DT     SC234191  58.942  85.611  45.935
 5261DT     SC334192  58.897  85.449  45.659
 5262DG     BB134193  58.397  86.099  46.098
 5262DG     BB234194  58.749  86.131  46.177
 5262DG     BB334195  58.839  86.242  46.039
 5262DG     SC134196  58.909  86.004  45.859
 5262DG     SC234197  59.184  85.902  45.801
 5262DG     SC334198  58.984  85.769  45.628
 5262DG     SC434199  58.803  85.957  45.748
 5263DT     BB134200  58.951  86.478  46.052
 5263DT     BB234201  59.300  86.385  46.043
 5263DT     BB334202  59.384  86.445  45.864
 5263DT     SC134203  59.265  86.252  45.733
 5263DT     SC234204  59.412  86.108  45.669
 5263DT     SC334205  59.107  86.129  45.561
 5264DG     BB134206  59.618  86.669  46.122
 5264DG     BB234207  59.828  86.476  45.898
 5264DG     BB334208  59.853  86.575  45.727
 5264DG     SC134209  59.608  86.451  45.592
 5264DG     SC234210  59.612  86.264  45.359
 5264DG     SC334211  59.336  86.350  45.420
 5264DG     SC434212  59.465  86.522  45.609
 5265DT     BB134213  60.065  86.671  45.630
 5265DT     BB234214  60.133  86.424  45.376
 5265DT     BB334215  60.105  86.506  45.188
 5265DT     SC134216  59.844  86.497  45.214
 5265DT     SC234217  59.764  86.348  45.081
 5265DT     SC334218  59.594  86.577  45.235
 5266DT     BB134219  60.380  86.525  45.124
 5266DT     BB234220  60.244  86.322  44.859
 5266DT     BB334221  60.186  86.442  44.700
 5266DT     SC134222  59.974  86.526  44.830
 5266DT     SC234223  59.798  86.445  44.737
 5266DT     SC334224  59.806  86.688  44.952
 5267DG     BB134225  60.463  86.188  44.540
 5267DG     BB234226  60.154  86.179  44.352
 5267DG     BB334227  60.147  86.333  44.226
 5267DG     SC134228  60.012  86.522  44.425
 5267DG     SC234229  59.735  86.631  44.403
 5267DG     SC334230  59.882  86.761  44.624
 5267DG     SC434231  60.103  86.610  44.523
 5268DC     BB134232  60.140  86.306  43.998
 5268DC     BB234233  59.792  86.377  43.934
 5268DC     BB334234  59.773  86.562  43.845
 5268DC     SC134235  59.821  86.686  44.071
 5268DC     SC234236  59.641  86.782  44.140
 5268DC     SC334237  59.940  86.838  44.250
 5269DT     BB134238  59.707  86.439  43.613
 5269DT     BB234239  59.424  86.650  43.688
 5269DT     BB334240  59.455  86.839  43.611
 5269DT     SC134241  59.628  86.897  43.800
 5269DT     SC234242  59.543  87.045  43.931
 5269DT     SC334243  59.856  86.960  43.917
 5270DA     BB134244  59.080  86.689  43.505
 5270DA     BB234245  59.035  87.025  43.643
 5270DA     BB334246  59.108  87.172  43.506
 5270DA     SC134247  59.396  87.174  43.625
 5270DA     SC234248  59.540  87.330  43.755
 5270DA     SC334249  59.736  87.189  43.669
 5270DA     SC434250  59.504  87.075  43.559
 5271DA     BB134251  58.808  87.261  43.588
 5271DA     BB234252  58.961  87.570  43.711
 5271DA     BB334253  59.031  87.689  43.548
 5271DA     SC134254  59.316  87.563  43.546
 5271DA     SC234255  59.549  87.632  43.602
 5271DA     SC334256  59.620  87.434  43.454
 5271DA     SC434257  59.340  87.436  43.450
 5272DA     BB134258  58.851  87.869  43.757
 5272DA     BB234259  59.151  88.078  43.784
 5272DA     BB334260  59.194  88.170  43.596
 5272DA     SC134261  59.378  87.939  43.497
 5272DA     SC234262  59.621  87.903  43.453
 5272DA     SC334263  59.544  87.706  43.308
 5272DA     SC434264  59.310  87.822  43.411
 5273DA     BB134265  59.196  88.414  43.817
 5273DA     BB234266  59.540  88.477  43.705
 5273DA     BB334267  59.540  88.550  43.505
 5273DA     SC134268  59.562  88.268  43.375
 5273DA     SC234269  59.732  88.135  43.250
 5273DA     SC334270  59.533  87.995  43.170
 5273DA     SC434271  59.425  88.194  43.335
 5274DG     BB134272  59.681  88.793  43.639
 5274DG     BB234273  59.954  88.696  43.424
 5274DG     BB334274  59.921  88.760  43.238
 5274DG     SC134275  59.771  88.509  43.150
 5274DG     SC234276  59.865  88.311  42.947
 5274DG     SC334277  59.585  88.256  43.026
 5274DG     SC434278  59.613  88.501  43.173
 5275DG     BB134279  60.204  88.934  43.244
 5275DG     BB234280  60.313  88.723  42.971
 5275DG     BB334281  60.242  88.793  42.799
 5275DG     SC134282  59.982  88.630  42.812
 5275DG     SC234283  59.905  88.408  42.628
 5275DG     SC334284  59.679  88.483  42.804
 5275DG     SC434285  59.855  88.693  42.887
 5276DA     BB134286  60.566  88.791  42.669
 5276DA     BB234287  60.463  88.554  42.409
 5276DA     BB334288  60.357  88.656  42.254
 5276DA     SC134289  60.078  88.616  42.385
 5276DA     SC234290  59.870  88.485  42.340
 5276DA     SC334291  59.755  88.654  42.494
 5276DA     SC434292  60.024  88.732  42.482
 5277DT     BB134293  60.441  88.664  42.071
 5277DT     BB234294  60.226  88.418  41.918
 5277DT     BB334295  60.087  88.512  41.796
 5277DT     SC134296  59.949  88.595  42.003
 5277DT     SC234297  59.762  88.489  42.011
 5277DT     SC334298  59.836  88.758  42.177
 5278DA     BB134299  60.277  88.203  41.586
 5278DA     BB234300  59.914  88.165  41.546
 5278DA     BB334301  59.837  88.318  41.419
 5278DA     SC134302  59.778  88.515  41.652
 5278DA     SC234303  59.579  88.611  41.767
 5278DA     SC334304  59.739  88.795  41.847
 5278DA     SC434305  59.893  88.621  41.690
 5279DT     BB134306  59.769  88.243  41.270
 5279DT     BB234307  59.421  88.291  41.351
 5279DT     BB334308  59.349  88.462  41.258
 5279DT     SC134309  59.474  88.616  41.430
 5279DT     SC234310  59.330  88.713  41.557
 5279DT     SC334311  59.642  88.795  41.525
 5280DT     BB134312  59.216  88.287  41.118
 5280DT     BB234313  58.968  88.506  41.263
 5280DT     BB334314  58.956  88.681  41.155
 5280DT     SC134315  59.182  88.768  41.256
 5280DT     SC234316  59.142  88.934  41.388
 5280DT     SC334317  59.432  88.850  41.270
 5281DA     BB134318  58.567  88.526  41.204
 5281DA     BB234319  58.559  88.884  41.283
 5281DA     BB334320  58.584  89.000  41.106
 5281DA     SC134321  58.893  89.014  41.130
 5281DA     SC234322  59.067  89.187  41.179
 5281DA     SC334323  59.230  89.025  41.065
 5281DA     SC434324  58.979  88.901  41.054
 5282DT     BB134325  58.426  89.119  41.024
 5282DT     BB234326  58.562  89.442  41.111
 5282DT     BB334327  58.634  89.537  40.942
 5282DT     SC134328  58.845  89.381  40.935
 5282DT     SC234329  59.020  89.495  40.984
 5282DT     SC334330  59.017  89.200  40.849
 5283DA     BB134331  58.367  89.828  41.090
 5283DA     BB234332  58.681  90.001  41.015
 5283DA     BB334333  58.700  90.034  40.805
 5283DA     SC134334  58.849  89.766  40.751
 5283DA     SC234335  59.078  89.692  40.686
 5283DA     SC334336  58.965  89.473  40.615
 5283DA     SC434337  58.760  89.638  40.712
 5284DG     BB134338  58.701  90.353  40.842
 5284DG     BB234339  59.039  90.328  40.715
 5284DG     BB334340  59.038  90.341  40.516
 5284DG     SC134341  59.007  90.039  40.473
 5284DG     SC234342  59.211  89.858  40.351
 5284DG     SC334343  58.954  89.717  40.389
 5284DG     SC434344  58.860  89.976  40.467
 5285DG     BB134345  59.233  90.613  40.508
 5285DG     BB234346  59.478  90.408  40.338
 5285DG     BB334347  59.446  90.412  40.142
 5285DG     SC134348  59.256  90.172  40.143
 5285DG     SC234349  59.309  89.906  40.017
 5285DG     SC334350  59.028  89.926  40.109
 5285DG     SC434351  59.099  90.197  40.166
 5286DT     BB134352  59.597  90.499  39.988
 5286DT     BB234353  59.731  90.194  39.848
 5286DT     BB334354  59.658  90.167  39.656
 5286DT     SC134355  59.422  90.096  39.747
 5286DT     SC234356  59.392  89.886  39.709
 5286DT     SC334357  59.163  90.099  39.793
 5287DA     BB134358  60.075  90.133  39.641
 5287DA     BB234359  59.932  89.844  39.466
 5287DA     BB334360  59.854  89.903  39.277
 5287DA     SC134361  59.569  89.963  39.385
 5287DA     SC234362  59.340  89.865  39.367
 5287DA     SC334363  59.258  90.096  39.443
 5287DA     SC434364  59.537  90.113  39.432
 5288DA     BB134365  60.050  89.656  39.189
 5288DA     BB234366  59.751  89.491  39.058
 5288DA     BB334367  59.689  89.584  38.876
 5288DA     SC134368  59.500  89.788  39.016
 5288DA     SC234369  59.255  89.829  39.036
 5288DA     SC334370  59.321  90.067  39.104
 5288DA     SC434371  59.561  89.931  39.055
 5289DT     BB134372  59.701  89.475  38.711
 5289DT     BB234373  59.347  89.416  38.669
 5289DT     BB334374  59.273  89.536  38.517
 5289DT     SC134375  59.283  89.749  38.671
 5289DT     SC234376  59.083  89.811  38.719
 5289DT     SC334377  59.352  89.986  38.762
 5290DG     BB134378  59.191  89.153  38.406
 5290DG     BB234379  58.894  89.359  38.391
 5290DG     BB334380  58.896  89.469  38.225
 5290DG     SC134381  59.045  89.704  38.352
 5290DG     SC234382  58.934  89.977  38.400
 5290DG     SC334383  59.224  89.971  38.453
 5290DG     SC434384  59.205  89.704  38.351
 5291DA     BB134385  58.577  89.350  38.147
 5291DA     BB234386  58.444  89.692  38.147
 5291DA     BB334387  58.494  89.791  37.965
 5291DA     SC134388  58.762  89.907  38.073
 5291DA     SC234389  58.854  90.130  38.134
 5291DA     SC334390  59.084  90.020  38.106
 5291DA     SC434391  58.895  89.821  38.049
 5292DT     BB134392  58.345  89.840  37.840
 5292DT     BB234393  58.348  90.195  37.906
 5292DT     BB334394  58.439  90.295  37.750
 5292DT     SC134395  58.677  90.216  37.825
 5292DT     SC234396  58.788  90.384  37.900
 5292DT     SC334397  58.911  90.095  37.820
 5293DA     BB134398  58.068  90.482  37.811
 5293DA     BB234399  58.324  90.744  37.797
 5293DA     BB334400  58.390  90.772  37.596
 5293DA     SC134401  58.621  90.564  37.618
 5293DA     SC234402  58.870  90.566  37.623
 5293DA     SC334403  58.853  90.319  37.555
 5293DA     SC434404  58.589  90.413  37.574
 5294DT     BB134405  58.350  90.949  37.499
 5294DT     BB234406  58.684  91.084  37.517
 5294DT     BB334407  58.775  91.073  37.331
 5294DT     SC134408  58.810  90.814  37.354
 5294DT     SC234409  59.020  90.773  37.377
 5294DT     SC334410  58.790  90.555  37.307
 5295DC     BB134411  58.754  91.343  37.300
 5295DC     BB234412  59.106  91.275  37.267
 5295DC     BB334413  59.151  91.229  37.070
 5295DC     SC134414  59.044  90.991  37.093
 5295DC     SC234415  59.199  90.842  37.087
 5295DC     SC334416  58.881  90.787  37.054
 5296DT     BB134417  59.276  91.468  37.042
 5296DT     BB234418  59.528  91.223  36.961
 5296DT     BB334419  59.516  91.173  36.761
 5296DT     SC134420  59.301  91.029  36.802
 5296DT     SC234421  59.348  90.820  36.776
 5296DT     SC334422  59.050  90.947  36.789
 5297DT     BB134423  59.746  91.307  36.719
 5297DT     BB234424  59.813  90.971  36.607
 5297DT     BB334425  59.752  90.948  36.410
 5297DT     SC134426  59.500  90.941  36.481
 5297DT     SC234427  59.423  90.743  36.450
 5297DT     SC334428  59.246  91.009  36.501
 5298DA     BB134429  60.146  90.812  36.456
 5298DA     BB234430  59.954  90.554  36.280
 5298DA     BB334431  59.909  90.617  36.081
 5298DA     SC134432  59.638  90.750  36.158
 5298DA     SC234433  59.395  90.708  36.121
 5298DA     SC334434  59.365  90.956  36.179
 5298DA     SC434435  59.640  90.906  36.195
 5299DT     BB134436  59.991  90.509  35.955
 5299DT     BB234437  59.694  90.335  35.847
 5299DT     BB334438  59.624  90.418  35.671
 5299DT     SC134439  59.530  90.627  35.798
 5299DT     SC234440  59.315  90.622  35.795
 5299DT     SC334441  59.497  90.878  35.873
 5300DA     BB134442  59.652  90.000  35.641
 5300DA     BB234443  59.323  90.103  35.518
 5300DA     BB334444  59.342  90.207  35.332
 5300DA     SC134445  59.368  90.487  35.464
 5300DA     SC234446  59.232  90.696  35.482
 5300DA     SC334447  59.454  90.811  35.539
 5300DA     SC434448  59.516  90.541  35.496
 5301DG     BB134449  59.158  89.973  35.251
 5301DG     BB234450  58.927  90.243  35.181
 5301DG     BB334451  58.975  90.330  35.009
 5301DG     SC134452  59.164  90.534  35.137
 5301DG     SC234453  59.121  90.830  35.150
 5301DG     SC334454  59.393  90.759  35.242
 5301DG     SC434455  59.318  90.496  35.158
 5302DT     BB134456  58.836  90.326  34.845
 5302DT     BB234457  58.719  90.667  34.835
 5302DT     BB334458  58.814  90.770  34.683
 5302DT     SC134459  59.037  90.785  34.822
 5302DT     SC234460  59.070  90.989  34.881
 5302DT     SC334461  59.288  90.749  34.891
 5303DT     BB134462  58.587  90.770  34.531
 5303DT     BB234463  58.677  91.118  34.555
 5303DT     BB334464  58.809  91.168  34.403
 5303DT     SC134465  59.006  91.045  34.525
 5303DT     SC234466  59.148  91.190  34.596
 5303DT     SC334467  59.199  90.871  34.572
 5304DA     BB134468  58.499  91.449  34.374
 5304DA     BB234469  58.816  91.633  34.365
 5304DA     BB334470  58.910  91.609  34.175
 5304DA     SC134471  59.073  91.358  34.261
 5304DA     SC234472  59.311  91.298  34.306
 5304DA     SC334473  59.235  91.055  34.271
 5304DA     SC434474  59.007  91.214  34.234
 5305DA     BB134475  58.911  91.938  34.176
 5305DA     BB234476  59.277  91.921  34.159
 5305DA     BB334477  59.340  91.871  33.962
 5305DA     SC134478  59.340  91.564  34.012
 5305DA     SC234479  59.507  91.381  34.033
 5305DA     SC334480  59.311  91.224  33.981
 5305DA     SC434481  59.206  91.484  33.977
 5306DG     BB134482  59.489  92.147  33.966
 5306DG     BB234483  59.784  91.939  33.940
 5306DG     BB334484  59.816  91.890  33.750
 5306DG     SC134485  59.647  91.636  33.760
 5306DG     SC234486  59.749  91.356  33.735
 5306DG     SC334487  59.453  91.362  33.730
 5306DG     SC434488  59.490  91.646  33.728
 5307DA     BB134489  60.144  92.009  33.782
 5307DA     BB234490  60.276  91.678  33.694
 5307DA     BB334491  60.263  91.647  33.483
 5307DA     SC134492  59.981  91.518  33.494
 5307DA     SC234493  59.879  91.293  33.460
 5307DA     SC334494  59.658  91.420  33.427
 5307DA     SC434495  59.854  91.615  33.476
 5308DT     BB134496  60.437  91.633  33.361
 5308DT     BB234497  60.423  91.277  33.305
 5308DT     BB334498  60.364  91.239  33.110
 5308DT     SC134499  60.116  91.303  33.164
 5308DT     SC234500  59.993  91.127  33.158
 5308DT     SC334501  59.886  91.432  33.158
 5309DT     BB134502  60.619  91.160  33.023
 5309DT     BB234503  60.410  90.878  32.942
 5309DT     BB334504  60.334  90.899  32.751
 5309DT     SC134505  60.164  91.082  32.830
 5309DT     SC234506  59.964  91.002  32.821
 5309DT     SC334507  60.042  91.315  32.852
 5310DT     BB134508  60.501  90.703  32.638
 5310DT     BB234509  60.167  90.590  32.559
 5310DT     BB334510  60.108  90.667  32.377
 5310DT     SC134511  60.069  90.905  32.481
 5310DT     SC234512  59.859  90.948  32.485
 5310DT     SC334513  60.098  91.163  32.528
 5311DG     BB134514  60.088  90.263  32.319
 5311DG     BB234515  59.774  90.421  32.234
 5311DG     BB334516  59.784  90.497  32.050
 5311DG     SC134517  59.888  90.770  32.142
 5311DG     SC234518  59.741  91.028  32.123
 5311DG     SC334519  60.021  91.073  32.205
 5311DG     SC434520  60.046  90.792  32.157
 5312DC     BB134521  59.651  90.424  31.886
 5312DC     BB234522  59.413  90.695  31.869
 5312DC     BB334523  59.450  90.810  31.701
 5312DC     SC134524  59.661  90.919  31.814
 5312DC     SC234525  59.620  91.126  31.857
 5312DC     SC334526  59.912  90.986  31.857
 5313DA     BB134527  59.046  90.704  31.712
 5313DA     BB234528  59.068  91.066  31.663
 5313DA     BB334529  59.135  91.111  31.465
 5313DA     SC134530  59.437  91.115  31.542
 5313DA     SC234531  59.619  91.283  31.564
 5313DA     SC334532  59.778  91.082  31.544
 5313DA     SC434533  59.519  90.977  31.527
 5314DC     BB134534  59.006  91.200  31.368
 5314DC     BB234535  59.162  91.525  31.379
 5314DC     BB334536  59.260  91.563  31.201
 5314DC     SC134537  59.454  91.399  31.265
 5314DC     SC234538  59.634  91.511  31.303
 5314DC     SC334539  59.617  91.191  31.256
 5315DT     BB134540  59.070  91.738  31.182
 5315DT     BB234541  59.377  91.925  31.164
 5315DT     BB334542  59.457  91.912  30.974
 5315DT     SC134543  59.537  91.666  31.016
 5315DT     SC234544  59.752  91.661  31.027
 5315DT     SC334545  59.558  91.404  30.992
 5316DA     BB134546  59.447  92.302  31.134
 5316DA     BB234547  59.778  92.241  30.989
 5316DA     BB334548  59.764  92.223  30.777
 5316DA     SC134549  59.723  91.914  30.783
 5316DA     SC234550  59.851  91.710  30.719
 5316DA     SC334551  59.623  91.592  30.719
 5316DA     SC434552  59.572  91.859  30.786
 5317DA     BB134553  60.005  92.437  30.844
 5317DA     BB234554  60.218  92.216  30.644
 5317DA     BB334555  60.155  92.216  30.441
 5317DA     SC134556  59.960  91.976  30.476
 5317DA     SC234557  59.946  91.738  30.405
 5317DA     SC334558  59.695  91.758  30.455
 5317DA     SC434559  59.807  92.009  30.512
 5318DT     BB134560  60.281  92.289  30.329
 5318DT     BB234561  60.378  91.991  30.151
 5318DT     BB334562  60.273  91.978  29.973
 5318DT     SC134563  60.053  91.907  30.098
 5318DT     SC234564  60.009  91.701  30.054
 5318DT     SC334565  59.806  91.914  30.188
 5319DG     BB134566  60.661  91.990  29.832
 5319DG     BB234567  60.476  91.726  29.667
 5319DG     BB334568  60.364  91.801  29.522
 5319DG     SC134569  60.121  91.849  29.703
 5319DG     SC234570  59.858  91.707  29.684
 5319DG     SC334571  59.843  91.933  29.875
 5319DG     SC434572  60.108  91.988  29.781
 5320DT     BB134573  60.357  91.803  29.231
 5320DT     BB234574  60.072  91.591  29.169
 5320DT     BB334575  59.918  91.702  29.087
 5320DT     SC134576  59.864  91.813  29.319
 5320DT     SC234577  59.675  91.740  29.391
 5320DT     SC334578  59.835  91.998  29.505
 5321DT     BB134579  59.883  91.698  28.733
 5321DT     BB234580  59.547  91.614  28.836
 5321DT     BB334581  59.423  91.777  28.812
 5321DT     SC134582  59.525  91.896  29.023
 5321DT     SC234583  59.378  91.901  29.180
 5321DT     SC334584  59.651  92.074  29.170
 5322DA     BB134585  59.153  91.583  28.512
 5322DA     BB234586  58.928  91.702  28.775
 5322DA     BB334587  58.857  91.898  28.729
 5322DA     SC134588  59.088  92.044  28.877
 5322DA     SC234589  59.118  92.182  29.082
 5322DA     SC334590  59.334  92.264  28.972
 5322DA     SC434591  59.218  92.084  28.791
 5323DC     BB134592  58.610  91.992  28.669
 5323DC     BB234593  58.554  92.108  29.006
 5323DC     BB334594  58.520  92.312  29.006
 5323DC     SC134595  58.774  92.362  28.965
 5323DC     SC234596  58.859  92.450  29.142
 5323DC     SC334597  58.995  92.446  28.848
 5324DA     BB134598  58.215  92.122  29.213
 5324DA     BB234599  58.356  92.380  29.432
 5324DA     BB334600  58.287  92.574  29.372
 5324DA     SC134601  58.526  92.625  29.179
 5324DA     SC234602  58.726  92.773  29.168
 5324DA     SC334603  58.724  92.723  28.916
 5324DA     SC434604  58.507  92.583  29.025
 5325DA     BB134605  58.243  92.531  29.688
 5325DA     BB234606  58.462  92.821  29.730
 5325DA     BB334607  58.365  92.999  29.663
 5325DA     SC134608  58.471  92.976  29.371
 5325DA     SC234609  58.632  93.096  29.223
 5325DA     SC334610  58.506  92.984  29.030
 5325DA     SC434611  58.379  92.898  29.264
 5326DC     BB134612  58.352  93.097  29.803
 5326DC     BB234613  58.595  93.347  29.712
 5326DC     BB334614  58.500  93.508  29.621
 5326DC     SC134615  58.465  93.372  29.400
 5326DC     SC234616  58.590  93.453  29.245
 5326DC     SC334617  58.343  93.249  29.201
 5327DA     BB134618  58.758  93.646  29.922
 5327DA     BB234619  58.804  93.858  29.627
 5327DA     BB334620  58.634  93.984  29.599
 5327DA     SC134621  58.486  93.781  29.414
 5327DA     SC234622  58.423  93.763  29.174
 5327DA     SC334623  58.250  93.591  29.254
 5327DA     SC434624  58.384  93.678  29.484
 5328DG     BB134625  58.826  94.232  29.634
 5328DG     BB234626  58.720  94.316  29.299
 5328DG     BB334627  58.547  94.413  29.305
 5328DG     SC134628  58.376  94.160  29.288
 5328DG     SC234629  58.199  94.082  29.060
 5328DG     SC334630  58.158  93.902  29.291
 5328DG     SC434631  58.335  94.084  29.423
 5329DA     BB134632  58.645  94.712  29.122
 5329DA     BB234633  58.388  94.659  28.866
 5329DA     BB334634  58.201  94.738  28.931
 5329DA     SC134635  58.107  94.473  29.064
 5329DA     SC234636  57.935  94.297  29.023
 5329DA     SC334637  57.966  94.238  29.271
 5329DA     SC434638  58.139  94.453  29.220
 5330DA     BB134639  58.139  94.970  28.669
 5330DA     BB234640  57.839  94.782  28.575
 5330DA     BB334641  57.669  94.854  28.681
 5330DA     SC134642  57.703  94.657  28.920
 5330DA     SC234643  57.586  94.458  29.013
 5330DA     SC334644  57.711  94.510  29.230
 5330DA     SC434645  57.789  94.707  29.046
 5331DT     BB134646  57.437  94.999  28.613
 5331DT     BB234647  57.220  94.711  28.623
 5331DT     BB334648  57.073  94.739  28.766
 5331DT     SC134649  57.243  94.696  28.961
 5331DT     SC234650  57.196  94.508  29.057
 5331DT     SC334651  57.391  94.739  29.175
 5332DT     BB134652  56.862  94.780  28.582
 5332DT     BB234653  56.764  94.487  28.769
 5332DT     BB334654  56.649  94.543  28.932
 5332DT     SC134655  56.861  94.631  29.061
 5332DT     SC234656  56.902  94.501  29.227
 5332DT     SC334657  57.027  94.796  29.181
 5333DA     BB134658  56.459  94.243  28.713
 5333DA     BB234659  56.477  94.137  29.063
 5333DA     BB334660  56.340  94.249  29.182
 5333DA     SC134661  56.545  94.473  29.252
 5333DA     SC234662  56.670  94.552  29.452
 5333DA     SC334663  56.697  94.772  29.323
 5333DA     SC434664  56.549  94.602  29.156
 5334DA     BB134665  56.300  93.931  29.237
 5334DA     BB234666  56.390  94.012  29.583
 5334DA     BB334667  56.237  94.130  29.674
 5334DA     SC134668  56.362  94.402  29.591
 5334DA     SC234669  56.475  94.595  29.702
 5334DA     SC334670  56.414  94.726  29.490
 5334DA     SC434671  56.314  94.467  29.452
 5335DG     BB134672  56.273  93.879  29.847
 5335DG     BB234673  56.374  94.128  30.089
 5335DG     BB334674  56.214  94.227  30.155
 5335DG     SC134675  56.228  94.443  29.939
 5335DG     SC234676  56.290  94.732  29.983
 5335DG     SC334677  56.201  94.684  29.705
 5335DG     SC434678  56.152  94.419  29.800
 5336DA     BB134679  56.359  94.145  30.458
 5336DA     BB234680  56.370  94.502  30.542
 5336DA     BB334681  56.174  94.576  30.579
 5336DA     SC134682  56.123  94.659  30.284
 5336DA     SC234683  56.099  94.870  30.153
 5336DA     SC334684  55.982  94.724  29.977
 5336DA     SC434685  56.052  94.552  30.187
 5337DA     BB134686  56.327  94.672  30.853
 5337DA     BB234687  56.238  95.014  30.757
 5337DA     BB334688  56.029  95.047  30.787
 5337DA     SC134689  55.950  94.958  30.499
 5337DA     SC234690  55.863  95.064  30.291
 5337DA     SC334691  55.789  94.828  30.225
 5337DA     SC434692  55.910  94.804  30.477
 5338DT     BB134693  55.974  95.178  30.927
 5338DT     BB234694  55.873  95.442  30.702
 5338DT     BB334695  55.667  95.450  30.691
 5338DT     SC134696  55.657  95.234  30.542
 5338DT     SC234697  55.596  95.288  30.343
 5338DT     SC334698  55.603  94.988  30.466
 5339DG     BB134699  55.801  95.815  30.812
 5339DG     BB234700  55.586  95.841  30.522
 5339DG     BB334701  55.396  95.824  30.577
 5339DG     SC134702  55.389  95.519  30.545
 5339DG     SC234703  55.231  95.367  30.342
 5339DG     SC334704  55.352  95.184  30.541
 5339DG     SC434705  55.431  95.427  30.670
 5340DG     BB134706  55.372  96.110  30.432
 5340DG     BB234707  55.147  95.942  30.203
 5340DG     BB334708  54.968  95.922  30.286
 5340DG     SC134709  55.030  95.650  30.413
 5340DG     SC234710  54.905  95.390  30.339
 5340DG     SC334711  55.071  95.362  30.582
 5340DG     SC434712  55.096  95.646  30.559
 5341DT     BB134713  54.837  96.009  30.177
 5341DT     BB234714  54.658  95.732  30.031
 5341DT     BB334715  54.492  95.686  30.146
 5341DT     SC134716  54.641  95.574  30.331
 5341DT     SC234717  54.607  95.362  30.330
 5341DT     SC334718  54.756  95.530  30.564
 5342DA     BB134719  54.405  95.714  29.734
 5342DA     BB234720  54.248  95.411  29.869
 5342DA     BB334721  54.091  95.462  30.003
 5342DA     SC134722  54.274  95.465  30.255
 5342DA     SC234723  54.306  95.329  30.461
 5342DA     SC334724  54.420  95.538  30.557
 5342DA     SC434725  54.340  95.606  30.297
 5343DT     BB134726  53.917  95.413  29.944
 5343DT     BB234727  53.860  95.145  30.178
 5343DT     BB334728  53.740  95.211  30.334
 5343DT     SC134729  53.939  95.345  30.440
 5343DT     SC234730  53.999  95.251  30.624
 5343DT     SC334731  54.083  95.548  30.527
 5344DT     BB134732  53.525  95.070  30.239
 5344DT     BB234733  53.562  94.957  30.580
 5344DT     BB334734  53.457  95.081  30.708
 5344DT     SC134735  53.638  95.270  30.685
 5344DT     SC234736  53.743  95.290  30.871
 5344DT     SC334737  53.748  95.502  30.626
 5345DA     BB134738  53.318  94.696  30.798
 5345DA     BB234739  53.404  94.860  31.115
 5345DA     BB334740  53.255  95.004  31.167
 5345DA     SC134741  53.397  95.239  31.021
 5345DA     SC234742  53.517  95.448  31.082
 5345DA     SC334743  53.468  95.523  30.841
 5345DA     SC434744  53.355  95.267  30.868
 5346DT     BB134745  53.134  94.975  31.334
 5346DT     BB234746  53.294  95.220  31.544
 5346DT     BB334747  53.173  95.387  31.564
 5346DT     SC134748  53.230  95.467  31.321
 5346DT     SC234749  53.350  95.645  31.331
 5346DT     SC334750  53.198  95.533  31.067
 5347DA     BB134751  53.288  95.261  31.947
 5347DA     BB234752  53.349  95.622  31.922
 5347DA     BB334753  53.165  95.729  31.925
 5347DA     SC134754  53.130  95.726  31.616
 5347DA     SC234755  53.138  95.889  31.428
 5347DA     SC334756  53.003  95.714  31.297
 5347DA     SC434757  53.045  95.605  31.552
 5348DT     BB134758  53.143  95.840  32.078
 5348DT     BB234759  53.192  96.156  31.912
 5348DT     BB334760  53.010  96.247  31.876
 5348DT     SC134761  52.957  96.081  31.680
 5348DT     SC234762  52.963  96.188  31.493
 5348DT     SC334763  52.837  95.893  31.539
 5349DC     BB134764  53.073  96.424  32.067
 5349DC     BB234765  53.002  96.625  31.776
 5349DC     BB334766  52.798  96.658  31.761
 5349DC     SC134767  52.755  96.413  31.679
 5349DC     SC234768  52.695  96.416  31.473
 5349DC     SC334769  52.666  96.165  31.675
 5350DA     BB134770  52.979  97.038  31.738
 5350DA     BB234771  52.731  97.016  31.469
 5350DA     BB334772  52.533  97.029  31.548
 5350DA     SC134773  52.502  96.721  31.586
 5350DA     SC234774  52.370  96.536  31.484
 5350DA     SC334775  52.421  96.408  31.701
 5350DA     SC434776  52.543  96.659  31.728
 5351DT     BB134777  52.392  97.201  31.519
 5351DT     BB234778  52.167  97.035  31.291
 5351DT     BB334779  51.986  96.997  31.385
 5351DT     SC134780  52.091  96.800  31.523
 5351DT     SC234781  52.010  96.613  31.453
 5351DT     SC334782  52.174  96.658  31.729
 5352DA     BB134783  51.849  97.217  31.051
 5352DA     BB234784  51.644  96.913  31.069
 5352DA     BB334785  51.494  96.933  31.220
 5352DA     SC134786  51.671  96.813  31.446
 5352DA     SC234787  51.679  96.606  31.584
 5352DA     SC334788  51.823  96.743  31.746
 5352DA     SC434789  51.758  96.915  31.535
 5353DC     BB134790  51.265  96.949  31.187
 5353DC     BB234791  51.192  96.611  31.290
 5353DC     BB334792  51.085  96.612  31.468
 5353DC     SC134793  51.301  96.674  31.605
 5353DC     SC234794  51.358  96.506  31.726
 5353DC     SC334795  51.467  96.810  31.758
 5354DA     BB134796  50.856  96.380  31.205
 5354DA     BB234797  50.904  96.186  31.512
 5354DA     BB334798  50.777  96.259  31.667
 5354DA     SC134799  50.986  96.461  31.777
 5354DA     SC234800  51.127  96.488  31.981
 5354DA     SC334801  51.143  96.735  31.913
 5354DA     SC434802  50.982  96.611  31.719
 5355DA     BB134803  50.701  95.944  31.665
 5355DA     BB234804  50.829  95.933  32.008
 5355DA     BB334805  50.689  96.022  32.142
 5355DA     SC134806  50.811  96.307  32.119
 5355DA     SC234807  50.939  96.465  32.263
 5355DA     SC334808  50.859  96.647  32.100
 5355DA     SC434809  50.750  96.405  32.007
 5356DT     BB134810  50.630  95.897  32.258
 5356DT     BB234811  50.814  96.013  32.545
 5356DT     BB334812  50.692  96.129  32.666
 5356DT     SC134813  50.705  96.330  32.498
 5356DT     SC234814  50.819  96.490  32.587
 5356DT     SC334815  50.629  96.515  32.325
 5357DG     BB134816  50.872  95.821  32.863
 5357DG     BB234817  50.922  96.138  33.029
 5357DG     BB334818  50.753  96.196  33.117
 5357DG     SC134819  50.650  96.349  32.872
 5357DG     SC234820  50.614  96.645  32.853
 5357DG     SC334821  50.498  96.508  32.617
 5357DG     SC434822  50.563  96.271  32.763
 5358DT     BB134823  50.770  96.218  33.315
 5358DT     BB234824  50.754  96.575  33.360
 5358DT     BB334825  50.560  96.632  33.406
 5358DT     SC134826  50.483  96.597  33.157
 5358DT     SC234827  50.440  96.788  33.068
 5358DT     SC334828  50.355  96.499  32.949
 5359DT     BB134829  50.645  96.680  33.655
 5359DT     BB234830  50.488  96.988  33.552
 5359DT     BB334831  50.283  96.977  33.583
 5359DT     SC134832  50.252  96.819  33.376
 5359DT     SC234833  50.149  96.926  33.220
 5359DT     SC334834  50.194  96.605  33.233
 5360DA     BB134835  50.388  97.330  33.789
 5360DA     BB234836  50.091  97.407  33.588
 5360DA     BB334837  49.917  97.323  33.677
 5360DA     SC134838  49.938  97.054  33.522
 5360DA     SC234839  49.814  96.935  33.341
 5360DA     SC334840  49.929  96.724  33.429
 5360DA     SC434841  50.018  96.934  33.592
 5361DC     BB134842  49.732  97.434  33.786
 5361DC     BB234843  49.491  97.381  33.522
 5361DC     BB334844  49.344  97.250  33.586
 5361DC     SC134845  49.506  97.045  33.564
 5361DC     SC234846  49.442  96.921  33.400
 5361DC     SC334847  49.653  96.837  33.631
 5362DA     BB134848  49.102  97.579  33.473
 5362DA     BB234849  48.961  97.282  33.310
 5362DA     BB334850  48.845  97.169  33.449
 5362DA     SC134851  49.084  96.991  33.539
 5362DA     SC234852  49.156  96.753  33.517
 5362DA     SC334853  49.306  96.800  33.720
 5362DA     SC434854  49.169  97.039  33.667
 5363DT     BB134855  48.616  97.139  33.445
 5363DT     BB234856  48.627  96.802  33.317
 5363DT     BB334857  48.561  96.669  33.462
 5363DT     SC134858  48.786  96.692  33.596
 5363DT     SC234859  48.897  96.508  33.582
 5363DT     SC334860  48.954  96.749  33.791
 5364DA     BB134861  48.329  96.588  33.124
 5364DA     BB234862  48.473  96.271  33.239
 5364DA     BB334863  48.370  96.201  33.412
 5364DA     SC134864  48.560  96.346  33.612
 5364DA     SC234865  48.734  96.284  33.779
 5364DA     SC334866  48.691  96.516  33.880
 5364DA     SC434867  48.518  96.493  33.660
 5365DT     BB134868  48.265  96.030  33.396
 5365DT     BB234869  48.503  95.823  33.572
 5365DT     BB334870  48.432  95.779  33.761
 5365DT     SC134871  48.486  96.021  33.847
 5365DT     SC234872  48.649  96.013  33.986
 5365DT     SC334873  48.450  96.264  33.941
 5366DT     BB134874  48.397  95.527  33.676
 5366DT     BB234875  48.622  95.500  33.956
 5366DT     BB334876  48.514  95.492  34.133
 5366DT     SC134877  48.460  95.748  34.121
 5366DT     SC234878  48.567  95.851  34.277
 5366DT     SC334879  48.322  95.973  34.103
 5367DT     BB134880  48.594  95.240  34.143
 5367DT     BB234881  48.716  95.392  34.447
 5367DT     BB334882  48.567  95.394  34.589
 5367DT     SC134883  48.442  95.590  34.468
 5367DT     SC234884  48.457  95.769  34.587
 5367DT     SC334885  48.255  95.723  34.338
 5368DC     BB134886  48.712  95.211  34.713
 5368DC     BB234887  48.676  95.480  34.951
 5368DC     BB334888  48.495  95.462  35.050
 5368DC     SC134889  48.362  95.546  34.840
 5368DC     SC234890  48.281  95.742  34.881
 5368DC     SC334891  48.195  95.547  34.636
 5369DA     BB134892  48.813  95.519  35.319
 5369DA     BB234893  48.544  95.752  35.406
 5369DA     BB334894  48.377  95.645  35.487
 5369DA     SC134895  48.238  95.606  35.212
 5369DA     SC234896  48.034  95.689  35.095
 5369DA     SC334897  48.060  95.482  34.946
 5369DA     SC434898  48.270  95.470  35.131
 5370DG     BB134899  48.448  95.839  35.716
 5370DG     BB234900  48.117  95.965  35.645
 5370DG     BB334901  47.980  95.844  35.722
 5370DG     SC134902  47.959  95.669  35.472
 5370DG     SC234903  47.720  95.647  35.293
 5370DG     SC334904  47.925  95.445  35.222
 5370DG     SC434905  48.057  95.544  35.456
 5371DG     BB134906  47.876  96.108  35.880
 5371DG     BB234907  47.563  96.059  35.705
 5371DG     BB334908  47.458  95.916  35.793
 5371DG     SC134909  47.578  95.690  35.626
 5371DG     SC234910  47.433  95.523  35.426
 5371DG     SC334911  47.704  95.415  35.476
 5371DG     SC434912  47.712  95.619  35.677
 5372DA     BB134913  47.203  96.152  35.785
 5372DA     BB234914  46.994  95.916  35.597
 5372DA     BB334915  46.928  95.758  35.724
 5372DA     SC134916  47.170  95.574  35.662
 5372DA     SC234917  47.214  95.360  35.541
 5372DA     SC334918  47.428  95.347  35.682
 5372DA     SC434919  47.298  95.583  35.760
 5373DA     BB134920  46.630  95.850  35.613
 5373DA     BB234921  46.592  95.510  35.482
 5373DA     BB334922  46.553  95.373  35.641
 5373DA     SC134923  46.853  95.308  35.692
 5373DA     SC234924  47.007  95.114  35.662
 5373DA     SC334925  47.155  95.232  35.836
 5373DA     SC434926  46.930  95.396  35.802
 5374DC     BB134927  46.364  95.272  35.665
 5374DC     BB234928  46.475  94.945  35.562
 5374DC     BB334929  46.488  94.819  35.726
 5374DC     SC134930  46.707  94.936  35.808
 5374DC     SC234931  46.873  94.801  35.785
 5374DC     SC334932  46.873  95.074  35.960
 5375DG     BB134933  46.210  94.622  35.495
 5375DG     BB234934  46.479  94.400  35.590
 5375DG     BB334935  46.448  94.330  35.774
 5375DG     SC134936  46.598  94.559  35.912
 5375DG     SC234937  46.854  94.534  36.063
 5375DG     SC334938  46.737  94.804  36.097
 5375DG     SC434939  46.518  94.691  35.951
 5376DT     BB134940  46.406  94.097  35.842
 5376DT     BB234941  46.730  94.014  35.978
 5376DT     BB334942  46.718  93.996  36.184
 5376DT     SC134943  46.703  94.256  36.213
 5376DT     SC234944  46.885  94.328  36.304
 5376DT     SC334945  46.607  94.494  36.276
 5377DT     BB134946  46.741  93.718  36.181
 5377DT     BB234947  47.019  93.829  36.382
 5377DT     BB334948  46.962  93.840  36.581
 5377DT     SC134949  46.825  94.059  36.538
 5377DT     SC234950  46.923  94.225  36.634
 5377DT     SC334951  46.620  94.224  36.520
 5378DA     BB134952  47.314  93.617  36.548
 5378DA     BB234953  47.367  93.879  36.800
 5378DA     BB334954  47.261  93.832  36.979
 5378DA     SC134955  47.002  93.983  36.894
 5378DA     SC234956  46.878  94.189  36.960
 5378DA     SC334957  46.676  94.080  36.844
 5378DA     SC434958  46.888  93.898  36.818
 5379DA     BB134959  47.568  93.899  37.056
 5379DA     BB234960  47.428  94.174  37.254
 5379DA     BB334961  47.322  94.098  37.422
 5379DA     SC134962  47.049  94.081  37.274
 5379DA     SC234963  46.828  94.197  37.280
 5379DA     SC334964  46.738  93.988  37.162
 5379DA     SC434965  47.012  93.942  37.202
 5380DA     BB134966  47.531  94.334  37.506
 5380DA     BB234967  47.234  94.505  37.637
 5380DA     BB334968  47.151  94.396  37.801
 5380DA     SC134969  46.961  94.226  37.624
 5380DA     SC234970  46.716  94.206  37.582
 5380DA     SC334971  46.770  93.973  37.490
 5380DA     SC434972  47.015  94.084  37.572
 5381DT     BB134973  47.167  94.509  37.917
 5381DT     BB234974  46.817  94.584  37.961
 5381DT     BB334975  46.734  94.454  38.099
 5381DT     SC134976  46.734  94.257  37.926
 5381DT     SC234977  46.532  94.210  37.870
 5381DT     SC334978  46.792  94.025  37.814
 5382DG     BB134979  46.668  94.844  38.202
 5382DG     BB234980  46.365  94.646  38.219
 5382DG     BB334981  46.370  94.528  38.378
 5382DG     SC134982  46.505  94.295  38.231
 5382DG     SC234983  46.381  94.030  38.173
 5382DG     SC334984  46.669  94.029  38.106
 5382DG     SC434985  46.665  94.289  38.225
 5383DG     BB134986  46.091  94.663  38.497
 5383DG     BB234987  45.947  94.331  38.485
 5383DG     BB334988  46.000  94.229  38.647
 5383DG     SC134989  46.254  94.115  38.522
 5383DG     SC234990  46.304  93.827  38.458
 5383DG     SC334991  46.551  93.987  38.423
 5383DG     SC434992  46.391  94.198  38.534
 5384DT     BB134993  45.857  94.148  38.833
 5384DT     BB234994  45.850  93.793  38.769
 5384DT     BB334995  45.963  93.693  38.910
 5384DT     SC134996  46.187  93.772  38.798
 5384DT     SC234997  46.286  93.603  38.708
 5384DT     SC334998  46.420  93.893  38.766
 5385DA     BB134999  45.597  93.490  38.966
 5385DA     BB235000  45.855  93.231  38.938
 5385DA     BB335001  45.959  93.210  39.122
 5385DA     SC135002  46.178  93.420  39.050
 5385DA     SC235003  46.422  93.421  38.996
 5385DA     SC335004  46.413  93.670  39.059
 5385DA     SC435005  46.153  93.572  39.094
 5386DA     BB135006  45.883  92.882  39.135
 5386DA     BB235007  46.242  92.808  39.115
 5386DA     BB335008  46.331  92.820  39.308
 5386DA     SC135009  46.404  93.122  39.282
 5386DA     SC235010  46.610  93.260  39.259
 5386DA     SC335011  46.464  93.454  39.343
 5386DA     SC435012  46.298  93.229  39.337
 5387DA     BB135013  46.438  92.510  39.261
 5387DA     BB235014  46.781  92.640  39.277
 5387DA     BB335015  46.841  92.664  39.480
 5387DA     SC135016  46.741  92.959  39.500
 5387DA     SC235017  46.841  93.186  39.518
 5387DA     SC335018  46.611  93.258  39.606
 5387DA     SC435019  46.592  92.983  39.553
 5388DA     BB135020  47.093  92.476  39.388
 5388DA     BB235021  47.313  92.758  39.466
 5388DA     BB335022  47.345  92.772  39.677
 5388DA     SC135023  47.103  92.961  39.726
 5388DA     SC235024  47.065  93.199  39.790
 5388DA     SC335025  46.830  93.123  39.857
 5388DA     SC435026  46.962  92.894  39.763
 5389DG     BB135027  47.639  92.733  39.593
 5389DG     BB235028  47.673  93.068  39.726
 5389DG     BB335029  47.693  93.061  39.924
 5389DG     SC135030  47.392  93.077  39.979
 5389DG     SC235031  47.250  93.304  40.110
 5389DG     SC335032  47.069  93.073  40.075
 5389DG     SC435033  47.307  92.941  39.985
 5390DG     BB135034  47.975  93.219  39.885
 5390DG     BB235035  47.826  93.486  40.080
 5390DG     BB335036  47.842  93.445  40.274
 5390DG     SC135037  47.576  93.295  40.289
 5390DG     SC235038  47.334  93.383  40.439
 5390DG     SC335039  47.301  93.106  40.338
 5390DG     SC435040  47.574  93.137  40.260
 5391DA     BB135041  47.979  93.762  40.304
 5391DA     BB235042  47.715  93.856  40.540
 5391DA     BB335043  47.753  93.769  40.731
 5391DA     SC135044  47.591  93.510  40.673
 5391DA     SC235045  47.378  93.404  40.748
 5391DA     SC335046  47.479  93.186  40.658
 5391DA     SC435047  47.672  93.384  40.613
 5392DT     BB135048  47.793  93.894  40.877
 5392DT     BB235049  47.478  93.862  41.051
 5392DT     BB335050  47.501  93.740  41.217
 5392DT     SC135051  47.512  93.525  41.067
 5392DT     SC235052  47.334  93.408  41.098
 5392DT     SC335053  47.605  93.306  40.953
 5393DA     BB135054  47.324  94.093  41.360
 5393DA     BB235055  47.132  93.810  41.493
 5393DA     BB335056  47.241  93.714  41.649
 5393DA     SC135057  47.383  93.512  41.459
 5393DA     SC235058  47.376  93.268  41.412
 5393DA     SC335059  47.608  93.302  41.307
 5393DA     SC435060  47.526  93.554  41.400
 5394DA     BB135061  46.968  93.767  41.826
 5394DA     BB235062  46.938  93.403  41.859
 5394DA     BB335063  47.075  93.331  42.005
 5394DA     SC135064  47.305  93.282  41.802
 5394DA     SC235065  47.424  93.087  41.701
 5394DA     SC335066  47.611  93.255  41.648
 5394DA     SC435067  47.411  93.401  41.779
 5395DG     BB135068  46.821  93.231  42.157
 5395DG     BB235069  46.962  92.905  42.085
 5395DG     BB335070  47.097  92.858  42.223
 5395DG     SC135071  47.332  92.984  42.073
 5395DG     SC235072  47.563  92.838  41.954
 5395DG     SC335073  47.608  93.130  41.946
 5395DG     SC435074  47.365  93.139  42.098
 5396DT     BB135075  47.065  92.682  42.348
 5396DT     BB235076  47.298  92.449  42.201
 5396DT     BB335077  47.466  92.432  42.321
 5396DT     SC135078  47.555  92.666  42.245
 5396DT     SC235079  47.731  92.640  42.123
 5396DT     SC335080  47.632  92.918  42.256
 5397DT     BB135081  47.373  92.191  42.367
 5397DT     BB235082  47.702  92.142  42.229
 5397DT     BB335083  47.845  92.163  42.377
 5397DT     SC135084  47.816  92.424  42.378
 5397DT     SC235085  47.993  92.516  42.297
 5397DT     SC335086  47.760  92.667  42.463
 5398DG     BB135087  47.874  91.810  42.176
 5398DG     BB235088  48.189  91.987  42.188
 5398DG     BB335089  48.267  91.975  42.371
 5398DG     SC135090  48.129  92.230  42.471
 5398DG     SC235091  48.265  92.484  42.547
 5398DG     SC335092  47.979  92.492  42.620
 5398DG     SC435093  47.983  92.219  42.535
 5399DT     BB135094  48.441  91.890  42.367
 5399DT     BB235095  48.668  92.162  42.439
 5399DT     BB335096  48.706  92.170  42.642
 5399DT     SC135097  48.469  92.272  42.691
 5399DT     SC235098  48.491  92.476  42.753
 5399DT     SC335099  48.224  92.296  42.784
 5400DA     BB135100  49.074  92.176  42.436
 5400DA     BB235101  49.085  92.433  42.697
 5400DA     BB335102  49.095  92.342  42.890
 5400DA     SC135103  48.787  92.333  42.929
 5400DA     SC235104  48.615  92.445  43.072
 5400DA     SC335105  48.466  92.244  43.014
 5400DA     SC435106  48.710  92.199  42.883
 5401DA     BB135107  49.371  92.525  42.945
 5401DA     BB235108  49.202  92.672  43.235
 5401DA     BB335109  49.204  92.536  43.399
 5401DA     SC135110  48.933  92.404  43.324
 5401DA     SC235111  48.700  92.395  43.413
 5401DA     SC335112  48.675  92.183  43.271
 5401DA     SC435113  48.937  92.273  43.230
 5402DA     BB135114  49.356  92.764  43.600
 5402DA     BB235115  49.065  92.749  43.823
 5402DA     BB335116  49.079  92.580  43.951
 5402DA     SC135117  48.925  92.391  43.758
 5402DA     SC235118  48.704  92.276  43.750
 5402DA     SC335119  48.814  92.120  43.578
 5402DA     SC435120  49.012  92.304  43.654
 5403DC     BB135121  49.115  92.576  44.185
 5403DC     BB235122  48.777  92.491  44.278
 5403DC     BB335123  48.771  92.299  44.356
 5403DC     SC135124  48.799  92.193  44.117
 5403DC     SC235125  48.616  92.096  44.060
 5403DC     SC335126  48.904  92.057  43.917
 5404DA     BB135127  48.593  92.517  44.670
 5404DA     BB235128  48.371  92.234  44.599
 5404DA     BB335129  48.449  92.055  44.686
 5404DA     SC135130  48.613  91.975  44.434
 5404DA     SC235131  48.605  91.799  44.257
 5404DA     SC335132  48.852  91.856  44.218
 5404DA     SC435133  48.766  92.024  44.426
 5405DG     BB135134  48.190  92.027  44.870
 5405DG     BB235135  48.130  91.731  44.672
 5405DG     BB335136  48.223  91.575  44.754
 5405DG     SC135137  48.484  91.616  44.600
 5405DG     SC235138  48.595  91.434  44.391
 5405DG     SC335139  48.790  91.644  44.463
 5405DG     SC435140  48.596  91.712  44.662
 5406DA     BB135141  47.923  91.391  44.759
 5406DA     BB235142  48.069  91.140  44.535
 5406DA     BB335143  48.191  91.004  44.646
 5406DA     SC135144  48.452  91.169  44.611
 5406DA     SC235145  48.668  91.149  44.488
 5406DA     SC335146  48.756  91.322  44.656
 5406DA     SC435147  48.488  91.276  44.725
 5407DA     BB135148  48.001  90.769  44.512
 5407DA     BB235149  48.302  90.643  44.345
 5407DA     BB335150  48.419  90.526  44.479
 5407DA     SC135151  48.589  90.766  44.579
 5407DA     SC235152  48.824  90.847  44.560
 5407DA     SC335153  48.772  90.986  44.769
 5407DA     SC435154  48.537  90.845  44.710
 5408DG     BB135155  48.371  90.292  44.279
 5408DG     BB235156  48.727  90.325  44.227
 5408DG     BB335157  48.826  90.220  44.364
 5408DG     SC135158  48.841  90.449  44.565
 5408DG     SC235159  49.090  90.590  44.653
 5408DG     SC335160  48.859  90.672  44.818
 5408DG     SC435161  48.722  90.469  44.670
 5409DA     BB135162  48.987  90.087  44.093
 5409DA     BB235163  49.304  90.221  44.218
 5409DA     BB335164  49.377  90.101  44.378
 5409DA     SC135165  49.234  90.265  44.600
 5409DA     SC235166  49.297  90.421  44.784
 5409DA     SC335167  49.067  90.365  44.883
 5409DA     SC435168  49.088  90.217  44.646
 5410DC     BB135169  49.533  90.029  44.327
 5410DC     BB235170  49.742  90.246  44.525
 5410DC     BB335171  49.799  90.150  44.700
 5410DC     SC135172  49.560  90.182  44.804
 5410DC     SC235173  49.571  90.324  44.965
 5410DC     SC335174  49.323  90.124  44.905
 5411DA     BB135175  50.095  90.357  44.482
 5411DA     BB235176  50.115  90.453  44.836
 5411DA     BB335177  50.176  90.286  44.954
 5411DA     SC135178  49.886  90.187  45.009
 5411DA     SC235179  49.729  90.174  45.203
 5411DA     SC335180  49.606  89.997  45.064
 5411DA     SC435181  49.824  90.079  44.908
 5412DT     BB135182  50.296  90.370  45.002
 5412DT     BB235183  50.189  90.407  45.344
 5412DT     BB335184  50.227  90.233  45.449
 5412DT     SC135185  50.025  90.110  45.334
 5412DT     SC235186  49.870  90.077  45.479
 5412DT     SC335187  49.891  89.937  45.188
 5413DA     BB135188  50.348  90.588  45.649
 5413DA     BB235189  50.174  90.369  45.886
 5413DA     BB335190  50.286  90.191  45.918
 5413DA     SC135191  50.148  90.032  45.689
 5413DA     SC235192  49.989  89.842  45.666
 5413DA     SC335193  50.078  89.823  45.426
 5413DA     SC435194  50.217  90.036  45.544
 5414DT     BB135195  50.351  90.174  46.093
 5414DT     BB235196  50.137  89.904  46.200
 5414DT     BB335197  50.237  89.724  46.185
 5414DT     SC135198  50.212  89.723  45.924
 5414DT     SC235199  50.075  89.567  45.866
 5414DT     SC335200  50.277  89.726  45.668
 5415DT     BB135201  50.267  89.705  46.457
 5415DT     BB235202  50.106  89.396  46.364
 5415DT     BB335203  50.248  89.255  46.311
 5415DT     SC135204  50.291  89.374  46.081
 5415DT     SC235205  50.216  89.250  45.922
 5415DT     SC335206  50.416  89.503  45.888
 5416DG     BB135207  50.050  89.081  46.624
 5416DG     BB235208  50.059  88.862  46.337
 5416DG     BB335209  50.236  88.772  46.325
 5416DG     SC135210  50.363  88.990  46.153
 5416DG     SC235211  50.452  88.961  45.870
 5416DG     SC335212  50.540  89.220  45.981
 5416DG     SC435213  50.434  89.115  46.225
 5417DT     BB135214  50.260  88.548  46.342
 5417DT     BB235215  50.318  88.461  45.996
 5417DT     BB335216  50.518  88.417  45.967
 5417DT     SC135217  50.583  88.671  45.979
 5417DT     SC235218  50.645  88.738  45.784
 5417DT     SC335219  50.693  88.895  46.063
 5418DA     BB135220  50.280  88.109  45.810
 5418DA     BB235221  50.522  88.211  45.554
 5418DA     BB335222  50.718  88.147  45.607
 5418DA     SC135223  50.788  88.409  45.760
 5418DA     SC235224  50.939  88.605  45.731
 5418DA     SC335225  50.910  88.640  45.983
 5418DA     SC435226  50.759  88.413  45.918
 5419DT     BB135227  50.778  88.028  45.486
 5419DT     BB235228  51.016  88.246  45.324
 5419DT     BB335229  51.206  88.213  45.400
 5419DT     SC135230  51.146  88.341  45.622
 5419DT     SC235231  51.255  88.526  45.629
 5419DT     SC335232  51.102  88.386  45.878
 5420DC     BB135233  51.249  88.113  45.163
 5420DC     BB235234  51.497  88.371  45.205
 5420DC     BB335235  51.654  88.301  45.321
 5420DC     SC135236  51.510  88.317  45.540
 5420DC     SC235237  51.587  88.475  45.664
 5420DC     SC335238  51.380  88.243  45.757
 5421DA     BB135239  51.817  88.471  44.971
 5421DA     BB235240  52.007  88.596  45.259
 5421DA     BB335241  52.128  88.440  45.341
 5421DA     SC135242  51.910  88.345  45.542
 5421DA     SC235243  51.873  88.348  45.789
 5421DA     SC335244  51.705  88.159  45.745
 5421DA     SC435245  51.811  88.228  45.495
 5422DC     BB135246  52.335  88.447  45.330
 5422DC     BB235247  52.399  88.520  45.677
 5422DC     BB335248  52.468  88.350  45.773
 5422DC     SC135249  52.228  88.244  45.775
 5422DC     SC235250  52.154  88.238  45.977
 5422DC     SC335251  52.030  88.077  45.725
 5423DA     BB135252  52.773  88.628  45.862
 5423DA     BB235253  52.680  88.466  46.178
 5423DA     BB335254  52.763  88.270  46.188
 5423DA     SC135255  52.516  88.132  46.058
 5423DA     SC235256  52.332  87.978  46.128
 5423DA     SC335257  52.308  87.926  45.878
 5423DA     SC435258  52.518  88.111  45.898
 5424DT     BB135259  52.927  88.201  46.330
 5424DT     BB235260  52.710  88.014  46.550
 5424DT     BB335261  52.746  87.811  46.529
 5424DT     SC135262  52.621  87.805  46.299
 5424DT     SC235263  52.437  87.695  46.320
 5424DT     SC335264  52.579  87.775  46.040
 5425DG     BB135265  52.832  87.873  46.926
 5425DG     BB235266  52.587  87.610  46.886
 5425DG     BB335267  52.678  87.439  46.843
 5425DG     SC135268  52.669  87.482  46.540
 5425DG     SC235269  52.511  87.322  46.344
 5425DG     SC335270  52.695  87.507  46.205
 5425DG     SC435271  52.790  87.561  46.470
 5426DT     BB135272  52.670  87.251  46.979
 5426DT     BB235273  52.428  87.054  46.797
 5426DT     BB335274  52.523  86.896  46.702
 5426DT     SC135275  52.623  87.056  46.519
 5426DT     SC235276  52.528  87.016  46.330
 5426DT     SC335277  52.800  87.187  46.374
 5427DA     BB135278  52.196  86.756  46.923
 5427DA     BB235279  52.168  86.628  46.581
 5427DA     BB335280  52.314  86.476  46.546
 5427DA     SC135281  52.530  86.674  46.441
 5427DA     SC235282  52.641  86.728  46.225
 5427DA     SC335283  52.825  86.835  46.369
 5427DA     SC435284  52.634  86.733  46.548
 5428DC     BB135285  52.228  86.324  46.513
 5428DC     BB235286  52.288  86.320  46.157
 5428DC     BB335287  52.450  86.199  46.114
 5428DC     SC135288  52.618  86.380  46.203
 5428DC     SC235289  52.729  86.462  46.038
 5428DC     SC335290  52.803  86.494  46.352
 5429DT     BB135291  52.258  86.064  46.008
 5429DT     BB235292  52.489  86.135  45.741
 5429DT     BB335293  52.652  86.008  45.752
 5429DT     SC135294  52.751  86.139  45.956
 5429DT     SC235295  52.929  86.242  45.895
 5429DT     SC335296  52.835  86.190  46.201
 5430DA     BB135297  52.481  86.055  45.367
 5430DA     BB235298  52.845  86.086  45.342
 5430DA     BB335299  52.939  85.900  45.389
 5430DA     SC135300  52.966  85.963  45.693
 5430DA     SC235301  53.148  86.012  45.855
 5430DA     SC335302  52.979  85.942  46.035
 5430DA     SC435303  52.847  85.914  45.789
 5431DT     BB135304  53.021  85.850  45.245
 5431DT     BB235305  53.359  85.901  45.360
 5431DT     BB335306  53.433  85.725  45.440
 5431DT     SC135307  53.289  85.755  45.657
 5431DT     SC235308  53.419  85.799  45.823
 5431DT     SC335309  53.108  85.708  45.843
 5432DT     BB135310  53.584  85.724  45.226
 5432DT     BB235311  53.813  85.700  45.504
 5432DT     BB335312  53.821  85.505  45.573
 5432DT     SC135313  53.586  85.528  45.688
 5432DT     SC235314  53.610  85.527  45.901
 5432DT     SC335315  53.331  85.487  45.742
 5433DT     BB135316  54.067  85.476  45.466
 5433DT     BB235317  54.109  85.382  45.812
 5433DT     BB335318  54.060  85.183  45.838
 5433DT     SC135319  53.804  85.235  45.818
 5433DT     SC235320  53.710  85.207  46.010
 5433DT     SC335321  53.557  85.235  45.726
 5434DT     BB135322  54.324  85.100  45.864
 5434DT     BB235323  54.163  84.974  46.162
 5434DT     BB335324  54.084  84.786  46.125
 5434DT     SC135325  53.886  84.888  45.986
 5434DT     SC235326  53.702  84.863  46.095
 5434DT     SC335327  53.729  84.942  45.782
 5435DG     BB135328  54.351  84.695  46.426
 5435DG     BB235329  54.022  84.567  46.505
 5435DG     BB335330  53.993  84.393  46.413
 5435DG     SC135331  53.875  84.519  46.160
 5435DG     SC235332  53.593  84.492  46.066
 5435DG     SC335333  53.760  84.624  45.861
 5435DG     SC435334  53.974  84.562  46.042
 5436DT     BB135335  53.961  84.165  46.513
 5436DT     BB235336  53.605  84.129  46.469
 5436DT     BB335337  53.566  83.987  46.324
 5436DT     SC135338  53.635  84.152  46.132
 5436DT     SC235339  53.460  84.209  46.020
 5436DT     SC335340  53.768  84.255  45.929
 5437DA     BB135341  53.346  83.845  46.653
 5437DA     BB235342  53.117  83.859  46.366
 5437DA     BB335343  53.152  83.694  46.235
 5437DA     SC135344  53.361  83.845  46.061
 5437DA     SC235345  53.376  83.937  45.830
 5437DA     SC335346  53.630  83.929  45.865
 5437DA     SC435347  53.516  83.830  46.102
 5438DA     BB135348  52.831  83.645  46.282
 5438DA     BB235349  52.790  83.715  45.925
 5438DA     BB335350  52.845  83.544  45.809
 5438DA     SC135351  53.142  83.631  45.779
 5438DA     SC235352  53.293  83.712  45.598
 5438DA     SC335353  53.485  83.636  45.752
 5438DA     SC435354  53.247  83.576  45.888
 5439DG     BB135355  52.553  83.578  45.725
 5439DG     BB235356  52.708  83.662  45.409
 5439DG     BB335357  52.759  83.495  45.312
 5439DG     SC135358  53.038  83.479  45.437
 5439DG     SC235359  53.297  83.512  45.292
 5439DG     SC335360  53.342  83.419  45.569
 5439DG     SC435361  53.057  83.401  45.575
 5440DA     BB135362  52.592  83.678  45.078
 5440DA     BB235363  52.896  83.673  44.873
 5440DA     BB335364  52.932  83.476  44.797
 5440DA     SC135365  53.107  83.388  45.039
 5440DA     SC235366  53.347  83.335  45.083
 5440DA     SC335367  53.260  83.211  45.290
 5440DA     SC435368  53.033  83.315  45.162
 5441DT     BB135369  52.923  83.506  44.636
 5441DT     BB235370  53.275  83.473  44.566
 5441DT     BB335371  53.320  83.276  44.519
 5441DT     SC135372  53.299  83.202  44.770
 5441DT     SC235373  53.493  83.150  44.845
 5441DT     SC335374  53.210  83.080  44.986
 5442DC     BB135375  53.362  83.404  44.301
 5442DC     BB235376  53.671  83.235  44.382
 5442DC     BB335377  53.654  83.033  44.339
 5442DC     SC135378  53.504  82.992  44.550
 5442DC     SC235379  53.614  82.877  44.694
 5442DC     SC335380  53.294  82.930  44.697
 5443DA     BB135381  54.011  83.204  44.189
 5443DA     BB235382  54.091  82.885  44.349
 5443DA     BB335383  54.008  82.723  44.238
 5443DA     SC135384  53.739  82.720  44.395
 5443DA     SC235385  53.622  82.572  44.558
 5443DA     SC335386  53.409  82.696  44.486
 5443DA     SC435387  53.618  82.808  44.336
 5444DA     BB135388  54.321  82.619  44.256
 5444DA     BB235389  54.192  82.314  44.413
 5444DA     BB335390  54.092  82.193  44.269
 5444DA     SC135391  53.813  82.322  44.318
 5444DA     SC235392  53.595  82.256  44.418
 5444DA     SC335393  53.497  82.451  44.282
 5444DA     SC435394  53.772  82.446  44.225
 5445DA     BB135395  54.297  81.944  44.361
 5445DA     BB235396  53.999  81.749  44.452
 5445DA     BB335397  53.907  81.670  44.277
 5445DA     SC135398  53.719  81.915  44.236
 5445DA     SC235399  53.476  81.966  44.253
 5445DA     SC335400  53.528  82.167  44.102
 5445DA     SC435401  53.771  82.034  44.140
 5446DT     BB135402  53.896  81.446  44.208
 5446DT     BB235403  53.547  81.395  44.283
 5446DT     BB335404  53.439  81.373  44.107
 5446DT     SC135405  53.455  81.631  44.057
 5446DT     SC235406  53.260  81.719  44.078
 5446DT     SC335407  53.517  81.856  43.935
 5447DA     BB135408  53.329  81.008  44.292
 5447DA     BB235409  53.018  81.167  44.180
 5447DA     BB335410  52.988  81.134  43.972
 5447DA     SC135411  53.137  81.393  43.885
 5447DA     SC235412  53.080  81.614  43.784
 5447DA     SC335413  53.328  81.626  43.720
 5447DA     SC435414  53.294  81.381  43.853
 5448DA     BB135415  52.689  80.994  44.035
 5448DA     BB235416  52.535  81.272  43.851
 5448DA     BB335417  52.538  81.233  43.642
 5448DA     SC135418  52.813  81.370  43.594
 5448DA     SC235419  52.900  81.575  43.483
 5448DA     SC335420  53.126  81.454  43.482
 5448DA     SC435421  52.944  81.277  43.602
 5449DA     BB135422  52.213  81.281  43.657
 5449DA     BB235423  52.263  81.573  43.441
 5449DA     BB335424  52.281  81.513  43.237
 5449DA     SC135425  52.590  81.482  43.248
 5449DA     SC235426  52.790  81.598  43.155
 5449DA     SC335427  52.914  81.379  43.203
 5449DA     SC435428  52.649  81.337  43.284
 5450DA     BB135429  52.046  81.735  43.223
 5450DA     BB235430  52.274  81.929  43.012
 5450DA     BB335431  52.284  81.845  42.816
 5450DA     SC135432  52.523  81.657  42.882
 5450DA     SC235433  52.765  81.639  42.823
 5450DA     SC335434  52.743  81.394  42.898
 5450DA     SC435435  52.489  81.508  42.932
 5451DT     BB135436  52.219  81.964  42.693
 5451DT     BB235437  52.538  82.060  42.555
 5451DT     BB335438  52.571  81.959  42.377
 5451DT     SC135439  52.624  81.735  42.505
 5451DT     SC235440  52.833  81.689  42.485
 5451DT     SC335441  52.602  81.486  42.588
 5452DA     BB135442  52.650  82.374  42.372
 5452DA     BB235443  52.934  82.195  42.224
 5452DA     BB335444  52.876  82.103  42.040
 5452DA     SC135445  52.792  81.835  42.173
 5452DA     SC235446  52.873  81.599  42.182
 5452DA     SC335447  52.635  81.541  42.256
 5452DA     SC435448  52.638  81.819  42.217
 5453DT     BB135449  52.972  82.179  41.921
 5453DT     BB235450  53.189  81.899  41.850
 5453DT     BB335451  53.113  81.790  41.692
 5453DT     SC135452  52.925  81.686  41.843
 5453DT     SC235453  52.965  81.477  41.873
 5453DT     SC335454  52.685  81.628  41.936
 5454DA     BB135455  53.524  81.874  41.646
 5454DA     BB235456  53.467  81.520  41.569
 5454DA     BB335457  53.354  81.501  41.390
 5454DA     SC135458  53.078  81.502  41.534
 5454DA     SC235459  52.894  81.340  41.581
 5454DA     SC335460  52.748  81.548  41.618
 5454DA     SC435461  53.004  81.643  41.551
 5455DG     BB135462  53.608  81.342  41.309
 5455DG     BB235463  53.372  81.070  41.279
 5455DG     BB335464  53.269  81.087  41.109
 5455DG     SC135465  53.046  81.257  41.232
 5455DG     SC235466  52.762  81.174  41.268
 5455DG     SC335467  52.796  81.462  41.329
 5455DG     SC435468  53.063  81.417  41.235
 5456DT     BB135469  53.284  80.936  40.951
 5456DT     BB235470  52.963  80.772  40.971
 5456DT     BB335471  52.839  80.840  40.819
 5456DT     SC135472  52.800  81.068  40.943
 5456DT     SC235473  52.597  81.078  41.013
 5456DT     SC335474  52.803  81.327  40.993
 5457DT     BB135475  52.861  80.607  40.672
 5457DT     BB235476  52.505  80.650  40.711
 5457DT     BB335477  52.431  80.767  40.557
 5457DT     SC135478  52.532  80.985  40.663
 5457DT     SC235479  52.372  81.109  40.735
 5457DT     SC335480  52.680  81.201  40.691
 5458DA     BB135481  52.188  80.423  40.528
 5458DA     BB235482  51.964  80.714  40.521
 5458DA     BB335483  51.971  80.807  40.329
 5458DA     SC135484  52.202  81.002  40.404
 5458DA     SC235485  52.232  81.246  40.444
 5458DA     SC335486  52.481  81.202  40.401
 5458DA     SC435487  52.352  80.954  40.373
 5459DG     BB135488  51.658  80.749  40.273
 5459DG     BB235489  51.630  81.110  40.282
 5459DG     BB335490  51.661  81.185  40.100
 5459DG     SC135491  51.963  81.215  40.138
 5459DG     SC235492  52.113  81.473  40.151
 5459DG     SC335493  52.299  81.244  40.137
 5459DG     SC435494  52.059  81.092  40.101
 5460DA     BB135495  51.353  81.363  40.092
 5460DA     BB235496  51.532  81.682  40.069
 5460DA     BB335497  51.588  81.722  39.867
 5460DA     SC135498  51.865  81.582  39.890
 5460DA     SC235499  52.105  81.648  39.893
 5460DA     SC335500  52.152  81.404  39.830
 5460DA     SC435501  51.873  81.427  39.850
 5461DT     BB135502  51.504  81.890  39.740
 5461DT     BB235503  51.794  82.103  39.769
 5461DT     BB335504  51.891  82.116  39.586
 5461DT     SC135505  51.988  81.874  39.612
 5461DT     SC235506  52.201  81.886  39.642
 5461DT     SC335507  52.035  81.619  39.564
 5462DA     BB135508  51.824  82.508  39.714
 5462DA     BB235509  52.179  82.478  39.630
 5462DA     BB335510  52.205  82.476  39.418
 5462DA     SC135511  52.185  82.166  39.393
 5462DA     SC235512  52.336  81.975  39.340
 5462DA     SC335513  52.121  81.846  39.288
 5462DA     SC435514  52.040  82.103  39.365
 5463DC     BB135515  52.302  82.627  39.349
 5463DC     BB235516  52.611  82.452  39.285
 5463DC     BB335517  52.630  82.413  39.082
 5463DC     SC135518  52.451  82.221  39.095
 5463DC     SC235519  52.548  82.032  39.065
 5463DC     SC335520  52.229  82.086  39.052
 5464DA     BB135521  52.980  82.590  39.232
 5464DA     BB235522  53.074  82.295  39.036
 5464DA     BB335523  53.044  82.332  38.828
 5464DA     SC135524  52.752  82.224  38.827
 5464DA     SC235525  52.628  82.027  38.736
 5464DA     SC335526  52.418  82.171  38.766
 5464DA     SC435527  52.633  82.329  38.851
 5465DA     BB135528  53.356  82.233  38.826
 5465DA     BB235529  53.248  81.963  38.603
 5465DA     BB335530  53.207  82.040  38.408
 5465DA     SC135531  52.907  82.095  38.466
 5465DA     SC235532  52.685  82.003  38.398
 5465DA     SC335533  52.590  82.228  38.477
 5465DA     SC435534  52.867  82.241  38.520
 5466DA     BB135535  53.422  81.808  38.307
 5466DA     BB235536  53.150  81.664  38.109
 5466DA     BB335537  53.118  81.779  37.932
 5466DA     SC135538  52.906  81.966  38.062
 5466DA     SC235539  52.661  82.007  38.046
 5466DA     SC335540  52.713  82.235  38.153
 5466DA     SC435541  52.959  82.103  38.128
 5467DA     BB135542  53.162  81.495  37.763
 5467DA     BB235543  52.818  81.532  37.640
 5467DA     BB335544  52.811  81.672  37.480
 5467DA     SC135545  52.758  81.917  37.664
 5467DA     SC235546  52.571  82.075  37.713
 5467DA     SC335547  52.753  82.230  37.806
 5467DA     SC435548  52.886  82.000  37.716
 5468DT     BB135549  52.764  81.618  37.270
 5468DT     BB235550  52.428  81.750  37.272
 5468DT     BB335551  52.417  81.919  37.153
 5468DT     SC135552  52.542  82.064  37.332
 5468DT     SC235553  52.405  82.206  37.418
 5468DT     SC335554  52.728  82.213  37.445
 5469DT     BB135555  52.275  81.783  36.961
 5469DT     BB235556  52.060  82.056  37.059
 5469DT     BB335557  52.100  82.222  36.942
 5469DT     SC135558  52.323  82.270  37.071
 5469DT     SC235559  52.302  82.449  37.188
 5469DT     SC335560  52.581  82.300  37.118
 5470DG     BB135561  51.709  82.115  36.931
 5470DG     BB235562  51.753  82.461  37.027
 5470DG     BB335563  51.798  82.570  36.868
 5470DG     SC135564  52.100  82.532  36.897
 5470DG     SC235565  52.298  82.745  36.965
 5470DG     SC335566  52.435  82.495  36.887
 5470DG     SC435567  52.170  82.406  36.827
 5471DT     BB135568  51.667  82.704  36.854
 5471DT     BB235569  51.845  83.003  36.950
 5471DT     BB335570  51.923  83.096  36.782
 5471DT     SC135571  52.111  82.915  36.759
 5471DT     SC235572  52.302  83.004  36.806
 5471DT     SC335573  52.256  82.719  36.658
 5472DT     BB135574  51.747  83.259  36.871
 5472DT     BB235575  52.057  83.443  36.855
 5472DT     BB335576  52.102  83.488  36.659
 5472DT     SC135577  52.174  83.241  36.609
 5472DT     SC235578  52.387  83.232  36.579
 5472DT     SC335579  52.175  82.999  36.504
 5473DT     BB135580  52.046  83.735  36.730
 5473DT     BB235581  52.378  83.752  36.589
 5473DT     BB335582  52.366  83.759  36.382
 5473DT     SC135583  52.306  83.503  36.369
 5473DT     SC235584  52.471  83.395  36.283
 5473DT     SC335585  52.169  83.283  36.322
 5474DT     BB135586  52.435  84.024  36.379
 5474DT     BB235587  52.675  83.868  36.159
 5474DT     BB335588  52.598  83.857  35.967
 5474DT     SC135589  52.438  83.660  36.034
 5474DT     SC235590  52.504  83.479  35.938
 5474DT     SC335591  52.216  83.525  36.079
 5475DT     BB135592  52.758  84.063  35.863
 5475DT     BB235593  52.828  83.783  35.647
 5475DT     BB335594  52.696  83.782  35.488
 5475DT     SC135595  52.501  83.695  35.640
 5475DT     SC235596  52.453  83.493  35.586
 5475DT     SC335597  52.271  83.689  35.769
 5476DG     BB135598  53.062  83.811  35.307
 5476DG     BB235599  52.873  83.533  35.173
 5476DG     BB335600  52.743  83.598  35.037
 5476DG     SC135601  52.518  83.645  35.239
 5476DG     SC235602  52.261  83.494  35.253
 5476DG     SC335603  52.256  83.727  35.434
 5476DG     SC435604  52.508  83.787  35.312
 5477DA     BB135605  52.882  83.356  34.836
 5477DA     BB235606  52.555  83.192  34.811
 5477DA     BB335607  52.428  83.299  34.677
 5477DA     SC135608  52.307  83.481  34.899
 5477DA     SC235609  52.087  83.510  35.014
 5477DA     SC335610  52.174  83.743  35.076
 5477DA     SC435611  52.378  83.622  34.926
 5478DT     BB135612  52.387  83.196  34.533
 5478DT     BB235613  52.046  83.124  34.626
 5478DT     BB335614  51.916  83.249  34.524
 5478DT     SC135615  51.981  83.453  34.677
 5478DT     SC235616  51.814  83.504  34.802
 5478DT     SC335617  52.075  83.688  34.750
 5479DT     BB135618  51.858  83.021  34.419
 5479DT     BB235619  51.549  83.149  34.555
 5479DT     BB335620  51.472  83.295  34.430
 5479DT     SC135621  51.651  83.469  34.508
 5479DT     SC235622  51.555  83.623  34.624
 5479DT     SC335623  51.854  83.637  34.499
 5480DT     BB135624  51.294  83.109  34.396
 5480DT     BB235625  51.109  83.402  34.497
 5480DT     BB335626  51.090  83.532  34.337
 5480DT     SC135627  51.340  83.607  34.356
 5480DT     SC235628  51.349  83.810  34.425
 5480DT     SC335629  51.594  83.644  34.293
 5481DA     BB135630  50.698  83.478  34.486
 5481DA     BB235631  50.743  83.836  34.421
 5481DA     BB335632  50.745  83.874  34.211
 5481DA     SC135633  51.054  83.842  34.183
 5481DA     SC235634  51.251  83.988  34.137
 5481DA     SC335635  51.371  83.771  34.073
 5481DA     SC435636  51.110  83.696  34.146
 5482DT     BB135637  50.578  83.982  34.064
 5482DT     BB235638  50.762  84.285  33.997
 5482DT     BB335639  50.818  84.291  33.798
 5482DT     SC135640  51.005  84.111  33.836
 5482DT     SC235641  51.198  84.204  33.816
 5482DT     SC335642  51.140  83.886  33.817
 5483DG     BB135643  50.572  84.630  33.766
 5483DG     BB235644  50.897  84.706  33.626
 5483DG     BB335645  50.901  84.657  33.434
 5483DG     SC135646  50.998  84.371  33.483
 5483DG     SC235647  51.263  84.259  33.406
 5483DG     SC335648  51.084  84.045  33.503
 5483DG     SC435649  50.889  84.255  33.508
 5484DG     BB135650  50.961  84.966  33.283
 5484DG     BB235651  51.279  84.835  33.172
 5484DG     BB335652  51.261  84.761  32.988
 5484DG     SC135653  51.185  84.479  33.081
 5484DG     SC235654  51.350  84.233  33.047
 5484DG     SC335655  51.080  84.166  33.148
 5484DG     SC435656  51.031  84.445  33.107
 5485DA     BB135657  51.527  84.957  32.867
 5485DA     BB235658  51.720  84.657  32.785
 5485DA     BB335659  51.661  84.580  32.594
 5485DA     SC135660  51.442  84.392  32.711
 5485DA     SC235661  51.405  84.147  32.739
 5485DA     SC335662  51.157  84.208  32.762
 5485DA     SC435663  51.293  84.450  32.721
 5486DT     BB135664  51.796  84.583  32.432
 5486DT     BB235665  51.873  84.231  32.436
 5486DT     BB335666  51.786  84.138  32.272
 5486DT     SC135667  51.548  84.150  32.382
 5486DT     SC235668  51.484  83.952  32.436
 5486DT     SC335669  51.295  84.215  32.419
 5487DC     BB135670  52.032  84.109  32.155
 5487DC     BB235671  51.902  83.773  32.170
 5487DC     BB335672  51.791  83.732  32.001
 5487DC     SC135673  51.592  83.880  32.086
 5487DC     SC235674  51.425  83.753  32.136
 5487DC     SC335675  51.414  84.075  32.097
 5488DA     BB135676  52.069  83.419  32.033
 5488DA     BB235677  51.741  83.268  31.970
 5488DA     BB335678  51.685  83.294  31.765
 5488DA     SC135679  51.538  83.564  31.814
 5488DA     SC235680  51.303  83.649  31.813
 5488DA     SC335681  51.410  83.881  31.786
 5488DA     SC435682  51.623  83.699  31.797
 5489DT     BB135683  51.671  83.129  31.616
 5489DT     BB235684  51.311  83.118  31.594
 5489DT     BB335685  51.249  83.190  31.410
 5489DT     SC135686  51.300  83.437  31.481
 5489DT     SC235687  51.115  83.545  31.503
 5489DT     SC335688  51.410  83.677  31.484
 5490DA     BB135689  51.064  82.810  31.401
 5490DA     BB235690  50.806  83.052  31.307
 5490DA     BB335691  50.827  83.108  31.102
 5490DA     SC135692  51.015  83.348  31.161
 5490DA     SC235693  51.004  83.597  31.151
 5490DA     SC335694  51.261  83.588  31.148
 5490DA     SC435695  51.173  83.321  31.158
 5491DG     BB135696  50.538  82.988  31.007
 5491DG     BB235697  50.456  83.335  30.945
 5491DG     BB335698  50.495  83.381  30.755
 5491DG     SC135699  50.784  83.467  30.810
 5491DG     SC235700  50.892  83.744  30.786
 5491DG     SC335701  51.110  83.549  30.831
 5491DG     SC435702  50.900  83.356  30.805
 5492DT     BB135703  50.334  83.448  30.601
 5492DT     BB235704  50.397  83.803  30.597
 5492DT     BB335705  50.487  83.857  30.418
 5492DT     SC135706  50.716  83.754  30.494
 5492DT     SC235707  50.858  83.913  30.529
 5492DT     SC335708  50.928  83.598  30.500
 5493DA     BB135709  50.158  84.104  30.488
 5493DA     BB235710  50.447  84.317  30.416
 5493DA     BB335711  50.496  84.308  30.208
 5493DA     SC135712  50.694  84.070  30.241
 5493DA     SC235713  50.940  84.032  30.226
 5493DA     SC335714  50.879  83.784  30.196
 5493DA     SC435715  50.636  83.922  30.222
 5494DA     BB135716  50.472  84.624  30.278
 5494DA     BB235717  50.824  84.647  30.177
 5494DA     BB335718  50.842  84.624  29.966
 5494DA     SC135719  50.878  84.315  29.978
 5494DA     SC235720  51.060  84.149  29.939
 5494DA     SC335721  50.870  83.978  29.915
 5494DA     SC435722  50.746  84.224  29.965
 5495DT     BB135723  50.906  84.776  29.894
 5495DT     BB235724  51.238  84.656  29.821
 5495DT     BB335725  51.251  84.599  29.623
 5495DT     SC135726  51.114  84.380  29.669
 5495DT     SC235727  51.243  84.209  29.649
 5495DT     SC335728  50.919  84.202  29.658
 5496DT     BB135729  51.405  84.810  29.602
 5496DT     BB235730  51.606  84.534  29.485
 5496DT     BB335731  51.559  84.492  29.288
 5496DT     SC135732  51.333  84.379  29.358
 5496DT     SC235733  51.345  84.167  29.324
 5496DT     SC335734  51.074  84.334  29.380
 5497DA     BB135735  51.975  84.529  29.327
 5497DA     BB235736  51.905  84.224  29.136
 5497DA     BB335737  51.833  84.273  28.942
 5497DA     SC135738  51.534  84.275  29.026
 5497DA     SC235739  51.330  84.137  28.986
 5497DA     SC335740  51.199  84.346  29.058
 5497DA     SC435741  51.471  84.416  29.072
 5498DT     BB135742  51.949  84.225  28.788
 5498DT     BB235743  51.750  83.951  28.663
 5498DT     BB335744  51.643  84.012  28.496
 5498DT     SC135745  51.475  84.149  28.644
 5498DT     SC235746  51.282  84.052  28.640
 5498DT     SC335747  51.342  84.354  28.743
 5499DG     BB135748  51.870  83.695  28.374
 5499DG     BB235749  51.523  83.649  28.285
 5499DG     BB335750  51.479  83.756  28.123
 5499DG     SC135751  51.398  84.006  28.281
 5499DG     SC235752  51.123  84.121  28.298
 5499DG     SC335753  51.321  84.303  28.421
 5499DG     SC435754  51.510  84.114  28.319
 5500DT     BB135755  51.415  83.663  27.928
 5500DT     BB235756  51.063  83.739  27.924
 5500DT     BB335757  51.025  83.894  27.792
 5500DT     SC135758  51.125  84.071  27.958
 5500DT     SC235759  50.967  84.195  28.033
 5500DT     SC335760  51.284  84.257  28.056
 5501DT     BB135761  50.909  83.725  27.606
 5501DT     BB235762  50.655  83.973  27.668
 5501DT     BB335763  50.680  84.133  27.539
 5501DT     SC135764  50.887  84.221  27.674
 5501DT     SC235765  50.835  84.405  27.774
 5501DT     SC335766  51.135  84.290  27.730
 5502DA     BB135767  50.280  84.012  27.500
 5502DA     BB235768  50.282  84.375  27.551
 5502DA     BB335769  50.349  84.474  27.374
 5502DA     SC135770  50.649  84.472  27.457
 5502DA     SC235771  50.822  84.638  27.528
 5502DA     SC335772  50.992  84.458  27.460
 5502DA     SC435773  50.739  84.348  27.408
 5503DT     BB135774  50.219  84.594  27.267
 5503DT     BB235775  50.357  84.909  27.374
 5503DT     BB335776  50.464  84.995  27.219
 5503DT     SC135777  50.662  84.826  27.252
 5503DT     SC235778  50.833  84.931  27.330
 5503DT     SC335779  50.835  84.634  27.201
 5504DC     BB135780  50.270  85.182  27.190
 5504DC     BB235781  50.570  85.371  27.257
 5504DC     BB335782  50.672  85.407  27.080
 5504DC     SC135783  50.756  85.159  27.069
 5504DC     SC235784  50.968  85.154  27.104
 5504DC     SC335785  50.790  84.912  26.982
 5505DT     BB135786  50.599  85.659  27.115
 5505DT     BB235787  50.959  85.665  27.104
 5505DT     BB335788  51.024  85.668  26.907
 5505DT     SC135789  50.965  85.414  26.875
 5505DT     SC235790  51.146  85.301  26.856
 5505DT     SC335791  50.848  85.196  26.784
 5506DA     BB135792  51.211  85.955  27.151
 5506DA     BB235793  51.468  85.775  26.961
 5506DA     BB335794  51.455  85.823  26.754
 5506DA     SC135795  51.259  85.591  26.687
 5506DA     SC235796  51.265  85.375  26.562
 5506DA     SC335797  51.009  85.396  26.556
 5506DA     SC435798  51.101  85.622  26.693
 5507DT     BB135799  51.604  85.901  26.714
 5507DT     BB235800  51.745  85.635  26.515
 5507DT     BB335801  51.701  85.665  26.316
 5507DT     SC135802  51.452  85.590  26.352
 5507DT     SC235803  51.419  85.401  26.254
 5507DT     SC335804  51.188  85.600  26.363
 5508DA     BB135805  52.111  85.582  26.369
 5508DA     BB235806  51.987  85.382  26.088
 5508DA     BB335807  51.939  85.508  25.923
 5508DA     SC135808  51.642  85.549  26.009
 5508DA     SC235809  51.416  85.480  25.929
 5508DA     SC335810  51.330  85.677  26.070
 5508DA     SC435811  51.609  85.676  26.101
 5509DT     BB135812  52.049  85.489  25.763
 5509DT     BB235813  51.804  85.334  25.548
 5509DT     BB335814  51.723  85.475  25.420
 5509DT     SC135815  51.579  85.579  25.613
 5509DT     SC235816  51.371  85.536  25.579
 5509DT     SC335817  51.488  85.755  25.788
 5510DT     BB135818  51.864  85.393  25.189
 5510DT     BB235819  51.519  85.391  25.081
 5510DT     BB335820  51.469  85.576  25.004
 5510DT     SC135821  51.458  85.682  25.244
 5510DT     SC235822  51.253  85.728  25.292
 5510DT     SC335823  51.515  85.836  25.450
 5511DT     BB135824  51.475  85.529  24.708
 5511DT     BB235825  51.145  85.667  24.758
 5511DT     BB335826  51.148  85.871  24.724
 5511DT     SC135827  51.270  85.916  24.952
 5511DT     SC235828  51.135  86.015  25.087
 5511DT     SC335829  51.456  85.991  25.124
 5512DC     BB135830  51.023  85.907  24.444
 5512DC     BB235831  50.817  86.119  24.651
 5512DC     BB335832  50.879  86.315  24.634
 5512DC     SC135833  51.089  86.270  24.784
 5512DC     SC235834  51.066  86.370  24.973
 5512DC     SC335835  51.342  86.246  24.857
 5513DC     BB135836  50.665  86.429  24.461
 5513DC     BB235837  50.650  86.632  24.759
 5513DC     BB335838  50.758  86.807  24.731
 5513DC     SC135839  50.986  86.679  24.755
 5513DC     SC235840  51.080  86.737  24.939
 5513DC     SC335841  51.222  86.578  24.694
 5514DT     BB135842  50.529  86.969  24.711
 5514DT     BB235843  50.711  87.104  24.992
 5514DT     BB335844  50.837  87.255  24.928
 5514DT     SC135845  51.005  87.082  24.823
 5514DT     SC235846  51.186  87.079  24.939
 5514DT     SC335847  51.147  86.952  24.643
 5515DT     BB135848  50.672  87.418  25.058
 5515DT     BB235849  50.994  87.465  25.214
 5515DT     BB335850  51.104  87.605  25.108
 5515DT     SC135851  51.153  87.432  24.916
 5515DT     SC235852  51.361  87.379  24.919
 5515DT     SC335853  51.153  87.320  24.677
 5516DT     BB135854  51.063  87.736  25.327
 5516DT     BB235855  51.421  87.720  25.290
 5516DT     BB335856  51.485  87.864  25.156
 5516DT     SC135857  51.395  87.725  24.952
 5516DT     SC235858  51.562  87.650  24.838
 5516DT     SC335859  51.253  87.659  24.740
 5517DT     BB135860  51.585  87.952  25.376
 5517DT     BB235861  51.864  87.921  25.149
 5517DT     BB335862  51.866  88.081  25.018
 5517DT     SC135863  51.664  87.982  24.882
 5517DT     SC235864  51.732  87.918  24.689
 5517DT     SC335865  51.423  87.960  24.777
 5518DA     BB135866  52.248  88.026  25.184
 5518DA     BB235867  52.288  88.090  24.825
 5518DA     BB335868  52.239  88.292  24.780
 5518DA     SC135869  51.938  88.233  24.724
 5518DA     SC235870  51.785  88.228  24.528
 5518DA     SC335871  51.596  88.249  24.701
 5518DA     SC435872  51.836  88.247  24.847
 5519DT     BB135873  52.385  88.438  24.720
 5519DT     BB235874  52.282  88.484  24.377
 5519DT     BB335875  52.186  88.665  24.356
 5519DT     SC135876  51.970  88.573  24.473
 5519DT     SC235877  51.812  88.555  24.329
 5519DT     SC335878  51.777  88.544  24.651
 5520DT     BB135879  52.397  88.858  24.238
 5520DT     BB235880  52.118  88.916  24.016
 5520DT     BB335881  52.013  89.084  24.077
 5520DT     SC135882  51.906  88.953  24.278
 5520DT     SC235883  51.696  88.925  24.242
 5520DT     SC335884  51.846  88.884  24.526
 5521DT     BB135885  52.096  89.365  23.906
 5521DT     BB235886  51.737  89.370  23.874
 5521DT     BB335887  51.656  89.509  24.005
 5521DT     SC135888  51.698  89.352  24.211
 5521DT     SC235889  51.509  89.281  24.286
 5521DT     SC335890  51.794  89.263  24.440
 5522DC     BB135891  51.577  89.789  23.851
 5522DC     BB235892  51.264  89.691  24.002
 5522DC     BB335893  51.230  89.804  24.172
 5522DC     SC135894  51.409  89.669  24.308
 5522DC     SC235895  51.311  89.550  24.457
 5522DC     SC335896  51.628  89.616  24.445
 5523DT     BB135897  51.017  89.997  24.082
 5523DT     BB235898  50.862  89.816  24.354
 5523DT     BB335899  50.876  89.926  24.528
 5523DT     SC135900  51.131  89.869  24.553
 5523DT     SC235901  51.159  89.737  24.721
 5523DT     SC335902  51.392  89.901  24.568
 5524DT     BB135903  50.608  89.974  24.520
 5524DT     BB235904  50.662  89.788  24.825
 5524DT     BB335905  50.704  89.918  24.980
 5524DT     SC135906  50.947  89.960  24.889
 5524DT     SC235907  51.089  89.870  25.023
 5524DT     SC335908  51.156  90.085  24.790
 5525DG     BB135909  50.396  89.662  25.049
 5525DG     BB235910  50.653  89.640  25.303
 5525DG     BB335911  50.644  89.800  25.422
 5525DG     SC135912  50.836  89.967  25.252
 5525DG     SC235913  51.109  90.057  25.333
 5525DG     SC335914  51.028  90.185  25.080
 5525DG     SC435915  50.777  90.056  25.133
 5526DT     BB135916  50.619  89.735  25.596
 5526DT     BB235917  50.938  89.797  25.751
 5526DT     BB335918  50.938  89.982  25.844
 5526DT     SC135919  50.956  90.106  25.613
 5526DT     SC235920  51.150  90.197  25.596
 5526DT     SC335921  50.893  90.260  25.409
 5527DT     BB135922  50.950  89.827  26.050
 5527DT     BB235923  51.235  90.047  26.076
 5527DT     BB335924  51.174  90.232  26.146
 5527DT     SC135925  51.068  90.295  25.914
 5527DT     SC235926  51.185  90.450  25.821
 5527DT     SC335927  50.887  90.357  25.733
 5528DT     BB135928  51.299  90.167  26.371
 5528DT     BB235929  51.443  90.484  26.274
 5528DT     BB335930  51.321  90.639  26.337
 5528DT     SC135931  51.147  90.590  26.148
 5528DT     SC235932  51.150  90.749  26.003
 5528DT     SC335933  50.920  90.523  26.031
 5529DT     BB135934  51.496  90.709  26.538
 5529DT     BB235935  51.449  91.015  26.353
 5529DT     BB335936  51.285  91.117  26.426
 5529DT     SC135937  51.119  90.949  26.311
 5529DT     SC235938  51.017  91.049  26.150
 5529DT     SC335939  50.932  90.765  26.283
 5530DA     BB135940  51.585  91.412  26.457
 5530DA     BB235941  51.297  91.570  26.294
 5530DA     BB335942  51.147  91.617  26.438
 5530DA     SC135943  50.999  91.344  26.409
 5530DA     SC235944  50.782  91.261  26.318
 5530DA     SC335945  50.823  91.055  26.466
 5530DA     SC435946  51.041  91.226  26.509
 5531DT     BB135947  51.083  91.828  26.504
 5531DT     BB235948  50.771  91.831  26.323
 5531DT     BB335949  50.612  91.826  26.456
 5531DT     SC135950  50.652  91.572  26.506
 5531DT     SC235951  50.490  91.456  26.423
 5531DT     SC335952  50.708  91.351  26.639
 5532DA     BB135953  50.534  92.161  26.215
 5532DA     BB235954  50.230  91.956  26.219
 5532DA     BB335955  50.127  91.980  26.404
 5532DA     SC135956  50.273  91.744  26.545
 5532DA     SC235957  50.218  91.516  26.628
 5532DA     SC335958  50.428  91.540  26.773
 5532DA     SC435959  50.406  91.779  26.628
 5533DA     BB135960  49.875  92.056  26.207
 5533DA     BB235961  49.703  91.763  26.343
 5533DA     BB335962  49.624  91.807  26.537
 5533DA     SC135963  49.878  91.713  26.689
 5533DA     SC235964  49.945  91.525  26.838
 5533DA     SC335965  50.137  91.678  26.911
 5533DA     SC435966  49.990  91.823  26.722
 5534DA     BB135967  49.348  91.701  26.395
 5534DA     BB235968  49.346  91.431  26.644
 5534DA     BB335969  49.280  91.505  26.833
 5534DA     SC135970  49.566  91.578  26.932
 5534DA     SC235971  49.728  91.497  27.103
 5534DA     SC335972  49.836  91.729  27.080
 5534DA     SC435973  49.618  91.728  26.905
 5535DA     BB135974  49.071  91.256  26.797
 5535DA     BB235975  49.222  91.113  27.100
 5535DA     BB335976  49.151  91.216  27.273
 5535DA     SC135977  49.381  91.426  27.272
 5535DA     SC235978  49.582  91.481  27.410
 5535DA     SC335979  49.569  91.712  27.300
 5535DA     SC435980  49.356  91.564  27.194
 5536DA     BB135981  49.083  90.908  27.352
 5536DA     BB235982  49.315  90.951  27.633
 5536DA     BB335983  49.225  91.070  27.786
 5536DA     SC135984  49.331  91.340  27.672
 5536DA     SC235985  49.497  91.514  27.736
 5536DA     SC335986  49.366  91.668  27.577
 5536DA     SC435987  49.235  91.420  27.570
 5537DT     BB135988  49.197  90.976  27.949
 5537DT     BB235989  49.468  91.130  28.131
 5537DT     BB335990  49.394  91.275  28.260
 5537DT     SC135991  49.350  91.440  28.061
 5537DT     SC235992  49.488  91.605  28.074
 5537DT     SC335993  49.221  91.594  27.890
 5538DA     BB135994  49.664  91.012  28.443
 5538DA     BB235995  49.762  91.356  28.523
 5538DA     BB335996  49.620  91.445  28.655
 5538DA     SC135997  49.444  91.561  28.427
 5538DA     SC235998  49.387  91.785  28.333
 5538DA     SC335999  49.181  91.669  28.233
 5538DA     SC436000  49.321  91.471  28.375
 5539DA     BB136001  49.927  91.486  28.760
 5539DA     BB236002  49.849  91.844  28.746
 5539DA     BB336003  49.698  91.893  28.889
 5539DA     SC136004  49.462  91.846  28.692
 5539DA     SC236005  49.291  91.984  28.573
 5539DA     SC336006  49.161  91.764  28.550
 5539DA     SC436007  49.396  91.700  28.689
 5540DG     BB136008  49.948  92.068  28.930
 5540DG     BB236009  49.707  92.329  28.864
 5540DG     BB336010  49.580  92.344  29.016
 5540DG     SC136011  49.381  92.142  28.900
 5540DG     SC236012  49.105  92.203  28.805
 5540DG     SC336013  49.151  91.911  28.814
 5540DG     SC436014  49.399  91.987  28.935
 5541DA     BB136015  49.667  92.678  28.969
 5541DA     BB236016  49.311  92.761  28.946
 5541DA     BB336017  49.215  92.730  29.134
 5541DA     SC136018  49.137  92.435  29.073
 5541DA     SC236019  48.930  92.304  29.028
 5541DA     SC336020  49.069  92.099  29.094
 5541DA     SC436021  49.240  92.320  29.119
 5542DA     BB136022  49.115  93.045  29.093
 5542DA     BB236023  48.771  92.924  29.128
 5542DA     BB336024  48.730  92.874  29.331
 5542DA     SC136025  48.818  92.577  29.302
 5542DA     SC236026  48.712  92.352  29.301
 5542DA     SC336027  48.946  92.263  29.354
 5542DA     SC436028  48.972  92.541  29.336
 5543DC     BB136029  48.589  92.986  29.488
 5543DC     BB236030  48.325  92.741  29.497
 5543DC     BB336031  48.322  92.648  29.682
 5543DC     SC136032  48.536  92.507  29.624
 5543DC     SC236033  48.481  92.300  29.602
 5543DC     SC336034  48.783  92.415  29.635
 5544DT     BB136035  48.090  92.780  29.814
 5544DT     BB236036  48.008  92.429  29.840
 5544DT     BB336037  48.068  92.356  30.025
 5544DT     SC136038  48.320  92.356  29.952
 5544DT     SC236039  48.389  92.153  29.932
 5544DT     SC336040  48.577  92.417  29.946
 5545DA     BB136041  47.661  92.252  30.027
 5545DA     BB236042  47.848  91.949  30.111
 5545DA     BB336043  47.906  91.952  30.316
 5545DA     SC136044  48.179  92.091  30.261
 5545DA     SC236045  48.421  92.032  30.269
 5545DA     SC336046  48.462  92.285  30.281
 5545DA     SC436047  48.184  92.252  30.269
 5546DG     BB136048  47.736  91.695  30.340
 5546DG     BB236049  48.057  91.542  30.402
 5546DG     BB336050  48.104  91.557  30.595
 5546DG     SC136051  48.246  91.827  30.564
 5546DG     SC236052  48.538  91.876  30.601
 5546DG     SC336053  48.392  92.131  30.569
 5546DG     SC436054  48.161  91.961  30.576
 5547DA     BB136055  48.159  91.225  30.548
 5547DA     BB236056  48.508  91.272  30.652
 5547DA     BB336057  48.519  91.304  30.862
 5547DA     SC136058  48.496  91.614  30.841
 5547DA     SC236059  48.642  91.813  30.876
 5547DA     SC336060  48.423  91.945  30.894
 5547DA     SC436061  48.349  91.678  30.850
 5548DT     BB136062  48.610  91.171  30.924
 5548DT     BB236063  48.912  91.352  31.005
 5548DT     BB336064  48.908  91.411  31.204
 5548DT     SC136065  48.734  91.600  31.153
 5548DT     SC236066  48.829  91.792  31.175
 5548DT     SC336067  48.509  91.739  31.157
 5549DA     BB136068  49.275  91.230  31.101
 5549DA     BB236069  49.345  91.530  31.299
 5549DA     BB336070  49.281  91.502  31.501
 5549DA     SC136071  48.995  91.616  31.452
 5549DA     SC236072  48.864  91.818  31.515
 5549DA     SC336073  48.658  91.677  31.458
 5549DA     SC436074  48.880  91.511  31.413
 5550DA     BB136075  49.594  91.591  31.578
 5550DA     BB236076  49.453  91.858  31.786
 5550DA     BB336077  49.371  91.777  31.965
 5550DA     SC136078  49.086  91.737  31.845
 5550DA     SC236079  48.859  91.837  31.872
 5550DA     SC336080  48.774  91.619  31.765
 5550DA     SC436081  49.053  91.595  31.779
 5551DA     BB136082  49.564  91.962  32.193
 5551DA     BB236083  49.257  92.103  32.336
 5551DA     BB336084  49.176  91.971  32.483
 5551DA     SC136085  48.996  91.818  32.281
 5551DA     SC236086  48.753  91.795  32.231
 5551DA     SC336087  48.819  91.579  32.110
 5551DA     SC436088  49.057  91.686  32.212
 5552DA     BB136089  49.175  92.174  32.781
 5552DA     BB236090  48.809  92.154  32.792
 5552DA     BB336091  48.747  91.985  32.907
 5552DA     SC136092  48.739  91.791  32.664
 5552DA     SC236093  48.567  91.671  32.529
 5552DA     SC336094  48.760  91.518  32.457
 5552DA     SC436095  48.872  91.706  32.632
 5553DT     BB136096  48.623  91.948  33.154
 5553DT     BB236097  48.301  91.871  33.011
 5553DT     BB336098  48.245  91.679  33.064
 5553DT     SC136099  48.415  91.574  32.893
 5553DT     SC236100  48.306  91.482  32.732
 5553DT     SC336101  48.620  91.437  32.800
 5554DG     BB136102  47.937  91.889  33.240
 5554DG     BB236103  47.807  91.643  33.009
 5554DG     BB336104  47.789  91.467  33.100
 5554DG     SC136105  48.071  91.373  33.030
 5554DG     SC236106  48.141  91.148  32.846
 5554DG     SC336107  48.381  91.247  32.987
 5554DG     SC436108  48.192  91.409  33.129
 5555DT     BB136109  47.586  91.363  33.125
 5555DT     BB236110  47.611  91.118  32.862
 5555DT     BB336111  47.637  90.929  32.943
 5555DT     SC136112  47.887  90.981  33.003
 5555DT     SC236113  48.016  90.864  32.878
 5555DT     SC336114  48.104  91.021  33.147
 5556DC     BB136115  47.393  90.888  32.852
 5556DC     BB236116  47.601  90.644  32.686
 5556DC     BB336117  47.627  90.479  32.809
 5556DC     SC136118  47.796  90.610  32.962
 5556DC     SC236119  47.993  90.530  32.935
 5556DC     SC336120  47.898  90.726  33.175
 5557DA     BB136121  47.521  90.386  32.413
 5557DA     BB236122  47.807  90.179  32.510
 5557DA     BB336123  47.748  90.037  32.658
 5557DA     SC136124  47.816  90.222  32.898
 5557DA     SC236125  47.986  90.233  33.081
 5557DA     SC336126  47.818  90.387  33.200
 5557DA     SC436127  47.698  90.314  32.957
 5558DT     BB136128  47.768  89.874  32.590
 5558DT     BB236129  48.054  89.772  32.785
 5558DT     BB336130  47.992  89.663  32.949
 5558DT     SC136131  47.908  89.880  33.071
 5558DT     SC236132  48.036  89.922  33.239
 5558DT     SC336133  47.745  90.054  33.184
 5559DA     BB136134  48.294  89.448  32.751
 5559DA     BB236135  48.369  89.445  33.109
 5559DA     BB336136  48.231  89.320  33.213
 5559DA     SC136137  48.028  89.549  33.270
 5559DA     SC236138  47.947  89.679  33.467
 5559DA     SC336139  47.744  89.736  33.320
 5559DA     SC436140  47.910  89.572  33.163
 5560DA     BB136141  48.503  89.169  33.328
 5560DA     BB236142  48.390  89.255  33.666
 5560DA     BB336143  48.232  89.126  33.727
 5560DA     SC136144  48.007  89.311  33.617
 5560DA     SC236145  47.826  89.455  33.709
 5560DA     SC336146  47.719  89.435  33.477
 5560DA     SC436147  47.955  89.284  33.467
 5561DA     BB136148  48.411  89.043  33.998
 5561DA     BB236149  48.140  89.178  34.205
 5561DA     BB336150  47.983  89.035  34.223
 5561DA     SC136151  47.828  89.139  33.974
 5561DA     SC236152  47.615  89.261  33.927
 5561DA     SC336153  47.638  89.166  33.689
 5561DA     SC436154  47.859  89.070  33.833
 5562DG     BB136155  48.027  89.023  34.538
 5562DG     BB236156  47.696  89.168  34.549
 5562DG     BB336157  47.559  89.024  34.545
 5562DG     SC136158  47.538  89.017  34.239
 5562DG     SC236159  47.300  89.098  34.078
 5562DG     SC336160  47.505  88.970  33.907
 5562DG     SC436161  47.637  88.922  34.157
 5563DA     BB136162  47.413  89.157  34.833
 5563DA     BB236163  47.101  89.218  34.650
 5563DA     BB336164  46.988  89.038  34.633
 5563DA     SC136165  47.117  88.953  34.363
 5563DA     SC236166  47.047  88.933  34.124
 5563DA     SC336167  47.249  88.777  34.100
 5563DA     SC436168  47.246  88.858  34.368
 5564DA     BB136169  46.765  89.236  34.763
 5564DA     BB236170  46.571  89.184  34.457
 5564DA     BB336171  46.481  88.991  34.458
 5564DA     SC136172  46.720  88.852  34.316
 5564DA     SC236173  46.768  88.748  34.094
 5564DA     SC336174  46.962  88.629  34.215
 5564DA     SC436175  46.834  88.786  34.409
 5565DT     BB136176  46.294  88.999  34.461
 5565DT     BB236177  46.240  88.904  34.118
 5565DT     BB336178  46.186  88.705  34.107
 5565DT     SC136179  46.433  88.628  34.155
 5565DT     SC236180  46.515  88.538  33.977
 5565DT     SC336181  46.639  88.516  34.276
 5566DA     BB136182  45.928  88.949  33.884
 5566DA     BB236183  46.027  88.664  33.676
 5566DA     BB336184  45.939  88.484  33.749
 5566DA     SC136185  46.178  88.415  33.937
 5566DA     SC236186  46.360  88.245  33.949
 5566DA     SC336187  46.374  88.309  34.198
 5566DA     SC436188  46.170  88.468  34.089
 5567DA     BB136189  45.860  88.485  33.431
 5567DA     BB236190  46.035  88.163  33.411
 5567DA     BB336191  45.924  88.013  33.513
 5567DA     SC136192  46.066  88.059  33.786
 5567DA     SC236193  46.227  87.938  33.934
 5567DA     SC336194  46.139  88.092  34.120
 5567DA     SC436195  45.998  88.163  33.889
 5568DT     BB136196  45.844  87.865  33.405
 5568DT     BB236197  46.066  87.601  33.512
 5568DT     BB336198  45.970  87.480  33.650
 5568DT     SC136199  45.995  87.662  33.838
 5568DT     SC236200  46.136  87.593  33.985
 5568DT     SC336201  45.930  87.841  34.020
 5569DA     BB136202  46.097  87.201  33.360
 5569DA     BB236203  46.192  87.067  33.688
 5569DA     BB336204  46.021  86.989  33.789
 5569DA     SC136205  45.952  87.256  33.932
 5569DA     SC236206  45.956  87.348  34.163
 5569DA     SC336207  45.791  87.524  34.075
 5569DA     SC436208  45.849  87.356  33.858
 5570DT     BB136209  45.969  86.761  33.838
 5570DT     BB236210  46.043  86.780  34.190
 5570DT     BB336211  45.868  86.760  34.300
 5570DT     SC136212  45.792  87.004  34.239
 5570DT     SC236213  45.802  87.127  34.415
 5570DT     SC336214  45.650  87.201  34.138
 5571DT     BB136215  45.901  86.486  34.396
 5571DT     BB236216  45.864  86.678  34.699
 5571DT     BB336217  45.666  86.678  34.759
 5571DT     SC136218  45.600  86.848  34.570
 5571DT     SC236219  45.550  87.037  34.658
 5571DT     SC336220  45.485  86.946  34.354
 5572DA     BB136221  45.885  86.549  35.092
 5572DA     BB236222  45.672  86.828  35.200
 5572DA     BB336223  45.470  86.763  35.219
 5572DA     SC136224  45.393  86.833  34.926
 5572DA     SC236225  45.252  87.001  34.807
 5572DA     SC336226  45.257  86.836  34.611
 5572DA     SC436227  45.407  86.717  34.816
 5573DA     BB136228  45.522  86.896  35.512
 5573DA     BB236229  45.260  87.137  35.424
 5573DA     BB336230  45.068  87.046  35.438
 5573DA     SC136231  45.064  86.952  35.142
 5573DA     SC236232  44.942  87.009  34.932
 5573DA     SC336233  45.016  86.777  34.850
 5573DA     SC436234  45.119  86.805  35.110
 5574DT     BB136235  44.958  87.123  35.573
 5574DT     BB236236  44.742  87.307  35.351
 5574DT     BB336237  44.562  87.206  35.328
 5574DT     SC136238  44.673  87.027  35.172
 5574DT     SC236239  44.600  87.052  34.971
 5574DT     SC336240  44.760  86.794  35.084
 5575DT     BB136241  44.457  87.405  35.469
 5575DT     BB236242  44.278  87.405  35.156
 5575DT     BB336243  44.125  87.265  35.162
 5575DT     SC136244  44.295  87.067  35.136
 5575DT     SC236245  44.270  86.977  34.942
 5575DT     SC336246  44.433  86.849  35.192
 5576DT     BB136247  43.961  87.473  35.168
 5576DT     BB236248  43.863  87.283  34.877
 5576DT     BB336249  43.736  87.129  34.932
 5576DT     SC136250  43.935  86.991  35.033
 5576DT     SC236251  43.972  86.818  34.910
 5576DT     SC336252  44.086  86.866  35.209
 5577DG     BB136253  43.556  87.362  34.651
 5577DG     BB236254  43.555  87.013  34.558
 5577DG     BB336255  43.417  86.915  34.662
 5577DG     SC136256  43.606  86.845  34.893
 5577DG     SC236257  43.700  86.571  34.966
 5577DG     SC336258  43.780  86.768  35.171
 5577DG     SC436259  43.622  86.948  35.014
 5578DT     BB136260  43.267  86.825  34.553
 5578DT     BB236261  43.358  86.477  34.575
 5578DT     BB336262  43.244  86.383  34.720
 5578DT     SC136263  43.382  86.496  34.912
 5578DT     SC236264  43.500  86.346  35.013
 5578DT     SC336265  43.440  86.645  35.122
 5579DC     BB136266  43.136  86.263  34.514
 5579DC     BB236267  43.264  85.998  34.723
 5579DC     BB336268  43.131  85.959  34.876
 5579DC     SC136269  43.200  86.177  35.003
 5579DC     SC236270  43.308  86.125  35.182
 5579DC     SC336271  43.183  86.416  35.114
 5580DT     BB136272  43.102  85.738  34.742
 5580DT     BB236273  43.200  85.638  35.075
 5580DT     BB336274  43.037  85.645  35.202
 5580DT     SC136275  43.045  85.907  35.211
 5580DT     SC236276  43.108  85.969  35.407
 5580DT     SC336277  42.973  86.159  35.181
 5581DT     BB136278  43.062  85.384  35.196
 5581DT     BB236279  43.074  85.474  35.546
 5581DT     BB336280  42.882  85.504  35.618
 5581DT     SC136281  42.864  85.735  35.495
 5581DT     SC236282  42.864  85.893  35.641
 5581DT     SC336283  42.780  85.922  35.329
 5582DG     BB136284  43.065  85.218  35.846
 5582DG     BB236285  42.915  85.477  36.049
 5582DG     BB336286  42.717  85.455  36.053
 5582DG     SC136287  42.669  85.630  35.806
 5582DG     SC236288  42.530  85.894  35.804
 5582DG     SC336289  42.581  85.799  35.528
 5582DG     SC436290  42.671  85.562  35.661
 5583DT     BB136291  42.598  85.408  36.241
 5583DT     BB236292  42.438  85.725  36.307
 5583DT     BB336293  42.239  85.716  36.252
 5583DT     SC136294  42.301  85.729  35.997
 5583DT     SC236295  42.238  85.919  35.918
 5583DT     SC336296  42.325  85.660  35.744
 5584DA     BB136297  42.229  85.848  36.651
 5584DA     BB236298  42.018  86.074  36.454
 5584DA     BB336299  41.834  85.979  36.405
 5584DA     SC136300  41.938  85.862  36.136
 5584DA     SC236301  41.900  85.898  35.892
 5584DA     SC336302  41.999  85.663  35.863
 5584DA     SC436303  42.000  85.714  36.139
 5585DG     BB136304  41.702  86.211  36.566
 5585DG     BB236305  41.571  86.300  36.241
 5585DG     BB336306  41.407  86.194  36.202
 5585DG     SC136307  41.559  85.963  36.070
 5585DG     SC236308  41.545  85.887  35.782
 5585DG     SC336309  41.694  85.684  35.937
 5585DG     SC436310  41.612  85.843  36.161
 5586DG     BB136311  41.260  86.481  36.168
 5586DG     BB236312  41.210  86.383  35.823
 5586DG     BB336313  41.053  86.262  35.809
 5586DG     SC136314  41.216  86.006  35.851
 5586DG     SC236315  41.261  85.792  35.647
 5586DG     SC336316  41.359  85.708  35.913
 5586DG     SC436317  41.240  85.953  36.000
 5587DA     BB136318  40.984  86.491  35.562
 5587DA     BB236319  40.978  86.216  35.320
 5587DA     BB336320  40.806  86.093  35.351
 5587DA     SC136321  40.949  85.900  35.548
 5587DA     SC236322  41.028  85.663  35.550
 5587DA     SC336323  41.026  85.686  35.806
 5587DA     SC436324  40.940  85.933  35.705
 5588DT     BB136325  40.709  86.105  35.206
 5588DT     BB236326  40.771  85.774  35.079
 5588DT     BB336327  40.621  85.645  35.141
 5588DT     SC136328  40.719  85.637  35.384
 5588DT     SC236329  40.801  85.441  35.422
 5588DT     SC336330  40.736  85.667  35.646
 5589DG     BB136331  40.654  85.638  34.733
 5589DG     BB236332  40.655  85.305  34.875
 5589DG     BB336333  40.472  85.256  34.935
 5589DG     SC136334  40.509  85.368  35.218
 5589DG     SC236335  40.516  85.209  35.470
 5589DG     SC336336  40.508  85.499  35.529
 5589DG     SC436337  40.474  85.522  35.245
 5590DT     BB136338  40.354  85.088  34.845
 5590DT     BB236339  40.361  84.840  35.107
 5590DT     BB336340  40.180  84.839  35.208
 5590DT     SC136341  40.240  85.063  35.332
 5590DT     SC236342  40.272  85.022  35.541
 5590DT     SC336343  40.228  85.315  35.410
 5591DA     BB136344  40.188  84.430  35.094
 5591DA     BB236345  40.104  84.437  35.451
 5591DA     BB336346  39.898  84.489  35.477
 5591DA     SC136347  39.952  84.795  35.496
 5591DA     SC236348  39.945  84.973  35.670
 5591DA     SC336349  39.933  85.137  35.472
 5591DA     SC436350  39.944  84.880  35.360
 5592DA     BB136351  39.812  84.204  35.653
 5592DA     BB236352  39.739  84.415  35.944
 5592DA     BB336353  39.538  84.486  35.935
 5592DA     SC136354  39.611  84.746  35.780
 5592DA     SC236355  39.619  84.991  35.825
 5592DA     SC336356  39.611  85.017  35.570
 5592DA     SC436357  39.604  84.741  35.620
 5593DA     BB136358  39.474  84.353  36.237
 5593DA     BB236359  39.425  84.693  36.364
 5593DA     BB336360  39.225  84.759  36.325
 5593DA     SC136361  39.294  84.884  36.049
 5593DA     SC236362  39.310  85.112  35.949
 5593DA     SC336363  39.286  84.992  35.723
 5593DA     SC436364  39.276  84.791  35.919
 5594DT     BB136365  39.088  84.796  36.484
 5594DT     BB236366  39.112  85.155  36.470
 5594DT     BB336367  38.937  85.235  36.395
 5594DT     SC136368  38.998  85.159  36.151
 5594DT     SC236369  39.042  85.332  36.031
 5594DT     SC336370  38.985  85.033  35.920
 5595DA     BB136371  39.038  85.429  36.751
 5595DA     BB236372  38.971  85.684  36.497
 5595DA     BB336373  38.762  85.696  36.457
 5595DA     SC136374  38.771  85.486  36.227
 5595DA     SC236375  38.745  85.484  35.979
 5595DA     SC336376  38.699  85.233  36.007
 5595DA     SC436377  38.743  85.333  36.265
 5596DT     BB136378  38.686  85.861  36.506
 5596DT     BB236379  38.644  85.993  36.173
 5596DT     BB336380  38.447  85.972  36.113
 5596DT     SC136381  38.478  85.714  36.075
 5596DT     SC236382  38.469  85.672  35.864
 5596DT     SC336383  38.447  85.454  36.102
 5597DA     BB136384  38.561  86.371  36.050
 5597DA     BB236385  38.396  86.251  35.745
 5597DA     BB336386  38.186  86.232  35.777
 5597DA     SC136387  38.203  85.935  35.870
 5597DA     SC236388  38.136  85.711  35.784
 5597DA     SC336389  38.153  85.635  36.029
 5597DA     SC436390  38.217  85.908  36.028
 5598DA     BB136391  38.168  86.425  35.510
 5598DA     BB236392  37.985  86.154  35.346
 5598DA     BB336393  37.784  86.146  35.417
 5598DA     SC136394  37.847  85.948  35.648
 5598DA     SC236395  37.799  85.710  35.706
 5598DA     SC336396  37.854  85.778  35.947
 5598DA     SC436397  37.884  86.010  35.792
 5599DT     BB136398  37.613  86.194  35.293
 5599DT     BB236399  37.499  85.855  35.248
 5599DT     BB336400  37.324  85.824  35.355
 5599DT     SC136401  37.456  85.816  35.582
 5599DT     SC236402  37.452  85.616  35.660
 5599DT     SC336403  37.537  85.882  35.824
 5600DA     BB136404  37.230  85.705  34.965
 5600DA     BB236405  37.129  85.434  35.190
 5600DA     BB336406  36.948  85.485  35.291
 5600DA     SC136407  37.091  85.617  35.534
 5600DA     SC236408  37.127  85.569  35.776
 5600DA     SC336409  37.179  85.820  35.797
 5600DA     SC436410  37.119  85.776  35.527
 5601DC     BB136411  36.777  85.377  35.253
 5601DC     BB236412  36.782  85.187  35.560
 5601DC     BB336413  36.632  85.254  35.686
 5601DC     SC136414  36.767  85.471  35.745
 5601DC     SC236415  36.833  85.461  35.949
 5601DC     SC336416  36.830  85.727  35.763
 5602DG     BB136417  36.611  84.854  35.615
 5602DG     BB236418  36.622  84.929  35.968
 5602DG     BB336419  36.447  85.001  36.028
 5602DG     SC136420  36.520  85.293  35.971
 5602DG     SC236421  36.554  85.508  36.175
 5602DG     SC336422  36.559  85.621  35.901
 5602DG     SC436423  36.492  85.353  35.825
 5603DT     BB136424  36.364  84.890  36.170
 5603DT     BB236425  36.409  85.095  36.463
 5603DT     BB336426  36.237  85.204  36.500
 5603DT     SC136427  36.289  85.368  36.302
 5603DT     SC236428  36.340  85.561  36.380
 5603DT     SC336429  36.264  85.495  36.072
 5604DA     BB136430  36.381  85.009  36.845
 5604DA     BB236431  36.308  85.358  36.929
 5604DA     BB336432  36.097  85.393  36.923
 5604DA     SC136433  36.094  85.477  36.624
 5604DA     SC236434  36.058  85.685  36.491
 5604DA     SC336435  36.010  85.527  36.294
 5604DA     SC436436  36.066  85.362  36.515
 5605DA     BB136437  36.183  85.506  37.219
 5605DA     BB236438  36.048  85.828  37.108
 5605DA     BB336439  35.835  85.819  37.096
 5605DA     SC136440  35.831  85.729  36.798
 5605DA     SC236441  35.767  85.826  36.577
 5605DA     SC336442  35.755  85.582  36.498
 5605DA     SC436443  35.828  85.572  36.768
 5606DA     BB136444  35.875  86.084  37.286
 5606DA     BB236445  35.695  86.271  37.026
 5606DA     BB336446  35.488  86.221  37.029
 5606DA     SC136447  35.517  85.987  36.825
 5606DA     SC236448  35.451  85.939  36.589
 5606DA     SC336449  35.484  85.693  36.652
 5606DA     SC436450  35.541  85.840  36.884
 5607DT     BB136451  35.361  86.363  37.080
 5607DT     BB236452  35.225  86.424  36.752
 5607DT     BB336453  35.038  86.336  36.736
 5607DT     SC136454  35.144  86.097  36.716
 5607DT     SC236455  35.115  86.022  36.516
 5607DT     SC336456  35.204  85.846  36.773
 5608DT     BB136457  34.924  86.581  36.743
 5608DT     BB236458  34.805  86.435  36.435
 5608DT     BB336459  34.636  86.320  36.472
 5608DT     SC136460  34.780  86.129  36.581
 5608DT     SC236461  34.778  85.957  36.452
 5608DT     SC336462  34.874  85.962  36.761
 5609DT     BB136463  34.487  86.508  36.349
 5609DT     BB236464  34.416  86.203  36.170
 5609DT     BB336465  34.265  86.098  36.265
 5609DT     SC136466  34.429  86.022  36.456
 5609DT     SC236467  34.464  85.810  36.439
 5609DT     SC336468  34.534  85.994  36.696
 5610DA     BB136469  34.156  86.135  35.861
 5610DA     BB236470  34.113  85.784  35.959
 5610DA     BB336471  33.943  85.763  36.086
 5610DA     SC136472  34.104  85.803  36.349
 5610DA     SC236473  34.176  85.666  36.544
 5610DA     SC336474  34.205  85.890  36.665
 5610DA     SC436475  34.114  85.953  36.407
 5611DG     BB136476  33.832  85.573  35.863
 5611DG     BB236477  33.855  85.324  36.123
 5611DG     BB336478  33.695  85.332  36.241
 5611DG     SC136479  33.817  85.536  36.434
 5611DG     SC236480  33.888  85.485  36.720
 5611DG     SC336481  33.912  85.773  36.655
 5611DG     SC436482  33.800  85.692  36.404
 5612DA     BB136483  33.647  84.990  36.189
 5612DA     BB236484  33.679  84.929  36.549
 5612DA     BB336485  33.499  84.983  36.650
 5612DA     SC136486  33.587  85.276  36.704
 5612DA     SC236487  33.653  85.416  36.899
 5612DA     SC336488  33.597  85.617  36.749
 5612DA     SC436489  33.546  85.388  36.595
 5613DT     BB136490  33.379  84.837  36.742
 5613DT     BB236491  33.470  84.917  37.081
 5613DT     BB336492  33.313  85.014  37.176
 5613DT     SC136493  33.361  85.236  37.045
 5613DT     SC236494  33.437  85.384  37.181
 5613DT     SC336495  33.325  85.440  36.882
 5614DA     BB136496  33.425  84.694  37.422
 5614DA     BB236497  33.411  84.996  37.629
 5614DA     BB336498  33.208  85.051  37.666
 5614DA     SC136499  33.188  85.236  37.417
 5614DA     SC236500  33.170  85.481  37.369
 5614DA     SC336501  33.081  85.408  37.139
 5614DA     SC436502  33.134  85.172  37.280
 5615DA     BB136503  33.330  85.040  37.968
 5615DA     BB236504  33.246  85.396  37.991
 5615DA     BB336505  33.036  85.422  38.012
 5615DA     SC136506  32.984  85.442  37.705
 5615DA     SC236507  32.916  85.616  37.541
 5615DA     SC336508  32.851  85.419  37.390
 5615DA     SC436509  32.948  85.306  37.627
 5616DA     BB136510  33.164  85.594  38.257
 5616DA     BB236511  32.999  85.885  38.105
 5616DA     BB336512  32.788  85.872  38.131
 5616DA     SC136513  32.740  85.720  37.863
 5616DA     SC236514  32.637  85.766  37.641
 5616DA     SC336515  32.623  85.511  37.617
 5616DA     SC436516  32.738  85.560  37.868
 5617DT     BB136517  32.728  86.008  38.235
 5617DT     BB236518  32.565  86.199  37.976
 5617DT     BB336519  32.362  86.158  37.975
 5617DT     SC136520  32.402  85.924  37.864
 5617DT     SC236521  32.327  85.927  37.662
 5617DT     SC336522  32.407  85.663  37.831
 5618DA     BB136523  32.421  86.575  37.979
 5618DA     BB236524  32.170  86.496  37.723
 5618DA     BB336525  31.988  86.434  37.815
 5618DA     SC136526  32.064  86.132  37.816
 5618DA     SC236527  31.992  85.923  37.700
 5618DA     SC336528  32.103  85.800  37.896
 5618DA     SC436529  32.136  86.074  37.947
 5619DG     BB136530  31.860  86.680  37.669
 5619DG     BB236531  31.665  86.426  37.501
 5619DG     BB336532  31.513  86.370  37.617
 5619DG     SC136533  31.669  86.147  37.757
 5619DG     SC236534  31.616  85.854  37.733
 5619DG     SC336535  31.816  85.909  37.945
 5619DG     SC436536  31.753  86.182  37.889
 5620DT     BB136537  31.275  86.401  37.575
 5620DT     BB236538  31.174  86.065  37.491
 5620DT     BB336539  31.064  85.984  37.646
 5620DT     SC136540  31.279  85.949  37.792
 5620DT     SC236541  31.321  85.739  37.809
 5620DT     SC336542  31.452  85.974  37.990
 5621DT     BB136543  30.795  86.004  37.534
 5621DT     BB236544  30.823  85.654  37.616
 5621DT     BB336545  30.746  85.618  37.804
 5621DT     SC136546  30.956  85.726  37.919
 5621DT     SC236547  31.070  85.573  38.018
 5621DT     SC336548  31.103  85.893  38.062
 5622DA     BB136549  30.521  85.347  37.574
 5622DA     BB236550  30.663  85.158  37.855
 5622DA     BB336551  30.550  85.194  38.032
 5622DA     SC136552  30.723  85.435  38.123
 5622DA     SC236553  30.887  85.488  38.304
 5622DA     SC336554  30.834  85.733  38.253
 5622DA     SC436555  30.676  85.582  38.078
 5623DA     BB136556  30.523  84.866  38.040
 5623DA     BB236557  30.713  84.876  38.354
 5623DA     BB336558  30.586  84.931  38.516
 5623DA     SC136559  30.640  85.236  38.487
 5623DA     SC236560  30.758  85.415  38.614
 5623DA     SC336561  30.613  85.578  38.479
 5623DA     SC436562  30.540  85.321  38.394
 5624DA     BB136563  30.717  84.656  38.628
 5624DA     BB236564  30.861  84.859  38.897
 5624DA     BB336565  30.710  84.912  39.038
 5624DA     SC136566  30.634  85.177  38.895
 5624DA     SC236567  30.656  85.422  38.936
 5624DA     SC336568  30.466  85.447  38.765
 5624DA     SC436569  30.514  85.172  38.787
 5625DG     BB136570  30.910  84.761  39.215
 5625DG     BB236571  30.943  85.086  39.371
 5625DG     BB336572  30.790  85.118  39.494
 5625DG     SC136573  30.614  85.247  39.279
 5625DG     SC236574  30.527  85.532  39.272
 5625DG     SC336575  30.386  85.374  39.065
 5625DG     SC436576  30.519  85.153  39.190
 5626DT     BB136577  30.840  85.147  39.691
 5626DT     BB236578  30.785  85.501  39.733
 5626DT     BB336579  30.600  85.534  39.820
 5626DT     SC136580  30.476  85.478  39.596
 5626DT     SC236581  30.388  85.657  39.517
 5626DT     SC336582  30.319  85.355  39.424
 5627DA     BB136583  30.888  85.747  40.040
 5627DA     BB236584  30.607  85.973  39.972
 5627DA     BB336585  30.438  85.919  40.091
 5627DA     SC136586  30.319  85.726  39.878
 5627DA     SC236587  30.122  85.719  39.725
 5627DA     SC336588  30.163  85.465  39.717
 5627DA     SC436589  30.360  85.571  39.887
 5628DA     BB136590  30.453  86.235  40.183
 5628DA     BB236591  30.115  86.273  40.047
 5628DA     BB336592  29.971  86.187  40.180
 5628DA     SC136593  29.981  85.906  40.046
 5628DA     SC236594  29.831  85.763  39.907
 5628DA     SC336595  29.980  85.568  39.985
 5628DA     SC436596  30.084  85.799  40.106
 5629DA     BB136597  29.828  86.485  40.167
 5629DA     BB236598  29.534  86.319  40.024
 5629DA     BB336599  29.422  86.220  40.177
 5629DA     SC136600  29.574  85.950  40.147
 5629DA     SC236601  29.526  85.720  40.064
 5629DA     SC336602  29.730  85.650  40.204
 5629DA     SC436603  29.702  85.926  40.241
 5630DA     BB136604  29.170  86.399  40.063
 5630DA     BB236605  29.006  86.082  39.977
 5630DA     BB336606  28.921  85.993  40.152
 5630DA     SC136607  29.176  85.829  40.221
 5630DA     SC236608  29.247  85.590  40.222
 5630DA     SC336609  29.431  85.666  40.383
 5630DA     SC436610  29.283  85.895  40.321
 5631DT     BB136611  28.716  85.975  40.167
 5631DT     BB236612  28.701  85.621  40.101
 5631DT     BB336613  28.659  85.518  40.275
 5631DT     SC136614  28.903  85.554  40.365
 5631DT     SC236615  29.007  85.366  40.367
 5631DT     SC336616  29.101  85.637  40.518
 5632DA     BB136617  28.404  85.398  39.965
 5632DA     BB236618  28.548  85.099  40.119
 5632DA     BB336619  28.466  85.069  40.314
 5632DA     SC136620  28.686  85.235  40.459
 5632DA     SC236621  28.878  85.193  40.612
 5632DA     SC336622  28.859  85.442  40.671
 5632DA     SC436623  28.657  85.391  40.483
 5633DA     BB136624  28.425  84.783  40.163
 5633DA     BB236625  28.635  84.641  40.428
 5633DA     BB336626  28.529  84.638  40.613
 5633DA     SC136627  28.627  84.919  40.702
 5633DA     SC236628  28.779  85.015  40.875
 5633DA     SC336629  28.651  85.234  40.836
 5633DA     SC436630  28.535  85.045  40.665
 5634DA     BB136631  28.644  84.335  40.571
 5634DA     BB236632  28.821  84.387  40.888
 5634DA     BB336633  28.682  84.393  41.050
 5634DA     SC136634  28.641  84.701  41.036
 5634DA     SC236635  28.698  84.901  41.173
 5634DA     SC336636  28.511  85.019  41.043
 5634DA     SC436637  28.520  84.756  40.945
 5635DA     BB136638  28.906  84.173  41.142
 5635DA     BB236639  28.963  84.389  41.432
 5635DA     BB336640  28.795  84.382  41.564
 5635DA     SC136641  28.649  84.622  41.429
 5635DA     SC236642  28.591  84.858  41.486
 5635DA     SC336643  28.414  84.837  41.301
 5635DA     SC436644  28.544  84.589  41.312
 5636DG     BB136645  29.019  84.285  41.754
 5636DG     BB236646  28.930  84.586  41.934
 5636DG     BB336647  28.763  84.557  42.037
 5636DG     SC136648  28.578  84.647  41.810
 5636DG     SC236649  28.406  84.891  41.811
 5636DG     SC336650  28.346  84.720  41.577
 5636DG     SC436651  28.528  84.539  41.704
 5637DG     BB136652  28.929  84.637  42.310
 5637DG     BB236653  28.694  84.910  42.345
 5637DG     BB336654  28.525  84.844  42.426
 5637DG     SC136655  28.394  84.776  42.158
 5637DG     SC236656  28.156  84.912  42.040
 5637DG     SC336657  28.228  84.671  41.884
 5637DG     SC436658  28.418  84.630  42.095
 5638DA     BB136659  28.550  85.096  42.669
 5638DA     BB236660  28.225  85.231  42.566
 5638DA     BB336661  28.067  85.109  42.643
 5638DA     SC136662  28.056  84.924  42.393
 5638DA     SC236663  27.900  84.879  42.203
 5638DA     SC336664  28.025  84.657  42.179
 5638DA     SC436665  28.145  84.790  42.395
 5639DG     BB136666  27.958  85.357  42.809
 5639DG     BB236667  27.668  85.322  42.596
 5639DG     BB336668  27.543  85.188  42.673
 5639DG     SC136669  27.670  84.950  42.527
 5639DG     SC236670  27.541  84.786  42.314
 5639DG     SC336671  27.796  84.664  42.400
 5639DG     SC436672  27.791  84.872  42.597
 5640DA     BB136673  27.270  85.414  42.666
 5640DA     BB236674  27.087  85.192  42.438
 5640DA     BB336675  26.994  85.034  42.547
 5640DA     SC136676  27.236  84.841  42.520
 5640DA     SC236677  27.291  84.629  42.401
 5640DA     SC336678  27.478  84.603  42.575
 5640DA     SC436679  27.346  84.842  42.638
 5641DA     BB136680  26.705  85.130  42.411
 5641DA     BB236681  26.691  84.803  42.247
 5641DA     BB336682  26.618  84.655  42.383
 5641DA     SC136683  26.901  84.577  42.486
 5641DA     SC236684  27.056  84.382  42.471
 5641DA     SC336685  27.168  84.481  42.679
 5641DA     SC436686  26.956  84.653  42.617
 5642DA     BB136687  26.401  84.604  42.142
 5642DA     BB236688  26.545  84.267  42.112
 5642DA     BB336689  26.473  84.142  42.269
 5642DA     SC136690  26.707  84.211  42.463
 5642DA     SC236691  26.906  84.096  42.560
 5642DA     SC336692  26.899  84.280  42.739
 5642DA     SC436693  26.685  84.333  42.565
 5643DA     BB136694  26.405  83.968  42.003
 5643DA     BB236695  26.633  83.715  42.138
 5643DA     BB336696  26.543  83.615  42.304
 5643DA     SC136697  26.655  83.812  42.516
 5643DA     SC236698  26.823  83.810  42.700
 5643DA     SC336699  26.698  84.015  42.790
 5643DA     SC436700  26.563  83.938  42.557
 5644DA     BB136701  26.642  83.375  42.106
 5644DA     BB236702  26.851  83.264  42.386
 5644DA     BB336703  26.729  83.182  42.541
 5644DA     SC136704  26.693  83.452  42.690
 5644DA     SC236705  26.768  83.556  42.904
 5644DA     SC336706  26.570  83.717  42.872
 5644DA     SC436707  26.565  83.541  42.653
 5645DT     BB136708  26.766  83.004  42.564
 5645DT     BB236709  26.942  83.033  42.878
 5645DT     BB336710  26.813  82.991  43.035
 5645DT     SC136711  26.693  83.223  43.009
 5645DT     SC236712  26.741  83.347  43.178
 5645DT     SC336713  26.503  83.400  42.964
 5646DT     BB136714  26.950  82.765  43.067
 5646DT     BB236715  26.967  82.929  43.387
 5646DT     BB336716  26.796  82.889  43.496
 5646DT     SC136717  26.654  83.053  43.350
 5646DT     SC236718  26.599  83.225  43.467
 5646DT     SC336719  26.469  83.140  43.183
 5647DA     BB136720  27.117  82.788  43.748
 5647DA     BB236721  26.885  82.995  43.942
 5647DA     BB336722  26.710  82.884  43.992
 5647DA     SC136723  26.553  82.967  43.737
 5647DA     SC236724  26.357  83.109  43.679
 5647DA     SC336725  26.348  82.973  43.461
 5647DA     SC436726  26.564  82.871  43.608
 5648DA     BB136727  26.780  82.969  44.305
 5648DA     BB236728  26.458  83.144  44.312
 5648DA     BB336729  26.298  83.005  44.336
 5648DA     SC136730  26.255  82.962  44.031
 5648DA     SC236731  26.083  83.018  43.860
 5648DA     SC336732  26.190  82.830  43.721
 5648DA     SC436733  26.335  82.841  43.961
 5649DA     BB136734  26.214  83.191  44.597
 5649DA     BB236735  25.901  83.265  44.422
 5649DA     BB336736  25.765  83.101  44.441
 5649DA     SC136737  25.861  82.958  44.183
 5649DA     SC236738  25.773  82.909  43.954
 5649DA     SC336739  25.952  82.725  43.947
 5649DA     SC436740  25.978  82.848  44.198
 5650DT     BB136741  25.592  83.130  44.546
 5650DT     BB236742  25.377  83.153  44.257
 5650DT     BB336743  25.264  82.980  44.238
 5650DT     SC136744  25.472  82.845  44.151
 5650DT     SC236745  25.444  82.798  43.943
 5650DT     SC336746  25.664  82.665  44.140
 5651DG     BB136747  25.027  83.309  44.255
 5651DG     BB236748  24.962  83.109  43.961
 5651DG     BB336749  24.857  82.947  44.010
 5651DG     SC136750  25.104  82.775  44.064
 5651DG     SC236751  25.190  82.537  43.905
 5651DG     SC336752  25.352  82.563  44.151
 5651DG     SC436753  25.168  82.775  44.211
 5652DT     BB136754  24.697  82.950  43.910
 5652DT     BB236755  24.756  82.691  43.666
 5652DT     BB336756  24.683  82.510  43.736
 5652DT     SC136757  24.883  82.485  43.904
 5652DT     SC236758  25.010  82.324  43.840
 5652DT     SC336759  25.015  82.465  44.132
 5653DT     BB136760  24.521  82.555  43.540
 5653DT     BB236761  24.677  82.237  43.471
 5653DT     BB336762  24.591  82.089  43.588
 5653DT     SC136763  24.716  82.175  43.802
 5653DT     SC236764  24.865  82.030  43.860
 5653DT     SC336765  24.756  82.275  44.043
 5654DT     BB136766  24.501  82.011  43.357
 5654DT     BB236767  24.683  81.730  43.491
 5654DT     BB336768  24.567  81.631  43.631
 5654DT     SC136769  24.605  81.821  43.808
 5654DT     SC236770  24.730  81.746  43.967
 5654DT     SC336771  24.554  82.018  43.976
 5655DC     BB136772  24.556  81.442  43.449
 5655DC     BB236773  24.691  81.284  43.745
 5655DC     BB336774  24.538  81.235  43.874
 5655DC     SC136775  24.507  81.485  43.946
 5655DC     SC236776  24.572  81.510  44.150
 5655DC     SC336777  24.395  81.721  43.980
 5656DC     BB136778  24.592  80.985  43.809
 5656DC     BB236779  24.625  80.999  44.168
 5656DC     BB336780  24.439  80.983  44.257
 5656DC     SC136781  24.377  81.229  44.190
 5656DC     SC236782  24.369  81.351  44.368
 5656DC     SC336783  24.253  81.432  44.076
 5657DA     BB136784  24.706  80.710  44.433
 5657DA     BB236785  24.532  80.891  44.700
 5657DA     BB336786  24.327  80.832  44.708
 5657DA     SC136787  24.230  81.053  44.511
 5657DA     SC236788  24.095  81.262  44.520
 5657DA     SC336789  24.067  81.231  44.267
 5657DA     SC436790  24.223  81.015  44.355
 5658DA     BB136791  24.422  80.789  45.019
 5658DA     BB236792  24.163  81.033  45.108
 5658DA     BB336793  23.969  80.946  45.083
 5658DA     SC136794  23.938  81.039  44.788
 5658DA     SC236795  23.801  81.204  44.659
 5658DA     SC336796  23.861  81.062  44.454
 5658DA     SC436797  23.985  80.938  44.673
 5659DC     BB136798  23.871  80.926  45.245
 5659DC     BB236799  23.631  81.189  45.188
 5659DC     BB336800  23.453  81.109  45.119
 5659DC     SC136801  23.555  81.066  44.881
 5659DC     SC236802  23.464  81.200  44.739
 5659DC     SC336803  23.641  80.937  44.668
 5660DC     BB136804  23.339  81.162  45.358
 5660DC     BB236805  23.127  81.327  45.118
 5660DC     BB336806  22.988  81.193  45.042
 5660DC     SC136807  23.171  81.076  44.893
 5660DC     SC236808  23.133  81.120  44.686
 5660DC     SC336809  23.332  80.890  44.799
 5661DC     BB136810  22.778  81.303  45.185
 5661DC     BB236811  22.666  81.314  44.842
 5661DC     BB336812  22.572  81.136  44.793
 5661DC     SC136813  22.801  81.009  44.779
 5661DC     SC236814  22.842  80.958  44.574
 5661DC     SC336815  22.993  80.837  44.834
 5662DG     BB136816  22.264  81.403  44.733
 5662DG     BB236817  22.309  81.195  44.441
 5662DG     BB336818  22.216  81.021  44.467
 5662DG     SC136819  22.457  80.882  44.594
 5662DG     SC236820  22.612  80.657  44.475
 5662DG     SC336821  22.694  80.705  44.755
 5662DG     SC436822  22.477  80.891  44.753
 5663DA     BB136823  22.032  81.054  44.166
 5663DA     BB236824  22.187  80.751  44.031
 5663DA     BB336825  22.088  80.577  44.106
 5663DA     SC136826  22.274  80.548  44.353
 5663DA     SC236827  22.451  80.391  44.433
 5663DA     SC336828  22.402  80.487  44.666
 5663DA     SC436829  22.228  80.619  44.490
 5664DA     BB136830  22.043  80.490  43.788
 5664DA     BB236831  22.249  80.195  43.855
 5664DA     BB336832  22.133  80.044  43.952
 5664DA     SC136833  22.202  80.142  44.239
 5664DA     SC236834  22.335  80.062  44.434
 5664DA     SC336835  22.191  80.224  44.572
 5664DA     SC436836  22.101  80.247  44.308
 5665DA     BB136837  22.231  79.848  43.704
 5665DA     BB236838  22.401  79.641  43.955
 5665DA     BB336839  22.260  79.515  44.054
 5665DA     SC136840  22.199  79.719  44.280
 5665DA     SC236841  22.241  79.741  44.525
 5665DA     SC336842  22.047  79.909  44.523
 5665DA     SC436843  22.075  79.819  44.258
 5666DT     BB136844  22.265  79.301  44.031
 5666DT     BB236845  22.409  79.232  44.354
 5666DT     BB336846  22.267  79.147  44.478
 5666DT     SC136847  22.146  79.377  44.512
 5666DT     SC236848  22.175  79.444  44.714
 5666DT     SC336849  21.959  79.563  44.504
 5667DT     BB136850  22.385  78.896  44.464
 5667DT     BB236851  22.383  78.975  44.816
 5667DT     BB336852  22.208  78.909  44.903
 5667DT     SC136853  22.071  79.105  44.794
 5667DT     SC236854  22.008  79.241  44.948
 5667DT     SC336855  21.893  79.231  44.645
 5668DC     BB136856  22.349  78.715  45.029
 5668DC     BB236857  22.196  78.908  45.293
 5668DC     BB336858  22.006  78.835  45.332
 5668DC     SC136859  21.911  78.944  45.113
 5668DC     SC236860  21.779  79.106  45.165
 5668DC     SC336861  21.801  78.965  44.874
 5669DG     BB136862  22.237  78.840  45.665
 5669DG     BB236863  21.927  79.021  45.712
 5669DG     BB336864  21.777  78.893  45.736
 5669DG     SC136865  21.713  78.874  45.437
 5669DG     SC236866  21.464  78.973  45.305
 5669DG     SC336867  21.628  78.815  45.116
 5669DG     SC436868  21.788  78.765  45.348
 5670DA     BB136869  21.747  79.124  45.984
 5670DA     BB236870  21.410  79.197  45.859
 5670DA     BB336871  21.281  79.030  45.891
 5670DA     SC136872  21.342  78.899  45.615
 5670DA     SC236873  21.223  78.858  45.400
 5670DA     SC336874  21.402  78.679  45.359
 5670DA     SC436875  21.462  78.792  45.609
 5671DA     BB136876  21.151  79.315  45.988
 5671DA     BB236877  20.877  79.229  45.760
 5671DA     BB336878  20.778  79.052  45.826
 5671DA     SC136879  20.960  78.859  45.662
 5671DA     SC236880  20.938  78.710  45.464
 5671DA     SC336881  21.149  78.594  45.554
 5671DA     SC436882  21.090  78.800  45.735
 5672DA     BB136883  20.565  79.296  45.751
 5672DA     BB236884  20.415  79.046  45.529
 5672DA     BB336885  20.342  78.880  45.641
 5672DA     SC136886  20.608  78.720  45.622
 5672DA     SC236887  20.691  78.513  45.509
 5672DA     SC336888  20.878  78.517  45.685
 5672DA     SC436889  20.715  78.739  45.740
 5673DT     BB136890  20.163  78.870  45.628
 5673DT     BB236891  20.145  78.571  45.426
 5673DT     BB336892  20.118  78.406  45.548
 5673DT     SC136893  20.368  78.412  45.627
 5673DT     SC236894  20.473  78.243  45.545
 5673DT     SC336895  20.578  78.435  45.785
 5674DA     BB136896  19.817  78.387  45.254
 5674DA     BB236897  19.970  78.055  45.280
 5674DA     BB336898  19.912  77.960  45.462
 5674DA     SC136899  20.152  78.070  45.626
 5674DA     SC236900  20.360  77.982  45.731
 5674DA     SC336901  20.356  78.196  45.872
 5674DA     SC436902  20.131  78.209  45.704
 5675DG     BB136903  19.783  77.736  45.283
 5675DG     BB236904  20.031  77.527  45.442
 5675DG     BB336905  19.965  77.466  45.620
 5675DG     SC136906  20.080  77.705  45.772
 5675DG     SC236907  20.300  77.695  45.974
 5675DG     SC336908  20.174  77.963  45.968
 5675DG     SC436909  19.991  77.837  45.788
 5676DG     BB136910  19.996  77.151  45.526
 5676DG     BB236911  20.241  77.119  45.791
 5676DG     BB336912  20.149  77.085  45.964
 5676DG     SC136913  20.120  77.382  46.035
 5676DG     SC236914  20.257  77.522  46.260
 5676DG     SC336915  20.053  77.697  46.135
 5676DG     SC436916  19.990  77.461  45.985
 5677DG     BB136917  20.324  76.809  45.988
 5677DG     BB236918  20.469  76.956  46.285
 5677DG     BB336919  20.347  76.931  46.440
 5677DG     SC136920  20.193  77.192  46.394
 5677DG     SC236921  20.195  77.430  46.574
 5677DG     SC336922  19.991  77.460  46.362
 5677DG     SC436923  20.066  77.191  46.297
 5678DT     BB136924  20.413  76.815  46.610
 5678DT     BB236925  20.471  77.071  46.857
 5678DT     BB336926  20.313  77.078  46.991
 5678DT     SC136927  20.158  77.196  46.814
 5678DT     SC236928  20.123  77.399  46.874
 5678DT     SC336929  19.958  77.237  46.647
 5679DT     BB136930  20.471  76.969  47.179
 5679DT     BB236931  20.351  77.276  47.327
 5679DT     BB336932  20.166  77.244  47.415
 5679DT     SC136933  20.048  77.238  47.181
 5679DT     SC236934  19.925  77.413  47.158
 5679DT     SC336935  19.912  77.147  46.974
 5680DA     BB136936  20.396  77.414  47.725
 5680DA     BB236937  20.077  77.595  47.713
 5680DA     BB336938  19.921  77.475  47.796
 5680DA     SC136939  19.844  77.346  47.523
 5680DA     SC236940  19.654  77.354  47.362
 5680DA     SC336941  19.744  77.130  47.276
 5680DA     SC436942  19.915  77.206  47.485
 5681DA     BB136943  19.846  77.718  48.020
 5681DA     BB236944  19.515  77.743  47.864
 5681DA     BB336945  19.386  77.591  47.940
 5681DA     SC136946  19.460  77.384  47.720
 5681DA     SC236947  19.351  77.277  47.523
 5681DA     SC336948  19.532  77.097  47.546
 5681DA     SC436949  19.580  77.282  47.752
 5682DT     BB136950  19.193  77.616  48.079
 5682DT     BB236951  18.951  77.562  47.817
 5682DT     BB336952  18.850  77.385  47.849
 5682DT     SC136953  19.057  77.243  47.773
 5682DT     SC236954  19.013  77.148  47.586
 5682DT     SC336955  19.259  77.074  47.784
 5683DC     BB136956  18.605  77.503  47.934
 5683DC     BB236957  18.511  77.300  47.651
 5683DC     BB336958  18.454  77.111  47.715
 5683DC     SC136959  18.703  77.043  47.760
 5683DC     SC236960  18.764  76.895  47.616
 5683DC     SC336961  18.920  76.969  47.890
 5684DT     BB136962  18.185  77.159  47.665
 5684DT     BB236963  18.263  76.870  47.464
 5684DT     BB336964  18.231  76.697  47.573
 5684DT     SC136965  18.450  76.736  47.713
 5684DT     SC236966  18.596  76.588  47.660
 5684DT     SC336967  18.608  76.782  47.920
 5685DA     BB136968  18.020  76.653  47.214
 5685DA     BB236969  18.223  76.352  47.262
 5685DA     BB336970  18.138  76.228  47.413
 5685DA     SC136971  18.299  76.358  47.645
 5685DA     SC236972  18.484  76.295  47.800
 5685DA     SC336973  18.399  76.487  47.947
 5685DA     SC436974  18.230  76.481  47.723
 5686DA     BB136975  18.156  76.005  47.173
 5686DA     BB236976  18.383  75.817  47.391
 5686DA     BB336977  18.273  75.717  47.544
 5686DA     SC136978  18.294  75.952  47.746
 5686DA     SC236979  18.409  76.000  47.962
 5686DA     SC336980  18.232  76.184  47.992
 5686DA     SC436981  18.174  76.060  47.747
 5687DT     BB136982  18.270  75.513  47.543
 5687DT     BB236983  18.499  75.468  47.818
 5687DT     BB336984  18.395  75.409  47.987
 5687DT     SC136985  18.300  75.651  48.024
 5687DT     SC236986  18.391  75.737  48.199
 5687DT     SC336987  18.128  75.850  48.046
 5688DG     BB136988  18.676  75.127  47.907
 5688DG     BB236989  18.704  75.250  48.246
 5688DG     BB336990  18.565  75.165  48.361
 5688DG     SC136991  18.354  75.381  48.307
 5688DG     SC236992  18.246  75.574  48.508
 5688DG     SC336993  18.093  75.588  48.255
 5688DG     SC436994  18.257  75.364  48.182
 5689DA     BB136995  18.839  75.105  48.555
 5689DA     BB236996  18.683  75.297  48.826
 5689DA     BB336997  18.524  75.186  48.915
 5689DA     SC136998  18.306  75.299  48.724
 5689DA     SC236999  18.109  75.452  48.739
 5689DA     SC337000  18.031  75.340  48.522
 5689DA     SC437001  18.274  75.217  48.590
 5690DT     BB137002  18.572  75.160  49.079
 5690DT     BB237003  18.342  75.394  49.229
 5690DT     BB337004  18.171  75.295  49.291
 5690DT     SC137005  18.085  75.272  49.044
 5690DT     SC237006  17.913  75.399  49.017
 5690DT     SC337007  18.009  75.162  48.817
 5691DG     BB137008  18.355  75.527  49.571
 5691DG     BB237009  18.002  75.598  49.544
 5691DG     BB337010  17.896  75.447  49.621
 5691DG     SC137011  17.878  75.293  49.357
 5691DG     SC237012  17.630  75.244  49.199
 5691DG     SC337013  17.856  75.089  49.089
 5691DG     SC437014  17.995  75.189  49.319
 5692DA     BB137015  17.747  75.719  49.773
 5692DA     BB237016  17.423  75.604  49.647
 5692DA     BB337017  17.366  75.422  49.743
 5692DA     SC137018  17.501  75.239  49.531
 5692DA     SC237019  17.430  75.081  49.352
 5692DA     SC337020  17.667  74.985  49.370
 5692DA     SC437021  17.652  75.193  49.558
 5693DA     BB137022  17.089  75.592  49.808
 5693DA     BB237023  16.905  75.327  49.634
 5693DA     BB337024  16.894  75.152  49.756
 5693DA     SC137025  17.156  75.028  49.642
 5693DA     SC237026  17.222  74.835  49.498
 5693DA     SC337027  17.454  74.862  49.603
 5693DA     SC437028  17.293  75.060  49.720
 5694DA     BB137029  16.559  75.157  49.731
 5694DA     BB237030  16.574  74.826  49.574
 5694DA     BB337031  16.596  74.675  49.723
 5694DA     SC137032  16.907  74.680  49.717
 5694DA     SC237033  17.093  74.530  49.642
 5694DA     SC337034  17.241  74.669  49.799
 5694DA     SC437035  16.982  74.776  49.821
 5695DG     BB137036  16.314  74.532  49.653
 5695DG     BB237037  16.522  74.254  49.552
 5695DG     BB337038  16.553  74.132  49.706
 5695DG     SC137039  16.805  74.277  49.802
 5695DG     SC237040  17.082  74.166  49.800
 5695DG     SC337041  17.072  74.423  49.947
 5695DG     SC437042  16.790  74.399  49.905
 5696DA     BB137043  16.436  73.851  49.530
 5696DA     BB237044  16.766  73.692  49.556
 5696DA     BB337045  16.786  73.594  49.744
 5696DA     SC137046  16.908  73.842  49.887
 5696DA     SC237047  17.128  73.911  49.981
 5696DA     SC337048  16.994  74.084  50.115
 5696DA     SC437049  16.807  73.941  49.963
 5697DT     BB137050  16.803  73.389  49.748
 5697DT     BB237051  17.158  73.382  49.811
 5697DT     BB337052  17.194  73.322  50.006
 5697DT     SC137053  17.120  73.556  50.100
 5697DT     SC237054  17.291  73.660  50.178
 5697DT     SC337055  16.981  73.738  50.231
 5698DT     BB137056  17.289  73.111  49.886
 5698DT     BB237057  17.564  73.244  50.077
 5698DT     BB337058  17.550  73.182  50.274
 5698DT     SC137059  17.354  73.351  50.321
 5698DT     SC237060  17.424  73.506  50.452
 5698DT     SC337061  17.114  73.441  50.382
 5699DA     BB137062  17.931  73.155  50.092
 5699DA     BB237063  17.966  73.305  50.424
 5699DA     BB337064  17.917  73.163  50.576
 5699DA     SC137065  17.616  73.243  50.585
 5699DA     SC237066  17.460  73.357  50.743
 5699DA     SC337067  17.273  73.241  50.611
 5699DA     SC437068  17.514  73.160  50.491
 5700DA     BB137069  18.205  73.305  50.654
 5700DA     BB237070  18.047  73.383  50.976
 5700DA     BB337071  18.002  73.204  51.082
 5700DA     SC137072  17.717  73.176  50.962
 5700DA     SC237073  17.481  73.195  51.041
 5700DA     SC337074  17.422  73.056  50.833
 5700DA     SC437075  17.700  73.087  50.829
 5701DC     BB137076  18.104  73.168  51.247
 5701DC     BB237077  17.837  73.202  51.488
 5701DC     BB337078  17.769  73.015  51.544
 5701DC     SC137079  17.643  72.984  51.316
 5701DC     SC237080  17.430  72.991  51.351
 5701DC     SC337081  17.576  72.885  51.081
 5702DT     BB137082  17.898  72.997  51.800
 5702DT     BB237083  17.556  72.912  51.879
 5702DT     BB337084  17.529  72.708  51.866
 5702DT     SC137085  17.532  72.717  51.604
 5702DT     SC237086  17.335  72.673  51.529
 5702DT     SC337087  17.608  72.675  51.355
 5703DT     BB137088  17.535  72.612  52.153
 5703DT     BB237089  17.228  72.466  52.032
 5703DT     BB337090  17.261  72.271  51.973
 5703DT     SC137091  17.383  72.350  51.754
 5703DT     SC237092  17.260  72.303  51.584
 5703DT     SC337093  17.573  72.387  51.576
 5704DT     BB137094  17.154  72.095  52.201
 5704DT     BB237095  16.978  71.963  51.915
 5704DT     BB337096  17.075  71.794  51.845
 5704DT     SC137097  17.267  71.938  51.739
 5704DT     SC237098  17.253  71.929  51.525
 5704DT     SC337099  17.508  72.036  51.694
 5705DG     BB137100  16.719  71.603  51.945
 5705DG     BB237101  16.803  71.533  51.600
 5705DG     BB337102  16.924  71.376  51.591
 5705DG     SC137103  17.181  71.540  51.613
 5705DG     SC237104  17.387  71.574  51.400
 5705DG     SC337105  17.482  71.687  51.656
 5705DG     SC437106  17.240  71.573  51.758
 5706DG     BB137107  16.723  71.172  51.403
 5706DG     BB237108  16.973  71.201  51.142
 5706DG     BB337109  17.104  71.052  51.158
 5706DG     SC137110  17.292  71.205  51.345
 5706DG     SC237111  17.569  71.296  51.278
 5706DG     SC337112  17.511  71.335  51.566
 5706DG     SC437113  17.268  71.196  51.503
 5707DT     BB137114  17.143  70.876  50.993
 5707DT     BB237115  17.447  71.002  50.845
 5707DT     BB337116  17.607  70.881  50.897
 5707DT     SC137117  17.612  70.978  51.140
 5707DT     SC237118  17.789  71.097  51.166
 5707DT     SC337119  17.596  70.989  51.403
 5708DA     BB137120  17.605  70.924  50.481
 5708DA     BB237121  17.940  71.011  50.604
 5708DA     BB337122  18.047  70.835  50.659
 5708DA     SC137123  17.950  70.840  50.955
 5708DA     SC237124  18.049  70.882  51.180
 5708DA     SC337125  17.845  70.755  51.270
 5708DA     SC437126  17.818  70.757  50.991
 5709DT     BB137127  18.199  70.806  50.551
 5709DT     BB237128  18.440  70.914  50.797
 5709DT     BB337129  18.532  70.750  50.883
 5709DT     SC137130  18.318  70.695  51.026
 5709DT     SC237131  18.359  70.735  51.233
 5709DT     SC337132  18.107  70.566  51.117
 5710DA     BB137133  18.790  71.055  50.758
 5710DA     BB237134  18.873  70.963  51.103
 5710DA     BB337135  18.957  70.768  51.110
 5710DA     SC137136  18.684  70.624  51.150
 5710DA     SC237137  18.566  70.500  51.331
 5710DA     SC337138  18.422  70.403  51.142
 5710DA     SC437139  18.607  70.574  51.018
 5711DC     BB137140  19.103  70.806  51.172
 5711DC     BB237141  19.052  70.665  51.500
 5711DC     BB337142  19.111  70.467  51.501
 5711DC     SC137143  18.897  70.394  51.368
 5711DC     SC237144  18.768  70.280  51.497
 5711DC     SC337145  18.746  70.298  51.175
 5712DA     BB137146  19.230  70.713  51.830
 5712DA     BB237147  19.105  70.391  51.955
 5712DA     BB337148  19.231  70.232  51.888
 5712DA     SC137149  19.069  70.181  51.627
 5712DA     SC237150  18.919  70.004  51.535
 5712DA     SC337151  18.973  70.107  51.306
 5712DA     SC437152  19.116  70.258  51.494
 5713DA     BB137153  19.204  70.186  52.214
 5713DA     BB237154  19.080  69.851  52.130
 5713DA     BB337155  19.237  69.734  52.045
 5713DA     SC137156  19.173  69.817  51.752
 5713DA     SC237157  19.080  69.712  51.546
 5713DA     SC337158  19.193  69.905  51.421
 5713DA     SC437159  19.251  69.944  51.692
 5714DT     BB137160  19.310  69.574  52.147
 5714DT     BB237161  19.171  69.315  51.938
 5714DT     BB337162  19.318  69.236  51.816
 5714DT     SC137163  19.315  69.448  51.662
 5714DT     SC237164  19.231  69.396  51.470
 5714DT     SC337165  19.396  69.667  51.539
 5715DA     BB137166  19.176  68.886  52.006
 5715DA     BB237167  19.187  68.816  51.646
 5715DA     BB337168  19.388  68.779  51.584
 5715DA     SC137169  19.447  69.077  51.515
 5715DA     SC237170  19.486  69.215  51.311
 5715DA     SC337171  19.595  69.383  51.471
 5715DA     SC437172  19.512  69.168  51.631
 5716DG     BB137173  19.316  68.480  51.495
 5716DG     BB237174  19.388  68.606  51.164
 5716DG     BB337175  19.582  68.584  51.123
 5716DG     SC137176  19.661  68.858  51.237
 5716DG     SC237177  19.766  69.089  51.079
 5716DG     SC337178  19.785  69.141  51.370
 5716DG     SC437179  19.697  68.870  51.392
 5717DA     BB137180  19.488  68.422  50.834
 5717DA     BB237181  19.649  68.684  50.635
 5717DA     BB337182  19.860  68.654  50.629
 5717DA     SC137183  19.917  68.827  50.882
 5717DA     SC237184  20.023  69.046  50.935
 5717DA     SC337185  20.043  68.955  51.174
 5717DA     SC437186  19.921  68.752  51.024
 5718DA     BB137187  19.762  68.688  50.323
 5718DA     BB237188  19.978  68.983  50.315
 5718DA     BB337189  20.184  68.925  50.318
 5718DA     SC137190  20.206  68.932  50.629
 5718DA     SC237191  20.319  69.071  50.803
 5718DA     SC337192  20.286  68.868  50.957
 5718DA     SC437193  20.178  68.795  50.708
 5719DT     BB137194  20.230  68.989  50.176
 5719DT     BB237195  20.428  69.260  50.309
 5719DT     BB337196  20.622  69.197  50.340
 5719DT     SC137197  20.553  69.060  50.553
 5719DT     SC237198  20.634  69.154  50.728
 5719DT     SC337199  20.512  68.854  50.713
 5720DT     BB137200  20.635  69.373  50.156
 5720DT     BB237201  20.858  69.482  50.418
 5720DT     BB337202  21.028  69.365  50.420
 5720DT     SC137203  20.899  69.164  50.528
 5720DT     SC237204  20.967  69.136  50.730
 5720DT     SC337205  20.791  68.925  50.558
 5721DG     BB137206  21.126  69.762  50.391
 5721DG     BB237207  21.324  69.592  50.641
 5721DG     BB337208  21.457  69.473  50.553
 5721DG     SC137209  21.271  69.230  50.546
 5721DG     SC237210  21.308  68.976  50.699
 5721DG     SC337211  21.088  68.950  50.503
 5721DG     SC437212  21.174  69.210  50.420
 5722DT     BB137213  21.689  69.499  50.559
 5722DT     BB237214  21.795  69.223  50.766
 5722DT     BB337215  21.876  69.073  50.648
 5722DT     SC137216  21.639  69.000  50.563
 5722DT     SC237217  21.590  68.807  50.645
 5722DT     SC337218  21.437  68.953  50.400
 5723DT     BB137219  22.160  69.118  50.698
 5723DT     BB237220  22.122  68.766  50.769
 5723DT     BB337221  22.165  68.655  50.600
 5723DT     SC137222  21.937  68.720  50.489
 5723DT     SC237223  21.809  68.548  50.480
 5723DT     SC337224  21.765  68.825  50.318
 5724DT     BB137225  22.432  68.556  50.669
 5724DT     BB237226  22.252  68.253  50.591
 5724DT     BB337227  22.281  68.201  50.393
 5724DT     SC137228  22.120  68.392  50.312
 5724DT     SC237229  21.940  68.304  50.232
 5724DT     SC337230  22.035  68.612  50.193
 5725DA     BB137231  22.408  67.845  50.580
 5725DA     BB237232  22.172  67.747  50.316
 5725DA     BB337233  22.269  67.750  50.126
 5725DA     SC137234  22.194  68.046  50.066
 5725DA     SC237235  22.043  68.171  49.911
 5725DA     SC337236  22.193  68.373  49.961
 5725DA     SC437237  22.299  68.160  50.109
 5726DT     BB137238  22.318  67.567  49.994
 5726DT     BB237239  22.057  67.622  49.751
 5726DT     BB337240  22.139  67.677  49.569
 5726DT     SC137241  22.193  67.918  49.658
 5726DT     SC237242  22.066  68.060  49.559
 5726DT     SC337243  22.332  68.130  49.731
 5727DT     BB137244  22.101  67.427  49.430
 5727DT     BB237245  21.934  67.667  49.219
 5727DT     BB337246  22.064  67.735  49.073
 5727DT     SC137247  22.193  67.884  49.246
 5727DT     SC237248  22.154  68.092  49.205
 5727DT     SC337249  22.388  67.977  49.397
 5728DA     BB137250  21.745  67.596  48.834
 5728DA     BB237251  21.820  67.937  48.722
 5728DA     BB337252  21.992  67.938  48.595
 5728DA     SC137253  22.194  67.982  48.828
 5728DA     SC237254  22.344  68.164  48.910
 5728DA     SC337255  22.469  67.977  49.034
 5728DA     SC437256  22.259  67.852  48.896
 5729DT     BB137257  21.999  67.986  48.363
 5729DT     BB237258  22.133  68.318  48.403
 5729DT     BB337259  22.325  68.327  48.326
 5729DT     SC137260  22.422  68.195  48.531
 5729DT     SC237261  22.543  68.327  48.650
 5729DT     SC337262  22.538  68.004  48.671
 5730DC     BB137263  22.261  68.477  48.090
 5730DC     BB237264  22.497  68.684  48.267
 5730DC     BB337265  22.689  68.647  48.198
 5730DC     SC137266  22.699  68.418  48.325
 5730DC     SC237267  22.840  68.432  48.487
 5730DC     SC337268  22.715  68.158  48.368
 5731DC     BB137269  22.690  68.892  48.080
 5731DC     BB237270  22.955  68.901  48.324
 5731DC     BB337271  23.132  68.834  48.239
 5731DC     SC137272  23.049  68.585  48.246
 5731DC     SC237273  23.164  68.475  48.391
 5731DC     SC337274  22.974  68.346  48.163
 5732DC     BB137275  23.176  69.081  48.291
 5732DC     BB237276  23.411  68.891  48.488
 5732DC     BB337277  23.566  68.825  48.369
 5732DC     SC137278  23.415  68.641  48.259
 5732DC     SC237279  23.480  68.447  48.324
 5732DC     SC337280  23.281  68.507  48.076
 5733DT     BB137281  23.662  68.988  48.541
 5733DT     BB237282  23.833  68.674  48.588
 5733DT     BB337283  23.968  68.643  48.434
 5733DT     SC137284  23.775  68.584  48.267
 5733DT     SC237285  23.785  68.374  48.218
 5733DT     SC337286  23.614  68.599  48.059
 5734DA     BB137287  24.108  68.565  48.827
 5734DA     BB237288  24.212  68.293  48.604
 5734DA     BB337289  24.351  68.365  48.459
 5734DA     SC137290  24.132  68.437  48.250
 5734DA     SC237291  24.055  68.353  48.028
 5734DA     SC337292  23.948  68.585  48.001
 5734DA     SC437293  24.074  68.586  48.251
 5735DA     BB137294  24.497  68.100  48.588
 5735DA     BB237295  24.516  67.973  48.244
 5735DA     BB337296  24.654  68.090  48.130
 5735DA     SC137297  24.438  68.291  48.031
 5735DA     SC237298  24.324  68.349  47.817
 5735DA     SC337299  24.269  68.573  47.930
 5735DA     SC437300  24.415  68.425  48.118
 5736DA     BB137301  24.791  67.796  48.065
 5736DA     BB237302  24.737  67.866  47.710
 5736DA     BB337303  24.879  68.009  47.640
 5736DA     SC137304  24.699  68.255  47.703
 5736DA     SC237305  24.571  68.427  47.577
 5736DA     SC337306  24.579  68.564  47.794
 5736DA     SC437307  24.716  68.324  47.847
 5737DA     BB137308  24.967  67.789  47.404
 5737DA     BB237309  24.869  68.037  47.152
 5737DA     BB337310  25.022  68.184  47.129
 5737DA     SC137311  24.905  68.375  47.345
 5737DA     SC237312  24.793  68.598  47.354
 5737DA     SC337313  24.864  68.601  47.600
 5737DA     SC437314  24.959  68.359  47.496
 5738DA     BB137315  25.029  68.113  46.802
 5738DA     BB237316  24.930  68.459  46.736
 5738DA     BB337317  25.100  68.588  46.748
 5738DA     SC137318  25.063  68.649  47.051
 5738DA     SC237319  24.997  68.842  47.194
 5738DA     SC337320  25.114  68.715  47.384
 5738DA     SC437321  25.142  68.555  47.155
 5739DA     BB137322  25.026  68.690  46.440
 5739DA     BB237323  24.976  69.026  46.576
 5739DA     BB337324  25.163  69.125  46.601
 5739DA     SC137325  25.203  69.025  46.894
 5739DA     SC237326  25.204  69.123  47.123
 5739DA     SC337327  25.335  68.912  47.190
 5739DA     SC437328  25.285  68.889  46.915
 5740DT     BB137329  25.222  69.298  46.484
 5740DT     BB237330  25.175  69.542  46.744
 5740DT     BB337331  25.358  69.613  46.809
 5740DT     SC137332  25.406  69.391  46.941
 5740DT     SC237333  25.400  69.431  47.152
 5740DT     SC337334  25.522  69.165  47.012
 5741DT     BB137335  25.321  69.858  46.685
 5741DT     BB237336  25.378  69.943  47.031
 5741DT     BB337337  25.581  69.969  47.065
 5741DT     SC137338  25.623  69.710  47.057
 5741DT     SC237339  25.674  69.640  47.254
 5741DT     SC337340  25.714  69.475  46.977
 5742DA     BB137341  25.375  70.303  47.213
 5742DA     BB237342  25.603  70.183  47.474
 5742DA     BB337343  25.805  70.228  47.422
 5742DA     SC137344  25.852  69.958  47.274
 5742DA     SC237345  25.983  69.748  47.309
 5742DA     SC337346  25.954  69.712  47.057
 5742DA     SC437347  25.824  69.954  47.116
 5743DT     BB137348  25.891  70.352  47.538
 5743DT     BB237349  26.103  70.114  47.708
 5743DT     BB337350  26.296  70.125  47.632
 5743DT     SC137351  26.224  69.999  47.413
 5743DT     SC237352  26.313  69.803  47.412
 5743DT     SC337353  26.177  69.952  47.158
 5744DA     BB137354  26.309  70.149  48.051
 5744DA     BB237355  26.556  69.900  47.942
 5744DA     BB337356  26.721  69.996  47.847
 5744DA     SC137357  26.597  69.980  47.562
 5744DA     SC237358  26.639  69.858  47.349
 5744DA     SC337359  26.502  70.044  47.238
 5744DA     SC437360  26.510  70.106  47.512
 5745DA     BB137361  26.875  69.812  48.072
 5745DA     BB237362  27.047  69.651  47.791
 5745DA     BB337363  27.191  69.784  47.706
 5745DA     SC137364  26.993  69.906  47.499
 5745DA     SC237365  26.958  69.902  47.252
 5745DA     SC337366  26.821  70.115  47.289
 5745DA     SC437367  26.912  70.038  47.542
 5746DT     BB137368  27.384  69.737  47.723
 5746DT     BB237369  27.440  69.644  47.379
 5746DT     BB337370  27.541  69.795  47.281
 5746DT     SC137371  27.324  69.943  47.271
 5746DT     SC237372  27.256  69.956  47.067
 5746DT     SC337373  27.160  70.145  47.312
 5747DA     BB137374  27.774  69.453  47.208
 5747DA     BB237375  27.724  69.622  46.886
 5747DA     BB337376  27.846  69.796  46.874
 5747DA     SC137377  27.631  69.986  46.994
 5747DA     SC237378  27.484  70.172  46.915
 5747DA     SC337379  27.465  70.234  47.163
 5747DA     SC437380  27.632  70.009  47.153
 5748DA     BB137381  27.970  69.668  46.592
 5748DA     BB237382  27.835  69.961  46.417
 5748DA     BB337383  27.963  70.129  46.445
 5748DA     SC137384  27.817  70.229  46.701
 5748DA     SC237385  27.671  70.421  46.767
 5748DA     SC337386  27.740  70.363  47.008
 5748DA     SC437387  27.872  70.178  46.843
 5749DA     BB137388  27.977  70.151  46.113
 5749DA     BB237389  27.815  70.478  46.143
 5749DA     BB337390  27.958  70.628  46.196
 5749DA     SC137391  27.918  70.593  46.503
 5749DA     SC237392  27.821  70.723  46.692
 5749DA     SC337393  27.962  70.571  46.842
 5749DA     SC437394  28.014  70.489  46.579
 5750DA     BB137395  27.846  70.780  45.927
 5750DA     BB237396  27.729  71.047  46.150
 5750DA     BB337397  27.891  71.173  46.206
 5750DA     SC137398  27.964  71.009  46.460
 5750DA     SC237399  27.952  71.037  46.708
 5750DA     SC337400  28.128  70.851  46.717
 5750DA     SC437401  28.074  70.893  46.445
 5751DC     BB137402  27.885  71.362  46.143
 5751DC     BB237403  27.788  71.504  46.461
 5751DC     BB337404  27.950  71.601  46.547
 5751DC     SC137405  28.062  71.372  46.612
 5751DC     SC237406  28.056  71.349  46.826
 5751DC     SC337407  28.236  71.175  46.620
 5752DT     BB137408  27.824  71.832  46.495
 5752DT     BB237409  27.872  71.831  46.853
 5752DT     BB337410  28.059  71.907  46.899
 5752DT     SC137411  28.177  71.686  46.819
 5752DT     SC237412  28.258  71.583  46.990
 5752DT     SC337413  28.330  71.523  46.679
 5753DA     BB137414  27.769  72.101  47.128
 5753DA     BB237415  28.039  71.995  47.353
 5753DA     BB337416  28.211  72.116  47.324
 5753DA     SC137417  28.335  71.931  47.107
 5753DA     SC237418  28.530  71.776  47.085
 5753DA     SC337419  28.499  71.806  46.832
 5753DA     SC437420  28.301  71.963  46.953
 5754DT     BB137421  28.265  72.233  47.475
 5754DT     BB237422  28.554  72.043  47.577
 5754DT     BB337423  28.727  72.139  47.516
 5754DT     SC137424  28.689  72.065  47.267
 5754DT     SC237425  28.838  71.920  47.212
 5754DT     SC337426  28.645  72.081  47.008
 5755DT     BB137427  28.782  72.212  47.774
 5755DT     BB237428  29.076  72.032  47.668
 5755DT     BB337429  29.209  72.161  47.577
 5755DT     SC137430  29.063  72.173  47.360
 5755DT     SC237431  29.164  72.073  47.199
 5755DT     SC337432  28.911  72.272  47.169
 5756DA     BB137433  29.421  71.954  47.872
 5756DA     BB237434  29.618  71.938  47.563
 5756DA     BB337435  29.711  72.126  47.525
 5756DA     SC137436  29.475  72.236  47.355
 5756DA     SC237437  29.429  72.292  47.116
 5756DA     SC337438  29.237  72.436  47.208
 5756DA     SC437439  29.361  72.321  47.431
 5757DA     BB137440  29.966  71.926  47.509
 5757DA     BB237441  30.010  72.040  47.164
 5757DA     BB337442  30.092  72.237  47.161
 5757DA     SC137443  29.814  72.378  47.159
 5757DA     SC237444  29.676  72.511  47.000
 5757DA     SC337445  29.552  72.594  47.209
 5757DA     SC437446  29.751  72.419  47.301
 5758DA     BB137447  30.287  72.067  46.964
 5758DA     BB237448  30.194  72.305  46.702
 5758DA     BB337449  30.283  72.495  46.739
 5758DA     SC137450  30.043  72.603  46.906
 5758DA     SC237451  29.863  72.773  46.881
 5758DA     SC337452  29.844  72.761  47.136
 5758DA     SC437453  30.048  72.582  47.065
 5759DT     BB137454  30.402  72.537  46.608
 5759DT     BB237455  30.213  72.800  46.449
 5759DT     BB337456  30.278  72.985  46.516
 5759DT     SC137457  30.158  72.953  46.747
 5759DT     SC237458  29.992  73.089  46.761
 5759DT     SC337459  30.123  72.924  47.007
 5760DA     BB137460  30.269  72.993  46.096
 5760DA     BB237461  30.123  73.307  46.217
 5760DA     BB337462  30.274  73.432  46.300
 5760DA     SC137463  30.243  73.320  46.589
 5760DA     SC237464  30.158  73.400  46.809
 5760DA     SC337465  30.299  73.210  46.909
 5760DA     SC437466  30.337  73.198  46.631
 5761DG     BB137467  30.208  73.654  46.081
 5761DG     BB237468  30.131  73.864  46.365
 5761DG     BB337469  30.298  73.946  46.436
 5761DG     SC137470  30.359  73.717  46.630
 5761DG     SC237471  30.354  73.734  46.928
 5761DG     SC337472  30.466  73.475  46.839
 5761DG     SC437473  30.445  73.592  46.578
 5762DT     BB137474  30.371  74.185  46.438
 5762DT     BB237475  30.337  74.267  46.788
 5762DT     BB337476  30.525  74.284  46.875
 5762DT     SC137477  30.557  74.023  46.875
 5762DT     SC237478  30.551  73.950  47.077
 5762DT     SC337479  30.657  73.786  46.819
 5763DT     BB137480  30.554  74.577  46.895
 5763DT     BB237481  30.610  74.467  47.234
 5763DT     BB337482  30.813  74.442  47.268
 5763DT     SC137483  30.817  74.220  47.129
 5763DT     SC237484  30.850  74.053  47.261
 5763DT     SC337485  30.876  74.047  46.939
 5764DC     BB137486  30.866  74.680  47.427
 5764DC     BB237487  30.974  74.409  47.640
 5764DC     BB337488  31.177  74.377  47.614
 5764DC     SC137489  31.137  74.261  47.382
 5764DC     SC237490  31.180  74.051  47.399
 5764DC     SC337491  31.146  74.216  47.122
 5765DA     BB137492  31.126  74.428  48.027
 5765DA     BB237493  31.309  74.114  47.975
 5765DA     BB337494  31.513  74.155  47.925
 5765DA     SC137495  31.461  74.161  47.618
 5765DA     SC237496  31.516  74.021  47.419
 5765DA     SC337497  31.468  74.233  47.283
 5765DA     SC437498  31.428  74.304  47.552
 5766DT     BB137499  31.647  74.095  48.056
 5766DT     BB237500  31.758  73.808  47.868
 5766DT     BB337501  31.942  73.847  47.781
 5766DT     SC137502  31.831  74.001  47.599
 5766DT     SC237503  31.844  73.905  47.407
 5766DT     SC337504  31.772  74.217  47.459
 5767DG     BB137505  31.954  73.512  48.011
 5767DG     BB237506  32.072  73.450  47.675
 5767DG     BB337507  32.255  73.526  47.652
 5767DG     SC137508  32.155  73.800  47.559
 5767DG     SC237509  32.191  73.916  47.286
 5767DG     SC337510  32.082  74.118  47.473
 5767DG     SC437511  32.125  73.913  47.668
 5768DC     BB137512  32.390  73.388  47.603
 5768DC     BB237513  32.453  73.462  47.256
 5768DC     BB337514  32.621  73.581  47.238
 5768DC     SC137515  32.490  73.792  47.323
 5768DC     SC237516  32.465  73.931  47.161
 5768DC     SC337517  32.419  73.996  47.475
 5769DG     BB137518  32.670  73.243  47.015
 5769DG     BB237519  32.736  73.542  46.822
 5769DG     BB337520  32.913  73.618  46.873
 5769DG     SC137521  32.802  73.795  47.096
 5769DG     SC237522  32.796  74.094  47.096
 5769DG     SC337523  32.716  73.986  47.360
 5769DG     SC437524  32.788  73.735  47.244
 5770DT     BB137525  33.077  73.631  46.726
 5770DT     BB237526  33.088  73.985  46.659
 5770DT     BB337527  33.246  74.072  46.761
 5770DT     SC137528  33.118  74.056  46.989
 5770DT     SC237529  33.064  74.254  47.054
 5770DT     SC337530  33.059  73.986  47.236
 5771DG     BB137531  33.325  74.155  46.368
 5771DG     BB237532  33.336  74.456  46.569
 5771DG     BB337533  33.511  74.467  46.664
 5771DG     SC137534  33.415  74.314  46.911
 5771DG     SC237535  33.382  74.427  47.185
 5771DG     SC337536  33.349  74.133  47.187
 5771DG     SC437537  33.427  74.154  46.913
 5772DA     BB137538  33.549  74.788  46.532
 5772DA     BB237539  33.558  74.926  46.872
 5772DA     BB337540  33.749  74.891  46.961
 5772DA     SC137541  33.668  74.618  47.086
 5772DA     SC237542  33.626  74.525  47.314
 5772DA     SC337543  33.664  74.296  47.205
 5772DA     SC437544  33.696  74.485  47.001
 5773DG     BB137545  33.764  75.202  46.976
 5773DG     BB237546  33.754  75.137  47.332
 5773DG     BB337547  33.937  75.092  47.398
 5773DG     SC137548  33.907  74.791  47.350
 5773DG     SC237549  33.898  74.580  47.560
 5773DG     SC337550  33.916  74.459  47.291
 5773DG     SC437551  33.947  74.731  47.207
 5774DC     BB137552  34.029  75.219  47.545
 5774DC     BB237553  33.994  75.017  47.842
 5774DC     BB337554  34.174  74.926  47.887
 5774DC     SC137555  34.145  74.754  47.691
 5774DC     SC237556  34.110  74.558  47.773
 5774DC     SC337557  34.191  74.625  47.466
 5775DA     BB137558  34.011  75.117  48.224
 5775DA     BB237559  34.103  74.775  48.317
 5775DA     BB337560  34.315  74.754  48.322
 5775DA     SC137561  34.338  74.666  48.024
 5775DA     SC237562  34.393  74.459  47.896
 5775DA     SC337563  34.439  74.618  47.700
 5775DA     SC437564  34.363  74.781  47.914
 5776DA     BB137565  34.211  74.640  48.610
 5776DA     BB237566  34.366  74.323  48.510
 5776DA     BB337567  34.578  74.341  48.510
 5776DA     SC137568  34.595  74.429  48.212
 5776DA     SC237569  34.676  74.334  47.996
 5776DA     SC337570  34.682  74.578  47.915
 5776DA     SC437571  34.594  74.587  48.181
 5777DG     BB137572  34.529  74.111  48.709
 5777DG     BB237573  34.713  73.924  48.459
 5777DG     BB337574  34.907  73.967  48.472
 5777DG     SC137575  34.893  74.201  48.276
 5777DG     SC237576  35.019  74.212  48.005
 5777DG     SC337577  34.910  74.476  48.081
 5777DG     SC437578  34.860  74.348  48.332
 5778DA     BB137579  34.944  73.622  48.480
 5778DA     BB237580  35.157  73.641  48.181
 5778DA     BB337581  35.347  73.723  48.231
 5778DA     SC137582  35.262  74.017  48.175
 5778DA     SC237583  35.311  74.194  48.006
 5778DA     SC337584  35.223  74.358  48.183
 5778DA     SC437585  35.205  74.103  48.298
 5779DG     BB137586  35.452  73.450  48.126
 5779DG     BB237587  35.610  73.659  47.876
 5779DG     BB337588  35.776  73.739  47.950
 5779DG     SC137589  35.635  73.988  48.060
 5779DG     SC237590  35.673  74.268  47.962
 5779DG     SC337591  35.511  74.264  48.210
 5779DG     SC437592  35.574  73.984  48.208
 5780DG     BB137593  35.956  73.599  47.710
 5780DG     BB237594  36.035  73.936  47.605
 5780DG     BB337595  36.186  74.007  47.712
 5780DG     SC137596  36.007  74.125  47.931
 5780DG     SC237597  35.972  74.416  47.990
 5780DG     SC337598  35.843  74.249  48.198
 5780DG     SC437599  35.966  74.033  48.055
 5781DA     BB137600  36.353  74.085  47.415
 5781DA     BB237601  36.354  74.439  47.508
 5781DA     BB337602  36.507  74.478  47.652
 5781DA     SC137603  36.322  74.427  47.897
 5781DA     SC237604  36.218  74.561  48.080
 5781DA     SC337605  36.195  74.337  48.203
 5781DA     SC437606  36.319  74.279  47.958
 5782DT     BB137607  36.674  74.598  47.604
 5782DT     BB237608  36.568  74.890  47.788
 5782DT     BB337609  36.684  74.912  47.958
 5782DT     SC137610  36.560  74.714  48.078
 5782DT     SC237611  36.440  74.792  48.239
 5782DT     SC337612  36.519  74.481  48.194
 5783DA     BB137613  36.701  75.280  47.759
 5783DA     BB237614  36.616  75.348  48.109
 5783DA     BB337615  36.788  75.325  48.233
 5783DA     SC137616  36.736  75.024  48.291
 5783DA     SC237617  36.668  74.882  48.484
 5783DA     SC337618  36.770  74.687  48.352
 5783DA     SC437619  36.806  74.916  48.194
 5784DA     BB137620  36.705  75.629  48.325
 5784DA     BB237621  36.660  75.495  48.663
 5784DA     BB337622  36.849  75.463  48.756
 5784DA     SC137623  36.877  75.170  48.656
 5784DA     SC237624  36.873  74.940  48.754
 5784DA     SC337625  36.996  74.869  48.540
 5784DA     SC437626  36.954  75.146  48.517
 5785DG     BB137627  36.750  75.668  48.969
 5785DG     BB237628  36.768  75.382  49.189
 5785DG     BB337629  36.954  75.360  49.257
 5785DG     SC137630  37.043  75.179  49.026
 5785DG     SC237631  37.117  74.891  49.048
 5785DG     SC337632  37.179  74.996  48.778
 5785DG     SC437633  37.102  75.246  48.893
 5786DA     BB137634  36.819  75.354  49.575
 5786DA     BB237635  36.953  75.016  49.627
 5786DA     BB337636  37.162  75.025  49.669
 5786DA     SC137637  37.248  75.001  49.372
 5786DA     SC237638  37.359  74.833  49.225
 5786DA     SC337639  37.409  75.032  49.070
 5786DA     SC437640  37.271  75.138  49.290
 5787DA     BB137641  37.057  74.850  49.924
 5787DA     BB237642  37.271  74.580  49.799
 5787DA     BB337643  37.476  74.622  49.841
 5787DA     SC137644  37.526  74.770  49.572
 5787DA     SC237645  37.654  74.731  49.361
 5787DA     SC337646  37.636  74.985  49.328
 5787DA     SC437647  37.506  74.929  49.570
 5788DG     BB137648  37.440  74.356  49.990
 5788DG     BB237649  37.679  74.243  49.743
 5788DG     BB337650  37.863  74.297  49.797
 5788DG     SC137651  37.852  74.566  49.652
 5788DG     SC237652  38.016  74.644  49.414
 5788DG     SC337653  37.868  74.877  49.521
 5788DG     SC437654  37.795  74.694  49.729
 5789DA     BB137655  37.914  73.965  49.730
 5789DA     BB237656  38.166  74.059  49.481
 5789DA     BB337657  38.342  74.132  49.577
 5789DA     SC137658  38.248  74.429  49.576
 5789DA     SC237659  38.310  74.642  49.462
 5789DA     SC337660  38.187  74.758  49.656
 5789DA     SC437661  38.169  74.482  49.706
 5790DA     BB137662  38.429  73.905  49.359
 5790DA     BB237663  38.636  74.169  49.210
 5790DA     BB337664  38.794  74.222  49.343
 5790DA     SC137665  38.632  74.447  49.485
 5790DA     SC237666  38.634  74.696  49.498
 5790DA     SC337667  38.499  74.665  49.714
 5790DA     SC437668  38.550  74.406  49.617
 5791DA     BB137669  38.938  74.166  49.053
 5791DA     BB237670  39.071  74.507  49.081
 5791DA     BB337671  39.214  74.518  49.239
 5791DA     SC137672  39.005  74.595  49.455
 5791DA     SC237673  38.946  74.795  49.592
 5791DA     SC337674  38.828  74.629  49.747
 5791DA     SC437675  38.938  74.476  49.540
 5792DC     BB137676  39.408  74.550  49.192
 5792DC     BB237677  39.438  74.886  49.319
 5792DC     BB337678  39.539  74.885  49.499
 5792DC     SC137679  39.330  74.789  49.626
 5792DC     SC237680  39.250  74.940  49.756
 5792DC     SC337681  39.178  74.624  49.764
 5793DT     BB137682  39.789  74.983  49.400
 5793DT     BB237683  39.718  75.207  49.674
 5793DT     BB337684  39.805  75.136  49.848
 5793DT     SC137685  39.623  74.948  49.872
 5793DT     SC237686  39.497  74.992  50.040
 5793DT     SC337687  39.514  74.708  49.885
 5794DC     BB137688  40.037  75.316  49.869
 5794DC     BB237689  39.877  75.354  50.191
 5794DC     BB337690  39.965  75.228  50.329
 5794DC     SC137691  39.846  75.019  50.224
 5794DC     SC237692  39.697  74.945  50.362
 5794DC     SC337693  39.812  74.787  50.104
 5795DA     BB137694  40.008  75.598  50.524
 5795DA     BB237695  39.863  75.366  50.769
 5795DA     BB337696  40.015  75.240  50.850
 5795DA     SC137697  39.979  75.017  50.636
 5795DA     SC237698  39.893  74.784  50.626
 5795DA     SC337699  40.031  74.764  50.410
 5795DA     SC437700  40.072  75.025  50.505
 5796DA     BB137701  39.913  75.348  51.146
 5796DA     BB237702  39.822  75.002  51.227
 5796DA     BB337703  39.995  74.892  51.287
 5796DA     SC137704  40.063  74.794  51.000
 5796DA     SC237705  40.061  74.580  50.873
 5796DA     SC337706  40.224  74.697  50.713
 5796DA     SC437707  40.165  74.884  50.913
 5797DA     BB137708  39.808  74.830  51.548
 5797DA     BB237709  39.832  74.474  51.460
 5797DA     BB337710  40.022  74.396  51.518
 5797DA     SC137711  40.159  74.461  51.246
 5797DA     SC237712  40.248  74.335  51.051
 5797DA     SC337713  40.381  74.548  51.000
 5797DA     SC437714  40.234  74.602  51.233
 5798DG     BB137715  39.852  74.204  51.693
 5798DG     BB237716  39.997  73.950  51.481
 5798DG     BB337717  40.178  73.901  51.548
 5798DG     SC137718  40.324  74.113  51.382
 5798DG     SC237719  40.512  74.059  51.157
 5798DG     SC337720  40.514  74.346  51.230
 5798DG     SC437721  40.344  74.259  51.443
 5799DT     BB137722  40.229  73.693  51.626
 5799DT     BB237723  40.434  73.561  51.359
 5799DT     BB337724  40.632  73.561  51.416
 5799DT     SC137725  40.650  73.821  51.385
 5799DT     SC237726  40.775  73.864  51.216
 5799DT     SC337727  40.683  74.076  51.444
 5800DG     BB137728  40.565  73.162  51.344
 5800DG     BB237729  40.863  73.272  51.170
 5800DG     BB337730  41.018  73.272  51.295
 5800DG     SC137731  40.974  73.560  51.388
 5800DG     SC237732  41.156  73.791  51.335
 5800DG     SC337733  40.944  73.866  51.528
 5800DG     SC437734  40.878  73.588  51.513
 5801DA     BB137735  41.231  73.061  51.096
 5801DA     BB237736  41.485  73.324  51.068
 5801DA     BB337737  41.613  73.322  51.239
 5801DA     SC137738  41.440  73.523  51.401
 5801DA     SC237739  41.457  73.759  51.482
 5801DA     SC337740  41.275  73.693  51.650
 5801DA     SC437741  41.327  73.463  51.499
 5802DT     BB137742  41.830  73.266  51.237
 5802DT     BB237743  41.957  73.602  51.267
 5802DT     BB337744  42.042  73.629  51.453
 5802DT     SC137745  41.806  73.642  51.568
 5802DT     SC237746  41.770  73.842  51.636
 5802DT     SC337747  41.602  73.579  51.722
 5803DG     BB137748  42.345  73.705  51.191
 5803DG     BB237749  42.297  73.981  51.418
 5803DG     BB337750  42.386  73.942  51.592
 5803DG     SC137751  42.140  73.808  51.715
 5803DG     SC237752  41.980  73.912  51.945
 5803DG     SC337753  41.897  73.637  51.874
 5803DG     SC437754  42.119  73.651  51.694
 5804DA     BB137755  42.532  74.250  51.546
 5804DA     BB237756  42.375  74.368  51.855
 5804DA     BB337757  42.477  74.290  52.025
 5804DA     SC137758  42.299  74.036  52.046
 5804DA     SC237759  42.126  73.944  52.200
 5804DA     SC337760  42.181  73.717  52.095
 5804DA     SC437761  42.349  73.903  51.970
 5805DT     BB137762  42.552  74.425  52.121
 5805DT     BB237763  42.317  74.419  52.395
 5805DT     BB337764  42.397  74.314  52.554
 5805DT     SC137765  42.357  74.085  52.433
 5805DT     SC237766  42.201  73.977  52.534
 5805DT     SC337767  42.406  73.854  52.316
 5806DA     BB137768  42.234  74.685  52.668
 5806DA     BB237769  42.111  74.427  52.897
 5806DA     BB337770  42.270  74.354  53.019
 5806DA     SC137771  42.349  74.126  52.824
 5806DA     SC237772  42.338  73.877  52.817
 5806DA     SC337773  42.520  73.894  52.637
 5806DA     SC437774  42.463  74.157  52.715
 5807DT     BB137775  42.238  74.395  53.192
 5807DT     BB237776  42.164  74.062  53.309
 5807DT     BB337777  42.333  73.977  53.393
 5807DT     SC137778  42.441  73.938  53.157
 5807DT     SC237779  42.446  73.727  53.115
 5807DT     SC337780  42.609  73.957  52.955
 5808DA     BB137781  42.018  73.934  53.669
 5808DA     BB237782  42.192  73.612  53.644
 5808DA     BB337783  42.384  73.624  53.737
 5808DA     SC137784  42.531  73.711  53.477
 5808DA     SC237785  42.696  73.613  53.318
 5808DA     SC337786  42.743  73.856  53.250
 5808DA     SC437787  42.547  73.868  53.450
 5809DT     BB137788  42.434  73.520  53.920
 5809DT     BB237789  42.653  73.273  53.773
 5809DT     BB337790  42.850  73.315  53.821
 5809DT     SC137791  42.856  73.514  53.649
 5809DT     SC237792  42.984  73.461  53.484
 5809DT     SC337793  42.876  73.759  53.554
 5810DC     BB137794  42.893  73.114  54.025
 5810DC     BB237795  43.160  73.053  53.790
 5810DC     BB337796  43.329  73.157  53.846
 5810DC     SC137797  43.226  73.384  53.765
 5810DC     SC237798  43.332  73.452  53.590
 5810DC     SC337799  43.130  73.630  53.771
 5811DG     BB137800  43.488  72.775  53.878
 5811DG     BB237801  43.696  72.980  53.665
 5811DG     BB337802  43.825  73.083  53.775
 5811DG     SC137803  43.639  73.324  53.811
 5811DG     SC237804  43.682  73.597  53.700
 5811DG     SC337805  43.454  73.595  53.888
 5811DG     SC437806  43.537  73.325  53.935
 5812DT     BB137807  44.074  73.067  53.776
 5812DT     BB237808  44.152  73.360  53.580
 5812DT     BB337809  44.241  73.504  53.700
 5812DT     SC137810  44.011  73.563  53.813
 5812DT     SC237811  43.949  73.760  53.750
 5812DT     SC337812  43.825  73.592  53.998
 5813DA     BB137813  44.490  73.448  53.369
 5813DA     BB237814  44.424  73.807  53.401
 5813DA     BB337815  44.535  73.889  53.563
 5813DA     SC137816  44.310  73.841  53.773
 5813DA     SC237817  44.151  73.979  53.907
 5813DA     SC337818  44.133  73.772  54.059
 5813DA     SC437819  44.313  73.703  53.855
 5814DA     BB137820  44.621  74.085  53.318
 5814DA     BB237821  44.468  74.357  53.512
 5814DA     BB337822  44.593  74.410  53.676
 5814DA     SC137823  44.460  74.210  53.874
 5814DA     SC237824  44.315  74.220  54.076
 5814DA     SC337825  44.399  73.982  54.123
 5814DA     SC437826  44.526  74.064  53.887
 5815DG     BB137827  44.584  74.681  53.529
 5815DG     BB237828  44.412  74.784  53.830
 5815DG     BB337829  44.545  74.821  53.974
 5815DG     SC137830  44.545  74.534  54.081
 5815DG     SC237831  44.443  74.445  54.347
 5815DG     SC337832  44.585  74.225  54.211
 5815DG     SC437833  44.647  74.428  54.018
 5816DT     BB137834  44.558  75.020  54.057
 5816DT     BB237835  44.398  74.975  54.377
 5816DT     BB337836  44.540  74.964  54.527
 5816DT     SC137837  44.607  74.720  54.456
 5816DT     SC237838  44.543  74.582  54.608
 5816DT     SC337839  44.752  74.518  54.368
 5817DG     BB137840  44.288  75.270  54.617
 5817DG     BB237841  44.317  75.037  54.892
 5817DG     BB337842  44.488  75.068  54.989
 5817DG     SC137843  44.649  74.873  54.816
 5817DG     SC237844  44.770  74.616  54.907
 5817DG     SC337845  44.860  74.683  54.634
 5817DG     SC437846  44.719  74.927  54.682
 5818DA     BB137847  44.284  75.077  55.265
 5818DA     BB237848  44.467  74.793  55.407
 5818DA     BB337849  44.658  74.857  55.479
 5818DA     SC137850  44.805  74.802  55.211
 5818DA     SC237851  44.974  74.641  55.123
 5818DA     SC337852  45.015  74.816  54.940
 5818DA     SC437853  44.818  74.924  55.107
 5819DT     BB137854  44.668  74.835  55.661
 5819DT     BB237855  44.887  74.547  55.657
 5819DT     BB337856  45.082  74.607  55.693
 5819DT     SC137857  45.105  74.705  55.450
 5819DT     SC237858  45.240  74.583  55.336
 5819DT     SC337859  45.137  74.880  55.256
 5820DT     BB137860  45.038  74.477  55.913
 5820DT     BB237861  45.324  74.318  55.761
 5820DT     BB337862  45.495  74.429  55.799
 5820DT     SC137863  45.425  74.611  55.624
 5820DT     SC237864  45.557  74.602  55.454
 5820DT     SC337865  45.353  74.844  55.523
 5821DA     BB137866  45.545  74.018  55.876
 5821DA     BB237867  45.833  74.137  55.683
 5821DA     BB337868  45.951  74.270  55.801
 5821DA     SC137869  45.800  74.526  55.711
 5821DA     SC237870  45.845  74.727  55.571
 5821DA     SC337871  45.648  74.833  55.697
 5821DA     SC437872  45.676  74.575  55.801
 5822DC     BB137873  46.123  74.202  55.840
 5822DC     BB237874  46.313  74.426  55.631
 5822DC     BB337875  46.393  74.579  55.746
 5822DC     SC137876  46.159  74.697  55.765
 5822DC     SC237877  46.161  74.880  55.652
 5822DC     SC337878  45.939  74.795  55.872
 5823DT     BB137879  46.652  74.476  55.738
 5823DT     BB237880  46.693  74.815  55.623
 5823DT     BB337881  46.728  74.941  55.784
 5823DT     SC137882  46.476  74.930  55.856
 5823DT     SC237883  46.383  75.121  55.821
 5823DT     SC337884  46.261  74.881  56.002
 5824DT     BB137885  47.012  74.980  55.748
 5824DT     BB237886  46.884  75.317  55.758
 5824DT     BB337887  46.893  75.390  55.952
 5824DT     SC137888  46.687  75.244  56.024
 5824DT     SC237889  46.518  75.371  56.061
 5824DT     SC337890  46.545  75.061  56.150
 5825DA     BB137891  47.116  75.690  55.755
 5825DA     BB237892  46.863  75.863  55.956
 5825DA     BB337893  46.925  75.873  56.160
 5825DA     SC137894  46.788  75.605  56.241
 5825DA     SC237895  46.594  75.532  56.379
 5825DA     SC337896  46.710  75.303  56.383
 5825DA     SC437897  46.877  75.471  56.232
 5826DT     BB137898  46.982  76.065  56.273
 5826DT     BB237899  46.673  76.088  56.458
 5826DT     BB337900  46.708  76.055  56.659
 5826DT     SC137901  46.738  75.797  56.620
 5826DT     SC237902  46.572  75.692  56.708
 5826DT     SC337903  46.852  75.559  56.610
 5827DA     BB137904  46.495  76.410  56.617
 5827DA     BB237905  46.319  76.200  56.861
 5827DA     BB337906  46.423  76.198  57.047
 5827DA     SC137907  46.596  75.950  56.976
 5827DA     SC237908  46.615  75.712  57.047
 5827DA     SC337909  46.850  75.721  56.945
 5827DA     SC437910  46.740  75.976  56.909
 5828DA     BB137911  46.111  76.266  57.092
 5828DA     BB237912  46.106  75.963  57.299
 5828DA     BB337913  46.219  75.993  57.477
 5828DA     SC137914  46.486  75.890  57.354
 5828DA     SC237915  46.636  75.692  57.378
 5828DA     SC337916  46.815  75.841  57.271
 5828DA     SC437917  46.584  75.998  57.287
 5829DG     BB137918  45.930  75.893  57.511
 5829DG     BB237919  46.108  75.619  57.666
 5829DG     BB337920  46.197  75.681  57.832
 5829DG     SC137921  46.457  75.760  57.692
 5829DG     SC237922  46.723  75.629  57.729
 5829DG     SC337923  46.749  75.877  57.569
 5829DG     SC437924  46.471  75.908  57.633
 5830DA     BB137925  46.044  75.365  57.885
 5830DA     BB237926  46.360  75.258  58.037
 5830DA     BB337927  46.409  75.383  58.203
 5830DA     SC137928  46.573  75.586  58.034
 5830DA     SC237929  46.811  75.654  58.007
 5830DA     SC337930  46.717  75.870  57.906
 5830DA     SC437931  46.495  75.714  57.975
 5831DA     BB137932  46.444  75.076  58.337
 5831DA     BB237933  46.770  75.191  58.461
 5831DA     BB337934  46.744  75.347  58.604
 5831DA     SC137935  46.756  75.576  58.394
 5831DA     SC237936  46.912  75.760  58.331
 5831DA     SC337937  46.708  75.867  58.218
 5831DA     SC437938  46.617  75.627  58.331
 5832DA     BB137939  46.908  75.198  58.878
 5832DA     BB237940  47.124  75.492  58.912
 5832DA     BB337941  47.023  75.646  59.019
 5832DA     SC137942  46.904  75.778  58.763
 5832DA     SC237943  46.935  75.989  58.633
 5832DA     SC337944  46.703  75.939  58.537
 5832DA     SC437945  46.758  75.731  58.716
 5833DA     BB137946  47.219  75.721  59.329
 5833DA     BB237947  47.273  76.067  59.220
 5833DA     BB337948  47.119  76.194  59.296
 5833DA     SC137949  46.933  76.158  59.050
 5833DA     SC237950  46.851  76.295  58.859
 5833DA     SC337951  46.663  76.122  58.841
 5833DA     SC437952  46.823  76.040  59.056
 5834DC     BB137953  47.084  76.409  59.503
 5834DC     BB237954  47.070  76.678  59.263
 5834DC     BB337955  46.889  76.777  59.278
 5834DC     SC137956  46.763  76.580  59.157
 5834DC     SC237957  46.699  76.645  58.963
 5834DC     SC337958  46.597  76.379  59.118
 5835DA     BB137959  47.133  77.117  59.349
 5835DA     BB237960  46.905  77.210  59.077
 5835DA     BB337961  46.717  77.273  59.156
 5835DA     SC137962  46.590  76.989  59.149
 5835DA     SC237963  46.414  76.869  59.021
 5835DA     SC337964  46.411  76.705  59.217
 5835DA     SC437965  46.603  76.899  59.281
 5836DA     BB137966  46.766  77.551  58.985
 5836DA     BB237967  46.473  77.461  58.785
 5836DA     BB337968  46.294  77.517  58.886
 5836DA     SC137969  46.262  77.245  59.033
 5836DA     SC237970  46.109  77.048  59.025
 5836DA     SC337971  46.195  76.997  59.261
 5836DA     SC437972  46.327  77.231  59.179
 5837DA     BB137973  46.251  77.661  58.598
 5837DA     BB237974  45.957  77.446  58.557
 5837DA     BB337975  45.795  77.517  58.677
 5837DA     SC137976  45.872  77.345  58.925
 5837DA     SC237977  45.781  77.149  59.048
 5837DA     SC337978  45.926  77.229  59.244
 5837DA     SC437979  45.968  77.412  59.035
 5838DA     BB137980  45.663  77.490  58.382
 5838DA     BB237981  45.430  77.250  58.532
 5838DA     BB337982  45.288  77.351  58.655
 5838DA     SC137983  45.460  77.328  58.914
 5838DA     SC237984  45.452  77.206  59.131
 5838DA     SC337985  45.615  77.385  59.215
 5838DA     SC437986  45.560  77.450  58.948
 5839DA     BB137987  45.094  77.175  58.461
 5839DA     BB237988  44.966  77.017  58.767
 5839DA     BB337989  44.840  77.153  58.873
 5839DA     SC137990  45.072  77.270  59.045
 5839DA     SC237991  45.145  77.266  59.283
 5839DA     SC337992  45.279  77.477  59.225
 5839DA     SC437993  45.147  77.401  58.989
 5840DA     BB137994  44.634  76.898  58.852
 5840DA     BB237995  44.626  76.897  59.218
 5840DA     BB337996  44.508  77.059  59.291
 5840DA     SC137997  44.747  77.257  59.308
 5840DA     SC237998  44.880  77.371  59.487
 5840DA     SC337999  44.947  77.536  59.303
 5840DA     SC438000  44.776  77.351  59.181
 5841DT     BB138001  44.322  77.026  59.390
 5841DT     BB238002  44.433  77.109  59.723
 5841DT     BB338003  44.355  77.292  59.780
 5841DT     SC138004  44.523  77.421  59.625
 5841DT     SC238005  44.665  77.527  59.746
 5841DT     SC338006  44.613  77.574  59.430
 5842DA     BB138007  44.267  77.016  60.085
 5842DA     BB238008  44.413  77.315  60.240
 5842DA     BB338009  44.274  77.477  60.233
 5842DA     SC138010  44.375  77.585  59.960
 5842DA     SC238011  44.499  77.783  59.874
 5842DA     SC338012  44.398  77.723  59.646
 5842DA     SC438013  44.301  77.532  59.827
 5843DA     BB138014  44.344  77.475  60.555
 5843DA     BB238015  44.469  77.816  60.508
 5843DA     BB338016  44.307  77.952  60.482
 5843DA     SC138017  44.301  77.924  60.172
 5843DA     SC238018  44.356  78.065  59.973
 5843DA     SC338019  44.206  77.902  59.843
 5843DA     SC438020  44.204  77.814  60.109
 5844DA     BB138021  44.466  78.101  60.728
 5844DA     BB238022  44.506  78.387  60.501
 5844DA     BB338023  44.320  78.489  60.478
 5844DA     SC138024  44.230  78.321  60.232
 5844DA     SC238025  44.196  78.356  59.987
 5844DA     SC338026  44.049  78.146  59.999
 5844DA     SC438027  44.141  78.190  60.260
 5845DA     BB138028  44.507  78.746  60.568
 5845DA     BB238029  44.423  78.894  60.243
 5845DA     BB338030  44.222  78.966  60.244
 5845DA     SC138031  44.101  78.699  60.140
 5845DA     SC238032  43.993  78.614  59.931
 5845DA     SC338033  43.899  78.427  60.080
 5845DA     SC438034  44.051  78.592  60.249
 5846DA     BB138035  44.358  79.253  60.151
 5846DA     BB238036  44.161  79.227  59.843
 5846DA     BB338037  43.957  79.278  59.881
 5846DA     SC138038  43.870  78.987  59.947
 5846DA     SC238039  43.730  78.808  59.845
 5846DA     SC338040  43.721  78.708  60.081
 5846DA     SC438041  43.875  78.941  60.101
 5847DA     BB138042  43.987  79.505  59.638
 5847DA     BB238043  43.730  79.320  59.454
 5847DA     BB338044  43.536  79.367  59.530
 5847DA     SC138045  43.535  79.138  59.739
 5847DA     SC238046  43.416  78.921  59.776
 5847DA     SC338047  43.488  78.946  60.021
 5847DA     SC438048  43.588  79.172  59.887
 5848DC     BB138049  43.375  79.481  59.417
 5848DC     BB238050  43.177  79.189  59.340
 5848DC     BB338051  43.000  79.195  59.447
 5848DC     SC138052  43.123  79.129  59.669
 5848DC     SC238053  43.066  78.930  59.727
 5848DC     SC338054  43.217  79.146  59.915
 5849DG     BB138055  42.882  79.186  59.056
 5849DG     BB238056  42.741  78.911  59.243
 5849DG     BB338057  42.581  78.973  59.344
 5849DG     SC138058  42.739  79.052  59.594
 5849DG     SC238059  42.722  78.920  59.861
 5849DG     SC338060  42.883  79.168  59.876
 5849DG     SC438061  42.799  79.200  59.604
 5850DT     BB138062  42.401  78.877  59.298
 5850DT     BB238063  42.379  78.651  59.579
 5850DT     BB338064  42.242  78.723  59.717
 5850DT     SC138065  42.409  78.907  59.799
 5850DT     SC238066  42.475  78.861  59.998
 5850DT     SC338067  42.511  79.146  59.848
 5851DA     BB138068  42.239  78.315  59.605
 5851DA     BB238069  42.248  78.343  59.970
 5851DA     BB338070  42.068  78.431  60.042
 5851DA     SC138071  42.175  78.722  60.030
 5851DA     SC238072  42.241  78.902  60.189
 5851DA     SC338073  42.208  79.062  59.991
 5851DA     SC438074  42.148  78.806  59.895
 5852DA     BB138075  42.192  78.159  60.190
 5852DA     BB238076  42.184  78.370  60.490
 5852DA     BB338077  41.985  78.434  60.530
 5852DA     SC138078  42.008  78.695  60.363
 5852DA     SC238079  42.017  78.940  60.404
 5852DA     SC338080  41.946  78.964  60.158
 5852DA     SC438081  41.962  78.688  60.209
 5853DC     BB138082  41.972  78.364  60.675
 5853DC     BB238083  41.965  78.667  60.871
 5853DC     BB338084  41.771  78.740  60.882
 5853DC     SC138085  41.782  78.826  60.635
 5853DC     SC238086  41.784  79.041  60.634
 5853DC     SC338087  41.726  78.851  60.378
 5854DT     BB138088  41.789  78.665  61.133
 5854DT     BB238089  41.694  79.013  61.145
 5854DT     BB338090  41.490  79.031  61.114
 5854DT     SC138091  41.516  78.982  60.858
 5854DT     SC238092  41.474  79.161  60.746
 5854DT     SC338093  41.492  78.862  60.624
 5855DT     BB138094  41.454  79.092  61.377
 5855DT     BB238095  41.300  79.366  61.200
 5855DT     BB338096  41.104  79.320  61.154
 5855DT     SC138097  41.180  79.157  60.962
 5855DT     SC238098  41.127  79.242  60.772
 5855DT     SC338099  41.215  78.935  60.825
 5856DT     BB138100  41.005  79.491  61.346
 5856DT     BB238101  40.848  79.600  61.040
 5856DT     BB338102  40.672  79.496  61.009
 5856DT     SC138103  40.803  79.280  60.938
 5856DT     SC238104  40.774  79.245  60.727
 5856DT     SC338105  40.894  79.033  60.941
 5857DA     BB138106  40.574  79.902  60.981
 5857DA     BB238107  40.432  79.732  60.688
 5857DA     BB338108  40.261  79.618  60.744
 5857DA     SC138109  40.423  79.358  60.802
 5857DA     SC238110  40.450  79.132  60.701
 5857DA     SC338111  40.539  79.062  60.931
 5857DA     SC438112  40.474  79.334  60.952
 5858DT     BB138113  40.089  79.676  60.670
 5858DT     BB238114  40.051  79.410  60.429
 5858DT     BB338115  39.913  79.273  60.497
 5858DT     SC138116  40.084  79.175  60.671
 5858DT     SC238117  40.142  78.977  60.611
 5858DT     SC338118  40.192  79.109  60.903
 5859DT     BB138119  39.760  79.366  60.304
 5859DT     BB238120  39.785  79.012  60.241
 5859DT     BB338121  39.648  78.910  60.358
 5859DT     SC138122  39.794  78.945  60.573
 5859DT     SC238123  39.877  78.756  60.635
 5859DT     SC338124  39.867  79.027  60.813
 5860DT     BB138125  39.516  78.864  60.133
 5860DT     BB238126  39.571  78.537  60.275
 5860DT     BB338127  39.425  78.496  60.416
 5860DT     SC138128  39.536  78.658  60.589
 5860DT     SC238129  39.620  78.544  60.751
 5860DT     SC338130  39.568  78.864  60.752
 5861DT     BB138131  39.304  78.318  60.247
 5861DT     BB238132  39.356  78.128  60.550
 5861DT     BB338133  39.197  78.157  60.679
 5861DT     SC138134  39.281  78.398  60.742
 5861DT     SC238135  39.351  78.398  60.945
 5861DT     SC338136  39.287  78.660  60.766
 5862DG     BB138137  39.169  77.750  60.620
 5862DG     BB238138  39.164  77.827  60.974
 5862DG     BB338139  38.980  77.879  61.029
 5862DG     SC138140  39.022  78.177  60.973
 5862DG     SC238141  39.028  78.395  61.177
 5862DG     SC338142  39.026  78.507  60.903
 5862DG     SC438143  38.991  78.233  60.826
 5863DA     BB138144  38.949  77.636  61.290
 5863DA     BB238145  38.911  77.900  61.542
 5863DA     BB338146  38.708  77.966  61.551
 5863DA     SC138147  38.746  78.190  61.339
 5863DA     SC238148  38.751  78.440  61.333
 5863DA     SC338149  38.704  78.414  61.082
 5863DA     SC438150  38.716  78.154  61.185
 5864DG     BB138151  38.689  77.869  61.852
 5864DG     BB238152  38.653  78.223  61.920
 5864DG     BB338153  38.462  78.275  61.910
 5864DG     SC138154  38.469  78.340  61.611
 5864DG     SC238155  38.436  78.611  61.490
 5864DG     SC338156  38.437  78.401  61.281
 5864DG     SC438157  38.440  78.223  61.505
 5865DT     BB138158  38.351  78.356  62.089
 5865DT     BB238159  38.337  78.707  62.006
 5865DT     BB338160  38.145  78.758  61.947
 5865DT     SC138161  38.176  78.641  61.715
 5865DT     SC238162  38.184  78.790  61.560
 5865DT     SC338163  38.141  78.472  61.515
 5866DT     BB138164  38.133  78.892  62.176
 5866DT     BB238165  38.068  79.138  61.921
 5866DT     BB338166  37.868  79.134  61.868
 5866DT     SC138167  37.900  78.912  61.733
 5866DT     SC238168  37.879  78.952  61.522
 5866DT     SC338169  37.875  78.659  61.661
 5867DG     BB138170  37.980  79.509  61.983
 5867DG     BB238171  37.808  79.512  61.664
 5867DG     BB338172  37.613  79.485  61.692
 5867DG     SC138173  37.627  79.180  61.673
 5867DG     SC238174  37.509  79.012  61.457
 5867DG     SC338175  37.609  78.843  61.678
 5867DG     SC438176  37.655  79.095  61.806
 5868DA     BB138177  37.566  79.771  61.495
 5868DA     BB238178  37.353  79.581  61.265
 5868DA     BB338179  37.163  79.544  61.354
 5868DA     SC138180  37.247  79.273  61.481
 5868DA     SC238181  37.197  79.030  61.448
 5868DA     SC338182  37.285  79.001  61.688
 5868DA     SC438183  37.304  79.275  61.631
 5869DA     BB138184  37.002  79.692  61.092
 5869DA     BB238185  36.826  79.376  61.031
 5869DA     BB338186  36.661  79.356  61.165
 5869DA     SC138187  36.825  79.208  61.384
 5869DA     SC238188  36.839  78.979  61.482
 5869DA     SC338189  36.952  79.093  61.681
 5869DA     SC438190  36.893  79.297  61.499
 5870DA     BB138191  36.394  79.326  60.931
 5870DA     BB238192  36.326  78.988  61.056
 5870DA     BB338193  36.190  78.996  61.220
 5870DA     SC138194  36.412  79.018  61.436
 5870DA     SC238195  36.508  78.877  61.617
 5870DA     SC338196  36.596  79.097  61.715
 5870DA     SC438197  36.457  79.166  61.481
 5871DC     BB138198  35.911  78.922  61.271
 5871DC     BB238199  36.000  78.624  61.453
 5871DC     BB338200  35.927  78.635  61.647
 5871DC     SC138201  36.112  78.807  61.716
 5871DC     SC238202  36.249  78.713  61.852
 5871DC     SC338203  36.224  79.032  61.796
 5872DC     BB138204  35.698  78.446  61.635
 5872DC     BB238205  35.915  78.305  61.887
 5872DC     BB338206  35.852  78.364  62.075
 5872DC     SC138207  35.947  78.606  62.039
 5872DC     SC238208  36.117  78.636  62.168
 5872DC     SC338209  35.954  78.868  62.012
 5873DA     BB138210  35.891  77.949  62.073
 5873DA     BB238211  36.087  78.080  62.354
 5873DA     BB338212  35.958  78.140  62.513
 5873DA     SC138213  35.930  78.433  62.411
 5873DA     SC238214  36.003  78.661  62.482
 5873DA     SC338215  35.814  78.746  62.331
 5873DA     SC438216  35.807  78.466  62.314
 5874DA     BB138217  36.178  77.942  62.646
 5874DA     BB238218  36.275  78.231  62.850
 5874DA     BB338219  36.124  78.274  62.995
 5874DA     SC138220  35.970  78.472  62.810
 5874DA     SC238221  35.925  78.717  62.798
 5874DA     SC338222  35.727  78.653  62.649
 5874DA     SC438223  35.850  78.411  62.721
 5875DG     BB138224  36.371  78.224  63.171
 5875DG     BB238225  36.320  78.572  63.255
 5875DG     BB338226  36.170  78.589  63.385
 5875DG     SC138227  35.954  78.617  63.169
 5875DG     SC238228  35.791  78.861  63.115
 5875DG     SC338229  35.690  78.630  62.960
 5875DG     SC438230  35.885  78.485  63.111
 5876DT     BB138231  36.208  78.670  63.583
 5876DT     BB238232  36.060  78.998  63.556
 5876DT     BB338233  35.876  79.001  63.651
 5876DT     SC138234  35.765  78.867  63.454
 5876DT     SC238235  35.629  78.995  63.348
 5876DT     SC338236  35.642  78.672  63.325
 5877DT     BB138237  35.975  79.150  63.859
 5877DT     BB238238  35.701  79.346  63.731
 5877DT     BB338239  35.524  79.290  63.822
 5877DT     SC138240  35.513  79.068  63.683
 5877DT     SC238241  35.350  79.080  63.542
 5877DT     SC338242  35.510  78.810  63.625
 5878DT     BB138243  35.514  79.522  63.971
 5878DT     BB238244  35.205  79.520  63.783
 5878DT     BB338245  35.058  79.420  63.890
 5878DT     SC138246  35.166  79.187  63.835
 5878DT     SC238247  35.038  79.079  63.700
 5878DT     SC338248  35.283  78.954  63.870
 5879DA     BB138249  34.920  79.793  63.762
 5879DA     BB238250  34.677  79.537  63.661
 5879DA     BB338251  34.570  79.465  63.831
 5879DA     SC138252  34.770  79.234  63.889
 5879DA     SC238253  34.774  78.985  63.876
 5879DA     SC338254  34.971  78.999  64.039
 5879DA     SC438255  34.891  79.264  63.991
 5880DT     BB138256  34.412  79.508  63.795
 5880DT     BB238257  34.296  79.176  63.713
 5880DT     BB338258  34.213  79.087  63.881
 5880DT     SC138259  34.450  79.046  63.986
 5880DT     SC238260  34.493  78.835  63.986
 5880DT     SC338261  34.654  79.061  64.153
 5881DA     BB138262  34.025  79.052  63.499
 5881DA     BB238263  34.035  78.724  63.664
 5881DA     BB338264  33.919  78.727  63.843
 5881DA     SC138265  34.158  78.812  64.024
 5881DA     SC238266  34.299  78.711  64.203
 5881DA     SC338267  34.356  78.953  64.267
 5881DA     SC438268  34.180  78.970  64.049
 5882DA     BB138269  33.861  78.463  63.650
 5882DA     BB238270  33.930  78.271  63.955
 5882DA     BB338271  33.789  78.319  64.107
 5882DA     SC138272  33.961  78.549  64.227
 5882DA     SC238273  34.091  78.592  64.436
 5882DA     SC338274  34.070  78.840  64.373
 5882DA     SC438275  33.936  78.698  64.172
 5883DC     BB138276  33.689  78.176  64.144
 5883DC     BB238277  33.805  78.111  64.480
 5883DC     BB338278  33.679  78.201  64.617
 5883DC     SC138279  33.776  78.439  64.562
 5883DC     SC238280  33.889  78.510  64.730
 5883DC     SC338281  33.788  78.689  64.480
 5884DC     BB138282  33.564  77.961  64.689
 5884DC     BB238283  33.657  78.107  65.006
 5884DC     BB338284  33.504  78.228  65.075
 5884DC     SC138285  33.562  78.415  64.901
 5884DC     SC238286  33.644  78.585  65.004
 5884DC     SC338287  33.537  78.581  64.698
 5885DA     BB138288  33.529  77.972  65.414
 5885DA     BB238289  33.512  78.313  65.547
 5885DA     BB338290  33.311  78.383  65.544
 5885DA     SC138291  33.333  78.508  65.260
 5885DA     SC238292  33.337  78.736  65.158
 5885DA     SC338293  33.271  78.617  64.940
 5885DA     SC438294  33.290  78.416  65.135
 5886DG     BB138295  33.249  78.421  65.875
 5886DG     BB238296  33.216  78.773  65.799
 5886DG     BB338297  33.025  78.818  65.769
 5886DG     SC138298  33.034  78.762  65.468
 5886DG     SC238299  33.003  78.964  65.250
 5886DG     SC338300  33.003  78.689  65.140
 5886DG     SC438301  33.004  78.613  65.416
 5887DT     BB138302  32.827  78.975  65.905
 5887DT     BB238303  32.827  79.263  65.688
 5887DT     BB338304  32.643  79.282  65.595
 5887DT     SC138305  32.695  79.083  65.433
 5887DT     SC238306  32.720  79.158  65.233
 5887DT     SC338307  32.676  78.847  65.316
 5888DT     BB138308  32.515  79.510  65.747
 5888DT     BB238309  32.512  79.626  65.406
 5888DT     BB338310  32.327  79.590  65.320
 5888DT     SC138311  32.379  79.334  65.298
 5888DT     SC238312  32.402  79.284  65.090
 5888DT     SC338313  32.360  79.073  65.333
 5889DT     BB138314  32.234  79.862  65.320
 5889DT     BB238315  32.228  79.768  64.972
 5889DT     BB338316  32.040  79.699  64.921
 5889DT     SC138317  32.080  79.472  65.046
 5889DT     SC238318  32.097  79.313  64.902
 5889DT     SC338319  32.051  79.277  65.221
 5890DA     BB138320  32.164  79.991  64.652
 5890DA     BB238321  32.063  79.695  64.460
 5890DA     BB338322  31.850  79.677  64.458
 5890DA     SC138323  31.837  79.501  64.714
 5890DA     SC238324  31.783  79.265  64.773
 5890DA     SC338325  31.747  79.354  65.011
 5890DA     SC438326  31.818  79.576  64.855
 5891DT     BB138327  31.802  79.692  64.290
 5891DT     BB238328  31.728  79.343  64.238
 5891DT     BB338329  31.524  79.310  64.257
 5891DT     SC138330  31.537  79.332  64.518
 5891DT     SC238331  31.502  79.140  64.608
 5891DT     SC338332  31.497  79.425  64.762
 5892DC     BB138333  31.578  79.261  64.012
 5892DC     BB238334  31.432  78.960  64.146
 5892DC     BB338335  31.227  78.983  64.165
 5892DC     SC138336  31.257  79.136  64.376
 5892DC     SC238337  31.187  79.032  64.550
 5892DC     SC338338  31.247  79.350  64.531
 5893DA     BB138339  31.351  78.619  63.989
 5893DA     BB238340  31.088  78.550  64.235
 5893DA     BB338341  30.902  78.632  64.170
 5893DA     SC138342  30.946  78.905  64.312
 5893DA     SC238343  30.850  79.030  64.505
 5893DA     SC338344  30.951  79.238  64.395
 5893DA     SC438345  31.015  79.023  64.227
 5894DC     BB138346  30.775  78.501  64.132
 5894DC     BB238347  30.548  78.565  64.405
 5894DC     BB338348  30.390  78.682  64.339
 5894DC     SC138349  30.541  78.896  64.333
 5894DC     SC238350  30.480  79.031  64.489
 5894DC     SC338351  30.673  79.105  64.239
 5895DA     BB138352  30.199  78.352  64.518
 5895DA     BB238353  30.024  78.653  64.633
 5895DA     BB338354  29.902  78.732  64.478
 5895DA     SC138355  30.123  78.919  64.365
 5895DA     SC238356  30.170  79.163  64.352
 5895DA     SC338357  30.329  79.103  64.160
 5895DA     SC438358  30.216  78.861  64.247
 5896DT     BB138359  29.663  78.734  64.462
 5896DT     BB238360  29.616  79.087  64.518
 5896DT     BB338361  29.548  79.178  64.344
 5896DT     SC138362  29.786  79.163  64.234
 5896DT     SC238363  29.869  79.361  64.217
 5896DT     SC338364  29.978  79.096  64.067
 5897DA     BB138365  29.228  79.298  64.596
 5897DA     BB238366  29.336  79.600  64.420
 5897DA     BB338367  29.252  79.606  64.224
 5897DA     SC138368  29.490  79.457  64.090
 5897DA     SC238369  29.677  79.511  63.933
 5897DA     SC338370  29.687  79.258  63.892
 5897DA     SC438371  29.480  79.297  64.077
 5898DT     BB138372  29.080  79.757  64.130
 5898DT     BB238373  29.309  79.957  63.935
 5898DT     BB338374  29.270  79.932  63.733
 5898DT     SC138375  29.380  79.694  63.734
 5898DT     SC238376  29.565  79.700  63.623
 5898DT     SC338377  29.406  79.432  63.713
 5899DA     BB138378  29.246  80.349  63.776
 5899DA     BB238379  29.474  80.283  63.497
 5899DA     BB338380  29.363  80.236  63.320
 5899DA     SC138381  29.361  79.930  63.374
 5899DA     SC238382  29.464  79.725  63.277
 5899DA     SC338383  29.276  79.598  63.397
 5899DA     SC438384  29.236  79.870  63.455
 5900DG     BB138385  29.497  80.489  63.195
 5900DG     BB238386  29.655  80.244  62.980
 5900DG     BB338387  29.538  80.203  62.825
 5900DG     SC138388  29.391  79.974  62.966
 5900DG     SC238389  29.406  79.685  62.891
 5900DG     SC338390  29.197  79.731  63.096
 5900DG     SC438391  29.261  80.007  63.052
 5901DG     BB138392  29.780  80.299  62.628
 5901DG     BB238393  29.783  79.959  62.504
 5901DG     BB338394  29.646  79.937  62.362
 5901DG     SC138395  29.423  79.856  62.556
 5901DG     SC238396  29.292  79.588  62.571
 5901DG     SC338397  29.150  79.785  62.740
 5901DG     SC438398  29.332  79.971  62.621
 5902DG     BB138399  29.902  79.839  62.191
 5902DG     BB238400  29.729  79.522  62.167
 5902DG     BB338401  29.586  79.533  62.029
 5902DG     SC138402  29.371  79.627  62.225
 5902DG     SC238403  29.129  79.472  62.308
 5902DG     SC338404  29.116  79.750  62.408
 5902DG     SC438405  29.354  79.784  62.252
 5903DA     BB138406  29.738  79.243  61.919
 5903DA     BB238407  29.419  79.066  61.954
 5903DA     BB338408  29.283  79.128  61.802
 5903DA     SC138409  29.160  79.359  61.970
 5903DA     SC238410  28.943  79.410  62.082
 5903DA     SC338411  29.020  79.654  62.075
 5903DA     SC438412  29.225  79.505  61.955
 5904DC     BB138413  29.237  78.991  61.678
 5904DC     BB238414  28.897  78.938  61.786
 5904DC     BB338415  28.766  79.036  61.659
 5904DC     SC138416  28.828  79.269  61.762
 5904DC     SC238417  28.661  79.345  61.874
 5904DC     SC338418  28.920  79.516  61.780
 5905DT     BB138419  28.686  78.799  61.548
 5905DT     BB238420  28.378  78.953  61.656
 5905DT     BB338421  28.306  79.079  61.508
 5905DT     SC138422  28.489  79.260  61.561
 5905DT     SC238423  28.395  79.432  61.650
 5905DT     SC338424  28.696  79.420  61.530
 5906DC     BB138425  28.097  78.908  61.420
 5906DC     BB238426  27.927  79.218  61.494
 5906DC     BB338427  27.920  79.337  61.324
 5906DC     SC138428  28.174  79.398  61.347
 5906DC     SC238429  28.193  79.605  61.401
 5906DC     SC338430  28.431  79.416  61.290
 5907DG     BB138431  27.513  79.288  61.382
 5907DG     BB238432  27.594  79.639  61.351
 5907DG     BB338433  27.602  79.691  61.159
 5907DG     SC138434  27.900  79.627  61.129
 5907DG     SC238435  28.117  79.825  61.079
 5907DG     SC338436  28.219  79.548  61.056
 5907DG     SC438437  27.944  79.478  61.089
 5908DT     BB138438  27.453  79.852  61.023
 5908DT     BB238439  27.676  80.135  61.007
 5908DT     BB338440  27.740  80.163  60.813
 5908DT     SC138441  27.902  79.958  60.828
 5908DT     SC238442  28.106  80.027  60.828
 5908DT     SC338443  28.009  79.722  60.779
 5909DG     BB138444  27.552  80.515  60.903
 5909DG     BB238445  27.893  80.572  60.797
 5909DG     BB338446  27.903  80.573  60.598
 5909DG     SC138447  27.955  80.272  60.575
 5909DG     SC238448  28.207  80.145  60.479
 5909DG     SC338449  27.993  79.943  60.512
 5909DG     SC438450  27.830  80.173  60.566
 5910DT     BB138451  27.971  80.752  60.505
 5910DT     BB238452  28.310  80.656  60.423
 5910DT     BB338453  28.324  80.614  60.221
 5910DT     SC138454  28.201  80.384  60.252
 5910DT     SC238455  28.340  80.223  60.220
 5910DT     SC338456  28.017  80.197  60.229
 5911DT     BB138457  28.469  80.827  60.239
 5911DT     BB238458  28.688  80.568  60.117
 5911DT     BB338459  28.657  80.539  59.914
 5911DT     SC138460  28.431  80.414  59.958
 5911DT     SC238461  28.454  80.206  59.909
 5911DT     SC338462  28.173  80.360  59.956
 5912DT     BB138463  28.895  80.627  59.943
 5912DT     BB238464  28.922  80.308  59.777
 5912DT     BB338465  28.860  80.325  59.581
 5912DT     SC138466  28.608  80.336  59.653
 5912DT     SC238467  28.508  80.156  59.592
 5912DT     SC338468  28.364  80.429  59.689
 5913DT     BB138469  29.111  80.277  59.558
 5913DT     BB238470  28.942  80.021  59.368
 5913DT     BB338471  28.874  80.099  59.189
 5913DT     SC138472  28.679  80.227  59.308
 5913DT     SC238473  28.491  80.136  59.255
 5913DT     SC338474  28.529  80.425  59.396
 5914DT     BB138475  29.060  79.941  59.098
 5914DT     BB238476  28.758  79.846  58.925
 5914DT     BB338477  28.719  79.980  58.772
 5914DT     SC138478  28.638  80.162  58.942
 5914DT     SC238479  28.425  80.190  58.921
 5914DT     SC338480  28.628  80.388  59.078
 5915DG     BB138481  28.741  79.605  58.611
 5915DG     BB238482  28.443  79.779  58.502
 5915DG     BB338483  28.491  79.914  58.364
 5915DG     SC138484  28.539  80.139  58.566
 5915DG     SC238485  28.374  80.387  58.595
 5915DG     SC338486  28.619  80.403  58.760
 5915DG     SC438487  28.685  80.157  58.629
 5916DA     BB138488  28.244  79.775  58.158
 5916DA     BB238489  28.076  80.100  58.134
 5916DA     BB338490  28.184  80.230  58.003
 5916DA     SC138491  28.360  80.351  58.229
 5916DA     SC238492  28.384  80.569  58.348
 5916DA     SC338493  28.617  80.485  58.413
 5916DA     SC438494  28.502  80.281  58.258
 5917DC     BB138495  28.108  80.293  57.812
 5917DC     BB238496  28.036  80.636  57.901
 5917DC     BB338497  28.175  80.762  57.814
 5917DC     SC138498  28.360  80.690  57.987
 5917DC     SC238499  28.402  80.855  58.119
 5917DC     SC338500  28.583  80.588  58.084
 5918DA     BB138501  27.814  80.929  57.675
 5918DA     BB238502  28.016  81.206  57.805
 5918DA     BB338503  28.170  81.257  57.666
 5918DA     SC138504  28.379  81.062  57.789
 5918DA     SC238505  28.592  81.077  57.919
 5918DA     SC338506  28.634  80.837  57.838
 5918DA     SC438507  28.388  80.914  57.727
 5919DG     BB138508  28.058  81.557  57.617
 5919DG     BB238509  28.371  81.659  57.768
 5919DG     BB338510  28.511  81.679  57.628
 5919DG     SC138511  28.605  81.389  57.647
 5919DG     SC238512  28.871  81.296  57.745
 5919DG     SC338513  28.720  81.072  57.626
 5919DG     SC438514  28.534  81.278  57.555
 5920DA     BB138515  28.597  82.017  57.711
 5920DA     BB238516  28.939  81.916  57.798
 5920DA     BB338517  29.060  81.906  57.623
 5920DA     SC138518  28.998  81.607  57.567
 5920DA     SC238519  29.119  81.389  57.574
 5920DA     SC338520  28.934  81.304  57.418
 5920DA     SC438521  28.875  81.573  57.469
 5921DA     BB138522  29.277  82.123  57.760
 5921DA     BB238523  29.527  81.855  57.757
 5921DA     BB338524  29.621  81.844  57.566
 5921DA     SC138525  29.418  81.639  57.450
 5921DA     SC238526  29.416  81.399  57.383
 5921DA     SC338527  29.207  81.461  57.246
 5921DA     SC438528  29.290  81.697  57.371
 5922DC     BB138529  29.837  81.892  57.530
 5922DC     BB238530  29.945  81.548  57.508
 5922DC     BB338531  30.003  81.505  57.314
 5922DC     SC138532  29.754  81.497  57.232
 5922DC     SC238533  29.700  81.295  57.183
 5922DC     SC338534  29.534  81.560  57.101
 5923DC     BB138535  30.258  81.493  57.402
 5923DC     BB238536  30.191  81.166  57.265
 5923DC     BB338537  30.231  81.165  57.062
 5923DC     SC138538  30.012  81.300  57.010
 5923DC     SC238539  29.872  81.172  56.909
 5923DC     SC338540  29.853  81.495  56.930
 5924DA     BB138541  30.405  80.843  57.265
 5924DA     BB238542  30.228  80.714  56.971
 5924DA     BB338543  30.331  80.770  56.793
 5924DA     SC138544  30.172  81.035  56.756
 5924DA     SC238545  30.001  81.128  56.600
 5924DA     SC338546  30.078  81.358  56.685
 5924DA     SC438547  30.235  81.169  56.820
 5925DA     BB138548  30.276  80.449  56.777
 5925DA     BB238549  30.098  80.521  56.465
 5925DA     BB338550  30.235  80.585  56.314
 5925DA     SC138551  30.209  80.887  56.384
 5925DA     SC238552  30.114  81.093  56.282
 5925DA     SC338553  30.270  81.220  56.440
 5925DA     SC438554  30.315  80.948  56.490
 5926DA     BB138555  30.069  80.344  56.164
 5926DA     BB238556  29.982  80.593  55.909
 5926DA     BB338557  30.154  80.643  55.793
 5926DA     SC138558  30.239  80.879  55.977
 5926DA     SC238559  30.248  81.128  55.965
 5926DA     SC338560  30.416  81.111  56.158
 5926DA     SC438561  30.343  80.847  56.096
 5927DT     BB138562  30.167  80.588  55.592
 5927DT     BB238563  30.132  80.917  55.447
 5927DT     BB338564  30.315  80.984  55.379
 5927DT     SC138565  30.398  81.032  55.623
 5927DT     SC238566  30.414  81.245  55.652
 5927DT     SC338567  30.540  81.017  55.844
 5928DT     BB138568  30.275  80.941  55.095
 5928DT     BB238569  30.376  81.287  55.110
 5928DT     BB338570  30.581  81.302  55.085
 5928DT     SC138571  30.625  81.214  55.328
 5928DT     SC238572  30.702  81.374  55.449
 5928DT     SC338573  30.708  81.059  55.524
 5929DA     BB138574  30.474  81.554  54.759
 5929DA     BB238575  30.727  81.738  54.951
 5929DA     BB338576  30.922  81.670  54.899
 5929DA     SC138577  30.931  81.451  55.120
 5929DA     SC238578  31.053  81.410  55.334
 5929DA     SC338579  30.988  81.164  55.300
 5929DA     SC438580  30.882  81.304  55.080
 5930DT     BB138581  31.112  81.786  54.773
 5930DT     BB238582  31.305  81.857  55.069
 5930DT     BB338583  31.486  81.756  55.063
 5930DT     SC138584  31.368  81.528  55.118
 5930DT     SC238585  31.424  81.465  55.316
 5930DT     SC338586  31.281  81.280  55.092
 5931DT     BB138587  31.654  81.982  55.005
 5931DT     BB238588  31.783  81.852  55.316
 5931DT     BB338589  31.939  81.721  55.279
 5931DT     SC138590  31.774  81.535  55.198
 5931DT     SC238591  31.771  81.374  55.341
 5931DT     SC338592  31.654  81.361  55.039
 5932DC     BB138593  32.094  81.909  55.386
 5932DC     BB238594  32.133  81.619  55.597
 5932DC     BB338595  32.275  81.492  55.517
 5932DC     SC138596  32.110  81.411  55.331
 5932DC     SC238597  32.055  81.206  55.368
 5932DC     SC338598  32.007  81.369  55.092
 5933DG     BB138599  32.351  81.600  55.903
 5933DG     BB238600  32.345  81.241  55.859
 5933DG     BB338601  32.510  81.181  55.766
 5933DG     SC138602  32.392  81.210  55.485
 5933DG     SC238603  32.334  80.986  55.295
 5933DG     SC338604  32.301  81.249  55.163
 5933DG     SC438605  32.404  81.350  55.410
 5934DC     BB138606  32.608  81.053  55.877
 5934DC     BB238607  32.547  80.741  55.706
 5934DC     BB338608  32.703  80.700  55.576
 5934DC     SC138609  32.619  80.882  55.406
 5934DC     SC238610  32.544  80.784  55.229
 5934DC     SC338611  32.616  81.099  55.257
 5935DG     BB138612  32.636  80.395  55.838
 5935DG     BB238613  32.640  80.281  55.494
 5935DG     BB338614  32.827  80.280  55.426
 5935DG     SC138615  32.818  80.568  55.323
 5935DG     SC238616  32.830  80.652  55.037
 5935DG     SC338617  32.851  80.886  55.217
 5935DG     SC438618  32.859  80.687  55.422
 5936DT     BB138619  32.894  80.097  55.367
 5936DT     BB238620  32.898  80.129  55.008
 5936DT     BB338621  33.089  80.175  54.943
 5936DT     SC138622  33.067  80.423  55.027
 5936DT     SC238623  33.057  80.555  54.858
 5936DT     SC338624  33.112  80.643  55.165
 5937DA     BB138625  32.930  79.854  54.723
 5937DA     BB238626  33.072  80.097  54.488
 5937DA     BB338627  33.285  80.098  54.502
 5937DA     SC138628  33.295  80.320  54.719
 5937DA     SC238629  33.366  80.559  54.736
 5937DA     SC338630  33.377  80.516  54.989
 5937DA     SC438631  33.297  80.274  54.873
 5938DT     BB138632  33.363  80.040  54.345
 5938DT     BB238633  33.488  80.360  54.234
 5938DT     BB338634  33.688  80.378  54.282
 5938DT     SC138635  33.632  80.418  54.535
 5938DT     SC238636  33.677  80.622  54.587
 5938DT     SC338637  33.622  80.380  54.796
 5939DA     BB138638  33.619  80.480  53.880
 5939DA     BB238639  33.831  80.738  54.030
 5939DA     BB338640  34.025  80.659  54.072
 5939DA     SC138641  33.953  80.568  54.360
 5939DA     SC238642  34.009  80.633  54.594
 5939DA     SC338643  33.929  80.398  54.658
 5939DA     SC438644  33.900  80.417  54.379
 5940DA     BB138645  34.096  80.931  53.900
 5940DA     BB238646  34.291  81.038  54.192
 5940DA     BB338647  34.467  80.918  54.211
 5940DA     SC138648  34.331  80.706  54.394
 5940DA     SC238649  34.344  80.633  54.632
 5940DA     SC338650  34.236  80.415  54.550
 5940DA     SC438651  34.265  80.577  54.323
 5941DT     BB138652  34.647  81.003  54.182
 5941DT     BB238653  34.761  80.999  54.524
 5941DT     BB338654  34.898  80.845  54.551
 5941DT     SC138655  34.707  80.665  54.547
 5941DT     SC238656  34.685  80.581  54.744
 5941DT     SC338657  34.562  80.459  54.470
 5942DA     BB138658  35.112  81.181  54.690
 5942DA     BB238659  35.151  80.915  54.940
 5942DA     BB338660  35.288  80.767  54.870
 5942DA     SC138661  35.069  80.592  54.736
 5942DA     SC238662  34.961  80.370  54.774
 5942DA     SC338663  34.892  80.385  54.527
 5942DA     SC438664  35.037  80.619  54.581
 5943DT     BB138665  35.491  80.729  54.956
 5943DT     BB238666  35.408  80.420  55.123
 5943DT     BB338667  35.497  80.261  55.026
 5943DT     SC138668  35.324  80.273  54.829
 5943DT     SC238669  35.195  80.101  54.836
 5943DT     SC338670  35.227  80.305  54.586
 5944DA     BB138671  35.620  80.218  55.425
 5944DA     BB238672  35.490  79.894  55.315
 5944DA     BB338673  35.631  79.796  55.188
 5944DA     SC138674  35.515  79.918  54.926
 5944DA     SC238675  35.389  79.839  54.726
 5944DA     SC338676  35.474  80.052  54.613
 5944DA     SC438677  35.579  80.055  54.873
 5945DA     BB138678  35.592  79.553  55.406
 5945DA     BB238679  35.465  79.350  55.129
 5945DA     BB338680  35.626  79.283  55.005
 5945DA     SC138681  35.613  79.529  54.815
 5945DA     SC238682  35.548  79.577  54.579
 5945DA     SC338683  35.690  79.789  54.604
 5945DA     SC438684  35.707  79.655  54.850
 5946DT     BB138685  35.664  79.087  55.000
 5946DT     BB238686  35.531  79.026  54.670
 5946DT     BB338687  35.685  79.003  54.534
 5946DT     SC138688  35.733  79.262  54.535
 5946DT     SC238689  35.677  79.345  54.345
 5946DT     SC338690  35.860  79.490  54.569
 5947DA     BB138691  35.439  78.666  54.486
 5947DA     BB238692  35.505  78.805  54.153
 5947DA     BB338693  35.706  78.763  54.094
 5947DA     SC138694  35.822  79.026  54.213
 5947DA     SC238695  35.919  79.240  54.129
 5947DA     SC338696  36.021  79.262  54.364
 5947DA     SC438697  35.877  79.021  54.364
 5948DA     BB138698  35.574  78.623  53.821
 5948DA     BB238699  35.754  78.874  53.624
 5948DA     BB338700  35.960  78.820  53.604
 5948DA     SC138701  36.049  78.974  53.860
 5948DA     SC238702  36.183  79.177  53.916
 5948DA     SC338703  36.205  79.073  54.149
 5948DA     SC438704  36.053  78.892  53.998
 5949DT     BB138705  36.069  78.754  53.410
 5949DT     BB238706  36.246  79.064  53.360
 5949DT     BB338707  36.449  79.036  53.391
 5949DT     SC138708  36.415  79.025  53.651
 5949DT     SC238709  36.501  79.200  53.742
 5949DT     SC338710  36.413  78.930  53.897
 5950DT     BB138711  36.535  79.043  53.116
 5950DT     BB238712  36.720  79.310  53.273
 5950DT     BB338713  36.904  79.240  53.336
 5950DT     SC138714  36.796  79.113  53.538
 5950DT     SC238715  36.851  79.210  53.722
 5950DT     SC338716  36.720  78.915  53.695
 5951DA     BB138717  36.983  79.575  53.099
 5951DA     BB238718  37.147  79.625  53.424
 5951DA     BB338719  37.325  79.508  53.436
 5951DA     SC138720  37.183  79.261  53.560
 5951DA     SC238721  37.177  79.142  53.779
 5951DA     SC338722  37.086  78.942  53.645
 5951DA     SC438723  37.129  79.148  53.459
 5952DA     BB138724  37.411  79.810  53.510
 5952DA     BB238725  37.493  79.676  53.841
 5952DA     BB338726  37.672  79.559  53.831
 5952DA     SC138727  37.523  79.292  53.774
 5952DA     SC238728  37.476  79.078  53.892
 5952DA     SC338729  37.431  78.982  53.658
 5952DA     SC438730  37.501  79.251  53.620
 5953DA     BB138731  37.700  79.775  54.071
 5953DA     BB238732  37.732  79.483  54.290
 5953DA     BB338733  37.918  79.384  54.256
 5953DA     SC138734  37.803  79.193  54.039
 5953DA     SC238735  37.752  78.950  54.015
 5953DA     SC338736  37.759  78.994  53.762
 5953DA     SC438737  37.813  79.240  53.885
 5954DA     BB138738  37.879  79.438  54.574
 5954DA     BB238739  37.903  79.074  54.608
 5954DA     BB338740  38.100  79.007  54.560
 5954DA     SC138741  38.037  78.964  54.258
 5954DA     SC238742  38.013  78.772  54.101
 5954DA     SC338743  38.054  78.945  53.916
 5954DA     SC438744  38.066  79.086  54.158
 5955DT     BB138745  38.162  78.938  54.705
 5955DT     BB238746  38.148  78.593  54.599
 5955DT     BB338747  38.330  78.535  54.521
 5955DT     SC138748  38.287  78.670  54.300
 5955DT     SC238749  38.258  78.532  54.137
 5955DT     SC338750  38.316  78.850  54.109
 5956DG     BB138751  38.199  78.291  54.819
 5956DG     BB238752  38.293  78.106  54.523
 5956DG     BB338753  38.491  78.104  54.505
 5956DG     SC138754  38.504  78.361  54.340
 5956DG     SC238755  38.588  78.382  54.054
 5956DG     SC338756  38.557  78.651  54.175
 5956DG     SC438757  38.516  78.502  54.416
 5957DT     BB138758  38.559  77.921  54.505
 5957DT     BB238759  38.663  77.873  54.163
 5957DT     BB338760  38.865  77.917  54.144
 5957DT     SC138761  38.819  78.174  54.159
 5957DT     SC238762  38.856  78.265  53.968
 5957DT     SC338763  38.822  78.422  54.249
 5958DT     BB138764  38.882  77.659  54.108
 5958DT     BB238765  39.039  77.807  53.818
 5958DT     BB338766  39.232  77.865  53.864
 5958DT     SC138767  39.146  78.072  54.000
 5958DT     SC238768  39.195  78.252  53.895
 5958DT     SC338769  39.099  78.233  54.203
 5959DA     BB138770  39.241  77.637  53.511
 5959DA     BB238771  39.454  77.931  53.462
 5959DA     BB338772  39.631  77.915  53.580
 5959DA     SC138773  39.508  78.060  53.827
 5959DA     SC238774  39.535  78.277  53.946
 5959DA     SC338775  39.424  78.159  54.145
 5959DA     SC438776  39.438  77.968  53.939
 5960DT     BB138777  39.814  77.891  53.491
 5960DT     BB238778  39.955  78.215  53.565
 5960DT     BB338779  40.090  78.199  53.721
 5960DT     SC138780  39.896  78.174  53.896
 5960DT     SC238781  39.888  78.350  54.019
 5960DT     SC338782  39.742  78.068  54.082
 5961DT     BB138783  40.340  78.210  53.572
 5961DT     BB238784  40.389  78.463  53.825
 5961DT     BB338785  40.484  78.381  53.990
 5961DT     SC138786  40.263  78.260  54.065
 5961DT     SC238787  40.189  78.352  54.245
 5961DT     SC338788  40.094  78.066  54.124
 5962DC     BB138789  40.773  78.467  53.964
 5962DC     BB238790  40.689  78.576  54.298
 5962DC     BB338791  40.749  78.434  54.436
 5962DC     SC138792  40.550  78.275  54.370
 5962DC     SC238793  40.409  78.267  54.533
 5962DC     SC338794  40.421  78.064  54.280
 5963DA     BB138795  40.971  78.758  54.599
 5963DA     BB238796  40.778  78.613  54.876
 5963DA     BB338797  40.878  78.441  54.954
 5963DA     SC138798  40.732  78.242  54.764
 5963DA     SC238799  40.561  78.061  54.783
 5963DA     SC338800  40.652  77.980  54.557
 5963DA     SC438801  40.804  78.206  54.625
 5964DA     BB138802  40.870  78.591  55.249
 5964DA     BB238803  40.645  78.323  55.359
 5964DA     BB338804  40.757  78.151  55.416
 5964DA     SC138805  40.749  78.023  55.132
 5964DA     SC238806  40.642  77.828  55.020
 5964DA     SC338807  40.825  77.855  54.842
 5964DA     SC438808  40.872  78.056  55.033
 5965DA     BB138809  40.572  78.206  55.675
 5965DA     BB238810  40.417  77.882  55.603
 5965DA     BB338811  40.548  77.723  55.659
 5965DA     SC138812  40.684  77.706  55.380
 5965DA     SC238813  40.692  77.547  55.187
 5965DA     SC338814  40.909  77.668  55.122
 5965DA     SC438815  40.818  77.793  55.357
 5966DA     BB138816  40.253  77.676  55.785
 5966DA     BB238817  40.253  77.366  55.588
 5966DA     BB338818  40.397  77.229  55.665
 5966DA     SC138819  40.627  77.331  55.482
 5966DA     SC238820  40.759  77.248  55.288
 5966DA     SC338821  40.931  77.426  55.354
 5966DA     SC438822  40.723  77.447  55.540
 5967DT     BB138823  40.299  77.104  55.709
 5967DT     BB238824  40.400  76.873  55.450
 5967DT     BB338825  40.561  76.760  55.515
 5967DT     SC138826  40.725  76.963  55.486
 5967DT     SC238827  40.859  76.923  55.322
 5967DT     SC338828  40.897  77.154  55.546
 5968DT     BB138829  40.377  76.580  55.502
 5968DT     BB238830  40.648  76.458  55.299
 5968DT     BB338831  40.799  76.383  55.419
 5968DT     SC138832  40.876  76.624  55.487
 5968DT     SC238833  41.068  76.665  55.398
 5968DT     SC338834  40.927  76.836  55.635
 5969DG     BB138835  40.685  76.082  55.166
 5969DG     BB238836  41.045  76.120  55.173
 5969DG     BB338837  41.118  76.042  55.341
 5969DG     SC138838  41.095  76.303  55.500
 5969DG     SC238839  41.322  76.466  55.604
 5969DG     SC338840  41.065  76.566  55.709
 5969DG     SC438841  40.958  76.335  55.577
 5970DA     BB138842  41.352  75.822  55.179
 5970DA     BB238843  41.633  75.978  55.355
 5970DA     BB338844  41.648  75.902  55.554
 5970DA     SC138845  41.465  76.121  55.677
 5970DA     SC238846  41.489  76.318  55.829
 5970DA     SC338847  41.236  76.294  55.866
 5970DA     SC438848  41.308  76.089  55.689
 5971DA     BB138849  41.976  75.773  55.539
 5971DA     BB238850  42.076  76.012  55.798
 5971DA     BB338851  42.043  75.930  55.992
 5971DA     SC138852  41.754  76.043  56.017
 5971DA     SC238853  41.634  76.216  56.150
 5971DA     SC338854  41.421  76.088  56.087
 5971DA     SC438855  41.633  75.948  55.968
 5972DA     BB138856  42.371  75.950  56.115
 5972DA     BB238857  42.257  76.196  56.361
 5972DA     BB338858  42.193  76.099  56.540
 5972DA     SC138859  41.897  76.070  56.448
 5972DA     SC238860  41.675  76.166  56.509
 5972DA     SC338861  41.577  75.959  56.393
 5972DA     SC438862  41.856  75.934  56.373
 5973DT     BB138863  42.295  76.103  56.769
 5973DT     BB238864  42.055  76.337  56.901
 5973DT     BB338865  41.943  76.248  57.051
 5973DT     SC138866  41.805  76.110  56.876
 5973DT     SC238867  41.603  76.183  56.871
 5973DT     SC338868  41.707  75.903  56.744
 5974DA     BB138869  42.097  76.597  57.221
 5974DA     BB238870  41.734  76.599  57.273
 5974DA     BB338871  41.681  76.467  57.431
 5974DA     SC138872  41.641  76.221  57.246
 5974DA     SC238873  41.452  76.080  57.163
 5974DA     SC338874  41.631  75.904  57.112
 5974DA     SC438875  41.767  76.124  57.223
 5975DA     BB138876  41.540  76.743  57.525
 5975DA     BB238877  41.221  76.565  57.495
 5975DA     BB338878  41.194  76.432  57.660
 5975DA     SC138879  41.329  76.190  57.518
 5975DA     SC238880  41.260  75.970  57.423
 5975DA     SC338881  41.508  75.906  57.445
 5975DA     SC438882  41.487  76.169  57.541
 5976DA     BB138883  40.921  76.607  57.657
 5976DA     BB238884  40.746  76.290  57.600
 5976DA     BB338885  40.744  76.173  57.779
 5976DA     SC138886  41.009  76.025  57.715
 5976DA     SC238887  41.081  75.794  57.653
 5976DA     SC338888  41.314  75.867  57.735
 5976DA     SC438889  41.146  76.088  57.772
 5977DA     BB138890  40.432  76.184  57.686
 5977DA     BB238891  40.451  75.819  57.665
 5977DA     BB338892  40.459  75.733  57.860
 5977DA     SC138893  40.770  75.736  57.875
 5977DA     SC238894  40.956  75.571  57.875
 5977DA     SC338895  41.096  75.758  57.980
 5977DA     SC438896  40.840  75.865  57.942
 5978DA     BB138897  40.215  75.574  57.716
 5978DA     BB238898  40.410  75.269  57.774
 5978DA     BB338899  40.408  75.219  57.981
 5978DA     SC138900  40.665  75.381  58.048
 5978DA     SC238901  40.901  75.335  58.114
 5978DA     SC338902  40.903  75.577  58.200
 5978DA     SC438903  40.646  75.534  58.097
 5979DG     BB138904  40.287  74.967  57.855
 5979DG     BB238905  40.585  74.814  57.991
 5979DG     BB338906  40.563  74.784  58.186
 5979DG     SC138907  40.675  75.057  58.267
 5979DG     SC238908  40.930  75.105  58.414
 5979DG     SC338909  40.774  75.355  58.389
 5979DG     SC438910  40.575  75.182  58.277
 5980DT     BB138911  40.575  74.590  58.243
 5980DT     BB238912  40.895  74.577  58.409
 5980DT     BB338913  40.869  74.591  58.614
 5980DT     SC138914  40.818  74.848  58.597
 5980DT     SC238915  40.980  74.959  58.685
 5980DT     SC338916  40.686  75.076  58.613
 5981DA     BB138917  41.121  74.270  58.517
 5981DA     BB238918  41.275  74.458  58.791
 5981DA     BB338919  41.164  74.431  58.972
 5981DA     SC138920  40.978  74.675  58.924
 5981DA     SC238921  40.942  74.902  59.022
 5981DA     SC338922  40.712  74.891  58.910
 5981DA     SC438923  40.839  74.649  58.848
 5982DT     BB138924  41.256  74.334  59.113
 5982DT     BB238925  41.309  74.612  59.337
 5982DT     BB338926  41.170  74.607  59.490
 5982DT     SC138927  40.979  74.690  59.331
 5982DT     SC238928  40.922  74.891  59.386
 5982DT     SC338929  40.755  74.692  59.192
 5983DG     BB138930  41.527  74.586  59.689
 5983DG     BB238931  41.317  74.844  59.831
 5983DG     BB338932  41.184  74.762  59.955
 5983DG     SC138933  40.972  74.720  59.738
 5983DG     SC238934  40.709  74.859  59.720
 5983DG     SC338935  40.726  74.640  59.522
 5983DG     SC438936  40.974  74.583  59.654
 5984DA     BB138937  41.274  74.968  60.230
 5984DA     BB238938  40.936  75.108  60.247
 5984DA     BB338939  40.807  74.977  60.355
 5984DA     SC138940  40.716  74.819  60.103
 5984DA     SC238941  40.509  74.792  59.966
 5984DA     SC338942  40.616  74.575  59.883
 5984DA     SC438943  40.799  74.687  60.064
 5985DA     BB138944  40.738  75.233  60.555
 5985DA     BB238945  40.390  75.211  60.442
 5985DA     BB338946  40.287  75.057  60.549
 5985DA     SC138947  40.355  74.834  60.343
 5985DA     SC238948  40.235  74.696  60.174
 5985DA     SC338949  40.435  74.537  60.191
 5985DA     SC438950  40.488  74.747  60.369
 5986DA     BB138951  40.080  75.302  60.612
 5986DA     BB238952  39.826  75.111  60.430
 5986DA     BB338953  39.748  74.955  60.552
 5986DA     SC138954  39.957  74.744  60.458
 5986DA     SC238955  39.960  74.536  60.320
 5986DA     SC338956  40.181  74.484  60.440
 5986DA     SC438957  40.092  74.729  60.544
 5987DA     BB138958  39.489  75.114  60.444
 5987DA     BB238959  39.389  74.798  60.288
 5987DA     BB338960  39.325  74.659  60.437
 5987DA     SC138961  39.607  74.535  60.479
 5987DA     SC238962  39.723  74.319  60.433
 5987DA     SC338963  39.890  74.394  60.612
 5987DA     SC438964  39.699  74.599  60.595
 5988DG     BB138965  39.096  74.692  60.239
 5988DG     BB238966  39.157  74.339  60.189
 5988DG     BB338967  39.089  74.236  60.345
 5988DG     SC138968  39.351  74.252  60.502
 5988DG     SC238969  39.530  74.022  60.567
 5988DG     SC338970  39.616  74.267  60.710
 5988DG     SC438971  39.376  74.377  60.599
 5989DT     BB138972  38.956  74.109  60.286
 5989DT     BB238973  39.114  73.788  60.335
 5989DT     BB338974  39.067  73.715  60.523
 5989DT     SC138975  39.232  73.883  60.639
 5989DT     SC238976  39.400  73.775  60.719
 5989DT     SC338977  39.319  74.081  60.790
 5990DA     BB138978  38.977  73.404  60.252
 5990DA     BB238979  39.145  73.253  60.541
 5990DA     BB338980  39.016  73.254  60.711
 5990DA     SC138981  39.114  73.531  60.814
 5990DA     SC238982  39.247  73.620  61.005
 5990DA     SC338983  39.135  73.844  60.952
 5990DA     SC438984  39.033  73.661  60.766
 5991DG     BB138985  38.981  72.923  60.756
 5991DG     BB238986  39.125  72.978  61.083
 5991DG     BB338987  38.981  73.016  61.215
 5991DG     SC138988  38.984  73.318  61.171
 5991DG     SC238989  39.069  73.524  61.370
 5991DG     SC338990  38.947  73.651  61.133
 5991DG     SC438991  38.891  73.381  61.056
 5992DG     BB138992  38.980  72.747  61.465
 5992DG     BB238993  39.062  72.994  61.716
 5992DG     BB338994  38.897  73.057  61.806
 5992DG     SC138995  38.846  73.286  61.609
 5992DG     SC238996  38.860  73.577  61.670
 5992DG     SC338997  38.749  73.532  61.400
 5992DG     SC438998  38.760  73.257  61.477
 5993DT     BB138999  38.790  73.036  62.067
 5993DT     BB239000  38.866  73.369  62.184
 5993DT     BB339001  38.691  73.472  62.220
 5993DT     SC139002  38.647  73.505  61.963
 5993DT     SC239003  38.673  73.712  61.912
 5993DT     SC339004  38.532  73.487  61.727
 5994DC     BB139005  38.701  73.464  62.505
 5994DC     BB239006  38.693  73.816  62.429
 5994DC     BB339007  38.498  73.884  62.431
 5994DC     SC139008  38.448  73.770  62.200
 5994DC     SC239009  38.421  73.921  62.050
 5994DC     SC339010  38.340  73.609  62.022
 5995DG     BB139011  38.711  74.103  62.700
 5995DG     BB239012  38.542  74.315  62.459
 5995DG     BB339013  38.350  74.332  62.507
 5995DG     SC139014  38.263  74.088  62.343
 5995DG     SC239015  38.091  74.094  62.099
 5995DG     SC339016  38.135  73.816  62.190
 5995DG     SC439017  38.264  73.944  62.412
 5996DT     BB139018  38.282  74.524  62.548
 5996DT     BB239019  38.090  74.601  62.252
 5996DT     BB339020  37.888  74.573  62.290
 5996DT     SC139021  37.914  74.312  62.281
 5996DT     SC239022  37.816  74.237  62.105
 5996DT     SC339023  37.914  74.060  62.358
 5997DT     BB139024  37.862  74.840  62.282
 5997DT     BB239025  37.627  74.718  62.037
 5997DT     BB339026  37.449  74.667  62.129
 5997DT     SC139027  37.554  74.448  62.228
 5997DT     SC239028  37.467  74.277  62.131
 5997DT     SC339029  37.641  74.272  62.405
 5998DG     BB139030  37.336  74.956  61.860
 5998DG     BB239031  37.127  74.662  61.828
 5998DG     BB339032  36.988  74.663  61.970
 5998DG     SC139033  37.158  74.511  62.173
 5998DG     SC239034  37.105  74.235  62.275
 5998DG     SC339035  37.324  74.363  62.428
 5998DG     SC439036  37.254  74.593  62.271
 5999DT     BB139037  36.731  74.686  61.953
 5999DT     BB239038  36.632  74.344  62.016
 5999DT     BB339039  36.539  74.330  62.200
 5999DT     SC139040  36.768  74.353  62.326
 5999DT     SC239041  36.818  74.166  62.419
 5999DT     SC339042  36.957  74.452  62.482
 6000DG     BB139043  36.208  74.213  61.975
 6000DG     BB239044  36.281  73.965  62.229
 6000DG     BB339045  36.190  74.013  62.398
 6000DG     SC139046  36.422  74.181  62.505
 6000DG     SC239047  36.591  74.115  62.742
 6000DG     SC339048  36.649  74.388  62.644
 6000DG     SC439049  36.429  74.337  62.468
 6001DA     BB139050  36.026  73.703  62.423
 6001DA     BB239051  36.220  73.624  62.724
 6001DA     BB339052  36.124  73.703  62.897
 6001DA     SC139053  36.276  73.975  62.886
 6001DA     SC239054  36.451  74.094  63.017
 6001DA     SC339055  36.363  74.306  62.903
 6001DA     SC439056  36.206  74.096  62.806
 6002DA     BB139057  36.174  73.392  62.956
 6002DA     BB239058  36.404  73.508  63.217
 6002DA     BB339059  36.295  73.586  63.382
 6002DA     SC139060  36.291  73.877  63.273
 6002DA     SC239061  36.393  74.097  63.330
 6002DA     SC339062  36.203  74.199  63.191
 6002DA     SC439063  36.164  73.922  63.184
 6003DA     BB139064  36.523  73.371  63.463
 6003DA     BB239065  36.669  73.650  63.651
 6003DA     BB339066  36.541  73.706  63.812
 6003DA     SC139067  36.384  73.917  63.645
 6003DA     SC239068  36.361  74.165  63.635
 6003DA     SC339069  36.142  74.119  63.511
 6003DA     SC439070  36.250  73.868  63.570
 6004DC     BB139071  36.649  73.677  63.923
 6004DC     BB239072  36.716  74.021  64.010
 6004DC     BB339073  36.577  74.087  64.149
 6004DC     SC139074  36.390  74.104  63.966
 6004DC     SC239075  36.343  74.311  63.930
 6004DC     SC339076  36.166  74.057  63.835
 6005DA     BB139077  36.987  74.184  64.217
 6005DA     BB239078  36.779  74.481  64.269
 6005DA     BB339079  36.648  74.452  64.436
 6005DA     SC139080  36.416  74.335  64.264
 6005DA     SC239081  36.189  74.405  64.190
 6005DA     SC339082  36.148  74.155  64.148
 6005DA     SC439083  36.410  74.176  64.246
 6006DA     BB139084  36.801  74.741  64.476
 6006DA     BB239085  36.464  74.883  64.493
 6006DA     BB339086  36.362  74.813  64.667
 6006DA     SC139087  36.238  74.566  64.525
 6006DA     SC239088  36.012  74.489  64.452
 6006DA     SC339089  36.115  74.254  64.450
 6006DA     SC439090  36.320  74.428  64.532
 6007DG     BB139091  36.354  75.120  64.713
 6007DG     BB239092  35.997  75.063  64.700
 6007DG     BB339093  35.935  74.981  64.871
 6007DG     SC139094  35.977  74.693  64.777
 6007DG     SC239095  35.762  74.491  64.729
 6007DG     SC339096  36.030  74.366  64.714
 6007DG     SC439097  36.120  74.624  64.799
 6008DA     BB139098  35.695  75.235  64.882
 6008DA     BB239099  35.429  74.984  64.894
 6008DA     BB339100  35.422  74.892  65.087
 6008DA     SC139101  35.618  74.663  65.012
 6008DA     SC239102  35.609  74.417  64.975
 6008DA     SC339103  35.862  74.421  65.016
 6008DA     SC439104  35.775  74.687  65.042
 6009DA     BB139105  35.102  74.983  65.084
 6009DA     BB239106  35.017  74.628  65.114
 6009DA     BB339107  35.050  74.561  65.314
 6009DA     SC139108  35.344  74.474  65.263
 6009DA     SC239109  35.474  74.261  65.249
 6009DA     SC339110  35.680  74.408  65.293
 6009DA     SC439111  35.460  74.582  65.293
 6010DT     BB139112  34.890  74.502  65.447
 6010DT     BB239113  34.952  74.146  65.435
 6010DT     BB339114  35.034  74.083  65.613
 6010DT     SC139115  35.267  74.189  65.553
 6010DT     SC239116  35.409  74.031  65.516
 6010DT     SC339117  35.479  74.344  65.565
 6011DA     BB139118  34.701  73.829  65.573
 6011DA     BB239119  34.990  73.616  65.648
 6011DA     BB339120  35.039  73.629  65.856
 6011DA     SC139121  35.238  73.866  65.818
 6011DA     SC239122  35.484  73.905  65.832
 6011DA     SC339123  35.423  74.152  65.858
 6011DA     SC439124  35.180  74.015  65.835
 6012DA     BB139125  35.010  73.299  65.859
 6012DA     BB239126  35.366  73.285  65.946
 6012DA     BB339127  35.393  73.327  66.154
 6012DA     SC139128  35.427  73.633  66.113
 6012DA     SC239129  35.610  73.802  66.130
 6012DA     SC339130  35.420  73.975  66.147
 6012DA     SC439131  35.295  73.725  66.123
 6013DA     BB139132  35.551  73.039  66.147
 6013DA     BB239133  35.852  73.225  66.242
 6013DA     BB339134  35.848  73.272  66.450
 6013DA     SC139135  35.706  73.547  66.409
 6013DA     SC239136  35.763  73.788  66.429
 6013DA     SC339137  35.510  73.826  66.442
 6013DA     SC439138  35.546  73.549  66.416
 6014DT     BB139139  35.985  73.188  66.558
 6014DT     BB239140  36.191  73.482  66.598
 6014DT     BB339141  36.165  73.562  66.787
 6014DT     SC139142  35.929  73.658  66.722
 6014DT     SC239143  35.941  73.873  66.714
 6014DT     SC339144  35.669  73.697  66.721
 6015DC     BB139145  36.411  73.478  66.829
 6015DC     BB239146  36.419  73.834  66.889
 6015DC     BB339147  36.353  73.874  67.081
 6015DC     SC139148  36.104  73.828  67.013
 6015DC     SC239149  35.994  74.013  67.016
 6015DC     SC339150  35.865  73.716  67.007
 6016DG     BB139151  36.723  74.033  67.012
 6016DG     BB239152  36.491  74.279  67.140
 6016DG     BB339153  36.460  74.249  67.334
 6016DG     SC139154  36.223  74.059  67.291
 6016DG     SC239155  35.939  74.114  67.365
 6016DG     SC339156  35.974  73.833  67.280
 6016DG     SC439157  36.251  73.903  67.274
 6017DA     BB139158  36.534  74.586  67.357
 6017DA     BB239159  36.207  74.645  67.512
 6017DA     BB339160  36.205  74.569  67.712
 6017DA     SC139161  36.102  74.287  67.630
 6017DA     SC239162  35.894  74.152  67.654
 6017DA     SC339163  36.044  73.949  67.607
 6017DA     SC439164  36.212  74.174  67.600
 6018DT     BB139165  36.189  74.700  67.860
 6018DT     BB239166  35.849  74.625  67.952
 6018DT     BB339167  35.846  74.509  68.124
 6018DT     SC139168  35.924  74.296  67.991
 6018DT     SC239169  35.761  74.155  67.982
 6018DT     SC339170  36.072  74.093  67.913
 6019DC     BB139171  35.758  74.719  68.280
 6019DC     BB239172  35.513  74.460  68.332
 6019DC     BB339173  35.572  74.337  68.488
 6019DC     SC139174  35.753  74.221  68.338
 6019DC     SC239175  35.693  74.018  68.298
 6019DC     SC339176  35.989  74.142  68.249
 6020DT     BB139177  35.384  74.439  68.666
 6020DT     BB239178  35.315  74.085  68.657
 6020DT     BB339179  35.427  73.987  68.801
 6020DT     SC139180  35.646  74.012  68.657
 6020DT     SC239181  35.705  73.818  68.585
 6020DT     SC339182  35.888  74.086  68.585
 6021DG     BB139183  35.040  73.902  68.895
 6021DG     BB239184  35.235  73.600  68.859
 6021DG     BB339185  35.341  73.568  69.024
 6021DG     SC139186  35.584  73.728  68.931
 6021DG     SC239187  35.854  73.616  68.868
 6021DG     SC339188  35.860  73.912  68.869
 6021DG     SC439189  35.590  73.885  68.961
 6022DT     BB139190  35.306  73.386  69.141
 6022DT     BB239191  35.595  73.190  69.049
 6022DT     BB339192  35.733  73.192  69.204
 6022DT     SC139193  35.805  73.439  69.147
 6022DT     SC239194  36.004  73.439  69.067
 6022DT     SC339195  35.842  73.698  69.174
 6023DT     BB139196  35.671  72.936  69.245
 6023DT     BB239197  36.026  72.936  69.181
 6023DT     BB339198  36.129  72.975  69.356
 6023DT     SC139199  36.064  73.229  69.346
 6023DT     SC239200  36.240  73.346  69.304
 6023DT     SC339201  35.957  73.461  69.414
 6024DA     BB139202  36.286  72.635  69.165
 6024DA     BB239203  36.564  72.857  69.254
 6024DA     BB339204  36.593  72.858  69.465
 6024DA     SC139205  36.402  73.098  69.515
 6024DA     SC239206  36.420  73.337  69.585
 6024DA     SC339207  36.171  73.317  69.646
 6024DA     SC439208  36.248  73.065  69.548
 6025DG     BB139209  36.872  72.756  69.380
 6025DG     BB239210  36.981  73.066  69.530
 6025DG     BB339211  36.989  73.046  69.728
 6025DG     SC139212  36.699  73.135  69.772
 6025DG     SC239213  36.611  73.385  69.910
 6025DG     SC339214  36.380  73.208  69.856
 6025DG     SC439215  36.583  73.025  69.769
 6026DT     BB139216  37.179  73.067  69.836
 6026DT     BB239217  37.140  73.389  69.994
 6026DT     BB339218  37.094  73.364  70.194
 6026DT     SC139219  36.848  73.293  70.137
 6026DT     SC239220  36.713  73.447  70.201
 6026DT     SC339221  36.631  73.145  70.119
 6027DA     BB139222  37.424  73.623  70.186
 6027DA     BB239223  37.172  73.772  70.406
 6027DA     BB339224  37.166  73.668  70.592
 6027DA     SC139225  36.948  73.466  70.499
 6027DA     SC239226  36.707  73.419  70.547
 6027DA     SC339227  36.755  73.187  70.449
 6027DA     SC439228  36.997  73.327  70.436
 6028DT     BB139229  37.225  73.762  70.768
 6028DT     BB239230  36.895  73.810  70.904
 6028DT     BB339231  36.862  73.678  71.060
 6028DT     SC139232  36.833  73.477  70.894
 6028DT     SC239233  36.627  73.414  70.896
 6028DT     SC339234  36.877  73.248  70.772
 6029DA     BB139235  36.771  74.061  71.204
 6029DA     BB239236  36.491  73.839  71.288
 6029DA     BB339237  36.545  73.710  71.449
 6029DA     SC139238  36.652  73.484  71.263
 6029DA     SC239239  36.585  73.253  71.195
 6029DA     SC339240  36.830  73.225  71.125
 6029DA     SC439241  36.808  73.486  71.227
 6030DC     BB139242  36.446  73.735  71.615
 6030DC     BB239243  36.239  73.441  71.588
 6030DC     BB339244  36.310  73.293  71.714
 6030DC     SC139245  36.512  73.242  71.555
 6030DC     SC239246  36.484  73.049  71.464
 6030DC     SC339247  36.760  73.219  71.468
 6031DG     BB139248  35.920  73.371  71.800
 6031DG     BB239249  35.977  73.018  71.745
 6031DG     BB339250  36.064  72.937  71.905
 6031DG     SC139251  36.349  72.991  71.806
 6031DG     SC239252  36.549  72.784  71.727
 6031DG     SC339253  36.674  73.052  71.738
 6031DG     SC439254  36.418  73.131  71.842
 6032DA     BB139255  35.810  72.705  71.880
 6032DA     BB239256  36.058  72.437  71.850
 6032DA     BB339257  36.150  72.400  72.038
 6032DA     SC139258  36.381  72.603  71.994
 6032DA     SC239259  36.628  72.596  71.954
 6032DA     SC339260  36.626  72.840  72.034
 6032DA     SC439261  36.360  72.753  72.047
 6033DA     BB139262  36.054  72.093  71.969
 6033DA     BB239263  36.407  71.997  71.987
 6033DA     BB339264  36.472  71.988  72.190
 6033DA     SC139265  36.565  72.285  72.198
 6033DA     SC239266  36.780  72.411  72.210
 6033DA     SC339267  36.637  72.607  72.292
 6033DA     SC439268  36.459  72.395  72.248
 6034DG     BB139269  36.532  71.688  72.131
 6034DG     BB239270  36.873  71.787  72.197
 6034DG     BB339271  36.907  71.787  72.393
 6034DG     SC139272  36.822  72.079  72.433
 6034DG     SC239273  37.001  72.304  72.512
 6034DG     SC339274  36.718  72.388  72.516
 6034DG     SC439275  36.668  72.111  72.462
 6035DA     BB139276  37.184  71.586  72.332
 6035DA     BB239277  37.404  71.837  72.483
 6035DA     BB339278  37.391  71.829  72.696
 6035DA     SC139279  37.160  72.037  72.714
 6035DA     SC239280  37.129  72.271  72.795
 6035DA     SC339281  36.879  72.213  72.803
 6035DA     SC439282  37.010  71.981  72.714
 6036DA     BB139283  37.717  71.799  72.669
 6036DA     BB239284  37.744  72.108  72.864
 6036DA     BB339285  37.705  72.069  73.071
 6036DA     SC139286  37.400  72.124  73.049
 6036DA     SC239287  37.237  72.297  73.126
 6036DA     SC339288  37.059  72.117  73.087
 6036DA     SC439289  37.304  71.998  73.020
 6037DC     BB139290  37.857  72.091  73.204
 6037DC     BB239291  37.741  72.397  73.356
 6037DC     BB339292  37.663  72.357  73.544
 6037DC     SC139293  37.446  72.253  73.440
 6037DC     SC239294  37.279  72.383  73.479
 6037DC     SC339295  37.261  72.076  73.377
 6038DA     BB139296  37.942  72.667  73.590
 6038DA     BB239297  37.637  72.765  73.767
 6038DA     BB339298  37.616  72.652  73.947
 6038DA     SC139299  37.451  72.425  73.814
 6038DA     SC239300  37.217  72.339  73.819
 6038DA     SC339301  37.316  72.121  73.725
 6038DA     SC439302  37.532  72.298  73.757
 6039DT     BB139303  37.631  72.746  74.132
 6039DT     BB239304  37.282  72.733  74.220
 6039DT     BB339305  37.251  72.589  74.366
 6039DT     SC139306  37.278  72.395  74.191
 6039DT     SC239307  37.088  72.300  74.161
 6039DT     SC339308  37.376  72.183  74.069
 6040DT     BB139309  37.215  72.774  74.574
 6040DT     BB239310  36.917  72.572  74.589
 6040DT     BB339311  36.946  72.411  74.716
 6040DT     SC139312  37.096  72.288  74.538
 6040DT     SC239313  36.992  72.116  74.464
 6040DT     SC339314  37.308  72.178  74.426
 6041DT     BB139315  36.792  72.509  74.937
 6041DT     BB239316  36.646  72.186  74.871
 6041DT     BB339317  36.737  72.042  74.988
 6041DT     SC139318  36.952  72.044  74.838
 6041DT     SC239319  36.966  71.859  74.730
 6041DT     SC339320  37.204  72.076  74.766
 6042DA     BB139321  36.330  71.992  75.078
 6042DA     BB239322  36.464  71.661  74.997
 6042DA     BB339323  36.576  71.584  75.162
 6042DA     SC139324  36.846  71.704  75.064
 6042DA     SC239325  37.062  71.621  74.971
 6042DA     SC339326  37.158  71.847  75.045
 6042DA     SC439327  36.887  71.850  75.118
 6043DA     BB139328  36.374  71.328  75.132
 6043DA     BB239329  36.669  71.125  75.056
 6043DA     BB339330  36.774  71.077  75.235
 6043DA     SC139331  36.958  71.328  75.222
 6043DA     SC239332  37.199  71.378  75.180
 6043DA     SC339333  37.152  71.601  75.298
 6043DA     SC439334  36.910  71.460  75.299
 6044DT     BB139335  36.779  70.887  75.286
 6044DT     BB239336  37.123  70.826  75.194
 6044DT     BB339337  37.241  70.817  75.364
 6044DT     SC139338  37.230  71.077  75.396
 6044DT     SC239339  37.424  71.162  75.356
 6044DT     SC339340  37.177  71.312  75.504
 6045DA     BB139341  37.315  70.485  75.119
 6045DA     BB239342  37.638  70.628  75.218
 6045DA     BB339343  37.676  70.589  75.424
 6045DA     SC139344  37.543  70.852  75.524
 6045DA     SC239345  37.614  71.068  75.627
 6045DA     SC339346  37.370  71.089  75.703
 6045DA     SC439347  37.387  70.846  75.564
 6046DT     BB139348  37.825  70.476  75.454
 6046DT     BB239349  38.052  70.723  75.586
 6046DT     BB339350  38.057  70.711  75.793
 6046DT     SC139351  37.822  70.825  75.813
 6046DT     SC239352  37.845  71.022  75.897
 6046DT     SC339353  37.566  70.859  75.869
 6047DA     BB139354  38.460  70.690  75.674
 6047DA     BB239355  38.440  70.929  75.951
 6047DA     BB339356  38.412  70.826  76.136
 6047DA     SC139357  38.101  70.836  76.121
 6047DA     SC239358  37.914  70.951  76.240
 6047DA     SC339359  37.766  70.765  76.144
 6047DA     SC439360  38.026  70.711  76.053
 6048DA     BB139361  38.689  70.970  76.270
 6048DA     BB239362  38.477  71.120  76.529
 6048DA     BB339363  38.438  70.978  76.684
 6048DA     SC139364  38.179  70.869  76.551
 6048DA     SC239365  37.933  70.875  76.594
 6048DA     SC339366  37.922  70.670  76.440
 6048DA     SC439367  38.193  70.742  76.454
 6049DT     BB139368  38.518  70.956  76.936
 6049DT     BB239369  38.204  71.057  77.082
 6049DT     BB339370  38.122  70.901  77.189
 6049DT     SC139371  38.051  70.777  76.969
 6049DT     SC239372  37.837  70.780  76.952
 6049DT     SC339373  38.038  70.592  76.782
 6050DG     BB139374  38.170  71.136  77.539
 6050DG     BB239375  37.825  71.031  77.508
 6050DG     BB339376  37.799  70.858  77.602
 6050DG     SC139377  37.865  70.687  77.357
 6050DG     SC239378  37.674  70.512  77.208
 6050DG     SC339379  37.951  70.469  77.114
 6050DG     SC439380  38.017  70.646  77.330
 6051DA     BB139381  37.536  70.969  77.815
 6051DA     BB239382  37.299  70.750  77.640
 6051DA     BB339383  37.295  70.557  77.731
 6051DA     SC139384  37.519  70.440  77.550
 6051DA     SC239385  37.539  70.272  77.366
 6051DA     SC339386  37.788  70.266  77.427
 6051DA     SC439387  37.670  70.449  77.604
 6052DT     BB139388  37.122  70.512  77.807
 6052DT     BB239389  37.021  70.305  77.529
 6052DT     BB339390  37.033  70.105  77.582
 6052DT     SC139391  37.294  70.107  77.566
 6052DT     SC239392  37.357  69.990  77.397
 6052DT     SC339393  37.548  70.091  77.638
 6053DG     BB139394  36.680  70.239  77.427
 6053DG     BB239395  36.816  69.960  77.242
 6053DG     BB339396  36.797  69.793  77.347
 6053DG     SC139397  37.067  69.822  77.488
 6053DG     SC239398  37.304  69.643  77.453
 6053DG     SC339399  37.348  69.832  77.676
 6053DG     SC439400  37.075  69.904  77.625
 6054DA     BB139401  36.688  69.723  77.030
 6054DA     BB239402  36.935  69.453  77.017
 6054DA     BB339403  36.885  69.299  77.156
 6054DA     SC139404  37.049  69.423  77.390
 6054DA     SC239405  37.257  69.370  77.518
 6054DA     SC339406  37.162  69.527  77.697
 6054DA     SC439407  36.973  69.523  77.490
 6055DC     BB139408  36.857  69.162  77.059
 6055DC     BB239409  37.153  68.978  77.151
 6055DC     BB339410  37.111  68.851  77.309
 6055DC     SC139411  37.108  69.052  77.478
 6055DC     SC239412  37.278  69.039  77.608
 6055DC     SC339413  37.018  69.227  77.655
 6056DA     BB139414  37.307  68.642  77.002
 6056DA     BB239415  37.468  68.559  77.321
 6056DA     BB339416  37.339  68.439  77.440
 6056DA     SC139417  37.207  68.681  77.584
 6056DA     SC239418  37.205  68.781  77.812
 6056DA     SC339419  36.987  68.895  77.738
 6056DA     SC439420  37.072  68.741  77.520
 6057DT     BB139421  37.399  68.258  77.472
 6057DT     BB239422  37.488  68.300  77.820
 6057DT     BB339423  37.340  68.221  77.940
 6057DT     SC139424  37.180  68.423  77.892
 6057DT     SC239425  37.159  68.542  78.070
 6057DT     SC339426  36.971  68.559  77.807
 6058DT     BB139427  37.508  68.021  78.002
 6058DT     BB239428  37.416  68.164  78.320
 6058DT     BB339429  37.239  68.080  78.386
 6058DT     SC139430  37.099  68.219  78.213
 6058DT     SC239431  36.983  68.367  78.317
 6058DT     SC339432  36.941  68.274  78.009
 6059DC     BB139433  37.383  67.955  78.572
 6059DC     BB239434  37.136  68.140  78.758
 6059DC     BB339435  36.960  68.032  78.768
 6059DC     SC139436  36.903  68.086  78.518
 6059DC     SC239437  36.734  68.219  78.510
 6059DC     SC339438  36.854  68.049  78.261
 6060DC     BB139439  37.017  67.999  79.025
 6060DC     BB239440  36.689  68.149  79.021
 6060DC     BB339441  36.545  68.003  78.993
 6060DC     SC139442  36.606  67.982  78.739
 6060DC     SC239443  36.445  68.060  78.620
 6060DC     SC339444  36.689  67.876  78.512
 6061DA     BB139445  36.433  68.232  79.327
 6061DA     BB239446  36.138  68.193  79.114
 6061DA     BB339447  36.066  67.993  79.123
 6061DA     SC139448  36.237  67.894  78.883
 6061DA     SC239449  36.200  67.819  78.648
 6061DA     SC339450  36.431  67.709  78.668
 6061DA     SC439451  36.382  67.831  78.916
 6062DA     BB139452  35.782  68.145  79.201
 6062DA     BB239453  35.637  67.985  78.905
 6062DA     BB339454  35.604  67.777  78.942
 6062DA     SC139455  35.884  67.690  78.837
 6062DA     SC239456  35.977  67.566  78.642
 6062DA     SC339457  36.185  67.532  78.788
 6062DA     SC439458  36.003  67.678  78.944
 6063DT     BB139459  35.409  67.693  78.955
 6063DT     BB239460  35.414  67.524  78.636
 6063DT     BB339461  35.435  67.320  78.665
 6063DT     SC139462  35.689  67.346  78.725
 6063DT     SC239463  35.809  67.261  78.568
 6063DT     SC339464  35.912  67.339  78.865
 6064DC     BB139465  35.171  67.264  78.598
 6064DC     BB239466  35.364  67.065  78.367
 6064DC     BB339467  35.404  66.879  78.450
 6064DC     SC139468  35.585  66.981  78.611
 6064DC     SC239469  35.780  66.914  78.551
 6064DC     SC339470  35.706  67.053  78.834
 6065DA     BB139471  35.237  66.814  78.072
 6065DA     BB239472  35.546  66.618  78.094
 6065DA     BB339473  35.518  66.449  78.221
 6065DA     SC139474  35.607  66.597  78.480
 6065DA     SC239475  35.799  66.592  78.638
 6065DA     SC339476  35.640  66.709  78.803
 6065DA     SC439477  35.493  66.668  78.568
 6066DT     BB139478  35.535  66.287  78.129
 6066DT     BB239479  35.860  66.199  78.259
 6066DT     BB339480  35.841  66.060  78.411
 6066DT     SC139481  35.754  66.244  78.578
 6066DT     SC239482  35.904  66.278  78.729
 6066DT     SC339483  35.594  66.375  78.742
 6067DA     BB139484  36.132  65.955  78.126
 6067DA     BB239485  36.275  65.917  78.461
 6067DA     BB339486  36.182  65.755  78.564
 6067DA     SC139487  35.960  65.932  78.692
 6067DA     SC239488  35.898  66.016  78.918
 6067DA     SC339489  35.665  66.053  78.819
 6067DA     SC439490  35.821  65.946  78.612
 6068DG     BB139491  36.481  65.682  78.563
 6068DG     BB239492  36.435  65.705  78.921
 6068DG     BB339493  36.336  65.546  78.987
 6068DG     SC139494  36.060  65.673  78.951
 6068DG     SC239495  35.870  65.747  79.170
 6068DG     SC339496  35.741  65.774  78.905
 6068DG     SC439497  35.985  65.658  78.810
 6069DA     BB139498  36.595  65.519  79.219
 6069DA     BB239499  36.350  65.533  79.492
 6069DA     BB339500  36.240  65.351  79.502
 6069DA     SC139501  36.014  65.449  79.311
 6069DA     SC239502  35.773  65.512  79.327
 6069DA     SC339503  35.767  65.471  79.074
 6069DA     SC439504  36.031  65.417  79.155
 6070DC     BB139505  36.258  65.212  79.664
 6070DC     BB239506  35.938  65.274  79.818
 6070DC     BB339507  35.808  65.117  79.779
 6070DC     SC139508  35.775  65.196  79.531
 6070DC     SC239509  35.575  65.271  79.506
 6070DC     SC339510  35.780  65.195  79.267
 6071DT     BB139511  35.811  64.971  80.036
 6071DT     BB239512  35.459  65.029  79.981
 6071DT     BB339513  35.374  64.865  79.887
 6071DT     SC139514  35.485  64.930  79.658
 6071DT     SC239515  35.333  64.995  79.520
 6071DT     SC339516  35.637  64.915  79.442
 6072DT     BB139517  35.229  64.737  80.109
 6072DT     BB239518  34.971  64.796  79.864
 6072DT     BB339519  34.945  64.627  79.747
 6072DT     SC139520  35.167  64.672  79.616
 6072DT     SC239521  35.120  64.729  79.414
 6072DT     SC339522  35.412  64.639  79.523
 6073DA     BB139523  34.559  64.709  79.892
 6073DA     BB239524  34.537  64.680  79.527
 6073DA     BB339525  34.542  64.475  79.468
 6073DA     SC139526  34.852  64.466  79.438
 6073DA     SC239527  35.018  64.448  79.253
 6073DA     SC339528  35.182  64.373  79.436
 6073DA     SC439529  34.938  64.421  79.566
 6074DT     BB139530  34.378  64.401  79.382
 6074DT     BB239531  34.508  64.404  79.046
 6074DT     BB339532  34.556  64.212  78.986
 6074DT     SC139533  34.771  64.211  79.136
 6074DT     SC239534  34.946  64.214  79.010
 6074DT     SC339535  34.941  64.143  79.327
 6075DT     BB139536  34.350  64.238  78.824
 6075DT     BB239537  34.633  64.173  78.610
 6075DT     BB339538  34.670  63.970  78.601
 6075DT     SC139539  34.773  63.970  78.842
 6075DT     SC239540  34.985  63.934  78.830
 6075DT     SC339541  34.805  63.916  79.099
 6076DT     BB139542  34.586  63.994  78.353
 6076DT     BB239543  34.919  63.858  78.328
 6076DT     BB339544  34.914  63.654  78.359
 6076DT     SC139545  34.879  63.685  78.617
 6076DT     SC239546  35.056  63.622  78.721
 6076DT     SC339547  34.766  63.676  78.855
 6077DG     BB139548  35.087  63.736  77.999
 6077DG     BB239549  35.294  63.520  78.202
 6077DG     BB339550  35.219  63.335  78.202
 6077DG     SC139551  35.041  63.382  78.447
 6077DG     SC239552  35.073  63.253  78.714
 6077DG     SC339553  34.819  63.405  78.700
 6077DG     SC439554  34.893  63.440  78.425
 6078DT     BB139555  35.335  63.170  78.121
 6078DT     BB239556  35.437  62.998  78.420
 6078DT     BB339557  35.320  62.830  78.449
 6078DT     SC139558  35.117  62.976  78.528
 6078DT     SC239559  35.084  62.945  78.738
 6078DT     SC339560  34.877  63.087  78.533
 6079DT     BB139561  35.527  62.667  78.379
 6079DT     BB239562  35.432  62.557  78.709
 6079DT     BB339563  35.280  62.417  78.697
 6079DT     SC139564  35.103  62.602  78.640
 6079DT     SC239565  34.968  62.625  78.805
 6079DT     SC339566  34.923  62.740  78.506
 6080DC     BB139567  35.455  62.223  78.769
 6080DC     BB239568  35.194  62.210  79.017
 6080DC     BB339569  35.039  62.089  78.951
 6080DC     SC139570  34.956  62.273  78.784
 6080DC     SC239571  34.768  62.352  78.851
 6080DC     SC339572  34.896  62.394  78.557
 6081DA     BB139573  35.154  61.971  79.336
 6081DA     BB239574  34.790  62.014  79.332
 6081DA     BB339575  34.698  61.856  79.223
 6081DA     SC139576  34.706  62.007  78.951
 6081DA     SC239577  34.544  62.112  78.794
 6081DA     SC339578  34.730  62.090  78.619
 6081DA     SC439579  34.834  61.983  78.856
 6082DT     BB139580  34.593  61.756  79.333
 6082DT     BB239581  34.276  61.879  79.211
 6082DT     BB339582  34.196  61.745  79.074
 6082DT     SC139583  34.367  61.820  78.890
 6082DT     SC239584  34.262  61.928  78.735
 6082DT     SC339585  34.563  61.810  78.714
 6083DT     BB139586  34.018  61.697  79.263
 6083DT     BB239587  33.827  61.804  78.977
 6083DT     BB339588  33.798  61.644  78.848
 6083DT     SC139589  34.047  61.657  78.764
 6083DT     SC239590  34.050  61.726  78.561
 6083DT     SC339591  34.297  61.587  78.719
 6084DC     BB139592  33.548  61.660  78.926
 6084DC     BB239593  33.538  61.697  78.567
 6084DC     BB339594  33.547  61.511  78.477
 6084DC     SC139595  33.802  61.488  78.530
 6084DC     SC239596  33.915  61.500  78.347
 6084DC     SC339597  34.027  61.395  78.633
 6085DC     BB139598  33.293  61.553  78.411
 6085DC     BB239599  33.463  61.493  78.098
 6085DC     BB339600  33.480  61.289  78.065
 6085DC     SC139601  33.671  61.269  78.244
 6085DC     SC239602  33.857  61.226  78.145
 6085DC     SC339603  33.799  61.196  78.463
 6086DA     BB139604  33.321  61.477  77.724
 6086DA     BB239605  33.593  61.255  77.618
 6086DA     BB339606  33.536  61.051  77.640
 6086DA     SC139607  33.644  61.025  77.930
 6086DA     SC239608  33.831  60.909  78.048
 6086DA     SC339609  33.691  60.944  78.260
 6086DA     SC439610  33.542  61.055  78.051
 6087DT     BB139611  33.523  60.958  77.476
 6087DT     BB239612  33.819  60.755  77.514
 6087DT     BB339613  33.766  60.565  77.577
 6087DT     SC139614  33.718  60.650  77.821
 6087DT     SC239615  33.868  60.573  77.954
 6087DT     SC339616  33.586  60.708  78.042
 6088DT     BB139617  33.831  60.478  77.333
 6088DT     BB239618  34.032  60.279  77.557
 6088DT     BB339619  33.922  60.117  77.626
 6088DT     SC139620  33.783  60.271  77.787
 6088DT     SC239621  33.836  60.228  77.991
 6088DT     SC339622  33.577  60.397  77.894
 6089DA     BB139623  34.282  59.961  77.476
 6089DA     BB239624  34.223  59.810  77.805
 6089DA     BB339625  34.063  59.669  77.794
 6089DA     SC139626  33.842  59.876  77.862
 6089DA     SC239627  33.687  59.926  78.052
 6089DA     SC339628  33.549  60.055  77.879
 6089DA     SC439629  33.769  59.950  77.740
 6090DT     BB139630  34.097  59.462  77.820
 6090DT     BB239631  33.947  59.432  78.147
 6090DT     BB339632  33.763  59.337  78.132
 6090DT     SC139633  33.652  59.553  78.033
 6090DT     SC239634  33.515  59.636  78.177
 6090DT     SC339635  33.530  59.714  77.862
 6091DT     BB139636  33.843  59.083  78.234
 6091DT     BB239637  33.566  59.173  78.446
 6091DT     BB339638  33.389  59.099  78.367
 6091DT     SC139639  33.387  59.282  78.179
 6091DT     SC239640  33.226  59.420  78.216
 6091DT     SC339641  33.392  59.391  77.939
 6092DC     BB139642  33.346  58.875  78.549
 6092DC     BB239643  33.040  59.066  78.577
 6092DC     BB339644  32.898  58.991  78.446
 6092DC     SC139645  33.020  59.099  78.240
 6092DC     SC239646  32.900  59.260  78.163
 6092DC     SC339647  33.151  59.120  78.012
 6093DA     BB139648  32.699  58.981  78.815
 6093DA     BB239649  32.479  59.153  78.578
 6093DA     BB339650  32.382  59.012  78.450
 6093DA     SC139651  32.604  59.021  78.232
 6093DA     SC239652  32.630  59.104  77.999
 6093DA     SC339653  32.828  58.942  77.984
 6093DA     SC439654  32.722  58.913  78.243
 6094DT     BB139655  32.176  58.987  78.462
 6094DT     BB239656  32.098  59.168  78.159
 6094DT     BB339657  32.040  59.035  78.011
 6094DT     SC139658  32.287  58.956  77.974
 6094DT     SC239659  32.356  59.025  77.782
 6094DT     SC339660  32.498  58.799  77.965
 6095DC     BB139661  31.789  59.130  78.038
 6095DC     BB239662  31.873  59.187  77.692
 6095DC     BB339663  31.831  59.017  77.580
 6095DC     SC139664  32.042  58.893  77.675
 6095DC     SC239665  32.188  58.870  77.519
 6095DC     SC339666  32.188  58.715  77.803
 6096DA     BB139667  31.659  59.353  77.397
 6096DA     BB239668  31.840  59.164  77.141
 6096DA     BB339669  31.736  58.983  77.095
 6096DA     SC139670  31.887  58.814  77.309
 6096DA     SC239671  32.055  58.630  77.314
 6096DA     SC339672  31.971  58.587  77.552
 6096DA     SC439673  31.819  58.802  77.454
 6097DT     BB139674  31.664  58.970  76.914
 6097DT     BB239675  31.900  58.730  76.785
 6097DT     BB339676  31.813  58.542  76.779
 6097DT     SC139677  31.833  58.515  77.039
 6097DT     SC239678  31.980  58.365  77.084
 6097DT     SC339679  31.763  58.486  77.291
 6098DT     BB139680  31.792  58.551  76.504
 6098DT     BB239681  31.976  58.247  76.567
 6098DT     BB339682  31.844  58.090  76.595
 6098DT     SC139683  31.781  58.175  76.835
 6098DT     SC239684  31.859  58.039  76.982
 6098DT     SC339685  31.636  58.268  77.035
 6099DG     BB139686  32.067  57.969  76.273
 6099DG     BB239687  32.061  57.713  76.529
 6099DG     BB339688  31.892  57.609  76.516
 6099DG     SC139689  31.737  57.791  76.706
 6099DG     SC239690  31.635  57.717  76.977
 6099DG     SC339691  31.531  57.981  76.894
 6099DG     SC439692  31.660  57.918  76.647
 6100DT     BB139693  31.871  57.374  76.461
 6100DT     BB239694  31.801  57.236  76.787
 6100DT     BB339695  31.604  57.175  76.797
 6100DT     SC139696  31.520  57.424  76.815
 6100DT     SC239697  31.442  57.458  77.013
 6100DT     SC339698  31.398  57.649  76.755
 6101DT     BB139699  31.665  56.903  76.786
 6101DT     BB239700  31.480  56.939  77.094
 6101DT     BB339701  31.278  56.910  77.058
 6101DT     SC139702  31.256  57.145  76.944
 6101DT     SC239703  31.140  57.275  77.071
 6101DT     SC339704  31.214  57.329  76.760
 6102DG     BB139705  31.399  56.644  77.342
 6102DG     BB239706  31.118  56.841  77.454
 6102DG     BB339707  30.950  56.773  77.372
 6102DG     SC139708  30.969  56.954  77.126
 6102DG     SC239709  30.783  57.178  77.058
 6102DG     SC339710  30.969  57.123  76.834
 6102DG     SC439711  31.050  56.903  76.997
 6103DT     BB139712  30.801  56.701  77.502
 6103DT     BB239713  30.561  56.971  77.490
 6103DT     BB339714  30.404  56.921  77.365
 6103DT     SC139715  30.552  56.960  77.152
 6103DT     SC239716  30.482  57.134  77.048
 6103DT     SC339717  30.683  56.910  76.928
 6104DA     BB139718  30.269  57.064  77.736
 6104DA     BB239719  30.091  57.242  77.469
 6104DA     BB339720  29.955  57.110  77.370
 6104DA     SC139721  30.162  57.020  77.156
 6104DA     SC239722  30.198  57.049  76.911
 6104DA     SC339723  30.346  56.840  76.929
 6104DA     SC439724  30.249  56.888  77.187
 6105DA     BB139725  29.776  57.370  77.452
 6105DA     BB239726  29.712  57.407  77.093
 6105DA     BB339727  29.585  57.250  77.023
 6105DA     SC139728  29.819  57.059  76.950
 6105DA     SC239729  29.923  56.966  76.744
 6105DA     SC339730  30.018  56.784  76.898
 6105DA     SC439731  29.867  56.954  77.062
 6106DG     BB139732  29.429  57.505  76.951
 6106DG     BB239733  29.481  57.381  76.616
 6106DG     BB339734  29.357  57.230  76.579
 6106DG     SC139735  29.550  57.015  76.681
 6106DG     SC239736  29.681  56.805  76.515
 6106DG     SC339737  29.728  56.756  76.803
 6106DG     SC439738  29.548  56.976  76.836
 6107DA     BB139739  29.292  57.417  76.297
 6107DA     BB239740  29.387  57.130  76.090
 6107DA     BB339741  29.239  56.977  76.102
 6107DA     SC139742  29.373  56.833  76.343
 6107DA     SC239743  29.493  56.619  76.386
 6107DA     SC339744  29.435  56.659  76.633
 6107DA     SC439745  29.326  56.875  76.491
 6108DA     BB139746  29.268  57.015  75.777
 6108DA     BB239747  29.359  56.660  75.766
 6108DA     BB339748  29.188  56.538  75.805
 6108DA     SC139749  29.236  56.529  76.113
 6108DA     SC239750  29.304  56.361  76.283
 6108DA     SC339751  29.198  56.520  76.454
 6108DA     SC439752  29.163  56.640  76.203
 6109DT     BB139753  29.119  56.425  75.658
 6109DT     BB239754  29.226  56.106  75.789
 6109DT     BB339755  29.065  56.006  75.872
 6109DT     SC139756  29.066  56.163  76.082
 6109DT     SC239757  29.130  56.051  76.255
 6109DT     SC339758  28.985  56.342  76.259
 6110DT     BB139759  29.048  55.826  75.663
 6110DT     BB239760  29.076  55.617  75.955
 6110DT     BB339761  28.888  55.579  76.033
 6110DT     SC139762  28.872  55.822  76.132
 6110DT     SC239763  28.882  55.812  76.347
 6110DT     SC339764  28.787  56.068  76.172
 6111DC     BB139765  28.869  55.311  75.943
 6111DC     BB239766  28.812  55.284  76.298
 6111DC     BB339767  28.610  55.300  76.339
 6111DC     SC139768  28.613  55.559  76.296
 6111DC     SC239769  28.584  55.662  76.482
 6111DC     SC339770  28.561  55.793  76.186
 6112DT     BB139771  28.565  55.025  76.394
 6112DT     BB239772  28.450  55.192  76.693
 6112DT     BB339773  28.248  55.234  76.677
 6112DT     SC139774  28.294  55.431  76.509
 6112DT     SC239775  28.250  55.618  76.606
 6112DT     SC339776  28.293  55.573  76.288
 6113DC     BB139777  28.165  55.034  76.856
 6113DC     BB239778  28.030  55.338  76.997
 6113DC     BB339779  27.840  55.371  76.923
 6113DC     SC139780  27.935  55.447  76.691
 6113DC     SC239781  27.902  55.658  76.665
 6113DC     SC339782  27.984  55.450  76.431
 6114DT     BB139783  27.716  55.302  77.162
 6114DT     BB239784  27.600  55.638  77.097
 6114DT     BB339785  27.427  55.632  76.983
 6114DT     SC139786  27.562  55.569  76.767
 6114DT     SC239787  27.558  55.735  76.630
 6114DT     SC339788  27.646  55.431  76.559
 6115DA     BB139789  27.334  55.871  77.316
 6115DA     BB239790  27.231  56.054  77.015
 6115DA     BB339791  27.052  55.971  76.935
 6115DA     SC139792  27.200  55.771  76.748
 6115DA     SC239793  27.238  55.741  76.503
 6115DA     SC339794  27.293  55.497  76.563
 6115DA     SC439795  27.230  55.624  76.805
 6116DA     BB139796  26.937  56.279  76.960
 6116DA     BB239797  26.900  56.276  76.595
 6116DA     BB339798  26.724  56.169  76.539
 6116DA     SC139799  26.871  55.895  76.514
 6116DA     SC239800  26.937  55.738  76.333
 6116DA     SC339801  26.953  55.562  76.519
 6116DA     SC439802  26.874  55.800  76.644
 6117DA     BB139803  26.653  56.447  76.381
 6117DA     BB239804  26.668  56.253  76.071
 6117DA     BB339805  26.489  56.139  76.046
 6117DA     SC139806  26.599  55.888  76.194
 6117DA     SC239807  26.669  55.656  76.137
 6117DA     SC339808  26.634  55.606  76.386
 6117DA     SC439809  26.571  55.877  76.352
 6118DT     BB139810  26.365  56.184  75.889
 6118DT     BB239811  26.460  55.903  75.684
 6118DT     BB339812  26.308  55.763  75.682
 6118DT     SC139813  26.366  55.684  75.925
 6118DT     SC239814  26.449  55.486  75.918
 6118DT     SC339815  26.340  55.637  76.183
 6119DA     BB139816  26.441  55.856  75.297
 6119DA     BB239817  26.443  55.492  75.336
 6119DA     BB339818  26.243  55.417  75.340
 6119DA     SC139819  26.216  55.438  75.649
 6119DA     SC239820  26.201  55.283  75.844
 6119DA     SC339821  26.100  55.483  75.970
 6119DA     SC439822  26.154  55.573  75.710
 6120DT     BB139823  26.236  55.316  75.204
 6120DT     BB239824  26.241  55.002  75.383
 6120DT     BB339825  26.048  54.936  75.415
 6120DT     SC139826  26.010  55.114  75.604
 6120DT     SC239827  25.997  55.015  75.794
 6120DT     SC339828  25.909  55.321  75.733
 6121DA     BB139829  26.339  54.657  75.282
 6121DA     BB239830  26.148  54.512  75.560
 6121DA     BB339831  25.944  54.485  75.503
 6121DA     SC139832  25.854  54.766  75.603
 6121DA     SC239833  25.714  54.860  75.787
 6121DA     SC339834  25.699  55.070  75.641
 6121DA     SC439835  25.855  54.886  75.497
 6122DG     BB139836  26.065  54.219  75.603
 6122DG     BB239837  25.798  54.253  75.844
 6122DG     BB339838  25.622  54.227  75.754
 6122DG     SC139839  25.586  54.523  75.684
 6122DG     SC239840  25.379  54.706  75.797
 6122DG     SC339841  25.524  54.835  75.574
 6122DG     SC439842  25.646  54.578  75.546
 6123DT     BB139843  25.516  54.072  75.825
 6123DT     BB239844  25.241  54.230  75.996
 6123DT     BB339845  25.077  54.241  75.871
 6123DT     SC139846  25.184  54.436  75.733
 6123DT     SC239847  25.076  54.618  75.769
 6123DT     SC339848  25.288  54.568  75.529
 6124DT     BB139849  24.960  54.049  76.018
 6124DT     BB239850  24.719  54.317  76.013
 6124DT     BB339851  24.603  54.305  75.842
 6124DT     SC139852  24.799  54.395  75.693
 6124DT     SC239853  24.750  54.592  75.623
 6124DT     SC339854  24.986  54.402  75.508
 6125DT     BB139855  24.383  54.214  75.983
 6125DT     BB239856  24.257  54.500  75.803
 6125DT     BB339857  24.190  54.442  75.616
 6125DT     SC139858  24.436  54.416  75.527
 6125DT     SC239859  24.477  54.571  75.383
 6125DT     SC339860  24.655  54.304  75.431
 6126DT     BB139861  23.922  54.465  75.684
 6126DT     BB239862  23.953  54.672  75.390
 6126DT     BB339863  23.920  54.558  75.220
 6126DT     SC139864  24.155  54.444  75.241
 6126DT     SC239865  24.282  54.512  75.081
 6126DT     SC339866  24.338  54.257  75.272
 6127DC     BB139867  23.667  54.666  75.171
 6127DC     BB239868  23.843  54.721  74.861
 6127DC     BB339869  23.818  54.558  74.736
 6127DC     SC139870  23.985  54.413  74.877
 6127DC     SC239871  24.165  54.380  74.764
 6127DC     SC339872  24.077  54.220  75.031
 6128DT     BB139873  23.635  54.684  74.561
 6128DT     BB239874  23.896  54.568  74.340
 6128DT     BB339875  23.852  54.378  74.272
 6128DT     SC139876  23.915  54.272  74.503
 6128DT     SC239877  24.097  54.158  74.483
 6128DT     SC339878  23.891  54.144  74.733
 6129DT     BB139879  23.767  54.444  74.002
 6129DT     BB239880  24.026  54.199  73.948
 6129DT     BB339881  23.943  54.010  73.934
 6129DT     SC139882  23.902  54.000  74.193
 6129DT     SC239883  24.034  53.855  74.281
 6129DT     SC339884  23.775  53.987  74.423
 6130DT     BB139885  23.952  53.959  73.639
 6130DT     BB239886  24.129  53.675  73.775
 6130DT     BB339887  23.999  53.515  73.796
 6130DT     SC139888  23.885  53.624  74.006
 6130DT     SC239889  23.937  53.510  74.181
 6130DT     SC339890  23.701  53.731  74.160
 6131DT     BB139891  24.075  53.338  73.564
 6131DT     BB239892  24.119  53.122  73.850
 6131DT     BB339893  23.950  53.005  73.876
 6131DT     SC139894  23.814  53.208  73.971
 6131DT     SC239895  23.778  53.177  74.181
 6131DT     SC339896  23.629  53.395  73.992
 6132DT     BB139897  24.068  52.764  73.786
 6132DT     BB239898  23.967  52.693  74.125
 6132DT     BB339899  23.776  52.613  74.126
 6132DT     SC139900  23.669  52.847  74.077
 6132DT     SC239901  23.562  52.915  74.251
 6132DT     SC339902  23.536  53.039  73.953
 6133DT     BB139903  23.885  52.377  74.195
 6133DT     BB239904  23.660  52.459  74.465
 6133DT     BB339905  23.469  52.394  74.420
 6133DT     SC139906  23.434  52.590  74.248
 6133DT     SC239907  23.289  52.728  74.326
 6133DT     SC339908  23.394  52.715  74.020
 6134DG     BB139909  23.598  52.243  74.775
 6134DG     BB239910  23.279  52.412  74.807
 6134DG     BB339911  23.134  52.298  74.732
 6134DG     SC139912  23.158  52.412  74.449
 6134DG     SC239913  22.952  52.577  74.309
 6134DG     SC339914  23.170  52.500  74.124
 6134DG     SC439915  23.261  52.345  74.346
 6135DT     BB139916  22.988  52.243  74.865
 6135DT     BB239917  22.710  52.447  74.761
 6135DT     BB339918  22.582  52.337  74.641
 6135DT     SC139919  22.748  52.350  74.438
 6135DT     SC239920  22.664  52.476  74.285
 6135DT     SC339921  22.915  52.273  74.249
 6136DA     BB139922  22.350  52.514  74.943
 6136DA     BB239923  22.184  52.577  74.623
 6136DA     BB339924  22.095  52.397  74.549
 6136DA     SC139925  22.346  52.310  74.388
 6136DA     SC239926  22.414  52.288  74.149
 6136DA     SC339927  22.596  52.130  74.236
 6136DA     SC439928  22.452  52.213  74.462
 6137DA     BB139929  21.820  52.581  74.537
 6137DA     BB239930  21.818  52.522  74.175
 6137DA     BB339931  21.746  52.325  74.133
 6137DA     SC139932  22.028  52.194  74.140
 6137DA     SC239933  22.188  52.092  73.978
 6137DA     SC339934  22.293  51.981  74.184
 6137DA     SC439935  22.078  52.133  74.280
 6138DT     BB139936  21.563  52.296  74.033
 6138DT     BB239937  21.707  52.206  73.715
 6138DT     BB339938  21.683  52.004  73.680
 6138DT     SC139939  21.871  51.944  73.853
 6138DT     SC239940  22.042  51.866  73.748
 6138DT     SC339941  21.989  51.845  74.067
 6139DC     BB139942  21.500  52.061  73.490
 6139DC     BB239943  21.758  51.877  73.319
 6139DC     BB339944  21.722  51.674  73.334
 6139DC     SC139945  21.798  51.670  73.585
 6139DC     SC239946  21.984  51.563  73.601
 6139DC     SC339947  21.788  51.642  73.847
 6140DT     BB139948  21.681  51.704  73.079
 6140DT     BB239949  21.952  51.468  73.109
 6140DT     BB339950  21.877  51.280  73.149
 6140DT     SC139951  21.825  51.345  73.398
 6140DT     SC239952  21.959  51.240  73.529
 6140DT     SC339953  21.689  51.395  73.618
 6141DT     BB139954  21.985  51.265  72.919
 6141DT     BB239955  22.153  51.022  73.126
 6141DT     BB339956  22.030  50.858  73.157
 6141DT     SC139957  21.881  50.992  73.327
 6141DT     SC239958  21.911  50.914  73.525
 6141DT     SC339959  21.670  51.110  73.433
 6142DT     BB139960  22.233  50.781  73.024
 6142DT     BB239961  22.218  50.577  73.321
 6142DT     BB339962  22.059  50.445  73.308
 6142DT     SC139963  21.886  50.637  73.356
 6142DT     SC239964  21.800  50.607  73.551
 6142DT     SC339965  21.687  50.806  73.321
 6143DT     BB139966  22.256  50.277  73.290
 6143DT     BB239967  22.052  50.160  73.564
 6143DT     BB339968  21.885  50.061  73.491
 6143DT     SC139969  21.772  50.288  73.422
 6143DT     SC239970  21.603  50.325  73.549
 6143DT     SC339971  21.668  50.477  73.271
 6144DG     BB139972  22.087  49.808  73.739
 6144DG     BB239973  21.735  49.821  73.819
 6144DG     BB339974  21.631  49.718  73.685
 6144DG     SC139975  21.589  49.956  73.497
 6144DG     SC239976  21.329  50.088  73.436
 6144DG     SC339977  21.543  50.191  73.259
 6144DG     SC439978  21.699  49.987  73.385
 6145DG     BB139979  21.510  49.526  73.926
 6145DG     BB239980  21.183  49.644  73.827
 6145DG     BB339981  21.118  49.540  73.670
 6145DG     SC139982  21.241  49.730  73.463
 6145DG     SC239983  21.089  49.904  73.273
 6145DG     SC339984  21.378  49.905  73.210
 6145DG     SC439985  21.391  49.705  73.414
 6146DT     BB139986  20.935  49.408  73.676
 6146DT     BB239987  20.697  49.601  73.486
 6146DT     BB339988  20.675  49.520  73.297
 6146DT     SC139989  20.907  49.616  73.221
 6146DT     SC239990  20.876  49.773  73.077
 6146DT     SC339991  21.157  49.623  73.137
 6147DT     BB139992  20.427  49.420  73.357
 6147DT     BB239993  20.371  49.621  73.063
 6147DT     BB339994  20.404  49.508  72.892
 6147DT     SC139995  20.664  49.519  72.927
 6147DT     SC239996  20.751  49.641  72.773
 6147DT     SC339997  20.912  49.440  72.970
 6148DA     BB139998  20.017  49.662  72.832
 6148DA     BB239999  20.206  49.720  72.524
 6148DA     BB340000  20.228  49.538  72.414
 6148DA     SC140001  20.497  49.460  72.550
 6148DA     SC240002  20.737  49.441  72.487
 6148DA     SC340003  20.759  49.289  72.692
 6148DA     SC440004  20.489  49.366  72.681
 6149DC     BB140005  20.131  49.494  72.217
 6149DC     BB240006  20.428  49.524  72.015
 6149DC     BB340007  20.487  49.338  71.947
 6149DC     SC140008  20.579  49.272  72.184
 6149DC     SC240009  20.794  49.262  72.176
 6149DC     SC340010  20.606  49.145  72.413
 6150DT     BB140011  20.398  49.356  71.670
 6150DT     BB240012  20.748  49.277  71.639
 6150DT     BB340013  20.773  49.072  71.624
 6150DT     SC140014  20.724  49.038  71.879
 6150DT     SC240015  20.904  48.978  71.979
 6150DT     SC340016  20.605  48.959  72.101
 6151DG     BB140017  20.930  49.176  71.254
 6151DG     BB240018  21.167  48.974  71.439
 6151DG     BB340019  21.128  48.781  71.411
 6151DG     SC140020  20.935  48.759  71.648
 6151DG     SC240021  20.980  48.602  71.897
 6151DG     SC340022  20.703  48.705  71.887
 6151DG     SC440023  20.780  48.791  71.624
 6152DA     BB140024  21.456  48.715  71.305
 6152DA     BB240025  21.509  48.498  71.596
 6152DA     BB340026  21.434  48.302  71.556
 6152DA     SC140027  21.150  48.362  71.668
 6152DA     SC240028  21.012  48.297  71.865
 6152DA     SC340029  20.811  48.373  71.724
 6152DA     SC440030  21.038  48.413  71.564
 6153DT     BB140031  21.568  48.153  71.550
 6153DT     BB240032  21.490  48.020  71.876
 6153DT     BB340033  21.384  47.844  71.857
 6153DT     SC140034  21.166  47.973  71.789
 6153DT     SC240035  21.021  47.956  71.947
 6153DT     SC340036  20.961  48.055  71.644
 6154DA     BB140037  21.705  47.817  72.124
 6154DA     BB240038  21.406  47.683  72.288
 6154DA     BB340039  21.349  47.498  72.199
 6154DA     SC140040  21.161  47.628  71.988
 6154DA     SC240041  20.916  47.641  71.942
 6154DA     SC340042  20.985  47.704  71.703
 6154DA     SC440043  21.224  47.664  71.845
 6155DT     BB140044  21.364  47.382  72.326
 6155DT     BB240045  21.011  47.325  72.380
 6155DT     BB340046  20.948  47.163  72.268
 6155DT     SC140047  20.956  47.302  72.046
 6155DT     SC240048  20.755  47.335  71.975
 6155DT     SC340049  21.026  47.380  71.804
 6156DA     BB140050  20.818  47.133  72.667
 6156DA     BB240051  20.536  47.053  72.447
 6156DA     BB340052  20.569  46.867  72.349
 6156DA     SC140053  20.710  46.994  72.102
 6156DA     SC240054  20.662  47.030  71.860
 6156DA     SC340055  20.916  47.058  71.835
 6156DA     SC440056  20.871  47.007  72.107
 6157DG     BB140057  20.306  46.776  72.492
 6157DG     BB240058  20.186  46.734  72.154
 6157DG     BB340059  20.249  46.560  72.080
 6157DG     SC140060  20.509  46.676  71.966
 6157DG     SC240061  20.578  46.699  71.677
 6157DG     SC340062  20.811  46.764  71.846
 6157DG     SC440063  20.639  46.681  72.059
 6158DA     BB140064  19.923  46.445  71.992
 6158DA     BB240065  20.019  46.414  71.640
 6158DA     BB340066  20.126  46.232  71.607
 6158DA     SC140067  20.406  46.357  71.661
 6158DA     SC240068  20.610  46.415  71.530
 6158DA     SC340069  20.730  46.414  71.757
 6158DA     SC440070  20.462  46.351  71.811
 6159DT     BB140071  20.058  46.030  71.485
 6159DT     BB240072  20.268  46.088  71.198
 6159DT     BB340073  20.416  45.944  71.187
 6159DT     SC140074  20.549  46.054  71.385
 6159DT     SC240075  20.731  46.140  71.309
 6159DT     SC340076  20.662  46.085  71.621
 6160DT     BB140077  20.313  45.775  70.968
 6160DT     BB240078  20.640  45.875  70.852
 6160DT     BB340079  20.779  45.728  70.898
 6160DT     SC140080  20.779  45.797  71.152
 6160DT     SC240081  20.968  45.888  71.201
 6160DT     SC340082  20.747  45.782  71.413
 6161DT     BB140083  20.808  45.636  70.633
 6161DT     BB240084  21.139  45.745  70.728
 6161DT     BB340085  21.246  45.586  70.806
 6161DT     SC140086  21.111  45.596  71.031
 6161DT     SC240087  21.239  45.664  71.189
 6161DT     SC340088  20.950  45.523  71.227
 6162DT     BB140089  21.388  45.609  70.585
 6162DT     BB240090  21.619  45.668  70.856
 6162DT     BB340091  21.687  45.488  70.932
 6162DT     SC140092  21.459  45.444  71.053
 6162DT     SC240093  21.487  45.459  71.266
 6162DT     SC340094  21.230  45.329  71.117
 6163DT     BB140095  21.906  45.578  70.826
 6163DT     BB240096  21.976  45.535  71.177
 6163DT     BB340097  22.014  45.336  71.218
 6163DT     SC140098  21.760  45.275  71.197
 6163DT     SC240099  21.683  45.223  71.391
 6163DT     SC340100  21.538  45.165  71.107
 6164DA     BB140101  22.292  45.606  71.384
 6164DA     BB240102  22.187  45.368  71.642
 6164DA     BB340103  22.260  45.173  71.597
 6164DA     SC140104  22.008  45.090  71.435
 6164DA     SC240105  21.815  44.933  71.461
 6164DA     SC340106  21.791  44.954  71.206
 6164DA     SC440107  22.010  45.115  71.277
 6165DC     BB140108  22.371  45.127  71.726
 6165DC     BB240109  22.162  44.880  71.884
 6165DC     BB340110  22.209  44.692  71.813
 6165DC     SC140111  22.087  44.739  71.585
 6165DC     SC240112  21.909  44.619  71.573
 6165DC     SC340113  22.050  44.775  71.327
 6166DA     BB140114  22.199  44.693  72.233
 6166DA     BB240115  22.009  44.403  72.114
 6166DA     BB340116  22.141  44.258  72.029
 6166DA     SC140117  22.123  44.373  71.741
 6166DA     SC240118  22.026  44.307  71.521
 6166DA     SC340119  22.190  44.476  71.420
 6166DA     SC440120  22.233  44.482  71.697
 6167DC     BB140121  22.147  44.095  72.125
 6167DC     BB240122  21.966  43.892  71.888
 6167DC     BB340123  22.098  43.781  71.775
 6167DC     SC140124  22.169  43.991  71.636
 6167DC     SC240125  22.096  43.971  71.434
 6167DC     SC340126  22.320  44.183  71.535
 6168DG     BB140127  21.838  43.524  71.956
 6168DG     BB240128  21.861  43.461  71.600
 6168DG     BB340129  22.030  43.365  71.559
 6168DG     SC140130  22.194  43.620  71.517
 6168DG     SC240131  22.312  43.712  71.259
 6168DG     SC340132  22.409  43.878  71.484
 6168DG     SC440133  22.267  43.687  71.643
 6169DT     BB140134  22.023  43.166  71.473
 6169DT     BB240135  22.126  43.226  71.133
 6169DT     BB340136  22.325  43.172  71.109
 6169DT     SC140137  22.407  43.386  71.237
 6169DT     SC240138  22.503  43.520  71.098
 6169DT     SC340139  22.519  43.537  71.421
 6170DC     BB140140  22.249  42.954  70.966
 6170DC     BB240141  22.479  43.127  70.749
 6170DC     BB340142  22.674  43.070  70.792
 6170DC     SC140143  22.676  43.214  71.011
 6170DC     SC240144  22.808  43.381  70.986
 6170DC     SC340145  22.687  43.276  71.267
 6171DT     BB140146  22.700  42.912  70.564
 6171DT     BB240147  22.981  43.137  70.543
 6171DT     BB340148  23.144  43.055  70.642
 6171DT     SC140149  23.038  43.109  70.876
 6171DT     SC240150  23.152  43.265  70.972
 6171DT     SC340151  22.934  43.073  71.116
 6172DC     BB140152  23.295  42.975  70.412
 6172DC     BB240153  23.528  43.181  70.596
 6172DC     BB340154  23.641  43.063  70.722
 6172DC     SC140155  23.440  43.033  70.888
 6172DC     SC240156  23.481  43.140  71.070
 6172DC     SC340157  23.249  42.918  71.029
 6173DT     BB140158  23.891  43.060  70.573
 6173DT     BB240159  23.989  43.184  70.897
 6173DT     BB340160  24.055  43.028  71.016
 6173DT     SC140161  23.809  42.943  71.054
 6173DT     SC240162  23.752  42.978  71.258
 6173DT     SC340163  23.597  42.787  71.048
 6174DC     BB140164  24.333  43.089  71.002
 6174DC     BB240165  24.262  43.092  71.356
 6174DC     BB340166  24.298  42.905  71.437
 6174DC     SC140167  24.079  42.808  71.330
 6174DC     SC240168  23.936  42.767  71.486
 6174DC     SC340169  23.921  42.660  71.181
 6175DA     BB140170  24.511  43.181  71.669
 6175DA     BB240171  24.313  42.972  71.896
 6175DA     BB340172  24.401  42.779  71.915
 6175DA     SC140173  24.239  42.655  71.680
 6175DA     SC240174  24.056  42.489  71.650
 6175DA     SC340175  24.137  42.473  71.407
 6175DA     SC440176  24.306  42.659  71.534
 6176DG     BB140177  24.413  42.866  72.210
 6176DG     BB240178  24.180  42.592  72.251
 6176DG     BB340179  24.279  42.420  72.259
 6176DG     SC140180  24.271  42.372  71.957
 6176DG     SC240181  24.121  42.154  71.818
 6176DG     SC340182  24.297  42.298  71.629
 6176DG     SC440183  24.388  42.432  71.866
 6177DA     BB140184  24.089  42.377  72.542
 6177DA     BB240185  23.949  42.070  72.398
 6177DA     BB340186  24.094  41.913  72.402
 6177DA     SC140187  24.208  41.979  72.121
 6177DA     SC240188  24.210  41.876  71.894
 6177DA     SC340189  24.413  42.026  71.849
 6177DA     SC440190  24.334  42.079  72.113
 6178DA     BB140191  23.838  41.771  72.548
 6178DA     BB240192  23.851  41.521  72.280
 6178DA     BB340193  24.019  41.392  72.307
 6178DA     SC140194  24.211  41.567  72.137
 6178DA     SC240195  24.328  41.553  71.916
 6178DA     SC340196  24.484  41.733  72.011
 6178DA     SC440197  24.298  41.678  72.214
 6179DT     BB140198  23.982  41.201  72.349
 6179DT     BB240199  24.076  41.063  72.030
 6179DT     BB340200  24.263  40.974  72.044
 6179DT     SC140201  24.383  41.207  72.048
 6179DT     SC240202  24.492  41.235  71.865
 6179DT     SC340203  24.526  41.410  72.136
 6180DT     BB140204  24.156  40.719  72.033
 6180DT     BB240205  24.396  40.723  71.764
 6180DT     BB340206  24.582  40.666  71.834
 6180DT     SC140207  24.617  40.897  71.952
 6180DT     SC240208  24.771  41.007  71.850
 6180DT     SC340209  24.653  41.075  72.144
 6181DA     BB140210  24.516  40.404  71.512
 6181DA     BB240211  24.853  40.544  71.470
 6181DA     BB340212  24.989  40.451  71.604
 6181DA     SC140213  24.945  40.657  71.832
 6181DA     SC240214  25.073  40.840  71.944
 6181DA     SC340215  24.906  40.812  72.137
 6181DA     SC440216  24.832  40.624  71.942
 6182DA     BB140217  25.166  40.384  71.333
 6182DA     BB240218  25.434  40.590  71.476
 6182DA     BB340219  25.540  40.480  71.625
 6182DA     SC140220  25.358  40.574  71.859
 6182DA     SC240221  25.377  40.722  72.059
 6182DA     SC340222  25.173  40.593  72.148
 6182DA     SC440223  25.232  40.482  71.897
 6183DA     BB140224  25.805  40.557  71.444
 6183DA     BB240225  25.929  40.741  71.736
 6183DA     BB340226  26.012  40.607  71.879
 6183DA     SC140227  25.744  40.567  72.033
 6183DA     SC240228  25.648  40.629  72.255
 6183DA     SC340229  25.481  40.439  72.212
 6183DA     SC440230  25.650  40.445  71.989
 6184DA     BB140231  26.267  40.808  71.845
 6184DA     BB240232  26.225  40.889  72.200
 6184DA     BB340233  26.300  40.731  72.321
 6184DA     SC140234  26.028  40.580  72.336
 6184DA     SC240235  25.853  40.531  72.507
 6184DA     SC340236  25.782  40.341  72.350
 6184DA     SC440237  26.000  40.467  72.226
 6185DG     BB140238  26.483  40.957  72.423
 6185DG     BB240239  26.303  40.900  72.731
 6185DG     BB340240  26.381  40.744  72.828
 6185DG     SC140241  26.200  40.538  72.692
 6185DG     SC240242  25.988  40.376  72.827
 6185DG     SC340243  26.032  40.283  72.549
 6185DG     SC440244  26.247  40.472  72.554
 6186DA     BB140245  26.378  40.971  73.084
 6186DA     BB240246  26.165  40.744  73.277
 6186DA     BB340247  26.278  40.576  73.346
 6186DA     SC140248  26.217  40.402  73.096
 6186DA     SC240249  26.085  40.198  73.041
 6186DA     SC340250  26.236  40.181  72.833
 6186DA     SC440251  26.322  40.408  72.973
 6187DG     BB140252  26.169  40.700  73.604
 6187DG     BB240253  26.001  40.381  73.626
 6187DG     BB340254  26.129  40.241  73.685
 6187DG     SC140255  26.216  40.167  73.401
 6187DG     SC240256  26.163  39.907  73.264
 6187DG     SC340257  26.349  40.074  73.105
 6187DG     SC440258  26.338  40.246  73.334
 6188DT     BB140259  26.081  40.149  73.860
 6188DT     BB240260  25.977  39.821  73.753
 6188DT     BB340261  26.134  39.687  73.774
 6188DT     SC140262  26.256  39.785  73.563
 6188DT     SC240263  26.250  39.641  73.404
 6188DT     SC340264  26.439  39.904  73.415
 6189DG     BB140265  25.814  39.548  73.984
 6189DG     BB240266  25.952  39.293  73.768
 6189DG     BB340267  26.120  39.222  73.845
 6189DG     SC140268  26.300  39.428  73.706
 6189DG     SC240269  26.501  39.369  73.493
 6189DG     SC340270  26.523  39.649  73.585
 6189DG     SC440271  26.328  39.567  73.778
 6190DG     BB140272  25.998  38.912  73.854
 6190DG     BB240273  26.269  38.819  73.634
 6190DG     BB340274  26.434  38.784  73.739
 6190DG     SC140275  26.533  39.073  73.727
 6190DG     SC240276  26.777  39.169  73.583
 6190DG     SC340277  26.661  39.385  73.750
 6190DG     SC440278  26.486  39.177  73.839
 6191DA     BB140279  26.484  38.458  73.604
 6191DA     BB240280  26.813  38.553  73.474
 6191DA     BB340281  26.959  38.545  73.629
 6191DA     SC140282  26.921  38.842  73.714
 6191DA     SC240283  27.049  39.055  73.704
 6191DA     SC340284  26.893  39.135  73.891
 6191DA     SC440285  26.815  38.872  73.831
 6192DA     BB140286  27.151  38.329  73.452
 6192DA     BB240287  27.417  38.581  73.448
 6192DA     BB340288  27.529  38.573  73.630
 6192DA     SC140289  27.350  38.781  73.778
 6192DA     SC240290  27.370  39.015  73.861
 6192DA     SC340291  27.171  38.956  74.012
 6192DA     SC440292  27.227  38.724  73.865
 6193DC     BB140293  27.756  38.503  73.662
 6193DC     BB240294  27.892  38.834  73.704
 6193DC     BB340295  27.961  38.858  73.898
 6193DC     SC140296  27.716  38.880  73.990
 6193DC     SC240297  27.681  39.081  74.056
 6193DC     SC340298  27.496  38.825  74.125
 6194DT     BB140299  28.242  38.843  73.842
 6194DT     BB240300  28.205  39.163  74.004
 6194DT     BB340301  28.239  39.144  74.207
 6194DT     SC140302  28.005  39.029  74.243
 6194DT     SC240303  27.876  39.162  74.351
 6194DT     SC340304  27.825  38.846  74.303
 6195DT     BB140305  28.487  39.271  74.198
 6195DT     BB240306  28.295  39.469  74.430
 6195DT     BB340307  28.322  39.398  74.622
 6195DT     SC140308  28.167  39.191  74.575
 6195DT     SC240309  27.985  39.211  74.687
 6195DT     SC340310  28.091  38.941  74.544
 6196DT     BB140311  28.471  39.618  74.684
 6196DT     BB240312  28.198  39.624  74.920
 6196DT     BB340313  28.247  39.512  75.087
 6196DT     SC140314  28.211  39.287  74.957
 6196DT     SC240315  28.036  39.187  75.032
 6196DT     SC340316  28.264  39.054  74.845
 6197DC     BB140317  28.268  39.742  75.227
 6197DC     BB240318  28.018  39.550  75.403
 6197DC     BB340319  28.110  39.424  75.540
 6197DC     SC140320  28.190  39.262  75.350
 6197DC     SC240321  28.081  39.077  75.363
 6197DC     SC340322  28.351  39.127  75.190
 6198DT     BB140323  28.009  39.584  75.729
 6198DT     BB240324  27.880  39.255  75.805
 6198DT     BB340325  28.017  39.149  75.917
 6198DT     SC140326  28.170  39.109  75.707
 6198DT     SC240327  28.164  38.901  75.653
 6198DT     SC340328  28.379  39.119  75.547
 6199DA     BB140329  27.640  39.133  76.098
 6199DA     BB240330  27.776  38.792  76.085
 6199DA     BB340331  27.936  38.771  76.224
 6199DA     SC140332  28.156  38.854  76.021
 6199DA     SC240333  28.345  38.746  75.898
 6199DA     SC340334  28.436  38.984  75.870
 6199DA     SC440335  28.197  39.009  76.015
 6200DT     BB140336  27.898  38.649  76.364
 6200DT     BB240337  28.116  38.383  76.253
 6200DT     BB340338  28.291  38.384  76.363
 6200DT     SC140339  28.380  38.595  76.234
 6200DT     SC240340  28.545  38.537  76.109
 6200DT     SC340341  28.463  38.841  76.187
 6201DA     BB140342  28.136  37.995  76.371
 6201DA     BB240343  28.493  37.972  76.292
 6201DA     BB340344  28.610  38.014  76.465
 6201DA     SC140345  28.630  38.319  76.407
 6201DA     SC240346  28.804  38.483  76.339
 6201DA     SC340347  28.646  38.661  76.435
 6201DA     SC440348  28.518  38.415  76.474
 6202DC     BB140349  28.710  37.867  76.525
 6202DC     BB240350  29.035  37.986  76.423
 6202DC     BB340351  29.134  38.068  76.585
 6202DC     SC140352  28.984  38.284  76.577
 6202DC     SC240353  29.103  38.451  76.513
 6202DC     SC340354  28.810  38.468  76.650
 6203DA     BB140355  29.397  37.788  76.415
 6203DA     BB240356  29.583  38.099  76.468
 6203DA     BB340357  29.622  38.127  76.676
 6203DA     SC140358  29.361  38.289  76.727
 6203DA     SC240359  29.298  38.524  76.781
 6203DA     SC340360  29.076  38.424  76.863
 6203DA     SC440361  29.231  38.208  76.774
 6204DC     BB140362  29.816  38.119  76.749
 6204DC     BB240363  29.857  38.473  76.805
 6204DC     BB340364  29.847  38.514  77.007
 6204DC     SC140365  29.587  38.481  77.009
 6204DC     SC240366  29.490  38.671  77.041
 6204DC     SC340367  29.350  38.380  77.067
 6205DA     BB140368  30.204  38.689  76.873
 6205DA     BB240369  30.022  38.942  77.066
 6205DA     BB340370  30.033  38.899  77.275
 6205DA     SC140371  29.774  38.726  77.278
 6205DA     SC240372  29.542  38.743  77.368
 6205DA     SC340373  29.535  38.488  77.343
 6205DA     SC440374  29.790  38.568  77.256
 6206DA     BB140375  30.144  39.207  77.284
 6206DA     BB240376  29.853  39.285  77.493
 6206DA     BB340377  29.882  39.212  77.691
 6206DA     SC140378  29.753  38.935  77.634
 6206DA     SC240379  29.545  38.811  77.697
 6206DA     SC340380  29.674  38.600  77.629
 6206DA     SC440381  29.850  38.815  77.588
 6207DA     BB140382  29.809  39.525  77.753
 6207DA     BB240383  29.519  39.398  77.938
 6207DA     BB340384  29.581  39.313  78.124
 6207DA     SC140385  29.618  39.027  78.009
 6207DA     SC240386  29.507  38.804  78.029
 6207DA     SC340387  29.729  38.709  77.942
 6207DA     SC440388  29.765  38.986  77.956
 6208DA     BB140389  29.349  39.524  78.218
 6208DA     BB240390  29.170  39.233  78.350
 6208DA     BB340391  29.266  39.160  78.526
 6208DA     SC140392  29.452  38.962  78.374
 6208DA     SC240393  29.476  38.716  78.347
 6208DA     SC340394  29.715  38.768  78.270
 6208DA     SC440395  29.597  39.015  78.330
 6209DA     BB140396  28.957  39.197  78.626
 6209DA     BB240397  28.961  38.837  78.696
 6209DA     BB340398  29.082  38.796  78.868
 6209DA     SC140399  29.344  38.756  78.705
 6209DA     SC240400  29.496  38.568  78.644
 6209DA     SC340401  29.670  38.751  78.598
 6209DA     SC440402  29.438  38.884  78.683
 6210DG     BB140403  28.813  38.681  78.971
 6210DG     BB240404  29.000  38.371  78.969
 6210DG     BB340405  29.115  38.361  79.131
 6210DG     SC140406  29.355  38.498  78.998
 6210DG     SC240407  29.618  38.370  78.936
 6210DG     SC340408  29.630  38.662  78.891
 6210DG     SC440409  29.366  38.657  79.004
 6211DT     BB140410  29.087  38.202  79.281
 6211DT     BB240411  29.369  37.987  79.215
 6211DT     BB340412  29.515  38.017  79.358
 6211DT     SC140413  29.585  38.246  79.250
 6211DT     SC240414  29.780  38.226  79.161
 6211DT     SC340415  29.626  38.505  79.223
 6212DC     BB140416  29.461  37.776  79.479
 6212DC     BB240417  29.813  37.758  79.400
 6212DC     BB340418  29.924  37.838  79.555
 6212DC     SC140419  29.858  38.083  79.488
 6212DC     SC240420  30.030  38.184  79.409
 6212DC     SC340421  29.753  38.324  79.502
 6213DA     BB140422  30.087  37.457  79.488
 6213DA     BB240423  30.365  37.695  79.498
 6213DA     BB340424  30.405  37.755  79.699
 6213DA     SC140425  30.212  37.999  79.690
 6213DA     SC240426  30.229  38.248  79.689
 6213DA     SC340427  29.984  38.245  79.766
 6213DA     SC440428  30.060  37.976  79.738
 6214DA     BB140429  30.711  37.655  79.630
 6214DA     BB240430  30.819  38.000  79.692
 6214DA     BB340431  30.829  38.038  79.901
 6214DA     SC140432  30.536  38.140  79.921
 6214DA     SC240433  30.417  38.356  79.961
 6214DA     SC340434  30.215  38.210  80.023
 6214DA     SC440435  30.422  38.032  79.957
 6215DA     BB140436  31.136  38.129  79.828
 6215DA     BB240437  31.047  38.464  79.949
 6215DA     BB340438  31.045  38.467  80.162
 6215DA     SC140439  30.744  38.392  80.185
 6215DA     SC240440  30.531  38.502  80.253
 6215DA     SC340441  30.441  38.264  80.283
 6215DA     SC440442  30.707  38.236  80.198
 6216DT     BB140443  31.184  38.580  80.261
 6216DT     BB240444  30.961  38.846  80.360
 6216DT     BB340445  30.919  38.831  80.562
 6216DT     SC140446  30.759  38.627  80.523
 6216DT     SC240447  30.556  38.687  80.560
 6216DT     SC340448  30.662  38.382  80.533
 6217DT     BB140449  31.072  39.050  80.606
 6217DT     BB240450  30.748  39.136  80.740
 6217DT     BB340451  30.733  39.070  80.936
 6217DT     SC140452  30.703  38.821  80.858
 6217DT     SC240453  30.502  38.757  80.898
 6217DT     SC340454  30.752  38.564  80.826
 6218DT     BB140455  30.748  39.327  81.020
 6218DT     BB240456  30.437  39.205  81.157
 6218DT     BB340457  30.472  39.112  81.339
 6218DT     SC140458  30.575  38.901  81.220
 6218DT     SC240459  30.442  38.734  81.244
 6218DT     SC340460  30.751  38.719  81.148
 6219DA     BB140461  30.165  39.392  81.393
 6219DA     BB240462  30.056  39.075  81.541
 6219DA     BB340463  30.162  39.038  81.723
 6219DA     SC140464  30.392  38.880  81.585
 6219DA     SC240465  30.474  38.645  81.575
 6219DA     SC340466  30.696  38.748  81.497
 6219DA     SC440467  30.522  38.963  81.540
 6220DA     BB140468  29.854  39.007  81.831
 6220DA     BB240469  29.942  38.663  81.924
 6220DA     BB340470  30.064  38.663  82.099
 6220DA     SC140471  30.332  38.675  81.941
 6220DA     SC240472  30.525  38.525  81.893
 6220DA     SC340473  30.653  38.741  81.837
 6220DA     SC440474  30.394  38.821  81.912
 6221DT     BB140475  29.989  38.583  82.270
 6221DT     BB240476  30.186  38.280  82.268
 6221DT     BB340477  30.336  38.293  82.410
 6221DT     SC140478  30.474  38.458  82.260
 6221DT     SC240479  30.651  38.358  82.189
 6221DT     SC340480  30.597  38.677  82.180
 6222DT     BB140481  30.202  38.113  82.557
 6222DT     BB240482  30.528  37.967  82.508
 6222DT     BB340483  30.660  38.039  82.651
 6222DT     SC140484  30.677  38.271  82.530
 6222DT     SC240485  30.873  38.293  82.444
 6222DT     SC340486  30.657  38.531  82.487
 6223DA     BB140487  30.684  37.620  82.656
 6223DA     BB240488  31.025  37.753  82.641
 6223DA     BB340489  31.080  37.838  82.829
 6223DA     SC140490  30.979  38.123  82.756
 6223DA     SC240491  31.077  38.347  82.708
 6223DA     SC340492  30.844  38.439  82.765
 6223DA     SC440493  30.828  38.161  82.797
 6224DA     BB140494  31.333  37.632  82.789
 6224DA     BB240495  31.549  37.928  82.795
 6224DA     BB340496  31.567  38.003  82.994
 6224DA     SC140497  31.324  38.196  82.969
 6224DA     SC240498  31.284  38.441  82.958
 6224DA     SC340499  31.044  38.385  83.030
 6224DA     SC440500  31.180  38.140  83.015
 6225DT     BB140501  31.746  37.993  83.080
 6225DT     BB240502  31.825  38.345  83.058
 6225DT     BB340503  31.801  38.434  83.244
 6225DT     SC140504  31.539  38.427  83.222
 6225DT     SC240505  31.465  38.627  83.198
 6225DT     SC340506  31.288  38.366  83.272
 6226DA     BB140507  32.183  38.536  83.104
 6226DA     BB240508  32.018  38.843  83.216
 6226DA     BB340509  32.008  38.848  83.429
 6226DA     SC140510  31.731  38.708  83.444
 6226DA     SC240511  31.496  38.769  83.503
 6226DA     SC340512  31.460  38.517  83.534
 6226DA     SC440513  31.729  38.548  83.459
 6227DA     BB140514  32.154  39.139  83.380
 6227DA     BB240515  31.862  39.290  83.541
 6227DA     BB340516  31.869  39.259  83.752
 6227DA     SC140517  31.710  38.992  83.743
 6227DA     SC240518  31.485  38.909  83.812
 6227DA     SC340519  31.591  38.675  83.801
 6227DA     SC440520  31.794  38.856  83.732
 6228DG     BB140521  31.872  39.571  83.768
 6228DG     BB240522  31.553  39.521  83.932
 6228DG     BB340523  31.582  39.478  84.124
 6228DG     SC140524  31.598  39.176  84.079
 6228DG     SC240525  31.400  38.974  84.175
 6228DG     SC340526  31.640  38.842  84.064
 6228DG     SC440527  31.740  39.110  84.046
 6229DC     BB140528  31.507  39.611  84.290
 6229DC     BB240529  31.224  39.422  84.409
 6229DC     BB340530  31.272  39.330  84.588
 6229DC     SC140531  31.419  39.150  84.466
 6229DC     SC240532  31.322  38.959  84.477
 6229DC     SC340533  31.631  39.011  84.393
 6230DG     BB140534  30.947  39.566  84.663
 6230DG     BB240535  30.889  39.224  84.768
 6230DG     BB340536  30.980  39.191  84.942
 6230DG     SC140537  31.243  39.099  84.815
 6230DG     SC240538  31.357  38.824  84.826
 6230DG     SC340539  31.552  39.013  84.710
 6230DG     SC440540  31.355  39.209  84.781
 6231DT     BB140541  30.866  39.137  85.127
 6231DT     BB240542  30.935  38.784  85.152
 6231DT     BB340543  31.073  38.750  85.303
 6231DT     SC140544  31.269  38.842  85.155
 6231DT     SC240545  31.399  38.679  85.100
 6231DT     SC340546  31.468  38.995  85.074
 6232DT     BB140547  30.878  38.640  85.460
 6232DT     BB240548  31.127  38.381  85.431
 6232DT     BB340549  31.269  38.402  85.579
 6232DT     SC140550  31.378  38.606  85.455
 6232DT     SC240551  31.571  38.550  85.380
 6232DT     SC340552  31.460  38.853  85.406
 6233DC     BB140553  31.172  38.183  85.710
 6233DC     BB240554  31.519  38.105  85.649
 6233DC     BB340555  31.635  38.176  85.805
 6233DC     SC140556  31.612  38.423  85.719
 6233DC     SC240557  31.801  38.491  85.643
 6233DC     SC340558  31.547  38.679  85.714
 6234DA     BB140559  31.730  37.773  85.748
 6234DA     BB240560  32.044  37.962  85.760
 6234DA     BB340561  32.087  38.023  85.960
 6234DA     SC140562  31.938  38.295  85.934
 6234DA     SC240563  31.997  38.537  85.925
 6234DA     SC340564  31.752  38.578  85.993
 6234DA     SC440565  31.783  38.299  85.978
 6235DA     BB140566  32.364  37.873  85.877
 6235DA     BB240567  32.530  38.195  85.935
 6235DA     BB340568  32.544  38.235  86.144
 6235DA     SC140569  32.272  38.386  86.158
 6235DA     SC240570  32.193  38.620  86.192
 6235DA     SC340571  31.968  38.513  86.254
 6235DA     SC440572  32.141  38.300  86.194
 6236DA     BB140573  32.852  38.273  86.046
 6236DA     BB240574  32.826  38.617  86.169
 6236DA     BB340575  32.827  38.620  86.383
 6236DA     SC140576  32.518  38.600  86.409
 6236DA     SC240577  32.329  38.746  86.480
 6236DA     SC340578  32.198  38.528  86.511
 6236DA     SC440579  32.454  38.453  86.423
 6237DT     BB140580  32.979  38.706  86.458
 6237DT     BB240581  32.814  39.006  86.572
 6237DT     BB340582  32.779  38.994  86.775
 6237DT     SC140583  32.583  38.824  86.740
 6237DT     SC240584  32.396  38.919  86.789
 6237DT     SC340585  32.443  38.601  86.752
 6238DT     BB140586  32.968  39.180  86.800
 6238DT     BB240587  32.679  39.319  86.965
 6238DT     BB340588  32.668  39.249  87.160
 6238DT     SC140589  32.586  39.014  87.079
 6238DT     SC240590  32.380  38.986  87.136
 6238DT     SC340591  32.582  38.754  87.036
 6239DA     BB140592  32.637  39.668  87.177
 6239DA     BB240593  32.375  39.528  87.391
 6239DA     BB340594  32.460  39.447  87.569
 6239DA     SC140595  32.498  39.162  87.451
 6239DA     SC240596  32.400  38.935  87.481
 6239DA     SC340597  32.615  38.849  87.371
 6239DA     SC440598  32.640  39.129  87.382
 6240DA     BB140599  32.247  39.645  87.731
 6240DA     BB240600  32.106  39.344  87.887
 6240DA     BB340601  32.234  39.275  88.043
 6240DA     SC140602  32.399  39.087  87.858
 6240DA     SC240603  32.429  38.842  87.823
 6240DA     SC340604  32.649  38.906  87.707
 6240DA     SC440605  32.532  39.147  87.790
 6241DT     BB140606  32.191  39.280  88.269
 6241DT     BB240607  32.135  38.926  88.312
 6241DT     BB340608  32.291  38.843  88.421
 6241DT     SC140609  32.453  38.856  88.215
 6241DT     SC240610  32.494  38.657  88.144
 6241DT     SC340611  32.658  38.925  88.065
 6242DA     BB140612  31.960  38.724  88.655
 6242DA     BB240613  32.164  38.425  88.598
 6242DA     BB340614  32.334  38.426  88.727
 6242DA     SC140615  32.517  38.574  88.525
 6242DA     SC240616  32.716  38.522  88.383
 6242DA     SC340617  32.753  38.776  88.377
 6242DA     SC440618  32.524  38.735  88.534
 6243DT     BB140619  32.371  38.281  88.900
 6243DT     BB240620  32.619  38.083  88.729
 6243DT     BB340621  32.804  38.111  88.816
 6243DT     SC140622  32.828  38.348  88.706
 6243DT     SC240623  32.981  38.342  88.556
 6243DT     SC340624  32.851  38.610  88.684
 6244DA     BB140625  32.740  37.698  88.805
 6244DA     BB240626  33.069  37.764  88.656
 6244DA     BB340627  33.211  37.810  88.808
 6244DA     SC140628  33.159  38.117  88.799
 6244DA     SC240629  33.279  38.323  88.725
 6244DA     SC340630  33.115  38.448  88.878
 6244DA     SC440631  33.049  38.177  88.900
 6245DA     BB140632  33.351  37.573  88.637
 6245DA     BB240633  33.615  37.816  88.562
 6245DA     BB340634  33.735  37.852  88.735
 6245DA     SC140635  33.562  38.089  88.837
 6245DA     SC240636  33.584  38.336  88.861
 6245DA     SC340637  33.392  38.316  89.031
 6245DA     SC440638  33.443  38.055  88.940
 6246DA     BB140639  33.939  37.783  88.491
 6246DA     BB240640  34.084  38.113  88.554
 6246DA     BB340641  34.187  38.115  88.740
 6246DA     SC140642  33.939  38.206  88.904
 6246DA     SC240643  33.863  38.409  89.027
 6246DA     SC340644  33.702  38.251  89.148
 6246DA     SC440645  33.847  38.091  88.969
 6247DA     BB140646  34.400  38.236  88.523
 6247DA     BB240647  34.412  38.533  88.737
 6247DA     BB340648  34.509  38.488  88.921
 6247DA     SC140649  34.246  38.407  89.068
 6247DA     SC240650  34.102  38.497  89.250
 6247DA     SC340651  34.012  38.258  89.269
 6247DA     SC440652  34.204  38.252  89.065
 6248DC     BB140653  34.676  38.577  88.949
 6248DC     BB240654  34.571  38.804  89.210
 6248DC     BB340655  34.629  38.731  89.394
 6248DC     SC140656  34.441  38.548  89.391
 6248DC     SC240657  34.292  38.596  89.539
 6248DC     SC340658  34.325  38.311  89.387
 6249DA     BB140659  34.793  39.120  89.396
 6249DA     BB240660  34.628  39.072  89.719
 6249DA     BB340661  34.745  38.946  89.845
 6249DA     SC140662  34.609  38.683  89.750
 6249DA     SC240663  34.456  38.510  89.844
 6249DA     SC340664  34.543  38.360  89.656
 6249DA     SC440665  34.677  38.604  89.627
 6250DT     BB140666  34.875  38.999  90.049
 6250DT     BB240667  34.649  38.840  90.282
 6250DT     BB340668  34.740  38.675  90.367
 6250DT     SC140669  34.710  38.535  90.147
 6250DT     SC240670  34.564  38.381  90.180
 6250DT     SC340671  34.770  38.398  89.930
 6251DA     BB140672  34.661  38.877  90.735
 6251DA     BB240673  34.531  38.536  90.774
 6251DA     BB340674  34.688  38.402  90.827
 6251DA     SC140675  34.756  38.329  90.532
 6251DA     SC240676  34.736  38.131  90.382
 6251DA     SC340677  34.916  38.245  90.240
 6251DA     SC440678  34.870  38.415  90.458
 6252DT     BB140679  34.721  38.284  91.035
 6252DT     BB240680  34.600  37.968  90.910
 6252DT     BB340681  34.754  37.830  90.905
 6252DT     SC140682  34.861  37.944  90.694
 6252DT     SC240683  34.838  37.814  90.524
 6252DT     SC340684  35.035  38.072  90.542
 6253DA     BB140685  34.446  37.648  91.122
 6253DA     BB240686  34.546  37.418  90.854
 6253DA     BB340687  34.729  37.321  90.904
 6253DA     SC140688  34.908  37.536  90.769
 6253DA     SC240689  35.056  37.554  90.569
 6253DA     SC340690  35.160  37.755  90.690
 6253DA     SC440691  34.960  37.657  90.860
 6254DA     BB140692  34.533  37.071  90.837
 6254DA     BB240693  34.763  36.997  90.561
 6254DA     BB340694  34.943  36.910  90.635
 6254DA     SC140695  35.089  37.183  90.667
 6254DA     SC240696  35.278  37.305  90.560
 6254DA     SC340697  35.286  37.442  90.776
 6254DA     SC440698  35.079  37.256  90.810
 6255DT     BB140699  34.966  36.734  90.576
 6255DT     BB240700  35.223  36.806  90.333
 6255DT     BB340701  35.408  36.757  90.409
 6255DT     SC140702  35.409  36.968  90.565
 6255DT     SC240703  35.558  37.107  90.495
 6255DT     SC340704  35.411  37.114  90.785
 6256DA     BB140705  35.348  36.600  90.025
 6256DA     BB240706  35.673  36.769  90.033
 6256DA     BB340707  35.811  36.658  90.152
 6256DA     SC140708  35.741  36.807  90.416
 6256DA     SC240709  35.850  36.970  90.570
 6256DA     SC340710  35.678  36.890  90.743
 6256DA     SC440711  35.627  36.743  90.509
 6257DT     BB140712  35.949  36.597  90.049
 6257DT     BB240713  36.201  36.824  90.171
 6257DT     BB340714  36.317  36.731  90.315
 6257DT     SC140715  36.125  36.749  90.493
 6257DT     SC240716  36.182  36.890  90.645
 6257DT     SC340717  35.938  36.677  90.665
 6258DT     BB140718  36.503  36.743  90.130
 6258DT     BB240719  36.641  36.914  90.416
 6258DT     BB340720  36.718  36.777  90.550
 6258DT     SC140721  36.478  36.706  90.629
 6258DT     SC240722  36.447  36.774  90.831
 6258DT     SC340723  36.265  36.557  90.673
 6259DC     BB140724  36.947  36.878  90.474
 6259DC     BB240725  36.940  36.919  90.832
 6259DC     BB340726  36.995  36.742  90.925
 6259DC     SC140727  36.764  36.632  90.870
 6259DC     SC240728  36.652  36.606  91.052
 6259DC     SC340729  36.585  36.467  90.767
 6260DG     BB140730  37.227  37.053  91.049
 6260DG     BB240731  37.092  36.866  91.327
 6260DG     BB340732  37.187  36.692  91.345
 6260DG     SC140733  36.997  36.541  91.159
 6260DG     SC240734  36.810  36.322  91.240
 6260DG     SC340735  36.820  36.349  90.946
 6260DG     SC440736  37.027  36.538  91.002
 6261DA     BB140737  37.222  36.785  91.678
 6261DA     BB240738  37.060  36.473  91.782
 6261DA     BB340739  37.191  36.308  91.751
 6261DA     SC140740  37.089  36.250  91.463
 6261DA     SC240741  36.957  36.074  91.346
 6261DA     SC340742  37.064  36.165  91.131
 6261DA     SC440743  37.168  36.320  91.341
 6262DG     BB140744  37.161  36.268  92.060
 6262DG     BB240745  37.018  35.950  91.961
 6262DG     BB340746  37.163  35.821  91.917
 6262DG     SC140747  37.177  35.899  91.622
 6262DG     SC240748  37.101  35.726  91.391
 6262DG     SC340749  37.232  35.974  91.297
 6262DG     SC440750  37.273  36.019  91.577
 6263DT     BB140751  37.209  35.624  92.034
 6263DT     BB240752  37.089  35.374  91.804
 6263DT     BB340753  37.249  35.280  91.712
 6263DT     SC140754  37.294  35.489  91.559
 6263DT     SC240755  37.243  35.440  91.355
 6263DT     SC340756  37.416  35.697  91.453
 6264DC     BB140757  37.227  35.041  91.857
 6264DC     BB240758  37.212  34.933  91.513
 6264DC     BB340759  37.402  34.893  91.443
 6264DC     SC140760  37.458  35.149  91.426
 6264DC     SC240761  37.474  35.205  91.219
 6264DC     SC340762  37.576  35.381  91.471
 6265DA     BB140763  37.189  34.540  91.361
 6265DA     BB240764  37.363  34.638  91.053
 6265DA     BB340765  37.571  34.591  91.067
 6265DA     SC140766  37.649  34.868  91.185
 6265DA     SC240767  37.774  35.071  91.112
 6265DA     SC340768  37.796  35.124  91.362
 6265DA     SC440769  37.653  34.883  91.345
 6266DC     BB140770  37.660  34.443  90.945
 6266DC     BB240771  37.830  34.670  90.722
 6266DC     BB340772  38.033  34.667  90.760
 6266DC     SC140773  38.003  34.807  90.980
 6266DC     SC240774  38.086  35.003  90.952
 6266DC     SC340775  38.004  34.871  91.236
 6267DT     BB140776  38.080  34.531  90.528
 6267DT     BB240777  38.280  34.830  90.500
 6267DT     BB340778  38.465  34.800  90.587
 6267DT     SC140779  38.363  34.816  90.828
 6267DT     SC240780  38.431  34.997  90.922
 6267DT     SC340781  38.291  34.746  91.072
 6268DG     BB140782  38.539  34.902  90.198
 6268DG     BB240783  38.723  35.113  90.427
 6268DG     BB340784  38.884  35.017  90.493
 6268DG     SC140785  38.741  34.893  90.734
 6268DG     SC240786  38.795  34.956  91.021
 6268DG     SC340787  38.611  34.725  90.996
 6268DG     SC440788  38.667  34.752  90.717
 6269DA     BB140789  39.072  35.292  90.393
 6269DA     BB240790  39.182  35.343  90.739
 6269DA     BB340791  39.335  35.202  90.790
 6269DA     SC140792  39.135  34.989  90.898
 6269DA     SC240793  39.072  34.890  91.118
 6269DA     SC340794  38.976  34.696  90.980
 6269DA     SC440795  39.083  34.877  90.794
 6270DC     BB140796  39.527  35.268  90.828
 6270DC     BB240797  39.512  35.228  91.187
 6270DC     BB340798  39.624  35.064  91.244
 6270DC     SC140799  39.441  34.898  91.156
 6270DC     SC240800  39.346  34.800  91.323
 6270DC     SC340801  39.325  34.710  91.012
 6271DT     BB140802  39.816  35.226  91.351
 6271DT     BB240803  39.707  35.019  91.626
 6271DT     BB340804  39.817  34.844  91.630
 6271DT     SC140805  39.685  34.748  91.424
 6271DT     SC240806  39.561  34.585  91.489
 6271DT     SC340807  39.637  34.656  91.182
 6272DG     BB140808  39.854  35.034  91.988
 6272DG     BB240809  39.740  34.693  92.028
 6272DG     BB340810  39.893  34.568  92.006
 6272DG     SC140811  39.855  34.537  91.703
 6272DG     SC240812  39.770  34.288  91.562
 6272DG     SC340813  39.854  34.496  91.369
 6272DG     SC440814  39.928  34.640  91.605
 6273DA     BB140815  39.776  34.444  92.304
 6273DA     BB240816  39.728  34.117  92.146
 6273DA     BB340817  39.916  34.021  92.114
 6273DA     SC140818  39.955  34.140  91.829
 6273DA     SC240819  39.956  34.058  91.593
 6273DA     SC340820  40.086  34.273  91.541
 6273DA     SC440821  40.036  34.278  91.817
 6274DA     BB140822  39.744  33.793  92.274
 6274DA     BB240823  39.795  33.582  91.979
 6274DA     BB340824  39.999  33.517  91.968
 6274DA     SC140825  40.091  33.759  91.796
 6274DA     SC240826  40.168  33.801  91.562
 6274DA     SC340827  40.269  34.017  91.655
 6274DA     SC440828  40.148  33.888  91.873
 6275DA     BB140829  39.843  33.229  91.948
 6275DA     BB240830  40.007  33.188  91.622
 6275DA     BB340831  40.214  33.145  91.648
 6275DA     SC140832  40.302  33.443  91.641
 6275DA     SC240833  40.427  33.595  91.488
 6275DA     SC340834  40.459  33.743  91.695
 6275DA     SC440835  40.312  33.521  91.781
 6276DA     BB140836  40.136  32.888  91.457
 6276DA     BB240837  40.380  33.019  91.216
 6276DA     BB340838  40.579  32.979  91.282
 6276DA     SC140839  40.606  33.248  91.437
 6276DA     SC240840  40.734  33.461  91.415
 6276DA     SC340841  40.684  33.492  91.665
 6276DA     SC440842  40.566  33.248  91.593
 6277DA     BB140843  40.607  32.841  90.985
 6277DA     BB240844  40.869  33.087  90.914
 6277DA     BB340845  41.050  33.033  91.013
 6277DA     SC140846  40.986  33.193  91.272
 6277DA     SC240847  41.070  33.397  91.388
 6277DA     SC340848  40.958  33.299  91.597
 6277DA     SC440849  40.912  33.114  91.391
 6278DA     BB140850  41.171  33.061  90.709
 6278DA     BB240851  41.385  33.328  90.838
 6278DA     BB340852  41.548  33.245  90.950
 6278DA     SC140853  41.396  33.252  91.222
 6278DA     SC240854  41.408  33.378  91.437
 6278DA     SC340855  41.275  33.182  91.535
 6278DA     SC440856  41.314  33.120  91.264
 6279DT     BB140857  41.730  33.271  90.876
 6279DT     BB240858  41.836  33.523  91.111
 6279DT     BB340859  41.964  33.441  91.251
 6279DT     SC140860  41.766  33.320  91.374
 6279DT     SC240861  41.735  33.412  91.566
 6279DT     SC340862  41.615  33.127  91.470
 6280DT     BB140863  42.155  33.582  91.131
 6280DT     BB240864  42.160  33.689  91.476
 6280DT     BB340865  42.273  33.558  91.589
 6280DT     SC140866  42.083  33.377  91.583
 6280DT     SC240867  41.998  33.356  91.779
 6280DT     SC340868  41.958  33.150  91.532
 6281DG     BB140869  42.415  33.937  91.630
 6281DG     BB240870  42.355  33.781  91.951
 6281DG     BB340871  42.499  33.650  91.991
 6281DG     SC140872  42.355  33.415  91.858
 6281DG     SC240873  42.246  33.174  91.997
 6281DG     SC340874  42.235  33.140  91.703
 6281DG     SC440875  42.378  33.388  91.701
 6282DA     BB140876  42.513  33.820  92.292
 6282DA     BB240877  42.448  33.506  92.470
 6282DA     BB340878  42.620  33.380  92.463
 6282DA     SC140879  42.533  33.236  92.201
 6282DA     SC240880  42.454  33.009  92.133
 6282DA     SC340881  42.527  33.077  91.897
 6282DA     SC440882  42.586  33.296  92.062
 6283DT     BB140883  42.716  33.343  92.634
 6283DT     BB240884  42.613  32.999  92.673
 6283DT     BB340885  42.768  32.873  92.621
 6283DT     SC140886  42.732  32.920  92.365
 6283DT     SC240887  42.654  32.743  92.270
 6283DT     SC340888  42.779  33.001  92.119
 6284DC     BB140889  42.820  32.804  92.884
 6284DC     BB240890  42.768  32.487  92.721
 6284DC     BB340891  42.948  32.417  92.644
 6284DC     SC140892  42.940  32.590  92.447
 6284DC     SC240893  42.905  32.486  92.262
 6284DC     SC340894  43.007  32.792  92.292
 6285DA     BB140895  42.817  32.095  92.882
 6285DA     BB240896  42.911  31.957  92.555
 6285DA     BB340897  43.123  31.946  92.538
 6285DA     SC140898  43.152  32.229  92.413
 6285DA     SC240899  43.212  32.329  92.192
 6285DA     SC340900  43.261  32.543  92.324
 6285DA     SC440901  43.179  32.352  92.513
 6286DT     BB140902  43.241  31.755  92.529
 6286DT     BB240903  43.313  31.770  92.176
 6286DT     BB340904  43.514  31.809  92.146
 6286DT     SC140905  43.483  32.060  92.213
 6286DT     SC240906  43.509  32.184  92.040
 6286DT     SC340907  43.508  32.286  92.347
 6287DT     BB140908  43.578  31.547  92.063
 6287DT     BB240909  43.682  31.755  91.787
 6287DT     BB340910  43.879  31.811  91.811
 6287DT     SC140911  43.816  31.984  91.998
 6287DT     SC240912  43.845  32.183  91.923
 6287DT     SC340913  43.803  32.101  92.234
 6288DT     BB140914  43.959  31.643  91.609
 6288DT     BB240915  44.066  31.971  91.503
 6288DT     BB340916  44.256  32.011  91.577
 6288DT     SC140917  44.162  32.051  91.819
 6288DT     SC240918  44.180  32.259  91.868
 6288DT     SC340919  44.121  32.018  92.077
 6289DT     BB140920  44.343  31.988  91.325
 6289DT     BB240921  44.436  32.321  91.427
 6289DT     BB340922  44.617  32.317  91.527
 6289DT     SC140923  44.506  32.215  91.741
 6289DT     SC240924  44.506  32.362  91.899
 6289DT     SC340925  44.449  32.045  91.935
 6290DT     BB140926  44.699  32.442  91.312
 6290DT     BB240927  44.773  32.663  91.588
 6290DT     BB340928  44.949  32.605  91.680
 6290DT     SC140929  44.832  32.400  91.794
 6290DT     SC240930  44.819  32.435  92.006
 6290DT     SC340931  44.773  32.151  91.857
 6291DT     BB140932  45.033  32.829  91.575
 6291DT     BB240933  45.095  32.858  91.930
 6291DT     BB340934  45.269  32.758  91.980
 6291DT     SC140935  45.151  32.525  91.957
 6291DT     SC240936  45.130  32.436  92.151
 6291DT     SC340937  45.093  32.284  91.867
 6292DT     BB140938  45.354  33.001  92.020
 6292DT     BB240939  45.409  32.827  92.331
 6292DT     BB340940  45.581  32.712  92.319
 6292DT     SC140941  45.460  32.534  92.168
 6292DT     SC240942  45.435  32.352  92.279
 6292DT     SC340943  45.402  32.385  91.959
 6293DA     BB140944  45.599  32.945  92.668
 6293DA     BB240945  45.693  32.601  92.755
 6293DA     BB340946  45.885  32.554  92.674
 6293DA     SC140947  45.773  32.443  92.406
 6293DA     SC240948  45.752  32.223  92.292
 6293DA     SC340949  45.724  32.359  92.077
 6293DA     SC440950  45.759  32.546  92.283
 6294DA     BB140951  45.943  32.472  92.988
 6294DA     BB240952  46.019  32.135  92.867
 6294DA     BB340953  46.209  32.132  92.770
 6294DA     SC140954  46.093  32.194  92.488
 6294DA     SC240955  46.061  32.075  92.271
 6294DA     SC340956  46.041  32.310  92.169
 6294DA     SC440957  46.084  32.348  92.443
 6295DA     BB140958  46.275  31.888  92.983
 6295DA     BB240959  46.330  31.671  92.692
 6295DA     BB340960  46.519  31.714  92.603
 6295DA     SC140961  46.405  31.927  92.407
 6295DA     SC240962  46.365  31.950  92.162
 6295DA     SC340963  46.360  32.202  92.207
 6295DA     SC440964  46.406  32.080  92.455
 6296DA     BB140965  46.577  31.389  92.641
 6296DA     BB240966  46.613  31.367  92.277
 6296DA     BB340967  46.803  31.443  92.217
 6296DA     SC140968  46.702  31.735  92.177
 6296DA     SC240969  46.660  31.891  91.988
 6296DA     SC340970  46.673  32.076  92.165
 6296DA     SC440971  46.714  31.835  92.302
 6297DT     BB140972  46.960  31.318  92.133
 6297DT     BB240973  46.929  31.431  91.792
 6297DT     BB340974  47.091  31.549  91.741
 6297DT     SC140975  46.998  31.750  91.882
 6297DT     SC240976  46.936  31.908  91.749
 6297DT     SC340977  46.982  31.936  92.069
 6298DA     BB140978  47.088  31.256  91.440
 6298DA     BB240979  47.115  31.582  91.274
 6298DA     BB340980  47.313  31.659  91.293
 6298DA     SC140981  47.255  31.811  91.558
 6298DA     SC240982  47.234  32.048  91.633
 6298DA     SC340983  47.276  31.955  91.869
 6298DA     SC440984  47.284  31.734  91.696
 6299DC     BB140985  47.454  31.683  91.123
 6299DC     BB240986  47.427  32.042  91.100
 6299DC     BB340987  47.602  32.131  91.164
 6299DC     SC140988  47.545  32.081  91.415
 6299DC     SC240989  47.501  32.265  91.517
 6299DC     SC340990  47.562  31.980  91.658
 6300DT     BB140991  47.690  32.204  90.907
 6300DT     BB240992  47.679  32.516  91.087
 6300DT     BB340993  47.862  32.552  91.177
 6300DT     SC140994  47.816  32.372  91.362
 6300DT     SC240995  47.788  32.470  91.551
 6300DT     SC340996  47.843  32.154  91.507
 6301DT     BB140997  47.934  32.755  90.997
 6301DT     BB240998  47.946  32.915  91.320
 6301DT     BB340999  48.136  32.898  91.400
 6301DT     SC141000  48.097  32.645  91.457
 6301DT     SC241001  48.085  32.621  91.671
 6301DT     SC341002  48.126  32.382  91.455
 6302DA     BB141003  48.027  33.301  91.413
 6302DA     BB241004  48.143  33.204  91.747
 6302DA     BB341005  48.355  33.184  91.749
 6302DA     SC141006  48.351  32.881  91.676
 6302DA     SC241007  48.402  32.664  91.787
 6302DA     SC341008  48.421  32.570  91.550
 6302DA     SC441009  48.360  32.842  91.520
 6303DT     BB141010  48.436  33.309  91.861
 6303DT     BB241011  48.518  33.081  92.128
 6303DT     BB341012  48.718  33.028  92.117
 6303DT     SC141013  48.673  32.869  91.912
 6303DT     SC241014  48.698  32.665  91.973
 6303DT     SC341015  48.682  32.771  91.668
 6304DT     BB141016  48.734  33.170  92.336
 6304DT     BB241017  48.858  32.844  92.426
 6304DT     BB341018  49.056  32.825  92.368
 6304DT     SC141019  48.988  32.798  92.116
 6304DT     SC241020  49.027  32.596  92.052
 6304DT     SC341021  48.967  32.848  91.858
 6305DA     BB141022  48.998  32.703  92.766
 6305DA     BB241023  49.203  32.451  92.596
 6305DA     BB341024  49.396  32.530  92.553
 6305DA     SC141025  49.316  32.637  92.272
 6305DA     SC241026  49.364  32.583  92.033
 6305DA     SC341027  49.284  32.822  91.984
 6305DA     SC441028  49.264  32.789  92.262
 6306DA     BB141029  49.484  32.253  92.710
 6306DA     BB241030  49.671  32.163  92.408
 6306DA     BB341031  49.845  32.284  92.389
 6306DA     SC141032  49.704  32.504  92.221
 6306DA     SC241033  49.708  32.589  91.987
 6306DA     SC341034  49.603  32.802  92.083
 6306DA     SC441035  49.639  32.629  92.300
 6307DG     BB141036  50.034  32.026  92.408
 6307DG     BB241037  50.140  32.123  92.076
 6307DG     BB341038  50.286  32.258  92.088
 6307DG     SC141039  50.096  32.498  92.090
 6307DG     SC241040  50.072  32.704  91.876
 6307DG     SC341041  49.918  32.783  92.115
 6307DG     SC441042  50.039  32.551  92.231
 6308DG     BB141043  50.562  32.097  91.934
 6308DG     BB241044  50.560  32.358  91.684
 6308DG     BB341045  50.683  32.504  91.738
 6308DG     SC141046  50.469  32.660  91.892
 6308DG     SC241047  50.359  32.928  91.817
 6308DG     SC341048  50.266  32.846  92.086
 6308DG     SC441049  50.446  32.627  92.047
 6309DT     BB141050  50.944  32.621  91.646
 6309DT     BB241051  50.814  32.917  91.486
 6309DT     BB341052  50.881  33.086  91.585
 6309DT     SC141053  50.717  33.046  91.785
 6309DT     SC241054  50.564  33.198  91.783
 6309DT     SC341055  50.630  32.997  92.029
 6310DT     BB141056  51.117  33.216  91.411
 6310DT     BB241057  50.873  33.481  91.433
 6310DT     BB341058  50.931  33.619  91.576
 6310DT     SC141059  50.863  33.456  91.771
 6310DT     SC241060  50.690  33.534  91.872
 6310DT     SC341061  50.884  33.299  91.981
 6311DT     BB141062  51.014  33.838  91.401
 6311DT     BB241063  50.736  33.969  91.590
 6311DT     BB341064  50.806  34.077  91.752
 6311DT     SC141065  50.869  33.857  91.880
 6311DT     SC241066  50.737  33.831  92.048
 6311DT     SC341067  51.016  33.673  92.000
 6312DG     BB141068  50.558  34.284  91.510
 6312DG     BB241069  50.431  34.259  91.847
 6312DG     BB341070  50.528  34.387  91.966
 6312DG     SC141071  50.747  34.188  92.042
 6312DG     SC241072  50.792  34.071  92.313
 6312DG     SC341073  51.015  34.002  92.130
 6312DG     SC441074  50.878  34.178  91.950
 6313DC     BB141075  50.390  34.484  92.034
 6313DC     BB241076  50.372  34.360  92.373
 6313DC     BB341077  50.491  34.475  92.497
 6313DC     SC141078  50.710  34.366  92.402
 6313DC     SC241079  50.799  34.242  92.554
 6313DC     SC341080  50.943  34.342  92.281
 6314DA     BB141081  50.101  34.357  92.622
 6314DA     BB241082  50.341  34.301  92.894
 6314DA     BB341083  50.422  34.486  92.961
 6314DA     SC141084  50.663  34.481  92.763
 6314DA     SC241085  50.910  34.452  92.775
 6314DA     SC341086  50.913  34.565  92.544
 6314DA     SC441087  50.644  34.554  92.621
 6315DT     BB141088  50.370  34.483  93.116
 6315DT     BB241089  50.691  34.441  93.276
 6315DT     BB341090  50.777  34.626  93.311
 6315DT     SC141091  50.837  34.655  93.057
 6315DT     SC241092  51.051  34.643  93.033
 6315DT     SC341093  50.840  34.754  92.813
 6316DT     BB141094  50.727  34.564  93.560
 6316DT     BB241095  51.078  34.645  93.553
 6316DT     BB341096  51.104  34.850  93.558
 6316DT     SC141097  51.029  34.874  93.307
 6316DT     SC241098  51.199  34.930  93.187
 6316DT     SC341099  50.888  34.944  93.096
 6317DC     BB141100  51.190  34.835  93.815
 6317DC     BB241101  51.450  35.021  93.648
 6317DC     BB341102  51.403  35.222  93.646
 6317DC     SC141103  51.223  35.186  93.459
 6317DC     SC241104  51.291  35.276  93.276
 6317DC     SC341105  50.988  35.178  93.338
 6318DT     BB141106  51.586  35.295  93.848
 6318DT     BB241107  51.666  35.522  93.579
 6318DT     BB341108  51.554  35.695  93.596
 6318DT     SC141109  51.337  35.573  93.512
 6318DT     SC241110  51.285  35.647  93.317
 6318DT     SC341111  51.094  35.472  93.512
 6319DG     BB141112  51.929  35.868  93.635
 6319DG     BB241113  51.736  36.048  93.388
 6319DG     BB341114  51.621  36.184  93.477
 6319DG     SC141115  51.384  35.994  93.512
 6319DG     SC241116  51.119  36.017  93.376
 6319DG     SC341117  51.112  35.807  93.585
 6319DG     SC441118  51.375  35.903  93.644
 6320DA     BB141119  51.733  36.485  93.302
 6320DA     BB241120  51.398  36.544  93.165
 6320DA     BB341121  51.280  36.655  93.304
 6320DA     SC141122  51.164  36.403  93.444
 6320DA     SC241123  50.945  36.286  93.463
 6320DA     SC341124  51.043  36.177  93.673
 6320DA     SC441125  51.243  36.347  93.573
 6321DT     BB141126  51.189  36.900  93.301
 6321DT     BB241127  50.849  36.808  93.222
 6321DT     BB341128  50.724  36.862  93.377
 6321DT     SC141129  50.809  36.663  93.525
 6321DT     SC241130  50.652  36.517  93.547
 6321DT     SC341131  50.922  36.533  93.725
 6322DC     BB141132  50.596  37.094  93.257
 6322DC     BB241133  50.321  36.874  93.333
 6322DC     BB341134  50.241  36.922  93.518
 6322DC     SC141135  50.444  36.813  93.643
 6322DC     SC241136  50.378  36.635  93.744
 6322DC     SC341137  50.658  36.790  93.795
 6323DA     BB141138  49.920  36.924  93.250
 6323DA     BB241139  49.829  36.707  93.532
 6323DA     BB341140  49.776  36.825  93.702
 6323DA     SC141141  50.065  36.833  93.817
 6323DA     SC241142  50.189  36.738  94.012
 6323DA     SC341143  50.359  36.925  93.968
 6323DA     SC441144  50.159  36.956  93.774
 6324DA     BB141145  49.519  36.630  93.669
 6324DA     BB241146  49.605  36.499  94.001
 6324DA     BB341147  49.552  36.640  94.152
 6324DA     SC141148  49.829  36.783  94.150
 6324DA     SC241149  50.026  36.805  94.301
 6324DA     SC341150  50.082  37.014  94.163
 6324DA     SC441151  49.846  36.910  94.054
 6325DA     BB141152  49.414  36.361  94.246
 6325DA     BB241153  49.623  36.388  94.547
 6325DA     BB341154  49.551  36.545  94.673
 6325DA     SC141155  49.730  36.764  94.543
 6325DA     SC241156  49.928  36.902  94.607
 6325DA     SC341157  49.855  37.058  94.416
 6325DA     SC441158  49.668  36.849  94.421
 6326DA     BB141159  49.569  36.289  94.873
 6326DA     BB241160  49.805  36.489  95.070
 6326DA     BB341161  49.702  36.646  95.171
 6326DA     SC141162  49.739  36.852  94.940
 6326DA     SC241163  49.867  37.061  94.898
 6326DA     SC341164  49.696  37.105  94.712
 6326DA     SC441165  49.622  36.861  94.830
 6327DC     BB141166  49.700  36.635  95.367
 6327DC     BB241167  49.935  36.902  95.429
 6327DC     BB341168  49.835  37.072  95.490
 6327DC     SC141169  49.751  37.119  95.246
 6327DC     SC241170  49.849  37.294  95.169
 6327DC     SC341171  49.587  37.153  95.042
 6328DC     BB141172  49.929  37.036  95.742
 6328DC     BB241173  50.039  37.367  95.650
 6328DC     BB341174  49.891  37.505  95.695
 6328DC     SC141175  49.747  37.429  95.489
 6328DC     SC241176  49.746  37.585  95.341
 6328DC     SC341177  49.546  37.330  95.350
 6329DG     BB141178  50.231  37.614  95.891
 6329DG     BB241179  50.098  37.886  95.693
 6329DG     BB341180  49.943  37.968  95.787
 6329DG     SC141181  49.736  37.784  95.658
 6329DG     SC241182  49.524  37.866  95.464
 6329DG     SC341183  49.485  37.586  95.551
 6329DG     SC441184  49.701  37.644  95.729
 6330DC     BB141185  49.960  38.171  95.840
 6330DC     BB241186  49.743  38.330  95.599
 6330DC     BB341187  49.561  38.375  95.687
 6330DC     SC141188  49.487  38.123  95.681
 6330DC     SC241189  49.328  38.099  95.537
 6330DC     SC341190  49.414  37.884  95.764
 6331DA     BB141191  49.720  38.704  95.481
 6331DA     BB241192  49.368  38.666  95.385
 6331DA     BB341193  49.240  38.717  95.548
 6331DA     SC141194  49.229  38.428  95.662
 6331DA     SC241195  49.061  38.245  95.684
 6331DA     SC341196  49.215  38.153  95.867
 6331DA     SC441197  49.337  38.387  95.774
 6332DT     BB141198  49.139  38.866  95.511
 6332DT     BB241199  48.820  38.701  95.476
 6332DT     BB341200  48.712  38.718  95.651
 6332DT     SC141201  48.862  38.539  95.771
 6332DT     SC241202  48.747  38.361  95.805
 6332DT     SC341203  49.032  38.432  95.943
 6333DT     BB141204  48.549  38.892  95.526
 6333DT     BB241205  48.328  38.636  95.652
 6333DT     BB341206  48.276  38.678  95.848
 6333DT     SC141207  48.512  38.605  95.935
 6333DT     SC241208  48.493  38.422  96.047
 6333DT     SC341209  48.751  38.619  96.046
 6334DA     BB141210  47.917  38.615  95.641
 6334DA     BB241211  47.902  38.419  95.950
 6334DA     BB341212  47.872  38.547  96.118
 6334DA     SC141213  48.175  38.589  96.173
 6334DA     SC241214  48.342  38.524  96.346
 6334DA     SC341215  48.482  38.719  96.256
 6334DA     SC441216  48.246  38.716  96.103
 6335DA     BB141217  47.621  38.342  96.172
 6335DA     BB241218  47.777  38.263  96.494
 6335DA     BB341219  47.746  38.421  96.633
 6335DA     SC141220  48.007  38.572  96.557
 6335DA     SC241221  48.228  38.622  96.661
 6335DA     SC341222  48.244  38.811  96.488
 6335DA     SC441223  47.997  38.685  96.443
 6336DT     BB141224  47.630  38.386  96.793
 6336DT     BB241225  47.893  38.376  97.039
 6336DT     BB341226  47.893  38.551  97.150
 6336DT     SC141227  47.999  38.686  96.951
 6336DT     SC241228  48.200  38.741  97.002
 6336DT     SC341229  48.025  38.864  96.758
 6337DT     BB141230  47.795  38.415  97.363
 6337DT     BB241231  48.095  38.572  97.488
 6337DT     BB341232  48.052  38.764  97.553
 6337DT     SC141233  48.034  38.852  97.307
 6337DT     SC241234  48.200  38.983  97.265
 6337DT     SC341235  47.931  38.955  97.087
 6338DG     BB141236  48.205  38.575  97.882
 6338DG     BB241237  48.371  38.891  97.826
 6338DG     BB341238  48.258  39.040  97.894
 6338DG     SC141239  48.109  39.080  97.629
 6338DG     SC241240  48.128  39.320  97.452
 6338DG     SC341241  47.913  39.138  97.361
 6338DG     SC441242  47.976  38.995  97.602
 6339DT     BB141243  48.306  39.192  98.080
 6339DT     BB241244  48.383  39.498  97.905
 6339DT     BB341245  48.228  39.633  97.928
 6339DT     SC141246  48.076  39.502  97.759
 6339DT     SC241247  48.052  39.618  97.580
 6339DT     SC341248  47.875  39.360  97.665
 6340DC     BB141249  48.343  39.817  98.130
 6340DC     BB241250  48.248  40.041  97.864
 6340DC     BB341251  48.059  40.118  97.901
 6340DC     SC141252  47.945  39.891  97.834
 6340DC     SC241253  47.839  39.916  97.649
 6340DC     SC341254  47.806  39.668  97.855
 6341DT     BB141255  48.111  40.402  98.003
 6341DT     BB241256  47.889  40.458  97.724
 6341DT     BB341257  47.695  40.480  97.792
 6341DT     SC141258  47.673  40.222  97.838
 6341DT     SC241259  47.536  40.135  97.697
 6341DT     SC341260  47.643  39.995  97.969
 6342DT     BB141261  47.664  40.767  97.760
 6342DT     BB241262  47.401  40.629  97.556
 6342DT     BB341263  47.225  40.619  97.665
 6342DT     SC141264  47.312  40.413  97.802
 6342DT     SC241265  47.200  40.238  97.746
 6342DT     SC341266  47.391  40.266  98.007
 6343DG     BB141267  47.147  40.849  97.339
 6343DG     BB241268  46.919  40.570  97.361
 6343DG     BB341269  46.775  40.610  97.493
 6343DG     SC141270  46.928  40.494  97.732
 6343DG     SC241271  46.852  40.251  97.887
 6343DG     SC341272  47.075  40.395  98.019
 6343DG     SC441273  47.026  40.590  97.814
 6344DC     BB141274  46.586  40.608  97.415
 6344DC     BB241275  46.460  40.294  97.542
 6344DC     BB341276  46.340  40.328  97.708
 6344DC     SC141277  46.550  40.376  97.858
 6344DC     SC241278  46.574  40.216  98.000
 6344DC     SC341279  46.719  40.505  98.013
 6345DA     BB141280  46.166  40.070  97.424
 6345DA     BB241281  46.136  39.918  97.756
 6345DA     BB341282  45.999  40.030  97.876
 6345DA     SC141283  46.218  40.216  97.995
 6345DA     SC241284  46.329  40.254  98.215
 6345DA     SC341285  46.393  40.484  98.121
 6345DA     SC441286  46.247  40.355  97.919
 6346DG     BB141287  45.873  39.749  97.874
 6346DG     BB241288  45.934  39.772  98.230
 6346DG     BB341289  45.799  39.891  98.314
 6346DG     SC141290  45.963  40.147  98.276
 6346DG     SC241291  46.084  40.312  98.494
 6346DG     SC341292  46.107  40.449  98.233
 6346DG     SC441293  45.947  40.230  98.140
 6347DA     BB141294  45.742  39.632  98.541
 6347DA     BB241295  45.824  39.856  98.820
 6347DA     BB341296  45.664  39.992  98.855
 6347DA     SC141297  45.775  40.210  98.663
 6347DA     SC241298  45.876  40.437  98.680
 6347DA     SC341299  45.810  40.464  98.434
 6347DA     SC441300  45.725  40.208  98.510
 6348DT     BB141301  45.538  39.988  99.033
 6348DT     BB241302  45.673  40.283  99.190
 6348DT     BB341303  45.536  40.438  99.180
 6348DT     SC141304  45.586  40.475  98.925
 6348DT     SC241305  45.688  40.662  98.898
 6348DT     SC341306  45.548  40.488  98.664
 6349DT     BB141307  45.451  40.432  99.453
 6349DT     BB241308  45.562  40.772  99.406
 6349DT     BB341309  45.402  40.891  99.349
 6349DT     SC141310  45.405  40.791  99.106
 6349DT     SC241311  45.471  40.941  98.968
 6349DT     SC341312  45.325  40.663  98.890
 6350DT     BB141313  45.369  41.026  99.598
 6350DT     BB241314  45.427  41.292  99.361
 6350DT     BB341315  45.247  41.362  99.288
 6350DT     SC141316  45.217  41.150  99.136
 6350DT     SC241317  45.238  41.206  98.930
 6350DT     SC341318  45.115  40.927  99.040
 6351DG     BB141319  45.434  41.680  99.458
 6351DG     BB241320  45.348  41.746  99.113
 6351DG     BB341321  45.156  41.796  99.099
 6351DG     SC141322  45.058  41.509  99.061
 6351DG     SC241323  44.934  41.397  98.813
 6351DG     SC341324  44.914  41.205  99.037
 6351DG     SC441325  45.023  41.421  99.190
 6352DA     BB141326  45.298  42.052  98.924
 6352DA     BB241327  45.106  41.948  98.629
 6352DA     BB341328  44.901  42.001  98.652
 6352DA     SC141329  44.821  41.730  98.783
 6352DA     SC241330  44.687  41.528  98.724
 6352DA     SC341331  44.677  41.486  98.977
 6352DA     SC441332  44.825  41.722  98.944
 6353DT     BB141333  44.857  42.121  98.524
 6353DT     BB241334  44.663  41.898  98.318
 6353DT     BB341335  44.461  41.922  98.358
 6353DT     SC141336  44.482  41.793  98.585
 6353DT     SC241337  44.381  41.604  98.570
 6353DT     SC341338  44.479  41.746  98.845
 6354DA     BB141339  44.548  41.927  97.947
 6354DA     BB241340  44.265  41.701  98.004
 6354DA     BB341341  44.092  41.812  98.061
 6354DA     SC141342  44.151  41.796  98.366
 6354DA     SC241343  44.055  41.683  98.567
 6354DA     SC341344  44.181  41.862  98.701
 6354DA     SC441345  44.235  41.916  98.431
 6355DT     BB141346  43.959  41.797  97.934
 6355DT     BB241347  43.737  41.585  98.124
 6355DT     BB341348  43.587  41.698  98.210
 6355DT     SC141349  43.753  41.792  98.391
 6355DT     SC241350  43.701  41.711  98.584
 6355DT     SC341351  43.898  41.963  98.530
 6356DC     BB141352  43.422  41.586  98.035
 6356DC     BB241353  43.276  41.514  98.357
 6356DC     BB341354  43.161  41.674  98.419
 6356DC     SC141355  43.374  41.816  98.477
 6356DC     SC241356  43.389  41.838  98.691
 6356DC     SC341357  43.553  42.009  98.470
 6357DC     BB141358  42.949  41.519  98.374
 6357DC     BB241359  42.916  41.622  98.718
 6357DC     BB341360  42.825  41.808  98.728
 6357DC     SC141361  43.044  41.928  98.648
 6357DC     SC241362  43.127  42.041  98.811
 6357DC     SC341363  43.210  42.069  98.499
 6358DT     BB141364  42.603  41.688  98.823
 6358DT     BB241365  42.682  41.939  99.070
 6358DT     BB341366  42.599  42.121  99.016
 6358DT     SC141367  42.781  42.157  98.830
 6358DT     SC241368  42.912  42.318  98.889
 6358DT     SC341369  42.890  42.189  98.592
 6359DT     BB141370  42.414  42.096  99.212
 6359DT     BB241371  42.567  42.416  99.276
 6359DT     BB341372  42.472  42.563  99.166
 6359DT     SC141373  42.588  42.482  98.944
 6359DT     SC241374  42.731  42.629  98.880
 6359DT     SC341375  42.617  42.385  98.701
 6360DG     BB141376  42.427  42.687  99.553
 6360DG     BB241377  42.555  42.955  99.347
 6360DG     BB341378  42.406  43.039  99.244
 6360DG     SC141379  42.434  42.851  99.004
 6360DG     SC241380  42.522  42.929  98.730
 6360DG     SC341381  42.423  42.650  98.734
 6360DG     SC441382  42.353  42.713  99.004
 6361DG     BB141383  42.441  43.352  99.372
 6361DG     BB241384  42.511  43.466  99.036
 6361DG     BB341385  42.342  43.511  98.943
 6361DG     SC141386  42.299  43.230  98.831
 6361DG     SC241387  42.309  43.152  98.543
 6361DG     SC341388  42.210  42.928  98.709
 6361DG     SC441389  42.218  43.123  98.919
 6362DA     BB141390  42.454  43.837  98.860
 6362DA     BB241391  42.420  43.763  98.503
 6362DA     BB341392  42.217  43.781  98.442
 6362DA     SC141393  42.147  43.483  98.498
 6362DA     SC241394  42.092  43.279  98.366
 6362DA     SC341395  41.991  43.190  98.585
 6362DA     SC441396  42.088  43.447  98.643
 6363DA     BB141397  42.330  43.993  98.214
 6363DA     BB241398  42.206  43.761  97.958
 6363DA     BB341399  41.995  43.783  97.935
 6363DA     SC141400  41.924  43.568  98.148
 6363DA     SC241401  41.826  43.338  98.153
 6363DA     SC341402  41.777  43.387  98.400
 6363DA     SC441403  41.900  43.617  98.299
 6364DC     BB141404  41.920  43.856  97.758
 6364DC     BB241405  41.796  43.541  97.632
 6364DC     BB341406  41.590  43.535  97.647
 6364DC     SC141407  41.602  43.498  97.906
 6364DC     SC241408  41.537  43.298  97.953
 6364DC     SC341409  41.571  43.541  98.165
 6365DG     BB141410  41.681  43.478  97.253
 6365DG     BB241411  41.462  43.218  97.377
 6365DG     BB341412  41.275  43.285  97.387
 6365DG     SC141413  41.302  43.389  97.673
 6365DG     SC241414  41.160  43.281  97.913
 6365DG     SC341415  41.302  43.533  97.979
 6365DG     SC441416  41.354  43.539  97.697
 6366DA     BB141417  41.177  43.007  97.200
 6366DA     BB241418  40.955  42.900  97.472
 6366DA     BB341419  40.778  43.019  97.473
 6366DA     SC141420  40.893  43.233  97.667
 6366DA     SC241421  40.857  43.307  97.903
 6366DA     SC341422  40.971  43.526  97.830
 6366DA     SC441423  40.965  43.362  97.602
 6367DG     BB141424  40.604  42.757  97.420
 6367DG     BB241425  40.469  42.829  97.747
 6367DG     BB341426  40.317  42.958  97.731
 6367DG     SC141427  40.494  43.207  97.757
 6367DG     SC241428  40.491  43.400  97.985
 6367DG     SC341429  40.659  43.501  97.763
 6367DG     SC441430  40.558  43.270  97.625
 6368DA     BB141431  40.083  42.750  97.903
 6368DA     BB241432  40.046  43.003  98.167
 6368DA     BB341433  39.905  43.152  98.107
 6368DA     SC141434  40.120  43.336  97.978
 6368DA     SC241435  40.225  43.558  98.024
 6368DA     SC341436  40.289  43.556  97.775
 6368DA     SC441437  40.149  43.318  97.821
 6369DC     BB141438  39.689  43.195  98.199
 6369DC     BB241439  39.794  43.484  98.387
 6369DC     BB341440  39.704  43.655  98.311
 6369DC     SC141441  39.862  43.655  98.102
 6369DC     SC241442  39.997  43.822  98.115
 6369DC     SC341443  39.942  43.643  97.851
 6370DT     BB141444  39.531  43.685  98.529
 6370DT     BB241445  39.734  43.982  98.528
 6370DT     BB341446  39.643  44.130  98.416
 6370DT     SC141447  39.706  44.011  98.191
 6370DT     SC241448  39.855  44.127  98.088
 6370DT     SC341449  39.680  43.886  97.961
 6371DT     BB141450  39.618  44.242  98.651
 6371DT     BB241451  39.833  44.458  98.457
 6371DT     BB341452  39.719  44.583  98.338
 6371DT     SC141453  39.663  44.387  98.173
 6371DT     SC241454  39.762  44.420  97.985
 6371DT     SC341455  39.523  44.209  98.038
 6372DA     BB141456  40.065  44.712  98.555
 6372DA     BB241457  40.087  44.823  98.206
 6372DA     BB341458  39.929  44.959  98.162
 6372DA     SC141459  39.733  44.737  98.066
 6372DA     SC241460  39.630  44.662  97.851
 6372DA     SC341461  39.455  44.547  97.999
 6372DA     SC441462  39.633  44.674  98.175
 6373DT     BB141463  40.042  45.051  98.124
 6373DT     BB241464  39.972  45.062  97.771
 6373DT     BB341465  39.807  45.180  97.735
 6373DT     SC141466  39.644  44.995  97.825
 6373DT     SC241467  39.530  44.914  97.661
 6373DT     SC341468  39.466  44.874  97.976
 6374DT     BB141469  40.004  45.302  97.627
 6374DT     BB241470  39.755  45.263  97.369
 6374DT     BB341471  39.598  45.394  97.402
 6374DT     SC141472  39.506  45.247  97.599
 6374DT     SC241473  39.321  45.155  97.540
 6374DT     SC341474  39.435  45.175  97.843
 6375DT     BB141475  39.692  45.520  97.191
 6375DT     BB241476  39.343  45.466  97.119
 6375DT     BB341477  39.228  45.610  97.213
 6375DT     SC141478  39.261  45.496  97.447
 6375DT     SC241479  39.075  45.411  97.512
 6375DT     SC341480  39.336  45.460  97.697
 6376DC     BB141481  39.178  45.749  96.978
 6376DC     BB241482  38.849  45.695  97.116
 6376DC     BB341483  38.800  45.850  97.244
 6376DC     SC141484  38.961  45.758  97.430
 6376DC     SC241485  38.845  45.683  97.595
 6376DC     SC341486  39.163  45.745  97.599
 6377DA     BB141487  38.469  45.874  96.982
 6377DA     BB241488  38.333  45.884  97.322
 6377DA     BB341489  38.357  46.078  97.406
 6377DA     SC141490  38.634  46.016  97.532
 6377DA     SC241491  38.731  45.986  97.759
 6377DA     SC341492  38.957  46.035  97.648
 6377DA     SC441493  38.765  46.050  97.444
 6378DA     BB141494  38.023  46.110  97.465
 6378DA     BB241495  38.098  46.127  97.823
 6378DA     BB341496  38.151  46.326  97.879
 6378DA     SC141497  38.455  46.286  97.829
 6378DA     SC241498  38.664  46.271  97.965
 6378DA     SC341499  38.786  46.328  97.747
 6378DA     SC441500  38.513  46.323  97.684
 6379DC     BB141501  38.027  46.471  98.015
 6379DC     BB241502  38.237  46.432  98.306
 6379DC     BB341503  38.336  46.609  98.346
 6379DC     SC141504  38.501  46.571  98.146
 6379DC     SC241505  38.698  46.530  98.222
 6379DC     SC341506  38.625  46.609  97.916
 6380DA     BB141507  38.145  46.507  98.704
 6380DA     BB241508  38.498  46.570  98.781
 6380DA     BB341509  38.537  46.780  98.784
 6380DA     SC141510  38.613  46.793  98.482
 6380DA     SC241511  38.818  46.830  98.345
 6380DA     SC341512  38.656  46.890  98.155
 6380DA     SC441513  38.496  46.828  98.377
 6381DA     BB141514  38.651  46.687  99.072
 6381DA     BB241515  38.979  46.801  98.955
 6381DA     BB341516  38.989  47.014  98.956
 6381DA     SC141517  38.887  47.044  98.664
 6381DA     SC241518  38.978  47.114  98.442
 6381DA     SC341519  38.733  47.152  98.376
 6381DA     SC441520  38.728  47.063  98.642
 6382DG     BB141521  39.218  46.925  99.137
 6382DG     BB241522  39.415  47.079  98.876
 6382DG     BB341523  39.408  47.277  98.894
 6382DG     SC141524  39.161  47.309  98.716
 6382DG     SC241525  39.153  47.442  98.448
 6382DG     SC341526  38.880  47.379  98.542
 6382DG     SC441527  39.016  47.301  98.782
 6383DA     BB141528  39.745  47.225  98.863
 6383DA     BB241529  39.748  47.448  98.572
 6383DA     BB341530  39.716  47.650  98.634
 6383DA     SC141531  39.407  47.636  98.604
 6383DA     SC241532  39.231  47.731  98.455
 6383DA     SC341533  39.068  47.675  98.645
 6383DA     SC441534  39.322  47.595  98.735
 6384DT     BB141535  39.861  47.741  98.594
 6384DT     BB241536  39.726  47.937  98.323
 6384DT     BB341537  39.662  48.121  98.393
 6384DT     SC141538  39.450  48.014  98.505
 6384DT     SC241539  39.274  48.076  98.398
 6384DT     SC341540  39.280  47.937  98.691
 6385DT     BB141541  39.869  48.220  98.261
 6385DT     BB241542  39.586  48.405  98.138
 6385DT     BB341543  39.541  48.560  98.268
 6385DT     SC141544  39.436  48.394  98.442
 6385DT     SC241545  39.223  48.425  98.450
 6385DT     SC341546  39.400  48.260  98.666
 6386DT     BB141547  39.641  48.743  98.092
 6386DT     BB241548  39.310  48.866  98.165
 6386DT     BB341549  39.314  48.984  98.335
 6386DT     SC141550  39.338  48.774  98.490
 6386DT     SC241551  39.156  48.748  98.603
 6386DT     SC341552  39.441  48.605  98.664
 6387DC     BB141553  39.296  49.242  98.206
 6387DC     BB241554  39.029  49.255  98.448
 6387DC     BB341555  39.098  49.338  98.625
 6387DC     SC141556  39.227  49.119  98.687
 6387DC     SC241557  39.131  49.025  98.855
 6387DC     SC341558  39.427  48.955  98.742
 6388DA     BB141559  38.785  49.621  98.561
 6388DA     BB241560  38.753  49.513  98.910
 6388DA     BB341561  38.892  49.618  99.033
 6388DA     SC141562  39.118  49.406  99.000
 6388DA     SC241563  39.232  49.235  99.141
 6388DA     SC341564  39.419  49.245  98.966
 6388DA     SC441565  39.224  49.428  98.881
 6389DA     BB141566  38.662  49.761  99.254
 6389DA     BB241567  38.808  49.561  99.525
 6389DA     BB341568  38.970  49.666  99.615
 6389DA     SC141569  39.186  49.546  99.426
 6389DA     SC241570  39.377  49.386  99.442
 6389DA     SC341571  39.460  49.496  99.226
 6389DA     SC441572  39.222  49.628  99.293
 6390DA     BB141573  38.835  49.661  99.931
 6390DA     BB241574  39.109  49.440 100.032
 6390DA     BB341575  39.276  49.555 100.099
 6390DA     SC141576  39.408  49.570  99.817
 6390DA     SC241577  39.610  49.477  99.703
 6390DA     SC341578  39.578  49.669  99.536
 6390DA     SC441579  39.372  49.696  99.725
 6391DT     BB141580  39.356  49.559 100.315
 6391DT     BB241581  39.629  49.333 100.245
 6391DT     BB341582  39.810  49.431 100.265
 6391DT     SC141583  39.774  49.558 100.038
 6391DT     SC241584  39.915  49.485  99.893
 6391DT     SC341585  39.740  49.757  99.867
 6392DT     BB141586  39.846  49.279 100.481
 6392DT     BB241587  40.112  49.191 100.253
 6392DT     BB341588  40.272  49.321 100.277
 6392DT     SC141589  40.144  49.513 100.152
 6392DT     SC241590  40.238  49.549  99.962
 6392DT     SC341591  40.024  49.744 100.109
 6393DA     BB141592  40.363  48.911 100.262
 6393DA     BB241593  40.582  49.091 100.029
 6393DA     BB341594  40.720  49.213 100.136
 6393DA     SC141595  40.535  49.464 100.137
 6393DA     SC241596  40.530  49.690 100.032
 6393DA     SC341597  40.369  49.752 100.222
 6393DA     SC441598  40.438  49.483 100.264
 6394DC     BB141599  40.863  49.145 100.087
 6394DC     BB241600  40.975  49.417  99.878
 6394DC     BB341601  41.088  49.550  99.990
 6394DC     SC141602  40.874  49.646 100.107
 6394DC     SC241603  40.839  49.847 100.038
 6394DC     SC341604  40.701  49.708 100.296
 6395DT     BB141605  41.279  49.454  99.840
 6395DT     BB241606  41.292  49.811  99.792
 6395DT     BB341607  41.392  49.900  99.950
 6395DT     SC141608  41.186  49.866 100.110
 6395DT     SC241609  41.098  50.057 100.155
 6395DT     SC341610  41.041  49.780 100.313
 6396DG     BB141611  41.581  50.006  99.605
 6396DG     BB241612  41.514  50.294  99.812
 6396DG     BB341613  41.644  50.302  99.963
 6396DG     SC141614  41.472  50.134 100.152
 6396DG     SC241615  41.343  50.231 100.403
 6396DG     SC341616  41.318  49.938 100.379
 6396DG     SC441617  41.487  49.975 100.151
 6397DA     BB141618  41.727  50.632  99.878
 6397DA     BB241619  41.633  50.749 100.212
 6397DA     BB341620  41.786  50.703 100.353
 6397DA     SC141621  41.667  50.425 100.429
 6397DA     SC241622  41.556  50.320 100.626
 6397DA     SC341623  41.623  50.097 100.518
 6397DA     SC441624  41.719  50.297 100.347
 6398DT     BB141625  41.918  50.853 100.456
 6398DT     BB241626  41.767  50.830 100.783
 6398DT     BB341627  41.898  50.737 100.914
 6398DT     SC141628  41.851  50.502 100.807
 6398DT     SC241629  41.741  50.381 100.946
 6398DT     SC341630  41.892  50.274 100.680
 6399DG     BB141631  41.849  51.103 101.094
 6399DG     BB241632  41.786  50.836 101.331
 6399DG     BB341633  41.958  50.771 101.406
 6399DG     SC141634  42.001  50.559 101.190
 6399DG     SC241635  41.996  50.263 101.230
 6399DG     SC341636  42.089  50.330 100.958
 6399DG     SC441637  42.078  50.599 101.055
 6400DT     BB141638  42.031  50.785 101.638
 6400DT     BB241639  41.985  50.443 101.744
 6400DT     BB341640  42.169  50.352 101.771
 6400DT     SC141641  42.207  50.333 101.512
 6400DT     SC241642  42.196  50.126 101.454
 6400DT     SC341643  42.313  50.368 101.274
 6401DT     BB141644  42.151  50.355 102.051
 6401DT     BB241645  42.201  50.006 101.971
 6401DT     BB341646  42.403  49.963 101.970
 6401DT     SC141647  42.436  50.084 101.740
 6401DT     SC241648  42.479  49.939 101.587
 6401DT     SC341649  42.522  50.259 101.562
 6402DT     BB141650  42.367  49.824 102.197
 6402DT     BB241651  42.507  49.586 101.964
 6402DT     BB341652  42.713  49.599 101.965
 6402DT     SC141653  42.707  49.824 101.829
 6402DT     SC241654  42.784  49.789 101.631
 6402DT     SC341655  42.739  50.079 101.769
 6403DA     BB141656  42.599  49.199 102.015
 6403DA     BB241657  42.851  49.215 101.749
 6403DA     BB341658  43.044  49.257 101.832
 6403DA     SC141659  43.015  49.565 101.806
 6403DA     SC241660  43.114  49.749 101.670
 6403DA     SC341661  43.029  49.905 101.855
 6403DA     SC441662  42.956  49.645 101.932
 6404DG     BB141663  43.096  48.987 101.693
 6404DG     BB241664  43.319  49.190 101.493
 6404DG     BB341665  43.487  49.225 101.593
 6404DG     SC141666  43.385  49.481 101.725
 6404DG     SC241667  43.487  49.757 101.675
 6404DG     SC341668  43.298  49.754 101.903
 6404DG     SC441669  43.307  49.471 101.865
 6405DT     BB141670  43.659  49.154 101.505
 6405DT     BB241671  43.817  49.457 101.389
 6405DT     BB341672  43.962  49.518 101.524
 6405DT     SC141673  43.780  49.603 101.693
 6405DT     SC241674  43.787  49.818 101.703
 6405DT     SC341675  43.636  49.623 101.913
 6406DG     BB141676  44.131  49.474 101.155
 6406DG     BB241677  44.209  49.796 101.301
 6406DG     BB341678  44.347  49.775 101.443
 6406DG     SC141679  44.145  49.730 101.668
 6406DG     SC241680  44.094  49.914 101.897
 6406DG     SC341681  43.952  49.658 101.935
 6406DG     SC441682  44.094  49.581 101.698
 6407DG     BB141683  44.539  49.986 101.276
 6407DG     BB241684  44.522  50.196 101.570
 6407DG     BB341685  44.653  50.133 101.706
 6407DG     SC141686  44.456  49.942 101.841
 6407DG     SC241687  44.346  49.969 102.118
 6407DG     SC341688  44.273  49.707 102.001
 6407DG     SC441689  44.444  49.791 101.787
 6408DT     BB141690  44.838  50.254 101.782
 6408DT     BB241691  44.731  50.352 102.112
 6408DT     BB341692  44.828  50.239 102.255
 6408DT     SC141693  44.680  50.029 102.201
 6408DT     SC241694  44.549  49.990 102.367
 6408DT     SC341695  44.612  49.786 102.123
 6409DA     BB141696  44.920  50.630 102.382
 6409DA     BB241697  44.800  50.447 102.676
 6409DA     BB341698  44.952  50.317 102.750
 6409DA     SC141699  44.862  50.075 102.577
 6409DA     SC241700  44.756  49.852 102.613
 6409DA     SC341701  44.853  49.791 102.383
 6409DA     SC441702  44.932  50.056 102.433
 6410DT     BB141703  45.068  50.337 102.951
 6410DT     BB241704  44.892  50.072 103.121
 6410DT     BB341705  45.019  49.913 103.154
 6410DT     SC141706  45.009  49.842 102.902
 6410DT     SC241707  44.901  49.657 102.884
 6410DT     SC341708  45.087  49.791 102.655
 6411DT     BB141709  45.052  49.955 103.433
 6411DT     BB241710  44.919  49.620 103.409
 6411DT     BB341711  45.074  49.483 103.401
 6411DT     SC141712  45.127  49.547 103.152
 6411DT     SC241713  45.074  49.383 103.023
 6411DT     SC341714  45.258  49.636 102.941
 6412DC     BB141715  45.025  49.394 103.658
 6412DC     BB241716  44.987  49.101 103.451
 6412DC     BB341717  45.169  49.004 103.432
 6412DC     SC141718  45.256  49.187 103.265
 6412DC     SC241719  45.273  49.102 103.068
 6412DC     SC341720  45.403  49.382 103.165
 6413DT     BB141721  45.070  48.809 103.587
 6413DT     BB241722  45.156  48.647 103.277
 6413DT     BB341723  45.356  48.592 103.279
 6413DT     SC141724  45.433  48.840 103.243
 6413DT     SC241725  45.517  48.860 103.046
 6413DT     SC341726  45.547  49.073 103.289
 6414DG     BB141727  45.113  48.274 103.203
 6414DG     BB241728  45.370  48.312 102.951
 6414DG     BB341729  45.545  48.248 103.022
 6414DG     SC141730  45.626  48.521 103.135
 6414DG     SC241731  45.851  48.691 103.038
 6414DG     SC341732  45.738  48.800 103.288
 6414DG     SC441733  45.582  48.559 103.284
 6415DA     BB141734  45.534  48.082 102.723
 6415DA     BB241735  45.851  48.241 102.629
 6415DA     BB341736  46.011  48.160 102.744
 6415DA     SC141737  45.987  48.370 102.972
 6415DA     SC241738  46.118  48.563 103.060
 6415DA     SC341739  45.983  48.531 103.275
 6415DA     SC441740  45.894  48.333 103.098
 6416DA     BB141741  46.110  48.138 102.434
 6416DA     BB241742  46.395  48.345 102.535
 6416DA     BB341743  46.527  48.233 102.661
 6416DA     SC141744  46.386  48.319 102.925
 6416DA     SC241745  46.436  48.462 103.123
 6416DA     SC341746  46.251  48.328 103.241
 6416DA     SC441747  46.269  48.223 102.982
 6417DT     BB141748  46.693  48.205 102.584
 6417DT     BB241749  46.883  48.429 102.793
 6417DT     BB341750  46.980  48.322 102.942
 6417DT     SC141751  46.756  48.288 103.074
 6417DT     SC241752  46.762  48.404 103.256
 6417DT     SC341753  46.550  48.168 103.187
 6418DA     BB141754  47.267  48.565 102.755
 6418DA     BB241755  47.309  48.599 103.117
 6418DA     BB341756  47.395  48.422 103.199
 6418DA     SC141757  47.120  48.287 103.257
 6418DA     SC241758  46.983  48.225 103.455
 6418DA     SC341759  46.863  48.063 103.297
 6418DA     SC441760  47.059  48.191 103.143
 6419DA     BB141761  47.620  48.630 103.324
 6419DA     BB241762  47.524  48.512 103.657
 6419DA     BB341763  47.606  48.318 103.694
 6419DA     SC141764  47.360  48.165 103.581
 6419DA     SC241765  47.174  48.023 103.669
 6419DA     SC341766  47.152  47.939 103.428
 6419DA     SC441767  47.362  48.124 103.426
 6420DT     BB141768  47.762  48.279 103.841
 6420DT     BB241769  47.556  48.111 104.085
 6420DT     BB341770  47.599  47.909 104.086
 6420DT     SC141771  47.472  47.871 103.860
 6420DT     SC241772  47.293  47.758 103.897
 6420DT     SC341773  47.427  47.811 103.607
 6421DG     BB141774  47.695  48.008 104.474
 6421DG     BB241775  47.471  47.724 104.469
 6421DG     BB341776  47.575  47.557 104.438
 6421DG     SC141777  47.553  47.571 104.133
 6421DG     SC241778  47.402  47.380 103.960
 6421DG     SC341779  47.566  47.565 103.796
 6421DG     SC441780  47.664  47.651 104.051
 6422DT     BB141781  47.605  47.366 104.592
 6422DT     BB241782  47.382  47.126 104.440
 6422DT     BB341783  47.492  46.975 104.351
 6422DT     SC141784  47.561  47.131 104.151
 6422DT     SC241785  47.462  47.065 103.972
 6422DT     SC341786  47.711  47.272 103.987
 6423DA     BB141787  47.230  46.768 104.605
 6423DA     BB241788  47.203  46.615 104.273
 6423DA     BB341789  47.371  46.488 104.235
 6423DA     SC141790  47.542  46.713 104.105
 6423DA     SC241791  47.628  46.772 103.878
 6423DA     SC341792  47.798  46.917 104.003
 6423DA     SC441793  47.641  46.796 104.201
 6424DT     BB141794  47.345  46.281 104.217
 6424DT     BB241795  47.379  46.271 103.858
 6424DT     BB341796  47.560  46.186 103.806
 6424DT     SC141797  47.690  46.403 103.874
 6424DT     SC241798  47.769  46.498 103.698
 6424DT     SC341799  47.856  46.563 104.003
 6425DT     BB141800  47.424  45.972 103.720
 6425DT     BB241801  47.607  46.088 103.432
 6425DT     BB341802  47.798  46.007 103.432
 6425DT     SC141803  47.874  46.169 103.624
 6425DT     SC241804  48.015  46.312 103.545
 6425DT     SC341805  47.960  46.252 103.859
 6426DA     BB141806  47.611  45.956 103.060
 6426DA     BB241807  47.946  46.095 103.004
 6426DA     BB341808  48.095  45.948 103.046
 6426DA     SC141809  48.124  46.029 103.345
 6426DA     SC241810  48.295  46.138 103.491
 6426DA     SC341811  48.169  46.028 103.686
 6426DA     SC441812  48.034  45.951 103.453
 6427DA     BB141813  48.169  46.058 102.748
 6427DA     BB241814  48.493  46.154 102.891
 6427DA     BB341815  48.609  45.981 102.935
 6427DA     SC141816  48.503  45.953 103.226
 6427DA     SC241817  48.590  45.980 103.458
 6427DA     SC341818  48.392  45.833 103.528
 6427DA     SC441819  48.374  45.858 103.249
 6428DT     BB141820  48.766  45.967 102.831
 6428DT     BB241821  49.004  46.044 103.091
 6428DT     BB341822  49.088  45.870 103.163
 6428DT     SC141823  48.870  45.809 103.295
 6428DT     SC241824  48.906  45.827 103.506
 6428DT     SC341825  48.653  45.679 103.369
 6429DC     BB141826  49.320  45.933 103.039
 6429DC     BB241827  49.414  45.884 103.383
 6429DC     BB341828  49.451  45.683 103.419
 6429DC     SC141829  49.194  45.627 103.416
 6429DC     SC241830  49.130  45.575 103.614
 6429DC     SC341831  48.964  45.523 103.341
 6430DC     BB141832  49.724  45.721 103.432
 6430DC     BB241833  49.644  45.559 103.744
 6430DC     BB341834  49.651  45.354 103.721
 6430DC     SC141835  49.424  45.353 103.590
 6430DC     SC241836  49.272  45.260 103.711
 6430DC     SC341837  49.250  45.321 103.394
 6431DA     BB141838  49.910  45.420 104.046
 6431DA     BB241839  49.680  45.151 104.144
 6431DA     BB341840  49.737  44.968 104.050
 6431DA     SC141841  49.558  45.013 103.799
 6431DA     SC241842  49.351  44.916 103.700
 6431DA     SC341843  49.430  45.022 103.480
 6431DA     SC441844  49.625  45.085 103.672
 6432DA     BB141845  49.746  44.839 104.356
 6432DA     BB241846  49.478  44.611 104.252
 6432DA     BB341847  49.558  44.449 104.139
 6432DA     SC141848  49.526  44.593 103.865
 6432DA     SC241849  49.384  44.570 103.661
 6432DA     SC341850  49.567  44.708 103.544
 6432DA     SC441851  49.651  44.678 103.810
 6433DC     BB141852  49.559  44.243 104.211
 6433DC     BB241853  49.291  44.127 103.999
 6433DC     BB341854  49.366  44.001 103.853
 6433DC     SC141855  49.467  44.203 103.719
 6433DC     SC241856  49.357  44.230 103.536
 6433DC     SC341857  49.645  44.362 103.607
 6434DG     BB141858  49.094  43.774 104.056
 6434DG     BB241859  49.025  43.773 103.700
 6434DG     BB341860  49.145  43.643 103.609
 6434DG     SC141861  49.368  43.847 103.558
 6434DG     SC241862  49.454  43.949 103.291
 6434DG     SC341863  49.640  44.039 103.503
 6434DG     SC441864  49.481  43.868 103.669
 6435DT     BB141865  49.066  43.461 103.499
 6435DT     BB241866  49.104  43.567 103.156
 6435DT     BB341867  49.263  43.469 103.068
 6435DT     SC141868  49.436  43.617 103.199
 6435DT     SC241869  49.537  43.748 103.061
 6435DT     SC341870  49.630  43.684 103.364
 6436DA     BB141871  48.932  43.419 102.818
 6436DA     BB241872  49.212  43.535 102.612
 6436DA     BB341873  49.352  43.377 102.582
 6436DA     SC141874  49.523  43.449 102.833
 6436DA     SC241875  49.749  43.543 102.881
 6436DA     SC341876  49.720  43.438 103.114
 6436DA     SC441877  49.487  43.375 102.971
 6437DT     BB141878  49.371  43.314 102.399
 6437DT     BB241879  49.691  43.468 102.333
 6437DT     BB341880  49.841  43.325 102.341
 6437DT     SC141881  49.829  43.315 102.603
 6437DT     SC241882  50.008  43.400 102.686
 6437DT     SC341883  49.792  43.219 102.846
 6438DA     BB141884  49.872  43.550 101.989
 6438DA     BB241885  50.203  43.536 102.146
 6438DA     BB341886  50.286  43.340 102.127
 6438DA     SC141887  50.167  43.237 102.396
 6438DA     SC241888  50.251  43.172 102.622
 6438DA     SC341889  50.028  43.047 102.645
 6438DA     SC441890  50.024  43.165 102.391
 6439DT     BB141891  50.439  43.340 102.023
 6439DT     BB241892  50.677  43.290 102.289
 6439DT     BB341893  50.732  43.091 102.298
 6439DT     SC141894  50.503  43.023 102.406
 6439DT     SC241895  50.535  42.965 102.610
 6439DT     SC341896  50.267  42.910 102.437
 6440DT     BB141897  50.967  43.173 102.206
 6440DT     BB241898  51.043  42.999 102.512
 6440DT     BB341899  51.055  42.795 102.477
 6440DT     SC141900  50.794  42.775 102.457
 6440DT     SC241901  50.718  42.666 102.625
 6440DT     SC341902  50.556  42.730 102.352
 6441DT     BB141903  51.320  42.816 102.513
 6441DT     BB241904  51.217  42.562 102.747
 6441DT     BB341905  51.209  42.378 102.652
 6441DT     SC141906  50.986  42.442 102.528
 6441DT     SC241907  50.824  42.326 102.608
 6441DT     SC341908  50.818  42.497 102.333
 6442DC     BB141909  51.429  42.305 102.787
 6442DC     BB241910  51.187  42.049 102.864
 6442DC     BB341911  51.189  41.904 102.716
 6442DC     SC141912  51.061  42.062 102.550
 6442DC     SC241913  50.862  41.987 102.519
 6442DC     SC341914  51.011  42.210 102.338
 6443DT     BB141915  51.315  41.724 102.880
 6443DT     BB241916  51.019  41.549 102.771
 6443DT     BB341917  51.057  41.451 102.593
 6443DT     SC141918  51.049  41.676 102.458
 6443DT     SC241919  50.873  41.679 102.334
 6443DT     SC341920  51.127  41.878 102.308
 6444DT     BB141921  51.064  41.202 102.713
 6444DT     BB241922  50.815  41.166 102.454
 6444DT     BB341923  50.905  41.107 102.277
 6444DT     SC141924  51.002  41.348 102.238
 6444DT     SC241925  50.901  41.438 102.070
 6444DT     SC341926  51.176  41.543 102.206
 6445DG     BB141927  50.643  40.799 102.349
 6445DG     BB241928  50.601  40.927 102.014
 6445DG     BB341929  50.739  40.849 101.894
 6445DG     SC141930  50.944  41.071 101.944
 6445DG     SC241931  51.039  41.271 101.744
 6445DG     SC341932  51.199  41.287 101.993
 6445DG     SC441933  51.046  41.056 102.067
 6446DA     BB141934  50.497  40.733 101.663
 6446DA     BB241935  50.641  40.941 101.398
 6446DA     BB341936  50.813  40.845 101.314
 6446DA     SC141937  51.014  40.978 101.510
 6446DA     SC241938  51.195  41.149 101.501
 6446DA     SC341939  51.277  41.044 101.720
 6446DA     SC441940  51.050  40.898 101.645
 6447DT     BB141941  50.827  40.760 101.102
 6447DT     BB241942  51.033  41.025 100.969
 6447DT     BB341943  51.223  40.954 100.928
 6447DT     SC141944  51.284  40.950 101.184
 6447DT     SC241945  51.430  41.103 101.224
 6447DT     SC341946  51.352  40.858 101.421
 6448DA     BB141947  51.106  41.121 100.561
 6448DA     BB241948  51.436  41.259 100.643
 6448DA     BB341949  51.589  41.115 100.603
 6448DA     SC141950  51.582  40.992 100.888
 6448DA     SC241951  51.730  40.984 101.089
 6448DA     SC341952  51.591  40.779 101.157
 6448DA     SC441953  51.486  40.865 100.912
 6449DA     BB141954  51.719  41.354 100.417
 6449DA     BB241955  52.004  41.352 100.646
 6449DA     BB341956  52.136  41.190 100.600
 6449DA     SC141957  51.996  40.990 100.793
 6449DA     SC241958  52.046  40.875 101.008
 6449DA     SC341959  51.862  40.710 100.940
 6449DA     SC441960  51.879  40.898 100.732
 6450DT     BB141961  52.322  41.235 100.533
 6450DT     BB241962  52.490  41.164 100.844
 6450DT     BB341963  52.596  40.986 100.828
 6450DT     SC141964  52.375  40.845 100.843
 6450DT     SC241965  52.370  40.740 101.031
 6450DT     SC341966  52.181  40.680 100.775
 6451DA     BB141967  52.827  41.297 100.984
 6451DA     BB241968  52.857  41.007 101.206
 6451DA     BB341969  52.972  40.853 101.112
 6451DA     SC141970  52.726  40.714 100.982
 6451DA     SC241971  52.599  40.501 101.009
 6451DA     SC341972  52.514  40.546 100.771
 6451DA     SC441973  52.685  40.759 100.833
 6452DA     BB141974  53.074  40.917 101.416
 6452DA     BB241975  53.000  40.564 101.479
 6452DA     BB341976  53.130  40.439 101.365
 6452DA     SC141977  52.939  40.423 101.120
 6452DA     SC241978  52.796  40.252 101.008
 6452DA     SC341979  52.807  40.406 100.803
 6452DA     SC441980  52.959  40.532 101.003
 6453DT     BB141981  53.216  40.354 101.483
 6453DT     BB241982  53.063  40.032 101.430
 6453DT     BB341983  53.173  39.923 101.292
 6453DT     SC141984  53.081  40.069 101.094
 6453DT     SC241985  52.949  39.949 100.972
 6453DT     SC341986  53.078  40.235 100.889
 6454DA     BB141987  53.092  39.692 101.635
 6454DA     BB241988  53.018  39.490 101.338
 6454DA     BB341989  53.199  39.440 101.235
 6454DA     SC141990  53.193  39.691 101.052
 6454DA     SC241991  53.156  39.742 100.810
 6454DA     SC341992  53.276  39.964 100.860
 6454DA     SC441993  53.271  39.822 101.102
 6455DA     BB141994  53.074  39.137 101.269
 6455DA     BB241995  53.083  39.114 100.903
 6455DA     BB341996  53.284  39.090 100.835
 6455DA     SC141997  53.336  39.395 100.805
 6455DA     SC241998  53.370  39.559 100.621
 6455DA     SC341999  53.477  39.708 100.800
 6455DA     SC442000  53.400  39.472 100.931
 6456DA     BB142001  53.163  38.823 100.681
 6456DA     BB242002  53.267  38.979 100.366
 6456DA     BB342003  53.478  38.961 100.340
 6456DA     SC142004  53.542  39.231 100.481
 6456DA     SC242005  53.627  39.457 100.418
 6456DA     SC342006  53.686  39.482 100.666
 6456DA     SC442007  53.573  39.227 100.639
 6457DC     BB142008  53.559  38.843 100.187
 6457DC     BB242009  53.662  39.115  99.973
 6457DC     BB342010  53.867  39.135  99.979
 6457DC     SC142011  53.857  39.244 100.218
 6457DC     SC242012  53.911  39.452 100.204
 6457DC     SC342013  53.894  39.278 100.477
 6458DC     BB142014  53.890  39.035  99.727
 6458DC     BB242015  54.044  39.360  99.709
 6458DC     BB342016  54.244  39.346  99.761
 6458DC     SC142017  54.184  39.320 100.015
 6458DC     SC242018  54.245  39.497 100.121
 6458DC     SC342019  54.163  39.214 100.255
 6459DT     BB142020  54.302  39.391  99.504
 6459DT     BB242021  54.469  39.655  99.685
 6459DT     BB342022  54.653  39.589  99.753
 6459DT     SC142023  54.541  39.446  99.942
 6459DT     SC242024  54.584  39.533 100.133
 6459DT     SC342025  54.466  39.236 100.083
 6460DA     BB142026  54.692  39.957  99.554
 6460DA     BB242027  54.870  39.978  99.874
 6460DA     BB342028  55.046  39.858  99.870
 6460DA     SC142029  54.904  39.604  99.979
 6460DA     SC242030  54.904  39.467 100.188
 6460DA     SC342031  54.805  39.281 100.042
 6460DA     SC442032  54.844  39.500  99.872
 6461DG     BB142033  55.172  40.134  99.929
 6461DG     BB242034  55.271  39.971 100.236
 6461DG     BB342035  55.429  39.854 100.202
 6461DG     SC142036  55.263  39.607 100.133
 6461DG     SC242037  55.248  39.355 100.292
 6461DG     SC342038  55.113  39.322 100.031
 6461DG     SC442039  55.218  39.584  99.981
 6462DA     BB142040  55.570  40.021 100.472
 6462DA     BB242041  55.614  39.700 100.645
 6462DA     BB342042  55.774  39.589 100.557
 6462DA     SC142043  55.591  39.441 100.353
 6462DA     SC242044  55.506  39.210 100.316
 6462DA     SC342045  55.462  39.287 100.075
 6462DA     SC442046  55.572  39.508 100.208
 6463DA     BB142047  55.876  39.584 100.869
 6463DA     BB242048  55.856  39.219 100.849
 6463DA     BB342049  56.018  39.142 100.734
 6463DA     SC142050  55.863  39.153 100.464
 6463DA     SC242051  55.766  38.992 100.301
 6463DA     SC342052  55.775  39.187 100.134
 6463DA     SC442053  55.878  39.286 100.375
 6464DG     BB142054  56.090  38.990 100.996
 6464DG     BB242055  56.021  38.698 100.794
 6464DG     BB342056  56.179  38.654 100.682
 6464DG     SC142057  56.093  38.829 100.447
 6464DG     SC242058  56.011  38.732 100.176
 6464DG     SC342059  56.039  39.026 100.178
 6464DG     SC442060  56.137  38.983 100.444
 6465DA     BB142061  56.155  38.331 100.809
 6465DA     BB242062  56.115  38.199 100.469
 6465DA     BB342063  56.303  38.199 100.367
 6465DA     SC142064  56.267  38.484 100.248
 6465DA     SC242065  56.229  38.587 100.024
 6465DA     SC342066  56.318  38.803 100.131
 6465DA     SC442067  56.327  38.607 100.332
 6466DA     BB142068  56.226  37.881 100.319
 6466DA     BB242069  56.237  37.951  99.959
 6466DA     BB342070  56.440  37.969  99.894
 6466DA     SC142071  56.454  38.276  99.941
 6466DA     SC242072  56.467  38.483  99.804
 6466DA     SC342073  56.555  38.595 100.018
 6466DA     SC442074  56.508  38.326 100.084
 6467DA     BB142075  56.356  37.735  99.673
 6467DA     BB242076  56.437  37.976  99.410
 6467DA     BB342077  56.649  37.992  99.386
 6467DA     SC142078  56.679  38.224  99.591
 6467DA     SC242079  56.735  38.467  99.588
 6467DA     SC342080  56.791  38.436  99.837
 6467DA     SC442081  56.711  38.184  99.744
 6468DT     BB142082  56.759  37.923  99.207
 6468DT     BB242083  56.825  38.251  99.071
 6468DT     BB342084  57.026  38.296  99.091
 6468DT     SC142085  56.999  38.340  99.348
 6468DT     SC242086  57.024  38.550  99.388
 6468DT     SC342087  57.028  38.313  99.609
 6469DT     BB142088  57.097  38.260  98.818
 6469DT     BB242089  57.199  38.598  98.889
 6469DT     BB342090  57.396  38.601  98.952
 6469DT     SC142091  57.330  38.505  99.187
 6469DT     SC242092  57.357  38.658  99.337
 6469DT     SC342093  57.316  38.341  99.393
 6470DC     BB142094  57.508  38.708  98.712
 6470DC     BB242095  57.605  38.944  98.968
 6470DC     BB342096  57.790  38.894  99.044
 6470DC     SC142097  57.689  38.694  99.180
 6470DC     SC242098  57.697  38.739  99.390
 6470DC     SC342099  57.642  38.447  99.260
 6471DT     BB142100  57.914  39.107  98.918
 6471DT     BB242101  57.974  39.160  99.270
 6471DT     BB342102  58.149  39.066  99.327
 6471DT     SC142103  58.035  38.830  99.318
 6471DT     SC242104  58.015  38.753  99.518
 6471DT     SC342105  57.982  38.583  99.244
 6472DT     BB142106  58.247  39.312  99.355
 6472DT     BB242107  58.269  39.161  99.682
 6472DT     BB342108  58.443  39.049  99.697
 6472DT     SC142109  58.342  38.858  99.547
 6472DT     SC242110  58.307  38.684  99.668
 6472DT     SC342111  58.309  38.693  99.344
 6473DT     BB142112  58.500  39.239  99.864
 6473DT     BB242113  58.515  38.933 100.054
 6473DT     BB342114  58.695  38.838 100.020
 6473DT     SC142115  58.617  38.759  99.782
 6473DT     SC242116  58.588  38.546  99.783
 6473DT     SC342117  58.608  38.733  99.520
 6474DA     BB142118  58.587  38.867 100.427
 6474DA     BB242119  58.694  38.523 100.356
 6474DA     BB342120  58.903  38.518 100.312
 6474DA     SC142121  58.864  38.556 100.006
 6474DA     SC242122  58.891  38.421  99.798
 6474DA     SC342123  58.898  38.647  99.677
 6474DA     SC442124  58.868  38.707  99.949
 6475DT     BB142125  58.991  38.423 100.439
 6475DT     BB242126  59.071  38.134 100.238
 6475DT     BB342127  59.263  38.151 100.163
 6475DT     SC142128  59.188  38.331  99.987
 6475DT     SC242129  59.197  38.245  99.790
 6475DT     SC342130  59.169  38.561  99.860
 6476DT     BB142131  59.341  37.959 100.335
 6476DT     BB242132  59.446  37.838 100.011
 6476DT     BB342133  59.631  37.917  99.963
 6476DT     SC142134  59.526  38.152  99.911
 6476DT     SC242135  59.537  38.190  99.699
 6476DT     SC342136  59.473  38.410  99.929
 6477DT     BB142137  59.765  37.679 100.008
 6477DT     BB242138  59.859  37.768  99.671
 6477DT     BB342139  60.028  37.888  99.674
 6477DT     SC142140  59.889  38.094  99.757
 6477DT     SC242141  59.878  38.241  99.600
 6477DT     SC342142  59.805  38.291  99.911
 6478DT     BB142143  60.207  37.688  99.585
 6478DT     BB242144  60.251  37.956  99.347
 6478DT     BB342145  60.402  38.083  99.411
 6478DT     SC142146  60.246  38.188  99.595
 6478DT     SC242147  60.199  38.391  99.541
 6478DT     SC342148  60.153  38.256  99.832
 6479DG     BB142149  60.544  37.952  99.050
 6479DG     BB242150  60.542  38.313  99.064
 6479DG     BB342151  60.704  38.378  99.160
 6479DG     SC142152  60.573  38.374  99.436
 6479DG     SC242153  60.511  38.613  99.605
 6479DG     SC342154  60.467  38.363  99.756
 6479DG     SC442155  60.579  38.240  99.523
 6480DA     BB142156  60.765  38.581  98.886
 6480DA     BB242157  60.736  38.878  99.098
 6480DA     BB342158  60.914  38.907  99.211
 6480DA     SC142159  60.818  38.739  99.454
 6480DA     SC242160  60.750  38.778  99.690
 6480DA     SC342161  60.800  38.529  99.725
 6480DA     SC442162  60.856  38.582  99.456
 6481DA     BB142163  60.877  39.198  99.069
 6481DA     BB242164  60.850  39.335  99.408
 6481DA     BB342165  61.041  39.340  99.502
 6481DA     SC142166  61.014  39.056  99.628
 6481DA     SC242167  60.986  38.957  99.855
 6481DA     SC342168  61.072  38.740  99.748
 6481DA     SC442169  61.071  38.932  99.543
 6482DC     BB142170  61.088  39.511  99.536
 6482DC     BB242171  61.036  39.502  99.892
 6482DC     BB342172  61.216  39.470  99.990
 6482DC     SC142173  61.217  39.216  99.920
 6482DC     SC242174  61.186  39.095 100.095
 6482DC     SC342175  61.293  38.991  99.807
 6483DT     BB142176  61.186  39.719 100.069
 6483DT     BB242177  61.213  39.525 100.372
 6483DT     BB342178  61.412  39.487 100.414
 6483DT     SC142179  61.427  39.307 100.224
 6483DT     SC242180  61.447  39.112 100.312
 6483DT     SC342181  61.501  39.187 100.001
 6484DG     BB142182  61.227  39.669 100.729
 6484DG     BB242183  61.399  39.367 100.829
 6484DG     BB342184  61.595  39.399 100.834
 6484DG     SC142185  61.640  39.319 100.542
 6484DG     SC242186  61.792  39.080 100.447
 6484DG     SC342187  61.723  39.258 100.220
 6484DG     SC442188  61.627  39.431 100.428
 6485DT     BB142189  61.683  39.372 101.016
 6485DT     BB242190  61.864  39.064 100.970
 6485DT     BB342191  62.063  39.104 100.926
 6485DT     SC142192  62.002  39.177 100.682
 6485DT     SC242193  62.078  39.031 100.543
 6485DT     SC342194  61.974  39.329 100.468
 6486DT     BB142195  62.113  39.009 101.168
 6486DT     BB242196  62.314  38.809 100.945
 6486DT     BB342197  62.490  38.908 100.900
 6486DT     SC142198  62.365  39.073 100.739
 6486DT     SC242199  62.422  39.033 100.536
 6486DT     SC342200  62.269  39.298 100.640
 6487DT     BB142201  62.612  38.726 101.050
 6487DT     BB242202  62.778  38.708 100.731
 6487DT     BB342203  62.923  38.855 100.718
 6487DT     SC142204  62.742  39.042 100.684
 6487DT     SC242205  62.754  39.117 100.482
 6487DT     SC342206  62.596  39.257 100.728
 6488DT     BB142207  63.113  38.665 100.741
 6488DT     BB242208  63.198  38.840 100.437
 6488DT     BB342209  63.312  39.007 100.481
 6488DT     SC142210  63.102  39.136 100.571
 6488DT     SC242211  63.053  39.296 100.435
 6488DT     SC342212  62.940  39.262 100.737
 6489DC     BB142213  63.543  38.890 100.386
 6489DC     BB242214  63.520  39.200 100.203
 6489DC     BB342215  63.611  39.352 100.310
 6489DC     SC142216  63.410  39.365 100.478
 6489DC     SC242217  63.304  39.550 100.448
 6489DC     SC342218  63.274  39.352 100.704
 6490DA     BB142219  63.815  39.377  99.941
 6490DA     BB242220  63.710  39.717 100.028
 6490DA     BB342221  63.837  39.797 100.180
 6490DA     SC142222  63.661  39.696 100.415
 6490DA     SC242223  63.513  39.793 100.590
 6490DA     SC342224  63.548  39.571 100.715
 6490DA     SC442225  63.697  39.552 100.478
 6491DG     BB142226  63.949  40.039  99.993
 6491DG     BB242227  63.778  40.251 100.231
 6491DG     BB342228  63.901  40.299 100.379
 6491DG     SC142229  63.826  40.058 100.552
 6491DG     SC242230  63.682  40.067 100.814
 6491DG     SC342231  63.782  39.795 100.758
 6491DG     SC442232  63.906  39.921 100.533
 6492DT     BB142233  63.980  40.520 100.436
 6492DT     BB242234  63.771  40.589 100.723
 6492DT     BB342235  63.885  40.583 100.896
 6492DT     SC142236  63.896  40.320 100.888
 6492DT     SC242237  63.779  40.240 101.050
 6492DT     SC342238  63.995  40.077 100.871
 6493DA     BB142239  63.682  40.950 100.898
 6493DA     BB242240  63.622  40.785 101.221
 6493DA     BB342241  63.797  40.795 101.343
 6493DA     SC142242  63.913  40.525 101.240
 6493DA     SC242243  63.952  40.295 101.329
 6493DA     SC342244  64.120  40.271 101.136
 6493DA     SC442245  64.014  40.530 101.115
 6494DA     BB142246  63.571  40.920 101.544
 6494DA     BB242247  63.644  40.636 101.764
 6494DA     BB342248  63.832  40.662 101.860
 6494DA     SC142249  63.994  40.516 101.638
 6494DA     SC242250  64.119  40.302 101.612
 6494DA     SC342251  64.234  40.418 101.413
 6494DA     SC442252  64.054  40.605 101.519
 6495DA     BB142253  63.634  40.606 102.115
 6495DA     BB242254  63.842  40.311 102.180
 6495DA     BB342255  64.032  40.370 102.258
 6495DA     SC142256  64.168  40.389 101.979
 6495DA     SC242257  64.341  40.265 101.849
 6495DA     SC342258  64.361  40.480 101.710
 6495DA     SC442259  64.167  40.532 101.905
 6496DG     BB142260  63.942  40.198 102.501
 6496DG     BB242261  64.222  39.993 102.399
 6496DG     BB342262  64.391  40.071 102.469
 6496DG     SC142263  64.440  40.247 102.223
 6496DG     SC242264  64.663  40.216 102.027
 6496DG     SC342265  64.514  40.467 101.979
 6496DG     SC442266  64.377  40.394 102.219
 6497DA     BB142267  64.457  39.757 102.601
 6497DA     BB242268  64.761  39.736 102.396
 6497DA     BB342269  64.915  39.856 102.480
 6497DA     SC142270  64.839  40.111 102.319
 6497DA     SC242271  64.934  40.248 102.134
 6497DA     SC342272  64.779  40.434 102.219
 6497DA     SC442273  64.737  40.215 102.388
 6498DT     BB142274  65.079  39.763 102.551
 6498DT     BB242275  65.294  39.851 102.275
 6498DT     BB342276  65.425  40.001 102.332
 6498DT     SC142277  65.235  40.181 102.322
 6498DT     SC242278  65.271  40.314 102.157
 6498DT     SC342279  65.064  40.366 102.401
 6499DG     BB142280  65.631  39.678 102.195
 6499DG     BB242281  65.718  39.981 102.017
 6499DG     BB342282  65.838  40.093 102.129
 6499DG     SC142283  65.609  40.246 102.263
 6499DG     SC242284  65.548  40.537 102.228
 6499DG     SC342285  65.383  40.419 102.443
 6499DG     SC442286  65.544  40.187 102.396
 6500DA     BB142287  65.990  40.078 101.825
 6500DA     BB242288  65.966  40.444 101.808
 6500DA     BB342289  66.096  40.533 101.952
 6500DA     SC142290  65.880  40.541 102.176
 6500DA     SC242291  65.746  40.714 102.297
 6500DA     SC342292  65.714  40.533 102.477
 6500DA     SC442293  65.873  40.416 102.277
 6501DA     BB142294  66.111  40.657 101.647
 6501DA     BB242295  66.025  40.973 101.812
 6501DA     BB342296  66.178  41.028 101.951
 6501DA     SC142297  66.046  40.881 102.191
 6501DA     SC242298  65.932  40.942 102.404
 6501DA     SC342299  65.988  40.702 102.479
 6501DA     SC442300  66.091  40.729 102.219
 6502DA     BB142301  66.085  41.276 101.752
 6502DA     BB242302  66.023  41.457 102.065
 6502DA     BB342303  66.204  41.480 102.175
 6502DA     SC142304  66.169  41.216 102.334
 6502DA     SC242305  66.121  41.147 102.569
 6502DA     SC342306  66.222  40.921 102.502
 6502DA     SC442307  66.237  41.083 102.274
 6503DG     BB142308  66.106  41.771 102.136
 6503DG     BB242309  66.107  41.767 102.497
 6503DG     BB342310  66.294  41.775 102.565
 6503DG     SC142311  66.332  41.471 102.569
 6503DG     SC242312  66.367  41.302 102.812
 6503DG     SC342313  66.415  41.144 102.566
 6503DG     SC442314  66.385  41.398 102.437
 6504DT     BB142315  66.374  41.948 102.685
 6504DT     BB242316  66.410  41.805 103.014
 6504DT     BB342317  66.609  41.761 103.051
 6504DT     SC142318  66.600  41.552 102.893
 6504DT     SC242319  66.615  41.373 103.012
 6504DT     SC342320  66.652  41.392 102.690
 6505DA     BB142321  66.522  42.008 103.383
 6505DA     BB242322  66.695  41.712 103.513
 6505DA     BB342323  66.905  41.726 103.475
 6505DA     SC142324  66.889  41.581 103.200
 6505DA     SC242325  66.960  41.363 103.103
 6505DA     SC342326  66.938  41.481 102.876
 6505DA     SC442327  66.871  41.673 103.069
 6506DT     BB142328  67.085  41.758 103.632
 6506DT     BB242329  67.206  41.419 103.620
 6506DT     BB342330  67.393  41.414 103.532
 6506DT     SC142331  67.290  41.451 103.293
 6506DT     SC242332  67.312  41.271 103.177
 6506DT     SC342333  67.236  41.564 103.061
 6507DA     BB142334  67.469  41.223 103.899
 6507DA     BB242335  67.600  41.004 103.635
 6507DA     BB342336  67.788  41.076 103.565
 6507DA     SC142337  67.664  41.253 103.341
 6507DA     SC242338  67.654  41.254 103.092
 6507DA     SC342339  67.597  41.503 103.116
 6507DA     SC442340  67.632  41.406 103.376
 6508DT     BB142341  67.964  40.965 103.597
 6508DT     BB242342  67.990  40.841 103.259
 6508DT     BB342343  68.147  40.933 103.162
 6508DT     SC142344  68.011  41.156 103.136
 6508DT     SC242345  67.962  41.186 102.929
 6508DT     SC342346  67.941  41.409 103.163
 6509DA     BB142347  68.168  40.518 103.120
 6509DA     BB242348  68.198  40.669 102.788
 6509DA     BB342349  68.389  40.764 102.766
 6509DA     SC142350  68.290  41.040 102.870
 6509DA     SC242351  68.248  41.268 102.777
 6509DA     SC342352  68.265  41.348 103.020
 6509DA     SC442353  68.305  41.070 103.027
 6510DA     BB142354  68.341  40.569 102.510
 6510DA     BB242355  68.377  40.873 102.308
 6510DA     BB342356  68.577  40.945 102.317
 6510DA     SC142357  68.526  41.128 102.563
 6510DA     SC242358  68.514  41.373 102.611
 6510DA     SC342359  68.555  41.306 102.856
 6510DA     SC442360  68.554  41.067 102.709
 6511DT     BB142361  68.639  40.935 102.155
 6511DT     BB242362  68.650  41.289 102.085
 6511DT     BB342363  68.839  41.364 102.128
 6511DT     SC142364  68.792  41.353 102.386
 6511DT     SC242365  68.776  41.553 102.464
 6511DT     SC342366  68.815  41.283 102.639
 6512DA     BB142367  68.735  41.488 101.740
 6512DA     BB242368  68.876  41.777 101.916
 6512DA     BB342369  69.087  41.753 101.941
 6512DA     SC142370  69.064  41.612 102.217
 6512DA     SC242371  69.115  41.663 102.455
 6512DA     SC342372  69.110  41.408 102.490
 6512DA     SC442373  69.057  41.451 102.218
 6513DG     BB142374  69.133  42.016 101.768
 6513DG     BB242375  69.289  42.143 102.069
 6513DG     BB342376  69.479  42.087 102.076
 6513DG     SC142377  69.422  41.825 102.225
 6513DG     SC242378  69.506  41.761 102.504
 6513DG     SC342379  69.393  41.522 102.370
 6513DG     SC442380  69.389  41.694 102.140
 6514DA     BB142381  69.618  42.416 102.113
 6514DA     BB242382  69.777  42.327 102.431
 6514DA     BB342383  69.963  42.228 102.396
 6514DA     SC142384  69.838  41.943 102.392
 6514DA     SC242385  69.839  41.739 102.535
 6514DA     SC342386  69.763  41.615 102.324
 6514DA     SC442387  69.792  41.884 102.250
 6515DT     BB142388  70.198  42.304 102.435
 6515DT     BB242389  70.261  42.096 102.723
 6515DT     BB342390  70.407  41.956 102.678
 6515DT     SC142391  70.239  41.814 102.535
 6515DT     SC242392  70.196  41.630 102.637
 6515DT     SC342393  70.128  41.696 102.327
 6516DC     BB142394  70.644  42.071 102.817
 6516DC     BB242395  70.623  41.740 102.957
 6516DC     BB342396  70.750  41.612 102.856
 6516DC     SC142397  70.589  41.602 102.649
 6516DC     SC242398  70.501  41.406 102.636
 6516DC     SC342399  70.499  41.631 102.403
 6517DT     BB142400  70.961  41.589 103.056
 6517DT     BB242401  70.862  41.247 103.002
 6517DT     BB342402  70.986  41.159 102.861
 6517DT     SC142403  70.870  41.289 102.665
 6517DT     SC242404  70.758  41.151 102.544
 6517DT     SC342405  70.837  41.454 102.463
 6518DC     BB142406  71.124  41.001 103.050
 6518DC     BB242407  70.990  40.761 102.816
 6518DC     BB342408  71.128  40.723 102.666
 6518DC     SC142409  71.079  40.954 102.552
 6518DC     SC242410  70.978  40.922 102.365
 6518DC     SC342411  71.117  41.199 102.461
 6519DC     BB142412  71.179  40.473 102.769
 6519DC     BB242413  71.073  40.410 102.430
 6519DC     BB342414  71.237  40.414 102.303
 6519DC     SC142415  71.251  40.676 102.316
 6519DC     SC242416  71.195  40.760 102.126
 6519DC     SC342417  71.345  40.917 102.367
 6520DT     BB142418  71.218  40.144 102.274
 6520DT     BB242419  71.196  40.271 101.937
 6520DT     BB342420  71.386  40.292 101.857
 6520DT     SC142421  71.433  40.506 102.002
 6520DT     SC242422  71.440  40.678 101.873
 6520DT     SC342423  71.543  40.665 102.180
 6521DC     BB142424  71.343  40.076 101.694
 6521DC     BB242425  71.432  40.341 101.466
 6521DC     BB342426  71.637  40.347 101.442
 6521DC     SC142427  71.671  40.454 101.679
 6521DC     SC242428  71.737  40.658 101.656
 6521DC     SC342429  71.748  40.484 101.929
 6522DC     BB142430  71.593  40.255 101.196
 6522DC     BB242431  71.779  40.561 101.149
 6522DC     BB342432  71.981  40.524 101.169
 6522DC     SC142433  71.961  40.504 101.430
 6522DC     SC242434  72.057  40.672 101.522
 6522DC     SC342435  71.966  40.399 101.672
 6523DA     BB142436  71.919  40.733 100.810
 6523DA     BB242437  72.196  40.895 100.988
 6523DA     BB342438  72.369  40.771 100.983
 6523DA     SC142439  72.302  40.622 101.247
 6523DA     SC242440  72.391  40.610 101.480
 6523DA     SC342441  72.265  40.386 101.494
 6523DA     SC442442  72.219  40.485 101.236
 6524DT     BB142443  72.528  40.837 100.880
 6524DT     BB242444  72.740  40.915 101.161
 6524DT     BB342445  72.883  40.768 101.184
 6524DT     SC142446  72.707  40.600 101.283
 6524DT     SC242447  72.748  40.570 101.492
 6524DT     SC342448  72.554  40.387 101.308
 6525DA     BB142449  73.107  41.124 101.167
 6525DA     BB242450  73.231  40.931 101.453
 6525DA     BB342451  73.351  40.767 101.385
 6525DA     SC142452  73.113  40.568 101.369
 6525DA     SC242453  73.034  40.365 101.491
 6525DA     SC342454  72.897  40.317 101.280
 6525DA     SC442455  73.036  40.555 101.229
 6526DC     BB142456  73.577  40.745 101.412
 6526DC     BB242457  73.565  40.490 101.667
 6526DC     BB342458  73.632  40.309 101.589
 6526DC     SC142459  73.408  40.275 101.456
 6526DC     SC242460  73.297  40.113 101.543
 6526DC     SC342461  73.242  40.247 101.253
 6527DT     BB142462  73.903  40.293 101.706
 6527DT     BB242463  73.750  39.985 101.813
 6527DT     BB342464  73.798  39.833 101.681
 6527DT     SC142465  73.631  39.926 101.501
 6527DT     SC242466  73.464  39.791 101.481
 6527DT     SC342467  73.541  40.029 101.275
 6528DA     BB142468  73.940  39.658 102.039
 6528DA     BB242469  73.718  39.412 101.882
 6528DA     BB342470  73.821  39.308 101.727
 6528DA     SC142471  73.737  39.507 101.504
 6528DA     SC242472  73.588  39.509 101.304
 6528DA     SC342473  73.729  39.709 101.226
 6528DA     SC442474  73.837  39.629 101.472
 6529DT     BB142475  73.873  39.086 101.733
 6529DT     BB242476  73.602  38.989 101.515
 6529DT     BB342477  73.677  38.920 101.335
 6529DT     SC142478  73.736  39.163 101.257
 6529DT     SC242479  73.605  39.220 101.096
 6529DT     SC342480  73.878  39.372 101.182
 6530DT     BB142481  73.595  38.677 101.411
 6530DT     BB242482  73.407  38.756 101.113
 6530DT     BB342483  73.515  38.702 100.945
 6530DT     SC142484  73.677  38.907 100.973
 6530DT     SC242485  73.641  39.048 100.814
 6530DT     SC342486  73.898  39.045 101.012
 6531DA     BB142487  73.106  38.605 100.972
 6531DA     BB242488  73.171  38.774 100.653
 6531DA     BB342489  73.294  38.651 100.528
 6531DA     SC142490  73.562  38.771 100.632
 6531DA     SC242491  73.745  38.917 100.546
 6531DA     SC342492  73.886  38.818 100.736
 6531DA     SC442493  73.633  38.697 100.756
 6532DG     BB142494  73.025  38.771 100.425
 6532DG     BB242495  73.257  38.925 100.195
 6532DG     BB342496  73.347  38.785 100.086
 6532DG     SC142497  73.579  38.746 100.283
 6532DG     SC242498  73.865  38.815 100.232
 6532DG     SC342499  73.836  38.664 100.485
 6532DG     SC442500  73.563  38.640 100.401
 6533DA     BB142501  73.248  39.049  99.879
 6533DA     BB242502  73.592  39.056  99.753
 6533DA     BB342503  73.641  38.871  99.661
 6533DA     SC142504  73.752  38.742  99.921
 6533DA     SC242505  73.973  38.672 100.013
 6533DA     SC342506  73.837  38.525 100.173
 6533DA     SC442507  73.650  38.657 100.011
 6534DT     BB142508  73.670  38.905  99.493
 6534DT     BB242509  74.024  38.838  99.485
 6534DT     BB342510  74.057  38.641  99.433
 6534DT     SC142511  73.984  38.557  99.671
 6534DT     SC242512  74.155  38.481  99.776
 6534DT     SC342513  73.846  38.434  99.859
 6535DT     BB142514  74.141  38.714  99.184
 6535DT     BB242515  74.408  38.504  99.306
 6535DT     BB342516  74.366  38.306  99.265
 6535DT     SC142517  74.187  38.296  99.456
 6535DT     SC242518  74.259  38.171  99.616
 6535DT     SC342519  73.954  38.271  99.577
 6536DA     BB142520  74.745  38.340  99.079
 6536DA     BB242521  74.753  38.032  99.279
 6536DA     BB342522  74.647  37.876  99.179
 6536DA     SC142523  74.374  37.943  99.314
 6536DA     SC242524  74.221  37.840  99.482
 6536DA     SC342525  74.041  37.991  99.381
 6536DA     SC442526  74.275  38.043  99.237
 6537DT     BB142527  74.731  37.674  99.075
 6537DT     BB242528  74.619  37.448  99.333
 6537DT     BB342529  74.470  37.325  99.259
 6537DT     SC142530  74.294  37.519  99.266
 6537DT     SC242531  74.149  37.479  99.419
 6537DT     SC342532  74.120  37.699  99.184
 6538DA     BB142533  74.745  37.039  99.400
 6538DA     BB242534  74.418  36.951  99.542
 6538DA     BB342535  74.299  36.851  99.396
 6538DA     SC142536  74.169  37.112  99.288
 6538DA     SC242537  73.945  37.222  99.290
 6538DA     SC342538  74.030  37.356  99.089
 6538DA     SC442539  74.240  37.185  99.163
 6539DC     BB142540  74.241  36.642  99.415
 6539DC     BB242541  73.901  36.709  99.516
 6539DC     BB342542  73.770  36.657  99.364
 6539DC     SC142543  73.836  36.868  99.223
 6539DC     SC242544  73.670  37.005  99.218
 6539DC     SC342545  73.931  37.015  99.026
 6540DA     BB142546  73.643  36.478  99.719
 6540DA     BB242547  73.357  36.653  99.572
 6540DA     BB342548  73.284  36.546  99.402
 6540DA     SC142549  73.466  36.697  99.199
 6540DA     SC242550  73.439  36.863  99.015
 6540DA     SC342551  73.668  36.781  98.935
 6540DA     SC442552  73.609  36.632  99.164
 6541DT     BB142553  73.113  36.487  99.431
 6541DT     BB242554  72.947  36.726  99.218
 6541DT     BB342555  72.902  36.638  99.036
 6541DT     SC142556  73.152  36.650  98.959
 6541DT     SC242557  73.171  36.795  98.801
 6541DT     SC342558  73.392  36.573  98.883
 6542DT     BB142559  72.659  36.664  99.128
 6542DT     BB242560  72.665  36.844  98.815
 6542DT     BB342561  72.646  36.712  98.657
 6542DT     SC142562  72.893  36.629  98.686
 6542DT     SC242563  73.011  36.697  98.519
 6542DT     SC342564  73.098  36.470  98.733
 6543DT     BB142565  72.411  36.825  98.632
 6543DT     BB242566  72.572  36.868  98.312
 6543DT     BB342567  72.553  36.695  98.200
 6543DT     SC142568  72.734  36.571  98.345
 6543DT     SC242569  72.911  36.541  98.227
 6543DT     SC342570  72.844  36.396  98.509
 6544DA     BB142571  72.440  37.029  97.972
 6544DA     BB242572  72.662  36.820  97.768
 6544DA     BB342573  72.563  36.639  97.713
 6544DA     SC142574  72.662  36.480  97.961
 6544DA     SC242575  72.820  36.294  98.010
 6544DA     SC342576  72.689  36.267  98.229
 6544DA     SC442577  72.567  36.479  98.091
 6545DA     BB142578  72.661  36.744  97.417
 6545DA     BB242579  72.843  36.427  97.386
 6545DA     BB342580  72.706  36.267  97.354
 6545DA     SC142581  72.672  36.203  97.657
 6545DA     SC242582  72.735  36.022  97.816
 6545DA     SC342583  72.549  36.116  97.965
 6545DA     SC442584  72.551  36.275  97.735
 6546DG     BB142585  72.858  36.222  97.084
 6546DG     BB242586  72.937  35.900  97.228
 6546DG     BB342587  72.784  35.775  97.202
 6546DG     SC142588  72.646  35.851  97.464
 6546DG     SC242589  72.609  35.673  97.701
 6546DG     SC342590  72.457  35.924  97.734
 6546DG     SC442591  72.542  35.973  97.465
 6547DA     BB142592  72.991  35.530  97.051
 6547DA     BB242593  72.900  35.284  97.308
 6547DA     BB342594  72.708  35.201  97.265
 6547DA     SC142595  72.553  35.413  97.431
 6547DA     SC242596  72.421  35.422  97.643
 6547DA     SC342597  72.320  35.638  97.547
 6547DA     SC442598  72.500  35.544  97.354
 6548DC     BB142599  72.662  34.984  97.198
 6548DC     BB242600  72.520  34.871  97.510
 6548DC     BB342601  72.316  34.841  97.488
 6548DC     SC142602  72.270  35.099  97.489
 6548DC     SC242603  72.168  35.153  97.671
 6548DC     SC342604  72.195  35.338  97.406
 6549DA     BB142605  72.420  34.453  97.624
 6549DA     BB242606  72.137  34.561  97.829
 6549DA     BB342607  71.954  34.535  97.723
 6549DA     SC142608  71.957  34.820  97.599
 6549DA     SC242609  71.829  35.033  97.621
 6549DA     SC342610  71.924  35.091  97.390
 6549DA     SC442611  72.025  34.837  97.454
 6550DA     BB142612  71.817  34.334  97.964
 6550DA     BB242613  71.564  34.593  98.022
 6550DA     BB342614  71.401  34.569  97.887
 6550DA     SC142615  71.523  34.755  97.669
 6550DA     SC242616  71.477  34.980  97.571
 6550DA     SC342617  71.619  34.900  97.373
 6550DA     SC442618  71.613  34.686  97.555
 6551DA     BB142619  71.185  34.547  98.144
 6551DA     BB242620  71.037  34.862  98.029
 6551DA     BB342621  70.891  34.825  97.878
 6551DA     SC142622  71.093  34.849  97.643
 6551DA     SC242623  71.141  35.006  97.455
 6551DA     SC342624  71.265  34.809  97.348
 6551DA     SC442625  71.164  34.713  97.592
 6552DA     BB142626  70.705  34.997  98.083
 6552DA     BB242627  70.687  35.251  97.820
 6552DA     BB342628  70.546  35.193  97.671
 6552DA     SC142629  70.755  35.045  97.495
 6552DA     SC242630  70.866  35.076  97.274
 6552DA     SC342631  70.916  34.825  97.287
 6552DA     SC442632  70.775  34.887  97.521
 6553DC     BB142633  70.400  35.312  97.662
 6553DC     BB242634  70.506  35.480  97.361
 6553DC     BB342635  70.397  35.411  97.199
 6553DC     SC142636  70.532  35.185  97.195
 6553DC     SC242637  70.657  35.180  97.020
 6553DC     SC342638  70.585  34.927  97.210
 6554DT     BB142639  70.305  35.653  97.212
 6554DT     BB242640  70.450  35.620  96.883
 6554DT     BB342641  70.318  35.521  96.757
 6554DT     SC142642  70.371  35.291  96.872
 6554DT     SC242643  70.480  35.166  96.734
 6554DT     SC342644  70.335  35.067  97.007
 6555DT     BB142645  70.315  35.758  96.652
 6555DT     BB242646  70.418  35.533  96.388
 6555DT     BB342647  70.253  35.434  96.312
 6555DT     SC142648  70.237  35.279  96.523
 6555DT     SC242649  70.291  35.078  96.468
 6555DT     SC342650  70.143  35.168  96.742
 6556DC     BB142651  70.298  35.583  96.100
 6556DC     BB242652  70.300  35.243  95.978
 6556DC     BB342653  70.105  35.178  95.948
 6556DC     SC142654  70.066  35.152  96.206
 6556DC     SC242655  70.050  34.943  96.255
 6556DC     SC342656  69.965  35.190  96.447
 6557DG     BB142657  70.305  35.139  95.594
 6557DG     BB242658  70.132  34.834  95.683
 6557DG     BB342659  69.938  34.852  95.646
 6557DG     SC142660  69.870  34.963  95.924
 6557DG     SC242661  69.706  34.826  96.132
 6557DG     SC342662  69.764  35.105  96.211
 6557DG     SC442663  69.878  35.121  95.948
 6558DT     BB142664  69.825  34.727  95.492
 6558DT     BB242665  69.634  34.505  95.702
 6558DT     BB342666  69.436  34.564  95.706
 6558DT     SC142667  69.491  34.766  95.864
 6558DT     SC242668  69.407  34.730  96.058
 6558DT     SC342669  69.518  35.015  95.949
 6559DA     BB142670  69.416  34.160  95.593
 6559DA     BB242671  69.174  34.209  95.865
 6559DA     BB342672  69.001  34.310  95.792
 6559DA     SC142673  69.111  34.595  95.854
 6559DA     SC242674  69.063  34.780  96.014
 6559DA     SC342675  69.188  34.929  95.846
 6559DA     SC442676  69.191  34.671  95.737
 6560DT     BB142677  68.807  34.216  95.780
 6560DT     BB242678  68.660  34.386  96.062
 6560DT     BB342679  68.521  34.525  95.996
 6560DT     SC142680  68.709  34.688  95.916
 6560DT     SC242681  68.712  34.862  96.043
 6560DT     SC342682  68.859  34.835  95.756
 6561DG     BB142683  68.308  34.273  96.238
 6561DG     BB242684  68.263  34.618  96.338
 6561DG     BB342685  68.129  34.706  96.221
 6561DG     SC142686  68.333  34.800  96.014
 6561DG     SC242687  68.407  35.084  95.956
 6561DG     SC342688  68.528  34.901  95.757
 6561DG     SC442689  68.371  34.703  95.892
 6562DT     BB142690  67.944  34.784  96.306
 6562DT     BB242691  68.009  35.138  96.304
 6562DT     BB342692  67.907  35.228  96.148
 6562DT     SC142693  68.076  35.132  95.972
 6562DT     SC242694  68.193  35.293  95.890
 6562DT     SC342695  68.171  34.994  95.768
 6563DT     BB142696  67.751  35.337  96.334
 6563DT     BB242697  67.889  35.616  96.151
 6563DT     BB342698  67.777  35.651  95.981
 6563DT     SC142699  67.879  35.442  95.860
 6563DT     SC242700  68.007  35.507  95.700
 6563DT     SC342701  67.894  35.206  95.743
 6564DG     BB142702  67.801  35.987  96.210
 6564DG     BB242703  67.898  36.050  95.867
 6564DG     BB342704  67.737  36.056  95.751
 6564DG     SC142705  67.740  35.757  95.689
 6564DG     SC242706  67.793  35.633  95.422
 6564DG     SC342707  67.701  35.430  95.616
 6564DG     SC442708  67.662  35.656  95.787
 6565DG     BB142709  67.843  36.353  95.669
 6565DG     BB242710  67.864  36.226  95.332
 6565DG     BB342711  67.683  36.223  95.249
 6565DG     SC142712  67.617  35.939  95.345
 6565DG     SC242713  67.580  35.700  95.170
 6565DG     SC342714  67.503  35.640  95.450
 6565DG     SC442715  67.549  35.920  95.488
 6566DA     BB142716  67.830  36.395  94.984
 6566DA     BB242717  67.724  36.130  94.754
 6566DA     BB342718  67.513  36.142  94.719
 6566DA     SC142719  67.439  35.951  94.953
 6566DA     SC242720  67.348  35.721  94.982
 6566DA     SC342721  67.286  35.796  95.219
 6566DA     SC442722  67.408  36.018  95.096
 6567DG     BB142723  67.576  36.191  94.412
 6567DG     BB242724  67.400  35.878  94.368
 6567DG     BB342725  67.204  35.911  94.362
 6567DG     SC142726  67.164  35.883  94.664
 6567DG     SC242727  67.012  35.665  94.801
 6567DG     SC342728  67.087  35.878  94.992
 6567DG     SC442729  67.179  36.012  94.756
 6568DC     BB142730  67.042  35.879  94.171
 6568DC     BB242731  66.871  35.580  94.278
 6568DC     BB342732  66.677  35.625  94.334
 6568DC     SC142733  66.760  35.734  94.559
 6568DC     SC242734  66.700  35.611  94.724
 6568DC     SC342735  66.805  35.917  94.744
 6569DA     BB142736  66.598  35.330  94.043
 6569DA     BB242737  66.412  35.235  94.344
 6569DA     BB342738  66.233  35.349  94.359
 6569DA     SC142739  66.364  35.576  94.527
 6569DA     SC242740  66.353  35.663  94.761
 6569DA     SC342741  66.452  35.879  94.663
 6569DA     SC442742  66.424  35.702  94.447
 6570DT     BB142743  66.016  35.269  94.341
 6570DT     BB242744  65.953  35.271  94.696
 6570DT     BB342745  65.810  35.413  94.741
 6570DT     SC142746  65.982  35.608  94.708
 6570DT     SC242747  66.026  35.698  94.898
 6570DT     SC342748  66.097  35.824  94.608
 6571DT     BB142749  65.623  35.219  94.794
 6571DT     BB242750  65.661  35.400  95.104
 6571DT     BB342751  65.528  35.559  95.109
 6571DT     SC142752  65.674  35.696  94.939
 6571DT     SC242753  65.764  35.863  95.040
 6571DT     SC342754  65.744  35.824  94.719
 6572DT     BB142755  65.418  35.415  95.298
 6572DT     BB242756  65.517  35.724  95.456
 6572DT     BB342757  65.375  35.870  95.420
 6572DT     SC142758  65.455  35.899  95.172
 6572DT     SC242759  65.550  36.090  95.149
 6572DT     SC342760  65.450  35.898  94.908
 6573DC     BB142761  65.346  35.836  95.676
 6573DC     BB242762  65.434  36.183  95.631
 6573DC     BB342763  65.268  36.291  95.571
 6573DC     SC142764  65.281  36.192  95.328
 6573DC     SC242765  65.340  36.347  95.191
 6573DC     SC342766  65.214  36.059  95.111
 6574DA     BB142767  65.488  36.468  95.884
 6574DA     BB242768  65.419  36.722  95.629
 6574DA     BB342769  65.210  36.766  95.623
 6574DA     SC142770  65.146  36.550  95.408
 6574DA     SC242771  65.077  36.543  95.169
 6574DA     SC342772  64.999  36.304  95.220
 6574DA     SC442773  65.102  36.404  95.460
 6575DA     BB142774  65.360  37.055  95.649
 6575DA     BB242775  65.191  37.141  95.335
 6575DA     BB342776  64.981  37.162  95.367
 6575DA     SC142777  64.918  36.864  95.305
 6575DA     SC242778  64.804  36.732  95.126
 6575DA     SC342779  64.786  36.547  95.303
 6575DA     SC442780  64.915  36.761  95.429
 6576DG     BB142781  65.053  37.441  95.257
 6576DG     BB242782  64.828  37.340  94.992
 6576DG     BB342783  64.640  37.358  95.052
 6576DG     SC142784  64.623  37.073  95.164
 6576DG     SC242785  64.454  36.852  95.056
 6576DG     SC342786  64.577  36.775  95.314
 6576DG     SC442787  64.667  37.047  95.316
 6577DG     BB142788  64.597  37.556  94.796
 6577DG     BB242789  64.353  37.316  94.681
 6577DG     BB342790  64.180  37.343  94.776
 6577DG     SC142791  64.249  37.152  95.006
 6577DG     SC242792  64.115  36.892  95.063
 6577DG     SC342793  64.299  36.966  95.282
 6577DG     SC442794  64.326  37.209  95.134
 6578DG     BB142795  64.042  37.384  94.482
 6578DG     BB242796  63.839  37.096  94.564
 6578DG     BB342797  63.688  37.150  94.681
 6578DG     SC142798  63.842  37.106  94.942
 6578DG     SC242799  63.783  36.897  95.147
 6578DG     SC342800  63.987  37.088  95.246
 6578DG     SC442801  63.928  37.226  95.002
 6579DG     BB142802  63.482  37.029  94.455
 6579DG     BB242803  63.368  36.802  94.713
 6579DG     BB342804  63.237  36.893  94.830
 6579DG     SC142805  63.447  36.998  95.026
 6579DG     SC242806  63.479  36.914  95.311
 6579DG     SC342807  63.653  37.146  95.249
 6579DG     SC442808  63.516  37.140  94.997
 6580DC     BB142809  63.025  36.826  94.846
 6580DC     BB242810  63.016  36.675  95.173
 6580DC     BB342811  62.924  36.803  95.308
 6580DC     SC142812  63.136  36.958  95.316
 6580DC     SC242813  63.229  36.941  95.509
 6580DC     SC342814  63.289  37.171  95.289
 6581DG     BB142815  62.683  36.472  95.325
 6581DG     BB242816  62.779  36.576  95.658
 6581DG     BB342817  62.664  36.728  95.717
 6581DG     SC142818  62.849  36.944  95.603
 6581DG     SC242819  63.005  37.143  95.763
 6581DG     SC342820  63.017  37.206  95.474
 6581DG     SC442821  62.828  36.992  95.452
 6582DC     BB142822  62.504  36.730  95.900
 6582DC     BB242823  62.684  36.925  96.144
 6582DC     BB342824  62.599  37.114  96.161
 6582DC     SC142825  62.703  37.189  95.932
 6582DC     SC242826  62.856  37.336  95.968
 6582DC     SC342827  62.720  37.271  95.682
 6583DG     BB142828  62.546  36.976  96.546
 6583DG     BB242829  62.715  37.297  96.547
 6583DG     BB342830  62.581  37.443  96.533
 6583DG     SC142831  62.585  37.450  96.227
 6583DG     SC242832  62.687  37.674  96.058
 6583DG     SC342833  62.550  37.472  95.892
 6583DG     SC442834  62.485  37.355  96.146
 6584DA     BB142835  62.707  37.598  96.821
 6584DA     BB242836  62.803  37.892  96.624
 6584DA     BB342837  62.635  38.019  96.593
 6584DA     SC142838  62.550  37.883  96.327
 6584DA     SC242839  62.545  37.939  96.084
 6584DA     SC342840  62.373  37.750  96.064
 6584DA     SC442841  62.443  37.763  96.335
 6585DT     BB142842  62.632  38.208  96.678
 6585DT     BB242843  62.708  38.385  96.373
 6585DT     BB342844  62.539  38.484  96.305
 6585DT     SC142845  62.431  38.260  96.222
 6585DT     SC242846  62.427  38.259  96.007
 6585DT     SC342847  62.262  38.058  96.202
 6586DG     BB142848  62.852  38.739  96.355
 6586DG     BB242849  62.716  38.753  96.020
 6586DG     BB342850  62.545  38.854  96.020
 6586DG     SC142851  62.371  38.608  96.072
 6586DG     SC242852  62.174  38.489  95.882
 6586DG     SC342853  62.152  38.363  96.149
 6586DG     SC442854  62.342  38.564  96.223
 6587DT     BB142855  62.561  39.003  95.901
 6587DT     BB242856  62.360  38.898  95.620
 6587DT     BB342857  62.168  38.972  95.640
 6587DT     SC142858  62.110  38.796  95.827
 6587DT     SC242859  61.969  38.654  95.750
 6587DT     SC342860  62.045  38.697  96.062
 6588DT     BB142861  62.258  39.096  95.435
 6588DT     BB242862  61.962  38.922  95.325
 6588DT     BB342863  61.793  39.021  95.392
 6588DT     SC142864  61.829  38.933  95.636
 6588DT     SC242865  61.675  38.791  95.685
 6588DT     SC342866  61.874  38.935  95.896
 6589DT     BB142867  61.778  39.056  95.138
 6589DT     BB242868  61.467  38.902  95.235
 6589DT     BB342869  61.344  39.042  95.326
 6589DT     SC142870  61.488  39.035  95.546
 6589DT     SC242871  61.374  38.942  95.703
 6589DT     SC342872  61.646  39.115  95.742
 6590DC     BB142873  61.201  39.021  95.107
 6590DC     BB242874  60.969  38.960  95.376
 6590DC     BB342875  60.907  39.139  95.459
 6590DC     SC142876  61.137  39.171  95.581
 6590DC     SC242877  61.109  39.149  95.793
 6590DC     SC342878  61.370  39.275  95.649
 6591DT     BB142879  60.659  39.122  95.342
 6591DT     BB242880  60.585  39.176  95.691
 6591DT     BB342881  60.581  39.379  95.732
 6591DT     SC142882  60.843  39.395  95.720
 6591DT     SC242883  60.921  39.431  95.917
 6591DT     SC342884  61.084  39.464  95.639
 6592DA     BB142885  60.201  39.262  95.873
 6592DA     BB242886  60.354  39.469  96.134
 6592DA     BB342887  60.346  39.675  96.080
 6592DA     SC142888  60.622  39.672  95.937
 6592DA     SC242889  60.851  39.766  95.974
 6592DA     SC342890  60.885  39.728  95.723
 6592DA     SC442891  60.624  39.642  95.779
 6593DC     BB142892  60.221  39.836  96.180
 6593DC     BB242893  60.494  39.997  96.353
 6593DC     BB342894  60.532  40.182  96.268
 6593DC     SC142895  60.647  40.071  96.059
 6593DC     SC242896  60.858  40.112  96.064
 6593DC     SC342897  60.692  40.001  95.809
 6594DA     BB142898  60.477  40.271  96.676
 6594DA     BB242899  60.792  40.427  96.570
 6594DA     BB342900  60.753  40.602  96.455
 6594DA     SC142901  60.750  40.452  96.182
 6594DA     SC242902  60.892  40.438  95.978
 6594DA     SC342903  60.682  40.346  95.863
 6594DA     SC442904  60.608  40.398  96.128
 6595DC     BB142905  60.804  40.795  96.525
 6595DC     BB242906  61.093  40.839  96.313
 6595DC     BB342907  61.051  40.976  96.164
 6595DC     SC142908  60.904  40.802  96.034
 6595DC     SC242909  61.004  40.746  95.852
 6595DC     SC342910  60.693  40.689  95.923
 6596DA     BB142911  61.406  41.099  96.352
 6596DA     BB242912  61.464  41.093  95.990
 6596DA     BB342913  61.365  41.256  95.895
 6596DA     SC142914  61.102  41.098  95.844
 6596DA     SC242915  60.978  41.004  95.649
 6596DA     SC342916  60.774  41.004  95.804
 6596DA     SC442917  60.987  41.106  95.955
 6597DC     BB142918  61.477  41.399  95.808
 6597DC     BB242919  61.416  41.296  95.468
 6597DC     BB342920  61.282  41.426  95.378
 6597DC     SC142921  61.081  41.324  95.511
 6597DC     SC242922  60.953  41.216  95.376
 6597DC     SC342923  60.877  41.306  95.678
 6598DA     BB142924  61.617  41.396  95.126
 6598DA     BB242925  61.317  41.337  94.924
 6598DA     BB342926  61.212  41.520  94.892
 6598DA     SC142927  61.033  41.490  95.144
 6598DA     SC242928  60.793  41.446  95.197
 6598DA     SC342929  60.845  41.548  95.426
 6598DA     SC442930  61.085  41.557  95.281
 6599DT     BB142931  61.203  41.584  94.706
 6599DT     BB242932  60.859  41.490  94.650
 6599DT     BB342933  60.738  41.657  94.657
 6599DT     SC142934  60.757  41.669  94.919
 6599DT     SC242935  60.567  41.619  95.007
 6599DT     SC342936  60.816  41.760  95.159
 6600DT     BB142937  60.707  41.625  94.396
 6600DT     BB242938  60.375  41.600  94.536
 6600DT     BB342939  60.296  41.790  94.562
 6600DT     SC142940  60.448  41.834  94.770
 6600DT     SC242941  60.327  41.839  94.948
 6600DT     SC342942  60.633  41.943  94.924
 6601DA     BB142943  60.040  41.516  94.372
 6601DA     BB242944  59.861  41.675  94.649
 6601DA     BB342945  59.825  41.881  94.606
 6601DA     SC142946  60.089  41.980  94.736
 6601DA     SC242947  60.159  42.109  94.938
 6601DA     SC342948  60.379  42.148  94.812
 6601DA     SC442949  60.218  41.994  94.641
 6602DT     BB142950  59.655  41.892  94.603
 6602DT     BB242951  59.616  42.069  94.915
 6602DT     BB342952  59.609  42.273  94.880
 6602DT     SC142953  59.868  42.282  94.835
 6602DT     SC242954  59.965  42.387  94.996
 6602DT     SC342955  60.097  42.316  94.708
 6603DT     BB142956  59.363  42.237  94.955
 6603DT     BB242957  59.496  42.489  95.177
 6603DT     BB342958  59.494  42.673  95.084
 6603DT     SC142959  59.699  42.608  94.934
 6603DT     SC242960  59.871  42.722  94.994
 6603DT     SC342961  59.842  42.554  94.719
 6604DC     BB142962  59.300  42.733  95.254
 6604DC     BB242963  59.548  42.991  95.301
 6604DC     BB342964  59.525  43.138  95.157
 6604DC     SC142965  59.629  42.985  94.972
 6604DC     SC242966  59.822  43.062  94.915
 6604DC     SC342967  59.651  42.840  94.752
 6605DC     BB142968  59.420  43.312  95.342
 6605DC     BB242969  59.694  43.495  95.195
 6605DC     BB342970  59.629  43.596  95.027
 6605DC     SC142971  59.621  43.375  94.887
 6605DC     SC242972  59.777  43.378  94.739
 6605DC     SC342973  59.525  43.174  94.745
 6606DA     BB142974  59.810  43.895  95.260
 6606DA     BB242975  59.941  43.929  94.920
 6606DA     BB342976  59.795  44.019  94.793
 6606DA     SC142977  59.670  43.748  94.704
 6606DA     SC242978  59.658  43.609  94.498
 6606DA     SC342979  59.455  43.498  94.609
 6606DA     SC442980  59.545  43.693  94.790
 6607DT     BB142981  59.820  44.215  94.709
 6607DT     BB242982  59.892  44.109  94.372
 6607DT     BB342983  59.732  44.152  94.249
 6607DT     SC142984  59.592  43.954  94.348
 6607DT     SC242985  59.570  43.800  94.199
 6607DT     SC342986  59.399  43.824  94.473
 6608DA     BB142987  60.067  44.321  94.063
 6608DA     BB242988  59.887  44.126  93.810
 6608DA     BB342989  59.710  44.229  93.748
 6608DA     SC142990  59.528  44.097  93.962
 6608DA     SC242991  59.341  43.932  93.969
 6608DA     SC342992  59.287  44.034  94.199
 6608DA     SC442993  59.510  44.174  94.102
 6609DT     BB142994  59.703  44.294  93.558
 6609DT     BB242995  59.468  44.049  93.436
 6609DT     BB342996  59.281  44.135  93.413
 6609DT     SC142997  59.240  44.137  93.672
 6609DT     SC242998  59.087  43.994  93.721
 6609DT     SC342999  59.199  44.227  93.916
 6610DT     BB143000  59.314  44.123  93.145
 6610DT     BB243001  59.005  43.946  93.206
 6610DT     BB343002  58.847  44.079  93.210
 6610DT     SC143003  58.917  44.166  93.448
 6610DT     SC243004  58.771  44.102  93.593
 6610DT     SC343005  58.998  44.329  93.639
 6611DT     BB143006  58.758  43.992  92.966
 6611DT     BB243007  58.472  43.953  93.182
 6611DT     BB343008  58.363  44.129  93.187
 6611DT     SC143009  58.541  44.245  93.340
 6611DT     SC243010  58.458  44.275  93.536
 6611DT     SC343011  58.727  44.415  93.421
 6612DA     BB143012  58.086  43.829  93.089
 6612DA     BB243013  57.940  44.031  93.358
 6612DA     BB343014  57.875  44.220  93.282
 6612DA     SC143015  58.146  44.362  93.338
 6612DA     SC243016  58.234  44.536  93.494
 6612DA     SC343017  58.425  44.563  93.323
 6612DA     SC443018  58.255  44.365  93.220
 6613DA     BB143019  57.585  44.136  93.415
 6613DA     BB243020  57.616  44.433  93.629
 6613DA     BB343021  57.568  44.609  93.518
 6613DA     SC143022  57.861  44.660  93.426
 6613DA     SC243023  58.042  44.825  93.470
 6613DA     SC343024  58.142  44.745  93.248
 6613DA     SC443025  57.906  44.598  93.285
 6614DA     BB143026  57.359  44.655  93.768
 6614DA     BB243027  57.540  44.965  93.840
 6614DA     BB343028  57.487  45.116  93.700
 6614DA     SC143029  57.714  45.045  93.499
 6614DA     SC243030  57.927  45.146  93.417
 6614DA     SC343031  57.901  44.988  93.217
 6614DA     SC443032  57.679  44.940  93.382
 6615DT     BB143033  57.389  45.274  93.769
 6615DT     BB243034  57.662  45.509  93.750
 6615DT     BB343035  57.636  45.634  93.587
 6615DT     SC143036  57.706  45.444  93.420
 6615DT     SC243037  57.897  45.491  93.334
 6615DT     SC343038  57.691  45.265  93.226
 6616DT     BB143039  57.575  45.839  93.754
 6616DT     BB243040  57.850  45.964  93.556
 6616DT     BB343041  57.778  46.047  93.381
 6616DT     SC143042  57.731  45.810  93.278
 6616DT     SC243043  57.870  45.773  93.118
 6616DT     SC343044  57.600  45.604  93.179
 6617DT     BB143045  57.829  46.301  93.470
 6617DT     BB243046  58.006  46.282  93.156
 6617DT     BB343047  57.880  46.334  93.001
 6617DT     SC143048  57.754  46.104  93.015
 6617DT     SC243049  57.800  45.987  92.841
 6617DT     SC343050  57.560  45.929  93.051
 6618DG     BB143051  58.173  46.621  92.964
 6618DG     BB243052  58.115  46.458  92.646
 6618DG     BB343053  57.957  46.538  92.557
 6618DG     SC143054  57.756  46.346  92.684
 6618DG     SC243055  57.595  46.139  92.540
 6618DG     SC343056  57.506  46.165  92.821
 6618DG     SC443057  57.691  46.383  92.826
 6619DT     BB143058  57.934  46.680  92.336
 6619DT     BB243059  57.795  46.430  92.117
 6619DT     BB343060  57.599  46.478  92.069
 6619DT     SC143061  57.515  46.406  92.307
 6619DT     SC243062  57.397  46.227  92.290
 6619DT     SC343063  57.410  46.422  92.549
 6620DC     BB143064  57.626  46.581  91.790
 6620DC     BB243065  57.389  46.311  91.758
 6620DC     BB343066  57.196  46.386  91.763
 6620DC     SC143067  57.210  46.425  92.022
 6620DC     SC243068  57.080  46.286  92.122
 6620DC     SC343069  57.214  46.551  92.254
 6621DT     BB143070  57.131  46.358  91.481
 6621DT     BB243071  56.885  46.155  91.650
 6621DT     BB343072  56.712  46.265  91.681
 6621DT     SC143073  56.825  46.401  91.876
 6621DT     SC243074  56.735  46.345  92.063
 6621DT     SC343075  56.922  46.604  92.012
 6622DG     BB143076  56.621  45.932  91.468
 6622DG     BB243077  56.431  45.951  91.775
 6622DG     BB343078  56.279  46.078  91.753
 6622DG     SC143079  56.438  46.322  91.845
 6622DG     SC243080  56.390  46.478  92.095
 6622DG     SC343081  56.588  46.615  91.922
 6622DG     SC443082  56.521  46.407  91.737
 6623DC     BB143083  56.105  45.988  91.784
 6623DC     BB243084  56.017  46.114  92.111
 6623DC     BB343085  55.885  46.272  92.093
 6623DC     SC143086  56.076  46.433  92.014
 6623DC     SC243087  56.114  46.579  92.167
 6623DC     SC343088  56.216  46.595  91.860
 6624DT     BB143089  55.731  46.094  92.202
 6624DT     BB243090  55.728  46.377  92.426
 6624DT     BB343091  55.600  46.522  92.354
 6624DT     SC143092  55.770  46.592  92.168
 6624DT     SC243093  55.849  46.788  92.212
 6624DT     SC343094  55.873  46.633  91.928
 6625DT     BB143095  55.461  46.450  92.564
 6625DT     BB243096  55.512  46.806  92.600
 6625DT     BB343097  55.376  46.909  92.484
 6625DT     SC143098  55.507  46.850  92.264
 6625DT     SC243099  55.599  47.028  92.185
 6625DT     SC343100  55.561  46.747  92.027
 6626DT     BB143101  55.258  46.979  92.712
 6626DT     BB243102  55.328  47.291  92.545
 6626DT     BB343103  55.177  47.334  92.409
 6626DT     SC143104  55.266  47.153  92.242
 6626DT     SC243105  55.349  47.250  92.068
 6626DT     SC343106  55.274  46.935  92.092
 6627DA     BB143107  55.216  47.677  92.648
 6627DA     BB243108  55.206  47.786  92.299
 6627DA     BB343109  55.008  47.770  92.221
 6627DA     SC143110  55.047  47.479  92.116
 6627DA     SC243111  55.064  47.363  91.897
 6627DA     SC343112  55.003  47.151  92.027
 6627DA     SC443113  55.006  47.359  92.215
 6628DC     BB143114  54.893  47.941  92.169
 6628DC     BB243115  54.916  47.904  91.811
 6628DC     BB343116  54.734  47.841  91.735
 6628DC     SC143117  54.772  47.597  91.826
 6628DC     SC243118  54.804  47.464  91.660
 6628DC     SC343119  54.737  47.376  91.965
 6629DA     BB143120  54.828  48.182  91.511
 6629DA     BB243121  54.734  47.919  91.274
 6629DA     BB343122  54.523  47.892  91.274
 6629DA     SC143123  54.526  47.674  91.496
 6629DA     SC243124  54.485  47.429  91.515
 6629DA     SC343125  54.452  47.474  91.765
 6629DA     SC443126  54.508  47.722  91.648
 6630DT     BB143127  54.410  47.940  91.105
 6630DT     BB243128  54.346  47.602  90.997
 6630DT     BB343129  54.149  47.552  91.035
 6630DT     SC143130  54.196  47.527  91.292
 6630DT     SC243131  54.182  47.320  91.347
 6630DT     SC343132  54.184  47.571  91.551
 6631DT     BB143133  54.088  47.564  90.767
 6631DT     BB243134  53.990  47.231  90.865
 6631DT     BB343135  53.795  47.232  90.933
 6631DT     SC143136  53.866  47.345  91.159
 6631DT     SC243137  53.843  47.203  91.320
 6631DT     SC343138  53.884  47.523  91.353
 6632DA     BB143139  53.833  46.930  90.644
 6632DA     BB243140  53.665  46.787  90.937
 6632DA     BB343141  53.466  46.861  90.952
 6632DA     SC143142  53.544  47.104  91.130
 6632DA     SC243143  53.511  47.178  91.366
 6632DA     SC343144  53.564  47.413  91.279
 6632DA     SC443145  53.577  47.243  91.056
 6633DT     BB143146  53.320  46.731  90.927
 6633DT     BB243147  53.219  46.711  91.273
 6633DT     BB343148  53.045  46.819  91.302
 6633DT     SC143149  53.175  47.047  91.288
 6633DT     SC243150  53.178  47.139  91.483
 6633DT     SC343151  53.253  47.284  91.202
 6634DT     BB143152  52.909  46.588  91.330
 6634DT     BB243153  52.843  46.770  91.635
 6634DT     BB343154  52.683  46.897  91.607
 6634DT     SC143155  52.829  47.064  91.466
 6634DT     SC243156  52.859  47.245  91.578
 6634DT     SC343157  52.915  47.205  91.261
 6635DA     BB143158  52.607  46.671  91.952
 6635DA     BB243159  52.546  47.023  92.033
 6635DA     BB343160  52.366  47.091  91.940
 6635DA     SC143161  52.506  47.187  91.680
 6635DA     SC243162  52.559  47.403  91.568
 6635DA     SC343163  52.585  47.263  91.355
 6635DA     SC443164  52.516  47.082  91.558
 6636DA     BB143165  52.296  47.179  92.250
 6636DA     BB243166  52.274  47.523  92.127
 6636DA     BB343167  52.092  47.552  92.019
 6636DA     SC143168  52.214  47.474  91.744
 6636DA     SC243169  52.273  47.588  91.530
 6636DA     SC343170  52.266  47.353  91.427
 6636DA     SC443171  52.203  47.321  91.698
 6637DT     BB143172  51.948  47.677  92.095
 6637DT     BB243173  51.999  47.948  91.862
 6637DT     BB343174  51.845  47.953  91.724
 6637DT     SC143175  51.942  47.744  91.598
 6637DT     SC243176  52.017  47.805  91.406
 6637DT     SC343177  51.960  47.500  91.499
 6638DT     BB143178  51.734  48.177  91.838
 6638DT     BB243179  51.790  48.271  91.494
 6638DT     BB343180  51.625  48.219  91.380
 6638DT     SC143181  51.691  47.965  91.386
 6638DT     SC243182  51.755  47.903  91.190
 6638DT     SC343183  51.678  47.706  91.436
 6639DT     BB143184  51.545  48.481  91.354
 6639DT     BB243185  51.582  48.366  91.014
 6639DT     BB343186  51.404  48.281  90.949
 6639DT     SC143187  51.446  48.065  91.092
 6639DT     SC243188  51.488  47.900  90.961
 6639DT     SC343189  51.412  47.879  91.276
 6640DT     BB143190  51.347  48.496  90.785
 6640DT     BB243191  51.349  48.211  90.563
 6640DT     BB343192  51.160  48.127  90.555
 6640DT     SC143193  51.190  48.020  90.793
 6640DT     SC243194  51.206  47.806  90.774
 6640DT     SC343195  51.150  47.969  91.048
 6641DA     BB143196  51.275  48.197  90.158
 6641DA     BB243197  51.159  47.849  90.181
 6641DA     BB343198  50.946  47.843  90.196
 6641DA     SC143199  50.944  47.852  90.507
 6641DA     SC243200  50.889  47.699  90.696
 6641DA     SC343201  50.865  47.912  90.836
 6641DA     SC443202  50.932  47.997  90.577
 6642DT     BB143203  50.844  47.760  90.044
 6642DT     BB243204  50.762  47.452  90.212
 6642DT     BB343205  50.563  47.453  90.269
 6642DT     SC143206  50.611  47.620  90.465
 6642DT     SC243207  50.588  47.518  90.653
 6642DT     SC343208  50.605  47.839  90.612
 6643DA     BB143209  50.631  47.098  90.057
 6643DA     BB243210  50.461  47.011  90.370
 6643DA     BB343211  50.255  47.068  90.361
 6643DA     SC143212  50.302  47.352  90.479
 6643DA     SC243213  50.251  47.475  90.690
 6643DA     SC343214  50.289  47.687  90.551
 6643DA     SC443215  50.328  47.472  90.375
 6644DC     BB143216  50.116  46.921  90.363
 6644DC     BB243217  50.008  46.973  90.703
 6644DC     BB343218  49.823  47.066  90.705
 6644DC     SC143219  49.930  47.296  90.639
 6644DC     SC243220  49.918  47.431  90.806
 6644DC     SC343221  49.986  47.513  90.499
 6645DG     BB143222  49.791  46.716  90.910
 6645DG     BB243223  49.677  46.997  91.107
 6645DG     BB343224  49.495  47.051  91.049
 6645DG     SC143225  49.595  47.249  90.838
 6645DG     SC243226  49.561  47.546  90.846
 6645DG     SC343227  49.669  47.459  90.584
 6645DG     SC443228  49.624  47.196  90.689
 6646DT     BB143229  49.345  47.040  91.192
 6646DT     BB243230  49.296  47.388  91.273
 6646DT     BB343231  49.128  47.460  91.176
 6646DT     SC143232  49.255  47.467  90.946
 6646DT     SC243233  49.286  47.672  90.888
 6646DT     SC343234  49.319  47.413  90.696
 6647DG     BB143235  49.114  47.520  91.577
 6647DG     BB243236  49.056  47.825  91.392
 6647DG     BB343237  48.874  47.823  91.312
 6647DG     SC143238  48.963  47.689  91.051
 6647DG     SC243239  48.961  47.815  90.781
 6647DG     SC343240  49.021  47.526  90.762
 6647DG     SC443241  48.966  47.530  91.043
 6648DT     BB143242  48.774  47.973  91.377
 6648DT     BB243243  48.751  48.187  91.087
 6648DT     BB343244  48.575  48.148  90.984
 6648DT     SC143245  48.671  47.923  90.889
 6648DT     SC243246  48.704  47.943  90.677
 6648DT     SC343247  48.699  47.665  90.843
 6649DC     BB143248  48.522  48.386  91.072
 6649DC     BB243249  48.475  48.402  90.715
 6649DC     BB343250  48.293  48.319  90.663
 6649DC     SC143251  48.384  48.076  90.703
 6649DC     SC243252  48.400  47.974  90.514
 6649DC     SC343253  48.411  47.835  90.806
 6650DT     BB143254  48.217  48.566  90.611
 6650DT     BB243255  48.139  48.382  90.311
 6650DT     BB343256  47.958  48.283  90.333
 6650DT     SC143257  48.067  48.103  90.490
 6650DT     SC243258  48.073  47.914  90.388
 6650DT     SC343259  48.117  47.960  90.706
 6651DA     BB143260  47.887  48.501  89.977
 6651DA     BB243261  47.762  48.161  89.920
 6651DA     BB343262  47.576  48.132  90.021
 6651DA     SC143263  47.708  48.026  90.282
 6651DA     SC243264  47.726  47.810  90.406
 6651DA     SC343265  47.784  47.955  90.609
 6651DA     SC443266  47.741  48.133  90.398
 6652DC     BB143267  47.345  48.109  89.936
 6652DC     BB243268  47.310  47.756  90.002
 6652DC     BB343269  47.170  47.726  90.152
 6652DC     SC143270  47.338  47.808  90.336
 6652DC     SC243271  47.396  47.641  90.459
 6652DC     SC343272  47.443  47.954  90.529
 6653DG     BB143273  46.955  47.525  89.856
 6653DG     BB243274  46.993  47.313  90.147
 6653DG     BB343275  46.847  47.349  90.276
 6653DG     SC143276  46.999  47.569  90.426
 6653DG     SC243277  47.097  47.554  90.707
 6653DG     SC343278  47.129  47.827  90.599
 6653DG     SC443279  46.987  47.720  90.374
 6654DT     BB143280  46.659  47.195  90.357
 6654DT     BB243281  46.796  47.104  90.679
 6654DT     BB343282  46.681  47.186  90.830
 6654DT     SC143283  46.778  47.426  90.786
 6654DT     SC243284  46.903  47.483  90.951
 6654DT     SC343285  46.788  47.681  90.722
 6655DG     BB143286  46.688  46.783  90.884
 6655DG     BB243287  46.804  46.959  91.178
 6655DG     BB343288  46.649  47.028  91.281
 6655DG     SC143289  46.638  47.296  91.134
 6655DG     SC243290  46.697  47.564  91.253
 6655DG     SC343291  46.585  47.592  90.980
 6655DG     SC443292  46.551  47.308  91.000
 6656DT     BB143293  46.646  46.956  91.466
 6656DT     BB243294  46.754  47.241  91.659
 6656DT     BB343295  46.590  47.340  91.738
 6656DT     SC143296  46.530  47.442  91.504
 6656DT     SC243297  46.567  47.654  91.507
 6656DT     SC343298  46.395  47.494  91.283
 6657DT     BB143299  46.706  47.247  91.947
 6657DT     BB243300  46.688  47.604  91.993
 6657DT     BB343301  46.496  47.659  92.047
 6657DT     SC143302  46.409  47.623  91.801
 6657DT     SC243303  46.361  47.814  91.714
 6657DT     SC343304  46.274  47.525  91.598
 6658DA     BB143305  46.789  47.834  92.294
 6658DA     BB243306  46.545  48.091  92.200
 6658DA     BB343307  46.356  48.051  92.291
 6658DA     SC143308  46.251  47.881  92.052
 6658DA     SC243309  46.079  47.901  91.873
 6658DA     SC343310  46.096  47.646  91.856
 6658DA     SC443311  46.275  47.722  92.058
 6659DT     BB143312  46.295  48.177  92.426
 6659DT     BB243313  46.024  48.327  92.240
 6659DT     BB343314  45.844  48.245  92.301
 6659DT     SC143315  45.892  48.022  92.172
 6659DT     SC243316  45.758  48.006  92.004
 6659DT     SC343317  45.938  47.766  92.127
 6660DT     BB143318  45.753  48.466  92.460
 6660DT     BB243319  45.475  48.406  92.239
 6660DT     BB343320  45.342  48.273  92.326
 6660DT     SC143321  45.503  48.071  92.280
 6660DT     SC243322  45.416  47.944  92.129
 6660DT     SC343323  45.664  47.866  92.324
 6661DA     BB143324  45.053  48.586  92.281
 6661DA     BB243325  44.896  48.283  92.147
 6661DA     BB343326  44.815  48.165  92.305
 6661DA     SC143327  45.074  47.998  92.346
 6661DA     SC243328  45.150  47.763  92.308
 6661DA     SC343329  45.334  47.818  92.478
 6661DA     SC443330  45.180  48.050  92.455
 6662DA     BB143331  44.487  48.161  92.189
 6662DA     BB243332  44.519  47.799  92.138
 6662DA     BB343333  44.465  47.694  92.316
 6662DA     SC143334  44.754  47.691  92.430
 6662DA     SC243335  44.934  47.523  92.473
 6662DA     SC343336  45.030  47.697  92.636
 6662DA     SC443337  44.797  47.811  92.528
 6663DA     BB143338  44.228  47.518  92.152
 6663DA     BB243339  44.427  47.216  92.214
 6663DA     BB343340  44.380  47.134  92.405
 6663DA     SC143341  44.600  47.295  92.556
 6663DA     SC243342  44.817  47.249  92.670
 6663DA     SC343343  44.779  47.475  92.787
 6663DA     SC443344  44.558  47.437  92.619
 6664DA     BB143345  44.316  46.857  92.240
 6664DA     BB243346  44.599  46.705  92.417
 6664DA     BB343347  44.539  46.642  92.612
 6664DA     SC143348  44.613  46.911  92.749
 6664DA     SC243349  44.785  46.996  92.909
 6664DA     SC343350  44.621  47.189  92.951
 6664DA     SC443351  44.497  47.022  92.762
 6665DA     BB143352  44.667  46.368  92.494
 6665DA     BB243353  44.918  46.397  92.759
 6665DA     BB343354  44.836  46.338  92.947
 6665DA     SC143355  44.740  46.624  93.023
 6665DA     SC243356  44.800  46.801  93.188
 6665DA     SC343357  44.565  46.894  93.144
 6665DA     SC443358  44.590  46.665  92.983
 6666DA     BB143359  45.107  46.168  92.913
 6666DA     BB243360  45.223  46.341  93.214
 6666DA     BB343361  45.121  46.267  93.386
 6666DA     SC143362  44.891  46.476  93.369
 6666DA     SC243363  44.813  46.675  93.498
 6666DA     SC343364  44.588  46.637  93.380
 6666DA     SC443365  44.759  46.435  93.287
 6667DC     BB143366  45.243  46.194  93.489
 6667DC     BB243367  45.249  46.454  93.739
 6667DC     BB343368  45.128  46.402  93.899
 6667DC     SC143369  44.911  46.453  93.761
 6667DC     SC243370  44.816  46.629  93.841
 6667DC     SC343371  44.682  46.416  93.636
 6668DA     BB143372  45.511  46.554  93.992
 6668DA     BB243373  45.259  46.723  94.199
 6668DA     BB343374  45.171  46.585  94.336
 6668DA     SC143375  44.941  46.503  94.144
 6668DA     SC243376  44.694  46.534  94.128
 6668DA     SC343377  44.699  46.332  93.970
 6668DA     SC443378  44.965  46.376  94.049
 6669DA     BB143379  45.265  46.861  94.487
 6669DA     BB243380  44.916  46.881  94.599
 6669DA     BB343381  44.870  46.717  94.727
 6669DA     SC143382  44.773  46.532  94.497
 6669DA     SC243383  44.558  46.434  94.417
 6669DA     SC343384  44.705  46.263  94.295
 6669DA     SC443385  44.881  46.434  94.430
 6670DT     BB143386  44.833  46.796  94.867
 6670DT     BB243387  44.481  46.719  94.881
 6670DT     BB343388  44.452  46.539  94.979
 6670DT     SC143389  44.537  46.403  94.771
 6670DT     SC243390  44.373  46.297  94.682
 6670DT     SC343391  44.687  46.244  94.622
 6671DG     BB143392  44.231  46.827  95.166
 6671DG     BB243393  44.037  46.526  95.112
 6671DG     BB343394  44.094  46.385  95.240
 6671DG     SC143395  44.310  46.270  95.057
 6671DG     SC243396  44.306  46.000  94.930
 6671DG     SC343397  44.568  46.131  94.890
 6671DG     SC443398  44.458  46.331  95.063
 6672DA     BB143399  43.762  46.329  95.362
 6672DA     BB243400  43.783  45.972  95.280
 6672DA     BB343401  43.899  45.870  95.427
 6672DA     SC143402  44.168  45.908  95.274
 6672DA     SC243403  44.332  45.766  95.150
 6672DA     SC343404  44.497  45.958  95.191
 6672DA     SC443405  44.257  46.037  95.311
 6673DC     BB143406  43.839  45.704  95.615
 6673DC     BB243407  43.980  45.410  95.460
 6673DC     BB343408  44.142  45.343  95.571
 6673DC     SC143409  44.293  45.538  95.483
 6673DC     SC243410  44.444  45.457  95.351
 6673DC     SC343411  44.444  45.754  95.482
 6674DA     BB143412  43.923  44.976  95.604
 6674DA     BB243413  44.259  44.883  95.492
 6674DA     BB343414  44.392  44.871  95.659
 6674DA     SC143415  44.482  45.169  95.639
 6674DA     SC243416  44.687  45.296  95.577
 6674DA     SC343417  44.582  45.490  95.708
 6674DA     SC443418  44.400  45.277  95.726
 6675DA     BB143419  44.473  44.550  95.588
 6675DA     BB243420  44.814  44.664  95.518
 6675DA     BB343421  44.929  44.671  95.697
 6675DA     SC143422  44.856  44.967  95.761
 6675DA     SC243423  44.971  45.189  95.765
 6675DA     SC343424  44.778  45.263  95.916
 6675DA     SC443425  44.729  44.994  95.855
 6676DA     BB143426  45.132  44.478  95.530
 6676DA     BB243427  45.378  44.750  95.550
 6676DA     BB343428  45.473  44.750  95.741
 6676DA     SC143429  45.266  44.943  95.871
 6676DA     SC243430  45.260  45.178  95.954
 6676DA     SC343431  45.053  45.104  96.087
 6676DA     SC443432  45.140  44.878  95.946
 6677DG     BB143433  45.707  44.715  95.549
 6677DG     BB243434  45.793  45.042  95.676
 6677DG     BB343435  45.879  45.025  95.855
 6677DG     SC143436  45.616  45.043  96.010
 6677DG     SC243437  45.535  45.265  96.192
 6677DG     SC343438  45.346  45.038  96.211
 6677DG     SC443439  45.535  44.908  96.040
 6678DT     BB143440  46.059  45.102  95.853
 6678DT     BB243441  46.017  45.406  96.041
 6678DT     BB343442  46.070  45.375  96.239
 6678DT     SC143443  45.850  45.241  96.286
 6678DT     SC243444  45.722  45.357  96.416
 6678DT     SC343445  45.689  45.042  96.348
 6679DC     BB143446  46.264  45.533  96.168
 6679DC     BB243447  46.109  45.692  96.453
 6679DC     BB343448  46.174  45.602  96.628
 6679DC     SC143449  46.024  45.391  96.585
 6679DC     SC243450  45.864  45.386  96.729
 6679DC     SC343451  45.956  45.141  96.538
 6680DC     BB143452  46.310  45.827  96.672
 6680DC     BB243453  46.113  45.780  96.971
 6680DC     BB343454  46.209  45.648  97.099
 6680DC     SC143455  46.144  45.443  96.949
 6680DC     SC243456  45.999  45.322  97.052
 6680DC     SC343457  46.170  45.233  96.791
 6681DA     BB143458  46.143  45.983  97.347
 6681DA     BB243459  46.043  45.688  97.539
 6681DA     BB343460  46.215  45.583  97.609
 6681DA     SC143461  46.235  45.399  97.359
 6681DA     SC243462  46.201  45.158  97.304
 6681DA     SC343463  46.347  45.206  97.098
 6681DA     SC443464  46.329  45.448  97.238
 6682DT     BB143465  46.278  45.567  97.822
 6682DT     BB243466  46.185  45.222  97.870
 6682DT     BB343467  46.355  45.104  97.883
 6682DT     SC143468  46.398  45.122  97.625
 6682DT     SC243469  46.362  44.931  97.533
 6682DT     SC343470  46.515  45.181  97.396
 6683DG     BB143471  46.179  45.035  98.248
 6683DG     BB243472  46.254  44.723  98.081
 6683DG     BB343473  46.445  44.675  98.109
 6683DG     SC143474  46.543  44.824  97.860
 6683DG     SC243475  46.660  44.698  97.615
 6683DG     SC343476  46.688  44.992  97.606
 6683DG     SC443477  46.583  44.978  97.872
 6684DC     BB143478  46.528  44.484  98.227
 6684DC     BB243479  46.631  44.275  97.951
 6684DC     BB343480  46.838  44.269  97.941
 6684DC     SC143481  46.848  44.512  97.842
 6684DC     SC243482  46.911  44.503  97.637
 6684DC     SC343483  46.902  44.769  97.821
 6685DA     BB143484  46.721  43.865  97.950
 6685DA     BB243485  46.954  43.906  97.670
 6685DA     BB343486  47.154  43.924  97.742
 6685DA     SC143487  47.144  44.234  97.763
 6685DA     SC243488  47.246  44.430  97.648
 6685DA     SC343489  47.186  44.561  97.860
 6685DA     SC443490  47.100  44.298  97.904
 6686DT     BB143491  47.304  43.773  97.706
 6686DT     BB243492  47.486  43.958  97.454
 6686DT     BB343493  47.666  44.023  97.532
 6686DT     SC143494  47.548  44.210  97.672
 6686DT     SC243495  47.597  44.403  97.591
 6686DT     SC343496  47.464  44.348  97.881
 6687DT     BB143497  47.824  43.837  97.391
 6687DT     BB243498  47.957  44.157  97.292
 6687DT     BB343499  48.110  44.213  97.421
 6687DT     SC143500  47.939  44.272  97.611
 6687DT     SC243501  47.936  44.485  97.640
 6687DT     SC343502  47.811  44.264  97.841
 6688DG     BB143503  48.300  44.199  97.057
 6688DG     BB243504  48.344  44.521  97.216
 6688DG     BB343505  48.492  44.512  97.349
 6688DG     SC143506  48.310  44.431  97.581
 6688DG     SC243507  48.249  44.596  97.822
 6688DG     SC343508  48.143  44.322  97.854
 6688DG     SC443509  48.281  44.275  97.607
 6689DA     BB143510  48.637  44.783  97.190
 6689DA     BB243511  48.594  44.982  97.495
 6689DA     BB343512  48.748  44.938  97.635
 6689DA     SC143513  48.589  44.711  97.776
 6689DA     SC243514  48.479  44.672  97.996
 6689DA     SC343515  48.497  44.422  97.938
 6689DA     SC443516  48.611  44.561  97.722
 6690DA     BB143517  48.755  45.257  97.602
 6690DA     BB243518  48.657  45.268  97.955
 6690DA     BB343519  48.822  45.217  98.080
 6690DA     SC143520  48.756  44.913  98.084
 6690DA     SC243521  48.674  44.744  98.247
 6690DA     SC343522  48.775  44.570  98.087
 6690DA     SC443523  48.826  44.820  97.972
 6691DT     BB143524  48.833  45.356  98.164
 6691DT     BB243525  48.689  45.228  98.469
 6691DT     BB343526  48.838  45.156  98.593
 6691DT     SC143527  48.868  44.942  98.444
 6691DT     SC243528  48.797  44.769  98.551
 6691DT     SC343529  48.980  44.764  98.284
 6692DG     BB143530  48.560  45.419  98.742
 6692DG     BB243531  48.592  45.120  98.942
 6692DG     BB343532  48.767  45.118  99.035
 6692DG     SC143533  48.913  44.973  98.808
 6692DG     SC243534  49.027  44.697  98.821
 6692DG     SC343535  49.109  44.833  98.572
 6692DG     SC443536  48.979  45.059  98.690
 6693DC     BB143537  48.736  45.110  99.223
 6693DC     BB243538  48.846  44.777  99.310
 6693DC     BB343539  49.044  44.782  99.368
 6693DC     SC143540  49.124  44.811  99.119
 6693DC     SC243541  49.223  44.631  99.055
 6693DC     SC343542  49.234  44.918  98.905
 6694DC     BB143543  48.957  44.736  99.616
 6694DC     BB243544  49.196  44.473  99.554
 6694DC     BB343545  49.387  44.541  99.594
 6694DC     SC143546  49.392  44.683  99.373
 6694DC     SC243547  49.532  44.595  99.235
 6694DC     SC343548  49.404  44.892  99.213
 6695DT     BB143549  49.399  44.391  99.823
 6695DT     BB243550  49.689  44.287  99.636
 6695DT     BB343551  49.849  44.411  99.680
 6695DT     SC143552  49.748  44.606  99.535
 6695DT     SC243553  49.869  44.635  99.360
 6695DT     SC343554  49.646  44.840  99.472
 6696DT     BB143555  49.973  44.215  99.828
 6696DT     BB243556  50.219  44.307  99.580
 6696DT     BB343557  50.335  44.463  99.650
 6696DT     SC143558  50.141  44.635  99.612
 6696DT     SC243559  50.193  44.766  99.449
 6696DT     SC343560  49.954  44.814  99.663
 6697DT     BB143561  50.544  44.293  99.680
 6697DT     BB243562  50.670  44.552  99.462
 6697DT     BB343563  50.747  44.707  99.575
 6697DT     SC143564  50.506  44.791  99.639
 6697DT     SC243565  50.468  44.979  99.541
 6697DT     SC343566  50.296  44.853  99.785
 6698DC     BB143567  50.979  44.624  99.483
 6698DC     BB243568  50.959  44.970  99.385
 6698DC     BB343569  51.017  45.092  99.543
 6698DC     SC143570  50.791  45.050  99.669
 6698DC     SC243571  50.675  45.231  99.669
 6698DC     SC343572  50.622  44.971  99.855
 6699DT     BB143573  51.221  45.136  99.386
 6699DT     BB243574  51.090  45.463  99.465
 6699DT     BB343575  51.157  45.523  99.651
 6699DT     SC143576  50.991  45.360  99.772
 6699DT     SC243577  50.838  45.474  99.871
 6699DT     SC343578  50.903  45.160  99.920
 6700DT     BB143579  51.311  45.697  99.522
 6700DT     BB243580  51.142  45.898  99.769
 6700DT     BB343581  51.240  45.884  99.951
 6700DT     SC143582  51.144  45.643  99.992
 6700DT     SC243583  51.001  45.649 100.152
 6700DT     SC343584  51.137  45.382 100.028
 6701DT     BB143585  51.387  46.137  99.951
 6701DT     BB243586  51.242  46.139 100.281
 6701DT     BB343587  51.374  46.055 100.417
 6701DT     SC143588  51.323  45.813 100.328
 6701DT     SC243589  51.214  45.704 100.478
 6701DT     SC343590  51.359  45.576 100.218
 6702DA     BB143591  51.399  46.427 100.646
 6702DA     BB243592  51.358  46.165 100.899
 6702DA     BB343593  51.546  46.078 100.947
 6702DA     SC143594  51.526  45.855 100.731
 6702DA     SC243595  51.495  45.607 100.723
 6702DA     SC343596  51.593  45.623 100.486
 6702DA     SC443597  51.589  45.885 100.586
 6703DT     BB143598  51.734  46.077 101.168
 6703DT     BB243599  51.649  45.744 101.280
 6703DT     BB343600  51.815  45.621 101.267
 6703DT     SC143601  51.794  45.606 101.006
 6703DT     SC243602  51.735  45.407 100.950
 6703DT     SC343603  51.854  45.633 100.751
 6704DT     BB143604  51.909  45.595 101.554
 6704DT     BB243605  51.854  45.252 101.455
 6704DT     BB343606  52.033  45.166 101.398
 6704DT     SC143607  52.033  45.297 101.171
 6704DT     SC243608  52.000  45.159 101.009
 6704DT     SC343609  52.107  45.463 100.980
 6705DA     BB143610  51.884  44.904 101.690
 6705DA     BB243611  51.965  44.703 101.394
 6705DA     BB343612  52.175  44.671 101.381
 6705DA     SC143613  52.227  44.925 101.208
 6705DA     SC243614  52.294  44.978 100.973
 6705DA     SC343615  52.361  45.207 101.066
 6705DA     SC443616  52.264  45.061 101.285
 6706DG     BB143617  52.097  44.372 101.401
 6706DG     BB243618  52.227  44.362 101.063
 6706DG     BB343619  52.425  44.342 101.067
 6706DG     SC143620  52.480  44.643 101.073
 6706DG     SC243621  52.610  44.801 100.855
 6706DG     SC343622  52.577  44.965 101.099
 6706DG     SC443623  52.488  44.718 101.214
 6707DT     BB143624  52.524  44.163 100.980
 6707DT     BB243625  52.660  44.300 100.675
 6707DT     BB343626  52.865  44.327 100.696
 6707DT     SC143627  52.829  44.538 100.848
 6707DT     SC243628  52.891  44.714 100.741
 6707DT     SC343629  52.835  44.695 101.060
 6708DA     BB143630  52.813  44.102 100.345
 6708DA     BB243631  53.037  44.382 100.266
 6708DA     BB343632  53.231  44.347 100.347
 6708DA     SC143633  53.170  44.488 100.618
 6708DA     SC243634  53.237  44.697 100.736
 6708DA     SC343635  53.156  44.578 100.949
 6708DA     SC443636  53.115  44.397 100.738
 6709DT     BB143637  53.407  44.312 100.223
 6709DT     BB243638  53.555  44.637 100.272
 6709DT     BB343639  53.723  44.621 100.391
 6709DT     SC143640  53.578  44.586 100.606
 6709DT     SC243641  53.595  44.759 100.733
 6709DT     SC343642  53.474  44.471 100.820
 6710DG     BB143643  53.863  44.782 100.043
 6710DG     BB243644  53.954  44.986 100.327
 6710DG     BB343645  54.115  44.911 100.416
 6710DG     SC143646  53.956  44.730 100.605
 6710DG     SC243647  53.941  44.759 100.902
 6710DG     SC343648  53.815  44.506 100.814
 6710DG     SC443649  53.917  44.583 100.557
 6711DA     BB143650  54.243  45.226 100.384
 6711DA     BB243651  54.265  45.252 100.749
 6711DA     BB343652  54.435  45.144 100.821
 6711DA     SC143653  54.279  44.878 100.861
 6711DA     SC243654  54.201  44.737 101.051
 6711DA     SC343655  54.187  44.547 100.878
 6711DA     SC443656  54.279  44.773 100.739
 6712DG     BB143657  54.480  45.429 100.916
 6712DG     BB243658  54.439  45.272 101.239
 6712DG     BB343659  54.606  45.177 101.291
 6712DG     SC143660  54.526  44.912 101.160
 6712DG     SC243661  54.467  44.657 101.303
 6712DG     SC343662  54.479  44.614 101.010
 6712DG     SC443663  54.562  44.888 101.006
 6713DC     BB143664  54.671  45.249 101.457
 6713DC     BB243665  54.598  44.983 101.690
 6713DC     BB343666  54.765  44.863 101.714
 6713DC     SC143667  54.728  44.752 101.479
 6713DC     SC243668  54.668  44.547 101.506
 6713DC     SC343669  54.772  44.680 101.229
 6714DT     BB143670  54.752  44.972 101.948
 6714DT     BB243671  54.745  44.616 102.006
 6714DT     BB343672  54.936  44.538 101.993
 6714DT     SC143673  54.934  44.558 101.731
 6714DT     SC243674  54.927  44.362 101.644
 6714DT     SC343675  55.000  44.636 101.488
 6715DT     BB143676  54.907  44.506 102.251
 6715DT     BB243677  54.995  44.179 102.125
 6715DT     BB343678  55.200  44.167 102.098
 6715DT     SC143679  55.188  44.316 101.883
 6715DT     SC243680  55.233  44.195 101.710
 6715DT     SC343681  55.227  44.519 101.719
 6716DT     BB143682  55.216  44.005 102.315
 6716DT     BB243683  55.383  43.820 102.055
 6716DT     BB343684  55.582  43.877 102.044
 6716DT     SC143685  55.519  44.103 101.928
 6716DT     SC243686  55.586  44.100 101.724
 6716DT     SC343687  55.492  44.363 101.888
 6717DC     BB143688  55.683  43.645 102.168
 6717DC     BB243689  55.874  43.664 101.862
 6717DC     BB343690  56.046  43.774 101.893
 6717DC     SC143691  55.911  43.999 101.897
 6717DC     SC243692  55.958  44.114 101.721
 6717DC     SC343693  55.808  44.225 101.985
 6718DA     BB143694  56.223  43.418 101.747
 6718DA     BB243695  56.381  43.694 101.564
 6718DA     BB343696  56.530  43.788 101.684
 6718DA     SC143697  56.334  43.997 101.807
 6718DA     SC243698  56.295  44.242 101.793
 6718DA     SC343699  56.170  44.214 102.016
 6718DA     SC443700  56.262  43.959 101.946
 6719DA     BB143701  56.782  43.736 101.457
 6719DA     BB243702  56.817  44.100 101.424
 6719DA     BB343703  56.946  44.176 101.577
 6719DA     SC143704  56.716  44.229 101.779
 6719DA     SC243705  56.600  44.425 101.880
 6719DA     SC343706  56.525  44.261 102.063
 6719DA     SC443707  56.680  44.112 101.884
 6720DT     BB143708  57.175  44.273 101.559
 6720DT     BB243709  57.070  44.615 101.603
 6720DT     BB343710  57.147  44.691 101.779
 6720DT     SC143711  56.975  44.555 101.922
 6720DT     SC243712  56.834  44.690 102.012
 6720DT     SC343713  56.879  44.380 102.095
 6721DG     BB143714  57.317  44.946 101.504
 6721DG     BB243715  57.135  45.132 101.756
 6721DG     BB343716  57.251  45.161 101.915
 6721DG     SC143717  57.165  44.903 102.055
 6721DG     SC243718  57.008  44.885 102.308
 6721DG     SC343719  57.109  44.619 102.228
 6721DG     SC443720  57.246  44.768 102.025
 6722DT     BB143721  57.315  45.372 101.988
 6722DT     BB243722  57.091  45.412 102.268
 6722DT     BB343723  57.197  45.398 102.446
 6722DT     SC143724  57.220  45.138 102.421
 6722DT     SC243725  57.099  45.041 102.571
 6722DT     SC343726  57.330  44.900 102.392
 6723DG     BB143727  56.994  45.749 102.427
 6723DG     BB243728  56.917  45.565 102.729
 6723DG     BB343729  57.066  45.584 102.860
 6723DG     SC143730  57.219  45.339 102.759
 6723DG     SC243731  57.263  45.085 102.910
 6723DG     SC343732  57.422  45.089 102.660
 6723DG     SC443733  57.325  45.357 102.640
 6724DT     BB143734  57.013  45.671 103.038
 6724DT     BB243735  57.016  45.391 103.265
 6724DT     BB343736  57.193  45.389 103.372
 6724DT     SC143737  57.327  45.301 103.165
 6724DT     SC243738  57.389  45.099 103.200
 6724DT     SC343739  57.502  45.294 102.967
 6725DC     BB143740  57.045  45.460 103.583
 6725DC     BB243741  57.215  45.159 103.687
 6725DC     BB343742  57.403  45.206 103.758
 6725DC     SC143743  57.493  45.246 103.515
 6725DC     SC243744  57.632  45.090 103.463
 6725DC     SC343745  57.594  45.370 103.305
 6726DA     BB143746  57.217  44.972 104.052
 6726DA     BB243747  57.555  44.839 104.002
 6726DA     BB343748  57.700  44.970 104.088
 6726DA     SC143749  57.739  45.136 103.827
 6726DA     SC243750  57.917  45.170 103.656
 6726DA     SC343751  57.792  45.387 103.600
 6726DA     SC443752  57.648  45.267 103.808
 6727DA     BB143753  57.806  44.705 104.257
 6727DA     BB243754  58.132  44.748 104.096
 6727DA     BB343755  58.241  44.905 104.190
 6727DA     SC143756  58.132  45.127 104.001
 6727DA     SC243757  58.219  45.274 103.820
 6727DA     SC343758  58.015  45.422 103.869
 6727DA     SC443759  58.000  45.206 104.048
 6728DT     BB143760  58.428  44.878 104.314
 6728DT     BB243761  58.660  45.009 104.070
 6728DT     BB343762  58.735  45.190 104.135
 6728DT     SC143763  58.510  45.313 104.078
 6728DT     SC243764  58.540  45.444 103.910
 6728DT     SC343765  58.286  45.448 104.111
 6729DT     BB143766  58.993  45.094 104.207
 6729DT     BB243767  59.064  45.359 103.973
 6729DT     BB343768  59.093  45.537 104.074
 6729DT     SC143769  58.836  45.562 104.120
 6729DT     SC243770  58.758  45.726 104.004
 6729DT     SC343771  58.608  45.579 104.251
 6730DA     BB143772  59.430  45.491 103.831
 6730DA     BB243773  59.301  45.829 103.776
 6730DA     BB343774  59.351  45.956 103.940
 6730DA     SC143775  59.090  45.895 104.098
 6730DA     SC243776  58.881  46.015 104.164
 6730DA     SC343777  58.858  45.834 104.344
 6730DA     SC443778  59.094  45.774 104.204
 6731DG     BB143779  59.501  46.120 103.725
 6731DG     BB243780  59.257  46.373 103.810
 6731DG     BB343781  59.317  46.474 103.971
 6731DG     SC143782  59.181  46.285 104.171
 6731DG     SC243783  58.951  46.354 104.348
 6731DG     SC343784  59.062  46.089 104.417
 6731DG     SC443785  59.262  46.158 104.224
 6732DC     BB143786  59.348  46.679 103.947
 6732DC     BB243787  59.063  46.819 104.118
 6732DC     BB343788  59.119  46.883 104.307
 6732DC     SC143789  59.129  46.637 104.396
 6732DC     SC243790  58.968  46.604 104.535
 6732DC     SC343791  59.227  46.413 104.495
 6733DT     BB143792  59.087  47.130 104.213
 6733DT     BB243793  58.871  47.112 104.502
 6733DT     BB343794  58.979  47.151 104.674
 6733DT     SC143795  59.091  46.914 104.665
 6733DT     SC243796  59.017  46.794 104.828
 6733DT     SC343797  59.277  46.728 104.647
 6734DT     BB143798  58.853  47.387 104.689
 6734DT     BB243799  58.791  47.232 105.008
 6734DT     BB343800  58.948  47.269 105.137
 6734DT     SC143801  59.102  47.097 105.013
 6734DT     SC243802  59.135  46.926 105.140
 6734DT     SC343803  59.302  46.999 104.872
 6735DA     BB143804  58.603  47.385 105.346
 6735DA     BB243805  58.807  47.185 105.575
 6735DA     BB343806  58.976  47.296 105.641
 6735DA     SC143807  59.161  47.200 105.410
 6735DA     SC243808  59.360  47.052 105.383
 6735DA     SC343809  59.397  47.178 105.162
 6735DA     SC443810  59.167  47.290 105.277
 6736DA     BB143811  58.881  47.239 105.958
 6736DA     BB243812  59.201  47.070 106.014
 6736DA     BB343813  59.356  47.214 106.046
 6736DA     SC143814  59.433  47.235 105.745
 6736DA     SC243815  59.624  47.170 105.598
 6736DA     SC343816  59.531  47.345 105.435
 6736DA     SC443817  59.361  47.349 105.657
 6737DT     BB143818  59.478  47.266 106.249
 6737DT     BB243819  59.789  47.111 106.151
 6737DT     BB343820  59.935  47.255 106.125
 6737DT     SC143821  59.829  47.332 105.897
 6737DT     SC243822  59.960  47.276 105.735
 6737DT     SC343823  59.712  47.485 105.716
 6738DA     BB143824  60.141  47.024 106.416
 6738DA     BB243825  60.376  47.073 106.139
 6738DA     BB343826  60.468  47.265 106.153
 6738DA     SC143827  60.253  47.408 105.980
 6738DA     SC243828  60.237  47.513 105.754
 6738DA     SC343829  60.031  47.634 105.847
 6738DA     SC443830  60.128  47.475 106.056
 6739DA     BB143831  60.777  47.129 106.158
 6739DA     BB243832  60.840  47.291 105.834
 6739DA     BB343833  60.909  47.490 105.863
 6739DA     SC143834  60.624  47.616 105.857
 6739DA     SC243835  60.490  47.761 105.706
 6739DA     SC343836  60.346  47.809 105.913
 6739DA     SC443837  60.548  47.634 105.998
 6740DG     BB143838  61.177  47.410 105.721
 6740DG     BB243839  61.052  47.630 105.462
 6740DG     BB343840  61.114  47.816 105.496
 6740DG     SC143841  60.872  47.892 105.667
 6740DG     SC243842  60.662  48.091 105.595
 6740DG     SC343843  60.631  48.002 105.875
 6740DG     SC443844  60.877  47.864 105.825
 6741DT     BB143845  61.234  47.905 105.346
 6741DT     BB243846  60.991  48.119 105.187
 6741DT     BB343847  61.022  48.316 105.244
 6741DT     SC143848  60.920  48.271 105.482
 6741DT     SC243849  60.731  48.373 105.499
 6741DT     SC343850  60.903  48.248 105.744
 6742DC     BB143851  61.076  48.315 104.992
 6742DC     BB243852  60.801  48.545 105.037
 6742DC     BB343853  60.870  48.723 105.116
 6742DC     SC143854  60.900  48.616 105.353
 6742DC     SC243855  60.754  48.698 105.488
 6742DC     SC343856  61.017  48.529 105.573
 6743DT     BB143857  60.795  48.795 104.879
 6743DT     BB243858  60.606  48.999 105.110
 6743DT     BB343859  60.725  49.151 105.183
 6743DT     SC143860  60.855  48.985 105.339
 6743DT     SC243861  60.805  49.025 105.544
 6743DT     SC343862  61.054  48.845 105.442
 6744DG     BB143863  60.382  49.294 105.016
 6744DG     BB243864  60.436  49.426 105.348
 6744DG     BB343865  60.581  49.562 105.344
 6744DG     SC143866  60.805  49.360 105.396
 6744DG     SC243867  60.975  49.346 105.641
 6744DG     SC343868  61.078  49.165 105.431
 6744DG     SC443869  60.874  49.288 105.271
 6745DA     BB143870  60.350  49.757 105.511
 6745DA     BB243871  60.587  49.797 105.789
 6745DA     BB343872  60.744  49.930 105.733
 6745DA     SC143873  60.928  49.704 105.624
 6745DA     SC243874  61.142  49.593 105.688
 6745DA     SC343875  61.154  49.518 105.443
 6745DA     SC443876  60.918  49.668 105.467
 6746DA     BB143877  60.644  50.071 106.011
 6746DA     BB243878  60.984  50.015 106.137
 6746DA     BB343879  61.120  50.152 106.046
 6746DA     SC143880  61.190  49.963 105.809
 6746DA     SC243881  61.386  49.829 105.732
 6746DA     SC343882  61.271  49.833 105.502
 6746DA     SC443883  61.104  49.977 105.675
 6747DG     BB143884  61.159  50.227 106.342
 6747DG     BB243885  61.495  50.108 106.278
 6747DG     BB343886  61.600  50.248 106.184
 6747DG     SC143887  61.521  50.153 105.904
 6747DG     SC243888  61.704  50.033 105.701
 6747DG     SC343889  61.439  50.088 105.583
 6747DG     SC443890  61.388  50.211 105.837
 6748DA     BB143891  61.823  50.173 106.435
 6748DA     BB243892  62.075  50.093 106.181
 6748DA     BB343893  62.143  50.271 106.085
 6748DA     SC143894  61.930  50.259 105.859
 6748DA     SC243895  61.923  50.215 105.613
 6748DA     SC343896  61.697  50.336 105.619
 6748DA     SC443897  61.792  50.338 105.883
 6749DT     BB143898  62.316  50.293 106.121
 6749DT     BB243899  62.447  50.221 105.792
 6749DT     BB343900  62.474  50.397 105.687
 6749DT     SC143901  62.216  50.423 105.647
 6749DT     SC243902  62.173  50.391 105.438
 6749DT     SC343903  61.972  50.522 105.656
 6750DT     BB143904  62.734  50.355 105.719
 6750DT     BB243905  62.694  50.404 105.363
 6750DT     BB343906  62.688  50.606 105.320
 6750DT     SC143907  62.444  50.628 105.414
 6750DT     SC243908  62.308  50.664 105.251
 6750DT     SC343909  62.242  50.703 105.566
 6751DA     BB143910  63.002  50.483 105.064
 6751DA     BB243911  62.789  50.708 104.867
 6751DA     BB343912  62.823  50.911 104.924
 6751DA     SC143913  62.602  50.912 105.143
 6751DA     SC243914  62.378  51.016 105.178
 6751DA     SC343915  62.418  50.967 105.427
 6751DA     SC443916  62.646  50.875 105.293
 6752DA     BB143917  62.911  51.022 104.608
 6752DA     BB243918  62.627  51.253 104.616
 6752DA     BB343919  62.679  51.431 104.721
 6752DA     SC143920  62.586  51.325 104.998
 6752DA     SC243921  62.402  51.371 105.161
 6752DA     SC343922  62.554  51.257 105.333
 6752DA     SC443923  62.695  51.253 105.091
 6753DT     BB143924  62.715  51.666 104.641
 6753DT     BB243925  62.405  51.797 104.770
 6753DT     BB343926  62.443  51.933 104.921
 6753DT     SC143927  62.504  51.741 105.089
 6753DT     SC243928  62.352  51.728 105.241
 6753DT     SC343929  62.646  51.591 105.254
 6754DG     BB143930  62.247  52.177 104.653
 6754DG     BB243931  62.088  52.191 104.977
 6754DG     BB343932  62.183  52.321 105.094
 6754DG     SC143933  62.378  52.114 105.207
 6754DG     SC243934  62.388  52.018 105.490
 6754DG     SC343935  62.620  51.917 105.336
 6754DG     SC443936  62.516  52.086 105.130
 6755DT     BB143937  62.088  52.516 105.180
 6755DT     BB243938  62.028  52.412 105.521
 6755DT     BB343939  62.163  52.504 105.648
 6755DT     SC143940  62.357  52.347 105.568
 6755DT     SC243941  62.411  52.213 105.728
 6755DT     SC343942  62.585  52.269 105.460
 6756DA     BB143943  61.779  52.574 105.802
 6756DA     BB243944  61.988  52.444 106.074
 6756DA     BB343945  62.125  52.594 106.139
 6756DA     SC143946  62.350  52.508 105.942
 6756DA     SC243947  62.575  52.400 105.953
 6756DA     SC343948  62.614  52.504 105.722
 6756DA     SC443949  62.356  52.582 105.799
 6757DC     BB143950  62.102  52.662 106.324
 6757DC     BB243951  62.384  52.488 106.468
 6757DC     BB343952  62.541  52.619 106.496
 6757DC     SC143953  62.595  52.623 106.240
 6757DC     SC243954  62.782  52.522 106.205
 6757DC     SC343955  62.626  52.713 105.994
 6758DA     BB143956  62.478  52.427 106.864
 6758DA     BB243957  62.835  52.405 106.786
 6758DA     BB343958  62.929  52.594 106.814
 6758DA     SC143959  62.883  52.689 106.521
 6758DA     SC243960  63.020  52.733 106.318
 6758DA     SC343961  62.820  52.873 106.239
 6758DA     SC443962  62.749  52.772 106.490
 6759DT     BB143963  63.071  52.619 106.965
 6759DT     BB243964  63.358  52.619 106.747
 6759DT     BB343965  63.435  52.810 106.731
 6759DT     SC143966  63.238  52.883 106.573
 6759DT     SC243967  63.314  52.915 106.374
 6759DT     SC343968  63.025  53.012 106.485
 6760DA     BB143969  63.751  52.559 106.840
 6760DA     BB243970  63.855  52.751 106.545
 6760DA     BB343971  63.898  52.953 106.599
 6760DA     SC143972  63.608  53.054 106.548
 6760DA     SC243973  63.490  53.200 106.384
 6760DA     SC343974  63.307  53.218 106.563
 6760DA     SC443975  63.506  53.054 106.673
 6761DT     BB143976  64.078  52.997 106.573
 6761DT     BB243977  64.024  53.187 106.271
 6761DT     BB343978  64.030  53.390 106.313
 6761DT     SC143979  63.793  53.382 106.424
 6761DT     SC243980  63.652  53.487 106.300
 6761DT     SC343981  63.604  53.397 106.608
 6762DT     BB143982  64.244  53.364 106.169
 6762DT     BB243983  64.033  53.599 105.994
 6762DT     BB343984  64.047  53.786 106.081
 6762DT     SC143985  63.900  53.711 106.285
 6762DT     SC243986  63.710  53.810 106.277
 6762DT     SC343987  63.831  53.653 106.533
 6763DA     BB143988  64.072  53.773 105.659
 6763DA     BB243989  63.836  54.035 105.758
 6763DA     BB343990  63.938  54.193 105.859
 6763DA     SC143991  63.901  54.068 106.142
 6763DA     SC243992  63.772  54.117 106.350
 6763DA     SC343993  63.943  53.967 106.467
 6763DA     SC443994  64.018  53.973 106.197
 6764DC     BB143995  63.918  54.334 105.760
 6764DC     BB243996  63.690  54.512 105.976
 6764DC     BB343997  63.796  54.641 106.099
 6764DC     SC143998  63.880  54.442 106.248
 6764DC     SC243999  63.786  54.453 106.441
 6764DC     SC344000  64.044  54.271 106.366
 6765DT     BB144001  63.688  54.831 105.952
 6765DT     BB244002  63.597  54.911 106.292
 6765DT     BB344003  63.753  55.010 106.386
 6765DT     SC144004  63.890  54.787 106.409
 6765DT     SC244005  63.900  54.731 106.616
 6765DT     SC344006  64.084  54.611 106.378
 6766DC     BB144007  63.608  55.235 106.374
 6766DC     BB244008  63.690  55.198 106.724
 6766DC     BB344009  63.876  55.278 106.761
 6766DC     SC144010  63.996  55.075 106.647
 6766DC     SC244011  64.098  54.958 106.797
 6766DC     SC344012  64.143  54.937 106.477
 6767DT     BB144013  63.764  55.490 106.891
 6767DT     BB244014  63.994  55.351 107.132
 6767DT     BB344015  64.182  55.432 107.105
 6767DT     SC144016  64.222  55.287 106.890
 6767DT     SC244017  64.373  55.139 106.930
 6767DT     SC344018  64.265  55.225 106.637
 6768DT     BB144019  64.156  55.580 107.333
 6768DT     BB244020  64.459  55.390 107.384
 6768DT     BB344021  64.620  55.492 107.304
 6768DT     SC144022  64.549  55.429 107.059
 6768DT     SC244023  64.690  55.290 106.977
 6768DT     SC344024  64.468  55.457 106.809
 6769DT     BB144025  64.709  55.552 107.553
 6769DT     BB244026  64.987  55.383 107.398
 6769DT     BB344027  65.103  55.518 107.292
 6769DT     SC144028  64.924  55.534 107.101
 6769DT     SC244029  65.002  55.442 106.923
 6769DT     SC344030  64.743  55.635 106.938
 6770DA     BB144031  65.367  55.310 107.544
 6770DA     BB244032  65.513  55.314 107.207
 6770DA     BB344033  65.588  55.508 107.161
 6770DA     SC144034  65.322  55.607 107.034
 6770DA     SC244035  65.237  55.666 106.807
 6770DA     SC344036  65.054  55.796 106.932
 6770DA     SC444037  65.218  55.683 107.130
 6771DA     BB144038  65.873  55.349 107.098
 6771DA     BB244039  65.849  55.474 106.754
 6771DA     BB344040  65.907  55.680 106.746
 6771DA     SC144041  65.619  55.788 106.792
 6771DA     SC244042  65.444  55.908 106.662
 6771DA     SC344043  65.346  55.972 106.890
 6771DA     SC444044  65.575  55.819 106.944
 6772DT     BB144045  66.080  55.737 106.646
 6772DT     BB244046  65.917  55.883 106.360
 6772DT     BB344047  65.927  56.090 106.370
 6772DT     SC144048  65.743  56.098 106.557
 6772DT     SC244049  65.563  56.184 106.477
 6772DT     SC344050  65.629  56.139 106.791
 6773DA     BB144051  66.072  55.980 105.992
 6773DA     BB244052  65.822  56.244 105.945
 6773DA     BB344053  65.900  56.433 106.006
 6773DA     SC144054  65.800  56.407 106.299
 6773DA     SC244055  65.628  56.512 106.446
 6773DA     SC344056  65.767  56.421 106.641
 6773DA     SC444057  65.901  56.343 106.407
 6774DG     BB144058  65.841  56.503 105.711
 6774DG     BB244059  65.604  56.730 105.862
 6774DG     BB344060  65.697  56.895 105.923
 6774DG     SC144061  65.759  56.785 106.202
 6774DG     SC244062  65.644  56.885 106.459
 6774DG     SC344063  65.860  56.690 106.509
 6774DG     SC444064  65.894  56.703 106.225
 6775DT     BB144065  65.637  57.075 105.837
 6775DT     BB244066  65.451  57.228 106.106
 6775DT     BB344067  65.568  57.368 106.203
 6775DT     SC144068  65.707  57.179 106.323
 6775DT     SC244069  65.661  57.180 106.533
 6775DT     SC344070  65.911  57.028 106.393
 6776DT     BB144071  65.412  57.552 106.093
 6776DT     BB244072  65.394  57.615 106.447
 6776DT     BB344073  65.555  57.729 106.507
 6776DT     SC144074  65.717  57.523 106.489
 6776DT     SC244075  65.780  57.463 106.686
 6776DT     SC344076  65.916  57.370 106.408
 6777DT     BB144077  65.392  57.941 106.539
 6777DT     BB244078  65.554  57.903 106.859
 6777DT     BB344079  65.736  58.002 106.858
 6777DT     SC144080  65.845  57.814 106.711
 6777DT     SC244081  65.988  57.705 106.829
 6777DT     SC344082  65.962  57.696 106.506
 6778DT     BB144083  65.648  58.213 107.017
 6778DT     BB244084  65.936  58.087 107.194
 6778DT     BB344085  66.107  58.182 107.126
 6778DT     SC144086  66.105  58.044 106.903
 6778DT     SC244087  66.271  57.906 106.904
 6778DT     SC344088  66.092  57.988 106.646
 6779DA     BB144089  66.132  58.262 107.541
 6779DA     BB244090  66.458  58.127 107.437
 6779DA     BB344091  66.571  58.278 107.337
 6779DA     SC144092  66.465  58.205 107.054
 6779DA     SC244093  66.553  58.103 106.844
 6779DA     SC344094  66.353  58.215 106.730
 6779DA     SC444095  66.335  58.284 107.001
 6780DA     BB144096  66.820  58.235 107.559
 6780DA     BB244097  67.026  58.114 107.281
 6780DA     BB344098  67.112  58.278 107.175
 6780DA     SC144099  66.877  58.303 106.974
 6780DA     SC244100  66.837  58.262 106.731
 6780DA     SC344101  66.636  58.420 106.759
 6780DA     SC444102  66.758  58.404 107.011
 6781DT     BB144103  67.328  58.317 107.172
 6781DT     BB244104  67.378  58.182 106.841
 6781DT     BB344105  67.423  58.334 106.708
 6781DT     SC144106  67.174  58.416 106.705
 6781DT     SC244107  67.087  58.374 106.513
 6781DT     SC344108  66.963  58.572 106.738
 6782DG     BB144109  67.712  58.048 106.707
 6782DG     BB244110  67.572  58.101 106.378
 6782DG     BB344111  67.645  58.269 106.300
 6782DG     SC144112  67.424  58.447 106.415
 6782DG     SC244113  67.216  58.592 106.257
 6782DG     SC344114  67.209  58.675 106.541
 6782DG     SC444115  67.443  58.510 106.561
 6783DA     BB144116  67.693  58.045 106.047
 6783DA     BB244117  67.481  58.254 105.833
 6783DA     BB344118  67.583  58.434 105.781
 6783DA     SC144119  67.473  58.594 106.025
 6783DA     SC244120  67.314  58.781 106.066
 6783DA     SC344121  67.435  58.808 106.290
 6783DA     SC444122  67.562  58.595 106.159
 6784DC     BB144123  67.604  58.432 105.607
 6784DC     BB244124  67.357  58.683 105.530
 6784DC     BB344125  67.448  58.868 105.512
 6784DC     SC144126  67.477  58.888 105.772
 6784DC     SC244127  67.346  59.041 105.847
 6784DC     SC344128  67.593  58.907 106.008
 6785DG     BB144129  67.233  58.772 105.178
 6785DG     BB244130  67.144  59.097 105.309
 6785DG     BB344131  67.287  59.229 105.268
 6785DG     SC144132  67.443  59.176 105.526
 6785DG     SC244133  67.482  59.370 105.750
 6785DG     SC344134  67.650  59.130 105.788
 6785DG     SC444135  67.554  59.061 105.527
 6786DT     BB144136  67.234  59.391 105.149
 6786DT     BB244137  67.227  59.661 105.388
 6786DT     BB344138  67.403  59.770 105.376
 6786DT     SC144139  67.537  59.581 105.499
 6786DT     SC244140  67.594  59.650 105.695
 6786DT     SC344141  67.714  59.391 105.542
 6787DA     BB144142  67.070  60.026 105.361
 6787DA     BB244143  67.307  60.157 105.609
 6787DA     BB344144  67.480  60.235 105.512
 6787DA     SC144145  67.637  59.966 105.523
 6787DA     SC244146  67.834  59.872 105.642
 6787DA     SC344147  67.840  59.698 105.453
 6787DA     SC444148  67.624  59.868 105.396
 6788DC     BB144149  67.496  60.416 105.538
 6788DC     BB244150  67.771  60.404 105.771
 6788DC     BB344151  67.949  60.442 105.673
 6788DC     SC144152  67.949  60.203 105.564
 6788DC     SC244153  68.108  60.086 105.651
 6788DC     SC344154  67.943  60.014 105.381
 6789DA     BB144155  67.908  60.671 106.024
 6789DA     BB244156  68.242  60.521 106.020
 6789DA     BB344157  68.361  60.608 105.865
 6789DA     SC144158  68.278  60.400 105.650
 6789DA     SC244159  68.384  60.212 105.524
 6789DA     SC344160  68.191  60.243 105.357
 6789DA     SC444161  68.152  60.436 105.557
 6790DT     BB144162  68.496  60.691 105.942
 6790DT     BB244163  68.758  60.466 105.839
 6790DT     BB344164  68.846  60.535 105.665
 6790DT     SC144165  68.640  60.459 105.521
 6790DT     SC244166  68.696  60.293 105.397
 6790DT     SC344167  68.428  60.472 105.364
 6791DG     BB144168  69.137  60.490 105.948
 6791DG     BB244169  69.232  60.336 105.635
 6791DG     BB344170  69.284  60.476 105.503
 6791DG     SC144171  69.000  60.510 105.392
 6791DG     SC244172  68.910  60.439 105.117
 6791DG     SC344173  68.700  60.588 105.261
 6791DG     SC444174  68.902  60.616 105.461
 6792DT     BB144175  69.493  60.499 105.417
 6792DT     BB244176  69.449  60.388 105.077
 6792DT     BB344177  69.442  60.552 104.950
 6792DT     SC144178  69.198  60.611 105.027
 6792DT     SC244179  69.061  60.572 104.866
 6792DT     SC344180  68.997  60.744 105.134
 6793DA     BB144181  69.755  60.330 104.774
 6793DA     BB244182  69.528  60.428 104.502
 6793DA     BB344183  69.558  60.633 104.451
 6793DA     SC144184  69.344  60.738 104.652
 6793DA     SC244185  69.118  60.843 104.642
 6793DA     SC344186  69.168  60.923 104.881
 6793DA     SC444187  69.394  60.780 104.799
 6794DG     BB144188  69.648  60.556 104.154
 6794DG     BB244189  69.348  60.733 104.058
 6794DG     BB344190  69.387  60.927 104.036
 6794DG     SC144191  69.327  60.998 104.328
 6794DG     SC244192  69.101  61.166 104.425
 6794DG     SC344193  69.289  61.107 104.645
 6794DG     SC444194  69.445  60.989 104.436
 6795DA     BB144195  69.249  60.922 103.714
 6795DA     BB244196  68.995  61.167 103.815
 6795DA     BB344197  69.078  61.364 103.815
 6795DA     SC144198  69.168  61.352 104.113
 6795DA     SC244199  69.104  61.458 104.329
 6795DA     SC344200  69.337  61.388 104.409
 6795DA     SC444201  69.318  61.302 104.143
 6796DG     BB144202  68.861  61.431 103.599
 6796DG     BB244203  68.735  61.650 103.857
 6796DG     BB344204  68.834  61.823 103.853
 6796DG     SC144205  69.052  61.732 104.048
 6796DG     SC244206  69.097  61.838 104.323
 6796DG     SC344207  69.318  61.658 104.242
 6796DG     SC444208  69.182  61.659 103.990
 6797DT     BB144209  68.734  62.024 103.807
 6797DT     BB244210  68.721  62.174 104.135
 6797DT     BB344211  68.864  62.322 104.151
 6797DT     SC144212  69.057  62.145 104.171
 6797DT     SC244213  69.137  62.149 104.370
 6797DT     SC344214  69.274  62.008 104.113
 6798DT     BB144215  68.677  62.526 104.139
 6798DT     BB244216  68.853  62.586 104.448
 6798DT     BB344217  69.017  62.707 104.413
 6798DT     SC144218  69.150  62.508 104.304
 6798DT     SC244219  69.311  62.450 104.434
 6798DT     SC344220  69.276  62.364 104.123
 6799DT     BB144221  68.905  62.938 104.528
 6799DT     BB244222  69.210  62.889 104.713
 6799DT     BB344223  69.366  62.990 104.621
 6799DT     SC144224  69.380  62.812 104.430
 6799DT     SC244225  69.563  62.700 104.450
 6799DT     SC344226  69.371  62.705 104.188
 6800DT     BB144227  69.381  63.199 104.813
 6800DT     BB244228  69.712  63.053 104.813
 6800DT     BB344229  69.832  63.152 104.676
 6800DT     SC144230  69.713  63.035 104.474
 6800DT     SC244231  69.849  62.896 104.382
 6800DT     SC344232  69.571  63.003 104.254
 6801DA     BB144233  70.041  63.161 105.038
 6801DA     BB244234  70.267  63.027 104.782
 6801DA     BB344235  70.339  63.184 104.658
 6801DA     SC144236  70.109  63.159 104.450
 6801DA     SC244237  70.080  63.083 104.214
 6801DA     SC344238  69.864  63.221 104.218
 6801DA     SC444239  69.979  63.251 104.472
 6802DG     BB144240  70.599  63.069 104.773
 6802DG     BB244241  70.648  62.973 104.428
 6802DG     BB344242  70.711  63.129 104.322
 6802DG     SC144243  70.430  63.224 104.248
 6802DG     SC244244  70.312  63.225 103.974
 6802DG     SC344245  70.136  63.367 104.165
 6802DG     SC444246  70.354  63.325 104.346
 6803DT     BB144247  70.891  63.099 104.236
 6803DT     BB244248  70.798  63.049 103.891
 6803DT     BB344249  70.821  63.226 103.785
 6803DT     SC144250  70.606  63.329 103.893
 6803DT     SC244251  70.452  63.346 103.744
 6803DT     SC344252  70.451  63.490 104.034
 6804DT     BB144253  71.018  63.094 103.672
 6804DT     BB244254  70.796  63.189 103.403
 6804DT     BB344255  70.831  63.385 103.349
 6804DT     SC144256  70.710  63.475 103.563
 6804DT     SC244257  70.525  63.569 103.507
 6804DT     SC344258  70.672  63.596 103.795
 6805DG     BB144259  70.865  63.134 103.029
 6805DG     BB244260  70.635  63.406 102.965
 6805DG     BB344261  70.737  63.575 102.936
 6805DG     SC144262  70.738  63.655 103.231
 6805DG     SC244263  70.596  63.889 103.350
 6805DG     SC344264  70.775  63.763 103.548
 6805DG     SC444265  70.856  63.603 103.325
 6806DA     BB144266  70.535  63.587 102.657
 6806DA     BB244267  70.403  63.908 102.773
 6806DA     BB344268  70.550  64.062 102.751
 6806DA     SC144269  70.670  64.022 103.035
 6806DA     SC244270  70.678  64.147 103.251
 6806DA     SC344271  70.880  63.998 103.305
 6806DA     SC444272  70.794  63.921 103.050
 6807DA     BB144273  70.281  64.177 102.606
 6807DA     BB244274  70.299  64.449 102.851
 6807DA     BB344275  70.466  64.576 102.809
 6807DA     SC144276  70.663  64.417 102.989
 6807DA     SC244277  70.785  64.451 103.204
 6807DA     SC344278  70.940  64.264 103.122
 6807DA     SC444279  70.749  64.300 102.920
 6808DA     BB144280  70.201  64.764 102.842
 6808DA     BB244281  70.386  64.926 103.114
 6808DA     BB344282  70.554  65.033 103.036
 6808DA     SC144283  70.750  64.793 103.061
 6808DA     SC244284  70.947  64.729 103.200
 6808DA     SC344285  71.000  64.563 103.012
 6808DA     SC444286  70.767  64.697 102.933
 6809DC     BB144287  70.520  65.192 103.078
 6809DC     BB244288  70.775  65.229 103.332
 6809DC     BB344289  70.949  65.301 103.247
 6809DC     SC144290  71.002  65.067 103.140
 6809DC     SC244291  71.173  64.980 103.238
 6809DC     SC344292  71.045  64.882 102.957
 6810DG     BB144293  70.819  65.522 103.567
 6810DG     BB244294  71.169  65.436 103.592
 6810DG     BB344295  71.274  65.539 103.458
 6810DG     SC144296  71.246  65.328 103.238
 6810DG     SC244297  71.467  65.163 103.123
 6810DG     SC344298  71.218  65.128 102.968
 6810DG     SC444299  71.120  65.334 103.140
 6811DT     BB144300  71.418  65.669 103.530
 6811DT     BB244301  71.730  65.516 103.433
 6811DT     BB344302  71.797  65.598 103.255
 6811DT     SC144303  71.617  65.466 103.117
 6811DT     SC244304  71.714  65.316 102.998
 6811DT     SC344305  71.409  65.418 102.962
 6812DA     BB144306  72.138  65.671 103.495
 6812DA     BB244307  72.263  65.542 103.175
 6812DA     BB344308  72.256  65.694 103.026
 6812DA     SC144309  71.969  65.621 102.930
 6812DA     SC244310  71.861  65.521 102.729
 6812DA     SC344311  71.646  65.631 102.814
 6812DA     SC444312  71.846  65.699 102.998
 6813DC     BB144313  72.439  65.832 102.907
 6813DC     BB244314  72.412  65.671 102.585
 6813DC     BB344315  72.343  65.805 102.444
 6813DC     SC144316  72.099  65.792 102.540
 6813DC     SC244317  71.972  65.691 102.399
 6813DC     SC344318  71.872  65.866 102.653
 6814DT     BB144319  72.592  65.888 102.286
 6814DT     BB244320  72.369  65.775 102.025
 6814DT     BB344321  72.273  65.937 101.939
 6814DT     SC144322  72.116  65.965 102.147
 6814DT     SC244323  71.915  65.911 102.093
 6814DT     SC344324  72.003  66.072 102.360
 6815DT     BB144325  72.419  65.966 101.680
 6815DT     BB244326  72.076  65.929 101.576
 6815DT     BB344327  71.992  66.116 101.543
 6815DT     SC144328  71.974  66.161 101.801
 6815DT     SC244329  71.767  66.160 101.859
 6815DT     SC344330  72.013  66.273 102.036
 6816DT     BB144331  71.990  66.108 101.255
 6816DT     BB244332  71.644  66.160 101.341
 6816DT     BB344333  71.600  66.362 101.340
 6816DT     SC144334  71.727  66.398 101.567
 6816DT     SC244335  71.584  66.443 101.722
 6816DT     SC344336  71.905  66.485 101.741
 6817DT     BB144337  71.453  66.349 101.103
 6817DT     BB244338  71.220  66.482 101.345
 6817DT     BB344339  71.230  66.689 101.345
 6817DT     SC144340  71.458  66.686 101.474
 6817DT     SC244341  71.429  66.761 101.673
 6817DT     SC344342  71.715  66.722 101.525
 6818DT     BB144343  70.985  66.706 101.222
 6818DT     BB244344  70.944  66.891 101.529
 6818DT     BB344345  70.997  67.089 101.500
 6818DT     SC144346  71.252  67.028 101.497
 6818DT     SC244347  71.346  67.106 101.675
 6818DT     SC344348  71.499  66.999 101.410
 6819DA     BB144349  70.618  67.078 101.676
 6819DA     BB244350  70.825  67.312 101.868
 6819DA     BB344351  70.853  67.493 101.759
 6819DA     SC144352  71.113  67.396 101.619
 6819DA     SC244353  71.357  67.448 101.626
 6819DA     SC344354  71.367  67.339 101.394
 6819DA     SC444355  71.099  67.326 101.475
 6820DT     BB144356  70.772  67.656 101.837
 6820DT     BB244357  71.079  67.805 101.954
 6820DT     BB344358  71.134  67.961 101.830
 6820DT     SC144359  71.213  67.794 101.643
 6820DT     SC244360  71.427  67.803 101.625
 6820DT     SC344361  71.224  67.668 101.411
 6821DA     BB144362  71.140  68.092 102.226
 6821DA     BB244363  71.455  68.193 102.069
 6821DA     BB344364  71.421  68.354 101.933
 6821DA     SC144365  71.373  68.169 101.688
 6821DA     SC244366  71.489  68.109 101.475
 6821DA     SC344367  71.258  68.029 101.396
 6821DA     SC444368  71.221  68.125 101.656
 6822DC     BB144369  71.508  68.506 101.989
 6822DC     BB244370  71.769  68.505 101.740
 6822DC     BB344371  71.721  68.634 101.586
 6822DC     SC144372  71.544  68.466 101.490
 6822DC     SC244373  71.614  68.386 101.303
 6822DC     SC344374  71.311  68.366 101.416
 6823DA     BB144375  72.110  68.723 101.717
 6823DA     BB244376  72.115  68.705 101.351
 6823DA     BB344377  72.016  68.874 101.267
 6823DA     SC144378  71.737  68.736 101.258
 6823DA     SC244379  71.580  68.650 101.085
 6823DA     SC344380  71.400  68.669 101.267
 6823DA     SC444381  71.640  68.757 101.384
 6824DT     BB144382  72.123  69.017 101.160
 6824DT     BB244383  72.002  68.930 100.831
 6824DT     BB344384  71.866  69.072 100.766
 6824DT     SC144385  71.680  68.980 100.927
 6824DT     SC244386  71.526  68.886 100.811
 6824DT     SC344387  71.504  68.970 101.124
 6825DT     BB144388  72.040  69.195 100.582
 6825DT     BB244389  71.753  69.108 100.382
 6825DT     BB344390  71.617  69.264 100.381
 6825DT     SC144391  71.541  69.210 100.626
 6825DT     SC244392  71.340  69.133 100.623
 6825DT     SC344393  71.500  69.239 100.885
 6826DT     BB144394  71.669  69.360 100.115
 6826DT     BB244395  71.315  69.293 100.113
 6826DT     BB344396  71.210  69.465 100.163
 6826DT     SC144397  71.277  69.442 100.415
 6826DT     SC244398  71.102  69.391 100.531
 6826DT     SC344399  71.384  69.497 100.650
 6827DT     BB144400  71.116  69.519  99.901
 6827DT     BB244401  70.815  69.490 100.099
 6827DT     BB344402  70.759  69.677 100.169
 6827DT     SC144403  70.952  69.676 100.348
 6827DT     SC244404  70.866  69.657 100.545
 6827DT     SC344405  71.171  69.745 100.477
 6828DT     BB144406  70.547  69.681  99.998
 6828DT     BB244407  70.401  69.707 100.326
 6828DT     BB344408  70.389  69.906 100.383
 6828DT     SC144409  70.647  69.916 100.429
 6828DT     SC244410  70.682  69.934 100.641
 6828DT     SC344411  70.901  69.986 100.408
 6829DC     BB144412  70.133  69.862 100.357
 6829DC     BB244413  70.181  69.959 100.701
 6829DC     BB344414  70.191  70.165 100.715
 6829DC     SC144415  70.434  70.168 100.616
 6829DC     SC244416  70.574  70.224 100.770
 6829DC     SC344417  70.634  70.218 100.451
 6830DT     BB144418  69.977  70.103 100.839
 6830DT     BB244419  70.183  70.277 101.077
 6830DT     BB344420  70.180  70.480 101.039
 6830DT     SC144421  70.337  70.451 100.830
 6830DT     SC244422  70.529  70.538 100.873
 6830DT     SC344423  70.420  70.454 100.580
 6831DC     BB144424  70.065  70.455 101.265
 6831DC     BB244425  70.335  70.689 101.315
 6831DC     BB344426  70.286  70.872 101.233
 6831DC     SC144427  70.326  70.782 100.990
 6831DC     SC244428  70.501  70.875 100.907
 6831DC     SC344429  70.277  70.711 100.740
 6832DA     BB144430  70.443  70.904 101.626
 6832DA     BB244431  70.595  71.161 101.414
 6832DA     BB344432  70.449  71.303 101.353
 6832DA     SC144433  70.374  71.150 101.092
 6832DA     SC244434  70.401  71.180 100.846
 6832DA     SC344435  70.208  71.012 100.825
 6832DA     SC444436  70.252  71.045 101.100
 6833DG     BB144437  70.635  71.506 101.500
 6833DG     BB244438  70.660  71.655 101.171
 6833DG     BB344439  70.498  71.763 101.133
 6833DG     SC144440  70.341  71.532 101.009
 6833DG     SC244441  70.259  71.509 100.723
 6833DG     SC344442  70.133  71.296 100.886
 6833DG     SC444443  70.253  71.438 101.104
 6834DC     BB144444  70.496  71.993 101.102
 6834DC     BB244445  70.440  72.019 100.747
 6834DC     BB344446  70.244  72.076 100.710
 6834DC     SC144447  70.155  71.836 100.770
 6834DC     SC244448  70.083  71.740 100.591
 6834DC     SC344449  70.026  71.643 100.895
 6835DA     BB144450  70.471  72.359 100.498
 6835DA     BB244451  70.213  72.232 100.270
 6835DA     BB344452  70.023  72.315 100.320
 6835DA     SC144453  69.947  72.085 100.515
 6835DA     SC244454  69.785  71.895 100.523
 6835DA     SC344455  69.824  71.900 100.777
 6835DA     SC444456  69.983  72.104 100.671
 6836DG     BB144457  70.020  72.442 100.032
 6836DG     BB244458  69.738  72.220  99.984
 6836DG     BB344459  69.572  72.306 100.053
 6836DG     SC144460  69.602  72.195 100.336
 6836DG     SC244461  69.422  71.995 100.466
 6836DG     SC344462  69.613  72.107 100.662
 6836DG     SC444463  69.686  72.279 100.444
 6837DA     BB144464  69.429  72.238  99.743
 6837DA     BB244465  69.172  72.033  99.905
 6837DA     BB344466  69.026  72.158  99.998
 6837DA     SC144467  69.173  72.169 100.272
 6837DA     SC244468  69.139  72.083 100.503
 6837DA     SC344469  69.303  72.267 100.574
 6837DA     SC444470  69.275  72.291 100.296
 6838DA     BB144471  68.822  71.974  99.815
 6838DA     BB244472  68.669  71.865 100.130
 6838DA     BB344473  68.546  72.020 100.211
 6838DA     SC144474  68.775  72.147 100.379
 6838DA     SC244475  68.835  72.170 100.620
 6838DA     SC344476  68.984  72.365 100.543
 6838DA     SC444477  68.860  72.266 100.312
 6839DA     BB144478  68.317  71.782 100.210
 6839DA     BB244479  68.300  71.823 100.574
 6839DA     BB344480  68.192  72.001 100.624
 6839DA     SC144481  68.444  72.183 100.627
 6839DA     SC244482  68.581  72.306 100.795
 6839DA     SC344483  68.665  72.444 100.596
 6839DA     SC444484  68.483  72.258 100.490
 6840DC     BB144485  67.998  71.999 100.722
 6840DC     BB244486  68.116  72.104 101.047
 6840DC     BB344487  68.056  72.299 101.084
 6840DC     SC144488  68.236  72.394 100.918
 6840DC     SC244489  68.388  72.497 101.030
 6840DC     SC344490  68.341  72.517 100.710
 6841DG     BB144491  67.878  72.093 101.392
 6841DG     BB244492  68.080  72.366 101.518
 6841DG     BB344493  67.978  72.537 101.506
 6841DG     SC144494  68.075  72.605 101.224
 6841DG     SC244495  68.252  72.833 101.150
 6841DG     SC344496  68.145  72.701 100.909
 6841DG     SC444497  67.992  72.550 101.098
 6842DG     BB144498  67.998  72.587 101.835
 6842DG     BB244499  68.199  72.877 101.754
 6842DG     BB344500  68.081  73.035 101.723
 6842DG     SC144501  68.049  72.983 101.423
 6842DG     SC244502  68.154  73.155 101.203
 6842DG     SC344503  67.975  72.945 101.096
 6842DG     SC444504  67.930  72.888 101.373
 6843DA     BB144505  68.280  73.198 101.953
 6843DA     BB244506  68.377  73.441 101.696
 6843DA     BB344507  68.221  73.583 101.666
 6843DA     SC144508  68.083  73.418 101.441
 6843DA     SC244509  68.048  73.435 101.194
 6843DA     SC344510  67.855  73.270 101.231
 6843DA     SC444511  67.966  73.316 101.484
 6844DC     BB144512  68.263  73.767 101.715
 6844DC     BB244513  68.303  73.892 101.379
 6844DC     BB344514  68.136  74.001 101.324
 6844DC     SC144515  67.993  73.783 101.293
 6844DC     SC244516  67.952  73.754 101.084
 6844DC     SC344517  67.804  73.603 101.330
 6845DA     BB144518  68.480  74.228 101.248
 6845DA     BB244519  68.270  74.233 100.947
 6845DA     BB344520  68.098  74.356 100.978
 6845DA     SC144521  67.921  74.123 101.083
 6845DA     SC244522  67.724  73.991 101.006
 6845DA     SC344523  67.692  73.931 101.253
 6845DA     SC444524  67.918  74.097 101.242
 6846DC     BB144525  68.090  74.515 100.868
 6846DC     BB244526  67.832  74.398 100.644
 6846DC     BB344527  67.651  74.484 100.694
 6846DC     SC144528  67.626  74.328 100.903
 6846DC     SC244529  67.466  74.188 100.869
 6846DC     SC344530  67.605  74.252 101.155
 6847DA     BB144531  67.720  74.539 100.284
 6847DA     BB244532  67.381  74.405 100.326
 6847DA     BB344533  67.251  74.554 100.407
 6847DA     SC144534  67.306  74.475 100.703
 6847DA     SC244535  67.183  74.369 100.892
 6847DA     SC344536  67.359  74.479 101.042
 6847DA     SC444537  67.424  74.553 100.780
 6848DC     BB144538  67.113  74.606 100.289
 6848DC     BB244539  66.845  74.435 100.459
 6848DC     BB344540  66.735  74.569 100.572
 6848DC     SC144541  66.925  74.584 100.753
 6848DC     SC244542  66.857  74.490 100.934
 6848DC     SC344543  67.115  74.684 100.905
 6849DT     BB144544  66.548  74.525 100.393
 6849DT     BB244545  66.400  74.438 100.710
 6849DT     BB344546  66.330  74.608 100.805
 6849DT     SC144547  66.574  74.682 100.868
 6849DT     SC244548  66.601  74.664 101.081
 6849DT     SC344549  66.796  74.824 100.877
 6850DT     BB144550  66.102  74.497 100.752
 6850DT     BB244551  66.107  74.544 101.110
 6850DT     BB344552  66.060  74.741 101.156
 6850DT     SC144553  66.297  74.823 101.079
 6850DT     SC244554  66.409  74.887 101.251
 6850DT     SC344555  66.483  74.950 100.941
 6851DA     BB144556  65.837  74.468 101.387
 6851DA     BB244557  65.968  74.730 101.608
 6851DA     BB344558  65.872  74.916 101.568
 6851DA     SC144559  66.082  75.006 101.357
 6851DA     SC244560  66.262  75.178 101.337
 6851DA     SC344561  66.240  75.142 101.084
 6851DA     SC444562  66.053  74.971 101.203
 6852DT     BB144563  65.772  74.972 101.710
 6852DT     BB244564  65.981  75.249 101.811
 6852DT     BB344565  65.908  75.425 101.730
 6852DT     SC144566  65.998  75.363 101.492
 6852DT     SC244567  66.161  75.493 101.441
 6852DT     SC344568  65.999  75.302 101.235
 6853DT     BB144569  65.814  75.507 101.973
 6853DT     BB244570  66.024  75.779 101.864
 6853DT     BB344571  65.915  75.909 101.746
 6853DT     SC144572  65.919  75.742 101.543
 6853DT     SC244573  66.044  75.822 101.387
 6853DT     SC344574  65.834  75.577 101.356
 6854DA     BB144575  66.077  76.161 102.041
 6854DA     BB244576  66.144  76.317 101.716
 6854DA     BB344577  65.967  76.405 101.638
 6854DA     SC144578  65.878  76.150 101.484
 6854DA     SC244579  65.858  76.075 101.247
 6854DA     SC344580  65.697  75.897 101.339
 6854DA     SC444581  65.780  76.048 101.560
 6855DA     BB144582  66.146  76.683 101.619
 6855DA     BB244583  66.097  76.669 101.256
 6855DA     BB344584  65.902  76.740 101.204
 6855DA     SC144585  65.769  76.459 101.221
 6855DA     SC244586  65.670  76.292 101.064
 6855DA     SC344587  65.552  76.198 101.271
 6855DA     SC444588  65.704  76.416 101.361
 6856DT     BB144589  65.886  76.912 101.096
 6856DT     BB244590  65.805  76.753 100.782
 6856DT     BB344591  65.604  76.779 100.740
 6856DT     SC144592  65.535  76.600 100.920
 6856DT     SC244593  65.457  76.426 100.821
 6856DT     SC344594  65.427  76.495 101.136
 6857DT     BB144595  65.688  76.939 100.548
 6857DT     BB244596  65.497  76.682 100.382
 6857DT     BB344597  65.295  76.727 100.390
 6857DT     SC144598  65.282  76.660 100.643
 6857DT     SC244599  65.167  76.480 100.664
 6857DT     SC344600  65.249  76.681 100.904
 6858DA     BB144601  65.425  76.620 100.004
 6858DA     BB244602  65.121  76.430 100.084
 6858DA     BB344603  64.953  76.561 100.092
 6858DA     SC144604  64.982  76.619 100.396
 6858DA     SC244605  64.860  76.565 100.607
 6858DA     SC344606  64.986  76.765 100.707
 6858DA     SC444607  65.069  76.747 100.440
 6859DC     BB144608  64.838  76.516  99.963
 6859DC     BB244609  64.582  76.372 100.172
 6859DC     BB344610  64.436  76.513 100.213
 6859DC     SC144611  64.593  76.637 100.383
 6859DC     SC244612  64.518  76.610 100.583
 6859DC     SC344613  64.740  76.827 100.492
 6860DT     BB144614  64.279  76.372 100.053
 6860DT     BB244615  64.098  76.395 100.364
 6860DT     BB344616  63.998  76.577 100.374
 6860DT     SC144617  64.221  76.706 100.422
 6860DT     SC244618  64.220  76.778 100.625
 6860DT     SC344619  64.423  76.873 100.391
 6861DG     BB144620  63.694  76.302 100.403
 6861DG     BB244621  63.671  76.548 100.667
 6861DG     BB344622  63.589  76.715 100.597
 6861DG     SC144623  63.855  76.841 100.514
 6861DG     SC244624  63.981  77.083 100.635
 6861DG     SC344625  64.127  76.999 100.392
 6861DG     SC444626  63.912  76.811 100.367
 6862DT     BB144627  63.367  76.824 100.654
 6862DT     BB244628  63.480  77.100 100.857
 6862DT     BB344629  63.453  77.279 100.755
 6862DT     SC144630  63.657  77.229 100.598
 6862DT     SC244631  63.817  77.365 100.644
 6862DT     SC344632  63.795  77.180 100.379
 6863DA     BB144633  63.241  77.359 101.110
 6863DA     BB244634  63.470  77.640 101.057
 6863DA     BB344635  63.391  77.773 100.910
 6863DA     SC144636  63.530  77.630 100.671
 6863DA     SC244637  63.715  77.677 100.510
 6863DA     SC344638  63.607  77.495 100.365
 6863DA     SC444639  63.448  77.515 100.595
 6864DA     BB144640  63.426  78.004 101.141
 6864DA     BB244641  63.670  78.165 100.920
 6864DA     BB344642  63.571  78.277 100.769
 6864DA     SC144643  63.561  78.041 100.566
 6864DA     SC244644  63.666  77.980 100.349
 6864DA     SC344645  63.469  77.818 100.322
 6864DA     SC444646  63.429  77.948 100.567
 6865DT     BB144647  63.596  78.474 100.773
 6865DT     BB244648  63.827  78.490 100.496
 6865DT     BB344649  63.731  78.564 100.328
 6865DT     SC144650  63.604  78.338 100.290
 6865DT     SC244651  63.680  78.242 100.114
 6865DT     SC344652  63.406  78.165 100.268
 6866DA     BB144653  64.096  78.757 100.403
 6866DA     BB244654  64.086  78.657 100.050
 6866DA     BB344655  63.944  78.775  99.944
 6866DA     SC144656  63.708  78.579  99.993
 6866DA     SC244657  63.567  78.422  99.860
 6866DA     SC344658  63.399  78.441 100.052
 6866DA     SC444659  63.615  78.606 100.122
 6867DA     BB144660  64.222  78.791  99.772
 6867DA     BB244661  64.027  78.651  99.494
 6867DA     BB344662  63.886  78.794  99.423
 6867DA     SC144663  63.659  78.701  99.613
 6867DA     SC244664  63.439  78.583  99.595
 6867DA     SC344665  63.388  78.687  99.824
 6867DA     SC444666  63.645  78.775  99.755
 6868DT     BB144667  63.923  78.846  99.250
 6868DT     BB244668  63.647  78.680  99.088
 6868DT     BB344669  63.492  78.814  99.057
 6868DT     SC144670  63.427  78.810  99.311
 6868DT     SC244671  63.237  78.711  99.334
 6868DT     SC344672  63.385  78.893  99.557
 6869DG     BB144673  63.588  78.671  98.685
 6869DG     BB244674  63.232  78.651  98.744
 6869DG     BB344675  63.149  78.830  98.720
 6869DG     SC144676  63.185  78.914  99.012
 6869DG     SC244677  62.966  78.960  99.210
 6869DG     SC344678  63.227  79.046  99.319
 6869DG     SC444679  63.321  78.986  99.056
 6870DA     BB144680  62.908  78.716  98.482
 6870DA     BB244681  62.632  78.823  98.697
 6870DA     BB344682  62.598  79.032  98.676
 6870DA     SC144683  62.792  79.112  98.906
 6870DA     SC244684  62.777  79.206  99.136
 6870DA     SC344685  63.023  79.270  99.105
 6870DA     SC444686  62.945  79.144  98.867
 6871DC     BB144687  62.411  79.147  98.575
 6871DC     BB244688  62.260  79.254  98.885
 6871DC     BB344689  62.271  79.460  98.901
 6871DC     SC144690  62.528  79.450  98.956
 6871DC     SC244691  62.558  79.507  99.162
 6871DC     SC344692  62.788  79.486  98.934
 6872DG     BB144693  61.863  79.408  98.907
 6872DG     BB244694  61.971  79.598  99.195
 6872DG     BB344695  61.989  79.790  99.146
 6872DG     SC144696  62.282  79.766  99.061
 6872DG     SC244697  62.516  79.891  99.199
 6872DG     SC344698  62.598  79.772  98.941
 6872DG     SC444699  62.316  79.727  98.910
 6873DA     BB144700  61.780  79.879  99.411
 6873DA     BB244701  62.054  80.067  99.568
 6873DA     BB344702  62.072  80.259  99.478
 6873DA     SC144703  62.276  80.166  99.262
 6873DA     SC244704  62.517  80.199  99.210
 6873DA     SC344705  62.455  80.123  98.972
 6873DA     SC444706  62.217  80.118  99.120
 6874DT     BB144707  62.032  80.428  99.590
 6874DT     BB244708  62.376  80.524  99.641
 6874DT     BB344709  62.421  80.690  99.526
 6874DT     SC144710  62.427  80.547  99.306
 6874DT     SC244711  62.630  80.535  99.235
 6874DT     SC344712  62.364  80.458  99.066
 6875DT     BB144713  62.431  80.834  99.754
 6875DT     BB244714  62.757  80.872  99.605
 6875DT     BB344715  62.755  81.029  99.470
 6875DT     SC144716  62.623  80.886  99.294
 6875DT     SC244717  62.751  80.841  99.127
 6875DT     SC344718  62.429  80.808  99.133
 6876DA     BB144719  63.077  81.064  99.735
 6876DA     BB244720  63.204  81.103  99.393
 6876DA     BB344721  63.141  81.290  99.312
 6876DA     SC144722  62.879  81.176  99.189
 6876DA     SC244723  62.787  81.129  98.962
 6876DA     SC344724  62.558  81.132  99.077
 6876DA     SC444725  62.746  81.184  99.278
 6877DT     BB144726  63.285  81.404  99.277
 6877DT     BB244727  63.281  81.372  98.918
 6877DT     BB344728  63.188  81.537  98.834
 6877DT     SC144729  62.952  81.450  98.906
 6877DT     SC244730  62.841  81.390  98.732
 6877DT     SC344731  62.718  81.439  99.027
 6878DA     BB144732  63.557  81.456  98.650
 6878DA     BB244733  63.304  81.504  98.389
 6878DA     BB344734  63.244  81.709  98.380
 6878DA     SC144735  63.011  81.674  98.583
 6878DA     SC244736  62.761  81.677  98.580
 6878DA     SC344737  62.779  81.720  98.832
 6878DA     SC444738  63.042  81.702  98.738
 6879DT     BB144739  63.291  81.785  98.220
 6879DT     BB244740  62.959  81.807  98.079
 6879DT     BB344741  62.884  81.998  98.105
 6879DT     SC144742  62.841  81.955  98.360
 6879DT     SC244743  62.629  81.947  98.396
 6879DT     SC344744  62.858  81.979  98.622
 6880DG     BB144745  62.876  81.894  97.711
 6880DG     BB244746  62.556  82.020  97.823
 6880DG     BB344747  62.565  82.218  97.843
 6880DG     SC144748  62.655  82.209  98.135
 6880DG     SC244749  62.497  82.301  98.371
 6880DG     SC344750  62.774  82.236  98.449
 6880DG     SC444751  62.812  82.202  98.168
 6881DA     BB144752  62.277  82.223  97.647
 6881DA     BB244753  62.099  82.405  97.911
 6881DA     BB344754  62.165  82.608  97.918
 6881DA     SC144755  62.390  82.553  98.125
 6881DA     SC244756  62.438  82.605  98.364
 6881DA     SC344757  62.682  82.556  98.305
 6881DA     SC444758  62.537  82.519  98.068
 6882DC     BB144759  62.036  82.757  97.865
 6882DC     BB244760  61.980  82.891  98.195
 6882DC     BB344761  62.086  83.068  98.219
 6882DC     SC144762  62.313  82.938  98.242
 6882DC     SC244763  62.384  82.954  98.445
 6882DC     SC344764  62.557  82.853  98.190
 6883DT     BB144765  61.862  83.236  98.198
 6883DT     BB244766  62.012  83.333  98.511
 6883DT     BB344767  62.149  83.485  98.480
 6883DT     SC144768  62.323  83.318  98.377
 6883DT     SC244769  62.490  83.296  98.511
 6883DT     SC344770  62.483  83.202  98.201
 6884DT     BB144771  61.990  83.694  98.585
 6884DT     BB244772  62.294  83.715  98.777
 6884DT     BB344773  62.427  83.845  98.686
 6884DT     SC144774  62.483  83.669  98.499
 6884DT     SC244775  62.685  83.598  98.526
 6884DT     SC344776  62.502  83.557  98.261
 6885DA     BB144777  62.399  83.999  99.075
 6885DA     BB244778  62.756  83.968  98.997
 6885DA     BB344779  62.818  84.126  98.868
 6885DA     SC144780  62.759  83.969  98.606
 6885DA     SC244781  62.888  83.865  98.420
 6885DA     SC344782  62.669  83.879  98.287
 6885DA     SC444783  62.613  83.988  98.540
 6886DA     BB144784  63.044  84.179  99.102
 6886DA     BB244785  63.298  84.103  98.849
 6886DA     BB344786  63.328  84.270  98.720
 6886DA     SC144787  63.113  84.180  98.514
 6886DA     SC244788  63.106  84.094  98.280
 6886DA     SC344789  62.862  84.170  98.280
 6886DA     SC444790  62.963  84.236  98.533
 6887DT     BB144791  63.508  84.366  98.724
 6887DT     BB244792  63.631  84.234  98.412
 6887DT     BB344793  63.625  84.381  98.266
 6887DT     SC144794  63.365  84.359  98.243
 6887DT     SC244795  63.316  84.272  98.053
 6887DT     SC344796  63.109  84.423  98.251
 6888DT     BB144797  63.895  84.394  98.275
 6888DT     BB244798  63.820  84.316  97.931
 6888DT     BB344799  63.785  84.490  97.825
 6888DT     SC144800  63.548  84.519  97.935
 6888DT     SC244801  63.396  84.485  97.788
 6888DT     SC344802  63.352  84.623  98.078
 6889DA     BB144803  64.067  84.261  97.617
 6889DA     BB244804  63.808  84.365  97.379
 6889DA     BB344805  63.826  84.573  97.337
 6889DA     SC144806  63.635  84.662  97.565
 6889DA     SC244807  63.407  84.761  97.587
 6889DA     SC344808  63.482  84.830  97.823
 6889DA     SC444809  63.701  84.697  97.708
 6890DC     BB144810  63.876  84.620  97.153
 6890DC     BB244811  63.552  84.741  97.049
 6890DC     BB344812  63.552  84.948  97.046
 6890DC     SC144813  63.542  84.960  97.308
 6890DC     SC244814  63.349  85.034  97.369
 6890DC     SC344815  63.612  85.011  97.557
 6891DT     BB144816  63.552  84.948  96.773
 6891DT     BB244817  63.261  85.142  96.862
 6891DT     BB344818  63.313  85.341  96.888
 6891DT     SC144819  63.427  85.289  97.118
 6891DT     SC244820  63.310  85.376  97.277
 6891DT     SC344821  63.614  85.265  97.303
 6892DA     BB144822  62.992  85.338  96.619
 6892DA     BB244823  62.919  85.588  96.877
 6892DA     BB344824  63.038  85.762  96.848
 6892DA     SC144825  63.272  85.662  97.028
 6892DA     SC244826  63.372  85.719  97.249
 6892DA     SC344827  63.580  85.595  97.164
 6892DA     SC444828  63.391  85.582  96.957
 6893DC     BB144829  62.948  85.939  96.795
 6893DC     BB244830  62.984  86.105  97.114
 6893DC     BB344831  63.133  86.249  97.102
 6893DC     SC144832  63.321  86.066  97.106
 6893DC     SC244833  63.427  86.077  97.293
 6893DC     SC344834  63.524  85.917  97.028
 6894DT     BB144835  62.950  86.456  97.104
 6894DT     BB244836  63.169  86.531  97.381
 6894DT     BB344837  63.329  86.645  97.315
 6894DT     SC144838  63.441  86.437  97.201
 6894DT     SC244839  63.619  86.384  97.310
 6894DT     SC344840  63.538  86.279  97.014
 6895DA     BB144841  63.170  86.868  97.634
 6895DA     BB244842  63.533  86.848  97.686
 6895DA     BB344843  63.634  86.980  97.553
 6895DA     SC144844  63.667  86.769  97.327
 6895DA     SC244845  63.851  86.639  97.221
 6895DA     SC344846  63.690  86.608  97.025
 6895DA     SC444847  63.552  86.762  97.215
 6896DA     BB144848  63.776  87.114  97.823
 6896DA     BB244849  64.101  87.011  97.687
 6896DA     BB344850  64.166  87.149  97.538
 6896DA     SC144851  64.032  86.995  97.302
 6896DA     SC244852  64.104  86.860  97.106
 6896DA     SC344853  63.870  86.909  97.012
 6896DA     SC444854  63.883  87.038  97.261
 6897DG     BB144855  64.424  87.225  97.710
 6897DG     BB244856  64.605  87.075  97.435
 6897DG     BB344857  64.643  87.212  97.296
 6897DG     SC144858  64.383  87.163  97.142
 6897DG     SC244859  64.361  87.048  96.867
 6897DG     SC344860  64.100  87.151  96.960
 6897DG     SC444861  64.252  87.246  97.183
 6898DA     BB144862  64.984  87.133  97.305
 6898DA     BB244863  64.974  87.030  96.953
 6898DA     BB344864  64.986  87.200  96.826
 6898DA     SC144865  64.678  87.241  96.810
 6898DA     SC244866  64.496  87.217  96.641
 6898DA     SC344867  64.361  87.374  96.793
 6898DA     SC444868  64.610  87.340  96.918
 6899DA     BB144869  65.236  87.034  96.698
 6899DA     BB244870  65.046  87.022  96.385
 6899DA     BB344871  65.060  87.208  96.282
 6899DA     SC144872  64.808  87.330  96.417
 6899DA     SC244873  64.576  87.394  96.351
 6899DA     SC344874  64.578  87.540  96.562
 6899DA     SC444875  64.829  87.415  96.552
 6900DG     BB144876  65.181  87.023  96.070
 6900DG     BB244877  64.885  87.120  95.886
 6900DG     BB344878  64.913  87.297  95.800
 6900DG     SC144879  64.809  87.458  96.039
 6900DG     SC244880  64.560  87.623  96.045
 6900DG     SC344881  64.720  87.666  96.290
 6900DG     SC444882  64.911  87.501  96.155
 6901DT     BB144883  64.897  87.294  95.598
 6901DT     BB244884  64.579  87.455  95.545
 6901DT     BB344885  64.608  87.654  95.494
 6901DT     SC144886  64.669  87.717  95.741
 6901DT     SC244887  64.512  87.838  95.825
 6901DT     SC344888  64.809  87.800  95.949
 6902DA     BB144889  64.335  87.447  95.248
 6902DA     BB244890  64.188  87.769  95.346
 6902DA     BB344891  64.296  87.930  95.256
 6902DA     SC144892  64.494  87.961  95.494
 6902DA     SC244893  64.541  88.127  95.675
 6902DA     SC344894  64.772  88.015  95.689
 6902DA     SC444895  64.633  87.880  95.486
 6903DT     BB144896  64.186  88.013  95.148
 6903DT     BB244897  64.144  88.315  95.341
 6903DT     BB344898  64.277  88.459  95.276
 6903DT     SC144899  64.479  88.338  95.392
 6903DT     SC244900  64.547  88.456  95.559
 6903DT     SC344901  64.707  88.209  95.423
 6904DA     BB144902  63.891  88.624  95.295
 6904DA     BB244903  64.125  88.860  95.451
 6904DA     BB344904  64.249  88.950  95.303
 6904DA     SC144905  64.472  88.734  95.325
 6904DA     SC244906  64.707  88.719  95.408
 6904DA     SC344907  64.725  88.511  95.259
 6904DA     SC444908  64.464  88.609  95.225
 6905DT     BB144909  64.226  89.143  95.272
 6905DT     BB244910  64.536  89.254  95.421
 6905DT     BB344911  64.674  89.297  95.273
 6905DT     SC144912  64.715  89.042  95.227
 6905DT     SC244913  64.913  88.989  95.293
 6905DT     SC344914  64.723  88.811  95.100
 6906DT     BB144915  64.649  89.569  95.310
 6906DT     BB244916  65.003  89.510  95.344
 6906DT     BB344917  65.094  89.520  95.158
 6906DT     SC144918  64.998  89.285  95.090
 6906DT     SC244919  65.159  89.143  95.080
 6906DT     SC344920  64.861  89.101  94.960
 6907DT     BB144921  65.214  89.773  95.196
 6907DT     BB244922  65.492  89.562  95.106
 6907DT     BB344923  65.519  89.564  94.901
 6907DT     SC144924  65.310  89.410  94.864
 6907DT     SC244925  65.375  89.217  94.796
 6907DT     SC344926  65.071  89.330  94.784
 6908DT     BB144927  65.750  89.733  94.894
 6908DT     BB244928  65.857  89.437  94.716
 6908DT     BB344929  65.822  89.460  94.514
 6908DT     SC144930  65.564  89.424  94.546
 6908DT     SC244931  65.507  89.235  94.459
 6908DT     SC344932  65.305  89.472  94.548
 6909DA     BB144933  66.234  89.370  94.515
 6909DA     BB244934  66.076  89.146  94.271
 6909DA     BB344935  66.037  89.250  94.089
 6909DA     SC144936  65.751  89.340  94.173
 6909DA     SC244937  65.516  89.289  94.110
 6909DA     SC344938  65.459  89.514  94.220
 6909DA     SC444939  65.737  89.483  94.245
 6910DA     BB144940  66.215  89.015  93.934
 6910DA     BB244941  65.908  88.921  93.757
 6910DA     BB344942  65.874  89.052  93.592
 6910DA     SC144943  65.704  89.254  93.755
 6910DA     SC244944  65.466  89.327  93.768
 6910DA     SC344945  65.558  89.538  93.882
 6910DA     SC444946  65.781  89.378  93.823
 6911DC     BB144947  65.884  88.984  93.385
 6911DC     BB244948  65.527  88.975  93.334
 6911DC     BB344949  65.471  89.127  93.205
 6911DC     SC144950  65.502  89.309  93.392
 6911DC     SC244951  65.310  89.386  93.449
 6911DC     SC344952  65.597  89.518  93.520
 6912DA     BB144953  65.312  88.762  93.076
 6912DA     BB244954  65.039  89.007  93.093
 6912DA     BB344955  65.056  89.148  92.934
 6912DA     SC144956  65.230  89.348  93.097
 6912DA     SC244957  65.205  89.575  93.198
 6912DA     SC344958  65.461  89.582  93.196
 6912DA     SC444959  65.390  89.334  93.086
 6913DA     BB144960  64.753  89.034  92.926
 6913DA     BB244961  64.649  89.381  92.982
 6913DA     BB344962  64.687  89.499  92.809
 6913DA     SC144963  64.973  89.582  92.898
 6913DA     SC244964  65.090  89.789  92.974
 6913DA     SC344965  65.306  89.668  92.906
 6913DA     SC444966  65.096  89.491  92.848
 6914DT     BB144967  64.532  89.552  92.757
 6914DT     BB244968  64.568  89.898  92.853
 6914DT     BB344969  64.637  90.009  92.693
 6914DT     SC144970  64.879  89.912  92.719
 6914DT     SC244971  65.012  90.067  92.788
 6914DT     SC344972  65.102  89.782  92.663
 6915DT     BB144973  64.397  90.108  92.707
 6915DT     BB244974  64.618  90.391  92.731
 6915DT     BB344975  64.686  90.444  92.543
 6915DT     SC144976  64.849  90.239  92.535
 6915DT     SC244977  65.052  90.308  92.547
 6915DT     SC344978  64.958  90.011  92.459
 6916DA     BB144979  64.538  90.790  92.731
 6916DA     BB244980  64.860  90.874  92.577
 6916DA     BB344981  64.842  90.878  92.365
 6916DA     SC144982  64.915  90.578  92.328
 6916DA     SC244983  65.105  90.445  92.236
 6916DA     SC344984  64.935  90.253  92.219
 6916DA     SC444985  64.794  90.472  92.324
 6917DC     BB144986  64.858  91.058  92.255
 6917DC     BB244987  65.179  90.993  92.103
 6917DC     BB344988  65.154  90.945  91.903
 6917DC     SC144989  65.065  90.706  91.964
 6917DC     SC244990  65.210  90.559  91.905
 6917DC     SC344991  64.901  90.500  91.985
 6918DC     BB144992  65.237  91.196  91.782
 6918DC     BB244993  65.446  90.953  91.616
 6918DC     BB344994  65.356  90.891  91.440
 6918DC     SC144995  65.182  90.745  91.572
 6918DC     SC244996  65.224  90.536  91.537
 6918DC     SC344997  64.952  90.657  91.665
 6919DG     BB144998  65.693  91.060  91.263
 6919DG     BB244999  65.650  90.720  91.149
 6919DG     BB345000  65.526  90.715  90.993
 6919DG     SC145001  65.274  90.682  91.164
 6919DG     SC245002  65.098  90.441  91.172
 6919DG     SC345003  64.976  90.665  91.321
 6919DG     SC445004  65.198  90.813  91.218
 6920DT     BB145005  65.565  90.649  90.740
 6920DT     BB245006  65.420  90.319  90.749
 6920DT     BB345007  65.248  90.314  90.634
 6920DT     SC145008  65.112  90.446  90.815
 6920DT     SC245009  64.967  90.316  90.906
 6920DT     SC345010  64.973  90.639  90.929
 6921DC     BB145011  65.363  90.163  90.426
 6921DC     BB245012  65.091  89.959  90.548
 6921DC     BB345013  64.919  89.999  90.440
 6921DC     SC145014  64.885  90.228  90.563
 6921DC     SC245015  64.713  90.216  90.692
 6921DC     SC345016  64.864  90.488  90.602
 6922DA     BB145017  64.997  89.591  90.464
 6922DA     BB245018  64.653  89.650  90.575
 6922DA     BB345019  64.528  89.698  90.409
 6922DA     SC145020  64.575  90.005  90.431
 6922DA     SC245021  64.444  90.207  90.495
 6922DA     SC345022  64.623  90.338  90.366
 6922DA     SC445023  64.695  90.068  90.345
 6923DA     BB145024  64.395  89.463  90.587
 6923DA     BB245025  64.115  89.697  90.631
 6923DA     BB345026  64.012  89.724  90.446
 6923DA     SC145027  64.185  89.967  90.358
 6923DA     SC245028  64.157  90.213  90.327
 6923DA     SC345029  64.365  90.199  90.179
 6923DA     SC445030  64.315  89.937  90.268
 6924DT     BB145031  63.857  89.666  90.480
 6924DT     BB245032  63.685  89.983  90.482
 6924DT     BB345033  63.609  90.023  90.294
 6924DT     SC145034  63.848  90.082  90.202
 6924DT     SC245035  63.859  90.293  90.162
 6924DT     SC345036  64.069  90.069  90.058
 6925DT     BB145037  63.382  89.983  90.416
 6925DT     BB245038  63.353  90.310  90.267
 6925DT     BB345039  63.304  90.293  90.067
 6925DT     SC145040  63.548  90.218  90.006
 6925DT     SC245041  63.645  90.374  89.893
 6925DT     SC345042  63.748  90.068  89.921
 6926DT     BB145043  63.057  90.382  90.126
 6926DT     BB245044  63.170  90.603  89.865
 6926DT     BB345045  63.131  90.520  89.680
 6926DT     SC145046  63.328  90.349  89.706
 6926DT     SC245047  63.485  90.399  89.568
 6926DT     SC345048  63.456  90.120  89.729
 6927DC     BB145049  62.920  90.693  89.629
 6927DC     BB245050  63.133  90.732  89.340
 6927DC     BB345051  63.081  90.594  89.195
 6927DC     SC145052  63.193  90.398  89.329
 6927DC     SC245053  63.369  90.332  89.225
 6927DC     SC345054  63.219  90.174  89.465
 6928DT     BB145055  62.952  90.779  89.024
 6928DT     BB245056  63.196  90.623  88.809
 6928DT     BB345057  63.113  90.459  88.715
 6928DT     SC145058  63.125  90.317  88.936
 6928DT     SC245059  63.273  90.162  88.913
 6928DT     SC345060  63.047  90.177  89.145
 6929DG     BB145061  63.214  90.693  88.393
 6929DG     BB245062  63.347  90.359  88.354
 6929DG     BB345063  63.207  90.238  88.280
 6929DG     SC145064  63.100  90.155  88.555
 6929DG     SC245065  63.118  89.882  88.675
 6929DG     SC345066  62.945  90.058  88.838
 6929DG     SC445067  62.985  90.243  88.623
 6930DA     BB145068  63.419  90.139  88.019
 6930DA     BB245069  63.406  89.790  88.133
 6930DA     BB345070  63.227  89.697  88.065
 6930DA     SC145071  63.062  89.773  88.318
 6930DA     SC245072  62.962  89.657  88.514
 6930DA     SC345073  62.814  89.866  88.536
 6930DA     SC445074  62.979  89.911  88.313
 6931DT     BB145075  63.227  89.537  87.919
 6931DT     BB245076  63.156  89.269  88.149
 6931DT     BB345077  62.963  89.199  88.119
 6931DT     SC145078  62.860  89.410  88.235
 6931DT     SC245079  62.772  89.353  88.423
 6931DT     SC345080  62.723  89.633  88.268
 6932DT     BB145081  63.067  88.974  88.013
 6932DT     BB245082  62.863  88.861  88.287
 6932DT     BB345083  62.666  88.838  88.225
 6932DT     SC145084  62.629  89.098  88.222
 6932DT     SC245085  62.494  89.152  88.381
 6932DT     SC345086  62.579  89.340  88.132
 6933DT     BB145087  62.704  88.574  88.246
 6933DT     BB245088  62.425  88.647  88.463
 6933DT     BB345089  62.249  88.649  88.354
 6933DT     SC145090  62.308  88.882  88.249
 6933DT     SC245091  62.175  89.032  88.328
 6933DT     SC345092  62.367  89.065  88.069
 6934DA     BB145093  62.208  88.407  88.694
 6934DA     BB245094  61.920  88.633  88.678
 6934DA     BB345095  61.791  88.577  88.517
 6934DA     SC145096  61.931  88.761  88.309
 6934DA     SC245097  61.880  88.969  88.182
 6934DA     SC345098  62.066  88.894  88.023
 6934DA     SC445099  62.050  88.697  88.221
 6935DC     BB145100  61.628  88.523  88.580
 6935DC     BB245101  61.438  88.811  88.474
 6935DC     BB345102  61.342  88.771  88.295
 6935DC     SC145103  61.566  88.792  88.161
 6935DC     SC245104  61.560  88.969  88.039
 6935DC     SC345105  61.773  88.726  88.010
 6936DA     BB145106  61.063  88.927  88.568
 6936DA     BB245107  61.020  89.101  88.248
 6936DA     BB345108  60.933  88.970  88.104
 6936DA     SC145109  61.207  88.867  87.997
 6936DA     SC245110  61.344  88.888  87.790
 6936DA     SC345111  61.463  88.676  87.872
 6936DA     SC445112  61.268  88.735  88.064
 6937DA     BB145113  60.711  89.213  88.072
 6937DA     BB245114  60.804  89.232  87.718
 6937DA     BB345115  60.722  89.068  87.611
 6937DA     SC145116  60.969  88.884  87.654
 6937DA     SC245117  61.153  88.787  87.517
 6937DA     SC345118  61.177  88.616  87.707
 6937DA     SC445119  60.967  88.786  87.782
 6938DA     BB145120  60.578  89.289  87.403
 6938DA     BB245121  60.768  89.137  87.129
 6938DA     BB345122  60.676  88.955  87.066
 6938DA     SC145123  60.838  88.777  87.262
 6938DA     SC245124  61.018  88.604  87.249
 6938DA     SC345125  60.939  88.533  87.482
 6938DA     SC445126  60.773  88.746  87.406
 6939DA     BB145127  60.645  89.062  86.743
 6939DA     BB245128  60.865  88.787  86.640
 6939DA     BB345129  60.753  88.607  86.618
 6939DA     SC145130  60.795  88.515  86.912
 6939DA     SC245131  60.920  88.337  87.034
 6939DA     SC345132  60.757  88.382  87.226
 6939DA     SC445133  60.683  88.558  87.020
 6940DT     BB145134  60.693  88.475  86.412
 6940DT     BB245135  60.936  88.214  86.470
 6940DT     BB345136  60.839  88.035  86.507
 6940DT     SC145137  60.771  88.111  86.748
 6940DT     SC245138  60.881  87.997  86.893
 6940DT     SC345139  60.620  88.180  86.954
 6941DC     BB145140  60.886  87.897  86.251
 6941DC     BB245141  61.036  87.678  86.496
 6941DC     BB345142  60.902  87.530  86.550
 6941DC     SC145143  60.762  87.699  86.695
 6941DC     SC245144  60.786  87.652  86.903
 6941DC     SC345145  60.560  87.847  86.778
 6942DC     BB145146  61.046  87.339  86.416
 6942DC     BB245147  61.047  87.231  86.760
 6942DC     BB345148  60.882  87.111  86.797
 6942DC     SC145149  60.721  87.318  86.797
 6942DC     SC245150  60.649  87.352  86.997
 6942DC     SC345151  60.527  87.482  86.726
 6943DA     BB145152  61.237  86.937  86.933
 6943DA     BB245153  60.993  86.930  87.206
 6943DA     BB345154  60.839  86.787  87.165
 6943DA     SC145155  60.654  86.992  87.020
 6943DA     SC245156  60.437  87.106  87.062
 6943DA     SC345157  60.431  87.145  86.809
 6943DA     SC445158  60.669  87.005  86.861
 6944DT     BB145159  60.844  86.656  87.289
 6944DT     BB245160  60.549  86.754  87.471
 6944DT     BB345161  60.387  86.640  87.410
 6944DT     SC145162  60.368  86.773  87.184
 6944DT     SC245163  60.189  86.892  87.186
 6944DT     SC345164  60.369  86.824  86.925
 6945DG     BB145165  60.436  86.606  87.813
 6945DG     BB245166  60.096  86.695  87.726
 6945DG     BB345167  60.000  86.535  87.656
 6945DG     SC145168  60.079  86.584  87.365
 6945DG     SC245169  59.894  86.657  87.142
 6945DG     SC345170  60.164  86.595  87.038
 6945DG     SC445171  60.217  86.522  87.310
 6946DG     BB145172  59.777  86.574  87.895
 6946DG     BB245173  59.535  86.622  87.631
 6946DG     BB345174  59.473  86.446  87.563
 6946DG     SC145175  59.691  86.424  87.349
 6946DG     SC245176  59.648  86.431  87.054
 6946DG     SC345177  59.928  86.359  87.118
 6946DG     SC445178  59.831  86.357  87.387
 6947DG     BB145179  59.160  86.520  87.641
 6947DG     BB245180  59.090  86.496  87.287
 6947DG     BB345181  59.056  86.307  87.237
 6947DG     SC145182  59.349  86.244  87.175
 6947DG     SC245183  59.462  86.181  86.906
 6947DG     SC345184  59.663  86.135  87.118
 6947DG     SC445185  59.444  86.193  87.293
 6948DA     BB145186  58.761  86.416  87.092
 6948DA     BB245187  58.874  86.293  86.766
 6948DA     BB345188  58.851  86.081  86.754
 6948DA     SC145189  59.136  86.020  86.863
 6948DA     SC245190  59.351  85.928  86.776
 6948DA     SC345191  59.407  85.882  87.022
 6948DA     SC445192  59.152  85.998  87.021
 6949DT     BB145193  58.722  86.018  86.623
 6949DT     BB245194  58.963  85.901  86.381
 6949DT     BB345195  58.975  85.694  86.388
 6949DT     SC145196  59.111  85.702  86.612
 6949DT     SC245197  59.313  85.639  86.575
 6949DT     SC345198  59.173  85.667  86.866
 6950DA     BB145199  58.933  85.845  85.999
 6950DA     BB245200  59.209  85.604  86.003
 6950DA     BB345201  59.134  85.406  86.032
 6950DA     SC145202  59.156  85.417  86.342
 6950DA     SC245203  59.294  85.313  86.521
 6950DA     SC345204  59.103  85.379  86.679
 6950DA     SC445205  59.026  85.466  86.424
 6951DT     BB145206  59.176  85.320  85.889
 6951DT     BB245207  59.432  85.108  86.030
 6951DT     BB345208  59.349  84.927  86.088
 6951DT     SC145209  59.236  85.037  86.298
 6951DT     SC245210  59.333  84.966  86.476
 6951DT     SC345211  59.049  85.121  86.463
 6952DC     BB145212  59.493  84.845  85.889
 6952DC     BB245213  59.595  84.646  86.172
 6952DC     BB345214  59.456  84.496  86.207
 6952DC     SC145215  59.286  84.668  86.310
 6952DC     SC245216  59.268  84.633  86.521
 6952DC     SC345217  59.068  84.813  86.340
 6953DT     BB145218  59.633  84.317  86.113
 6953DT     BB245219  59.544  84.193  86.440
 6953DT     BB345220  59.370  84.080  86.428
 6953DT     SC145221  59.223  84.296  86.401
 6953DT     SC245222  59.104  84.324  86.578
 6953DT     SC345223  59.059  84.472  86.293
 6954DT     BB145224  59.507  83.844  86.462
 6954DT     BB245225  59.257  83.839  86.722
 6954DT     BB345226  59.082  83.756  86.651
 6954DT     SC145227  59.025  83.973  86.515
 6954DT     SC245228  58.856  84.072  86.604
 6954DT     SC345229  58.978  84.132  86.310
 6955DA     BB145230  59.172  83.540  86.999
 6955DA     BB245231  58.820  83.643  87.020
 6955DA     BB345232  58.700  83.524  86.889
 6955DA     SC145233  58.730  83.718  86.647
 6955DA     SC245234  58.586  83.875  86.518
 6955DA     SC345235  58.763  83.853  86.333
 6955DA     SC445236  58.850  83.690  86.544
 6956DT     BB145237  58.565  83.402  86.971
 6956DT     BB245238  58.273  83.597  86.887
 6956DT     BB345239  58.173  83.510  86.729
 6956DT     SC145240  58.354  83.592  86.558
 6956DT     SC245241  58.269  83.744  86.432
 6956DT     SC345242  58.546  83.585  86.378
 6957DT     BB145243  57.984  83.446  86.905
 6957DT     BB245244  57.814  83.639  86.652
 6957DT     BB345245  57.762  83.517  86.494
 6957DT     SC145246  58.010  83.508  86.409
 6957DT     SC245247  58.026  83.617  86.224
 6957DT     SC345248  58.246  83.412  86.343
 6958DC     BB145249  57.511  83.547  86.576
 6958DC     BB245250  57.508  83.654  86.232
 6958DC     BB345251  57.491  83.490  86.106
 6958DC     SC145252  57.741  83.422  86.148
 6958DC     SC245253  57.855  83.454  85.969
 6958DC     SC345254  57.950  83.281  86.225
 6959DA     BB145255  57.190  83.759  85.989
 6959DA     BB245256  57.359  83.643  85.685
 6959DA     BB345257  57.306  83.441  85.644
 6959DA     SC145258  57.540  83.319  85.807
 6959DA     SC245259  57.752  83.195  85.762
 6959DA     SC345260  57.737  83.121  86.007
 6959DA     SC445261  57.513  83.282  85.961
 6960DT     BB145262  57.180  83.373  85.471
 6960DT     BB245263  57.444  83.220  85.279
 6960DT     BB345264  57.425  83.014  85.284
 6960DT     SC145265  57.514  83.004  85.531
 6960DT     SC245266  57.708  82.911  85.533
 6960DT     SC345267  57.519  82.962  85.791
 6961DT     BB145268  57.307  82.952  85.015
 6961DT     BB245269  57.598  82.740  85.024
 6961DT     BB345270  57.546  82.550  85.089
 6961DT     SC145271  57.521  82.633  85.337
 6961DT     SC245272  57.680  82.549  85.456
 6961DT     SC345273  57.411  82.691  85.569
 6962DG     BB145274  57.677  82.438  84.711
 6962DG     BB245275  57.847  82.244  84.965
 6962DG     BB345276  57.739  82.085  85.014
 6962DG     SC145277  57.584  82.228  85.236
 6962DG     SC245278  57.603  82.169  85.528
 6962DG     SC345279  57.383  82.358  85.473
 6962DG     SC445280  57.449  82.306  85.200
 6963DT     BB145281  57.798  81.849  84.982
 6963DT     BB245282  57.893  81.765  85.320
 6963DT     BB345283  57.754  81.637  85.403
 6963DT     SC145284  57.581  81.832  85.433
 6963DT     SC245285  57.558  81.875  85.643
 6963DT     SC345286  57.362  81.977  85.406
 6964DT     BB145287  57.935  81.437  85.388
 6964DT     BB245288  57.852  81.462  85.739
 6964DT     BB345289  57.685  81.347  85.780
 6964DT     SC145290  57.526  81.523  85.666
 6964DT     SC245291  57.407  81.619  85.817
 6964DT     SC345292  57.354  81.629  85.497
 6965DT     BB145293  57.849  81.183  85.911
 6965DT     BB245294  57.604  81.284  86.155
 6965DT     BB345295  57.436  81.164  86.140
 6965DT     SC145296  57.359  81.286  85.921
 6965DT     SC245297  57.182  81.402  85.962
 6965DT     SC345298  57.295  81.325  85.668
 6966DA     BB145299  57.558  81.169  86.542
 6966DA     BB245300  57.197  81.233  86.532
 6966DA     BB345301  57.091  81.055  86.482
 6966DA     SC145302  57.097  81.108  86.176
 6966DA     SC245303  56.935  81.168  85.996
 6966DA     SC345304  57.112  81.077  85.834
 6966DA     SC445305  57.219  81.046  86.092
 6967DA     BB145306  56.923  81.112  86.762
 6967DA     BB245307  56.620  81.134  86.557
 6967DA     BB345308  56.554  80.939  86.501
 6967DA     SC145309  56.718  80.931  86.237
 6967DA     SC245310  56.673  80.937  85.992
 6967DA     SC345311  56.907  80.835  85.968
 6967DA     SC445312  56.865  80.867  86.243
 6968DT     BB145313  56.364  80.838  86.575
 6968DT     BB245314  56.178  80.878  86.268
 6968DT     BB345315  56.151  80.693  86.177
 6968DT     SC145316  56.401  80.687  86.098
 6968DT     SC245317  56.409  80.709  85.884
 6968DT     SC345318  56.652  80.610  86.074
 6969DA     BB145319  55.756  80.833  86.209
 6969DA     BB245320  55.808  80.733  85.860
 6969DA     BB345321  55.796  80.521  85.841
 6969DA     SC145322  56.100  80.475  85.887
 6969DA     SC245323  56.298  80.403  85.754
 6969DA     SC345324  56.406  80.350  85.980
 6969DA     SC445325  56.149  80.447  86.038
 6970DA     BB145326  55.572  80.600  85.619
 6970DA     BB245327  55.798  80.454  85.370
 6970DA     BB345328  55.782  80.241  85.372
 6970DA     SC145329  56.008  80.202  85.582
 6970DA     SC245330  56.241  80.112  85.589
 6970DA     SC345331  56.204  80.091  85.842
 6970DA     SC445332  55.965  80.195  85.737
 6971DA     BB145333  55.747  80.347  85.072
 6971DA     BB245334  56.052  80.158  85.000
 6971DA     BB345335  56.013  79.948  85.007
 6971DA     SC145336  56.081  79.920  85.309
 6971DA     SC245337  56.259  79.817  85.449
 6971DA     SC345338  56.088  79.829  85.640
 6971DA     SC445339  55.960  79.935  85.414
 6972DT     BB145340  56.057  79.925  84.857
 6972DT     BB245341  56.366  79.754  84.929
 6972DT     BB345342  56.330  79.552  84.957
 6972DT     SC145343  56.226  79.595  85.194
 6972DT     SC245344  56.358  79.517  85.345
 6972DT     SC345345  56.049  79.604  85.389
 6973DA     BB145346  56.660  79.653  84.710
 6973DA     BB245347  56.760  79.390  84.945
 6973DA     BB345348  56.655  79.209  84.903
 6973DA     SC145349  56.419  79.274  85.095
 6973DA     SC245350  56.330  79.190  85.313
 6973DA     SC345351  56.110  79.302  85.242
 6973DA     SC445352  56.291  79.349  85.033
 6974DT     BB145353  56.771  79.080  84.849
 6974DT     BB245354  56.752  78.869  85.141
 6974DT     BB345355  56.616  78.716  85.109
 6974DT     SC145356  56.413  78.879  85.137
 6974DT     SC245357  56.309  78.834  85.319
 6974DT     SC345358  56.197  79.019  85.078
 6975DA     BB145359  56.970  78.527  85.235
 6975DA     BB245360  56.692  78.381  85.425
 6975DA     BB345361  56.577  78.252  85.300
 6975DA     SC145362  56.381  78.475  85.208
 6975DA     SC245363  56.141  78.536  85.242
 6975DA     SC345364  56.168  78.675  85.028
 6975DA     SC445365  56.417  78.554  85.073
 6976DC     BB145366  56.568  78.033  85.325
 6976DC     BB245367  56.235  78.019  85.461
 6976DC     BB345368  56.105  77.938  85.322
 6976DC     SC145369  56.104  78.159  85.181
 6976DC     SC245370  55.912  78.253  85.197
 6976DC     SC345371  56.141  78.325  84.980
 6977DA     BB145372  56.048  77.702  85.664
 6977DA     BB245373  55.717  77.808  85.548
 6977DA     BB345374  55.658  77.694  85.378
 6977DA     SC145375  55.780  77.893  85.172
 6977DA     SC245376  55.699  78.056  85.002
 6977DA     SC345377  55.934  78.036  84.901
 6977DA     SC445378  55.931  77.867  85.124
 6978DC     BB145379  55.500  77.571  85.397
 6978DC     BB245380  55.266  77.777  85.214
 6978DC     BB345381  55.231  77.695  85.028
 6978DC     SC145382  55.465  77.774  84.940
 6978DC     SC245383  55.437  77.931  84.795
 6978DC     SC345384  55.711  77.764  84.845
 6979DA     BB145385  54.876  77.793  85.227
 6979DA     BB245386  54.859  77.929  84.887
 6979DA     BB345387  54.839  77.771  84.745
 6979DA     SC145388  55.145  77.735  84.703
 6979DA     SC245389  55.313  77.777  84.523
 6979DA     SC345390  55.459  77.609  84.649
 6979DA     SC445391  55.220  77.627  84.795
 6980DT     BB145392  54.688  77.799  84.670
 6980DT     BB245393  54.809  77.903  84.347
 6980DT     BB345394  54.820  77.740  84.220
 6980DT     SC145395  55.034  77.650  84.341
 6980DT     SC245396  55.204  77.670  84.210
 6980DT     SC345397  55.193  77.492  84.480
 6981DT     BB145398  54.618  77.858  84.099
 6981DT     BB245399  54.861  77.802  83.839
 6981DT     BB345400  54.849  77.607  83.771
 6981DT     SC145401  54.968  77.516  83.987
 6981DT     SC245402  55.164  77.444  83.936
 6981DT     SC345403  55.006  77.386  84.213
 6982DA     BB145404  54.826  77.847  83.426
 6982DA     BB245405  55.058  77.572  83.356
 6982DA     BB345406  54.952  77.389  83.335
 6982DA     SC145407  54.973  77.314  83.636
 6982DA     SC245408  55.092  77.145  83.776
 6982DA     SC345409  54.914  77.197  83.953
 6982DA     SC445410  54.853  77.359  83.733
 6983DA     BB145411  55.090  77.347  83.030
 6983DA     BB245412  55.237  77.034  83.151
 6983DA     BB345413  55.090  76.879  83.151
 6983DA     SC145414  54.997  76.933  83.442
 6983DA     SC245415  55.010  76.821  83.665
 6983DA     SC345416  54.812  76.971  83.729
 6983DA     SC445417  54.873  77.034  83.463
 6984DG     BB145418  55.246  76.692  82.932
 6984DG     BB245419  55.273  76.457  83.205
 6984DG     BB345420  55.114  76.337  83.208
 6984DG     SC145421  54.948  76.518  83.390
 6984DG     SC245422  54.863  76.455  83.669
 6984DG     SC345423  54.732  76.702  83.572
 6984DG     SC445424  54.858  76.633  83.324
 6985DT     BB145425  55.094  76.082  83.166
 6985DT     BB245426  55.052  75.968  83.506
 6985DT     BB345427  54.859  75.896  83.533
 6985DT     SC145428  54.761  76.139  83.536
 6985DT     SC245429  54.692  76.185  83.734
 6985DT     SC345430  54.620  76.351  83.465
 6986DC     BB145431  54.927  75.619  83.537
 6986DC     BB245432  54.760  75.674  83.853
 6986DC     BB345433  54.558  75.636  83.833
 6986DC     SC145434  54.520  75.861  83.704
 6986DC     SC245435  54.407  75.996  83.827
 6986DC     SC345436  54.459  76.027  83.509
 6987DC     BB145437  54.568  75.395  83.975
 6987DC     BB245438  54.331  75.596  84.159
 6987DC     BB345439  54.140  75.564  84.086
 6987DC     SC145440  54.189  75.707  83.871
 6987DC     SC245441  54.076  75.889  83.879
 6987DC     SC345442  54.224  75.769  83.617
 6988DC     BB145443  54.075  75.428  84.312
 6988DC     BB245444  53.839  75.701  84.299
 6988DC     BB345445  53.675  75.646  84.186
 6988DC     SC145446  53.810  75.670  83.962
 6988DC     SC245447  53.737  75.840  83.852
 6988DC     SC345448  53.928  75.605  83.735
 6989DT     BB145449  53.531  75.638  84.413
 6989DT     BB245450  53.363  75.880  84.205
 6989DT     BB345451  53.229  75.785  84.079
 6989DT     SC145452  53.423  75.696  83.927
 6989DT     SC245453  53.417  75.796  83.737
 6989DT     SC345454  53.586  75.528  83.804
 6990DT     BB145455  53.038  75.896  84.227
 6990DT     BB245456  52.978  76.014  83.892
 6990DT     BB345457  52.868  75.874  83.786
 6990DT     SC145458  53.077  75.717  83.761
 6990DT     SC245459  53.140  75.715  83.555
 6990DT     SC345460  53.233  75.506  83.785
 6991DG     BB145461  52.684  76.237  83.784
 6991DG     BB245462  52.728  76.105  83.450
 6991DG     BB345463  52.596  75.961  83.416
 6991DG     SC145464  52.777  75.737  83.520
 6991DG     SC245465  52.895  75.517  83.356
 6991DG     SC345466  52.940  75.470  83.645
 6991DG     SC445467  52.773  75.700  83.675
 6992DA     BB145468  52.545  76.150  83.134
 6992DA     BB245469  52.628  75.858  82.928
 6992DA     BB345470  52.470  75.714  82.936
 6992DA     SC145471  52.589  75.562  83.180
 6992DA     SC245472  52.695  75.340  83.225
 6992DA     SC345473  52.633  75.384  83.470
 6992DA     SC445474  52.541  75.606  83.326
 6993DA     BB145475  52.515  75.754  82.615
 6993DA     BB245476  52.585  75.395  82.602
 6993DA     BB345477  52.406  75.283  82.632
 6993DA     SC145478  52.438  75.266  82.941
 6993DA     SC245479  52.488  75.092  83.112
 6993DA     SC345480  52.383  75.255  83.279
 6993DA     SC445481  52.367  75.380  83.029
 6994DC     BB145482  52.342  75.177  82.479
 6994DC     BB245483  52.424  74.851  82.608
 6994DC     BB345484  52.252  74.757  82.677
 6994DC     SC145485  52.246  74.909  82.891
 6994DC     SC245486  52.292  74.790  83.064
 6994DC     SC345487  52.162  75.087  83.066
 6995DA     BB145488  52.436  74.485  82.415
 6995DA     BB245489  52.346  74.302  82.719
 6995DA     BB345490  52.136  74.270  82.728
 6995DA     SC145491  52.077  74.533  82.883
 6995DA     SC245492  52.002  74.600  83.111
 6995DA     SC345493  51.937  74.823  83.002
 6995DA     SC445494  52.042  74.664  82.796
 6996DT     BB145495  52.049  74.075  82.710
 6996DT     BB245496  51.954  74.036  83.056
 6996DT     BB345497  51.748  74.052  83.075
 6996DT     SC145498  51.757  74.312  83.041
 6996DT     SC245499  51.708  74.410  83.227
 6996DT     SC345500  51.719  74.551  82.935
 6997DG     BB145501  51.826  73.677  83.219
 6997DG     BB245502  51.628  73.867  83.455
 6997DG     BB345503  51.436  73.863  83.401
 6997DG     SC145504  51.455  74.114  83.226
 6997DG     SC245505  51.321  74.375  83.280
 6997DG     SC345506  51.443  74.373  83.010
 6997DG     SC445507  51.495  74.098  83.072
 6998DT     BB145508  51.259  73.765  83.526
 6998DT     BB245509  51.096  74.058  83.658
 6998DT     BB345510  50.916  74.089  83.561
 6998DT     SC145511  51.037  74.176  83.345
 6998DT     SC245512  51.000  74.387  83.323
 6998DT     SC345513  51.119  74.190  83.095
 6999DT     BB145514  50.763  74.006  83.780
 6999DT     BB245515  50.642  74.338  83.710
 6999DT     BB345516  50.485  74.329  83.575
 6999DT     SC145517  50.648  74.280  83.376
 6999DT     SC245518  50.654  74.450  83.245
 6999DT     SC345519  50.764  74.153  83.176
 7000DC     BB145520  50.298  74.389  83.770
 7000DC     BB245521  50.250  74.645  83.520
 7000DC     BB345522  50.113  74.581  83.379
 7000DC     SC145523  50.288  74.420  83.270
 7000DC     SC245524  50.343  74.494  83.075
 7000DC     SC345525  50.404  74.197  83.189
 7001DG     BB145526  49.954  74.924  83.534
 7001DG     BB245527  49.970  74.940  83.173
 7001DG     BB345528  49.816  74.841  83.094
 7001DG     SC145529  49.964  74.573  83.081
 7001DG     SC245530  50.044  74.429  82.832
 7001DG     SC345531  50.089  74.260  83.071
 7001DG     SC445532  49.959  74.475  83.208
 7002DG     BB145533  49.719  75.115  82.940
 7002DG     BB245534  49.780  74.937  82.631
 7002DG     BB345535  49.621  74.828  82.583
 7002DG     SC145536  49.715  74.580  82.736
 7002DG     SC245537  49.796  74.319  82.615
 7002DG     SC345538  49.778  74.297  82.909
 7002DG     SC445539  49.676  74.564  82.890
 7003DC     BB145540  49.506  74.866  82.396
 7003DC     BB245541  49.613  74.590  82.190
 7003DC     BB345542  49.463  74.448  82.178
 7003DC     SC145543  49.511  74.366  82.423
 7003DC     SC245544  49.596  74.168  82.416
 7003DC     SC345545  49.475  74.314  82.679
 7004DC     BB145546  49.424  74.522  81.922
 7004DC     BB245547  49.494  74.169  81.906
 7004DC     BB345548  49.319  74.061  81.934
 7004DC     SC145549  49.319  74.112  82.191
 7004DC     SC245550  49.361  73.931  82.300
 7004DC     SC345551  49.243  74.206  82.426
 7005DT     BB145552  49.332  73.997  81.674
 7005DT     BB245553  49.322  73.680  81.846
 7005DT     BB345554  49.125  73.626  81.884
 7005DT     SC145555  49.106  73.803  82.078
 7005DT     SC245556  49.093  73.700  82.266
 7005DT     SC345557  49.026  74.013  82.215
 7006DA     BB145558  49.321  73.303  81.702
 7006DA     BB245559  49.136  73.175  81.991
 7006DA     BB345560  48.926  73.176  81.952
 7006DA     SC145561  48.882  73.462  82.066
 7006DA     SC245562  48.772  73.567  82.264
 7006DA     SC345563  48.773  73.783  82.124
 7006DA     SC445564  48.891  73.586  81.963
 7007DC     BB145565  48.832  73.000  81.938
 7007DC     BB245566  48.649  73.016  82.248
 7007DC     BB345567  48.451  73.062  82.211
 7007DC     SC145568  48.510  73.313  82.161
 7007DC     SC245569  48.433  73.437  82.319
 7007DC     SC345570  48.538  73.540  82.030
 7008DA     BB145571  48.426  72.711  82.442
 7008DA     BB245572  48.185  72.949  82.582
 7008DA     BB345573  48.013  72.962  82.458
 7008DA     SC145574  48.125  73.196  82.285
 7008DA     SC245575  48.078  73.438  82.251
 7008DA     SC345576  48.204  73.410  82.029
 7008DA     SC445577  48.205  73.158  82.151
 7009DT     BB145578  47.798  72.886  82.505
 7009DT     BB245579  47.646  73.209  82.557
 7009DT     BB345580  47.513  73.250  82.404
 7009DT     SC145581  47.710  73.300  82.237
 7009DT     SC245582  47.713  73.510  82.192
 7009DT     SC345583  47.870  73.278  82.029
 7010DA     BB145584  47.239  73.290  82.726
 7010DA     BB245585  47.197  73.589  82.518
 7010DA     BB345586  47.073  73.545  82.350
 7010DA     SC145587  47.310  73.465  82.165
 7010DA     SC245588  47.427  73.556  81.964
 7010DA     SC345589  47.512  73.316  81.931
 7010DA     SC445590  47.352  73.310  82.161
 7011DT     BB145591  46.839  73.622  82.294
 7011DT     BB245592  46.942  73.861  82.044
 7011DT     BB345593  46.871  73.804  81.858
 7011DT     SC145594  47.051  73.613  81.839
 7011DT     SC245595  47.194  73.665  81.687
 7011DT     SC345596  47.156  73.372  81.821
 7012DA     BB145597  46.736  74.197  81.906
 7012DA     BB245598  46.914  74.179  81.586
 7012DA     BB345599  46.792  74.083  81.439
 7012DA     SC145600  46.900  73.798  81.501
 7012DA     SC245601  47.042  73.626  81.390
 7012DA     SC345602  46.932  73.460  81.552
 7012DA     SC445603  46.819  73.710  81.609
 7013DT     BB145604  46.738  74.195  81.288
 7013DT     BB245605  46.972  74.055  81.052
 7013DT     BB345606  46.874  73.928  80.922
 7013DT     SC145607  46.853  73.742  81.107
 7013DT     SC245608  46.980  73.577  81.056
 7013DT     SC345609  46.745  73.574  81.278
 7014DC     BB145610  46.932  74.116  80.751
 7014DC     BB245611  47.092  73.818  80.627
 7014DC     BB345612  46.955  73.700  80.527
 7014DC     SC145613  46.845  73.622  80.752
 7014DC     SC245614  46.888  73.414  80.785
 7014DC     SC345615  46.664  73.589  80.941
 7015DG     BB145616  47.290  73.789  80.311
 7015DG     BB245617  47.223  73.434  80.322
 7015DG     BB345618  47.066  73.391  80.208
 7015DG     SC145619  46.861  73.429  80.432
 7015DG     SC245620  46.694  73.214  80.555
 7015DG     SC345621  46.608  73.481  80.649
 7015DG     SC445622  46.800  73.574  80.457
 7016DG     BB145623  47.287  73.192  80.080
 7016DG     BB245624  47.060  72.927  80.178
 7016DG     BB345625  46.904  72.922  80.055
 7016DG     SC145626  46.736  73.118  80.219
 7016DG     SC245627  46.483  73.052  80.365
 7016DG     SC345628  46.532  73.344  80.364
 7016DG     SC445629  46.750  73.275  80.191
 7017DT     BB145630  46.883  72.748  79.954
 7017DT     BB245631  46.593  72.601  80.110
 7017DT     BB345632  46.424  72.644  79.999
 7017DT     SC145633  46.421  72.892  80.084
 7017DT     SC245634  46.252  72.921  80.215
 7017DT     SC345635  46.431  73.156  80.081
 7018DT     BB145636  46.418  72.387  79.922
 7018DT     BB245637  46.093  72.446  80.066
 7018DT     BB345638  45.967  72.529  79.924
 7018DT     SC145639  46.087  72.762  79.943
 7018DT     SC245640  45.954  72.903  80.036
 7018DT     SC345641  46.226  72.976  79.876
 7019DA     BB145642  45.758  72.197  80.074
 7019DA     BB245643  45.528  72.482  80.074
 7019DA     BB345644  45.466  72.528  79.875
 7019DA     SC145645  45.697  72.730  79.823
 7019DA     SC245646  45.724  72.976  79.794
 7019DA     SC345647  45.948  72.917  79.682
 7019DA     SC445648  45.832  72.673  79.756
 7020DT     BB145649  45.265  72.500  79.809
 7020DT     BB245650  45.174  72.849  79.803
 7020DT     BB345651  45.160  72.916  79.608
 7020DT     SC145652  45.421  72.919  79.582
 7020DT     SC245653  45.489  73.123  79.568
 7020DT     SC345654  45.663  72.859  79.494
 7021DA     BB145655  44.792  73.021  79.779
 7021DA     BB245656  44.925  73.319  79.612
 7021DA     BB345657  44.901  73.302  79.400
 7021DA     SC145658  45.179  73.168  79.356
 7021DA     SC245659  45.398  73.227  79.254
 7021DA     SC345660  45.439  72.974  79.243
 7021DA     SC445661  45.185  73.007  79.357
 7022DT     BB145662  44.772  73.430  79.297
 7022DT     BB245663  45.030  73.636  79.152
 7022DT     BB345664  45.047  73.596  78.950
 7022DT     SC145665  45.170  73.369  78.998
 7022DT     SC245666  45.376  73.385  78.938
 7022DT     SC345667  45.218  73.110  79.006
 7023DA     BB145668  45.003  74.010  78.994
 7023DA     BB245669  45.295  73.949  78.781
 7023DA     BB345670  45.234  73.886  78.587
 7023DA     SC145671  45.238  73.583  78.658
 7023DA     SC245672  45.374  73.382  78.601
 7023DA     SC345673  45.170  73.247  78.680
 7023DA     SC445674  45.101  73.517  78.710
 7024DG     BB145675  45.390  74.140  78.515
 7024DG     BB245676  45.608  73.900  78.353
 7024DG     BB345677  45.532  73.848  78.177
 7024DG     SC145678  45.370  73.613  78.290
 7024DG     SC245679  45.418  73.324  78.234
 7024DG     SC345680  45.165  73.362  78.383
 7024DG     SC445681  45.221  73.640  78.344
 7025DA     BB145682  45.852  73.925  78.084
 7025DA     BB245683  45.891  73.584  77.956
 7025DA     BB345684  45.776  73.558  77.778
 7025DA     SC145685  45.521  73.460  77.927
 7025DA     SC245686  45.393  73.248  77.954
 7025DA     SC345687  45.198  73.398  78.026
 7025DA     SC445688  45.412  73.570  77.968
 7026DC     BB145689  45.889  73.525  77.648
 7026DC     BB245690  45.811  73.175  77.606
 7026DC     BB345691  45.671  73.151  77.455
 7026DC     SC145692  45.478  73.240  77.609
 7026DC     SC245693  45.345  73.078  77.657
 7026DC     SC345694  45.284  73.393  77.700
 7027DG     BB145695  46.003  72.926  77.383
 7027DG     BB245696  45.700  72.731  77.355
 7027DG     BB345697  45.605  72.777  77.186
 7027DG     SC145698  45.440  73.003  77.310
 7027DG     SC245699  45.144  73.003  77.348
 7027DG     SC345700  45.258  73.269  77.409
 7027DG     SC445701  45.501  73.151  77.313
 7028DC     BB145702  45.578  72.625  77.041
 7028DC     BB245703  45.224  72.559  77.060
 7028DC     BB345704  45.125  72.657  76.907
 7028DC     SC145705  45.152  72.888  77.028
 7028DC     SC245706  44.959  72.956  77.097
 7028DC     SC345707  45.227  73.137  77.076
 7029DC     BB145708  45.083  72.424  76.768
 7029DC     BB245709  44.753  72.566  76.799
 7029DC     BB345710  44.717  72.697  76.642
 7029DC     SC145711  44.874  72.879  76.748
 7029DC     SC245712  44.755  73.045  76.816
 7029DC     SC345713  45.077  73.045  76.777
 7030DG     BB145714  44.416  72.422  76.577
 7030DG     BB245715  44.282  72.758  76.581
 7030DG     BB345716  44.308  72.843  76.403
 7030DG     SC145717  44.583  72.960  76.472
 7030DG     SC245718  44.648  73.250  76.499
 7030DG     SC345719  44.894  73.086  76.507
 7030DG     SC445720  44.714  72.872  76.446
 7031DT     BB145721  44.137  72.921  76.219
 7031DT     BB245722  44.148  73.278  76.271
 7031DT     BB345723  44.237  73.370  76.108
 7031DT     SC145724  44.475  73.289  76.183
 7031DT     SC245725  44.591  73.458  76.249
 7031DT     SC345726  44.707  73.164  76.178
 7032DT     BB145727  44.000  73.480  75.993
 7032DT     BB245728  44.210  73.768  76.052
 7032DT     BB345729  44.324  73.808  75.883
 7032DT     SC145730  44.482  73.604  75.932
 7032DT     SC245731  44.676  73.676  75.989
 7032DT     SC345732  44.605  73.373  75.901
 7033DG     BB145733  44.107  74.147  75.948
 7033DG     BB245734  44.462  74.217  75.936
 7033DG     BB345735  44.523  74.228  75.747
 7033DG     SC145736  44.588  73.930  75.726
 7033DG     SC245737  44.861  73.812  75.693
 7033DG     SC345738  44.652  73.605  75.661
 7033DG     SC445739  44.473  73.828  75.680
 7034DT     BB145740  44.607  74.412  75.678
 7034DT     BB245741  44.958  74.329  75.677
 7034DT     BB345742  45.021  74.294  75.483
 7034DT     SC145743  44.902  74.060  75.478
 7034DT     SC245744  45.051  73.904  75.477
 7034DT     SC345745  44.736  73.868  75.409
 7035DA     BB145746  45.272  74.555  75.697
 7035DA     BB245747  45.477  74.293  75.543
 7035DA     BB345748  45.481  74.317  75.331
 7035DA     SC145749  45.233  74.134  75.282
 7035DA     SC245750  45.186  73.910  75.184
 7035DA     SC345751  44.944  73.993  75.162
 7035DA     SC445752  45.089  74.205  75.276
 7036DG     BB145753  45.771  74.323  75.429
 7036DG     BB245754  45.788  74.024  75.227
 7036DG     BB345755  45.785  74.072  75.034
 7036DG     SC145756  45.480  74.061  75.011
 7036DG     SC245757  45.324  73.863  74.852
 7036DG     SC345758  45.148  74.078  74.954
 7036DG     SC445759  45.395  74.193  75.042
 7037DA     BB145760  46.055  73.857  75.043
 7037DA     BB245761  45.891  73.651  74.788
 7037DA     BB345762  45.887  73.754  74.601
 7037DA     SC145763  45.611  73.889  74.653
 7037DA     SC245764  45.378  73.872  74.566
 7037DA     SC345765  45.345  74.106  74.665
 7037DA     SC445766  45.611  74.035  74.721
 7038DA     BB145767  46.017  73.463  74.522
 7038DA     BB245768  45.738  73.428  74.288
 7038DA     BB345769  45.760  73.564  74.125
 7038DA     SC145770  45.600  73.793  74.263
 7038DA     SC245771  45.381  73.908  74.234
 7038DA     SC345772  45.485  74.097  74.373
 7038DA     SC445773  45.683  73.900  74.349
 7039DA     BB145774  45.724  73.287  73.948
 7039DA     BB245775  45.432  73.445  73.794
 7039DA     BB345776  45.493  73.596  73.656
 7039DA     SC145777  45.490  73.825  73.867
 7039DA     SC245778  45.355  74.028  73.917
 7039DA     SC345779  45.559  74.106  74.052
 7039DA     SC445780  45.627  73.856  73.945
 7040DC     BB145781  45.464  73.577  73.446
 7040DC     BB245782  45.197  73.818  73.416
 7040DC     BB345783  45.267  73.991  73.326
 7040DC     SC145784  45.391  74.063  73.546
 7040DC     SC245785  45.293  74.235  73.631
 7040DC     SC345786  45.587  74.126  73.711
 7041DT     BB145787  45.147  73.948  73.073
 7041DT     BB245788  45.024  74.272  73.172
 7041DT     BB345789  45.150  74.420  73.102
 7041DT     SC145790  45.330  74.364  73.284
 7041DT     SC245791  45.340  74.525  73.426
 7041DT     SC345792  45.558  74.288  73.392
 7042DC     BB145793  44.976  74.507  72.900
 7042DC     BB245794  45.035  74.802  73.099
 7042DC     BB345795  45.199  74.905  73.025
 7042DC     SC145796  45.365  74.728  73.126
 7042DC     SC245797  45.474  74.817  73.289
 7042DC     SC345798  45.549  74.539  73.139
 7043DA     BB145799  44.888  75.185  73.046
 7043DA     BB245800  45.180  75.329  73.216
 7043DA     BB345801  45.325  75.392  73.073
 7043DA     SC145802  45.476  75.120  73.070
 7043DA     SC245803  45.696  75.031  73.145
 7043DA     SC345804  45.653  74.841  72.978
 7043DA     SC445805  45.432  75.012  72.960
 7044DC     BB145806  45.360  75.586  73.064
 7044DC     BB245807  45.679  75.578  73.233
 7044DC     BB345808  45.832  75.599  73.096
 7044DC     SC145809  45.801  75.353  73.011
 7044DC     SC245810  45.970  75.235  73.071
 7044DC     SC345811  45.748  75.151  72.849
 7045DT     BB145812  45.870  75.840  73.201
 7045DT     BB245813  46.185  75.669  73.241
 7045DT     BB345814  46.296  75.685  73.067
 7045DT     SC145815  46.145  75.509  72.945
 7045DT     SC245816  46.257  75.328  72.913
 7045DT     SC345817  45.976  75.404  72.771
 7046DA     BB145818  46.530  75.796  73.398
 7046DA     BB245819  46.722  75.557  73.195
 7046DA     BB345820  46.784  75.648  73.013
 7046DA     SC145821  46.531  75.560  72.854
 7046DA     SC245822  46.474  75.401  72.671
 7046DA     SC345823  46.263  75.545  72.640
 7046DA     SC445824  46.407  75.663  72.850
 7047DC     BB145825  46.974  75.669  72.993
 7047DC     BB245826  47.024  75.409  72.748
 7047DC     BB345827  47.044  75.492  72.560
 7047DC     SC145828  46.786  75.541  72.546
 7047DC     SC245829  46.696  75.412  72.400
 7047DC     SC345830  46.560  75.675  72.530
 7048DA     BB145831  47.371  75.235  72.619
 7048DA     BB245832  47.223  75.158  72.292
 7048DA     BB345833  47.268  75.313  72.152
 7048DA     SC145834  47.011  75.477  72.215
 7048DA     SC245835  46.797  75.536  72.102
 7048DA     SC345836  46.784  75.729  72.271
 7048DA     SC445837  47.022  75.591  72.328
 7049DT     BB145838  47.388  75.270  71.995
 7049DT     BB245839  47.129  75.264  71.744
 7049DT     BB345840  47.138  75.437  71.629
 7049DT     SC145841  47.034  75.580  71.823
 7049DT     SC245842  46.835  75.641  71.767
 7049DT     SC345843  47.010  75.763  72.011
 7050DA     BB145844  47.137  75.110  71.366
 7050DA     BB245845  46.882  75.348  71.253
 7050DA     BB345846  46.973  75.519  71.165
 7050DA     SC145847  46.987  75.679  71.432
 7050DA     SC245848  46.878  75.880  71.533
 7050DA     SC345849  47.081  75.885  71.690
 7050DA     SC445850  47.121  75.666  71.519
 7051DA     BB145851  46.768  75.430  70.928
 7051DA     BB245852  46.609  75.758  70.972
 7051DA     BB345853  46.732  75.911  70.889
 7051DA     SC145854  46.886  75.964  71.154
 7051DA     SC245855  46.903  76.144  71.326
 7051DA     SC345856  47.126  76.036  71.389
 7051DA     SC445857  47.023  75.883  71.178
 7052DA     BB145858  46.442  75.964  70.749
 7052DA     BB245859  46.452  76.294  70.910
 7052DA     BB345860  46.596  76.418  70.814
 7052DA     SC145861  46.829  76.334  71.002
 7052DA     SC245862  46.967  76.436  71.182
 7052DA     SC345863  47.135  76.249  71.132
 7052DA     SC445864  46.921  76.211  70.955
 7053DC     BB145865  46.521  76.569  70.727
 7053DC     BB245866  46.630  76.818  70.964
 7053DC     BB345867  46.797  76.916  70.892
 7053DC     SC145868  46.950  76.710  70.944
 7053DC     SC245869  47.083  76.758  71.107
 7053DC     SC345870  47.112  76.505  70.906
 7054DT     BB145871  46.641  77.130  70.856
 7054DT     BB245872  46.908  77.245  71.070
 7054DT     BB345873  47.072  77.299  70.956
 7054DT     SC145874  47.132  77.048  70.910
 7054DT     SC245875  47.314  76.998  71.014
 7054DT     SC345876  47.176  76.823  70.780
 7055DA     BB145877  46.984  77.617  71.215
 7055DA     BB245878  47.344  77.548  71.237
 7055DA     BB345879  47.442  77.614  71.059
 7055DA     SC145880  47.411  77.341  70.912
 7055DA     SC245881  47.558  77.154  70.838
 7055DA     SC345882  47.367  77.094  70.678
 7055DA     SC445883  47.282  77.321  70.819
 7056DA     BB145884  47.626  77.773  71.281
 7056DA     BB245885  47.912  77.582  71.152
 7056DA     BB345886  47.972  77.659  70.962
 7056DA     SC145887  47.788  77.469  70.799
 7056DA     SC245888  47.813  77.273  70.646
 7056DA     SC345889  47.576  77.332  70.565
 7056DA     SC445890  47.641  77.523  70.761
 7057DT     BB145891  48.153  77.747  70.947
 7057DT     BB245892  48.318  77.481  70.769
 7057DT     BB345893  48.340  77.533  70.570
 7057DT     SC145894  48.086  77.490  70.522
 7057DT     SC245895  48.064  77.316  70.398
 7057DT     SC345896  47.834  77.537  70.457
 7058DT     BB145897  48.607  77.567  70.606
 7058DT     BB245898  48.583  77.323  70.341
 7058DT     BB345899  48.567  77.419  70.159
 7058DT     SC145900  48.317  77.484  70.206
 7058DT     SC245901  48.188  77.371  70.076
 7058DT     SC345902  48.103  77.631  70.249
 7059DA     BB145903  48.879  77.141  70.126
 7059DA     BB245904  48.658  77.095  69.838
 7059DA     BB345905  48.681  77.257  69.700
 7059DA     SC145906  48.458  77.431  69.829
 7059DA     SC245907  48.229  77.510  69.771
 7059DA     SC345908  48.268  77.691  69.949
 7059DA     SC445909  48.502  77.536  69.942
 7060DA     BB145910  48.732  77.007  69.493
 7060DA     BB245911  48.440  77.126  69.307
 7060DA     BB345912  48.489  77.302  69.196
 7060DA     SC145913  48.410  77.498  69.423
 7060DA     SC245914  48.231  77.666  69.468
 7060DA     SC345915  48.393  77.763  69.642
 7060DA     SC445916  48.525  77.545  69.525
 7061DA     BB145917  48.367  77.122  68.948
 7061DA     BB245918  48.114  77.385  68.907
 7061DA     BB345919  48.199  77.555  68.811
 7061DA     SC145920  48.282  77.694  69.078
 7061DA     SC245921  48.213  77.893  69.211
 7061DA     SC345922  48.444  77.873  69.322
 7061DA     SC445923  48.430  77.665  69.134
 7062DA     BB145924  47.947  77.509  68.606
 7062DA     BB245925  47.831  77.843  68.702
 7062DA     BB345926  47.949  77.993  68.607
 7062DA     SC145927  48.156  78.011  68.839
 7062DA     SC245928  48.221  78.175  69.016
 7062DA     SC345929  48.442  78.044  69.026
 7062DA     SC445930  48.286  77.918  68.830
 7063DT     BB145931  47.864  78.116  68.466
 7063DT     BB245932  47.847  78.413  68.671
 7063DT     BB345933  47.992  78.548  68.611
 7063DT     SC145934  48.181  78.406  68.723
 7063DT     SC245935  48.258  78.511  68.895
 7063DT     SC345936  48.398  78.258  68.749
 7064DA     BB145937  47.629  78.759  68.612
 7064DA     BB245938  47.875  78.960  68.796
 7064DA     BB345939  48.013  79.050  68.661
 7064DA     SC145940  48.216  78.814  68.671
 7064DA     SC245941  48.444  78.771  68.761
 7064DA     SC345942  48.450  78.575  68.595
 7064DA     SC445943  48.201  78.699  68.561
 7065DT     BB145944  48.016  79.256  68.638
 7065DT     BB245945  48.321  79.316  68.822
 7065DT     BB345946  48.474  79.362  68.691
 7065DT     SC145947  48.495  79.112  68.614
 7065DT     SC245948  48.681  79.031  68.687
 7065DT     SC345949  48.492  78.899  68.459
 7066DA     BB145950  48.467  79.668  68.977
 7066DA     BB245951  48.813  79.551  68.948
 7066DA     BB345952  48.900  79.622  68.766
 7066DA     SC145953  48.815  79.373  68.600
 7066DA     SC245954  48.924  79.177  68.491
 7066DA     SC345955  48.710  79.161  68.351
 7066DA     SC445956  48.674  79.381  68.522
 7067DC     BB145957  49.054  79.755  68.777
 7067DC     BB245958  49.317  79.524  68.689
 7067DC     BB345959  49.380  79.558  68.495
 7067DC     SC145960  49.163  79.447  68.396
 7067DC     SC245961  49.216  79.261  68.302
 7067DC     SC345962  48.935  79.420  68.267
 7068DG     BB145963  49.704  79.594  68.738
 7068DG     BB245964  49.766  79.362  68.468
 7068DG     BB345965  49.805  79.461  68.300
 7068DG     SC145966  49.512  79.475  68.212
 7068DG     SC245967  49.394  79.337  67.974
 7068DG     SC345968  49.200  79.525  68.095
 7068DG     SC445969  49.422  79.598  68.261
 7069DG     BB145970  50.087  79.300  68.293
 7069DG     BB245971  49.969  79.156  67.983
 7069DG     BB345972  50.001  79.283  67.833
 7069DG     SC145973  49.731  79.424  67.862
 7069DG     SC245974  49.508  79.417  67.664
 7069DG     SC345975  49.453  79.614  67.879
 7069DG     SC445976  49.719  79.549  67.962
 7070DA     BB145977  50.146  79.007  67.686
 7070DA     BB245978  49.910  79.035  67.407
 7070DA     BB345979  49.961  79.201  67.282
 7070DA     SC145980  49.784  79.404  67.437
 7070DA     SC245981  49.575  79.534  67.398
 7070DA     SC345982  49.657  79.685  67.588
 7070DA     SC445983  49.853  79.487  67.556
 7071DC     BB145984  50.019  79.155  67.102
 7071DC     BB245985  49.723  79.268  66.929
 7071DC     BB345986  49.759  79.451  66.840
 7071DC     SC145987  49.746  79.575  67.070
 7071DC     SC245988  49.568  79.696  67.077
 7071DC     SC345989  49.820  79.717  67.280
 7072DT     BB145990  49.759  79.328  66.600
 7072DT     BB245991  49.509  79.586  66.568
 7072DT     BB345992  49.599  79.765  66.513
 7072DT     SC145993  49.695  79.800  66.754
 7072DT     SC245994  49.594  79.966  66.848
 7072DT     SC345995  49.869  79.829  66.950
 7073DA     BB145996  49.289  79.702  66.236
 7073DA     BB245997  49.265  80.049  66.353
 7073DA     BB345998  49.420  80.167  66.267
 7073DA     SC145999  49.621  80.116  66.499
 7073DA     SC246000  49.725  80.246  66.685
 7073DA     SC346001  49.903  80.061  66.686
 7073DA     SC446002  49.722  79.993  66.483
 7074DT     BB146003  49.382  80.324  66.122
 7074DT     BB246004  49.444  80.604  66.342
 7074DT     BB346005  49.623  80.695  66.291
 7074DT     SC146006  49.762  80.499  66.398
 7074DT     SC246007  49.861  80.571  66.575
 7074DT     SC346008  49.927  80.295  66.419
 7075DA     BB146009  49.350  81.014  66.282
 7075DA     BB246010  49.638  81.124  66.480
 7075DA     BB346011  49.801  81.173  66.353
 7075DA     SC146012  49.923  80.887  66.358
 7075DA     SC246013  50.124  80.773  66.452
 7075DA     SC346014  50.077  80.591  66.277
 7075DA     SC446015  49.878  80.785  66.242
 7076DA     BB146016  49.805  81.473  66.497
 7076DA     BB246017  50.144  81.397  66.617
 7076DA     BB346018  50.286  81.431  66.462
 7076DA     SC146019  50.272  81.140  66.352
 7076DA     SC246020  50.419  80.939  66.344
 7076DA     SC346021  50.268  80.862  66.151
 7076DA     SC446022  50.168  81.110  66.234
 7077DA     BB146023  50.437  81.630  66.678
 7077DA     BB246024  50.726  81.404  66.663
 7077DA     BB346025  50.842  81.443  66.488
 7077DA     SC146026  50.687  81.239  66.311
 7077DA     SC246027  50.731  81.019  66.202
 7077DA     SC346028  50.532  81.077  66.051
 7077DA     SC446029  50.562  81.294  66.226
 7078DT     BB146030  51.037  81.520  66.504
 7078DT     BB246031  51.207  81.211  66.429
 7078DT     BB346032  51.292  81.221  66.240
 7078DT     SC146033  51.057  81.193  66.125
 7078DT     SC246034  51.047  81.000  66.030
 7078DT     SC346035  50.843  81.247  65.981
 7079DA     BB146036  51.585  81.099  66.511
 7079DA     BB246037  51.587  80.865  66.228
 7079DA     BB346038  51.674  80.957  66.057
 7079DA     SC146039  51.404  81.067  65.948
 7079DA     SC246040  51.250  81.024  65.757
 7079DA     SC346041  51.158  81.258  65.803
 7079DA     SC446042  51.361  81.216  65.992
 7080DA     BB146043  51.838  80.679  66.088
 7080DA     BB246044  51.712  80.594  65.755
 7080DA     BB346045  51.810  80.712  65.606
 7080DA     SC146046  51.600  80.941  65.614
 7080DA     SC246047  51.422  81.034  65.466
 7080DA     SC346048  51.442  81.246  65.609
 7080DA     SC446049  51.628  81.064  65.714
 7081DT     BB146050  51.914  80.608  65.491
 7081DT     BB246051  51.700  80.632  65.202
 7081DT     BB346052  51.774  80.774  65.070
 7081DT     SC146053  51.694  80.971  65.224
 7081DT     SC246054  51.531  81.074  65.128
 7081DT     SC346055  51.702  81.182  65.381
 7082DA     BB146056  51.684  80.414  64.871
 7082DA     BB246057  51.544  80.692  64.678
 7082DA     BB346058  51.700  80.807  64.589
 7082DA     SC146059  51.727  81.003  64.830
 7082DA     SC246060  51.678  81.242  64.879
 7082DA     SC346061  51.844  81.215  65.073
 7082DA     SC446062  51.834  80.966  64.944
 7083DA     BB146063  51.516  80.745  64.323
 7083DA     BB246064  51.485  81.109  64.285
 7083DA     BB346065  51.669  81.192  64.217
 7083DA     SC146066  51.781  81.244  64.502
 7083DA     SC246067  51.831  81.439  64.649
 7083DA     SC346068  51.983  81.278  64.778
 7083DA     SC446069  51.871  81.128  64.569
 7084DT     BB146070  51.686  81.277  64.025
 7084DT     BB246071  51.700  81.622  64.129
 7084DT     BB346072  51.893  81.694  64.109
 7084DT     SC146073  51.973  81.561  64.321
 7084DT     SC246074  52.017  81.700  64.479
 7084DT     SC346075  52.104  81.388  64.471
 7085DA     BB146076  51.662  81.970  63.893
 7085DA     BB246077  51.880  82.161  64.117
 7085DA     BB346078  52.079  82.164  64.042
 7085DA     SC146079  52.167  81.908  64.195
 7085DA     SC246080  52.317  81.848  64.386
 7085DA     SC346081  52.312  81.611  64.289
 7085DA     SC446082  52.152  81.767  64.119
 7086DT     BB146083  52.176  82.345  63.969
 7086DT     BB246084  52.390  82.393  64.255
 7086DT     BB346085  52.587  82.352  64.204
 7086DT     SC146086  52.541  82.094  64.204
 7086DT     SC246087  52.643  82.003  64.370
 7086DT     SC346088  52.517  81.846  64.116
 7087DT     BB146089  52.650  82.618  64.213
 7087DT     BB246090  52.873  82.463  64.451
 7087DT     BB346091  53.045  82.400  64.356
 7087DT     SC146092  52.920  82.197  64.247
 7087DT     SC246093  52.989  82.013  64.336
 7087DT     SC346094  52.816  82.038  64.063
 7088DA     BB146095  53.143  82.626  64.694
 7088DA     BB246096  53.334  82.313  64.706
 7088DA     BB346097  53.488  82.315  64.558
 7088DA     SC146098  53.311  82.184  64.338
 7088DA     SC246099  53.297  81.967  64.217
 7088DA     SC346100  53.163  82.096  64.041
 7088DA     SC446101  53.230  82.283  64.239
 7089DA     BB146102  53.642  82.238  64.835
 7089DA     BB246103  53.738  81.927  64.666
 7089DA     BB346104  53.883  81.966  64.515
 7089DA     SC146105  53.672  82.009  64.290
 7089DA     SC246106  53.595  81.890  64.084
 7089DA     SC346107  53.499  82.118  64.014
 7089DA     SC446108  53.620  82.159  64.264
 7090DT     BB146109  54.042  81.886  64.555
 7090DT     BB246110  54.028  81.626  64.305
 7090DT     BB346111  54.139  81.681  64.139
 7090DT     SC146112  53.954  81.851  64.062
 7090DT     SC246113  53.860  81.777  63.883
 7090DT     SC346114  53.837  82.079  64.001
 7091DT     BB146115  54.318  81.497  64.212
 7091DT     BB246116  54.232  81.411  63.872
 7091DT     BB346117  54.346  81.523  63.740
 7091DT     SC146118  54.204  81.738  63.788
 7091DT     SC246119  54.087  81.787  63.614
 7091DT     SC346120  54.141  81.982  63.867
 7092DA     BB146121  54.400  81.123  63.622
 7092DA     BB246122  54.326  81.319  63.321
 7092DA     BB346123  54.494  81.439  63.267
 7092DA     SC146124  54.404  81.685  63.435
 7092DA     SC246125  54.319  81.915  63.394
 7092DA     SC346126  54.395  81.964  63.634
 7092DA     SC446127  54.459  81.696  63.586
 7093DT     BB146128  54.616  81.407  63.086
 7093DT     BB246129  54.491  81.690  62.900
 7093DT     BB346130  54.638  81.836  62.887
 7093DT     SC146131  54.603  81.905  63.138
 7093DT     SC246132  54.513  82.100  63.146
 7093DT     SC346133  54.653  81.945  63.394
 7094DT     BB146134  54.700  81.790  62.615
 7094DT     BB246135  54.610  82.139  62.626
 7094DT     BB346136  54.779  82.254  62.659
 7094DT     SC146137  54.788  82.184  62.912
 7094DT     SC246138  54.738  82.354  63.035
 7094DT     SC346139  54.874  82.078  63.137
 7095DA     BB146140  54.595  82.413  62.319
 7095DA     BB246141  54.658  82.690  62.551
 7095DA     BB346142  54.865  82.741  62.551
 7095DA     SC146143  54.938  82.546  62.782
 7095DA     SC246144  55.010  82.561  63.020
 7095DA     SC346145  55.096  82.322  62.989
 7095DA     SC446146  54.987  82.398  62.742
 7096DT     BB146147  54.905  82.918  62.484
 7096DT     BB246148  54.972  83.069  62.804
 7096DT     BB346149  55.176  83.090  62.831
 7096DT     SC146150  55.205  82.833  62.876
 7096DT     SC246151  55.256  82.803  63.083
 7096DT     SC346152  55.284  82.584  62.845
 7097DT     BB146153  55.115  83.343  62.810
 7097DT     BB246154  55.273  83.308  63.132
 7097DT     BB346155  55.479  83.305  63.109
 7097DT     SC146156  55.473  83.059  63.016
 7097DT     SC246157  55.560  82.926  63.161
 7097DT     SC346158  55.499  82.856  62.850
 7098DT     BB146159  55.454  83.533  63.229
 7098DT     BB246160  55.679  83.340  63.435
 7098DT     BB346161  55.869  83.343  63.353
 7098DT     SC146162  55.799  83.175  63.164
 7098DT     SC246163  55.895  82.986  63.196
 7098DT     SC346164  55.748  83.079  62.923
 7099DA     BB146165  55.886  83.438  63.763
 7099DA     BB246166  56.151  83.196  63.689
 7099DA     BB346167  56.303  83.286  63.570
 7099DA     SC146168  56.172  83.206  63.299
 7099DA     SC246169  56.218  83.050  63.111
 7099DA     SC346170  56.060  83.199  62.975
 7099DA     SC446171  56.071  83.312  63.231
 7100DT     BB146172  56.487  83.316  63.649
 7100DT     BB246173  56.667  83.069  63.458
 7100DT     BB346174  56.775  83.160  63.307
 7100DT     SC146175  56.557  83.202  63.166
 7100DT     SC246176  56.560  83.076  62.991
 7100DT     SC346177  56.363  83.329  63.040
 7101DT     BB146178  57.045  83.154  63.422
 7101DT     BB246179  57.095  83.006  63.096
 7101DT     BB346180  57.152  83.152  62.961
 7101DT     SC146181  56.908  83.247  62.949
 7101DT     SC246182  56.824  83.205  62.755
 7101DT     SC346183  56.706  83.415  62.972
 7102DA     BB146184  57.505  82.916  62.899
 7102DA     BB246185  57.378  82.992  62.564
 7102DA     BB346186  57.444  83.185  62.502
 7102DA     SC146187  57.195  83.333  62.616
 7102DA     SC246188  56.995  83.453  62.528
 7102DA     SC346189  56.982  83.561  62.761
 7102DA     SC446190  57.205  83.391  62.766
 7103DA     BB146191  57.603  83.077  62.216
 7103DA     BB246192  57.359  83.266  62.017
 7103DA     BB346193  57.426  83.467  61.990
 7103DA     SC146194  57.284  83.575  62.245
 7103DA     SC246195  57.092  83.724  62.300
 7103DA     SC346196  57.202  83.747  62.530
 7103DA     SC446197  57.369  83.578  62.381
 7104DT     BB146198  57.496  83.573  61.785
 7104DT     BB246199  57.191  83.759  61.737
 7104DT     BB346200  57.228  83.962  61.753
 7104DT     SC146201  57.251  83.945  62.014
 7104DT     SC246202  57.083  84.043  62.107
 7104DT     SC346203  57.357  83.955  62.255
 7105DA     BB146204  57.034  83.916  61.386
 7105DA     BB246205  56.856  84.178  61.572
 7105DA     BB346206  56.965  84.361  61.565
 7105DA     SC146207  57.126  84.303  61.825
 7105DA     SC246208  57.138  84.389  62.058
 7105DA     SC346209  57.370  84.282  62.065
 7105DA     SC446210  57.269  84.230  61.809
 7106DA     BB146211  56.675  84.462  61.457
 7106DA     BB246212  56.664  84.680  61.752
 7106DA     BB346213  56.791  84.849  61.724
 7106DA     SC146214  57.041  84.712  61.850
 7106DA     SC246215  57.179  84.734  62.056
 7106DA     SC346216  57.360  84.610  61.924
 7106DA     SC446217  57.141  84.635  61.750
 7107DA     BB146218  56.510  84.993  61.803
 7107DA     BB246219  56.686  85.133  62.092
 7107DA     BB346220  56.815  85.292  62.031
 7107DA     SC146221  57.061  85.107  61.986
 7107DA     SC246222  57.283  85.065  62.093
 7107DA     SC346223  57.349  84.960  61.868
 7107DA     SC446224  57.083  85.047  61.838
 7108DA     BB146225  56.643  85.437  62.266
 7108DA     BB246226  56.962  85.489  62.440
 7108DA     BB346227  57.073  85.645  62.345
 7108DA     SC146228  57.223  85.452  62.152
 7108DA     SC246229  57.455  85.367  62.121
 7108DA     SC346230  57.381  85.310  61.882
 7108DA     SC446231  57.158  85.426  62.007
 7109DA     BB146232  57.071  85.749  62.654
 7109DA     BB246233  57.437  85.731  62.642
 7109DA     BB346234  57.515  85.892  62.525
 7109DA     SC146235  57.510  85.734  62.258
 7109DA     SC246236  57.675  85.635  62.099
 7109DA     SC346237  57.483  85.640  61.928
 7109DA     SC446238  57.378  85.746  62.166
 7110DT     BB146239  57.623  86.026  62.622
 7110DT     BB246240  57.945  85.928  62.493
 7110DT     BB346241  58.007  86.063  62.349
 7110DT     SC146242  57.838  85.967  62.173
 7110DT     SC246243  57.946  85.864  62.018
 7110DT     SC346244  57.635  85.954  62.005
 7111DT     BB146245  58.193  86.159  62.522
 7111DT     BB246246  58.384  86.063  62.232
 7111DT     BB346247  58.391  86.220  62.097
 7111DT     SC146248  58.142  86.179  62.024
 7111DT     SC246249  58.138  86.103  61.823
 7111DT     SC346250  57.884  86.220  61.987
 7112DT     BB146251  58.645  86.236  62.165
 7112DT     BB246252  58.645  86.191  61.807
 7112DT     BB346253  58.611  86.372  61.713
 7112DT     SC146254  58.357  86.366  61.776
 7112DT     SC246255  58.239  86.336  61.598
 7112DT     SC346256  58.127  86.434  61.886
 7113DG     BB146257  58.965  86.223  61.574
 7113DG     BB246258  58.744  86.314  61.303
 7113DG     BB346259  58.742  86.511  61.280
 7113DG     SC146260  58.510  86.557  61.475
 7113DG     SC246261  58.237  86.655  61.404
 7113DG     SC346262  58.272  86.644  61.697
 7113DG     SC446263  58.542  86.578  61.630
 7114DT     BB146264  58.813  86.607  61.093
 7114DT     BB246265  58.501  86.708  60.941
 7114DT     BB346266  58.473  86.912  60.967
 7114DT     SC146267  58.411  86.879  61.220
 7114DT     SC246268  58.202  86.921  61.248
 7114DT     SC346269  58.424  86.897  61.482
 7115DT     BB146270  58.525  86.956  60.703
 7115DT     BB246271  58.196  87.096  60.756
 7115DT     BB346272  58.212  87.292  60.821
 7115DT     SC146273  58.286  87.214  61.061
 7115DT     SC246274  58.130  87.258  61.201
 7115DT     SC346275  58.435  87.180  61.276
 7116DA     BB146276  57.949  87.286  60.495
 7116DA     BB246277  57.789  87.471  60.767
 7116DA     BB346278  57.881  87.662  60.792
 7116DA     SC146279  58.090  87.560  61.000
 7116DA     SC246280  58.136  87.588  61.243
 7116DA     SC346281  58.373  87.509  61.187
 7116DA     SC446282  58.232  87.511  60.944
 7117DA     BB146283  57.567  87.744  60.762
 7117DA     BB246284  57.596  87.885  61.100
 7117DA     BB346285  57.709  88.066  61.095
 7117DA     SC146286  57.982  87.925  61.143
 7117DA     SC246287  58.152  87.909  61.325
 7117DA     SC346288  58.313  87.835  61.140
 7117DA     SC446289  58.067  87.882  61.014
 7118DG     BB146290  57.442  88.165  61.213
 7118DG     BB246291  57.652  88.234  61.500
 7118DG     BB346292  57.756  88.400  61.469
 7118DG     SC146293  57.993  88.257  61.339
 7118DG     SC246294  58.269  88.235  61.453
 7118DG     SC346295  58.261  88.135  61.174
 7118DG     SC446296  57.992  88.232  61.181
 7119DT     BB146297  57.724  88.559  61.602
 7119DT     BB246298  58.026  88.556  61.799
 7119DT     BB346299  58.156  88.701  61.730
 7119DT     SC146300  58.218  88.557  61.520
 7119DT     SC246301  58.421  88.488  61.538
 7119DT     SC346302  58.242  88.484  61.268
 7120DA     BB146303  58.114  88.746  62.146
 7120DA     BB246304  58.471  88.754  62.066
 7120DA     BB346305  58.521  88.936  61.966
 7120DA     SC146306  58.472  88.821  61.681
 7120DA     SC246307  58.608  88.759  61.482
 7120DA     SC346308  58.388  88.778  61.351
 7120DA     SC446309  58.326  88.839  61.618
 7121DG     BB146310  58.714  88.991  62.208
 7121DG     BB246311  58.970  88.971  61.953
 7121DG     BB346312  58.986  89.146  61.860
 7121DG     SC146313  58.778  89.078  61.646
 7121DG     SC246314  58.831  89.041  61.354
 7121DG     SC346315  58.541  89.045  61.408
 7121DG     SC446316  58.623  89.111  61.674
 7122DT     BB146317  59.178  89.301  61.859
 7122DT     BB246318  59.309  89.245  61.527
 7122DT     BB346319  59.273  89.410  61.408
 7122DT     SC146320  59.019  89.348  61.386
 7122DT     SC246321  58.978  89.285  61.184
 7122DT     SC346322  58.756  89.364  61.407
 7123DG     BB146323  59.684  89.401  61.398
 7123DG     BB246324  59.550  89.410  61.062
 7123DG     BB346325  59.510  89.598  61.010
 7123DG     SC146326  59.223  89.593  61.117
 7123DG     SC246327  58.975  89.610  60.952
 7123DG     SC346328  58.912  89.629  61.240
 7123DG     SC446329  59.197  89.632  61.270
 7124DA     BB146330  59.705  89.576  60.718
 7124DA     BB246331  59.410  89.639  60.509
 7124DA     BB346332  59.372  89.848  60.496
 7124DA     SC146333  59.183  89.854  60.743
 7124DA     SC246334  58.940  89.886  60.789
 7124DA     SC346335  59.013  89.941  61.029
 7124DA     SC446336  59.249  89.886  60.886
 7125DT     BB146337  59.392  89.954  60.311
 7125DT     BB246338  59.039  89.982  60.244
 7125DT     BB346339  58.978  90.178  60.267
 7125DT     SC146340  58.990  90.160  60.529
 7125DT     SC246341  58.791  90.166  60.610
 7125DT     SC346342  59.066  90.204  60.777
 7126DA     BB146343  58.847  90.037  59.897
 7126DA     BB246344  58.560  90.189  60.068
 7126DA     BB346345  58.577  90.402  60.067
 7126DA     SC146346  58.730  90.416  60.337
 7126DA     SC246347  58.687  90.493  60.570
 7126DA     SC346348  58.942  90.499  60.594
 7126DA     SC446349  58.891  90.414  60.332
 7127DA     BB146350  58.281  90.336  59.952
 7127DA     BB246351  58.155  90.533  60.235
 7127DA     BB346352  58.197  90.740  60.206
 7127DA     SC146353  58.472  90.730  60.351
 7127DA     SC246354  58.572  90.815  60.563
 7127DA     SC346355  58.798  90.780  60.446
 7127DA     SC446356  58.603  90.703  60.261
 7128DT     BB146357  58.042  90.825  60.193
 7128DT     BB246358  58.053  90.995  60.512
 7128DT     BB346359  58.125  91.187  60.487
 7128DT     SC146360  58.370  91.099  60.455
 7128DT     SC246361  58.489  91.155  60.625
 7128DT     SC346362  58.603  91.048  60.341
 7129DG     BB146363  57.763  91.195  60.672
 7129DG     BB246364  58.006  91.398  60.847
 7129DG     BB346365  58.036  91.568  60.748
 7129DG     SC146366  58.264  91.455  60.577
 7129DG     SC246367  58.550  91.538  60.590
 7129DG     SC346368  58.503  91.359  60.359
 7129DG     SC446369  58.229  91.384  60.438
 7130DA     BB146370  57.975  91.737  61.048
 7130DA     BB246371  58.300  91.906  61.024
 7130DA     BB346372  58.293  92.058  60.875
 7130DA     SC146373  58.387  91.871  60.645
 7130DA     SC246374  58.589  91.842  60.502
 7130DA     SC346375  58.432  91.716  60.342
 7130DA     SC446376  58.273  91.797  60.558
 7131DT     BB146377  58.297  92.286  60.910
 7131DT     BB246378  58.628  92.350  60.781
 7131DT     BB346379  58.615  92.453  60.602
 7131DT     SC146380  58.540  92.237  60.474
 7131DT     SC246381  58.698  92.174  60.342
 7131DT     SC346382  58.391  92.071  60.334
 7132DA     BB146383  58.854  92.743  60.804
 7132DA     BB246384  59.013  92.691  60.478
 7132DA     BB346385  58.912  92.804  60.328
 7132DA     SC146386  58.715  92.575  60.254
 7132DA     SC246387  58.675  92.421  60.062
 7132DA     SC346388  58.440  92.392  60.161
 7132DA     SC446389  58.573  92.571  60.330
 7133DT     BB146390  58.980  93.014  60.191
 7133DT     BB246391  59.042  92.838  59.882
 7133DT     BB346392  58.909  92.900  59.737
 7133DT     SC146393  58.713  92.764  59.848
 7133DT     SC246394  58.660  92.598  59.722
 7133DT     SC346395  58.485  92.712  59.969
 7134DT     BB146396  59.082  93.072  59.571
 7134DT     BB246397  58.958  92.828  59.335
 7134DT     BB346398  58.793  92.904  59.236
 7134DT     SC146399  58.640  92.870  59.447
 7134DT     SC246400  58.499  92.713  59.408
 7134DT     SC346401  58.483  92.927  59.651
 7135DT     BB146402  58.927  92.947  58.990
 7135DT     BB246403  58.657  92.725  58.904
 7135DT     BB346404  58.491  92.834  58.844
 7135DT     SC146405  58.438  92.904  59.091
 7135DT     SC246406  58.258  92.806  59.156
 7135DT     SC346407  58.402  93.055  59.304
 7136DG     BB146408  58.589  92.586  58.537
 7136DG     BB246409  58.242  92.547  58.633
 7136DG     BB346410  58.133  92.693  58.554
 7136DG     SC146411  58.170  92.882  58.792
 7136DG     SC246412  57.955  92.972  58.980
 7136DG     SC346413  58.206  93.122  59.026
 7136DG     SC446414  58.296  92.981  58.794
 7137DT     BB146415  57.975  92.643  58.415
 7137DT     BB246416  57.680  92.693  58.616
 7137DT     BB346417  57.589  92.872  58.565
 7137DT     SC146418  57.774  93.011  58.689
 7137DT     SC246419  57.689  93.104  58.863
 7137DT     SC346420  57.973  93.179  58.728
 7138DA     BB146421  57.302  92.568  58.559
 7138DA     BB246422  57.164  92.850  58.748
 7138DA     BB346423  57.112  93.010  58.616
 7138DA     SC146424  57.390  93.148  58.636
 7138DA     SC246425  57.486  93.357  58.733
 7138DA     SC346426  57.681  93.319  58.570
 7138DA     SC446427  57.501  93.108  58.526
 7139DG     BB146428  56.824  92.969  58.727
 7139DG     BB246429  56.869  93.306  58.849
 7139DG     BB346430  56.828  93.437  58.705
 7139DG     SC146431  57.115  93.445  58.599
 7139DG     SC246432  57.299  93.680  58.610
 7139DG     SC346433  57.414  93.464  58.444
 7139DG     SC446434  57.160  93.340  58.487
 7140DC     BB146435  56.652  93.591  58.710
 7140DC     BB246436  56.829  93.899  58.771
 7140DC     BB346437  56.832  94.014  58.599
 7140DC     SC146438  57.014  93.859  58.490
 7140DC     SC246439  57.200  93.966  58.477
 7140DC     SC346440  57.127  93.690  58.323
 7141DG     BB146441  56.641  94.255  58.869
 7141DG     BB246442  56.915  94.431  58.712
 7141DG     BB346443  56.858  94.501  58.535
 7141DG     SC146444  56.942  94.249  58.382
 7141DG     SC246445  57.163  94.231  58.182
 7141DG     SC346446  57.004  93.982  58.185
 7141DG     SC446447  56.837  94.130  58.365
 7142DT     BB146448  56.851  94.722  58.487
 7142DT     BB246449  57.143  94.758  58.279
 7142DT     BB346450  57.087  94.778  58.081
 7142DT     SC146451  57.029  94.523  58.063
 7142DT     SC246452  57.172  94.426  57.936
 7142DT     SC346453  56.888  94.302  58.031
 7143DA     BB146454  57.343  95.098  58.167
 7143DA     BB246455  57.462  94.940  57.859
 7143DA     BB346456  57.333  94.988  57.696
 7143DA     SC146457  57.147  94.742  57.737
 7143DA     SC246458  57.095  94.529  57.619
 7143DA     SC346459  56.878  94.529  57.757
 7143DA     SC446460  57.018  94.761  57.831
 7144DC     BB146461  57.410  95.099  57.551
 7144DC     BB246462  57.443  94.832  57.310
 7144DC     BB346463  57.294  94.848  57.167
 7144DC     SC146464  57.113  94.758  57.334
 7144DC     SC246465  57.050  94.562  57.272
 7144DC     SC346466  56.898  94.752  57.488
 7145DG     BB146467  57.658  94.851  56.985
 7145DG     BB246468  57.440  94.598  56.845
 7145DG     BB346469  57.307  94.682  56.724
 7145DG     SC146470  57.099  94.729  56.945
 7145DG     SC246471  56.833  94.595  56.966
 7145DG     SC346472  56.858  94.813  57.165
 7145DG     SC446473  57.105  94.864  57.029
 7146DT     BB146474  57.314  94.618  56.531
 7146DT     BB246475  57.020  94.411  56.508
 7146DT     BB346476  56.865  94.517  56.421
 7146DT     SC146477  56.826  94.656  56.640
 7146DT     SC246478  56.639  94.599  56.728
 7146DT     SC346479  56.812  94.862  56.804
 7147DT     BB146480  56.906  94.351  56.223
 7147DT     BB246481  56.559  94.311  56.312
 7147DT     BB346482  56.446  94.462  56.227
 7147DT     SC146483  56.535  94.637  56.400
 7147DT     SC246484  56.375  94.693  56.533
 7147DT     SC346485  56.657  94.849  56.499
 7148DC     BB146486  56.351  94.270  56.072
 7148DC     BB246487  56.060  94.421  56.224
 7148DC     BB346488  56.007  94.592  56.120
 7148DC     SC146489  56.208  94.726  56.224
 7148DC     SC246490  56.132  94.874  56.360
 7148DC     SC346491  56.433  94.863  56.240
 7149DA     BB146492  55.660  94.357  56.151
 7149DA     BB246493  55.571  94.701  56.240
 7149DA     BB346494  55.570  94.825  56.066
 7149DA     SC146495  55.869  94.908  56.094
 7149DA     SC246496  55.999  95.113  56.151
 7149DA     SC346497  56.195  94.996  56.034
 7149DA     SC446498  55.978  94.819  56.017
 7150DT     BB146499  55.389  94.912  55.979
 7150DT     BB246500  55.449  95.254  56.076
 7150DT     BB346501  55.502  95.367  55.911
 7150DT     SC146502  55.742  95.261  55.906
 7150DT     SC246503  55.887  95.409  55.962
 7150DT     SC346504  55.952  95.124  55.821
 7151DC     BB146505  55.252  95.509  55.866
 7151DC     BB246506  55.494  95.776  55.888
 7151DC     BB346507  55.562  95.825  55.698
 7151DC     SC146508  55.709  95.608  55.686
 7151DC     SC246509  55.917  95.663  55.695
 7151DC     SC346510  55.800  95.374  55.606
 7152DA     BB146511  55.424  96.205  55.824
 7152DA     BB246512  55.765  96.252  55.699
 7152DA     BB346513  55.766  96.258  55.486
 7152DA     SC146514  55.810  95.952  55.453
 7152DA     SC246515  55.991  95.798  55.377
 7152DA     SC346516  55.803  95.626  55.345
 7152DA     SC446517  55.679  95.859  55.439
 7153DT     BB146518  55.815  96.442  55.352
 7153DT     BB246519  56.146  96.332  55.263
 7153DT     BB346520  56.153  96.284  55.061
 7153DT     SC146521  56.022  96.061  55.101
 7153DT     SC246522  56.154  95.894  55.069
 7153DT     SC346523  55.831  95.880  55.089
 7154DA     BB146524  56.465  96.556  55.125
 7154DA     BB246525  56.605  96.261  54.957
 7154DA     BB346526  56.554  96.262  54.750
 7154DA     SC146527  56.292  96.100  54.790
 7154DA     SC246528  56.205  95.872  54.736
 7154DA     SC346529  55.973  95.975  54.767
 7154DA     SC446530  56.156  96.182  54.812
 7155DA     BB146531  56.876  96.230  54.742
 7155DA     BB246532  56.816  95.904  54.584
 7155DA     BB346533  56.756  95.930  54.381
 7155DA     SC146534  56.452  95.941  54.447
 7155DA     SC246535  56.250  95.799  54.412
 7155DA     SC346536  56.116  96.014  54.451
 7155DA     SC446537  56.386  96.086  54.472
 7156DG     BB146538  57.006  95.757  54.376
 7156DG     BB246539  56.769  95.514  54.250
 7156DG     BB346540  56.725  95.555  54.060
 7156DG     SC146541  56.489  95.739  54.129
 7156DG     SC246542  56.202  95.685  54.070
 7156DG     SC346543  56.239  95.961  54.167
 7156DG     SC446544  56.517  95.895  54.153
 7157DT     BB146545  56.769  95.403  53.957
 7157DT     BB246546  56.445  95.269  53.871
 7157DT     BB346547  56.384  95.344  53.688
 7157DT     SC146548  56.329  95.578  53.794
 7157DT     SC246549  56.116  95.607  53.794
 7157DT     SC346550  56.339  95.837  53.843
 7158DT     BB146551  56.419  95.095  53.639
 7158DT     BB246552  56.078  95.168  53.547
 7158DT     BB346553  56.073  95.270  53.367
 7158DT     SC146554  56.156  95.491  53.481
 7158DT     SC246555  55.996  95.635  53.482
 7158DT     SC346556  56.308  95.698  53.540
 7159DA     BB146557  55.800  94.948  53.373
 7159DA     BB246558  55.633  95.242  53.232
 7159DA     BB346559  55.716  95.291  53.042
 7159DA     SC146560  55.930  95.484  53.158
 7159DA     SC246561  55.977  95.729  53.160
 7159DA     SC346562  56.217  95.663  53.219
 7159DA     SC446563  56.075  95.423  53.193
 7160DA     BB146564  55.396  95.277  52.957
 7160DA     BB246565  55.432  95.622  52.838
 7160DA     BB346566  55.547  95.627  52.659
 7160DA     SC146567  55.819  95.662  52.806
 7160DA     SC246568  55.991  95.840  52.835
 7160DA     SC346569  56.149  95.649  52.900
 7160DA     SC446570  55.902  95.529  52.842
 7161DC     BB146571  55.467  95.677  52.462
 7161DC     BB246572  55.624  96.000  52.425
 7161DC     BB346573  55.777  95.989  52.286
 7161DC     SC146574  55.932  95.863  52.457
 7161DC     SC246575  56.094  95.993  52.515
 7161DC     SC346576  56.079  95.673  52.564
 7162DA     BB146577  55.554  96.298  52.099
 7162DA     BB246578  55.902  96.412  52.105
 7162DA     BB346579  56.013  96.319  51.948
 7162DA     SC146580  56.102  96.077  52.121
 7162DA     SC246581  56.313  95.990  52.222
 7162DA     SC346582  56.191  95.765  52.233
 7162DA     SC446583  56.010  95.945  52.118
 7163DA     BB146584  56.112  96.615  51.802
 7163DA     BB246585  56.460  96.529  51.879
 7163DA     BB346586  56.542  96.407  51.724
 7163DA     SC146587  56.458  96.138  51.858
 7163DA     SC246588  56.569  95.945  51.969
 7163DA     SC346589  56.353  95.817  51.918
 7163DA     SC446590  56.316  96.076  51.816
 7164DA     BB146591  56.795  96.625  51.671
 7164DA     BB246592  57.028  96.365  51.785
 7164DA     BB346593  57.079  96.236  51.623
 7164DA     SC146594  56.847  96.035  51.678
 7164DA     SC246595  56.820  95.802  51.761
 7164DA     SC346596  56.590  95.809  51.648
 7164DA     SC446597  56.708  96.059  51.600
 7165DA     BB146598  57.395  96.309  51.687
 7165DA     BB246599  57.442  95.957  51.779
 7165DA     BB346600  57.474  95.839  51.604
 7165DA     SC146601  57.172  95.775  51.563
 7165DA     SC246602  57.020  95.578  51.581
 7165DA     SC346603  56.862  95.711  51.429
 7165DA     SC446604  57.088  95.873  51.467
 7166DT     BB146605  57.657  95.746  51.578
 7166DT     BB246606  57.545  95.417  51.674
 7166DT     BB346607  57.535  95.294  51.507
 7166DT     SC146608  57.316  95.413  51.423
 7166DT     SC246609  57.150  95.277  51.442
 7166DT     SC346610  57.153  95.553  51.271
 7167DT     BB146611  57.739  95.172  51.621
 7167DT     BB246612  57.479  94.923  51.594
 7167DT     BB346613  57.482  94.839  51.405
 7167DT     SC146614  57.373  95.054  51.300
 7167DT     SC246615  57.172  95.008  51.237
 7167DT     SC346616  57.344  95.270  51.152
 7168DA     BB146617  57.455  94.571  51.728
 7168DA     BB246618  57.199  94.486  51.480
 7168DA     BB346619  57.290  94.413  51.302
 7168DA     SC146620  57.310  94.693  51.168
 7168DA     SC246621  57.204  94.814  50.977
 7168DA     SC346622  57.409  94.967  50.987
 7168DA     SC446623  57.445  94.776  51.189
 7169DT     BB146624  57.226  94.263  51.300
 7169DT     BB246625  57.007  94.308  51.016
 7169DT     BB346626  57.108  94.263  50.841
 7169DT     SC146627  57.244  94.487  50.852
 7169DT     SC246628  57.179  94.617  50.693
 7169DT     SC346629  57.448  94.653  50.870
 7170DT     BB146630  56.932  94.077  50.855
 7170DT     BB246631  56.889  94.229  50.531
 7170DT     BB346632  57.039  94.166  50.403
 7170DT     SC146633  57.215  94.321  50.521
 7170DT     SC246634  57.270  94.481  50.389
 7170DT     SC346635  57.428  94.395  50.658
 7171DA     BB146636  56.668  94.116  50.210
 7171DA     BB246637  56.903  94.260  49.968
 7171DA     BB346638  57.051  94.116  49.914
 7171DA     SC146639  57.249  94.199  50.139
 7171DA     SC246640  57.471  94.313  50.157
 7171DA     SC346641  57.486  94.202  50.388
 7171DA     SC446642  57.240  94.121  50.279
 7172DT     BB146643  57.058  94.034  49.724
 7172DT     BB246644  57.363  94.190  49.610
 7172DT     BB346645  57.518  94.054  49.614
 7172DT     SC146646  57.535  94.069  49.876
 7172DT     SC246647  57.718  94.168  49.930
 7172DT     SC346648  57.528  93.997  50.130
 7173DT     BB146649  57.535  93.995  49.333
 7173DT     BB246650  57.874  94.084  49.417
 7173DT     BB346651  57.981  93.915  49.469
 7173DT     SC146652  57.861  93.901  49.702
 7173DT     SC246653  58.002  93.947  49.857
 7173DT     SC346654  57.712  93.809  49.899
 7174DT     BB146655  58.142  93.869  49.225
 7174DT     BB246656  58.392  93.882  49.485
 7174DT     BB346657  58.435  93.690  49.550
 7174DT     SC146658  58.209  93.676  49.683
 7174DT     SC246659  58.249  93.679  49.894
 7174DT     SC346660  57.968  93.596  49.755
 7175DT     BB146661  58.693  93.650  49.422
 7175DT     BB246662  58.765  93.596  49.771
 7175DT     BB346663  58.751  93.394  49.815
 7175DT     SC146664  58.489  93.401  49.806
 7175DT     SC246665  58.410  93.375  50.004
 7175DT     SC346666  58.242  93.352  49.728
 7176DA     BB146667  59.134  93.499  49.951
 7176DA     BB246668  58.963  93.327  50.227
 7176DA     BB346669  58.961  93.117  50.193
 7176DA     SC146670  58.689  93.120  50.042
 7176DA     SC246671  58.455  93.043  50.081
 7176DA     SC346672  58.429  93.058  49.826
 7176DA     SC446673  58.693  93.134  49.882
 7177DG     BB146674  59.123  93.098  50.458
 7177DG     BB246675  58.823  92.934  50.576
 7177DG     BB346676  58.827  92.741  50.528
 7177DG     SC146677  58.691  92.780  50.257
 7177DG     SC246678  58.420  92.680  50.181
 7177DG     SC346679  58.562  92.788  49.945
 7177DG     SC446680  58.781  92.811  50.129
 7178DT     BB146681  58.826  92.588  50.686
 7178DT     BB246682  58.485  92.471  50.666
 7178DT     BB346683  58.479  92.288  50.570
 7178DT     SC146684  58.521  92.399  50.336
 7178DT     SC246685  58.342  92.384  50.217
 7178DT     SC346686  58.638  92.460  50.108
 7179DA     BB146687  58.267  92.265  50.931
 7179DA     BB246688  58.054  92.130  50.665
 7179DA     BB346689  58.127  91.940  50.601
 7179DA     SC146690  58.310  92.058  50.379
 7179DA     SC246691  58.318  92.063  50.129
 7179DA     SC346692  58.567  92.118  50.159
 7179DA     SC446693  58.463  92.090  50.418
 7180DA     BB146694  57.814  91.876  50.667
 7180DA     BB246695  57.782  91.784  50.314
 7180DA     BB346696  57.877  91.597  50.277
 7180DA     SC146697  58.152  91.723  50.206
 7180DA     SC246698  58.295  91.753  50.004
 7180DA     SC346699  58.487  91.788  50.170
 7180DA     SC446700  58.259  91.741  50.325
 7181DG     BB146701  57.589  91.532  50.191
 7181DG     BB246702  57.747  91.495  49.867
 7181DG     BB346703  57.837  91.318  49.856
 7181DG     SC146704  58.104  91.419  49.967
 7181DG     SC246705  58.361  91.437  49.815
 7181DG     SC346706  58.404  91.491  50.103
 7181DG     SC446707  58.128  91.418  50.125
 7182DG     BB146708  57.650  91.267  49.595
 7182DG     BB246709  57.959  91.245  49.408
 7182DG     BB346710  58.038  91.064  49.429
 7182DG     SC146711  58.202  91.137  49.677
 7182DG     SC246712  58.499  91.149  49.693
 7182DG     SC346713  58.378  91.177  49.962
 7182DG     SC446714  58.134  91.121  49.822
 7183DT     BB146715  58.063  90.933  49.254
 7183DT     BB246716  58.420  90.946  49.203
 7183DT     BB346717  58.508  90.772  49.273
 7183DT     SC146718  58.479  90.849  49.522
 7183DT     SC246719  58.671  90.893  49.607
 7183DT     SC346720  58.396  90.852  49.773
 7184DG     BB146721  58.609  90.788  48.878
 7184DG     BB246722  58.902  90.739  49.084
 7184DG     BB346723  58.917  90.548  49.137
 7184DG     SC146724  58.751  90.580  49.392
 7184DG     SC246725  58.852  90.551  49.672
 7184DG     SC346726  58.557  90.574  49.668
 7184DG     SC446727  58.592  90.562  49.384
 7185DC     BB146728  59.092  90.400  49.074
 7185DC     BB246729  59.278  90.379  49.383
 7185DC     BB346730  59.250  90.193  49.470
 7185DC     SC146731  59.007  90.257  49.547
 7185DC     SC246732  59.003  90.276  49.761
 7185DC     SC346733  58.744  90.253  49.567
 7186DA     BB146734  59.665  90.241  49.446
 7186DA     BB246735  59.585  90.140  49.789
 7186DA     BB346736  59.541  89.931  49.797
 7186DA     SC146737  59.235  89.970  49.750
 7186DA     SC246738  59.024  89.945  49.880
 7186DA     SC346739  58.908  89.935  49.652
 7186DA     SC446740  59.182  89.964  49.598
 7187DA     BB146741  59.772  89.948  50.025
 7187DA     BB246742  59.518  89.834  50.263
 7187DA     BB346743  59.483  89.625  50.239
 7187DA     SC146744  59.254  89.662  50.031
 7187DA     SC246745  59.007  89.630  50.022
 7187DA     SC346746  59.038  89.627  49.767
 7187DA     SC446747  59.294  89.661  49.876
 7188DC     BB146748  59.532  89.532  50.390
 7188DC     BB246749  59.199  89.463  50.510
 7188DC     BB346750  59.145  89.269  50.460
 7188DC     SC146751  59.108  89.335  50.209
 7188DC     SC246752  58.898  89.327  50.163
 7188DC     SC346753  59.139  89.343  49.947
 7189DT     BB146754  59.162  89.245  50.718
 7189DT     BB246755  58.827  89.142  50.633
 7189DT     BB346756  58.828  88.948  50.562
 7189DT     SC146757  58.929  89.025  50.332
 7189DT     SC246758  58.781  89.002  50.178
 7189DT     SC346759  59.098  89.049  50.132
 7190DA     BB146760  58.529  89.013  50.852
 7190DA     BB246761  58.384  88.822  50.575
 7190DA     BB346762  58.468  88.626  50.568
 7190DA     SC146763  58.699  88.705  50.376
 7190DA     SC246764  58.766  88.663  50.139
 7190DA     SC346765  59.001  88.733  50.214
 7190DA     SC446766  58.839  88.750  50.442
 7191DT     BB146767  58.347  88.478  50.608
 7191DT     BB246768  58.328  88.330  50.280
 7191DT     BB346769  58.452  88.164  50.269
 7191DT     SC146770  58.666  88.315  50.257
 7191DT     SC246771  58.752  88.300  50.061
 7191DT     SC346772  58.897  88.424  50.323
 7192DT     BB146773  58.241  87.988  50.280
 7192DT     BB246774  58.426  87.884  49.988
 7192DT     BB346775  58.575  87.751  50.043
 7192DT     SC146776  58.721  87.944  50.144
 7192DT     SC246777  58.895  87.974  50.020
 7192DT     SC346778  58.852  88.091  50.319
 7193DT     BB146779  58.450  87.511  49.952
 7193DT     BB246780  58.772  87.502  49.790
 7193DT     BB346781  58.908  87.402  49.910
 7193DT     SC146782  58.927  87.605  50.074
 7193DT     SC246783  59.122  87.695  50.055
 7193DT     SC346784  58.911  87.748  50.295
 7194DG     BB146785  58.917  87.152  49.580
 7194DG     BB246786  59.252  87.252  49.670
 7194DG     BB346787  59.321  87.135  49.816
 7194DG     SC146788  59.215  87.313  50.042
 7194DG     SC246789  59.381  87.467  50.236
 7194DG     SC346790  59.095  87.472  50.314
 7194DG     SC446791  59.066  87.288  50.096
 7195DT     BB146792  59.513  86.973  49.811
 7195DT     BB246793  59.760  87.165  49.991
 7195DT     BB346794  59.794  87.080  50.177
 7195DT     SC146795  59.566  87.171  50.269
 7195DT     SC246796  59.604  87.325  50.414
 7195DT     SC346797  59.321  87.173  50.368
 7196DT     BB146798  60.046  86.977  50.109
 7196DT     BB246799  60.110  87.192  50.391
 7196DT     BB346800  60.094  87.085  50.568
 7196DT     SC146801  59.832  87.081  50.551
 7196DT     SC246802  59.749  87.206  50.705
 7196DT     SC346803  59.586  86.989  50.528
 7197DT     BB146804  60.366  87.090  50.606
 7197DT     BB246805  60.229  87.248  50.900
 7197DT     BB346806  60.188  87.106  51.044
 7197DT     SC146807  59.975  87.024  50.913
 7197DT     SC246808  59.798  87.080  51.022
 7197DT     SC346809  59.812  86.867  50.778
 7198DA     BB146810  60.417  87.413  51.213
 7198DA     BB246811  60.122  87.360  51.425
 7198DA     BB346812  60.140  87.176  51.532
 7198DA     SC146813  59.999  87.006  51.313
 7198DA     SC246814  59.784  86.884  51.284
 7198DA     SC346815  59.904  86.756  51.098
 7198DA     SC446816  60.092  86.937  51.201
 7199DA     BB146817  60.076  87.395  51.764
 7199DA     BB246818  59.772  87.201  51.828
 7199DA     BB346819  59.821  87.017  51.924
 7199DA     SC146820  59.851  86.858  51.659
 7199DA     SC246821  59.730  86.678  51.536
 7199DA     SC346822  59.951  86.641  51.412
 7199DA     SC446823  59.998  86.849  51.594
 7200DC     BB146824  59.747  87.014  52.089
 7200DC     BB246825  59.482  86.781  52.013
 7200DC     BB346826  59.537  86.590  52.072
 7200DC     SC146827  59.702  86.566  51.870
 7200DC     SC246828  59.623  86.421  51.731
 7200DC     SC346829  59.926  86.536  51.734
 7201DA     BB146830  59.152  86.700  52.201
 7201DA     BB246831  59.135  86.368  52.047
 7201DA     BB346832  59.235  86.224  52.168
 7201DA     SC146833  59.511  86.262  52.029
 7201DA     SC246834  59.661  86.131  51.879
 7201DA     SC346835  59.846  86.289  51.960
 7201DA     SC446836  59.612  86.369  52.093
 7202DG     BB146837  58.950  86.113  52.146
 7202DG     BB246838  59.123  85.840  51.983
 7202DG     BB346839  59.214  85.727  52.119
 7202DG     SC146840  59.475  85.886  52.113
 7202DG     SC246841  59.738  85.787  52.012
 7202DG     SC346842  59.768  86.050  52.146
 7202DG     SC446843  59.491  86.012  52.210
 7203DG     BB146844  59.040  85.476  51.999
 7203DG     BB246845  59.358  85.322  51.922
 7203DG     BB346846  59.434  85.238  52.085
 7203DG     SC146847  59.586  85.489  52.173
 7203DG     SC246848  59.882  85.521  52.183
 7203DG     SC346849  59.748  85.751  52.310
 7203DG     SC446850  59.511  85.596  52.266
 7204DA     BB146851  59.472  84.936  51.910
 7204DA     BB246852  59.833  84.936  51.978
 7204DA     BB346853  59.870  84.874  52.178
 7204DA     SC146854  59.861  85.163  52.294
 7204DA     SC246855  60.020  85.328  52.392
 7204DA     SC346856  59.812  85.439  52.493
 7204DA     SC446857  59.719  85.216  52.349
 7205DC     BB146858  59.969  84.679  52.243
 7205DC     BB246859  60.285  84.821  52.343
 7205DC     BB346860  60.305  84.811  52.549
 7205DC     SC146861  60.135  85.007  52.583
 7205DC     SC246862  60.240  85.181  52.655
 7205DC     SC346863  59.919  85.138  52.658
 7206DT     BB146864  60.495  84.592  52.564
 7206DT     BB246865  60.660  84.858  52.743
 7206DT     BB346866  60.619  84.842  52.945
 7206DT     SC146867  60.375  84.933  52.911
 7206DT     SC246868  60.359  85.129  52.998
 7206DT     SC346869  60.112  84.941  52.907
 7207DA     BB146870  61.038  84.849  52.933
 7207DA     BB246871  60.932  85.104  53.175
 7207DA     BB346872  60.877  85.012  53.360
 7207DA     SC146873  60.577  84.980  53.282
 7207DA     SC246874  60.357  85.077  53.348
 7207DA     SC346875  60.255  84.866  53.243
 7207DA     SC446876  60.533  84.841  53.213
 7208DT     BB146877  60.990  85.050  53.527
 7208DT     BB246878  60.757  85.279  53.680
 7208DT     BB346879  60.666  85.189  53.842
 7208DT     SC146880  60.515  85.042  53.686
 7208DT     SC246881  60.310  85.108  53.701
 7208DT     SC346882  60.411  84.830  53.570
 7209DG     BB146883  60.845  85.540  53.941
 7209DG     BB246884  60.497  85.533  54.040
 7209DG     BB346885  60.474  85.418  54.201
 7209DG     SC146886  60.427  85.161  54.042
 7209DG     SC246887  60.172  85.006  54.031
 7209DG     SC346888  60.392  84.857  53.901
 7209DG     SC446889  60.553  85.072  54.000
 7210DA     BB146890  60.303  85.702  54.285
 7210DA     BB246891  60.005  85.497  54.344
 7210DA     BB346892  60.031  85.375  54.517
 7210DA     SC146893  60.151  85.135  54.359
 7210DA     SC246894  60.083  84.904  54.296
 7210DA     SC346895  60.333  84.862  54.260
 7210DA     SC446896  60.311  85.129  54.344
 7211DT     BB146897  59.912  85.425  54.639
 7211DT     BB246898  59.701  85.133  54.627
 7211DT     BB346899  59.756  85.000  54.776
 7211DT     SC146900  59.970  84.927  54.643
 7211DT     SC246901  59.946  84.725  54.574
 7211DT     SC346902  60.224  84.890  54.583
 7212DG     BB146903  59.360  85.089  54.825
 7212DG     BB246904  59.418  84.732  54.835
 7212DG     BB346905  59.497  84.681  55.010
 7212DG     SC146906  59.786  84.718  54.918
 7212DG     SC246907  59.989  84.501  54.886
 7212DG     SC346908  60.114  84.767  54.856
 7212DG     SC446909  59.855  84.862  54.932
 7213DA     BB146910  59.247  84.436  55.070
 7213DA     BB246911  59.500  84.173  55.100
 7213DA     BB346912  59.592  84.181  55.292
 7213DA     SC146913  59.820  84.373  55.202
 7213DA     SC246914  60.066  84.362  55.165
 7213DA     SC346915  60.060  84.618  55.187
 7213DA     SC446916  59.796  84.531  55.220
 7214DA     BB146917  59.510  83.858  55.363
 7214DA     BB246918  59.867  83.780  55.389
 7214DA     BB346919  59.940  83.830  55.583
 7214DA     SC146920  60.021  84.120  55.503
 7214DA     SC246921  60.232  84.250  55.470
 7214DA     SC346922  60.084  84.458  55.500
 7214DA     SC446923  59.913  84.237  55.526
 7215DG     BB146924  60.022  83.525  55.676
 7215DG     BB246925  60.360  83.653  55.673
 7215DG     BB346926  60.410  83.719  55.854
 7215DG     SC146927  60.309  84.004  55.804
 7215DG     SC246928  60.479  84.249  55.788
 7215DG     SC346929  60.192  84.319  55.790
 7215DG     SC446930  60.156  84.039  55.835
 7216DA     BB146931  60.702  83.518  55.883
 7216DA     BB246932  60.914  83.816  55.896
 7216DA     BB346933  60.925  83.890  56.095
 7216DA     SC146934  60.681  84.080  56.065
 7216DA     SC246935  60.638  84.326  56.054
 7216DA     SC346936  60.397  84.266  56.118
 7216DA     SC446937  60.536  84.023  56.107
 7217DA     BB146938  61.248  83.863  56.048
 7217DA     BB246939  61.266  84.227  56.081
 7217DA     BB346940  61.262  84.283  56.287
 7217DA     SC146941  60.952  84.309  56.299
 7217DA     SC246942  60.783  84.491  56.322
 7217DA     SC346943  60.623  84.305  56.397
 7217DA     SC446944  60.868  84.180  56.345
 7218DC     BB146945  61.422  84.367  56.345
 7218DC     BB246946  61.290  84.703  56.351
 7218DC     BB346947  61.251  84.760  56.546
 7218DC     SC146948  61.037  84.609  56.556
 7218DC     SC246949  60.861  84.733  56.562
 7218DC     SC346950  60.872  84.416  56.630
 7219DA     BB146951  61.461  85.041  56.316
 7219DA     BB246952  61.182  85.210  56.484
 7219DA     BB346953  61.216  85.218  56.695
 7219DA     SC146954  61.073  84.948  56.753
 7219DA     SC246955  60.863  84.871  56.864
 7219DA     SC346956  60.980  84.643  56.881
 7219DA     SC446957  61.163  84.815  56.756
 7220DT     BB146958  61.219  85.381  56.716
 7220DT     BB246959  60.907  85.413  56.895
 7220DT     BB346960  60.940  85.392  57.098
 7220DT     SC146961  60.972  85.132  57.074
 7220DT     SC246962  60.806  85.031  57.166
 7220DT     SC346963  61.087  84.895  57.079
 7221DA     BB146964  60.700  85.726  57.009
 7221DA     BB246965  60.553  85.550  57.295
 7221DA     BB346966  60.680  85.569  57.466
 7221DA     SC146967  60.841  85.310  57.405
 7221DA     SC246968  60.867  85.081  57.501
 7221DA     SC346969  61.088  85.074  57.371
 7221DA     SC446970  60.976  85.325  57.318
 7222DA     BB146971  60.396  85.674  57.601
 7222DA     BB246972  60.439  85.410  57.852
 7222DA     BB346973  60.597  85.460  57.986
 7222DA     SC146974  60.817  85.318  57.818
 7222DA     SC246975  60.962  85.116  57.836
 7222DA     SC346976  61.110  85.232  57.661
 7222DA     SC446977  60.896  85.407  57.709
 7223DC     BB146978  60.570  85.513  58.199
 7223DC     BB246979  60.708  85.213  58.343
 7223DC     BB346980  60.893  85.254  58.429
 7223DC     SC146981  61.007  85.268  58.193
 7223DC     SC246982  61.139  85.100  58.168
 7223DC     SC346983  61.135  85.367  57.985
 7224DG     BB146984  60.691  85.130  58.766
 7224DG     BB246985  61.005  84.953  58.737
 7224DG     BB346986  61.152  85.063  58.814
 7224DG     SC146987  61.216  85.205  58.550
 7224DG     SC246988  61.467  85.175  58.392
 7224DG     SC346989  61.299  85.394  58.283
 7224DG     SC446990  61.138  85.340  58.513
 7225DT     BB146991  61.295  85.019  59.016
 7225DT     BB246992  61.604  84.921  58.857
 7225DT     BB346993  61.748  85.068  58.886
 7225DT     SC146994  61.634  85.225  58.710
 7225DT     SC246995  61.760  85.240  58.536
 7225DT     SC346996  61.510  85.433  58.606
 7226DG     BB146997  61.918  84.739  59.060
 7226DG     BB246998  62.145  84.888  58.821
 7226DG     BB346999  62.239  85.042  58.904
 7226DG     SC147000  62.028  85.248  58.822
 7226DG     SC247001  62.066  85.470  58.627
 7226DG     SC347002  61.807  85.497  58.766
 7226DG     SC447003  61.904  85.275  58.920
 7227DA     BB147004  62.546  84.904  58.809
 7227DA     BB247005  62.624  85.200  58.609
 7227DA     BB347006  62.693  85.359  58.734
 7227DA     SC147007  62.409  85.479  58.779
 7227DA     SC247008  62.283  85.683  58.714
 7227DA     SC347009  62.130  85.628  58.912
 7227DA     SC447010  62.327  85.428  58.908
 7228DT     BB147011  62.896  85.432  58.728
 7228DT     BB247012  62.827  85.743  58.559
 7228DT     BB347013  62.847  85.901  58.691
 7228DT     SC147014  62.620  85.842  58.809
 7228DT     SC247015  62.475  85.994  58.764
 7228DT     SC347016  62.449  85.770  58.997
 7229DA     BB147017  63.103  86.014  58.377
 7229DA     BB247018  62.892  86.304  58.451
 7229DA     BB347019  62.960  86.402  58.627
 7229DA     SC147020  62.779  86.237  58.819
 7229DA     SC247021  62.579  86.275  58.963
 7229DA     SC347022  62.652  86.061  59.085
 7229DA     SC447023  62.842  86.103  58.883
 7230DA     BB147024  62.993  86.693  58.459
 7230DA     BB247025  62.738  86.838  58.678
 7230DA     BB347026  62.826  86.905  58.861
 7230DA     SC147027  62.783  86.634  59.009
 7230DA     SC247028  62.642  86.546  59.194
 7230DA     SC347029  62.816  86.358  59.210
 7230DA     SC447030  62.903  86.527  59.004
 7231DG     BB147031  62.749  87.215  58.810
 7231DG     BB247032  62.532  87.167  59.095
 7231DG     BB347033  62.628  87.216  59.262
 7231DG     SC147034  62.740  86.936  59.310
 7231DG     SC247035  62.668  86.753  59.535
 7231DG     SC347036  62.896  86.645  59.382
 7231DG     SC447037  62.881  86.896  59.244
 7232DA     BB147038  62.361  87.422  59.333
 7232DA     BB247039  62.288  87.223  59.632
 7232DA     BB347040  62.421  87.275  59.791
 7232DA     SC147041  62.635  87.062  59.715
 7232DA     SC247042  62.724  86.849  59.809
 7232DA     SC347043  62.928  86.893  59.659
 7232DA     SC447044  62.753  87.108  59.616
 7233DA     BB147045  62.123  87.298  59.917
 7233DA     BB247046  62.230  87.034  60.148
 7233DA     BB347047  62.369  87.110  60.290
 7233DA     SC147048  62.619  87.044  60.117
 7233DA     SC247049  62.811  86.884  60.123
 7233DA     SC347050  62.926  87.047  59.962
 7233DA     SC447051  62.674  87.158  60.018
 7234DG     BB147052  62.138  86.996  60.453
 7234DG     BB247053  62.398  86.772  60.566
 7234DG     BB347054  62.518  86.866  60.695
 7234DG     SC147055  62.709  86.968  60.479
 7234DG     SC247056  62.994  86.884  60.443
 7234DG     SC347057  62.928  87.113  60.267
 7234DG     SC447058  62.679  87.108  60.408
 7235DA     BB147059  62.450  86.575  60.867
 7235DA     BB247060  62.810  86.511  60.887
 7235DA     BB347061  62.903  86.652  61.017
 7235DA     SC147062  62.964  86.857  60.791
 7235DA     SC247063  63.164  86.945  60.671
 7235DA     SC347064  63.014  87.143  60.607
 7235DA     SC447065  62.855  86.972  60.763
 7236DA     BB147066  63.010  86.366  61.139
 7236DA     BB247067  63.349  86.491  61.077
 7236DA     BB347068  63.397  86.647  61.214
 7236DA     SC147069  63.292  86.875  61.030
 7236DA     SC247070  63.387  87.062  60.896
 7236DA     SC347071  63.151  87.162  60.906
 7236DA     SC447072  63.139  86.921  61.048
 7237DT     BB147073  63.541  86.617  61.355
 7237DT     BB247074  63.794  86.830  61.210
 7237DT     BB347075  63.806  87.007  61.316
 7237DT     SC147076  63.583  87.095  61.211
 7237DT     SC247077  63.626  87.258  61.077
 7237DT     SC347078  63.334  87.180  61.192
 7238DT     BB147079  64.049  86.947  61.449
 7238DT     BB247080  64.118  87.261  61.286
 7238DT     BB347081  64.071  87.418  61.413
 7238DT     SC147082  63.814  87.383  61.374
 7238DT     SC247083  63.736  87.548  61.260
 7238DT     SC347084  63.560  87.330  61.423
 7239DA     BB147085  64.472  87.501  61.315
 7239DA     BB247086  64.280  87.807  61.256
 7239DA     BB347087  64.237  87.905  61.441
 7239DA     SC147088  63.967  87.758  61.484
 7239DA     SC247089  63.724  87.815  61.482
 7239DA     SC347090  63.693  87.600  61.619
 7239DA     SC447091  63.969  87.622  61.569
 7240DT     BB147092  64.322  88.098  61.494
 7240DT     BB247093  64.022  88.288  61.430
 7240DT     BB347094  63.941  88.355  61.608
 7240DT     SC147095  63.852  88.115  61.667
 7240DT     SC247096  63.637  88.114  61.655
 7240DT     SC347097  63.821  87.886  61.794
 7241DA     BB147098  63.978  88.675  61.342
 7241DA     BB247099  63.634  88.670  61.469
 7241DA     BB347100  63.629  88.736  61.672
 7241DA     SC147101  63.664  88.451  61.792
 7241DA     SC247102  63.527  88.286  61.918
 7241DA     SC347103  63.751  88.182  61.986
 7241DA     SC447104  63.814  88.402  61.824
 7242DT     BB147105  63.533  88.891  61.684
 7242DT     BB247106  63.239  88.745  61.834
 7242DT     BB347107  63.241  88.776  62.038
 7242DT     SC147108  63.425  88.592  62.072
 7242DT     SC247109  63.340  88.423  62.173
 7242DT     SC347110  63.656  88.481  62.135
 7243DC     BB147111  63.040  88.936  61.984
 7243DC     BB247112  62.910  88.694  62.217
 7243DC     BB347113  62.961  88.748  62.411
 7243DC     SC147114  63.210  88.672  62.374
 7243DC     SC247115  63.248  88.496  62.492
 7243DC     SC347116  63.472  88.684  62.352
 7244DT     BB147117  62.704  88.800  62.438
 7244DT     BB247118  62.780  88.559  62.695
 7244DT     BB347119  62.860  88.655  62.861
 7244DT     SC147120  63.089  88.690  62.738
 7244DT     SC247121  63.239  88.565  62.830
 7244DT     SC347122  63.295  88.811  62.627
 7245DC     BB147123  62.631  88.593  62.977
 7245DC     BB247124  62.886  88.446  63.185
 7245DC     BB347125  62.963  88.588  63.314
 7245DC     SC147126  63.099  88.702  63.120
 7245DC     SC247127  63.309  88.668  63.151
 7245DC     SC347128  63.179  88.884  62.947
 7246DT     BB147129  62.838  88.452  63.502
 7246DT     BB247130  63.183  88.460  63.605
 7246DT     BB347131  63.223  88.638  63.703
 7246DT     SC147132  63.223  88.771  63.476
 7246DT     SC247133  63.424  88.835  63.431
 7246DT     SC347134  63.153  88.943  63.289
 7247DG     BB147135  63.321  88.320  63.937
 7247DG     BB247136  63.593  88.557  63.911
 7247DG     BB347137  63.555  88.718  64.022
 7247DG     SC147138  63.411  88.869  63.798
 7247DG     SC247139  63.507  89.119  63.666
 7247DG     SC347140  63.231  89.055  63.582
 7247DG     SC447141  63.254  88.848  63.779
 7248DC     BB147142  63.689  88.752  64.169
 7248DC     BB247143  63.864  89.046  64.053
 7248DC     BB347144  63.782  89.215  64.139
 7248DC     SC147145  63.571  89.203  63.983
 7248DC     SC247146  63.576  89.366  63.843
 7248DC     SC347147  63.320  89.178  63.907
 7249DG     BB147148  64.180  89.209  64.228
 7249DG     BB247149  64.080  89.531  64.100
 7249DG     BB347150  63.981  89.633  64.240
 7249DG     SC147151  63.706  89.524  64.161
 7249DG     SC247152  63.482  89.682  64.044
 7249DG     SC347153  63.393  89.409  64.115
 7249DG     SC447154  63.655  89.387  64.228
 7250DA     BB147155  64.196  89.912  64.199
 7250DA     BB247156  63.911  90.130  64.127
 7250DA     BB347157  63.807  90.178  64.307
 7250DA     SC147158  63.612  89.937  64.288
 7250DA     SC247159  63.369  89.898  64.244
 7250DA     SC347160  63.406  89.671  64.358
 7250DA     SC447161  63.654  89.801  64.363
 7251DA     BB147162  63.840  90.518  64.264
 7251DA     BB247163  63.475  90.548  64.260
 7251DA     BB347164  63.399  90.554  64.459
 7251DA     SC147165  63.361  90.246  64.479
 7251DA     SC247166  63.172  90.083  64.488
 7251DA     SC347167  63.344  89.920  64.587
 7251DA     SC447168  63.482  90.160  64.540
 7252DA     BB147169  63.239  90.858  64.426
 7252DA     BB247170  62.919  90.687  64.483
 7252DA     BB347171  62.881  90.669  64.692
 7252DA     SC147172  63.020  90.392  64.717
 7252DA     SC247173  62.954  90.155  64.758
 7252DA     SC347174  63.198  90.119  64.827
 7252DA     SC447175  63.176  90.390  64.757
 7253DA     BB147176  62.587  90.830  64.659
 7253DA     BB247177  62.420  90.520  64.761
 7253DA     BB347178  62.415  90.505  64.974
 7253DA     SC147179  62.685  90.352  64.994
 7253DA     SC247180  62.763  90.122  65.052
 7253DA     SC347181  62.992  90.232  65.091
 7253DA     SC447182  62.819  90.439  65.014
 7254DT     BB147183  62.232  90.512  65.079
 7254DT     BB247184  62.214  90.157  65.145
 7254DT     BB347185  62.250  90.120  65.345
 7254DT     SC147186  62.507  90.165  65.316
 7254DT     SC247187  62.615  89.980  65.338
 7254DT     SC347188  62.744  90.278  65.343
 7255DT     BB147189  61.993  90.056  65.360
 7255DT     BB247190  62.171  89.760  65.465
 7255DT     BB347191  62.219  89.774  65.666
 7255DT     SC147192  62.410  89.947  65.616
 7255DT     SC247193  62.601  89.855  65.652
 7255DT     SC347194  62.547  90.173  65.616
 7256DA     BB147195  62.040  89.405  65.572
 7256DA     BB247196  62.343  89.342  65.769
 7256DA     BB347197  62.315  89.407  65.970
 7256DA     SC147198  62.424  89.694  65.918
 7256DA     SC247199  62.624  89.830  65.978
 7256DA     SC347200  62.479  90.033  65.920
 7256DA     SC447201  62.317  89.808  65.878
 7257DT     BB147202  62.318  89.267  66.095
 7257DT     BB247203  62.639  89.340  66.243
 7257DT     BB347204  62.613  89.443  66.421
 7257DT     SC147205  62.551  89.664  66.293
 7257DT     SC247206  62.709  89.808  66.319
 7257DT     SC347207  62.411  89.871  66.208
 7258DA     BB147208  62.861  89.117  66.520
 7258DA     BB247209  63.010  89.419  66.667
 7258DA     BB347210  62.898  89.482  66.836
 7258DA     SC147211  62.710  89.669  66.672
 7258DA     SC247212  62.671  89.914  66.646
 7258DA     SC347213  62.442  89.847  66.552
 7258DA     SC447214  62.572  89.607  66.618
 7259DA     BB147215  63.176  89.466  67.027
 7259DA     BB247216  63.142  89.827  67.085
 7259DA     BB347217  62.999  89.865  67.238
 7259DA     SC147218  62.758  89.886  67.042
 7259DA     SC247219  62.605  90.063  66.956
 7259DA     SC347220  62.449  89.869  66.894
 7259DA     SC447221  62.674  89.752  67.012
 7260DT     BB147222  63.032  89.953  67.464
 7260DT     BB247223  62.910  90.283  67.387
 7260DT     BB347224  62.734  90.319  67.491
 7260DT     SC147225  62.598  90.164  67.330
 7260DT     SC247226  62.465  90.283  67.210
 7260DT     SC347227  62.451  89.961  67.245
 7261DC     BB147228  62.841  90.501  67.687
 7261DC     BB247229  62.590  90.693  67.513
 7261DC     BB347230  62.409  90.681  67.614
 7261DC     SC147231  62.369  90.436  67.530
 7261DC     SC247232  62.206  90.434  67.389
 7261DC     SC347233  62.334  90.174  67.535
 7262DA     BB147234  62.516  91.075  67.526
 7262DA     BB247235  62.179  91.012  67.394
 7262DA     BB347236  62.039  90.998  67.554
 7262DA     SC147237  62.070  90.691  67.588
 7262DA     SC247238  61.934  90.486  67.547
 7262DA     SC347239  62.093  90.372  67.712
 7262DA     SC447240  62.179  90.638  67.694
 7263DA     BB147241  61.943  91.202  67.321
 7263DA     BB247242  61.659  90.973  67.284
 7263DA     BB347243  61.536  90.979  67.459
 7263DA     SC147244  61.688  90.749  67.603
 7263DA     SC247245  61.645  90.512  67.669
 7263DA     SC347246  61.837  90.545  67.835
 7263DA     SC447247  61.809  90.789  67.701
 7264DT     BB147248  61.397  91.031  67.390
 7264DT     BB247249  61.216  90.720  67.415
 7264DT     BB347250  61.117  90.710  67.596
 7264DT     SC147251  61.341  90.662  67.725
 7264DT     SC247252  61.340  90.459  67.797
 7264DT     SC347253  61.543  90.694  67.891
 7265DT     BB147254  60.923  90.725  67.429
 7265DT     BB247255  60.870  90.422  67.616
 7265DT     BB347256  60.796  90.467  67.804
 7265DT     SC147257  61.031  90.550  67.886
 7265DT     SC247258  61.110  90.412  68.030
 7265DT     SC347259  61.221  90.711  67.974
 7266DC     BB147260  60.581  90.356  67.707
 7266DC     BB247261  60.658  90.172  68.007
 7266DC     BB347262  60.593  90.277  68.173
 7266DC     SC147263  60.792  90.447  68.153
 7266DC     SC247264  60.928  90.418  68.316
 7266DC     SC347265  60.922  90.674  68.118
 7267DT     BB147266  60.405  90.091  68.197
 7267DT     BB247267  60.576  90.092  68.515
 7267DT     BB347268  60.501  90.243  68.635
 7267DT     SC147269  60.627  90.427  68.496
 7267DT     SC247270  60.785  90.511  68.616
 7267DT     SC347271  60.667  90.636  68.341
 7268DT     BB147272  60.385  90.054  68.785
 7268DT     BB247273  60.589  90.243  69.016
 7268DT     BB347274  60.485  90.411  69.081
 7268DT     SC147275  60.523  90.532  68.851
 7268DT     SC247276  60.659  90.696  68.878
 7268DT     SC347277  60.470  90.647  68.620
 7269DG     BB147278  60.584  90.196  69.413
 7269DG     BB247279  60.687  90.542  69.443
 7269DG     BB347280  60.530  90.656  69.486
 7269DG     SC147281  60.458  90.710  69.194
 7269DG     SC247282  60.474  90.974  69.055
 7269DG     SC347283  60.339  90.774  68.885
 7269DG     SC447284  60.360  90.609  69.118
 7270DG     BB147285  60.691  90.753  69.755
 7270DG     BB247286  60.680  91.085  69.613
 7270DG     BB347287  60.502  91.168  69.649
 7270DG     SC147288  60.374  91.061  69.392
 7270DG     SC247289  60.283  91.226  69.160
 7270DG     SC347290  60.196  90.945  69.130
 7270DG     SC447291  60.304  90.917  69.394
 7271DA     BB147292  60.676  91.441  69.778
 7271DA     BB247293  60.516  91.660  69.530
 7271DA     BB347294  60.314  91.699  69.586
 7271DA     SC147295  60.198  91.458  69.428
 7271DA     SC247296  60.059  91.419  69.224
 7271DA     SC347297  60.013  91.187  69.324
 7271DA     SC447298  60.181  91.319  69.507
 7272DT     BB147299  60.266  91.886  69.635
 7272DT     BB247300  60.081  91.966  69.336
 7272DT     BB347301  59.878  91.960  69.375
 7272DT     SC147302  59.879  91.698  69.378
 7272DT     SC247303  59.774  91.623  69.206
 7272DT     SC347304  59.856  91.450  69.468
 7273DC     BB147305  59.864  92.231  69.362
 7273DC     BB247306  59.624  92.117  69.118
 7273DC     BB347307  59.442  92.081  69.210
 7273DC     SC147308  59.530  91.859  69.318
 7273DC     SC247309  59.433  91.691  69.225
 7273DC     SC347310  59.603  91.685  69.502
 7274DA     BB147311  59.357  92.338  68.888
 7274DA     BB247312  59.118  92.060  68.874
 7274DA     BB347313  58.972  92.081  69.028
 7274DA     SC147314  59.133  91.916  69.237
 7274DA     SC247315  59.116  91.695  69.350
 7274DA     SC347316  59.275  91.795  69.525
 7274DA     SC447317  59.231  91.997  69.335
 7275DC     BB147318  58.769  92.120  68.983
 7275DC     BB247319  58.644  91.789  69.057
 7275DC     BB347320  58.540  91.791  69.236
 7275DC     SC147321  58.762  91.806  69.374
 7275DC     SC247322  58.793  91.621  69.479
 7275DC     SC347323  58.948  91.901  69.536
 7276DG     BB147324  58.254  91.666  68.969
 7276DG     BB247325  58.279  91.437  69.248
 7276DG     BB347326  58.177  91.508  69.403
 7276DG     SC147327  58.414  91.664  69.519
 7276DG     SC247328  58.553  91.606  69.777
 7276DG     SC347329  58.645  91.863  69.663
 7276DG     SC447330  58.439  91.815  69.471
 7277DA     BB147331  57.992  91.210  69.432
 7277DA     BB247332  58.132  91.153  69.766
 7277DA     BB347333  58.026  91.268  69.912
 7277DA     SC147334  58.215  91.514  69.888
 7277DA     SC247335  58.386  91.629  70.028
 7277DA     SC347336  58.345  91.832  69.876
 7277DA     SC447337  58.174  91.630  69.784
 7278DA     BB147338  57.979  90.979  70.062
 7278DA     BB247339  58.184  91.110  70.336
 7278DA     BB347340  58.067  91.239  70.461
 7278DA     SC147341  58.137  91.497  70.301
 7278DA     SC247342  58.270  91.705  70.336
 7278DA     SC347343  58.128  91.803  70.146
 7278DA     SC447344  58.037  91.540  70.183
 7279DG     BB147345  58.143  91.028  70.671
 7279DG     BB247346  58.335  91.305  70.804
 7279DG     BB347347  58.218  91.422  70.915
 7279DG     SC147348  58.133  91.601  70.682
 7279DG     SC247349  58.204  91.889  70.648
 7279DG     SC347350  58.005  91.805  70.446
 7279DG     SC447351  58.005  91.560  70.595
 7280DT     BB147352  58.289  91.432  71.095
 7280DT     BB247353  58.436  91.762  71.092
 7280DT     BB347354  58.304  91.899  71.174
 7280DT     SC147355  58.154  91.896  70.960
 7280DT     SC247356  58.171  92.085  70.858
 7280DT     SC347357  57.944  91.860  70.804
 7281DG     BB147358  58.694  91.880  71.302
 7281DG     BB247359  58.595  92.212  71.200
 7281DG     BB347360  58.462  92.286  71.328
 7281DG     SC147361  58.219  92.175  71.179
 7281DG     SC247362  58.010  92.336  71.040
 7281DG     SC347363  57.932  92.052  71.053
 7281DG     SC447364  58.167  92.028  71.214
 7282DT     BB147365  58.548  92.435  71.369
 7282DT     BB247366  58.338  92.691  71.226
 7282DT     BB347367  58.182  92.735  71.355
 7282DT     SC147368  58.058  92.512  71.294
 7282DT     SC247369  57.880  92.557  71.182
 7282DT     SC347370  57.950  92.273  71.322
 7283DA     BB147371  58.375  93.081  71.208
 7283DA     BB247372  58.013  93.132  71.192
 7283DA     BB347373  57.930  93.143  71.388
 7283DA     SC147374  57.875  92.838  71.409
 7283DA     SC247375  57.677  92.686  71.414
 7283DA     SC347376  57.837  92.515  71.519
 7283DA     SC447377  57.990  92.746  71.475
 7284DT     BB147378  57.854  93.319  71.451
 7284DT     BB247379  57.506  93.224  71.449
 7284DT     BB347380  57.441  93.188  71.642
 7284DT     SC147381  57.567  92.958  71.649
 7284DT     SC247382  57.424  92.797  71.650
 7284DT     SC347383  57.739  92.771  71.722
 7285DT     BB147384  57.294  93.427  71.671
 7285DT     BB247385  57.053  93.170  71.748
 7285DT     BB347386  57.055  93.130  71.951
 7285DT     SC147387  57.282  92.999  71.930
 7285DT     SC247388  57.246  92.789  71.964
 7285DT     SC347389  57.535  92.935  71.963
 7286DT     BB147390  56.812  93.263  72.017
 7286DT     BB247391  56.761  92.926  72.136
 7286DT     BB347392  56.818  92.912  72.334
 7286DT     SC147393  57.072  92.917  72.269
 7286DT     SC247394  57.159  92.724  72.307
 7286DT     SC347395  57.322  92.999  72.253
 7287DA     BB147396  56.428  92.763  72.316
 7287DA     BB247397  56.634  92.514  72.489
 7287DA     BB347398  56.676  92.578  72.688
 7287DA     SC147399  56.939  92.726  72.612
 7287DA     SC247400  57.184  92.696  72.647
 7287DA     SC347401  57.202  92.946  72.591
 7287DA     SC447402  56.929  92.882  72.576
 7288DT     BB147403  56.601  92.465  72.815
 7288DT     BB247404  56.909  92.302  72.911
 7288DT     BB347405  56.978  92.381  73.089
 7288DT     SC147406  57.058  92.601  72.970
 7288DT     SC247407  57.273  92.607  72.969
 7288DT     SC347408  57.076  92.856  72.904
 7289DC     BB147409  56.916  92.142  73.161
 7289DC     BB247410  57.266  92.181  73.239
 7289DC     BB347411  57.288  92.290  73.413
 7289DC     SC147412  57.226  92.514  73.291
 7289DC     SC247413  57.401  92.638  73.278
 7289DC     SC347414  57.096  92.733  73.226
 7290DA     BB147415  57.528  91.941  73.386
 7290DA     BB247416  57.732  92.218  73.512
 7290DA     BB347417  57.663  92.279  73.704
 7290DA     SC147418  57.465  92.492  73.593
 7290DA     SC247419  57.445  92.740  73.587
 7290DA     SC347420  57.196  92.699  73.541
 7290DA     SC447421  57.314  92.445  73.566
 7291DT     BB147422  57.789  92.247  73.830
 7291DT     BB247423  57.875  92.587  73.913
 7291DT     BB347424  57.766  92.650  74.077
 7291DT     SC147425  57.548  92.674  73.933
 7291DT     SC247426  57.499  92.883  73.913
 7291DT     SC347427  57.303  92.633  73.845
 7292DA     BB147428  58.161  92.730  74.202
 7292DA     BB247429  57.959  93.022  74.293
 7292DA     BB347430  57.837  92.977  74.463
 7292DA     SC147431  57.596  92.878  74.293
 7292DA     SC247432  57.365  92.954  74.238
 7292DA     SC347433  57.320  92.710  74.176
 7292DA     SC447434  57.587  92.721  74.261
 7293DT     BB147435  57.853  93.057  74.689
 7293DT     BB247436  57.564  93.272  74.682
 7293DT     BB347437  57.415  93.195  74.804
 7293DT     SC147438  57.358  93.008  74.629
 7293DT     SC247439  57.164  93.047  74.544
 7293DT     SC347440  57.328  92.769  74.522
 7294DT     BB147441  57.437  93.370  75.040
 7294DT     BB247442  57.089  93.401  74.950
 7294DT     BB347443  56.976  93.266  75.060
 7294DT     SC147444  57.060  93.065  74.914
 7294DT     SC247445  56.898  92.990  74.794
 7294DT     SC347446  57.179  92.838  74.849
 7295DC     BB147447  56.856  93.450  75.249
 7295DC     BB247448  56.571  93.289  75.098
 7295DC     BB347449  56.513  93.126  75.212
 7295DC     SC147450  56.717  92.984  75.127
 7295DC     SC247451  56.646  92.826  75.000
 7295DC     SC347452  56.941  92.846  75.131
 7296DT     BB147453  56.282  93.247  75.320
 7296DT     BB247454  56.156  92.949  75.160
 7296DT     BB347455  56.153  92.793  75.295
 7296DT     SC147456  56.414  92.765  75.281
 7296DT     SC247457  56.461  92.581  75.181
 7296DT     SC347458  56.667  92.761  75.354
 7297DT     BB147459  55.873  92.792  75.329
 7297DT     BB247460  55.948  92.457  75.220
 7297DT     BB347461  55.981  92.335  75.384
 7297DT     SC147462  56.218  92.441  75.424
 7297DT     SC247463  56.370  92.296  75.377
 7297DT     SC347464  56.414  92.572  75.541
 7298DA     BB147465  55.683  92.133  75.166
 7298DA     BB247466  55.949  91.891  75.239
 7298DA     BB347467  55.939  91.828  75.442
 7298DA     SC147468  56.130  92.051  75.546
 7298DA     SC247469  56.360  92.067  75.639
 7298DA     SC347470  56.285  92.294  75.733
 7298DA     SC447471  56.063  92.188  75.597
 7299DA     BB147472  55.923  91.521  75.321
 7299DA     BB247473  56.242  91.455  75.490
 7299DA     BB347474  56.209  91.415  75.697
 7299DA     SC147475  56.238  91.712  75.783
 7299DA     SC247476  56.401  91.852  75.911
 7299DA     SC347477  56.206  92.017  75.939
 7299DA     SC447478  56.104  91.801  75.791
 7300DA     BB147479  56.373  91.138  75.632
 7300DA     BB247480  56.631  91.260  75.862
 7300DA     BB347481  56.572  91.226  76.064
 7300DA     SC147482  56.431  91.502  76.095
 7300DA     SC247483  56.469  91.716  76.218
 7300DA     SC347484  56.219  91.758  76.180
 7300DA     SC447485  56.274  91.510  76.062
 7301DA     BB147486  56.863  91.084  76.060
 7301DA     BB247487  56.965  91.337  76.305
 7301DA     BB347488  56.888  91.290  76.498
 7301DA     SC147489  56.625  91.451  76.459
 7301DA     SC247490  56.522  91.660  76.548
 7301DA     SC347491  56.300  91.562  76.465
 7301DA     SC447492  56.497  91.373  76.401
 7302DA     BB147493  57.206  91.347  76.518
 7302DA     BB247494  57.112  91.622  76.741
 7302DA     BB347495  57.034  91.545  76.925
 7302DA     SC147496  56.739  91.540  76.826
 7302DA     SC247497  56.527  91.663  76.872
 7302DA     SC347498  56.410  91.459  76.768
 7302DA     SC447499  56.685  91.404  76.759
 7303DA     BB147500  57.263  91.771  76.981
 7303DA     BB247501  56.999  91.948  77.165
 7303DA     BB347502  56.943  91.837  77.338
 7303DA     SC147503  56.718  91.677  77.193
 7303DA     SC247504  56.469  91.667  77.194
 7303DA     SC347505  56.499  91.435  77.089
 7303DA     SC447506  56.758  91.535  77.129
 7304DT     BB147507  56.984  91.937  77.473
 7304DT     BB247508  56.648  92.021  77.576
 7304DT     BB347509  56.583  91.888  77.720
 7304DT     SC147510  56.548  91.699  77.541
 7304DT     SC247511  56.337  91.662  77.517
 7304DT     SC347512  56.577  91.471  77.411
 7305DG     BB147513  56.555  92.265  77.874
 7305DG     BB247514  56.247  92.080  77.919
 7305DG     BB347515  56.269  91.948  78.067
 7305DG     SC147516  56.369  91.723  77.885
 7305DG     SC247517  56.224  91.469  77.825
 7305DG     SC347518  56.500  91.461  77.718
 7305DG     SC447519  56.526  91.712  77.855
 7306DA     BB147520  55.982  92.072  78.234
 7306DA     BB247521  55.824  91.742  78.218
 7306DA     BB347522  55.904  91.614  78.369
 7306DA     SC147523  56.130  91.500  78.188
 7306DA     SC247524  56.187  91.284  78.077
 7306DA     SC347525  56.426  91.376  78.066
 7306DA     SC447526  56.272  91.575  78.191
 7307DA     BB147527  55.593  91.562  78.488
 7307DA     BB247528  55.634  91.207  78.407
 7307DA     BB347529  55.744  91.108  78.561
 7307DA     SC147530  56.021  91.157  78.428
 7307DA     SC247531  56.198  91.023  78.315
 7307DA     SC347532  56.353  91.220  78.368
 7307DA     SC447533  56.101  91.290  78.471
 7308DT     BB147534  55.660  90.951  78.702
 7308DT     BB247535  55.815  90.669  78.538
 7308DT     BB347536  55.963  90.590  78.659
 7308DT     SC147537  56.125  90.789  78.607
 7308DT     SC247538  56.289  90.718  78.486
 7308DT     SC347539  56.277  91.002  78.643
 7309DT     BB147540  55.811  90.367  78.715
 7309DT     BB247541  56.111  90.236  78.564
 7309DT     BB347542  56.254  90.201  78.709
 7309DT     SC147543  56.303  90.458  78.734
 7309DT     SC247544  56.499  90.501  78.656
 7309DT     SC347545  56.321  90.698  78.841
 7310DA     BB147546  56.202  89.873  78.456
 7310DA     BB247547  56.560  89.950  78.475
 7310DA     BB347548  56.636  89.899  78.667
 7310DA     SC147549  56.581  90.179  78.791
 7310DA     SC247550  56.714  90.375  78.871
 7310DA     SC347551  56.502  90.439  79.001
 7310DA     SC447552  56.441  90.201  78.865
 7311DA     BB147553  56.827  89.770  78.438
 7311DA     BB247554  57.096  89.966  78.591
 7311DA     BB347555  57.141  89.892  78.786
 7311DA     SC147556  56.938  90.078  78.931
 7311DA     SC247557  56.945  90.274  79.084
 7311DA     SC347558  56.704  90.210  79.144
 7311DA     SC447559  56.790  90.021  78.956
 7312DA     BB147560  57.420  89.922  78.616
 7312DA     BB247561  57.527  90.141  78.890
 7312DA     BB347562  57.548  90.029  79.070
 7312DA     SC147563  57.255  90.077  79.163
 7312DA     SC247564  57.136  90.204  79.341
 7312DA     SC347565  56.940  90.044  79.297
 7312DA     SC447566  57.145  89.967  79.121
 7313DA     BB147567  57.831  90.191  79.040
 7313DA     BB247568  57.755  90.336  79.368
 7313DA     BB347569  57.769  90.187  79.520
 7313DA     SC147570  57.470  90.103  79.501
 7313DA     SC247571  57.264  90.121  79.640
 7313DA     SC347572  57.175  89.928  79.496
 7313DA     SC447573  57.434  89.982  79.402
 7314DA     BB147574  57.962  90.424  79.641
 7314DA     BB247575  57.740  90.426  79.932
 7314DA     BB347576  57.769  90.250  80.049
 7314DA     SC147577  57.551  90.086  79.900
 7314DA     SC247578  57.325  89.992  79.948
 7314DA     SC347579  57.370  89.836  79.750
 7314DA     SC447580  57.599  89.996  79.775
 7315DG     BB147581  57.840  90.460  80.266
 7315DG     BB247582  57.552  90.318  80.433
 7315DG     BB347583  57.603  90.147  80.521
 7315DG     SC147584  57.538  89.974  80.277
 7315DG     SC247585  57.318  89.773  80.258
 7315DG     SC347586  57.496  89.756  80.023
 7315DG     SC447587  57.652  89.948  80.168
 7316DA     BB147588  57.459  90.278  80.809
 7316DA     BB247589  57.230  89.993  80.828
 7316DA     BB347590  57.333  89.819  80.895
 7316DA     SC147591  57.410  89.724  80.609
 7316DA     SC247592  57.349  89.538  80.454
 7316DA     SC347593  57.570  89.592  80.336
 7316DA     SC447594  57.552  89.771  80.550
 7317DA     BB147595  57.088  89.815  81.118
 7317DA     BB247596  57.002  89.482  80.991
 7317DA     BB347597  57.144  89.338  81.058
 7317DA     SC147598  57.330  89.370  80.811
 7317DA     SC247599  57.397  89.237  80.611
 7317DA     SC347600  57.601  89.393  80.600
 7317DA     SC447601  57.450  89.477  80.822
 7318DA     BB147602  56.884  89.166  81.181
 7318DA     BB247603  56.982  88.887  80.965
 7318DA     BB347604  57.149  88.783  81.049
 7318DA     SC147605  57.361  88.956  80.900
 7318DA     SC247606  57.527  88.927  80.717
 7318DA     SC347607  57.641  89.136  80.814
 7318DA     SC447608  57.417  89.086  80.977
 7319DA     BB147609  56.984  88.483  81.053
 7319DA     BB247610  57.240  88.348  80.828
 7319DA     BB347611  57.412  88.288  80.938
 7319DA     SC147612  57.554  88.564  80.914
 7319DA     SC247613  57.752  88.660  80.798
 7319DA     SC347614  57.738  88.847  80.972
 7319DA     SC447615  57.529  88.670  81.032
 7320DA     BB147616  57.424  87.946  80.846
 7320DA     BB247617  57.747  88.006  80.683
 7320DA     BB347618  57.907  87.981  80.823
 7320DA     SC147619  57.909  88.279  80.911
 7320DA     SC247620  58.058  88.478  80.888
 7320DA     SC347621  57.930  88.572  81.090
 7320DA     SC447622  57.819  88.320  81.038
 7321DT     BB147623  58.122  87.791  80.869
 7321DT     BB247624  58.374  88.007  80.729
 7321DT     BB347625  58.517  88.051  80.872
 7321DT     SC147626  58.354  88.216  80.995
 7321DT     SC247627  58.425  88.418  80.969
 7321DT     SC347628  58.202  88.321  81.183
 7322DT     BB147629  58.756  87.881  80.792
 7322DT     BB247630  58.882  88.219  80.777
 7322DT     BB347631  58.985  88.264  80.950
 7322DT     SC147632  58.762  88.287  81.086
 7322DT     SC247633  58.731  88.493  81.139
 7322DT     SC347634  58.575  88.239  81.266
 7323DG     BB147635  59.246  88.315  80.643
 7323DG     BB247636  59.209  88.617  80.837
 7323DG     BB347637  59.323  88.607  81.001
 7323DG     SC147638  59.105  88.479  81.174
 7323DG     SC247639  58.970  88.605  81.408
 7323DG     SC347640  58.898  88.319  81.386
 7323DG     SC447641  59.092  88.319  81.176
 7324DG     BB147642  59.439  88.879  80.876
 7324DG     BB247643  59.308  89.037  81.173
 7324DG     BB347644  59.432  89.008  81.326
 7324DG     SC147645  59.299  88.747  81.415
 7324DG     SC247646  59.149  88.705  81.670
 7324DG     SC347647  59.190  88.448  81.528
 7324DG     SC447648  59.348  88.609  81.352
 7325DA     BB147649  59.380  89.346  81.345
 7325DA     BB247650  59.257  89.302  81.688
 7325DA     BB347651  59.418  89.250  81.818
 7325DA     SC147652  59.384  88.944  81.779
 7325DA     SC247653  59.309  88.748  81.914
 7325DA     SC347654  59.437  88.606  81.742
 7325DA     SC447655  59.471  88.873  81.663
 7326DT     BB147656  59.454  89.382  81.949
 7326DT     BB247657  59.323  89.204  82.234
 7326DT     BB347658  59.479  89.118  82.341
 7326DT     SC147659  59.511  88.931  82.160
 7326DT     SC247660  59.449  88.742  82.240
 7326DT     SC347661  59.624  88.785  81.971
 7327DC     BB147662  59.449  89.302  82.542
 7327DC     BB247663  59.420  88.984  82.708
 7327DC     BB347664  59.608  88.915  82.764
 7327DC     SC147665  59.666  88.851  82.516
 7327DC     SC247666  59.674  88.637  82.498
 7327DC     SC347667  59.787  88.850  82.282
 7328DA     BB147668  59.387  88.904  83.121
 7328DA     BB247669  59.553  88.579  83.084
 7328DA     BB347670  59.760  88.595  83.133
 7328DA     SC147671  59.848  88.659  82.842
 7328DA     SC247672  59.975  88.547  82.659
 7328DA     SC347673  60.006  88.783  82.563
 7328DA     SC447674  59.858  88.814  82.799
 7329DA     BB147675  59.690  88.352  83.342
 7329DA     BB247676  59.925  88.145  83.152
 7329DA     BB347677  60.126  88.193  83.204
 7329DA     SC147678  60.158  88.411  82.984
 7329DA     SC247679  60.284  88.440  82.771
 7329DA     SC347680  60.243  88.691  82.806
 7329DA     SC447681  60.123  88.562  83.024
 7330DA     BB147682  60.117  87.873  83.246
 7330DA     BB247683  60.372  87.854  82.984
 7330DA     BB347684  60.561  87.917  83.060
 7330DA     SC147685  60.520  88.216  82.982
 7330DA     SC247686  60.613  88.378  82.817
 7330DA     SC347687  60.520  88.559  82.973
 7330DA     SC447688  60.456  88.313  83.092
 7331DT     BB147689  60.669  87.779  83.050
 7331DT     BB247690  60.866  87.896  82.772
 7331DT     BB347691  61.040  87.985  82.841
 7331DT     SC147692  60.908  88.199  82.918
 7331DT     SC247693  60.961  88.365  82.791
 7331DT     SC347694  60.807  88.385  83.075
 7332DG     BB147695  61.081  87.694  82.555
 7332DG     BB247696  61.257  87.999  82.470
 7332DG     BB347697  61.413  88.023  82.590
 7332DG     SC147698  61.259  88.179  82.803
 7332DG     SC247699  61.299  88.467  82.873
 7332DG     SC347700  61.116  88.336  83.065
 7332DG     SC447701  61.184  88.099  82.920
 7333DT     BB147702  61.572  88.031  82.485
 7333DT     BB247703  61.677  88.374  82.517
 7333DT     BB347704  61.808  88.394  82.676
 7333DT     SC147705  61.612  88.371  82.850
 7333DT     SC247706  61.582  88.561  82.948
 7333DT     SC347707  61.464  88.275  83.046
 7334DA     BB147708  61.972  88.579  82.336
 7334DA     BB247709  62.018  88.803  82.623
 7334DA     BB347710  62.161  88.723  82.758
 7334DA     SC147711  61.951  88.568  82.927
 7334DA     SC247712  61.852  88.582  83.156
 7334DA     SC347713  61.787  88.336  83.120
 7334DA     SC447714  61.921  88.415  82.887
 7335DA     BB147715  62.309  89.018  82.722
 7335DA     BB247716  62.278  89.061  83.084
 7335DA     BB347717  62.421  88.940  83.186
 7335DA     SC147718  62.231  88.694  83.211
 7335DA     SC247719  62.108  88.573  83.391
 7335DA     SC347720  62.099  88.378  83.225
 7335DA     SC447721  62.237  88.584  83.094
 7336DT     BB147722  62.596  89.016  83.299
 7336DT     BB247723  62.474  88.944  83.630
 7336DT     BB347724  62.579  88.785  83.711
 7336DT     SC147725  62.452  88.613  83.559
 7336DT     SC247726  62.321  88.493  83.681
 7336DT     SC347727  62.409  88.429  83.376
 7337DT     BB147728  62.749  88.932  83.894
 7337DT     BB247729  62.589  88.689  84.108
 7337DT     BB347730  62.707  88.519  84.123
 7337DT     SC147731  62.641  88.442  83.881
 7337DT     SC247732  62.517  88.267  83.893
 7337DT     SC347733  62.664  88.377  83.626
 7338DA     BB147734  62.667  88.615  84.533
 7338DA     BB247735  62.583  88.260  84.499
 7338DA     BB347736  62.761  88.142  84.483
 7338DA     SC147737  62.773  88.157  84.173
 7338DA     SC247738  62.741  88.003  83.979
 7338DA     SC347739  62.875  88.176  83.845
 7338DA     SC447740  62.859  88.276  84.107
 7339DG     BB147741  62.693  87.985  84.754
 7339DG     BB247742  62.656  87.702  84.531
 7339DG     BB347743  62.831  87.610  84.509
 7339DG     SC147744  62.917  87.778  84.269
 7339DG     SC247745  62.954  87.680  83.990
 7339DG     SC347746  63.053  87.957  84.017
 7339DG     SC447747  62.996  87.915  84.295
 7340DA     BB147748  62.684  87.307  84.602
 7340DA     BB247749  62.759  87.167  84.271
 7340DA     BB347750  62.961  87.101  84.263
 7340DA     SC147751  63.071  87.373  84.159
 7340DA     SC247752  63.168  87.465  83.949
 7340DA     SC347753  63.263  87.652  84.098
 7340DA     SC447754  63.122  87.480  84.269
 7341DG     BB147755  62.834  86.825  84.207
 7341DG     BB247756  62.988  86.872  83.883
 7341DG     BB347757  63.178  86.813  83.889
 7341DG     SC147758  63.285  87.088  83.972
 7341DG     SC247759  63.459  87.265  83.806
 7341DG     SC347760  63.435  87.369  84.082
 7341DG     SC447761  63.294  87.124  84.128
 7342DT     BB147762  63.226  86.661  83.760
 7342DT     BB247763  63.405  86.841  83.503
 7342DT     BB347764  63.609  86.818  83.530
 7342DT     SC147765  63.609  86.984  83.733
 7342DT     SC247766  63.711  87.165  83.678
 7342DT     SC347767  63.635  87.074  83.979
 7343DT     BB147768  63.584  86.680  83.310
 7343DT     BB247769  63.819  86.943  83.234
 7343DT     BB347770  64.007  86.892  83.303
 7343DT     SC147771  63.938  86.940  83.551
 7343DT     SC247772  64.041  87.116  83.621
 7343DT     SC347773  63.885  86.900  83.807
 7344DT     BB147774  64.052  86.880  83.048
 7344DT     BB247775  64.290  87.118  83.177
 7344DT     BB347776  64.450  87.017  83.264
 7344DT     SC147777  64.305  86.953  83.474
 7344DT     SC247778  64.376  87.062  83.645
 7344DT     SC347779  64.178  86.806  83.651
 7345DC     BB147780  64.579  87.113  83.058
 7345DC     BB247781  64.762  87.227  83.347
 7345DC     BB347782  64.886  87.076  83.416
 7345DC     SC147783  64.682  86.947  83.519
 7345DC     SC247784  64.693  86.955  83.734
 7345DC     SC347785  64.504  86.756  83.561
 7346DA     BB147786  65.114  87.427  83.373
 7346DA     BB247787  65.192  87.279  83.700
 7346DA     BB347788  65.305  87.099  83.674
 7346DA     SC147789  65.055  86.914  83.664
 7346DA     SC247790  64.948  86.740  83.807
 7346DA     SC347791  64.830  86.665  83.592
 7346DA     SC447792  64.993  86.882  83.519
 7347DG     BB147793  65.533  87.241  83.839
 7347DG     BB247794  65.475  86.971  84.073
 7347DG     BB347795  65.575  86.809  84.015
 7347DG     SC147796  65.346  86.699  83.844
 7347DG     SC247797  65.190  86.451  83.898
 7347DG     SC347798  65.124  86.561  83.631
 7347DG     SC447799  65.336  86.745  83.690
 7348DT     BB147800  65.759  86.701  84.130
 7348DT     BB247801  65.597  86.405  84.258
 7348DT     BB347802  65.659  86.239  84.152
 7348DT     SC147803  65.510  86.306  83.946
 7348DT     SC247804  65.348  86.166  83.927
 7348DT     SC347805  65.443  86.379  83.702
 7349DA     BB147806  65.753  86.120  84.545
 7349DA     BB247807  65.567  85.844  84.393
 7349DA     BB347808  65.693  85.732  84.262
 7349DA     SC147809  65.623  85.902  84.011
 7349DA     SC247810  65.498  85.873  83.797
 7349DA     SC347811  65.634  86.074  83.714
 7349DA     SC447812  65.718  86.027  83.977
 7350DT     BB147813  65.766  85.516  84.294
 7350DT     BB247814  65.544  85.366  84.053
 7350DT     BB347815  65.653  85.296  83.891
 7350DT     SC147816  65.688  85.539  83.799
 7350DT     SC247817  65.575  85.565  83.618
 7350DT     SC347818  65.811  85.761  83.725
 7351DT     BB147819  65.631  85.020  83.956
 7351DT     BB247820  65.488  85.043  83.626
 7351DT     BB347821  65.635  85.008  83.483
 7351DT     SC147822  65.740  85.245  83.522
 7351DT     SC247823  65.705  85.368  83.349
 7351DT     SC347824  65.915  85.432  83.587
 7352DC     BB147825  65.531  84.760  83.421
 7352DC     BB247826  65.523  84.942  83.109
 7352DC     BB347827  65.701  84.915  83.007
 7352DC     SC147828  65.828  85.076  83.170
 7352DC     SC247829  65.881  85.257  83.066
 7352DC     SC347830  66.000  85.161  83.352
 7353DG     BB147831  65.397  84.793  82.767
 7353DG     BB247832  65.606  85.038  82.602
 7353DG     BB347833  65.773  84.951  82.536
 7353DG     SC147834  65.930  85.001  82.794
 7353DG     SC247835  66.166  85.182  82.824
 7353DG     SC347836  66.126  85.020  83.068
 7353DG     SC447837  65.923  84.892  82.911
 7354DA     BB147838  65.686  85.104  82.242
 7354DA     BB247839  66.004  85.287  82.244
 7354DA     BB347840  66.164  85.157  82.190
 7354DA     SC147841  66.225  85.071  82.483
 7354DA     SC247842  66.406  85.105  82.651
 7354DA     SC347843  66.310  84.896  82.766
 7354DA     SC447844  66.152  84.939  82.538
 7355DT     BB147845  66.247  85.204  82.027
 7355DT     BB247846  66.552  85.336  82.168
 7355DT     BB347847  66.704  85.197  82.150
 7355DT     SC147848  66.604  85.051  82.344
 7355DT     SC247849  66.733  85.062  82.516
 7355DT     SC347850  66.495  84.847  82.471
 7356DA     BB147851  66.836  85.566  82.003
 7356DA     BB247852  67.093  85.435  82.229
 7356DA     BB347853  67.194  85.270  82.139
 7356DA     SC147854  67.000  85.057  82.255
 7356DA     SC247855  67.007  84.874  82.425
 7356DA     SC347856  66.802  84.781  82.303
 7356DA     SC447857  66.874  85.014  82.165
 7357DG     BB147858  67.439  85.455  82.179
 7357DG     BB247859  67.549  85.188  82.396
 7357DG     BB347860  67.628  85.041  82.288
 7357DG     SC147861  67.364  84.892  82.251
 7357DG     SC247862  67.296  84.624  82.364
 7357DG     SC347863  67.088  84.714  82.174
 7357DG     SC447864  67.270  84.930  82.126
 7358DT     BB147865  67.838  84.988  82.314
 7358DT     BB247866  67.815  84.674  82.489
 7358DT     BB347867  67.849  84.517  82.358
 7358DT     SC147868  67.611  84.545  82.251
 7358DT     SC247869  67.488  84.377  82.304
 7358DT     SC347870  67.425  84.592  82.070
 7359DA     BB147871  68.108  84.459  82.683
 7359DA     BB247872  67.942  84.139  82.615
 7359DA     BB347873  68.021  84.050  82.438
 7359DA     SC147874  67.814  84.184  82.249
 7359DA     SC247875  67.619  84.115  82.109
 7359DA     SC347876  67.657  84.335  81.983
 7359DA     SC447877  67.854  84.325  82.182
 7360DA     BB147878  68.069  83.792  82.638
 7360DA     BB247879  67.851  83.599  82.414
 7360DA     BB347880  67.956  83.547  82.235
 7360DA     SC147881  67.869  83.803  82.081
 7360DA     SC247882  67.720  83.861  81.889
 7360DA     SC347883  67.857  84.077  81.875
 7360DA     SC447884  67.966  83.930  82.087
 7361DA     BB147885  67.872  83.234  82.306
 7361DA     BB247886  67.693  83.222  81.986
 7361DA     BB347887  67.831  83.194  81.825
 7361DA     SC147888  67.873  83.499  81.777
 7361DA     SC247889  67.816  83.668  81.603
 7361DA     SC347890  68.005  83.808  81.705
 7361DA     SC447891  67.995  83.570  81.854
 7362DC     BB147892  67.833  83.017  81.713
 7362DC     BB247893  67.683  83.153  81.414
 7362DC     BB347894  67.826  83.174  81.266
 7362DC     SC147895  67.929  83.384  81.385
 7362DC     SC247896  67.888  83.560  81.268
 7362DC     SC347897  68.103  83.538  81.509
 7363DT     BB147898  67.732  82.958  81.118
 7363DT     BB247899  67.725  83.232  80.884
 7363DT     BB347900  67.906  83.246  80.785
 7363DT     SC147901  68.023  83.347  80.997
 7363DT     SC247902  68.072  83.554  80.960
 7363DT     SC347903  68.188  83.372  81.202
 7364DA     BB147904  67.617  83.232  80.481
 7364DA     BB247905  67.840  83.514  80.408
 7364DA     BB347906  68.027  83.443  80.333
 7364DA     SC147907  68.160  83.425  80.614
 7364DA     SC247908  68.339  83.543  80.741
 7364DA     SC347909  68.348  83.332  80.886
 7364DA     SC447910  68.151  83.284  80.692
 7365DT     BB147911  68.084  83.481  80.135
 7365DT     BB247912  68.331  83.733  80.211
 7365DT     BB347913  68.521  83.656  80.184
 7365DT     SC147914  68.505  83.517  80.405
 7365DT     SC247915  68.639  83.600  80.552
 7365DT     SC347916  68.496  83.309  80.568
 7366DT     BB147917  68.562  83.801  79.952
 7366DT     BB247918  68.836  83.899  80.165
 7366DT     BB347919  68.996  83.770  80.138
 7366DT     SC147920  68.876  83.580  80.273
 7366DT     SC247921  68.979  83.549  80.460
 7366DT     SC347922  68.761  83.349  80.328
 7367DA     BB147923  69.153  84.156  80.084
 7367DA     BB247924  69.371  83.979  80.320
 7367DA     BB347925  69.492  83.837  80.217
 7367DA     SC147926  69.289  83.604  80.249
 7367DA     SC247927  69.273  83.389  80.375
 7367DA     SC347928  69.096  83.324  80.201
 7367DA     SC447929  69.183  83.581  80.130
 7368DT     BB147930  69.701  83.863  80.206
 7368DT     BB247931  69.785  83.608  80.447
 7368DT     BB347932  69.866  83.443  80.351
 7368DT     SC147933  69.630  83.370  80.262
 7368DT     SC247934  69.570  83.189  80.363
 7368DT     SC347935  69.434  83.312  80.095
 7369DC     BB147936  70.114  83.503  80.447
 7369DC     BB247937  70.047  83.170  80.567
 7369DC     BB347938  70.108  83.031  80.426
 7369DC     SC147939  69.901  83.084  80.274
 7369DC     SC247940  69.766  82.916  80.274
 7369DC     SC347941  69.760  83.164  80.065
 7370DC     BB147942  70.311  82.963  80.590
 7370DC     BB247943  70.125  82.658  80.542
 7370DC     BB347944  70.190  82.562  80.370
 7370DC     SC147945  70.066  82.735  80.217
 7370DC     SC247946  69.900  82.639  80.119
 7370DC     SC347947  70.027  82.926  80.038
 7371DT     BB147948  70.293  82.382  80.535
 7371DT     BB247949  70.066  82.198  80.323
 7371DT     BB347950  70.160  82.147  80.146
 7371DT     SC147951  70.143  82.393  80.057
 7371DT     SC247952  70.003  82.400  79.894
 7371DT     SC347953  70.216  82.631  79.971
 7372DC     BB147954  70.135  81.911  80.251
 7372DC     BB247955  69.963  81.897  79.934
 7372DC     BB347956  70.100  81.877  79.780
 7372DC     SC147957  70.173  82.128  79.801
 7372DC     SC247958  70.106  82.236  79.627
 7372DC     SC347959  70.325  82.339  79.843
 7373DT     BB147960  69.994  81.639  79.763
 7373DT     BB247961  69.952  81.788  79.437
 7373DT     BB347962  70.127  81.773  79.329
 7373DT     SC147963  70.240  81.963  79.471
 7373DT     SC247964  70.265  82.138  79.348
 7373DT     SC347965  70.407  82.085  79.635
 7374DT     BB147966  69.994  81.599  79.183
 7374DT     BB247967  70.108  81.851  78.951
 7374DT     BB347968  70.304  81.815  78.898
 7374DT     SC147969  70.391  81.900  79.130
 7374DT     SC247970  70.496  82.086  79.103
 7374DT     SC347971  70.506  81.900  79.367
 7375DC     BB147972  70.209  81.746  78.659
 7375DC     BB247973  70.448  82.009  78.594
 7375DC     BB347974  70.639  81.930  78.586
 7375DC     SC147975  70.647  81.902  78.846
 7375DC     SC247976  70.788  82.043  78.929
 7375DC     SC347977  70.661  81.788  79.084
 7376DG     BB147978  70.563  82.125  78.236
 7376DG     BB247979  70.874  82.235  78.386
 7376DG     BB347980  71.015  82.098  78.357
 7376DG     SC147981  70.953  81.945  78.615
 7376DG     SC247982  71.132  81.923  78.853
 7376DG     SC347983  70.899  81.742  78.879
 7376DG     SC447984  70.843  81.829  78.612
 7377DA     BB147985  71.202  82.364  78.237
 7377DA     BB247986  71.457  82.297  78.492
 7377DA     BB347987  71.568  82.122  78.442
 7377DA     SC147988  71.380  81.928  78.596
 7377DA     SC247989  71.389  81.787  78.801
 7377DA     SC347990  71.192  81.659  78.697
 7377DA     SC447991  71.259  81.861  78.515
 7378DA     BB147992  71.813  82.337  78.486
 7378DA     BB247993  71.934  82.112  78.750
 7378DA     BB347994  72.018  81.936  78.664
 7378DA     SC147995  71.751  81.777  78.667
 7378DA     SC247996  71.653  81.583  78.789
 7378DA     SC347997  71.489  81.568  78.593
 7378DA     SC447998  71.659  81.783  78.535
 7379DA     BB147999  72.276  82.023  78.851
 7379DA     BB248000  72.238  81.700  79.021
 7379DA     BB348001  72.309  81.542  78.896
 7379DA     SC148002  72.033  81.490  78.762
 7379DA     SC248003  71.858  81.313  78.763
 7379DA     SC348004  71.781  81.417  78.542
 7379DA     SC448005  72.001  81.568  78.625
 7380DC     BB148006  72.479  81.434  78.949
 7380DC     BB248007  72.310  81.130  79.045
 7380DC     BB348008  72.335  80.986  78.900
 7380DC     SC148009  72.163  81.104  78.741
 7380DC     SC248010  71.986  80.984  78.725
 7380DC     SC348011  72.066  81.231  78.531
 7381DT     BB148012  72.521  80.833  79.045
 7381DT     BB248013  72.259  80.598  78.966
 7381DT     BB348014  72.299  80.505  78.786
 7381DT     SC148015  72.232  80.720  78.651
 7381DT     SC248016  72.049  80.684  78.545
 7381DT     SC348017  72.252  80.931  78.494
 7382DC     BB148018  72.372  80.261  78.900
 7382DC     BB248019  72.103  80.177  78.675
 7382DC     BB348020  72.179  80.133  78.487
 7382DC     SC148021  72.223  80.387  78.438
 7382DC     SC248022  72.087  80.456  78.286
 7382DC     SC348023  72.353  80.611  78.387
 7383DA     BB148024  71.944  79.801  78.588
 7383DA     BB248025  71.838  79.915  78.255
 7383DA     BB348026  71.982  79.858  78.109
 7383DA     SC148027  72.148  80.121  78.133
 7383DA     SC248028  72.194  80.323  77.995
 7383DA     SC348029  72.400  80.353  78.146
 7383DA     SC448030  72.271  80.121  78.237
 7384DC     BB148031  71.927  79.725  77.967
 7384DC     BB248032  71.889  79.966  77.701
 7384DC     BB348033  72.047  79.950  77.568
 7384DC     SC148034  72.210  80.068  77.737
 7384DC     SC248035  72.263  80.262  77.661
 7384DC     SC348036  72.414  80.105  77.901
 7385DT     BB148037  71.868  79.853  77.399
 7385DT     BB248038  72.002  80.148  77.240
 7385DT     BB348039  72.179  80.102  77.143
 7385DT     SC148040  72.309  80.090  77.370
 7385DT     SC248041  72.445  80.255  77.383
 7385DT     SC348042  72.449  79.991  77.571
 7386DC     BB148043  72.030  80.149  76.936
 7386DC     BB248044  72.303  80.384  76.917
 7386DC     BB348045  72.471  80.291  76.841
 7386DC     SC148046  72.513  80.165  77.068
 7386DC     SC248047  72.689  80.244  77.162
 7386DC     SC348048  72.540  79.967  77.240
 7387DT     BB148049  72.411  80.458  76.657
 7387DT     BB248050  72.747  80.538  76.760
 7387DT     BB348051  72.880  80.400  76.681
 7387DT     SC148052  72.804  80.217  76.854
 7387DT     SC248053  72.963  80.181  76.994
 7387DT     SC348054  72.702  79.994  76.949
 7388DA     BB148055  72.999  80.804  76.637
 7388DA     BB248056  73.284  80.607  76.758
 7388DA     BB348057  73.347  80.468  76.609
 7388DA     SC148058  73.161  80.239  76.710
 7388DA     SC248059  73.185  80.018  76.823
 7388DA     SC348060  72.950  79.969  76.732
 7388DA     SC448061  73.015  80.227  76.643
 7389DA     BB148062  73.621  80.626  76.702
 7389DA     BB248063  73.754  80.294  76.781
 7389DA     BB348064  73.780  80.180  76.602
 7389DA     SC148065  73.495  80.055  76.610
 7389DA     SC248066  73.393  79.831  76.651
 7389DA     SC348067  73.188  79.926  76.529
 7389DA     SC448068  73.378  80.132  76.531
 7390DG     BB148069  74.081  80.171  76.690
 7390DG     BB248070  74.023  79.814  76.697
 7390DG     BB348071  74.031  79.741  76.512
 7390DG     SC148072  73.732  79.781  76.458
 7390DG     SC248073  73.530  79.564  76.419
 7390DG     SC348074  73.413  79.829  76.358
 7390DG     SC448075  73.682  79.920  76.398
 7391DT     BB148076  74.194  79.586  76.414
 7391DT     BB248077  74.001  79.283  76.387
 7391DT     BB348078  73.953  79.247  76.188
 7391DT     SC148079  73.772  79.436  76.190
 7391DT     SC248080  73.576  79.348  76.177
 7391DT     SC348081  73.646  79.661  76.131
 7392DT     BB148082  74.148  79.033  76.107
 7392DT     BB248083  73.830  78.888  76.017
 7392DT     BB348084  73.791  78.923  75.816
 7392DT     SC148085  73.733  79.175  75.864
 7392DT     SC248086  73.522  79.207  75.835
 7392DT     SC348087  73.748  79.438  75.858
 7393DA     BB148088  73.763  78.500  75.802
 7393DA     BB248089  73.459  78.628  75.643
 7393DA     BB348090  73.498  78.682  75.440
 7393DA     SC148091  73.572  78.976  75.507
 7393DA     SC248092  73.475  79.203  75.472
 7393DA     SC348093  73.714  79.289  75.513
 7393DA     SC448094  73.727  79.009  75.534
 7394DT     BB148095  73.413  78.576  75.253
 7394DT     BB248096  73.166  78.829  75.181
 7394DT     BB348097  73.213  78.926  75.005
 7394DT     SC148098  73.406  79.060  75.122
 7394DT     SC248099  73.351  79.268  75.136
 7394DT     SC348100  73.649  79.147  75.180
 7395DT     BB148101  73.007  78.804  74.869
 7395DT     BB248102  72.939  79.156  74.837
 7395DT     BB348103  73.032  79.231  74.668
 7395DT     SC148104  73.267  79.224  74.784
 7395DT     SC248105  73.335  79.425  74.821
 7395DT     SC348106  73.517  79.157  74.835
 7396DT     BB148107  72.788  79.255  74.559
 7396DT     BB248108  72.926  79.588  74.552
 7396DT     BB348109  73.041  79.614  74.382
 7396DT     SC148110  73.235  79.469  74.482
 7396DT     SC248111  73.403  79.595  74.526
 7396DT     SC348112  73.407  79.271  74.511
 7397DA     BB148113  72.768  79.931  74.418
 7397DA     BB248114  73.100  80.072  74.352
 7397DA     BB348115  73.158  80.035  74.150
 7397DA     SC148116  73.299  79.765  74.214
 7397DA     SC248117  73.531  79.676  74.220
 7397DA     SC348118  73.421  79.445  74.202
 7397DA     SC448119  73.211  79.631  74.201
 7398DA     BB148120  73.201  80.361  74.162
 7398DA     BB248121  73.552  80.298  74.079
 7398DA     BB348122  73.572  80.244  73.873
 7398DA     SC148123  73.542  79.939  73.925
 7398DA     SC248124  73.685  79.735  73.916
 7398DA     SC348125  73.465  79.605  73.903
 7398DA     SC448126  73.394  79.876  73.916
 7399DG     BB148127  73.752  80.498  73.847
 7399DG     BB248128  74.008  80.256  73.767
 7399DG     BB348129  73.998  80.208  73.575
 7399DG     SC148130  73.803  79.976  73.618
 7399DG     SC248131  73.862  79.686  73.576
 7399DG     SC348132  73.574  79.729  73.626
 7399DG     SC448133  73.646  80.006  73.616
 7400DA     BB148134  74.338  80.285  73.537
 7400DA     BB248135  74.409  79.941  73.433
 7400DA     BB348136  74.355  79.912  73.229
 7400DA     SC148137  74.065  79.821  73.292
 7400DA     SC248138  73.931  79.610  73.281
 7400DA     SC348139  73.726  79.765  73.285
 7400DA     SC448140  73.950  79.933  73.295
 7401DT     BB148141  74.502  79.876  73.075
 7401DT     BB248142  74.433  79.524  73.037
 7401DT     BB348143  74.340  79.489  72.856
 7401DT     SC148144  74.113  79.588  72.945
 7401DT     SC248145  73.970  79.429  72.966
 7401DT     SC348146  73.904  79.746  72.969
 7402DT     BB148147  74.566  79.373  72.763
 7402DT     BB248148  74.313  79.119  72.731
 7402DT     BB348149  74.214  79.139  72.550
 7402DT     SC148150  74.082  79.348  72.638
 7402DT     SC248151  73.874  79.297  72.661
 7402DT     SC348152  73.996  79.597  72.659
 7403DA     BB148153  74.341  78.742  72.585
 7403DA     BB248154  73.986  78.740  72.493
 7403DA     BB348155  73.962  78.797  72.289
 7403DA     SC148156  73.932  79.100  72.351
 7403DA     SC248157  73.752  79.273  72.345
 7403DA     SC348158  73.944  79.443  72.342
 7403DA     SC448159  74.065  79.190  72.349
 7404DT     BB148160  73.892  78.658  72.166
 7404DT     BB248161  73.560  78.795  72.133
 7404DT     BB348162  73.540  78.889  71.950
 7404DT     SC148163  73.684  79.094  72.031
 7404DT     SC248164  73.557  79.266  72.050
 7404DT     SC348165  73.881  79.268  72.046
 7405DA     BB148166  73.222  78.622  71.999
 7405DA     BB248167  73.084  78.946  71.899
 7405DA     BB348168  73.125  78.984  71.693
 7405DA     SC148169  73.395  79.129  71.748
 7405DA     SC248170  73.486  79.361  71.733
 7405DA     SC348171  73.717  79.248  71.732
 7405DA     SC448172  73.529  79.040  71.747
 7406DC     BB148173  72.970  78.992  71.583
 7406DC     BB248174  72.969  79.350  71.537
 7406DC     BB348175  73.044  79.397  71.350
 7406DC     SC148176  73.290  79.345  71.427
 7406DC     SC248177  73.402  79.529  71.437
 7406DC     SC348178  73.526  79.229  71.440
 7407DT     BB148179  72.796  79.467  71.300
 7407DT     BB248180  72.993  79.763  71.239
 7407DT     BB348181  73.076  79.755  71.049
 7407DT     SC148182  73.253  79.577  71.127
 7407DT     SC248183  73.449  79.668  71.129
 7407DT     SC348184  73.386  79.350  71.143
 7408DA     BB148185  72.890  80.123  71.134
 7408DA     BB248186  73.221  80.188  70.990
 7408DA     BB348187  73.225  80.130  70.784
 7408DA     SC148188  73.321  79.840  70.842
 7408DA     SC248189  73.527  79.703  70.809
 7408DA     SC348190  73.372  79.500  70.836
 7408DA     SC448191  73.208  79.727  70.860
 7409DA     BB148192  73.343  80.436  70.796
 7409DA     BB248193  73.642  80.299  70.634
 7409DA     BB348194  73.597  80.238  70.435
 7409DA     SC148195  73.521  79.947  70.514
 7409DA     SC248196  73.615  79.718  70.486
 7409DA     SC348197  73.377  79.636  70.536
 7409DA     SC448198  73.367  79.916  70.547
 7410DA     BB148199  73.862  80.430  70.391
 7410DA     BB248200  74.017  80.141  70.228
 7410DA     BB348201  73.922  80.102  70.040
 7410DA     SC148202  73.712  79.906  70.160
 7410DA     SC248203  73.663  79.662  70.154
 7410DA     SC348204  73.427  79.728  70.229
 7410DA     SC448205  73.571  79.968  70.206
 7411DT     BB148206  74.021  80.132  69.857
 7411DT     BB248207  74.059  79.787  69.760
 7411DT     BB348208  73.924  79.740  69.611
 7411DT     SC148209  73.725  79.735  69.782
 7411DT     SC248210  73.657  79.532  69.806
 7411DT     SC348211  73.499  79.798  69.902
 7412DA     BB148212  74.279  79.630  69.407
 7412DA     BB248213  74.042  79.355  69.359
 7412DA     BB348214  73.899  79.405  69.209
 7412DA     SC148215  73.696  79.529  69.409
 7412DA     SC248216  73.471  79.474  69.502
 7412DA     SC348217  73.457  79.723  69.562
 7412DA     SC448218  73.706  79.687  69.437
 7413DT     BB148219  73.866  79.317  68.977
 7413DT     BB248220  73.572  79.122  69.053
 7413DT     BB348221  73.408  79.201  68.954
 7413DT     SC148222  73.394  79.402  69.121
 7413DT     SC248223  73.217  79.382  69.243
 7413DT     SC348224  73.397  79.650  69.212
 7414DT     BB148225  73.380  79.002  68.743
 7414DT     BB248226  73.059  78.997  68.909
 7414DT     BB348227  72.927  79.124  68.812
 7414DT     SC148228  73.045  79.335  68.912
 7414DT     SC248229  72.915  79.429  69.056
 7414DT     SC348230  73.180  79.562  68.925
 7415DA     BB148231  72.732  78.755  68.832
 7415DA     BB248232  72.504  79.008  68.967
 7415DA     BB348233  72.418  79.122  68.808
 7415DA     SC148234  72.641  79.339  68.811
 7415DA     SC248235  72.664  79.579  68.873
 7415DA     SC348236  72.872  79.577  68.723
 7415DA     SC448237  72.766  79.318  68.712
 7416DA     BB148238  72.158  79.023  68.976
 7416DA     BB248239  72.090  79.378  69.037
 7416DA     BB348240  72.016  79.471  68.860
 7416DA     SC148241  72.298  79.555  68.757
 7416DA     SC248242  72.428  79.765  68.726
 7416DA     SC348243  72.571  79.629  68.563
 7416DA     SC448244  72.374  79.453  68.658
 7417DA     BB148245  71.805  79.546  69.095
 7417DA     BB248246  71.889  79.895  69.023
 7417DA     BB348247  71.810  79.953  68.834
 7417DA     SC148248  72.066  79.871  68.675
 7417DA     SC248249  72.250  79.985  68.552
 7417DA     SC348250  72.286  79.757  68.438
 7417DA     SC448251  72.071  79.723  68.615
 7418DA     BB148252  71.706  80.184  69.040
 7418DA     BB248253  71.884  80.422  68.825
 7418DA     BB348254  71.784  80.441  68.637
 7418DA     SC148255  71.946  80.214  68.500
 7418DA     SC248256  72.120  80.193  68.322
 7418DA     SC348257  72.045  79.948  68.307
 7418DA     SC448258  71.884  80.066  68.504
 7419DA     BB148259  71.804  80.758  68.725
 7419DA     BB248260  71.991  80.811  68.415
 7419DA     BB348261  71.860  80.801  68.246
 7419DA     SC148262  71.900  80.496  68.203
 7419DA     SC248263  72.008  80.345  68.036
 7419DA     SC348264  71.856  80.162  68.133
 7419DA     SC448265  71.796  80.396  68.276
 7420DG     BB148266  71.940  81.100  68.183
 7420DG     BB248267  72.074  80.956  67.879
 7420DG     BB348268  71.929  80.937  67.744
 7420DG     SC148269  71.850  80.655  67.833
 7420DG     SC248270  71.883  80.404  67.674
 7420DG     SC348271  71.724  80.354  67.918
 7420DG     SC448272  71.740  80.638  67.949
 7421DA     BB148273  72.105  81.119  67.494
 7421DA     BB248274  72.105  80.827  67.271
 7421DA     BB348275  71.918  80.812  67.169
 7421DA     SC148276  71.786  80.632  67.385
 7421DA     SC248277  71.711  80.395  67.407
 7421DA     SC348278  71.567  80.481  67.602
 7421DA     SC448279  71.703  80.705  67.502
 7422DA     BB148280  72.096  80.813  66.888
 7422DA     BB248281  71.968  80.475  66.825
 7422DA     BB348282  71.770  80.484  66.746
 7422DA     SC148283  71.633  80.471  67.025
 7422DA     SC248284  71.495  80.309  67.156
 7422DA     SC348285  71.422  80.513  67.293
 7422DA     SC448286  71.598  80.610  67.098
 7423DT     BB148287  71.731  80.422  66.551
 7423DT     BB248288  71.577  80.108  66.641
 7423DT     BB348289  71.373  80.119  66.610
 7423DT     SC148290  71.340  80.268  66.823
 7423DT     SC248291  71.237  80.154  66.974
 7423DT     SC348292  71.280  80.475  66.974
 7424DA     BB148293  71.520  79.776  66.419
 7424DA     BB248294  71.233  79.678  66.625
 7424DA     BB348295  71.051  79.746  66.537
 7424DA     SC148296  71.052  80.018  66.688
 7424DA     SC248297  70.920  80.129  66.869
 7424DA     SC348298  71.017  80.348  66.777
 7424DA     SC448299  71.121  80.144  66.616
 7425DT     BB148300  70.938  79.606  66.482
 7425DT     BB248301  70.695  79.640  66.747
 7425DT     BB348302  70.529  79.742  66.677
 7425DT     SC148303  70.658  79.971  66.682
 7425DT     SC248304  70.578  80.095  66.839
 7425DT     SC348305  70.772  80.193  66.598
 7426DG     BB148306  70.408  79.381  66.823
 7426DG     BB248307  70.220  79.653  66.969
 7426DG     BB348308  70.085  79.720  66.838
 7426DG     SC148309  70.272  79.926  66.712
 7426DG     SC248310  70.243  80.223  66.728
 7426DG     SC348311  70.456  80.149  66.537
 7426DG     SC448312  70.365  79.882  66.589
 7427DA     BB148313  69.855  79.679  67.095
 7427DA     BB248314  69.772  80.036  67.076
 7427DA     BB348315  69.652  80.075  66.904
 7427DA     SC148316  69.894  80.134  66.718
 7427DA     SC248317  69.995  80.330  66.602
 7427DA     SC348318  70.109  80.157  66.451
 7427DA     SC448319  69.955  80.011  66.634
 7428DA     BB148320  69.451  80.209  67.128
 7428DA     BB248321  69.496  80.527  66.950
 7428DA     BB348322  69.382  80.527  66.770
 7428DA     SC148323  69.611  80.411  66.595
 7428DA     SC248324  69.763  80.489  66.413
 7428DA     SC348325  69.795  80.240  66.361
 7428DA     SC448326  69.617  80.251  66.577
 7429DA     BB148327  69.258  80.806  66.896
 7429DA     BB248328  69.399  80.978  66.604
 7429DA     BB348329  69.277  80.944  66.432
 7429DA     SC148330  69.431  80.690  66.342
 7429DA     SC248331  69.584  80.623  66.156
 7429DA     SC348332  69.519  80.383  66.217
 7429DA     SC448333  69.378  80.548  66.394
 7430DA     BB148334  69.286  81.271  66.430
 7430DA     BB248335  69.454  81.242  66.105
 7430DA     BB348336  69.313  81.190  65.953
 7430DA     SC148337  69.352  80.883  65.987
 7430DA     SC248338  69.451  80.694  65.858
 7430DA     SC348339  69.306  80.544  66.006
 7430DA     SC448340  69.253  80.807  66.089
 7431DA     BB148341  69.460  81.453  65.832
 7431DA     BB248342  69.571  81.236  65.558
 7431DA     BB348343  69.407  81.190  65.430
 7431DA     SC148344  69.325  80.933  65.585
 7431DA     SC248345  69.329  80.686  65.548
 7431DA     SC348346  69.151  80.677  65.734
 7431DA     SC448347  69.215  80.948  65.701
 7432DT     BB148348  69.438  81.258  65.266
 7432DT     BB248349  69.512  80.946  65.101
 7432DT     BB348350  69.344  80.877  65.002
 7432DT     SC148351  69.231  80.803  65.227
 7432DT     SC248352  69.223  80.589  65.236
 7432DT     SC348353  69.059  80.793  65.427
 7433DA     BB148354  69.680  80.872  64.749
 7433DA     BB248355  69.510  80.548  64.724
 7433DA     BB348356  69.324  80.569  64.622
 7433DA     SC148357  69.160  80.621  64.882
 7433DA     SC248358  68.989  80.503  65.018
 7433DA     SC348359  68.933  80.735  65.113
 7433DA     SC448360  69.140  80.774  64.927
 7434DA     BB148361  69.464  80.328  64.450
 7434DA     BB248362  69.177  80.122  64.546
 7434DA     BB348363  69.003  80.183  64.440
 7434DA     SC148364  68.913  80.388  64.656
 7434DA     SC248365  68.730  80.410  64.824
 7434DA     SC348366  68.787  80.661  64.822
 7434DA     SC448367  68.962  80.540  64.640
 7435DA     BB148368  69.002  79.863  64.366
 7435DA     BB248369  68.675  79.847  64.532
 7435DA     BB348370  68.525  79.936  64.408
 7435DA     SC148371  68.558  80.220  64.529
 7435DA     SC248372  68.428  80.376  64.673
 7435DA     SC348373  68.579  80.560  64.576
 7435DA     SC448374  68.661  80.320  64.456
 7436DG     BB148375  68.402  79.652  64.426
 7436DG     BB248376  68.138  79.828  64.599
 7436DG     BB348377  68.016  79.914  64.467
 7436DG     SC148378  68.174  80.176  64.456
 7436DG     SC248379  68.080  80.442  64.554
 7436DG     SC348380  68.333  80.469  64.405
 7436DG     SC448381  68.294  80.191  64.351
 7437DT     BB148382  67.811  79.855  64.462
 7437DT     BB248383  67.649  80.137  64.618
 7437DT     BB348384  67.562  80.257  64.473
 7437DT     SC148385  67.795  80.352  64.399
 7437DT     SC248386  67.810  80.558  64.456
 7437DT     SC348387  68.005  80.405  64.248
 7438DG     BB148388  67.287  80.142  64.751
 7438DG     BB248389  67.290  80.501  64.704
 7438DG     BB348390  67.201  80.548  64.533
 7438DG     SC148391  67.457  80.531  64.366
 7438DG     SC248392  67.593  80.760  64.231
 7438DG     SC348393  67.714  80.502  64.150
 7438DG     SC448394  67.499  80.390  64.303
 7439DC     BB148395  67.041  80.666  64.556
 7439DC     BB248396  67.158  80.983  64.430
 7439DC     BB348397  67.101  81.005  64.232
 7439DC     SC148398  67.284  80.835  64.151
 7439DC     SC248399  67.437  80.940  64.043
 7439DC     SC348400  67.393  80.619  64.046
 7440DT     BB148401  66.935  81.189  64.324
 7440DT     BB248402  67.129  81.358  64.071
 7440DT     BB348403  67.051  81.317  63.883
 7440DT     SC148404  67.150  81.074  63.886
 7440DT     SC248405  67.309  81.061  63.741
 7440DT     SC348406  67.162  80.811  63.886
 7441DA     BB148407  67.078  81.737  63.904
 7441DA     BB248408  67.213  81.634  63.580
 7441DA     BB348409  67.056  81.572  63.450
 7441DA     SC148410  67.069  81.273  63.537
 7441DA     SC248411  67.138  81.055  63.438
 7441DA     SC348412  66.994  80.949  63.622
 7441DA     SC448413  66.973  81.226  63.657
 7442DA     BB148414  67.156  81.797  63.220
 7442DA     BB248415  67.212  81.519  62.987
 7442DA     BB348416  67.027  81.458  62.899
 7442DA     SC148417  66.965  81.246  63.118
 7442DA     SC248418  66.955  80.997  63.137
 7442DA     SC348419  66.812  81.039  63.345
 7442DA     SC448420  66.877  81.292  63.244
 7443DT     BB148421  66.955  81.483  62.674
 7443DT     BB248422  66.996  81.137  62.580
 7443DT     BB348423  66.811  81.051  62.544
 7443DT     SC148424  66.758  81.040  62.801
 7443DT     SC248425  66.759  80.834  62.865
 7443DT     SC348426  66.640  81.085  63.032
 7444DA     BB148427  67.010  80.970  62.182
 7444DA     BB248428  66.866  80.653  62.298
 7444DA     BB348429  66.658  80.646  62.255
 7444DA     SC148430  66.572  80.770  62.527
 7444DA     SC248431  66.458  80.696  62.736
 7444DA     SC348432  66.414  80.946  62.776
 7444DA     SC448433  66.554  80.930  62.534
 7445DT     BB148434  66.572  80.507  62.111
 7445DT     BB248435  66.431  80.282  62.355
 7445DT     BB348436  66.225  80.297  62.354
 7445DT     SC148437  66.234  80.527  62.481
 7445DT     SC248438  66.158  80.502  62.680
 7445DT     SC348439  66.205  80.785  62.529
 7446DT     BB148440  66.206  80.053  62.236
 7446DT     BB248441  66.017  80.020  62.541
 7446DT     BB348442  65.821  80.080  62.510
 7446DT     SC148443  65.890  80.333  62.507
 7446DT     SC248444  65.814  80.430  62.683
 7446DT     SC348445  65.929  80.578  62.418
 7447DT     BB148446  65.747  79.822  62.530
 7447DT     BB248447  65.557  79.992  62.785
 7447DT     BB348448  65.382  80.068  62.703
 7447DT     SC148449  65.514  80.262  62.585
 7447DT     SC248450  65.465  80.449  62.679
 7447DT     SC348451  65.614  80.413  62.393
 7448DT     BB148452  65.241  79.879  62.835
 7448DT     BB248453  65.097  80.190  62.944
 7448DT     BB348454  64.950  80.250  62.812
 7448DT     SC148455  65.129  80.324  62.634
 7448DT     SC248456  65.128  80.538  62.617
 7448DT     SC348457  65.267  80.331  62.410
 7449DC     BB148458  64.754  80.187  62.992
 7449DC     BB248459  64.694  80.534  62.913
 7449DC     BB348460  64.572  80.549  62.747
 7449DC     SC148461  64.769  80.482  62.587
 7449DC     SC248462  64.826  80.653  62.468
 7449DC     SC348463  64.910  80.345  62.412
 7450DA     BB148464  64.381  80.782  63.039
 7450DA     BB248465  64.399  80.983  62.732
 7450DA     BB348466  64.254  80.916  62.591
 7450DA     SC148467  64.446  80.713  62.455
 7450DA     SC248468  64.564  80.688  62.236
 7450DA     SC348469  64.582  80.439  62.297
 7450DA     SC448470  64.446  80.561  62.510
 7451DT     BB148471  64.084  81.036  62.532
 7451DT     BB248472  64.210  81.127  62.207
 7451DT     BB348473  64.102  81.030  62.059
 7451DT     SC148474  64.223  80.802  62.111
 7451DT     SC248475  64.352  80.752  61.947
 7451DT     SC348476  64.259  80.552  62.185
 7452DC     BB148477  63.981  81.263  61.989
 7452DC     BB248478  64.141  81.150  61.687
 7452DC     BB348479  64.015  81.021  61.584
 7452DC     SC148480  64.061  80.827  61.755
 7452DC     SC248481  64.176  80.673  61.659
 7452DC     SC348482  64.017  80.645  61.940
 7453DG     BB148483  64.101  81.328  61.329
 7453DG     BB248484  64.171  81.007  61.177
 7453DG     BB348485  64.002  80.924  61.113
 7453DG     SC148486  63.945  80.779  61.376
 7453DG     SC248487  63.947  80.483  61.417
 7453DG     SC348488  63.841  80.622  61.656
 7453DG     SC448489  63.862  80.854  61.490
 7454DA     BB148490  64.160  80.887  60.807
 7454DA     BB248491  64.115  80.523  60.827
 7454DA     BB348492  63.914  80.471  60.782
 7454DA     SC148493  63.817  80.488  61.077
 7454DA     SC248494  63.741  80.331  61.256
 7454DA     SC348495  63.635  80.538  61.364
 7454DA     SC448496  63.757  80.628  61.128
 7455DT     BB148497  63.872  80.363  60.611
 7455DT     BB248498  63.806  80.049  60.775
 7455DT     BB348499  63.602  80.010  60.774
 7455DT     SC148500  63.560  80.188  60.962
 7455DT     SC248501  63.503  80.088  61.144
 7455DT     SC348502  63.470  80.405  61.083
 7456DG     BB148503  63.776  79.695  60.582
 7456DG     BB248504  63.563  79.583  60.852
 7456DG     BB348505  63.373  79.586  60.794
 7456DG     SC148506  63.324  79.874  60.886
 7456DG     SC248507  63.145  79.960  61.108
 7456DG     SC348508  63.242  80.194  60.955
 7456DG     SC448509  63.354  79.994  60.784
 7457DA     BB148510  63.366  79.260  60.906
 7457DA     BB248511  63.107  79.351  61.149
 7457DA     BB348512  62.918  79.372  61.052
 7457DA     SC148513  62.954  79.676  60.996
 7457DA     SC248514  62.857  79.892  61.074
 7457DA     SC348515  62.950  79.990  60.857
 7457DA     SC448516  63.019  79.718  60.855
 7458DT     BB148517  62.791  79.245  61.108
 7458DT     BB248518  62.595  79.469  61.312
 7458DT     BB348519  62.423  79.524  61.210
 7458DT     SC148520  62.559  79.686  61.054
 7458DT     SC248521  62.509  79.890  61.101
 7458DT     SC348522  62.664  79.789  60.835
 7459DG     BB148523  62.349  79.366  61.577
 7459DG     BB248524  62.191  79.688  61.533
 7459DG     BB348525  62.034  79.670  61.412
 7459DG     SC148526  62.193  79.722  61.156
 7459DG     SC248527  62.166  79.960  60.978
 7459DG     SC348528  62.341  79.755  60.855
 7459DG     SC448529  62.262  79.598  61.081
 7460DC     BB148530  61.885  79.731  61.508
 7460DC     BB248531  61.803  80.042  61.344
 7460DC     BB348532  61.667  80.008  61.191
 7460DC     SC148533  61.854  79.904  61.038
 7460DC     SC248534  61.893  80.037  60.874
 7460DC     SC348535  61.987  79.727  60.895
 7461DT     BB148536  61.517  80.139  61.355
 7461DT     BB248537  61.496  80.317  61.041
 7461DT     BB348538  61.368  80.218  60.913
 7461DT     SC148539  61.545  80.031  60.866
 7461DT     SC248540  61.617  80.048  60.664
 7461DT     SC348541  61.659  79.793  60.859
 7462DT     BB148542  61.204  80.421  60.954
 7462DT     BB248543  61.235  80.399  60.596
 7462DT     BB348544  61.109  80.252  60.523
 7462DT     SC148545  61.267  80.062  60.611
 7462DT     SC248546  61.359  79.962  60.443
 7462DT     SC348547  61.352  79.854  60.749
 7463DC     BB148548  60.930  80.435  60.420
 7463DC     BB248549  61.006  80.221  60.139
 7463DC     BB348550  60.879  80.059  60.137
 7463DC     SC148551  61.006  79.946  60.337
 7463DC     SC248552  61.111  79.772  60.266
 7463DC     SC348553  61.054  79.846  60.576
 7464DA     BB148554  60.817  80.215  59.750
 7464DA     BB248555  60.874  79.854  59.712
 7464DA     BB348556  60.698  79.746  59.768
 7464DA     SC148557  60.782  79.716  60.066
 7464DA     SC248558  60.856  79.533  60.220
 7464DA     SC348559  60.786  79.692  60.409
 7464DA     SC448560  60.732  79.828  60.169
 7465DT     BB148561  60.567  79.628  59.627
 7465DT     BB248562  60.680  79.301  59.731
 7465DT     BB348563  60.529  79.204  59.835
 7465DT     SC148564  60.567  79.353  60.047
 7465DT     SC248565  60.652  79.234  60.204
 7465DT     SC348566  60.521  79.528  60.239
 7466DA     BB148567  60.639  78.934  59.533
 7466DA     BB248568  60.642  78.751  59.850
 7466DA     BB348569  60.443  78.708  59.913
 7466DA     SC148570  60.411  78.970  60.078
 7466DA     SC248571  60.394  79.036  60.318
 7466DA     SC348572  60.291  79.253  60.229
 7466DA     SC448573  60.348  79.097  60.003
 7467DA     BB148574  60.564  78.403  59.923
 7467DA     BB248575  60.491  78.407  60.282
 7467DA     BB348576  60.282  78.381  60.316
 7467DA     SC148577  60.218  78.686  60.312
 7467DA     SC248578  60.148  78.862  60.474
 7467DA     SC348579  60.071  78.993  60.267
 7467DA     SC448580  60.175  78.751  60.171
 7468DC     BB148581  60.228  78.215  60.408
 7468DC     BB248582  60.152  78.366  60.727
 7468DC     BB348583  59.947  78.382  60.751
 7468DC     SC148584  59.936  78.583  60.583
 7468DC     SC248585  59.888  78.764  60.690
 7468DC     SC348586  59.875  78.725  60.369
 7469DA     BB148587  60.106  78.195  61.091
 7469DA     BB248588  59.885  78.466  61.203
 7469DA     BB348589  59.681  78.414  61.169
 7469DA     SC148590  59.671  78.539  60.884
 7469DA     SC248591  59.564  78.734  60.772
 7469DA     SC348592  59.605  78.605  60.553
 7469DA     SC448593  59.704  78.442  60.759
 7470DT     BB148594  59.560  78.386  61.329
 7470DT     BB248595  59.373  78.693  61.297
 7470DT     BB348596  59.185  78.653  61.221
 7470DT     SC148597  59.281  78.614  60.980
 7470DT     SC248598  59.219  78.774  60.851
 7470DT     SC348599  59.346  78.491  60.756
 7471DA     BB148600  59.122  78.876  61.571
 7471DA     BB248601  58.924  79.030  61.304
 7471DA     BB348602  58.753  78.910  61.260
 7471DA     SC148603  58.895  78.742  61.041
 7471DA     SC248604  58.886  78.715  60.793
 7471DA     SC348605  59.001  78.489  60.834
 7471DA     SC448606  58.965  78.604  61.087
 7472DA     BB148607  58.591  79.191  61.315
 7472DA     BB248608  58.474  79.173  60.968
 7472DA     BB348609  58.317  79.030  60.950
 7472DA     SC148610  58.506  78.792  60.887
 7472DA     SC248611  58.562  78.647  60.692
 7472DA     SC348612  58.654  78.483  60.866
 7472DA     SC448613  58.557  78.703  61.010
 7473DT     BB148614  58.127  79.095  60.902
 7473DT     BB248615  58.128  78.978  60.560
 7473DT     BB348616  58.007  78.811  60.543
 7473DT     SC148617  58.187  78.660  60.660
 7473DT     SC248618  58.271  78.524  60.516
 7473DT     SC348619  58.300  78.502  60.838
 7474DA     BB148620  57.882  79.082  60.249
 7474DA     BB248621  57.927  78.756  60.088
 7474DA     BB348622  57.769  78.624  60.142
 7474DA     SC148623  57.917  78.508  60.390
 7474DA     SC248624  58.022  78.293  60.459
 7474DA     SC348625  57.996  78.380  60.699
 7474DA     SC448626  57.890  78.579  60.532
 7475DA     BB148627  57.737  78.595  59.816
 7475DA     BB248628  57.808  78.237  59.858
 7475DA     BB348629  57.636  78.136  59.934
 7475DA     SC148630  57.716  78.175  60.232
 7475DA     SC248631  57.793  78.033  60.422
 7475DA     SC348632  57.713  78.226  60.572
 7475DA     SC448633  57.658  78.304  60.308
 7476DT     BB148634  57.529  77.994  59.817
 7476DT     BB248635  57.646  77.700  59.989
 7476DT     BB348636  57.493  77.620  60.104
 7476DT     SC148637  57.517  77.810  60.283
 7476DT     SC248638  57.598  77.728  60.465
 7476DT     SC348639  57.457  78.019  60.433
 7477DT     BB148640  57.453  77.404  59.933
 7477DT     BB248641  57.521  77.251  60.253
 7477DT     BB348642  57.344  77.224  60.357
 7477DT     SC148643  57.329  77.480  60.413
 7477DT     SC248644  57.363  77.509  60.623
 7477DT     SC348645  57.239  77.728  60.418
 7478DA     BB148646  57.529  76.848  60.353
 7478DA     BB248647  57.436  76.922  60.700
 7478DA     BB348648  57.226  76.896  60.728
 7478DA     SC148649  57.157  77.191  60.659
 7478DA     SC248650  57.074  77.394  60.779
 7478DA     SC348651  57.006  77.479  60.546
 7478DA     SC448652  57.121  77.226  60.506
 7479DT     BB148653  57.165  76.748  60.850
 7479DT     BB248654  57.074  76.960  61.127
 7479DT     BB348655  56.868  76.974  61.141
 7479DT     SC148656  56.858  77.135  60.934
 7479DT     SC248657  56.802  77.332  61.000
 7479DT     SC348658  56.801  77.227  60.693
 7480DC     BB148659  56.890  76.827  61.362
 7480DC     BB248660  56.730  77.133  61.467
 7480DC     BB348661  56.526  77.120  61.436
 7480DC     SC148662  56.556  77.152  61.177
 7480DC     SC248663  56.478  77.344  61.119
 7480DC     SC348664  56.551  77.100  60.918
 7481DG     BB148665  56.616  77.212  61.821
 7481DG     BB248666  56.379  77.445  61.678
 7481DG     BB348667  56.200  77.360  61.666
 7481DG     SC148668  56.245  77.246  61.386
 7481DG     SC248669  56.102  77.329  61.137
 7481DG     SC348670  56.268  77.089  61.088
 7481DG     SC448671  56.312  77.101  61.371
 7482DT     BB148672  56.063  77.459  61.770
 7482DT     BB248673  55.861  77.611  61.513
 7482DT     BB348674  55.695  77.492  61.474
 7482DT     SC148675  55.842  77.318  61.343
 7482DT     SC248676  55.793  77.327  61.134
 7482DT     SC348677  55.960  77.091  61.280
 7483DA     BB148678  55.570  77.888  61.538
 7483DA     BB248679  55.401  77.762  61.238
 7483DA     BB348680  55.253  77.617  61.291
 7483DA     SC148681  55.447  77.375  61.269
 7483DA     SC248682  55.481  77.178  61.119
 7483DA     SC348683  55.612  77.077  61.315
 7483DA     SC448684  55.524  77.329  61.402
 7484DT     BB148685  55.062  77.663  61.260
 7484DT     BB248686  55.002  77.442  60.982
 7484DT     BB348687  54.895  77.277  61.045
 7484DT     SC148688  55.107  77.174  61.161
 7484DT     SC248689  55.171  77.000  61.052
 7484DT     SC348690  55.267  77.084  61.350
 7485DT     BB148691  54.666  77.365  60.922
 7485DT     BB248692  54.714  77.035  60.786
 7485DT     BB348693  54.623  76.894  60.908
 7485DT     SC148694  54.813  76.916  61.088
 7485DT     SC248695  54.929  76.735  61.091
 7485DT     SC348696  54.933  76.967  61.317
 7486DT     BB148697  54.413  76.850  60.731
 7486DT     BB248698  54.551  76.521  60.785
 7486DT     BB348699  54.458  76.431  60.947
 7486DT     SC148700  54.590  76.582  61.116
 7486DT     SC248701  54.732  76.461  61.224
 7486DT     SC348702  54.638  76.761  61.304
 7487DT     BB148703  54.308  76.255  60.790
 7487DT     BB248704  54.487  76.038  61.017
 7487DT     BB348705  54.375  76.007  61.188
 7487DT     SC148706  54.431  76.248  61.276
 7487DT     SC248707  54.561  76.234  61.447
 7487DT     SC348708  54.397  76.497  61.355
 7488DG     BB148709  54.422  75.628  61.041
 7488DG     BB248710  54.523  75.644  61.388
 7488DG     BB348711  54.362  75.633  61.505
 7488DG     SC148712  54.317  75.936  61.512
 7488DG     SC248713  54.346  76.112  61.752
 7488DG     SC348714  54.226  76.260  61.526
 7488DG     SC448715  54.226  76.003  61.399
 7489DT     BB148716  54.312  75.457  61.660
 7489DT     BB248717  54.388  75.618  61.974
 7489DT     BB348718  54.213  75.660  62.076
 7489DT     SC148719  54.157  75.859  61.915
 7489DT     SC248720  54.178  76.045  62.023
 7489DT     SC348721  54.031  76.006  61.736
 7490DT     BB148722  54.246  75.455  62.268
 7490DT     BB248723  54.214  75.754  62.466
 7490DT     BB348724  54.015  75.786  62.515
 7490DT     SC148725  53.961  75.867  62.271
 7490DT     SC248726  53.919  76.078  62.274
 7490DT     SC348727  53.854  75.875  62.030
 7491DG     BB148728  54.196  75.752  62.881
 7491DG     BB248729  54.004  76.058  62.860
 7491DG     BB348730  53.812  76.020  62.896
 7491DG     SC148731  53.742  75.965  62.603
 7491DG     SC248732  53.565  76.132  62.431
 7491DG     SC348733  53.635  75.879  62.295
 7491DG     SC448734  53.758  75.816  62.546
 7492DC     BB148735  53.703  76.110  63.072
 7492DC     BB248736  53.508  76.365  62.908
 7492DC     BB348737  53.309  76.306  62.897
 7492DC     SC148738  53.362  76.136  62.705
 7492DC     SC248739  53.275  76.205  62.521
 7492DC     SC348740  53.388  75.907  62.576
 7493DT     BB148741  53.247  76.491  63.085
 7493DT     BB248742  53.040  76.576  62.801
 7493DT     BB348743  52.864  76.467  62.808
 7493DT     SC148744  52.987  76.248  62.732
 7493DT     SC248745  52.925  76.197  62.533
 7493DT     SC348746  53.082  76.002  62.738
 7494DA     BB148747  52.768  76.872  62.757
 7494DA     BB248748  52.579  76.679  62.509
 7494DA     BB348749  52.421  76.571  62.604
 7494DA     SC148750  52.592  76.316  62.654
 7494DA     SC248751  52.604  76.082  62.569
 7494DA     SC348752  52.733  76.032  62.786
 7494DA     SC448753  52.669  76.305  62.795
 7495DT     BB148754  52.234  76.623  62.560
 7495DT     BB248755  52.154  76.337  62.355
 7495DT     BB348756  52.034  76.206  62.461
 7495DT     SC148757  52.237  76.124  62.605
 7495DT     SC248758  52.286  75.922  62.552
 7495DT     SC348759  52.391  76.079  62.815
 7496DG     BB148760  51.810  76.304  62.133
 7496DG     BB248761  51.833  75.945  62.171
 7496DG     BB348762  51.704  75.883  62.309
 7496DG     SC148763  51.899  75.913  62.542
 7496DG     SC248764  52.013  75.691  62.705
 7496DG     SC348765  52.081  75.953  62.823
 7496DG     SC448766  51.909  76.054  62.618
 7497DC     BB148767  51.517  75.739  62.270
 7497DC     BB248768  51.640  75.431  62.411
 7497DC     BB348769  51.543  75.391  62.589
 7497DC     SC148770  51.681  75.575  62.715
 7497DC     SC248771  51.817  75.482  62.852
 7497DC     SC348772  51.736  75.796  62.849
 7498DT     BB148773  51.389  75.184  62.482
 7498DT     BB248774  51.568  75.029  62.754
 7498DT     BB348775  51.458  75.044  62.928
 7498DT     SC148776  51.517  75.299  62.953
 7498DT     SC248777  51.649  75.326  63.121
 7498DT     SC348778  51.485  75.560  62.967
 7499DT     BB148779  51.402  74.777  62.920
 7499DT     BB248780  51.571  74.826  63.235
 7499DT     BB348781  51.434  74.875  63.382
 7499DT     SC148782  51.408  75.118  63.287
 7499DT     SC248783  51.495  75.258  63.425
 7499DT     SC348784  51.297  75.332  63.179
 7500DA     BB148785  51.686  74.565  63.505
 7500DA     BB248786  51.683  74.823  63.766
 7500DA     BB348787  51.495  74.823  63.867
 7500DA     SC148788  51.365  75.032  63.676
 7500DA     SC248789  51.289  75.269  63.687
 7500DA     SC348790  51.147  75.211  63.481
 7500DA     SC448791  51.284  74.976  63.550
 7501DT     BB148792  51.530  74.782  64.032
 7501DT     BB248793  51.478  75.109  64.174
 7501DT     BB348794  51.285  75.124  64.248
 7501DT     SC148795  51.186  75.145  64.006
 7501DT     SC248796  51.111  75.345  63.976
 7501DT     SC348797  51.048  75.088  63.788
 7502DA     BB148798  51.587  75.265  64.508
 7502DA     BB248799  51.315  75.511  64.496
 7502DA     BB348800  51.138  75.430  64.584
 7502DA     SC148801  51.029  75.313  64.318
 7502DA     SC248802  50.841  75.358  64.160
 7502DA     SC348803  50.878  75.118  64.079
 7502DA     SC448804  51.066  75.161  64.283
 7503DA     BB148805  51.181  75.721  64.731
 7503DA     BB248806  50.845  75.803  64.612
 7503DA     BB348807  50.699  75.686  64.714
 7503DA     SC148808  50.702  75.454  64.507
 7503DA     SC248809  50.550  75.359  64.334
 7503DA     SC348810  50.694  75.148  64.353
 7503DA     SC448811  50.803  75.332  64.535
 7504DG     BB148812  50.594  75.967  64.797
 7504DG     BB248813  50.298  75.860  64.619
 7504DG     BB348814  50.190  75.739  64.733
 7504DG     SC148815  50.331  75.484  64.638
 7504DG     SC248816  50.207  75.265  64.477
 7504DG     SC348817  50.476  75.187  64.571
 7504DG     SC448818  50.462  75.435  64.714
 7505DT     BB148819  49.981  75.788  64.806
 7505DT     BB248820  49.777  75.568  64.607
 7505DT     BB348821  49.713  75.407  64.721
 7505DT     SC148822  49.951  75.297  64.713
 7505DT     SC248823  49.942  75.119  64.592
 7505DT     SC348824  50.183  75.201  64.793
 7506DA     BB148825  49.352  75.561  64.568
 7506DA     BB248826  49.346  75.198  64.515
 7506DA     BB348827  49.305  75.097  64.699
 7506DA     SC148828  49.604  75.068  64.778
 7506DA     SC248829  49.773  74.886  64.800
 7506DA     SC348830  49.901  75.050  64.950
 7506DA     SC448831  49.668  75.184  64.870
 7507DA     BB148832  49.047  74.948  64.546
 7507DA     BB248833  49.212  74.626  64.609
 7507DA     BB348834  49.177  74.564  64.810
 7507DA     SC148835  49.432  74.702  64.923
 7507DA     SC248836  49.653  74.634  65.017
 7507DA     SC348837  49.659  74.870  65.119
 7507DA     SC448838  49.416  74.852  64.979
 7508DA     BB148839  49.053  74.279  64.687
 7508DA     BB248840  49.324  74.101  64.859
 7508DA     BB348841  49.276  74.075  65.065
 7508DA     SC148842  49.409  74.341  65.156
 7508DA     SC248843  49.609  74.412  65.287
 7508DA     SC348844  49.486  74.635  65.314
 7508DA     SC448845  49.316  74.472  65.163
 7509DT     BB148846  49.235  73.878  65.158
 7509DT     BB248847  49.551  73.850  65.330
 7509DT     BB348848  49.523  73.871  65.534
 7509DT     SC148849  49.487  74.130  65.511
 7509DT     SC248850  49.655  74.233  65.598
 7509DT     SC348851  49.370  74.366  65.518
 7510DT     BB148852  49.563  73.599  65.590
 7510DT     BB248853  49.811  73.768  65.791
 7510DT     BB348854  49.734  73.811  65.978
 7510DT     SC148855  49.588  74.007  65.881
 7510DT     SC248856  49.666  74.195  65.951
 7510DT     SC348857  49.376  74.148  65.813
 7511DC     BB148858  49.886  73.615  66.101
 7511DC     BB248859  49.979  73.920  66.270
 7511DC     BB348860  49.854  73.952  66.432
 7511DC     SC148861  49.657  74.025  66.275
 7511DC     SC248862  49.620  74.236  66.300
 7511DC     SC348863  49.422  74.024  66.156
 7512DC     BB148864  50.067  73.899  66.579
 7512DC     BB248865  49.968  74.232  66.672
 7512DC     BB348866  49.815  74.224  66.812
 7512DC     SC148867  49.640  74.156  66.629
 7512DC     SC248868  49.503  74.318  66.597
 7512DC     SC348869  49.462  74.013  66.497
 7513DT     BB148870  50.000  74.317  66.973
 7513DT     BB248871  49.734  74.560  66.980
 7513DT     BB348872  49.584  74.497  67.108
 7513DT     SC148873  49.500  74.318  66.935
 7513DT     SC248874  49.308  74.378  66.859
 7513DT     SC348875  49.442  74.084  66.828
 7514DA     BB148876  49.697  74.896  67.183
 7514DA     BB248877  49.331  74.879  67.162
 7514DA     BB348878  49.252  74.773  67.329
 7514DA     SC148879  49.262  74.495  67.189
 7514DA     SC248880  49.099  74.328  67.099
 7514DA     SC348881  49.293  74.161  67.118
 7514DA     SC448882  49.394  74.406  67.209
 7515DA     BB148883  49.080  75.052  67.332
 7515DA     BB248884  48.783  74.841  67.295
 7515DA     BB348885  48.745  74.733  67.476
 7515DA     SC148886  48.916  74.487  67.393
 7515DA     SC248887  48.878  74.249  67.329
 7515DA     SC348888  49.124  74.214  67.391
 7515DA     SC448889  49.071  74.485  67.438
 7516DA     BB148890  48.451  74.874  67.430
 7516DA     BB248891  48.315  74.534  67.414
 7516DA     BB348892  48.313  74.446  67.609
 7516DA     SC148893  48.597  74.321  67.582
 7516DA     SC248894  48.697  74.094  67.560
 7516DA     SC348895  48.914  74.204  67.641
 7516DA     SC448896  48.722  74.407  67.635
 7517DC     BB148897  48.136  74.406  67.693
 7517DC     BB248898  48.148  74.048  67.650
 7517DC     BB348899  48.194  73.956  67.830
 7517DC     SC148900  48.445  74.030  67.814
 7517DC     SC248901  48.568  73.856  67.779
 7517DC     SC348902  48.673  74.149  67.871
 7518DT     BB148903  47.939  73.866  67.849
 7518DT     BB248904  48.144  73.569  67.862
 7518DT     BB348905  48.205  73.533  68.056
 7518DT     SC148906  48.379  73.729  68.046
 7518DT     SC248907  48.578  73.647  68.047
 7518DT     SC348908  48.500  73.957  68.101
 7519DT     BB148909  48.039  73.323  68.060
 7519DT     BB248910  48.365  73.186  68.130
 7519DT     BB348911  48.407  73.203  68.332
 7519DT     SC148912  48.451  73.461  68.309
 7519DT     SC248913  48.661  73.500  68.338
 7519DT     SC348914  48.424  73.721  68.342
 7520DT     BB148915  48.381  72.941  68.337
 7520DT     BB248916  48.716  73.007  68.454
 7520DT     BB348917  48.712  73.054  68.656
 7520DT     SC148918  48.616  73.293  68.605
 7520DT     SC248919  48.766  73.441  68.649
 7520DT     SC348920  48.450  73.498  68.602
 7521DA     BB148921  49.001  72.763  68.566
 7521DA     BB248922  49.157  73.025  68.770
 7521DA     BB348923  49.081  73.019  68.969
 7521DA     SC148924  48.849  73.219  68.911
 7521DA     SC248925  48.787  73.453  68.972
 7521DA     SC348926  48.549  73.385  68.906
 7521DA     SC448927  48.707  73.157  68.867
 7522DA     BB148928  49.404  73.013  69.012
 7522DA     BB248929  49.361  73.322  69.205
 7522DA     BB348930  49.266  73.280  69.392
 7522DA     SC148931  48.978  73.322  69.282
 7522DA     SC248932  48.793  73.488  69.308
 7522DA     SC348933  48.641  73.301  69.219
 7522DA     SC448934  48.900  73.193  69.227
 7523DT     BB148935  49.375  73.311  69.549
 7523DT     BB248936  49.207  73.608  69.665
 7523DT     BB348937  49.081  73.562  69.822
 7523DT     SC148938  48.907  73.451  69.660
 7523DT     SC248939  48.730  73.573  69.651
 7523DT     SC348940  48.755  73.267  69.547
 7524DC     BB148941  49.251  73.685  69.992
 7524DC     BB248942  48.935  73.849  70.047
 7524DC     BB348943  48.824  73.745  70.187
 7524DC     SC148944  48.767  73.557  70.013
 7524DC     SC248945  48.558  73.566  69.963
 7524DC     SC348946  48.758  73.319  69.898
 7525DC     BB148947  48.869  73.941  70.369
 7525DC     BB248948  48.509  73.912  70.354
 7525DC     BB348949  48.444  73.766  70.485
 7525DC     SC148950  48.528  73.575  70.325
 7525DC     SC248951  48.359  73.472  70.242
 7525DC     SC348952  48.666  73.368  70.237
 7526DA     BB148953  48.221  74.109  70.573
 7526DA     BB248954  47.987  73.828  70.546
 7526DA     BB348955  48.002  73.702  70.718
 7526DA     SC148956  48.219  73.518  70.593
 7526DA     SC248957  48.236  73.283  70.510
 7526DA     SC348958  48.489  73.312  70.542
 7526DA     SC448959  48.373  73.555  70.621
 7527DA     BB148960  47.677  73.755  70.733
 7527DA     BB248961  47.634  73.392  70.699
 7527DA     BB348962  47.680  73.295  70.884
 7527DA     SC148963  47.980  73.253  70.815
 7527DA     SC248964  48.132  73.063  70.760
 7527DA     SC348965  48.322  73.222  70.828
 7527DA     SC448966  48.084  73.367  70.862
 7528DA     BB148967  47.378  73.164  70.848
 7528DA     BB248968  47.538  72.835  70.845
 7528DA     BB348969  47.594  72.778  71.042
 7528DA     SC148970  47.878  72.902  71.024
 7528DA     SC248971  48.114  72.823  71.012
 7528DA     SC348972  48.176  73.059  71.091
 7528DA     SC448973  47.896  73.054  71.075
 7529DA     BB148974  47.416  72.501  70.992
 7529DA     BB248975  47.724  72.308  71.042
 7529DA     BB348976  47.768  72.292  71.251
 7529DA     SC148977  47.941  72.550  71.260
 7529DA     SC248978  48.182  72.609  71.289
 7529DA     SC348979  48.095  72.842  71.352
 7529DA     SC448980  47.868  72.687  71.298
 7530DT     BB148981  47.758  72.101  71.370
 7530DT     BB248982  48.115  72.053  71.400
 7530DT     BB348983  48.174  72.086  71.596
 7530DT     SC148984  48.149  72.346  71.568
 7530DT     SC248985  48.343  72.437  71.572
 7530DT     SC348986  48.060  72.591  71.604
 7531DT     BB148987  48.215  71.811  71.674
 7531DT     BB248988  48.534  71.965  71.744
 7531DT     BB348989  48.540  72.028  71.941
 7531DT     SC148990  48.382  72.231  71.890
 7531DT     SC248991  48.493  72.414  71.906
 7531DT     SC348992  48.170  72.389  71.897
 7532DA     BB148993  48.882  71.791  71.890
 7532DA     BB248994  48.988  72.109  72.039
 7532DA     BB348995  48.936  72.115  72.246
 7532DA     SC148996  48.657  72.245  72.197
 7532DA     SC248997  48.546  72.464  72.238
 7532DA     SC348998  48.326  72.334  72.213
 7532DA     SC448999  48.531  72.146  72.180
 7533DC     BB149000  49.085  72.121  72.373
 7533DC     BB249001  49.054  72.470  72.458
 7533DC     BB349002  48.966  72.489  72.645
 7533DC     SC149003  48.730  72.427  72.549
 7533DC     SC249004  48.603  72.601  72.553
 7533DC     SC349005  48.505  72.295  72.511
 7534DG     BB149006  49.324  72.682  72.629
 7534DG     BB249007  49.059  72.899  72.743
 7534DG     BB349008  49.011  72.855  72.932
 7534DG     SC149009  48.799  72.648  72.855
 7534DG     SC249010  48.505  72.672  72.902
 7534DG     SC349011  48.575  72.401  72.808
 7534DG     SC449012  48.844  72.496  72.834
 7535DC     BB149013  49.037  73.008  73.060
 7535DC     BB249014  48.697  73.106  73.133
 7535DC     BB349015  48.635  73.019  73.310
 7535DC     SC149016  48.608  72.785  73.194
 7535DC     SC249017  48.400  72.735  73.181
 7535DC     SC349018  48.647  72.530  73.136
 7536DC     BB149019  48.648  73.262  73.415
 7536DC     BB249020  48.311  73.151  73.479
 7536DC     BB349021  48.306  73.033  73.649
 7536DC     SC149022  48.415  72.831  73.521
 7536DC     SC249023  48.269  72.675  73.497
 7536DC     SC349024  48.589  72.645  73.453
 7537DG     BB149025  48.050  73.342  73.732
 7537DG     BB249026  47.895  73.022  73.799
 7537DG     BB349027  47.959  72.950  73.973
 7537DG     SC149028  48.197  72.801  73.851
 7537DG     SC249029  48.230  72.504  73.840
 7537DG     SC349030  48.478  72.641  73.754
 7537DG     SC449031  48.336  72.877  73.834
 7538DT     BB149032  47.832  72.911  74.184
 7538DT     BB249033  47.804  72.552  74.180
 7538DT     BB349034  47.925  72.470  74.326
 7538DT     SC149035  48.141  72.517  74.184
 7538DT     SC249036  48.223  72.330  74.116
 7538DT     SC349037  48.374  72.617  74.114
 7539DT     BB149038  47.726  72.398  74.529
 7539DT     BB249039  47.894  72.086  74.463
 7539DT     BB349040  48.047  72.058  74.600
 7539DT     SC149041  48.197  72.236  74.480
 7539DT     SC249042  48.363  72.137  74.385
 7539DT     SC349043  48.338  72.456  74.440
 7540DT     BB149044  47.923  71.854  74.765
 7540DT     BB249045  48.224  71.698  74.644
 7540DT     BB349046  48.377  71.723  74.781
 7540DT     SC149047  48.407  71.975  74.714
 7540DT     SC249048  48.594  72.000  74.612
 7540DT     SC349049  48.411  72.238  74.733
 7541DA     BB149050  48.348  71.317  74.692
 7541DA     BB249051  48.694  71.423  74.632
 7541DA     BB349052  48.797  71.448  74.817
 7541DA     SC149053  48.723  71.749  74.846
 7541DA     SC249054  48.839  71.969  74.836
 7541DA     SC349055  48.637  72.058  74.967
 7541DA     SC449056  48.590  71.784  74.929
 7542DT     BB149057  48.931  71.330  74.818
 7542DT     BB249058  49.193  71.568  74.749
 7542DT     BB349059  49.289  71.621  74.924
 7542DT     SC149060  49.086  71.772  74.998
 7542DT     SC249061  49.145  71.978  74.990
 7542DT     SC349062  48.882  71.861  75.138
 7543DA     BB149063  49.534  71.527  74.593
 7543DA     BB249064  49.648  71.842  74.743
 7543DA     BB349065  49.728  71.806  74.937
 7543DA     SC149066  49.457  71.850  75.083
 7543DA     SC249067  49.354  72.019  75.235
 7543DA     SC349068  49.189  71.832  75.298
 7543DA     SC449069  49.365  71.721  75.110
 7544DC     BB149070  49.899  71.849  74.932
 7544DC     BB249071  49.881  72.149  75.132
 7544DC     BB349072  49.926  72.105  75.329
 7544DC     SC149073  49.692  71.992  75.366
 7544DC     SC249074  49.573  72.114  75.497
 7544DC     SC349075  49.511  71.806  75.416
 7545DT     BB149076  50.159  72.234  75.293
 7545DT     BB249077  50.009  72.395  75.579
 7545DT     BB349078  50.053  72.289  75.751
 7545DT     SC149079  49.881  72.101  75.689
 7545DT     SC249080  49.714  72.109  75.825
 7545DT     SC349081  49.785  71.864  75.624
 7546DG     BB149082  50.211  72.659  75.825
 7546DG     BB249083  49.999  72.553  76.099
 7546DG     BB349084  50.099  72.429  76.217
 7546DG     SC149085  50.016  72.177  76.064
 7546DG     SC249086  49.838  71.960  76.168
 7546DG     SC349087  49.960  71.883  75.909
 7546DG     SC449088  50.105  72.127  75.941
 7547DC     BB149089  50.162  72.466  76.450
 7547DC     BB249090  49.924  72.254  76.618
 7547DC     BB349091  50.019  72.088  76.697
 7547DC     SC149092  50.043  71.979  76.459
 7547DC     SC249093  49.915  71.807  76.447
 7547DC     SC349094  50.155  71.880  76.242
 7548DT     BB149095  49.996  72.181  76.956
 7548DT     BB249096  49.831  71.861  76.961
 7548DT     BB349097  49.967  71.712  77.007
 7548DT     SC149098  50.072  71.724  76.767
 7548DT     SC249099  50.024  71.544  76.658
 7548DT     SC349100  50.249  71.761  76.575
 7549DA     BB149101  49.633  71.679  77.255
 7549DA     BB249102  49.700  71.349  77.109
 7549DA     BB349103  49.874  71.263  77.198
 7549DA     SC149104  50.070  71.382  76.988
 7549DA     SC249105  50.213  71.299  76.801
 7549DA     SC349106  50.341  71.520  76.829
 7549DA     SC449107  50.137  71.524  77.021
 7550DA     BB149108  49.637  71.041  77.213
 7550DA     BB249109  49.861  70.826  77.017
 7550DA     BB349110  50.028  70.767  77.135
 7550DA     SC149111  50.205  71.009  77.050
 7550DA     SC249112  50.409  71.049  76.912
 7550DA     SC349113  50.429  71.269  77.042
 7550DA     SC449114  50.201  71.140  77.143
 7551DG     BB149115  49.899  70.504  77.044
 7551DG     BB249116  50.221  70.458  76.887
 7551DG     BB349117  50.357  70.411  77.024
 7551DG     SC149118  50.435  70.702  77.081
 7551DG     SC249119  50.699  70.828  77.020
 7551DG     SC349120  50.531  71.009  77.183
 7551DG     SC449121  50.355  70.783  77.193
 7552DT     BB149122  50.450  70.225  77.008
 7552DT     BB249123  50.786  70.310  76.908
 7552DT     BB349124  50.911  70.307  77.073
 7552DT     SC149125  50.814  70.534  77.161
 7552DT     SC249126  50.963  70.688  77.143
 7552DT     SC349127  50.690  70.707  77.317
 7553DA     BB149128  51.098  70.061  76.789
 7553DA     BB249129  51.355  70.283  76.927
 7553DA     BB349130  51.407  70.221  77.125
 7553DA     SC149131  51.195  70.401  77.264
 7553DA     SC249132  51.191  70.605  77.407
 7553DA     SC349133  50.955  70.529  77.474
 7553DA     SC449134  51.051  70.336  77.294
 7554DA     BB149135  51.720  70.212  77.014
 7554DA     BB249136  51.806  70.460  77.270
 7554DA     BB349137  51.824  70.366  77.460
 7554DA     SC149138  51.526  70.409  77.537
 7554DA     SC249139  51.394  70.546  77.698
 7554DA     SC349140  51.207  70.374  77.661
 7554DA     SC449141  51.422  70.291  77.501
 7555DA     BB149142  52.128  70.501  77.475
 7555DA     BB249143  52.022  70.679  77.777
 7555DA     BB349144  52.026  70.548  77.946
 7555DA     SC149145  51.731  70.456  77.911
 7555DA     SC249146  51.514  70.484  78.031
 7555DA     SC349147  51.440  70.274  77.903
 7555DA     SC449148  51.704  70.324  77.824
 7556DT     BB149149  52.169  70.567  78.113
 7556DT     BB249150  51.935  70.689  78.360
 7556DT     BB349151  51.898  70.542  78.501
 7556DT     SC149152  51.747  70.408  78.333
 7556DT     SC249153  51.542  70.419  78.398
 7556DT     SC349154  51.661  70.214  78.177
 7557DT     BB149155  52.058  70.650  78.716
 7557DT     BB249156  51.735  70.606  78.870
 7557DT     BB349157  51.725  70.421  78.962
 7557DT     SC149158  51.700  70.299  78.731
 7557DT     SC249159  51.502  70.218  78.713
 7557DT     SC349160  51.755  70.142  78.526
 7558DA     BB149161  51.636  70.653  79.308
 7558DA     BB249162  51.383  70.387  79.298
 7558DA     BB349163  51.463  70.206  79.377
 7558DA     SC149164  51.566  70.103  79.102
 7558DA     SC249165  51.509  69.922  78.940
 7558DA     SC349166  51.747  69.956  78.850
 7558DA     SC449167  51.717  70.138  79.061
 7559DA     BB149168  51.233  70.148  79.642
 7559DA     BB249169  51.121  69.843  79.473
 7559DA     BB349170  51.237  69.676  79.536
 7559DA     SC149171  51.451  69.707  79.312
 7559DA     SC249172  51.521  69.585  79.106
 7559DA     SC349173  51.742  69.714  79.131
 7559DA     SC449174  51.581  69.796  79.345
 7560DA     BB149175  50.986  69.457  79.675
 7560DA     BB249176  51.048  69.225  79.398
 7560DA     BB349177  51.190  69.077  79.455
 7560DA     SC149178  51.436  69.239  79.359
 7560DA     SC249179  51.606  69.226  79.177
 7560DA     SC349180  51.747  69.381  79.325
 7560DA     SC449181  51.509  69.334  79.466
 7561DA     BB149182  50.983  68.810  79.395
 7561DA     BB249183  51.198  68.732  79.108
 7561DA     BB349184  51.350  68.593  79.165
 7561DA     SC149185  51.555  68.814  79.243
 7561DA     SC249186  51.771  68.904  79.157
 7561DA     SC349187  51.803  68.997  79.394
 7561DA     SC449188  51.557  68.862  79.396
 7562DT     BB149189  51.348  68.408  79.073
 7562DT     BB249190  51.601  68.500  78.832
 7562DT     BB349191  51.777  68.398  78.872
 7562DT     SC149192  51.828  68.552  79.078
 7562DT     SC249193  51.998  68.677  79.033
 7562DT     SC349194  51.871  68.627  79.327
 7563DG     BB149195  51.623  68.377  78.496
 7563DG     BB249196  51.961  68.505  78.501
 7563DG     BB349197  52.089  68.357  78.541
 7563DG     SC149198  52.078  68.396  78.844
 7563DG     SC249199  52.302  68.489  79.017
 7563DG     SC349200  52.074  68.396  79.181
 7563DG     SC449201  51.966  68.318  78.928
 7564DC     BB149202  52.201  68.363  78.397
 7564DC     BB249203  52.505  68.495  78.541
 7564DC     BB349204  52.624  68.340  78.610
 7564DC     SC149205  52.468  68.302  78.817
 7564DC     SC249206  52.571  68.362  78.996
 7564DC     SC349207  52.301  68.184  78.984
 7565DA     BB149208  52.823  68.635  78.383
 7565DA     BB249209  53.020  68.561  78.683
 7565DA     BB349210  53.097  68.363  78.674
 7565DA     SC149211  52.852  68.235  78.818
 7565DA     SC249212  52.802  68.128  79.037
 7565DA     SC349213  52.599  68.026  78.918
 7565DA     SC449214  52.733  68.180  78.726
 7566DT     BB149215  53.280  68.365  78.666
 7566DT     BB249216  53.346  68.240  78.998
 7566DT     BB349217  53.383  68.037  78.991
 7566DT     SC149218  53.129  67.983  78.954
 7566DT     SC249219  53.050  67.887  79.129
 7566DT     SC349220  52.908  67.897  78.838
 7567DA     BB149221  53.696  68.216  79.205
 7567DA     BB249222  53.585  67.923  79.394
 7567DA     BB349223  53.648  67.743  79.297
 7567DA     SC149224  53.389  67.716  79.126
 7567DA     SC249225  53.191  67.566  79.115
 7567DA     SC349226  53.163  67.655  78.875
 7567DA     SC449227  53.390  67.782  78.979
 7568DA     BB149228  53.775  67.679  79.594
 7568DA     BB249229  53.564  67.379  79.601
 7568DA     BB349230  53.646  67.228  79.474
 7568DA     SC149231  53.487  67.319  79.223
 7568DA     SC249232  53.299  67.234  79.082
 7568DA     SC349233  53.388  67.395  78.903
 7568DA     SC449234  53.558  67.424  79.124
 7569DA     BB149235  53.624  67.047  79.748
 7569DA     BB249236  53.402  66.823  79.563
 7569DA     BB349237  53.514  66.701  79.429
 7569DA     SC149238  53.492  66.900  79.191
 7569DA     SC249239  53.377  66.911  78.970
 7569DA     SC349240  53.551  67.090  78.911
 7569DA     SC449241  53.609  67.008  79.173
 7570DG     BB149242  53.398  66.462  79.592
 7570DG     BB249243  53.243  66.376  79.276
 7570DG     BB349244  53.372  66.278  79.162
 7570DG     SC149245  53.486  66.529  79.030
 7570DG     SC249246  53.457  66.605  78.742
 7570DG     SC349247  53.647  66.785  78.880
 7570DG     SC449248  53.609  66.605  79.099
 7571DT     BB149249  53.343  66.060  79.095
 7571DT     BB249250  53.261  66.098  78.746
 7571DT     BB349251  53.423  66.045  78.629
 7571DT     SC149252  53.549  66.267  78.688
 7571DT     SC249253  53.559  66.392  78.513
 7571DT     SC349254  53.734  66.429  78.783
 7572DA     BB149255  53.107  65.812  78.477
 7572DA     BB249256  53.276  65.967  78.190
 7572DA     BB349257  53.461  65.869  78.152
 7572DA     SC149258  53.627  66.057  78.336
 7572DA     SC249259  53.799  66.236  78.311
 7572DA     SC349260  53.856  66.188  78.557
 7572DA     SC449261  53.648  66.012  78.489
 7573DA     BB149262  53.355  65.818  77.840
 7573DA     BB249263  53.636  66.022  77.723
 7573DA     BB349264  53.815  65.905  77.720
 7573DA     SC149265  53.898  65.979  78.010
 7573DA     SC249266  54.075  66.114  78.124
 7573DA     SC349267  54.020  65.974  78.331
 7573DA     SC449268  53.850  65.880  78.128
 7574DA     BB149269  53.837  65.997  77.403
 7574DA     BB249270  54.150  66.167  77.489
 7574DA     BB349271  54.310  66.026  77.500
 7574DA     SC149272  54.271  65.970  77.804
 7574DA     SC249273  54.392  66.015  78.017
 7574DA     SC349274  54.252  65.823  78.114
 7574DA     SC449275  54.176  65.847  77.845
 7575DA     BB149276  54.439  66.238  77.289
 7575DA     BB249277  54.701  66.297  77.539
 7575DA     BB349278  54.839  66.135  77.541
 7575DA     SC149279  54.685  65.974  77.758
 7575DA     SC249280  54.716  65.908  77.997
 7575DA     SC349281  54.543  65.725  77.948
 7575DA     SC449282  54.576  65.866  77.708
 7576DT     BB149283  55.012  66.185  77.488
 7576DT     BB249284  55.164  66.176  77.815
 7576DT     BB349285  55.273  66.002  77.838
 7576DT     SC149286  55.054  65.860  77.867
 7576DT     SC249287  55.041  65.790  78.070
 7576DT     SC349288  54.867  65.680  77.820
 7577DT     BB149289  55.478  66.165  77.830
 7577DT     BB249290  55.510  65.987  78.142
 7577DT     BB349291  55.597  65.802  78.110
 7577DT     SC149292  55.376  65.707  78.006
 7577DT     SC249293  55.291  65.561  78.140
 7577DT     SC349294  55.208  65.606  77.830
 7578DC     BB149295  55.806  65.906  78.234
 7578DC     BB249296  55.730  65.604  78.417
 7578DC     BB349297  55.812  65.440  78.321
 7578DC     SC149298  55.628  65.448  78.134
 7578DC     SC249299  55.499  65.277  78.154
 7578DC     SC349300  55.518  65.472  77.895
 7579DT     BB149301  56.007  65.416  78.513
 7579DT     BB249302  55.858  65.088  78.500
 7579DT     BB349303  55.950  64.974  78.354
 7579DT     SC149304  55.828  65.105  78.162
 7579DT     SC249305  55.684  64.976  78.068
 7579DT     SC349306  55.791  65.259  77.951
 7580DG     BB149307  56.038  64.743  78.685
 7580DG     BB249308  55.898  64.537  78.423
 7580DG     BB349309  56.040  64.487  78.293
 7580DG     SC149310  55.996  64.732  78.114
 7580DG     SC249311  55.891  64.728  77.835
 7580DG     SC349312  55.989  64.997  77.907
 7580DG     SC449313  56.077  64.866  78.146
 7581DT     BB149314  56.162  64.250  78.226
 7581DT     BB249315  56.002  64.187  77.909
 7581DT     BB349316  56.140  64.200  77.756
 7581DT     SC149317  56.145  64.462  77.772
 7581DT     SC249318  56.053  64.546  77.597
 7581DT     SC349319  56.235  64.707  77.811
 7582DT     BB149320  56.189  63.912  77.687
 7582DT     BB249321  56.082  64.054  77.373
 7582DT     BB349322  56.247  64.103  77.258
 7582DT     SC149323  56.298  64.313  77.407
 7582DT     SC249324  56.258  64.492  77.294
 7582DT     SC349325  56.424  64.476  77.572
 7583DG     BB149326  56.052  63.832  77.022
 7583DG     BB249327  56.104  64.143  76.845
 7583DG     BB349328  56.287  64.146  76.767
 7583DG     SC149329  56.417  64.273  77.013
 7583DG     SC249330  56.537  64.546  77.027
 7583DG     SC349331  56.596  64.393  77.272
 7583DG     SC449332  56.472  64.178  77.129
 7584DC     BB149333  56.312  64.160  76.548
 7584DC     BB249334  56.405  64.507  76.514
 7584DC     BB349335  56.607  64.523  76.472
 7584DC     SC149336  56.671  64.466  76.720
 7584DC     SC249337  56.752  64.641  76.815
 7584DC     SC349338  56.772  64.337  76.927
 7585DT     BB149339  56.515  64.604  76.242
 7585DT     BB249340  56.715  64.877  76.367
 7585DT     BB349341  56.915  64.841  76.327
 7585DT     SC149342  56.930  64.661  76.517
 7585DT     SC249343  57.052  64.736  76.677
 7585DT     SC349344  56.962  64.427  76.635
 7586DC     BB149345  56.868  65.044  76.174
 7586DC     BB249346  57.142  65.143  76.387
 7586DC     BB349347  57.319  65.060  76.318
 7586DC     SC149348  57.252  64.823  76.409
 7586DC     SC249349  57.379  64.773  76.575
 7586DC     SC349350  57.189  64.568  76.412
 7587DC     BB149351  57.370  65.309  76.260
 7587DC     BB249352  57.650  65.200  76.460
 7587DC     BB349353  57.783  65.093  76.343
 7587DC     SC149354  57.623  64.884  76.340
 7587DC     SC249355  57.711  64.725  76.455
 7587DC     SC349356  57.463  64.695  76.248
 7588DT     BB149357  57.956  65.301  76.348
 7588DT     BB249358  58.158  65.020  76.451
 7588DT     BB349359  58.233  64.922  76.285
 7588DT     SC149360  57.999  64.815  76.233
 7588DT     SC249361  58.007  64.604  76.270
 7588DT     SC349362  57.775  64.758  76.106
 7589DT     BB149363  58.508  65.022  76.286
 7589DT     BB249364  58.557  64.665  76.262
 7589DT     BB349365  58.574  64.609  76.064
 7589DT     SC149366  58.316  64.640  76.025
 7589DT     SC249367  58.225  64.447  75.995
 7589DT     SC349368  58.089  64.734  75.930
 7590DT     BB149369  58.883  64.572  75.995
 7590DT     BB249370  58.746  64.259  75.879
 7590DT     BB349371  58.719  64.266  75.674
 7590DT     SC149372  58.509  64.421  75.698
 7590DT     SC249373  58.332  64.311  75.643
 7590DT     SC349374  58.353  64.633  75.677
 7591DT     BB149375  58.963  64.109  75.519
 7591DT     BB249376  58.670  63.942  75.387
 7591DT     BB349377  58.629  64.012  75.197
 7591DT     SC149378  58.535  64.238  75.292
 7591DT     SC249379  58.322  64.245  75.261
 7591DT     SC349380  58.511  64.496  75.340
 7592DT     BB149381  58.721  63.787  75.016
 7592DT     BB249382  58.370  63.820  74.941
 7592DT     BB349383  58.345  63.935  74.770
 7592DT     SC149384  58.401  64.156  74.902
 7592DT     SC249385  58.223  64.275  74.920
 7592DT     SC349386  58.526  64.376  74.975
 7593DT     BB149387  58.268  63.718  74.615
 7593DT     BB249388  57.983  63.938  74.613
 7593DT     BB349389  57.996  64.069  74.453
 7593DT     SC149390  58.182  64.210  74.573
 7593DT     SC249391  58.102  64.401  74.628
 7593DT     SC349392  58.416  64.321  74.621
 7594DA     BB149393  57.626  63.878  74.492
 7594DA     BB249394  57.571  64.240  74.473
 7594DA     BB349395  57.613  64.311  74.276
 7594DA     SC149396  57.912  64.372  74.335
 7594DA     SC249397  58.059  64.572  74.359
 7594DA     SC349398  58.253  64.410  74.313
 7594DA     SC449399  58.019  64.256  74.303
 7595DA     BB149400  57.328  64.413  74.395
 7595DA     BB249401  57.466  64.749  74.347
 7595DA     BB349402  57.496  64.788  74.139
 7595DA     SC149403  57.788  64.680  74.135
 7595DA     SC249404  58.018  64.772  74.110
 7595DA     SC349405  58.085  64.532  74.048
 7595DA     SC449406  57.809  64.525  74.097
 7596DA     BB149407  57.343  65.028  74.306
 7596DA     BB249408  57.616  65.239  74.181
 7596DA     BB349409  57.612  65.247  73.968
 7596DA     SC149410  57.799  65.002  73.930
 7596DA     SC249411  58.032  64.958  73.851
 7596DA     SC349412  57.952  64.716  73.817
 7596DA     SC449413  57.731  64.857  73.914
 7597DT     BB149414  57.588  65.408  73.947
 7597DT     BB249415  57.910  65.488  73.807
 7597DT     BB349416  57.907  65.462  73.602
 7597DT     SC149417  57.914  65.201  73.628
 7597DT     SC249418  58.105  65.127  73.561
 7597DT     SC349419  57.841  64.948  73.615
 7598DG     BB149420  58.029  65.841  73.695
 7598DG     BB249421  58.247  65.685  73.452
 7598DG     BB349422  58.157  65.677  73.275
 7598DG     SC149423  58.029  65.403  73.325
 7598DG     SC249424  58.094  65.150  73.180
 7598DG     SC349425  57.857  65.115  73.353
 7598DG     SC449426  57.885  65.397  73.395
 7599DT     BB149427  58.231  65.788  73.094
 7599DT     BB249428  58.355  65.524  72.882
 7599DT     BB349429  58.218  65.483  72.733
 7599DT     SC149430  58.059  65.358  72.901
 7599DT     SC249431  58.060  65.148  72.857
 7599DT     SC349432  57.847  65.302  73.046
 7600DA     BB149433  58.553  65.566  72.486
 7600DA     BB249434  58.403  65.258  72.355
 7600DA     BB349435  58.229  65.304  72.240
 7600DA     SC149436  58.034  65.283  72.481
 7600DA     SC249437  57.853  65.130  72.559
 7600DA     SC349438  57.776  65.327  72.704
 7600DA     SC449439  58.001  65.417  72.562
 7601DA     BB149440  58.330  65.157  71.936
 7601DA     BB249441  58.050  64.922  71.962
 7601DA     BB349442  57.874  65.007  71.876
 7601DA     SC149443  57.775  65.135  72.142
 7601DA     SC249444  57.590  65.100  72.306
 7601DA     SC349445  57.638  65.342  72.379
 7601DA     SC449446  57.819  65.286  72.172
 7602DC     BB149447  57.736  64.951  71.660
 7602DC     BB249448  57.470  64.783  71.837
 7602DC     BB349449  57.292  64.887  71.812
 7602DC     SC149450  57.369  65.074  71.979
 7602DC     SC249451  57.252  65.063  72.159
 7602DC     SC349452  57.440  65.311  72.070
 7603DG     BB149453  57.192  64.525  71.644
 7603DG     BB249454  56.961  64.612  71.909
 7603DG     BB349455  56.819  64.731  71.838
 7603DG     SC149456  56.972  64.990  71.897
 7603DG     SC249457  56.895  65.198  72.097
 7603DG     SC349458  57.120  65.291  71.929
 7603DG     SC449459  57.072  65.048  71.786
 7604DA     BB149460  56.603  64.505  71.979
 7604DA     BB249461  56.475  64.768  72.201
 7604DA     BB349462  56.342  64.896  72.095
 7604DA     SC149463  56.564  65.095  72.007
 7604DA     SC249464  56.632  65.329  72.058
 7604DA     SC349465  56.758  65.320  71.834
 7604DA     SC449466  56.634  65.070  71.865
 7605DT     BB149467  56.167  64.887  72.162
 7605DT     BB249468  56.170  65.205  72.332
 7605DT     BB349469  56.070  65.347  72.218
 7605DT     SC149470  56.271  65.364  72.050
 7605DT     SC249471  56.366  65.556  72.072
 7605DT     SC349472  56.408  65.350  71.825
 7606DT     BB149473  55.886  65.335  72.408
 7606DT     BB249474  55.985  65.681  72.395
 7606DT     BB349475  55.883  65.778  72.243
 7606DT     SC149476  56.032  65.664  72.060
 7606DT     SC249477  56.160  65.812  71.969
 7606DT     SC349478  56.102  65.515  71.854
 7607DT     BB149479  55.736  65.907  72.429
 7607DT     BB249480  55.883  66.171  72.231
 7607DT     BB349481  55.764  66.208  72.065
 7607DT     SC149482  55.846  65.989  71.947
 7607DT     SC249483  55.970  66.040  71.779
 7607DT     SC349484  55.841  65.749  71.838
 7608DT     BB149485  55.667  66.448  72.167
 7608DT     BB249486  55.809  66.539  71.848
 7608DT     BB349487  55.667  66.521  71.699
 7608DT     SC149488  55.685  66.259  71.703
 7608DT     SC249489  55.778  66.192  71.521
 7608DT     SC349490  55.618  66.006  71.733
 7609DG     BB149491  55.765  66.919  71.679
 7609DG     BB249492  55.800  66.760  71.355
 7609DG     BB349493  55.622  66.749  71.266
 7609DG     SC149494  55.552  66.475  71.385
 7609DG     SC249495  55.523  66.220  71.232
 7609DG     SC349496  55.434  66.186  71.512
 7609DG     SC449497  55.478  66.469  71.526
 7610DA     BB149498  55.763  66.904  70.991
 7610DA     BB249499  55.696  66.606  70.788
 7610DA     BB349500  55.492  66.604  70.725
 7610DA     SC149501  55.393  66.443  70.972
 7610DA     SC249502  55.305  66.214  71.021
 7610DA     SC349503  55.210  66.319  71.235
 7610DA     SC449504  55.341  66.526  71.099
 7611DA     BB149505  55.668  66.567  70.459
 7611DA     BB249506  55.506  66.239  70.430
 7611DA     BB349507  55.302  66.262  70.371
 7611DA     SC149508  55.194  66.276  70.662
 7611DA     SC249509  55.057  66.135  70.816
 7611DA     SC349510  55.016  66.352  70.946
 7611DA     SC449511  55.179  66.422  70.729
 7612DA     BB149512  55.459  66.043  70.189
 7612DA     BB249513  55.204  65.808  70.308
 7612DA     BB349514  55.012  65.862  70.231
 7612DA     SC149515  54.940  66.044  70.473
 7612DA     SC249516  54.781  66.041  70.665
 7612DA     SC349517  54.819  66.295  70.674
 7612DA     SC449518  54.975  66.200  70.461
 7613DC     BB149519  54.970  65.727  70.137
 7613DC     BB249520  54.710  65.598  70.351
 7613DC     BB349521  54.527  65.676  70.294
 7613DC     SC149522  54.584  65.909  70.399
 7613DC     SC249523  54.460  65.942  70.573
 7613DC     SC349524  54.634  66.168  70.418
 7614DT     BB149525  54.479  65.430  70.213
 7614DT     BB249526  54.207  65.509  70.437
 7614DT     BB349527  54.063  65.619  70.336
 7614DT     SC149528  54.212  65.834  70.341
 7614DT     SC249529  54.124  65.979  70.474
 7614DT     SC349530  54.357  66.038  70.256
 7615DT     BB149531  53.897  65.403  70.334
 7615DT     BB249532  53.699  65.664  70.485
 7615DT     BB349533  53.604  65.775  70.338
 7615DT     SC149534  53.827  65.895  70.273
 7615DT     SC249535  53.817  66.102  70.331
 7615DT     SC349536  54.035  65.973  70.129
 7616DT     BB149537  53.350  65.665  70.386
 7616DT     BB249538  53.295  66.020  70.415
 7616DT     BB349539  53.243  66.099  70.231
 7616DT     SC149540  53.490  66.081  70.144
 7616DT     SC249541  53.572  66.278  70.123
 7616DT     SC349542  53.697  66.005  70.000
 7617DT     BB149543  52.973  66.134  70.298
 7617DT     BB249544  53.082  66.463  70.198
 7617DT     BB349545  53.051  66.489  69.995
 7617DT     SC149546  53.256  66.336  69.937
 7617DT     SC249547  53.414  66.456  69.854
 7617DT     SC349548  53.395  66.133  69.842
 7618DA     BB149549  52.868  66.815  70.182
 7618DA     BB249550  53.081  66.947  69.915
 7618DA     BB349551  52.990  66.914  69.725
 7618DA     SC149552  53.127  66.638  69.681
 7618DA     SC249553  53.303  66.540  69.533
 7618DA     SC349554  53.198  66.313  69.593
 7618DA     SC449555  53.047  66.507  69.729
 7619DT     BB149556  52.939  67.074  69.630
 7619DT     BB249557  53.203  67.066  69.384
 7619DT     BB349558  53.129  66.997  69.203
 7619DT     SC149559  53.120  66.750  69.292
 7619DT     SC249560  53.269  66.633  69.191
 7619DT     SC349561  53.021  66.517  69.366
 7620DA     BB149562  53.348  67.351  69.149
 7620DA     BB249563  53.458  67.108  68.897
 7620DA     BB349564  53.306  67.079  68.751
 7620DA     SC149565  53.172  66.842  68.903
 7620DA     SC249566  53.145  66.596  68.874
 7620DA     SC349567  52.948  66.619  69.036
 7620DA     SC449568  53.052  66.877  69.004
 7621DT     BB149569  53.352  67.139  68.576
 7621DT     BB249570  53.388  66.816  68.418
 7621DT     BB349571  53.218  66.772  68.309
 7621DT     SC149572  53.081  66.719  68.527
 7621DT     SC249573  53.041  66.508  68.537
 7621DT     SC349574  52.898  66.738  68.715
 7622DT     BB149575  53.350  66.816  68.074
 7622DT     BB249576  53.212  66.485  68.034
 7622DT     BB349577  53.020  66.497  67.958
 7622DT     SC149578  52.926  66.577  68.190
 7622DT     SC249579  52.803  66.421  68.275
 7622DT     SC349580  52.813  66.730  68.373
 7623DA     BB149581  53.209  66.238  67.686
 7623DA     BB249582  52.888  66.084  67.775
 7623DA     BB349583  52.728  66.183  67.675
 7623DA     SC149584  52.679  66.389  67.904
 7623DA     SC249585  52.505  66.436  68.075
 7623DA     SC349586  52.608  66.671  68.086
 7623DA     SC449587  52.757  66.529  67.895
 7624DA     BB149588  52.631  65.889  67.545
 7624DA     BB249589  52.310  65.929  67.718
 7624DA     BB349590  52.181  66.058  67.608
 7624DA     SC149591  52.277  66.317  67.751
 7624DA     SC249592  52.185  66.483  67.913
 7624DA     SC349593  52.371  66.638  67.827
 7624DA     SC449594  52.398  66.398  67.684
 7625DT     BB149595  51.988  65.997  67.498
 7625DT     BB249596  51.758  66.144  67.735
 7625DT     BB349597  51.663  66.307  67.650
 7625DT     SC149598  51.879  66.454  67.672
 7625DT     SC249599  51.846  66.606  67.821
 7625DT     SC349600  52.088  66.601  67.605
 7626DT     BB149601  51.407  66.184  67.604
 7626DT     BB249602  51.326  66.474  67.802
 7626DT     BB349603  51.278  66.633  67.678
 7626DT     SC149604  51.530  66.670  67.615
 7626DT     SC249605  51.600  66.854  67.702
 7626DT     SC349606  51.750  66.684  67.470
 7627DC     BB149607  50.995  66.629  67.721
 7627DC     BB249608  51.089  66.965  67.812
 7627DC     BB349609  51.070  67.091  67.649
 7627DC     SC149610  51.287  66.994  67.539
 7627DC     SC249611  51.442  67.143  67.543
 7627DC     SC349612  51.444  66.871  67.366
 7628DG     BB149613  50.812  67.259  67.920
 7628DG     BB249614  51.049  67.505  67.799
 7628DG     BB349615  50.987  67.578  67.624
 7628DG     SC149616  51.131  67.366  67.456
 7628DG     SC249617  51.361  67.416  67.272
 7628DG     SC349618  51.260  67.139  67.243
 7628DG     SC449619  51.056  67.229  67.423
 7629DA     BB149620  51.016  67.900  67.753
 7629DA     BB249621  51.268  67.981  67.500
 7629DA     BB349622  51.174  68.029  67.314
 7629DA     SC149623  51.181  67.736  67.209
 7629DA     SC249624  51.300  67.606  67.032
 7629DA     SC349625  51.108  67.437  67.056
 7629DA     SC449626  51.052  67.644  67.237
 7630DG     BB149627  51.312  68.304  67.352
 7630DG     BB249628  51.498  68.198  67.060
 7630DG     BB349629  51.396  68.242  66.895
 7630DG     SC149630  51.247  67.974  66.888
 7630DG     SC249631  51.280  67.761  66.681
 7630DG     SC349632  51.052  67.701  66.860
 7630DG     SC449633  51.109  67.960  66.967
 7631DA     BB149634  51.689  68.389  66.799
 7631DA     BB249635  51.707  68.163  66.511
 7631DA     BB349636  51.570  68.225  66.359
 7631DA     SC149637  51.335  68.051  66.466
 7631DA     SC249638  51.208  67.848  66.395
 7631DA     SC349639  51.026  67.930  66.556
 7631DA     SC449640  51.233  68.119  66.570
 7632DT     BB149641  51.661  68.273  66.210
 7632DT     BB249642  51.578  67.984  66.011
 7632DT     BB349643  51.422  68.029  65.882
 7632DT     SC149644  51.248  68.022  66.079
 7632DT     SC249645  51.121  67.850  66.055
 7632DT     SC349646  51.066  68.101  66.252
 7633DA     BB149647  51.741  67.840  65.685
 7633DA     BB249648  51.428  67.676  65.585
 7633DA     BB349649  51.312  67.807  65.463
 7633DA     SC149650  51.157  67.932  65.701
 7633DA     SC249651  50.924  67.929  65.791
 7633DA     SC349652  50.991  68.146  65.912
 7633DA     SC449653  51.217  68.066  65.766
 7634DT     BB149654  51.292  67.745  65.285
 7634DT     BB249655  50.943  67.655  65.304
 7634DT     BB349656  50.827  67.804  65.218
 7634DT     SC149657  50.862  67.961  65.425
 7634DT     SC249658  50.677  67.981  65.532
 7634DT     SC349659  50.938  68.169  65.569
 7635DC     BB149660  50.778  67.642  65.006
 7635DC     BB249661  50.450  67.737  65.122
 7635DC     BB349662  50.394  67.916  65.035
 7635DC     SC149663  50.556  68.051  65.191
 7635DC     SC249664  50.441  68.167  65.331
 7635DC     SC349665  50.757  68.205  65.267
 7636DA     BB149666  50.074  67.659  64.947
 7636DA     BB249667  49.929  67.971  65.074
 7636DA     BB349668  49.940  68.124  64.925
 7636DA     SC149669  50.217  68.229  65.017
 7636DA     SC249670  50.311  68.432  65.127
 7636DA     SC349671  50.536  68.358  65.029
 7636DA     SC449672  50.348  68.167  64.946
 7637DC     BB149673  49.763  68.211  64.819
 7637DC     BB249674  49.765  68.530  64.988
 7637DC     BB349675  49.824  68.679  64.858
 7637DC     SC149676  50.074  68.601  64.870
 7637DC     SC249677  50.190  68.748  64.975
 7637DC     SC349678  50.309  68.507  64.795
 7638DA     BB149679  49.456  68.828  64.995
 7638DA     BB249680  49.699  69.100  65.028
 7638DA     BB349681  49.735  69.191  64.838
 7638DA     SC149682  49.973  69.003  64.766
 7638DA     SC249683  50.220  69.020  64.740
 7638DA     SC349684  50.200  68.804  64.604
 7638DA     SC449685  49.939  68.869  64.684
 7639DA     BB149686  49.651  69.477  64.982
 7639DA     BB249687  49.991  69.596  64.912
 7639DA     BB349688  50.007  69.660  64.709
 7639DA     SC149689  50.096  69.381  64.603
 7639DA     SC249690  50.302  69.276  64.510
 7639DA     SC349691  50.143  69.099  64.414
 7639DA     SC449692  49.981  69.282  64.550
 7640DT     BB149693  50.039  69.864  64.660
 7640DT     BB249694  50.387  69.830  64.571
 7640DT     BB349695  50.410  69.848  64.367
 7640DT     SC149696  50.311  69.609  64.326
 7640DT     SC249697  50.468  69.478  64.257
 7640DT     SC349698  50.150  69.418  64.243
 7641DT     BB149699  50.526  70.096  64.394
 7641DT     BB249700  50.772  69.903  64.216
 7641DT     BB349701  50.740  69.918  64.012
 7641DT     SC149702  50.533  69.758  64.025
 7641DT     SC249703  50.581  69.571  63.929
 7641DT     SC349704  50.284  69.672  64.011
 7642DT     BB149705  50.962  70.058  64.013
 7642DT     BB249706  51.023  69.782  63.789
 7642DT     BB349707  50.943  69.823  63.603
 7642DT     SC149708  50.699  69.780  63.690
 7642DT     SC249709  50.623  69.599  63.602
 7642DT     SC349710  50.447  69.824  63.756
 7643DT     BB149711  51.194  69.844  63.523
 7643DT     BB249712  51.048  69.587  63.315
 7643DT     BB349713  50.945  69.674  63.158
 7643DT     SC149714  50.748  69.745  63.316
 7643DT     SC249715  50.573  69.628  63.270
 7643DT     SC349716  50.579  69.898  63.449
 7644DA     BB149717  51.205  69.377  63.014
 7644DA     BB249718  50.874  69.323  62.866
 7644DA     BB349719  50.830  69.476  62.724
 7644DA     SC149720  50.693  69.663  62.932
 7644DA     SC249721  50.464  69.745  62.983
 7644DA     SC349722  50.582  69.934  63.111
 7644DA     SC449723  50.785  69.773  63.005
 7645DA     BB149724  50.778  69.202  62.552
 7645DA     BB249725  50.433  69.321  62.515
 7645DA     BB349726  50.426  69.487  62.381
 7645DA     SC149727  50.462  69.700  62.605
 7645DA     SC249728  50.325  69.876  62.716
 7645DA     SC349729  50.550  69.977  62.788
 7645DA     SC449730  50.612  69.748  62.639
 7646DA     BB149731  50.202  69.285  62.254
 7646DA     BB249732  49.960  69.554  62.311
 7646DA     BB349733  49.993  69.714  62.174
 7646DA     SC149734  50.190  69.867  62.360
 7646DA     SC249735  50.192  70.078  62.493
 7646DA     SC349736  50.447  70.055  62.487
 7646DA     SC449737  50.347  69.836  62.344
 7647DT     BB149738  49.851  69.740  62.055
 7647DT     BB249739  49.723  70.044  62.202
 7647DT     BB349740  49.789  70.207  62.093
 7647DT     SC149741  50.031  70.186  62.193
 7647DT     SC249742  50.068  70.352  62.326
 7647DT     SC349743  50.292  70.150  62.206
 7648DG     BB149744  49.381  70.213  62.108
 7648DG     BB249745  49.524  70.528  62.215
 7648DG     BB349746  49.588  70.631  62.057
 7648DG     SC149747  49.869  70.510  62.061
 7648DG     SC249748  50.122  70.657  62.121
 7648DG     SC349749  50.179  70.384  62.023
 7648DG     SC449750  49.896  70.375  61.980
 7649DG     BB149751  49.388  70.870  62.157
 7649DG     BB249752  49.687  71.070  62.192
 7649DG     BB349753  49.743  71.140  62.015
 7649DG     SC149754  49.920  70.900  61.948
 7649DG     SC249755  50.218  70.904  61.922
 7649DG     SC349756  50.107  70.643  61.835
 7649DG     SC449757  49.855  70.773  61.875
 7650DT     BB149758  49.747  71.353  61.980
 7650DT     BB249759  50.102  71.420  61.979
 7650DT     BB349760  50.170  71.439  61.785
 7650DT     SC149761  50.156  71.179  61.747
 7650DT     SC249762  50.354  71.099  61.731
 7650DT     SC349763  50.080  70.947  61.648
 7651DT     BB149764  50.198  71.710  61.811
 7651DT     BB249765  50.525  71.595  61.709
 7651DT     BB349766  50.536  71.587  61.503
 7651DT     SC149767  50.389  71.370  61.496
 7651DT     SC249768  50.511  71.203  61.435
 7651DT     SC349769  50.187  71.208  61.444
 7652DT     BB149770  50.697  71.813  61.482
 7652DT     BB249771  50.885  71.556  61.313
 7652DT     BB349772  50.834  71.551  61.113
 7652DT     SC149773  50.605  71.435  61.166
 7652DT     SC249774  50.609  71.233  61.094
 7652DT     SC349775  50.345  71.397  61.184
 7653DA     BB149776  51.252  71.586  61.116
 7653DA     BB249777  51.167  71.312  60.888
 7653DA     BB349778  51.091  71.389  60.704
 7653DA     SC149779  50.794  71.388  60.797
 7653DA     SC249780  50.585  71.262  60.746
 7653DA     SC349781  50.463  71.463  60.850
 7653DA     SC449782  50.737  71.523  60.864
 7654DG     BB149783  51.334  71.244  60.570
 7654DG     BB249784  51.074  71.048  60.412
 7654DG     BB349785  51.006  71.143  60.251
 7654DG     SC149786  50.788  71.296  60.402
 7654DG     SC249787  50.494  71.259  60.370
 7654DG     SC349788  50.553  71.494  60.540
 7654DG     SC449789  50.824  71.438  60.467
 7655DA     BB149790  51.065  70.852  60.068
 7655DA     BB249791  50.710  70.834  59.978
 7655DA     BB349792  50.665  70.973  59.823
 7655DA     SC149793  50.591  71.204  60.018
 7655DA     SC249794  50.386  71.327  60.089
 7655DA     SC349795  50.548  71.509  60.169
 7655DA     SC449796  50.708  71.306  60.060
 7656DA     BB149797  50.546  70.708  59.665
 7656DA     BB249798  50.219  70.875  59.664
 7656DA     BB349799  50.213  71.026  59.514
 7656DA     SC149800  50.315  71.252  59.702
 7656DA     SC249801  50.224  71.458  59.809
 7656DA     SC349802  50.469  71.529  59.833
 7656DA     SC449803  50.473  71.279  59.706
 7657DT     BB149804  50.086  71.013  59.334
 7657DT     BB249805  49.841  71.256  59.440
 7657DT     BB349806  49.860  71.429  59.327
 7657DT     SC149807  50.077  71.499  59.457
 7657DT     SC249808  50.035  71.671  59.579
 7657DT     SC349809  50.330  71.559  59.504
 7658DA     BB149810  49.455  71.327  59.281
 7658DA     BB249811  49.468  71.680  59.378
 7658DA     BB349812  49.524  71.801  59.212
 7658DA     SC149813  49.829  71.786  59.274
 7658DA     SC249814  50.009  71.939  59.353
 7658DA     SC349815  50.171  71.768  59.251
 7658DA     SC449816  49.913  71.669  59.203
 7659DT     BB149817  49.389  71.944  59.119
 7659DT     BB249818  49.540  72.238  59.265
 7659DT     BB349819  49.639  72.346  59.118
 7659DT     SC149820  49.835  72.172  59.111
 7659DT     SC249821  50.013  72.262  59.193
 7659DT     SC349822  50.000  71.989  59.018
 7660DA     BB149823  49.383  72.603  59.325
 7660DA     BB249824  49.717  72.754  59.321
 7660DA     BB349825  49.761  72.831  59.127
 7660DA     SC149826  49.892  72.568  59.025
 7660DA     SC249827  50.120  72.487  58.964
 7660DA     SC349828  49.997  72.303  58.834
 7660DA     SC449829  49.797  72.463  58.949
 7661DT     BB149830  49.781  73.016  59.131
 7661DT     BB249831  50.141  73.018  59.102
 7661DT     BB349832  50.196  73.062  58.907
 7661DT     SC149833  50.128  72.822  58.825
 7661DT     SC249834  50.306  72.713  58.772
 7661DT     SC349835  50.001  72.631  58.696
 7662DT     BB149836  50.278  73.267  59.039
 7662DT     BB249837  50.569  73.124  58.879
 7662DT     BB349838  50.569  73.172  58.678
 7662DT     SC149839  50.379  72.998  58.628
 7662DT     SC249840  50.461  72.835  58.514
 7662DT     SC349841  50.146  72.899  58.556
 7663DT     BB149842  50.772  73.311  58.757
 7663DT     BB249843  50.897  73.094  58.498
 7663DT     BB349844  50.844  73.168  58.312
 7663DT     SC149845  50.595  73.092  58.343
 7663DT     SC249846  50.553  72.929  58.208
 7663DT     SC349847  50.333  73.104  58.370
 7664DT     BB149848  51.101  73.219  58.288
 7664DT     BB249849  51.018  73.013  58.004
 7664DT     BB349850  50.933  73.128  57.855
 7664DT     SC149851  50.707  73.145  57.988
 7664DT     SC249852  50.555  73.032  57.885
 7664DT     SC349853  50.504  73.250  58.119
 7665DA     BB149854  51.246  72.907  57.683
 7665DA     BB249855  50.949  72.870  57.470
 7665DA     BB349856  50.910  73.052  57.366
 7665DA     SC149857  50.723  73.167  57.586
 7665DA     SC249858  50.480  73.217  57.615
 7665DA     SC349859  50.555  73.372  57.805
 7665DA     SC449860  50.790  73.260  57.700
 7666DT     BB149861  50.930  73.050  57.169
 7666DT     BB249862  50.578  73.056  57.091
 7666DT     BB349863  50.522  73.246  57.030
 7666DT     SC149864  50.533  73.337  57.276
 7666DT     SC249865  50.334  73.381  57.345
 7666DT     SC349866  50.609  73.477  57.486
 7667DC     BB149867  50.496  73.149  56.782
 7667DC     BB249868  50.173  73.287  56.863
 7667DC     BB349869  50.170  73.490  56.822
 7667DC     SC149870  50.315  73.543  57.035
 7667DC     SC249871  50.195  73.646  57.180
 7667DC     SC349872  50.518  73.623  57.183
 7668DA     BB149873  49.837  73.297  56.655
 7668DA     BB249874  49.721  73.593  56.838
 7668DA     BB349875  49.781  73.771  56.737
 7668DA     SC149876  50.050  73.796  56.890
 7668DA     SC249877  50.152  73.947  57.061
 7668DA     SC349878  50.377  73.856  56.978
 7668DA     SC449879  50.180  73.729  56.824
 7669DT     BB149880  49.635  73.857  56.684
 7669DT     BB249881  49.653  74.129  56.921
 7669DT     BB349882  49.747  74.292  56.835
 7669DT     SC149883  49.982  74.176  56.854
 7669DT     SC249884  50.100  74.280  57.002
 7669DT     SC349885  50.211  74.067  56.784
 7670DT     BB149886  49.508  74.399  56.843
 7670DT     BB249887  49.722  74.631  57.018
 7670DT     BB349888  49.824  74.749  56.882
 7670DT     SC149889  49.985  74.552  56.819
 7670DT     SC249890  50.182  74.594  56.893
 7670DT     SC349891  50.106  74.366  56.676
 7671DG     BB149892  49.616  75.007  57.123
 7671DG     BB249893  49.963  75.105  57.095
 7671DG     BB349894  49.995  75.193  56.919
 7671DG     SC149895  50.064  74.932  56.774
 7671DG     SC249896  50.331  74.859  56.663
 7671DG     SC349897  50.126  74.664  56.579
 7671DG     SC449898  49.946  74.847  56.707
 7672DA     BB149899  50.137  75.486  57.063
 7672DA     BB249900  50.450  75.435  56.880
 7672DA     BB349901  50.431  75.502  56.679
 7672DA     SC149902  50.335  75.226  56.570
 7672DA     SC249903  50.424  75.045  56.424
 7672DA     SC349904  50.179  74.975  56.396
 7672DA     SC449905  50.177  75.199  56.564
 7673DG     BB149906  50.658  75.734  56.703
 7673DG     BB249907  50.836  75.537  56.458
 7673DG     BB349908  50.786  75.596  56.275
 7673DG     SC149909  50.551  75.402  56.249
 7673DG     SC249910  50.535  75.170  56.062
 7673DG     SC349911  50.275  75.216  56.196
 7673DG     SC449912  50.407  75.448  56.300
 7674DC     BB149913  50.927  75.710  56.089
 7674DC     BB249914  50.978  75.430  55.868
 7674DC     BB349915  50.873  75.458  55.692
 7674DC     SC149916  50.645  75.404  55.810
 7674DC     SC249917  50.570  75.216  55.738
 7674DC     SC349918  50.401  75.436  55.905
 7675DT     BB149919  51.096  75.525  55.520
 7675DT     BB249920  50.944  75.242  55.356
 7675DT     BB349921  50.808  75.307  55.214
 7675DT     SC149922  50.634  75.372  55.400
 7675DT     SC249923  50.467  75.237  55.391
 7675DT     SC349924  50.475  75.519  55.550
 7676DA     BB149925  51.061  75.054  54.995
 7676DA     BB249926  50.717  74.946  54.930
 7676DA     BB349927  50.623  75.078  54.791
 7676DA     SC149928  50.509  75.267  55.010
 7676DA     SC249929  50.287  75.327  55.105
 7676DA     SC349930  50.402  75.540  55.189
 7676DA     SC449931  50.599  75.394  55.052
 7677DA     BB149932  50.568  74.801  54.625
 7677DA     BB249933  50.210  74.863  54.675
 7677DA     BB349934  50.140  75.009  54.536
 7677DA     SC149935  50.196  75.250  54.724
 7677DA     SC249936  50.064  75.417  54.855
 7677DA     SC349937  50.279  75.557  54.854
 7677DA     SC449938  50.339  75.323  54.712
 7678DA     BB149939  49.932  74.766  54.485
 7678DA     BB249940  49.670  74.995  54.600
 7678DA     BB349941  49.626  75.139  54.449
 7678DA     SC149942  49.835  75.346  54.550
 7678DA     SC249943  49.835  75.570  54.660
 7678DA     SC349944  50.075  75.591  54.572
 7678DA     SC449945  49.982  75.341  54.485
 7679DG     BB149946  49.357  75.002  54.495
 7679DG     BB249947  49.268  75.331  54.615
 7679DG     BB349948  49.232  75.452  54.461
 7679DG     SC149949  49.522  75.548  54.437
 7679DG     SC249950  49.620  75.824  54.492
 7679DG     SC349951  49.833  75.658  54.370
 7679DG     SC449952  49.624  75.465  54.345
 7680DC     BB149953  49.051  75.521  54.472
 7680DC     BB249954  49.106  75.864  54.571
 7680DC     BB349955  49.107  75.986  54.404
 7680DC     SC149956  49.346  75.903  54.334
 7680DC     SC249957  49.487  76.063  54.361
 7680DC     SC349958  49.538  75.790  54.193
 7681DA     BB149959  48.873  76.125  54.726
 7681DA     BB249960  49.079  76.401  54.600
 7681DA     BB349961  49.015  76.458  54.405
 7681DA     SC149962  49.209  76.263  54.259
 7681DA     SC249963  49.414  76.278  54.118
 7681DA     SC349964  49.354  76.041  54.040
 7681DA     SC449965  49.154  76.117  54.222
 7682DA     BB149966  49.044  76.723  54.600
 7682DA     BB249967  49.274  76.846  54.342
 7682DA     BB349968  49.171  76.874  54.158
 7682DA     SC149969  49.226  76.586  54.054
 7682DA     SC249970  49.363  76.478  53.876
 7682DA     SC349971  49.204  76.278  53.904
 7682DA     SC449972  49.116  76.474  54.085
 7683DC     BB149973  49.169  77.049  54.112
 7683DC     BB249974  49.397  77.029  53.832
 7683DC     BB349975  49.290  77.013  53.656
 7683DC     SC149976  49.231  76.762  53.706
 7683DC     SC249977  49.337  76.635  53.568
 7683DC     SC349978  49.088  76.546  53.757
 7684DA     BB149979  49.561  77.330  53.603
 7684DA     BB249980  49.582  77.114  53.308
 7684DA     BB349981  49.407  77.135  53.188
 7684DA     SC149982  49.252  76.906  53.330
 7684DA     SC249983  49.172  76.676  53.276
 7684DA     SC349984  49.010  76.709  53.472
 7684DA     SC449985  49.158  76.946  53.454
 7685DT     BB149986  49.420  77.220  53.001
 7685DT     BB249987  49.377  76.916  52.812
 7685DT     BB349988  49.187  76.909  52.732
 7685DT     SC149989  49.082  76.851  52.965
 7685DT     SC249990  49.011  76.648  52.964
 7685DT     SC349991  48.938  76.874  53.185
 7686DA     BB149992  49.450  76.845  52.411
 7686DA     BB249993  49.194  76.582  52.401
 7686DA     BB349994  49.008  76.661  52.333
 7686DA     SC149995  48.907  76.733  52.618
 7686DA     SC249996  48.731  76.653  52.777
 7686DA     SC349997  48.758  76.883  52.889
 7686DA     SC449998  48.937  76.881  52.673
 7687DT     BB149999  48.942  76.595  52.161
 7687DT     BB250000  48.681  76.384  52.294
 7687DT     BB350001  48.497  76.476  52.271
 7687DT     SC150002  48.548  76.644  52.466
 7687DT     SC250003  48.421  76.598  52.634
 7687DT     SC350004  48.592  76.871  52.594
 7688DT     BB150005  48.445  76.292  52.087
 7688DT     BB250006  48.181  76.259  52.330
 7688DT     BB350007  48.032  76.397  52.292
 7688DT     SC150008  48.179  76.593  52.387
 7688DT     SC250009  48.094  76.663  52.572
 7688DT     SC350010  48.318  76.817  52.395
 7689DA     BB150011  47.858  76.016  52.334
 7689DA     BB250012  47.669  76.252  52.541
 7689DA     BB350013  47.556  76.385  52.419
 7689DA     SC150014  47.780  76.599  52.401
 7689DA     SC250015  47.823  76.830  52.485
 7689DA     SC350016  47.996  76.846  52.296
 7689DA     SC450017  47.882  76.590  52.277
 7690DT     BB150018  47.356  76.373  52.426
 7690DT     BB250019  47.298  76.678  52.610
 7690DT     BB350020  47.231  76.826  52.482
 7690DT     SC150021  47.472  76.859  52.382
 7690DT     SC250022  47.550  77.049  52.444
 7690DT     SC350023  47.669  76.863  52.207
 7691DC     BB150024  46.971  76.814  52.576
 7691DC     BB250025  47.064  77.160  52.619
 7691DC     BB350026  47.021  77.266  52.447
 7691DC     SC150027  47.227  77.162  52.322
 7691DC     SC250028  47.376  77.314  52.291
 7691DC     SC350029  47.367  77.025  52.146
 7692DA     BB150030  46.823  77.483  52.747
 7692DA     BB250031  47.022  77.722  52.553
 7692DA     BB350032  46.928  77.762  52.366
 7692DA     SC150033  47.077  77.533  52.215
 7692DA     SC250034  47.254  77.512  52.040
 7692DA     SC350035  47.162  77.275  52.006
 7692DA     SC450036  47.005  77.390  52.208
 7693DA     BB150037  46.949  78.076  52.461
 7693DA     BB250038  47.167  78.131  52.172
 7693DA     BB350039  47.051  78.146  51.993
 7693DA     SC150040  47.065  77.842  51.930
 7693DA     SC250041  47.172  77.693  51.761
 7693DA     SC350042  46.995  77.521  51.831
 7693DA     SC450043  46.946  77.749  51.986
 7694DT     BB150044  47.051  78.321  51.900
 7694DT     BB250045  47.267  78.224  51.628
 7694DT     BB350046  47.156  78.195  51.456
 7694DT     SC150047  47.063  77.967  51.546
 7694DT     SC250048  47.146  77.805  51.431
 7694DT     SC350049  46.892  77.785  51.631
 7695DA     BB150050  47.476  78.452  51.368
 7695DA     BB250051  47.468  78.188  51.114
 7695DA     BB350052  47.302  78.216  50.983
 7695DA     SC150053  47.107  78.042  51.152
 7695DA     SC250054  46.992  77.822  51.132
 7695DA     SC350055  46.832  77.913  51.311
 7695DA     SC450056  47.018  78.117  51.262
 7696DA     BB150057  47.548  78.194  50.765
 7696DA     BB250058  47.372  77.903  50.628
 7696DA     BB350059  47.198  77.965  50.520
 7696DA     SC150060  47.009  77.949  50.766
 7696DA     SC250061  46.820  77.806  50.844
 7696DA     SC350062  46.762  78.003  50.998
 7696DA     SC450063  46.988  78.082  50.853
 7697DG     BB150064  47.335  77.829  50.273
 7697DG     BB250065  47.047  77.610  50.290
 7697DG     BB350066  46.892  77.695  50.199
 7697DG     SC150067  46.790  77.837  50.450
 7697DG     SC250068  46.534  77.778  50.593
 7697DG     SC350069  46.662  78.023  50.700
 7697DG     SC450070  46.845  77.983  50.484
 7698DT     BB150071  46.786  77.612  50.005
 7698DT     BB250072  46.483  77.477  50.147
 7698DT     BB350073  46.322  77.599  50.100
 7698DT     SC150074  46.398  77.780  50.275
 7698DT     SC250075  46.258  77.784  50.438
 7698DT     SC350076  46.482  78.010  50.373
 7699DT     BB150077  46.212  77.424  49.909
 7699DT     BB250078  45.946  77.473  50.148
 7699DT     BB350079  45.829  77.633  50.091
 7699DT     SC150080  46.012  77.805  50.167
 7699DT     SC250081  45.943  77.911  50.341
 7699DT     SC350082  46.194  77.995  50.154
 7700DT     BB150083  45.621  77.469  50.017
 7700DT     BB250084  45.482  77.683  50.272
 7700DT     BB350085  45.406  77.855  50.186
 7700DT     SC150086  45.647  77.952  50.148
 7700DT     SC250087  45.678  78.120  50.279
 7700DT     SC350088  45.862  78.041  50.023
 7701DG     BB150089  45.115  77.668  50.397
 7701DG     BB250090  45.159  78.011  50.504
 7701DG     BB350091  45.073  78.134  50.373
 7701DG     SC150092  45.323  78.163  50.199
 7701DG     SC250093  45.483  78.413  50.162
 7701DG     SC350094  45.571  78.203  49.974
 7701DG     SC450095  45.347  78.059  50.080
 7702DT     BB150096  44.939  78.241  50.463
 7702DT     BB250097  45.100  78.563  50.481
 7702DT     BB350098  45.040  78.681  50.322
 7702DT     SC150099  45.191  78.546  50.155
 7702DT     SC250100  45.355  78.669  50.090
 7702DT     SC350101  45.261  78.391  49.954
 7703DG     BB150102  44.990  78.854  50.689
 7703DG     BB250103  45.172  79.067  50.460
 7703DG     BB350104  45.048  79.138  50.321
 7703DG     SC150105  45.092  78.905  50.128
 7703DG     SC250106  45.226  78.921  49.861
 7703DG     SC350107  45.102  78.655  49.901
 7703DG     SC450108  44.999  78.775  50.140
 7704DT     BB150109  45.031  79.341  50.316
 7704DT     BB250110  45.206  79.429  50.013
 7704DT     BB350111  45.071  79.454  49.858
 7704DT     SC150112  45.037  79.194  49.837
 7704DT     SC250113  45.123  79.126  49.652
 7704DT     SC350114  44.918  78.959  49.840
 7705DT     BB150115  45.109  79.722  49.867
 7705DT     BB250116  45.178  79.633  49.525
 7705DT     BB350117  45.003  79.629  49.416
 7705DT     SC150118  44.930  79.402  49.525
 7705DT     SC250119  44.938  79.246  49.378
 7705DT     SC350120  44.791  79.228  49.666
 7706DT     BB150121  45.055  79.869  49.281
 7706DT     BB250122  44.998  79.631  49.016
 7706DT     BB350123  44.797  79.625  48.967
 7706DT     SC150124  44.740  79.490  49.185
 7706DT     SC250125  44.682  79.290  49.132
 7706DT     SC350126  44.636  79.431  49.420
 7707DT     BB150127  44.822  79.766  48.724
 7707DT     BB250128  44.666  79.455  48.629
 7707DT     BB350129  44.460  79.474  48.636
 7707DT     SC150130  44.460  79.466  48.898
 7707DT     SC250131  44.371  79.282  48.964
 7707DT     SC350132  44.427  79.542  49.149
 7708DA     BB150133  44.549  79.327  48.254
 7708DA     BB250134  44.293  79.110  48.401
 7708DA     BB350135  44.103  79.207  48.398
 7708DA     SC150136  44.137  79.336  48.679
 7708DA     SC250137  44.039  79.311  48.907
 7708DA     SC350138  44.129  79.547  48.950
 7708DA     SC450139  44.200  79.484  48.686
 7709DC     BB150140  43.974  79.121  48.287
 7709DC     BB250141  43.784  78.972  48.556
 7709DC     BB350142  43.611  79.080  48.588
 7709DC     SC150143  43.743  79.274  48.705
 7709DC     SC250144  43.696  79.277  48.915
 7709DC     SC350145  43.844  79.514  48.751
 7710DA     BB150146  43.561  78.663  48.567
 7710DA     BB250147  43.389  78.789  48.865
 7710DA     BB350148  43.221  78.907  48.810
 7710DA     SC150149  43.380  79.174  48.804
 7710DA     SC250150  43.393  79.385  48.937
 7710DA     SC350151  43.501  79.487  48.728
 7710DA     SC450152  43.444  79.220  48.664
 7711DC     BB150153  43.099  78.820  48.878
 7711DC     BB250154  43.015  79.051  49.142
 7711DC     BB350155  42.873  79.186  49.075
 7711DC     SC150156  43.050  79.316  48.933
 7711DC     SC250157  43.085  79.509  49.021
 7711DC     SC350158  43.175  79.417  48.723
 7712DT     BB150159  42.733  79.052  49.247
 7712DT     BB250160  42.703  79.398  49.345
 7712DT     BB350161  42.568  79.495  49.221
 7712DT     SC150162  42.740  79.501  49.024
 7712DT     SC250163  42.803  79.704  48.990
 7712DT     SC350164  42.849  79.455  48.788
 7713DG     BB150165  42.439  79.540  49.606
 7713DG     BB250166  42.442  79.856  49.430
 7713DG     BB350167  42.287  79.866  49.306
 7713DG     SC150168  42.437  79.741  49.070
 7713DG     SC250169  42.510  79.879  48.815
 7713DG     SC350170  42.563  79.589  48.797
 7713DG     SC450171  42.436  79.582  49.053
 7714DA     BB150172  42.185  80.175  49.443
 7714DA     BB250173  42.210  80.337  49.115
 7714DA     BB350174  42.041  80.288  48.996
 7714DA     SC150175  42.172  80.037  48.868
 7714DA     SC250176  42.258  79.967  48.645
 7714DA     SC350177  42.231  79.727  48.732
 7714DA     SC450178  42.147  79.895  48.940
 7715DA     BB150179  41.986  80.617  48.959
 7715DA     BB250180  42.031  80.571  48.598
 7715DA     BB350181  41.853  80.493  48.510
 7715DA     SC150182  41.938  80.195  48.546
 7715DA     SC250183  42.007  80.004  48.401
 7715DA     SC350184  41.942  79.856  48.600
 7715DA     SC450185  41.891  80.120  48.680
 7716DA     BB150186  41.855  80.754  48.302
 7716DA     BB250187  41.891  80.516  48.025
 7716DA     BB350188  41.701  80.432  47.975
 7716DA     SC150189  41.730  80.191  48.169
 7716DA     SC250190  41.763  79.944  48.153
 7716DA     SC350191  41.673  79.937  48.394
 7716DA     SC450192  41.671  80.207  48.318
 7717DA     BB150193  41.766  80.539  47.669
 7717DA     BB250194  41.758  80.189  47.561
 7717DA     BB350195  41.557  80.122  47.540
 7717DA     SC150196  41.535  80.020  47.833
 7717DA     SC250197  41.520  79.801  47.951
 7717DA     SC350198  41.426  79.937  48.148
 7717DA     SC450199  41.478  80.121  47.943
 7718DC     BB150200  41.483  80.073  47.353
 7718DC     BB250201  41.488  79.715  47.398
 7718DC     BB350202  41.296  79.644  47.423
 7718DC     SC150203  41.285  79.737  47.668
 7718DC     SC250204  41.285  79.573  47.807
 7718DC     SC350205  41.209  79.881  47.876
 7719DC     BB150206  41.298  79.532  47.174
 7719DC     BB250207  41.227  79.256  47.395
 7719DC     BB350208  41.022  79.242  47.426
 7719DC     SC150209  41.025  79.451  47.586
 7719DC     SC250210  40.986  79.387  47.788
 7719DC     SC350211  40.975  79.692  47.679
 7720DT     BB150212  41.008  79.017  47.271
 7720DT     BB250213  40.872  78.915  47.589
 7720DT     BB350214  40.669  78.955  47.595
 7720DT     SC150215  40.712  79.212  47.625
 7720DT     SC250216  40.654  79.271  47.824
 7720DT     SC350217  40.713  79.471  47.576
 7721DT     BB150218  40.603  78.687  47.572
 7721DT     BB250219  40.440  78.792  47.876
 7721DT     BB350220  40.251  78.864  47.833
 7721DT     SC150221  40.349  79.087  47.735
 7721DT     SC250222  40.301  79.250  47.867
 7721DT     SC350223  40.409  79.277  47.563
 7722DC     BB150224  40.140  78.643  47.944
 7722DC     BB250225  40.000  78.918  48.130
 7722DC     BB350226  39.831  78.990  48.033
 7722DC     SC150227  39.978  79.107  47.849
 7722DC     SC250228  39.965  79.321  47.873
 7722DC     SC350229  40.081  79.165  47.613
 7723DG     BB150230  39.720  78.882  48.409
 7723DG     BB250231  39.626  79.223  48.335
 7723DG     BB350232  39.463  79.225  48.220
 7723DG     SC150233  39.620  79.219  47.957
 7723DG     SC250234  39.632  79.439  47.756
 7723DG     SC350235  39.758  79.193  47.651
 7723DG     SC450236  39.660  79.077  47.894
 7724DC     BB150237  39.288  79.318  48.296
 7724DC     BB250238  39.283  79.626  48.107
 7724DC     BB350239  39.146  79.612  47.953
 7724DC     SC150240  39.305  79.456  47.815
 7724DC     SC250241  39.377  79.563  47.642
 7724DC     SC350242  39.397  79.243  47.689
 7725DG     BB150243  39.063  79.934  48.188
 7725DG     BB250244  39.090  80.025  47.839
 7725DG     BB350245  38.927  79.967  47.741
 7725DG     SC150246  39.037  79.690  47.670
 7725DG     SC250247  39.104  79.594  47.396
 7725DG     SC350248  39.119  79.373  47.592
 7725DG     SC450249  39.016  79.569  47.773
 7726DC     BB150250  38.819  80.117  47.653
 7726DC     BB250251  38.894  80.069  47.304
 7726DC     BB350252  38.740  79.964  47.212
 7726DC     SC150253  38.818  79.740  47.324
 7726DC     SC250254  38.898  79.609  47.173
 7726DC     SC350255  38.813  79.522  47.473
 7727DA     BB150256  38.833  80.309  46.989
 7727DA     BB250257  38.816  80.023  46.760
 7727DA     BB350258  38.614  79.957  46.739
 7727DA     SC150259  38.632  79.752  46.974
 7727DA     SC250260  38.634  79.505  47.003
 7727DA     SC350261  38.565  79.553  47.245
 7727DA     SC450262  38.588  79.803  47.120
 7728DC     BB150263  38.534  79.979  46.563
 7728DC     BB250264  38.534  79.631  46.468
 7728DC     BB350265  38.344  79.551  46.490
 7728DC     SC150266  38.370  79.544  46.751
 7728DC     SC250267  38.383  79.339  46.816
 7728DC     SC350268  38.327  79.595  47.006
 7729DA     BB150269  38.465  79.460  46.098
 7729DA     BB250270  38.333  79.153  46.250
 7729DA     BB350271  38.121  79.163  46.267
 7729DA     SC150272  38.125  79.288  46.552
 7729DA     SC250273  38.068  79.220  46.784
 7729DA     SC350274  38.058  79.471  46.834
 7729DA     SC450275  38.123  79.449  46.562
 7730DT     BB150276  37.994  79.038  46.153
 7730DT     BB250277  37.896  78.820  46.424
 7730DT     BB350278  37.701  78.861  46.480
 7730DT     SC150279  37.772  79.082  46.601
 7730DT     SC250280  37.750  79.058  46.813
 7730DT     SC350281  37.791  79.339  46.657
 7731DG     BB150282  37.690  78.466  46.370
 7731DG     BB250283  37.552  78.513  46.701
 7731DG     BB350284  37.364  78.577  46.687
 7731DG     SC150285  37.440  78.874  46.685
 7731DG     SC250286  37.377  79.072  46.900
 7731DG     SC350287  37.488  79.206  46.661
 7731DG     SC450288  37.471  78.945  46.546
 7732DA     BB150289  37.266  78.316  46.896
 7732DA     BB250290  37.142  78.556  47.144
 7732DA     BB350291  36.952  78.633  47.084
 7732DA     SC150292  37.071  78.874  46.927
 7732DA     SC250293  37.082  79.122  46.949
 7732DA     SC350294  37.131  79.122  46.698
 7732DA     SC450295  37.099  78.853  46.770
 7733DT     BB150296  36.781  78.589  47.196
 7733DT     BB250297  36.747  78.913  47.350
 7733DT     BB350298  36.588  79.016  47.265
 7733DT     SC150299  36.726  79.064  47.047
 7733DT     SC250300  36.771  79.275  47.036
 7733DT     SC350301  36.798  79.062  46.793
 7734DT     BB150302  36.433  78.982  47.490
 7734DT     BB250303  36.444  79.339  47.442
 7734DT     BB350304  36.291  79.399  47.317
 7734DT     SC150305  36.415  79.304  47.106
 7734DT     SC250306  36.481  79.467  46.983
 7734DT     SC350307  36.467  79.156  46.894
 7735DA     BB150308  36.254  79.638  47.659
 7735DA     BB250309  36.247  79.860  47.368
 7735DA     BB350310  36.058  79.847  47.269
 7735DA     SC150311  36.148  79.618  47.078
 7735DA     SC250312  36.195  79.588  46.835
 7735DA     SC350313  36.160  79.338  46.879
 7735DA     SC450314  36.121  79.467  47.125
 7736DT     BB150315  35.925  80.011  47.264
 7736DT     BB250316  35.988  80.102  46.921
 7736DT     BB350317  35.825  80.053  46.804
 7736DT     SC150318  35.886  79.798  46.812
 7736DT     SC250319  35.953  79.734  46.618
 7736DT     SC350320  35.868  79.539  46.864
 7737DA     BB150321  35.913  80.455  46.731
 7737DA     BB250322  35.891  80.283  46.407
 7737DA     BB350323  35.687  80.242  46.359
 7737DA     SC150324  35.686  79.962  46.494
 7737DA     SC250325  35.676  79.723  46.424
 7737DA     SC350326  35.600  79.676  46.664
 7737DA     SC450327  35.640  79.953  46.648
 7738DC     BB150328  35.627  80.334  46.205
 7738DC     BB250329  35.636  80.049  45.984
 7738DC     BB350330  35.445  79.976  45.954
 7738DC     SC150331  35.440  79.869  46.193
 7738DC     SC250332  35.444  79.655  46.176
 7738DC     SC350333  35.368  79.822  46.443
 7739DT     BB150334  35.504  80.066  45.720
 7739DT     BB250335  35.438  79.714  45.680
 7739DT     BB350336  35.234  79.679  45.679
 7739DT     SC150337  35.219  79.715  45.938
 7739DT     SC250338  35.176  79.528  46.034
 7739DT     SC350339  35.152  79.821  46.170
 7740DA     BB150340  35.485  79.482  45.396
 7740DA     BB250341  35.253  79.241  45.546
 7740DA     BB350342  35.052  79.290  45.496
 7740DA     SC150343  35.008  79.470  45.746
 7740DA     SC250344  34.876  79.462  45.958
 7740DA     SC350345  34.910  79.717  45.964
 7740DA     SC450346  35.038  79.627  45.731
 7741DC     BB150347  35.032  79.152  45.429
 7741DC     BB250348  34.788  79.020  45.659
 7741DC     BB350349  34.601  79.098  45.616
 7741DC     SC150350  34.666  79.330  45.721
 7741DC     SC250351  34.555  79.360  45.903
 7741DC     SC350352  34.717  79.588  45.740
 7742DT     BB150353  34.574  78.851  45.555
 7742DT     BB250354  34.302  78.930  45.780
 7742DT     BB350355  34.159  79.042  45.681
 7742DT     SC150356  34.311  79.256  45.689
 7742DT     SC250357  34.224  79.400  45.824
 7742DT     SC350358  34.458  79.459  45.607
 7743DT     BB150359  33.994  78.828  45.673
 7743DT     BB250360  33.791  79.091  45.815
 7743DT     BB350361  33.707  79.204  45.665
 7743DT     SC150362  33.936  79.323  45.614
 7743DT     SC250363  33.924  79.529  45.675
 7743DT     SC350364  34.153  79.399  45.485
 7744DT     BB150365  33.444  79.099  45.683
 7744DT     BB250366  33.392  79.455  45.711
 7744DT     BB350367  33.361  79.536  45.523
 7744DT     SC150368  33.616  79.515  45.463
 7744DT     SC250369  33.703  79.711  45.452
 7744DT     SC350370  33.836  79.437  45.340
 7745DG     BB150371  33.006  79.633  45.707
 7745DG     BB250372  33.158  79.927  45.562
 7745DG     BB350373  33.116  79.936  45.368
 7745DG     SC150374  33.361  79.775  45.280
 7745DG     SC250375  33.592  79.879  45.123
 7745DG     SC350376  33.608  79.585  45.151
 7745DG     SC450377  33.350  79.616  45.272
 7746DT     BB150378  32.989  80.106  45.264
 7746DT     BB250379  33.252  80.295  45.104
 7746DT     BB350380  33.247  80.265  44.900
 7746DT     SC150381  33.349  80.024  44.925
 7746DT     SC250382  33.549  80.024  44.846
 7746DT     SC350383  33.371  79.762  44.916
 7747DC     BB150384  33.156  80.517  44.868
 7747DC     BB250385  33.459  80.504  44.674
 7747DC     BB350386  33.419  80.432  44.484
 7747DC     SC150387  33.392  80.187  44.574
 7747DC     SC250388  33.556  80.067  44.505
 7747DC     SC350389  33.281  79.955  44.634
 7748DT     BB150390  33.468  80.679  44.402
 7748DT     BB250391  33.700  80.471  44.220
 7748DT     BB350392  33.607  80.389  44.054
 7748DT     SC150393  33.474  80.219  44.203
 7748DT     SC250394  33.548  80.020  44.167
 7748DT     SC350395  33.271  80.095  44.318
 7749DT     BB150396  33.756  80.553  43.905
 7749DT     BB250397  33.828  80.222  43.779
 7749DT     BB350398  33.684  80.166  43.641
 7749DT     SC150399  33.508  80.123  43.831
 7749DT     SC250400  33.470  79.912  43.847
 7749DT     SC350401  33.290  80.148  43.978
 7750DA     BB150402  34.053  80.109  43.448
 7750DA     BB250403  33.852  79.806  43.397
 7750DA     BB350404  33.697  79.844  43.256
 7750DA     SC150405  33.490  79.930  43.471
 7750DA     SC250406  33.279  79.842  43.571
 7750DA     SC350407  33.235  80.084  43.644
 7750DA     SC450408  33.480  80.087  43.507
 7751DG     BB150409  33.816  79.625  43.054
 7751DG     BB250410  33.504  79.453  43.119
 7751DG     BB350411  33.364  79.517  42.993
 7751DG     SC150412  33.269  79.743  43.177
 7751DG     SC250413  33.002  79.760  43.310
 7751DG     SC350414  33.153  80.012  43.343
 7751DG     SC450415  33.340  79.886  43.166
 7752DT     BB150416  33.248  79.389  42.819
 7752DT     BB250417  32.930  79.337  42.981
 7752DT     BB350418  32.784  79.452  42.888
 7752DT     SC150419  32.875  79.671  42.999
 7752DT     SC250420  32.733  79.742  43.145
 7752DT     SC350421  32.982  79.912  43.024
 7753DT     BB150422  32.665  79.233  42.768
 7753DT     BB250423  32.402  79.380  42.964
 7753DT     BB350424  32.300  79.522  42.852
 7753DT     SC150425  32.498  79.693  42.874
 7753DT     SC250426  32.437  79.856  43.000
 7753DT     SC350427  32.697  79.852  42.807
 7754DA     BB150428  32.026  79.257  43.025
 7754DA     BB250429  31.916  79.599  43.097
 7754DA     BB350430  31.840  79.692  42.920
 7754DA     SC150431  32.114  79.810  42.835
 7754DA     SC250432  32.221  80.035  42.818
 7754DA     SC350433  32.386  79.923  42.657
 7754DA     SC450434  32.206  79.723  42.736
 7755DT     BB150435  31.662  79.730  42.939
 7755DT     BB250436  31.695  80.087  42.974
 7755DT     BB350437  31.658  80.180  42.793
 7755DT     SC150438  31.891  80.105  42.698
 7755DT     SC250439  32.018  80.277  42.677
 7755DT     SC350440  32.070  79.985  42.546
 7756DT     BB150441  31.435  80.266  42.906
 7756DT     BB250442  31.604  80.565  42.794
 7756DT     BB350443  31.565  80.597  42.593
 7756DT     SC150444  31.728  80.404  42.523
 7756DT     SC250445  31.902  80.487  42.428
 7756DT     SC350446  31.813  80.176  42.421
 7757DG     BB150447  31.436  80.934  42.786
 7757DG     BB250448  31.653  81.017  42.509
 7757DG     BB350449  31.553  81.002  42.338
 7757DG     SC150450  31.622  80.707  42.294
 7757DG     SC250451  31.795  80.598  42.077
 7757DG     SC350452  31.663  80.379  42.226
 7757DG     SC450453  31.527  80.595  42.357
 7758DA     BB150454  31.629  81.335  42.231
 7758DA     BB250455  31.799  81.207  41.931
 7758DA     BB350456  31.656  81.159  41.780
 7758DA     SC150457  31.621  80.864  41.872
 7758DA     SC250458  31.679  80.637  41.787
 7758DA     SC350459  31.497  80.553  41.948
 7758DA     SC450460  31.504  80.832  41.976
 7759DC     BB150461  31.610  81.269  41.561
 7759DC     BB250462  31.771  81.015  41.362
 7759DC     BB350463  31.630  80.917  41.246
 7759DC     SC150464  31.539  80.785  41.453
 7759DC     SC250465  31.592  80.577  41.434
 7759DC     SC350466  31.374  80.700  41.640
 7760DT     BB150467  31.686  81.033  40.980
 7760DT     BB250468  31.737  80.679  40.933
 7760DT     BB350469  31.564  80.593  40.858
 7760DT     SC150470  31.446  80.608  41.091
 7760DT     SC250471  31.422  80.410  41.172
 7760DT     SC350472  31.272  80.678  41.277
 7761DG     BB150473  31.858  80.518  40.588
 7761DG     BB250474  31.711  80.213  40.715
 7761DG     BB350475  31.542  80.174  40.618
 7761DG     SC150476  31.366  80.331  40.814
 7761DG     SC250477  31.161  80.215  40.997
 7761DG     SC350478  31.147  80.511  40.996
 7761DG     SC450479  31.342  80.487  40.788
 7762DT     BB150480  31.549  79.997  40.529
 7762DT     BB250481  31.352  79.798  40.756
 7762DT     BB350482  31.160  79.775  40.681
 7762DT     SC150483  31.097  80.022  40.743
 7762DT     SC250484  30.954  80.020  40.904
 7762DT     SC350485  31.026  80.274  40.715
 7763DA     BB150486  31.363  79.441  40.843
 7763DA     BB250487  31.025  79.458  40.984
 7763DA     BB350488  30.880  79.424  40.831
 7763DA     SC150489  30.851  79.725  40.757
 7763DA     SC250490  30.680  79.905  40.778
 7763DA     SC350491  30.810  80.022  40.590
 7763DA     SC450492  30.945  79.781  40.639
 7764DA     BB150493  30.830  79.250  41.107
 7764DA     BB250494  30.498  79.407  41.104
 7764DA     BB350495  30.389  79.347  40.931
 7764DA     SC150496  30.489  79.584  40.756
 7764DA     SC250497  30.395  79.792  40.655
 7764DA     SC350498  30.598  79.783  40.498
 7764DA     SC450499  30.621  79.561  40.668
 7765DA     BB150500  30.192  79.299  41.189
 7765DA     BB250501  29.953  79.514  41.013
 7765DA     BB350502  29.883  79.417  40.836
 7765DA     SC150503  30.105  79.535  40.654
 7765DA     SC250504  30.123  79.701  40.468
 7765DA     SC350505  30.345  79.585  40.413
 7765DA     SC450506  30.239  79.449  40.634
 7766DT     BB150507  29.694  79.365  40.833
 7766DT     BB250508  29.578  79.604  40.588
 7766DT     BB350509  29.555  79.511  40.404
 7766DT     SC150510  29.815  79.504  40.367
 7766DT     SC250511  29.868  79.640  40.208
 7766DT     SC350512  30.058  79.408  40.332
 7767DT     BB150513  29.276  79.505  40.417
 7767DT     BB250514  29.341  79.662  40.099
 7767DT     BB350515  29.355  79.518  39.951
 7767DT     SC150516  29.593  79.445  40.034
 7767DT     SC250517  29.741  79.504  39.888
 7767DT     SC350518  29.786  79.294  40.131
 7768DG     BB150519  29.032  79.731  39.807
 7768DG     BB250520  29.279  79.689  39.546
 7768DG     BB350521  29.256  79.511  39.459
 7768DG     SC150522  29.445  79.365  39.651
 7768DG     SC250523  29.708  79.244  39.580
 7768DG     SC350524  29.629  79.170  39.855
 7768DG     SC450525  29.385  79.304  39.786
 7769DT     BB150526  29.184  79.449  39.217
 7769DT     BB250527  29.502  79.350  39.079
 7769DT     BB350528  29.503  79.146  39.043
 7769DT     SC150529  29.527  79.093  39.299
 7769DT     SC250530  29.723  79.012  39.337
 7769DT     SC350531  29.470  79.001  39.539
 7770DG     BB150532  29.562  79.287  38.660
 7770DG     BB250533  29.819  79.047  38.747
 7770DG     BB350534  29.754  78.862  38.713
 7770DG     SC150535  29.635  78.826  38.993
 7770DG     SC250536  29.733  78.636  39.201
 7770DG     SC350537  29.477  78.760  39.283
 7770DG     SC450538  29.484  78.872  39.020
 7771DT     BB150539  29.843  78.703  38.550
 7771DT     BB250540  30.026  78.484  38.771
 7771DT     BB350541  29.932  78.300  38.782
 7771DT     SC150542  29.742  78.397  38.935
 7771DT     SC250543  29.762  78.317  39.133
 7771DT     SC350544  29.502  78.472  39.016
 7772DA     BB150545  30.337  78.242  38.693
 7772DA     BB250546  30.251  78.029  38.979
 7772DA     BB350547  30.130  77.865  38.915
 7772DA     SC150548  29.860  78.014  38.960
 7772DA     SC250549  29.667  78.002  39.116
 7772DA     SC350550  29.539  78.132  38.936
 7772DA     SC450551  29.798  78.094  38.835
 7773DA     BB150552  30.373  77.728  39.081
 7773DA     BB250553  30.113  77.603  39.307
 7773DA     BB350554  30.000  77.448  39.213
 7773DA     SC150555  29.787  77.642  39.095
 7773DA     SC250556  29.546  77.696  39.131
 7773DA     SC350557  29.555  77.797  38.896
 7773DA     SC450558  29.812  77.699  38.947
 7774DT     BB150559  30.025  77.297  39.304
 7774DT     BB250560  29.700  77.285  39.460
 7774DT     BB350561  29.574  77.161  39.351
 7774DT     SC150562  29.546  77.341  39.163
 7774DT     SC250563  29.345  77.418  39.167
 7774DT     SC350564  29.558  77.456  38.926
 7775DG     BB150565  29.600  77.067  39.748
 7775DG     BB250566  29.258  77.102  39.637
 7775DG     BB350567  29.208  76.947  39.522
 7775DG     SC150568  29.298  77.079  39.262
 7775DG     SC250569  29.120  77.163  39.037
 7775DG     SC350570  29.405  77.185  38.960
 7775DG     SC450571  29.450  77.061  39.214
 7776DA     BB150572  28.939  76.954  39.741
 7776DA     BB250573  28.714  76.979  39.452
 7776DA     BB350574  28.714  76.796  39.342
 7776DA     SC150575  28.946  76.881  39.153
 7776DA     SC250576  28.976  76.941  38.913
 7776DA     SC350577  29.224  76.887  38.951
 7776DA     SC450578  29.096  76.842  39.197
 7777DG     BB150579  28.412  76.813  39.413
 7777DG     BB250580  28.376  76.822  39.053
 7777DG     BB350581  28.399  76.639  38.978
 7777DG     SC150582  28.702  76.666  38.941
 7777DG     SC250583  28.846  76.672  38.680
 7777DG     SC350584  29.037  76.653  38.905
 7777DG     SC450585  28.799  76.625  39.062
 7778DT     BB150586  28.234  76.526  38.872
 7778DT     BB250587  28.344  76.533  38.529
 7778DT     BB350588  28.425  76.350  38.477
 7778DT     SC150589  28.644  76.399  38.613
 7778DT     SC250590  28.808  76.427  38.477
 7778DT     SC350591  28.833  76.377  38.796
 7779DT     BB150592  28.206  76.252  38.322
 7779DT     BB250593  28.486  76.219  38.097
 7779DT     BB350594  28.571  76.031  38.118
 7779DT     SC150595  28.682  76.098  38.346
 7779DT     SC250596  28.896  76.111  38.320
 7779DT     SC350597  28.738  76.099  38.604
 7780DG     BB150598  28.457  75.982  37.719
 7780DG     BB250599  28.807  75.903  37.757
 7780DG     BB350600  28.828  75.713  37.813
 7780DG     SC150601  28.817  75.775  38.113
 7780DG     SC250602  29.042  75.742  38.307
 7780DG     SC350603  28.789  75.803  38.448
 7780DG     SC450604  28.675  75.778  38.186
 7781DT     BB150605  28.936  75.486  37.693
 7781DT     BB250606  29.250  75.478  37.870
 7781DT     BB350607  29.259  75.309  37.989
 7781DT     SC150608  29.092  75.412  38.163
 7781DT     SC250609  29.197  75.456  38.346
 7781DT     SC350610  28.875  75.445  38.310
 7782DT     BB150611  29.448  75.145  37.833
 7782DT     BB250612  29.610  75.181  38.153
 7782DT     BB350613  29.569  75.017  38.272
 7782DT     SC150614  29.324  75.101  38.317
 7782DT     SC250615  29.306  75.162  38.522
 7782DT     SC350616  29.061  75.108  38.318
 7783DA     BB150617  29.984  75.063  38.266
 7783DA     BB250618  29.878  75.048  38.617
 7783DA     BB350619  29.832  74.847  38.672
 7783DA     SC150620  29.532  74.869  38.595
 7783DA     SC250621  29.311  74.874  38.712
 7783DA     SC350622  29.213  74.806  38.485
 7783DA     SC450623  29.490  74.825  38.446
 7784DT     BB150624  29.949  74.779  38.805
 7784DT     BB250625  29.716  74.803  39.079
 7784DT     BB350626  29.639  74.616  39.123
 7784DT     SC150627  29.485  74.621  38.910
 7784DT     SC250628  29.280  74.638  38.971
 7784DT     SC350629  29.384  74.555  38.675
 7785DT     BB150630  29.781  74.640  39.343
 7785DT     BB250631  29.441  74.593  39.455
 7785DT     BB350632  29.395  74.392  39.457
 7785DT     SC150633  29.376  74.385  39.195
 7785DT     SC250634  29.170  74.357  39.139
 7785DT     SC350635  29.427  74.322  38.944
 7786DC     BB150636  29.396  74.418  39.720
 7786DC     BB250637  29.069  74.289  39.641
 7786DC     BB350638  29.077  74.083  39.622
 7786DC     SC150639  29.194  74.102  39.388
 7786DC     SC250640  29.058  74.038  39.234
 7786DC     SC350641  29.378  74.079  39.200
 7787DA     BB150642  28.765  74.186  39.882
 7787DA     BB250643  28.636  73.942  39.640
 7787DA     BB350644  28.716  73.749  39.679
 7787DA     SC150645  28.962  73.786  39.493
 7787DA     SC250646  29.045  73.695  39.276
 7787DA     SC350647  29.275  73.777  39.352
 7787DA     SC450648  29.098  73.843  39.559
 7788DT     BB150649  28.589  73.606  39.741
 7788DT     BB250650  28.585  73.413  39.436
 7788DT     BB350651  28.699  73.242  39.459
 7788DT     SC150652  28.922  73.379  39.442
 7788DT     SC250653  29.021  73.332  39.257
 7788DT     SC350654  29.154  73.485  39.510
 7789DA     BB150655  28.325  73.119  39.316
 7789DA     BB250656  28.581  72.954  39.113
 7789DA     BB350657  28.675  72.797  39.224
 7789DA     SC150658  28.900  72.980  39.338
 7789DA     SC250659  29.146  73.008  39.311
 7789DA     SC350660  29.137  73.128  39.537
 7789DA     SC450661  28.873  73.050  39.480
 7790DA     BB150662  28.588  72.621  38.961
 7790DA     BB250663  28.944  72.549  38.913
 7790DA     BB350664  29.010  72.404  39.054
 7790DA     SC150665  29.094  72.614  39.268
 7790DA     SC250666  29.305  72.701  39.368
 7790DA     SC350667  29.156  72.782  39.561
 7790DA     SC450668  28.985  72.655  39.378
 7791DG     BB150669  29.080  72.233  38.803
 7791DG     BB250670  29.418  72.265  38.927
 7791DG     BB350671  29.452  72.129  39.068
 7791DG     SC150672  29.359  72.307  39.298
 7791DG     SC250673  29.531  72.417  39.516
 7791DG     SC350674  29.245  72.468  39.572
 7791DG     SC450675  29.204  72.307  39.339
 7792DA     BB150676  29.735  72.043  38.884
 7792DA     BB250677  29.946  72.117  39.175
 7792DA     BB350678  29.929  71.962  39.320
 7792DA     SC150679  29.694  72.096  39.472
 7792DA     SC250680  29.656  72.207  39.693
 7792DA     SC350681  29.407  72.159  39.651
 7792DA     SC450682  29.544  72.056  39.429
 7793DA     BB150683  30.259  71.949  39.296
 7793DA     BB250684  30.273  72.036  39.651
 7793DA     BB350685  30.227  71.866  39.771
 7793DA     SC150686  29.922  71.924  39.781
 7793DA     SC250687  29.753  71.998  39.950
 7793DA     SC350688  29.580  71.898  39.789
 7793DA     SC450689  29.829  71.856  39.669
 7794DT     BB150690  30.373  71.769  39.898
 7794DT     BB250691  30.244  71.894  40.211
 7794DT     BB350692  30.153  71.741  40.316
 7794DT     SC150693  29.944  71.745  40.157
 7794DT     SC250694  29.774  71.820  40.264
 7794DT     SC350695  29.766  71.665  39.980
 7795DT     BB150696  30.359  71.727  40.500
 7795DT     BB250697  30.065  71.791  40.699
 7795DT     BB350698  29.975  71.612  40.754
 7795DT     SC150699  29.880  71.577  40.511
 7795DT     SC250700  29.666  71.600  40.515
 7795DT     SC350701  29.840  71.470  40.274
 7796DA     BB150702  30.030  71.840  41.100
 7796DA     BB250703  29.681  71.727  41.092
 7796DA     BB350704  29.670  71.519  41.138
 7796DA     SC150705  29.694  71.427  40.842
 7796DA     SC250706  29.548  71.323  40.668
 7796DA     SC350707  29.767  71.258  40.552
 7796DA     SC450708  29.841  71.395  40.785
 7797DA     BB150709  29.459  71.655  41.344
 7797DA     BB250710  29.203  71.450  41.180
 7797DA     BB350711  29.225  71.245  41.236
 7797DA     SC150712  29.415  71.177  40.999
 7797DA     SC250713  29.406  71.043  40.788
 7797DA     SC350714  29.662  71.047  40.799
 7797DA     SC450715  29.573  71.189  41.024
 7798DT     BB150716  29.079  71.194  41.326
 7798DT     BB250717  28.935  70.988  41.067
 7798DT     BB350718  28.985  70.789  41.098
 7798DT     SC150719  29.231  70.830  41.016
 7798DT     SC250720  29.260  70.730  40.828
 7798DT     SC350721  29.494  70.847  41.020
 7799DA     BB150722  28.573  70.839  41.024
 7799DA     BB250723  28.697  70.562  40.819
 7799DA     BB350724  28.749  70.395  40.942
 7799DA     SC150725  29.045  70.484  40.980
 7799DA     SC250726  29.271  70.407  40.907
 7799DA     SC350727  29.358  70.546  41.104
 7799DA     SC450728  29.079  70.575  41.107
 7800DA     BB150729  28.548  70.252  40.724
 7800DA     BB250730  28.828  70.029  40.644
 7800DA     BB350731  28.862  69.892  40.804
 7800DA     SC150732  29.066  70.076  40.950
 7800DA     SC250733  29.311  70.080  40.998
 7800DA     SC350734  29.251  70.244  41.186
 7800DA     SC450735  29.009  70.176  41.063
 7801DA     BB150736  28.832  69.656  40.571
 7801DA     BB250737  29.172  69.547  40.658
 7801DA     BB350738  29.170  69.438  40.842
 7801DA     SC150739  29.217  69.689  41.020
 7801DA     SC250740  29.400  69.782  41.162
 7801DA     SC350741  29.214  69.921  41.273
 7801DA     SC450742  29.088  69.765  41.077
 7802DG     BB150743  29.279  69.175  40.696
 7802DG     BB250744  29.566  69.219  40.911
 7802DG     BB350745  29.533  69.131  41.086
 7802DG     SC150746  29.407  69.378  41.216
 7802DG     SC250747  29.523  69.537  41.440
 7802DG     SC350748  29.246  69.623  41.382
 7802DG     SC450749  29.249  69.401  41.201
 7803DT     BB150750  29.650  68.935  41.187
 7803DT     BB250751  29.851  69.099  41.438
 7803DT     BB350752  29.778  69.056  41.627
 7803DT     SC150753  29.574  69.218  41.594
 7803DT     SC250754  29.597  69.389  41.723
 7803DT     SC350755  29.325  69.302  41.569
 7804DT     BB150756  29.981  68.870  41.704
 7804DT     BB250757  29.989  69.118  41.966
 7804DT     BB350758  29.865  69.061  42.122
 7804DT     SC150759  29.651  69.123  41.984
 7804DT     SC250760  29.557  69.296  42.071
 7804DT     SC350761  29.422  69.096  41.855
 7805DG     BB150762  30.230  69.083  42.309
 7805DG     BB250763  29.984  69.282  42.484
 7805DG     BB350764  29.876  69.165  42.604
 7805DG     SC150765  29.664  69.103  42.392
 7805DG     SC250766  29.378  69.190  42.399
 7805DG     SC350767  29.424  68.997  42.179
 7805DG     SC450768  29.686  68.978  42.295
 7806DT     BB150769  29.867  69.176  42.845
 7806DT     BB250770  29.548  69.338  42.890
 7806DT     BB350771  29.411  69.203  42.966
 7806DT     SC150772  29.388  69.084  42.733
 7806DT     SC250773  29.193  69.124  42.651
 7806DT     SC350774  29.399  68.896  42.548
 7807DA     BB150775  29.398  69.529  43.229
 7807DA     BB250776  29.053  69.455  43.129
 7807DA     BB350777  28.982  69.281  43.231
 7807DA     SC150778  29.076  69.083  43.010
 7807DA     SC250779  28.973  68.935  42.838
 7807DA     SC350780  29.197  68.811  42.839
 7807DA     SC450781  29.223  69.018  43.026
 7808DA     BB150782  28.742  69.486  43.316
 7808DA     BB250783  28.515  69.266  43.130
 7808DA     BB350784  28.470  69.092  43.245
 7808DA     SC150785  28.706  68.925  43.130
 7808DA     SC250786  28.737  68.729  42.979
 7808DA     SC350787  28.969  68.709  43.087
 7808DA     SC450788  28.845  68.928  43.210
 7809DT     BB150789  28.283  69.073  43.300
 7809DT     BB250790  28.198  68.818  43.059
 7809DT     BB350791  28.185  68.634  43.152
 7809DT     SC150792  28.447  68.617  43.170
 7809DT     SC250793  28.518  68.463  43.038
 7809DT     SC350794  28.687  68.602  43.277
 7810DA     BB150795  27.857  68.720  42.907
 7810DA     BB250796  27.985  68.387  42.821
 7810DA     BB350797  27.944  68.249  42.979
 7810DA     SC150798  28.213  68.301  43.126
 7810DA     SC250799  28.426  68.179  43.172
 7810DA     SC350800  28.458  68.347  43.363
 7810DA     SC450801  28.215  68.414  43.241
 7811DA     BB150802  27.848  68.126  42.694
 7811DA     BB250803  28.080  67.852  42.768
 7811DA     BB350804  28.010  67.739  42.935
 7811DA     SC150805  28.163  67.909  43.146
 7811DA     SC250806  28.357  67.882  43.300
 7811DA     SC350807  28.258  68.081  43.427
 7811DA     SC450808  28.085  68.034  43.212
 7812DC     BB150809  27.995  67.599  42.858
 7812DC     BB250810  28.270  67.429  43.019
 7812DC     BB350811  28.207  67.346  43.198
 7812DC     SC150812  28.202  67.581  43.314
 7812DC     SC250813  28.360  67.592  43.460
 7812DC     SC350814  28.110  67.796  43.436
 7813DT     BB150815  28.250  67.131  43.061
 7813DT     BB250816  28.452  67.101  43.358
 7813DT     BB350817  28.334  67.047  43.519
 7813DT     SC150818  28.233  67.289  43.536
 7813DT     SC250819  28.305  67.383  43.716
 7813DT     SC350820  28.057  67.485  43.534
 7814DG     BB150821  28.639  66.780  43.473
 7814DG     BB250822  28.615  66.901  43.813
 7814DG     BB350823  28.459  66.817  43.903
 7814DG     SC150824  28.262  67.036  43.820
 7814DG     SC250825  28.126  67.229  44.003
 7814DG     SC350826  28.015  67.247  43.729
 7814DG     SC450827  28.185  67.022  43.680
 7815DT     BB150828  28.495  66.696  44.072
 7815DT     BB250829  28.375  66.903  44.342
 7815DT     BB350830  28.185  66.844  44.398
 7815DT     SC150831  28.080  66.954  44.184
 7815DT     SC250832  27.963  67.125  44.242
 7815DT     SC350833  27.954  66.978  43.953
 7816DT     BB150834  28.290  66.744  44.623
 7816DT     BB250835  28.035  66.973  44.734
 7816DT     BB350836  27.850  66.879  44.734
 7816DT     SC150837  27.835  66.892  44.473
 7816DT     SC250838  27.681  67.032  44.417
 7816DT     SC350839  27.821  66.815  44.221
 7817DT     BB150840  27.856  66.877  45.003
 7817DT     BB250841  27.548  67.045  44.921
 7817DT     BB350842  27.398  66.907  44.887
 7817DT     SC150843  27.499  66.843  44.653
 7817DT     SC250844  27.367  66.913  44.498
 7817DT     SC350845  27.609  66.700  44.461
 7818DA     BB150846  27.245  67.178  45.170
 7818DA     BB250847  26.992  67.133  44.909
 7818DA     BB350848  26.901  66.941  44.926
 7818DA     SC150849  27.105  66.801  44.736
 7818DA     SC250850  27.105  66.701  44.508
 7818DA     SC350851  27.317  66.578  44.584
 7818DA     SC450852  27.234  66.733  44.803
 7819DA     BB150853  26.611  67.104  44.938
 7819DA     BB250854  26.514  66.925  44.633
 7819DA     BB350855  26.456  66.725  44.680
 7819DA     SC150856  26.743  66.609  44.643
 7819DA     SC250857  26.862  66.460  44.483
 7819DA     SC350858  27.033  66.427  44.672
 7819DA     SC450859  26.837  66.600  44.773
 7820DA     BB150860  26.160  66.782  44.530
 7820DA     BB250861  26.247  66.518  44.290
 7820DA     BB350862  26.211  66.326  44.375
 7820DA     SC150863  26.497  66.296  44.492
 7820DA     SC250864  26.701  66.159  44.450
 7820DA     SC350865  26.768  66.222  44.689
 7820DA     SC450866  26.521  66.346  44.644
 7821DT     BB150867  26.042  66.161  44.315
 7821DT     BB250868  26.269  65.941  44.142
 7821DT     BB350869  26.288  65.763  44.246
 7821DT     SC150870  26.438  65.876  44.428
 7821DT     SC250871  26.640  65.802  44.411
 7821DT     SC350872  26.519  65.966  44.663
 7822DA     BB150873  26.164  65.612  43.872
 7822DA     BB250874  26.469  65.430  43.963
 7822DA     BB350875  26.424  65.273  44.101
 7822DA     SC150876  26.467  65.449  44.354
 7822DA     SC250877  26.631  65.466  44.541
 7822DA     SC350878  26.446  65.592  44.665
 7822DA     SC450879  26.339  65.524  44.415
 7823DT     BB150880  26.446  65.063  44.048
 7823DT     BB250881  26.753  65.013  44.231
 7823DT     BB350882  26.719  64.891  44.395
 7823DT     SC150883  26.600  65.086  44.525
 7823DT     SC250884  26.724  65.148  44.689
 7823DT     SC350885  26.412  65.224  44.647
 7824DC     BB150886  26.857  64.696  44.269
 7824DC     BB250887  27.035  64.749  44.578
 7824DC     BB350888  26.951  64.633  44.728
 7824DC     SC150889  26.744  64.793  44.748
 7824DC     SC250890  26.752  64.898  44.935
 7824DC     SC350891  26.494  64.877  44.740
 7825DA     BB150892  27.367  64.580  44.718
 7825DA     BB250893  27.268  64.641  45.066
 7825DA     BB350894  27.166  64.472  45.145
 7825DA     SC150895  26.884  64.572  45.060
 7825DA     SC250896  26.677  64.658  45.171
 7825DA     SC350897  26.559  64.594  44.952
 7825DA     SC450898  26.828  64.525  44.917
 7826DT     BB150899  27.257  64.375  45.290
 7826DT     BB250900  27.042  64.482  45.560
 7826DT     BB350901  26.912  64.330  45.612
 7826DT     SC150902  26.767  64.371  45.397
 7826DT     SC250903  26.576  64.454  45.454
 7826DT     SC350904  26.650  64.328  45.164
 7827DC     BB150905  27.047  64.269  45.849
 7827DC     BB250906  26.708  64.330  45.957
 7827DC     BB350907  26.600  64.153  45.953
 7827DC     SC150908  26.584  64.159  45.691
 7827DC     SC250909  26.380  64.199  45.633
 7827DC     SC350910  26.616  64.089  45.439
 7828DA     BB150911  26.542  64.282  46.350
 7828DA     BB250912  26.211  64.197  46.216
 7828DA     BB350913  26.184  63.986  46.215
 7828DA     SC150914  26.296  63.948  45.927
 7828DA     SC250915  26.209  63.888  45.701
 7828DA     SC350916  26.453  63.830  45.645
 7828DA     SC450917  26.453  63.917  45.912
 7829DT     BB150918  26.037  63.870  46.346
 7829DT     BB250919  25.796  63.807  46.085
 7829DT     BB350920  25.792  63.605  46.040
 7829DT     SC150921  26.021  63.621  45.911
 7829DT     SC250922  25.986  63.593  45.701
 7829DT     SC350923  26.274  63.581  45.850
 7830DA     BB150924  25.398  63.714  46.118
 7830DA     BB250925  25.403  63.540  45.796
 7830DA     BB350926  25.422  63.329  45.826
 7830DA     SC150927  25.733  63.332  45.815
 7830DA     SC250928  25.914  63.254  45.662
 7830DA     SC350929  26.067  63.271  45.867
 7830DA     SC450930  25.812  63.348  45.954
 7831DC     BB150931  25.270  63.228  45.767
 7831DC     BB250932  25.421  63.097  45.467
 7831DC     BB350933  25.474  62.899  45.495
 7831DC     SC150934  25.680  62.967  45.643
 7831DC     SC250935  25.861  62.923  45.536
 7831DC     SC350936  25.838  62.989  45.853
 7832DC     BB150937  25.284  62.875  45.321
 7832DC     BB250938  25.576  62.727  45.170
 7832DC     BB350939  25.607  62.537  45.247
 7832DC     SC150940  25.697  62.636  45.473
 7832DC     SC250941  25.908  62.597  45.489
 7832DC     SC350942  25.714  62.693  45.730
 7833DG     BB150943  25.583  62.535  44.840
 7833DG     BB250944  25.879  62.365  44.960
 7833DG     BB350945  25.829  62.189  45.038
 7833DG     SC150946  25.786  62.299  45.321
 7833DG     SC250947  25.952  62.235  45.561
 7833DG     SC350948  25.711  62.388  45.637
 7833DG     SC450949  25.642  62.354  45.361
 7834DT     BB150950  25.907  62.013  44.949
 7834DT     BB250951  26.151  61.905  45.191
 7834DT     BB350952  26.074  61.752  45.307
 7834DT     SC150953  25.922  61.919  45.441
 7834DT     SC250954  25.995  61.935  45.643
 7834DT     SC350955  25.707  62.037  45.536
 7835DA     BB150956  26.442  61.615  45.160
 7835DA     BB250957  26.433  61.549  45.520
 7835DA     BB350958  26.302  61.386  45.562
 7835DA     SC150959  26.052  61.567  45.602
 7835DA     SC250960  25.904  61.640  45.789
 7835DA     SC350961  25.734  61.697  45.606
 7835DA     SC450962  25.959  61.595  45.473
 7836DC     BB150963  26.378  61.210  45.635
 7836DC     BB250964  26.264  61.252  45.974
 7836DC     BB350965  26.103  61.126  46.011
 7836DC     SC150966  25.942  61.279  45.872
 7836DC     SC250967  25.802  61.375  46.004
 7836DC     SC350968  25.776  61.357  45.682
 7837DT     BB150969  26.264  60.977  46.167
 7837DT     BB250970  25.992  61.077  46.382
 7837DT     BB350971  25.835  60.944  46.363
 7837DT     SC150972  25.769  61.044  46.130
 7837DT     SC250973  25.582  61.149  46.147
 7837DT     SC350974  25.724  61.061  45.870
 7838DC     BB150975  25.900  60.871  46.607
 7838DC     BB250976  25.555  60.976  46.629
 7838DC     BB350977  25.431  60.821  46.570
 7838DC     SC150978  25.492  60.858  46.317
 7838DC     SC250979  25.320  60.937  46.213
 7838DC     SC350980  25.585  60.811  46.075
 7839DT     BB150981  25.372  60.832  46.821
 7839DT     BB250982  25.060  60.875  46.646
 7839DT     BB350983  24.990  60.692  46.579
 7839DT     SC150984  25.168  60.686  46.387
 7839DT     SC250985  25.070  60.709  46.197
 7839DT     SC350986  25.374  60.606  46.242
 7840DT     BB150987  24.810  60.737  46.761
 7840DT     BB250988  24.625  60.676  46.457
 7840DT     BB350989  24.616  60.472  46.420
 7840DT     SC150990  24.866  60.467  46.343
 7840DT     SC250991  24.875  60.430  46.131
 7840DT     SC350992  25.123  60.408  46.338
 7841DT     BB150993  24.354  60.470  46.492
 7841DT     BB250994  24.356  60.308  46.169
 7841DT     BB350995  24.397  60.107  46.191
 7841DT     SC150996  24.650  60.155  46.238
 7841DT     SC250997  24.768  60.086  46.072
 7841DT     SC350998  24.882  60.168  46.364
 7842DA     BB150999  24.028  60.072  45.984
 7842DA     BB251000  24.260  59.837  45.823
 7842DA     BB351001  24.282  59.662  45.942
 7842DA     SC151002  24.524  59.772  46.104
 7842DA     SC251003  24.769  59.727  46.123
 7842DA     SC351004  24.752  59.846  46.350
 7842DA     SC451005  24.493  59.847  46.242
 7843DT     BB151006  24.203  59.420  45.910
 7843DT     BB251007  24.528  59.284  45.830
 7843DT     BB351008  24.588  59.153  45.978
 7843DT     SC151009  24.642  59.350  46.142
 7843DT     SC251010  24.855  59.363  46.171
 7843DT     SC351011  24.629  59.507  46.353
 7844DT     BB151012  24.542  58.885  45.851
 7844DT     BB251013  24.892  58.875  45.940
 7844DT     BB351014  24.915  58.780  46.122
 7844DT     SC151015  24.824  58.989  46.252
 7844DT     SC251016  24.985  59.080  46.363
 7844DT     SC351017  24.669  59.138  46.404
 7845DC     BB151018  25.023  58.536  46.021
 7845DC     BB251019  25.278  58.657  46.244
 7845DC     BB351020  25.251  58.577  46.433
 7845DC     SC151021  25.047  58.735  46.480
 7845DC     SC251022  25.101  58.879  46.630
 7845DC     SC351023  24.800  58.813  46.530
 7846DT     BB151024  25.471  58.421  46.398
 7846DT     BB251025  25.545  58.622  46.688
 7846DT     BB351026  25.474  58.529  46.859
 7846DT     SC151027  25.226  58.593  46.800
 7846DT     SC251028  25.155  58.740  46.940
 7846DT     SC351029  24.972  58.568  46.737
 7847DA     BB151030  25.873  58.648  46.904
 7847DA     BB251031  25.682  58.767  47.194
 7847DA     BB351032  25.628  58.603  47.319
 7847DA     SC151033  25.356  58.553  47.177
 7847DA     SC251034  25.113  58.578  47.228
 7847DA     SC351035  25.077  58.410  47.038
 7847DA     SC451036  25.354  58.446  47.056
 7848DT     BB151037  25.708  58.622  47.480
 7848DT     BB251038  25.415  58.714  47.668
 7848DT     BB351039  25.338  58.547  47.765
 7848DT     SC151040  25.240  58.453  47.540
 7848DT     SC251041  25.026  58.464  47.545
 7848DT     SC351042  25.202  58.292  47.334
 7849DA     BB151043  25.378  58.867  48.035
 7849DA     BB251044  25.044  58.721  48.077
 7849DA     BB351045  25.058  58.529  48.168
 7849DA     SC151046  25.078  58.376  47.898
 7849DA     SC251047  24.936  58.221  47.763
 7849DA     SC351048  25.155  58.154  47.647
 7849DA     SC451049  25.224  58.346  47.839
 7850DA     BB151050  24.843  58.669  48.374
 7850DA     BB251051  24.610  58.401  48.282
 7850DA     BB351052  24.669  58.217  48.373
 7850DA     SC151053  24.847  58.128  48.134
 7850DA     SC251054  24.843  57.954  47.956
 7850DA     SC351055  25.095  57.995  47.937
 7850DA     SC451056  25.003  58.167  48.139
 7851DA     BB151057  24.361  58.211  48.496
 7851DA     BB251058  24.311  57.896  48.316
 7851DA     BB351059  24.405  57.735  48.420
 7851DA     SC151060  24.676  57.764  48.270
 7851DA     SC251061  24.809  57.636  48.102
 7851DA     SC351062  25.009  57.773  48.186
 7851DA     SC451063  24.789  57.858  48.337
 7852DC     BB151064  24.296  57.569  48.521
 7852DC     BB251065  24.372  57.314  48.278
 7852DC     BB351066  24.506  57.177  48.358
 7852DC     SC151067  24.705  57.346  48.335
 7852DC     SC251068  24.840  57.277  48.183
 7852DC     SC351069  24.903  57.507  48.402
 7853DT     BB151070  24.318  56.965  48.400
 7853DT     BB251071  24.573  56.812  48.196
 7853DT     BB351072  24.715  56.722  48.316
 7853DT     SC151073  24.819  56.954  48.382
 7853DT     SC251074  25.014  56.973  48.292
 7853DT     SC351075  24.894  57.160  48.529
 7854DA     BB151076  24.598  56.407  48.064
 7854DA     BB251077  24.964  56.419  48.057
 7854DA     BB351078  25.045  56.331  48.234
 7854DA     SC151079  25.051  56.598  48.393
 7854DA     SC251080  25.222  56.756  48.482
 7854DA     SC351081  25.036  56.838  48.639
 7854DA     SC451082  24.922  56.634  48.483
 7855DC     BB151083  25.162  56.139  48.238
 7855DC     BB251084  25.485  56.294  48.283
 7855DC     BB351085  25.558  56.253  48.472
 7855DC     SC151086  25.391  56.423  48.582
 7855DC     SC251087  25.501  56.593  48.657
 7855DC     SC351088  25.194  56.518  48.730
 7856DG     BB151089  25.837  56.105  48.215
 7856DG     BB251090  25.985  56.335  48.452
 7856DG     BB351091  26.020  56.243  48.624
 7856DG     SC151092  25.745  56.309  48.743
 7856DG     SC251093  25.694  56.490  48.975
 7856DG     SC351094  25.447  56.347  48.895
 7856DG     SC451095  25.623  56.209  48.716
 7857DC     BB151096  26.224  56.227  48.697
 7857DC     BB251097  26.223  56.478  48.956
 7857DC     BB351098  26.216  56.388  49.142
 7857DC     SC151099  25.962  56.329  49.112
 7857DC     SC251100  25.844  56.449  49.246
 7857DC     SC351101  25.741  56.187  49.086
 7858DA     BB151102  26.511  56.683  49.109
 7858DA     BB251103  26.316  56.745  49.413
 7858DA     BB351104  26.357  56.595  49.560
 7858DA     SC151105  26.127  56.407  49.466
 7858DA     SC251106  25.907  56.327  49.551
 7858DA     SC351107  25.935  56.134  49.384
 7858DA     SC451108  26.164  56.294  49.357
 7859DT     BB151109  26.421  56.686  49.683
 7859DT     BB251110  26.143  56.660  49.911
 7859DT     BB351111  26.169  56.497  50.036
 7859DT     SC151112  26.108  56.330  49.844
 7859DT     SC251113  25.918  56.238  49.887
 7859DT     SC351114  26.132  56.136  49.666
 7860DC     BB151115  26.185  56.699  50.192
 7860DC     BB251116  25.928  56.487  50.330
 7860DC     BB351117  26.013  56.324  50.424
 7860DC     SC151118  26.070  56.211  50.194
 7860DC     SC251119  25.946  56.038  50.167
 7860DC     SC351120  26.211  56.110  49.995
 7861DA     BB151121  25.722  56.504  50.671
 7861DA     BB251122  25.682  56.141  50.691
 7861DA     BB351123  25.848  56.053  50.792
 7861DA     SC151124  26.014  56.008  50.533
 7861DA     SC251125  26.090  55.815  50.394
 7861DA     SC351126  26.266  55.978  50.302
 7861DA     SC451127  26.116  56.124  50.489
 7862DT     BB151128  25.818  55.972  50.970
 7862DT     BB251129  25.870  55.626  50.883
 7862DT     BB351130  26.059  55.566  50.940
 7862DT     SC151131  26.170  55.698  50.742
 7862DT     SC251132  26.249  55.558  50.599
 7862DT     SC351133  26.317  55.875  50.613
 7863DA     BB151134  25.834  55.272  51.147
 7863DA     BB251135  26.109  55.094  50.982
 7863DA     BB351136  26.290  55.120  51.092
 7863DA     SC151137  26.377  55.375  50.934
 7863DA     SC251138  26.552  55.439  50.769
 7863DA     SC351139  26.504  55.680  50.842
 7863DA     SC451140  26.333  55.517  50.994
 7864DA     BB151141  26.344  54.784  51.136
 7864DA     BB251142  26.655  54.815  50.944
 7864DA     BB351143  26.814  54.878  51.070
 7864DA     SC151144  26.766  55.182  51.019
 7864DA     SC251145  26.881  55.369  50.902
 7864DA     SC351146  26.738  55.522  51.050
 7864DA     SC451147  26.670  55.260  51.121
 7865DT     BB151148  27.012  54.755  51.144
 7865DT     BB251149  27.244  54.923  50.925
 7865DT     BB351150  27.377  55.035  51.036
 7865DT     SC151151  27.195  55.218  51.084
 7865DT     SC251152  27.245  55.398  50.978
 7865DT     SC351153  27.028  55.372  51.217
 7866DT     BB151154  27.603  54.864  51.003
 7866DT     BB251155  27.716  55.180  50.873
 7866DT     BB351156  27.810  55.289  51.022
 7866DT     SC151157  27.580  55.347  51.135
 7866DT     SC251158  27.539  55.556  51.109
 7866DT     SC351159  27.386  55.356  51.314
 7867DC     BB151160  28.058  55.247  50.911
 7867DC     BB251161  28.023  55.606  50.922
 7867DC     BB351162  28.093  55.679  51.102
 7867DC     SC151163  27.880  55.592  51.228
 7867DC     SC251164  27.760  55.759  51.291
 7867DC     SC351165  27.729  55.454  51.396
 7868DG     BB151166  28.301  55.862  50.805
 7868DG     BB251167  28.151  56.103  51.030
 7868DG     BB351168  28.259  56.116  51.196
 7868DG     SC151169  28.106  55.895  51.343
 7868DG     SC251170  27.932  55.932  51.582
 7868DG     SC351171  27.974  55.644  51.525
 7868DG     SC451172  28.155  55.743  51.326
 7869DT     BB151173  28.350  56.305  51.246
 7869DT     BB251174  28.139  56.418  51.516
 7869DT     BB351175  28.234  56.387  51.697
 7869DT     SC151176  28.189  56.129  51.687
 7869DT     SC251177  28.044  56.076  51.837
 7869DT     SC351178  28.233  55.869  51.673
 7870DA     BB151179  28.102  56.785  51.681
 7870DA     BB251180  27.998  56.643  52.003
 7870DA     BB351181  28.166  56.620  52.132
 7870DA     SC151182  28.228  56.329  52.038
 7870DA     SC251183  28.215  56.099  52.131
 7870DA     SC351184  28.382  56.037  51.946
 7870DA     SC451185  28.332  56.311  51.917
 7871DT     BB151186  28.178  56.734  52.300
 7871DT     BB251187  28.101  56.472  52.536
 7871DT     BB351188  28.273  56.414  52.636
 7871DT     SC151189  28.361  56.284  52.426
 7871DT     SC251190  28.355  56.072  52.465
 7871DT     SC351191  28.514  56.217  52.222
 7872DT     BB151192  28.176  56.533  52.856
 7872DT     BB251193  28.233  56.191  52.954
 7872DT     BB351194  28.431  56.166  53.011
 7872DT     SC151195  28.512  56.174  52.762
 7872DT     SC251196  28.582  55.979  52.704
 7872DT     SC351197  28.636  56.256  52.544
 7873DA     BB151198  28.184  56.012  53.313
 7873DA     BB251199  28.438  55.760  53.234
 7873DA     BB351200  28.628  55.821  53.308
 7873DA     SC151201  28.710  55.969  53.046
 7873DA     SC251202  28.873  55.938  52.860
 7873DA     SC351203  28.839  56.188  52.816
 7873DA     SC451204  28.676  56.125  53.035
 7874DA     BB151205  28.597  55.522  53.434
 7874DA     BB251206  28.899  55.436  53.244
 7874DA     BB351207  29.070  55.526  53.332
 7874DA     SC151208  29.052  55.786  53.162
 7874DA     SC251209  29.179  55.896  52.978
 7874DA     SC351210  29.061  56.111  53.052
 7874DA     SC451211  28.970  55.909  53.224
 7875DA     BB151212  29.153  55.211  53.306
 7875DA     BB251213  29.429  55.327  53.093
 7875DA     BB351214  29.576  55.427  53.211
 7875DA     SC151215  29.448  55.708  53.177
 7875DA     SC251216  29.500  55.922  53.060
 7875DA     SC351217  29.335  56.029  53.224
 7875DA     SC451218  29.342  55.756  53.288
 7876DT     BB151219  29.732  55.336  53.207
 7876DT     BB251220  29.915  55.565  52.996
 7876DT     BB351221  30.031  55.691  53.113
 7876DT     SC151222  29.820  55.829  53.187
 7876DT     SC251223  29.828  56.025  53.098
 7876DT     SC351224  29.634  55.934  53.341
 7877DT     BB151225  30.236  55.557  53.016
 7877DT     BB251226  30.304  55.902  52.937
 7877DT     BB351227  30.387  55.998  53.101
 7877DT     SC151228  30.154  56.007  53.222
 7877DT     SC251229  30.086  56.210  53.231
 7877DT     SC351230  29.967  55.962  53.402
 7878DT     BB151231  30.621  56.001  52.971
 7878DT     BB251232  30.561  56.346  53.058
 7878DT     BB351233  30.624  56.382  53.252
 7878DT     SC151234  30.417  56.256  53.352
 7878DT     SC251235  30.286  56.398  53.446
 7878DT     SC351236  30.276  56.076  53.482
 7879DC     BB151237  30.851  56.523  53.173
 7879DC     BB251238  30.682  56.750  53.397
 7879DC     BB351239  30.744  56.717  53.592
 7879DC     SC151240  30.602  56.497  53.607
 7879DC     SC251241  30.438  56.528  53.743
 7879DC     SC351242  30.542  56.241  53.633
 7880DG     BB151243  30.870  57.108  53.550
 7880DG     BB251244  30.669  57.072  53.849
 7880DG     BB351245  30.781  57.003  53.998
 7880DG     SC151246  30.729  56.708  53.935
 7880DG     SC251247  30.577  56.517  54.107
 7880DG     SC351248  30.709  56.376  53.883
 7880DG     SC451249  30.825  56.633  53.832
 7881DG     BB151250  30.754  57.267  54.223
 7881DG     BB251251  30.580  57.037  54.442
 7881DG     BB351252  30.709  56.950  54.565
 7881DG     SC151253  30.768  56.715  54.378
 7881DG     SC251254  30.697  56.429  54.426
 7881DG     SC351255  30.872  56.455  54.189
 7881DG     SC451256  30.886  56.730  54.270
 7882DA     BB151257  30.530  57.046  54.854
 7882DA     BB251258  30.464  56.694  54.935
 7882DA     BB351259  30.629  56.610  55.041
 7882DA     SC151260  30.774  56.511  54.784
 7882DA     SC251261  30.827  56.293  54.674
 7882DA     SC351262  31.008  56.424  54.548
 7882DA     SC451263  30.882  56.609  54.717
 7883DG     BB151264  30.421  56.565  55.266
 7883DG     BB251265  30.479  56.217  55.186
 7883DG     BB351266  30.639  56.151  55.284
 7883DG     SC151267  30.837  56.227  55.063
 7883DG     SC251268  30.995  56.037  54.896
 7883DG     SC351269  31.083  56.315  54.850
 7883DG     SC451270  30.901  56.374  55.063
 7884DG     BB151271  30.436  55.930  55.404
 7884DG     BB251272  30.642  55.687  55.232
 7884DG     BB351273  30.803  55.646  55.341
 7884DG     SC151274  30.974  55.867  55.217
 7884DG     SC251275  31.214  55.827  55.044
 7884DG     SC351276  31.182  56.112  55.116
 7884DG     SC451277  30.970  56.014  55.282
 7885DT     BB151278  30.823  55.449  55.400
 7885DT     BB251279  31.089  55.333  55.186
 7885DT     BB351280  31.269  55.333  55.290
 7885DT     SC151281  31.286  55.594  55.275
 7885DT     SC251282  31.447  55.647  55.142
 7885DT     SC351283  31.298  55.847  55.349
 7886DT     BB151284  31.251  55.068  55.283
 7886DT     BB251285  31.569  55.144  55.130
 7886DT     BB351286  31.713  55.171  55.276
 7886DT     SC151287  31.616  55.407  55.340
 7886DT     SC251288  31.755  55.559  55.279
 7886DT     SC351289  31.505  55.599  55.481
 7887DA     BB151290  31.868  54.890  55.006
 7887DA     BB251291  32.128  55.142  55.067
 7887DA     BB351292  32.213  55.116  55.261
 7887DA     SC151293  32.011  55.307  55.401
 7887DA     SC251294  32.015  55.532  55.509
 7887DA     SC351295  31.797  55.458  55.623
 7887DA     SC451296  31.878  55.242  55.463
 7888DT     BB151297  32.413  55.054  55.286
 7888DT     BB251298  32.544  55.373  55.392
 7888DT     BB351299  32.585  55.369  55.594
 7888DT     SC151300  32.330  55.383  55.655
 7888DT     SC251301  32.288  55.575  55.742
 7888DT     SC351302  32.094  55.317  55.750
 7889DA     BB151303  32.942  55.498  55.416
 7889DA     BB251304  32.865  55.731  55.688
 7889DA     BB351305  32.910  55.642  55.877
 7889DA     SC151306  32.626  55.522  55.915
 7889DA     SC251307  32.428  55.559  56.062
 7889DA     SC351308  32.359  55.321  55.996
 7889DA     SC451309  32.601  55.372  55.864
 7890DT     BB151310  33.063  55.720  55.993
 7890DT     BB251311  32.850  55.884  56.234
 7890DT     BB351312  32.854  55.781  56.413
 7890DT     SC151313  32.702  55.590  56.316
 7890DT     SC251314  32.509  55.599  56.410
 7890DT     SC351315  32.625  55.352  56.235
 7891DG     BB151316  32.965  56.166  56.475
 7891DG     BB251317  32.693  56.069  56.693
 7891DG     BB351318  32.763  55.957  56.842
 7891DG     SC151319  32.730  55.692  56.693
 7891DG     SC251320  32.539  55.474  56.765
 7891DG     SC351321  32.725  55.386  56.553
 7891DG     SC451322  32.849  55.639  56.602
 7892DT     BB151323  32.733  56.035  57.031
 7892DT     BB251324  32.472  55.821  57.160
 7892DT     BB351325  32.553  55.676  57.283
 7892DT     SC151326  32.647  55.543  57.077
 7892DT     SC251327  32.538  55.359  57.055
 7892DT     SC351328  32.818  55.431  56.911
 7893DA     BB151329  32.236  55.864  57.482
 7893DA     BB251330  32.195  55.501  57.519
 7893DA     BB351331  32.342  55.423  57.653
 7893DA     SC151332  32.550  55.365  57.429
 7893DA     SC251333  32.651  55.166  57.318
 7893DA     SC351334  32.839  55.326  57.247
 7893DA     SC451335  32.658  55.480  57.396
 7894DA     BB151336  32.075  55.301  57.802
 7894DA     BB251337  32.216  54.968  57.745
 7894DA     BB351338  32.376  54.931  57.882
 7894DA     SC151339  32.596  55.043  57.694
 7894DA     SC251340  32.788  54.955  57.560
 7894DA     SC351341  32.875  55.196  57.564
 7894DA     SC451342  32.635  55.199  57.709
 7895DT     BB151343  32.361  54.783  58.038
 7895DT     BB251344  32.580  54.540  57.886
 7895DT     BB351345  32.759  54.532  57.990
 7895DT     SC151346  32.839  54.759  57.887
 7895DT     SC251347  33.001  54.723  57.750
 7895DT     SC351348  32.915  55.011  57.870
 7896DT     BB151349  32.699  54.286  58.105
 7896DT     BB251350  33.011  54.229  57.934
 7896DT     BB351351  33.170  54.270  58.061
 7896DT     SC151352  33.132  54.528  58.036
 7896DT     SC251353  33.295  54.614  57.925
 7896DT     SC351354  33.078  54.778  58.101
 7897DA     BB151355  33.229  53.889  57.900
 7897DA     BB251356  33.540  54.078  57.858
 7897DA     BB351357  33.641  54.098  58.045
 7897DA     SC151358  33.502  54.366  58.119
 7897DA     SC251359  33.565  54.607  58.142
 7897DA     SC351360  33.352  54.627  58.284
 7897DA     SC451361  33.367  54.359  58.205
 7898DA     BB151362  33.871  53.978  57.849
 7898DA     BB251363  34.062  54.283  57.922
 7898DA     BB351364  34.138  54.277  58.121
 7898DA     SC151365  33.889  54.416  58.246
 7898DA     SC251366  33.834  54.636  58.352
 7898DA     SC351367  33.633  54.513  58.453
 7898DA     SC451368  33.771  54.322  58.301
 7899DC     BB151369  34.321  54.273  58.122
 7899DC     BB251370  34.377  54.609  58.240
 7899DC     BB351371  34.415  54.607  58.444
 7899DC     SC151372  34.162  54.563  58.499
 7899DC     SC251373  34.078  54.738  58.591
 7899DC     SC351374  33.945  54.443  58.587
 7900DC     BB151375  34.665  54.669  58.379
 7900DC     BB251376  34.565  54.927  58.611
 7900DC     BB351377  34.590  54.861  58.806
 7900DC     SC151378  34.378  54.706  58.789
 7900DC     SC251379  34.222  54.785  58.914
 7900DC     SC351380  34.230  54.488  58.784
 7901DT     BB151381  34.809  55.022  58.841
 7901DT     BB251382  34.593  55.109  59.117
 7901DT     BB351383  34.630  54.983  59.277
 7901DT     SC151384  34.504  54.785  59.160
 7901DT     SC251385  34.320  54.745  59.265
 7901DT     SC351386  34.461  54.550  59.046
 7902DT     BB151387  34.770  55.173  59.428
 7902DT     BB251388  34.511  55.060  59.653
 7902DT     BB351389  34.579  54.899  59.764
 7902DT     SC151390  34.556  54.738  59.558
 7902DT     SC251391  34.395  54.600  59.592
 7902DT     SC351392  34.624  54.573  59.364
 7903DC     BB151393  34.616  55.040  60.008
 7903DC     BB251394  34.396  54.770  60.100
 7903DC     BB351395  34.507  54.608  60.166
 7903DC     SC151396  34.579  54.548  59.921
 7903DC     SC251397  34.484  54.365  59.861
 7903DC     SC351398  34.733  54.508  59.710
 7904DA     BB151399  34.230  54.682  60.471
 7904DA     BB251400  34.216  54.323  60.394
 7904DA     BB351401  34.385  54.223  60.476
 7904DA     SC151402  34.560  54.259  60.221
 7904DA     SC251403  34.653  54.115  60.039
 7904DA     SC351404  34.819  54.307  60.000
 7904DA     SC451405  34.655  54.388  60.213
 7905DC     BB151406  34.356  54.088  60.625
 7905DC     BB251407  34.412  53.791  60.429
 7905DC     BB351408  34.596  53.709  60.475
 7905DC     SC151409  34.721  53.896  60.341
 7905DC     SC251410  34.810  53.811  60.164
 7905DC     SC351411  34.878  54.102  60.289
 7906DT     BB151412  34.467  53.509  60.600
 7906DT     BB251413  34.678  53.343  60.359
 7906DT     BB351414  34.867  53.314  60.437
 7906DT     SC151415  34.926  53.568  60.408
 7906DT     SC251416  35.075  53.589  60.254
 7906DT     SC351417  34.991  53.817  60.469
 7907DC     BB151418  34.817  53.048  60.462
 7907DC     BB251419  35.123  53.062  60.271
 7907DC     BB351420  35.285  53.073  60.399
 7907DC     SC151421  35.235  53.324  60.454
 7907DC     SC251422  35.388  53.449  60.368
 7907DC     SC351423  35.173  53.540  60.592
 7908DA     BB151424  35.395  52.731  60.172
 7908DA     BB251425  35.694  52.943  60.191
 7908DA     BB351426  35.786  52.923  60.383
 7908DA     SC151427  35.627  53.158  60.511
 7908DA     SC251428  35.673  53.388  60.593
 7908DA     SC351429  35.455  53.362  60.726
 7908DA     SC451430  35.490  53.122  60.586
 7909DT     BB151431  36.021  52.801  60.488
 7909DT     BB251432  36.200  53.109  60.546
 7909DT     BB351433  36.236  53.132  60.748
 7909DT     SC151434  35.986  53.197  60.793
 7909DT     SC251435  35.974  53.405  60.846
 7909DT     SC351436  35.739  53.186  60.887
 7910DA     BB151437  36.694  53.114  60.737
 7910DA     BB251438  36.617  53.423  60.919
 7910DA     BB351439  36.610  53.386  61.129
 7910DA     SC151440  36.306  53.322  61.132
 7910DA     SC251441  36.096  53.427  61.218
 7910DA     SC351442  35.995  53.192  61.199
 7910DA     SC451443  36.262  53.168  61.115
 7911DG     BB151444  36.888  53.564  61.330
 7911DG     BB251445  36.612  53.779  61.423
 7911DG     BB351446  36.568  53.754  61.615
 7911DG     SC151447  36.367  53.529  61.565
 7911DG     SC251448  36.072  53.544  61.613
 7911DG     SC351449  36.155  53.267  61.549
 7911DG     SC451450  36.419  53.378  61.560
 7912DA     BB151451  36.606  54.090  61.659
 7912DA     BB251452  36.241  54.116  61.688
 7912DA     BB351453  36.181  54.089  61.891
 7912DA     SC151454  36.145  53.781  61.865
 7912DA     SC251455  35.957  53.617  61.864
 7912DA     SC351456  36.136  53.443  61.921
 7912DA     SC451457  36.270  53.688  61.902
 7913DT     BB151458  36.107  54.237  61.919
 7913DT     BB251459  35.771  54.113  61.878
 7913DT     BB351460  35.690  54.066  62.063
 7913DT     SC151461  35.835  53.848  62.080
 7913DT     SC251462  35.708  53.676  62.063
 7913DT     SC351463  36.014  53.676  62.168
 7914DA     BB151464  35.470  54.270  61.757
 7914DA     BB251465  35.273  53.990  61.887
 7914DA     BB351466  35.227  54.021  62.093
 7914DA     SC151467  35.481  53.874  62.196
 7914DA     SC251468  35.536  53.662  62.315
 7914DA     SC351469  35.758  53.776  62.374
 7914DA     SC451470  35.613  53.963  62.224
 7915DG     BB151471  34.983  53.969  61.912
 7915DG     BB251472  34.956  53.685  62.135
 7915DG     BB351473  34.910  53.747  62.318
 7915DG     SC151474  35.202  53.779  62.406
 7915DG     SC251475  35.341  53.616  62.614
 7915DG     SC351476  35.509  53.844  62.530
 7915DG     SC451477  35.276  53.918  62.380
 7916DT     BB151478  34.752  53.661  62.362
 7916DT     BB251479  34.851  53.430  62.620
 7916DT     BB351480  34.840  53.522  62.806
 7916DT     SC151481  35.058  53.661  62.759
 7916DT     SC251482  35.216  53.590  62.886
 7916DT     SC351483  35.216  53.868  62.719
 7917DC     BB151484  34.635  53.361  62.843
 7917DC     BB251485  34.855  53.301  63.123
 7917DC     BB351486  34.827  53.446  63.267
 7917DC     SC151487  34.957  53.624  63.124
 7917DC     SC251488  35.144  53.670  63.219
 7917DC     SC351489  35.005  53.841  62.982
 7918DA     BB151490  34.794  53.076  63.465
 7918DA     BB251491  35.012  53.291  63.666
 7918DA     BB351492  34.898  53.444  63.761
 7918DA     SC151493  34.931  53.648  63.529
 7918DA     SC251494  35.050  53.863  63.488
 7918DA     SC351495  34.884  53.896  63.296
 7918DA     SC451496  34.818  53.650  63.415
 7919DC     BB151497  34.866  53.453  63.975
 7919DC     BB251498  35.082  53.735  64.042
 7919DC     BB351499  34.968  53.902  64.084
 7919DC     SC151500  34.903  53.932  63.832
 7919DC     SC251501  34.999  54.108  63.754
 7919DC     SC351502  34.756  53.946  63.613
 7920DT     BB151503  35.010  53.905  64.367
 7920DT     BB251504  35.112  54.236  64.264
 7920DT     BB351505  34.952  54.366  64.275
 7920DT     SC151506  34.843  54.264  64.059
 7920DT     SC251507  34.853  54.408  63.900
 7920DT     SC351508  34.670  54.141  63.903
 7921DA     BB151509  35.232  54.569  64.518
 7921DA     BB251510  35.103  54.814  64.277
 7921DA     BB351511  34.910  54.883  64.338
 7921DA     SC151512  34.755  54.664  64.180
 7921DA     SC251513  34.607  54.651  63.980
 7921DA     SC351514  34.529  54.427  64.078
 7921DA     SC451515  34.718  54.528  64.258
 7922DA     BB151516  35.023  55.198  64.333
 7922DA     BB251517  34.784  55.267  64.063
 7922DA     BB351518  34.591  55.310  64.144
 7922DA     SC151519  34.496  55.014  64.137
 7922DA     SC251520  34.331  54.876  64.010
 7922DA     SC351521  34.348  54.712  64.207
 7922DA     SC451522  34.518  54.926  64.270
 7923DC     BB151523  34.495  55.509  64.129
 7923DC     BB251524  34.265  55.418  63.867
 7923DC     BB351525  34.071  55.415  63.941
 7923DC     SC151526  34.115  55.188  64.067
 7923DC     SC251527  34.002  55.031  63.972
 7923DC     SC351528  34.142  55.015  64.264
 7924DT     BB151529  34.016  55.640  63.800
 7924DT     BB251530  33.779  55.397  63.680
 7924DT     BB351531  33.609  55.399  63.799
 7924DT     SC151532  33.734  55.273  63.992
 7924DT     SC251533  33.655  55.074  64.011
 7924DT     SC351534  33.842  55.225  64.228
 7925DC     BB151535  33.485  55.508  63.590
 7925DC     BB251536  33.298  55.208  63.663
 7925DC     BB351537  33.159  55.246  63.811
 7925DC     SC151538  33.345  55.250  63.996
 7925DC     SC251539  33.323  55.077  64.123
 7925DC     SC351540  33.503  55.339  64.188
 7926DA     BB151541  32.964  55.060  63.490
 7926DA     BB251542  32.861  54.890  63.798
 7926DA     BB351543  32.728  55.014  63.910
 7926DA     SC151544  32.954  55.149  64.075
 7926DA     SC251545  33.037  55.149  64.311
 7926DA     SC351546  33.149  55.371  64.250
 7926DA     SC451547  33.016  55.286  64.019
 7927DT     BB151548  32.532  54.956  63.932
 7927DT     BB251549  32.551  54.861  64.280
 7927DT     BB351550  32.459  55.005  64.398
 7927DT     SC151551  32.661  55.170  64.367
 7927DT     SC251552  32.765  55.189  64.554
 7927DT     SC351553  32.798  55.384  64.297
 7928DC     BB151554  32.230  54.850  64.450
 7928DC     BB251555  32.353  54.935  64.779
 7928DC     BB351556  32.266  55.112  64.843
 7928DC     SC151557  32.416  55.254  64.681
 7928DC     SC251558  32.557  55.368  64.797
 7928DC     SC351559  32.485  55.415  64.485
 7929DT     BB151560  32.091  54.990  65.030
 7929DT     BB251561  32.279  55.227  65.228
 7929DT     BB351562  32.179  55.408  65.235
 7929DT     SC151563  32.248  55.465  64.988
 7929DT     SC251564  32.389  55.627  64.989
 7929DT     SC351565  32.227  55.518  64.731
 7930DA     BB151566  32.255  55.303  65.632
 7930DA     BB251567  32.372  55.647  65.584
 7930DA     BB351568  32.206  55.782  65.578
 7930DA     SC151569  32.170  55.764  65.270
 7930DA     SC251570  32.203  55.911  65.071
 7930DA     SC351571  32.043  55.751  64.951
 7930DA     SC451572  32.068  55.653  65.213
 7931DT     BB151573  32.195  55.912  65.726
 7931DT     BB251574  32.302  56.200  65.537
 7931DT     BB351575  32.140  56.322  65.496
 7931DT     SC151576  32.052  56.156  65.312
 7931DT     SC251577  32.075  56.246  65.118
 7931DT     SC351578  31.895  55.985  65.187
 7932DT     BB151579  32.265  56.479  65.662
 7932DT     BB251580  32.235  56.666  65.355
 7932DT     BB351581  32.045  56.748  65.340
 7932DT     SC151582  31.941  56.514  65.281
 7932DT     SC251583  31.877  56.514  65.076
 7932DT     SC351584  31.794  56.296  65.301
 7933DT     BB151585  32.167  56.979  65.380
 7933DT     BB251586  31.990  57.017  65.067
 7933DT     BB351587  31.793  57.067  65.104
 7933DT     SC151588  31.737  56.821  65.177
 7933DT     SC251589  31.610  56.729  65.029
 7933DT     SC351590  31.665  56.617  65.328
 7934DT     BB151591  31.846  57.315  65.016
 7934DT     BB251592  31.573  57.201  64.809
 7934DT     BB351593  31.393  57.237  64.904
 7934DT     SC151594  31.432  57.038  65.070
 7934DT     SC251595  31.293  56.879  65.026
 7934DT     SC351596  31.471  56.907  65.296
 7935DT     BB151597  31.335  57.441  64.731
 7935DT     BB251598  31.054  57.217  64.702
 7935DT     BB351599  30.911  57.263  64.845
 7935DT     SC151600  31.057  57.156  65.036
 7935DT     SC251601  30.961  56.976  65.105
 7935DT     SC351602  31.201  57.135  65.255
 7936DT     BB151603  30.747  57.367  64.654
 7936DT     BB251604  30.549  57.110  64.813
 7936DT     BB351605  30.451  57.189  64.978
 7936DT     SC151606  30.673  57.193  65.118
 7936DT     SC251607  30.662  57.045  65.274
 7936DT     SC351608  30.878  57.285  65.256
 7937DC     BB151609  30.219  57.172  64.842
 7937DC     BB251610  30.165  56.977  65.140
 7937DC     BB351611  30.101  57.099  65.295
 7937DC     SC151612  30.343  57.197  65.327
 7937DC     SC251613  30.423  57.128  65.514
 7937DC     SC351614  30.541  57.371  65.335
 7938DT     BB151615  29.869  56.977  65.266
 7938DT     BB251616  29.963  56.921  65.609
 7938DT     BB351617  29.910  57.084  65.725
 7938DT     SC151618  30.108  57.226  65.629
 7938DT     SC251619  30.255  57.258  65.783
 7938DT     SC351620  30.237  57.418  65.502
 7939DT     BB151621  29.736  56.916  65.824
 7939DT     BB251622  29.927  57.033  66.107
 7939DT     BB351623  29.856  57.217  66.168
 7939DT     SC151624  29.969  57.337  65.963
 7939DT     SC251625  30.132  57.459  66.033
 7939DT     SC351626  29.994  57.474  65.740
 7940DA     BB151627  29.890  56.958  66.498
 7940DA     BB251628  30.034  57.282  66.591
 7940DA     BB351629  29.881  57.430  66.609
 7940DA     SC151630  29.899  57.520  66.312
 7940DA     SC251631  29.975  57.721  66.184
 7940DA     SC351632  29.828  57.630  65.994
 7940DA     SC451633  29.801  57.448  66.206
 7941DT     BB151634  29.842  57.505  66.790
 7941DT     BB251635  29.973  57.837  66.739
 7941DT     BB351636  29.818  57.970  66.708
 7941DT     SC151637  29.780  57.880  66.464
 7941DT     SC251638  29.840  58.030  66.322
 7941DT     SC351639  29.662  57.768  66.257
 7942DT     BB151640  29.834  58.086  66.961
 7942DT     BB251641  29.855  58.368  66.737
 7942DT     BB351642  29.665  58.439  66.694
 7942DT     SC151643  29.617  58.236  66.534
 7942DT     SC251644  29.609  58.305  66.331
 7942DT     SC351645  29.506  58.017  66.438
 7943DG     BB151646  29.828  58.773  66.871
 7943DG     BB251647  29.683  58.857  66.550
 7943DG     BB351648  29.487  58.885  66.569
 7943DG     SC151649  29.416  58.592  66.516
 7943DG     SC251650  29.268  58.488  66.279
 7943DG     SC351651  29.304  58.276  66.482
 7943DG     SC451652  29.411  58.490  66.639
 7944DA     BB151653  29.505  59.203  66.420
 7944DA     BB251654  29.287  59.093  66.147
 7944DA     BB351655  29.082  59.099  66.208
 7944DA     SC151656  29.080  58.806  66.313
 7944DA     SC251657  28.979  58.587  66.248
 7944DA     SC351658  29.022  58.518  66.491
 7944DA     SC451659  29.114  58.782  66.468
 7945DA     BB151660  29.056  59.282  65.938
 7945DA     BB251661  28.832  59.022  65.808
 7945DA     BB351662  28.639  59.038  65.899
 7945DA     SC151663  28.708  58.844  66.133
 7945DA     SC251664  28.645  58.615  66.208
 7945DA     SC351665  28.731  58.688  66.438
 7945DA     SC451666  28.765  58.909  66.269
 7946DA     BB151667  28.558  59.042  65.583
 7946DA     BB251668  28.368  58.735  65.650
 7946DA     BB351669  28.190  58.780  65.758
 7946DA     SC151670  28.322  58.745  66.037
 7946DA     SC251671  28.311  58.585  66.228
 7946DA     SC351672  28.412  58.775  66.368
 7946DA     SC451673  28.384  58.876  66.107
 7947DT     BB151674  28.027  58.745  65.663
 7947DT     BB251675  27.930  58.451  65.847
 7947DT     BB351676  27.784  58.499  65.985
 7947DT     SC151677  27.960  58.615  66.142
 7947DT     SC251678  27.985  58.497  66.320
 7947DT     SC351679  28.084  58.803  66.279
 7948DA     BB151680  27.635  58.174  65.764
 7948DA     BB251681  27.587  58.099  66.120
 7948DA     BB351682  27.428  58.218  66.200
 7948DA     SC151683  27.615  58.451  66.287
 7948DA     SC251684  27.699  58.551  66.499
 7948DA     SC351685  27.749  58.759  66.358
 7948DA     SC451686  27.637  58.572  66.182
 7949DT     BB151687  27.241  58.134  66.264
 7949DT     BB251688  27.300  58.167  66.619
 7949DT     BB351689  27.183  58.319  66.696
 7949DT     SC151690  27.337  58.503  66.590
 7949DT     SC251691  27.443  58.606  66.746
 7949DT     SC351692  27.415  58.705  66.438
 7950DA     BB151693  27.081  57.992  66.941
 7950DA     BB251694  27.163  58.272  67.162
 7950DA     BB351695  27.002  58.411  67.168
 7950DA     SC151696  27.108  58.583  66.932
 7950DA     SC251697  27.207  58.810  66.898
 7950DA     SC351698  27.137  58.781  66.653
 7950DA     SC451699  27.056  58.547  66.784
 7951DT     BB151700  26.878  58.449  67.349
 7951DT     BB251701  27.034  58.764  67.432
 7951DT     BB351702  26.901  58.919  67.399
 7951DT     SC151703  26.932  58.901  67.139
 7951DT     SC251704  27.038  59.075  67.068
 7951DT     SC351705  26.876  58.862  66.884
 7952DC     BB151706  26.866  58.960  67.669
 7952DC     BB251707  26.989  59.276  67.546
 7952DC     BB351708  26.830  59.395  67.486
 7952DC     SC151709  26.795  59.252  67.269
 7952DC     SC251710  26.851  59.369  67.097
 7952DC     SC351711  26.680  59.094  67.092
 7953DA     BB151712  27.071  59.618  67.746
 7953DA     BB251713  27.011  59.820  67.446
 7953DA     BB351714  26.811  59.894  67.445
 7953DA     SC151715  26.696  59.651  67.289
 7953DA     SC251716  26.603  59.604  67.063
 7953DA     SC351717  26.497  59.397  67.171
 7953DA     SC451718  26.638  59.528  67.375
 7954DT     BB151719  26.786  60.092  67.462
 7954DT     BB251720  26.696  60.153  67.118
 7954DT     BB351721  26.493  60.187  67.103
 7954DT     SC151722  26.440  59.932  67.137
 7954DT     SC251723  26.365  59.849  66.953
 7954DT     SC351724  26.348  59.710  67.245
 7955DA     BB151725  26.680  60.509  66.911
 7955DA     BB251726  26.421  60.380  66.685
 7955DA     BB351727  26.228  60.438  66.754
 7955DA     SC151728  26.186  60.183  66.927
 7955DA     SC251729  26.044  59.978  66.923
 7955DA     SC351730  26.098  59.961  67.174
 7955DA     SC451731  26.230  60.190  67.082
 7956DG     BB151732  26.202  60.588  66.481
 7956DG     BB251733  25.941  60.344  66.423
 7956DG     BB351734  25.770  60.407  66.503
 7956DG     SC151735  25.821  60.277  66.775
 7956DG     SC251736  25.666  60.050  66.893
 7956DG     SC351737  25.854  60.164  67.091
 7956DG     SC451738  25.901  60.359  66.887
 7957DA     BB151739  25.632  60.349  66.194
 7957DA     BB251740  25.405  60.103  66.342
 7957DA     BB351741  25.244  60.200  66.442
 7957DA     SC151742  25.390  60.212  66.716
 7957DA     SC251743  25.370  60.106  66.941
 7957DA     SC351744  25.509  60.305  67.025
 7957DA     SC451745  25.476  60.344  66.749
 7958DA     BB151746  25.110  59.986  66.243
 7958DA     BB251747  24.973  59.831  66.545
 7958DA     BB351748  24.818  59.953  66.628
 7958DA     SC151749  25.011  60.113  66.812
 7958DA     SC251750  25.058  60.134  67.056
 7958DA     SC351751  25.166  60.358  66.995
 7958DA     SC451752  25.072  60.250  66.755
 7959DA     BB151753  24.744  59.637  66.597
 7959DA     BB251754  24.686  59.651  66.959
 7959DA     BB351755  24.524  59.782  67.003
 7959DA     SC151756  24.704  60.034  67.034
 7959DA     SC251757  24.780  60.185  67.218
 7959DA     SC351758  24.830  60.353  67.031
 7959DA     SC451759  24.727  60.125  66.904
 7960DC     BB151760  24.477  59.659  67.070
 7960DC     BB251761  24.483  59.787  67.407
 7960DC     BB351762  24.332  59.926  67.433
 7960DC     SC151763  24.464  60.106  67.295
 7960DC     SC251764  24.530  60.263  67.427
 7960DC     SC351765  24.525  60.277  67.103
 7961DT     BB151766  24.307  59.726  67.584
 7961DT     BB251767  24.278  60.020  67.791
 7961DT     BB351768  24.106  60.125  67.742
 7961DT     SC151769  24.214  60.214  67.520
 7961DT     SC251770  24.248  60.426  67.538
 7961DT     SC351771  24.254  60.255  67.263
 7962DA     BB151772  24.118  60.077  68.163
 7962DA     BB251773  23.992  60.413  68.087
 7962DA     BB351774  23.800  60.401  67.994
 7962DA     SC151775  23.913  60.390  67.705
 7962DA     SC251776  23.920  60.537  67.503
 7962DA     SC351777  23.967  60.321  67.372
 7962DA     SC451778  23.940  60.245  67.641
 7963DC     BB151779  23.593  60.457  68.083
 7963DC     BB251780  23.526  60.747  67.879
 7963DC     BB351781  23.376  60.704  67.743
 7963DC     SC151782  23.538  60.560  67.596
 7963DC     SC251783  23.576  60.662  67.410
 7963DC     SC351784  23.643  60.351  67.473
 7964DT     BB151785  23.134  60.835  67.864
 7964DT     BB251786  23.138  60.972  67.530
 7964DT     BB351787  23.013  60.863  67.407
 7964DT     SC151788  23.184  60.665  67.395
 7964DT     SC251789  23.267  60.654  67.197
 7964DT     SC351790  23.288  60.424  67.424
 7965DA     BB151791  22.849  61.247  67.353
 7965DA     BB251792  22.908  61.109  67.018
 7965DA     BB351793  22.752  60.973  66.966
 7965DA     SC151794  22.898  60.724  67.081
 7965DA     SC251795  23.009  60.518  66.994
 7965DA     SC351796  22.975  60.424  67.231
 7965DA     SC451797  22.867  60.683  67.234
 7966DT     BB151798  22.616  61.015  66.807
 7966DT     BB251799  22.765  60.789  66.569
 7966DT     BB351800  22.641  60.626  66.538
 7966DT     SC151801  22.707  60.523  66.771
 7966DT     SC251802  22.824  60.346  66.739
 7966DT     SC351803  22.684  60.434  67.018
 7967DT     BB151804  22.595  60.727  66.296
 7967DT     BB251805  22.728  60.397  66.237
 7967DT     BB351806  22.577  60.256  66.248
 7967DT     SC151807  22.568  60.274  66.509
 7967DT     SC251808  22.643  60.091  66.596
 7967DT     SC351809  22.477  60.321  66.752
 7968DG     BB151810  22.773  60.232  65.892
 7968DG     BB251811  22.751  59.910  66.056
 7968DG     BB351812  22.566  59.838  66.039
 7968DG     SC151813  22.466  59.968  66.297
 7968DG     SC251814  22.383  59.824  66.545
 7968DG     SC351815  22.317  60.112  66.563
 7968DG     SC451816  22.406  60.116  66.291
 7969DT     BB151817  22.540  59.656  65.935
 7969DT     BB251818  22.460  59.423  66.198
 7969DT     BB351819  22.256  59.394  66.208
 7969DT     SC151820  22.219  59.629  66.319
 7969DT     SC251821  22.158  59.602  66.524
 7969DT     SC351822  22.138  59.878  66.354
 7970DA     BB151823  22.399  58.998  66.172
 7970DA     BB251824  22.150  58.998  66.440
 7970DA     BB351825  21.953  59.008  66.359
 7970DA     SC151826  21.941  59.319  66.365
 7970DA     SC251827  21.819  59.496  66.491
 7970DA     SC351828  21.880  59.649  66.294
 7970DA     SC451829  21.987  59.398  66.232
 7971DT     BB151830  21.760  58.835  66.341
 7971DT     BB251831  21.550  58.985  66.594
 7971DT     BB351832  21.377  59.057  66.508
 7971DT     SC151833  21.503  59.261  66.404
 7971DT     SC251834  21.442  59.442  66.503
 7971DT     SC351835  21.604  59.425  66.223
 7972DA     BB151836  21.168  58.794  66.776
 7972DA     BB251837  21.014  59.124  66.819
 7972DA     BB351838  20.866  59.157  66.669
 7972DA     SC151839  21.064  59.289  66.468
 7972DA     SC251840  21.106  59.515  66.372
 7972DA     SC351841  21.230  59.390  66.185
 7972DA     SC451842  21.135  59.193  66.360
 7973DC     BB151843  20.614  59.177  66.689
 7973DC     BB251844  20.614  59.537  66.664
 7973DC     BB351845  20.514  59.596  66.493
 7973DC     SC151846  20.715  59.523  66.340
 7973DC     SC251847  20.808  59.698  66.257
 7973DC     SC351848  20.854  59.393  66.158
 7974DA     BB151849  20.337  59.804  66.808
 7974DA     BB251850  20.438  60.049  66.555
 7974DA     BB351851  20.301  60.048  66.392
 7974DA     SC151852  20.459  59.834  66.230
 7974DA     SC251853  20.596  59.824  66.021
 7974DA     SC351854  20.550  59.572  66.028
 7974DA     SC451855  20.419  59.680  66.251
 7975DA     BB151856  20.321  60.356  66.484
 7975DA     BB251857  20.457  60.421  66.150
 7975DA     BB351858  20.302  60.408  66.003
 7975DA     SC151859  20.346  60.105  65.949
 7975DA     SC251860  20.432  59.961  65.765
 7975DA     SC351861  20.303  59.771  65.879
 7975DA     SC451862  20.258  60.000  66.034
 7976DG     BB151863  20.421  60.687  65.978
 7976DG     BB251864  20.515  60.560  65.652
 7976DG     BB351865  20.355  60.556  65.533
 7976DG     SC151866  20.273  60.272  65.613
 7976DG     SC251867  20.277  60.032  65.435
 7976DG     SC351868  20.143  59.971  65.691
 7976DG     SC451869  20.176  60.252  65.738
 7977DA     BB151870  20.586  60.714  65.333
 7977DA     BB251871  20.535  60.453  65.080
 7977DA     BB351872  20.341  60.472  64.993
 7977DA     SC151873  20.204  60.283  65.198
 7977DA     SC251874  20.101  60.056  65.199
 7977DA     SC351875  19.982  60.133  65.413
 7977DA     SC451876  20.138  60.350  65.328
 7978DG     BB151877  20.521  60.500  64.743
 7978DG     BB251878  20.347  60.199  64.643
 7978DG     BB351879  20.165  60.244  64.577
 7978DG     SC151880  20.032  60.221  64.852
 7978DG     SC251881  19.832  60.015  64.934
 7978DG     SC351882  19.859  60.224  65.141
 7978DG     SC451883  20.027  60.350  64.947
 7979DA     BB151884  20.241  60.060  64.292
 7979DA     BB251885  19.952  59.842  64.353
 7979DA     BB351886  19.771  59.942  64.299
 7979DA     SC151887  19.726  60.061  64.583
 7979DA     SC251888  19.567  60.030  64.773
 7979DA     SC351889  19.643  60.264  64.848
 7979DA     SC451890  19.785  60.208  64.612
 7980DA     BB151891  19.719  59.676  64.110
 7980DA     BB251892  19.415  59.616  64.306
 7980DA     BB351893  19.259  59.749  64.245
 7980DA     SC151894  19.334  59.969  64.452
 7980DA     SC251895  19.238  60.068  64.659
 7980DA     SC351896  19.392  60.268  64.611
 7980DA     SC451897  19.436  60.084  64.404
 7981DT     BB151898  19.083  59.680  64.146
 7981DT     BB251899  18.859  59.718  64.426
 7981DT     BB351900  18.733  59.879  64.394
 7981DT     SC151901  18.924  60.051  64.444
 7981DT     SC251902  18.884  60.151  64.630
 7981DT     SC351903  19.101  60.243  64.407
 7982DT     BB151904  18.517  59.713  64.348
 7982DT     BB251905  18.408  59.926  64.618
 7982DT     BB351906  18.321  60.098  64.542
 7982DT     SC151907  18.554  60.197  64.475
 7982DT     SC251908  18.600  60.364  64.602
 7982DT     SC351909  18.752  60.288  64.326
 7983DC     BB151910  18.066  60.014  64.611
 7983DC     BB251911  18.102  60.334  64.774
 7983DC     BB351912  18.040  60.486  64.647
 7983DC     SC151913  18.258  60.465  64.503
 7983DC     SC251914  18.380  60.640  64.533
 7983DC     SC351915  18.416  60.420  64.297
 7984DT     BB151916  17.805  60.530  64.788
 7984DT     BB251917  17.967  60.853  64.784
 7984DT     BB351918  17.909  60.959  64.616
 7984DT     SC151919  18.061  60.811  64.461
 7984DT     SC251920  18.225  60.929  64.389
 7984DT     SC351921  18.132  60.642  64.272
 7985DA     BB151922  17.822  61.222  64.932
 7985DA     BB251923  18.013  61.411  64.683
 7985DA     BB351924  17.889  61.463  64.518
 7985DA     SC151925  17.955  61.206  64.356
 7985DA     SC251926  18.080  61.145  64.148
 7985DA     SC351927  17.941  60.930  64.152
 7985DA     SC451928  17.858  61.079  64.374
 7986DA     BB151929  17.980  61.776  64.577
 7986DA     BB251930  18.135  61.778  64.245
 7986DA     BB351931  17.987  61.811  64.095
 7986DA     SC151932  17.929  61.508  64.052
 7986DA     SC251933  17.966  61.336  63.875
 7986DA     SC351934  17.779  61.204  63.993
 7986DA     SC451935  17.810  61.442  64.138
 7987DA     BB151936  18.185  62.057  64.009
 7987DA     BB251937  18.232  61.884  63.689
 7987DA     BB351938  18.065  61.917  63.562
 7987DA     SC151939  17.909  61.666  63.660
 7987DA     SC251940  17.842  61.444  63.570
 7987DA     SC351941  17.666  61.444  63.757
 7987DA     SC451942  17.806  61.686  63.782
 7988DT     BB151943  18.100  62.019  63.397
 7988DT     BB251944  18.093  61.737  63.173
 7988DT     BB351945  17.916  61.737  63.065
 7988DT     SC151946  17.779  61.655  63.273
 7988DT     SC251947  17.713  61.453  63.240
 7988DT     SC351948  17.604  61.654  63.470
 7989DT     BB151949  18.080  61.790  62.870
 7989DT     BB251950  17.914  61.484  62.777
 7989DT     BB351951  17.729  61.525  62.696
 7989DT     SC151952  17.629  61.581  62.932
 7989DT     SC251953  17.488  61.428  62.988
 7989DT     SC351954  17.520  61.718  63.130
 7990DA     BB151955  17.966  61.245  62.490
 7990DA     BB251956  17.626  61.113  62.523
 7990DA     BB351957  17.489  61.229  62.408
 7990DA     SC151958  17.423  61.425  62.641
 7990DA     SC251959  17.229  61.477  62.789
 7990DA     SC351960  17.347  61.702  62.829
 7990DA     SC451961  17.511  61.560  62.652
 7991DA     BB151962  17.446  60.908  62.350
 7991DA     BB251963  17.097  60.970  62.443
 7991DA     BB351964  17.005  61.103  62.303
 7991DA     SC151965  17.080  61.360  62.461
 7991DA     SC251966  16.964  61.536  62.594
 7991DA     SC351967  17.173  61.678  62.551
 7991DA     SC451968  17.218  61.433  62.422
 7992DT     BB151969  16.877  61.015  62.222
 7992DT     BB251970  16.595  61.192  62.360
 7992DT     BB351971  16.541  61.347  62.234
 7992DT     SC151972  16.747  61.491  62.309
 7992DT     SC251973  16.679  61.659  62.425
 7992DT     SC351974  16.975  61.624  62.297
 7993DA     BB151975  16.182  61.134  62.289
 7993DA     BB251976  16.104  61.490  62.326
 7993DA     BB351977  16.106  61.587  62.136
 7993DA     SC151978  16.407  61.664  62.151
 7993DA     SC251979  16.544  61.871  62.176
 7993DA     SC351980  16.735  61.731  62.077
 7993DA     SC451981  16.513  61.561  62.087
 7994DT     BB151982  15.923  61.673  62.016
 7994DT     BB251983  15.997  62.022  62.068
 7994DT     BB351984  16.057  62.109  61.890
 7994DT     SC151985  16.292  61.994  61.903
 7994DT     SC251986  16.443  62.143  61.941
 7994DT     SC351987  16.496  61.839  61.841
 7995DT     BB151988  15.814  62.258  61.819
 7995DT     BB251989  16.069  62.513  61.819
 7995DT     BB351990  16.144  62.538  61.627
 7995DT     SC151991  16.280  62.314  61.642
 7995DT     SC251992  16.490  62.359  61.650
 7995DT     SC351993  16.360  62.069  61.589
 7996DT     BB151994  16.014  62.788  61.567
 7996DT     BB251995  16.365  62.861  61.524
 7996DT     BB351996  16.419  62.834  61.327
 7996DT     SC151997  16.413  62.573  61.352
 7996DT     SC251998  16.613  62.494  61.341
 7996DT     SC351999  16.340  62.322  61.316
 7997DT     BB152000  16.444  63.104  61.288
 7997DT     BB252001  16.770  62.972  61.211
 7997DT     BB352002  16.780  62.920  61.011
 7997DT     SC152003  16.634  62.705  61.051
 7997DT     SC252004  16.756  62.530  61.027
 7997DT     SC352005  16.432  62.536  61.036
 7998DT     BB152006  16.945  63.126  60.987
 7998DT     BB252007  17.135  62.839  60.879
 7998DT     BB352008  17.095  62.798  60.680
 7998DT     SC152009  16.860  62.698  60.740
 7998DT     SC252010  16.863  62.486  60.706
 7998DT     SC352011  16.598  62.668  60.749
 7999DT     BB152012  17.342  62.878  60.652
 7999DT     BB252013  17.333  62.543  60.519
 7999DT     BB352014  17.258  62.546  60.326
 7999DT     SC152015  17.014  62.585  60.412
 7999DT     SC252016  16.896  62.409  60.376
 7999DT     SC352017  16.781  62.701  60.454
 8000DT     BB152018  17.504  62.482  60.267
 8000DT     BB252019  17.301  62.222  60.121
 8000DT     BB352020  17.222  62.287  59.942
 8000DT     SC152021  17.048  62.440  60.065
 8000DT     SC252022  16.850  62.359  60.038
 8000DT     SC352023  16.921  62.657  60.144
 8001DG     BB152024  17.432  61.944  59.871
 8001DG     BB252025  17.101  61.929  59.725
 8001DG     BB352026  17.095  62.038  59.559
 8001DG     SC152027  17.012  62.296  59.703
 8001DG     SC252028  16.750  62.436  59.675
 8001DG     SC352029  16.941  62.600  59.830
 8001DG     SC452030  17.126  62.393  59.759
 8002DA     BB152031  16.968  61.764  59.378
 8002DA     BB252032  16.670  61.957  59.284
 8002DA     BB352033  16.717  62.093  59.127
 8002DA     SC152034  16.793  62.326  59.318
 8002DA     SC252035  16.700  62.548  59.384
 8002DA     SC352036  16.938  62.601  59.464
 8002DA     SC452037  16.947  62.341  59.360
 8003DC     BB152038  16.641  62.078  58.917
 8003DC     BB252039  16.407  62.351  58.935
 8003DC     BB352040  16.474  62.510  58.821
 8003DC     SC152041  16.656  62.572  59.000
 8003DC     SC252042  16.603  62.758  59.094
 8003DC     SC352043  16.892  62.612  59.111
 8004DC     BB152044  16.291  62.474  58.609
 8004DC     BB252045  16.236  62.816  58.712
 8004DC     BB352046  16.357  62.942  58.601
 8004DC     SC152047  16.570  62.870  58.737
 8004DC     SC252048  16.635  63.034  58.860
 8004DC     SC352049  16.807  62.768  58.791
 8005DA     BB152050  15.969  63.096  58.559
 8005DA     BB252051  16.188  63.375  58.652
 8005DA     BB352052  16.307  63.435  58.485
 8005DA     SC152053  16.542  63.244  58.553
 8005DA     SC252054  16.778  63.262  58.634
 8005DA     SC352055  16.808  63.026  58.536
 8005DA     SC452056  16.542  63.098  58.485
 8006DT     BB152057  16.276  63.620  58.403
 8006DT     BB252058  16.575  63.776  58.531
 8006DT     BB352059  16.714  63.798  58.378
 8006DT     SC152060  16.771  63.542  58.383
 8006DT     SC252061  16.970  63.515  58.460
 8006DT     SC352062  16.794  63.292  58.304
 8007DT     BB152063  16.672  64.071  58.365
 8007DT     BB252064  17.028  64.040  58.418
 8007DT     BB352065  17.125  64.024  58.236
 8007DT     SC152066  17.045  63.776  58.206
 8007DT     SC252067  17.214  63.644  58.225
 8007DT     SC352068  16.923  63.565  58.106
 8008DA     BB152069  17.323  64.346  58.422
 8008DA     BB252070  17.582  64.120  58.293
 8008DA     BB352071  17.600  64.141  58.081
 8008DA     SC152072  17.391  63.920  58.017
 8008DA     SC252073  17.390  63.690  57.920
 8008DA     SC352074  17.141  63.731  57.876
 8008DA     SC452075  17.238  63.965  57.996
 8009DA     BB152076  17.930  64.214  58.108
 8009DA     BB252077  18.003  63.913  57.912
 8009DA     BB352078  17.984  63.954  57.703
 8009DA     SC152079  17.684  63.875  57.690
 8009DA     SC252080  17.545  63.692  57.593
 8009DA     SC352081  17.349  63.856  57.616
 8009DA     SC452082  17.575  63.992  57.711
 8010DA     BB152083  18.304  63.857  57.635
 8010DA     BB252084  18.168  63.584  57.432
 8010DA     BB352085  18.128  63.651  57.233
 8010DA     SC152086  17.835  63.736  57.295
 8010DA     SC252087  17.605  63.660  57.237
 8010DA     SC352088  17.531  63.897  57.304
 8010DA     SC452089  17.810  63.889  57.340
 8011DG     BB152090  18.341  63.449  57.101
 8011DG     BB252091  18.045  63.292  56.965
 8011DG     BB352092  18.004  63.368  56.786
 8011DG     SC152093  17.827  63.593  56.894
 8011DG     SC252094  17.532  63.620  56.852
 8011DG     SC352095  17.643  63.862  56.980
 8011DG     SC452096  17.894  63.732  56.935
 8012DT     BB152097  18.003  63.238  56.607
 8012DT     BB252098  17.648  63.194  56.563
 8012DT     BB352099  17.582  63.306  56.402
 8012DT     SC152100  17.601  63.529  56.539
 8012DT     SC252101  17.403  63.605  56.578
 8012DT     SC352102  17.681  63.769  56.613
 8013DA     BB152103  17.448  62.909  56.395
 8013DA     BB252104  17.161  63.131  56.346
 8013DA     BB352105  17.171  63.225  56.154
 8013DA     SC152106  17.330  63.472  56.257
 8013DA     SC252107  17.289  63.716  56.293
 8013DA     SC352108  17.545  63.738  56.289
 8013DA     SC452109  17.490  63.466  56.250
 8014DG     BB152110  16.903  63.077  56.164
 8014DG     BB252111  16.776  63.414  56.131
 8014DG     BB352112  16.803  63.478  55.945
 8014DG     SC152113  17.080  63.596  56.000
 8014DG     SC252114  17.152  63.886  55.995
 8014DG     SC352115  17.394  63.718  56.019
 8014DG     SC452116  17.209  63.503  55.983
 8015DA     BB152117  16.468  63.559  55.980
 8015DA     BB252118  16.548  63.908  55.898
 8015DA     BB352119  16.600  63.925  55.692
 8015DA     SC152120  16.904  63.880  55.739
 8015DA     SC252121  17.114  64.013  55.729
 8015DA     SC352122  17.233  63.786  55.712
 8015DA     SC452123  16.959  63.729  55.728
 8016DA     BB152124  16.362  64.157  55.692
 8016DA     BB252125  16.618  64.395  55.581
 8016DA     BB352126  16.664  64.365  55.375
 8016DA     SC152127  16.894  64.163  55.432
 8016DA     SC252128  17.143  64.156  55.413
 8016DA     SC352129  17.116  63.901  55.418
 8016DA     SC452130  16.857  64.006  55.435
 8017DA     BB152131  16.589  64.687  55.319
 8017DA     BB252132  16.935  64.735  55.207
 8017DA     BB352133  16.958  64.666  55.007
 8017DA     SC152134  17.038  64.377  55.090
 8017DA     SC252135  17.241  64.233  55.085
 8017DA     SC352136  17.078  64.036  55.106
 8017DA     SC452137  16.920  64.268  55.101
 8018DA     BB152138  17.072  64.969  54.914
 8018DA     BB252139  17.392  64.809  54.833
 8018DA     BB352140  17.384  64.722  54.638
 8018DA     SC152141  17.286  64.445  54.740
 8018DA     SC252142  17.376  64.213  54.761
 8018DA     SC352143  17.130  64.141  54.775
 8018DA     SC452144  17.127  64.420  54.746
 8019DT     BB152145  17.503  64.793  54.459
 8019DT     BB252146  17.747  64.527  54.476
 8019DT     BB352147  17.726  64.401  54.313
 8019DT     SC152148  17.509  64.293  54.415
 8019DT     SC252149  17.551  64.090  54.473
 8019DT     SC352150  17.257  64.223  54.442
 8020DT     BB152151  17.958  64.499  54.222
 8020DT     BB252152  18.014  64.146  54.271
 8020DT     BB352153  17.955  64.041  54.102
 8020DT     SC152154  17.701  64.073  54.161
 8020DT     SC252155  17.617  63.883  54.218
 8020DT     SC352156  17.450  64.150  54.143
 8021DG     BB152157  18.332  63.974  54.240
 8021DG     BB252158  18.139  63.670  54.209
 8021DG     BB352159  18.116  63.624  54.016
 8021DG     SC152160  17.856  63.782  53.984
 8021DG     SC252161  17.586  63.667  53.931
 8021DG     SC352162  17.582  63.962  53.907
 8021DG     SC452163  17.865  63.937  53.943
 8022DA     BB152164  18.203  63.347  54.209
 8022DA     BB252165  17.905  63.183  54.072
 8022DA     BB352166  17.922  63.165  53.860
 8022DA     SC152167  17.783  63.438  53.802
 8022DA     SC252168  17.568  63.519  53.705
 8022DA     SC352169  17.691  63.741  53.669
 8022DA     SC452170  17.877  63.567  53.786
 8023DG     BB152171  17.869  62.892  53.993
 8023DG     BB252172  17.576  62.910  53.782
 8023DG     BB352173  17.630  62.895  53.591
 8023DG     SC152174  17.667  63.197  53.552
 8023DG     SC252175  17.500  63.373  53.379
 8023DG     SC352176  17.737  63.518  53.480
 8023DG     SC452177  17.810  63.262  53.584
 8024DA     BB152178  17.372  62.663  53.603
 8024DA     BB252179  17.210  62.839  53.325
 8024DA     BB352180  17.325  62.817  53.146
 8024DA     SC152181  17.493  63.074  53.195
 8024DA     SC252182  17.516  63.302  53.096
 8024DA     SC352183  17.745  63.307  53.211
 8024DA     SC452184  17.633  63.058  53.273
 8025DT     BB152185  17.244  62.714  53.004
 8025DT     BB252186  17.179  62.986  52.775
 8025DT     BB352187  17.324  62.990  52.627
 8025DT     SC152188  17.502  63.089  52.793
 8025DT     SC252189  17.545  63.292  52.738
 8025DT     SC352190  17.719  63.109  52.941
 8026DG     BB152191  16.974  62.944  52.421
 8026DG     BB252192  17.170  63.215  52.284
 8026DG     BB352193  17.315  63.142  52.169
 8026DG     SC152194  17.518  63.120  52.397
 8026DG     SC252195  17.769  63.279  52.425
 8026DG     SC352196  17.759  63.063  52.627
 8026DG     SC452197  17.523  62.985  52.484
 8027DC     BB152198  17.338  63.174  51.936
 8027DC     BB252199  17.611  63.409  51.923
 8027DC     BB352200  17.783  63.314  51.858
 8027DC     SC152201  17.814  63.195  52.090
 8027DC     SC252202  17.986  63.278  52.190
 8027DC     SC352203  17.833  63.004  52.270
 8028DA     BB152204  17.749  63.637  51.591
 8028DA     BB252205  18.094  63.636  51.717
 8028DA     BB352206  18.207  63.482  51.623
 8028DA     SC152207  18.140  63.268  51.839
 8028DA     SC252208  18.259  63.145  52.021
 8028DA     SC352209  18.066  62.977  52.006
 8028DA     SC452210  18.011  63.174  51.814
 8029DT     BB152211  18.372  63.519  51.485
 8029DT     BB252212  18.637  63.433  51.714
 8029DT     BB352213  18.723  63.254  51.658
 8029DT     SC152214  18.517  63.118  51.747
 8029DT     SC252215  18.576  63.007  51.922
 8029DT     SC352216  18.305  62.961  51.749
 8030DT     BB152217  18.957  63.372  51.561
 8030DT     BB252218  19.073  63.139  51.811
 8030DT     BB352219  19.108  62.954  51.724
 8030DT     SC152220  18.851  62.904  51.708
 8030DT     SC252221  18.800  62.748  51.846
 8030DT     SC352222  18.614  62.855  51.603
 8031DA     BB152223  19.469  63.046  51.919
 8031DA     BB252224  19.372  62.708  52.022
 8031DA     BB352225  19.412  62.568  51.866
 8031DA     SC152226  19.131  62.596  51.735
 8031DA     SC252227  18.926  62.457  51.707
 8031DA     SC352228  18.870  62.616  51.513
 8031DA     SC452229  19.115  62.705  51.617
 8032DA     BB152230  19.579  62.417  52.104
 8032DA     BB252231  19.344  62.138  52.065
 8032DA     BB352232  19.394  62.024  51.892
 8032DA     SC152233  19.211  62.188  51.701
 8032DA     SC252234  19.000  62.155  51.573
 8032DA     SC352235  19.078  62.354  51.431
 8032DA     SC452236  19.278  62.313  51.623
 8033DG     BB152237  19.424  61.800  52.102
 8033DG     BB252238  19.140  61.661  51.926
 8033DG     BB352239  19.202  61.566  51.763
 8033DG     SC152240  19.185  61.812  51.582
 8033DG     SC252241  18.995  61.849  51.355
 8033DG     SC352242  19.197  62.065  51.360
 8033DG     SC452243  19.312  61.908  51.570
 8034DA     BB152244  19.006  61.316  51.894
 8034DA     BB252245  18.803  61.321  51.589
 8034DA     BB352246  18.909  61.231  51.428
 8034DA     SC152247  19.038  61.498  51.332
 8034DA     SC252248  19.018  61.652  51.137
 8034DA     SC352249  19.250  61.738  51.208
 8034DA     SC452250  19.182  61.536  51.391
 8035DA     BB152251  18.622  61.077  51.432
 8035DA     BB252252  18.578  61.203  51.090
 8035DA     BB352253  18.710  61.102  50.956
 8035DA     SC152254  18.941  61.308  50.990
 8035DA     SC252255  19.053  61.483  50.852
 8035DA     SC352256  19.247  61.460  51.019
 8035DA     SC452257  19.051  61.278  51.103
 8036DG     BB152258  18.436  61.035  50.831
 8036DG     BB252259  18.571  61.225  50.554
 8036DG     BB352260  18.699  61.113  50.451
 8036DG     SC152261  18.943  61.196  50.617
 8036DG     SC252262  19.174  61.357  50.520
 8036DG     SC352263  19.227  61.249  50.790
 8036DG     SC452264  18.979  61.112  50.749
 8037DA     BB152265  18.511  61.211  50.178
 8037DA     BB252266  18.812  61.354  50.024
 8037DA     BB352267  18.940  61.199  49.953
 8037DA     SC152268  19.101  61.175  50.218
 8037DA     SC252269  19.331  61.227  50.300
 8037DA     SC352270  19.279  61.061  50.489
 8037DA     SC452271  19.050  61.068  50.327
 8038DA     BB152272  18.915  61.376  49.677
 8038DA     BB252273  19.279  61.416  49.692
 8038DA     BB352274  19.376  61.235  49.636
 8038DA     SC152275  19.388  61.123  49.926
 8038DA     SC252276  19.562  61.077  50.099
 8038DA     SC352277  19.387  60.920  50.203
 8038DA     SC452278  19.267  61.029  49.975
 8039DG     BB152279  19.501  61.408  49.408
 8039DG     BB252280  19.810  61.331  49.580
 8039DG     BB352281  19.875  61.151  49.526
 8039DG     SC152282  19.723  61.002  49.747
 8039DG     SC252283  19.846  60.857  49.977
 8039DG     SC352284  19.555  60.806  49.964
 8039DG     SC452285  19.573  60.954  49.719
 8040DA     BB152286  20.181  61.297  49.451
 8040DA     BB252287  20.348  61.079  49.695
 8040DA     BB352288  20.372  60.883  49.615
 8040DA     SC152289  20.100  60.778  49.724
 8040DA     SC252290  20.021  60.619  49.898
 8040DA     SC352291  19.800  60.616  49.767
 8040DA     SC452292  19.972  60.789  49.628
 8041DT     BB152293  20.560  60.813  49.576
 8041DT     BB252294  20.579  60.584  49.855
 8041DT     BB352295  20.558  60.389  49.788
 8041DT     SC152296  20.301  60.421  49.751
 8041DT     SC252297  20.193  60.305  49.896
 8041DT     SC352298  20.068  60.438  49.628
 8042DA     BB152299  20.910  60.394  50.015
 8042DA     BB252300  20.708  60.110  50.130
 8042DA     BB352301  20.717  59.950  49.989
 8042DA     SC152302  20.469  60.046  49.828
 8042DA     SC252303  20.234  59.971  49.788
 8042DA     SC352304  20.244  60.121  49.580
 8042DA     SC452305  20.495  60.143  49.702
 8043DA     BB152306  20.806  59.787  50.257
 8043DA     BB252307  20.510  59.577  50.206
 8043DA     BB352308  20.544  59.438  50.047
 8043DA     SC152309  20.433  59.628  49.826
 8043DA     SC252310  20.235  59.640  49.676
 8043DA     SC352311  20.377  59.798  49.533
 8043DA     SC452312  20.538  59.723  49.750
 8044DC     BB152313  20.549  59.249  50.097
 8044DC     BB252314  20.229  59.156  49.958
 8044DC     BB352315  20.256  59.053  49.781
 8044DC     SC152316  20.318  59.273  49.653
 8044DC     SC252317  20.161  59.321  49.514
 8044DC     SC352318  20.459  59.449  49.516
 8045DA     BB152319  19.996  58.837  50.028
 8045DA     BB252320  19.849  58.848  49.692
 8045DA     BB352321  19.958  58.722  49.559
 8045DA     SC152322  20.154  58.946  49.468
 8045DA     SC252323  20.199  59.079  49.262
 8045DA     SC352324  20.429  59.124  49.366
 8045DA     SC452325  20.292  58.961  49.549
 8046DA     BB152326  19.654  58.606  49.508
 8046DA     BB252327  19.701  58.689  49.154
 8046DA     BB352328  19.835  58.551  49.062
 8046DA     SC152329  20.090  58.720  49.123
 8046DA     SC252330  20.257  58.854  48.996
 8046DA     SC352331  20.407  58.823  49.201
 8046DA     SC452332  20.169  58.688  49.259
 8047DT     BB152333  19.772  58.409  48.915
 8047DT     BB252334  19.931  58.557  48.627
 8047DT     BB352335  20.095  58.444  48.572
 8047DT     SC152336  20.236  58.534  48.774
 8047DT     SC252337  20.392  58.662  48.701
 8047DT     SC352338  20.374  58.537  48.999
 8048DA     BB152339  19.892  58.422  48.197
 8048DA     BB252340  20.241  58.502  48.117
 8048DA     BB352341  20.361  58.326  48.123
 8048DA     SC152342  20.435  58.358  48.424
 8048DA     SC252343  20.637  58.413  48.559
 8048DA     SC352344  20.512  58.303  48.754
 8048DA     SC452345  20.342  58.285  48.532
 8049DC     BB152346  20.493  58.154  47.934
 8049DC     BB252347  20.827  58.268  48.010
 8049DC     BB352348  20.940  58.111  48.084
 8049DC     SC152349  20.817  58.121  48.316
 8049DC     SC252350  20.953  58.194  48.466
 8049DC     SC352351  20.668  58.048  48.521
 8050DA     BB152352  21.226  58.145  47.751
 8050DA     BB252353  21.430  58.155  48.056
 8050DA     BB352354  21.484  57.958  48.115
 8050DA     SC152355  21.236  57.918  48.298
 8050DA     SC252356  21.187  57.900  48.542
 8050DA     SC352357  20.968  57.789  48.469
 8050DA     SC452358  21.106  57.850  48.233
 8051DG     BB152359  21.824  57.964  48.080
 8051DG     BB252360  21.820  57.959  48.442
 8051DG     BB352361  21.857  57.775  48.507
 8051DG     SC152362  21.563  57.689  48.509
 8051DG     SC252363  21.401  57.625  48.752
 8051DG     SC352364  21.254  57.555  48.505
 8051DG     SC452365  21.500  57.626  48.377
 8052DG     BB152366  22.114  57.894  48.666
 8052DG     BB252367  21.921  57.827  48.964
 8052DG     BB352368  21.955  57.641  49.027
 8052DG     SC152369  21.728  57.519  48.861
 8052DG     SC252370  21.479  57.394  48.970
 8052DG     SC352371  21.501  57.349  48.678
 8052DG     SC452372  21.758  57.471  48.711
 8053DA     BB152373  21.995  57.832  49.301
 8053DA     BB252374  21.717  57.651  49.456
 8053DA     BB352375  21.777  57.452  49.507
 8053DA     SC152376  21.689  57.330  49.235
 8053DA     SC252377  21.511  57.177  49.150
 8053DA     SC352378  21.666  57.143  48.948
 8053DA     SC452379  21.799  57.321  49.118
 8054DA     BB152380  21.622  57.621  49.740
 8054DA     BB252381  21.380  57.347  49.727
 8054DA     BB352382  21.471  57.164  49.787
 8054DA     SC152383  21.558  57.085  49.499
 8054DA     SC252384  21.497  56.913  49.328
 8054DA     SC352385  21.727  56.964  49.225
 8054DA     SC452386  21.705  57.129  49.451
 8055DT     BB152387  21.374  57.139  49.910
 8055DT     BB252388  21.194  56.859  49.771
 8055DT     BB352389  21.298  56.683  49.808
 8055DT     SC152390  21.476  56.740  49.625
 8055DT     SC252391  21.454  56.605  49.459
 8055DT     SC352392  21.709  56.797  49.514
 8056DT     BB152393  21.082  56.661  49.944
 8056DT     BB252394  21.097  56.371  49.729
 8056DT     BB352395  21.237  56.237  49.800
 8056DT     SC152396  21.435  56.388  49.715
 8056DT     SC252397  21.533  56.290  49.550
 8056DT     SC352398  21.649  56.542  49.719
 8057DT     BB152399  21.024  56.099  49.851
 8057DT     BB252400  21.234  55.882  49.654
 8057DT     BB352401  21.382  55.799  49.773
 8057DT     SC152402  21.514  56.025  49.779
 8057DT     SC252403  21.696  56.004  49.667
 8057DT     SC352404  21.627  56.244  49.873
 8058DT     BB152405  21.251  55.567  49.754
 8058DT     BB252406  21.589  55.489  49.655
 8058DT     BB352407  21.706  55.455  49.822
 8058DT     SC152408  21.715  55.711  49.877
 8058DT     SC252409  21.915  55.784  49.843
 8058DT     SC352410  21.681  55.939  50.005
 8059DT     BB152411  21.713  55.177  49.790
 8059DT     BB252412  22.061  55.265  49.821
 8059DT     BB352413  22.117  55.264  50.021
 8059DT     SC152414  21.992  55.490  50.065
 8059DT     SC252415  22.136  55.645  50.102
 8059DT     SC352416  21.818  55.662  50.164
 8060DT     BB152417  22.263  55.006  50.043
 8060DT     BB252418  22.500  55.240  50.180
 8060DT     BB352419  22.481  55.247  50.386
 8060DT     SC152420  22.259  55.387  50.368
 8060DT     SC252421  22.295  55.587  50.438
 8060DT     SC352422  22.005  55.452  50.390
 8061DG     BB152423  22.873  55.086  50.421
 8061DG     BB252424  22.849  55.383  50.625
 8061DG     BB352425  22.786  55.335  50.808
 8061DG     SC152426  22.489  55.367  50.740
 8061DG     SC252427  22.306  55.575  50.850
 8061DG     SC352428  22.155  55.372  50.696
 8061DG     SC452429  22.409  55.241  50.683
 8062DG     BB152430  23.053  55.420  51.045
 8062DG     BB252431  22.833  55.675  51.176
 8062DG     BB352432  22.744  55.609  51.342
 8062DG     SC152433  22.504  55.488  51.195
 8062DG     SC252434  22.222  55.583  51.212
 8062DG     SC352435  22.238  55.327  51.064
 8062DG     SC452436  22.514  55.337  51.143
 8063DT     BB152437  22.758  55.692  51.600
 8063DT     BB252438  22.451  55.881  51.607
 8063DT     BB352439  22.318  55.795  51.740
 8063DT     SC152440  22.266  55.598  51.574
 8063DT     SC252441  22.065  55.618  51.500
 8063DT     SC352442  22.252  55.355  51.474
 8064DA     BB152443  22.354  56.199  51.829
 8064DA     BB252444  21.998  56.124  51.789
 8064DA     BB352445  21.924  56.019  51.960
 8064DA     SC152446  21.985  55.737  51.843
 8064DA     SC252447  21.856  55.541  51.758
 8064DA     SC352448  22.071  55.407  51.801
 8064DA     SC452449  22.127  55.671  51.878
 8065DG     BB152450  21.753  56.269  51.940
 8065DG     BB252451  21.494  56.025  51.877
 8065DG     BB352452  21.438  55.940  52.048
 8065DG     SC152453  21.645  55.714  52.033
 8065DG     SC252454  21.585  55.424  51.995
 8065DG     SC352455  21.871  55.466  52.058
 8065DG     SC452456  21.790  55.738  52.095
 8066DT     BB152457  21.246  55.968  52.083
 8066DT     BB252458  21.105  55.641  52.027
 8066DT     BB352459  21.086  55.541  52.207
 8066DT     SC152460  21.344  55.496  52.218
 8066DT     SC252461  21.381  55.286  52.190
 8066DT     SC352462  21.594  55.503  52.303
 8067DT     BB152463  20.824  55.576  52.176
 8067DT     BB252464  20.864  55.220  52.220
 8067DT     BB352465  20.873  55.174  52.422
 8067DT     SC152466  21.118  55.267  52.439
 8067DT     SC252467  21.254  55.103  52.471
 8067DT     SC352468  21.322  55.417  52.512
 8068DC     BB152469  20.617  55.068  52.425
 8068DC     BB252470  20.820  54.804  52.563
 8068DC     BB352471  20.834  54.826  52.769
 8068DC     SC152472  21.002  55.027  52.743
 8068DC     SC252473  21.197  54.965  52.810
 8068DC     SC352474  21.101  55.270  52.757
 8069DA     BB152475  20.686  54.432  52.744
 8069DA     BB252476  20.969  54.424  52.977
 8069DA     BB352477  20.910  54.499  53.168
 8069DA     SC152478  20.988  54.793  53.103
 8069DA     SC252479  21.162  54.958  53.173
 8069DA     SC352480  21.000  55.136  53.083
 8069DA     SC452481  20.874  54.889  53.043
 8070DC     BB152482  20.885  54.378  53.377
 8070DC     BB252483  21.188  54.504  53.528
 8070DC     BB352484  21.142  54.624  53.690
 8070DC     SC152485  21.065  54.820  53.533
 8070DC     SC252486  21.205  54.982  53.547
 8070DC     SC352487  20.909  54.998  53.418
 8071DA     BB152488  21.405  54.342  53.853
 8071DA     BB252489  21.530  54.673  53.947
 8071DA     BB352490  21.417  54.751  54.111
 8071DA     SC152491  21.209  54.895  53.930
 8071DA     SC252492  21.147  55.129  53.869
 8071DA     SC352493  20.922  55.029  53.797
 8071DA     SC452494  21.075  54.814  53.891
 8072DA     BB152495  21.725  54.774  54.210
 8072DA     BB252496  21.670  55.136  54.217
 8072DA     BB352497  21.546  55.189  54.383
 8072DA     SC152498  21.280  55.163  54.223
 8072DA     SC252499  21.102  55.315  54.135
 8072DA     SC352500  20.956  55.104  54.126
 8072DA     SC452501  21.204  55.021  54.226
 8073DA     BB152502  21.809  55.378  54.396
 8073DA     BB252503  21.574  55.658  54.360
 8073DA     BB352504  21.458  55.680  54.538
 8073DA     SC152505  21.230  55.492  54.441
 8073DA     SC252506  20.991  55.513  54.370
 8073DA     SC352507  20.975  55.262  54.423
 8073DA     SC452508  21.239  55.337  54.481
 8074DT     BB152509  21.499  55.836  54.598
 8074DT     BB252510  21.189  56.000  54.513
 8074DT     BB352511  21.060  55.995  54.675
 8074DT     SC152512  21.008  55.741  54.636
 8074DT     SC252513  20.805  55.719  54.567
 8074DT     SC352514  20.995  55.481  54.678
 8075DC     BB152515  21.111  56.249  54.666
 8075DC     BB252516  20.752  56.219  54.639
 8075DC     BB352517  20.670  56.184  54.825
 8075DC     SC152518  20.753  55.935  54.823
 8075DC     SC252519  20.584  55.803  54.805
 8075DC     SC352520  20.883  55.716  54.892
 8076DC     BB152521  20.578  56.426  54.795
 8076DC     BB252522  20.288  56.220  54.856
 8076DC     BB352523  20.269  56.184  55.059
 8076DC     SC152524  20.467  56.012  55.054
 8076DC     SC252525  20.390  55.814  55.086
 8076DC     SC352526  20.701  55.902  55.105
 8077DA     BB152527  19.899  56.324  54.915
 8077DA     BB252528  19.836  56.030  55.124
 8077DA     BB352529  19.871  56.076  55.330
 8077DA     SC152530  20.170  55.992  55.323
 8077DA     SC252531  20.313  55.810  55.416
 8077DA     SC352532  20.509  55.970  55.374
 8077DA     SC452533  20.279  56.107  55.291
 8078DT     BB152534  19.714  56.078  55.461
 8078DT     BB252535  19.796  55.776  55.639
 8078DT     BB352536  19.878  55.822  55.823
 8078DT     SC152537  20.106  55.893  55.713
 8078DT     SC252538  20.257  55.749  55.764
 8078DT     SC352539  20.309  56.043  55.638
 8079DT     BB152540  19.650  55.751  55.967
 8079DT     BB252541  19.912  55.554  56.118
 8079DT     BB352542  20.001  55.660  56.272
 8079DT     SC152543  20.129  55.814  56.103
 8079DT     SC252544  20.339  55.770  56.111
 8079DT     SC352545  20.205  56.031  55.973
 8080DA     BB152546  19.889  55.302  56.463
 8080DA     BB252547  20.240  55.365  56.548
 8080DA     BB352548  20.254  55.518  56.696
 8080DA     SC152549  20.275  55.749  56.489
 8080DA     SC252550  20.448  55.911  56.410
 8080DA     SC352551  20.249  56.049  56.324
 8080DA     SC452552  20.139  55.821  56.445
 8081DA     BB152553  20.427  55.302  56.883
 8081DA     BB252554  20.713  55.531  56.859
 8081DA     BB352555  20.692  55.691  56.999
 8081DA     SC152556  20.540  55.877  56.801
 8081DA     SC252557  20.584  56.089  56.677
 8081DA     SC352558  20.329  56.107  56.659
 8081DA     SC452559  20.380  55.871  56.802
 8082DT     BB152560  20.825  55.720  57.174
 8082DT     BB252561  21.013  55.994  57.032
 8082DT     BB352562  20.968  56.169  57.132
 8082DT     SC152563  20.734  56.186  57.013
 8082DT     SC252564  20.736  56.351  56.876
 8082DT     SC352565  20.473  56.194  56.980
 8083DT     BB152566  21.214  56.174  57.258
 8083DT     BB252567  21.200  56.486  57.076
 8083DT     BB352568  21.115  56.633  57.195
 8083DT     SC152569  20.875  56.532  57.163
 8083DT     SC252570  20.757  56.665  57.043
 8083DT     SC352571  20.644  56.419  57.221
 8084DT     BB152572  21.359  56.743  57.208
 8084DT     BB252573  21.148  56.999  57.066
 8084DT     BB352574  21.055  57.106  57.218
 8084DT     SC152575  20.889  56.908  57.266
 8084DT     SC252576  20.691  56.965  57.204
 8084DT     SC352577  20.766  56.713  57.393
 8085DT     BB152578  21.214  57.301  57.140
 8085DT     BB252579  20.880  57.433  57.110
 8085DT     BB352580  20.814  57.502  57.294
 8085DT     SC152581  20.777  57.258  57.381
 8085DT     SC252582  20.566  57.221  57.402
 8085DT     SC352583  20.803  57.039  57.526
 8086DC     BB152584  20.837  57.742  57.185
 8086DC     BB252585  20.495  57.724  57.298
 8086DC     BB352586  20.485  57.771  57.499
 8086DC     SC152587  20.585  57.538  57.567
 8086DC     SC252588  20.433  57.419  57.662
 8086DC     SC352589  20.751  57.358  57.666
 8087DT     BB152590  20.369  58.003  57.430
 8087DT     BB252591  20.138  57.854  57.663
 8087DT     BB352592  20.194  57.901  57.857
 8087DT     SC152593  20.393  57.730  57.849
 8087DT     SC252594  20.350  57.564  57.980
 8087DT     SC352595  20.639  57.635  57.852
 8088DT     BB152596  19.987  58.082  57.887
 8088DT     BB252597  19.947  57.859  58.168
 8088DT     BB352598  20.059  57.927  58.329
 8088DT     SC152599  20.282  57.846  58.217
 8088DT     SC252600  20.361  57.678  58.327
 8088DT     SC352601  20.522  57.854  58.107
 8089DT     BB152602  19.843  58.031  58.483
 8089DT     BB252603  20.006  57.807  58.713
 8089DT     BB352604  20.148  57.909  58.823
 8089DT     SC152605  20.312  57.919  58.619
 8089DT     SC252606  20.482  57.792  58.657
 8089DT     SC352607  20.461  58.018  58.425
 8090DT     BB152608  20.006  57.934  59.079
 8090DT     BB252609  20.317  57.775  59.173
 8090DT     BB352610  20.454  57.918  59.234
 8090DT     SC152611  20.495  57.995  58.986
 8090DT     SC252612  20.693  57.937  58.926
 8090DT     SC352613  20.502  58.148  58.771
 8091DA     BB152614  20.450  57.669  59.573
 8091DA     BB252615  20.801  57.715  59.480
 8091DA     BB352616  20.873  57.903  59.550
 8091DA     SC152617  20.796  58.056  59.290
 8091DA     SC252618  20.914  58.165  59.099
 8091DA     SC352619  20.694  58.292  59.062
 8091DA     SC452620  20.652  58.126  59.285
 8092DA     BB152621  21.109  57.729  59.700
 8092DA     BB252622  21.351  57.901  59.485
 8092DA     BB352623  21.396  58.094  59.563
 8092DA     SC152624  21.170  58.237  59.403
 8092DA     SC252625  21.152  58.398  59.213
 8092DA     SC352626  20.916  58.445  59.303
 8092DA     SC452627  21.027  58.254  59.475
 8093DT     BB152628  21.586  58.133  59.631
 8093DT     BB252629  21.690  58.330  59.347
 8093DT     BB352630  21.701  58.529  59.400
 8093DT     SC152631  21.440  58.552  59.399
 8093DT     SC252632  21.380  58.676  59.234
 8093DT     SC352633  21.194  58.592  59.486
 8094DT     BB152634  21.969  58.509  59.383
 8094DT     BB252635  21.882  58.770  59.150
 8094DT     BB352636  21.871  58.952  59.248
 8094DT     SC152637  21.642  58.888  59.359
 8094DT     SC252638  21.486  59.008  59.273
 8094DT     SC352639  21.463  58.831  59.544
 8095DA     BB152640  22.114  58.990  58.910
 8095DA     BB252641  21.874  59.267  58.909
 8095DA     BB352642  21.924  59.410  59.059
 8095DA     SC152643  21.750  59.275  59.279
 8095DA     SC252644  21.541  59.325  59.405
 8095DA     SC352645  21.627  59.154  59.576
 8095DA     SC452646  21.821  59.167  59.375
 8096DT     BB152647  21.977  59.582  58.992
 8096DT     BB252648  21.678  59.761  59.085
 8096DT     BB352649  21.713  59.873  59.256
 8096DT     SC152650  21.706  59.658  59.407
 8096DT     SC252651  21.529  59.662  59.529
 8096DT     SC352652  21.786  59.468  59.572
 8097DG     BB152653  21.588  60.130  58.966
 8097DG     BB252654  21.396  60.171  59.269
 8097DG     BB352655  21.500  60.276  59.402
 8097DG     SC152656  21.633  60.031  59.528
 8097DG     SC252657  21.587  59.931  59.806
 8097DG     SC352658  21.812  59.787  59.677
 8097DG     SC452659  21.770  59.977  59.467
 8098DT     BB152660  21.428  60.473  59.472
 8098DT     BB252661  21.318  60.396  59.807
 8098DT     BB352662  21.457  60.464  59.945
 8098DT     SC152663  21.621  60.268  59.887
 8098DT     SC252664  21.632  60.133  60.054
 8098DT     SC352665  21.837  60.142  59.803
 8099DA     BB152666  21.087  60.619  60.065
 8099DA     BB252667  21.247  60.473  60.361
 8099DA     BB352668  21.405  60.599  60.429
 8099DA     SC152669  21.623  60.459  60.257
 8099DA     SC252670  21.821  60.312  60.294
 8099DA     SC352671  21.896  60.389  60.061
 8099DA     SC452672  21.653  60.519  60.111
 8100DG     BB152673  21.239  60.614  60.692
 8100DG     BB252674  21.529  60.451  60.834
 8100DG     BB352675  21.669  60.586  60.876
 8100DG     SC152676  21.803  60.569  60.602
 8100DG     SC252677  22.076  60.463  60.547
 8100DG     SC352678  21.962  60.591  60.305
 8100DG     SC452679  21.751  60.664  60.484
 8101DA     BB152680  21.683  60.458  61.200
 8101DA     BB252681  22.040  60.383  61.160
 8101DA     BB352682  22.156  60.561  61.180
 8101DA     SC152683  22.149  60.629  60.877
 8101DA     SC252684  22.308  60.634  60.685
 8101DA     SC352685  22.136  60.790  60.574
 8101DA     SC452686  22.031  60.726  60.825
 8102DT     BB152687  22.285  60.588  61.343
 8102DT     BB252688  22.594  60.542  61.164
 8102DT     BB352689  22.690  60.724  61.140
 8102DT     SC152690  22.521  60.798  60.954
 8102DT     SC252691  22.621  60.804  60.764
 8102DT     SC352692  22.332  60.935  60.830
 8103DC     BB152693  22.885  60.667  61.331
 8103DC     BB252694  23.075  60.746  61.034
 8103DC     BB352695  23.115  60.949  61.028
 8103DC     SC152696  22.867  61.004  60.960
 8103DC     SC252697  22.863  61.074  60.757
 8103DC     SC352698  22.622  61.101  60.973
 8104DT     BB152699  23.383  60.915  61.093
 8104DT     BB252700  23.391  61.098  60.781
 8104DT     BB352701  23.390  61.301  60.819
 8104DT     SC152702  23.135  61.297  60.882
 8104DT     SC252703  23.022  61.399  60.729
 8104DT     SC352704  22.915  61.318  61.024
 8105DT     BB152705  23.653  61.322  60.745
 8105DT     BB252706  23.482  61.554  60.529
 8105DT     BB352707  23.468  61.740  60.620
 8105DT     SC152708  23.280  61.654  60.782
 8105DT     SC252709  23.093  61.749  60.730
 8105DT     SC352710  23.155  61.588  61.005
 8106DT     BB152711  23.654  61.838  60.448
 8106DT     BB252712  23.368  62.054  60.406
 8106DT     BB352713  23.375  62.208  60.544
 8106DT     SC152714  23.302  62.047  60.738
 8106DT     SC252715  23.103  62.097  60.802
 8106DT     SC352716  23.312  61.909  60.962
 8107DT     BB152717  23.440  62.386  60.347
 8107DT     BB252718  23.145  62.527  60.499
 8107DT     BB352719  23.198  62.646  60.660
 8107DT     SC152720  23.250  62.436  60.809
 8107DT     SC252721  23.102  62.420  60.964
 8107DT     SC352722  23.385  62.262  60.954
 8108DT     BB152723  23.140  62.877  60.521
 8108DT     BB252724  22.941  62.904  60.820
 8108DT     BB352725  23.050  62.995  60.970
 8108DT     SC152726  23.192  62.778  61.010
 8108DT     SC252727  23.141  62.692  61.200
 8108DT     SC352728  23.400  62.616  61.021
 8109DA     BB152729  22.703  63.231  60.952
 8109DA     BB252730  22.760  63.152  61.305
 8109DA     BB352731  22.918  63.273  61.383
 8109DA     SC152732  23.142  63.068  61.314
 8109DA     SC252733  23.296  62.914  61.436
 8109DA     SC352734  23.436  62.917  61.220
 8109DA     SC452735  23.215  63.083  61.171
 8110DT     BB152736  22.896  63.440  61.538
 8110DT     BB252737  23.039  63.258  61.815
 8110DT     BB352738  23.222  63.340  61.867
 8110DT     SC152739  23.338  63.233  61.656
 8110DT     SC252740  23.472  63.078  61.720
 8110DT     SC352741  23.464  63.215  61.426
 8111DG     BB152742  23.014  63.394  62.217
 8111DG     BB252743  23.326  63.222  62.281
 8111DG     BB352744  23.474  63.354  62.298
 8111DG     SC152745  23.542  63.353  62.000
 8111DG     SC252746  23.795  63.250  61.878
 8111DG     SC352747  23.631  63.392  61.677
 8111DG     SC452748  23.466  63.455  61.902
 8112DA     BB152749  23.569  63.225  62.610
 8112DA     BB252750  23.898  63.132  62.478
 8112DA     BB352751  24.029  63.300  62.480
 8112DA     SC152752  23.953  63.393  62.193
 8112DA     SC252753  24.061  63.404  61.968
 8112DA     SC352754  23.881  63.578  61.913
 8112DA     SC452755  23.834  63.500  62.179
 8113DT     BB152756  24.204  63.309  62.609
 8113DT     BB252757  24.446  63.245  62.350
 8113DT     BB352758  24.556  63.416  62.312
 8113DT     SC152759  24.356  63.527  62.184
 8113DT     SC252760  24.403  63.539  61.975
 8113DT     SC352761  24.163  63.697  62.125
 8114DA     BB152762  24.821  63.101  62.378
 8114DA     BB252763  24.921  63.267  62.067
 8114DA     BB352764  25.017  63.453  62.110
 8114DA     SC152765  24.753  63.619  62.100
 8114DA     SC252766  24.648  63.790  61.952
 8114DA     SC352767  24.504  63.848  62.156
 8114DA     SC452768  24.674  63.641  62.238
 8115DT     BB152769  25.200  63.458  62.058
 8115DT     BB252770  25.158  63.670  61.769
 8115DT     BB352771  25.219  63.863  61.814
 8115DT     SC152772  25.003  63.907  61.955
 8115DT     SC252773  24.878  64.049  61.852
 8115DT     SC352774  24.848  63.959  62.162
 8116DG     BB152775  25.413  63.716  61.489
 8116DG     BB252776  25.265  64.039  61.422
 8116DG     BB352777  25.375  64.182  61.507
 8116DG     SC152778  25.222  64.175  61.772
 8116DG     SC252779  25.050  64.394  61.881
 8116DG     SC352780  25.090  64.181  62.082
 8116DG     SC452781  25.270  64.075  61.887
 8117DT     BB152782  25.453  64.318  61.377
 8117DT     BB252783  25.261  64.616  61.444
 8117DT     BB352784  25.367  64.741  61.570
 8117DT     SC152785  25.317  64.587  61.777
 8117DT     SC252786  25.182  64.688  61.910
 8117DT     SC352787  25.357  64.425  61.981
 8118DG     BB152788  25.272  64.947  61.232
 8118DG     BB252789  25.189  65.136  61.529
 8118DG     BB352790  25.354  65.213  61.609
 8118DG     SC152791  25.410  64.971  61.788
 8118DG     SC252792  25.398  64.967  62.086
 8118DG     SC352793  25.512  64.715  61.981
 8118DG     SC452794  25.497  64.850  61.730
 8119DA     BB152795  25.207  65.534  61.609
 8119DA     BB252796  25.263  65.567  61.970
 8119DA     BB352797  25.468  65.612  62.010
 8119DA     SC152798  25.553  65.313  62.036
 8119DA     SC252799  25.628  65.158  62.217
 8119DA     SC352800  25.723  65.015  62.026
 8119DA     SC452801  25.606  65.239  61.904
 8120DT     BB152802  25.568  65.818  62.087
 8120DT     BB252803  25.656  65.709  62.419
 8120DT     BB352804  25.862  65.696  62.437
 8120DT     SC152805  25.869  65.476  62.296
 8120DT     SC252806  25.922  65.311  62.423
 8120DT     SC352807  25.924  65.309  62.099
 8121DA     BB152808  25.827  65.981  62.759
 8121DA     BB252809  26.046  65.717  62.888
 8121DA     BB352810  26.247  65.749  62.825
 8121DA     SC152811  26.218  65.581  62.564
 8121DA     SC252812  26.302  65.364  62.474
 8121DA     SC352813  26.242  65.460  62.244
 8121DA     SC452814  26.175  65.659  62.430
 8122DT     BB152815  26.470  65.822  62.951
 8122DT     BB252816  26.618  65.493  62.949
 8122DT     BB352817  26.792  65.494  62.837
 8122DT     SC152818  26.657  65.502  62.613
 8122DT     SC252819  26.679  65.315  62.509
 8122DT     SC352820  26.565  65.590  62.382
 8123DC     BB152821  26.992  65.487  63.052
 8123DC     BB252822  27.071  65.195  62.855
 8123DC     BB352823  27.220  65.240  62.718
 8123DC     SC152824  27.052  65.374  62.567
 8123DC     SC252825  27.019  65.266  62.384
 8123DC     SC352826  26.939  65.575  62.439
 8124DT     BB152827  27.420  65.098  62.855
 8124DT     BB252828  27.413  64.946  62.528
 8124DT     BB352829  27.548  65.041  62.403
 8124DT     SC152830  27.391  65.250  62.378
 8124DT     SC252831  27.313  65.257  62.178
 8124DT     SC352832  27.304  65.498  62.394
 8125DT     BB152833  27.714  64.823  62.410
 8125DT     BB252834  27.643  64.869  62.060
 8125DT     BB352835  27.780  65.000  61.976
 8125DT     SC152836  27.664  65.206  62.091
 8125DT     SC252837  27.568  65.326  61.940
 8125DT     SC352838  27.629  65.416  62.246
 8126DG     BB152839  27.811  64.653  61.764
 8126DG     BB252840  27.761  64.936  61.544
 8126DG     BB352841  27.933  65.033  61.519
 8126DG     SC152842  27.891  65.220  61.758
 8126DG     SC252843  27.847  65.515  61.744
 8126DG     SC352844  27.887  65.428  62.023
 8126DG     SC452845  27.941  65.174  61.902
 8127DG     BB152846  27.924  64.986  61.190
 8127DG     BB252847  27.906  65.346  61.159
 8127DG     BB352848  28.089  65.424  61.161
 8127DG     SC152849  28.098  65.457  61.465
 8127DG     SC252850  28.105  65.717  61.613
 8127DG     SC352851  28.150  65.490  61.797
 8127DG     SC452852  28.151  65.336  61.555
 8128DA     BB152853  28.032  65.595  60.859
 8128DA     BB252854  28.085  65.917  61.025
 8128DA     BB352855  28.294  65.958  61.043
 8128DA     SC152856  28.322  65.823  61.322
 8128DA     SC252857  28.363  65.894  61.557
 8128DA     SC352858  28.434  65.650  61.596
 8128DA     SC452859  28.363  65.668  61.325
 8129DA     BB152860  28.230  66.240  60.884
 8129DA     BB252861  28.337  66.417  61.187
 8129DA     BB352862  28.550  66.430  61.194
 8129DA     SC152863  28.586  66.163  61.351
 8129DA     SC252864  28.656  66.092  61.579
 8129DA     SC352865  28.699  65.863  61.472
 8129DA     SC452866  28.608  66.029  61.265
 8130DG     BB152867  28.498  66.733  61.191
 8130DG     BB252868  28.633  66.712  61.526
 8130DG     BB352869  28.832  66.721  61.519
 8130DG     SC152870  28.869  66.418  61.493
 8130DG     SC252871  28.992  66.238  61.697
 8130DG     SC352872  28.945  66.093  61.443
 8130DG     SC452873  28.870  66.352  61.347
 8131DT     BB152874  28.908  66.876  61.623
 8131DT     BB252875  29.035  66.711  61.917
 8131DT     BB352876  29.240  66.684  61.901
 8131DT     SC152877  29.209  66.489  61.728
 8131DT     SC252878  29.266  66.303  61.820
 8131DT     SC352879  29.221  66.353  61.503
 8132DA     BB152880  29.086  66.828  62.268
 8132DA     BB252881  29.323  66.556  62.334
 8132DA     BB352882  29.520  66.614  62.277
 8132DA     SC152883  29.495  66.506  61.986
 8132DA     SC252884  29.589  66.320  61.850
 8132DA     SC352885  29.518  66.460  61.647
 8132DA     SC452886  29.444  66.608  61.873
 8133DA     BB152887  29.522  66.486  62.580
 8133DA     BB252888  29.772  66.254  62.447
 8133DA     BB352889  29.950  66.359  62.393
 8133DA     SC152890  29.859  66.410  62.100
 8133DA     SC252891  29.922  66.333  61.871
 8133DA     SC352892  29.804  66.545  61.789
 8133DA     SC452893  29.782  66.548  62.069
 8134DA     BB152894  30.065  66.117  62.585
 8134DA     BB252895  30.278  66.023  62.301
 8134DA     BB352896  30.430  66.170  62.270
 8134DA     SC152897  30.259  66.339  62.072
 8134DA     SC252898  30.260  66.393  61.828
 8134DA     SC352899  30.114  66.594  61.893
 8134DA     SC452900  30.171  66.459  62.132
 8135DC     BB152901  30.636  66.132  62.308
 8135DC     BB252902  30.749  66.128  61.965
 8135DC     BB352903  30.855  66.301  61.923
 8135DC     SC152904  30.634  66.443  61.914
 8135DC     SC252905  30.597  66.504  61.711
 8135DC     SC352906  30.453  66.624  61.975
 8136DT     BB152907  31.124  66.193  61.929
 8136DT     BB252908  31.110  66.356  61.608
 8136DT     BB352909  31.181  66.550  61.623
 8136DT     SC152910  30.961  66.629  61.743
 8136DT     SC252911  30.850  66.758  61.611
 8136DT     SC352912  30.799  66.723  61.929
 8137DT     BB152913  31.451  66.524  61.504
 8137DT     BB252914  31.301  66.787  61.308
 8137DT     BB352915  31.355  66.972  61.385
 8137DT     SC152916  31.191  66.944  61.588
 8137DT     SC252917  31.028  67.083  61.567
 8137DT     SC352918  31.105  66.919  61.836
 8138DG     BB152919  31.517  67.002  61.008
 8138DG     BB252920  31.298  67.282  61.075
 8138DG     BB352921  31.397  67.424  61.173
 8138DG     SC152922  31.330  67.315  61.450
 8138DG     SC252923  31.156  67.448  61.654
 8138DG     SC352924  31.291  67.211  61.769
 8138DG     SC452925  31.426  67.205  61.516
 8139DT     BB152926  31.435  67.639  61.088
 8139DT     BB252927  31.188  67.824  61.275
 8139DT     BB352928  31.281  67.943  61.417
 8139DT     SC152929  31.331  67.735  61.569
 8139DT     SC252930  31.210  67.746  61.747
 8139DT     SC352931  31.466  67.553  61.703
 8140DA     BB152932  31.007  68.162  61.191
 8140DA     BB252933  30.938  68.223  61.546
 8140DA     BB352934  31.091  68.345  61.631
 8140DA     SC152935  31.268  68.105  61.718
 8140DA     SC252936  31.339  67.996  61.931
 8140DA     SC352937  31.531  67.898  61.793
 8140DA     SC452938  31.382  68.055  61.616
 8141DC     BB152939  31.017  68.499  61.683
 8141DC     BB252940  31.029  68.438  62.038
 8141DC     BB352941  31.195  68.530  62.121
 8141DC     SC152942  31.355  68.349  62.021
 8141DC     SC252943  31.435  68.228  62.180
 8141DC     SC352944  31.547  68.240  61.877
 8142DA     BB152945  30.834  68.592  62.333
 8142DA     BB252946  31.099  68.503  62.570
 8142DA     BB352947  31.246  68.658  62.578
 8142DA     SC152948  31.422  68.535  62.353
 8142DA     SC252949  31.645  68.425  62.332
 8142DA     SC352950  31.631  68.488  62.084
 8142DA     SC452951  31.395  68.584  62.202
 8143DG     BB152952  31.153  68.640  62.872
 8143DG     BB252953  31.500  68.554  62.925
 8143DG     BB352954  31.613  68.717  62.912
 8143DG     SC152955  31.660  68.691  62.611
 8143DG     SC252956  31.922  68.632  62.479
 8143DG     SC352957  31.716  68.703  62.279
 8143DG     SC452958  31.556  68.758  62.510
 8144DT     BB152959  31.727  68.788  63.084
 8144DT     BB252960  32.067  68.712  62.992
 8144DT     BB352961  32.161  68.883  62.923
 8144DT     SC152962  32.031  68.874  62.696
 8144DT     SC252963  32.168  68.823  62.537
 8144DT     SC352964  31.869  68.943  62.500
 8145DA     BB152965  32.423  68.752  63.227
 8145DA     BB252966  32.629  68.829  62.934
 8145DA     BB352967  32.650  69.040  62.911
 8145DA     SC152968  32.399  69.070  62.729
 8145DA     SC252969  32.351  69.122  62.490
 8145DA     SC352970  32.115  69.181  62.572
 8145DA     SC452971  32.259  69.103  62.800
 8146DG     BB152972  32.970  69.032  62.952
 8146DG     BB252973  32.978  69.147  62.609
 8146DG     BB352974  32.971  69.346  62.604
 8146DG     SC152975  32.666  69.360  62.594
 8146DG     SC252976  32.502  69.458  62.364
 8146DG     SC352977  32.333  69.413  62.603
 8146DG     SC452978  32.584  69.364  62.732
 8147DA     BB152979  33.267  69.379  62.409
 8147DA     BB252980  33.077  69.535  62.137
 8147DA     BB352981  33.050  69.744  62.175
 8147DA     SC152982  32.781  69.707  62.326
 8147DA     SC252983  32.540  69.758  62.289
 8147DA     SC352984  32.517  69.735  62.544
 8147DA     SC452985  32.787  69.690  62.486
 8148DT     BB152986  33.143  69.907  62.053
 8148DT     BB252987  32.841  69.992  61.874
 8148DT     BB352988  32.774  70.178  61.934
 8148DT     SC152989  32.686  70.083  62.162
 8148DT     SC252990  32.471  70.086  62.163
 8148DT     SC352991  32.662  70.043  62.421
 8149DG     BB152992  32.834  70.190  61.532
 8149DG     BB252993  32.497  70.287  61.620
 8149DG     BB352994  32.494  70.474  61.685
 8149DG     SC152995  32.541  70.399  61.978
 8149DG     SC252996  32.347  70.434  62.202
 8149DG     SC352997  32.612  70.354  62.305
 8149DG     SC452998  32.692  70.385  62.031
 8150DA     BB152999  32.244  70.486  61.454
 8150DA     BB253000  32.011  70.583  61.720
 8150DA     BB353001  32.048  70.784  61.781
 8150DA     SC153002  32.251  70.706  62.004
 8150DA     SC253003  32.260  70.706  62.253
 8150DA     SC353004  32.515  70.697  62.223
 8150DA     SC453005  32.406  70.702  61.964
 8151DG     BB153006  31.756  70.768  61.692
 8151DG     BB253007  31.702  70.849  62.040
 8151DG     BB353008  31.744  71.040  62.073
 8151DG     SC153009  32.039  70.989  62.139
 8151DG     SC253010  32.169  71.028  62.405
 8151DG     SC353011  32.371  70.972  62.196
 8151DG     SC453012  32.146  70.989  62.019
 8152DT     BB153013  31.588  71.130  62.142
 8152DT     BB253014  31.676  71.190  62.487
 8152DT     BB353015  31.761  71.378  62.506
 8152DT     SC153016  31.986  71.296  62.398
 8152DT     SC253017  32.140  71.292  62.548
 8152DT     SC353018  32.186  71.276  62.228
 8153DA     BB153019  31.458  71.325  62.792
 8153DA     BB253020  31.752  71.465  62.960
 8153DA     BB353021  31.782  71.668  62.901
 8153DA     SC153022  31.968  71.595  62.662
 8153DA     SC253023  32.209  71.618  62.602
 8153DA     SC353024  32.130  71.586  62.359
 8153DA     SC453025  31.899  71.575  62.518
 8154DA     BB153026  31.781  71.707  63.227
 8154DA     BB253027  32.119  71.843  63.192
 8154DA     BB353028  32.112  72.039  63.107
 8154DA     SC153029  32.135  71.938  62.814
 8154DA     SC253030  32.303  71.943  62.629
 8154DA     SC353031  32.104  71.897  62.474
 8154DA     SC453032  31.998  71.911  62.734
 8155DA     BB153033  32.288  72.118  63.375
 8155DA     BB253034  32.554  72.226  63.147
 8155DA     BB353035  32.505  72.414  63.059
 8155DA     SC153036  32.361  72.290  62.813
 8155DA     SC253037  32.400  72.269  62.568
 8155DA     SC353038  32.148  72.225  62.552
 8155DA     SC453039  32.202  72.267  62.824
 8156DA     BB153040  32.800  72.494  63.179
 8156DA     BB253041  32.901  72.561  62.833
 8156DA     BB353042  32.819  72.746  62.766
 8156DA     SC153043  32.559  72.618  62.653
 8156DA     SC253044  32.457  72.575  62.429
 8156DA     SC353045  32.236  72.553  62.558
 8156DA     SC453046  32.432  72.609  62.750
 8157DT     BB153047  32.946  72.893  62.727
 8157DT     BB253048  32.921  72.878  62.367
 8157DT     BB353049  32.805  73.035  62.298
 8157DT     SC153050  32.585  72.918  62.381
 8157DT     SC253051  32.470  72.854  62.210
 8157DT     SC353052  32.362  72.875  62.515
 8158DA     BB153053  33.165  73.027  62.083
 8158DA     BB253054  32.889  73.056  61.843
 8158DA     BB353055  32.802  73.251  61.853
 8158DA     SC153056  32.591  73.173  62.068
 8158DA     SC253057  32.344  73.141  62.081
 8158DA     SC353058  32.374  73.171  62.334
 8158DA     SC453059  32.630  73.195  62.222
 8159DA     BB153060  32.864  73.228  61.531
 8159DA     BB253061  32.504  73.276  61.479
 8159DA     BB353062  32.450  73.478  61.519
 8159DA     SC153063  32.388  73.428  61.820
 8159DA     SC253064  32.187  73.421  61.968
 8159DA     SC353065  32.354  73.455  62.160
 8159DA     SC453066  32.507  73.451  61.925
 8160DA     BB153067  32.320  73.462  61.215
 8160DA     BB253068  31.996  73.543  61.367
 8160DA     BB353069  31.988  73.749  61.419
 8160DA     SC153070  32.099  73.705  61.707
 8160DA     SC253071  32.014  73.717  61.941
 8160DA     SC353072  32.261  73.737  62.008
 8160DA     SC453073  32.258  73.718  61.728
 8161DT     BB153074  31.859  73.905  61.320
 8161DT     BB253075  31.621  73.944  61.589
 8161DT     BB353076  31.648  74.128  61.681
 8161DT     SC153077  31.866  74.046  61.801
 8161DT     SC253078  31.828  74.030  62.012
 8161DT     SC353079  32.120  74.029  61.870
 8162DT     BB153080  31.419  74.254  61.570
 8162DT     BB253081  31.374  74.293  61.926
 8162DT     BB353082  31.459  74.470  61.989
 8162DT     SC153083  31.701  74.371  61.967
 8162DT     SC253084  31.786  74.347  62.164
 8162DT     SC353085  31.949  74.338  61.884
 8163DG     BB153086  31.066  74.515  62.095
 8163DG     BB253087  31.284  74.571  62.378
 8163DG     BB353088  31.357  74.755  62.372
 8163DG     SC153089  31.604  74.678  62.208
 8163DG     SC253090  31.887  74.685  62.302
 8163DG     SC353091  31.874  74.632  62.011
 8163DG     SC453092  31.594  74.679  62.048
 8164DT     BB153093  31.316  74.914  62.533
 8164DT     BB253094  31.629  74.911  62.712
 8164DT     BB353095  31.738  75.081  62.666
 8164DT     SC153096  31.801  74.986  62.429
 8164DT     SC253097  32.011  74.940  62.425
 8164DT     SC353098  31.815  74.964  62.167
 8165DA     BB153099  31.717  75.054  63.084
 8165DA     BB253100  32.068  75.104  62.991
 8165DA     BB353101  32.101  75.305  62.928
 8165DA     SC153102  32.042  75.245  62.628
 8165DA     SC253103  32.170  75.234  62.414
 8165DA     SC353104  31.941  75.263  62.300
 8165DA     SC453105  31.891  75.265  62.576
 8166DA     BB153106  32.332  75.279  63.159
 8166DA     BB253107  32.575  75.340  62.891
 8166DA     BB353108  32.572  75.546  62.833
 8166DA     SC153109  32.356  75.506  62.613
 8166DA     SC253110  32.344  75.512  62.364
 8166DA     SC353111  32.092  75.545  62.397
 8166DA     SC453112  32.202  75.528  62.654
 8167DA     BB153113  32.892  75.510  62.896
 8167DA     BB253114  32.948  75.593  62.543
 8167DA     BB353115  32.919  75.802  62.510
 8167DA     SC153116  32.616  75.774  62.443
 8167DA     SC253117  32.468  75.796  62.244
 8167DA     SC353118  32.277  75.823  62.413
 8167DA     SC453119  32.511  75.790  62.565
 8168DC     BB153120  33.078  75.913  62.457
 8168DC     BB253121  32.986  75.949  62.110
 8168DC     BB353122  32.915  76.140  62.075
 8168DC     SC153123  32.687  76.085  62.194
 8168DC     SC253124  32.530  76.079  62.048
 8168DC     SC353125  32.490  76.093  62.369
 8169DA     BB153126  33.212  76.053  61.794
 8169DA     BB253127  32.917  76.175  61.615
 8169DA     BB353128  32.893  76.385  61.646
 8169DA     SC153129  32.712  76.352  61.897
 8169DA     SC253130  32.474  76.389  61.959
 8169DA     SC353131  32.558  76.390  62.201
 8169DA     SC453132  32.784  76.351  62.041
 8170DG     BB153133  32.919  76.371  61.341
 8170DG     BB253134  32.577  76.485  61.357
 8170DG     BB353135  32.573  76.681  61.393
 8170DG     SC153136  32.569  76.651  61.697
 8170DG     SC253137  32.343  76.724  61.878
 8170DG     SC353138  32.585  76.655  62.034
 8170DG     SC453139  32.708  76.642  61.776
 8171DT     BB153140  32.479  76.775  61.249
 8171DT     BB253141  32.166  76.860  61.407
 8171DT     BB353142  32.175  77.052  61.482
 8171DT     SC153143  32.326  76.976  61.682
 8171DT     SC253144  32.214  76.989  61.865
 8171DT     SC353145  32.536  76.956  61.841
 8172DA     BB153146  31.826  76.964  61.260
 8172DA     BB253147  31.730  77.128  61.574
 8172DA     BB353148  31.796  77.331  61.575
 8172DA     SC153149  32.070  77.267  61.706
 8172DA     SC253150  32.184  77.306  61.924
 8172DA     SC353151  32.402  77.264  61.796
 8172DA     SC453152  32.195  77.240  61.608
 8173DC     BB153153  31.653  77.444  61.578
 8173DC     BB253154  31.691  77.560  61.918
 8173DC     BB353155  31.791  77.741  61.920
 8173DC     SC153156  32.020  77.625  61.868
 8173DC     SC253157  32.147  77.637  62.041
 8173DC     SC353158  32.242  77.559  61.741
 8174DC     BB153159  31.559  77.859  61.987
 8174DC     BB253160  31.790  77.958  62.246
 8174DC     BB353161  31.897  78.124  62.185
 8174DC     SC153162  32.044  77.980  62.023
 8174DC     SC253163  32.245  77.969  62.099
 8174DC     SC353164  32.151  77.888  61.800
 8175DA     BB153165  31.735  78.223  62.559
 8175DA     BB253166  32.090  78.311  62.565
 8175DA     BB353167  32.125  78.487  62.449
 8175DA     SC153168  32.181  78.330  62.185
 8175DA     SC253169  32.375  78.281  62.037
 8175DA     SC353170  32.199  78.229  61.858
 8175DA     SC453171  32.056  78.304  62.087
 8176DC     BB153172  32.186  78.662  62.540
 8176DC     BB253173  32.530  78.650  62.431
 8176DC     BB353174  32.561  78.790  62.282
 8176DC     SC153175  32.435  78.643  62.106
 8176DC     SC253176  32.576  78.567  61.962
 8176DC     SC353177  32.253  78.567  61.930
 8177DG     BB153178  32.822  78.876  62.582
 8177DG     BB253179  32.993  78.842  62.265
 8177DG     BB353180  32.969  79.008  62.157
 8177DG     SC153181  32.712  78.913  62.021
 8177DG     SC253182  32.680  78.850  61.731
 8177DG     SC353183  32.418  78.848  61.869
 8177DG     SC453184  32.571  78.942  62.092
 8178DT     BB153185  33.143  79.113  62.106
 8178DT     BB253186  33.176  79.034  61.755
 8178DT     BB353187  33.106  79.192  61.641
 8178DT     SC153188  32.856  79.130  61.695
 8178DT     SC253189  32.761  79.055  61.517
 8178DT     SC353190  32.610  79.151  61.788
 8179DT     BB153191  33.359  79.226  61.579
 8179DT     BB253192  33.190  79.183  61.263
 8179DT     BB353193  33.105  79.362  61.204
 8179DT     SC153194  32.913  79.339  61.381
 8179DT     SC253195  32.727  79.302  61.279
 8179DT     SC353196  32.760  79.391  61.589
 8180DA     BB153197  33.330  79.203  60.885
 8180DA     BB253198  33.005  79.311  60.753
 8180DA     BB353199  32.992  79.524  60.751
 8180DA     SC153200  32.869  79.543  61.037
 8180DA     SC253201  32.651  79.604  61.140
 8180DA     SC353202  32.785  79.641  61.355
 8180DA     SC453203  32.971  79.562  61.160
 8181DT     BB153204  32.985  79.623  60.573
 8181DT     BB253205  32.640  79.727  60.586
 8181DT     BB353206  32.629  79.928  60.635
 8181DT     SC153207  32.689  79.879  60.885
 8181DT     SC253208  32.517  79.916  61.008
 8181DT     SC353209  32.821  79.881  61.114
 8182DA     BB153210  32.406  79.913  60.277
 8182DA     BB253211  32.208  80.104  60.520
 8182DA     BB353212  32.288  80.301  60.542
 8182DA     SC153213  32.478  80.224  60.776
 8182DA     SC253214  32.496  80.268  61.020
 8182DA     SC353215  32.742  80.200  60.993
 8182DA     SC453216  32.628  80.180  60.738
 8183DA     BB153217  31.987  80.427  60.461
 8183DA     BB253218  31.975  80.578  60.795
 8183DA     BB353219  32.087  80.760  60.799
 8183DA     SC153220  32.353  80.622  60.884
 8183DA     SC253221  32.500  80.613  61.085
 8183DA     SC353222  32.683  80.534  60.923
 8183DA     SC453223  32.453  80.576  60.767
 8184DG     BB153224  31.822  80.917  60.871
 8184DG     BB253225  31.993  80.977  61.184
 8184DG     BB353226  32.107  81.140  61.169
 8184DG     SC153227  32.354  80.988  61.071
 8184DG     SC253228  32.610  80.956  61.221
 8184DG     SC353229  32.637  80.857  60.943
 8184DG     SC453230  32.373  80.964  60.914
 8185DG     BB153231  31.940  81.270  61.419
 8185DG     BB253232  32.253  81.261  61.600
 8185DG     BB353233  32.361  81.422  61.557
 8185DG     SC153234  32.503  81.292  61.319
 8185DG     SC253235  32.794  81.226  61.303
 8185DG     SC353236  32.663  81.188  61.041
 8185DG     SC453237  32.436  81.301  61.174
 8186DT     BB153238  32.409  81.551  61.716
 8186DT     BB253239  32.758  81.475  61.769
 8186DT     BB353240  32.876  81.621  61.682
 8186DT     SC153241  32.828  81.528  61.441
 8186DT     SC253242  33.007  81.440  61.362
 8186DT     SC353243  32.742  81.516  61.192
 8187DT     BB153244  32.933  81.694  61.930
 8187DT     BB253245  33.252  81.624  61.777
 8187DT     BB353246  33.317  81.789  61.670
 8187DT     SC153247  33.145  81.743  61.478
 8187DT     SC253248  33.250  81.679  61.301
 8187DT     SC353249  32.941  81.776  61.314
 8188DA     BB153250  33.628  81.663  61.924
 8188DA     BB253251  33.768  81.717  61.589
 8188DA     BB353252  33.776  81.926  61.545
 8188DA     SC153253  33.494  81.933  61.415
 8188DA     SC253254  33.396  81.963  61.187
 8188DA     SC353255  33.179  82.024  61.310
 8188DA     SC453256  33.369  81.970  61.509
 8189DA     BB153257  34.097  81.867  61.485
 8189DA     BB253258  34.038  81.985  61.143
 8189DA     BB353259  34.024  82.198  61.139
 8189DA     SC153260  33.715  82.202  61.181
 8189DA     SC253261  33.512  82.259  61.048
 8189DA     SC353262  33.395  82.281  61.275
 8189DA     SC453263  33.661  82.212  61.332
 8190DA     BB153264  34.270  82.200  60.912
 8190DA     BB253265  34.034  82.355  60.677
 8190DA     BB353266  34.017  82.564  60.716
 8190DA     SC153267  33.780  82.532  60.915
 8190DA     SC253268  33.536  82.584  60.922
 8190DA     SC353269  33.560  82.566  61.177
 8190DA     SC453270  33.815  82.517  61.071
 8191DA     BB153271  34.104  82.631  60.398
 8191DA     BB253272  33.772  82.779  60.351
 8191DA     BB353273  33.770  82.980  60.422
 8191DA     SC153274  33.681  82.903  60.710
 8191DA     SC253275  33.479  82.927  60.854
 8191DA     SC353276  33.638  82.888  61.051
 8191DA     SC453277  33.797  82.878  60.819
 8192DT     BB153278  33.745  83.160  60.291
 8192DT     BB253279  33.400  83.219  60.378
 8192DT     BB353280  33.384  83.393  60.489
 8192DT     SC153281  33.482  83.275  60.702
 8192DT     SC253282  33.327  83.254  60.850
 8192DT     SC353283  33.645  83.219  60.902
 8193DA     BB153284  33.114  83.420  60.172
 8193DA     BB253285  32.931  83.492  60.482
 8193DA     BB353286  32.981  83.687  60.553
 8193DA     SC153287  33.218  83.589  60.730
 8193DA     SC253288  33.270  83.566  60.972
 8193DA     SC353289  33.515  83.560  60.898
 8193DA     SC453290  33.364  83.588  60.664
 8194DA     BB153291  32.657  83.689  60.544
 8194DA     BB253292  32.669  83.746  60.905
 8194DA     BB353293  32.733  83.946  60.947
 8194DA     SC153294  33.035  83.873  60.960
 8194DA     SC253295  33.214  83.858  61.133
 8194DA     SC353296  33.377  83.876  60.936
 8194DA     SC453297  33.120  83.886  60.824
 8195DT     BB153298  32.599  84.042  61.030
 8195DT     BB253299  32.747  84.049  61.359
 8195DT     BB353300  32.841  84.230  61.391
 8195DT     SC153301  33.041  84.163  61.235
 8195DT     SC253302  33.218  84.134  61.353
 8195DT     SC353303  33.208  84.165  61.031
 8196DA     BB153304  32.588  84.141  61.714
 8196DA     BB253305  32.913  84.246  61.848
 8196DA     BB353306  32.942  84.455  61.817
 8196DA     SC153307  33.080  84.421  61.541
 8196DA     SC253308  33.308  84.449  61.444
 8196DA     SC353309  33.188  84.460  61.217
 8196DA     SC453310  32.987  84.426  61.410
 8197DT     BB153311  32.949  84.567  61.979
 8197DT     BB253312  33.302  84.638  61.972
 8197DT     BB353313  33.334  84.830  61.900
 8197DT     SC153314  33.281  84.755  61.654
 8197DT     SC253315  33.462  84.760  61.537
 8197DT     SC353316  33.160  84.738  61.420
 8198DC     BB153317  33.400  84.924  62.150
 8198DC     BB253318  33.684  85.011  61.946
 8198DC     BB353319  33.654  85.196  61.858
 8198DC     SC153320  33.483  85.096  61.686
 8198DC     SC253321  33.570  85.098  61.489
 8198DC     SC353322  33.257  85.051  61.559
 8199DT     BB153323  33.835  85.327  62.025
 8199DT     BB253324  33.954  85.401  61.693
 8199DT     BB353325  33.866  85.575  61.623
 8199DT     SC153326  33.638  85.451  61.581
 8199DT     SC253327  33.603  85.436  61.369
 8199DT     SC353328  33.384  85.386  61.602
 8200DA     BB153329  34.277  85.641  61.577
 8200DA     BB253330  34.117  85.725  61.258
 8200DA     BB353331  34.018  85.913  61.273
 8200DA     SC153332  33.746  85.791  61.364
 8200DA     SC253333  33.517  85.760  61.270
 8200DA     SC353334  33.443  85.732  61.514
 8200DA     SC453335  33.720  85.778  61.522
 8201DC     BB153336  34.086  86.077  61.162
 8201DC     BB253337  33.822  86.073  60.916
 8201DC     BB353338  33.694  86.232  60.948
 8201DC     SC153339  33.586  86.114  61.156
 8201DC     SC253340  33.384  86.056  61.109
 8201DC     SC353341  33.514  86.068  61.406
 8202DC     BB153342  33.793  86.344  60.725
 8202DC     BB253343  33.438  86.316  60.665
 8202DC     BB353344  33.340  86.480  60.745
 8202DC     SC153345  33.369  86.388  60.989
 8202DC     SC253346  33.177  86.328  61.066
 8202DC     SC353347  33.447  86.372  61.241
 8203DG     BB153348  33.251  86.458  60.348
 8203DG     BB253349  32.952  86.477  60.550
 8203DG     BB353350  32.923  86.663  60.612
 8203DG     SC153351  33.086  86.629  60.869
 8203DG     SC253352  32.978  86.635  61.147
 8203DG     SC353353  33.274  86.632  61.149
 8203DG     SC453354  33.244  86.657  60.866
 8204DT     BB153355  32.744  86.775  60.552
 8204DT     BB253356  32.551  86.770  60.857
 8204DT     BB353357  32.563  86.954  60.951
 8204DT     SC153358  32.808  86.906  61.032
 8204DT     SC253359  32.808  86.879  61.245
 8204DT     SC353360  33.069  86.928  61.059
 8205DG     BB153361  32.168  86.880  60.882
 8205DG     BB253362  32.230  86.960  61.230
 8205DG     BB353363  32.252  87.157  61.251
 8205DG     SC153364  32.555  87.152  61.206
 8205DG     SC253365  32.763  87.217  61.409
 8205DG     SC353366  32.884  87.187  61.141
 8205DG     SC453367  32.611  87.165  61.056
 8206DT     BB153368  32.112  87.272  61.375
 8206DT     BB253369  32.312  87.335  61.668
 8206DT     BB353370  32.380  87.530  61.667
 8206DT     SC153371  32.557  87.477  61.481
 8206DT     SC253372  32.755  87.487  61.566
 8206DT     SC353373  32.683  87.482  61.250
 8207DA     BB153374  32.203  87.444  62.037
 8207DA     BB253375  32.530  87.597  62.099
 8207DA     BB353376  32.525  87.805  62.052
 8207DA     SC153377  32.613  87.765  61.756
 8207DA     SC253378  32.813  87.813  61.615
 8207DA     SC353379  32.653  87.790  61.416
 8207DA     SC453380  32.497  87.749  61.645
 8208DT     BB153381  32.551  87.910  62.201
 8208DT     BB253382  32.887  88.017  62.123
 8208DT     BB353383  32.883  88.207  62.041
 8208DT     SC153384  32.792  88.115  61.812
 8208DT     SC253385  32.945  88.133  61.662
 8208DT     SC353386  32.631  88.075  61.608
 8209DT     BB153387  32.997  88.272  62.267
 8209DT     BB253388  33.224  88.384  62.011
 8209DT     BB353389  33.161  88.566  61.935
 8209DT     SC153390  32.968  88.450  61.800
 8209DT     SC253391  33.011  88.461  61.590
 8209DT     SC353392  32.724  88.386  61.721
 8210DT     BB153393  33.372  88.660  62.059
 8210DT     BB253394  33.410  88.764  61.716
 8210DT     BB353395  33.296  88.934  61.680
 8210DT     SC153396  33.074  88.794  61.679
 8210DT     SC253397  32.995  88.788  61.479
 8210DT     SC353398  32.836  88.706  61.749
 8211DT     BB153399  33.523  89.078  61.670
 8211DT     BB253400  33.356  89.153  61.359
 8211DT     BB353401  33.219  89.306  61.388
 8211DT     SC153402  33.053  89.145  61.511
 8211DT     SC253403  32.880  89.113  61.388
 8211DT     SC353404  32.904  89.040  61.702
 8212DA     BB153405  33.455  89.439  61.066
 8212DA     BB253406  33.104  89.492  60.974
 8212DA     BB353407  33.024  89.658  61.082
 8212DA     SC153408  32.923  89.486  61.320
 8212DA     SC253409  32.705  89.412  61.415
 8212DA     SC353410  32.836  89.370  61.632
 8212DA     SC453411  33.022  89.468  61.446
 8213DT     BB153412  32.966  89.847  60.989
 8213DT     BB253413  32.609  89.801  61.012
 8213DT     BB353414  32.531  89.927  61.156
 8213DT     SC153415  32.625  89.777  61.350
 8213DT     SC253416  32.463  89.680  61.451
 8213DT     SC353417  32.767  89.703  61.559
 8214DT     BB153418  32.414  90.106  60.974
 8214DT     BB253419  32.138  90.004  61.184
 8214DT     BB353420  32.121  90.132  61.345
 8214DT     SC153421  32.330  90.025  61.462
 8214DT     SC253422  32.267  89.916  61.636
 8214DT     SC353423  32.571  90.002  61.567
 8215DA     BB153424  31.737  90.136  61.174
 8215DA     BB253425  31.696  90.075  61.534
 8215DA     BB353426  31.724  90.256  61.643
 8215DA     SC153427  32.029  90.213  61.683
 8215DA     SC253428  32.185  90.160  61.871
 8215DA     SC353429  32.368  90.255  61.718
 8215DA     SC453430  32.128  90.277  61.574
 8216DA     BB153431  31.425  90.190  61.769
 8216DA     BB253432  31.586  90.168  62.098
 8216DA     BB353433  31.625  90.363  62.174
 8216DA     SC153434  31.909  90.382  62.050
 8216DA     SC253435  32.145  90.384  62.129
 8216DA     SC353436  32.199  90.491  61.902
 8216DA     SC453437  31.922  90.449  61.904
 8217DA     BB153438  31.454  90.258  62.438
 8217DA     BB253439  31.759  90.307  62.634
 8217DA     BB353440  31.787  90.514  62.678
 8217DA     SC153441  31.956  90.571  62.423
 8217DA     SC253442  32.193  90.626  62.368
 8217DA     SC353443  32.099  90.713  62.145
 8217DA     SC453444  31.878  90.621  62.292
 8218DT     BB153445  31.773  90.590  62.878
 8218DT     BB253446  32.128  90.634  62.926
 8218DT     BB353447  32.175  90.836  62.925
 8218DT     SC153448  32.146  90.849  62.664
 8218DT     SC253449  32.338  90.879  62.572
 8218DT     SC353450  32.051  90.918  62.429
 8219DT     BB153451  32.220  90.843  63.198
 8219DT     BB253452  32.531  90.954  63.053
 8219DT     BB353453  32.529  91.159  63.028
 8219DT     SC153454  32.367  91.140  62.822
 8219DT     SC253455  32.473  91.193  62.643
 8219DT     SC353456  32.152  91.166  62.672
 8220DT     BB153457  32.708  91.188  63.231
 8220DT     BB253458  32.869  91.334  62.944
 8220DT     BB353459  32.816  91.533  62.927
 8220DT     SC153460  32.577  91.470  62.838
 8220DT     SC253461  32.561  91.525  62.631
 8220DT     SC353462  32.315  91.449  62.827
 8221DT     BB153463  33.067  91.589  62.997
 8221DT     BB253464  33.024  91.738  62.671
 8221DT     BB353465  32.940  91.926  62.691
 8221DT     SC153466  32.704  91.823  62.743
 8221DT     SC253467  32.571  91.861  62.579
 8221DT     SC353468  32.483  91.763  62.875
 8222DA     BB153469  33.274  91.900  62.434
 8222DA     BB253470  33.003  92.075  62.261
 8222DA     BB353471  32.965  92.264  62.354
 8222DA     SC153472  32.752  92.152  62.550
 8222DA     SC253473  32.505  92.168  62.584
 8222DA     SC353474  32.553  92.090  62.823
 8222DA     SC453475  32.802  92.103  62.695
 8223DC     BB153476  33.000  92.373  62.231
 8223DC     BB253477  32.661  92.476  62.163
 8223DC     BB353478  32.612  92.640  62.279
 8223DC     SC153479  32.590  92.492  62.494
 8223DC     SC253480  32.384  92.482  62.553
 8223DC     SC353481  32.638  92.396  62.735
 8224DT     BB153482  32.615  92.754  62.045
 8224DT     BB253483  32.288  92.820  62.182
 8224DT     BB353484  32.299  92.974  62.320
 8224DT     SC153485  32.410  92.817  62.498
 8224DT     SC253486  32.271  92.782  62.659
 8224DT     SC353487  32.589  92.719  62.665
 8225DT     BB153488  32.170  93.120  62.140
 8225DT     BB253489  31.969  93.142  62.438
 8225DT     BB353490  32.045  93.287  62.564
 8225DT     SC153491  32.245  93.132  62.635
 8225DT     SC253492  32.219  93.071  62.840
 8225DT     SC353493  32.491  93.042  62.666
 8226DC     BB153494  31.838  93.449  62.505
 8226DC     BB253495  31.831  93.423  62.864
 8226DC     BB353496  31.960  93.563  62.948
 8226DC     SC153497  32.170  93.422  62.879
 8226DC     SC253498  32.262  93.341  63.055
 8226DC     SC353499  32.396  93.355  62.760
 8227DG     BB153500  31.595  93.661  63.107
 8227DG     BB253501  31.844  93.622  63.367
 8227DG     BB353502  31.956  93.786  63.379
 8227DG     SC153503  32.164  93.690  63.175
 8227DG     SC253504  32.449  93.623  63.234
 8227DG     SC353505  32.398  93.624  62.942
 8227DG     SC453506  32.140  93.720  63.020
 8228DT     BB153507  31.967  93.928  63.564
 8228DT     BB253508  32.288  93.835  63.701
 8228DT     BB353509  32.426  93.984  63.663
 8228DT     SC153510  32.444  93.915  63.411
 8228DT     SC253511  32.637  93.829  63.374
 8228DT     SC353512  32.428  93.930  63.148
 8229DC     BB153513  32.427  94.061  63.926
 8229DC     BB253514  32.771  93.978  63.855
 8229DC     BB353515  32.870  94.143  63.779
 8229DC     SC153516  32.750  94.119  63.547
 8229DC     SC253517  32.893  94.058  63.399
 8229DC     SC353518  32.597  94.174  63.339
 8230DT     BB153519  33.005  94.161  64.011
 8230DT     BB253520  33.259  94.125  63.757
 8230DT     BB353521  33.306  94.310  63.677
 8230DT     SC153522  33.081  94.317  63.540
 8230DT     SC253523  33.125  94.297  63.331
 8230DT     SC353524  32.843  94.394  63.458
 8231DT     BB153525  33.539  94.287  63.802
 8231DT     BB253526  33.623  94.327  63.454
 8231DT     BB353527  33.625  94.528  63.404
 8231DT     SC153528  33.363  94.540  63.407
 8231DT     SC253529  33.291  94.567  63.206
 8231DT     SC353530  33.118  94.608  63.477
 8232DA     BB153531  33.977  94.340  63.273
 8232DA     BB253532  33.839  94.536  62.995
 8232DA     BB353533  33.862  94.745  63.033
 8232DA     SC153534  33.587  94.774  63.174
 8232DA     SC253535  33.366  94.881  63.128
 8232DA     SC353536  33.328  94.866  63.382
 8232DA     SC453537  33.583  94.757  63.334
 8233DA     BB153538  33.993  94.709  62.736
 8233DA     BB253539  33.740  94.948  62.621
 8233DA     BB353540  33.785  95.144  62.692
 8233DA     SC153541  33.620  95.113  62.954
 8233DA     SC253542  33.409  95.205  63.052
 8233DA     SC353543  33.506  95.129  63.278
 8233DA     SC453544  33.697  95.060  63.085
 8234DT     BB153545  33.829  95.272  62.556
 8234DT     BB253546  33.524  95.464  62.572
 8234DT     BB353547  33.555  95.638  62.679
 8234DT     SC153548  33.558  95.507  62.906
 8234DT     SC253549  33.382  95.557  63.019
 8234DT     SC353550  33.646  95.408  63.134
 8235DT     BB153551  33.540  95.777  62.448
 8235DT     BB253552  33.290  95.927  62.662
 8235DT     BB353553  33.378  96.071  62.782
 8235DT     SC153554  33.488  95.888  62.934
 8235DT     SC253555  33.393  95.889  63.128
 8235DT     SC353556  33.673  95.743  63.054
 8236DC     BB153557  33.263  96.274  62.637
 8236DC     BB253558  33.156  96.336  62.976
 8236DC     BB353559  33.298  96.451  63.075
 8236DC     SC153560  33.460  96.246  63.097
 8236DC     SC253561  33.472  96.187  63.304
 8236DC     SC353562  33.674  96.095  63.068
 8237DA     BB153563  32.939  96.664  63.129
 8237DA     BB253564  33.100  96.636  63.457
 8237DA     BB353565  33.265  96.771  63.471
 8237DA     SC153566  33.474  96.566  63.364
 8237DA     SC253567  33.667  96.436  63.454
 8237DA     SC353568  33.739  96.415  63.208
 8237DA     SC453569  33.503  96.565  63.206
 8238DG     BB153570  33.117  96.914  63.711
 8238DG     BB253571  33.399  96.792  63.903
 8238DG     BB353572  33.550  96.921  63.890
 8238DG     SC153573  33.672  96.791  63.641
 8238DG     SC253574  33.935  96.650  63.628
 8238DG     SC353575  33.822  96.687  63.357
 8238DG     SC453576  33.623  96.840  63.497
 8239DT     BB153577  33.640  97.039  64.072
 8239DT     BB253578  33.945  96.854  64.126
 8239DT     BB353579  34.108  96.966  64.062
 8239DT     SC153580  34.050  96.919  63.810
 8239DT     SC253581  34.200  96.790  63.725
 8239DT     SC353582  33.982  96.963  63.559
 8240DT     BB153583  34.188  97.015  64.320
 8240DT     BB253584  34.471  96.852  64.167
 8240DT     BB353585  34.594  96.993  64.078
 8240DT     SC153586  34.426  97.026  63.879
 8240DT     SC253587  34.512  96.946  63.699
 8240DT     SC353588  34.255  97.142  63.716
 8241DT     BB153589  34.776  96.950  64.273
 8241DT     BB253590  34.950  96.876  63.966
 8241DT     BB353591  35.031  97.050  63.887
 8241DT     SC153592  34.795  97.132  63.806
 8241DT     SC253593  34.786  97.126  63.592
 8241DT     SC353594  34.578  97.280  63.785
 8242DT     BB153595  35.269  96.951  63.954
 8242DT     BB253596  35.288  97.006  63.598
 8242DT     BB353597  35.340  97.203  63.560
 8242DT     SC153598  35.100  97.287  63.623
 8242DT     SC253599  34.999  97.356  63.446
 8242DT     SC353600  34.907  97.413  63.752
 8243DA     BB153601  35.585  96.942  63.342
 8243DA     BB253602  35.461  97.201  63.114
 8243DA     BB353603  35.554  97.388  63.156
 8243DA     SC153604  35.336  97.479  63.358
 8243DA     SC253605  35.155  97.650  63.370
 8243DA     SC353606  35.168  97.616  63.624
 8243DA     SC453607  35.360  97.445  63.513
 8244DT     BB153608  35.666  97.452  63.015
 8244DT     BB253609  35.450  97.719  62.902
 8244DT     BB353610  35.518  97.900  62.975
 8244DT     SC153611  35.428  97.846  63.216
 8244DT     SC253612  35.261  97.974  63.260
 8244DT     SC353613  35.427  97.796  63.475
 8245DA     BB153614  35.464  97.940  62.561
 8245DA     BB253615  35.308  98.229  62.724
 8245DA     BB353616  35.457  98.362  62.798
 8245DA     SC153617  35.472  98.228  63.078
 8245DA     SC253618  35.409  98.284  63.313
 8245DA     SC353619  35.576  98.101  63.380
 8245DA     SC453620  35.581  98.112  63.100
 8246DG     BB153621  35.326  98.570  62.605
 8246DG     BB253622  35.253  98.746  62.913
 8246DG     BB353623  35.413  98.849  62.971
 8246DG     SC153624  35.531  98.621  63.138
 8246DG     SC253625  35.561  98.618  63.435
 8246DG     SC353626  35.699  98.387  63.313
 8246DG     SC453627  35.629  98.516  63.067
 8247DA     BB153628  35.217  99.139  62.993
 8247DA     BB253629  35.299  99.175  63.348
 8247DA     BB353630  35.495  99.257  63.371
 8247DA     SC153631  35.637  98.981  63.378
 8247DA     SC253632  35.757  98.839  63.545
 8247DA     SC353633  35.859  98.722  63.341
 8247DA     SC453634  35.691  98.922  63.239
 8248DA     BB153635  35.351  99.492  63.558
 8248DA     BB253636  35.559  99.379  63.837
 8248DA     BB353637  35.757  99.457  63.819
 8248DA     SC153638  35.864  99.214  63.657
 8248DA     SC253639  36.021  99.024  63.692
 8248DA     SC353640  36.031  99.011  63.436
 8248DA     SC453641  35.858  99.224  63.496
 8249DT     BB153642  35.843  99.607  63.956
 8249DT     BB253643  36.061  99.381  64.133
 8249DT     BB353644  36.258  99.420  64.083
 8249DT     SC153645  36.229  99.307  63.848
 8249DT     SC253646  36.341  99.123  63.842
 8249DT     SC353647  36.218  99.279  63.586
 8250DA     BB153648  36.254  99.436  64.502
 8250DA     BB253649  36.531  99.216  64.404
 8250DA     BB353650  36.696  99.332  64.334
 8250DA     SC153651  36.603  99.327  64.037
 8250DA     SC253652  36.677  99.225  63.822
 8250DA     SC353653  36.536  99.407  63.710
 8250DA     SC453654  36.511  99.449  63.986
 8251DG     BB153655  36.861  99.208  64.570
 8251DG     BB253656  37.050  99.056  64.302
 8251DG     BB353657  37.191  99.181  64.239
 8251DG     SC153658  37.013  99.314  64.028
 8251DG     SC253659  37.049  99.298  63.732
 8251DG     SC353660  36.841  99.496  63.802
 8251DG     SC453661  36.924  99.440  64.070
 8252DA     BB153662  37.396  98.908  64.286
 8252DA     BB253663  37.484  98.918  63.930
 8252DA     BB353664  37.615  99.082  63.890
 8252DA     SC153665  37.385  99.282  63.827
 8252DA     SC253666  37.294  99.402  63.628
 8252DA     SC353667  37.188  99.562  63.799
 8252DA     SC453668  37.329  99.372  63.949
 8253DC     BB153669  37.787  99.029  63.833
 8253DC     BB253670  37.745  99.118  63.486
 8253DC     BB353671  37.837  99.300  63.448
 8253DC     SC153672  37.646  99.431  63.569
 8253DC     SC253673  37.532  99.542  63.424
 8253DC     SC353674  37.523  99.585  63.745
 8254DT     BB153675  38.014  99.158  63.310
 8254DT     BB253676  37.879  99.397  63.075
 8254DT     BB353677  37.976  99.578  63.095
 8254DT     SC153678  37.848  99.631  63.318
 8254DT     SC253679  37.709  99.792  63.284
 8254DT     SC353680  37.803  99.680  63.573
 8255DT     BB153681  38.084  99.524  62.860
 8255DT     BB253682  37.915  99.839  62.816
 8255DT     BB353683  38.035  99.994  62.883
 8255DT     SC153684  37.987  99.932  63.134
 8255DT     SC253685  37.865 100.086  63.223
 8255DT     SC353686  38.027  99.855  63.383
 8256DG     BB153687  37.933 100.060  62.494
 8256DG     BB253688  37.856 100.345  62.704
 8256DG     BB353689  38.024 100.442  62.750
 8256DG     SC153690  38.079 100.279  63.003
 8256DG     SC253691  38.072 100.383  63.283
 8256DG     SC353692  38.181 100.108  63.275
 8256DG     SC453693  38.164 100.144  62.991
 8257DC     BB153694  38.040 100.642  62.686
 8257DC     BB253695  37.996 100.821  62.996
 8257DC     BB353696  38.180 100.880  63.071
 8257DC     SC153697  38.235 100.635  63.148
 8257DC     SC253698  38.233 100.626  63.363
 8257DC     SC353699  38.356 100.401  63.164
 8258DA     BB153700  37.925 101.213  63.062
 8258DA     BB253701  38.081 101.197  63.393
 8258DA     BB353702  38.288 101.248  63.380
 8258DA     SC153703  38.383 100.956  63.334
 8258DA     SC253704  38.509 100.781  63.459
 8258DA     SC353705  38.549 100.674  63.229
 8258DA     SC453706  38.398 100.906  63.182
 8259DG     BB153707  38.196 101.469  63.577
 8259DG     BB253708  38.420 101.294  63.801
 8259DG     BB353709  38.608 101.346  63.763
 8259DG     SC153710  38.653 101.124  63.557
 8259DG     SC253711  38.838 100.892  63.587
 8259DG     SC353712  38.730 100.905  63.312
 8259DG     SC453713  38.616 101.152  63.403
 8260DA     BB153714  38.626 101.410  64.103
 8260DA     BB253715  38.898 101.166  64.132
 8260DA     BB353716  39.079 101.245  64.051
 8260DA     SC153717  39.027 101.135  63.764
 8260DA     SC253718  39.122 100.961  63.614
 8260DA     SC353719  39.009 101.092  63.424
 8260DA     SC453720  38.951 101.232  63.660
 8261DA     BB153721  39.186 101.157  64.349
 8261DA     BB253722  39.420 100.934  64.175
 8261DA     BB353723  39.577 101.046  64.086
 8261DA     SC153724  39.430 101.083  63.814
 8261DA     SC253725  39.452 101.002  63.579
 8261DA     SC353726  39.308 101.205  63.517
 8261DA     SC453727  39.340 101.215  63.796
 8262DT     BB153728  39.763 101.022  64.157
 8262DT     BB253729  39.890 100.829  63.880
 8262DT     BB353730  40.011 100.947  63.761
 8262DT     SC153731  39.803 101.072  63.660
 8262DT     SC253732  39.780 101.016  63.453
 8262DT     SC353733  39.635 101.266  63.600
 8263DT     BB153734  40.229 100.814  63.851
 8263DT     BB253735  40.239 100.774  63.492
 8263DT     BB353736  40.336 100.935  63.406
 8263DT     SC153737  40.129 101.091  63.445
 8263DT     SC253738  40.039 101.138  63.256
 8263DT     SC353739  39.983 101.290  63.537
 8264DG     BB153740  40.523 100.590  63.296
 8264DG     BB253741  40.432 100.791  63.009
 8264DG     BB353742  40.559 100.943  62.991
 8264DG     SC153743  40.395 101.133  63.166
 8264DG     SC253744  40.255 101.380  63.074
 8264DG     SC353745  40.251 101.361  63.369
 8264DG     SC453746  40.421 101.134  63.324
 8265DT     BB153747  40.668 100.950  62.815
 8265DT     BB253748  40.509 101.222  62.638
 8265DT     BB353749  40.620 101.395  62.659
 8265DT     SC153750  40.539 101.426  62.907
 8265DT     SC253751  40.408 101.597  62.918
 8265DT     SC353752  40.546 101.446  63.170
 8266DA     BB153753  40.520 101.325  62.256
 8266DA     BB253754  40.447 101.675  62.336
 8266DA     BB353755  40.628 101.784  62.367
 8266DA     SC153756  40.637 101.729  62.673
 8266DA     SC253757  40.609 101.857  62.885
 8266DA     SC353758  40.737 101.664  62.996
 8266DA     SC453759  40.719 101.600  62.723
 8267DA     BB153760  40.476 101.973  62.144
 8267DA     BB253761  40.500 102.244  62.390
 8267DA     BB353762  40.702 102.310  62.410
 8267DA     SC153763  40.770 102.112  62.640
 8267DA     SC253764  40.820 102.122  62.884
 8267DA     SC353765  40.926 101.891  62.851
 8267DA     SC453766  40.832 101.969  62.599
 8268DA     BB153767  40.575 102.611  62.345
 8268DA     BB253768  40.709 102.720  62.668
 8268DA     BB353769  40.920 102.746  62.656
 8268DA     SC153770  40.986 102.454  62.741
 8268DA     SC253771  41.085 102.337  62.937
 8268DA     SC353772  41.127 102.143  62.775
 8268DA     SC453773  41.004 102.345  62.624
 8269DT     BB153774  41.037 102.945  62.664
 8269DT     BB253775  41.175 102.902  62.995
 8269DT     BB353776  41.379 102.869  62.983
 8269DT     SC153777  41.342 102.623  62.898
 8269DT     SC253778  41.403 102.485  63.052
 8269DT     SC353779  41.345 102.411  62.741
 8270DG     BB153780  41.408 103.227  63.195
 8270DG     BB253781  41.598 102.968  63.362
 8270DG     BB353782  41.781 102.957  63.285
 8270DG     SC153783  41.705 102.753  63.070
 8270DG     SC253784  41.800 102.470  63.056
 8270DG     SC353785  41.651 102.544  62.811
 8270DG     SC453786  41.650 102.805  62.929
 8271DT     BB153787  42.038 103.010  63.383
 8271DT     BB253788  42.139 102.668  63.442
 8271DT     BB353789  42.296 102.618  63.317
 8271DT     SC153790  42.135 102.600  63.110
 8271DT     SC253791  42.118 102.394  63.050
 8271DT     SC353792  42.027 102.651  62.875
 8272DA     BB153793  42.469 102.530  63.691
 8272DA     BB253794  42.503 102.228  63.485
 8272DA     BB353795  42.672 102.245  63.356
 8272DA     SC153796  42.510 102.372  63.122
 8272DA     SC253797  42.433 102.307  62.894
 8272DA     SC353798  42.409 102.559  62.852
 8272DA     SC453799  42.503 102.533  63.115
 8273DT     BB153800  42.845 102.115  63.377
 8273DT     BB253801  42.758 101.900  63.101
 8273DT     BB353802  42.893 101.925  62.946
 8273DT     SC153803  42.786 102.156  62.881
 8273DT     SC253804  42.685 102.137  62.692
 8273DT     SC353805  42.762 102.415  62.839
 8274DA     BB153806  42.844 101.523  63.039
 8274DA     BB253807  42.796 101.563  62.678
 8274DA     BB353808  42.983 101.599  62.582
 8274DA     SC153809  42.965 101.909  62.607
 8274DA     SC253810  42.933 102.104  62.456
 8274DA     SC353811  43.035 102.242  62.647
 8274DA     SC453812  43.032 101.977  62.736
 8275DA     BB153813  42.836 101.359  62.425
 8275DA     BB253814  42.852 101.576  62.130
 8275DA     BB353815  43.053 101.593  62.061
 8275DA     SC153816  43.116 101.844  62.234
 8275DA     SC253817  43.160 102.087  62.198
 8275DA     SC353818  43.268 102.081  62.431
 8275DA     SC453819  43.180 101.819  62.380
 8276DC     BB153820  43.057 101.523  61.900
 8276DC     BB253821  43.096 101.830  61.715
 8276DC     BB353822  43.296 101.862  61.673
 8276DC     SC153823  43.345 101.933  61.921
 8276DC     SC253824  43.388 102.143  61.928
 8276DC     SC353825  43.446 101.929  62.165
 8277DA     BB153826  43.050 101.912  61.336
 8277DA     BB253827  43.287 102.192  61.350
 8277DA     BB353828  43.484 102.124  61.308
 8277DA     SC153829  43.554 102.066  61.606
 8277DA     SC253830  43.702 102.161  61.782
 8277DA     SC353831  43.677 101.933  61.897
 8277DA     SC453832  43.527 101.918  61.661
 8278DA     BB153833  43.454 102.374  61.097
 8278DA     BB253834  43.754 102.517  61.253
 8278DA     BB353835  43.927 102.404  61.198
 8278DA     SC153836  43.908 102.211  61.441
 8278DA     SC253837  44.034 102.166  61.651
 8278DA     SC353838  43.917 101.937  61.648
 8278DA     SC453839  43.826 102.074  61.421
 8279DG     BB153840  44.032 102.672  61.074
 8279DG     BB253841  44.302 102.631  61.310
 8279DG     BB353842  44.437 102.504  61.237
 8279DG     SC153843  44.304 102.255  61.357
 8279DG     SC253844  44.418 102.082  61.572
 8279DG     SC353845  44.175 101.960  61.456
 8279DG     SC453846  44.191 102.180  61.272
 8280DT     BB153847  44.671 102.549  61.168
 8280DT     BB253848  44.861 102.387  61.427
 8280DT     BB353849  44.950 102.215  61.353
 8280DT     SC153850  44.721 102.087  61.354
 8280DT     SC253851  44.725 101.934  61.506
 8280DT     SC353852  44.508 101.958  61.266
 8281DT     BB153853  45.236 102.301  61.309
 8281DT     BB253854  45.278 102.001  61.505
 8281DT     BB353855  45.314 101.839  61.380
 8281DT     SC153856  45.062 101.830  61.306
 8281DT     SC253857  44.970 101.653  61.387
 8281DT     SC353858  44.848 101.841  61.153
 8282DG     BB153859  45.680 101.824  61.577
 8282DG     BB253860  45.523 101.498  61.584
 8282DG     BB353861  45.567 101.398  61.418
 8282DG     SC153862  45.325 101.503  61.262
 8282DG     SC253863  45.093 101.340  61.168
 8282DG     SC353864  45.083 101.613  61.055
 8282DG     SC453865  45.339 101.639  61.180
 8283DA     BB153866  45.701 101.110  61.583
 8283DA     BB253867  45.438 100.897  61.442
 8283DA     BB353868  45.492 100.832  61.246
 8283DA     SC153869  45.358 101.072  61.102
 8283DA     SC253870  45.161 101.113  60.954
 8283DA     SC353871  45.282 101.329  60.886
 8283DA     SC453872  45.449 101.201  61.071
 8284DT     BB153873  45.536 100.621  61.197
 8284DT     BB253874  45.223 100.556  61.029
 8284DT     BB353875  45.255 100.533  60.826
 8284DT     SC153876  45.290 100.791  60.794
 8284DT     SC253877  45.125 100.873  60.683
 8284DT     SC353878  45.408 101.020  60.738
 8285DA     BB153879  45.033 100.205  60.961
 8285DA     BB253880  44.864 100.341  60.666
 8285DA     BB353881  44.973 100.293  60.489
 8285DA     SC153882  45.145 100.552  60.495
 8285DA     SC253883  45.167 100.762  60.363
 8285DA     SC353884  45.399 100.781  60.469
 8285DA     SC453885  45.287 100.545  60.570
 8286DA     BB153886  44.676 100.181  60.408
 8286DA     BB253887  44.684 100.419  60.129
 8286DA     BB353888  44.816 100.350  59.976
 8286DA     SC153889  45.065 100.495  60.092
 8286DA     SC253890  45.212 100.687  60.030
 8286DA     SC353891  45.383 100.581  60.189
 8286DA     SC453892  45.159 100.413  60.193
 8287DT     BB153893  44.739 100.294  59.793
 8287DT     BB253894  44.855 100.580  59.606
 8287DT     BB353895  45.016 100.526  59.487
 8287DT     SC153896  45.177 100.517  59.694
 8287DT     SC253897  45.317 100.680  59.682
 8287DT     SC353898  45.341 100.422  59.877
 8288DA     BB153899  44.751 100.697  59.208
 8288DA     BB253900  45.079 100.849  59.150
 8288DA     BB353901  45.206 100.713  59.045
 8288DA     SC153902  45.324 100.584  59.302
 8288DA     SC253903  45.542 100.580  59.423
 8288DA     SC353904  45.452 100.367  59.535
 8288DA     SC453905  45.251 100.453  59.360
 8289DG     BB153906  45.232 100.909  58.790
 8289DG     BB253907  45.579 100.928  58.890
 8289DG     BB353908  45.684 100.785  58.800
 8289DG     SC153909  45.639 100.579  59.021
 8289DG     SC253910  45.849 100.467  59.202
 8289DG     SC353911  45.593 100.322  59.235
 8289DG     SC453912  45.510 100.485  59.014
 8290DT     BB153913  45.870 100.811  58.633
 8290DT     BB253914  46.149 100.749  58.853
 8290DT     BB353915  46.239 100.570  58.803
 8290DT     SC153916  46.044 100.432  58.911
 8290DT     SC253917  46.115 100.334  59.089
 8290DT     SC353918  45.839 100.268  58.933
 8291DA     BB153919  46.530 100.867  58.817
 8291DA     BB253920  46.638 100.592  59.034
 8291DA     BB353921  46.709 100.428  58.916
 8291DA     SC153922  46.431 100.289  58.899
 8291DA     SC253923  46.322 100.083  58.988
 8291DA     SC353924  46.154 100.114  58.796
 8291DA     SC453925  46.338 100.324  58.773
 8292DC     BB153926  46.868 100.417  58.968
 8292DC     BB253927  46.825 100.124  59.173
 8292DC     BB353928  46.868  99.954  59.063
 8292DC     SC153929  46.642  99.972  58.931
 8292DC     SC253930  46.512  99.811  58.990
 8292DC     SC353931  46.473 100.001  58.730
 8293DA     BB153932  47.031  99.980  59.453
 8293DA     BB253933  46.876  99.651  59.408
 8293DA     BB353934  46.983  99.538  59.261
 8293DA     SC153935  46.811  99.639  59.022
 8293DA     SC253936  46.641  99.545  58.865
 8293DA     SC353937  46.701  99.745  58.715
 8293DA     SC453938  46.862  99.769  58.943
 8294DG     BB153939  46.978  99.372  59.520
 8294DG     BB253940  46.798  99.143  59.306
 8294DG     BB353941  46.923  99.059  59.177
 8294DG     SC153942  46.887  99.275  58.963
 8294DG     SC253943  46.758  99.238  58.696
 8294DG     SC353944  46.886  99.504  58.716
 8294DG     SC453945  46.981  99.404  58.967
 8295DA     BB153946  46.774  98.768  59.291
 8295DA     BB253947  46.679  98.685  58.947
 8295DA     BB353948  46.851  98.628  58.834
 8295DA     SC153949  46.911  98.917  58.735
 8295DA     SC253950  46.902  99.044  58.521
 8295DA     SC353951  47.063  99.208  58.635
 8295DA     SC453952  47.012  99.006  58.823
 8296DT     BB153953  46.863  98.440  58.772
 8296DT     BB253954  46.799  98.502  58.423
 8296DT     BB353955  46.976  98.492  58.316
 8296DT     SC153956  47.053  98.726  58.407
 8296DT     SC253957  47.050  98.870  58.247
 8296DT     SC353958  47.195  98.908  58.534
 8297DA     BB153959  46.707  98.235  58.122
 8297DA     BB253960  46.860  98.450  57.867
 8297DA     BB353961  47.062  98.391  57.832
 8297DA     SC153962  47.181  98.582  58.047
 8297DA     SC253963  47.320  98.789  58.054
 8297DA     SC353964  47.371  98.722  58.296
 8297DA     SC453965  47.202  98.523  58.195
 8298DG     BB153966  46.959  98.346  57.542
 8298DG     BB253967  47.191  98.613  57.467
 8298DG     BB353968  47.376  98.540  57.450
 8298DG     SC153969  47.442  98.576  57.747
 8298DG     SC253970  47.644  98.765  57.860
 8298DG     SC353971  47.542  98.582  58.069
 8298DG     SC453972  47.408  98.457  57.849
 8299DA     BB153973  47.376  98.711  57.151
 8299DA     BB253974  47.666  98.905  57.265
 8299DA     BB353975  47.842  98.785  57.260
 8299DA     SC153976  47.810  98.684  57.553
 8299DA     SC253977  47.925  98.714  57.772
 8299DA     SC353978  47.809  98.496  57.840
 8299DA     SC453979  47.730  98.546  57.576
 8300DA     BB153980  47.933  99.049  57.090
 8300DA     BB253981  48.196  99.093  57.342
 8300DA     BB353982  48.347  98.944  57.318
 8300DA     SC153983  48.212  98.742  57.513
 8300DA     SC253984  48.255  98.647  57.739
 8300DA     SC353985  48.095  98.459  57.668
 8300DA     SC453986  48.111  98.634  57.449
 8301DA     BB153987  48.530  99.217  57.316
 8301DA     BB253988  48.706  99.077  57.605
 8301DA     BB353989  48.831  98.915  57.545
 8301DA     SC153990  48.612  98.698  57.589
 8301DA     SC253991  48.567  98.510  57.746
 8301DA     SC353992  48.410  98.422  57.564
 8301DA     SC453993  48.520  98.659  57.463
 8302DA     BB153994  49.074  99.084  57.695
 8302DA     BB253995  49.123  98.794  57.913
 8302DA     BB353996  49.227  98.639  57.810
 8302DA     SC153997  48.969  98.502  57.704
 8302DA     SC253998  48.843  98.290  57.744
 8302DA     SC353999  48.736  98.335  57.515
 8302DA     SC454000  48.915  98.546  57.559
 8303DA     BB154001  49.460  98.639  58.053
 8303DA     BB254002  49.373  98.289  58.121
 8303DA     BB354003  49.469  98.160  57.981
 8303DA     SC154004  49.234  98.166  57.777
 8303DA     SC254005  49.060  98.009  57.691
 8303DA     SC354006  49.044  98.170  57.492
 8303DA     SC454007  49.240  98.277  57.661
 8304DT     BB154008  49.646  98.003  58.021
 8304DT     BB254009  49.439  97.708  58.002
 8304DT     BB354010  49.490  97.596  57.835
 8304DT     SC154011  49.370  97.767  57.676
 8304DT     SC254012  49.194  97.675  57.592
 8304DT     SC354013  49.335  97.947  57.486
 8305DG     BB154014  49.571  97.326  58.134
 8305DG     BB254015  49.345  97.182  57.891
 8305DG     BB354016  49.449  97.108  57.738
 8305DG     SC154017  49.445  97.368  57.577
 8305DG     SC254018  49.303  97.413  57.318
 8305DG     SC354019  49.478  97.642  57.383
 8305DG     SC454020  49.562  97.476  57.600
 8306DA     BB154021  49.279  96.812  57.788
 8306DA     BB254022  49.130  96.841  57.454
 8306DA     BB354023  49.269  96.778  57.305
 8306DA     SC154024  49.390  97.062  57.263
 8306DA     SC254025  49.391  97.237  57.085
 8306DA     SC354026  49.600  97.327  57.204
 8306DA     SC454027  49.519  97.101  57.350
 8307DG     BB154028  49.036  96.588  57.261
 8307DG     BB254029  49.015  96.768  56.948
 8307DG     BB354030  49.150  96.698  56.820
 8307DG     SC154031  49.370  96.892  56.909
 8307DG     SC254032  49.487  97.111  56.743
 8307DG     SC354033  49.639  97.076  56.994
 8307DG     SC454034  49.466  96.850  57.030
 8308DA     BB154035  48.858  96.713  56.647
 8308DA     BB254036  49.026  96.929  56.403
 8308DA     BB354037  49.174  96.819  56.295
 8308DA     SC154038  49.404  96.885  56.494
 8308DA     SC254039  49.612  97.021  56.496
 8308DA     SC354040  49.683  96.873  56.693
 8308DA     SC454041  49.430  96.781  56.614
 8309DG     BB154042  48.973  96.958  56.109
 8309DG     BB254043  49.276  97.116  55.993
 8309DG     BB354044  49.390  96.984  55.898
 8309DG     SC154045  49.541  96.896  56.150
 8309DG     SC254046  49.830  96.942  56.206
 8309DG     SC354047  49.711  96.762  56.408
 8309DG     SC454048  49.481  96.777  56.239
 8310DT     BB154049  49.417  97.050  55.726
 8310DT     BB254050  49.770  97.124  55.713
 8310DT     BB354051  49.875  96.955  55.654
 8310DT     SC154052  49.844  96.844  55.890
 8310DT     SC254053  50.034  96.837  55.991
 8310DT     SC354054  49.767  96.674  56.075
 8311DA     BB154055  50.006  97.259  55.392
 8311DA     BB254056  50.302  97.067  55.493
 8311DA     BB354057  50.301  96.876  55.399
 8311DA     SC154058  50.147  96.736  55.630
 8311DA     SC254059  50.193  96.568  55.808
 8311DA     SC354060  49.939  96.535  55.816
 8311DA     SC454061  49.986  96.729  55.619
 8312DA     BB154062  50.609  96.927  55.260
 8312DA     BB254063  50.730  96.627  55.434
 8312DA     BB354064  50.669  96.451  55.329
 8312DA     SC154065  50.402  96.421  55.487
 8312DA     SC254066  50.305  96.266  55.657
 8312DA     SC354067  50.078  96.358  55.580
 8312DA     SC454068  50.271  96.489  55.425
 8313DT     BB154069  50.798  96.284  55.195
 8313DT     BB254070  50.782  96.015  55.435
 8313DT     BB354071  50.666  95.861  55.360
 8313DT     SC154072  50.445  95.996  55.404
 8313DT     SC254073  50.335  95.903  55.564
 8313DT     SC354074  50.220  96.124  55.357
 8314DA     BB154075  51.019  95.632  55.425
 8314DA     BB254076  50.745  95.444  55.581
 8314DA     BB354077  50.637  95.335  55.433
 8314DA     SC154078  50.433  95.563  55.377
 8314DA     SC254079  50.191  95.608  55.416
 8314DA     SC354080  50.214  95.784  55.230
 8314DA     SC454081  50.468  95.666  55.259
 8315DG     BB154082  50.708  95.042  55.557
 8315DG     BB254083  50.354  95.027  55.626
 8315DG     BB354084  50.259  94.942  55.473
 8315DG     SC154085  50.211  95.206  55.325
 8315DG     SC254086  49.946  95.335  55.277
 8315DG     SC354087  50.159  95.473  55.126
 8315DG     SC454088  50.322  95.258  55.223
 8316DT     BB154089  50.133  94.729  55.472
 8316DT     BB254090  49.796  94.857  55.481
 8316DT     BB354091  49.703  94.824  55.299
 8316DT     SC154092  49.840  95.016  55.185
 8316DT     SC254093  49.708  95.180  55.138
 8316DT     SC354094  50.007  95.138  55.022
 8317DT     BB154095  49.538  94.619  55.397
 8317DT     BB254096  49.308  94.866  55.269
 8317DT     BB354097  49.266  94.828  55.070
 8317DT     SC154098  49.501  94.917  54.995
 8317DT     SC254099  49.476  95.102  54.888
 8317DT     SC354100  49.744  94.920  54.893
 8318DT     BB154101  49.011  94.743  55.132
 8318DT     BB254102  48.964  95.020  54.905
 8318DT     BB354103  48.964  94.952  54.710
 8318DT     SC154104  49.224  94.918  54.713
 8318DT     SC254105  49.316  95.064  54.585
 8318DT     SC354106  49.459  94.799  54.705
 8319DG     BB154107  48.612  95.144  54.777
 8319DG     BB254108  48.788  95.283  54.493
 8319DG     BB354109  48.763  95.166  54.334
 8319DG     SC154110  49.008  94.992  54.392
 8319DG     SC254111  49.256  94.978  54.227
 8319DG     SC354112  49.257  94.769  54.436
 8319DG     SC454113  48.991  94.863  54.486
 8320DT     BB154114  48.673  95.258  54.177
 8320DT     BB254115  48.956  95.311  53.958
 8320DT     BB354116  48.959  95.166  53.811
 8320DT     SC154117  49.045  94.984  53.981
 8320DT     SC254118  49.248  94.933  53.933
 8320DT     SC354119  49.050  94.767  54.129
 8321DA     BB154120  49.012  95.561  53.679
 8321DA     BB254121  49.275  95.350  53.535
 8321DA     BB354122  49.193  95.213  53.394
 8321DA     SC154123  49.143  94.988  53.603
 8321DA     SC254124  49.235  94.763  53.657
 8321DA     SC354125  49.015  94.725  53.782
 8321DA     SC454126  48.999  94.984  53.674
 8322DT     BB154127  49.277  95.266  53.268
 8322DT     BB254128  49.493  94.979  53.235
 8322DT     BB354129  49.400  94.834  53.120
 8322DT     SC154130  49.239  94.769  53.317
 8322DT     SC254131  49.291  94.573  53.389
 8322DT     SC354132  49.017  94.734  53.454
 8323DT     BB154133  49.594  94.906  52.967
 8323DT     BB254134  49.628  94.549  53.009
 8323DT     BB354135  49.488  94.451  52.893
 8323DT     SC154136  49.294  94.515  53.058
 8323DT     SC254137  49.226  94.338  53.160
 8323DT     SC354138  49.072  94.623  53.149
 8324DT     BB154139  49.691  94.376  52.738
 8324DT     BB254140  49.526  94.068  52.829
 8324DT     BB354141  49.364  94.035  52.704
 8324DT     SC154142  49.223  94.220  52.825
 8324DT     SC254143  49.063  94.126  52.935
 8324DT     SC354144  49.086  94.442  52.865
 8325DA     BB154145  49.587  93.679  52.674
 8325DA     BB254146  49.237  93.585  52.731
 8325DA     BB354147  49.123  93.615  52.553
 8325DA     SC154148  49.043  93.907  52.623
 8325DA     SC254149  48.838  94.032  52.690
 8325DA     SC354150  48.964  94.241  52.611
 8325DA     SC454151  49.138  94.025  52.568
 8326DA     BB154152  49.032  93.295  52.576
 8326DA     BB254153  48.687  93.410  52.615
 8326DA     BB354154  48.603  93.460  52.425
 8326DA     SC154155  48.692  93.758  52.437
 8326DA     SC254156  48.584  93.982  52.462
 8326DA     SC354157  48.801  94.075  52.361
 8326DA     SC454158  48.834  93.796  52.372
 8327DG     BB154159  48.392  93.236  52.479
 8327DG     BB254160  48.164  93.517  52.491
 8327DG     BB354161  48.104  93.563  52.307
 8327DG     SC154162  48.333  93.760  52.255
 8327DG     SC254163  48.306  94.055  52.220
 8327DG     SC354164  48.581  93.966  52.156
 8327DG     SC454165  48.470  93.705  52.193
 8328DG     BB154166  47.806  93.515  52.423
 8328DG     BB254167  47.754  93.867  52.359
 8328DG     BB354168  47.710  93.895  52.167
 8328DG     SC154169  48.001  93.930  52.079
 8328DG     SC254170  48.125  94.181  51.975
 8328DG     SC354171  48.310  93.952  51.945
 8328DG     SC454172  48.086  93.800  52.038
 8329DT     BB154173  47.541  93.981  52.156
 8329DT     BB254174  47.631  94.317  52.059
 8329DT     BB354175  47.622  94.336  51.853
 8329DT     SC154176  47.845  94.200  51.824
 8329DT     SC254177  48.001  94.333  51.756
 8329DT     SC354178  48.012  94.009  51.752
 8330DT     BB154179  47.437  94.488  51.941
 8330DT     BB254180  47.654  94.696  51.741
 8330DT     BB354181  47.625  94.656  51.540
 8330DT     SC154182  47.755  94.429  51.557
 8330DT     SC254183  47.941  94.446  51.451
 8330DT     SC354184  47.804  94.170  51.552
 8331DT     BB154185  47.531  94.896  51.558
 8331DT     BB254186  47.777  94.906  51.293
 8331DT     BB354187  47.700  94.820  51.122
 8331DT     SC154188  47.725  94.578  51.221
 8331DT     SC254189  47.880  94.474  51.115
 8331DT     SC354190  47.661  94.340  51.312
 8332DA     BB154191  47.846  95.197  51.002
 8332DA     BB254192  47.952  94.952  50.751
 8332DA     BB354193  47.785  94.888  50.634
 8332DA     SC154194  47.714  94.649  50.821
 8332DA     SC254195  47.722  94.400  50.812
 8332DA     SC354196  47.551  94.409  51.004
 8332DA     SC454197  47.608  94.676  50.938
 8333DA     BB154198  47.936  94.981  50.343
 8333DA     BB254199  47.911  94.633  50.228
 8333DA     BB354200  47.716  94.593  50.153
 8333DA     SC154201  47.602  94.499  50.426
 8333DA     SC254202  47.526  94.285  50.531
 8333DA     SC354203  47.402  94.435  50.698
 8333DA     SC454204  47.531  94.609  50.519
 8334DT     BB154205  47.634  94.553  49.919
 8334DT     BB254206  47.579  94.198  49.958
 8334DT     BB354207  47.377  94.156  49.946
 8334DT     SC154208  47.334  94.252  50.186
 8334DT     SC254209  47.284  94.091  50.319
 8334DT     SC354210  47.241  94.407  50.378
 8335DG     BB154211  47.494  93.936  49.613
 8335DG     BB254212  47.303  93.728  49.839
 8335DG     BB354213  47.109  93.748  49.801
 8335DG     SC154214  47.070  93.981  49.995
 8335DG     SC254215  46.909  93.975  50.247
 8335DG     SC354216  46.996  94.251  50.184
 8335DG     SC454217  47.093  94.130  49.943
 8336DT     BB154218  46.947  93.574  49.719
 8336DT     BB254219  46.782  93.497  50.030
 8336DT     BB354220  46.587  93.564  50.025
 8336DT     SC154221  46.663  93.813  50.055
 8336DT     SC254222  46.604  93.883  50.250
 8336DT     SC354223  46.702  94.069  50.004
 8337DT     BB154224  46.491  93.307  50.007
 8337DT     BB254225  46.344  93.438  50.309
 8337DT     BB354226  46.164  93.531  50.266
 8337DT     SC154227  46.288  93.738  50.161
 8337DT     SC254228  46.261  93.909  50.289
 8337DT     SC354229  46.368  93.916  49.983
 8338DA     BB154230  46.129  93.262  50.584
 8338DA     BB254231  45.985  93.583  50.687
 8338DA     BB354232  45.801  93.618  50.584
 8338DA     SC154233  45.934  93.768  50.346
 8338DA     SC254234  45.944  94.000  50.256
 8338DA     SC354235  46.016  93.891  50.036
 8338DA     SC454236  45.976  93.681  50.217
 8339DG     BB154237  45.737  93.628  50.882
 8339DG     BB254238  45.656  93.971  50.799
 8339DG     BB354239  45.482  93.978  50.703
 8339DG     SC154240  45.608  93.948  50.425
 8339DG     SC254241  45.611  94.156  50.211
 8339DG     SC354242  45.710  93.897  50.108
 8339DG     SC454243  45.632  93.801  50.366
 8340DC     BB154244  45.356  94.088  50.800
 8340DC     BB254245  45.330  94.382  50.593
 8340DC     BB354246  45.170  94.363  50.463
 8340DC     SC154247  45.302  94.193  50.313
 8340DC     SC254248  45.349  94.286  50.124
 8340DC     SC354249  45.366  93.969  50.190
 8341DT     BB154250  45.058  94.550  50.612
 8341DT     BB254251  45.046  94.681  50.276
 8341DT     BB354252  44.883  94.602  50.175
 8341DT     SC154253  45.003  94.370  50.148
 8341DT     SC254254  45.053  94.339  49.940
 8341DT     SC354255  45.053  94.112  50.171
 8342DT     BB154256  44.770  94.843  50.193
 8342DT     BB254257  44.764  94.764  49.841
 8342DT     BB354258  44.600  94.646  49.798
 8342DT     SC154259  44.712  94.435  49.906
 8342DT     SC254260  44.762  94.294  49.752
 8342DT     SC354261  44.754  94.234  50.071
 8343DC     BB154262  44.464  94.853  49.674
 8343DC     BB254263  44.466  94.591  49.426
 8343DC     BB354264  44.302  94.467  49.452
 8343DC     SC154265  44.411  94.354  49.662
 8343DC     SC254266  44.464  94.151  49.615
 8343DC     SC354267  44.447  94.279  49.913
 8344DG     BB154268  44.237  94.607  49.071
 8344DG     BB254269  44.219  94.246  49.078
 8344DG     BB354270  44.039  94.189  49.141
 8344DG     SC154271  44.117  94.184  49.437
 8344DG     SC254272  44.135  93.941  49.610
 8344DG     SC354273  44.162  94.187  49.771
 8344DG     SC454274  44.101  94.317  49.524
 8345DT     BB154275  43.867  94.065  49.016
 8345DT     BB254276  43.902  93.738  49.163
 8345DT     BB354277  43.738  93.696  49.282
 8345DT     SC154278  43.823  93.858  49.470
 8345DT     SC254279  43.884  93.743  49.641
 8345DT     SC354280  43.831  94.063  49.636
 8346DT     BB154281  43.625  93.512  49.103
 8346DT     BB254282  43.667  93.324  49.408
 8346DT     BB354283  43.497  93.340  49.525
 8346DT     SC154284  43.558  93.585  49.595
 8346DT     SC254285  43.612  93.589  49.803
 8346DT     SC354286  43.542  93.847  49.620
 8347DA     BB154287  43.578  92.931  49.484
 8347DA     BB254288  43.534  93.002  49.841
 8347DA     BB354289  43.328  93.032  49.886
 8347DA     SC154290  43.338  93.340  49.838
 8347DA     SC254291  43.324  93.548  49.974
 8347DA     SC354292  43.266  93.664  49.753
 8347DA     SC454293  43.302  93.393  49.691
 8348DT     BB154294  43.245  92.900  50.004
 8348DT     BB254295  43.235  93.108  50.299
 8348DT     BB354296  43.043  93.177  50.330
 8348DT     SC154297  43.064  93.349  50.133
 8348DT     SC254298  43.069  93.548  50.213
 8348DT     SC354299  43.018  93.469  49.903
 8349DT     BB154300  43.035  93.013  50.541
 8349DT     BB254301  42.972  93.342  50.675
 8349DT     BB354302  42.771  93.388  50.657
 8349DT     SC154303  42.796  93.430  50.399
 8349DT     SC254304  42.772  93.640  50.358
 8349DT     SC354305  42.764  93.401  50.138
 8350DA     BB154306  42.905  93.460  51.048
 8350DA     BB254307  42.721  93.755  50.932
 8350DA     BB354308  42.512  93.712  50.919
 8350DA     SC154309  42.526  93.619  50.622
 8350DA     SC254310  42.449  93.701  50.399
 8350DA     SC354311  42.478  93.458  50.323
 8350DA     SC454312  42.549  93.462  50.594
 8351DA     BB154313  42.515  93.983  51.102
 8351DA     BB254314  42.312  94.137  50.839
 8351DA     BB354315  42.114  94.058  50.842
 8351DA     SC154316  42.176  93.827  50.643
 8351DA     SC254317  42.118  93.766  50.408
 8351DA     SC354318  42.185  93.528  50.476
 8351DA     SC454319  42.221  93.686  50.705
 8352DT     BB154320  41.974  94.184  50.889
 8352DT     BB254321  41.830  94.219  50.561
 8352DT     BB354322  41.656  94.108  50.548
 8352DT     SC154323  41.791  93.884  50.533
 8352DT     SC254324  41.771  93.801  50.335
 8352DT     SC354325  41.883  93.645  50.596
 8353DA     BB154326  41.563  94.497  50.419
 8353DA     BB254327  41.426  94.262  50.173
 8353DA     BB354328  41.254  94.163  50.253
 8353DA     SC154329  41.416  93.925  50.372
 8353DA     SC254330  41.446  93.682  50.328
 8353DA     SC354331  41.532  93.669  50.569
 8353DA     SC454332  41.466  93.938  50.524
 8354DA     BB154333  41.107  94.274  49.978
 8354DA     BB254334  41.042  93.924  49.891
 8354DA     BB354335  40.880  93.847  50.007
 8354DA     SC154336  41.061  93.743  50.237
 8354DA     SC254337  41.135  93.524  50.329
 8354DA     SC354338  41.191  93.655  50.542
 8354DA     SC454339  41.088  93.842  50.361
 8355DT     BB154340  40.686  93.794  49.922
 8355DT     BB254341  40.726  93.436  49.943
 8355DT     BB354342  40.603  93.360  50.091
 8355DT     SC154343  40.761  93.451  50.280
 8355DT     SC254344  40.858  93.287  50.378
 8355DT     SC354345  40.845  93.591  50.487
 8356DC     BB154346  40.418  93.246  49.914
 8356DC     BB254347  40.523  92.968  50.118
 8356DC     BB354348  40.399  92.951  50.284
 8356DC     SC154349  40.511  93.159  50.399
 8356DC     SC254350  40.625  93.093  50.569
 8356DC     SC354351  40.539  93.399  50.504
 8357DT     BB154352  40.262  92.724  50.189
 8357DT     BB254353  40.396  92.619  50.508
 8357DT     BB354354  40.258  92.657  50.658
 8357DT     SC154355  40.309  92.914  50.651
 8357DT     SC254356  40.411  92.972  50.831
 8357DT     SC354357  40.273  93.174  50.618
 8358DA     BB154358  40.362  92.253  50.697
 8358DA     BB254359  40.397  92.409  51.027
 8358DA     BB354360  40.205  92.442  51.115
 8358DA     SC154361  40.172  92.728  50.996
 8358DA     SC254362  40.170  92.963  51.080
 8358DA     SC354363  40.049  93.018  50.860
 8358DA     SC454364  40.097  92.741  50.855
 8359DA     BB154365  40.351  92.275  51.354
 8359DA     BB254366  40.303  92.573  51.562
 8359DA     BB354367  40.100  92.590  51.624
 8359DA     SC154368  40.014  92.762  51.379
 8359DA     SC254369  39.944  92.997  51.334
 8359DA     SC354370  39.843  92.903  51.117
 8359DA     SC454371  39.957  92.684  51.250
 8360DT     BB154372  40.076  92.573  51.811
 8360DT     BB254373  40.012  92.921  51.878
 8360DT     BB354374  39.808  92.952  51.903
 8360DT     SC154375  39.765  92.929  51.645
 8360DT     SC254376  39.710  93.121  51.565
 8360DT     SC354377  39.675  92.835  51.415
 8361DG     BB154378  40.010  93.085  52.230
 8361DG     BB254379  39.788  93.338  52.098
 8361DG     BB354380  39.600  93.296  52.149
 8361DG     SC154381  39.544  93.128  51.899
 8361DG     SC254382  39.354  93.197  51.680
 8361DG     SC354383  39.454  92.921  51.649
 8361DG     SC454384  39.576  92.971  51.903
 8362DA     BB154385  39.604  93.625  52.253
 8362DA     BB254386  39.321  93.697  52.032
 8362DA     BB354387  39.142  93.610  52.110
 8362DA     SC154388  39.177  93.341  51.958
 8362DA     SC254389  39.067  93.219  51.770
 8362DA     SC354390  39.179  93.010  51.867
 8362DA     SC454391  39.254  93.222  52.034
 8363DT     BB154392  39.007  93.737  52.165
 8363DT     BB254393  38.772  93.679  51.898
 8363DT     BB354394  38.617  93.558  51.964
 8363DT     SC154395  38.771  93.345  51.959
 8363DT     SC254396  38.707  93.215  51.801
 8363DT     SC354397  38.907  93.136  52.043
 8364DC     BB154398  38.446  93.771  51.965
 8364DC     BB254399  38.279  93.525  51.761
 8364DC     BB354400  38.166  93.399  51.880
 8364DC     SC154401  38.381  93.274  51.965
 8364DC     SC254402  38.384  93.074  51.884
 8364DC     SC354403  38.568  93.183  52.128
 8365DT     BB154404  37.920  93.511  51.808
 8365DT     BB254405  37.875  93.160  51.739
 8365DT     BB354406  37.801  93.064  51.907
 8365DT     SC154407  38.035  93.075  52.026
 8365DT     SC254408  38.117  92.876  52.039
 8365DT     SC354409  38.221  93.137  52.202
 8366DA     BB154410  37.501  92.954  51.629
 8366DA     BB254411  37.600  92.647  51.802
 8366DA     BB354412  37.507  92.637  51.994
 8366DA     SC154413  37.741  92.780  52.141
 8366DA     SC254414  37.920  92.721  52.305
 8366DA     SC354415  37.931  92.973  52.352
 8366DA     SC454416  37.732  92.940  52.158
 8367DT     BB154417  37.328  92.486  52.080
 8367DT     BB254418  37.546  92.280  52.280
 8367DT     BB354419  37.501  92.304  52.481
 8367DT     SC154420  37.617  92.540  52.486
 8367DT     SC254421  37.797  92.528  52.603
 8367DT     SC354422  37.647  92.801  52.510
 8368DA     BB154423  37.452  91.885  52.454
 8368DA     BB254424  37.680  91.946  52.734
 8368DA     BB354425  37.571  91.999  52.909
 8368DA     SC154426  37.580  92.305  52.851
 8368DA     SC254427  37.689  92.508  52.946
 8368DA     SC354428  37.506  92.639  52.823
 8368DA     SC454429  37.457  92.368  52.768
 8369DT     BB154430  37.554  91.872  53.103
 8369DT     BB254431  37.794  92.070  53.287
 8369DT     BB354432  37.699  92.168  53.443
 8369DT     SC154433  37.589  92.340  53.279
 8369DT     SC254434  37.679  92.534  53.308
 8369DT     SC354435  37.404  92.474  53.146
 8370DG     BB154436  38.001  91.938  53.583
 8370DG     BB254437  38.041  92.286  53.674
 8370DG     BB354438  37.923  92.330  53.828
 8370DG     SC154439  37.685  92.410  53.654
 8370DG     SC254440  37.571  92.685  53.629
 8370DG     SC354441  37.398  92.487  53.495
 8370DG     SC454442  37.580  92.298  53.609
 8371DT     BB154443  38.036  92.394  53.963
 8371DT     BB254444  37.968  92.748  53.952
 8371DT     BB354445  37.824  92.797  54.093
 8371DT     SC154446  37.634  92.693  53.945
 8371DT     SC254447  37.508  92.850  53.869
 8371DT     SC354448  37.438  92.533  53.868
 8372DG     BB154449  38.181  93.007  54.045
 8372DG     BB254450  37.887  93.219  54.041
 8372DG     BB354451  37.798  93.215  54.219
 8372DG     SC154452  37.619  92.977  54.151
 8372DG     SC254453  37.321  92.984  54.124
 8372DG     SC354454  37.421  92.705  54.118
 8372DG     SC454455  37.673  92.828  54.178
 8373DT     BB154456  37.797  93.389  54.254
 8373DT     BB254457  37.446  93.472  54.245
 8373DT     BB354458  37.357  93.427  54.426
 8373DT     SC154459  37.362  93.170  54.374
 8373DT     SC254460  37.160  93.101  54.342
 8373DT     SC354461  37.420  92.914  54.393
 8374DA     BB154462  37.256  93.814  54.285
 8374DA     BB254463  36.953  93.648  54.409
 8374DA     BB354464  36.965  93.621  54.620
 8374DA     SC154465  37.096  93.339  54.601
 8374DA     SC254466  37.033  93.102  54.647
 8374DA     SC354467  37.286  93.058  54.653
 8374DA     SC454468  37.257  93.332  54.602
 8375DT     BB154469  36.839  93.721  54.725
 8375DT     BB254470  36.631  93.447  54.831
 8375DT     BB354471  36.680  93.391  55.024
 8375DT     SC154472  36.900  93.274  54.943
 8375DT     SC254473  36.880  93.061  54.965
 8375DT     SC354474  37.157  93.221  54.912
 8376DT     BB154475  36.453  93.504  55.132
 8376DT     BB254476  36.444  93.163  55.250
 8376DT     BB354477  36.548  93.147  55.427
 8376DT     SC154478  36.778  93.164  55.303
 8376DT     SC254479  36.878  92.973  55.312
 8376DT     SC354480  37.014  93.256  55.228
 8377DC     BB154481  36.320  93.123  55.583
 8377DC     BB254482  36.512  92.829  55.665
 8377DC     BB354483  36.640  92.871  55.823
 8377DC     SC154484  36.800  93.008  55.666
 8377DC     SC254485  36.985  92.901  55.641
 8377DC     SC354486  36.934  93.212  55.566
 8378DT     BB154487  36.492  92.726  56.007
 8378DT     BB254488  36.820  92.578  56.024
 8378DT     BB354489  36.935  92.678  56.165
 8378DT     SC154490  36.968  92.883  56.005
 8378DT     SC254491  37.173  92.891  55.939
 8378DT     SC354492  36.955  93.129  55.911
 8379DT     BB154493  36.920  92.468  56.341
 8379DT     BB254494  37.274  92.517  56.291
 8379DT     BB354495  37.345  92.657  56.426
 8379DT     SC154496  37.236  92.854  56.292
 8379DT     SC254497  37.390  92.972  56.200
 8379DT     SC354498  37.080  93.059  56.234
 8380DA     BB154499  37.591  92.319  56.462
 8380DA     BB254500  37.808  92.613  56.424
 8380DA     BB354501  37.809  92.728  56.604
 8380DA     SC154502  37.570  92.908  56.519
 8380DA     SC254503  37.532  93.146  56.453
 8380DA     SC354504  37.287  93.102  56.514
 8380DA     SC454505  37.423  92.862  56.563
 8381DA     BB154506  38.135  92.690  56.576
 8381DA     BB254507  38.158  93.055  56.551
 8381DA     BB354508  38.133  93.144  56.744
 8381DA     SC154509  37.824  93.173  56.718
 8381DA     SC254510  37.658  93.357  56.692
 8381DA     SC354511  37.487  93.187  56.778
 8381DA     SC454512  37.733  93.053  56.774
 8382DG     BB154513  38.421  93.259  56.702
 8382DG     BB254514  38.248  93.576  56.705
 8382DG     BB354515  38.220  93.636  56.892
 8382DG     SC154516  37.950  93.497  56.924
 8382DG     SC254517  37.685  93.632  56.957
 8382DG     SC354518  37.661  93.340  57.000
 8382DG     SC454519  37.946  93.345  56.975
 8383DT     BB154520  38.313  93.826  56.974
 8383DT     BB254521  38.026  94.045  56.984
 8383DT     BB354522  37.961  94.068  57.179
 8383DT     SC154523  37.856  93.828  57.181
 8383DT     SC254524  37.642  93.843  57.186
 8383DT     SC354525  37.814  93.576  57.247
 8384DC     BB154526  38.056  94.325  57.186
 8384DC     BB254527  37.706  94.357  57.265
 8384DC     BB354528  37.677  94.335  57.469
 8384DC     SC154529  37.714  94.076  57.455
 8384DC     SC254530  37.528  93.975  57.492
 8384DC     SC354531  37.821  93.838  57.493
 8385DC     BB154532  37.625  94.602  57.492
 8385DC     BB254533  37.331  94.440  57.625
 8385DC     BB354534  37.357  94.401  57.826
 8385DC     SC154535  37.519  94.201  57.774
 8385DC     SC254536  37.423  94.016  57.826
 8385DC     SC354537  37.739  94.056  57.766
 8386DT     BB154538  37.179  94.596  57.884
 8386DT     BB254539  37.043  94.299  58.038
 8386DT     BB354540  37.123  94.275  58.227
 8386DT     SC154541  37.352  94.194  58.128
 8386DT     SC254542  37.378  93.984  58.170
 8386DT     SC354543  37.609  94.188  58.070
 8387DG     BB154544  36.718  94.292  58.265
 8387DG     BB254545  36.853  93.998  58.425
 8387DG     BB354546  36.934  94.047  58.600
 8387DG     SC154547  37.212  94.103  58.485
 8387DG     SC254548  37.459  93.945  58.539
 8387DG     SC354549  37.523  94.192  58.389
 8387DG     SC454550  37.245  94.250  58.431
 8388DG     BB154551  36.728  93.831  58.733
 8388DG     BB254552  37.024  93.652  58.839
 8388DG     BB354553  37.097  93.734  59.004
 8388DG     SC154554  37.279  93.931  58.857
 8388DG     SC254555  37.577  93.929  58.857
 8388DG     SC354556  37.474  94.174  58.727
 8388DG     SC454557  37.220  94.074  58.815
 8389DT     BB154558  37.106  93.615  59.181
 8389DT     BB254559  37.459  93.546  59.207
 8389DT     BB354560  37.545  93.669  59.349
 8389DT     SC154561  37.534  93.876  59.187
 8389DT     SC254562  37.733  93.930  59.127
 8389DT     SC354563  37.467  94.112  59.091
 8390DG     BB154564  37.620  93.283  59.455
 8390DG     BB254565  37.924  93.480  59.449
 8390DG     BB354566  37.934  93.594  59.612
 8390DG     SC154567  37.786  93.831  59.486
 8390DG     SC254568  37.903  94.098  59.424
 8390DG     SC354569  37.610  94.101  59.386
 8390DG     SC454570  37.626  93.836  59.495
 8391DT     BB154571  38.097  93.568  59.756
 8391DT     BB254572  38.301  93.859  59.694
 8391DT     BB354573  38.269  94.000  59.842
 8391DT     SC154574  38.036  94.065  59.741
 8391DT     SC254575  38.047  94.263  59.657
 8391DT     SC354576  37.775  94.098  59.720
 8392DA     BB154577  38.684  93.940  59.813
 8392DA     BB254578  38.621  94.302  59.811
 8392DA     BB354579  38.562  94.368  60.005
 8392DA     SC154580  38.258  94.327  59.955
 8392DA     SC254581  38.055  94.468  59.925
 8392DA     SC354582  37.924  94.257  59.987
 8392DA     SC454583  38.194  94.185  59.996
 8393DC     BB154584  38.686  94.492  60.109
 8393DC     BB254585  38.490  94.792  60.069
 8393DC     BB354586  38.392  94.837  60.246
 8393DC     SC154587  38.219  94.644  60.207
 8393DC     SC254588  38.025  94.729  60.165
 8393DC     SC354589  38.084  94.420  60.244
 8394DA     BB154590  38.597  95.185  60.135
 8394DA     BB254591  38.251  95.279  60.213
 8394DA     BB354592  38.219  95.274  60.424
 8394DA     SC154593  38.127  94.977  60.427
 8394DA     SC254594  37.915  94.849  60.464
 8394DA     SC354595  38.069  94.649  60.510
 8394DA     SC454596  38.239  94.864  60.453
 8395DT     BB154597  38.181  95.448  60.522
 8395DT     BB254598  37.828  95.391  60.574
 8395DT     BB354599  37.793  95.341  60.771
 8395DT     SC154600  37.890  95.100  60.736
 8395DT     SC254601  37.730  94.956  60.748
 8395DT     SC354602  38.047  94.890  60.760
 8396DT     BB154603  37.679  95.584  60.813
 8396DT     BB254604  37.424  95.347  60.905
 8396DT     BB354605  37.447  95.291  61.103
 8396DT     SC154606  37.654  95.140  61.045
 8396DT     SC254607  37.600  94.933  61.070
 8396DT     SC354608  37.901  95.050  61.039
 8397DT     BB154609  37.227  95.433  61.163
 8397DT     BB254610  37.155  95.099  61.278
 8397DT     BB354611  37.230  95.072  61.469
 8397DT     SC154612  37.476  95.055  61.378
 8397DT     SC254613  37.547  94.853  61.401
 8397DT     SC354614  37.730  95.113  61.337
 8398DT     BB154615  36.978  95.075  61.565
 8398DT     BB254616  37.114  94.759  61.675
 8398DT     BB354617  37.216  94.784  61.853
 8398DT     SC154618  37.418  94.899  61.731
 8398DT     SC254619  37.589  94.769  61.736
 8398DT     SC354620  37.592  95.084  61.659
 8399DT     BB154621  37.018  94.654  61.982
 8399DT     BB254622  37.316  94.467  62.060
 8399DT     BB354623  37.411  94.551  62.224
 8399DT     SC154624  37.500  94.751  62.080
 8399DT     SC254625  37.713  94.734  62.058
 8399DT     SC354626  37.535  94.997  61.993
 8400DC     BB154627  37.333  94.341  62.380
 8400DC     BB254628  37.693  94.348  62.409
 8400DC     BB354629  37.749  94.477  62.561
 8400DC     SC154630  37.695  94.687  62.414
 8400DC     SC254631  37.878  94.786  62.361
 8400DC     SC354632  37.580  94.910  62.331
 8401DA     BB154633  37.941  94.112  62.641
 8401DA     BB254634  38.192  94.378  62.662
 8401DA     BB354635  38.167  94.490  62.842
 8401DA     SC154636  37.975  94.699  62.714
 8401DA     SC254637  37.981  94.940  62.651
 8401DA     SC354638  37.725  94.926  62.655
 8401DA     SC454639  37.817  94.670  62.723
 8402DT     BB154640  38.312  94.483  62.992
 8402DT     BB254641  38.451  94.811  62.932
 8402DT     BB354642  38.394  94.940  63.083
 8402DT     SC154643  38.150  94.957  62.988
 8402DT     SC254644  38.118  95.154  62.908
 8402DT     SC354645  37.888  94.936  62.973
 8403DA     BB154646  38.810  94.966  63.044
 8403DA     BB254647  38.676  95.307  63.044
 8403DA     BB354648  38.614  95.363  63.241
 8403DA     SC154649  38.323  95.261  63.204
 8403DA     SC254650  38.094  95.359  63.184
 8403DA     SC354651  38.010  95.126  63.252
 8403DA     SC454652  38.290  95.110  63.249
 8404DA     BB154653  38.812  95.612  63.167
 8404DA     BB254654  38.520  95.830  63.211
 8404DA     BB354655  38.475  95.852  63.418
 8404DA     SC154656  38.279  95.610  63.426
 8404DA     SC254657  38.034  95.571  63.450
 8404DA     SC354658  38.100  95.332  63.517
 8404DA     SC454659  38.340  95.467  63.466
 8405DA     BB154660  38.493  96.166  63.327
 8405DA     BB254661  38.145  96.198  63.437
 8405DA     BB354662  38.134  96.198  63.650
 8405DA     SC154663  38.100  95.890  63.673
 8405DA     SC254664  37.922  95.728  63.737
 8405DA     SC354665  38.114  95.562  63.773
 8405DA     SC454666  38.234  95.802  63.691
 8406DT     BB154667  38.075  96.366  63.739
 8406DT     BB254668  37.748  96.253  63.841
 8406DT     BB354669  37.748  96.211  64.044
 8406DT     SC154670  37.882  95.989  64.006
 8406DT     SC254671  37.754  95.821  64.046
 8406DT     SC354672  38.076  95.811  64.018
 8407DT     BB154673  37.601  96.437  64.100
 8407DT     BB254674  37.409  96.169  64.247
 8407DT     BB354675  37.473  96.134  64.441
 8407DT     SC154676  37.691  96.015  64.355
 8407DT     SC254677  37.679  95.804  64.399
 8407DT     SC354678  37.946  95.965  64.312
 8408DT     BB154679  37.251  96.255  64.565
 8408DT     BB254680  37.259  95.924  64.709
 8408DT     BB354681  37.373  95.925  64.881
 8408DT     SC154682  37.596  95.937  64.742
 8408DT     SC254683  37.702  95.751  64.761
 8408DT     SC354684  37.824  96.029  64.647
 8409DA     BB154685  37.011  95.766  65.025
 8409DA     BB254686  37.278  95.545  65.144
 8409DA     BB354687  37.377  95.632  65.311
 8409DA     SC154688  37.591  95.778  65.140
 8409DA     SC254689  37.836  95.761  65.096
 8409DA     SC354690  37.818  96.003  65.014
 8409DA     SC454691  37.560  95.929  65.094
 8410DA     BB154692  37.307  95.354  65.483
 8410DA     BB254693  37.667  95.296  65.511
 8410DA     BB354694  37.749  95.412  65.671
 8410DA     SC154695  37.815  95.657  65.491
 8410DA     SC254696  38.018  95.771  65.401
 8410DA     SC354697  37.864  95.974  65.367
 8410DA     SC454698  37.703  95.773  65.478
 8411DA     BB154699  37.863  95.126  65.787
 8411DA     BB254700  38.202  95.259  65.740
 8411DA     BB354701  38.254  95.388  65.902
 8411DA     SC154702  38.147  95.645  65.764
 8411DA     SC254703  38.240  95.853  65.664
 8411DA     SC354704  38.005  95.951  65.698
 8411DA     SC454705  37.995  95.688  65.795
 8412DT     BB154706  38.406  95.331  66.027
 8412DT     BB254707  38.654  95.558  65.896
 8412DT     BB354708  38.687  95.712  66.030
 8412DT     SC154709  38.459  95.826  65.968
 8412DT     SC254710  38.497  96.009  65.862
 8412DT     SC354711  38.214  95.921  65.993
 8413DC     BB154712  38.926  95.601  66.073
 8413DC     BB254713  38.998  95.937  65.962
 8413DC     BB354714  38.992  96.067  66.123
 8413DC     SC154715  38.729  96.059  66.130
 8413DC     SC254716  38.650  96.249  66.067
 8413DC     SC354717  38.485  96.014  66.218
 8414DA     BB154718  39.338  96.118  65.893
 8414DA     BB254719  39.191  96.448  65.955
 8414DA     BB354720  39.215  96.502  66.160
 8414DA     SC154721  38.943  96.378  66.249
 8414DA     SC254722  38.721  96.458  66.328
 8414DA     SC354723  38.691  96.221  66.422
 8414DA     SC454724  38.945  96.226  66.301
 8415DT     BB154725  39.322  96.648  66.175
 8415DT     BB254726  39.071  96.887  66.273
 8415DT     BB354727  39.071  96.910  66.478
 8415DT     SC154728  38.952  96.678  66.512
 8415DT     SC254729  38.752  96.710  66.583
 8415DT     SC354730  38.912  96.429  66.588
 8416DG     BB154731  39.133  97.279  66.317
 8416DG     BB254732  38.873  97.289  66.569
 8416DG     BB354733  38.954  97.286  66.750
 8416DG     SC154734  38.954  96.981  66.772
 8416DG     SC254735  38.790  96.819  66.962
 8416DG     SC354736  38.987  96.649  66.821
 8416DG     SC454737  39.080  96.899  66.717
 8417DT     BB154738  38.947  97.461  66.912
 8417DT     BB254739  38.722  97.328  67.160
 8417DT     BB354740  38.829  97.268  67.328
 8417DT     SC154741  38.919  97.055  67.204
 8417DT     SC254742  38.829  96.879  67.290
 8417DT     SC354743  39.087  96.884  67.095
 8418DC     BB154744  38.779  97.493  67.520
 8418DC     BB254745  38.688  97.204  67.716
 8418DC     BB354746  38.849  97.145  67.832
 8418DC     SC154747  38.972  97.042  67.624
 8418DC     SC254748  38.974  96.828  67.642
 8418DC     SC354749  39.154  97.004  67.438
 8419DT     BB154750  38.799  97.251  68.127
 8419DT     BB254751  38.855  96.899  68.183
 8419DT     BB354752  39.049  96.868  68.246
 8419DT     SC154753  39.142  96.907  68.004
 8419DT     SC254754  39.216  96.721  67.924
 8419DT     SC354755  39.275  97.016  67.804
 8420DT     BB154756  39.045  96.821  68.562
 8420DT     BB254757  39.204  96.521  68.438
 8420DT     BB354758  39.409  96.534  68.464
 8420DT     SC154759  39.431  96.703  68.264
 8420DT     SC254760  39.531  96.607  68.100
 8420DT     SC354761  39.481  96.925  68.131
 8421DA     BB154762  39.330  96.178  68.671
 8421DA     BB254763  39.586  96.101  68.419
 8421DA     BB354764  39.779  96.157  68.491
 8421DA     SC154765  39.766  96.445  68.373
 8421DA     SC254766  39.876  96.575  68.191
 8421DA     SC354767  39.798  96.782  68.319
 8421DA     SC454768  39.710  96.562  68.468
 8422DA     BB154769  39.808  95.850  68.402
 8422DA     BB254770  40.037  95.974  68.144
 8422DA     BB354771  40.224  96.027  68.230
 8422DA     SC154772  40.144  96.323  68.284
 8422DA     SC254773  40.202  96.549  68.196
 8422DA     SC354774  40.106  96.637  68.417
 8422DA     SC454775  40.081  96.358  68.428
 8423DA     BB154776  40.255  95.835  67.972
 8423DA     BB254777  40.439  96.116  67.825
 8423DA     BB354778  40.623  96.146  67.929
 8423DA     SC154779  40.504  96.347  68.134
 8423DA     SC254780  40.520  96.591  68.184
 8423DA     SC354781  40.430  96.528  68.416
 8423DA     SC454782  40.448  96.288  68.273
 8424DA     BB154783  40.647  96.138  67.602
 8424DA     BB254784  40.792  96.473  67.641
 8424DA     BB354785  40.975  96.462  67.751
 8424DA     SC154786  40.839  96.502  68.028
 8424DA     SC254787  40.828  96.677  68.205
 8424DA     SC354788  40.754  96.487  68.361
 8424DA     SC454789  40.796  96.370  68.109
 8425DC     BB154790  41.073  96.521  67.636
 8425DC     BB254791  41.147  96.837  67.795
 8425DC     BB354792  41.308  96.815  67.924
 8425DC     SC154793  41.161  96.689  68.100
 8425DC     SC254794  41.134  96.815  68.273
 8425DC     SC354795  41.071  96.497  68.257
 8426DT     BB154796  41.410  96.966  67.741
 8426DT     BB254797  41.461  97.140  68.053
 8426DT     BB354798  41.619  97.055  68.157
 8426DT     SC154799  41.472  96.848  68.224
 8426DT     SC254800  41.432  96.855  68.436
 8426DT     SC354801  41.387  96.599  68.242
 8427DT     BB154802  41.752  97.275  68.097
 8427DT     BB254803  41.780  97.245  68.455
 8427DT     BB354804  41.932  97.114  68.503
 8427DT     SC154805  41.786  96.907  68.435
 8427DT     SC254806  41.734  96.795  68.612
 8427DT     SC354807  41.706  96.692  68.306
 8428DA     BB154808  42.025  97.462  68.723
 8428DA     BB254809  42.065  97.176  68.949
 8428DA     BB354810  42.242  97.067  68.902
 8428DA     SC154811  42.100  96.875  68.703
 8428DA     SC254812  42.037  96.634  68.692
 8428DA     SC354813  42.023  96.670  68.438
 8428DA     SC454814  42.098  96.917  68.547
 8429DC     BB154815  42.433  97.055  69.027
 8429DC     BB254816  42.394  96.713  69.137
 8429DC     BB354817  42.534  96.593  69.044
 8429DC     SC154818  42.403  96.600  68.818
 8429DC     SC254819  42.318  96.407  68.778
 8429DC     SC354820  42.347  96.649  68.564
 8430DG     BB154821  42.668  96.530  69.434
 8430DG     BB254822  42.617  96.213  69.269
 8430DG     BB354823  42.779  96.164  69.165
 8430DG     SC154824  42.686  96.303  68.908
 8430DG     SC254825  42.614  96.169  68.652
 8430DG     SC354826  42.625  96.462  68.618
 8430DG     SC454827  42.722  96.458  68.887
 8431DT     BB154828  42.969  95.963  69.187
 8431DT     BB254829  42.854  95.748  68.921
 8431DT     BB354830  42.995  95.742  68.769
 8431DT     SC154831  42.929  95.983  68.687
 8431DT     SC254832  42.831  95.969  68.497
 8431DT     SC354833  42.949  96.239  68.631
 8432DC     BB154834  43.107  95.476  68.815
 8432DC     BB254835  42.985  95.460  68.476
 8432DC     BB354836  43.138  95.504  68.344
 8432DC     SC154837  43.126  95.760  68.402
 8432DC     SC254838  43.048  95.868  68.233
 8432DC     SC354839  43.197  95.998  68.490
 8433DT     BB154840  43.164  95.240  68.256
 8433DT     BB254841  43.082  95.427  67.958
 8433DT     BB354842  43.256  95.491  67.865
 8433DT     SC154843  43.293  95.677  68.047
 8433DT     SC254844  43.261  95.871  67.959
 8433DT     SC354845  43.403  95.813  68.244
 8434DA     BB154846  43.010  95.298  67.588
 8434DA     BB254847  43.104  95.624  67.450
 8434DA     BB354848  43.309  95.623  67.389
 8434DA     SC154849  43.416  95.722  67.664
 8434DA     SC254850  43.521  95.928  67.758
 8434DA     SC354851  43.603  95.775  67.947
 8434DA     SC454852  43.459  95.610  67.772
 8435DA     BB154853  43.149  95.729  67.127
 8435DA     BB254854  43.345  96.037  67.163
 8435DA     BB354855  43.548  96.002  67.107
 8435DA     SC154856  43.640  95.924  67.394
 8435DA     SC254857  43.783  96.020  67.574
 8435DA     SC354858  43.795  95.780  67.665
 8435DA     SC454859  43.636  95.768  67.433
 8436DT     BB154860  43.601  96.100  66.954
 8436DT     BB254861  43.805  96.343  67.125
 8436DT     BB354862  44.005  96.294  67.106
 8436DT     SC154863  43.982  96.099  67.280
 8436DT     SC254864  44.088  96.150  67.459
 8436DT     SC354865  43.980  95.855  67.380
 8437DA     BB154866  43.947  96.695  66.999
 8437DA     BB254867  44.228  96.678  67.235
 8437DA     BB354868  44.398  96.591  67.141
 8437DA     SC154869  44.326  96.300  67.224
 8437DA     SC254870  44.413  96.125  67.379
 8437DA     SC354871  44.282  95.959  67.233
 8437DA     SC454872  44.239  96.212  67.120
 8438DC     BB154873  44.549  96.709  67.120
 8438DC     BB254874  44.754  96.564  67.379
 8438DC     BB354875  44.900  96.444  67.295
 8438DC     SC154876  44.726  96.256  67.240
 8438DC     SC254877  44.763  96.085  67.366
 8438DC     SC354878  44.577  96.089  67.101
 8439DA     BB154879  45.066  96.710  67.572
 8439DA     BB254880  45.192  96.374  67.645
 8439DA     BB354881  45.329  96.312  67.494
 8439DA     SC154882  45.111  96.179  67.316
 8439DA     SC254883  45.044  95.949  67.247
 8439DA     SC354884  44.923  96.064  67.053
 8439DA     SC454885  45.044  96.269  67.201
 8440DT     BB154886  45.489  96.290  67.569
 8440DT     BB254887  45.495  95.929  67.559
 8440DT     BB354888  45.599  95.864  67.393
 8440DT     SC154889  45.400  95.927  67.234
 8440DT     SC254890  45.311  95.747  67.157
 8440DT     SC354891  45.263  96.047  67.043
 8441DT     BB154892  45.769  95.788  67.575
 8441DT     BB254893  45.690  95.490  67.387
 8441DT     BB354894  45.799  95.486  67.211
 8441DT     SC154895  45.646  95.671  67.103
 8441DT     SC254896  45.529  95.583  66.946
 8441DT     SC354897  45.572  95.900  66.996
 8442DA     BB154898  45.824  95.119  67.417
 8442DA     BB254899  45.756  95.051  67.063
 8442DA     BB354900  45.925  95.102  66.944
 8442DA     SC154901  45.833  95.395  66.893
 8442DA     SC254902  45.749  95.531  66.702
 8442DA     SC354903  45.820  95.734  66.842
 8442DA     SC454904  45.885  95.508  66.995
 8443DA     BB154905  45.871  94.793  66.846
 8443DA     BB254906  45.832  94.930  66.508
 8443DA     BB354907  46.022  94.991  66.431
 8443DA     SC154908  45.999  95.282  66.538
 8443DA     SC254909  45.969  95.511  66.444
 8443DA     SC354910  46.064  95.593  66.668
 8443DA     SC454911  46.062  95.313  66.683
 8444DT     BB154912  46.093  94.890  66.276
 8444DT     BB254913  46.042  95.145  66.026
 8444DT     BB354914  46.222  95.238  65.982
 8444DT     SC154915  46.218  95.371  66.208
 8444DT     SC254916  46.185  95.580  66.167
 8444DT     SC354917  46.288  95.455  66.448
 8445DC     BB154918  46.225  95.113  65.743
 8445DC     BB254919  46.253  95.463  65.662
 8445DC     BB354920  46.451  95.522  65.669
 8445DC     SC154921  46.450  95.519  65.932
 8445DC     SC254922  46.464  95.721  66.006
 8445DC     SC354923  46.510  95.451  66.179
 8446DA     BB154924  46.304  95.646  65.296
 8446DA     BB254925  46.484  95.929  65.445
 8446DA     BB354926  46.694  95.894  65.439
 8446DA     SC154927  46.704  95.757  65.718
 8446DA     SC254928  46.791  95.808  65.946
 8446DA     SC354929  46.778  95.554  65.985
 8446DA     SC454930  46.689  95.597  65.723
 8447DA     BB154931  46.703  96.189  65.287
 8447DA     BB254932  46.918  96.306  65.560
 8447DA     BB354933  47.115  96.229  65.537
 8447DA     SC154934  47.061  95.973  65.706
 8447DA     SC254935  47.128  95.881  65.927
 8447DA     SC354936  47.057  95.654  65.831
 8447DA     SC454937  47.013  95.842  65.628
 8448DT     BB154938  47.297  96.350  65.486
 8448DT     BB254939  47.453  96.339  65.811
 8448DT     BB354940  47.620  96.216  65.805
 8448DT     SC154941  47.471  96.000  65.800
 8448DT     SC254942  47.492  95.895  65.986
 8448DT     SC354943  47.362  95.776  65.714
 8449DG     BB154944  47.826  96.567  65.900
 8449DG     BB254945  47.920  96.303  66.129
 8449DG     BB354946  48.066  96.194  66.051
 8449DG     SC154947  47.878  95.996  65.912
 8449DG     SC254948  47.846  95.707  65.980
 8449DG     SC354949  47.701  95.774  65.731
 8449DG     SC454950  47.826  96.029  65.764
 8450DT     BB154951  48.350  96.145  66.107
 8450DT     BB254952  48.315  95.821  66.261
 8450DT     BB354953  48.409  95.677  66.145
 8450DT     SC154954  48.217  95.683  65.967
 8450DT     SC254955  48.107  95.498  65.975
 8450DT     SC354956  48.092  95.718  65.737
 8451DG     BB154957  48.665  95.622  66.474
 8451DG     BB254958  48.507  95.310  66.384
 8451DG     BB354959  48.617  95.214  66.250
 8451DG     SC154960  48.480  95.344  66.009
 8451DG     SC254961  48.309  95.204  65.808
 8451DG     SC354962  48.366  95.481  65.723
 8451DG     SC454963  48.537  95.482  65.953
 8452DA     BB154964  48.613  94.940  66.458
 8452DA     BB254965  48.412  94.759  66.210
 8452DA     BB354966  48.538  94.677  66.059
 8452DA     SC154967  48.520  94.927  65.874
 8452DA     SC254968  48.418  94.987  65.655
 8452DA     SC354969  48.586  95.181  65.652
 8452DA     SC454970  48.633  95.040  65.891
 8453DA     BB154971  48.350  94.443  66.174
 8453DA     BB254972  48.208  94.432  65.836
 8453DA     BB354973  48.349  94.349  65.699
 8453DA     SC154974  48.476  94.623  65.624
 8453DA     SC254975  48.483  94.775  65.426
 8453DA     SC354976  48.691  94.876  65.538
 8453DA     SC454977  48.604  94.671  65.708
 8454DC     BB154978  48.263  94.217  65.648
 8454DC     BB254979  48.180  94.344  65.321
 8454DC     BB354980  48.325  94.290  65.185
 8454DC     SC154981  48.492  94.468  65.280
 8454DC     SC254982  48.520  94.625  65.136
 8454DC     SC354983  48.706  94.572  65.395
 8455DA     BB154984  47.922  94.233  65.064
 8455DA     BB254985  48.107  94.403  64.797
 8455DA     BB354986  48.257  94.273  64.716
 8455DA     SC154987  48.479  94.367  64.913
 8455DA     SC254988  48.691  94.498  64.903
 8455DA     SC354989  48.748  94.383  65.125
 8455DA     SC454990  48.497  94.285  65.050
 8456DC     BB154991  48.213  94.247  64.550
 8456DC     BB254992  48.477  94.443  64.402
 8456DC     BB354993  48.639  94.321  64.357
 8456DC     SC154994  48.707  94.307  64.610
 8456DC     SC254995  48.891  94.415  64.641
 8456DC     SC354996  48.757  94.205  64.849
 8457DT     BB154997  48.570  94.361  64.106
 8457DT     BB254998  48.914  94.469  64.129
 8457DT     BB354999  49.040  94.305  64.117
 8457DT     SC155000  48.981  94.232  64.362
 8457DT     SC255001  49.153  94.262  64.489
 8457DT     SC355002  48.890  94.087  64.563
 8458DA     BB155003  49.168  94.593  63.839
 8458DA     BB255004  49.460  94.480  64.031
 8458DA     BB355005  49.513  94.281  63.976
 8458DA     SC155006  49.334  94.148  64.193
 8458DA     SC255007  49.364  94.020  64.404
 8458DA     SC355008  49.124  93.938  64.366
 8458DA     SC455009  49.184  94.107  64.151
 8459DA     BB155010  49.799  94.435  63.936
 8459DA     BB255011  49.932  94.207  64.191
 8459DA     BB355012  49.953  94.010  64.110
 8459DA     SC155013  49.668  93.919  64.193
 8459DA     SC255014  49.565  93.761  64.357
 8459DA     SC355015  49.358  93.772  64.206
 8459DA     SC455016  49.549  93.937  64.086
 8460DT     BB155017  50.132  93.950  64.100
 8460DT     BB255018  50.116  93.716  64.374
 8460DT     BB355019  50.095  93.523  64.301
 8460DT     SC155020  49.843  93.566  64.240
 8460DT     SC255021  49.717  93.451  64.372
 8460DT     SC355022  49.623  93.594  64.097
 8461DC     BB155023  50.341  93.488  64.386
 8461DC     BB255024  50.147  93.234  64.553
 8461DC     BB355025  50.119  93.072  64.427
 8461DC     SC155026  49.942  93.203  64.284
 8461DC     SC255027  49.747  93.117  64.316
 8461DC     SC355028  49.828  93.322  64.078
 8462DC     BB155029  50.287  92.941  64.586
 8462DC     BB255030  49.987  92.741  64.581
 8462DC     BB355031  49.986  92.620  64.413
 8462DC     SC155032  49.928  92.823  64.257
 8462DC     SC255033  49.727  92.801  64.183
 8462DC     SC355034  49.951  93.004  64.067
 8463DT     BB155035  50.034  92.403  64.569
 8463DT     BB255036  49.733  92.319  64.389
 8463DT     BB355037  49.781  92.237  64.205
 8463DT     SC155038  49.848  92.472  64.108
 8463DT     SC255039  49.703  92.532  63.961
 8463DT     SC355040  49.995  92.666  64.007
 8464DT     BB155041  49.709  91.985  64.286
 8464DT     BB255042  49.509  92.044  63.992
 8464DT     BB355043  49.613  91.986  63.823
 8464DT     SC155044  49.768  92.198  63.837
 8464DT     SC255045  49.722  92.330  63.673
 8464DT     SC355046  49.985  92.345  63.862
 8465DA     BB155047  49.244  91.788  63.799
 8465DA     BB255048  49.303  91.953  63.477
 8465DA     BB355049  49.451  91.847  63.365
 8465DA     SC155050  49.689  92.011  63.479
 8465DA     SC255051  49.853  92.180  63.397
 8465DA     SC355052  49.995  92.111  63.599
 8465DA     SC455053  49.764  91.953  63.609
 8466DT     BB155054  49.394  91.757  63.194
 8466DT     BB255055  49.545  91.997  62.970
 8466DT     BB355056  49.717  91.918  62.887
 8466DT     SC155057  49.849  91.950  63.111
 8466DT     SC255058  49.997  92.105  63.086
 8466DT     SC355059  49.985  91.892  63.330
 8467DA     BB155060  49.472  92.070  62.583
 8467DA     BB255061  49.811  92.203  62.535
 8467DA     BB355062  49.942  92.049  62.466
 8467DA     SC155063  50.029  91.962  62.752
 8467DA     SC255064  50.234  91.973  62.894
 8467DA     SC355065  50.126  91.784  63.029
 8467DA     SC455066  49.946  91.844  62.822
 8468DA     BB155067  49.985  92.291  62.252
 8468DA     BB255068  50.336  92.290  62.358
 8468DA     BB355069  50.434  92.115  62.286
 8468DA     SC155070  50.370  91.945  62.538
 8468DA     SC255071  50.493  91.847  62.731
 8468DA     SC355072  50.291  91.691  62.756
 8468DA     SC455073  50.236  91.856  62.536
 8469DC     BB155074  50.568  92.156  62.165
 8469DC     BB255075  50.849  92.084  62.380
 8469DC     BB355076  50.922  91.894  62.338
 8469DC     SC155077  50.720  91.780  62.460
 8469DC     SC255078  50.789  91.687  62.641
 8469DC     SC355079  50.503  91.636  62.499
 8470DA     BB155080  51.243  92.167  62.333
 8470DA     BB255081  51.342  91.877  62.535
 8470DA     BB355082  51.374  91.707  62.410
 8470DA     SC155083  51.080  91.606  62.431
 8470DA     SC255084  50.958  91.416  62.535
 8470DA     SC355085  50.771  91.470  62.368
 8470DA     SC455086  50.976  91.655  62.318
 8471DC     BB155087  51.564  91.628  62.387
 8471DC     BB255088  51.514  91.329  62.583
 8471DC     BB355089  51.496  91.165  62.458
 8471DC     SC155090  51.253  91.235  62.389
 8471DC     SC255091  51.112  91.095  62.472
 8471DC     SC355092  51.050  91.312  62.239
 8472DA     BB155093  51.807  91.048  62.716
 8472DA     BB255094  51.568  90.770  62.703
 8472DA     BB355095  51.589  90.662  62.521
 8472DA     SC155096  51.381  90.833  62.366
 8472DA     SC255097  51.152  90.804  62.271
 8472DA     SC355098  51.208  91.008  62.126
 8472DA     SC455099  51.435  90.960  62.284
 8473DC     BB155100  51.667  90.449  62.502
 8473DC     BB255101  51.347  90.295  62.439
 8473DC     BB355102  51.339  90.227  62.244
 8473DC     SC155103  51.310  90.470  62.151
 8473DC     SC255104  51.111  90.494  62.073
 8473DC     SC355105  51.361  90.694  62.020
 8474DA     BB155106  51.237  89.897  62.480
 8474DA     BB255107  50.980  89.930  62.220
 8474DA     BB355108  51.055  89.860  62.033
 8474DA     SC155109  51.163  90.137  61.944
 8474DA     SC255110  51.108  90.311  61.774
 8474DA     SC355111  51.349  90.393  61.809
 8474DA     SC455112  51.316  90.172  61.979
 8475DT     BB155113  50.968  89.697  61.956
 8475DT     BB255114  50.780  89.867  61.699
 8475DT     BB355115  50.868  89.835  61.515
 8475DT     SC155116  51.063  90.002  61.570
 8475DT     SC255117  51.042  90.178  61.448
 8475DT     SC355118  51.306  90.093  61.617
 8476DT     BB155119  50.656  89.683  61.461
 8476DT     BB255120  50.659  89.934  61.202
 8476DT     BB355121  50.786  89.876  61.049
 8476DT     SC155122  50.998  89.933  61.193
 8476DT     SC255123  51.097  90.105  61.110
 8476DT     SC355124  51.223  89.901  61.327
 8477DA     BB155125  50.415  89.991  60.891
 8477DA     BB255126  50.678  90.153  60.693
 8477DA     BB355127  50.780  90.009  60.573
 8477DA     SC155128  50.996  89.946  60.788
 8477DA     SC255129  51.240  89.984  60.820
 8477DA     SC355130  51.227  89.793  60.991
 8477DA     SC455131  50.968  89.825  60.889
 8478DC     BB155132  50.757  90.025  60.379
 8478DC     BB255133  51.090  90.140  60.300
 8478DC     BB355134  51.202  89.985  60.222
 8478DC     SC155135  51.229  89.876  60.459
 8478DC     SC255136  51.434  89.894  60.523
 8478DC     SC355137  51.209  89.701  60.656
 8479DA     BB155138  51.241  90.286  59.931
 8479DA     BB255139  51.577  90.153  59.993
 8479DA     BB355140  51.599  89.962  59.900
 8479DA     SC155141  51.503  89.803  60.150
 8479DA     SC255142  51.601  89.650  60.321
 8479DA     SC355143  51.360  89.573  60.361
 8479DA     SC455144  51.346  89.767  60.159
 8480DA     BB155145  51.870  90.066  59.722
 8480DA     BB255146  52.070  89.810  59.892
 8480DA     BB355147  52.046  89.621  59.797
 8480DA     SC155148  51.806  89.534  59.975
 8480DA     SC255149  51.760  89.367  60.154
 8480DA     SC355150  51.513  89.400  60.094
 8480DA     SC455151  51.658  89.567  59.921
 8481DT     BB155152  52.207  89.481  59.657
 8481DT     BB255153  52.273  89.236  59.913
 8481DT     BB355154  52.202  89.050  59.854
 8481DT     SC155155  51.954  89.123  59.900
 8481DT     SC255156  51.878  89.015  60.070
 8481DT     SC355157  51.700  89.181  59.857
 8482DC     BB155158  52.454  88.918  59.785
 8482DC     BB255159  52.311  88.702  60.036
 8482DC     BB355160  52.206  88.548  59.945
 8482DC     SC155161  52.008  88.710  59.883
 8482DC     SC255162  51.835  88.660  60.001
 8482DC     SC355163  51.838  88.849  59.738
 8483DA     BB155164  52.472  88.363  60.208
 8483DA     BB255165  52.138  88.229  60.277
 8483DA     BB355166  52.082  88.088  60.127
 8483DA     SC155167  51.946  88.301  59.945
 8483DA     SC255168  51.715  88.361  59.872
 8483DA     SC355169  51.830  88.482  59.677
 8483DA     SC455170  52.036  88.369  59.831
 8484DA     BB155171  52.035  87.917  60.399
 8484DA     BB255172  51.683  87.897  60.301
 8484DA     BB355173  51.658  87.758  60.141
 8484DA     SC155174  51.695  87.971  59.918
 8484DA     SC255175  51.555  88.083  59.745
 8484DA     SC355176  51.778  88.137  59.629
 8484DA     SC455177  51.844  87.993  59.860
 8485DC     BB155178  51.555  87.606  60.189
 8485DC     BB255179  51.256  87.694  60.006
 8485DC     BB355180  51.247  87.587  59.830
 8485DC     SC155181  51.433  87.736  59.720
 8485DC     SC255182  51.346  87.856  59.565
 8485DC     SC355183  51.663  87.805  59.610
 8486DA     BB155184  50.880  87.540  60.028
 8486DA     BB255185  50.809  87.623  59.678
 8486DA     BB355186  50.852  87.456  59.552
 8486DA     SC155187  51.147  87.542  59.500
 8486DA     SC255188  51.283  87.628  59.309
 8486DA     SC355189  51.486  87.546  59.444
 8486DA     SC455190  51.260  87.483  59.598
 8487DA     BB155191  50.540  87.492  59.447
 8487DA     BB255192  50.675  87.546  59.110
 8487DA     BB355193  50.733  87.361  59.022
 8487DA     SC155194  51.025  87.373  59.129
 8487DA     SC255195  51.254  87.406  59.035
 8487DA     SC355196  51.336  87.297  59.253
 8487DA     SC455197  51.056  87.303  59.270
 8488DT     BB155198  50.630  87.258  58.845
 8488DT     BB255199  50.886  87.332  58.601
 8488DT     BB355200  50.983  87.158  58.546
 8488DT     SC155201  51.114  87.150  58.773
 8488DT     SC255202  51.322  87.191  58.737
 8488DT     SC355203  51.197  87.066  59.009
 8489DA     BB155204  50.858  87.308  58.174
 8489DA     BB255205  51.216  87.232  58.144
 8489DA     BB355206  51.245  87.022  58.117
 8489DA     SC155207  51.270  86.963  58.422
 8489DA     SC255208  51.448  86.894  58.582
 8489DA     SC355209  51.254  86.821  58.734
 8489DA     SC455210  51.136  86.922  58.501
 8490DT     BB155211  51.323  86.939  57.933
 8490DT     BB255212  51.655  86.878  58.061
 8490DT     BB355213  51.687  86.674  58.080
 8490DT     SC155214  51.535  86.663  58.294
 8490DT     SC255215  51.658  86.624  58.466
 8490DT     SC355216  51.335  86.599  58.453
 8491DA     BB155217  51.999  86.850  57.868
 8491DA     BB255218  52.143  86.650  58.139
 8491DA     BB355219  52.127  86.442  58.095
 8491DA     SC155220  51.850  86.409  58.234
 8491DA     SC255221  51.758  86.298  58.438
 8491DA     SC355222  51.531  86.315  58.319
 8491DA     SC455223  51.719  86.427  58.143
 8492DT     BB155224  52.289  86.388  58.086
 8492DT     BB255225  52.293  86.207  58.398
 8492DT     BB355226  52.249  86.007  58.365
 8492DT     SC155227  51.995  86.061  58.327
 8492DT     SC255228  51.880  85.983  58.491
 8492DT     SC355229  51.761  86.083  58.207
 8493DT     BB155230  52.496  85.993  58.439
 8493DT     BB255231  52.312  85.784  58.668
 8493DT     BB355232  52.267  85.603  58.578
 8493DT     SC155233  52.080  85.713  58.431
 8493DT     SC255234  51.887  85.644  58.497
 8493DT     SC355235  51.949  85.797  58.218
 8494DC     BB155236  52.440  85.514  58.752
 8494DC     BB255237  52.141  85.321  58.809
 8494DC     BB355238  52.127  85.169  58.669
 8494DC     SC155239  52.058  85.337  58.480
 8494DC     SC255240  51.852  85.304  58.427
 8494DC     SC355241  52.067  85.477  58.257
 8495DA     BB155242  52.075  85.001  59.051
 8495DA     BB255243  51.815  84.865  58.831
 8495DA     BB355244  51.900  84.729  58.690
 8495DA     SC155245  51.953  84.946  58.474
 8495DA     SC255246  51.865  85.008  58.250
 8495DA     SC355247  52.086  85.135  58.220
 8495DA     SC455248  52.097  85.018  58.475
 8496DT     BB155249  51.859  84.523  58.698
 8496DT     BB255250  51.650  84.505  58.404
 8496DT     BB355251  51.753  84.415  58.250
 8496DT     SC155252  51.898  84.630  58.210
 8496DT     SC255253  51.842  84.720  58.023
 8496DT     SC355254  52.108  84.789  58.195
 8497DT     BB155255  51.617  84.168  58.264
 8497DT     BB255256  51.576  84.267  57.919
 8497DT     BB355257  51.731  84.191  57.805
 8497DT     SC155258  51.899  84.369  57.901
 8497DT     SC255259  51.951  84.509  57.746
 8497DT     SC355260  52.106  84.471  58.028
 8498DA     BB155261  51.395  84.044  57.599
 8498DA     BB255262  51.613  84.199  57.349
 8498DA     BB355263  51.777  84.069  57.303
 8498DA     SC155264  51.963  84.188  57.522
 8498DA     SC255265  52.170  84.327  57.533
 8498DA     SC355266  52.197  84.233  57.770
 8498DA     SC455267  51.963  84.118  57.667
 8499DT     BB155268  51.809  83.966  57.105
 8499DT     BB255269  52.076  84.181  56.992
 8499DT     BB355270  52.254  84.076  56.989
 8499DT     SC155271  52.273  84.087  57.251
 8499DT     SC255272  52.435  84.217  57.305
 8499DT     SC355273  52.285  84.008  57.502
 8500DA     BB155274  52.219  84.236  56.604
 8500DA     BB255275  52.553  84.322  56.728
 8500DA     BB355276  52.681  84.152  56.720
 8500DA     SC155277  52.612  84.055  57.008
 8500DA     SC255278  52.725  84.039  57.229
 8500DA     SC355279  52.544  83.867  57.286
 8500DA     SC455280  52.492  83.950  57.023
 8501DA     BB155281  52.869  84.360  56.550
 8501DA     BB255282  53.120  84.321  56.815
 8501DA     BB355283  53.222  84.135  56.794
 8501DA     SC155284  53.024  83.977  56.975
 8501DA     SC255285  53.025  83.869  57.199
 8501DA     SC355286  52.822  83.737  57.115
 8501DA     SC455287  52.900  83.904  56.903
 8502DG     BB155288  53.464  84.325  56.770
 8502DG     BB255289  53.561  84.163  57.078
 8502DG     BB355290  53.646  83.987  57.039
 8502DG     SC155291  53.384  83.830  57.048
 8502DG     SC255292  53.309  83.625  57.252
 8502DG     SC355293  53.113  83.630  57.030
 8502DG     SC455294  53.298  83.815  56.914
 8503DT     BB155295  53.850  83.958  57.098
 8503DT     BB255296  53.813  83.739  57.383
 8503DT     BB355297  53.857  83.544  57.328
 8503DT     SC155298  53.629  83.519  57.201
 8503DT     SC255299  53.502  83.383  57.308
 8503DT     SC355300  53.457  83.485  57.003
 8504DT     BB155301  54.081  83.567  57.473
 8504DT     BB255302  53.911  83.281  57.612
 8504DT     BB355303  53.957  83.111  57.502
 8504DT     SC155304  53.801  83.187  57.305
 8504DT     SC255305  53.630  83.056  57.296
 8504DT     SC355306  53.725  83.263  57.065
 8505DA     BB155307  54.028  83.025  57.907
 8505DA     BB255308  53.832  82.749  57.765
 8505DA     BB355309  53.954  82.630  57.636
 8505DA     SC155310  53.886  82.794  57.380
 8505DA     SC255311  53.758  82.762  57.169
 8505DA     SC355312  53.897  82.957  57.078
 8505DA     SC455313  53.984  82.916  57.342
 8506DT     BB155314  53.999  82.437  57.689
 8506DT     BB255315  53.785  82.273  57.449
 8506DT     BB355316  53.898  82.194  57.295
 8506DT     SC155317  53.937  82.432  57.191
 8506DT     SC255318  53.830  82.447  57.006
 8506DT     SC355319  54.062  82.649  57.108
 8507DA     BB155320  53.667  81.872  57.432
 8507DA     BB255321  53.636  81.881  57.067
 8507DA     BB355322  53.814  81.807  56.975
 8507DA     SC155323  53.951  82.085  56.959
 8507DA     SC255324  54.016  82.249  56.782
 8507DA     SC355325  54.178  82.343  56.958
 8507DA     SC455326  54.046  82.128  57.081
 8508DG     BB155327  53.634  81.583  56.848
 8508DG     BB255328  53.728  81.743  56.538
 8508DG     BB355329  53.903  81.673  56.475
 8508DG     SC155330  54.069  81.882  56.625
 8508DG     SC255331  54.234  82.097  56.501
 8508DG     SC355332  54.282  82.084  56.792
 8508DG     SC455333  54.113  81.852  56.776
 8509DG     BB155334  53.765  81.573  56.193
 8509DG     BB255335  53.985  81.808  56.028
 8509DG     BB355336  54.162  81.725  55.995
 8509DG     SC155337  54.281  81.813  56.263
 8509DG     SC255338  54.502  82.010  56.301
 8509DG     SC355339  54.436  81.876  56.556
 8509DG     SC455340  54.262  81.718  56.391
 8510DT     BB155341  54.240  81.695  55.789
 8510DT     BB255342  54.489  81.955  55.769
 8510DT     BB355343  54.678  81.873  55.785
 8510DT     SC155344  54.649  81.835  56.043
 8510DT     SC255345  54.778  81.969  56.150
 8510DT     SC355346  54.627  81.711  56.275
 8511DT     BB155347  54.717  81.925  55.523
 8511DT     BB255348  54.987  82.096  55.690
 8511DT     BB355349  55.146  81.966  55.719
 8511DT     SC155350  55.020  81.843  55.914
 8511DT     SC255351  55.117  81.887  56.101
 8511DT     SC355352  54.900  81.652  56.050
 8512DA     BB155353  55.277  82.326  55.544
 8512DA     BB255354  55.494  82.248  55.830
 8512DA     BB355355  55.615  82.078  55.786
 8512DA     SC155356  55.412  81.873  55.901
 8512DA     SC255357  55.394  81.719  56.096
 8512DA     SC355358  55.218  81.595  55.958
 8512DA     SC455359  55.305  81.809  55.798
 8513DC     BB155360  55.803  82.114  55.777
 8513DC     BB255361  55.894  81.960  56.090
 8513DC     BB355362  55.974  81.772  56.056
 8513DC     SC155363  55.738  81.671  56.003
 8513DC     SC255364  55.680  81.537  56.160
 8513DC     SC355365  55.540  81.559  55.869
 8514DT     BB155366  56.210  81.874  56.127
 8514DT     BB255367  56.154  81.598  56.353
 8514DT     BB355368  56.213  81.421  56.264
 8514DT     SC155369  56.001  81.418  56.110
 8514DT     SC255370  55.871  81.259  56.170
 8514DT     SC355371  55.853  81.423  55.891
 8515DG     BB155372  56.416  81.467  56.615
 8515DG     BB255373  56.247  81.148  56.598
 8515DG     BB355374  56.347  81.024  56.479
 8515DG     SC155375  56.198  81.108  56.225
 8515DG     SC255376  56.013  80.937  56.065
 8515DG     SC355377  56.069  81.191  55.924
 8515DG     SC455378  56.254  81.231  56.139
 8516DT     BB155379  56.415  80.852  56.567
 8516DT     BB255380  56.188  80.605  56.434
 8516DT     BB355381  56.277  80.507  56.275
 8516DT     SC155382  56.243  80.714  56.117
 8516DT     SC255383  56.095  80.667  55.969
 8516DT     SC355384  56.299  80.918  55.960
 8517DT     BB155385  56.276  80.306  56.442
 8517DT     BB255386  56.090  80.193  56.154
 8517DT     BB355387  56.220  80.134  56.005
 8517DT     SC155388  56.279  80.383  55.947
 8517DT     SC255389  56.197  80.433  55.754
 8517DT     SC355390  56.419  80.605  55.916
 8518DA     BB155391  55.918  79.849  56.077
 8518DA     BB255392  55.944  79.906  55.715
 8518DA     BB355393  56.129  79.831  55.642
 8518DA     SC155394  56.282  80.098  55.683
 8518DA     SC255395  56.382  80.277  55.541
 8518DA     SC355396  56.520  80.337  55.749
 8518DA     SC455397  56.359  80.119  55.822
 8519DA     BB155398  55.905  79.694  55.442
 8519DA     BB255399  56.085  79.859  55.169
 8519DA     BB355400  56.277  79.768  55.141
 8519DA     SC155401  56.423  79.960  55.337
 8519DA     SC255402  56.590  80.146  55.324
 8519DA     SC355403  56.633  80.097  55.572
 8519DA     SC455404  56.436  79.914  55.490
 8520DA     BB155405  56.166  79.743  54.829
 8520DA     BB255406  56.458  79.942  54.730
 8520DA     BB355407  56.636  79.824  54.743
 8520DA     SC155408  56.696  79.904  55.038
 8520DA     SC255409  56.865  80.040  55.161
 8520DA     SC355410  56.792  79.906  55.367
 8520DA     SC455411  56.639  79.809  55.154
 8521DA     BB155412  56.696  79.899  54.421
 8521DA     BB255413  57.009  80.057  54.529
 8521DA     BB355414  57.157  79.908  54.568
 8521DA     SC155415  57.083  79.876  54.868
 8521DA     SC255416  57.184  79.930  55.090
 8521DA     SC355417  57.022  79.754  55.183
 8521DA     SC455418  56.976  79.763  54.907
 8522DC     BB155419  57.357  79.861  54.445
 8522DC     BB255420  57.585  80.005  54.685
 8522DC     BB355421  57.699  79.857  54.772
 8522DC     SC155422  57.497  79.777  54.919
 8522DC     SC255423  57.535  79.825  55.125
 8522DC     SC355424  57.307  79.622  55.017
 8523DA     BB155425  57.999  80.113  54.625
 8523DA     BB255426  58.076  80.050  54.978
 8523DA     BB355427  58.167  79.858  55.001
 8523DA     SC155428  57.898  79.709  55.046
 8523DA     SC255429  57.779  79.594  55.233
 8523DA     SC355430  57.644  79.478  55.048
 8523DA     SC455431  57.825  79.646  54.916
 8524DT     BB155432  58.368  79.840  55.064
 8524DT     BB255433  58.291  79.740  55.403
 8524DT     BB355434  58.336  79.540  55.429
 8524DT     SC155435  58.123  79.467  55.293
 8524DT     SC255436  57.981  79.377  55.427
 8524DT     SC355437  57.975  79.360  55.103
 8525DT     BB155438  58.543  79.616  55.582
 8525DT     BB255439  58.340  79.407  55.796
 8525DT     BB355440  58.390  79.208  55.769
 8525DT     SC155441  58.266  79.200  55.538
 8525DT     SC255442  58.090  79.077  55.555
 8525DT     SC355443  58.226  79.176  55.278
 8526DT     BB155444  58.495  79.222  56.012
 8526DT     BB255445  58.250  78.957  56.030
 8526DT     BB355446  58.333  78.780  55.961
 8526DT     SC155447  58.319  78.861  55.712
 8526DT     SC255448  58.170  78.746  55.608
 8526DT     SC355449  58.395  78.935  55.470
 8527DT     BB155450  58.328  78.697  56.214
 8527DT     BB255451  58.141  78.449  56.032
 8527DT     BB355452  58.270  78.310  55.949
 8527DT     SC155453  58.345  78.480  55.763
 8527DT     SC255454  58.270  78.415  55.572
 8527DT     SC355455  58.499  78.638  55.620
 8528DG     BB155456  58.016  78.097  56.188
 8528DG     BB255457  58.032  77.956  55.855
 8528DG     BB355458  58.198  77.849  55.835
 8528DG     SC155459  58.366  78.084  55.735
 8528DG     SC255460  58.481  78.114  55.461
 8528DG     SC355461  58.585  78.324  55.642
 8528DG     SC455462  58.442  78.177  55.842
 8529DT     BB155463  58.209  77.615  55.799
 8529DT     BB255464  58.300  77.603  55.450
 8529DT     BB355465  58.498  77.546  55.431
 8529DT     SC155466  58.582  77.781  55.509
 8529DT     SC255467  58.672  77.884  55.342
 8529DT     SC355468  58.700  77.967  55.654
 8530DT     BB155469  58.443  77.283  55.341
 8530DT     BB255470  58.649  77.424  55.079
 8530DT     BB355471  58.848  77.383  55.117
 8530DT     SC155472  58.857  77.564  55.307
 8530DT     SC255473  58.979  77.730  55.243
 8530DT     SC355474  58.882  77.672  55.547
 8531DT     BB155475  58.871  77.189  54.916
 8531DT     BB255476  59.120  77.436  54.831
 8531DT     BB355477  59.301  77.388  54.919
 8531DT     SC155478  59.216  77.464  55.155
 8531DT     SC255479  59.320  77.643  55.213
 8531DT     SC355480  59.144  77.453  55.408
 8532DC     BB155481  59.417  77.309  54.676
 8532DC     BB255482  59.633  77.572  54.797
 8532DC     BB355483  59.786  77.491  54.911
 8532DC     SC155484  59.624  77.447  55.112
 8532DC     SC255485  59.673  77.580  55.274
 8532DC     SC355486  59.483  77.318  55.294
 8533DT     BB155487  59.962  77.549  54.711
 8533DT     BB255488  60.091  77.724  54.998
 8533DT     BB355489  60.218  77.600  55.105
 8533DT     SC155490  60.016  77.463  55.202
 8533DT     SC255491  59.997  77.503  55.412
 8533DT     SC355492  59.855  77.260  55.251
 8534DA     BB155493  60.402  77.967  55.033
 8534DA     BB255494  60.444  77.888  55.389
 8534DA     BB355495  60.588  77.733  55.414
 8534DA     SC155496  60.378  77.503  55.400
 8534DA     SC255497  60.278  77.336  55.555
 8534DA     SC355498  60.214  77.207  55.342
 8534DA     SC455499  60.349  77.438  55.256
 8535DC     BB155500  60.742  77.790  55.505
 8535DC     BB255501  60.682  77.619  55.816
 8535DC     BB355502  60.798  77.448  55.827
 8535DC     SC155503  60.642  77.323  55.656
 8535DC     SC255504  60.534  77.168  55.758
 8535DC     SC355505  60.563  77.199  55.437
 8536DA     BB155506  60.850  77.667  56.179
 8536DA     BB255507  60.798  77.317  56.272
 8536DA     BB355508  60.971  77.201  56.224
 8536DA     SC155509  60.872  77.127  55.939
 8536DA     SC255510  60.792  76.924  55.818
 8536DA     SC355511  60.851  77.053  55.604
 8536DA     SC455512  60.916  77.223  55.818
 8537DA     BB155513  60.949  77.113  56.541
 8537DA     BB255514  60.926  76.764  56.429
 8537DA     BB355515  61.118  76.693  56.368
 8537DA     SC155516  61.081  76.779  56.071
 8537DA     SC255517  61.050  76.668  55.849
 8537DA     SC355518  61.130  76.891  55.750
 8537DA     SC455519  61.135  76.925  56.028
 8538DT     BB155520  61.235  76.540  56.477
 8538DT     BB255521  61.197  76.270  56.241
 8538DT     BB355522  61.377  76.234  56.145
 8538DT     SC155523  61.350  76.450  55.997
 8538DT     SC255524  61.314  76.392  55.793
 8538DT     SC355525  61.397  76.688  55.896
 8539DT     BB155526  61.462  75.992  56.287
 8539DT     BB255527  61.485  75.891  55.941
 8539DT     BB355528  61.679  75.918  55.872
 8539DT     SC155529  61.645  76.178  55.859
 8539DT     SC255530  61.642  76.239  55.653
 8539DT     SC355531  61.677  76.435  55.908
 8540DA     BB155532  61.651  75.503  55.785
 8540DA     BB255533  61.785  75.660  55.482
 8540DA     BB355534  61.995  75.692  55.501
 8540DA     SC155535  61.964  75.978  55.622
 8540DA     SC255536  62.008  76.213  55.552
 8540DA     SC355537  62.003  76.267  55.803
 8540DA     SC455538  61.959  75.991  55.782
 8541DT     BB155539  62.198  75.581  55.386
 8541DT     BB255540  62.275  75.858  55.168
 8541DT     BB355541  62.461  75.935  55.214
 8541DT     SC155542  62.369  76.050  55.431
 8541DT     SC255543  62.369  76.263  55.404
 8541DT     SC355544  62.335  76.107  55.686
 8542DT     BB155545  62.594  75.830  54.988
 8542DT     BB255546  62.648  76.186  54.964
 8542DT     BB355547  62.824  76.237  55.059
 8542DT     SC155548  62.715  76.207  55.295
 8542DT     SC255549  62.694  76.399  55.390
 8542DT     SC355550  62.668  76.111  55.537
 8543DA     BB155551  62.833  76.399  54.674
 8543DA     BB255552  62.911  76.668  54.911
 8543DA     BB355553  63.108  76.643  54.988
 8543DA     SC155554  63.019  76.471  55.231
 8543DA     SC255555  63.004  76.494  55.479
 8543DA     SC355556  62.999  76.238  55.482
 8543DA     SC455557  63.019  76.311  55.212
 8544DG     BB155558  63.119  76.921  54.859
 8544DG     BB255559  63.168  77.022  55.203
 8544DG     BB355560  63.356  76.987  55.257
 8544DG     SC155561  63.300  76.703  55.357
 8544DG     SC255562  63.316  76.611  55.641
 8544DG     SC355563  63.279  76.382  55.457
 8544DG     SC455564  63.311  76.581  55.254
 8545DT     BB155565  63.451  77.153  55.314
 8545DT     BB255566  63.474  77.112  55.671
 8545DT     BB355567  63.659  77.033  55.722
 8545DT     SC155568  63.589  76.795  55.636
 8545DT     SC255569  63.569  76.662  55.804
 8545DT     SC355570  63.586  76.574  55.493
 8546DA     BB155571  63.570  77.370  55.958
 8546DA     BB255572  63.693  77.103  56.178
 8546DA     BB355573  63.901  77.069  56.144
 8546DA     SC155574  63.855  76.853  55.925
 8546DA     SC255575  63.886  76.606  55.901
 8546DA     SC355576  63.879  76.651  55.648
 8546DA     SC455577  63.850  76.901  55.772
 8547DA     BB155578  63.911  77.114  56.472
 8547DA     BB255579  64.057  76.779  56.494
 8547DA     BB355580  64.259  76.781  56.426
 8547DA     SC155581  64.185  76.716  56.131
 8547DA     SC255582  64.210  76.525  55.972
 8547DA     SC355583  64.174  76.700  55.788
 8547DA     SC455584  64.162  76.840  56.031
 8548DA     BB155585  64.354  76.650  56.721
 8548DA     BB255586  64.486  76.361  56.537
 8548DA     BB355587  64.676  76.408  56.452
 8548DA     SC155588  64.558  76.510  56.183
 8548DA     SC255589  64.551  76.436  55.945
 8548DA     SC355590  64.497  76.681  55.892
 8548DA     SC455591  64.527  76.667  56.171
 8549DT     BB155592  64.896  76.325  56.512
 8549DT     BB255593  64.933  76.108  56.226
 8549DT     BB355594  65.083  76.179  56.102
 8549DT     SC155595  64.930  76.373  56.014
 8549DT     SC255596  64.879  76.336  55.808
 8549DT     SC355597  64.841  76.616  55.966
 8550DC     BB155598  65.302  75.989  56.163
 8550DC     BB255599  65.257  75.955  55.807
 8550DC     BB355600  65.391  76.077  55.706
 8550DC     SC155601  65.252  76.292  55.766
 8550DC     SC255602  65.161  76.370  55.588
 8550DC     SC355603  65.191  76.526  55.870
 8551DA     BB155604  65.458  75.697  55.544
 8551DA     BB255605  65.392  75.926  55.265
 8551DA     BB355606  65.566  76.043  55.223
 8551DA     SC155607  65.487  76.274  55.416
 8551DA     SC255608  65.412  76.512  55.399
 8551DA     SC355609  65.490  76.532  55.643
 8551DA     SC455610  65.542  76.267  55.567
 8552DT     BB155611  65.641  76.012  55.048
 8552DT     BB255612  65.509  76.312  54.898
 8552DT     BB355613  65.659  76.452  54.877
 8552DT     SC155614  65.656  76.505  55.134
 8552DT     SC255615  65.577  76.703  55.166
 8552DT     SC355616  65.737  76.525  55.384
 8553DA     BB155617  65.430  76.395  54.530
 8553DA     BB255618  65.447  76.754  54.602
 8553DA     BB355619  65.645  76.827  54.568
 8553DA     SC155620  65.741  76.776  54.859
 8553DA     SC255621  65.804  76.911  55.059
 8553DA     SC355622  65.925  76.700  55.139
 8553DA     SC455623  65.811  76.635  54.891
 8554DT     BB155624  65.630  76.943  54.440
 8554DT     BB255625  65.677  77.238  54.641
 8554DT     BB355626  65.876  77.296  54.636
 8554DT     SC155627  65.945  77.100  54.796
 8554DT     SC255628  66.003  77.180  54.987
 8554DT     SC355629  66.061  76.879  54.882
 8555DT     BB155630  65.776  77.496  54.501
 8555DT     BB255631  65.947  77.644  54.782
 8555DT     BB355632  66.150  77.654  54.744
 8555DT     SC155633  66.178  77.396  54.783
 8555DT     SC255634  66.289  77.364  54.965
 8555DT     SC355635  66.230  77.142  54.735
 8556DT     BB155636  66.106  77.913  54.730
 8556DT     BB255637  66.359  77.873  54.984
 8556DT     BB355638  66.546  77.854  54.895
 8556DT     SC155639  66.493  77.608  54.820
 8556DT     SC255640  66.615  77.471  54.933
 8556DT     SC355641  66.450  77.400  54.663
 8557DA     BB155642  66.553  78.141  55.201
 8557DA     BB255643  66.841  77.918  55.243
 8557DA     BB355644  66.984  77.951  55.088
 8557DA     SC155645  66.862  77.737  54.898
 8557DA     SC255646  66.924  77.513  54.808
 8557DA     SC355647  66.751  77.562  54.624
 8557DA     SC455648  66.752  77.787  54.791
 8558DT     BB155649  67.143  78.017  55.153
 8558DT     BB255650  67.343  77.720  55.106
 8558DT     BB355651  67.453  77.736  54.932
 8558DT     SC155652  67.240  77.692  54.785
 8558DT     SC255653  67.257  77.499  54.691
 8558DT     SC355654  67.046  77.731  54.610
 8559DA     BB155655  67.707  77.624  55.247
 8559DA     BB255656  67.779  77.408  54.959
 8559DA     BB355657  67.877  77.520  54.806
 8559DA     SC155658  67.612  77.601  54.663
 8559DA     SC255659  67.494  77.549  54.450
 8559DA     SC355660  67.366  77.767  54.491
 8559DA     SC455661  67.545  77.740  54.706
 8560DA     BB155662  68.090  77.269  54.835
 8560DA     BB255663  68.033  77.203  54.479
 8560DA     BB355664  68.125  77.354  54.360
 8560DA     SC155665  67.874  77.538  54.354
 8560DA     SC255666  67.705  77.613  54.187
 8560DA     SC355667  67.661  77.806  54.350
 8560DA     SC455668  67.863  77.651  54.467
 8561DT     BB155669  68.296  77.316  54.234
 8561DT     BB255670  68.131  77.344  53.914
 8561DT     BB355671  68.183  77.522  53.823
 8561DT     SC155672  68.029  77.659  53.984
 8561DT     SC255673  67.861  77.737  53.874
 8561DT     SC355674  67.954  77.832  54.170
 8562DA     BB155675  68.293  77.248  53.520
 8562DA     BB255676  68.099  77.513  53.358
 8562DA     BB355677  68.218  77.689  53.335
 8562DA     SC155678  68.135  77.811  53.608
 8562DA     SC255679  67.999  78.003  53.691
 8562DA     SC355680  68.129  77.975  53.910
 8562DA     SC455681  68.228  77.779  53.735
 8563DC     BB155682  68.299  77.782  53.135
 8563DC     BB255683  68.067  78.059  53.126
 8563DC     BB355684  68.168  78.237  53.159
 8563DC     SC155685  68.193  78.185  53.415
 8563DC     SC255686  68.069  78.320  53.527
 8563DC     SC355687  68.305  78.133  53.648
 8564DG     BB155688  68.008  78.296  52.786
 8564DG     BB255689  67.915  78.564  53.011
 8564DG     BB355690  68.062  78.697  53.023
 8564DG     SC155691  68.202  78.558  53.257
 8564DG     SC255692  68.229  78.666  53.534
 8564DG     SC355693  68.392  78.422  53.500
 8564DG     SC455694  68.310  78.445  53.227
 8565DA     BB155695  67.825  78.937  52.947
 8565DA     BB255696  67.888  79.101  53.269
 8565DA     BB355697  68.068  79.214  53.261
 8565DA     SC155698  68.248  78.979  53.358
 8565DA     SC255699  68.380  78.920  53.562
 8565DA     SC355700  68.506  78.758  53.408
 8565DA     SC455701  68.315  78.885  53.246
 8566DT     BB155702  68.045  79.403  53.280
 8566DT     BB255703  68.168  79.428  53.618
 8566DT     BB355704  68.362  79.501  53.617
 8566DT     SC155705  68.457  79.271  53.533
 8566DT     SC255706  68.570  79.179  53.691
 8566DT     SC355707  68.574  79.093  53.378
 8567DT     BB155708  68.262  79.726  53.720
 8567DT     BB255709  68.510  79.617  53.958
 8567DT     BB355710  68.698  79.682  53.899
 8567DT     SC155711  68.709  79.500  53.710
 8567DT     SC255712  68.857  79.353  53.761
 8567DT     SC355713  68.723  79.393  53.469
 8568DT     BB155714  68.695  79.859  54.102
 8568DT     BB255715  68.993  79.664  54.156
 8568DT     BB355716  69.150  79.742  54.045
 8568DT     SC155717  69.051  79.644  53.822
 8568DT     SC255718  69.177  79.485  53.752
 8568DT     SC355719  68.947  79.634  53.580
 8569DT     BB155720  69.271  79.843  54.269
 8569DT     BB255721  69.522  79.631  54.120
 8569DT     BB355722  69.631  79.739  53.980
 8569DT     SC155723  69.433  79.732  53.808
 8569DT     SC255724  69.486  79.604  53.643
 8569DT     SC355725  69.239  79.814  53.649
 8570DA     BB155726  69.920  79.575  54.237
 8570DA     BB255727  70.020  79.496  53.893
 8570DA     BB355728  70.100  79.669  53.797
 8570DA     SC155729  69.826  79.764  53.684
 8570DA     SC255730  69.715  79.782  53.461
 8570DA     SC355731  69.558  79.950  53.576
 8570DA     SC455732  69.740  79.866  53.773
 8571DT     BB155733  70.303  79.678  53.741
 8571DT     BB255734  70.247  79.626  53.389
 8571DT     BB355735  70.280  79.802  53.285
 8571DT     SC155736  70.053  79.903  53.370
 8571DT     SC255737  69.915  79.918  53.205
 8571DT     SC355738  69.884  80.064  53.493
 8572DT     BB155739  70.507  79.696  53.181
 8572DT     BB255740  70.303  79.776  52.895
 8572DT     BB355741  70.335  79.973  52.838
 8572DT     SC155742  70.195  80.062  53.041
 8572DT     SC255743  70.012  80.149  52.969
 8572DT     SC355744  70.135  80.186  53.266
 8573DA     BB155745  70.376  79.724  52.505
 8573DA     BB255746  70.148  79.997  52.416
 8573DA     BB355747  70.256  80.179  52.393
 8573DA     SC155748  70.224  80.265  52.690
 8573DA     SC255749  70.101  80.439  52.820
 8573DA     SC355750  70.272  80.392  53.006
 8573DA     SC455751  70.340  80.222  52.793
 8574DC     BB155752  70.254  80.249  52.214
 8574DC     BB255753  70.022  80.518  52.278
 8574DC     BB355754  70.124  80.698  52.293
 8574DC     SC155755  70.213  80.635  52.532
 8574DC     SC255756  70.119  80.761  52.679
 8574DC     SC355757  70.381  80.577  52.727
 8575DC     BB155758  70.011  80.758  52.061
 8575DC     BB255759  69.907  81.019  52.288
 8575DC     BB355760  70.053  81.165  52.300
 8575DC     SC155761  70.206  81.011  52.448
 8575DC     SC255762  70.214  81.090  52.648
 8575DC     SC355763  70.412  80.865  52.523
 8576DA     BB155764  69.674  81.330  52.231
 8576DA     BB255765  69.832  81.512  52.507
 8576DA     BB355766  69.993  81.631  52.435
 8576DA     SC155767  70.208  81.409  52.474
 8576DA     SC255768  70.403  81.365  52.623
 8576DA     SC355769  70.478  81.200  52.442
 8576DA     SC455770  70.238  81.312  52.350
 8577DA     BB155771  69.805  81.826  52.615
 8577DA     BB255772  70.105  81.884  52.818
 8577DA     BB355773  70.249  81.996  52.707
 8577DA     SC155774  70.391  81.745  52.591
 8577DA     SC255775  70.609  81.627  52.616
 8577DA     SC355776  70.556  81.521  52.389
 8577DA     SC455777  70.340  81.691  52.448
 8578DT     BB155778  70.270  82.147  52.792
 8578DT     BB255779  70.602  82.087  52.919
 8578DT     BB355780  70.743  82.167  52.790
 8578DT     SC155781  70.707  81.973  52.617
 8578DT     SC255782  70.882  81.848  52.613
 8578DT     SC355783  70.643  81.848  52.394
 8579DA     BB155784  70.820  82.282  53.188
 8579DA     BB255785  71.137  82.180  53.032
 8579DA     BB355786  71.195  82.320  52.883
 8579DA     SC155787  71.048  82.173  52.652
 8579DA     SC255788  71.108  82.043  52.448
 8579DA     SC355789  70.870  82.096  52.368
 8579DA     SC455790  70.897  82.219  52.619
 8580DC     BB155791  71.355  82.421  52.921
 8580DC     BB255792  71.572  82.278  52.671
 8580DC     BB355793  71.583  82.402  52.506
 8580DC     SC155794  71.342  82.332  52.427
 8580DC     SC255795  71.357  82.215  52.248
 8580DC     SC355796  71.087  82.350  52.365
 8581DG     BB155797  71.982  82.406  52.615
 8581DG     BB255798  71.952  82.348  52.260
 8581DG     BB355799  71.927  82.521  52.165
 8581DG     SC155800  71.622  82.515  52.183
 8581DG     SC255801  71.433  82.487  51.954
 8581DG     SC355802  71.287  82.551  52.203
 8581DG     SC455803  71.551  82.579  52.312
 8582DA     BB155804  72.210  82.520  51.924
 8582DA     BB255805  71.983  82.535  51.636
 8582DA     BB355806  71.931  82.738  51.593
 8582DA     SC155807  71.680  82.738  51.776
 8582DA     SC255808  71.432  82.745  51.750
 8582DA     SC355809  71.428  82.824  51.994
 8582DA     SC455810  71.698  82.787  51.928
 8583DG     BB155811  72.067  82.774  51.286
 8583DG     BB255812  71.725  82.807  51.174
 8583DG     BB355813  71.675  82.999  51.164
 8583DG     SC155814  71.575  83.015  51.452
 8583DG     SC255815  71.292  83.060  51.538
 8583DG     SC355816  71.476  83.074  51.769
 8583DG     SC455817  71.679  83.052  51.569
 8584DG     BB155818  71.604  83.012  50.829
 8584DG     BB255819  71.261  83.076  50.925
 8584DG     BB355820  71.230  83.272  50.937
 8584DG     SC155821  71.308  83.292  51.232
 8584DG     SC255822  71.125  83.358  51.458
 8584DG     SC355823  71.406  83.353  51.549
 8584DG     SC455824  71.462  83.317  51.270
 8585DT     BB155825  71.079  83.389  50.802
 8585DT     BB255826  70.807  83.434  51.034
 8585DT     BB355827  70.796  83.632  51.093
 8585DT     SC155828  71.006  83.606  51.248
 8585DT     SC255829  70.945  83.618  51.454
 8585DT     SC355830  71.249  83.640  51.344
 8586DA     BB155831  70.419  83.500  50.967
 8586DA     BB255832  70.380  83.661  51.294
 8586DA     BB355833  70.402  83.872  51.276
 8586DA     SC155834  70.708  83.870  51.327
 8586DA     SC255835  70.866  83.943  51.506
 8586DA     SC355836  71.046  83.935  51.322
 8586DA     SC455837  70.805  83.861  51.199
 8587DA     BB155838  70.118  83.838  51.433
 8587DA     BB255839  70.272  84.030  51.704
 8587DA     BB355840  70.293  84.235  51.647
 8587DA     SC155841  70.578  84.198  51.528
 8587DA     SC255842  70.812  84.266  51.583
 8587DA     SC355843  70.862  84.219  51.336
 8587DA     SC455844  70.589  84.165  51.371
 8588DA     BB155845  70.133  84.273  51.932
 8588DA     BB255846  70.421  84.469  52.046
 8588DA     BB355847  70.422  84.661  51.953
 8588DA     SC155848  70.594  84.571  51.711
 8588DA     SC255849  70.825  84.609  51.624
 8588DA     SC355850  70.732  84.529  51.399
 8588DA     SC455851  70.517  84.520  51.579
 8589DT     BB155852  70.389  84.835  52.066
 8589DT     BB255853  70.729  84.956  52.060
 8589DT     BB355854  70.744  85.118  51.932
 8589DT     SC155855  70.730  84.962  51.721
 8589DT     SC255856  70.920  84.959  51.621
 8589DT     SC355857  70.640  84.854  51.498
 8590DA     BB155858  70.902  85.267  52.292
 8590DA     BB255859  71.140  85.349  52.026
 8590DA     BB355860  71.069  85.514  51.911
 8590DA     SC155861  70.919  85.337  51.704
 8590DA     SC255862  70.942  85.273  51.464
 8590DA     SC355863  70.694  85.210  51.478
 8590DA     SC455864  70.764  85.305  51.733
 8591DC     BB155865  71.165  85.717  51.907
 8591DC     BB255866  71.318  85.680  51.583
 8591DC     BB355867  71.226  85.805  51.446
 8591DC     SC155868  71.016  85.649  51.434
 8591DC     SC255869  71.008  85.554  51.241
 8591DC     SC355870  70.766  85.567  51.456
 8592DA     BB155871  71.637  85.879  51.424
 8592DA     BB255872  71.515  85.818  51.083
 8592DA     BB355873  71.406  85.987  51.012
 8592DA     SC155874  71.131  85.884  51.116
 8592DA     SC255875  70.918  85.798  51.020
 8592DA     SC355876  70.814  85.860  51.247
 8592DA     SC455877  71.085  85.931  51.263
 8593DA     BB155878  71.623  85.938  50.776
 8593DA     BB255879  71.336  85.880  50.555
 8593DA     BB355880  71.239  86.065  50.510
 8593DA     SC155881  71.042  86.047  50.751
 8593DA     SC255882  70.798  86.011  50.787
 8593DA     SC355883  70.837  86.117  51.017
 8593DA     SC455884  71.087  86.117  50.889
 8594DG     BB155885  71.316  85.967  50.230
 8594DG     BB255886  70.957  85.957  50.188
 8594DG     BB355887  70.887  86.140  50.156
 8594DG     SC155888  70.844  86.203  50.452
 8594DG     SC255889  70.580  86.245  50.586
 8594DG     SC355890  70.803  86.314  50.768
 8594DG     SC455891  70.964  86.267  50.536
 8595DA     BB155892  70.731  85.988  49.888
 8595DA     BB255893  70.406  86.097  50.018
 8595DA     BB355894  70.381  86.307  49.988
 8595DA     SC155895  70.503  86.385  50.263
 8595DA     SC255896  70.424  86.480  50.479
 8595DA     SC355897  70.670  86.542  50.518
 8595DA     SC455898  70.661  86.416  50.268
 8596DC     BB155899  70.239  86.363  49.862
 8596DC     BB255900  70.006  86.488  50.106
 8596DC     BB355901  70.011  86.695  50.110
 8596DC     SC155902  70.241  86.695  50.237
 8596DC     SC255903  70.211  86.766  50.438
 8596DC     SC355904  70.496  86.735  50.288
 8597DA     BB155905  69.607  86.593  50.060
 8597DA     BB255906  69.626  86.842  50.328
 8597DA     BB355907  69.665  87.036  50.247
 8597DA     SC155908  69.974  87.009  50.266
 8597DA     SC255909  70.160  87.108  50.400
 8597DA     SC355910  70.312  87.027  50.210
 8597DA     SC455911  70.052  86.952  50.137
 8598DT     BB155912  69.520  87.193  50.255
 8598DT     BB255913  69.681  87.386  50.514
 8598DT     BB355914  69.763  87.558  50.433
 8598DT     SC155915  69.960  87.423  50.325
 8598DT     SC255916  70.144  87.471  50.425
 8598DT     SC355917  70.118  87.318  50.141
 8599DT     BB155918  69.569  87.717  50.547
 8599DT     BB255919  69.880  87.851  50.672
 8599DT     BB355920  69.952  87.995  50.541
 8599DT     SC155921  70.028  87.812  50.369
 8599DT     SC255922  70.243  87.805  50.363
 8599DT     SC355923  70.042  87.671  50.147
 8600DT     BB155924  69.889  88.187  50.721
 8600DT     BB255925  70.242  88.228  50.664
 8600DT     BB355926  70.274  88.351  50.501
 8600DT     SC155927  70.206  88.160  50.334
 8600DT     SC255928  70.380  88.096  50.225
 8600DT     SC355929  70.072  88.029  50.149
 8601DA     BB155930  70.501  88.488  50.824
 8601DA     BB255931  70.720  88.470  50.530
 8601DA     BB355932  70.672  88.627  50.393
 8601DA     SC155933  70.465  88.457  50.234
 8601DA     SC255934  70.447  88.352  50.009
 8601DA     SC355935  70.194  88.350  50.053
 8601DA     SC455936  70.311  88.466  50.280
 8602DA     BB155937  70.995  88.661  50.434
 8602DA     BB255938  71.024  88.606  50.073
 8602DA     BB355939  70.951  88.776  49.966
 8602DA     SC155940  70.659  88.669  49.947
 8602DA     SC255941  70.505  88.582  49.771
 8602DA     SC355942  70.317  88.639  49.936
 8602DA     SC455943  70.557  88.712  50.063
 8603DA     BB155944  71.248  88.748  49.829
 8603DA     BB255945  71.074  88.703  49.509
 8603DA     BB355946  70.995  88.889  49.441
 8603DA     SC155947  70.720  88.851  49.582
 8603DA     SC255948  70.483  88.809  49.516
 8603DA     SC355949  70.424  88.899  49.749
 8603DA     SC455950  70.704  88.911  49.730
 8604DC     BB155951  71.071  88.978  49.271
 8604DC     BB255952  70.791  88.906  49.055
 8604DC     BB355953  70.681  89.078  49.022
 8604DC     SC155954  70.578  89.068  49.263
 8604DC     SC255955  70.369  89.020  49.249
 8604DC     SC355956  70.520  89.136  49.511
 8605DA     BB155957  70.768  88.928  48.641
 8605DA     BB255958  70.408  88.999  48.652
 8605DA     BB355959  70.374  89.209  48.640
 8605DA     SC155960  70.380  89.253  48.948
 8605DA     SC255961  70.219  89.310  49.130
 8605DA     SC355962  70.427  89.379  49.264
 8605DA     SC455963  70.521  89.291  49.015
 8606DA     BB155964  70.182  89.112  48.394
 8606DA     BB255965  69.901  89.253  48.583
 8606DA     BB355966  69.901  89.466  48.569
 8606DA     SC155967  70.077  89.507  48.822
 8606DA     SC255968  70.049  89.595  49.054
 8606DA     SC355969  70.304  89.621  49.053
 8606DA     SC455970  70.236  89.517  48.802
 8607DA     BB155971  69.598  89.392  48.477
 8607DA     BB255972  69.486  89.589  48.765
 8607DA     BB355973  69.512  89.797  48.727
 8607DA     SC155974  69.800  89.808  48.846
 8607DA     SC255975  69.913  89.904  49.047
 8607DA     SC355976  70.129  89.879  48.911
 8607DA     SC455977  69.923  89.786  48.746
 8608DT     BB155978  69.351  89.882  48.724
 8608DT     BB255979  69.382  90.052  49.040
 8608DT     BB355980  69.443  90.247  49.010
 8608DT     SC155981  69.688  90.171  48.956
 8608DT     SC255982  69.819  90.233  49.116
 8608DT     SC355983  69.912  90.131  48.822
 8609DT     BB155984  69.200  90.302  49.090
 8609DT     BB255985  69.416  90.485  49.313
 8609DT     BB355986  69.478  90.661  49.223
 8609DT     SC155987  69.644  90.532  49.067
 8609DT     SC255988  69.847  90.578  49.125
 8609DT     SC355989  69.756  90.437  48.847
 8610DG     BB155990  69.299  90.745  49.581
 8610DG     BB255991  69.620  90.910  49.549
 8610DG     BB355992  69.605  91.065  49.425
 8610DG     SC155993  69.672  90.902  49.174
 8610DG     SC255994  69.918  90.931  49.007
 8610DG     SC355995  69.723  90.750  48.878
 8610DG     SC455996  69.554  90.829  49.095
 8611DT     BB155997  69.634  91.283  49.487
 8611DT     BB255998  69.950  91.365  49.334
 8611DT     BB355999  69.919  91.482  49.166
 8611DT     SC156000  69.836  91.274  49.028
 8611DT     SC256001  69.981  91.225  48.877
 8611DT     SC356002  69.677  91.116  48.890
 8612DG     BB156003  70.144  91.744  49.391
 8612DG     BB256004  70.281  91.717  49.057
 8612DG     BB356005  70.181  91.835  48.933
 8612DG     SC156006  69.973  91.622  48.858
 8612DG     SC256007  69.942  91.496  48.589
 8612DG     SC356008  69.719  91.420  48.768
 8612DG     SC456009  69.841  91.608  48.946
 8613DG     BB156010  70.435  92.047  48.830
 8613DG     BB256011  70.389  91.916  48.496
 8613DG     BB356012  70.258  92.028  48.397
 8613DG     SC156013  70.014  91.867  48.486
 8613DG     SC256014  69.839  91.700  48.310
 8613DG     SC356015  69.723  91.725  48.581
 8613DG     SC456016  69.940  91.907  48.623
 8614DT     BB156017  70.289  92.179  48.187
 8614DT     BB256018  70.141  91.964  47.938
 8614DT     BB356019  69.965  92.047  47.868
 8614DT     SC156020  69.838  91.984  48.089
 8614DT     SC256021  69.694  91.829  48.047
 8614DT     SC356022  69.705  92.010  48.315
 8615DA     BB156023  70.187  91.977  47.521
 8615DA     BB256024  69.857  91.826  47.472
 8615DA     BB356025  69.713  91.976  47.426
 8615DA     SC156026  69.633  92.024  47.722
 8615DA     SC256027  69.436  91.983  47.870
 8615DA     SC356028  69.537  92.164  48.021
 8615DA     SC456029  69.711  92.140  47.802
 8616DT     BB156030  69.629  91.970  47.243
 8616DT     BB256031  69.313  91.833  47.350
 8616DT     BB356032  69.167  91.980  47.346
 8616DT     SC156033  69.263  92.092  47.563
 8616DT     SC256034  69.124  92.063  47.725
 8616DT     SC356035  69.372  92.272  47.721
 8617DA     BB156036  69.045  91.629  47.153
 8617DA     BB256037  68.783  91.730  47.388
 8617DA     BB356038  68.684  91.905  47.318
 8617DA     SC156039  68.875  92.102  47.466
 8617DA     SC256040  68.864  92.260  47.658
 8617DA     SC356041  69.073  92.368  47.554
 8617DA     SC456042  69.003  92.156  47.385
 8618DA     BB156043  68.454  91.687  47.390
 8618DA     BB256044  68.326  91.938  47.625
 8618DA     BB356045  68.243  92.104  47.519
 8618DA     SC156046  68.510  92.263  47.512
 8618DA     SC256047  68.605  92.470  47.615
 8618DA     SC356048  68.774  92.465  47.422
 8618DA     SC456049  68.606  92.244  47.384
 8619DA     BB156050  68.015  92.012  47.735
 8619DA     BB256051  68.035  92.355  47.863
 8619DA     BB356052  67.956  92.492  47.719
 8619DA     SC156053  68.229  92.541  47.579
 8619DA     SC256054  68.395  92.727  47.557
 8619DA     SC356055  68.479  92.600  47.350
 8619DA     SC456056  68.266  92.448  47.453
 8620DA     BB156057  67.786  92.576  47.988
 8620DA     BB256058  67.922  92.914  47.944
 8620DA     BB356059  67.832  93.009  47.775
 8620DA     SC156060  68.046  92.909  47.574
 8620DA     SC256061  68.231  93.006  47.438
 8620DA     SC356062  68.211  92.794  47.295
 8620DA     SC456063  68.018  92.771  47.497
 8621DT     BB156064  67.703  93.173  47.798
 8621DT     BB256065  67.923  93.427  47.667
 8621DT     BB356066  67.862  93.483  47.478
 8621DT     SC156067  67.954  93.261  47.373
 8621DT     SC256068  68.124  93.306  47.250
 8621DT     SC356069  67.957  93.028  47.250
 8622DA     BB156070  67.880  93.851  47.683
 8622DA     BB256071  68.054  93.896  47.363
 8622DA     BB356072  67.913  93.911  47.203
 8622DA     SC156073  67.910  93.605  47.145
 8622DA     SC256074  67.988  93.451  46.965
 8622DA     SC356075  67.819  93.285  47.063
 8622DA     SC456076  67.799  93.517  47.220
 8623DA     BB156077  68.055  94.203  47.123
 8623DA     BB256078  68.145  94.055  46.800
 8623DA     BB356079  67.977  94.056  46.668
 8623DA     SC156080  67.876  93.775  46.755
 8623DA     SC256081  67.860  93.546  46.657
 8623DA     SC356082  67.683  93.503  46.839
 8623DA     SC456083  67.768  93.768  46.874
 8624DC     BB156084  67.967  94.177  46.487
 8624DC     BB256085  68.022  93.907  46.255
 8624DC     BB356086  67.847  93.865  46.152
 8624DC     SC156087  67.743  93.747  46.362
 8624DC     SC256088  67.728  93.535  46.325
 8624DC     SC356089  67.580  93.697  46.564
 8625DA     BB156090  68.140  93.923  45.858
 8625DA     BB256091  67.970  93.606  45.785
 8625DA     BB356092  67.776  93.644  45.704
 8625DA     SC156093  67.633  93.643  45.980
 8625DA     SC256094  67.472  93.498  46.104
 8625DA     SC356095  67.424  93.708  46.245
 8625DA     SC456096  67.616  93.784  46.055
 8626DT     BB156097  67.741  93.589  45.512
 8626DT     BB256098  67.540  93.299  45.588
 8626DT     BB356099  67.341  93.339  45.552
 8626DT     SC156100  67.323  93.486  45.769
 8626DT     SC256101  67.200  93.384  45.914
 8626DT     SC356102  67.288  93.696  45.924
 8627DA     BB156103  67.440  92.984  45.353
 8627DA     BB256104  67.134  92.924  45.547
 8627DA     BB356105  66.968  93.023  45.456
 8627DA     SC156106  67.005  93.286  45.617
 8627DA     SC256107  66.886  93.410  45.798
 8627DA     SC356108  67.018  93.614  45.717
 8627DA     SC456109  67.095  93.402  45.551
 8628DT     BB156110  66.824  92.907  45.381
 8628DT     BB256111  66.582  92.970  45.641
 8628DT     BB356112  66.437  93.101  45.573
 8628DT     SC156113  66.601  93.304  45.591
 8628DT     SC256114  66.538  93.433  45.751
 8628DT     SC356115  66.752  93.509  45.520
 8629DT     BB156116  66.261  92.896  45.567
 8629DT     BB256117  66.111  93.141  45.786
 8629DT     BB356118  66.005  93.279  45.674
 8629DT     SC156119  66.225  93.396  45.593
 8629DT     SC256120  66.241  93.590  45.683
 8629DT     SC356121  66.415  93.483  45.431
 8630DT     BB156122  65.775  93.172  45.767
 8630DT     BB256123  65.760  93.519  45.864
 8630DT     BB356124  65.682  93.632  45.710
 8630DT     SC156125  65.905  93.615  45.573
 8630DT     SC256126  66.000  93.808  45.567
 8630DT     SC356127  66.073  93.554  45.379
 8631DT     BB156128  65.460  93.663  45.858
 8631DT     BB256129  65.576  93.998  45.793
 8631DT     BB356130  65.504  94.064  45.611
 8631DT     SC156131  65.674  93.913  45.480
 8631DT     SC256132  65.821  94.037  45.383
 8631DT     SC356133  65.766  93.724  45.321
 8632DA     BB156134  65.425  94.351  45.906
 8632DA     BB256135  65.579  94.521  45.620
 8632DA     BB356136  65.441  94.532  45.457
 8632DA     SC156137  65.532  94.262  45.331
 8632DA     SC256138  65.655  94.186  45.127
 8632DA     SC356139  65.544  93.959  45.171
 8632DA     SC456140  65.453  94.129  45.374
 8633DA     BB156141  65.533  94.843  45.489
 8633DA     BB256142  65.655  94.820  45.144
 8633DA     BB356143  65.492  94.818  45.007
 8633DA     SC156144  65.466  94.508  45.006
 8633DA     SC256145  65.508  94.320  44.847
 8633DA     SC356146  65.350  94.185  44.998
 8633DA     SC456147  65.365  94.441  45.111
 8634DT     BB156148  65.482  94.970  44.892
 8634DT     BB256149  65.589  94.806  44.589
 8634DT     BB356150  65.426  94.766  44.469
 8634DT     SC156151  65.351  94.568  44.624
 8634DT     SC256152  65.380  94.381  44.521
 8634DT     SC356153  65.205  94.424  44.790
 8635DA     BB156154  65.713  94.963  44.236
 8635DA     BB256155  65.598  94.670  44.048
 8635DA     BB356156  65.400  94.702  43.975
 8635DA     SC156157  65.261  94.581  44.225
 8635DA     SC256158  65.128  94.378  44.283
 8635DA     SC356159  65.046  94.513  44.485
 8635DA     SC456160  65.221  94.682  44.344
 8636DA     BB156161  65.548  94.620  43.694
 8636DA     BB256162  65.311  94.341  43.672
 8636DA     BB356163  65.118  94.412  43.616
 8636DA     SC156164  65.022  94.455  43.908
 8636DA     SC256165  64.858  94.352  44.066
 8636DA     SC356166  64.873  94.574  44.194
 8636DA     SC456167  65.044  94.601  43.973
 8637DT     BB156168  65.044  94.359  43.435
 8637DT     BB256169  64.796  94.126  43.554
 8637DT     BB356170  64.607  94.210  43.541
 8637DT     SC156171  64.653  94.363  43.749
 8637DT     SC256172  64.532  94.298  43.914
 8637DT     SC356173  64.689  94.580  43.895
 8638DG     BB156174  64.588  93.871  43.314
 8638DG     BB256175  64.316  93.884  43.552
 8638DG     BB356176  64.173  94.005  43.485
 8638DG     SC156177  64.290  94.256  43.617
 8638DG     SC256178  64.166  94.410  43.840
 8638DG     SC356179  64.401  94.553  43.731
 8638DG     SC456180  64.398  94.343  43.537
 8639DT     BB156181  63.958  93.937  43.430
 8639DT     BB256182  63.767  94.068  43.707
 8639DT     BB356183  63.659  94.233  43.647
 8639DT     SC156184  63.874  94.383  43.644
 8639DT     SC256185  63.864  94.526  43.804
 8639DT     SC356186  64.069  94.536  43.553
 8640DA     BB156187  63.366  93.983  43.816
 8640DA     BB256188  63.318  94.317  43.959
 8640DA     BB356189  63.224  94.446  43.817
 8640DA     SC156190  63.491  94.549  43.696
 8640DA     SC256191  63.622  94.761  43.692
 8640DA     SC356192  63.738  94.662  43.485
 8640DA     SC456193  63.550  94.470  43.569
 8641DT     BB156194  63.014  94.527  43.835
 8641DT     BB256195  63.109  94.865  43.920
 8641DT     BB356196  63.064  94.993  43.763
 8641DT     SC156197  63.268  94.904  43.623
 8641DT     SC256198  63.417  95.059  43.609
 8641DT     SC356199  63.404  94.790  43.429
 8642DA     BB156200  62.880  95.164  44.099
 8642DA     BB256201  63.075  95.426  43.933
 8642DA     BB356202  62.977  95.491  43.755
 8642DA     SC156203  63.121  95.285  43.571
 8642DA     SC256204  63.292  95.286  43.390
 8642DA     SC356205  63.198  95.056  43.327
 8642DA     SC456206  63.048  95.143  43.547
 8643DG     BB156207  62.971  95.769  43.895
 8643DG     BB256208  63.191  95.860  43.622
 8643DG     BB356209  63.084  95.904  43.460
 8643DG     SC156210  63.082  95.617  43.353
 8643DG     SC256211  63.217  95.522  43.105
 8643DG     SC356212  63.043  95.311  43.218
 8643DG     SC456213  62.965  95.518  43.400
 8644DT     BB156214  63.093  96.105  43.374
 8644DT     BB256215  63.296  96.048  43.081
 8644DT     BB356216  63.176  96.042  42.912
 8644DT     SC156217  63.087  95.803  42.973
 8644DT     SC256218  63.165  95.660  42.833
 8644DT     SC356219  62.920  95.610  43.040
 8645DT     BB156220  63.276  96.283  42.837
 8645DT     BB256221  63.347  96.064  42.559
 8645DT     BB356222  63.184  96.057  42.432
 8645DT     SC156223  63.051  95.904  42.598
 8645DT     SC256224  63.032  95.707  42.514
 8645DT     SC356225  62.863  95.824  42.765
 8646DA     BB156226  63.523  96.148  42.200
 8646DA     BB256227  63.343  95.873  42.036
 8646DA     BB356228  63.164  95.945  41.946
 8646DA     SC156229  62.988  95.893  42.198
 8646DA     SC256230  62.806  95.738  42.267
 8646DA     SC356231  62.754  95.912  42.448
 8646DA     SC456232  62.971  96.014  42.302
 8647DT     BB156233  63.143  95.944  41.740
 8647DT     BB256234  62.916  95.665  41.722
 8647DT     BB356235  62.725  95.732  41.679
 8647DT     SC156236  62.693  95.822  41.923
 8647DT     SC256237  62.548  95.700  42.026
 8647DT     SC356238  62.656  95.990  42.123
 8648DT     BB156239  62.737  95.636  41.421
 8648DT     BB256240  62.448  95.474  41.565
 8648DT     BB356241  62.280  95.592  41.538
 8648DT     SC156242  62.358  95.759  41.725
 8648DT     SC256243  62.227  95.741  41.895
 8648DT     SC356244  62.437  95.981  41.842
 8649DC     BB156245  62.184  95.419  41.350
 8649DC     BB256246  61.927  95.433  41.604
 8649DC     BB356247  61.797  95.589  41.565
 8649DC     SC156248  61.974  95.766  41.646
 8649DC     SC256249  61.907  95.854  41.830
 8649DC     SC356250  62.143  95.968  41.640
 8650DA     BB156251  61.582  95.236  41.629
 8650DA     BB256252  61.440  95.499  41.842
 8650DA     BB356253  61.332  95.640  41.725
 8650DA     SC156254  61.578  95.826  41.680
 8650DA     SC256255  61.653  96.053  41.751
 8650DA     SC356256  61.810  96.042  41.548
 8650DA     SC456257  61.667  95.801  41.548
 8651DG     BB156258  61.125  95.535  41.922
 8651DG     BB256259  61.134  95.878  42.035
 8651DG     BB356260  61.032  95.994  41.909
 8651DG     SC156261  61.273  96.054  41.730
 8651DG     SC256262  61.404  96.320  41.696
 8651DG     SC356263  61.510  96.124  41.501
 8651DG     SC456264  61.306  95.955  41.609
 8652DT     BB156265  60.889  96.083  42.004
 8652DT     BB256266  61.006  96.424  42.019
 8652DT     BB356267  60.931  96.532  41.860
 8652DT     SC156268  61.098  96.416  41.693
 8652DT     SC256269  61.243  96.560  41.627
 8652DT     SC356270  61.187  96.271  41.492
 8653DT     BB156271  60.787  96.651  42.044
 8653DT     BB256272  60.964  96.916  41.875
 8653DT     BB356273  60.867  96.966  41.699
 8653DT     SC156274  60.953  96.748  41.581
 8653DT     SC256275  61.096  96.801  41.429
 8653DT     SC356276  60.950  96.513  41.461
 8654DC     BB156277  60.785  97.197  41.813
 8654DC     BB256278  60.953  97.299  41.511
 8654DC     BB356279  60.821  97.293  41.351
 8654DC     SC156280  60.833  97.031  41.342
 8654DC     SC256281  60.937  96.970  41.164
 8654DC     SC356282  60.757  96.779  41.354
 8655DT     BB156283  60.796  97.569  41.337
 8655DT     BB256284  60.899  97.474  41.005
 8655DT     BB356285  60.733  97.431  40.889
 8655DT     SC156286  60.698  97.201  41.011
 8655DT     SC256287  60.743  97.040  40.875
 8655DT     SC356288  60.586  97.013  41.157
 8656DA     BB156289  60.933  97.721  40.657
 8656DA     BB256290  60.857  97.439  40.436
 8656DA     BB356291  60.651  97.440  40.381
 8656DA     SC156292  60.560  97.262  40.619
 8656DA     SC256293  60.474  97.031  40.655
 8656DA     SC356294  60.388  97.119  40.879
 8656DA     SC456295  60.513  97.336  40.754
 8657DA     BB156296  60.763  97.438  40.071
 8657DA     BB256297  60.601  97.111  40.033
 8657DA     BB356298  60.391  97.136  40.001
 8657DA     SC156299  60.318  97.124  40.303
 8657DA     SC256300  60.202  96.968  40.459
 8657DA     SC356301  60.175  97.173  40.611
 8657DA     SC456302  60.310  97.263  40.383
 8658DT     BB156303  60.319  97.078  39.824
 8658DT     BB256304  60.169  96.772  39.942
 8658DT     BB356305  59.963  96.794  39.953
 8658DT     SC156306  59.982  96.941  40.169
 8658DT     SC256307  59.906  96.832  40.337
 8658DT     SC356308  59.964  97.150  40.329
 8659DT     BB156309  59.970  96.624  39.755
 8659DT     BB256310  59.779  96.463  40.016
 8659DT     BB356311  59.584  96.531  40.013
 8659DT     SC156312  59.655  96.761  40.120
 8659DT     SC256313  59.578  96.772  40.321
 8659DT     SC356314  59.695  97.020  40.147
 8660DC     BB156315  59.561  96.286  39.946
 8660DC     BB256316  59.361  96.328  40.243
 8660DC     BB356317  59.184  96.424  40.195
 8660DC     SC156318  59.307  96.655  40.170
 8660DC     SC256319  59.249  96.785  40.331
 8660DC     SC356320  59.401  96.875  40.060
 8661DT     BB156321  59.105  96.190  40.263
 8661DT     BB256322  58.926  96.421  40.475
 8661DT     BB356323  58.774  96.512  40.367
 8661DT     SC156324  58.946  96.665  40.240
 8661DT     SC256325  58.922  96.869  40.305
 8661DT     SC356326  59.085  96.771  40.043
 8662DA     BB156327  58.633  96.365  40.738
 8662DA     BB256328  58.501  96.703  40.687
 8662DA     BB356329  58.361  96.705  40.525
 8662DA     SC156330  58.576  96.769  40.309
 8662DA     SC256331  58.637  96.960  40.161
 8662DA     SC356332  58.760  96.785  40.020
 8662DA     SC456333  58.645  96.645  40.233
 8663DC     BB156334  58.169  96.740  40.566
 8663DC     BB256335  58.146  97.068  40.418
 8663DC     BB356336  58.053  97.057  40.234
 8663DC     SC156337  58.267  96.954  40.123
 8663DC     SC256338  58.353  97.097  39.988
 8663DC     SC356339  58.425  96.782  40.001
 8664DA     BB156340  57.818  97.345  40.433
 8664DA     BB256341  57.894  97.479  40.100
 8664DA     BB356342  57.775  97.381  39.952
 8664DA     SC156343  57.983  97.157  39.896
 8664DA     SC256344  58.137  97.090  39.712
 8664DA     SC356345  58.138  96.859  39.825
 8664DA     SC456346  57.970  97.021  39.980
 8665DG     BB156347  57.629  97.656  39.870
 8665DG     BB256348  57.794  97.603  39.552
 8665DG     BB356349  57.680  97.491  39.435
 8665DG     SC156350  57.799  97.226  39.532
 8665DG     SC256351  57.963  97.037  39.370
 8665DG     SC356352  57.892  96.917  39.630
 8665DG     SC456353  57.734  97.154  39.660
 8666DT     BB156354  57.574  97.553  39.222
 8666DT     BB256355  57.793  97.384  38.990
 8666DT     BB356356  57.694  97.223  38.905
 8666DT     SC156357  57.718  97.083  39.126
 8666DT     SC256358  57.856  96.921  39.093
 8666DT     SC356359  57.650  96.949  39.343
 8667DT     BB156360  57.663  97.347  38.658
 8667DT     BB256361  57.845  97.044  38.583
 8667DT     BB356362  57.713  96.890  38.544
 8667DT     SC156363  57.653  96.866  38.799
 8667DT     SC256364  57.732  96.680  38.873
 8667DT     SC356365  57.512  96.866  39.022
 8668DC     BB156366  57.774  96.896  38.277
 8668DC     BB256367  57.851  96.559  38.381
 8668DC     BB356368  57.683  96.440  38.365
 8668DC     SC156369  57.576  96.548  38.579
 8668DC     SC256370  57.573  96.403  38.738
 8668DC     SC356371  57.408  96.682  38.732
 8669DA     BB156372  58.001  96.251  38.168
 8669DA     BB256373  57.848  96.009  38.396
 8669DA     BB356374  57.658  95.946  38.321
 8669DA     SC156375  57.499  96.168  38.469
 8669DA     SC256376  57.337  96.184  38.658
 8669DA     SC356377  57.272  96.411  38.557
 8669DA     SC456378  57.472  96.306  38.390
 8670DA     BB156379  57.807  95.660  38.370
 8670DA     BB256380  57.538  95.586  38.608
 8670DA     BB356381  57.356  95.543  38.504
 8670DA     SC156382  57.259  95.839  38.503
 8670DA     SC256383  57.080  95.974  38.612
 8670DA     SC356384  57.119  96.141  38.421
 8670DA     SC456385  57.297  95.929  38.376
 8671DG     BB156386  57.391  95.277  38.656
 8671DG     BB256387  57.086  95.386  38.817
 8671DG     BB356388  56.930  95.347  38.700
 8671DG     SC156389  56.940  95.616  38.555
 8671DG     SC256390  56.735  95.832  38.571
 8671DG     SC356391  56.935  95.892  38.361
 8671DG     SC456392  57.031  95.630  38.424
 8672DA     BB156393  56.803  95.199  38.984
 8672DA     BB256394  56.515  95.426  38.972
 8672DA     BB356395  56.382  95.368  38.816
 8672DA     SC156396  56.517  95.548  38.601
 8672DA     SC256397  56.463  95.754  38.472
 8672DA     SC356398  56.645  95.676  38.309
 8672DA     SC456399  56.633  95.481  38.511
 8673DT     BB156400  56.209  95.308  38.876
 8673DT     BB256401  56.020  95.598  38.773
 8673DT     BB356402  55.919  95.558  38.598
 8673DT     SC156403  56.139  95.574  38.457
 8673DT     SC256404  56.133  95.751  38.334
 8673DT     SC356405  56.340  95.504  38.301
 8674DC     BB156406  55.694  95.558  38.742
 8674DC     BB256407  55.637  95.804  38.484
 8674DC     BB356408  55.569  95.711  38.312
 8674DC     SC156409  55.808  95.618  38.258
 8674DC     SC256410  55.886  95.718  38.084
 8674DC     SC356411  56.004  95.447  38.216
 8675DG     BB156412  55.285  95.985  38.416
 8675DG     BB256413  55.379  96.020  38.068
 8675DG     BB356414  55.291  95.879  37.960
 8675DG     SC156415  55.517  95.675  37.994
 8675DG     SC256416  55.697  95.576  37.777
 8675DG     SC356417  55.737  95.422  38.027
 8675DG     SC456418  55.514  95.576  38.119
 8676DT     BB156419  55.136  95.921  37.795
 8676DT     BB256420  55.325  95.853  37.496
 8676DT     BB356421  55.267  95.671  37.415
 8676DT     SC156422  55.395  95.538  37.602
 8676DT     SC256423  55.565  95.439  37.514
 8676DT     SC356424  55.439  95.379  37.807
 8677DA     BB156425  55.213  95.930  37.086
 8677DA     BB256426  55.400  95.639  36.963
 8677DA     BB356427  55.268  95.473  36.936
 8677DA     SC156428  55.309  95.362  37.224
 8677DA     SC256429  55.417  95.165  37.333
 8677DA     SC356430  55.266  95.219  37.533
 8677DA     SC456431  55.206  95.410  37.338
 8678DT     BB156432  55.202  95.373  36.733
 8678DT     BB256433  55.405  95.077  36.765
 8678DT     BB356434  55.285  94.911  36.793
 8678DT     SC156435  55.235  94.980  37.042
 8678DT     SC256436  55.331  94.841  37.175
 8678DT     SC356437  55.101  95.054  37.256
 8679DT     BB156438  55.307  94.793  36.528
 8679DT     BB256439  55.419  94.529  36.748
 8679DT     BB356440  55.260  94.404  36.794
 8679DT     SC156441  55.158  94.582  36.958
 8679DT     SC256442  55.177  94.512  37.160
 8679DT     SC356443  54.988  94.756  37.061
 8680DC     BB156444  55.345  94.188  36.631
 8680DC     BB256445  55.329  94.048  36.963
 8680DC     BB356446  55.142  93.964  36.995
 8680DC     SC156447  55.032  94.200  37.022
 8680DC     SC256448  54.973  94.228  37.227
 8680DC     SC356449  54.878  94.409  36.976
 8681DA     BB156450  55.432  93.679  37.089
 8681DA     BB256451  55.203  93.706  37.374
 8681DA     BB356452  55.017  93.610  37.330
 8681DA     SC156453  54.884  93.867  37.214
 8681DA     SC256454  54.703  94.026  37.278
 8681DA     SC356455  54.699  94.089  37.029
 8681DA     SC456456  54.896  93.891  37.056
 8682DC     BB156457  54.992  93.470  37.443
 8682DC     BB256458  54.744  93.628  37.651
 8682DC     BB356459  54.555  93.565  37.595
 8682DC     SC156460  54.560  93.715  37.380
 8682DC     SC256461  54.419  93.876  37.402
 8682DC     SC356462  54.560  93.784  37.125
 8683DT     BB156463  54.565  93.447  37.828
 8683DT     BB256464  54.277  93.664  37.842
 8683DT     BB356465  54.116  93.574  37.749
 8683DT     SC156466  54.218  93.620  37.511
 8683DT     SC256467  54.099  93.768  37.410
 8683DT     SC356468  54.320  93.576  37.272
 8684DT     BB156469  54.025  93.562  37.994
 8684DT     BB256470  53.776  93.744  37.806
 8684DT     BB356471  53.655  93.612  37.703
 8684DT     SC156472  53.843  93.565  37.526
 8684DT     SC256473  53.787  93.650  37.337
 8684DT     SC356474  54.024  93.435  37.385
 8685DT     BB156475  53.470  93.687  37.876
 8685DT     BB256476  53.330  93.756  37.551
 8685DT     BB356477  53.248  93.584  37.471
 8685DT     SC156478  53.486  93.487  37.416
 8685DT     SC256479  53.514  93.484  37.203
 8685DT     SC356480  53.696  93.328  37.421
 8686DA     BB156481  52.970  93.898  37.448
 8686DA     BB256482  52.982  93.730  37.121
 8686DA     BB356483  52.893  93.537  37.134
 8686DA     SC156484  53.158  93.392  37.205
 8686DA     SC256485  53.316  93.232  37.097
 8686DA     SC356486  53.396  93.180  37.335
 8686DA     SC456487  53.193  93.373  37.361
 8687DC     BB156488  52.733  93.517  37.031
 8687DC     BB256489  52.868  93.306  36.772
 8687DC     BB356490  52.816  93.109  36.807
 8687DC     SC156491  52.991  93.088  37.002
 8687DC     SC256492  53.151  92.958  36.941
 8687DC     SC356493  53.090  93.055  37.244
 8688DT     BB156494  52.646  93.124  36.599
 8688DT     BB256495  52.857  92.842  36.522
 8688DT     BB356496  52.784  92.671  36.613
 8688DT     SC156497  52.869  92.750  36.848
 8688DT     SC256498  53.032  92.624  36.911
 8688DT     SC356499  52.865  92.828  37.100
 8689DA     BB156500  52.839  92.576  36.207
 8689DA     BB256501  52.984  92.305  36.406
 8689DA     BB356502  52.829  92.187  36.494
 8689DA     SC156503  52.817  92.355  36.756
 8689DA     SC256504  52.875  92.327  36.996
 8689DA     SC356505  52.714  92.522  37.038
 8689DA     SC456506  52.711  92.477  36.761
 8690DA     BB156507  52.980  91.929  36.348
 8690DA     BB256508  53.025  91.784  36.682
 8690DA     BB356509  52.842  91.700  36.752
 8690DA     SC156510  52.747  91.962  36.891
 8690DA     SC256511  52.714  92.045  37.124
 8690DA     SC356512  52.562  92.222  37.017
 8690DA     SC456513  52.656  92.063  36.806
 8691DG     BB156514  52.965  91.402  36.766
 8691DG     BB256515  52.901  91.432  37.121
 8691DG     BB356516  52.716  91.372  37.162
 8691DG     SC156517  52.592  91.649  37.124
 8691DG     SC256518  52.469  91.817  37.338
 8691DG     SC356519  52.420  91.934  37.071
 8691DG     SC456520  52.543  91.693  36.978
 8692DT     BB156521  52.637  91.174  37.297
 8692DT     BB256522  52.531  91.341  37.599
 8692DT     BB356523  52.324  91.335  37.614
 8692DT     SC156524  52.297  91.519  37.429
 8692DT     SC256525  52.225  91.701  37.518
 8692DT     SC356526  52.229  91.633  37.201
 8693DA     BB156527  52.451  91.172  37.980
 8693DA     BB256528  52.209  91.436  38.057
 8693DA     BB356529  52.010  91.367  38.020
 8693DA     SC156530  52.005  91.465  37.725
 8693DA     SC256531  51.891  91.642  37.591
 8693DA     SC356532  51.950  91.498  37.387
 8693DA     SC456533  52.050  91.361  37.611
 8694DC     BB156534  51.880  91.345  38.178
 8694DC     BB256535  51.685  91.640  38.110
 8694DC     BB356536  51.500  91.587  38.032
 8694DC     SC156537  51.606  91.528  37.799
 8694DC     SC256538  51.544  91.673  37.653
 8694DC     SC356539  51.682  91.387  37.590
 8695DT     BB156540  51.394  91.666  38.264
 8695DT     BB256541  51.230  91.867  38.013
 8695DT     BB356542  51.069  91.764  37.934
 8695DT     SC156543  51.228  91.608  37.795
 8695DT     SC256544  51.207  91.654  37.586
 8695DT     SC356545  51.349  91.390  37.709
 8696DT     BB156546  50.914  91.938  38.064
 8696DT     BB256547  50.815  91.965  37.718
 8696DT     BB356548  50.677  91.818  37.672
 8696DT     SC156549  50.863  91.633  37.669
 8696DT     SC256550  50.893  91.565  37.467
 8696DT     SC356551  51.000  91.418  37.735
 8697DA     BB156552  50.520  92.187  37.546
 8697DA     BB256553  50.480  91.948  37.272
 8697DA     BB356554  50.328  91.806  37.319
 8697DA     SC156555  50.523  91.603  37.452
 8697DA     SC256556  50.616  91.377  37.402
 8697DA     SC356557  50.668  91.366  37.653
 8697DA     SC456558  50.546  91.614  37.610
 8698DA     BB156559  50.193  91.900  37.031
 8698DA     BB256560  50.229  91.552  36.919
 8698DA     BB356561  50.076  91.431  37.006
 8698DA     SC156562  50.245  91.355  37.256
 8698DA     SC256563  50.358  91.152  37.348
 8698DA     SC356564  50.350  91.276  37.573
 8698DA     SC456565  50.230  91.447  37.386
 8699DA     BB156566  49.986  91.338  36.696
 8699DA     BB256567  50.073  90.994  36.788
 8699DA     BB356568  49.915  90.904  36.899
 8699DA     SC156569  50.025  90.994  37.176
 8699DA     SC256570  50.128  90.887  37.377
 8699DA     SC356571  50.059  91.101  37.501
 8699DA     SC456572  49.973  91.133  37.236
 8700DC     BB156573  49.781  90.731  36.828
 8700DC     BB256574  49.941  90.478  37.030
 8700DC     BB356575  49.812  90.414  37.178
 8700DC     SC156576  49.847  90.635  37.316
 8700DC     SC256577  49.958  90.590  37.495
 8700DC     SC356578  49.794  90.864  37.435
 8701DC     BB156579  49.763  90.167  37.057
 8701DC     BB256580  49.901  90.084  37.380
 8701DC     BB356581  49.748  90.063  37.519
 8701DC     SC156582  49.713  90.323  37.531
 8701DC     SC256583  49.779  90.395  37.723
 8701DC     SC356584  49.598  90.559  37.510
 8702DT     BB156585  49.806  89.803  37.517
 8702DT     BB256586  49.860  89.911  37.857
 8702DT     BB356587  49.680  89.909  37.961
 8702DT     SC156588  49.598  90.126  37.839
 8702DT     SC256589  49.593  90.289  37.980
 8702DT     SC356590  49.453  90.286  37.687
 8703DG     BB156591  49.971  89.689  38.142
 8703DG     BB256592  49.827  89.935  38.365
 8703DG     BB356593  49.645  89.876  38.422
 8703DG     SC156594  49.500  90.012  38.190
 8703DG     SC256595  49.312  90.243  38.211
 8703DG     SC356596  49.311  90.131  37.937
 8703DG     SC456597  49.480  89.931  38.053
 8704DT     BB156598  49.631  89.854  38.620
 8704DT     BB256599  49.430  90.139  38.714
 8704DT     BB356600  49.232  90.082  38.731
 8704DT     SC156601  49.204  90.070  38.470
 8704DT     SC256602  49.077  90.230  38.404
 8704DT     SC356603  49.162  89.971  38.229
 8705DC     BB156604  49.273  90.122  38.987
 8705DC     BB256605  48.996  90.337  38.900
 8705DC     BB356606  48.821  90.228  38.897
 8705DC     SC156607  48.886  90.115  38.669
 8705DC     SC256608  48.756  90.188  38.514
 8705DC     SC356609  48.949  89.928  38.494
 8706DT     BB156610  48.751  90.356  39.121
 8706DT     BB256611  48.481  90.420  38.890
 8706DT     BB356612  48.346  90.263  38.894
 8706DT     SC156613  48.509  90.109  38.758
 8706DT     SC256614  48.429  90.076  38.561
 8706DT     SC356615  48.668  89.907  38.700
 8707DA     BB156616  48.130  90.619  38.946
 8707DA     BB256617  47.960  90.421  38.689
 8707DA     BB356618  47.862  90.253  38.777
 8707DA     SC156619  48.106  90.063  38.746
 8707DA     SC256620  48.168  89.862  38.611
 8707DA     SC356621  48.344  89.820  38.793
 8707DA     SC456622  48.208  90.053  38.870
 8708DT     BB156623  47.665  90.251  38.768
 8708DT     BB256624  47.634  89.995  38.516
 8708DT     BB356625  47.580  89.816  38.604
 8708DT     SC156626  47.822  89.780  38.700
 8708DT     SC256627  47.916  89.616  38.597
 8708DT     SC356628  48.018  89.751  38.874
 8709DA     BB156629  47.314  89.889  38.289
 8709DA     BB256630  47.433  89.544  38.258
 8709DA     BB356631  47.346  89.421  38.408
 8709DA     SC156632  47.574  89.469  38.614
 8709DA     SC256633  47.759  89.338  38.718
 8709DA     SC356634  47.756  89.518  38.901
 8709DA     SC456635  47.556  89.590  38.719
 8710DG     BB156636  47.243  89.272  38.158
 8710DG     BB256637  47.447  89.004  38.292
 8710DG     BB356638  47.350  88.913  38.440
 8710DG     SC156639  47.459  89.097  38.659
 8710DG     SC256640  47.646  89.017  38.878
 8710DG     SC356641  47.544  89.291  38.921
 8710DG     SC456642  47.380  89.232  38.694
 8711DC     BB156643  47.296  88.703  38.422
 8711DC     BB256644  47.528  88.546  38.650
 8711DC     BB356645  47.432  88.498  38.827
 8711DC     SC156646  47.432  88.750  38.903
 8711DC     SC256647  47.567  88.775  39.068
 8711DC     SC356648  47.342  88.988  38.972
 8712DT     BB156649  47.433  88.232  38.765
 8712DT     BB256650  47.594  88.247  39.088
 8712DT     BB356651  47.451  88.238  39.238
 8712DT     SC156652  47.377  88.486  39.193
 8712DT     SC256653  47.438  88.610  39.359
 8712DT     SC356654  47.226  88.692  39.127
 8713DT     BB156655  47.512  87.976  39.309
 8713DT     BB256656  47.546  88.158  39.618
 8713DT     BB356657  47.364  88.161  39.718
 8713DT     SC156658  47.268  88.340  39.551
 8713DT     SC256659  47.244  88.527  39.653
 8713DT     SC356660  47.115  88.449  39.366
 8714DA     BB156661  47.626  88.006  40.007
 8714DA     BB256662  47.437  88.276  40.167
 8714DA     BB356663  47.239  88.210  40.214
 8714DA     SC156664  47.118  88.302  39.942
 8714DA     SC256665  46.962  88.479  39.860
 8714DA     SC356666  46.935  88.329  39.654
 8714DA     SC456667  47.113  88.195  39.823
 8715DG     BB156668  47.299  88.260  40.521
 8715DG     BB256669  47.043  88.514  40.488
 8715DG     BB356670  46.864  88.433  40.517
 8715DG     SC156671  46.821  88.361  40.223
 8715DG     SC256672  46.617  88.482  40.041
 8715DG     SC356673  46.749  88.251  39.912
 8715DG     SC456674  46.872  88.220  40.169
 8716DA     BB156675  46.795  88.675  40.760
 8716DA     BB256676  46.512  88.799  40.562
 8716DA     BB356677  46.342  88.673  40.589
 8716DA     SC156678  46.411  88.485  40.351
 8716DA     SC256679  46.321  88.434  40.124
 8716DA     SC356680  46.453  88.214  40.144
 8716DA     SC456681  46.498  88.354  40.383
 8717DT     BB156682  46.171  88.746  40.686
 8717DT     BB256683  45.969  88.782  40.389
 8717DT     BB356684  45.823  88.636  40.384
 8717DT     SC156685  45.998  88.452  40.318
 8717DT     SC256686  45.963  88.390  40.115
 8717DT     SC356687  46.148  88.236  40.332
 8718DA     BB156688  45.636  89.006  40.327
 8718DA     BB256689  45.520  88.779  40.064
 8718DA     BB356690  45.384  88.636  40.144
 8718DA     SC156691  45.605  88.427  40.210
 8718DA     SC256692  45.678  88.203  40.127
 8718DA     SC356693  45.795  88.180  40.354
 8718DA     SC456694  45.669  88.431  40.357
 8719DT     BB156695  45.198  88.647  40.080
 8719DT     BB256696  45.210  88.356  39.866
 8719DT     BB356697  45.111  88.198  39.957
 8719DT     SC156698  45.310  88.160  40.124
 8719DT     SC256699  45.409  87.975  40.076
 8719DT     SC356700  45.444  88.144  40.350
 8720DT     BB156701  44.915  88.227  39.775
 8720DT     BB256702  45.024  87.885  39.738
 8720DT     BB356703  44.924  87.764  39.874
 8720DT     SC156704  45.069  87.855  40.073
 8720DT     SC256705  45.200  87.699  40.142
 8720DT     SC356706  45.133  87.974  40.299
 8721DT     BB156707  44.785  87.661  39.668
 8721DT     BB256708  44.941  87.376  39.826
 8721DT     BB356709  44.822  87.308  39.981
 8721DT     SC156710  44.893  87.510  40.134
 8721DT     SC256711  45.017  87.438  40.294
 8721DT     SC356712  44.876  87.729  40.279
 8722DA     BB156713  44.896  86.972  39.743
 8722DA     BB256714  44.960  86.875  40.091
 8722DA     BB356715  44.776  86.848  40.195
 8722DA     SC156716  44.761  87.143  40.293
 8722DA     SC256717  44.782  87.268  40.508
 8722DA     SC356718  44.656  87.456  40.388
 8722DA     SC456719  44.681  87.248  40.201
 8723DT     BB156720  44.699  86.651  40.268
 8723DT     BB256721  44.761  86.704  40.619
 8723DT     BB356722  44.581  86.726  40.720
 8723DT     SC156723  44.549  86.969  40.625
 8723DT     SC256724  44.572  87.111  40.785
 8723DT     SC356725  44.445  87.172  40.492
 8724DA     BB156726  44.755  86.410  40.938
 8724DA     BB256727  44.638  86.655  41.184
 8724DA     BB356728  44.427  86.636  41.213
 8724DA     SC156729  44.355  86.843  40.991
 8724DA     SC256730  44.259  87.073  40.978
 8724DA     SC356731  44.205  87.014  40.734
 8724DA     SC456732  44.328  86.786  40.843
 8725DA     BB156733  44.468  86.587  41.544
 8725DA     BB256734  44.281  86.897  41.604
 8725DA     BB356735  44.071  86.857  41.604
 8725DA     SC156736  44.037  86.911  41.299
 8725DA     SC256737  43.932  87.083  41.152
 8725DA     SC356738  43.939  86.902  40.970
 8725DA     SC456739  44.050  86.785  41.200
 8726DT     BB156740  43.927  86.870  41.788
 8726DT     BB256741  43.777  87.184  41.693
 8726DT     BB356742  43.577  87.156  41.646
 8726DT     SC156743  43.639  87.045  41.416
 8726DT     SC256744  43.583  87.176  41.256
 8726DT     SC356745  43.661  86.863  41.227
 8727DC     BB156746  43.490  87.281  41.879
 8727DC     BB256747  43.344  87.475  41.612
 8727DC     BB356748  43.157  87.402  41.566
 8727DC     SC156749  43.260  87.194  41.442
 8727DC     SC256750  43.224  87.212  41.231
 8727DC     SC356751  43.320  86.944  41.385
 8728DT     BB156752  43.076  87.629  41.671
 8728DT     BB256753  42.955  87.631  41.331
 8728DT     BB356754  42.776  87.529  41.319
 8728DT     SC156755  42.898  87.297  41.340
 8728DT     SC256756  42.885  87.193  41.152
 8728DT     SC356757  42.971  87.063  41.436
 8729DC     BB156758  42.725  87.771  41.264
 8729DC     BB256759  42.618  87.577  40.979
 8729DC     BB356760  42.440  87.480  41.022
 8729DC     SC156761  42.564  87.305  41.174
 8729DC     SC256762  42.560  87.113  41.078
 8729DC     SC356763  42.636  87.169  41.388
 8730DA     BB156764  42.495  87.662  40.638
 8730DA     BB256765  42.326  87.338  40.600
 8730DA     BB356766  42.137  87.341  40.699
 8730DA     SC156767  42.249  87.237  40.970
 8730DA     SC256768  42.236  87.029  41.107
 8730DA     SC356769  42.310  87.179  41.302
 8730DA     SC456770  42.294  87.346  41.078
 8731DA     BB156771  42.081  87.217  40.394
 8731DA     BB256772  41.904  86.945  40.565
 8731DA     BB356773  41.732  87.021  40.666
 8731DA     SC156774  41.883  87.075  40.933
 8731DA     SC256775  41.888  86.981  41.164
 8731DA     SC356776  41.993  87.205  41.231
 8731DA     SC456777  41.946  87.221  40.955
 8732DT     BB156778  41.535  86.983  40.603
 8732DT     BB256779  41.419  86.785  40.881
 8732DT     BB356780  41.298  86.900  41.004
 8732DT     SC156781  41.504  87.029  41.101
 8732DT     SC256782  41.534  86.973  41.307
 8732DT     SC356783  41.668  87.227  41.158
 8733DG     BB156784  40.979  86.643  40.901
 8733DG     BB256785  40.981  86.688  41.260
 8733DG     BB356786  40.876  86.850  41.308
 8733DG     SC156787  41.114  87.041  41.290
 8733DG     SC256788  41.239  87.188  41.518
 8733DG     SC356789  41.349  87.281  41.260
 8733DG     SC456790  41.149  87.109  41.149
 8734DA     BB156791  40.604  86.731  41.545
 8734DA     BB256792  40.734  86.934  41.821
 8734DA     BB356793  40.642  87.127  41.821
 8734DA     SC156794  40.857  87.257  41.639
 8734DA     SC256795  41.040  87.426  41.660
 8734DA     SC356796  41.023  87.447  41.405
 8734DA     SC456797  40.831  87.257  41.480
 8735DA     BB156798  40.514  87.107  42.141
 8735DA     BB256799  40.739  87.379  42.239
 8735DA     BB356800  40.645  87.568  42.208
 8735DA     SC156801  40.751  87.600  41.917
 8735DA     SC256802  40.915  87.744  41.795
 8735DA     SC356803  40.787  87.675  41.584
 8735DA     SC456804  40.658  87.547  41.797
 8736DA     BB156805  40.705  87.629  42.526
 8736DA     BB256806  40.930  87.897  42.417
 8736DA     BB356807  40.819  88.074  42.375
 8736DA     SC156808  40.775  88.005  42.075
 8736DA     SC256809  40.852  88.089  41.853
 8736DA     SC356810  40.646  87.969  41.758
 8736DA     SC456811  40.640  87.926  42.036
 8737DA     BB156812  41.045  88.176  42.581
 8737DA     BB256813  41.166  88.389  42.308
 8737DA     BB356814  41.036  88.555  42.280
 8737DA     SC156815  40.855  88.411  42.072
 8737DA     SC256816  40.807  88.427  41.828
 8737DA     SC356817  40.590  88.300  41.884
 8737DA     SC456818  40.726  88.334  42.127
 8738DC     BB156819  41.131  88.698  42.315
 8738DC     BB256820  41.166  88.812  41.974
 8738DC     BB356821  41.022  88.955  41.933
 8738DC     SC156822  40.833  88.774  41.919
 8738DC     SC256823  40.768  88.755  41.715
 8738DC     SC356824  40.614  88.639  41.975
 8739DC     BB156825  41.237  89.100  41.925
 8739DC     BB256826  41.076  89.148  41.606
 8739DC     BB356827  40.920  89.283  41.625
 8739DC     SC156828  40.769  89.104  41.744
 8739DC     SC256829  40.608  89.048  41.613
 8739DC     SC356830  40.626  88.984  41.930
 8740DG     BB156831  41.179  89.407  41.335
 8740DG     BB256832  40.836  89.420  41.221
 8740DG     BB356833  40.743  89.575  41.304
 8740DG     SC156834  40.648  89.418  41.549
 8740DG     SC256835  40.364  89.352  41.616
 8740DG     SC356836  40.544  89.282  41.840
 8740DG     SC456837  40.743  89.410  41.678
 8741DG     BB156838  40.667  89.717  41.009
 8741DG     BB256839  40.319  89.696  41.103
 8741DG     BB356840  40.270  89.852  41.217
 8741DG     SC156841  40.343  89.715  41.480
 8741DG     SC256842  40.151  89.637  41.696
 8741DG     SC356843  40.431  89.602  41.786
 8741DG     SC456844  40.493  89.726  41.535
 8742DT     BB156845  40.114  90.051  41.173
 8742DT     BB256846  39.835  89.970  41.387
 8742DT     BB356847  39.830  90.099  41.549
 8742DT     SC156848  40.033  89.977  41.662
 8742DT     SC256849  39.965  89.873  41.838
 8742DT     SC356850  40.274  89.937  41.762
 8743DA     BB156851  39.438  90.191  41.408
 8743DA     BB256852  39.404  90.123  41.767
 8743DA     BB356853  39.459  90.295  41.880
 8743DA     SC156854  39.758  90.213  41.905
 8743DA     SC256855  39.914  90.135  42.083
 8743DA     SC356856  40.101  90.213  41.925
 8743DA     SC456857  39.860  90.268  41.793
 8744DT     BB156858  39.320  90.450  42.021
 8744DT     BB256859  39.429  90.312  42.336
 8744DT     BB356860  39.536  90.454  42.443
 8744DT     SC156861  39.745  90.424  42.287
 8744DT     SC256862  39.903  90.330  42.397
 8744DT     SC356863  39.934  90.482  42.112
 8745DA     BB156864  39.237  90.335  42.711
 8745DA     BB256865  39.559  90.300  42.883
 8745DA     BB356866  39.629  90.491  42.948
 8745DA     SC156867  39.789  90.548  42.687
 8745DA     SC256868  40.027  90.565  42.616
 8745DA     SC356869  39.937  90.696  42.415
 8745DA     SC456870  39.713  90.628  42.570
 8746DT     BB156871  39.643  90.518  43.144
 8746DT     BB256872  40.002  90.482  43.161
 8746DT     BB356873  40.091  90.666  43.189
 8746DT     SC156874  40.047  90.734  42.939
 8746DT     SC256875  40.234  90.742  42.834
 8746DT     SC356876  39.952  90.864  42.730
 8747DA     BB156877  40.231  90.373  43.454
 8747DA     BB256878  40.519  90.539  43.299
 8747DA     BB356879  40.536  90.740  43.371
 8747DA     SC156880  40.360  90.861  43.145
 8747DA     SC256881  40.390  91.007  42.945
 8747DA     SC356882  40.138  91.050  42.964
 8747DA     SC456883  40.202  90.877  43.174
 8748DT     BB156884  40.688  90.747  43.454
 8748DT     BB256885  40.865  90.944  43.208
 8748DT     BB356886  40.855  91.144  43.258
 8748DT     SC156887  40.605  91.159  43.181
 8748DT     SC256888  40.592  91.279  43.003
 8748DT     SC356889  40.343  91.193  43.192
 8749DC     BB156890  41.111  91.114  43.308
 8749DC     BB256891  41.093  91.383  43.069
 8749DC     BB356892  41.047  91.561  43.165
 8749DC     SC156893  40.796  91.488  43.196
 8749DC     SC256894  40.671  91.609  43.071
 8749DC     SC356895  40.570  91.420  43.314
 8750DT     BB156896  41.299  91.639  43.119
 8750DT     BB256897  41.095  91.900  42.977
 8750DT     BB356898  41.040  92.035  43.125
 8750DT     SC156899  40.865  91.868  43.225
 8750DT     SC256900  40.667  91.941  43.187
 8750DT     SC356901  40.746  91.706  43.395
 8751DC     BB156902  41.215  92.229  43.033
 8751DC     BB256903  40.896  92.396  43.038
 8751DC     BB356904  40.864  92.482  43.224
 8751DC     SC156905  40.813  92.248  43.332
 8751DC     SC256906  40.605  92.236  43.383
 8751DC     SC356907  40.837  92.036  43.486
 8752DA     BB156908  40.808  92.800  42.955
 8752DA     BB256909  40.521  92.798  43.185
 8752DA     BB356910  40.579  92.875  43.375
 8752DA     SC156911  40.658  92.598  43.491
 8752DA     SC256912  40.573  92.438  43.662
 8752DA     SC356913  40.810  92.340  43.660
 8752DA     SC456914  40.811  92.552  43.476
 8753DA     BB156915  40.327  93.084  43.330
 8753DA     BB256916  40.173  92.938  43.630
 8753DA     BB356917  40.266  93.015  43.806
 8753DA     SC156918  40.481  92.791  43.820
 8753DA     SC256919  40.534  92.596  43.966
 8753DA     SC356920  40.770  92.611  43.867
 8753DA     SC456921  40.622  92.818  43.748
 8754DA     BB156922  39.955  93.089  43.883
 8754DA     BB256923  39.994  92.867  44.172
 8754DA     BB356924  40.109  92.962  44.324
 8754DA     SC156925  40.382  92.855  44.220
 8754DA     SC256926  40.556  92.692  44.293
 8754DA     SC356927  40.712  92.818  44.132
 8754DA     SC456928  40.463  92.947  44.116
 8755DT     BB156929  40.019  93.008  44.500
 8755DT     BB256930  40.173  92.749  44.697
 8755DT     BB356931  40.320  92.830  44.819
 8755DT     SC156932  40.483  92.859  44.616
 8755DT     SC256933  40.647  92.721  44.636
 8755DT     SC356934  40.636  92.975  44.434
 8756DT     BB156935  40.163  92.796  45.041
 8756DT     BB256936  40.468  92.619  45.118
 8756DT     BB356937  40.605  92.748  45.203
 8756DT     SC156938  40.656  92.860  44.971
 8756DT     SC256939  40.854  92.807  44.908
 8756DT     SC356940  40.671  93.042  44.781
 8757DT     BB156941  40.572  92.639  45.454
 8757DT     BB256942  40.926  92.609  45.391
 8757DT     BB356943  41.024  92.781  45.453
 8757DT     SC156944  40.935  92.916  45.246
 8757DT     SC256945  41.099  92.959  45.113
 8757DT     SC356946  40.806  93.098  45.106
 8758DA     BB156947  41.229  92.471  45.649
 8758DA     BB256948  41.480  92.682  45.486
 8758DA     BB356949  41.507  92.863  45.596
 8758DA     SC156950  41.290  93.020  45.438
 8758DA     SC256951  41.281  93.207  45.274
 8758DA     SC356952  41.036  93.231  45.346
 8758DA     SC456953  41.141  93.020  45.498
 8759DT     BB156954  41.692  92.911  45.700
 8759DT     BB256955  41.809  93.152  45.459
 8759DT     BB356956  41.798  93.343  45.539
 8759DT     SC156957  41.537  93.348  45.510
 8759DT     SC256958  41.485  93.489  45.356
 8759DT     SC356959  41.280  93.358  45.571
 8760DA     BB156960  42.189  93.293  45.399
 8760DA     BB256961  42.057  93.605  45.257
 8760DA     BB356962  42.052  93.758  45.406
 8760DA     SC156963  41.762  93.692  45.499
 8760DA     SC256964  41.536  93.796  45.487
 8760DA     SC356965  41.477  93.641  45.683
 8760DA     SC456966  41.745  93.588  45.621
 8761DA     BB156967  42.214  93.893  45.162
 8761DA     BB256968  41.940  94.136  45.146
 8761DA     BB356969  41.951  94.272  45.310
 8761DA     SC156970  41.772  94.099  45.497
 8761DA     SC256971  41.544  94.112  45.597
 8761DA     SC356972  41.632  93.940  45.767
 8761DA     SC456973  41.846  93.994  45.594
 8762DA     BB156974  41.921  94.437  45.031
 8762DA     BB256975  41.613  94.570  45.180
 8762DA     BB356976  41.659  94.696  45.345
 8762DA     SC156977  41.647  94.467  45.555
 8762DA     SC256978  41.499  94.396  45.743
 8762DA     SC356979  41.701  94.261  45.824
 8762DA     SC456980  41.784  94.391  45.590
 8763DA     BB156981  41.453  94.855  45.147
 8763DA     BB256982  41.233  94.876  45.439
 8763DA     BB356983  41.318  95.003  45.588
 8763DA     SC156984  41.469  94.772  45.732
 8763DA     SC256985  41.454  94.649  45.949
 8763DA     SC356986  41.697  94.582  45.904
 8763DA     SC456987  41.620  94.742  45.687
 8764DC     BB156988  41.214  95.148  45.612
 8764DC     BB256989  41.086  95.063  45.938
 8764DC     BB356990  41.197  95.157  46.084
 8764DC     SC156991  41.397  94.991  46.051
 8764DC     SC256992  41.414  94.864  46.224
 8764DC     SC356993  41.638  94.901  45.993
 8765DT     BB156994  40.988  95.320  46.128
 8765DT     BB256995  41.061  95.177  46.451
 8765DT     BB356996  41.210  95.285  46.544
 8765DT     SC156997  41.394  95.182  46.388
 8765DT     SC256998  41.519  95.050  46.502
 8765DT     SC356999  41.584  95.165  46.206
 8766DT     BB157000  41.035  95.403  46.723
 8766DT     BB257001  41.285  95.251  46.934
 8766DT     BB357002  41.441  95.384  46.965
 8766DT     SC157003  41.533  95.345  46.723
 8766DT     SC257004  41.719  95.238  46.733
 8766DT     SC357005  41.604  95.395  46.473
 8767DC     BB157006  41.370  95.443  47.230
 8767DC     BB257007  41.712  95.329  47.255
 8767DC     BB357008  41.841  95.489  47.236
 8767DC     SC157009  41.799  95.502  46.978
 8767DC     SC257010  41.977  95.441  46.873
 8767DC     SC357011  41.724  95.596  46.743
 8768DA     BB157012  41.955  95.304  47.595
 8768DA     BB257013  42.258  95.349  47.394
 8768DA     BB357014  42.320  95.553  47.398
 8768DA     SC157015  42.155  95.634  47.147
 8768DA     SC257016  42.200  95.702  46.911
 8768DA     SC357017  41.963  95.801  46.916
 8768DA     SC457018  42.007  95.691  47.171
 8769DA     BB157019  42.598  95.411  47.494
 8769DA     BB257020  42.750  95.551  47.190
 8769DA     BB357021  42.785  95.759  47.214
 8769DA     SC157022  42.508  95.845  47.101
 8769DA     SC257023  42.419  95.958  46.897
 8769DA     SC357024  42.210  96.004  47.040
 8769DA     SC457025  42.388  95.865  47.206
 8770DT     BB157026  42.970  95.808  47.212
 8770DT     BB257027  42.972  95.953  46.881
 8770DT     BB357028  42.969  96.160  46.895
 8770DT     SC157029  42.715  96.159  46.961
 8770DT     SC257030  42.599  96.242  46.800
 8770DT     SC357031  42.495  96.194  47.104
 8771DA     BB157032  43.270  96.029  46.635
 8771DA     BB257033  43.081  96.295  46.468
 8771DA     BB357034  43.121  96.483  46.560
 8771DA     SC157035  42.887  96.461  46.764
 8771DA     SC257036  42.666  96.570  46.805
 8771DA     SC357037  42.688  96.478  47.044
 8771DA     SC457038  42.920  96.397  46.908
 8772DA     BB157039  43.176  96.542  46.243
 8772DA     BB257040  42.916  96.799  46.269
 8772DA     BB357041  42.986  96.965  46.383
 8772DA     SC157042  42.885  96.852  46.655
 8772DA     SC257043  42.708  96.905  46.823
 8772DA     SC357044  42.850  96.766  46.985
 8772DA     SC457045  42.988  96.763  46.741
 8773DT     BB157046  43.009  97.136  46.288
 8773DT     BB257047  42.728  97.309  46.433
 8773DT     BB357048  42.794  97.441  46.579
 8773DT     SC157049  42.840  97.245  46.747
 8773DT     SC257050  42.698  97.255  46.908
 8773DT     SC357051  42.971  97.080  46.906
 8774DT     BB157052  42.747  97.661  46.418
 8774DT     BB257053  42.561  97.731  46.720
 8774DT     BB357054  42.682  97.829  46.856
 8774DT     SC157055  42.811  97.608  46.913
 8774DT     SC257056  42.761  97.545  47.113
 8774DT     SC357057  43.008  97.434  46.934
 8775DA     BB157058  42.346  98.080  46.823
 8775DA     BB257059  42.410  98.031  47.180
 8775DA     BB357060  42.578  98.147  47.242
 8775DA     SC157061  42.786  97.922  47.186
 8775DA     SC257062  42.934  97.771  47.318
 8775DA     SC357063  43.067  97.744  47.100
 8775DA     SC457064  42.856  97.919  47.042
 8776DT     BB157065  42.562  98.317  47.378
 8776DT     BB257066  42.701  98.152  47.667
 8776DT     BB357067  42.890  98.228  47.708
 8776DT     SC157068  42.995  98.098  47.506
 8776DT     SC257069  43.122  97.941  47.580
 8776DT     SC357070  43.115  98.053  47.276
 8777DA     BB157071  42.676  98.259  48.067
 8777DA     BB257072  42.995  98.096  48.143
 8777DA     BB357073  43.154  98.239  48.142
 8777DA     SC157074  43.219  98.201  47.840
 8777DA     SC257075  43.403  98.105  47.702
 8777DA     SC357076  43.308  98.248  47.512
 8777DA     SC457077  43.146  98.298  47.735
 8778DT     BB157078  43.248  98.278  48.316
 8778DT     BB257079  43.551  98.097  48.241
 8778DT     BB357080  43.704  98.230  48.198
 8778DT     SC157081  43.602  98.283  47.962
 8778DT     SC257082  43.730  98.201  47.809
 8778DT     SC357083  43.493  98.417  47.763
 8779DA     BB157084  43.838  97.958  48.487
 8779DA     BB257085  44.091  97.976  48.222
 8779DA     BB357086  44.196  98.162  48.232
 8779DA     SC157087  44.002  98.311  48.040
 8779DA     SC257088  44.006  98.404  47.809
 8779DA     SC357089  43.805  98.545  47.884
 8779DA     SC457090  43.878  98.390  48.106
 8780DA     BB157091  44.440  97.944  48.231
 8780DA     BB257092  44.556  98.109  47.924
 8780DA     BB357093  44.640  98.300  47.969
 8780DA     SC157094  44.371  98.453  47.936
 8780DA     SC257095  44.270  98.616  47.776
 8780DA     SC357096  44.108  98.672  47.967
 8780DA     SC457097  44.281  98.474  48.067
 8781DT     BB157098  44.835  98.323  47.938
 8781DT     BB257099  44.811  98.534  47.646
 8781DT     BB357100  44.851  98.730  47.697
 8781DT     SC157101  44.617  98.757  47.812
 8781DT     SC257102  44.495  98.890  47.695
 8781DT     SC357103  44.435  98.795  48.000
 8782DA     BB157104  45.102  98.640  47.373
 8782DA     BB257105  44.941  98.961  47.303
 8782DA     BB357106  45.025  99.115  47.424
 8782DA     SC157107  44.821  99.077  47.656
 8782DA     SC257108  44.630  99.203  47.757
 8782DA     SC357109  44.668  99.055  47.963
 8782DA     SC457110  44.861  98.976  47.775
 8783DT     BB157111  45.139  99.270  47.340
 8783DT     BB257112  44.892  99.531  47.378
 8783DT     BB357113  44.947  99.659  47.531
 8783DT     SC157114  44.880  99.483  47.713
 8783DT     SC257115  44.705  99.552  47.818
 8783DT     SC357116  44.901  99.312  47.913
 8784DT     BB157117  45.021  99.865  47.358
 8784DT     BB257118  44.776 100.018  47.575
 8784DT     BB357119  44.870 100.099  47.741
 8784DT     SC157120  44.907  99.862  47.846
 8784DT     SC257121  44.782  99.840  48.019
 8784DT     SC357122  45.031  99.649  47.940
 8785DT     BB157123  44.837 100.362  47.654
 8785DT     BB257124  44.680 100.357  47.978
 8785DT     BB357125  44.819 100.405  48.125
 8785DT     SC157126  44.930 100.168  48.106
 8785DT     SC257127  44.890 100.055  48.285
 8785DT     SC357128  45.112  99.982  48.061
 8786DC     BB157129  44.709 100.654  48.164
 8786DC     BB257130  44.697 100.499  48.490
 8786DC     BB357131  44.873 100.536  48.592
 8786DC     SC157132  45.004 100.363  48.445
 8786DC     SC257133  45.057 100.192  48.566
 8786DC     SC357134  45.180 100.264  48.275
 8787DA     BB157135  44.559 100.650  48.845
 8787DA     BB257136  44.786 100.435  49.037
 8787DA     BB357137  44.964 100.541  49.087
 8787DA     SC157138  45.117 100.453  48.831
 8787DA     SC257139  45.309 100.305  48.772
 8787DA     SC357140  45.321 100.440  48.554
 8787DA     SC457141  45.109 100.550  48.702
 8788DT     BB157142  45.000 100.582  49.282
 8788DT     BB257143  45.261 100.337  49.329
 8788DT     BB357144  45.445 100.432  49.337
 8788DT     SC157145  45.445 100.472  49.078
 8788DT     SC257146  45.594 100.348  48.986
 8788DT     SC357147  45.443 100.598  48.846
 8789DC     BB157148  45.457 100.380  49.603
 8789DC     BB257149  45.756 100.229  49.468
 8789DC     BB357150  45.908 100.369  49.458
 8789DC     SC157151  45.797 100.486  49.250
 8789DC     SC257152  45.919 100.451  49.076
 8789DC     SC357153  45.682 100.670  49.101
 8790DG     BB157154  46.045 100.063  49.689
 8790DG     BB257155  46.277 100.141  49.422
 8790DG     BB357156  46.382 100.303  49.469
 8790DG     SC157157  46.183 100.499  49.344
 8790DG     SC257158  46.233 100.670  49.104
 8790DG     SC357159  45.978 100.743  49.234
 8790DG     SC457160  46.063 100.555  49.433
 8791DA     BB157161  46.667 100.117  49.399
 8791DA     BB257162  46.764 100.358  49.141
 8791DA     BB357163  46.845 100.534  49.230
 8791DA     SC157164  46.572 100.681  49.248
 8791DA     SC257165  46.460 100.876  49.140
 8791DA     SC357166  46.306 100.875  49.346
 8791DA     SC457167  46.488 100.665  49.384
 8792DG     BB157168  47.092 100.452  49.061
 8792DG     BB257169  47.023 100.765  48.894
 8792DG     BB357170  47.095 100.916  49.001
 8792DG     SC157171  46.839 100.955  49.164
 8792DG     SC257172  46.658 101.193  49.152
 8792DG     SC357173  46.582 101.013  49.374
 8792DG     SC457174  46.820 100.872  49.299
 8793DT     BB157175  47.252 101.046  48.919
 8793DT     BB257176  47.068 101.347  48.845
 8793DT     BB357177  47.104 101.490  48.990
 8793DT     SC157178  46.951 101.365  49.163
 8793DT     SC257179  46.773 101.481  49.198
 8793DT     SC357180  46.877 101.233  49.378
 8794DG     BB157181  47.216 101.659  48.635
 8794DG     BB257182  46.988 101.874  48.817
 8794DG     BB357183  47.086 101.968  48.962
 8794DG     SC157184  47.035 101.750  49.171
 8794DG     SC257185  46.866 101.777  49.416
 8794DG     SC357186  47.016 101.522  49.419
 8794DG     SC457187  47.139 101.629  49.184
 8795DT     BB157188  47.114 102.197  48.973
 8795DT     BB257189  46.881 102.285  49.234
 8795DT     BB357190  46.984 102.330  49.408
 8795DT     SC157191  47.035 102.076  49.453
 8795DT     SC257192  46.923 102.010  49.624
 8795DT     SC357193  47.171 101.853  49.486
 8796DT     BB157194  46.941 102.605  49.389
 8796DT     BB257195  46.806 102.518  49.712
 8796DT     BB357196  46.954 102.532  49.857
 8796DT     SC157197  47.067 102.310  49.774
 8796DT     SC257198  47.040 102.157  49.923
 8796DT     SC357199  47.248 102.146  49.674
 8797DA     BB157200  46.643 102.771  50.006
 8797DA     BB257201  46.742 102.540  50.273
 8797DA     BB357202  46.926 102.604  50.361
 8797DA     SC157203  47.105 102.439  50.168
 8797DA     SC257204  47.253 102.238  50.180
 8797DA     SC357205  47.357 102.328  49.963
 8797DA     SC457206  47.157 102.511  50.035
 8798DA     BB157207  46.747 102.588  50.635
 8798DA     BB257208  46.976 102.324  50.745
 8798DA     BB357209  47.160 102.409  50.813
 8798DA     SC157210  47.297 102.396  50.534
 8798DA     SC257211  47.481 102.267  50.425
 8798DA     SC357212  47.486 102.459  50.255
 8798DA     SC457213  47.286 102.525  50.440
 8799DT     BB157214  47.198 102.383  51.002
 8799DT     BB257215  47.444 102.124  50.956
 8799DT     BB357216  47.634 102.201  50.984
 8799DT     SC157217  47.628 102.323  50.752
 8799DT     SC257218  47.767 102.228  50.618
 8799DT     SC357219  47.627 102.517  50.573
 8800DA     BB157220  47.559 101.843  51.189
 8800DA     BB257221  47.874 101.811  51.004
 8800DA     BB357222  48.024 101.937  51.089
 8800DA     SC157223  47.956 102.181  50.909
 8800DA     SC257224  48.062 102.306  50.721
 8800DA     SC357225  47.902 102.496  50.785
 8800DA     SC457226  47.850 102.288  50.965
 8801DA     BB157227  48.132 101.632  51.043
 8801DA     BB257228  48.390 101.790  50.835
 8801DA     BB357229  48.516 101.913  50.955
 8801DA     SC157230  48.344 102.169  50.916
 8801DA     SC257231  48.364 102.389  50.799
 8801DA     SC357232  48.180 102.468  50.960
 8801DA     SC457233  48.230 102.200  51.026
 8802DA     BB157234  48.692 101.713  50.760
 8802DA     BB257235  48.845 102.023  50.638
 8802DA     BB357236  48.952 102.120  50.794
 8802DA     SC157237  48.710 102.291  50.888
 8802DA     SC257238  48.641 102.531  50.886
 8802DA     SC357239  48.479 102.465  51.073
 8802DA     SC457240  48.617 102.230  51.004
 8803DT     BB157241  49.124 102.122  50.752
 8803DT     BB257242  49.157 102.476  50.691
 8803DT     BB357243  49.224 102.571  50.862
 8803DT     SC157244  48.989 102.550  50.976
 8803DT     SC257245  48.899 102.744  50.992
 8803DT     SC357246  48.802 102.477  51.148
 8804DT     BB157247  49.459 102.605  50.738
 8804DT     BB257248  49.364 102.937  50.844
 8804DT     BB357249  49.420 102.967  51.041
 8804DT     SC157250  49.224 102.816  51.128
 8804DT     SC257251  49.078 102.939  51.227
 8804DT     SC357252  49.097 102.616  51.244
 8805DT     BB157253  49.628 103.132  50.970
 8805DT     BB257254  49.438 103.329  51.205
 8805DT     BB357255  49.502 103.289  51.398
 8805DT     SC157256  49.380 103.057  51.399
 8805DT     SC257257  49.213 103.064  51.534
 8805DT     SC357258  49.344 102.795  51.408
 8806DC     BB157259  49.644 103.531  51.433
 8806DC     BB257260  49.418 103.525  51.714
 8806DC     BB357261  49.508 103.431  51.876
 8806DC     SC157262  49.477 103.195  51.766
 8806DC     SC257263  49.330 103.083  51.877
 8806DC     SC357264  49.536 102.962  51.658
 8807DA     BB157265  49.398 103.801  52.045
 8807DA     BB257266  49.280 103.539  52.274
 8807DA     BB357267  49.443 103.462  52.388
 8807DA     SC157268  49.511 103.237  52.184
 8807DA     SC257269  49.497 102.988  52.172
 8807DA     SC357270  49.672 103.007  51.985
 8807DA     SC457271  49.621 103.270  52.071
 8808DA     BB157272  49.271 103.538  52.664
 8808DA     BB257273  49.264 103.180  52.742
 8808DA     BB357274  49.448 103.120  52.832
 8808DA     SC157275  49.584 103.046  52.562
 8808DA     SC257276  49.659 102.840  52.443
 8808DA     SC357277  49.808 102.998  52.306
 8808DA     SC457278  49.670 103.160  52.489
 8809DT     BB157279  49.464 103.054  53.040
 8809DT     BB257280  49.496 102.702  52.965
 8809DT     BB357281  49.689 102.639  53.004
 8809DT     SC157282  49.781 102.757  52.789
 8809DT     SC257283  49.840 102.608  52.645
 8809DT     SC357284  49.918 102.923  52.636
 8810DG     BB157285  49.449 102.407  53.240
 8810DG     BB257286  49.664 102.204  53.031
 8810DG     BB357287  49.846 102.193  53.111
 8810DG     SC157288  49.952 102.441  52.967
 8810DG     SC257289  50.164 102.444  52.756
 8810DG     SC357290  50.094 102.719  52.840
 8810DG     SC457291  49.933 102.585  53.035
 8811DT     BB157292  49.929 101.998  53.175
 8811DT     BB257293  50.162 101.934  52.906
 8811DT     BB357294  50.355 101.968  52.971
 8811DT     SC157295  50.322 102.228  52.963
 8811DT     SC257296  50.439 102.310  52.803
 8811DT     SC357297  50.302 102.478  53.045
 8812DA     BB157298  50.311 101.599  52.774
 8812DA     BB257299  50.595 101.778  52.627
 8812DA     BB357300  50.756 101.788  52.766
 8812DA     SC157301  50.665 102.058  52.890
 8812DA     SC257302  50.743 102.295  52.894
 8812DA     SC357303  50.596 102.319  53.103
 8812DA     SC457304  50.569 102.052  53.019
 8813DA     BB157305  50.878 101.672  52.487
 8813DA     BB257306  51.095 101.967  52.492
 8813DA     BB357307  51.237 101.953  52.651
 8813DA     SC157308  51.055 102.096  52.859
 8813DA     SC257309  51.051 102.314  52.981
 8813DA     SC357310  50.894 102.195  53.145
 8813DA     SC457311  50.960 102.005  52.951
 8814DA     BB157312  51.406 102.021  52.380
 8814DA     BB257313  51.515 102.322  52.558
 8814DA     BB357314  51.643 102.270  52.720
 8814DA     SC157315  51.412 102.245  52.927
 8814DA     SC257316  51.330 102.368  53.128
 8814DA     SC357317  51.209 102.150  53.188
 8814DA     SC457318  51.346 102.100  52.948
 8815DT     BB157319  51.808 102.337  52.692
 8815DT     BB257320  51.793 102.598  52.941
 8815DT     BB357321  51.883 102.535  53.116
 8815DT     SC157322  51.679 102.381  53.175
 8815DT     SC257323  51.576 102.462  53.345
 8815DT     SC357324  51.539 102.163  53.225
 8816DA     BB157325  52.027 102.913  53.000
 8816DA     BB257326  51.938 102.925  53.356
 8816DA     BB357327  52.075 102.807  53.470
 8816DA     SC157328  51.906 102.546  53.449
 8816DA     SC257329  51.769 102.402  53.599
 8816DA     SC357330  51.803 102.220  53.422
 8816DA     SC457331  51.939 102.446  53.327
 8817DT     BB157332  52.172 102.911  53.586
 8817DT     BB257333  52.008 102.805  53.890
 8817DT     BB357334  52.120 102.658  53.983
 8817DT     SC157335  52.046 102.479  53.807
 8817DT     SC257336  51.915 102.336  53.901
 8817DT     SC357337  52.060 102.300  53.614
 8818DT     BB157338  52.170 102.843  54.164
 8818DT     BB257339  52.024 102.568  54.347
 8818DT     BB357340  52.168 102.425  54.386
 8818DT     SC157341  52.165 102.343  54.136
 8818DT     SC257342  52.077 102.146  54.127
 8818DT     SC357343  52.247 102.290  53.891
 8819DT     BB157344  52.153 102.502  54.639
 8819DT     BB257345  52.085 102.148  54.644
 8819DT     BB357346  52.263 102.041  54.643
 8819DT     SC157347  52.300 102.094  54.388
 8819DT     SC257348  52.277 101.913  54.274
 8819DT     SC357349  52.410 102.188  54.168
 8820DG     BB157350  52.055 101.927  54.975
 8820DG     BB257351  52.161 101.642  54.780
 8820DG     BB357352  52.355 101.609  54.808
 8820DG     SC157353  52.444 101.791  54.578
 8820DG     SC257354  52.577 101.702  54.326
 8820DG     SC357355  52.577 101.997  54.347
 8820DG     SC457356  52.469 101.946  54.607
 8821DA     BB157357  52.284 101.275  54.889
 8821DA     BB257358  52.496 101.160  54.613
 8821DA     BB357359  52.702 101.176  54.666
 8821DA     SC157360  52.733 101.465  54.554
 8821DA     SC257361  52.848 101.577  54.363
 8821DA     SC357362  52.823 101.792  54.501
 8821DA     SC457363  52.709 101.587  54.655
 8822DG     BB157364  52.740 100.860  54.638
 8822DG     BB257365  52.961 100.951  54.367
 8822DG     BB357366  53.144 100.984  54.436
 8822DG     SC157367  53.097 101.282  54.488
 8822DG     SC257368  53.229 101.508  54.344
 8822DG     SC357369  53.074 101.607  54.576
 8822DG     SC457370  53.038 101.328  54.630
 8823DC     BB157371  53.350 100.857  54.388
 8823DC     BB257372  53.513 101.083  54.160
 8823DC     BB357373  53.678 101.169  54.250
 8823DC     SC157374  53.527 101.326  54.396
 8823DC     SC257375  53.550 101.529  54.330
 8823DC     SC357376  53.415 101.434  54.609
 8824DT     BB157377  53.861 101.019  54.101
 8824DT     BB257378  53.947 101.362  54.029
 8824DT     BB357379  54.087 101.430  54.165
 8824DT     SC157380  53.906 101.450  54.354
 8824DT     SC257381  53.872 101.657  54.399
 8824DT     SC357382  53.778 101.406  54.581
 8825DG     BB157383  54.244 101.474  53.792
 8825DG     BB257384  54.250 101.785  53.976
 8825DG     BB357385  54.402 101.785  54.105
 8825DG     SC157386  54.240 101.661  54.334
 8825DG     SC257387  54.166 101.797  54.589
 8825DG     SC357388  54.099 101.509  54.599
 8825DG     SC457389  54.233 101.502  54.346
 8826DA     BB157390  54.459 102.087  53.954
 8826DA     BB257391  54.427 102.251  54.280
 8826DA     BB357392  54.598 102.211  54.401
 8826DA     SC157393  54.477 101.956  54.531
 8826DA     SC257394  54.394 101.884  54.755
 8826DA     SC357395  54.431 101.645  54.670
 8826DA     SC457396  54.508 101.814  54.460
 8827DA     BB157397  54.560 102.535  54.406
 8827DA     BB257398  54.529 102.500  54.769
 8827DA     BB357399  54.717 102.446  54.855
 8827DA     SC157400  54.667 102.140  54.833
 8827DA     SC257401  54.625 101.948  54.987
 8827DA     SC357402  54.702 101.801  54.792
 8827DA     SC457403  54.720 102.065  54.701
 8828DA     BB157404  54.619 102.705  55.030
 8828DA     BB257405  54.641 102.485  55.323
 8828DA     BB357406  54.845 102.440  55.366
 8828DA     SC157407  54.852 102.185  55.189
 8828DA     SC257408  54.866 101.938  55.221
 8828DA     SC357409  54.945 101.931  54.976
 8828DA     SC457410  54.900 102.202  55.036
 8829DT     BB157411  54.913 102.510  55.534
 8829DT     BB257412  54.935 102.198  55.713
 8829DT     BB357413  55.131 102.131  55.716
 8829DT     SC157414  55.118 102.058  55.464
 8829DT     SC257415  55.123 101.843  55.452
 8829DT     SC357416  55.169 102.049  55.206
 8830DG     BB157417  55.034 102.168  56.112
 8830DG     BB257418  55.178 101.843  56.045
 8830DG     BB357419  55.376 101.858  56.034
 8830DG     SC157420  55.380 101.914  55.734
 8830DG     SC257421  55.491 101.734  55.523
 8830DG     SC357422  55.421 101.998  55.409
 8830DG     SC457423  55.370 102.066  55.683
 8831DA     BB157424  55.427 101.605  56.278
 8831DA     BB257425  55.613 101.400  56.036
 8831DA     BB357426  55.814 101.469  56.020
 8831DA     SC157427  55.754 101.667  55.788
 8831DA     SC257428  55.804 101.687  55.544
 8831DA     SC357429  55.750 101.936  55.574
 8831DA     SC457430  55.717 101.819  55.827
 8832DG     BB157431  55.903 101.185  56.121
 8832DG     BB257432  56.044 101.159  55.789
 8832DG     BB357433  56.224 101.245  55.785
 8832DG     SC157434  56.118 101.522  55.711
 8832DG     SC257435  56.165 101.665  55.453
 8832DG     SC357436  56.035 101.843  55.650
 8832DG     SC457437  56.076 101.623  55.828
 8833DG     BB157438  56.354 100.958  55.687
 8833DG     BB257439  56.441 101.131  55.381
 8833DG     BB357440  56.611 101.230  55.406
 8833DG     SC157441  56.477 101.487  55.504
 8833DG     SC257442  56.472 101.749  55.360
 8833DG     SC357443  56.364 101.777  55.634
 8833DG     SC457444  56.447 101.504  55.660
 8834DA     BB157445  56.709 101.068  55.116
 8834DA     BB257446  56.757 101.392  54.953
 8834DA     BB357447  56.935 101.486  55.024
 8834DA     SC157448  56.791 101.637  55.255
 8834DA     SC257449  56.731 101.872  55.313
 8834DA     SC357450  56.711 101.787  55.554
 8834DA     SC457451  56.785 101.565  55.399
 8835DA     BB157452  56.984 101.496  54.700
 8835DA     BB257453  56.992 101.861  54.735
 8835DA     BB357454  57.174 101.922  54.829
 8835DA     SC157455  57.058 101.909  55.117
 8835DA     SC257456  56.995 102.068  55.299
 8835DA     SC357457  57.013 101.866  55.455
 8835DA     SC457458  57.075 101.771  55.199
 8836DA     BB157459  57.188 102.111  54.560
 8836DA     BB257460  57.183 102.399  54.787
 8836DA     BB357461  57.372 102.420  54.884
 8836DA     SC157462  57.295 102.242  55.127
 8836DA     SC257463  57.249 102.271  55.371
 8836DA     SC357464  57.297 102.020  55.389
 8836DA     SC457465  57.330 102.085  55.119
 8837DG     BB157466  57.389 102.702  54.747
 8837DG     BB257467  57.374 102.820  55.089
 8837DG     BB357468  57.555 102.816  55.170
 8837DG     SC157469  57.529 102.529  55.275
 8837DG     SC257470  57.517 102.448  55.562
 8837DG     SC357471  57.541 102.211  55.386
 8837DG     SC457472  57.571 102.407  55.180
 8838DA     BB157473  57.524 103.153  55.260
 8838DA     BB257474  57.552 103.062  55.614
 8838DA     BB357475  57.756 103.029  55.667
 8838DA     SC157476  57.749 102.725  55.601
 8838DA     SC257477  57.758 102.509  55.726
 8838DA     SC357478  57.826 102.405  55.501
 8838DA     SC457479  57.792 102.679  55.453
 8839DT     BB157480  57.855 103.156  55.802
 8839DT     BB257481  57.838 102.929  56.082
 8839DT     BB357482  58.026 102.851  56.121
 8839DT     SC157483  58.013 102.693  55.911
 8839DT     SC257484  57.995 102.489  55.977
 8839DT     SC357485  58.070 102.587  55.677
 8840DA     BB157486  57.847 103.004  56.466
 8840DA     BB257487  57.951 102.658  56.531
 8840DA     BB357488  58.164 102.646  56.544
 8840DA     SC157489  58.204 102.590  56.241
 8840DA     SC257490  58.276 102.399  56.097
 8840DA     SC357491  58.324 102.578  55.919
 8840DA     SC457492  58.229 102.716  56.144
 8841DT     BB157493  58.179 102.592  56.698
 8841DT     BB257494  58.264 102.252  56.610
 8841DT     BB357495  58.470 102.232  56.597
 8841DT     SC157496  58.475 102.359  56.367
 8841DT     SC257497  58.525 102.221  56.210
 8841DT     SC357498  58.529 102.544  56.187
 8842DT     BB157499  58.391 102.087  56.790
 8842DT     BB257500  58.556 101.867  56.556
 8842DT     BB357501  58.761 101.896  56.565
 8842DT     SC157502  58.743 102.123  56.435
 8842DT     SC257503  58.829 102.100  56.239
 8842DT     SC357504  58.757 102.381  56.384
 8843DA     BB157505  58.627 101.494  56.561
 8843DA     BB257506  58.908 101.530  56.328
 8843DA     BB357507  59.087 101.576  56.434
 8843DA     SC157508  59.048 101.884  56.417
 8843DA     SC257509  59.154 102.077  56.301
 8843DA     SC357510  59.042 102.221  56.481
 8843DA     SC457511  58.971 101.956  56.539
 8844DA     BB157512  59.170 101.322  56.244
 8844DA     BB257513  59.434 101.539  56.110
 8844DA     BB357514  59.584 101.573  56.259
 8844DA     SC157515  59.447 101.829  56.372
 8844DA     SC257516  59.490 102.075  56.376
 8844DA     SC357517  59.329 102.079  56.575
 8844DA     SC457518  59.346 101.811  56.495
 8845DT     BB157519  59.766 101.497  56.228
 8845DT     BB257520  59.939 101.807  56.162
 8845DT     BB357521  60.049 101.863  56.328
 8845DT     SC157522  59.832 101.939  56.455
 8845DT     SC257523  59.832 102.153  56.474
 8845DT     SC357524  59.642 101.948  56.638
 8846DA     BB157525  60.331 101.865  56.017
 8846DA     BB257526  60.371 102.179  56.202
 8846DA     BB357527  60.472 102.144  56.387
 8846DA     SC157528  60.210 102.097  56.548
 8846DA     SC257529  60.079 102.213  56.725
 8846DA     SC357530  59.973 101.984  56.769
 8846DA     SC457531  60.157 101.945  56.561
 8847DT     BB157532  60.671 102.217  56.428
 8847DT     BB257533  60.575 102.479  56.656
 8847DT     BB357534  60.629 102.428  56.849
 8847DT     SC157535  60.432 102.256  56.867
 8847DT     SC257536  60.286 102.329  57.006
 8847DT     SC357537  60.305 102.026  56.892
 8848DA     BB157538  60.796 102.808  56.786
 8848DA     BB257539  60.619 102.817  57.107
 8848DA     BB357540  60.731 102.714  57.257
 8848DA     SC157541  60.595 102.440  57.204
 8848DA     SC257542  60.437 102.286  57.321
 8848DA     SC357543  60.529 102.105  57.165
 8848DA     SC457544  60.666 102.341  57.099
 8849DT     BB157545  60.811 102.820  57.414
 8849DT     BB257546  60.581 102.707  57.667
 8849DT     BB357547  60.674 102.571  57.792
 8849DT     SC157548  60.662 102.383  57.609
 8849DT     SC257549  60.522 102.232  57.670
 8849DT     SC357550  60.740 102.203  57.432
 8850DG     BB157551  60.548 102.872  58.037
 8850DG     BB257552  60.440 102.550  58.161
 8850DG     BB357553  60.590 102.460  58.255
 8850DG     SC157554  60.695 102.319  58.005
 8850DG     SC257555  60.693 102.025  57.955
 8850DG     SC357556  60.849 102.166  57.747
 8850DG     SC457557  60.802 102.394  57.912
 8851DA     BB157558  60.388 102.414  58.540
 8851DA     BB257559  60.432 102.050  58.519
 8851DA     BB357560  60.622 101.994  58.598
 8851DA     SC157561  60.769 102.015  58.324
 8851DA     SC257562  60.873 101.860  58.158
 8851DA     SC357563  60.999 102.068  58.075
 8851DA     SC457564  60.838 102.155  58.288
 8852DG     BB157565  60.476 101.822  58.821
 8852DG     BB257566  60.637 101.544  58.655
 8852DG     BB357567  60.821 101.519  58.727
 8852DG     SC157568  60.952 101.707  58.524
 8852DG     SC257569  61.143 101.626  58.309
 8852DG     SC357570  61.125 101.921  58.330
 8852DG     SC457571  60.962 101.863  58.558
 8853DT     BB157572  60.908 101.327  58.853
 8853DT     BB257573  61.105 101.167  58.597
 8853DT     BB357574  61.307 101.189  58.639
 8853DT     SC157575  61.303 101.441  58.566
 8853DT     SC257576  61.414 101.464  58.383
 8853DT     SC357577  61.320 101.703  58.580
 8854DG     BB157578  61.251 100.784  58.628
 8854DG     BB257579  61.516 100.885  58.404
 8854DG     BB357580  61.685 100.911  58.505
 8854DG     SC157581  61.633 101.207  58.565
 8854DG     SC257582  61.790 101.437  58.458
 8854DG     SC357583  61.598 101.527  58.665
 8854DG     SC457584  61.551 101.246  58.696
 8855DT     BB157585  61.864 100.786  58.463
 8855DT     BB257586  62.066 101.020  58.277
 8855DT     BB357587  62.221 101.089  58.396
 8855DT     SC157588  62.058 101.243  58.533
 8855DT     SC257589  62.100 101.449  58.488
 8855DT     SC357590  61.922 101.341  58.737
 8856DT     BB157591  62.374 100.948  58.235
 8856DT     BB257592  62.496 101.287  58.209
 8856DT     BB357593  62.626 101.327  58.365
 8856DT     SC157594  62.429 101.344  58.537
 8856DT     SC257595  62.407 101.549  58.600
 8856DT     SC357596  62.274 101.290  58.743
 8857DT     BB157597  62.796 101.331  58.168
 8857DT     BB257598  62.823 101.654  58.327
 8857DT     BB357599  62.941 101.639  58.496
 8857DT     SC157600  62.749 101.521  58.629
 8857DT     SC257601  62.675 101.654  58.782
 8857DT     SC357602  62.617 101.335  58.763
 8858DT     BB157603  63.102 101.781  58.349
 8858DT     BB257604  63.056 101.972  58.651
 8858DT     BB357605  63.175 101.895  58.802
 8858DT     SC157606  63.016 101.689  58.834
 8858DT     SC257607  62.915 101.706  59.023
 8858DT     SC357608  62.931 101.439  58.839
 8859DT     BB157609  63.323 102.115  58.774
 8859DT     BB257610  63.240 102.105  59.125
 8859DT     BB357611  63.372 101.980  59.225
 8859DT     SC157612  63.255 101.766  59.128
 8859DT     SC257613  63.152 101.662  59.286
 8859DT     SC357614  63.220 101.542  58.993
 8860DT     BB157615  63.514 102.189  59.343
 8860DT     BB257616  63.427 101.979  59.623
 8860DT     BB357617  63.573 101.836  59.653
 8860DT     SC157618  63.492 101.699  59.445
 8860DT     SC257619  63.402 101.515  59.511
 8860DT     SC357620  63.493 101.583  59.208
 8861DA     BB157621  63.590 102.008  60.042
 8861DA     BB257622  63.576 101.645  60.091
 8861DA     BB357623  63.769 101.558  60.061
 8861DA     SC157624  63.724 101.507  59.757
 8861DA     SC257625  63.693 101.311  59.606
 8861DA     SC357626  63.764 101.471  59.418
 8861DA     SC457627  63.772 101.621  59.655
 8862DT     BB157628  63.940 101.451  60.222
 8862DT     BB257629  63.876 101.110  60.121
 8862DT     BB357630  64.045 101.030  60.033
 8862DT     SC157631  64.005 101.168  59.813
 8862DT     SC257632  63.948 101.035  59.654
 8862DT     SC357633  64.045 101.343  59.619
 8863DT     BB157634  64.145 100.854  60.249
 8863DT     BB257635  64.103 100.627  59.971
 8863DT     BB357636  64.283 100.602  59.872
 8863DT     SC157637  64.264 100.840  59.762
 8863DT     SC257638  64.229 100.818  59.551
 8863DT     SC357639  64.319 101.090  59.701
 8864DG     BB157640  64.193 100.222  59.992
 8864DG     BB257641  64.252 100.233  59.635
 8864DG     BB357642  64.447 100.225  59.598
 8864DG     SC157643  64.486 100.529  59.607
 8864DG     SC257644  64.561 100.703  59.377
 8864DG     SC357645  64.569 100.855  59.630
 8864DG     SC457646  64.518 100.599  59.748
 8865DC     BB157647  64.542 100.054  59.482
 8865DC     BB257648  64.601 100.212  59.164
 8865DC     BB357649  64.803 100.251  59.140
 8865DC     SC157650  64.792 100.452  59.309
 8865DC     SC257651  64.819 100.637  59.201
 8865DC     SC357652  64.836 100.600  59.523
 8866DT     BB157653  64.825 100.051  58.954
 8866DT     BB257654  64.943 100.346  58.782
 8866DT     BB357655  65.146 100.370  58.814
 8866DT     SC157656  65.105 100.453  59.060
 8866DT     SC257657  65.153 100.663  59.073
 8866DT     SC357658  65.111 100.461  59.323
 8867DT     BB157659  65.206 100.293  58.556
 8867DT     BB257660  65.356 100.620  58.588
 8867DT     BB357661  65.549 100.603  58.661
 8867DT     SC157662  65.461 100.550  58.903
 8867DT     SC257663  65.506 100.716  59.032
 8867DT     SC357664  65.416 100.420  59.127
 8868DA     BB157665  65.586 100.831  58.311
 8868DA     BB257666  65.768 101.007  58.577
 8868DA     BB357667  65.954 100.910  58.616
 8868DA     SC157668  65.838 100.722  58.836
 8868DA     SC257669  65.855 100.695  59.083
 8868DA     SC357670  65.769 100.457  59.043
 8868DA     SC457671  65.785 100.578  58.790
 8869DG     BB157672  66.093 101.178  58.531
 8869DG     BB257673  66.196 101.184  58.878
 8869DG     BB357674  66.363 101.079  58.901
 8869DG     SC157675  66.220 100.815  58.956
 8869DG     SC257676  66.221 100.665  59.214
 8869DG     SC357677  66.096 100.504  59.000
 8869DG     SC457678  66.181 100.720  58.833
 8870DA     BB157679  66.490 101.359  59.056
 8870DA     BB257680  66.538 101.168  59.365
 8870DA     BB357681  66.713 101.047  59.350
 8870DA     SC157682  66.562 100.800  59.235
 8870DA     SC257683  66.498 100.571  59.310
 8870DA     SC357684  66.473 100.518  59.060
 8870DA     SC457685  66.553 100.786  59.075
 8871DT     BB157686  66.851 101.095  59.473
 8871DT     BB257687  66.805 100.818  59.700
 8871DT     BB357688  66.953 100.677  59.670
 8871DT     SC157689  66.842 100.594  59.448
 8871DT     SC257690  66.762 100.397  59.476
 8871DT     SC357691  66.809 100.543  59.191
 8872DT     BB157692  67.016 100.762  59.907
 8872DT     BB257693  66.961 100.407  59.941
 8872DT     BB357694  67.126 100.303  59.873
 8872DT     SC157695  67.063 100.352  59.623
 8872DT     SC257696  67.001 100.169  59.528
 8872DT     SC357697  67.079 100.445  59.377
 8873DA     BB157698  67.008 100.166  60.253
 8873DA     BB257699  67.064  99.876  60.037
 8873DA     BB357700  67.272  99.853  59.995
 8873DA     SC157701  67.264 100.028  59.738
 8873DA     SC257702  67.286  99.995  59.491
 8873DA     SC357703  67.338 100.246  59.483
 8873DA     SC457704  67.296 100.185  59.753
 8874DT     BB157705  67.360  99.694  60.068
 8874DT     BB257706  67.400  99.515  59.757
 8874DT     BB357707  67.596  99.531  59.691
 8874DT     SC157708  67.558  99.780  59.616
 8874DT     SC257709  67.563  99.791  59.401
 8874DT     SC357710  67.583 100.042  59.604
 8875DT     BB157711  67.658  99.269  59.757
 8875DT     BB257712  67.741  99.292  59.407
 8875DT     BB357713  67.937  99.355  59.385
 8875DT     SC157714  67.874  99.601  59.450
 8875DT     SC257715  67.891  99.728  59.277
 8875DT     SC357716  67.867  99.828  59.584
 8876DA     BB157717  67.916  99.002  59.159
 8876DA     BB257718  68.067  99.260  58.946
 8876DA     BB357719  68.270  99.293  59.003
 8876DA     SC157720  68.202  99.518  59.206
 8876DA     SC257721  68.232  99.765  59.226
 8876DA     SC357722  68.196  99.729  59.477
 8876DA     SC457723  68.178  99.475  59.360
 8877DG     BB157724  68.328  99.203  58.712
 8877DG     BB257725  68.437  99.546  58.679
 8877DG     BB357726  68.624  99.565  58.743
 8877DG     SC157727  68.544  99.626  59.032
 8877DG     SC257728  68.585  99.886  59.174
 8877DG     SC357729  68.493  99.676  59.362
 8877DG     SC457730  68.524  99.505  59.135
 8878DT     BB157731  68.757  99.631  58.603
 8878DT     BB257732  68.807  99.973  58.707
 8878DT     BB357733  68.984  99.989  58.813
 8878DT     SC157734  68.878  99.875  59.024
 8878DT     SC257735  68.856 100.021  59.181
 8878DT     SC357736  68.834  99.699  59.216
 8879DT     BB157737  69.031 100.124  58.601
 8879DT     BB257738  69.079 100.351  58.876
 8879DT     BB357739  69.260 100.313  58.969
 8879DT     SC157740  69.166 100.096  59.083
 8879DT     SC257741  69.148 100.129  59.295
 8879DT     SC357742  69.135  99.842  59.145
 8880DT     BB157743  69.283 100.545  58.867
 8880DT     BB257744  69.358 100.581  59.218
 8880DT     BB357745  69.544 100.501  59.259
 8880DT     SC157746  69.452 100.256  59.240
 8880DT     SC257747  69.451 100.164  59.434
 8880DT     SC357748  69.418 100.010  59.151
 8881DT     BB157749  69.602 100.752  59.295
 8881DT     BB257750  69.714 100.585  59.595
 8881DT     BB357751  69.895 100.490  59.560
 8881DT     SC157752  69.778 100.300  59.423
 8881DT     SC257753  69.787 100.116  59.534
 8881DT     SC357754  69.712 100.145  59.220
 8882DT     BB157755  70.044 100.680  59.698
 8882DT     BB257756  70.155 100.368  59.841
 8882DT     BB357757  70.313 100.293  59.732
 8882DT     SC157758  70.154 100.219  59.537
 8882DT     SC257759  70.143 100.004  59.531
 8882DT     SC357760  70.044 100.205  59.298
 8883DC     BB157761  70.541 100.362  59.905
 8883DC     BB257762  70.590 100.009  59.851
 8883DC     BB357763  70.719  99.979  59.692
 8883DC     SC157764  70.534 100.044  59.518
 8883DC     SC257765  70.475  99.869  59.408
 8883DC     SC357766  70.407 100.176  59.328
 8884DA     BB157767  70.926  99.761  59.989
 8884DA     BB257768  70.902  99.541  59.696
 8884DA     BB357769  71.050  99.594  59.552
 8884DA     SC157770  70.868  99.795  59.401
 8884DA     SC257771  70.752  99.810  59.180
 8884DA     SC357772  70.744 100.062  59.224
 8884DA     SC457773  70.874  99.949  59.446
 8885DC     BB157774  71.220  99.463  59.499
 8885DC     BB257775  71.088  99.355  59.182
 8885DC     BB357776  71.199  99.437  59.027
 8885DC     SC157777  71.089  99.672  59.063
 8885DC     SC257778  70.960  99.717  58.896
 8885DC     SC357779  71.064  99.929  59.119
 8886DT     BB157780  71.307  99.193  58.975
 8886DT     BB257781  71.153  99.291  58.664
 8886DT     BB357782  71.286  99.403  58.551
 8886DT     SC157783  71.253  99.613  58.706
 8886DT     SC257784  71.148  99.765  58.598
 8886DT     SC357785  71.309  99.806  58.876
 8887DA     BB157786  71.122  99.097  58.315
 8887DA     BB257787  71.103  99.411  58.126
 8887DA     BB357788  71.297  99.471  58.061
 8887DA     SC157789  71.355  99.642  58.315
 8887DA     SC257790  71.379  99.883  58.373
 8887DA     SC357791  71.503  99.799  58.581
 8887DA     SC457792  71.430  99.570  58.437
 8888DC     BB157793  71.335  99.469  57.865
 8888DC     BB257794  71.343  99.826  57.811
 8888DC     BB357795  71.539  99.890  57.793
 8888DC     SC157796  71.579  99.865  58.051
 8888DC     SC257797  71.601 100.060  58.140
 8888DC     SC357798  71.679  99.778  58.280
 8889DT     BB157799  71.537  99.926  57.511
 8889DT     BB257800  71.658 100.244  57.632
 8889DT     BB357801  71.864 100.242  57.643
 8889DT     SC157802  71.860 100.091  57.857
 8889DT     SC257803  71.926 100.206  58.027
 8889DT     SC357804  71.897  99.883  58.016
 8890DT     BB157805  71.963 100.395  57.391
 8890DT     BB257806  72.138 100.566  57.657
 8890DT     BB357807  72.330 100.492  57.674
 8890DT     SC157808  72.244 100.272  57.788
 8890DT     SC257809  72.303 100.271  57.995
 8890DT     SC357810  72.193 100.017  57.828
 8891DC     BB157811  72.540 100.695  57.531
 8891DC     BB257812  72.674 100.669  57.865
 8891DC     BB357813  72.836 100.539  57.866
 8891DC     SC157814  72.678 100.330  57.845
 8891DC     SC257815  72.682 100.219  58.030
 8891DC     SC357816  72.566 100.113  57.747
 8892DG     BB157817  73.034 100.881  57.988
 8892DG     BB257818  73.073 100.616  58.231
 8892DG     BB357819  73.227 100.501  58.181
 8892DG     SC157820  73.059 100.309  58.011
 8892DG     SC257821  73.004 100.022  58.073
 8892DG     SC357822  72.910 100.092  57.801
 8892DG     SC457823  73.037 100.342  57.856
 8893DT     BB157824  73.409 100.477  58.316
 8893DT     BB257825  73.333 100.157  58.464
 8893DT     BB357826  73.457 100.012  58.385
 8893DT     SC157827  73.324 100.009  58.159
 8893DT     SC257828  73.217  99.823  58.141
 8893DT     SC357829  73.271 100.035  57.902
 8894DT     BB157830  73.567 100.008  58.626
 8894DT     BB257831  73.440  99.674  58.572
 8894DT     BB357832  73.577  99.563  58.463
 8894DT     SC157833  73.515  99.690  58.242
 8894DT     SC257834  73.412  99.556  58.109
 8894DT     SC357835  73.539  99.842  58.028
 8895DT     BB157836  73.608  99.432  58.689
 8895DT     BB257837  73.502  99.186  58.448
 8895DT     BB357838  73.664  99.122  58.336
 8895DT     SC157839  73.667  99.346  58.199
 8895DT     SC257840  73.605  99.307  57.996
 8895DT     SC357841  73.751  99.577  58.102
 8896DA     BB157842  73.446  98.795  58.486
 8896DA     BB257843  73.501  98.744  58.127
 8896DA     BB357844  73.707  98.703  58.088
 8896DA     SC157845  73.784  99.001  58.046
 8896DA     SC257846  73.854  99.148  57.857
 8896DA     SC357847  73.947  99.303  58.039
 8896DA     SC457848  73.837  99.083  58.174
 8897DT     BB157849  73.741  98.526  58.020
 8897DT     BB257850  73.808  98.626  57.680
 8897DT     BB357851  74.012  98.627  57.645
 8897DT     SC157852  74.042  98.849  57.781
 8897DT     SC257853  74.092  99.009  57.647
 8897DT     SC357854  74.121  99.015  57.970
 8898DA     BB157855  73.812  98.411  57.347
 8898DA     BB257856  74.035  98.653  57.185
 8898DA     BB357857  74.238  98.594  57.211
 8898DA     SC157858  74.277  98.753  57.475
 8898DA     SC257859  74.401  98.955  57.553
 8898DA     SC357860  74.371  98.857  57.788
 8898DA     SC457861  74.249  98.676  57.613
 8899DA     BB157862  74.187  98.652  56.896
 8899DA     BB257863  74.444  98.912  56.932
 8899DA     BB357864  74.635  98.823  56.965
 8899DA     SC157865  74.608  98.822  57.275
 8899DA     SC257866  74.711  98.940  57.469
 8899DA     SC357867  74.625  98.743  57.609
 8899DA     SC457868  74.548  98.690  57.344
 8900DA     BB157869  74.631  99.055  56.734
 8900DA     BB257870  74.883  99.218  56.945
 8900DA     BB357871  75.059  99.097  56.957
 8900DA     SC157872  74.964  98.943  57.210
 8900DA     SC257873  75.025  98.930  57.452
 8900DA     SC357874  74.903  98.704  57.449
 8900DA     SC457875  74.885  98.805  57.188
 8901DA     BB157876  75.100  99.424  56.900
 8901DA     BB257877  75.320  99.407  57.192
 8901DA     BB357878  75.479  99.268  57.158
 8901DA     SC157879  75.324  99.025  57.276
 8901DA     SC257880  75.336  98.878  57.477
 8901DA     SC357881  75.196  98.713  57.339
 8901DA     SC457882  75.238  98.935  57.173
 8902DA     BB157883  75.602  99.553  57.277
 8902DA     BB257884  75.763  99.340  57.529
 8902DA     BB357885  75.901  99.207  57.436
 8902DA     SC157886  75.691  98.980  57.396
 8902DA     SC257887  75.645  98.753  57.488
 8902DA     SC357888  75.507  98.717  57.275
 8902DA     SC457889  75.612  98.976  57.257
 8903DA     BB157890  76.107  99.336  57.662
 8903DA     BB257891  76.172  98.993  57.775
 8903DA     BB357892  76.290  98.889  57.630
 8903DA     SC157893  76.044  98.779  57.474
 8903DA     SC257894  75.934  98.558  57.436
 8903DA     SC357895  75.828  98.670  57.231
 8903DA     SC457896  75.990  98.865  57.350
 8904DG     BB157897  76.539  98.845  57.833
 8904DG     BB257898  76.474  98.492  57.783
 8904DG     BB357899  76.573  98.427  57.623
 8904DG     SC157900  76.345  98.489  57.427
 8904DG     SC257901  76.185  98.288  57.276
 8904DG     SC357902  76.125  98.563  57.183
 8904DG     SC457903  76.338  98.635  57.360
 8905DC     BB157904  76.778  98.258  57.591
 8905DC     BB257905  76.604  97.971  57.456
 8905DC     BB357906  76.659  97.942  57.259
 8905DC     SC157907  76.513  98.146  57.180
 8905DC     SC257908  76.344  98.073  57.068
 8905DC     SC357909  76.448  98.380  57.078
 8906DA     BB157910  76.765  97.560  57.407
 8906DA     BB257911  76.559  97.501  57.110
 8906DA     BB357912  76.676  97.524  56.933
 8906DA     SC157913  76.614  97.827  56.901
 8906DA     SC257914  76.485  97.974  56.746
 8906DA     SC357915  76.633  98.164  56.836
 8906DA     SC457916  76.717  97.931  56.968
 8907DT     BB157917  76.733  97.355  56.786
 8907DT     BB257918  76.495  97.448  56.530
 8907DT     BB357919  76.595  97.518  56.363
 8907DT     SC157920  76.651  97.745  56.482
 8907DT     SC257921  76.537  97.903  56.390
 8907DT     SC357922  76.790  97.942  56.589
 8908DA     BB157923  76.337  97.219  56.228
 8908DA     BB257924  76.281  97.515  56.020
 8908DA     BB357925  76.441  97.539  55.880
 8908DA     SC157926  76.612  97.718  56.068
 8908DA     SC257927  76.685  97.956  56.081
 8908DA     SC357928  76.869  97.870  56.237
 8908DA     SC457929  76.720  97.645  56.162
 8909DC     BB157930  76.394  97.519  55.688
 8909DC     BB257931  76.408  97.870  55.605
 8909DC     BB357932  76.581  97.910  55.499
 8909DC     SC157933  76.727  97.892  55.717
 8909DC     SC257934  76.801  98.087  55.769
 8909DC     SC357935  76.909  97.805  55.887
 8910DA     BB157936  76.250  98.069  55.298
 8910DA     BB257937  76.506  98.330  55.320
 8910DA     BB357938  76.669  98.285  55.189
 8910DA     SC157939  76.829  98.127  55.404
 8910DA     SC257940  77.038  98.155  55.536
 8910DA     SC357941  77.029  97.901  55.568
 8910DA     SC457942  76.806  97.968  55.411
 8911DA     BB157943  76.599  98.589  55.091
 8911DA     BB257944  76.942  98.679  55.184
 8911DA     BB357945  77.080  98.602  55.041
 8911DA     SC157946  77.122  98.332  55.190
 8911DA     SC257947  77.304  98.219  55.318
 8911DA     SC357948  77.174  98.002  55.270
 8911DA     SC457949  77.028  98.209  55.149
 8912DG     BB157950  77.146  98.904  55.017
 8912DG     BB257951  77.467  98.794  55.141
 8912DG     BB357952  77.573  98.713  54.993
 8912DG     SC157953  77.466  98.430  55.040
 8912DG     SC257954  77.626  98.196  55.137
 8912DG     SC357955  77.355  98.111  55.051
 8912DG     SC457956  77.332  98.384  54.966
 8913DA     BB157957  77.830  98.929  55.082
 8913DA     BB257958  78.050  98.643  55.145
 8913DA     BB357959  78.117  98.559  54.961
 8913DA     SC157960  77.881  98.358  54.938
 8913DA     SC257961  77.847  98.111  54.953
 8913DA     SC357962  77.629  98.154  54.824
 8913DA     SC457963  77.751  98.405  54.856
 8914DC     BB157964  78.316  98.570  54.911
 8914DC     BB257965  78.395  98.224  54.973
 8914DC     BB357966  78.417  98.123  54.794
 8914DC     SC157967  78.158  98.121  54.754
 8914DC     SC257968  78.084  97.920  54.773
 8914DC     SC357969  77.923  98.170  54.644
 8915DG     BB157970  78.769  98.078  54.995
 8915DG     BB257971  78.634  97.759  54.892
 8915DG     BB357972  78.670  97.729  54.699
 8915DG     SC157973  78.411  97.861  54.604
 8915DG     SC257974  78.182  97.723  54.471
 8915DG     SC357975  78.146  98.017  54.464
 8915DG     SC457976  78.410  98.019  54.576
 8916DT     BB157977  78.794  97.559  54.634
 8916DT     BB257978  78.544  97.334  54.505
 8916DT     BB357979  78.545  97.339  54.298
 8916DT     SC157980  78.426  97.573  54.294
 8916DT     SC257981  78.226  97.550  54.219
 8916DT     SC357982  78.385  97.830  54.252
 8917DA     BB157983  78.562  96.942  54.433
 8917DA     BB257984  78.297  96.967  54.181
 8917DA     BB357985  78.382  96.994  53.987
 8917DA     SC157986  78.380  97.305  54.003
 8917DA     SC257987  78.257  97.494  53.896
 8917DA     SC357988  78.455  97.638  53.973
 8917DA     SC457989  78.512  97.377  54.058
 8918DT     BB157990  78.346  96.851  53.876
 8918DT     BB257991  78.102  97.016  53.668
 8918DT     BB357992  78.190  97.080  53.492
 8918DT     SC157993  78.311  97.278  53.615
 8918DT     SC257994  78.224  97.465  53.553
 8918DT     SC357995  78.504  97.429  53.712
 8919DT     BB157996  78.048  96.890  53.375
 8919DT     BB257997  77.955  97.195  53.206
 8919DT     BB357998  78.095  97.240  53.060
 8919DT     SC157999  78.269  97.320  53.239
 8919DT     SC258000  78.293  97.533  53.225
 8919DT     SC358001  78.488  97.329  53.385
 8920DT     BB158002  77.909  97.173  52.880
 8920DT     BB258003  78.005  97.510  52.794
 8920DT     BB358004  78.176  97.507  52.677
 8920DT     SC158005  78.326  97.451  52.885
 8920DT     SC258006  78.450  97.621  52.932
 8920DT     SC358007  78.490  97.320  53.045
 8921DA     BB158008  77.898  97.738  52.463
 8921DA     BB258009  78.214  97.924  52.471
 8921DA     BB358010  78.356  97.834  52.339
 8921DA     SC158011  78.475  97.646  52.556
 8921DA     SC258012  78.688  97.623  52.684
 8921DA     SC358013  78.613  97.381  52.726
 8921DA     SC458014  78.412  97.499  52.570
 8922DA     BB158015  78.376  98.137  52.209
 8922DA     BB258016  78.730  98.137  52.304
 8922DA     BB358017  78.843  98.018  52.168
 8922DA     SC158018  78.811  97.756  52.333
 8922DA     SC258019  78.955  97.606  52.470
 8922DA     SC358020  78.773  97.429  52.432
 8922DA     SC458021  78.688  97.660  52.296
 8923DA     BB158022  79.022  98.293  52.141
 8923DA     BB258023  79.306  98.100  52.269
 8923DA     BB358024  79.385  97.973  52.117
 8923DA     SC158025  79.203  97.732  52.191
 8923DA     SC258026  79.229  97.505  52.291
 8923DA     SC358027  79.003  97.453  52.182
 8923DA     SC458028  79.063  97.718  52.113
 8924DC     BB158029  79.569  98.011  52.051
 8924DC     BB258030  79.733  97.734  52.213
 8924DC     BB358031  79.773  97.585  52.075
 8924DC     SC158032  79.521  97.513  52.067
 8924DC     SC258033  79.500  97.319  52.159
 8924DC     SC358034  79.279  97.467  51.974
 8925DG     BB158035  80.132  97.690  52.240
 8925DG     BB258036  80.079  97.332  52.255
 8925DG     BB358037  80.116  97.251  52.078
 8925DG     SC158038  79.829  97.281  51.977
 8925DG     SC258039  79.639  97.058  51.918
 8925DG     SC358040  79.529  97.317  51.827
 8925DG     SC458041  79.786  97.417  51.903
 8926DA     BB158042  80.335  97.025  52.232
 8926DA     BB258043  80.136  96.742  52.111
 8926DA     BB358044  80.175  96.707  51.904
 8926DA     SC158045  79.949  96.895  51.803
 8926DA     SC258046  79.728  96.873  51.689
 8926DA     SC358047  79.760  97.119  51.626
 8926DA     SC458048  79.988  97.048  51.772
 8927DT     BB158049  80.279  96.527  51.826
 8927DT     BB258050  79.988  96.366  51.688
 8927DT     BB358051  79.994  96.373  51.481
 8927DT     SC158052  79.931  96.628  51.480
 8927DT     SC258053  79.733  96.652  51.400
 8927DT     SC358054  79.951  96.888  51.442
 8928DT     BB158055  80.066  96.099  51.432
 8928DT     BB258056  79.762  96.142  51.243
 8928DT     BB358057  79.806  96.197  51.049
 8928DT     SC158058  79.868  96.441  51.124
 8928DT     SC258059  79.720  96.578  51.050
 8928DT     SC358060  80.011  96.658  51.167
 8929DA     BB158061  79.569  95.855  50.985
 8929DA     BB258062  79.426  96.125  50.783
 8929DA     BB358063  79.539  96.153  50.604
 8929DA     SC158064  79.731  96.363  50.729
 8929DA     SC258065  79.775  96.608  50.707
 8929DA     SC358066  80.003  96.555  50.812
 8929DA     SC458067  79.868  96.310  50.794
 8930DT     BB158068  79.456  96.111  50.407
 8930DT     BB258069  79.395  96.458  50.329
 8930DT     BB358070  79.524  96.521  50.180
 8930DT     SC158071  79.726  96.530  50.347
 8930DT     SC258072  79.783  96.734  50.380
 8930DT     SC358073  79.958  96.474  50.458
 8931DA     BB158074  79.124  96.617  50.110
 8931DA     BB258075  79.326  96.922  50.085
 8931DA     BB358076  79.444  96.918  49.907
 8931DA     SC158077  79.689  96.783  50.044
 8931DA     SC258078  79.921  96.845  50.110
 8931DA     SC358079  79.966  96.592  50.114
 8931DA     SC458080  79.697  96.622  50.039
 8932DT     BB158081  79.380  97.050  49.847
 8932DT     BB258082  79.664  97.265  49.904
 8932DT     BB358083  79.795  97.253  49.744
 8932DT     SC158084  79.879  97.016  49.820
 8932DT     SC258085  80.082  97.032  49.890
 8932DT     SC358086  79.927  96.757  49.817
 8933DC     BB158087  79.703  97.490  49.758
 8933DC     BB258088  80.062  97.516  49.781
 8933DC     BB358089  80.148  97.476  49.597
 8933DC     SC158090  80.103  97.219  49.622
 8933DC     SC258091  80.289  97.116  49.649
 8933DC     SC358092  80.005  96.978  49.575
 8934DT     BB158093  80.200  97.726  49.631
 8934DT     BB258094  80.517  97.566  49.571
 8934DT     BB358095  80.538  97.523  49.370
 8934DT     SC158096  80.370  97.323  49.386
 8934DT     SC258097  80.476  97.138  49.361
 8934DT     SC358098  80.155  97.175  49.347
 8935DA     BB158099  80.884  97.721  49.508
 8935DA     BB258100  80.988  97.437  49.300
 8935DA     BB358101  80.941  97.474  49.096
 8935DA     SC158102  80.659  97.343  49.112
 8935DA     SC258103  80.545  97.138  49.026
 8935DA     SC358104  80.327  97.265  49.072
 8935DA     SC458105  80.534  97.438  49.146
 8936DA     BB158106  81.263  97.412  49.038
 8936DA     BB258107  81.157  97.141  48.816
 8936DA     BB358108  81.087  97.220  48.630
 8936DA     SC158109  80.791  97.242  48.723
 8936DA     SC258110  80.573  97.131  48.675
 8936DA     SC358111  80.467  97.342  48.774
 8936DA     SC458112  80.744  97.382  48.788
 8937DT     BB158113  81.190  97.198  48.430
 8937DT     BB258114  80.959  96.961  48.287
 8937DT     BB358115  80.848  97.051  48.137
 8937DT     SC158116  80.703  97.181  48.313
 8937DT     SC258117  80.503  97.102  48.312
 8937DT     SC358118  80.596  97.381  48.448
 8938DC     BB158119  80.982  96.933  47.912
 8938DC     BB258120  80.636  96.846  47.860
 8938DC     BB358121  80.544  96.989  47.741
 8938DC     SC158122  80.536  97.160  47.939
 8938DC     SC258123  80.331  97.188  48.001
 8938DC     SC358124  80.582  97.377  48.082
 8939DA     BB158125  80.465  96.629  47.539
 8939DA     BB258126  80.146  96.807  47.575
 8939DA     BB358127  80.133  96.966  47.433
 8939DA     SC158128  80.259  97.178  47.624
 8939DA     SC258129  80.185  97.380  47.749
 8939DA     SC358130  80.434  97.442  47.756
 8939DA     SC458131  80.418  97.199  47.617
 8940DC     BB158132  79.992  96.961  47.277
 8940DC     BB258133  79.766  97.203  47.420
 8940DC     BB358134  79.777  97.380  47.314
 8940DC     SC158135  80.008  97.440  47.422
 8940DC     SC258136  79.983  97.607  47.556
 8940DC     SC358137  80.265  97.493  47.445
 8941DA     BB158138  79.374  97.271  47.338
 8941DA     BB258139  79.401  97.621  47.442
 8941DA     BB358140  79.435  97.746  47.273
 8941DA     SC158141  79.745  97.729  47.292
 8941DA     SC258142  79.936  97.879  47.351
 8941DA     SC358143  80.081  97.711  47.223
 8941DA     SC458144  79.819  97.614  47.208
 8942DT     BB158145  79.292  97.873  47.230
 8942DT     BB258146  79.460  98.171  47.345
 8942DT     BB358147  79.531  98.279  47.184
 8942DT     SC158148  79.727  98.108  47.146
 8942DT     SC258149  79.914  98.202  47.197
 8942DT     SC358150  79.879  97.926  47.031
 8943DC     BB158151  79.339  98.465  47.228
 8943DC     BB258152  79.648  98.651  47.238
 8943DC     BB358153  79.702  98.708  47.047
 8943DC     SC158154  79.779  98.465  46.987
 8943DC     SC258155  79.993  98.460  46.967
 8943DC     SC358156  79.787  98.230  46.867
 8944DC     BB158157  79.635  98.970  47.097
 8944DC     BB258158  79.979  98.988  46.989
 8944DC     BB358159  79.987  99.005  46.783
 8944DC     SC158160  79.925  98.752  46.752
 8944DC     SC258161  80.095  98.645  46.676
 8944DC     SC358162  79.790  98.536  46.681
 8945DA     BB158163  80.216  99.331  46.916
 8945DA     BB258164  80.413  99.159  46.660
 8945DA     BB358165  80.338  99.205  46.465
 8945DA     SC158166  80.140  98.965  46.458
 8945DA     SC258167  80.117  98.748  46.336
 8945DA     SC358168  79.870  98.759  46.404
 8945DA     SC458169  79.990  98.990  46.509
 8946DT     BB158170  80.448  99.326  46.312
 8946DT     BB258171  80.540  99.048  46.101
 8946DT     BB358172  80.435  99.057  45.923
 8946DT     SC158173  80.214  98.976  46.040
 8946DT     SC258174  80.167  98.777  45.973
 8946DT     SC358175  79.967  98.978  46.130
 8947DA     BB158176  80.837  99.028  45.813
 8947DA     BB258177  80.653  98.771  45.628
 8947DA     BB358178  80.545  98.858  45.467
 8947DA     SC158179  80.287  98.905  45.634
 8947DA     SC258180  80.055  98.815  45.645
 8947DA     SC358181  79.997  99.032  45.768
 8947DA     SC458182  80.271  99.048  45.708
 8948DT     BB158183  80.601  98.807  45.284
 8948DT     BB258184  80.325  98.584  45.220
 8948DT     BB358185  80.191  98.673  45.090
 8948DT     SC158186  80.100  98.831  45.278
 8948DT     SC258187  79.899  98.773  45.329
 8948DT     SC358188  80.044  99.051  45.412
 8949DT     BB158189  80.279  98.487  44.928
 8949DT     BB258190  79.923  98.432  44.954
 8949DT     BB358191  79.823  98.560  44.826
 8949DT     SC158192  79.865  98.765  44.984
 8949DT     SC258193  79.680  98.827  45.073
 8949DT     SC358194  79.955  98.998  45.070
 8950DT     BB158195  79.777  98.329  44.724
 8950DT     BB258196  79.454  98.474  44.791
 8950DT     BB358197  79.408  98.615  44.646
 8950DT     SC158198  79.576  98.788  44.750
 8950DT     SC258199  79.466  98.950  44.838
 8950DT     SC358200  79.784  98.949  44.774
 8951DA     BB158201  79.092  98.347  44.729
 8951DA     BB258202  78.957  98.687  44.708
 8951DA     BB358203  78.972  98.761  44.509
 8951DA     SC158204  79.253  98.888  44.551
 8951DA     SC258205  79.351  99.117  44.565
 8951DA     SC358206  79.574  99.002  44.512
 8951DA     SC458207  79.381  98.798  44.515
 8952DA     BB158208  78.653  98.816  44.574
 8952DA     BB258209  78.717  99.167  44.488
 8952DA     BB358210  78.752  99.187  44.279
 8952DA     SC158211  79.060  99.148  44.302
 8952DA     SC258212  79.266  99.287  44.275
 8952DA     SC358213  79.388  99.063  44.248
 8952DA     SC458214  79.118  98.999  44.286
 8953DA     BB158215  78.508  99.414  44.282
 8953DA     BB258216  78.748  99.656  44.147
 8953DA     BB358217  78.780  99.621  43.939
 8953DA     SC158218  79.019  99.427  43.984
 8953DA     SC258219  79.266  99.427  43.947
 8953DA     SC358220  79.247  99.171  43.961
 8953DA     SC458221  78.987  99.270  43.994
 8954DC     BB158222  78.713  99.755  43.765
 8954DC     BB258223  79.038  99.881  43.674
 8954DC     BB358224  79.096  99.802  43.492
 8954DC     SC158225  79.148  99.569  43.601
 8954DC     SC258226  79.361  99.536  43.599
 8954DC     SC358227  79.133  99.311  43.654
 8955DG     BB158228  79.091 100.202  43.388
 8955DG     BB258229  79.406 100.053  43.292
 8955DG     BB358230  79.388  99.964  43.115
 8955DG     SC158231  79.304  99.694  43.232
 8955DG     SC258232  79.463  99.441  43.220
 8955DG     SC358233  79.191  99.390  43.324
 8955DG     SC458234  79.149  99.666  43.259
 8956DA     BB158235  79.658 100.140  42.962
 8956DA     BB258236  79.840  99.827  42.903
 8956DA     BB358237  79.771  99.734  42.725
 8956DA     SC158238  79.552  99.566  42.869
 8956DA     SC258239  79.510  99.326  42.924
 8956DA     SC358240  79.264  99.397  42.951
 8956DA     SC458241  79.404  99.629  42.879
 8957DG     BB158242  80.058  99.758  42.583
 8957DG     BB258243  80.054  99.397  42.598
 8957DG     BB358244  79.970  99.323  42.433
 8957DG     SC158245  79.686  99.324  42.548
 8957DG     SC258246  79.520  99.083  42.608
 8957DG     SC358247  79.360  99.330  42.634
 8957DG     SC458248  79.596  99.456  42.532
 8958DA     BB158249  80.248  99.118  42.367
 8958DA     BB258250  80.040  98.817  42.397
 8958DA     BB358251  79.935  98.781  42.215
 8958DA     SC158252  79.685  98.948  42.298
 8958DA     SC258253  79.447  98.905  42.359
 8958DA     SC358254  79.410  99.152  42.301
 8958DA     SC458255  79.682  99.103  42.256
 8959DA     BB158256  80.073  98.480  42.220
 8959DA     BB258257  79.735  98.341  42.249
 8959DA     BB358258  79.642  98.333  42.057
 8959DA     SC158259  79.514  98.616  42.081
 8959DA     SC258260  79.286  98.715  42.107
 8959DA     SC358261  79.392  98.931  42.018
 8959DA     SC458262  79.598  98.741  42.022
 8960DC     BB158263  79.594  98.146  41.962
 8960DC     BB258264  79.240  98.160  42.029
 8960DC     BB358265  79.136  98.194  41.853
 8960DC     SC158266  79.208  98.446  41.851
 8960DC     SC258267  79.036  98.570  41.890
 8960DC     SC358268  79.321  98.671  41.772
 8961DT     BB158269  79.043  97.935  41.850
 8961DT     BB258270  78.745  98.139  41.854
 8961DT     BB358271  78.687  98.183  41.660
 8961DT     SC158272  78.882  98.358  41.634
 8961DT     SC258273  78.799  98.556  41.626
 8961DT     SC358274  79.102  98.473  41.545
 8962DT     BB158275  78.482  98.022  41.707
 8962DT     BB258276  78.335  98.340  41.624
 8962DT     BB358277  78.322  98.361  41.419
 8962DT     SC158278  78.580  98.405  41.399
 8962DT     SC258279  78.613  98.610  41.344
 8962DT     SC358280  78.833  98.372  41.333
 8963DG     BB158281  77.958  98.411  41.595
 8963DG     BB258282  78.041  98.687  41.376
 8963DG     BB358283  78.020  98.631  41.187
 8963DG     SC158284  78.308  98.531  41.157
 8963DG     SC258285  78.519  98.653  40.985
 8963DG     SC358286  78.610  98.394  41.096
 8963DG     SC458287  78.341  98.379  41.195
 8964DC     BB158288  77.875  98.733  41.065
 8964DC     BB258289  78.084  98.934  40.850
 8964DC     BB358290  78.099  98.845  40.664
 8964DC     SC158291  78.263  98.662  40.756
 8964DC     SC258292  78.460  98.695  40.675
 8964DC     SC358293  78.358  98.425  40.824
 8965DA     BB158294  77.980  99.242  40.597
 8965DA     BB258295  78.260  99.170  40.371
 8965DA     BB358296  78.196  99.043  40.212
 8965DA     SC158297  78.265  98.779  40.362
 8965DA     SC258298  78.432  98.595  40.345
 8965DA     SC358299  78.266  98.458  40.485
 8965DA     SC458300  78.148  98.710  40.449
 8966DT     BB158301  78.188  99.111  40.011
 8966DT     BB258302  78.478  98.932  39.894
 8966DT     BB358303  78.420  98.775  39.772
 8966DT     SC158304  78.340  98.634  39.979
 8966DT     SC258305  78.472  98.467  40.008
 8966DT     SC358306  78.181  98.504  40.144
 8967DT     BB158307  78.507  98.902  39.542
 8967DT     BB258308  78.688  98.591  39.545
 8967DT     BB358309  78.580  98.444  39.447
 8967DT     SC158310  78.414  98.421  39.649
 8967DT     SC258311  78.444  98.231  39.744
 8967DT     SC358312  78.190  98.427  39.788
 8968DT     BB158313  78.758  98.454  39.244
 8968DT     BB258314  78.765  98.112  39.356
 8968DT     BB358315  78.618  98.002  39.260
 8968DT     SC158316  78.430  98.112  39.407
 8968DT     SC258317  78.349  97.964  39.541
 8968DT     SC358318  78.216  98.252  39.472
 8969DA     BB158319  78.991  97.812  39.248
 8969DA     BB258320  78.740  97.569  39.359
 8969DA     BB358321  78.610  97.518  39.198
 8969DA     SC158322  78.403  97.742  39.260
 8969DA     SC258323  78.170  97.759  39.346
 8969DA     SC358324  78.168  97.991  39.238
 8969DA     SC458325  78.422  97.883  39.185
 8970DT     BB158326  78.636  97.351  39.176
 8970DT     BB258327  78.319  97.234  39.304
 8970DT     BB358328  78.183  97.215  39.149
 8970DT     SC158329  78.152  97.475  39.134
 8970DT     SC258330  77.955  97.528  39.202
 8970DT     SC358331  78.156  97.720  39.036
 8971DT     BB158332  78.215  96.963  39.204
 8971DT     BB258333  77.859  97.020  39.223
 8971DT     BB358334  77.778  97.023  39.033
 8971DT     SC158335  77.877  97.261  38.985
 8971DT     SC258336  77.716  97.404  38.975
 8971DT     SC358337  78.021  97.452  38.874
 8972DT     BB158338  77.668  96.786  39.090
 8972DT     BB258339  77.392  96.989  38.977
 8972DT     BB358340  77.382  96.987  38.770
 8972DT     SC158341  77.589  97.148  38.751
 8972DT     SC258342  77.523  97.339  38.679
 8972DT     SC358343  77.830  97.235  38.692
 8973DA     BB158344  76.994  96.870  38.883
 8973DA     BB258345  76.958  97.123  38.621
 8973DA     BB358346  77.004  97.040  38.430
 8973DA     SC158347  77.306  97.114  38.444
 8973DA     SC258348  77.462  97.273  38.331
 8973DA     SC358349  77.648  97.118  38.415
 8973DA     SC458350  77.407  97.005  38.504
 8974DA     BB158351  76.702  97.135  38.316
 8974DA     BB258352  76.872  97.341  38.065
 8974DA     BB358353  76.935  97.221  37.900
 8974DA     SC158354  77.215  97.160  38.022
 8974DA     SC258355  77.453  97.219  37.976
 8974DA     SC358356  77.510  97.011  38.115
 8974DA     SC458357  77.230  97.026  38.110
 8975DT     BB158358  76.851  97.223  37.681
 8975DT     BB258359  77.132  97.390  37.529
 8975DT     BB358360  77.233  97.259  37.404
 8975DT     SC158361  77.339  97.133  37.609
 8975DT     SC258362  77.550  97.173  37.616
 8975DT     SC358363  77.396  96.940  37.779
 8976DT     BB158364  77.141  97.364  37.152
 8976DT     BB258365  77.500  97.378  37.121
 8976DT     BB358366  77.570  97.205  37.032
 8976DT     SC158367  77.532  97.066  37.251
 8976DT     SC258368  77.722  97.012  37.335
 8976DT     SC358369  77.435  96.885  37.417
 8977DT     BB158370  77.627  97.315  36.772
 8977DT     BB258371  77.942  97.172  36.873
 8977DT     BB358372  77.958  96.978  36.802
 8977DT     SC158373  77.788  96.890  36.982
 8977DT     SC258374  77.893  96.767  37.124
 8977DT     SC358375  77.572  96.783  37.087
 8978DT     BB158376  78.145  97.034  36.594
 8978DT     BB258377  78.310  96.781  36.792
 8978DT     BB358378  78.267  96.593  36.717
 8978DT     SC158379  78.024  96.600  36.814
 8978DT     SC258380  78.007  96.458  36.975
 8978DT     SC358381  77.760  96.604  36.824
 8979DA     BB158382  78.687  96.600  36.726
 8979DA     BB258383  78.580  96.292  36.894
 8979DA     BB358384  78.522  96.145  36.751
 8979DA     SC158385  78.224  96.232  36.745
 8979DA     SC258386  78.004  96.141  36.818
 8979DA     SC358387  77.902  96.306  36.650
 8979DA     SC458388  78.180  96.340  36.634
 8980DC     BB158389  78.635  95.963  36.723
 8980DC     BB258390  78.400  95.751  36.898
 8980DC     BB358391  78.303  95.627  36.763
 8980DC     SC158392  78.155  95.825  36.675
 8980DC     SC258393  77.951  95.794  36.737
 8980DC     SC358394  78.052  96.004  36.512
 8981DC     BB158395  78.443  95.410  36.856
 8981DC     BB258396  78.096  95.325  36.909
 8981DC     BB358397  78.020  95.232  36.741
 8981DC     SC158398  78.009  95.458  36.609
 8981DC     SC258399  77.804  95.515  36.581
 8981DC     SC358400  78.059  95.641  36.426
 8982DT     BB158401  78.015  95.022  36.899
 8982DT     BB258402  77.673  95.075  36.796
 8982DT     BB358403  77.641  94.991  36.610
 8982DT     SC158404  77.772  95.185  36.492
 8982DT     SC258405  77.635  95.306  36.379
 8982DT     SC358406  77.958  95.310  36.352
 8983DA     BB158407  77.347  94.890  36.892
 8983DA     BB258408  77.182  95.001  36.584
 8983DA     BB358409  77.211  94.858  36.428
 8983DA     SC158410  77.472  94.991  36.322
 8983DA     SC258411  77.546  95.117  36.120
 8983DA     SC358412  77.783  95.051  36.190
 8983DA     SC458413  77.612  94.938  36.382
 8984DA     BB158414  76.892  94.927  36.445
 8984DA     BB258415  76.925  95.028  36.094
 8984DA     BB358416  76.965  94.858  35.972
 8984DA     SC158417  77.274  94.884  35.995
 8984DA     SC258418  77.466  94.945  35.848
 8984DA     SC358419  77.611  94.823  36.021
 8984DA     SC458420  77.347  94.803  36.113
 8985DT     BB158421  76.829  94.830  35.857
 8985DT     BB258422  76.996  94.929  35.554
 8985DT     BB358423  77.069  94.762  35.455
 8985DT     SC158424  77.264  94.735  35.628
 8985DT     SC258425  77.451  94.782  35.533
 8985DT     SC358426  77.416  94.631  35.818
 8986DC     BB158427  76.878  94.805  35.275
 8986DC     BB258428  77.184  94.793  35.084
 8986DC     BB358429  77.234  94.596  35.043
 8986DC     SC158430  77.314  94.557  35.290
 8986DC     SC258431  77.528  94.534  35.293
 8986DC     SC358432  77.325  94.459  35.535
 8987DC     BB158433  77.161  94.622  34.780
 8987DC     BB258434  77.499  94.497  34.764
 8987DC     BB358435  77.499  94.291  34.770
 8987DC     SC158436  77.445  94.291  35.027
 8987DC     SC258437  77.617  94.220  35.136
 8987DC     SC358438  77.316  94.251  35.253
 8988DT     BB158439  77.555  94.253  34.496
 8988DT     BB258440  77.811  94.060  34.661
 8988DT     BB358441  77.746  93.865  34.690
 8988DT     SC158442  77.588  93.939  34.885
 8988DT     SC258443  77.664  93.862  35.071
 8988DT     SC358444  77.367  93.983  35.023
 8989DG     BB158445  78.073  93.792  34.448
 8989DG     BB258446  78.088  93.587  34.746
 8989DG     BB358447  77.978  93.423  34.721
 8989DG     SC158448  77.721  93.550  34.831
 8989DG     SC258449  77.582  93.474  35.084
 8989DG     SC358450  77.418  93.664  34.926
 8989DG     SC458451  77.624  93.628  34.730
 8990DT     BB158452  78.045  93.172  34.707
 8990DT     BB258453  77.942  93.063  35.036
 8990DT     BB358454  77.781  92.935  35.020
 8990DT     SC158455  77.618  93.134  34.967
 8990DT     SC258456  77.485  93.163  35.133
 8990DT     SC358457  77.448  93.287  34.836
 8991DA     BB158458  78.051  92.696  35.238
 8991DA     BB258459  77.734  92.693  35.422
 8991DA     BB358460  77.596  92.557  35.331
 8991DA     SC158461  77.471  92.771  35.143
 8991DA     SC258462  77.255  92.892  35.119
 8991DA     SC358463  77.329  92.936  34.877
 8991DA     SC458464  77.535  92.787  34.996
 8992DG     BB158465  77.598  92.398  35.602
 8992DG     BB258466  77.255  92.511  35.618
 8992DG     BB358467  77.137  92.383  35.522
 8992DG     SC158468  77.162  92.525  35.252
 8992DG     SC258469  76.943  92.667  35.107
 8992DG     SC358470  77.184  92.643  34.937
 8992DG     SC458471  77.282  92.484  35.154
 8993DC     BB158472  76.976  92.273  35.630
 8993DC     BB258473  76.684  92.455  35.522
 8993DC     BB358474  76.578  92.344  35.384
 8993DC     SC158475  76.755  92.393  35.196
 8993DC     SC258476  76.668  92.523  35.049
 8993DC     SC358477  76.942  92.353  35.015
 8994DA     BB158478  76.323  92.483  35.685
 8994DA     BB258479  76.171  92.561  35.361
 8994DA     BB358480  76.099  92.383  35.268
 8994DA     SC158481  76.364  92.326  35.116
 8994DA     SC258482  76.446  92.329  34.881
 8994DA     SC358483  76.635  92.177  34.966
 8994DA     SC458484  76.472  92.231  35.188
 8995DT     BB158485  75.909  92.377  35.248
 8995DT     BB258486  75.899  92.430  34.891
 8995DT     BB358487  75.867  92.250  34.794
 8995DT     SC158488  76.114  92.173  34.838
 8995DT     SC258489  76.222  92.170  34.652
 8995DT     SC358490  76.317  92.033  34.930
 8996DC     BB158491  75.617  92.333  34.735
 8996DC     BB258492  75.764  92.253  34.415
 8996DC     BB358493  75.741  92.052  34.375
 8996DC     SC158494  75.928  91.988  34.547
 8996DC     SC258495  76.100  91.914  34.441
 8996DC     SC358496  76.046  91.884  34.759
 8997DT     BB158497  75.547  92.101  34.185
 8997DT     BB258498  75.797  91.909  34.008
 8997DT     BB358499  75.757  91.707  34.028
 8997DT     SC158500  75.842  91.706  34.276
 8997DT     SC258501  76.027  91.596  34.288
 8997DT     SC358502  75.841  91.684  34.539
 8998DT     BB158503  75.668  91.682  33.766
 8998DT     BB258504  75.934  91.439  33.792
 8998DT     BB358505  75.858  91.257  33.854
 8998DT     SC158506  75.829  91.345  34.100
 8998DT     SC258507  75.971  91.245  34.228
 8998DT     SC358508  75.714  91.417  34.326
 8999DT     BB158509  75.892  91.148  33.605
 8999DT     BB258510  76.080  90.932  33.823
 8999DT     BB358511  75.958  90.782  33.897
 8999DT     SC158512  75.840  90.949  34.062
 8999DT     SC258513  75.896  90.901  34.264
 8999DT     SC358514  75.651  91.093  34.175
 9000DG     BB158515  76.272  90.607  33.707
 9000DG     BB258516  76.235  90.482  34.044
 9000DG     BB358517  76.087  90.349  34.051
 9000DG     SC158518  75.871  90.557  34.113
 9000DG     SC258519  75.717  90.580  34.368
 9000DG     SC358520  75.606  90.760  34.161
 9000DG     SC458521  75.796  90.629  33.991
 9001DA     BB158522  76.327  90.160  34.208
 9001DA     BB258523  76.110  90.132  34.502
 9001DA     BB358524  75.948  89.998  34.463
 9001DA     SC158525  75.757  90.220  34.358
 9001DA     SC258526  75.549  90.334  34.433
 9001DA     SC358527  75.520  90.399  34.187
 9001DA     SC458528  75.757  90.249  34.200
 9002DT     BB158529  75.964  89.859  34.572
 9002DT     BB258530  75.686  89.938  34.788
 9002DT     BB358531  75.517  89.836  34.727
 9002DT     SC158532  75.484  89.997  34.523
 9002DT     SC258533  75.310  90.118  34.555
 9002DT     SC358534  75.466  90.081  34.273
 9003DT     BB158535  75.550  89.693  34.947
 9003DT     BB258536  75.215  89.824  34.970
 9003DT     BB358537  75.085  89.706  34.860
 9003DT     SC158538  75.175  89.804  34.634
 9003DT     SC258539  75.023  89.926  34.543
 9003DT     SC358540  75.289  89.816  34.396
 9004DT     BB158541  74.981  89.611  35.090
 9004DT     BB258542  74.696  89.739  34.910
 9004DT     BB358543  74.624  89.595  34.780
 9004DT     SC158544  74.825  89.633  34.614
 9004DT     SC258545  74.752  89.726  34.434
 9004DT     SC358546  75.041  89.584  34.472
 9005DC     BB158547  74.405  89.550  34.937
 9005DC     BB258548  74.266  89.629  34.614
 9005DC     BB358549  74.252  89.458  34.499
 9005DC     SC158550  74.510  89.455  34.456
 9005DC     SC258551  74.549  89.502  34.250
 9005DC     SC358552  74.762  89.375  34.460
 9006DT     BB158553  73.977  89.444  34.525
 9006DT     BB258554  74.031  89.448  34.168
 9006DT     BB358555  74.056  89.255  34.098
 9006DT     SC158556  74.299  89.243  34.198
 9006DT     SC258557  74.442  89.242  34.037
 9006DT     SC358558  74.503  89.166  34.347
 9007DA     BB158559  73.748  89.411  33.859
 9007DA     BB258560  73.997  89.261  33.635
 9007DA     BB358561  73.982  89.048  33.639
 9007DA     SC158562  74.187  89.014  33.870
 9007DA     SC258563  74.418  88.925  33.900
 9007DA     SC358564  74.358  88.908  34.149
 9007DA     SC458565  74.130  89.009  34.020
 9008DG     BB158566  73.916  89.063  33.332
 9008DG     BB258567  74.231  88.889  33.300
 9008DG     BB358568  74.203  88.693  33.321
 9008DG     SC158569  74.243  88.696  33.625
 9008DG     SC258570  74.470  88.569  33.772
 9008DG     SC358571  74.263  88.665  33.960
 9008DG     SC458572  74.117  88.721  33.720
 9009DA     BB158573  74.371  88.654  33.021
 9009DA     BB258574  74.628  88.454  33.190
 9009DA     BB358575  74.556  88.257  33.226
 9009DA     SC158576  74.440  88.323  33.506
 9009DA     SC258577  74.491  88.270  33.745
 9009DA     SC358578  74.248  88.337  33.791
 9009DA     SC458579  74.286  88.368  33.514
 9010DG     BB158580  74.799  88.184  33.049
 9010DG     BB258581  74.916  88.031  33.355
 9010DG     BB358582  74.831  87.852  33.378
 9010DG     SC158583  74.589  87.959  33.532
 9010DG     SC258584  74.525  87.905  33.818
 9010DG     SC358585  74.301  88.044  33.685
 9010DG     SC458586  74.460  88.007  33.450
 9011DT     BB158587  74.957  87.678  33.384
 9011DT     BB258588  74.950  87.595  33.735
 9011DT     BB358589  74.822  87.436  33.767
 9011DT     SC158590  74.611  87.589  33.735
 9011DT     SC258591  74.510  87.613  33.924
 9011DT     SC358592  74.388  87.685  33.633
 9012DT     BB158593  75.039  87.288  33.817
 9012DT     BB258594  74.838  87.260  34.115
 9012DT     BB358595  74.698  87.110  34.092
 9012DT     SC158596  74.552  87.260  33.933
 9012DT     SC258597  74.370  87.314  34.033
 9012DT     SC358598  74.429  87.344  33.715
 9013DT     BB158599  74.840  86.968  34.268
 9013DT     BB258600  74.509  86.985  34.409
 9013DT     BB358601  74.390  86.836  34.330
 9013DT     SC158602  74.367  86.964  34.102
 9013DT     SC258603  74.165  87.035  34.080
 9013DT     SC358604  74.387  87.019  33.845
 9014DT     BB158605  74.400  86.708  34.567
 9014DT     BB258606  74.048  86.750  34.503
 9014DT     BB358607  73.978  86.594  34.386
 9014DT     SC158608  74.093  86.693  34.172
 9014DT     SC258609  73.941  86.764  34.036
 9014DT     SC358610  74.253  86.714  33.964
 9015DG     BB158611  73.755  86.588  34.727
 9015DG     BB258612  73.544  86.586  34.433
 9015DG     BB358613  73.538  86.403  34.355
 9015DG     SC158614  73.780  86.445  34.173
 9015DG     SC258615  73.776  86.454  33.875
 9015DG     SC358616  74.054  86.451  33.976
 9015DG     SC458617  73.927  86.414  34.230
 9016DA     BB158618  73.189  86.418  34.363
 9016DA     BB258619  73.176  86.369  34.000
 9016DA     BB358620  73.208  86.164  33.952
 9016DA     SC158621  73.516  86.194  33.924
 9016DA     SC258622  73.687  86.188  33.742
 9016DA     SC358623  73.856  86.143  33.929
 9016DA     SC458624  73.606  86.165  34.054
 9017DC     BB158625  73.054  86.042  33.868
 9017DC     BB258626  73.185  86.029  33.533
 9017DC     BB358627  73.262  85.841  33.494
 9017DC     SC158628  73.474  85.889  33.642
 9017DC     SC258629  73.647  85.905  33.515
 9017DC     SC358630  73.650  85.869  33.837
 9018DT     BB158631  73.051  85.769  33.328
 9018DT     BB258632  73.344  85.725  33.122
 9018DT     BB358633  73.417  85.532  33.143
 9018DT     SC158634  73.516  85.588  33.380
 9018DT     SC258635  73.730  85.589  33.370
 9018DT     SC358636  73.554  85.580  33.641
 9019DT     BB158637  73.328  85.455  32.893
 9019DT     BB258638  73.683  85.388  32.885
 9019DT     BB358639  73.720  85.196  32.953
 9019DT     SC158640  73.675  85.267  33.202
 9019DT     SC258641  73.860  85.262  33.312
 9019DT     SC358642  73.563  85.279  33.440
 9020DT     BB158643  73.780  85.110  32.700
 9020DT     BB258644  74.075  85.034  32.893
 9020DT     BB358645  74.057  84.846  32.977
 9020DT     SC158646  73.887  84.934  33.157
 9020DT     SC258647  73.980  84.932  33.350
 9020DT     SC358648  73.663  84.964  33.292
 9021DT     BB158649  74.242  84.746  32.803
 9021DT     BB258650  74.377  84.673  33.130
 9021DT     BB358651  74.305  84.490  33.196
 9021DT     SC158652  74.070  84.593  33.248
 9021DT     SC258653  74.040  84.600  33.461
 9021DT     SC358654  73.810  84.638  33.236
 9022DT     BB158655  74.552  84.394  33.159
 9022DT     BB258656  74.480  84.333  33.507
 9022DT     BB358657  74.374  84.156  33.527
 9022DT     SC158658  74.154  84.268  33.437
 9022DT     SC258659  74.012  84.286  33.597
 9022DT     SC358660  73.947  84.319  33.282
 9023DT     BB158661  74.594  84.050  33.635
 9023DT     BB258662  74.339  84.007  33.886
 9023DT     BB358663  74.231  83.834  33.848
 9023DT     SC158664  74.104  83.948  33.648
 9023DT     SC258665  73.897  83.977  33.702
 9023DT     SC358666  74.020  83.997  33.403
 9024DA     BB158667  74.357  83.833  34.247
 9024DA     BB258668  73.999  83.753  34.240
 9024DA     BB358669  73.969  83.556  34.162
 9024DA     SC158670  73.942  83.651  33.867
 9024DA     SC258671  73.762  83.668  33.695
 9024DA     SC358672  73.955  83.677  33.525
 9024DA     SC458673  74.075  83.654  33.777
 9025DT     BB158674  73.897  83.435  34.288
 9025DT     BB258675  73.565  83.417  34.148
 9025DT     BB358676  73.545  83.244  34.036
 9025DT     SC158677  73.689  83.344  33.841
 9025DT     SC258678  73.562  83.382  33.671
 9025DT     SC358679  73.886  83.376  33.669
 9026DT     BB158680  73.385  83.151  34.229
 9026DT     BB258681  73.186  83.133  33.928
 9026DT     BB358682  73.227  82.957  33.827
 9026DT     SC158683  73.458  83.050  33.743
 9026DT     SC258684  73.448  83.084  33.531
 9026DT     SC358685  73.718  83.074  33.710
 9027DC     BB158686  72.985  82.865  33.901
 9027DC     BB258687  72.987  82.839  33.541
 9027DC     BB358688  73.074  82.661  33.483
 9027DC     SC158689  73.314  82.751  33.540
 9027DC     SC258690  73.425  82.780  33.358
 9027DC     SC358691  73.549  82.774  33.657
 9028DA     BB158692  72.703  82.676  33.287
 9028DA     BB258693  72.957  82.585  33.038
 9028DA     BB358694  73.021  82.383  33.067
 9028DA     SC158695  73.253  82.459  33.260
 9028DA     SC258696  73.503  82.460  33.256
 9028DA     SC358697  73.486  82.464  33.512
 9028DA     SC458698  73.222  82.459  33.417
 9029DT     BB158699  72.977  82.231  32.926
 9029DT     BB258700  73.311  82.199  32.792
 9029DT     BB358701  73.398  82.024  32.859
 9029DT     SC158702  73.436  82.124  33.098
 9029DT     SC258703  73.647  82.154  33.130
 9029DT     SC358704  73.418  82.158  33.359
 9030DA     BB158705  73.437  81.997  32.441
 9030DA     BB258706  73.765  81.923  32.586
 9030DA     BB358707  73.768  81.726  32.667
 9030DA     SC158708  73.676  81.816  32.951
 9030DA     SC258709  73.774  81.833  33.179
 9030DA     SC358710  73.531  81.835  33.261
 9030DA     SC458711  73.518  81.814  32.982
 9031DA     BB158712  74.031  81.668  32.472
 9031DA     BB258713  74.227  81.614  32.777
 9031DA     BB358714  74.193  81.417  32.853
 9031DA     SC158715  73.956  81.502  33.035
 9031DA     SC258716  73.909  81.526  33.279
 9031DA     SC358717  73.662  81.514  33.213
 9031DA     SC458718  73.807  81.492  32.974
 9032DT     BB158719  74.347  81.273  32.855
 9032DT     BB258720  74.414  81.292  33.209
 9032DT     BB358721  74.345  81.122  33.304
 9032DT     SC158722  74.096  81.203  33.283
 9032DT     SC258723  74.020  81.253  33.478
 9032DT     SC358724  73.842  81.209  33.211
 9033DC     BB158725  74.600  81.035  33.342
 9033DC     BB258726  74.460  81.051  33.674
 9033DC     BB358727  74.365  80.873  33.719
 9033DC     SC158728  74.163  80.931  33.563
 9033DC     SC258729  73.988  80.969  33.683
 9033DC     SC358730  73.991  80.917  33.363
 9034DA     BB158731  74.628  80.968  34.032
 9034DA     BB258732  74.302  80.884  34.179
 9034DA     BB358733  74.267  80.674  34.165
 9034DA     SC158734  74.124  80.692  33.889
 9034DA     SC258735  73.894  80.663  33.798
 9034DA     SC358736  74.009  80.631  33.571
 9034DA     SC458737  74.215  80.673  33.757
 9035DT     BB158738  74.259  80.573  34.336
 9035DT     BB258739  73.902  80.519  34.339
 9035DT     BB358740  73.860  80.324  34.284
 9035DT     SC158741  73.912  80.375  34.032
 9035DT     SC258742  73.730  80.369  33.919
 9035DT     SC358743  74.030  80.366  33.797
 9036DA     BB158744  73.659  80.387  34.648
 9036DA     BB258745  73.421  80.236  34.414
 9036DA     BB358746  73.464  80.029  34.387
 9036DA     SC158747  73.654  80.075  34.145
 9036DA     SC258748  73.653  80.032  33.899
 9036DA     SC358749  73.908  80.056  33.915
 9036DA     SC458750  73.810  80.092  34.176
 9037DT     BB158751  73.332  79.871  34.457
 9037DT     BB258752  73.204  79.777  34.133
 9037DT     BB358753  73.280  79.594  34.077
 9037DT     SC158754  73.515  79.699  34.023
 9037DT     SC258755  73.547  79.695  33.810
 9037DT     SC358756  73.773  79.750  34.036
 9038DG     BB158757  72.876  79.530  34.081
 9038DG     BB258758  73.020  79.434  33.763
 9038DG     BB358759  73.100  79.252  33.777
 9038DG     SC158760  73.376  79.353  33.862
 9038DG     SC258761  73.627  79.333  33.703
 9038DG     SC358762  73.684  79.428  33.977
 9038DG     SC458763  73.405  79.375  34.018
 9039DA     BB158764  72.911  79.164  33.501
 9039DA     BB258765  73.218  79.095  33.312
 9039DA     BB358766  73.297  78.904  33.367
 9039DA     SC158767  73.477  79.017  33.594
 9039DA     SC258768  73.720  79.050  33.638
 9039DA     SC358769  73.653  79.064  33.885
 9039DA     SC458770  73.415  79.021  33.743
 9040DT     BB158771  73.297  78.776  33.224
 9040DT     BB258772  73.651  78.794  33.155
 9040DT     BB358773  73.747  78.628  33.235
 9040DT     SC158774  73.726  78.724  33.479
 9040DT     SC258775  73.921  78.779  33.550
 9040DT     SC358776  73.655  78.745  33.732
 9041DA     BB158777  73.851  78.712  32.837
 9041DA     BB258778  74.158  78.663  33.032
 9041DA     BB358779  74.177  78.459  33.090
 9041DA     SC158780  74.026  78.496  33.360
 9041DA     SC258781  74.080  78.495  33.603
 9041DA     SC358782  73.829  78.453  33.638
 9041DA     SC458783  73.867  78.469  33.360
 9042DG     BB158784  74.427  78.547  32.935
 9042DG     BB258785  74.582  78.470  33.252
 9042DG     BB358786  74.582  78.273  33.281
 9042DG     SC158787  74.310  78.269  33.421
 9042DG     SC258788  74.262  78.201  33.708
 9042DG     SC358789  74.007  78.225  33.561
 9042DG     SC458790  74.178  78.253  33.333
 9043DA     BB158791  74.914  78.342  33.351
 9043DA     BB258792  74.872  78.185  33.679
 9043DA     BB358793  74.846  77.975  33.658
 9043DA     SC158794  74.536  77.990  33.639
 9043DA     SC258795  74.339  77.926  33.778
 9043DA     SC358796  74.206  77.938  33.559
 9043DA     SC458797  74.471  78.001  33.492
 9044DT     BB158798  74.989  77.861  33.729
 9044DT     BB258799  74.810  77.729  34.013
 9044DT     BB358800  74.744  77.537  33.972
 9044DT     SC158801  74.554  77.627  33.815
 9044DT     SC258802  74.363  77.593  33.908
 9044DT     SC358803  74.412  77.671  33.597
 9045DT     BB158804  74.933  77.421  34.136
 9045DT     BB258805  74.619  77.292  34.259
 9045DT     BB358806  74.569  77.120  34.155
 9045DT     SC158807  74.501  77.258  33.943
 9045DT     SC258808  74.287  77.248  33.917
 9045DT     SC358809  74.501  77.349  33.696
 9046DT     BB158810  74.631  76.943  34.365
 9046DT     BB258811  74.287  76.867  34.287
 9046DT     BB358812  74.279  76.718  34.143
 9046DT     SC158813  74.350  76.885  33.954
 9046DT     SC258814  74.184  76.919  33.822
 9046DT     SC358815  74.492  76.997  33.762
 9047DT     BB158816  74.195  76.524  34.323
 9047DT     BB258817  73.937  76.529  34.071
 9047DT     BB358818  73.984  76.396  33.920
 9047DT     SC158819  74.167  76.557  33.824
 9047DT     SC258820  74.102  76.636  33.635
 9047DT     SC358821  74.404  76.649  33.751
 9048DT     BB158822  73.786  76.233  34.005
 9048DT     BB258823  73.702  76.309  33.663
 9048DT     BB358824  73.797  76.177  33.535
 9048DT     SC158825  74.028  76.296  33.571
 9048DT     SC258826  74.085  76.396  33.389
 9048DT     SC358827  74.279  76.335  33.641
 9049DG     BB158828  73.395  76.175  33.474
 9049DG     BB258829  73.578  76.234  33.168
 9049DG     BB358830  73.659  76.064  33.103
 9049DG     SC158831  73.920  76.101  33.258
 9049DG     SC258832  74.190  76.147  33.139
 9049DG     SC358833  74.211  76.099  33.430
 9049DG     SC458834  73.930  76.045  33.408
 9050DG     BB158835  73.492  76.142  32.838
 9050DG     BB258836  73.814  76.152  32.673
 9050DG     BB358837  73.877  75.967  32.636
 9050DG     SC158838  74.023  75.938  32.904
 9050DG     SC258839  74.319  75.915  32.941
 9050DG     SC358840  74.177  75.865  33.195
 9050DG     SC458841  73.943  75.883  33.031
 9051DT     BB158842  73.905  75.922  32.440
 9051DT     BB258843  74.265  75.906  32.412
 9051DT     BB358844  74.328  75.709  32.425
 9051DT     SC158845  74.285  75.704  32.684
 9051DT     SC258846  74.473  75.694  32.787
 9051DT     SC358847  74.182  75.636  32.917
 9052DA     BB158848  74.503  75.875  32.080
 9052DA     BB258849  74.764  75.695  32.265
 9052DA     BB358850  74.734  75.485  32.250
 9052DA     SC158851  74.558  75.467  32.505
 9052DA     SC258852  74.576  75.374  32.736
 9052DA     SC358853  74.319  75.384  32.738
 9052DA     SC458854  74.398  75.479  32.486
 9053DT     BB158855  74.868  75.358  32.142
 9053DT     BB258856  75.020  75.201  32.429
 9053DT     BB358857  74.952  75.006  32.448
 9053DT     SC158858  74.719  75.088  32.538
 9053DT     SC258859  74.701  75.036  32.746
 9053DT     SC358860  74.459  75.130  32.551
 9054DC     BB158861  75.189  74.884  32.357
 9054DC     BB258862  75.135  74.736  32.681
 9054DC     BB358863  75.021  74.564  32.663
 9054DC     SC158864  74.803  74.704  32.621
 9054DC     SC258865  74.671  74.684  32.790
 9054DC     SC358866  74.590  74.801  32.499
 9055DT     BB158867  75.234  74.391  32.711
 9055DT     BB258868  74.993  74.306  32.965
 9055DT     BB358869  74.866  74.158  32.895
 9055DT     SC158870  74.738  74.329  32.742
 9055DT     SC258871  74.540  74.360  32.819
 9055DT     SC358872  74.644  74.446  32.525
 9056DA     BB158873  75.017  74.031  33.263
 9056DA     BB258874  74.652  73.999  33.274
 9056DA     BB358875  74.589  73.833  33.156
 9056DA     SC158876  74.555  73.999  32.895
 9056DA     SC258877  74.368  74.079  32.751
 9056DA     SC358878  74.547  74.106  32.569
 9056DA     SC458879  74.681  74.007  32.795
 9057DA     BB158880  74.449  73.785  33.445
 9057DA     BB258881  74.130  73.807  33.265
 9057DA     BB358882  74.100  73.632  33.146
 9057DA     SC158883  74.237  73.752  32.893
 9057DA     SC258884  74.169  73.830  32.666
 9057DA     SC358885  74.416  73.798  32.604
 9057DA     SC458886  74.394  73.724  32.874
 9058DA     BB158887  73.828  73.670  33.322
 9058DA     BB258888  73.654  73.693  33.000
 9058DA     BB358889  73.655  73.504  32.902
 9058DA     SC158890  73.920  73.556  32.749
 9058DA     SC258891  73.993  73.597  32.514
 9058DA     SC358892  74.225  73.526  32.595
 9058DA     SC458893  74.057  73.508  32.818
 9059DT     BB158894  73.486  73.443  32.886
 9059DT     BB258895  73.451  73.491  32.530
 9059DT     BB358896  73.490  73.313  32.431
 9059DT     SC158897  73.748  73.338  32.473
 9059DT     SC258898  73.847  73.379  32.286
 9059DT     SC358899  73.992  73.288  32.561
 9060DT     BB158900  73.230  73.301  32.379
 9060DT     BB258901  73.390  73.278  32.056
 9060DT     BB358902  73.447  73.083  32.020
 9060DT     SC158903  73.648  73.102  32.187
 9060DT     SC258904  73.833  73.099  32.078
 9060DT     SC358905  73.801  73.057  32.398
 9061DT     BB158906  73.245  73.043  31.836
 9061DT     BB258907  73.545  72.955  31.656
 9061DT     BB358908  73.589  72.755  31.686
 9061DT     SC158909  73.675  72.802  31.929
 9061DT     SC258910  73.888  72.774  31.937
 9061DT     SC358911  73.690  72.796  32.193
 9062DT     BB158912  73.509  72.677  31.432
 9062DT     BB258913  73.849  72.558  31.456
 9062DT     BB358914  73.851  72.367  31.536
 9062DT     SC158915  73.800  72.459  31.777
 9062DT     SC258916  73.974  72.434  31.901
 9062DT     SC358917  73.675  72.501  32.004
 9063DT     BB158918  73.913  72.249  31.294
 9063DT     BB258919  74.178  72.142  31.514
 9063DT     BB358920  74.123  71.967  31.610
 9063DT     SC158921  73.959  72.096  31.769
 9063DT     SC258922  74.038  72.095  31.969
 9063DT     SC358923  73.735  72.174  31.884
 9064DT     BB158924  74.298  71.820  31.458
 9064DT     BB258925  74.396  71.752  31.799
 9064DT     BB358926  74.288  71.593  31.874
 9064DT     SC158927  74.073  71.741  31.899
 9064DT     SC258928  74.032  71.772  32.108
 9064DT     SC358929  73.827  71.831  31.864
 9065DC     BB158930  74.509  71.437  31.862
 9065DC     BB258931  74.405  71.420  32.207
 9065DC     BB358932  74.263  71.271  32.231
 9065DC     SC158933  74.078  71.418  32.117
 9065DC     SC258934  73.933  71.478  32.265
 9065DC     SC358935  73.896  71.498  31.943
 9066DA     BB158936  74.559  71.191  32.518
 9066DA     BB258937  74.234  71.177  32.687
 9066DA     BB358938  74.130  70.998  32.634
 9066DA     SC158939  73.985  71.125  32.391
 9066DA     SC258940  73.753  71.192  32.328
 9066DA     SC358941  73.837  71.183  32.086
 9066DA     SC458942  74.056  71.113  32.247
 9067DT     BB158943  74.090  70.835  32.775
 9067DT     BB258944  73.737  70.901  32.815
 9067DT     BB358945  73.627  70.754  32.719
 9067DT     SC158946  73.682  70.855  32.483
 9067DT     SC258947  73.504  70.941  32.399
 9067DT     SC358948  73.778  70.875  32.239
 9068DA     BB158949  73.467  70.729  33.110
 9068DA     BB258950  73.183  70.758  32.879
 9068DA     BB358951  73.144  70.570  32.786
 9068DA     SC158952  73.331  70.625  32.543
 9068DA     SC258953  73.308  70.669  32.299
 9068DA     SC358954  73.554  70.596  32.283
 9068DA     SC458955  73.484  70.575  32.554
 9069DC     BB158956  72.954  70.429  32.815
 9069DC     BB258957  72.799  70.525  32.504
 9069DC     BB358958  72.795  70.364  32.374
 9069DC     SC158959  73.052  70.387  32.325
 9069DC     SC258960  73.080  70.454  32.123
 9069DC     SC358961  73.308  70.327  32.315
 9070DA     BB158962  72.402  70.502  32.400
 9070DA     BB258963  72.498  70.498  32.046
 9070DA     BB358964  72.493  70.299  31.970
 9070DA     SC158965  72.790  70.238  32.039
 9070DA     SC258966  73.004  70.202  31.916
 9070DA     SC358967  73.085  70.089  32.132
 9070DA     SC458968  72.821  70.171  32.181
 9071DA     BB158969  72.325  70.497  31.785
 9071DA     BB258970  72.578  70.420  31.531
 9071DA     BB358971  72.555  70.220  31.461
 9071DA     SC158972  72.748  70.098  31.672
 9071DA     SC258973  72.975  69.994  31.677
 9071DA     SC358974  72.903  69.896  31.903
 9071DA     SC458975  72.685  70.046  31.810
 9072DT     BB158976  72.540  70.284  31.324
 9072DT     BB258977  72.861  70.178  31.197
 9072DT     BB358978  72.852  69.979  31.140
 9072DT     SC158979  72.854  69.898  31.389
 9072DT     SC258980  73.041  69.801  31.431
 9072DT     SC358981  72.774  69.787  31.615
 9073DA     BB158982  73.057  70.273  30.901
 9073DA     BB258983  73.262  69.971  30.932
 9073DA     BB358984  73.162  69.804  30.845
 9073DA     SC158985  73.019  69.720  31.108
 9073DA     SC258986  73.031  69.534  31.274
 9073DA     SC358987  72.795  69.606  31.342
 9073DA     SC458988  72.872  69.780  31.135
 9074DT     BB158989  73.268  69.765  30.725
 9074DT     BB258990  73.381  69.451  30.861
 9074DT     BB358991  73.257  69.298  30.799
 9074DT     SC158992  73.068  69.373  30.965
 9074DT     SC258993  73.048  69.227  31.122
 9074DT     SC358994  72.836  69.462  31.053
 9075DT     BB158995  73.458  69.218  30.645
 9075DT     BB258996  73.371  68.928  30.840
 9075DT     BB358997  73.210  68.830  30.754
 9075DT     SC158998  73.043  69.014  30.838
 9075DT     SC258999  72.916  68.930  30.990
 9075DT     SC359000  72.866  69.209  30.832
 9076DG     BB159001  73.507  68.548  30.758
 9076DG     BB259002  73.201  68.418  30.902
 9076DG     BB359003  73.075  68.365  30.758
 9076DG     SC159004  72.942  68.640  30.740
 9076DG     SC259005  72.659  68.702  30.814
 9076DG     SC359006  72.787  68.933  30.681
 9076DG     SC459007  73.004  68.750  30.642
 9077DA     BB159008  73.045  68.046  30.900
 9077DA     BB259009  72.685  68.099  30.947
 9077DA     BB359010  72.581  68.070  30.763
 9077DA     SC159011  72.601  68.368  30.676
 9077DA     SC259012  72.448  68.563  30.648
 9077DA     SC359013  72.632  68.660  30.498
 9077DA     SC459014  72.727  68.411  30.585
 9078DT     BB159015  72.450  67.912  30.743
 9078DT     BB259016  72.147  68.107  30.766
 9078DT     BB359017  72.059  68.122  30.579
 9078DT     SC159018  72.239  68.296  30.500
 9078DT     SC259019  72.147  68.489  30.478
 9078DT     SC359020  72.437  68.403  30.362
 9079DT     BB159021  71.870  67.961  30.674
 9079DT     BB259022  71.697  68.260  30.572
 9079DT     BB359023  71.656  68.252  30.369
 9079DT     SC159024  71.907  68.302  30.309
 9079DT     SC259025  71.922  68.499  30.223
 9079DT     SC359026  72.150  68.269  30.213
 9080DC     BB159027  71.409  68.229  30.452
 9080DC     BB259028  71.411  68.520  30.238
 9080DC     BB359029  71.401  68.462  30.040
 9080DC     SC159030  71.652  68.384  30.042
 9080DC     SC259031  71.769  68.518  29.920
 9080DC     SC359032  71.863  68.227  30.027
 9081DA     BB159033  71.120  68.763  30.125
 9081DA     BB259034  71.293  68.851  29.814
 9081DA     BB359035  71.238  68.716  29.658
 9081DA     SC159036  71.469  68.516  29.716
 9081DA     SC259037  71.680  68.441  29.607
 9081DA     SC359038  71.660  68.233  29.757
 9081DA     SC459039  71.438  68.394  29.817
 9082DA     BB159040  71.174  69.003  29.509
 9082DA     BB259041  71.412  68.899  29.250
 9082DA     BB359042  71.328  68.744  29.130
 9082DA     SC159043  71.439  68.513  29.308
 9082DA     SC259044  71.611  68.334  29.291
 9082DA     SC359045  71.481  68.220  29.481
 9082DA     SC459046  71.344  68.458  29.425
 9083DT     BB159047  71.282  68.778  28.932
 9083DT     BB259048  71.549  68.583  28.787
 9083DT     BB359049  71.474  68.405  28.713
 9083DT     SC159050  71.448  68.305  28.954
 9083DT     SC259051  71.592  68.148  28.982
 9083DT     SC359052  71.335  68.207  29.171
 9084DA     BB159053  71.681  68.570  28.387
 9084DA     BB259054  71.787  68.220  28.416
 9084DA     BB359055  71.634  68.090  28.344
 9084DA     SC159056  71.495  68.059  28.621
 9084DA     SC259057  71.464  67.881  28.793
 9084DA     SC359058  71.267  68.024  28.875
 9084DA     SC459059  71.376  68.161  28.656
 9085DC     BB159060  71.661  67.974  28.169
 9085DC     BB259061  71.703  67.656  28.334
 9085DC     BB359062  71.534  67.540  28.307
 9085DC     SC159063  71.398  67.682  28.480
 9085DC     SC259064  71.362  67.564  28.656
 9085DC     SC359065  71.214  67.842  28.580
 9086DC     BB159066  71.665  67.376  28.131
 9086DC     BB259067  71.544  67.152  28.386
 9086DC     BB359068  71.352  67.090  28.340
 9086DC     SC159069  71.252  67.323  28.409
 9086DC     SC259070  71.137  67.301  28.590
 9086DC     SC359071  71.130  67.556  28.390
 9087DT     BB159072  71.438  66.838  28.272
 9087DT     BB259073  71.188  66.779  28.525
 9087DT     BB359074  71.001  66.765  28.438
 9087DT     SC159075  70.990  67.024  28.399
 9087DT     SC259076  70.842  67.110  28.530
 9087DT     SC359077  70.978  67.256  28.274
 9088DA     BB159078  71.033  66.412  28.665
 9088DA     BB259079  70.708  66.562  28.743
 9088DA     BB359080  70.571  66.531  28.583
 9088DA     SC159081  70.645  66.795  28.436
 9088DA     SC259082  70.538  67.015  28.388
 9088DA     SC359083  70.712  67.035  28.200
 9088DA     SC459084  70.760  66.788  28.324
 9089DT     BB159085  70.386  66.397  28.589
 9089DT     BB259086  70.144  66.664  28.606
 9089DT     BB359087  70.038  66.675  28.429
 9089DT     SC159088  70.242  66.784  28.305
 9089DT     SC259089  70.196  66.989  28.259
 9089DT     SC359090  70.440  66.816  28.133
 9090DC     BB159091  69.787  66.556  28.516
 9090DC     BB259092  69.688  66.879  28.390
 9090DC     BB359093  69.632  66.863  28.191
 9090DC     SC159094  69.882  66.840  28.114
 9090DC     SC259095  69.940  67.017  28.007
 9090DC     SC359096  70.101  66.735  28.011
 9091DT     BB159097  69.347  66.886  28.227
 9091DT     BB259098  69.430  67.159  28.005
 9091DT     BB359099  69.406  67.099  27.809
 9091DT     SC159100  69.626  66.956  27.816
 9091DT     SC259101  69.775  67.049  27.693
 9091DT     SC359102  69.786  66.747  27.810
 9092DT     BB159103  69.187  67.259  27.787
 9092DT     BB259104  69.419  67.385  27.542
 9092DT     BB359105  69.397  67.282  27.364
 9092DT     SC159106  69.519  67.071  27.462
 9092DT     SC259107  69.710  67.048  27.366
 9092DT     SC359108  69.558  66.824  27.545
 9093DA     BB159109  69.393  67.697  27.306
 9093DA     BB259110  69.639  67.550  27.078
 9093DA     BB359111  69.541  67.441  26.923
 9093DA     SC159112  69.541  67.171  27.078
 9093DA     SC259113  69.654  66.949  27.063
 9093DA     SC359114  69.461  66.864  27.208
 9093DA     SC459115  69.412  67.137  27.168
 9094DG     BB159116  69.713  67.653  26.786
 9094DG     BB259117  69.884  67.357  26.666
 9094DG     BB359118  69.776  67.269  26.525
 9094DG     SC159119  69.620  67.091  26.719
 9094DG     SC259120  69.638  66.794  26.738
 9094DG     SC359121  69.417  66.897  26.905
 9094DG     SC459122  69.485  67.147  26.784
 9095DA     BB159123  70.089  67.287  26.385
 9095DA     BB259124  70.081  66.922  26.348
 9095DA     BB359125  69.938  66.865  26.200
 9095DA     SC159126  69.704  66.837  26.404
 9095DA     SC259127  69.567  66.654  26.503
 9095DA     SC359128  69.398  66.838  26.558
 9095DA     SC459129  69.611  66.966  26.428
 9096DT     BB159130  70.029  66.790  26.076
 9096DT     BB259131  69.920  66.451  26.139
 9096DT     BB359132  69.757  66.407  26.020
 9096DT     SC159133  69.598  66.552  26.170
 9096DT     SC259134  69.463  66.423  26.277
 9096DT     SC359135  69.432  66.744  26.243
 9097DA     BB159136  70.056  66.108  26.011
 9097DA     BB259137  69.729  65.949  26.061
 9097DA     BB359138  69.609  65.970  25.886
 9097DA     SC159139  69.479  66.237  25.978
 9097DA     SC259140  69.255  66.317  26.052
 9097DA     SC359141  69.340  66.551  25.990
 9097DA     SC459142  69.550  66.374  25.931
 9098DT     BB159143  69.576  65.808  25.814
 9098DT     BB259144  69.226  65.787  25.900
 9098DT     BB359145  69.111  65.848  25.739
 9098DT     SC159146  69.170  66.100  25.783
 9098DT     SC259147  68.995  66.203  25.853
 9098DT     SC359148  69.267  66.342  25.744
 9099DA     BB159149  68.968  65.476  25.877
 9099DA     BB259150  68.681  65.699  25.829
 9099DA     BB359151  68.648  65.734  25.621
 9099DA     SC159152  68.830  65.986  25.609
 9099DA     SC259153  68.803  66.232  25.581
 9099DA     SC359154  69.051  66.231  25.514
 9099DA     SC459155  68.985  65.964  25.570
 9100DT     BB159156  68.481  65.663  25.537
 9100DT     BB259157  68.310  65.977  25.492
 9100DT     BB359158  68.322  66.036  25.293
 9100DT     SC159159  68.573  66.106  25.321
 9100DT     SC259160  68.590  66.320  25.309
 9100DT     SC359161  68.835  66.109  25.289
 9101DT     BB159162  68.057  65.973  25.235
 9101DT     BB259163  68.086  66.317  25.133
 9101DT     BB359164  68.149  66.328  24.936
 9101DT     SC159165  68.394  66.261  25.003
 9101DT     SC259166  68.524  66.431  24.976
 9101DT     SC359167  68.619  66.123  25.017
 9102DG     BB159168  67.785  66.518  24.903
 9102DG     BB259169  68.047  66.720  24.757
 9102DG     BB359170  68.085  66.659  24.572
 9102DG     SC159171  68.298  66.457  24.656
 9102DG     SC259172  68.590  66.473  24.594
 9102DG     SC359173  68.522  66.211  24.714
 9102DG     SC459174  68.254  66.307  24.693
 9103DT     BB159175  68.051  66.780  24.351
 9103DT     BB259176  68.393  66.871  24.278
 9103DT     BB359177  68.462  66.762  24.116
 9103DT     SC159178  68.485  66.545  24.263
 9103DT     SC259179  68.693  66.499  24.289
 9103DT     SC359180  68.445  66.300  24.351
 9104DA     BB159181  68.534  67.159  24.003
 9104DA     BB259182  68.847  66.973  23.956
 9104DA     BB359183  68.837  66.855  23.778
 9104DA     SC159184  68.723  66.604  23.923
 9104DA     SC259185  68.801  66.375  23.984
 9104DA     SC359186  68.552  66.318  24.005
 9104DA     SC459187  68.563  66.588  23.929
 9105DA     BB159188  69.113  67.018  23.710
 9105DA     BB259189  69.283  66.693  23.717
 9105DA     BB359190  69.244  66.585  23.537
 9105DA     SC159191  68.991  66.442  23.648
 9105DA     SC259192  68.924  66.211  23.715
 9105DA     SC359193  68.683  66.294  23.686
 9105DA     SC459194  68.849  66.512  23.624
 9106DA     BB159195  69.570  66.576  23.541
 9106DA     BB259196  69.539  66.212  23.562
 9106DA     BB359197  69.484  66.131  23.372
 9106DA     SC159198  69.178  66.148  23.427
 9106DA     SC259199  68.989  65.990  23.467
 9106DA     SC359200  68.838  66.186  23.398
 9106DA     SC459201  69.101  66.281  23.379
 9107DC     BB159202  69.617  66.018  23.294
 9107DC     BB259203  69.450  65.705  23.357
 9107DC     BB359204  69.359  65.637  23.184
 9107DC     SC159205  69.167  65.815  23.206
 9107DC     SC259206  68.982  65.716  23.254
 9107DC     SC359207  69.013  66.021  23.149
 9108DC     BB159208  69.546  65.446  23.176
 9108DC     BB259209  69.231  65.269  23.183
 9108DC     BB359210  69.155  65.253  22.991
 9108DC     SC159211  69.084  65.506  22.989
 9108DC     SC259212  68.870  65.520  22.994
 9108DC     SC359213  69.074  65.760  22.921
 9109DT     BB159214  69.213  64.993  23.005
 9109DT     BB259215  68.859  65.007  22.937
 9109DT     BB359216  68.827  65.027  22.733
 9109DT     SC159217  68.899  65.279  22.739
 9109DT     SC259218  68.727  65.403  22.704
 9109DT     SC359219  69.036  65.499  22.691
 9110DA     BB159220  68.595  64.710  22.880
 9110DA     BB259221  68.379  64.927  22.678
 9110DA     BB359222  68.426  64.906  22.471
 9110DA     SC159223  68.636  65.136  22.471
 9110DA     SC259224  68.658  65.366  22.378
 9110DA     SC359225  68.910  65.334  22.411
 9110DA     SC459226  68.790  65.096  22.498
 9111DT     BB159227  68.286  64.830  22.365
 9111DT     BB259228  68.187  65.133  22.197
 9111DT     BB359229  68.265  65.137  22.006
 9111DT     SC159230  68.505  65.191  22.095
 9111DT     SC259231  68.558  65.392  22.041
 9111DT     SC359232  68.762  65.165  22.148
 9112DC     BB159233  68.015  65.101  21.924
 9112DC     BB259234  68.124  65.404  21.762
 9112DC     BB359235  68.229  65.358  21.590
 9112DC     SC159236  68.439  65.283  21.728
 9112DC     SC259237  68.598  65.425  21.700
 9112DC     SC359238  68.628  65.129  21.829
 9113DT     BB159239  68.020  65.451  21.454
 9113DT     BB259240  68.300  65.644  21.335
 9113DT     BB359241  68.399  65.541  21.186
 9113DT     SC159242  68.506  65.376  21.359
 9113DT     SC259243  68.718  65.413  21.372
 9113DT     SC359244  68.563  65.152  21.486
 9114DT     BB159245  68.301  65.719  21.011
 9114DT     BB259246  68.659  65.731  20.963
 9114DT     BB359247  68.717  65.582  20.832
 9114DT     SC159248  68.685  65.397  21.015
 9114DT     SC259249  68.878  65.320  21.073
 9114DT     SC359250  68.591  65.185  21.140
 9115DC     BB159251  68.763  65.768  20.638
 9115DC     BB259252  69.076  65.590  20.666
 9115DC     BB359253  69.073  65.422  20.545
 9115DC     SC159254  68.914  65.295  20.711
 9115DC     SC259255  69.022  65.135  20.805
 9115DC     SC359256  68.700  65.173  20.805
 9116DA     BB159257  69.423  65.626  20.434
 9116DA     BB259258  69.512  65.274  20.483
 9116DA     BB359259  69.442  65.156  20.320
 9116DA     SC159260  69.168  65.093  20.452
 9116DA     SC259261  69.052  64.895  20.551
 9116DA     SC359262  68.836  65.028  20.512
 9116DA     SC459263  69.045  65.191  20.419
 9117DT     BB159264  69.574  65.058  20.174
 9117DT     BB259265  69.529  64.721  20.295
 9117DT     BB359266  69.416  64.612  20.160
 9117DT     SC159267  69.196  64.735  20.235
 9117DT     SC259268  69.069  64.596  20.341
 9117DT     SC359269  68.979  64.885  20.224
 9118DT     BB159270  69.629  64.459  20.054
 9118DT     BB259271  69.394  64.210  20.168
 9118DT     BB359272  69.265  64.159  20.014
 9118DT     SC159273  69.134  64.385  20.039
 9118DT     SC259274  68.938  64.345  20.119
 9118DT     SC359275  69.034  64.622  19.981
 9119DT     BB159276  69.379  63.904  19.957
 9119DT     BB259277  69.033  63.829  20.030
 9119DT     BB359278  68.922  63.830  19.855
 9119DT     SC159279  68.928  64.092  19.843
 9119DT     SC259280  68.731  64.170  19.882
 9119DT     SC359281  68.980  64.336  19.756
 9120DG     BB159282  68.872  63.452  20.002
 9120DG     BB259283  68.553  63.613  19.943
 9120DG     BB359284  68.505  63.600  19.751
 9120DG     SC159285  68.643  63.862  19.673
 9120DG     SC259286  68.508  64.110  19.578
 9120DG     SC359287  68.801  64.133  19.549
 9120DG     SC459288  68.798  63.859  19.632
 9121DT     BB159289  68.320  63.489  19.680
 9121DT     BB259290  68.101  63.766  19.608
 9121DT     BB359291  68.082  63.790  19.403
 9121DT     SC159292  68.322  63.895  19.385
 9121DT     SC259293  68.306  64.104  19.337
 9121DT     SC359294  68.575  63.925  19.318
 9122DA     BB159295  67.710  63.785  19.597
 9122DA     BB259296  67.724  64.079  19.378
 9122DA     BB359297  67.717  64.019  19.173
 9122DA     SC159298  68.026  63.997  19.143
 9122DA     SC259299  68.209  64.119  19.025
 9122DA     SC359300  68.344  63.903  19.056
 9122DA     SC459301  68.093  63.854  19.170
 9123DA     BB159302  67.485  64.246  19.206
 9123DA     BB259303  67.669  64.435  18.951
 9123DA     BB359304  67.650  64.340  18.761
 9123DA     SC159305  67.905  64.164  18.797
 9123DA     SC259306  68.134  64.150  18.700
 9123DA     SC359307  68.135  63.909  18.790
 9123DA     SC459308  67.885  64.017  18.859
 9124DA     BB159309  67.564  64.651  18.703
 9124DA     BB259310  67.839  64.656  18.461
 9124DA     BB359311  67.791  64.535  18.292
 9124DA     SC159312  67.917  64.277  18.410
 9124DA     SC259313  68.115  64.131  18.367
 9124DA     SC359314  67.986  63.952  18.498
 9124DA     SC459315  67.821  64.178  18.493
 9125DA     BB159316  67.867  64.815  18.134
 9125DA     BB259317  68.128  64.625  17.960
 9125DA     BB359318  68.041  64.496  17.814
 9125DA     SC159319  68.011  64.255  18.007
 9125DA     SC259320  68.113  64.029  18.039
 9125DA     SC359321  67.901  63.975  18.173
 9125DA     SC459322  67.871  64.240  18.086
 9126DT     BB159323  68.071  64.528  17.607
 9126DT     BB259324  68.297  64.252  17.552
 9126DT     BB359325  68.200  64.101  17.450
 9126DT     SC159326  68.067  64.030  17.665
 9126DT     SC259327  68.137  63.839  17.733
 9126DT     SC359328  67.864  63.985  17.828
 9127DA     BB159329  68.540  64.173  17.214
 9127DA     BB259330  68.522  63.811  17.271
 9127DA     BB359331  68.372  63.724  17.147
 9127DA     SC159332  68.145  63.756  17.357
 9127DA     SC259333  68.007  63.609  17.504
 9127DA     SC359334  67.844  63.808  17.516
 9127DA     SC459335  68.056  63.890  17.351
 9128DT     BB159336  68.419  63.588  16.987
 9128DT     BB259337  68.314  63.289  17.158
 9128DT     BB359338  68.139  63.217  17.074
 9128DT     SC159339  67.997  63.406  17.187
 9128DT     SC259340  67.872  63.320  17.339
 9128DT     SC359341  67.841  63.617  17.213
 9129DA     BB159342  68.417  62.905  17.092
 9129DA     BB259343  68.104  62.787  17.242
 9129DA     BB359344  67.958  62.752  17.090
 9129DA     SC159345  67.841  63.040  17.102
 9129DA     SC259346  67.631  63.151  17.177
 9129DA     SC359347  67.703  63.345  17.025
 9129DA     SC459348  67.903  63.150  17.001
 9130DA     BB159349  67.971  62.483  17.270
 9130DA     BB259350  67.617  62.547  17.343
 9130DA     BB359351  67.498  62.512  17.170
 9130DA     SC159352  67.518  62.806  17.068
 9130DA     SC259353  67.367  63.003  17.043
 9130DA     SC359354  67.541  63.088  16.874
 9130DA     SC459355  67.637  62.841  16.965
 9131DG     BB159356  67.388  62.331  17.389
 9131DG     BB259357  67.095  62.537  17.339
 9131DG     BB359358  67.005  62.487  17.169
 9131DG     SC159359  67.165  62.685  16.998
 9131DG     SC259360  67.054  62.925  16.859
 9131DG     SC359361  67.335  62.876  16.779
 9131DG     SC459362  67.304  62.638  16.936
 9132DA     BB159363  66.738  62.486  17.387
 9132DA     BB259364  66.568  62.727  17.168
 9132DA     BB359365  66.513  62.635  16.984
 9132DA     SC159366  66.779  62.708  16.840
 9132DA     SC259367  66.853  62.860  16.657
 9132DA     SC359368  67.059  62.708  16.641
 9132DA     SC459369  66.898  62.601  16.845
 9133DA     BB159370  66.229  62.767  17.081
 9133DA     BB259371  66.232  62.951  16.763
 9133DA     BB359372  66.194  62.818  16.601
 9133DA     SC159373  66.494  62.752  16.551
 9133DA     SC259374  66.667  62.798  16.378
 9133DA     SC359375  66.791  62.597  16.478
 9133DA     SC459376  66.555  62.624  16.627
 9134DA     BB159377  65.963  63.045  16.539
 9134DA     BB259378  66.124  63.093  16.214
 9134DA     BB359379  66.083  62.929  16.085
 9134DA     SC159380  66.334  62.766  16.171
 9134DA     SC259381  66.551  62.696  16.072
 9134DA     SC359382  66.554  62.517  16.256
 9134DA     SC459383  66.316  62.662  16.292
 9135DA     BB159384  65.979  63.166  15.881
 9135DA     BB259385  66.232  63.050  15.642
 9135DA     BB359386  66.168  62.869  15.549
 9135DA     SC159387  66.301  62.684  15.762
 9135DA     SC259388  66.492  62.525  15.774
 9135DA     SC359389  66.373  62.430  15.981
 9135DA     SC459390  66.211  62.638  15.887
 9136DT     BB159391  66.124  62.867  15.349
 9136DT     BB259392  66.416  62.685  15.239
 9136DT     BB359393  66.364  62.490  15.192
 9136DT     SC159394  66.343  62.426  15.445
 9136DT     SC259395  66.503  62.292  15.499
 9136DT     SC359396  66.235  62.348  15.673
 9137DT     BB159397  66.390  62.539  14.923
 9137DT     BB259398  66.608  62.258  14.983
 9137DT     BB359399  66.502  62.081  14.966
 9137DT     SC159400  66.386  62.120  15.198
 9137DT     SC259401  66.460  61.976  15.340
 9137DT     SC359402  66.197  62.161  15.377
 9138DT     BB159403  66.613  62.013  14.719
 9138DT     BB259404  66.681  61.725  14.925
 9138DT     BB359405  66.524  61.590  14.913
 9138DT     SC159406  66.372  61.741  15.065
 9138DT     SC259407  66.343  61.645  15.255
 9138DT     SC359408  66.172  61.895  15.141
 9139DA     BB159409  66.851  61.346  14.807
 9139DA     BB259410  66.660  61.164  15.062
 9139DA     BB359411  66.485  61.078  14.976
 9139DA     SC159412  66.305  61.325  15.035
 9139DA     SC259413  66.115  61.383  15.185
 9139DA     SC359414  66.070  61.575  15.020
 9139DA     SC459415  66.293  61.437  14.920
 9140DT     BB159416  66.435  60.846  14.938
 9140DT     BB259417  66.199  60.814  15.209
 9140DT     BB359418  66.008  60.783  15.133
 9140DT     SC159419  65.987  61.035  15.061
 9140DT     SC259420  65.842  61.133  15.186
 9140DT     SC359421  65.962  61.248  14.908
 9141DT     BB159422  65.975  60.495  15.185
 9141DT     BB259423  65.695  60.644  15.357
 9141DT     BB359424  65.528  60.641  15.235
 9141DT     SC159425  65.622  60.837  15.087
 9141DT     SC259426  65.504  61.014  15.120
 9141DT     SC359427  65.714  60.967  14.877
 9142DG     BB159428  65.413  60.426  15.563
 9142DG     BB259429  65.187  60.702  15.502
 9142DG     BB359430  65.056  60.652  15.361
 9142DG     SC159431  65.229  60.752  15.129
 9142DG     SC259432  65.167  60.983  14.951
 9142DG     SC359433  65.400  60.832  14.850
 9142DG     SC459434  65.334  60.652  15.062
 9143DC     BB159435  64.847  60.650  15.412
 9143DC     BB259436  64.737  60.957  15.256
 9143DC     BB359437  64.635  60.914  15.081
 9143DC     SC159438  64.858  60.857  14.955
 9143DC     SC259439  64.899  61.010  14.809
 9143DC     SC359440  65.042  60.719  14.826
 9144DT     BB159441  64.428  61.000  15.218
 9144DT     BB259442  64.449  61.215  14.929
 9144DT     BB359443  64.361  61.123  14.766
 9144DT     SC159444  64.565  60.961  14.737
 9144DT     SC259445  64.672  61.012  14.557
 9144DT     SC359446  64.706  60.738  14.727
 9145DA     BB159447  64.222  61.517  14.815
 9145DA     BB259448  64.313  61.468  14.463
 9145DA     BB359449  64.174  61.336  14.368
 9145DA     SC159450  64.338  61.079  14.434
 9145DA     SC259451  64.472  60.909  14.310
 9145DA     SC359452  64.434  60.760  14.515
 9145DA     SC459453  64.302  61.001  14.569
 9146DT     BB159454  64.069  61.417  14.232
 9146DT     BB259455  64.227  61.258  13.949
 9146DT     BB359456  64.111  61.100  13.883
 9146DT     SC159457  64.184  60.951  14.087
 9146DT     SC259458  64.310  60.791  14.017
 9146DT     SC359459  64.168  60.808  14.308
 9147DG     BB159460  64.141  61.347  13.559
 9147DG     BB259461  64.230  61.008  13.471
 9147DG     BB359462  64.065  60.899  13.446
 9147DG     SC159463  64.047  60.812  13.738
 9147DG     SC259464  64.083  60.533  13.841
 9147DG     SC359465  63.986  60.713  14.055
 9147DG     SC459466  63.967  60.904  13.842
 9148DG     BB159467  64.134  60.821  13.125
 9148DG     BB259468  64.150  60.476  13.234
 9148DG     BB359469  63.969  60.395  13.229
 9148DG     SC159470  63.898  60.474  13.516
 9148DG     SC259471  63.857  60.287  13.745
 9148DG     SC359472  63.781  60.563  13.819
 9148DG     SC459473  63.831  60.617  13.543
 9149DG     BB159474  64.053  60.155  13.010
 9149DG     BB259475  63.986  59.919  13.275
 9149DG     BB359476  63.794  59.867  13.272
 9149DG     SC159477  63.705  60.092  13.460
 9149DG     SC259478  63.598  60.057  13.737
 9149DG     SC359479  63.570  60.338  13.647
 9149DG     SC459480  63.665  60.234  13.398
 9150DG     BB159481  63.881  59.554  13.231
 9150DG     BB259482  63.736  59.498  13.558
 9150DG     BB359483  63.540  59.466  13.540
 9150DG     SC159484  63.465  59.761  13.566
 9150DG     SC259485  63.314  59.885  13.791
 9150DG     SC359486  63.348  60.078  13.570
 9150DG     SC459487  63.459  59.852  13.433
 9151DG     BB159488  63.611  59.191  13.691
 9151DG     BB259489  63.403  59.318  13.959
 9151DG     BB359490  63.211  59.288  13.916
 9151DG     SC159491  63.175  59.555  13.771
 9151DG     SC259492  63.006  59.783  13.863
 9151DG     SC359493  63.106  59.830  13.588
 9151DG     SC459494  63.206  59.563  13.614
 9152DA     BB159495  63.255  59.180  14.238
 9152DA     BB259496  62.996  59.418  14.340
 9152DA     BB359497  62.806  59.360  14.261
 9152DA     SC159498  62.838  59.524  13.999
 9152DA     SC259499  62.737  59.728  13.895
 9152DA     SC359500  62.829  59.635  13.674
 9152DA     SC459501  62.902  59.450  13.871
 9153DC     BB159502  62.720  59.334  14.400
 9153DC     BB259503  62.505  59.623  14.374
 9153DC     BB359504  62.334  59.574  14.268
 9153DC     SC159505  62.465  59.574  14.041
 9153DC     SC259506  62.403  59.742  13.922
 9153DC     SC359507  62.572  59.487  13.816
 9154DC     BB159508  62.236  59.614  14.503
 9154DC     BB259509  62.059  59.838  14.283
 9154DC     BB359510  61.917  59.733  14.174
 9154DC     SC159511  62.102  59.628  14.020
 9154DC     SC259512  62.085  59.710  13.822
 9154DC     SC359513  62.255  59.447  13.905
 9155DT     BB159514  61.753  59.868  14.324
 9155DT     BB259515  61.655  59.940  13.984
 9155DT     BB359516  61.543  59.784  13.908
 9155DT     SC159517  61.756  59.633  13.881
 9155DT     SC259518  61.799  59.607  13.672
 9155DT     SC359519  61.925  59.433  13.915
 9156DG     BB159520  61.322  60.126  13.877
 9156DG     BB259521  61.332  59.945  13.564
 9156DG     BB359522  61.212  59.786  13.574
 9156DG     SC159523  61.428  59.598  13.681
 9156DG     SC259524  61.545  59.365  13.536
 9156DG     SC359525  61.635  59.370  13.818
 9156DG     SC459526  61.450  59.588  13.839
 9157DT     BB159527  61.033  59.764  13.443
 9157DT     BB259528  61.138  59.507  13.213
 9157DT     BB359529  61.053  59.326  13.266
 9157DT     SC159530  61.218  59.299  13.469
 9157DT     SC259531  61.355  59.139  13.429
 9157DT     SC359532  61.304  59.277  13.717
 9158DT     BB159533  60.871  59.328  13.057
 9158DT     BB259534  61.043  59.013  13.019
 9158DT     BB359535  60.948  58.866  13.130
 9158DT     SC159536  61.045  58.963  13.354
 9158DT     SC259537  61.190  58.826  13.434
 9158DT     SC359538  61.053  59.073  13.594
 9159DA     BB159539  60.953  58.692  12.746
 9159DA     BB259540  61.080  58.440  12.980
 9159DA     BB359541  60.919  58.354  13.091
 9159DA     SC159542  60.935  58.560  13.323
 9159DA     SC259543  61.002  58.563  13.563
 9159DA     SC359544  60.862  58.778  13.578
 9159DA     SC459545  60.842  58.691  13.312
 9160DT     BB159546  60.848  58.140  13.073
 9160DT     BB259547  60.994  58.026  13.383
 9160DT     BB359548  60.844  57.987  13.521
 9160DT     SC159549  60.804  58.243  13.562
 9160DT     SC259550  60.871  58.295  13.759
 9160DT     SC359551  60.683  58.477  13.568
 9161DT     BB159552  60.862  57.704  13.507
 9161DT     BB259553  60.921  57.779  13.855
 9161DT     BB359554  60.743  57.775  13.959
 9161DT     SC159555  60.670  58.006  13.858
 9161DT     SC259556  60.672  58.156  14.012
 9161DT     SC359557  60.532  58.185  13.721
 9162DA     BB159558  60.993  57.513  14.169
 9162DA     BB259559  60.855  57.752  14.411
 9162DA     BB359560  60.653  57.702  14.458
 9162DA     SC159561  60.532  57.879  14.232
 9162DA     SC259562  60.399  58.090  14.214
 9162DA     SC359563  60.337  58.006  13.979
 9162DA     SC459564  60.504  57.810  14.090
 9163DC     BB159565  60.612  57.644  14.647
 9163DC     BB259566  60.460  57.955  14.750
 9163DC     BB359567  60.255  57.932  14.765
 9163DC     SC159568  60.228  57.932  14.504
 9163DC     SC259569  60.129  58.113  14.443
 9163DC     SC359570  60.171  57.849  14.260
 9164DT     BB159571  60.298  57.957  15.024
 9164DT     BB259572  60.074  58.226  14.936
 9164DT     BB359573  59.879  58.157  14.934
 9164DT     SC159574  59.918  58.032  14.706
 9164DT     SC259575  59.807  58.132  14.551
 9164DT     SC359576  59.939  57.836  14.531
 9165DA     BB159577  59.932  58.516  15.145
 9165DA     BB259578  59.647  58.554  14.918
 9165DA     BB359579  59.484  58.432  14.983
 9165DA     SC159580  59.569  58.185  14.815
 9165DA     SC259581  59.487  58.060  14.615
 9165DA     SC359582  59.632  57.867  14.702
 9165DA     SC459583  59.664  58.076  14.886
 9166DG     BB159584  59.385  58.722  14.964
 9166DG     BB259585  59.164  58.574  14.719
 9166DG     BB359586  59.026  58.463  14.810
 9166DG     SC159587  59.193  58.207  14.804
 9166DG     SC259588  59.130  57.961  14.646
 9166DG     SC359589  59.356  57.913  14.831
 9166DG     SC459590  59.293  58.176  14.924
 9167DT     BB159591  58.844  58.527  14.773
 9167DT     BB259592  58.705  58.268  14.564
 9167DT     BB359593  58.601  58.132  14.681
 9167DT     SC159594  58.825  58.026  14.769
 9167DT     SC259595  58.847  57.828  14.688
 9167DT     SC359596  59.015  57.953  14.936
 9168DT     BB159597  58.375  58.232  14.580
 9168DT     BB259598  58.346  57.877  14.524
 9168DT     BB359599  58.273  57.784  14.695
 9168DT     SC159600  58.505  57.810  14.816
 9168DT     SC259601  58.595  57.616  14.838
 9168DT     SC359602  58.685  57.886  14.992
 9169DT     BB159603  58.006  57.743  14.604
 9169DT     BB259604  58.099  57.415  14.720
 9169DT     BB359605  58.048  57.393  14.919
 9169DT     SC159606  58.248  57.546  14.996
 9169DT     SC259607  58.395  57.426  15.097
 9169DT     SC359608  58.379  57.749  15.101
 9170DT     BB159609  57.783  57.231  14.925
 9170DT     BB259610  57.986  57.044  15.157
 9170DT     BB359611  57.943  57.101  15.351
 9170DT     SC159612  58.073  57.327  15.322
 9170DT     SC259613  58.252  57.322  15.442
 9170DT     SC359614  58.121  57.586  15.307
 9171DA     BB159615  57.815  56.694  15.453
 9171DA     BB259616  58.050  56.788  15.718
 9171DA     BB359617  57.949  56.892  15.874
 9171DA     SC159618  57.994  57.174  15.749
 9171DA     SC259619  58.128  57.378  15.800
 9171DA     SC359620  57.962  57.500  15.646
 9171DA     SC459621  57.880  57.231  15.652
 9172DA     BB159622  58.023  56.681  16.150
 9172DA     BB259623  58.230  56.950  16.288
 9172DA     BB359624  58.116  57.071  16.421
 9172DA     SC159625  58.025  57.271  16.200
 9172DA     SC259626  58.068  57.509  16.137
 9172DA     SC359627  57.848  57.492  16.006
 9172DA     SC459628  57.886  57.241  16.126
 9173DT     BB159629  58.145  57.094  16.659
 9173DT     BB259630  58.321  57.408  16.633
 9173DT     BB359631  58.210  57.559  16.721
 9173DT     SC159632  58.042  57.565  16.520
 9173DT     SC259633  58.068  57.748  16.410
 9173DT     SC359634  57.817  57.545  16.383
 9174DC     BB159635  58.396  57.566  16.916
 9174DC     BB259636  58.405  57.894  16.764
 9174DC     BB359637  58.264  58.017  16.853
 9174DC     SC159638  58.067  57.896  16.729
 9174DC     SC259639  57.983  58.029  16.583
 9174DC     SC359640  57.848  57.754  16.690
 9175DA     BB159641  58.645  58.185  16.811
 9175DA     BB259642  58.397  58.421  16.681
 9175DA     BB359643  58.280  58.502  16.840
 9175DA     SC159644  58.061  58.281  16.824
 9175DA     SC259645  57.822  58.263  16.755
 9175DA     SC359646  57.819  58.048  16.896
 9175DA     SC459647  58.079  58.151  16.918
 9176DA     BB159648  58.392  58.743  16.651
 9176DA     BB259649  58.039  58.831  16.606
 9176DA     BB359650  57.955  58.900  16.790
 9176DA     SC159651  57.861  58.618  16.881
 9176DA     SC259652  57.645  58.497  16.913
 9176DA     SC359653  57.780  58.339  17.064
 9176DA     SC459654  57.962  58.532  16.972
 9177DA     BB159655  57.878  59.128  16.567
 9177DA     BB259656  57.529  59.065  16.661
 9177DA     BB359657  57.492  59.136  16.859
 9177DA     SC159658  57.564  58.865  16.995
 9177DA     SC259659  57.446  58.682  17.116
 9177DA     SC359660  57.677  58.622  17.209
 9177DA     SC459661  57.716  58.845  17.043
 9178DT     BB159662  57.369  59.287  16.875
 9178DT     BB259663  57.091  59.109  17.022
 9178DT     BB359664  57.084  59.145  17.225
 9178DT     SC159665  57.289  58.987  17.268
 9178DT     SC259666  57.222  58.810  17.372
 9178DT     SC359667  57.530  58.906  17.339
 9179DT     BB159668  56.865  59.316  17.207
 9179DT     BB259669  56.760  59.070  17.449
 9179DT     BB359670  56.815  59.130  17.639
 9179DT     SC159671  57.067  59.071  17.594
 9179DT     SC259672  57.122  58.900  17.713
 9179DT     SC359673  57.327  59.100  17.562
 9180DT     BB159674  56.555  59.209  17.728
 9180DT     BB259675  56.661  58.973  17.980
 9180DT     BB359676  56.754  59.073  18.135
 9180DT     SC159677  56.970  59.111  17.991
 9180DT     SC259678  57.131  58.991  18.070
 9180DT     SC359679  57.162  59.235  17.859
 9181DT     BB159680  56.541  59.056  18.327
 9181DT     BB259681  56.820  58.906  18.499
 9181DT     BB359682  56.918  59.049  18.612
 9181DT     SC159683  57.027  59.156  18.398
 9181DT     SC259684  57.238  59.117  18.398
 9181DT     SC359685  57.085  59.332  18.211
 9182DA     BB159686  56.833  58.736  18.877
 9182DA     BB259687  57.189  58.816  18.910
 9182DA     BB359688  57.214  58.997  19.020
 9182DA     SC159689  57.210  59.179  18.767
 9182DA     SC259690  57.370  59.320  18.638
 9182DA     SC359691  57.161  59.436  18.545
 9182DA     SC459692  57.068  59.239  18.722
 9183DT     BB159693  57.304  58.986  19.199
 9183DT     BB259694  57.621  59.122  19.093
 9183DT     BB359695  57.641  59.317  19.160
 9183DT     SC159696  57.471  59.405  18.980
 9183DT     SC259697  57.577  59.523  18.835
 9183DT     SC359698  57.256  59.514  18.874
 9184DA     BB159699  57.981  59.092  19.257
 9184DA     BB259700  58.089  59.404  19.096
 9184DA     BB359701  58.058  59.569  19.226
 9184DA     SC159702  57.771  59.629  19.122
 9184DA     SC259703  57.656  59.806  18.989
 9184DA     SC359704  57.440  59.717  19.094
 9184DA     SC459705  57.648  59.560  19.199
 9185DT     BB159706  58.217  59.645  19.271
 9185DT     BB259707  58.183  59.942  19.069
 9185DT     BB359708  58.118  60.100  19.186
 9185DT     SC159709  57.874  60.003  19.194
 9185DT     SC259710  57.743  60.129  19.080
 9185DT     SC359711  57.651  59.900  19.291
 9186DT     BB159712  58.360  60.193  19.147
 9186DT     BB259713  58.139  60.452  19.027
 9186DT     BB359714  58.070  60.566  19.186
 9186DT     SC159715  57.907  60.375  19.263
 9186DT     SC259716  57.704  60.436  19.227
 9186DT     SC359717  57.798  60.187  19.412
 9187DC     BB159718  58.225  60.758  19.089
 9187DC     BB259719  57.894  60.903  19.106
 9187DC     BB359720  57.857  60.971  19.298
 9187DC     SC159721  57.823  60.727  19.387
 9187DC     SC259722  57.615  60.697  19.436
 9187DC     SC359723  57.861  60.505  19.525
 9188DA     BB159724  57.772  61.289  19.036
 9188DA     BB259725  57.492  61.258  19.271
 9188DA     BB359726  57.550  61.327  19.464
 9188DA     SC159727  57.646  61.048  19.562
 9188DA     SC259728  57.574  60.875  19.726
 9188DA     SC359729  57.816  60.790  19.713
 9188DA     SC459730  57.801  61.012  19.541
 9189DG     BB159731  57.324  61.546  19.439
 9189DG     BB259732  57.181  61.371  19.722
 9189DG     BB359733  57.263  61.437  19.891
 9189DG     SC159734  57.490  61.233  19.889
 9189DG     SC259735  57.528  61.011  20.085
 9189DG     SC359736  57.764  61.036  19.908
 9189DG     SC459737  57.626  61.268  19.812
 9190DT     BB159738  57.148  61.550  20.062
 9190DT     BB259739  57.125  61.290  20.312
 9190DT     BB359740  57.257  61.329  20.467
 9190DT     SC159741  57.463  61.257  20.320
 9190DT     SC259742  57.543  61.072  20.396
 9190DT     SC359743  57.690  61.272  20.187
 9191DA     BB159744  56.887  61.278  20.658
 9191DA     BB259745  57.130  61.066  20.832
 9191DA     BB359746  57.256  61.184  20.957
 9191DA     SC159747  57.472  61.230  20.737
 9191DA     SC259748  57.706  61.160  20.691
 9191DA     SC359749  57.715  61.363  20.534
 9191DA     SC459750  57.458  61.362  20.645
 9192DC     BB159751  57.249  61.167  21.167
 9192DC     BB259752  57.557  60.982  21.202
 9192DC     BB359753  57.703  61.103  21.284
 9192DC     SC159754  57.733  61.232  21.057
 9192DC     SC259755  57.925  61.183  20.972
 9192DC     SC359756  57.734  61.429  20.882
 9193DT     BB159757  57.692  60.973  21.526
 9193DT     BB259758  58.036  60.940  21.423
 9193DT     BB359759  58.146  61.102  21.491
 9193DT     SC159760  58.041  61.259  21.309
 9193DT     SC259761  58.192  61.312  21.164
 9193DT     SC359762  57.905  61.458  21.202
 9194DG     BB159763  58.322  60.768  21.643
 9194DG     BB259764  58.561  60.973  21.465
 9194DG     BB359765  58.618  61.125  21.579
 9194DG     SC159766  58.396  61.313  21.483
 9194DG     SC259767  58.434  61.561  21.322
 9194DG     SC359768  58.154  61.538  21.416
 9194DG     SC459769  58.255  61.312  21.560
 9195DC     BB159770  58.826  61.141  21.633
 9195DC     BB259771  58.933  61.411  21.418
 9195DC     BB359772  58.950  61.586  21.527
 9195DC     SC159773  58.689  61.614  21.536
 9195DC     SC259774  58.631  61.782  21.414
 9195DC     SC359775  58.445  61.632  21.633
 9196DT     BB159776  59.211  61.558  21.493
 9196DT     BB259777  59.131  61.879  21.351
 9196DT     BB359778  59.126  62.023  21.499
 9196DT     SC159779  58.895  61.936  21.588
 9196DT     SC259780  58.742  62.080  21.544
 9196DT     SC359781  58.715  61.831  21.749
 9197DC     BB159782  59.342  62.108  21.378
 9197DC     BB259783  59.114  62.387  21.374
 9197DC     BB359784  59.120  62.486  21.556
 9197DC     SC159785  58.982  62.295  21.673
 9197DC     SC259786  58.786  62.368  21.723
 9197DC     SC359787  58.922  62.097  21.836
 9198DT     BB159788  59.233  62.673  21.413
 9198DT     BB259789  58.948  62.831  21.569
 9198DT     BB359790  58.995  62.885  21.763
 9198DT     SC159791  58.979  62.636  21.844
 9198DT     SC259792  58.806  62.612  21.970
 9198DT     SC359793  59.051  62.401  21.942
 9199DA     BB159794  58.820  63.208  21.559
 9199DA     BB259795  58.662  63.181  21.889
 9199DA     BB359796  58.800  63.236  22.042
 9199DA     SC159797  58.908  62.947  22.083
 9199DA     SC259798  58.897  62.769  22.257
 9199DA     SC359799  59.105  62.672  22.142
 9199DA     SC459800  59.037  62.903  21.998
 9200DT     BB159801  58.760  63.400  22.143
 9200DT     BB259802  58.673  63.247  22.458
 9200DT     BB359803  58.832  63.262  22.590
 9200DT     SC159804  58.964  63.074  22.465
 9200DT     SC259805  58.974  62.898  22.588
 9200DT     SC359806  59.154  62.955  22.325
 9201DA     BB159807  58.518  63.435  22.814
 9201DA     BB259808  58.693  63.203  23.038
 9201DA     BB359809  58.877  63.288  23.102
 9201DA     SC159810  59.043  63.167  22.868
 9201DA     SC259811  59.217  62.992  22.836
 9201DA     SC359812  59.270  63.113  22.616
 9201DA     SC459813  59.061  63.257  22.736
 9202DT     BB159814  58.942  63.370  23.321
 9202DT     BB259815  59.164  63.098  23.405
 9202DT     BB359816  59.360  63.165  23.411
 9202DT     SC159817  59.372  63.178  23.150
 9202DT     SC259818  59.506  63.025  23.077
 9202DT     SC359819  59.396  63.278  22.907
 9203DG     BB159820  59.333  63.051  23.810
 9203DG     BB259821  59.625  62.900  23.657
 9203DG     BB359822  59.778  63.026  23.666
 9203DG     SC159823  59.715  63.159  23.397
 9203DG     SC259824  59.882  63.144  23.150
 9203DG     SC359825  59.664  63.341  23.117
 9203DG     SC459826  59.616  63.285  23.394
 9204DT     BB159827  60.005  63.010  23.794
 9204DT     BB259828  60.222  62.922  23.519
 9204DT     BB359829  60.352  63.078  23.479
 9204DT     SC159830  60.162  63.220  23.366
 9204DT     SC259831  60.199  63.233  23.155
 9204DT     SC359832  59.991  63.416  23.323
 9205DA     BB159833  60.604  62.747  23.532
 9205DA     BB259834  60.697  62.905  23.214
 9205DA     BB359835  60.813  63.080  23.250
 9205DA     SC159836  60.568  63.271  23.259
 9205DA     SC259837  60.470  63.453  23.119
 9205DA     SC359838  60.347  63.523  23.333
 9205DA     SC459839  60.501  63.300  23.403
 9206DA     BB159840  61.016  62.924  23.047
 9206DA     BB259841  60.971  63.206  22.817
 9206DA     BB359842  61.086  63.374  22.881
 9206DA     SC159843  60.858  63.495  23.055
 9206DA     SC259844  60.707  63.693  23.049
 9206DA     SC359845  60.675  63.651  23.300
 9206DA     SC459846  60.852  63.453  23.210
 9207DC     BB159847  61.231  63.427  22.762
 9207DC     BB259848  61.069  63.721  22.629
 9207DC     BB359849  61.150  63.891  22.714
 9207DC     SC159850  61.024  63.848  22.940
 9207DC     SC259851  60.871  63.996  22.966
 9207DC     SC359852  60.983  63.797  23.195
 9208DT     BB159853  61.259  63.938  22.475
 9208DT     BB259854  61.060  64.231  22.547
 9208DT     BB359855  61.168  64.363  22.664
 9208DT     SC159856  61.137  64.213  22.877
 9208DT     SC259857  61.006  64.312  23.015
 9208DT     SC359858  61.196  64.058  23.082
 9209DC     BB159859  61.180  64.519  22.447
 9209DC     BB259860  61.028  64.724  22.702
 9209DC     BB359861  61.174  64.813  22.819
 9209DC     SC159862  61.223  64.587  22.942
 9209DC     SC259863  61.156  64.601  23.146
 9209DC     SC359864  61.352  64.373  23.026
 9210DT     BB159865  61.110  65.046  22.702
 9210DT     BB259866  61.071  65.106  23.056
 9210DT     BB359867  61.253  65.158  23.139
 9210DT     SC159868  61.338  64.911  23.128
 9210DT     SC259869  61.353  64.831  23.327
 9210DT     SC359870  61.483  64.701  23.060
 9211DG     BB159871  60.992  65.461  23.217
 9211DG     BB259872  61.158  65.350  23.519
 9211DG     BB359873  61.342  65.425  23.526
 9211DG     SC159874  61.471  65.190  23.378
 9211DG     SC259875  61.663  64.994  23.493
 9211DG     SC359876  61.641  64.960  23.200
 9211DG     SC459877  61.478  65.195  23.218
 9212DC     BB159878  61.391  65.554  23.687
 9212DC     BB259879  61.604  65.345  23.890
 9212DC     BB359880  61.803  65.393  23.855
 9212DC     SC159881  61.800  65.272  23.623
 9212DC     SC259882  61.921  65.094  23.633
 9212DC     SC359883  61.813  65.235  23.362
 9213DT     BB159884  61.815  65.508  24.100
 9213DT     BB259885  62.081  65.264  24.102
 9213DT     BB359886  62.253  65.345  24.020
 9213DT     SC159887  62.155  65.328  23.778
 9213DT     SC259888  62.262  65.177  23.668
 9213DT     SC359889  62.064  65.400  23.541
 9214DT     BB159890  62.372  65.362  24.267
 9214DT     BB259891  62.605  65.170  24.069
 9214DT     BB359892  62.734  65.298  23.968
 9214DT     SC159893  62.547  65.364  23.797
 9214DT     SC259894  62.595  65.283  23.604
 9214DT     SC359895  62.374  65.512  23.663
 9215DG     BB159896  62.986  65.070  24.197
 9215DG     BB259897  63.090  65.069  23.851
 9215DG     BB359898  63.191  65.236  23.810
 9215DG     SC159899  62.942  65.395  23.727
 9215DG     SC259900  62.880  65.494  23.453
 9215DG     SC359901  62.689  65.604  23.650
 9215DG     SC459902  62.860  65.474  23.840
 9216DG     BB159903  63.475  65.079  23.720
 9216DG     BB259904  63.424  65.217  23.389
 9216DG     BB359905  63.506  65.397  23.378
 9216DG     SC159906  63.255  65.545  23.471
 9216DG     SC259907  63.089  65.730  23.305
 9216DG     SC359908  63.004  65.738  23.589
 9216DG     SC459909  63.232  65.569  23.628
 9217DG     BB159910  63.717  65.316  23.128
 9217DG     BB259911  63.534  65.554  22.925
 9217DG     BB359912  63.614  65.735  22.946
 9217DG     SC159913  63.436  65.813  23.183
 9217DG     SC259914  63.225  66.024  23.183
 9217DG     SC359915  63.273  65.923  23.457
 9217DG     SC459916  63.485  65.778  23.332
 9218DT     BB159917  63.714  65.858  22.772
 9218DT     BB259918  63.450  66.094  22.701
 9218DT     BB359919  63.503  66.282  22.768
 9218DT     SC159920  63.461  66.214  23.018
 9218DT     SC259921  63.287  66.318  23.092
 9218DT     SC359922  63.507  66.162  23.273
 9219DT     BB159923  63.532  66.360  22.511
 9219DT     BB259924  63.280  66.579  22.648
 9219DT     BB359925  63.370  66.742  22.739
 9219DT     SC159926  63.444  66.597  22.944
 9219DT     SC259927  63.332  66.655  23.118
 9219DT     SC359928  63.601  66.474  23.118
 9220DG     BB159929  63.099  66.851  22.457
 9220DG     BB259930  63.031  67.005  22.778
 9220DG     BB359931  63.161  67.152  22.811
 9220DG     SC159932  63.367  66.972  22.948
 9220DG     SC259933  63.446  66.984  23.236
 9220DG     SC359934  63.623  66.801  23.086
 9220DG     SC459935  63.477  66.898  22.859
 9221DC     BB159936  63.065  67.317  22.837
 9221DC     BB259937  63.101  67.373  23.191
 9221DC     BB359938  63.263  67.497  23.227
 9221DC     SC159939  63.432  67.302  23.178
 9221DC     SC259940  63.529  67.244  23.361
 9221DC     SC359941  63.624  67.164  23.061
 9222DA     BB159942  62.913  67.611  23.434
 9222DA     BB259943  63.196  67.615  23.667
 9222DA     BB359944  63.332  67.771  23.617
 9222DA     SC159945  63.505  67.594  23.429
 9222DA     SC259946  63.733  67.494  23.427
 9222DA     SC359947  63.702  67.476  23.174
 9222DA     SC459948  63.467  67.592  23.272
 9223DT     BB159949  63.342  67.903  23.749
 9223DT     BB259950  63.671  67.823  23.872
 9223DT     BB359951  63.810  67.953  23.789
 9223DT     SC159952  63.799  67.829  23.558
 9223DT     SC259953  63.984  67.725  23.523
 9223DT     SC359954  63.757  67.787  23.301
 9224DA     BB159955  63.866  67.958  24.205
 9224DA     BB259956  64.195  67.917  24.048
 9224DA     BB359957  64.257  68.100  23.957
 9224DA     SC159958  64.130  68.034  23.681
 9224DA     SC259959  64.208  67.978  23.451
 9224DA     SC359960  63.974  68.052  23.376
 9224DA     SC459961  63.980  68.086  23.654
 9225DA     BB159962  64.522  68.044  24.144
 9225DA     BB259963  64.716  68.035  23.833
 9225DA     BB359964  64.742  68.233  23.757
 9225DA     SC159965  64.485  68.226  23.582
 9225DA     SC259966  64.426  68.218  23.339
 9225DA     SC359967  64.197  68.306  23.413
 9225DA     SC459968  64.349  68.281  23.647
 9226DA     BB159969  65.054  68.134  23.764
 9226DA     BB259970  65.059  68.189  23.401
 9226DA     BB359971  65.066  68.398  23.358
 9226DA     SC159972  64.757  68.430  23.347
 9226DA     SC259973  64.582  68.475  23.174
 9226DA     SC359974  64.435  68.547  23.371
 9226DA     SC459975  64.681  68.472  23.482
 9227DG     BB159976  65.327  68.310  23.218
 9227DG     BB259977  65.153  68.425  22.923
 9227DG     BB359978  65.163  68.624  22.911
 9227DG     SC159979  64.906  68.671  23.072
 9227DG     SC259980  64.652  68.786  22.967
 9227DG     SC359981  64.641  68.759  23.261
 9227DG     SC459982  64.916  68.682  23.232
 9228DA     BB159983  65.270  68.562  22.588
 9228DA     BB259984  64.996  68.767  22.458
 9228DA     BB359985  65.034  68.974  22.495
 9228DA     SC159986  64.889  68.976  22.770
 9228DA     SC259987  64.681  69.072  22.869
 9228DA     SC359988  64.796  69.038  23.095
 9228DA     SC459989  64.978  68.948  22.901
 9229DT     BB159990  65.067  69.093  22.338
 9229DT     BB259991  64.757  69.278  22.348
 9229DT     BB359992  64.790  69.466  22.430
 9229DT     SC159993  64.810  69.365  22.671
 9229DT     SC259994  64.639  69.424  22.788
 9229DT     SC359995  64.913  69.297  22.904
 9230DG     BB159996  64.651  69.570  22.056
 9230DG     BB259997  64.475  69.756  22.311
 9230DG     BB359998  64.584  69.911  22.370
 9230DG     SC159999  64.728  69.757  22.592
 9230DG     SC260000  64.700  69.805  22.885
 9230DG     SC360001  64.920  69.614  22.830
 9230DG     SC460002  64.863  69.679  22.557
 9231DC     BB160003  64.563  70.189  22.345
 9231DC     BB260004  64.470  70.276  22.683
 9231DC     BB360005  64.623  70.382  22.773
 9231DC     SC160006  64.767  70.165  22.802
 9231DC     SC260007  64.779  70.114  23.011
 9231DC     SC360008  64.966  69.994  22.776
 9232DT     BB160009  64.538  70.681  22.768
 9232DT     BB260010  64.601  70.623  23.119
 9232DT     BB360011  64.790  70.690  23.169
 9232DT     SC160012  64.903  70.485  23.051
 9232DT     SC260013  64.990  70.356  23.200
 9232DT     SC360014  65.049  70.346  22.881
 9233DG     BB160015  64.570  70.940  23.414
 9233DG     BB260016  64.811  70.752  23.607
 9233DG     BB360017  64.987  70.846  23.606
 9233DG     SC160018  65.089  70.705  23.354
 9233DG     SC260019  65.316  70.511  23.342
 9233DG     SC360020  65.224  70.584  23.070
 9233DG     SC460021  65.057  70.768  23.211
 9234DA     BB160022  64.980  70.827  23.950
 9234DA     BB260023  65.280  70.615  23.943
 9234DA     BB360024  65.455  70.734  23.918
 9234DA     SC160025  65.451  70.718  23.608
 9234DA     SC260026  65.586  70.613  23.427
 9234DA     SC360027  65.478  70.786  23.272
 9234DA     SC460028  65.374  70.835  23.528
 9235DC     BB160029  65.563  70.720  24.066
 9235DC     BB260030  65.809  70.504  23.914
 9235DC     BB360031  65.974  70.615  23.856
 9235DC     SC160032  65.845  70.715  23.651
 9235DC     SC260033  65.927  70.635  23.469
 9235DC     SC360034  65.730  70.892  23.492
 9236DC     BB160035  66.083  70.478  24.049
 9236DC     BB260036  66.276  70.401  23.754
 9236DC     BB360037  66.411  70.553  23.716
 9236DC     SC160038  66.221  70.711  23.627
 9236DC     SC260039  66.245  70.737  23.415
 9236DC     SC360040  66.058  70.917  23.610
 9237DG     BB160041  66.590  70.187  23.742
 9237DG     BB260042  66.685  70.364  23.441
 9237DG     BB360043  66.810  70.512  23.486
 9237DG     SC160044  66.588  70.719  23.529
 9237DG     SC260045  66.537  70.960  23.360
 9237DG     SC360046  66.371  70.966  23.605
 9237DG     SC460047  66.523  70.733  23.675
 9238DT     BB160048  67.005  70.506  23.404
 9238DT     BB260049  66.995  70.769  23.157
 9238DT     BB360050  67.083  70.941  23.233
 9238DT     SC160051  66.875  70.990  23.385
 9238DT     SC260052  66.773  71.164  23.312
 9238DT     SC360053  66.730  71.027  23.602
 9239DA     BB160054  67.280  70.872  22.868
 9239DA     BB260055  67.186  71.226  22.877
 9239DA     BB360056  67.313  71.334  23.011
 9239DA     SC160057  67.130  71.291  23.259
 9239DA     SC260058  66.983  71.428  23.405
 9239DA     SC360059  67.009  71.238  23.575
 9239DA     SC460060  67.160  71.163  23.352
 9240DC     BB160061  67.461  71.485  22.947
 9240DC     BB260062  67.277  71.773  23.062
 9240DC     BB360063  67.370  71.855  23.228
 9240DC     SC160064  67.284  71.661  23.382
 9240DC     SC260065  67.136  71.738  23.518
 9240DC     SC360066  67.286  71.452  23.543
 9241DG     BB160067  67.381  72.167  22.962
 9241DG     BB260068  67.232  72.271  23.274
 9241DG     BB360069  67.375  72.316  23.406
 9241DG     SC160070  67.395  72.032  23.518
 9241DG     SC260071  67.319  71.947  23.794
 9241DG     SC360072  67.457  71.729  23.651
 9241DG     SC460073  67.495  71.928  23.449
 9242DA     BB160074  67.207  72.616  23.445
 9242DA     BB260075  67.151  72.535  23.799
 9242DA     BB360076  67.330  72.565  23.911
 9242DA     SC160077  67.432  72.274  23.873
 9242DA     SC260078  67.466  72.070  24.013
 9242DA     SC360079  67.626  71.994  23.828
 9242DA     SC460080  67.530  72.245  23.748
 9243DA     BB160081  67.102  72.734  24.071
 9243DA     BB260082  67.173  72.510  24.353
 9243DA     BB360083  67.364  72.555  24.437
 9243DA     SC160084  67.517  72.354  24.255
 9243DA     SC260085  67.638  72.137  24.281
 9243DA     SC360086  67.751  72.198  24.058
 9243DA     SC460087  67.578  72.410  24.118
 9244DA     BB160088  67.148  72.550  24.682
 9244DA     BB260089  67.355  72.281  24.821
 9244DA     BB360090  67.544  72.358  24.884
 9244DA     SC160091  67.683  72.307  24.610
 9244DA     SC260092  67.857  72.155  24.517
 9244DA     SC360093  67.879  72.328  24.329
 9244DA     SC460094  67.682  72.427  24.503
 9245DA     BB160095  67.424  72.186  25.136
 9245DA     BB260096  67.731  71.987  25.111
 9245DA     BB360097  67.900  72.105  25.165
 9245DA     SC160098  67.955  72.205  24.876
 9245DA     SC260099  68.127  72.171  24.699
 9245DA     SC360100  68.039  72.391  24.600
 9245DA     SC460101  67.887  72.344  24.831
 9246DT     BB160102  67.983  72.043  25.319
 9246DT     BB260103  68.283  71.913  25.166
 9246DT     BB360104  68.436  72.052  25.182
 9246DT     SC160105  68.330  72.202  24.994
 9246DT     SC260106  68.454  72.194  24.819
 9246DT     SC360107  68.219  72.409  24.876
 9247DA     BB160108  68.603  71.700  25.344
 9247DA     BB260109  68.849  71.841  25.112
 9247DA     BB360110  68.940  72.013  25.197
 9247DA     SC160111  68.732  72.212  25.078
 9247DA     SC260112  68.726  72.390  24.904
 9247DA     SC360113  68.516  72.474  25.026
 9247DA     SC460114  68.605  72.249  25.169
 9248DT     BB160115  69.164  72.042  25.274
 9248DT     BB260116  69.275  72.248  24.999
 9248DT     BB360117  69.310  72.441  25.065
 9248DT     SC160118  69.053  72.491  25.080
 9248DT     SC260119  68.999  72.632  24.927
 9248DT     SC360120  68.817  72.549  25.182
 9249DA     BB160121  69.705  72.375  24.915
 9249DA     BB260122  69.589  72.690  24.768
 9249DA     BB360123  69.614  72.850  24.906
 9249DA     SC160124  69.331  72.819  25.032
 9249DA     SC260125  69.117  72.945  25.037
 9249DA     SC360126  69.064  72.808  25.247
 9249DA     SC460127  69.318  72.725  25.162
 9250DG     BB160128  69.831  73.020  24.727
 9250DG     BB260129  69.553  73.248  24.690
 9250DG     BB360130  69.565  73.392  24.828
 9250DG     SC160131  69.402  73.238  25.037
 9250DG     SC260132  69.131  73.314  25.138
 9250DG     SC360133  69.244  73.091  25.296
 9250DG     SC460134  69.477  73.139  25.137
 9251DT     BB160135  69.586  73.616  24.773
 9251DT     BB260136  69.239  73.706  24.809
 9251DT     BB360137  69.214  73.827  24.974
 9251DT     SC160138  69.242  73.624  25.138
 9251DT     SC260139  69.053  73.582  25.232
 9251DT     SC360140  69.342  73.469  25.326
 9252DC     BB160141  69.157  73.992  24.782
 9252DC     BB260142  68.855  73.955  24.976
 9252DC     BB360143  68.863  74.075  25.144
 9252DC     SC160144  69.033  73.912  25.261
 9252DC     SC260145  68.935  73.815  25.426
 9252DC     SC360146  69.255  73.822  25.372
 9253DG     BB160147  68.535  74.087  24.897
 9253DG     BB260148  68.449  74.029  25.244
 9253DG     BB360149  68.482  74.194  25.351
 9253DG     SC160150  68.772  74.120  25.418
 9253DG     SC260151  68.877  74.054  25.689
 9253DG     SC360152  69.098  74.081  25.494
 9253DG     SC460153  68.888  74.165  25.318
 9254DA     BB160154  68.166  74.094  25.446
 9254DA     BB260155  68.281  74.095  25.794
 9254DA     BB360156  68.324  74.294  25.857
 9254DA     SC160157  68.623  74.283  25.772
 9254DA     SC260158  68.846  74.277  25.882
 9254DA     SC360159  68.937  74.358  25.656
 9254DA     SC460160  68.660  74.334  25.624
 9255DA     BB160161  68.121  74.192  26.095
 9255DA     BB260162  68.392  74.269  26.330
 9255DA     BB360163  68.416  74.480  26.349
 9255DA     SC160164  68.625  74.501  26.120
 9255DA     SC260165  68.869  74.549  26.097
 9255DA     SC360166  68.814  74.604  25.852
 9255DA     SC460167  68.570  74.532  25.972
 9256DT     BB160168  68.368  74.585  26.530
 9256DT     BB260169  68.707  74.655  26.633
 9256DT     BB360170  68.749  74.856  26.607
 9256DT     SC160171  68.768  74.826  26.347
 9256DT     SC260172  68.973  74.851  26.287
 9256DT     SC360173  68.716  74.852  26.090
 9257DT     BB160174  68.739  74.922  26.881
 9257DT     BB260175  69.067  75.033  26.779
 9257DT     BB360176  69.059  75.230  26.718
 9257DT     SC160177  68.942  75.164  26.492
 9257DT     SC260178  69.079  75.196  26.329
 9257DT     SC360179  68.759  75.148  26.303
 9258DA     BB160180  69.363  75.212  27.004
 9258DA     BB260181  69.498  75.383  26.709
 9258DA     BB360182  69.424  75.583  26.699
 9258DA     SC160183  69.176  75.508  26.527
 9258DA     SC260184  69.096  75.544  26.293
 9258DA     SC360185  68.863  75.490  26.387
 9258DA     SC460186  69.040  75.473  26.604
 9259DA     BB160187  69.745  75.617  26.676
 9259DA     BB260188  69.683  75.766  26.347
 9259DA     BB360189  69.599  75.961  26.369
 9259DA     SC160190  69.304  75.862  26.367
 9259DA     SC260191  69.107  75.873  26.215
 9259DA     SC360192  68.968  75.820  26.424
 9259DA     SC460193  69.236  75.829  26.508
 9260DT     BB160194  69.714  76.067  26.298
 9260DT     BB260195  69.527  76.151  26.002
 9260DT     BB360196  69.422  76.327  26.032
 9260DT     SC160197  69.246  76.204  26.183
 9260DT     SC260198  69.057  76.195  26.081
 9260DT     SC360199  69.105  76.138  26.396
 9261DT     BB160200  69.594  76.398  25.856
 9261DT     BB260201  69.272  76.485  25.718
 9261DT     BB360202  69.201  76.658  25.807
 9261DT     SC160203  69.142  76.529  26.028
 9261DT     SC260204  68.928  76.518  26.049
 9261DT     SC360205  69.145  76.456  26.281
 9262DC     BB160206  69.248  76.753  25.570
 9262DC     BB260207  68.906  76.841  25.644
 9262DC     BB360208  68.901  77.003  25.771
 9262DC     SC160209  68.972  76.855  25.976
 9262DC     SC260210  68.806  76.836  26.112
 9262DC     SC360211  69.114  76.762  26.177
 9263DT     BB160212  68.822  77.167  25.569
 9263DT     BB260213  68.577  77.225  25.828
 9263DT     BB360214  68.646  77.369  25.960
 9263DT     SC160215  68.814  77.200  26.069
 9263DT     SC260216  68.749  77.154  26.269
 9263DT     SC360217  69.042  77.090  26.145
 9264DG     BB160218  68.306  77.555  25.821
 9264DG     BB260219  68.314  77.561  26.183
 9264DG     BB360220  68.430  77.710  26.246
 9264DG     SC160221  68.686  77.543  26.250
 9264DG     SC260222  68.841  77.466  26.493
 9264DG     SC360223  68.989  77.395  26.246
 9264DG     SC460224  68.775  77.534  26.117
 9265DG     BB160225  68.193  77.885  26.421
 9265DG     BB260226  68.389  77.819  26.718
 9265DG     BB360227  68.523  77.963  26.744
 9265DG     SC160228  68.740  77.825  26.579
 9265DG     SC260229  68.998  77.716  26.684
 9265DG     SC360230  68.994  77.711  26.388
 9265DG     SC460231  68.746  77.851  26.421
 9266DG     BB160232  68.410  78.063  27.047
 9266DG     BB260233  68.728  77.955  27.180
 9266DG     BB360234  68.860  78.103  27.170
 9266DG     SC160235  68.960  78.030  26.891
 9266DG     SC260236  69.233  77.930  26.823
 9266DG     SC360237  69.079  77.990  26.577
 9266DG     SC460238  68.885  78.091  26.763
 9267DA     BB160239  68.928  78.066  27.512
 9267DA     BB260240  69.277  77.986  27.436
 9267DA     BB360241  69.388  78.164  27.397
 9267DA     SC160242  69.333  78.160  27.091
 9267DA     SC260243  69.462  78.121  26.881
 9267DA     SC360244  69.270  78.246  26.764
 9267DA     SC460245  69.205  78.241  27.037
 9268DA     BB160246  69.584  78.045  27.633
 9268DA     BB260247  69.848  78.029  27.380
 9268DA     BB360248  69.928  78.223  27.344
 9268DA     SC160249  69.729  78.289  27.114
 9268DA     SC260250  69.736  78.320  26.867
 9268DA     SC360251  69.514  78.446  26.896
 9268DA     SC460252  69.593  78.365  27.153
 9269DT     BB160253  70.125  78.267  27.396
 9269DT     BB260254  70.259  78.262  27.061
 9269DT     BB360255  70.300  78.455  26.999
 9269DT     SC160256  70.045  78.506  26.963
 9269DT     SC260257  70.005  78.524  26.752
 9269DT     SC360258  69.807  78.617  26.992
 9270DC     BB160259  70.570  78.413  27.020
 9270DC     BB260260  70.521  78.508  26.676
 9270DC     BB360261  70.529  78.714  26.658
 9270DC     SC160262  70.290  78.741  26.765
 9270DC     SC260263  70.152  78.807  26.614
 9270DC     SC360264  70.101  78.811  26.934
 9271DG     BB160265  70.821  78.569  26.414
 9271DG     BB260266  70.597  78.789  26.235
 9271DG     BB360267  70.644  78.978  26.272
 9271DG     SC160268  70.460  79.001  26.516
 9271DG     SC260269  70.215  79.171  26.536
 9271DG     SC360270  70.284  79.055  26.799
 9271DG     SC460271  70.517  78.961  26.660
 9272DA     BB160272  70.646  79.010  25.930
 9272DA     BB260273  70.377  79.258  25.953
 9272DA     BB360274  70.454  79.445  26.022
 9272DA     SC160275  70.407  79.382  26.323
 9272DA     SC260276  70.257  79.460  26.506
 9272DA     SC360277  70.432  79.360  26.664
 9272DA     SC460278  70.528  79.316  26.405
 9273DT     BB160279  70.441  79.587  25.893
 9273DT     BB260280  70.168  79.762  26.051
 9273DT     BB360281  70.239  79.927  26.153
 9273DT     SC160282  70.336  79.777  26.345
 9273DT     SC260283  70.221  79.807  26.524
 9273DT     SC360284  70.510  79.661  26.506
 9274DA     BB160285  69.917  80.030  25.905
 9274DA     BB260286  69.855  80.168  26.239
 9274DA     BB360287  69.989  80.330  26.279
 9274DA     SC160288  70.208  80.149  26.406
 9274DA     SC260289  70.305  80.109  26.632
 9274DA     SC360290  70.505  80.010  26.506
 9274DA     SC460291  70.323  80.093  26.310
 9275DA     BB160292  69.694  80.453  26.344
 9275DA     BB260293  69.819  80.509  26.684
 9275DA     BB360294  69.962  80.668  26.685
 9275DA     SC160295  70.206  80.481  26.639
 9275DA     SC260296  70.404  80.399  26.768
 9275DA     SC360297  70.505  80.345  26.539
 9275DA     SC460298  70.253  80.455  26.487
 9276DG     BB160299  69.750  80.775  26.880
 9276DG     BB260300  70.025  80.751  27.114
 9276DG     BB360301  70.150  80.903  27.089
 9276DG     SC160302  70.323  80.759  26.882
 9276DG     SC260303  70.607  80.675  26.919
 9276DG     SC360304  70.522  80.639  26.637
 9276DG     SC460305  70.283  80.770  26.727
 9277DG     BB160306  70.094  80.963  27.404
 9277DG     BB260307  70.448  80.910  27.451
 9277DG     BB360308  70.549  81.072  27.396
 9277DG     SC160309  70.582  80.984  27.105
 9277DG     SC260310  70.839  80.912  26.971
 9277DG     SC360311  70.619  80.928  26.775
 9277DG     SC460312  70.468  81.023  26.999
 9278DT     BB160313  70.664  81.171  27.543
 9278DT     BB260314  71.001  81.086  27.448
 9278DT     BB360315  71.087  81.244  27.344
 9278DT     SC160316  70.946  81.189  27.130
 9278DT     SC260317  71.076  81.113  26.976
 9278DT     SC360318  70.772  81.216  26.933
 9279DT     BB160319  71.242  81.295  27.558
 9279DT     BB260320  71.475  81.251  27.286
 9279DT     BB360321  71.499  81.430  27.184
 9279DT     SC160322  71.264  81.405  27.070
 9279DT     SC260323  71.291  81.367  26.860
 9279DT     SC360324  71.014  81.455  27.003
 9280DC     BB160325  71.748  81.464  27.290
 9280DC     BB260326  71.800  81.483  26.933
 9280DC     BB360327  71.770  81.677  26.868
 9280DC     SC160328  71.510  81.655  26.892
 9280DC     SC260329  71.420  81.654  26.697
 9280DC     SC360330  71.264  81.697  26.977
 9281DA     BB160331  72.153  81.581  26.721
 9281DA     BB260332  71.963  81.728  26.443
 9281DA     BB360333  71.949  81.940  26.468
 9281DA     SC160334  71.682  81.927  26.627
 9281DA     SC260335  71.443  81.988  26.592
 9281DA     SC360336  71.425  81.984  26.848
 9281DA     SC460337  71.692  81.921  26.788
 9282DA     BB160338  72.079  81.951  26.163
 9282DA     BB260339  71.770  82.116  26.057
 9282DA     BB360340  71.770  82.320  26.119
 9282DA     SC160341  71.631  82.264  26.391
 9282DA     SC260342  71.411  82.307  26.499
 9282DA     SC360343  71.534  82.268  26.720
 9282DA     SC460344  71.726  82.237  26.519
 9283DA     BB160345  71.714  82.375  25.798
 9283DA     BB260346  71.394  82.523  25.899
 9283DA     BB360347  71.424  82.718  25.979
 9283DA     SC160348  71.457  82.619  26.272
 9283DA     SC260349  71.330  82.631  26.486
 9283DA     SC360350  71.554  82.578  26.599
 9283DA     SC460351  71.607  82.588  26.324
 9284DA     BB160352  71.200  82.784  25.750
 9284DA     BB260353  70.983  82.891  26.025
 9284DA     BB360354  71.047  83.080  26.101
 9284DA     SC160355  71.237  82.959  26.314
 9284DA     SC260356  71.247  82.938  26.563
 9284DA     SC360357  71.498  82.897  26.529
 9284DA     SC460358  71.391  82.936  26.273
 9285DT     BB160359  70.920  83.218  26.075
 9285DT     BB260360  70.809  83.238  26.417
 9285DT     BB360361  70.899  83.398  26.512
 9285DT     SC160362  71.127  83.270  26.528
 9285DT     SC260363  71.167  83.221  26.734
 9285DT     SC360364  71.381  83.211  26.491
 9286DT     BB160365  70.658  83.504  26.508
 9286DT     BB260366  70.752  83.493  26.856
 9286DT     BB360367  70.872  83.655  26.902
 9286DT     SC160368  71.077  83.547  26.779
 9286DT     SC260369  71.226  83.489  26.923
 9286DT     SC360370  71.272  83.512  26.603
 9287DG     BB160371  70.548  83.647  27.149
 9287DG     BB260372  70.858  83.667  27.334
 9287DG     BB360373  70.933  83.851  27.321
 9287DG     SC160374  71.095  83.794  27.068
 9287DG     SC260375  71.393  83.789  27.049
 9287DG     SC360376  71.270  83.771  26.781
 9287DG     SC460377  71.027  83.814  26.925
 9288DA     BB160378  70.950  83.829  27.666
 9288DA     BB260379  71.312  83.885  27.648
 9288DA     BB360380  71.353  84.088  27.601
 9288DA     SC160381  71.357  84.041  27.293
 9288DA     SC260382  71.525  84.041  27.109
 9288DA     SC360383  71.324  84.073  26.953
 9288DA     SC460384  71.220  84.063  27.213
 9289DT     BB160385  71.443  84.194  27.739
 9289DT     BB260386  71.767  84.206  27.581
 9289DT     BB360387  71.795  84.391  27.492
 9289DT     SC160388  71.632  84.329  27.295
 9289DT     SC260389  71.745  84.307  27.114
 9289DT     SC360390  71.423  84.336  27.135
 9290DC     BB160391  71.973  84.456  27.684
 9290DC     BB260392  72.155  84.490  27.374
 9290DC     BB360393  72.123  84.678  27.294
 9290DC     SC160394  71.881  84.613  27.217
 9290DC     SC260395  71.875  84.601  27.003
 9290DC     SC360396  71.617  84.613  27.200
 9291DT     BB160397  72.376  84.749  27.358
 9291DT     BB260398  72.354  84.797  27.001
 9291DT     BB360399  72.279  84.985  26.960
 9291DT     SC160400  72.037  84.912  27.028
 9291DT     SC260401  71.913  84.905  26.852
 9291DT     SC360402  71.808  84.902  27.159
 9292DT     BB160403  72.525  85.065  26.875
 9292DT     BB260404  72.308  85.121  26.593
 9292DT     BB360405  72.220  85.308  26.607
 9292DT     SC160406  72.057  85.226  26.795
 9292DT     SC260407  71.856  85.219  26.718
 9292DT     SC360408  71.940  85.206  27.031
 9293DA     BB160409  72.393  85.278  26.226
 9293DA     BB260410  72.049  85.396  26.184
 9293DA     BB360411  72.032  85.600  26.246
 9293DA     SC160412  71.960  85.531  26.540
 9293DA     SC260413  71.761  85.545  26.690
 9293DA     SC360414  71.930  85.529  26.882
 9293DA     SC460415  72.081  85.521  26.646
 9294DT     BB160416  71.989  85.737  26.105
 9294DT     BB260417  71.646  85.791  26.201
 9294DT     BB360418  71.628  85.972  26.301
 9294DT     SC160419  71.738  85.872  26.517
 9294DT     SC260420  71.590  85.856  26.672
 9294DT     SC360421  71.911  85.836  26.714
 9295DT     BB160422  71.501  86.076  26.086
 9295DT     BB260423  71.268  86.118  26.358
 9295DT     BB360424  71.308  86.295  26.458
 9295DT     SC160425  71.520  86.193  26.573
 9295DT     SC260426  71.483  86.168  26.783
 9295DT     SC360427  71.773  86.155  26.639
 9296DT     BB160428  71.081  86.395  26.353
 9296DT     BB260429  71.039  86.423  26.711
 9296DT     BB360430  71.124  86.599  26.778
 9296DT     SC160431  71.366  86.502  26.752
 9296DT     SC260432  71.452  86.471  26.946
 9296DT     SC360433  71.613  86.471  26.665
 9297DT     BB160434  70.875  86.685  26.820
 9297DT     BB260435  71.038  86.707  27.142
 9297DT     BB360436  71.142  86.885  27.157
 9297DT     SC160437  71.331  86.798  26.997
 9297DT     SC260438  71.512  86.768  27.110
 9297DT     SC360439  71.489  86.779  26.787
 9298DT     BB160440  70.956  86.949  27.332
 9298DT     BB260441  71.269  86.978  27.510
 9298DT     BB360442  71.355  87.162  27.471
 9298DT     SC160443  71.427  87.085  27.230
 9298DT     SC260444  71.641  87.066  27.223
 9298DT     SC360445  71.442  87.075  26.967
 9299DA     BB160446  71.346  87.076  27.882
 9299DA     BB260447  71.682  87.194  27.794
 9299DA     BB360448  71.677  87.402  27.745
 9299DA     SC160449  71.628  87.353  27.442
 9299DA     SC260450  71.753  87.380  27.228
 9299DA     SC360451  71.523  87.375  27.115
 9299DA     SC460452  71.475  87.349  27.391
 9300DG     BB160453  71.879  87.394  27.978
 9300DG     BB260454  72.103  87.521  27.724
 9300DG     BB360455  72.066  87.713  27.691
 9300DG     SC160456  71.859  87.661  27.471
 9300DG     SC260457  71.889  87.728  27.182
 9300DG     SC360458  71.613  87.639  27.241
 9300DG     SC460459  71.705  87.641  27.512
 9301DA     BB160460  72.408  87.764  27.738
 9301DA     BB260461  72.432  87.919  27.407
 9301DA     BB360462  72.346  88.114  27.410
 9301DA     SC160463  72.062  88.016  27.329
 9301DA     SC260464  71.910  88.031  27.132
 9301DA     SC360465  71.723  87.974  27.297
 9301DA     SC460466  71.959  87.981  27.448
 9302DT     BB160467  72.463  88.286  27.387
 9302DT     BB260468  72.355  88.376  27.055
 9302DT     BB360469  72.225  88.537  27.064
 9302DT     SC160470  72.031  88.386  27.155
 9302DT     SC260471  71.879  88.367  27.003
 9302DT     SC360472  71.846  88.290  27.316
 9303DT     BB160473  72.408  88.735  26.971
 9303DT     BB260474  72.127  88.767  26.747
 9303DT     BB360475  71.993  88.907  26.821
 9303DT     SC160476  71.908  88.740  27.004
 9303DT     SC260477  71.706  88.680  26.957
 9303DT     SC360478  71.857  88.636  27.241
 9304DT     BB160479  72.055  89.125  26.642
 9304DT     BB260480  71.700  89.076  26.597
 9304DT     BB360481  71.595  89.201  26.725
 9304DT     SC160482  71.653  89.050  26.932
 9304DT     SC260483  71.474  88.952  27.000
 9304DT     SC360484  71.753  88.975  27.164
 9305DA     BB160485  71.434  89.297  26.349
 9305DA     BB260486  71.153  89.224  26.573
 9305DA     BB360487  71.116  89.389  26.702
 9305DA     SC160488  71.306  89.287  26.927
 9305DA     SC260489  71.285  89.195  27.158
 9305DA     SC360490  71.531  89.263  27.184
 9305DA     SC460491  71.458  89.338  26.924
 9306DA     BB160492  70.816  89.358  26.577
 9306DA     BB260493  70.704  89.279  26.917
 9306DA     BB360494  70.690  89.457  27.034
 9306DA     SC160495  70.982  89.441  27.139
 9306DA     SC260496  71.099  89.396  27.355
 9306DA     SC360497  71.299  89.514  27.248
 9306DA     SC460498  71.095  89.519  27.056
 9307DC     BB160499  70.513  89.494  27.089
 9307DC     BB260500  70.555  89.391  27.432
 9307DC     BB360501  70.577  89.557  27.553
 9307DC     SC160502  70.823  89.595  27.470
 9307DC     SC260503  70.961  89.550  27.629
 9307DC     SC360504  71.032  89.709  27.356
 9308DA     BB160505  70.293  89.284  27.699
 9308DA     BB260506  70.523  89.371  27.971
 9308DA     BB360507  70.493  89.574  28.032
 9308DA     SC160508  70.703  89.690  27.834
 9308DA     SC260509  70.928  89.797  27.845
 9308DA     SC360510  70.874  89.887  27.611
 9308DA     SC460511  70.650  89.738  27.689
 9309DC     BB160512  70.440  89.565  28.196
 9309DC     BB260513  70.743  89.691  28.348
 9309DC     BB360514  70.728  89.895  28.376
 9309DC     SC160515  70.764  89.941  28.121
 9309DC     SC260516  70.956  90.033  28.091
 9309DC     SC360517  70.715  90.020  27.873
 9310DT     BB160518  70.718  89.828  28.629
 9310DT     BB260519  70.994  90.059  28.603
 9310DT     BB360520  70.923  90.253  28.602
 9310DT     SC160521  70.839  90.229  28.354
 9310DT     SC260522  70.961  90.350  28.225
 9310DT     SC360523  70.676  90.218  28.147
 9311DT     BB160524  71.022  90.280  28.848
 9311DT     BB260525  71.170  90.551  28.661
 9311DT     BB360526  71.040  90.712  28.655
 9311DT     SC160527  70.886  90.591  28.479
 9311DT     SC260528  70.903  90.691  28.289
 9311DT     SC360529  70.674  90.477  28.372
 9312DT     BB160530  71.191  90.856  28.833
 9312DT     BB260531  71.159  91.076  28.550
 9312DT     BB360532  70.986  91.189  28.567
 9312DT     SC160533  70.836  90.984  28.503
 9312DT     SC260534  70.750  91.016  28.309
 9312DT     SC360535  70.656  90.792  28.524
 9313DA     BB160536  71.281  91.486  28.515
 9313DA     BB260537  71.007  91.566  28.285
 9313DA     BB360538  70.843  91.651  28.391
 9313DA     SC160539  70.703  91.379  28.445
 9313DA     SC260540  70.497  91.259  28.370
 9313DA     SC360541  70.527  91.118  28.582
 9313DA     SC460542  70.738  91.303  28.582
 9314DT     BB160543  70.769  91.870  28.378
 9314DT     BB260544  70.471  91.803  28.186
 9314DT     BB360545  70.303  91.834  28.303
 9314DT     SC160546  70.344  91.611  28.436
 9314DT     SC260547  70.191  91.469  28.384
 9314DT     SC360548  70.394  91.448  28.636
 9315DT     BB160549  70.221  92.084  28.187
 9315DT     BB260550  69.930  91.874  28.150
 9315DT     BB360551  69.804  91.898  28.312
 9315DT     SC160552  69.963  91.757  28.467
 9315DT     SC260553  69.868  91.570  28.515
 9315DT     SC360554  70.127  91.696  28.664
 9316DT     BB160555  69.602  92.055  28.181
 9316DT     BB260556  69.420  91.771  28.309
 9316DT     BB360557  69.343  91.815  28.496
 9316DT     SC160558  69.579  91.792  28.607
 9316DT     SC260559  69.583  91.615  28.730
 9316DT     SC360560  69.801  91.856  28.735
 9317DA     BB160561  69.007  91.690  28.277
 9317DA     BB260562  69.014  91.495  28.588
 9317DA     BB360563  68.944  91.613  28.751
 9317DA     SC160564  69.226  91.720  28.826
 9317DA     SC260565  69.391  91.693  29.011
 9317DA     SC360566  69.491  91.914  28.929
 9317DA     SC460567  69.273  91.859  28.761
 9318DC     BB160568  68.765  91.563  28.849
 9318DC     BB260569  68.922  91.418  29.140
 9318DC     BB360570  68.896  91.542  29.303
 9318DC     SC160571  69.076  91.711  29.213
 9318DC     SC260572  69.250  91.703  29.339
 9318DC     SC360573  69.183  91.933  29.121
 9319DA     BB160574  68.786  91.150  29.394
 9319DA     BB260575  69.020  91.266  29.651
 9319DA     BB360576  68.925  91.409  29.778
 9319DA     SC160577  69.010  91.654  29.607
 9319DA     SC260578  69.165  91.848  29.626
 9319DA     SC360579  69.022  91.956  29.443
 9319DA     SC460580  68.908  91.705  29.493
 9320DA     BB160581  69.066  91.180  29.959
 9320DA     BB260582  69.263  91.455  30.100
 9320DA     BB360583  69.140  91.583  30.218
 9320DA     SC160584  69.067  91.772  29.982
 9320DA     SC260585  69.116  92.006  29.911
 9320DA     SC360586  68.907  91.984  29.764
 9320DA     SC460587  68.934  91.739  29.898
 9321DA     BB160588  69.410  91.498  30.378
 9321DA     BB260589  69.472  91.859  30.402
 9321DA     BB360590  69.324  91.951  30.524
 9321DA     SC160591  69.131  92.012  30.287
 9321DA     SC260592  69.049  92.212  30.162
 9321DA     SC360593  68.856  92.060  30.089
 9321DA     SC460594  69.019  91.903  30.253
 9322DA     BB160595  69.627  92.046  30.614
 9322DA     BB260596  69.503  92.386  30.559
 9322DA     BB360597  69.346  92.431  30.696
 9322DA     SC160598  69.119  92.331  30.510
 9322DA     SC260599  68.932  92.429  30.377
 9322DA     SC360600  68.832  92.193  30.382
 9322DA     SC460601  69.073  92.178  30.525
 9323DA     BB160602  69.551  92.687  30.734
 9323DA     BB260603  69.265  92.900  30.649
 9323DA     BB360604  69.122  92.898  30.808
 9323DA     SC160605  68.962  92.657  30.692
 9323DA     SC260606  68.739  92.617  30.588
 9323DA     SC360607  68.775  92.371  30.653
 9323DA     SC460608  69.002  92.510  30.742
 9324DT     BB160609  69.085  93.068  30.926
 9324DT     BB260610  68.757  93.146  30.798
 9324DT     BB360611  68.613  93.095  30.937
 9324DT     SC160612  68.641  92.839  30.883
 9324DT     SC260613  68.464  92.768  30.782
 9324DT     SC360614  68.696  92.583  30.915
 9325DA     BB160615  68.519  93.501  30.874
 9325DA     BB260616  68.204  93.315  30.851
 9325DA     BB360617  68.134  93.263  31.045
 9325DA     SC160618  68.282  92.989  31.051
 9325DA     SC260619  68.222  92.747  31.044
 9325DA     SC360620  68.454  92.707  31.145
 9325DA     SC460621  68.429  92.985  31.115
 9326DA     BB160622  67.842  93.418  30.984
 9326DA     BB260623  67.675  93.094  31.019
 9326DA     BB360624  67.641  93.050  31.225
 9326DA     SC160625  67.912  92.901  31.263
 9326DA     SC260626  67.990  92.667  31.301
 9326DA     SC360627  68.206  92.775  31.387
 9326DA     SC460628  68.038  92.987  31.314
 9327DA     BB160629  67.322  93.015  31.144
 9327DA     BB260630  67.351  92.663  31.244
 9327DA     BB360631  67.336  92.644  31.456
 9327DA     SC160632  67.643  92.671  31.504
 9327DA     SC260633  67.831  92.525  31.577
 9327DA     SC360634  67.953  92.744  31.631
 9327DA     SC460635  67.701  92.818  31.532
 9328DA     BB160636  67.103  92.434  31.369
 9328DA     BB260637  67.305  92.174  31.529
 9328DA     BB360638  67.285  92.185  31.741
 9328DA     SC160639  67.527  92.378  31.778
 9328DA     SC260640  67.757  92.369  31.873
 9328DA     SC360641  67.740  92.625  31.884
 9328DA     SC460642  67.496  92.536  31.778
 9329DG     BB160643  67.188  91.901  31.683
 9329DG     BB260644  67.483  91.814  31.874
 9329DG     BB360645  67.446  91.836  32.068
 9329DG     SC160646  67.535  92.128  32.077
 9329DG     SC260647  67.774  92.235  32.221
 9329DG     SC360648  67.606  92.456  32.119
 9329DG     SC460649  67.428  92.243  32.047
 9330DA     BB160650  67.583  91.521  32.064
 9330DA     BB260651  67.840  91.635  32.299
 9330DA     BB360652  67.755  91.669  32.492
 9330DA     SC160653  67.689  91.968  32.437
 9330DA     SC260654  67.769  92.192  32.513
 9330DA     SC360655  67.543  92.279  32.427
 9330DA     SC460656  67.543  92.003  32.379
 9331DT     BB160657  67.822  91.553  32.620
 9331DT     BB260658  68.021  91.790  32.805
 9331DT     BB360659  67.918  91.852  32.973
 9331DT     SC160660  67.759  92.004  32.830
 9331DT     SC260661  67.802  92.210  32.870
 9331DT     SC360662  67.539  92.097  32.719
 9332DA     BB160663  68.299  91.728  33.101
 9332DA     BB260664  68.227  92.050  33.261
 9332DA     BB360665  68.080  92.025  33.413
 9332DA     SC160666  67.839  92.080  33.223
 9332DA     SC260667  67.668  92.258  33.188
 9332DA     SC360668  67.534  92.077  33.066
 9332DA     SC460669  67.770  91.953  33.152
 9333DT     BB160670  68.124  92.049  33.621
 9333DT     BB260671  67.952  92.362  33.672
 9333DT     BB360672  67.778  92.330  33.780
 9333DT     SC160673  67.658  92.226  33.571
 9333DT     SC260674  67.504  92.361  33.504
 9333DT     SC360675  67.537  92.050  33.416
 9334DT     BB160676  67.872  92.432  34.030
 9334DT     BB260677  67.570  92.621  33.971
 9334DT     BB360678  67.409  92.526  34.059
 9334DT     SC160679  67.405  92.343  33.871
 9334DT     SC260680  67.229  92.368  33.749
 9334DT     SC360681  67.420  92.107  33.754
 9335DC     BB160682  67.372  92.698  34.291
 9335DC     BB260683  67.047  92.701  34.135
 9335DC     BB360684  66.926  92.556  34.220
 9335DC     SC160685  67.054  92.365  34.092
 9335DC     SC260686  66.925  92.280  33.942
 9335DC     SC360687  67.202  92.151  34.050
 9336DA     BB160688  66.686  92.897  34.278
 9336DA     BB260689  66.472  92.643  34.123
 9336DA     BB360690  66.407  92.501  34.268
 9336DA     SC160691  66.648  92.309  34.223
 9336DA     SC260692  66.688  92.082  34.127
 9336DA     SC360693  66.905  92.085  34.264
 9336DA     SC460694  66.777  92.329  34.317
 9337DT     BB160695  66.192  92.475  34.340
 9337DT     BB260696  66.128  92.174  34.152
 9337DT     BB360697  66.108  92.013  34.281
 9337DT     SC160698  66.366  92.005  34.325
 9337DT     SC260699  66.449  91.828  34.235
 9337DT     SC360700  66.597  92.017  34.452
 9338DA     BB160701  65.767  92.011  34.039
 9338DA     BB260702  65.913  91.675  34.028
 9338DA     BB360703  65.870  91.570  34.209
 9338DA     SC160704  66.129  91.664  34.354
 9338DA     SC260705  66.343  91.564  34.432
 9338DA     SC360706  66.359  91.768  34.586
 9338DA     SC460707  66.119  91.797  34.443
 9339DA     BB160708  65.763  91.361  33.984
 9339DA     BB260709  66.017  91.128  34.111
 9339DA     BB360710  65.955  91.045  34.297
 9339DA     SC160711  66.090  91.267  34.469
 9339DA     SC260712  66.283  91.287  34.625
 9339DA     SC360713  66.166  91.498  34.711
 9339DA     SC460714  66.001  91.394  34.509
 9340DT     BB160715  65.931  90.865  34.281
 9340DT     BB260716  66.230  90.767  34.458
 9340DT     BB360717  66.182  90.714  34.652
 9340DT     SC160718  66.149  90.965  34.721
 9340DT     SC260719  66.308  91.024  34.854
 9340DT     SC360720  66.032  91.187  34.803
 9341DC     BB160721  66.245  90.474  34.567
 9341DC     BB260722  66.463  90.536  34.848
 9341DC     BB360723  66.363  90.496  35.025
 9341DC     SC160724  66.223  90.718  35.005
 9341DC     SC260725  66.286  90.856  35.157
 9341DC     SC360726  66.016  90.879  34.979
 9342DA     BB160727  66.747  90.323  35.006
 9342DA     BB260728  66.707  90.488  35.331
 9342DA     BB360729  66.561  90.386  35.448
 9342DA     SC160730  66.323  90.556  35.345
 9342DA     SC260731  66.167  90.730  35.435
 9342DA     SC360732  66.015  90.666  35.239
 9342DA     SC460733  66.241  90.502  35.218
 9343DA     BB160734  66.821  90.408  35.649
 9343DA     BB260735  66.596  90.584  35.880
 9343DA     BB360736  66.452  90.450  35.960
 9343DA     SC160737  66.243  90.502  35.735
 9343DA     SC260738  66.020  90.613  35.712
 9343DA     SC360739  65.995  90.471  35.500
 9343DA     SC460740  66.245  90.405  35.607
 9344DA     BB160741  66.568  90.571  36.244
 9344DA     BB260742  66.225  90.680  36.316
 9344DA     BB360743  66.103  90.513  36.367
 9344DA     SC160744  66.012  90.459  36.074
 9344DA     SC260745  65.803  90.478  35.940
 9344DA     SC360746  65.916  90.313  35.779
 9344DA     SC460747  66.099  90.355  35.987
 9345DA     BB160748  66.031  90.680  36.646
 9345DA     BB260749  65.679  90.672  36.543
 9345DA     BB360750  65.595  90.479  36.580
 9345DA     SC160751  65.668  90.366  36.300
 9345DA     SC260752  65.548  90.297  36.092
 9345DA     SC360753  65.761  90.165  36.037
 9345DA     SC460754  65.808  90.289  36.284
 9346DA     BB160755  65.357  90.629  36.762
 9346DA     BB260756  65.111  90.497  36.525
 9346DA     BB360757  65.068  90.292  36.568
 9346DA     SC160758  65.290  90.181  36.381
 9346DA     SC260759  65.305  90.057  36.165
 9346DA     SC360760  65.542  89.996  36.240
 9346DA     SC460761  65.435  90.153  36.446
 9347DA     BB160762  64.745  90.375  36.591
 9347DA     BB260763  64.682  90.153  36.306
 9347DA     BB360764  64.671  89.950  36.371
 9347DA     SC160765  64.974  89.895  36.332
 9347DA     SC260766  65.119  89.761  36.179
 9347DA     SC360767  65.297  89.782  36.363
 9347DA     SC460768  65.071  89.918  36.458
 9348DA     BB160769  64.375  89.947  36.223
 9348DA     BB260770  64.510  89.693  35.995
 9348DA     BB360771  64.510  89.502  36.090
 9348DA     SC160772  64.796  89.532  36.207
 9348DA     SC260773  65.022  89.433  36.170
 9348DA     SC360774  65.076  89.519  36.406
 9348DA     SC460775  64.810  89.592  36.355
 9349DT     BB160776  64.386  89.350  36.017
 9349DT     BB260777  64.648  89.163  35.854
 9349DT     BB360778  64.689  88.990  35.961
 9349DT     SC160779  64.815  89.125  36.147
 9349DT     SC260780  65.026  89.080  36.137
 9349DT     SC360781  64.874  89.227  36.383
 9350DC     BB160782  64.576  88.854  35.760
 9350DC     BB260783  64.913  88.727  35.782
 9350DC     BB360784  64.923  88.577  35.924
 9350DC     SC160785  64.909  88.751  36.120
 9350DC     SC260786  65.098  88.759  36.222
 9350DC     SC360787  64.818  88.881  36.331
 9351DT     BB160788  64.958  88.414  35.718
 9351DT     BB260789  65.249  88.369  35.926
 9351DT     BB360790  65.208  88.234  36.077
 9351DT     SC160791  65.066  88.412  36.208
 9351DT     SC260792  65.170  88.468  36.387
 9351DT     SC360793  64.858  88.529  36.321
 9352DT     BB160794  65.376  88.090  35.940
 9352DT     BB260795  65.517  88.116  36.272
 9352DT     BB360796  65.423  87.983  36.399
 9352DT     SC160797  65.208  88.133  36.411
 9352DT     SC260798  65.191  88.219  36.607
 9352DT     SC360799  64.957  88.210  36.384
 9353DA     BB160800  65.842  87.959  36.428
 9353DA     BB260801  65.702  87.976  36.766
 9353DA     BB360802  65.597  87.796  36.812
 9353DA     SC160803  65.323  87.901  36.706
 9353DA     SC260804  65.102  87.968  36.801
 9353DA     SC360805  65.012  87.930  36.563
 9353DA     SC460806  65.286  87.870  36.553
 9354DT     BB160807  65.676  87.699  36.949
 9354DT     BB260808  65.427  87.763  37.203
 9354DT     BB360809  65.296  87.602  37.216
 9354DT     SC160810  65.177  87.671  36.992
 9354DT     SC260811  64.978  87.741  37.036
 9354DT     SC360812  65.091  87.659  36.744
 9355DT     BB160813  65.408  87.534  37.452
 9355DT     BB260814  65.056  87.567  37.525
 9355DT     BB360815  64.958  87.390  37.481
 9355DT     SC160816  64.973  87.436  37.223
 9355DT     SC260817  64.776  87.478  37.147
 9355DT     SC360818  65.038  87.407  36.969
 9356DG     BB160819  64.884  87.446  37.880
 9356DG     BB260820  64.577  87.386  37.698
 9356DG     BB360821  64.555  87.191  37.664
 9356DG     SC160822  64.705  87.197  37.396
 9356DG     SC260823  64.585  87.147  37.127
 9356DG     SC360824  64.880  87.163  37.110
 9356DG     SC460825  64.863  87.177  37.396
 9357DA     BB160826  64.234  87.190  37.809
 9357DA     BB260827  64.086  87.080  37.491
 9357DA     BB360828  64.114  86.870  37.466
 9357DA     SC160829  64.385  86.899  37.316
 9357DA     SC260830  64.473  86.865  37.085
 9357DA     SC360831  64.704  86.855  37.196
 9357DA     SC460832  64.519  86.894  37.404
 9358DT     BB160833  63.949  86.725  37.467
 9358DT     BB260834  63.944  86.671  37.110
 9358DT     BB360835  64.017  86.481  37.067
 9358DT     SC160836  64.264  86.556  37.115
 9358DT     SC260837  64.374  86.560  36.930
 9358DT     SC360838  64.501  86.569  37.228
 9359DA     BB160839  63.645  86.511  36.876
 9359DA     BB260840  63.890  86.398  36.628
 9359DA     BB360841  63.939  86.193  36.660
 9359DA     SC160842  64.178  86.255  36.850
 9359DA     SC260843  64.426  86.238  36.845
 9359DA     SC360844  64.412  86.248  37.101
 9359DA     SC460845  64.148  86.261  37.008
 9360DA     BB160846  63.853  86.190  36.346
 9360DA     BB260847  64.197  86.085  36.277
 9360DA     BB360848  64.225  85.881  36.331
 9360DA     SC160849  64.316  85.945  36.622
 9360DA     SC260850  64.526  85.933  36.756
 9360DA     SC360851  64.371  85.939  36.960
 9360DA     SC460852  64.203  85.948  36.736
 9361DC     BB160853  64.263  85.778  36.184
 9361DC     BB260854  64.614  85.734  36.252
 9361DC     BB360855  64.646  85.549  36.339
 9361DC     SC160856  64.548  85.630  36.568
 9361DC     SC260857  64.706  85.644  36.713
 9361DC     SC360858  64.389  85.648  36.778
 9362DT     BB160859  64.763  85.494  36.110
 9362DT     BB260860  65.015  85.436  36.361
 9362DT     BB360861  64.990  85.248  36.444
 9362DT     SC160862  64.782  85.329  36.583
 9362DT     SC260863  64.833  85.335  36.792
 9362DT     SC360864  64.534  85.349  36.669
 9363DA     BB160865  65.390  85.298  36.327
 9363DA     BB260866  65.387  85.163  36.667
 9363DA     BB360867  65.323  84.960  36.666
 9363DA     SC160868  65.022  85.029  36.703
 9363DA     SC260869  64.848  85.007  36.881
 9363DA     SC360870  64.679  85.034  36.690
 9363DA     SC460871  64.932  85.046  36.571
 9364DC     BB160872  65.455  84.816  36.717
 9364DC     BB260873  65.315  84.735  37.039
 9364DC     BB360874  65.212  84.556  37.029
 9364DC     SC160875  65.013  84.670  36.901
 9364DC     SC260876  64.840  84.677  37.030
 9364DC     SC360877  64.841  84.727  36.709
 9365DT     BB160878  65.407  84.413  37.166
 9365DT     BB260879  65.106  84.353  37.356
 9365DT     BB360880  65.008  84.187  37.282
 9365DT     SC160881  64.923  84.319  37.072
 9365DT     SC260882  64.711  84.347  37.086
 9365DT     SC360883  64.891  84.390  36.820
 9366DC     BB160884  65.078  84.018  37.497
 9366DC     BB260885  64.718  84.003  37.490
 9366DC     BB360886  64.655  83.847  37.370
 9366DC     SC160887  64.716  83.980  37.152
 9366DC     SC260888  64.535  84.035  37.049
 9366DC     SC360889  64.835  84.045  36.926
 9367DA     BB160890  64.462  83.791  37.736
 9367DA     BB260891  64.207  83.775  37.473
 9367DA     BB360892  64.219  83.589  37.370
 9367DA     SC160893  64.419  83.692  37.154
 9367DA     SC260894  64.417  83.743  36.910
 9367DA     SC360895  64.672  83.721  36.924
 9367DA     SC460896  64.576  83.673  37.183
 9368DA     BB160897  63.906  83.597  37.454
 9368DA     BB260898  63.831  83.593  37.095
 9368DA     BB360899  63.863  83.398  37.015
 9368DA     SC160900  64.160  83.450  36.940
 9368DA     SC260901  64.296  83.478  36.733
 9368DA     SC360902  64.497  83.421  36.882
 9368DA     SC460903  64.272  83.411  37.049
 9369DA     BB160904  63.567  83.494  36.924
 9369DA     BB260905  63.689  83.455  36.581
 9369DA     BB360906  63.719  83.248  36.536
 9369DA     SC160907  64.016  83.245  36.629
 9369DA     SC260908  64.242  83.225  36.526
 9369DA     SC360909  64.321  83.158  36.760
 9369DA     SC460910  64.045  83.204  36.782
 9370DT     BB160911  63.610  83.217  36.409
 9370DT     BB260912  63.852  83.180  36.144
 9370DT     BB360913  63.904  82.981  36.123
 9370DT     SC160914  64.051  82.988  36.340
 9370DT     SC260915  64.259  82.972  36.287
 9370DT     SC360916  64.136  82.935  36.584
 9371DA     BB160917  63.811  83.158  35.751
 9371DA     BB260918  64.117  82.959  35.712
 9371DA     BB360919  64.072  82.751  35.730
 9371DA     SC160920  64.120  82.742  36.037
 9371DA     SC260921  64.287  82.645  36.196
 9371DA     SC360922  64.103  82.672  36.373
 9371DA     SC460923  63.993  82.765  36.133
 9372DC     BB160924  64.095  82.644  35.570
 9372DC     BB260925  64.384  82.455  35.674
 9372DC     BB360926  64.326  82.267  35.737
 9372DC     SC160927  64.231  82.363  35.962
 9372DC     SC260928  64.355  82.299  36.126
 9372DC     SC360929  64.058  82.428  36.151
 9373DA     BB160930  64.613  82.169  35.444
 9373DA     BB260931  64.689  81.964  35.739
 9373DA     BB360932  64.551  81.802  35.753
 9373DA     SC160933  64.347  81.958  35.928
 9373DA     SC260934  64.264  81.953  36.164
 9373DA     SC360935  64.062  82.082  36.073
 9373DA     SC460936  64.229  82.036  35.853
 9374DT     BB160937  64.597  81.576  35.723
 9374DT     BB260938  64.581  81.485  36.071
 9374DT     BB360939  64.414  81.366  36.106
 9374DT     SC160940  64.254  81.573  36.088
 9374DT     SC260941  64.172  81.617  36.283
 9374DT     SC360942  64.063  81.733  36.000
 9375DA     BB160943  64.729  81.134  36.258
 9375DA     BB260944  64.470  81.151  36.518
 9375DA     BB360945  64.309  81.020  36.471
 9375DA     SC160946  64.148  81.234  36.313
 9375DA     SC260947  63.937  81.365  36.342
 9375DA     SC360948  63.949  81.400  36.088
 9375DA     SC460949  64.172  81.244  36.154
 9376DT     BB160950  64.273  80.857  36.591
 9376DT     BB260951  63.983  80.994  36.756
 9376DT     BB360952  63.811  80.900  36.687
 9376DT     SC160953  63.822  81.032  36.460
 9376DT     SC260954  63.659  81.173  36.452
 9376DT     SC360955  63.843  81.080  36.202
 9377DA     BB160956  63.816  80.898  37.106
 9377DA     BB260957  63.489  81.021  36.995
 9377DA     BB360958  63.374  80.861  36.913
 9377DA     SC160959  63.475  80.906  36.622
 9377DA     SC260960  63.383  80.987  36.405
 9377DA     SC360961  63.581  80.864  36.298
 9377DA     SC460962  63.604  80.822  36.575
 9378DA     BB160963  63.171  80.992  37.134
 9378DA     BB260964  62.941  81.052  36.855
 9378DA     BB360965  62.857  80.868  36.787
 9378DA     SC160966  63.080  80.815  36.576
 9378DA     SC260967  63.102  80.813  36.328
 9378DA     SC360968  63.313  80.671  36.369
 9378DA     SC460969  63.207  80.728  36.622
 9379DA     BB160970  62.583  81.043  36.836
 9379DA     BB260971  62.509  80.989  36.481
 9379DA     BB360972  62.449  80.786  36.448
 9379DA     SC160973  62.738  80.686  36.391
 9379DA     SC260974  62.869  80.603  36.195
 9379DA     SC360975  63.027  80.501  36.370
 9379DA     SC460976  62.823  80.629  36.515
 9380DG     BB160977  62.169  80.893  36.346
 9380DG     BB260978  62.270  80.741  36.033
 9380DG     BB360979  62.224  80.548  36.035
 9380DG     SC160980  62.491  80.460  36.155
 9380DG     SC260981  62.701  80.298  36.017
 9380DG     SC360982  62.764  80.330  36.304
 9380DG     SC460983  62.506  80.454  36.314
 9381DA     BB160984  62.035  80.560  35.732
 9381DA     BB260985  62.261  80.320  35.571
 9381DA     BB360986  62.210  80.121  35.626
 9381DA     SC160987  62.398  80.115  35.874
 9381DA     SC260988  62.609  80.002  35.943
 9381DA     SC360989  62.538  80.058  36.182
 9381DA     SC460990  62.336  80.158  36.016
 9382DA     BB160991  62.183  80.049  35.302
 9382DA     BB260992  62.460  79.813  35.345
 9382DA     BB360993  62.389  79.629  35.427
 9382DA     SC160994  62.432  79.715  35.723
 9382DA     SC260995  62.583  79.657  35.912
 9382DA     SC360996  62.403  79.762  36.062
 9382DA     SC460997  62.308  79.784  35.799
 9383DG     BB160998  62.494  79.496  35.164
 9383DG     BB260999  62.725  79.336  35.392
 9383DG     BB361000  62.642  79.173  35.470
 9383DG     SC161001  62.520  79.321  35.709
 9383DG     SC261002  62.598  79.286  35.995
 9383DG     SC361003  62.356  79.454  35.972
 9383DG     SC461004  62.375  79.386  35.695
 9384DA     BB161005  62.930  79.015  35.367
 9384DA     BB261006  63.002  78.921  35.714
 9384DA     BB361007  62.876  78.761  35.775
 9384DA     SC161008  62.651  78.946  35.885
 9384DA     SC261009  62.555  79.010  36.106
 9384DA     SC361010  62.350  79.085  35.973
 9384DA     SC461011  62.532  78.986  35.784
 9385DA     BB161012  63.173  78.649  35.850
 9385DA     BB261013  63.055  78.630  36.197
 9385DA     BB361014  62.917  78.468  36.219
 9385DA     SC161015  62.666  78.642  36.155
 9385DA     SC261016  62.469  78.732  36.277
 9385DA     SC361017  62.362  78.756  36.045
 9385DA     SC461018  62.617  78.648  36.002
 9386DT     BB161019  62.974  78.319  36.333
 9386DT     BB261020  62.757  78.387  36.613
 9386DT     BB361021  62.595  78.257  36.610
 9386DT     SC161022  62.484  78.387  36.412
 9386DT     SC261023  62.307  78.488  36.483
 9386DT     SC361024  62.386  78.438  36.172
 9387DT     BB161025  62.690  78.104  36.823
 9387DT     BB261026  62.359  78.200  36.928
 9387DT     BB361027  62.221  78.061  36.863
 9387DT     SC161028  62.236  78.149  36.617
 9387DT     SC261029  62.052  78.247  36.565
 9387DT     SC361030  62.282  78.154  36.357
 9388DA     BB161031  62.137  78.053  37.278
 9388DA     BB261032  61.815  78.092  37.106
 9388DA     BB361033  61.749  77.905  37.029
 9388DA     SC161034  61.888  77.942  36.753
 9388DA     SC261035  61.820  77.981  36.516
 9388DA     SC361036  62.054  77.893  36.456
 9388DA     SC461037  62.037  77.883  36.736
 9389DG     BB161038  61.477  77.882  37.212
 9389DG     BB261039  61.308  77.922  36.895
 9389DG     BB361040  61.267  77.744  36.817
 9389DG     SC161041  61.532  77.722  36.665
 9389DG     SC261042  61.564  77.723  36.368
 9389DG     SC361043  61.819  77.656  36.502
 9389DG     SC461044  61.659  77.658  36.739
 9390DA     BB161045  60.928  77.821  36.787
 9390DA     BB261046  60.958  77.807  36.422
 9390DA     BB361047  60.938  77.606  36.353
 9390DA     SC161048  61.242  77.545  36.369
 9390DA     SC261049  61.430  77.503  36.211
 9390DA     SC361050  61.548  77.394  36.411
 9390DA     SC461051  61.298  77.480  36.505
 9391DT     BB161052  60.784  77.579  36.241
 9391DT     BB261053  60.972  77.588  35.933
 9391DT     BB361054  60.989  77.397  35.855
 9391DT     SC161055  61.168  77.331  36.035
 9391DT     SC261056  61.360  77.308  35.940
 9391DT     SC361057  61.282  77.207  36.238
 9392DG     BB161058  60.853  77.703  35.622
 9392DG     BB261059  61.141  77.536  35.480
 9392DG     BB361060  61.090  77.355  35.417
 9392DG     SC161061  61.150  77.217  35.683
 9392DG     SC261062  61.367  77.019  35.733
 9392DG     SC361063  61.186  77.037  35.966
 9392DG     SC461064  61.034  77.208  35.793
 9393DA     BB161065  61.283  77.519  35.183
 9393DA     BB261066  61.509  77.230  35.192
 9393DA     BB361067  61.409  77.056  35.121
 9393DA     SC161068  61.308  76.970  35.403
 9393DA     SC261069  61.353  76.788  35.568
 9393DA     SC361070  61.124  76.848  35.666
 9393DA     SC461071  61.162  77.021  35.448
 9394DT     BB161072  61.502  77.021  34.990
 9394DT     BB261073  61.656  76.721  35.119
 9394DT     BB361074  61.540  76.557  35.073
 9394DT     SC161075  61.363  76.620  35.256
 9394DT     SC261076  61.373  76.476  35.416
 9394DT     SC361077  61.135  76.691  35.367
 9395DT     BB161078  61.741  76.504  34.914
 9395DT     BB261079  61.701  76.210  35.120
 9395DT     BB361080  61.547  76.092  35.046
 9395DT     SC161081  61.366  76.258  35.138
 9395DT     SC261082  61.260  76.164  35.301
 9395DT     SC361083  61.167  76.431  35.143
 9396DC     BB161084  61.735  75.920  34.967
 9396DC     BB261085  61.510  75.723  35.169
 9396DC     BB361086  61.350  75.659  35.054
 9396DC     SC161087  61.242  75.898  35.056
 9396DC     SC261088  61.063  75.894  35.175
 9396DC     SC361089  61.150  76.129  34.969
 9397DC     BB161090  61.450  75.406  35.056
 9397DC     BB261091  61.113  75.368  35.180
 9397DC     BB361092  60.982  75.346  35.021
 9397DC     SC161093  60.998  75.600  34.961
 9397DC     SC261094  60.811  75.696  35.006
 9397DC     SC361095  61.049  75.821  34.825
 9398DT     BB161096  60.950  75.080  35.077
 9398DT     BB261097  60.613  75.209  35.074
 9398DT     BB361098  60.537  75.203  34.882
 9398DT     SC161099  60.683  75.409  34.809
 9398DT     SC261100  60.556  75.579  34.776
 9398DT     SC361101  60.865  75.552  34.682
 9399DA     BB161102  60.249  75.003  35.113
 9399DA     BB261103  60.070  75.241  34.899
 9399DA     BB361104  60.063  75.169  34.698
 9399DA     SC161105  60.327  75.310  34.613
 9399DA     SC261106  60.396  75.499  34.466
 9399DA     SC361107  60.629  75.390  34.469
 9399DA     SC461108  60.464  75.226  34.626
 9400DA     BB161109  59.729  75.200  34.711
 9400DA     BB261110  59.751  75.435  34.430
 9400DA     BB361111  59.775  75.329  34.247
 9400DA     SC161112  60.086  75.333  34.257
 9400DA     SC261113  60.273  75.442  34.135
 9400DA     SC361114  60.419  75.254  34.231
 9400DA     SC461115  60.159  75.207  34.326
 9401DC     BB161116  59.618  75.302  34.064
 9401DC     BB261117  59.783  75.522  33.831
 9401DC     BB361118  59.860  75.413  33.672
 9401DC     SC161119  60.056  75.320  33.821
 9401DC     SC261120  60.242  75.406  33.755
 9401DC     SC361121  60.210  75.150  33.951
 9402DA     BB161122  59.619  75.682  33.451
 9402DA     BB261123  59.951  75.685  33.295
 9402DA     BB361124  59.976  75.515  33.169
 9402DA     SC161125  60.097  75.337  33.394
 9402DA     SC261126  60.318  75.236  33.451
 9402DA     SC361127  60.183  75.075  33.599
 9402DA     SC461128  59.995  75.245  33.479
 9403DT     BB161129  59.994  75.511  32.934
 9403DT     BB261130  60.351  75.458  32.928
 9403DT     BB361131  60.393  75.269  32.853
 9403DT     SC161132  60.316  75.155  33.076
 9403DT     SC261133  60.488  75.072  33.176
 9403DT     SC361134  60.178  75.005  33.244
 9404DA     BB161135  60.619  75.532  32.619
 9404DA     BB261136  60.846  75.273  32.745
 9404DA     BB361137  60.820  75.092  32.636
 9404DA     SC161138  60.602  74.979  32.828
 9404DA     SC261139  60.582  74.795  32.996
 9404DA     SC361140  60.329  74.821  32.963
 9404DA     SC461141  60.449  75.009  32.793
 9405DT     BB161142  60.974  75.037  32.534
 9405DT     BB261143  61.078  74.774  32.758
 9405DT     BB361144  61.027  74.590  32.680
 9405DT     SC161145  60.774  74.626  32.740
 9405DT     SC261146  60.718  74.492  32.899
 9405DT     SC361147  60.514  74.658  32.710
 9406DA     BB161148  61.425  74.607  32.810
 9406DA     BB261149  61.269  74.307  32.951
 9406DA     BB361150  61.231  74.163  32.797
 9406DA     SC161151  60.945  74.269  32.735
 9406DA     SC261152  60.710  74.191  32.763
 9406DA     SC361153  60.653  74.363  32.581
 9406DA     SC461154  60.930  74.380  32.619
 9407DA     BB161155  61.389  74.010  33.038
 9407DA     BB261156  61.097  73.789  33.052
 9407DA     BB361157  61.086  73.670  32.875
 9407DA     SC161158  60.910  73.874  32.719
 9407DA     SC261159  60.676  73.889  32.636
 9407DA     SC361160  60.766  74.069  32.476
 9407DA     SC461161  60.985  73.982  32.627
 9408DA     BB161162  61.064  73.453  33.120
 9408DA     BB261163  60.742  73.356  32.972
 9408DA     BB361164  60.773  73.255  32.787
 9408DA     SC161165  60.760  73.514  32.615
 9408DA     SC261166  60.606  73.619  32.449
 9408DA     SC361167  60.810  73.757  32.377
 9408DA     SC461168  60.899  73.590  32.584
 9409DT     BB161169  60.724  73.064  32.779
 9409DT     BB261170  60.431  73.099  32.571
 9409DT     BB361171  60.475  73.043  32.377
 9409DT     SC161172  60.608  73.265  32.334
 9409DT     SC261173  60.498  73.388  32.196
 9409DT     SC361174  60.808  73.429  32.283
 9410DT     BB161175  60.337  72.803  32.395
 9410DT     BB261176  60.191  72.964  32.107
 9410DT     BB361177  60.297  72.913  31.937
 9410DT     SC161178  60.495  73.072  32.004
 9410DT     SC261179  60.501  73.240  31.869
 9410DT     SC361180  60.737  73.152  32.073
 9411DA     BB161181  59.904  72.806  31.833
 9411DA     BB261182  60.037  73.008  31.557
 9411DA     BB361183  60.171  72.891  31.438
 9411DA     SC161184  60.424  72.970  31.602
 9411DA     SC261185  60.630  73.106  31.569
 9411DA     SC361186  60.727  72.970  31.764
 9411DA     SC461187  60.466  72.873  31.724
 9412DT     BB161188  60.130  72.830  31.229
 9412DT     BB261189  60.356  73.066  31.075
 9412DT     BB361190  60.518  72.967  30.995
 9412DT     SC161191  60.622  72.927  31.232
 9412DT     SC261192  60.799  73.047  31.253
 9412DT     SC361193  60.712  72.802  31.446
 9413DT     BB161194  60.430  73.008  30.736
 9413DT     BB261195  60.758  73.158  30.743
 9413DT     BB361196  60.901  73.018  30.693
 9413DT     SC161197  60.881  72.902  30.928
 9413DT     SC261198  61.060  72.937  31.041
 9413DT     SC361199  60.832  72.717  31.110
 9414DT     BB161200  60.933  73.148  30.460
 9414DT     BB261201  61.260  73.150  30.614
 9414DT     BB361202  61.361  72.975  30.567
 9414DT     SC161203  61.215  72.836  30.734
 9414DT     SC261204  61.336  72.774  30.901
 9414DT     SC361205  61.044  72.657  30.825
 9415DT     BB161206  61.515  73.131  30.418
 9415DT     BB261207  61.741  72.967  30.647
 9415DT     BB361208  61.791  72.780  30.575
 9415DT     SC161209  61.556  72.683  30.640
 9415DT     SC261210  61.578  72.545  30.803
 9415DT     SC361211  61.316  72.576  30.615
 9416DA     BB161212  62.140  72.988  30.679
 9416DA     BB261213  62.162  72.650  30.820
 9416DA     BB361214  62.193  72.507  30.665
 9416DA     SC161215  61.890  72.455  30.619
 9416DA     SC261216  61.726  72.271  30.658
 9416DA     SC361217  61.582  72.390  30.482
 9416DA     SC461218  61.816  72.543  30.507
 9417DT     BB161219  62.369  72.410  30.659
 9417DT     BB261220  62.249  72.086  30.766
 9417DT     BB361221  62.236  71.959  30.603
 9417DT     SC161222  62.019  72.080  30.517
 9417DT     SC261223  61.850  71.949  30.540
 9417DT     SC361224  61.858  72.219  30.361
 9418DT     BB161225  62.464  71.809  30.669
 9418DT     BB261226  62.206  71.559  30.635
 9418DT     BB361227  62.198  71.491  30.440
 9418DT     SC161228  62.081  71.712  30.360
 9418DT     SC261229  61.878  71.670  30.305
 9418DT     SC361230  62.042  71.940  30.233
 9419DA     BB161231  62.256  71.121  30.637
 9419DA     BB261232  61.975  71.074  30.405
 9419DA     BB361233  62.048  71.045  30.207
 9419DA     SC161234  62.040  71.348  30.134
 9419DA     SC261235  61.908  71.499  29.987
 9419DA     SC361236  62.107  71.660  30.007
 9419DA     SC461237  62.174  71.433  30.158
 9420DA     BB161238  61.889  70.747  30.179
 9420DA     BB261239  61.684  70.894  29.912
 9420DA     BB361240  61.785  70.881  29.725
 9420DA     SC161241  61.925  71.157  29.753
 9420DA     SC261242  61.911  71.383  29.647
 9420DA     SC361243  62.147  71.419  29.742
 9420DA     SC461244  62.071  71.160  29.819
 9421DA     BB161245  61.520  70.720  29.607
 9421DA     BB261246  61.467  71.003  29.381
 9421DA     BB361247  61.590  70.984  29.207
 9421DA     SC161248  61.829  71.141  29.329
 9421DA     SC261249  61.942  71.361  29.295
 9421DA     SC361250  62.141  71.255  29.417
 9421DA     SC461251  61.943  71.057  29.406
 9422DT     BB161252  61.493  70.962  29.042
 9422DT     BB261253  61.540  71.301  28.928
 9422DT     BB361254  61.686  71.306  28.781
 9422DT     SC161255  61.877  71.273  28.958
 9422DT     SC261256  61.991  71.455  28.974
 9422DT     SC361257  62.079  71.164  29.087
 9423DC     BB161258  61.481  71.365  28.629
 9423DC     BB261259  61.706  71.646  28.604
 9423DC     BB361260  61.857  71.604  28.468
 9423DC     SC161261  61.976  71.443  28.638
 9423DC     SC261262  62.161  71.532  28.703
 9423DC     SC361263  62.075  71.222  28.743
 9424DA     BB161264  61.672  71.981  28.429
 9424DA     BB261265  62.036  72.024  28.427
 9424DA     BB361266  62.120  71.937  28.252
 9424DA     SC161267  62.166  71.659  28.382
 9424DA     SC261268  62.358  71.519  28.456
 9424DA     SC361269  62.194  71.322  28.443
 9424DA     SC461270  62.049  71.549  28.366
 9425DA     BB161271  62.232  72.243  28.295
 9425DA     BB261272  62.563  72.087  28.298
 9425DA     BB361273  62.607  72.002  28.107
 9425DA     SC161274  62.488  71.723  28.177
 9425DA     SC261275  62.572  71.492  28.218
 9425DA     SC361276  62.332  71.417  28.167
 9425DA     SC461277  62.334  71.697  28.141
 9426DG     BB161278  62.833  72.201  28.171
 9426DG     BB261279  63.031  71.899  28.151
 9426DG     BB361280  63.045  71.839  27.961
 9426DG     SC161281  62.793  71.665  27.972
 9426DG     SC261282  62.785  71.368  27.951
 9426DG     SC361283  62.512  71.481  27.942
 9426DG     SC461284  62.652  71.731  27.938
 9427DC     BB161285  63.233  71.833  27.889
 9427DC     BB261286  63.296  71.479  27.858
 9427DC     BB361287  63.257  71.417  27.665
 9427DC     SC161288  62.998  71.430  27.705
 9427DC     SC261289  62.915  71.232  27.707
 9427DC     SC361290  62.747  71.507  27.680
 9428DG     BB161291  63.646  71.318  27.743
 9428DG     BB261292  63.463  71.037  27.608
 9428DG     BB361293  63.439  71.059  27.411
 9428DG     SC161294  63.174  71.211  27.437
 9428DG     SC261295  62.906  71.112  27.348
 9428DG     SC361296  62.892  71.396  27.428
 9428DG     SC461297  63.176  71.370  27.452
 9429DT     BB161298  63.530  70.921  27.247
 9429DT     BB261299  63.239  70.741  27.133
 9429DT     BB361300  63.178  70.814  26.949
 9429DT     SC161301  63.078  71.030  27.060
 9429DT     SC261302  62.863  71.025  27.046
 9429DT     SC361303  63.042  71.285  27.119
 9430DA     BB161304  63.224  70.404  26.857
 9430DA     BB261305  62.896  70.506  26.729
 9430DA     BB361306  62.918  70.615  26.547
 9430DA     SC161307  62.936  70.892  26.688
 9430DA     SC261308  62.796  71.098  26.710
 9430DA     SC361309  63.014  71.215  26.776
 9430DA     SC461310  63.082  70.947  26.726
 9431DG     BB161311  62.757  70.399  26.365
 9431DG     BB261312  62.516  70.666  26.330
 9431DG     BB361313  62.560  70.777  26.171
 9431DG     SC161314  62.741  70.970  26.324
 9431DG     SC261315  62.686  71.259  26.374
 9431DG     SC361316  62.961  71.188  26.456
 9431DG     SC461317  62.896  70.935  26.339
 9432DT     BB161318  62.427  70.811  25.955
 9432DT     BB261319  62.290  71.138  26.022
 9432DT     BB361320  62.374  71.277  25.895
 9432DT     SC161321  62.600  71.276  26.029
 9432DT     SC261322  62.624  71.463  26.131
 9432DT     SC361323  62.856  71.242  26.084
 9433DC     BB161324  62.142  71.302  25.746
 9433DC     BB261325  62.207  71.636  25.868
 9433DC     BB361326  62.326  71.738  25.733
 9433DC     SC161327  62.539  71.603  25.805
 9433DC     SC261328  62.674  71.733  25.910
 9433DC     SC361329  62.746  71.441  25.791
 9434DT     BB161330  62.110  71.887  25.677
 9434DT     BB261331  62.359  72.123  25.789
 9434DT     BB361332  62.479  72.179  25.630
 9434DT     SC161333  62.606  71.948  25.635
 9434DT     SC261334  62.807  71.979  25.704
 9434DT     SC361335  62.694  71.712  25.558
 9435DT     BB161336  62.359  72.414  25.650
 9435DT     BB261337  62.710  72.486  25.686
 9435DT     BB361338  62.799  72.502  25.500
 9435DT     SC161339  62.792  72.242  25.466
 9435DT     SC261340  62.992  72.163  25.473
 9435DT     SC361341  62.731  72.006  25.364
 9436DC     BB161342  62.819  72.766  25.542
 9436DC     BB261343  63.156  72.661  25.470
 9436DC     BB361344  63.187  72.656  25.265
 9436DC     SC161345  63.046  72.436  25.241
 9436DC     SC261346  63.177  72.273  25.189
 9436DC     SC361347  62.853  72.271  25.168
 9437DC     BB161348  63.343  72.887  25.265
 9437DC     BB261349  63.552  72.642  25.102
 9437DC     BB361350  63.517  72.644  24.898
 9437DC     SC161351  63.288  72.519  24.929
 9437DC     SC261352  63.304  72.319  24.851
 9437DC     SC361353  63.028  72.472  24.926
 9438DA     BB161354  63.934  72.707  24.906
 9438DA     BB261355  63.872  72.437  24.665
 9438DA     BB361356  63.801  72.517  24.481
 9438DA     SC161357  63.501  72.499  24.560
 9438DA     SC261358  63.300  72.366  24.495
 9438DA     SC361359  63.164  72.557  24.599
 9438DA     SC461360  63.434  72.629  24.628
 9439DC     BB161361  63.914  72.521  24.272
 9439DC     BB261362  63.721  72.254  24.124
 9439DC     BB361363  63.606  72.328  23.969
 9439DC     SC161364  63.438  72.440  24.137
 9439DC     SC261365  63.250  72.336  24.130
 9439DC     SC361366  63.302  72.626  24.264
 9440DA     BB161367  63.821  72.012  23.801
 9440DA     BB261368  63.466  71.956  23.727
 9440DA     BB361369  63.403  72.083  23.568
 9440DA     SC161370  63.315  72.315  23.756
 9440DA     SC261371  63.102  72.423  23.829
 9440DA     SC361372  63.249  72.622  23.895
 9440DA     SC461373  63.423  72.429  23.789
 9441DG     BB161374  63.345  71.809  23.449
 9441DG     BB261375  63.003  71.923  23.480
 9441DG     BB361376  62.957  72.040  23.326
 9441DG     SC161377  63.047  72.298  23.462
 9441DG     SC261378  62.871  72.524  23.547
 9441DG     SC361379  63.156  72.598  23.574
 9441DG     SC461380  63.200  72.344  23.448
 9442DG     BB161381  62.730  71.815  23.324
 9442DG     BB261382  62.502  72.091  23.380
 9442DG     BB361383  62.479  72.194  23.212
 9442DG     SC161384  62.711  72.385  23.267
 9442DG     SC261385  62.689  72.678  23.321
 9442DG     SC361386  62.972  72.598  23.286
 9442DG     SC461387  62.858  72.344  23.218
 9443DT     BB161388  62.293  72.193  23.167
 9443DT     BB261389  62.192  72.534  23.230
 9443DT     BB361390  62.207  72.645  23.056
 9443DT     SC161391  62.469  72.653  23.075
 9443DT     SC261392  62.531  72.854  23.121
 9443DT     SC361393  62.723  72.615  23.017
 9444DG     BB161394  61.832  72.669  23.213
 9444DG     BB261395  61.965  72.996  23.132
 9444DG     BB361396  61.963  73.023  22.935
 9444DG     SC161397  62.242  72.905  22.891
 9444DG     SC261398  62.483  73.056  22.799
 9444DG     SC361399  62.536  72.765  22.804
 9444DG     SC461400  62.257  72.748  22.867
 9445DA     BB161401  61.792  73.326  22.984
 9445DA     BB261402  62.054  73.508  22.803
 9445DA     BB361403  62.035  73.477  22.593
 9445DA     SC161404  62.222  73.228  22.589
 9445DA     SC261405  62.449  73.169  22.503
 9445DA     SC361406  62.370  72.925  22.520
 9445DA     SC461407  62.154  73.083  22.605
 9446DG     BB161408  61.981  73.789  22.534
 9446DG     BB261409  62.289  73.770  22.345
 9446DG     BB361410  62.250  73.715  22.158
 9446DG     SC161411  62.276  73.415  22.216
 9446DG     SC261412  62.489  73.234  22.110
 9446DG     SC361413  62.277  73.080  22.248
 9446DG     SC461414  62.147  73.334  22.264
 9447DG     BB161415  62.368  73.993  21.991
 9447DG     BB261416  62.615  73.776  21.839
 9447DG     BB361417  62.546  73.703  21.668
 9447DG     SC161418  62.419  73.456  21.796
 9447DG     SC261419  62.505  73.173  21.755
 9447DG     SC361420  62.251  73.185  21.906
 9447DG     SC461421  62.268  73.465  21.850
 9448DA     BB161422  62.821  73.816  21.473
 9448DA     BB261423  62.912  73.471  21.389
 9448DA     BB361424  62.798  73.403  21.222
 9448DA     SC161425  62.567  73.287  21.395
 9448DA     SC261426  62.476  73.063  21.456
 9448DA     SC361427  62.261  73.189  21.517
 9448DA     SC461428  62.442  73.383  21.427
 9449DC     BB161429  62.889  73.358  21.030
 9449DC     BB261430  62.879  73.000  21.069
 9449DC     BB361431  62.740  72.919  20.938
 9449DC     SC161432  62.540  73.003  21.086
 9449DC     SC261433  62.443  72.834  21.177
 9449DC     SC361434  62.323  73.135  21.158
 9450DA     BB161435  63.105  72.721  20.910
 9450DA     BB261436  62.842  72.470  20.955
 9450DA     BB361437  62.727  72.451  20.776
 9450DA     SC161438  62.518  72.666  20.859
 9450DA     SC261439  62.278  72.675  20.926
 9450DA     SC361440  62.290  72.923  20.861
 9450DA     SC461441  62.545  72.818  20.812
 9451DA     BB161442  62.819  72.154  20.870
 9451DA     BB261443  62.461  72.077  20.886
 9451DA     BB361444  62.377  72.073  20.690
 9451DA     SC161445  62.300  72.374  20.690
 9451DA     SC261446  62.092  72.511  20.697
 9451DA     SC361447  62.238  72.700  20.602
 9451DA     SC461448  62.407  72.478  20.630
 9452DC     BB161449  62.328  71.918  20.687
 9452DC     BB261450  61.973  71.983  20.699
 9452DC     BB361451  61.900  72.011  20.507
 9452DC     SC161452  62.007  72.251  20.494
 9452DC     SC261453  61.850  72.398  20.496
 9452DC     SC361454  62.160  72.450  20.414
 9453DA     BB161455  61.663  71.738  20.726
 9453DA     BB261456  61.443  71.977  20.556
 9453DA     BB361457  61.450  71.948  20.345
 9453DA     SC161458  61.683  72.150  20.301
 9453DA     SC261459  61.715  72.375  20.198
 9453DA     SC361460  61.964  72.312  20.189
 9453DA     SC461461  61.833  72.092  20.303
 9454DG     BB161462  61.145  71.896  20.382
 9454DG     BB261463  61.117  72.186  20.167
 9454DG     BB361464  61.148  72.133  19.978
 9454DG     SC161465  61.451  72.181  19.989
 9454DG     SC261466  61.601  72.392  19.842
 9454DG     SC361467  61.787  72.203  19.972
 9454DG     SC461468  61.546  72.061  20.036
 9455DT     BB161469  60.991  72.147  19.812
 9455DT     BB261470  61.109  72.430  19.622
 9455DT     BB361471  61.199  72.366  19.447
 9455DT     SC161472  61.412  72.284  19.577
 9455DT     SC261473  61.578  72.411  19.528
 9455DT     SC361474  61.596  72.123  19.675
 9456DT     BB161475  60.988  72.446  19.283
 9456DT     BB261476  61.276  72.616  19.146
 9456DT     BB361477  61.367  72.496  19.004
 9456DT     SC161478  61.469  72.340  19.189
 9456DT     SC261479  61.683  72.368  19.196
 9456DT     SC361480  61.518  72.124  19.333
 9457DA     BB161481  61.299  72.862  18.810
 9457DA     BB261482  61.651  72.772  18.757
 9457DA     BB361483  61.666  72.615  18.613
 9457DA     SC161484  61.652  72.387  18.824
 9457DA     SC261485  61.804  72.214  18.920
 9457DA     SC361486  61.589  72.093  18.989
 9457DA     SC461487  61.507  72.326  18.857
 9458DG     BB161488  61.833  72.826  18.458
 9458DG     BB261489  62.100  72.591  18.520
 9458DG     BB361490  62.094  72.445  18.385
 9458DG     SC161491  61.908  72.266  18.551
 9458DG     SC261492  61.981  72.003  18.672
 9458DG     SC361493  61.690  72.054  18.696
 9458DG     SC461494  61.750  72.283  18.535
 9459DA     BB161495  62.427  72.525  18.347
 9459DA     BB261496  62.516  72.183  18.445
 9459DA     BB361497  62.473  72.047  18.286
 9459DA     SC161498  62.184  71.986  18.385
 9459DA     SC261499  62.060  71.795  18.486
 9459DA     SC361500  61.848  71.916  18.405
 9459DA     SC461501  62.065  72.076  18.326
 9460DA     BB161502  62.784  71.985  18.363
 9460DA     BB261503  62.670  71.645  18.441
 9460DA     BB361504  62.619  71.541  18.261
 9460DA     SC161505  62.321  71.629  18.267
 9460DA     SC261506  62.098  71.524  18.306
 9460DA     SC361507  62.003  71.729  18.183
 9460DA     SC461508  62.281  71.763  18.187
 9461DT     BB161509  62.730  71.395  18.229
 9461DT     BB261510  62.492  71.136  18.309
 9461DT     BB361511  62.409  71.061  18.136
 9461DT     SC161512  62.260  71.274  18.105
 9461DT     SC261513  62.054  71.223  18.139
 9461DT     SC361514  62.161  71.495  18.000
 9462DA     BB161515  62.550  70.733  18.357
 9462DA     BB261516  62.207  70.657  18.249
 9462DA     BB361517  62.203  70.615  18.040
 9462DA     SC161518  62.151  70.910  17.957
 9462DA     SC261519  61.965  71.044  17.859
 9462DA     SC361520  62.147  71.212  17.794
 9462DA     SC461521  62.279  71.001  17.924
 9463DA     BB161522  62.056  70.335  18.137
 9463DA     BB261523  61.766  70.438  17.937
 9463DA     BB361524  61.802  70.405  17.730
 9463DA     SC161525  61.922  70.688  17.680
 9463DA     SC261526  61.858  70.897  17.560
 9463DA     SC361527  62.108  70.954  17.568
 9463DA     SC461528  62.081  70.705  17.694
 9464DC     BB161529  61.694  70.260  17.622
 9464DC     BB261530  61.487  70.489  17.437
 9464DC     BB361531  61.548  70.496  17.239
 9464DC     SC161532  61.759  70.639  17.301
 9464DC     SC261533  61.736  70.838  17.223
 9464DC     SC361534  62.012  70.708  17.332
 9465DT     BB161535  61.328  70.353  17.153
 9465DT     BB261536  61.315  70.658  16.960
 9465DT     BB361537  61.424  70.635  16.785
 9465DT     SC161538  61.652  70.653  16.915
 9465DT     SC261539  61.748  70.838  16.864
 9465DT     SC361540  61.887  70.586  17.014
 9466DG     BB161541  61.045  70.732  16.670
 9466DG     BB261542  61.288  70.951  16.516
 9466DG     BB361543  61.374  70.860  16.361
 9466DG     SC161544  61.600  70.737  16.527
 9466DG     SC261545  61.890  70.806  16.507
 9466DG     SC361546  61.849  70.570  16.681
 9466DG     SC461547  61.577  70.594  16.596
 9467DT     BB161548  61.352  70.938  16.154
 9467DT     BB261549  61.679  71.079  16.096
 9467DT     BB361550  61.789  70.954  15.973
 9467DT     SC161551  61.829  70.784  16.168
 9467DT     SC261552  62.037  70.788  16.225
 9467DT     SC361553  61.821  70.560  16.308
 9468DT     BB161554  61.763  71.129  15.764
 9468DT     BB261555  62.120  71.087  15.800
 9468DT     BB361556  62.183  70.924  15.689
 9468DT     SC161557  62.082  70.756  15.864
 9468DT     SC261558  62.242  70.655  15.966
 9468DT     SC361559  61.930  70.566  15.966
 9469DA     BB161560  62.428  71.243  15.570
 9469DA     BB261561  62.647  70.957  15.642
 9469DA     BB361562  62.634  70.812  15.486
 9469DA     SC161563  62.402  70.654  15.619
 9469DA     SC261564  62.368  70.432  15.728
 9469DA     SC361565  62.119  70.468  15.679
 9469DA     SC461566  62.251  70.694  15.579
 9470DA     BB161567  62.963  70.844  15.470
 9470DA     BB261568  62.985  70.488  15.557
 9470DA     BB361569  62.944  70.367  15.386
 9470DA     SC161570  62.639  70.349  15.442
 9470DA     SC261571  62.474  70.176  15.513
 9470DA     SC361572  62.297  70.332  15.413
 9470DA     SC461573  62.544  70.459  15.373
 9471DG     BB161574  63.236  70.248  15.408
 9471DG     BB261575  63.061  69.939  15.477
 9471DG     BB361576  63.016  69.847  15.306
 9471DG     SC161577  62.745  69.986  15.275
 9471DG     SC261578  62.477  69.853  15.290
 9471DG     SC361579  62.451  70.133  15.198
 9471DG     SC461580  62.738  70.126  15.198
 9472DA     BB161581  63.169  69.560  15.430
 9472DA     BB261582  62.852  69.378  15.404
 9472DA     BB361583  62.816  69.319  15.202
 9472DA     SC161584  62.660  69.577  15.129
 9472DA     SC261585  62.425  69.642  15.076
 9472DA     SC361586  62.528  69.851  14.969
 9472DA     SC461587  62.743  69.700  15.067
 9473DA     BB161588  62.788  69.023  15.339
 9473DA     BB261589  62.441  69.021  15.221
 9473DA     BB361590  62.434  68.977  15.013
 9473DA     SC161591  62.450  69.275  14.924
 9473DA     SC261592  62.301  69.445  14.819
 9473DA     SC361593  62.517  69.568  14.759
 9473DA     SC461594  62.596  69.336  14.895
 9474DG     BB161595  62.266  68.739  15.113
 9474DG     BB261596  62.004  68.908  14.929
 9474DG     BB361597  62.016  68.862  14.736
 9474DG     SC161598  62.203  69.094  14.668
 9474DG     SC261599  62.136  69.329  14.496
 9474DG     SC361600  62.425  69.325  14.561
 9474DG     SC461601  62.362  69.072  14.680
 9475DT     BB161602  61.851  68.768  14.657
 9475DT     BB261603  61.701  69.032  14.463
 9475DT     BB361604  61.750  69.009  14.263
 9475DT     SC161605  61.995  69.094  14.305
 9475DT     SC261606  62.020  69.287  14.213
 9475DT     SC361607  62.258  69.094  14.320
 9476DG     BB161608  61.349  69.036  14.328
 9476DG     BB261609  61.462  69.270  14.077
 9476DG     BB361610  61.503  69.174  13.908
 9476DG     SC161611  61.796  69.121  13.980
 9476DG     SC261612  62.034  69.238  13.843
 9476DG     SC361613  62.115  69.029  14.036
 9476DG     SC461614  61.833  68.989  14.062
 9477DA     BB161615  61.307  69.431  13.791
 9477DA     BB261616  61.577  69.526  13.561
 9477DA     BB361617  61.600  69.377  13.409
 9477DA     SC161618  61.809  69.212  13.569
 9477DA     SC261619  62.053  69.160  13.555
 9477DA     SC361620  61.998  68.959  13.705
 9477DA     SC461621  61.755  69.092  13.661
 9478DA     BB161622  61.576  69.657  13.236
 9478DA     BB261623  61.899  69.567  13.088
 9478DA     BB361624  61.878  69.398  12.960
 9478DA     SC161625  61.936  69.190  13.184
 9478DA     SC261626  62.117  69.029  13.244
 9478DA     SC361627  61.938  68.912  13.386
 9478DA     SC461628  61.810  69.130  13.264
 9479DG     BB161629  61.981  69.581  12.723
 9479DG     BB261630  62.247  69.338  12.701
 9479DG     BB361631  62.186  69.180  12.596
 9479DG     SC161632  62.079  69.029  12.840
 9479DG     SC261633  62.189  68.775  12.952
 9479DG     SC361634  61.933  68.845  13.082
 9479DG     SC461635  61.927  69.053  12.886
 9480DA     BB161636  62.448  69.175  12.339
 9480DA     BB261637  62.550  68.835  12.431
 9480DA     BB361638  62.423  68.691  12.337
 9480DA     SC161639  62.220  68.681  12.572
 9480DA     SC261640  62.150  68.519  12.749
 9480DA     SC361641  61.936  68.659  12.764
 9480DA     SC461642  62.094  68.780  12.566
 9481DA     BB161643  62.659  68.500  12.145
 9481DA     BB261644  62.577  68.203  12.343
 9481DA     BB361645  62.416  68.096  12.253
 9481DA     SC161646  62.195  68.248  12.411
 9481DA     SC261647  62.031  68.198  12.592
 9481DA     SC361648  61.906  68.406  12.508
 9481DA     SC461649  62.131  68.379  12.343
 9482DG     BB161650  62.563  67.801  12.167
 9482DG     BB261651  62.348  67.661  12.423
 9482DG     BB361652  62.184  67.586  12.339
 9482DG     SC161653  62.025  67.846  12.358
 9482DG     SC261654  61.785  67.893  12.529
 9482DG     SC361655  61.829  68.120  12.344
 9482DG     SC461656  62.034  67.952  12.238
 9483DG     BB161657  62.230  67.265  12.441
 9483DG     BB261658  61.939  67.316  12.651
 9483DG     BB361659  61.775  67.260  12.553
 9483DG     SC161660  61.724  67.535  12.429
 9483DG     SC261661  61.494  67.715  12.490
 9483DG     SC361662  61.650  67.817  12.260
 9483DG     SC461663  61.792  67.570  12.288
 9484DT     BB161664  61.649  67.097  12.634
 9484DT     BB261665  61.382  67.290  12.780
 9484DT     BB361666  61.212  67.275  12.663
 9484DT     SC161667  61.313  67.435  12.481
 9484DT     SC261668  61.206  67.622  12.483
 9484DT     SC361669  61.407  67.521  12.250
 9485DT     BB161670  61.131  67.146  12.873
 9485DT     BB261671  60.906  67.425  12.835
 9485DT     BB361672  60.764  67.383  12.690
 9485DT     SC161673  60.939  67.418  12.498
 9485DT     SC261674  60.890  67.596  12.388
 9485DT     SC361675  61.096  67.365  12.292
 9486DG     BB161676  60.617  67.505  13.052
 9486DG     BB261677  60.484  67.697  12.776
 9486DG     BB361678  60.357  67.586  12.671
 9486DG     SC161679  60.571  67.476  12.481
 9486DG     SC261680  60.592  67.534  12.189
 9486DG     SC361681  60.782  67.321  12.269
 9486DG     SC461682  60.650  67.343  12.522
 9487DA     BB161683  60.172  67.875  12.716
 9487DA     BB261684  60.132  67.897  12.352
 9487DA     BB361685  60.007  67.739  12.281
 9487DA     SC161686  60.244  67.543  12.231
 9487DA     SC261687  60.361  67.441  12.035
 9487DA     SC361688  60.443  67.265  12.203
 9487DA     SC461689  60.284  67.443  12.350
 9488DC     BB161690  59.841  67.796  12.209
 9488DC     BB261691  59.910  67.725  11.862
 9488DC     BB361692  59.824  67.544  11.808
 9488DC     SC161693  60.009  67.409  11.937
 9488DC     SC261694  60.135  67.308  11.796
 9488DC     SC361695  60.121  67.249  12.114
 9489DC     BB161696  59.616  67.660  11.662
 9489DC     BB261697  59.766  67.430  11.428
 9489DC     BB361698  59.677  67.244  11.445
 9489DC     SC161699  59.803  67.195  11.670
 9489DC     SC261700  59.949  67.041  11.637
 9489DC     SC361701  59.844  67.146  11.925
 9490DT     BB161702  59.511  67.251  11.207
 9490DT     BB261703  59.703  66.948  11.166
 9490DT     BB361704  59.598  66.787  11.243
 9490DT     SC161705  59.650  66.861  11.490
 9490DT     SC261706  59.787  66.721  11.579
 9490DT     SC361707  59.613  66.943  11.737
 9491DA     BB161708  59.664  66.650  10.850
 9491DA     BB261709  59.776  66.384  11.075
 9491DA     BB361710  59.609  66.272  11.147
 9491DA     SC161711  59.568  66.451  11.399
 9491DA     SC261712  59.595  66.431  11.646
 9491DA     SC361713  59.434  66.630  11.659
 9491DA     SC461714  59.465  66.574  11.386
 9492DA     BB161715  59.775  66.016  11.026
 9492DA     BB261716  59.804  65.897  11.372
 9492DA     BB361717  59.622  65.804  11.434
 9492DA     SC161718  59.498  66.066  11.547
 9492DA     SC261719  59.440  66.162  11.770
 9492DA     SC361720  59.285  66.319  11.640
 9492DA     SC461721  59.406  66.154  11.448
 9493DT     BB161722  59.635  65.614  11.473
 9493DT     BB261723  59.632  65.650  11.832
 9493DT     BB361724  59.446  65.597  11.907
 9493DT     SC161725  59.339  65.821  11.821
 9493DT     SC261726  59.289  65.945  11.989
 9493DT     SC361727  59.184  65.985  11.685
 9494DA     BB161728  59.766  65.417  12.111
 9494DA     BB261729  59.541  65.572  12.356
 9494DA     BB361730  59.357  65.465  12.365
 9494DA     SC161731  59.218  65.637  12.147
 9494DA     SC261732  59.035  65.806  12.134
 9494DA     SC361733  59.026  65.747  11.885
 9494DA     SC461734  59.227  65.586  11.995
 9495DT     BB161735  59.351  65.406  12.526
 9495DT     BB261736  59.095  65.630  12.645
 9495DT     BB361737  58.909  65.542  12.626
 9495DT     SC161738  58.909  65.580  12.366
 9495DT     SC261739  58.761  65.729  12.316
 9495DT     SC361740  58.908  65.528  12.108
 9496DC     BB161741  58.926  65.542  12.885
 9496DC     BB261742  58.623  65.723  12.807
 9496DC     BB361743  58.471  65.590  12.763
 9496DC     SC161744  58.574  65.537  12.528
 9496DC     SC261745  58.448  65.618  12.374
 9496DC     SC361746  58.685  65.402  12.330
 9497DT     BB161747  58.371  65.671  12.992
 9497DT     BB261748  58.112  65.731  12.748
 9497DT     BB361749  58.009  65.555  12.710
 9497DT     SC161750  58.207  65.460  12.567
 9497DT     SC261751  58.149  65.453  12.360
 9497DT     SC361752  58.405  65.304  12.491
 9498DA     BB161753  57.726  65.854  12.800
 9498DA     BB261754  57.615  65.679  12.497
 9498DA     BB361755  57.546  65.483  12.546
 9498DA     SC161756  57.825  65.350  12.506
 9498DA     SC261757  57.933  65.193  12.345
 9498DA     SC361758  58.104  65.151  12.532
 9498DA     SC461759  57.920  65.336  12.635
 9499DT     BB161760  57.351  65.440  12.522
 9499DT     BB261761  57.386  65.232  12.229
 9499DT     BB361762  57.367  65.032  12.282
 9499DT     SC161763  57.606  65.029  12.389
 9499DT     SC261764  57.737  64.909  12.268
 9499DT     SC361765  57.797  65.010  12.570
 9500DA     BB161766  57.092  65.092  11.969
 9500DA     BB261767  57.288  64.792  11.890
 9500DA     BB361768  57.227  64.629  12.012
 9500DA     SC161769  57.433  64.689  12.237
 9500DA     SC261770  57.641  64.587  12.330
 9500DA     SC361771  57.593  64.727  12.539
 9500DA     SC461772  57.386  64.783  12.359
 9501DT     BB161773  57.134  64.466  11.928
 9501DT     BB261774  57.415  64.240  11.951
 9501DT     BB361775  57.383  64.103  12.103
 9501DT     SC161776  57.433  64.283  12.287
 9501DT     SC261777  57.619  64.237  12.384
 9501DT     SC361778  57.395  64.446  12.491
 9502DA     BB161779  57.479  63.880  11.760
 9502DA     BB261780  57.689  63.759  12.035
 9502DA     BB361781  57.574  63.642  12.171
 9502DA     SC161782  57.498  63.883  12.352
 9502DA     SC261783  57.551  63.966  12.581
 9502DA     SC361784  57.335  64.104  12.559
 9502DA     SC461785  57.360  63.960  12.319
 9503DT     BB161786  57.612  63.440  12.189
 9503DT     BB261787  57.777  63.458  12.509
 9503DT     BB361788  57.652  63.385  12.657
 9503DT     SC161789  57.505  63.602  12.652
 9503DT     SC261790  57.535  63.713  12.833
 9503DT     SC361791  57.296  63.760  12.619
 9504DG     BB161792  57.990  63.157  12.671
 9504DG     BB261793  57.912  63.295  12.996
 9504DG     BB361794  57.767  63.189  13.081
 9504DG     SC161795  57.540  63.358  12.963
 9504DG     SC261796  57.354  63.534  13.116
 9504DG     SC361797  57.268  63.509  12.835
 9504DG     SC461798  57.481  63.319  12.820
 9505DT     BB161799  57.799  63.077  13.273
 9505DT     BB261800  57.626  63.290  13.508
 9505DT     BB361801  57.445  63.203  13.561
 9505DT     SC161802  57.338  63.266  13.330
 9505DT     SC261803  57.189  63.419  13.359
 9505DT     SC361804  57.227  63.238  13.092
 9506DT     BB161805  57.547  63.150  13.806
 9506DT     BB261806  57.254  63.351  13.870
 9506DT     BB361807  57.086  63.230  13.880
 9506DT     SC161808  57.084  63.198  13.620
 9506DT     SC261809  56.914  63.301  13.537
 9506DT     SC361810  57.096  63.080  13.384
 9507DA     BB161811  57.098  63.477  14.218
 9507DA     BB261812  56.763  63.500  14.072
 9507DA     BB361813  56.654  63.319  14.107
 9507DA     SC161814  56.747  63.183  13.844
 9507DA     SC261815  56.646  63.115  13.626
 9507DA     SC361816  56.848  62.958  13.605
 9507DA     SC461817  56.879  63.091  13.850
 9508DA     BB161818  56.451  63.550  14.217
 9508DA     BB261819  56.214  63.428  13.965
 9508DA     BB361820  56.135  63.239  14.023
 9508DA     SC161821  56.356  63.075  13.877
 9508DA     SC261822  56.374  62.925  13.678
 9508DA     SC361823  56.590  62.840  13.788
 9508DA     SC461824  56.487  63.034  13.962
 9509DC     BB161825  55.951  63.243  14.057
 9509DC     BB261826  55.844  63.067  13.761
 9509DC     BB361827  55.803  62.869  13.807
 9509DC     SC161828  56.059  62.813  13.824
 9509DC     SC261829  56.115  62.686  13.660
 9509DC     SC361830  56.290  62.739  13.927
 9510DC     BB161831  55.550  62.934  13.768
 9510DC     BB261832  55.612  62.658  13.544
 9510DC     BB361833  55.594  62.479  13.645
 9510DC     SC161834  55.825  62.515  13.765
 9510DC     SC261835  55.968  62.373  13.688
 9510DC     SC361836  56.002  62.552  13.956
 9511DA     BB161837  55.353  62.452  13.302
 9511DA     BB261838  55.552  62.145  13.324
 9511DA     BB361839  55.480  62.021  13.482
 9511DA     SC161840  55.668  62.144  13.697
 9511DA     SC261841  55.867  62.073  13.831
 9511DA     SC361842  55.804  62.265  13.988
 9511DA     SC461843  55.612  62.267  13.784
 9512DT     BB161844  55.393  61.843  13.437
 9512DT     BB261845  55.662  61.630  13.551
 9512DT     BB361846  55.611  61.544  13.732
 9512DT     SC161847  55.653  61.769  13.860
 9512DT     SC261848  55.828  61.750  13.983
 9512DT     SC361849  55.606  61.985  14.003
 9513DG     BB161850  55.676  61.225  13.484
 9513DG     BB261851  55.866  61.192  13.790
 9513DG     BB361852  55.749  61.126  13.936
 9513DG     SC161853  55.664  61.406  14.027
 9513DG     SC261854  55.734  61.533  14.288
 9513DG     SC361855  55.535  61.696  14.141
 9513DG     SC461856  55.537  61.474  13.959
 9514DT     BB161857  55.773  60.921  14.046
 9514DT     BB261858  55.908  61.027  14.363
 9514DT     BB361859  55.763  61.012  14.510
 9514DT     SC161860  55.639  61.225  14.421
 9514DT     SC261861  55.661  61.385  14.563
 9514DT     SC361862  55.450  61.377  14.317
 9515DT     BB161863  55.878  60.787  14.627
 9515DT     BB261864  55.858  61.026  14.897
 9515DT     BB361865  55.676  61.007  14.994
 9515DT     SC161866  55.549  61.125  14.797
 9515DT     SC261867  55.480  61.318  14.862
 9515DT     SC361868  55.383  61.162  14.595
 9516DC     BB161869  55.787  60.885  15.219
 9516DC     BB261870  55.616  61.174  15.352
 9516DC     BB361871  55.420  61.124  15.399
 9516DC     SC161872  55.352  61.122  15.145
 9516DC     SC261873  55.222  61.289  15.105
 9516DC     SC361874  55.268  61.034  14.911
 9517DA     BB161875  55.574  61.293  15.750
 9517DA     BB261876  55.255  61.459  15.679
 9517DA     BB361877  55.092  61.330  15.728
 9517DA     SC161878  55.075  61.202  15.445
 9517DA     SC261879  54.919  61.205  15.251
 9517DA     SC361880  55.035  60.987  15.181
 9517DA     SC461881  55.159  61.068  15.420
 9518DT     BB161882  54.961  61.377  15.887
 9518DT     BB261883  54.684  61.481  15.679
 9518DT     BB361884  54.534  61.339  15.684
 9518DT     SC161885  54.671  61.178  15.529
 9518DT     SC261886  54.575  61.165  15.337
 9518DT     SC361887  54.805  60.965  15.448
 9519DA     BB161888  54.353  61.704  15.780
 9519DA     BB261889  54.155  61.547  15.514
 9519DA     BB361890  54.040  61.386  15.593
 9519DA     SC161891  54.259  61.171  15.540
 9519DA     SC261892  54.294  60.976  15.388
 9519DA     SC361893  54.469  60.900  15.559
 9519DA     SC461894  54.363  61.140  15.659
 9520DT     BB161895  53.840  61.404  15.591
 9520DT     BB261896  53.781  61.180  15.315
 9520DT     BB361897  53.704  61.001  15.385
 9520DT     SC161898  53.938  60.927  15.476
 9520DT     SC261899  54.013  60.763  15.357
 9520DT     SC361900  54.128  60.857  15.646
 9521DG     BB161901  53.451  61.161  15.110
 9521DG     BB261902  53.542  60.821  15.026
 9521DG     BB361903  53.441  60.694  15.141
 9521DG     SC161904  53.651  60.688  15.363
 9521DG     SC261905  53.819  60.453  15.439
 9521DG     SC361906  53.851  60.673  15.634
 9521DG     SC461907  53.643  60.796  15.481
 9522DT     BB161908  53.329  60.570  15.034
 9522DT     BB261909  53.511  60.260  15.062
 9522DT     BB361910  53.431  60.144  15.213
 9522DT     SC161911  53.539  60.297  15.397
 9522DT     SC261912  53.695  60.188  15.497
 9522DT     SC361913  53.560  60.463  15.601
 9523DT     BB161914  53.356  59.996  15.012
 9523DT     BB261915  53.552  59.780  15.225
 9523DT     BB361916  53.438  59.714  15.384
 9523DT     SC161917  53.452  59.948  15.502
 9523DT     SC261918  53.574  59.931  15.679
 9523DT     SC361919  53.378  60.178  15.606
 9524DC     BB161920  53.448  59.479  15.264
 9524DC     BB261921  53.576  59.421  15.596
 9524DC     BB361922  53.419  59.397  15.729
 9524DC     SC161923  53.367  59.654  15.727
 9524DC     SC261924  53.419  59.739  15.917
 9524DC     SC361925  53.238  59.881  15.689
 9525DC     BB161926  53.473  59.132  15.745
 9525DC     BB261927  53.481  59.246  16.087
 9525DC     BB361928  53.290  59.244  16.167
 9525DC     SC161929  53.224  59.459  16.031
 9525DC     SC261930  53.199  59.624  16.167
 9525DC     SC361931  53.099  59.615  15.859
 9526DA     BB161932  53.518  59.019  16.440
 9526DA     BB261933  53.323  59.263  16.633
 9526DA     BB361934  53.118  59.204  16.642
 9526DA     SC161935  53.037  59.360  16.385
 9526DA     SC261936  52.901  59.561  16.326
 9526DA     SC361937  52.892  59.460  16.090
 9526DA     SC461938  53.042  59.280  16.245
 9527DT     BB161939  53.016  59.139  16.826
 9527DT     BB261940  52.824  59.441  16.875
 9527DT     BB361941  52.624  59.405  16.835
 9527DT     SC161942  52.668  59.400  16.576
 9527DT     SC261943  52.579  59.574  16.486
 9527DT     SC361944  52.684  59.310  16.329
 9528DG     BB161945  52.624  59.530  17.225
 9528DG     BB261946  52.397  59.728  17.024
 9528DG     BB361947  52.225  59.632  17.000
 9528DG     SC161948  52.314  59.487  16.745
 9528DG     SC261949  52.202  59.531  16.472
 9528DG     SC361950  52.384  59.298  16.475
 9528DG     SC461951  52.388  59.346  16.758
 9529DT     BB161952  52.031  59.714  17.078
 9529DT     BB261953  51.885  59.835  16.771
 9529DT     BB361954  51.733  59.708  16.710
 9529DT     SC161955  51.905  59.527  16.630
 9529DT     SC261956  51.901  59.515  16.415
 9529DT     SC361957  52.037  59.299  16.615
 9530DA     BB161958  51.604  60.106  16.712
 9530DA     BB261959  51.521  59.959  16.387
 9530DA     BB361960  51.361  59.818  16.408
 9530DA     SC161961  51.549  59.575  16.457
 9530DA     SC261962  51.618  59.368  16.336
 9530DA     SC361963  51.689  59.282  16.567
 9530DA     SC461964  51.585  59.539  16.609
 9531DT     BB161965  51.225  59.879  16.314
 9531DT     BB261966  51.249  59.643  16.042
 9531DT     BB361967  51.118  59.486  16.073
 9531DT     SC161968  51.273  59.383  16.259
 9531DT     SC261969  51.360  59.200  16.186
 9531DT     SC361970  51.356  59.299  16.495
 9532DT     BB161971  51.001  59.596  15.869
 9532DT     BB261972  51.068  59.255  15.771
 9532DT     BB361973  50.926  59.129  15.852
 9532DT     SC161974  51.034  59.147  16.091
 9532DT     SC261975  51.124  58.959  16.143
 9532DT     SC361976  51.061  59.203  16.347
 9533DA     BB161977  50.970  59.054  15.441
 9533DA     BB261978  50.973  58.733  15.617
 9533DA     BB361979  50.778  58.689  15.694
 9533DA     SC161980  50.829  58.826  15.968
 9533DA     SC261981  50.858  58.758  16.206
 9533DA     SC361982  50.796  59.001  16.262
 9533DA     SC461983  50.787  58.981  15.983
 9534DT     BB161984  50.685  58.535  15.616
 9534DT     BB261985  50.714  58.312  15.898
 9534DT     BB361986  50.535  58.304  16.000
 9534DT     SC161987  50.575  58.542  16.104
 9534DT     SC261988  50.612  58.522  16.315
 9534DT     SC361989  50.541  58.797  16.160
 9535DA     BB161990  50.626  57.902  15.922
 9535DA     BB261991  50.534  57.926  16.276
 9535DA     BB361992  50.323  57.949  16.296
 9535DA     SC161993  50.332  58.260  16.290
 9535DA     SC261994  50.294  58.449  16.448
 9535DA     SC361995  50.263  58.592  16.238
 9535DA     SC461996  50.315  58.332  16.147
 9536DT     BB161997  50.196  57.797  16.382
 9536DT     BB261998  50.135  57.964  16.696
 9536DT     BB361999  49.941  58.034  16.702
 9536DT     SC162000  49.997  58.230  16.537
 9536DT     SC262001  49.989  58.417  16.643
 9536DT     SC362002  49.993  58.381  16.321
 9537DA     BB162003  49.986  57.807  17.053
 9537DA     BB262004  49.842  58.131  17.148
 9537DA     BB362005  49.636  58.139  17.095
 9537DA     SC162006  49.688  58.259  16.813
 9537DA     SC262007  49.652  58.476  16.695
 9537DA     SC362008  49.675  58.339  16.479
 9537DA     SC462009  49.704  58.157  16.690
 9538DT     BB162010  49.490  58.148  17.243
 9538DT     BB262011  49.408  58.496  17.200
 9538DT     BB362012  49.224  58.515  17.108
 9538DT     SC162013  49.324  58.446  16.876
 9538DT     SC262014  49.325  58.616  16.744
 9538DT     SC362015  49.368  58.308  16.655
 9539DT     BB162016  49.119  58.601  17.342
 9539DT     BB262017  49.050  58.867  17.108
 9539DT     BB362018  48.873  58.829  17.008
 9539DT     SC162019  48.987  58.644  16.860
 9539DT     SC262020  49.001  58.714  16.657
 9539DT     SC362021  49.041  58.408  16.756
 9540DT     BB162022  48.760  59.028  17.148
 9540DT     BB262023  48.710  59.119  16.802
 9540DT     BB362024  48.538  59.029  16.729
 9540DT     SC162025  48.658  58.795  16.716
 9540DT     SC262026  48.686  58.741  16.509
 9540DT     SC362027  48.714  58.542  16.763
 9541DA     BB162028  48.510  59.438  16.641
 9541DA     BB262029  48.430  59.251  16.336
 9541DA     BB362030  48.237  59.162  16.353
 9541DA     SC162031  48.344  58.895  16.472
 9541DA     SC262032  48.368  58.658  16.401
 9541DA     SC362033  48.384  58.606  16.652
 9541DA     SC462034  48.350  58.883  16.632
 9542DT     BB162035  48.100  59.229  16.231
 9542DT     BB262036  48.089  58.943  16.012
 9542DT     BB362037  47.923  58.827  16.056
 9542DT     SC162038  48.036  58.734  16.274
 9542DT     SC262039  48.083  58.526  16.247
 9542DT     SC362040  48.079  58.685  16.530
 9543DA     BB162041  47.913  58.901  15.643
 9543DA     BB262042  47.861  58.542  15.694
 9543DA     BB362043  47.666  58.505  15.772
 9543DA     SC162044  47.756  58.522  16.070
 9543DA     SC262045  47.784  58.368  16.263
 9543DA     SC362046  47.774  58.579  16.408
 9543DA     SC462047  47.746  58.665  16.142
 9544DA     BB162048  47.643  58.302  15.513
 9544DA     BB262049  47.595  58.029  15.753
 9544DA     BB362050  47.397  58.035  15.833
 9544DA     SC162051  47.473  58.217  16.074
 9544DA     SC262052  47.494  58.197  16.321
 9544DA     SC362053  47.473  58.453  16.324
 9544DA     SC462054  47.457  58.376  16.054
 9545DT     BB162055  47.259  57.882  15.791
 9545DT     BB262056  47.270  57.723  16.115
 9545DT     BB362057  47.096  57.765  16.220
 9545DT     SC162058  47.175  58.010  16.268
 9545DT     SC262059  47.219  58.031  16.478
 9545DT     SC362060  47.181  58.274  16.267
 9546DA     BB162061  47.131  57.346  16.226
 9546DA     BB262062  47.073  57.459  16.570
 9546DA     BB362063  46.869  57.516  16.596
 9546DA     SC162064  46.917  57.814  16.520
 9546DA     SC262065  46.918  58.036  16.633
 9546DA     SC362066  46.888  58.134  16.398
 9546DA     SC462067  46.897  57.855  16.366
 9547DC     BB162068  46.737  57.406  16.723
 9547DC     BB262069  46.735  57.645  16.993
 9547DC     BB362070  46.552  57.742  17.000
 9547DC     SC162071  46.613  57.887  16.790
 9547DC     SC262072  46.641  58.092  16.850
 9547DC     SC362073  46.603  57.987  16.546
 9548DC     BB162074  46.484  57.607  17.226
 9548DC     BB262075  46.467  57.955  17.319
 9548DC     BB362076  46.280  58.031  17.275
 9548DC     SC162077  46.334  58.038  17.018
 9548DC     SC262078  46.351  58.242  16.954
 9548DC     SC362079  46.320  57.984  16.761
 9549DT     BB162080  46.235  58.041  17.539
 9549DT     BB262081  46.198  58.381  17.424
 9549DT     BB362082  46.006  58.411  17.354
 9549DT     SC162083  46.056  58.277  17.135
 9549DT     SC262084  46.059  58.412  16.967
 9549DT     SC362085  46.042  58.088  16.950
 9550DG     BB162086  46.103  58.679  17.644
 9550DG     BB262087  45.987  58.842  17.343
 9550DG     BB362088  45.789  58.824  17.328
 9550DG     SC162089  45.800  58.560  17.173
 9550DG     SC262090  45.716  58.519  16.889
 9550DG     SC362091  45.775  58.260  17.019
 9550DG     SC462092  45.804  58.422  17.254
 9551DT     BB162093  45.702  58.999  17.321
 9551DT     BB262094  45.601  59.023  16.976
 9551DT     BB362095  45.405  58.962  16.955
 9551DT     SC162096  45.471  58.710  16.983
 9551DT     SC262097  45.445  58.608  16.796
 9551DT     SC362098  45.485  58.467  17.085
 9552DA     BB162099  45.469  59.330  16.764
 9552DA     BB262100  45.283  59.113  16.535
 9552DA     BB362101  45.083  59.086  16.605
 9552DA     SC162102  45.150  58.832  16.772
 9552DA     SC262103  45.103  58.587  16.763
 9552DA     SC362104  45.161  58.587  17.013
 9552DA     SC462105  45.188  58.853  16.926
 9553DA     BB162106  45.021  59.185  16.297
 9553DA     BB262107  44.841  58.869  16.250
 9553DA     BB362108  44.654  58.874  16.354
 9553DA     SC162109  44.770  58.755  16.617
 9553DA     SC262110  44.754  58.542  16.746
 9553DA     SC362111  44.838  58.680  16.945
 9553DA     SC462112  44.822  58.858  16.729
 9554DA     BB162113  44.515  58.797  16.062
 9554DA     BB262114  44.380  58.494  16.219
 9554DA     BB362115  44.210  58.542  16.338
 9554DA     SC162116  44.374  58.589  16.598
 9554DA     SC262117  44.407  58.478  16.819
 9554DA     SC362118  44.493  58.706  16.898
 9554DA     SC462119  44.423  58.739  16.628
 9555DC     BB162120  43.987  58.485  16.295
 9555DC     BB262121  43.958  58.232  16.551
 9555DC     BB362122  43.830  58.297  16.700
 9555DC     SC162123  44.011  58.461  16.796
 9555DC     SC262124  44.079  58.389  16.987
 9555DC     SC362125  44.131  58.685  16.866
 9556DT     BB162126  43.593  58.138  16.635
 9556DT     BB262127  43.656  58.052  16.979
 9556DT     BB362128  43.543  58.173  17.104
 9556DT     SC162129  43.700  58.378  17.061
 9556DT     SC262130  43.811  58.422  17.241
 9556DT     SC362131  43.781  58.617  16.984
 9557DA     BB162132  43.430  57.788  17.231
 9557DA     BB262133  43.525  57.976  17.531
 9557DA     BB362134  43.366  58.106  17.591
 9557DA     SC162135  43.468  58.347  17.423
 9557DA     SC262136  43.569  58.571  17.464
 9557DA     SC362137  43.491  58.628  17.226
 9557DA     SC462138  43.410  58.363  17.273
 9558DT     BB162139  43.259  58.075  17.775
 9558DT     BB262140  43.420  58.343  17.956
 9558DT     BB362141  43.286  58.497  17.988
 9558DT     SC162142  43.302  58.574  17.737
 9558DT     SC262143  43.404  58.763  17.727
 9558DT     SC362144  43.230  58.627  17.489
 9559DC     BB162145  43.287  58.428  18.247
 9559DC     BB262146  43.396  58.772  18.243
 9559DC     BB362147  43.232  58.898  18.246
 9559DC     SC162148  43.178  58.846  17.994
 9559DC     SC262149  43.217  59.021  17.875
 9559DC     SC362150  43.049  58.761  17.780
 9560DC     BB162151  43.323  58.951  18.484
 9560DC     BB262152  43.315  59.268  18.311
 9560DC     BB362153  43.123  59.346  18.316
 9560DC     SC162154  43.040  59.175  18.136
 9560DC     SC262155  42.999  59.279  17.952
 9560DC     SC362156  42.906  58.977  18.024
 9561DA     BB162157  43.408  59.632  18.430
 9561DA     BB262158  43.178  59.788  18.192
 9561DA     BB362159  42.986  59.816  18.281
 9561DA     SC162160  42.876  59.540  18.188
 9561DA     SC262161  42.707  59.454  18.026
 9561DA     SC362162  42.712  59.239  18.166
 9561DA     SC462163  42.892  59.416  18.289
 9562DT     BB162164  42.944  59.994  18.299
 9562DT     BB262165  42.686  60.010  18.047
 9562DT     BB362166  42.500  59.994  18.136
 9562DT     SC162167  42.532  59.736  18.175
 9562DT     SC262168  42.399  59.627  18.047
 9562DT     SC362169  42.560  59.506  18.301
 9563DT     BB162170  42.450  60.259  18.093
 9563DT     BB262171  42.170  60.091  17.940
 9563DT     BB362172  42.022  60.057  18.081
 9563DT     SC162173  42.159  59.862  18.190
 9563DT     SC262174  42.061  59.675  18.151
 9563DT     SC362175  42.295  59.724  18.370
 9564DA     BB162176  41.821  60.259  17.773
 9564DA     BB262177  41.620  59.964  17.859
 9564DA     BB362178  41.516  59.997  18.043
 9564DA     SC162179  41.743  59.880  18.221
 9564DA     SC262180  41.780  59.679  18.363
 9564DA     SC362181  41.965  59.817  18.474
 9564DA     SC462182  41.852  59.983  18.278
 9565DT     BB162183  41.307  60.011  18.046
 9565DT     BB262184  41.246  59.685  18.189
 9565DT     BB362185  41.186  59.705  18.386
 9565DT     SC162186  41.430  59.763  18.464
 9565DT     SC262187  41.507  59.600  18.581
 9565DT     SC362188  41.633  59.898  18.563
 9566DC     BB162189  40.939  59.631  18.311
 9566DC     BB262190  41.034  59.391  18.563
 9566DC     BB362191  40.988  59.464  18.751
 9566DC     SC162192  41.191  59.631  18.744
 9566DC     SC262193  41.340  59.567  18.885
 9566DC     SC362194  41.326  59.857  18.740
 9567DT     BB162195  40.805  59.276  18.749
 9567DT     BB262196  41.007  59.210  19.041
 9567DT     BB362197  40.946  59.330  19.198
 9567DT     SC162198  41.060  59.541  19.090
 9567DT     SC262199  41.230  59.599  19.209
 9567DT     SC362200  41.087  59.779  18.980
 9568DT     BB162201  40.858  59.105  19.301
 9568DT     BB262202  41.077  59.244  19.552
 9568DT     BB362203  40.976  59.387  19.662
 9568DT     SC162204  40.991  59.560  19.466
 9568DT     SC262205  41.126  59.719  19.520
 9568DT     SC362206  40.916  59.723  19.273
 9569DA     BB162207  41.149  59.121  19.940
 9569DA     BB262208  41.214  59.462  20.057
 9569DA     BB362209  41.034  59.551  20.130
 9569DA     SC162210  40.954  59.673  19.856
 9569DA     SC262211  40.938  59.900  19.752
 9569DA     SC362212  40.782  59.788  19.582
 9569DA     SC462213  40.859  59.586  19.760
 9570DA     BB162214  41.182  59.613  20.430
 9570DA     BB262215  41.115  59.970  20.379
 9570DA     BB362216  40.912  60.015  20.427
 9570DA     SC162217  40.808  59.967  20.138
 9570DA     SC262218  40.717  60.102  19.949
 9570DA     SC362219  40.621  59.881  19.863
 9570DA     SC462220  40.755  59.819  20.101
 9571DA     BB162221  40.968  60.257  20.677
 9571DA     BB262222  40.798  60.507  20.469
 9571DA     BB362223  40.588  60.502  20.505
 9571DA     SC162224  40.529  60.294  20.282
 9571DA     SC262225  40.418  60.289  20.059
 9571DA     SC362226  40.402  60.035  20.095
 9571DA     SC462227  40.528  60.139  20.323
 9572DA     BB162228  40.555  60.835  20.601
 9572DA     BB262229  40.348  60.892  20.304
 9572DA     BB362230  40.144  60.850  20.347
 9572DA     SC162231  40.163  60.551  20.261
 9572DA     SC262232  40.079  60.407  20.075
 9572DA     SC362233  40.126  60.211  20.234
 9572DA     SC462234  40.197  60.443  20.374
 9573DT     BB162235  39.963  61.003  20.357
 9573DT     BB262236  39.826  60.915  20.035
 9573DT     BB362237  39.642  60.823  20.060
 9573DT     SC162238  39.754  60.601  20.142
 9573DT     SC262239  39.728  60.448  19.993
 9573DT     SC362240  39.821  60.401  20.300
 9574DC     BB162241  39.502  61.044  19.965
 9574DC     BB262242  39.407  60.776  19.743
 9574DC     BB362243  39.241  60.678  19.817
 9574DC     SC162244  39.384  60.558  20.002
 9574DC     SC262245  39.396  60.348  19.957
 9574DC     SC362246  39.472  60.487  20.240
 9575DT     BB162247  39.084  60.787  19.621
 9575DT     BB262248  39.047  60.430  19.580
 9575DT     BB362249  38.893  60.361  19.699
 9575DT     SC162250  39.040  60.383  19.915
 9575DT     SC262251  39.088  60.187  19.990
 9575DT     SC362252  39.123  60.465  20.152
 9576DT     BB162253  38.736  60.322  19.480
 9576DT     BB262254  38.755  59.997  19.637
 9576DT     BB362255  38.607  59.979  19.780
 9576DT     SC162256  38.736  60.136  19.945
 9576DT     SC262257  38.808  60.020  20.112
 9576DT     SC362258  38.792  60.344  20.098
 9577DC     BB162259  38.462  59.805  19.623
 9577DC     BB262260  38.523  59.622  19.928
 9577DC     BB362261  38.372  59.660  20.065
 9577DC     SC162262  38.468  59.900  20.115
 9577DC     SC262263  38.549  59.904  20.314
 9577DC     SC362264  38.483  60.162  20.131
 9578DG     BB162265  38.367  59.257  20.007
 9578DG     BB262266  38.401  59.339  20.357
 9578DG     BB362267  38.224  59.385  20.434
 9578DG     SC162268  38.246  59.684  20.369
 9578DG     SC262269  38.267  59.905  20.568
 9578DG     SC362270  38.228  60.012  20.294
 9578DG     SC462271  38.195  59.736  20.226
 9579DA     BB162272  38.308  59.154  20.669
 9579DA     BB262273  38.296  59.415  20.926
 9579DA     BB362274  38.093  59.461  20.976
 9579DA     SC162275  38.065  59.685  20.762
 9579DA     SC262276  38.043  59.934  20.757
 9579DA     SC362277  37.949  59.900  20.521
 9579DA     SC462278  38.008  59.644  20.618
 9580DC     BB162279  38.085  59.420  21.139
 9580DC     BB262280  38.090  59.759  21.262
 9580DC     BB362281  37.896  59.825  21.294
 9580DC     SC162282  37.856  59.854  21.037
 9580DC     SC262283  37.841  60.063  20.989
 9580DC     SC362284  37.753  59.818  20.796
 9581DC     BB162285  38.034  59.818  21.505
 9581DC     BB262286  37.930  60.160  21.456
 9581DC     BB362287  37.726  60.177  21.487
 9581DC     SC162288  37.674  60.063  21.257
 9581DC     SC262289  37.591  60.208  21.122
 9581DC     SC362290  37.585  59.887  21.081
 9582DA     BB162291  38.019  60.476  21.616
 9582DA     BB262292  37.724  60.637  21.471
 9582DA     BB362293  37.549  60.583  21.579
 9582DA     SC162294  37.486  60.335  21.402
 9582DA     SC262295  37.315  60.267  21.234
 9582DA     SC362296  37.390  60.027  21.285
 9582DA     SC462297  37.545  60.193  21.449
 9583DA     BB162298  37.564  60.912  21.528
 9583DA     BB262299  37.228  60.870  21.388
 9583DA     BB362300  37.094  60.796  21.537
 9583DA     SC162301  37.147  60.497  21.470
 9583DA     SC262302  37.023  60.306  21.368
 9583DA     SC362303  37.195  60.157  21.487
 9583DA     SC462304  37.262  60.421  21.553
 9584DA     BB162305  36.923  61.059  21.432
 9584DA     BB262306  36.649  60.827  21.360
 9584DA     BB362307  36.563  60.755  21.541
 9584DA     SC162308  36.751  60.508  21.562
 9584DA     SC262309  36.733  60.260  21.541
 9584DA     SC362310  36.953  60.254  21.674
 9584DA     SC462311  36.887  60.525  21.647
 9585DC     BB162312  36.366  60.807  21.603
 9585DC     BB262313  36.212  60.486  21.544
 9585DC     BB362314  36.176  60.391  21.724
 9585DC     SC162315  36.430  60.333  21.753
 9585DC     SC262316  36.458  60.121  21.731
 9585DC     SC362317  36.674  60.329  21.854
 9586DT     BB162318  35.899  60.435  21.721
 9586DT     BB262319  35.930  60.077  21.756
 9586DT     BB362320  35.937  60.026  21.956
 9586DT     SC162321  36.184  60.111  21.977
 9586DT     SC262322  36.316  59.943  22.005
 9586DT     SC362323  36.391  60.254  22.055
 9587DA     BB162324  35.630  59.791  21.793
 9587DA     BB262325  35.851  59.568  21.983
 9587DA     BB362326  35.820  59.594  22.192
 9587DA     SC162327  36.037  59.815  22.222
 9587DA     SC262328  36.262  59.840  22.326
 9587DA     SC362329  36.217  60.092  22.316
 9587DA     SC462330  35.990  59.968  22.208
 9588DA     BB162331  35.783  59.270  22.165
 9588DA     BB262332  36.070  59.239  22.390
 9588DA     BB362333  36.013  59.289  22.590
 9588DA     SC162334  36.084  59.591  22.560
 9588DA     SC262335  36.256  59.749  22.647
 9588DA     SC362336  36.090  59.933  22.581
 9588DA     SC462337  35.967  59.690  22.514
 9589DT     BB162338  36.023  59.144  22.714
 9589DT     BB262339  36.317  59.254  22.891
 9589DT     BB362340  36.263  59.342  23.070
 9589DT     SC162341  36.180  59.559  22.947
 9589DT     SC262342  36.313  59.722  22.992
 9589DT     SC362343  36.018  59.748  22.860
 9590DT     BB162344  36.362  59.127  23.195
 9590DT     BB262345  36.538  59.407  23.341
 9590DT     BB362346  36.425  59.489  23.493
 9590DT     SC162347  36.261  59.602  23.322
 9590DT     SC262348  36.289  59.815  23.326
 9590DT     SC362349  36.039  59.658  23.191
 9591DT     BB162350  36.588  59.385  23.691
 9591DT     BB262351  36.581  59.738  23.763
 9591DT     BB362352  36.420  59.782  23.886
 9591DT     SC162353  36.251  59.756  23.687
 9591DT     SC262354  36.170  59.949  23.636
 9591DT     SC362355  36.052  59.662  23.541
 9592DT     BB162356  36.571  59.819  24.121
 9592DT     BB262357  36.387  60.127  24.089
 9592DT     BB362358  36.206  60.112  24.188
 9592DT     SC162359  36.106  59.960  23.999
 9592DT     SC262360  35.955  60.069  23.892
 9592DT     SC362361  36.003  59.749  23.878
 9593DG     BB162362  36.383  60.425  24.386
 9593DG     BB262363  36.056  60.519  24.266
 9593DG     BB362364  35.916  60.454  24.392
 9593DG     SC162365  35.881  60.183  24.253
 9593DG     SC262366  35.638  60.091  24.107
 9593DG     SC362367  35.832  59.870  24.138
 9593DG     SC462368  35.975  60.061  24.298
 9594DT     BB162369  35.774  60.593  24.508
 9594DT     BB262370  35.471  60.553  24.317
 9594DT     BB362371  35.336  60.438  24.422
 9594DT     SC162372  35.471  60.218  24.373
 9594DT     SC262373  35.358  60.094  24.237
 9594DT     SC362374  35.614  60.001  24.413
 9595DA     BB162375  35.149  60.789  24.292
 9595DA     BB262376  34.940  60.504  24.194
 9595DA     BB362377  34.844  60.420  24.365
 9595DA     SC162378  35.072  60.217  24.423
 9595DA     SC262379  35.107  59.970  24.412
 9595DA     SC362380  35.302  60.011  24.574
 9595DA     SC462381  35.188  60.263  24.525
 9596DT     BB162382  34.662  60.439  24.354
 9596DT     BB262383  34.588  60.094  24.279
 9596DT     BB362384  34.528  59.995  24.450
 9596DT     SC162385  34.774  59.987  24.541
 9596DT     SC262386  34.845  59.784  24.538
 9596DT     SC362387  34.983  60.032  24.696
 9597DG     BB162388  34.253  59.960  24.151
 9597DG     BB262389  34.345  59.639  24.290
 9597DG     BB362390  34.262  59.616  24.470
 9597DG     SC162391  34.498  59.741  24.621
 9597DG     SC262392  34.681  59.598  24.808
 9597DG     SC362393  34.728  59.890  24.816
 9597DG     SC462394  34.499  59.899  24.644
 9598DG     BB162395  34.128  59.345  24.346
 9598DG     BB262396  34.310  59.168  24.603
 9598DG     BB362397  34.215  59.184  24.777
 9598DG     SC162398  34.360  59.440  24.861
 9598DG     SC262399  34.553  59.465  25.087
 9598DG     SC362400  34.486  59.731  24.975
 9598DG     SC462401  34.300  59.581  24.817
 9599DT     BB162402  34.133  59.006  24.880
 9599DT     BB262403  34.364  58.968  25.155
 9599DT     BB362404  34.279  59.040  25.329
 9599DT     SC162405  34.315  59.288  25.252
 9599DT     SC262406  34.466  59.380  25.375
 9599DT     SC362407  34.260  59.536  25.179
 9600DA     BB162408  34.394  58.648  25.432
 9600DA     BB262409  34.519  58.871  25.695
 9600DA     BB362410  34.359  58.933  25.822
 9600DA     SC162411  34.292  59.187  25.654
 9600DA     SC262412  34.311  59.435  25.679
 9600DA     SC362413  34.133  59.446  25.494
 9600DA     SC462414  34.180  59.173  25.540
 9601DT     BB162415  34.337  58.874  26.035
 9601DT     BB262416  34.439  59.191  26.173
 9601DT     BB362417  34.277  59.286  26.259
 9601DT     SC162418  34.180  59.350  26.024
 9601DT     SC262419  34.196  59.562  25.995
 9601DT     SC362420  34.016  59.359  25.817
 9602DA     BB162421  34.569  59.277  26.560
 9602DA     BB262422  34.451  59.623  26.530
 9602DA     BB362423  34.258  59.643  26.620
 9602DA     SC162424  34.102  59.580  26.358
 9602DA     SC262425  33.959  59.703  26.195
 9602DA     SC362426  33.873  59.470  26.127
 9602DA     SC462427  34.061  59.427  26.331
 9603DA     BB162428  34.415  59.880  26.782
 9603DA     BB262429  34.181  60.114  26.624
 9603DA     BB362430  33.990  60.105  26.721
 9603DA     SC162431  33.879  59.884  26.531
 9603DA     SC262432  33.707  59.865  26.351
 9603DA     SC362433  33.715  59.613  26.399
 9603DA     SC462434  33.897  59.731  26.577
 9604DA     BB162435  34.053  60.424  26.736
 9604DA     BB262436  33.754  60.470  26.530
 9604DA     BB362437  33.578  60.441  26.647
 9604DA     SC162438  33.558  60.137  26.586
 9604DA     SC262439  33.409  59.984  26.456
 9604DA     SC362440  33.506  59.798  26.604
 9604DA     SC462441  33.629  60.036  26.688
 9605DG     BB162442  33.540  60.729  26.548
 9605DG     BB262443  33.260  60.580  26.376
 9605DG     BB362444  33.108  60.555  26.502
 9605DG     SC162445  33.194  60.275  26.589
 9605DG     SC262446  33.047  60.021  26.534
 9605DG     SC362447  33.270  59.974  26.722
 9605DG     SC462448  33.296  60.259  26.712
 9606DA     BB162449  32.946  60.712  26.244
 9606DA     BB262450  32.722  60.423  26.216
 9606DA     BB362451  32.588  60.417  26.382
 9606DA     SC162452  32.774  60.241  26.558
 9606DA     SC262453  32.778  60.007  26.646
 9606DA     SC362454  32.945  60.097  26.818
 9606DA     SC462455  32.876  60.316  26.657
 9607DT     BB162456  32.422  60.438  26.321
 9607DT     BB262457  32.312  60.098  26.369
 9607DT     BB362458  32.211  60.082  26.549
 9607DT     SC162459  32.435  60.094  26.685
 9607DT     SC262460  32.475  59.903  26.775
 9607DT     SC362461  32.619  60.183  26.852
 9608DG     BB162462  31.987  59.947  26.236
 9608DG     BB262463  32.003  59.706  26.506
 9608DG     BB362464  31.889  59.766  26.657
 9608DG     SC162465  32.112  59.924  26.795
 9608DG     SC262466  32.237  59.858  27.058
 9608DG     SC362467  32.327  60.123  26.962
 9608DG     SC462468  32.135  60.077  26.755
 9609DT     BB162469  31.734  59.642  26.708
 9609DT     BB262470  31.841  59.503  27.023
 9609DT     BB362471  31.754  59.607  27.179
 9609DT     SC162472  31.914  59.811  27.143
 9609DT     SC262473  32.052  59.824  27.309
 9609DT     SC362474  31.996  60.056  27.089
 9610DG     BB162475  31.651  59.214  27.223
 9610DG     BB262476  31.781  59.351  27.531
 9610DG     BB362477  31.643  59.465  27.619
 9610DG     SC162478  31.730  59.722  27.477
 9610DG     SC262479  31.852  59.961  27.606
 9610DG     SC362480  31.785  60.017  27.324
 9610DG     SC462481  31.665  59.757  27.334
 9611DA     BB162482  31.677  59.285  27.921
 9611DA     BB262483  31.764  59.592  28.101
 9611DA     BB362484  31.589  59.708  28.140
 9611DA     SC162485  31.609  59.871  27.876
 9611DA     SC262486  31.660  60.105  27.807
 9611DA     SC362487  31.540  60.046  27.588
 9611DA     SC462488  31.530  59.815  27.748
 9612DA     BB162489  31.658  59.706  28.471
 9612DA     BB262490  31.681  60.072  28.457
 9612DA     BB362491  31.486  60.159  28.465
 9612DA     SC162492  31.449  60.162  28.156
 9612DA     SC262493  31.438  60.332  27.973
 9612DA     SC362494  31.322  60.148  27.838
 9612DA     SC462495  31.377  60.035  28.089
 9613DC     BB162496  31.390  60.285  28.641
 9613DC     BB262497  31.416  60.606  28.478
 9613DC     BB362498  31.228  60.678  28.432
 9613DC     SC162499  31.204  60.509  28.233
 9613DC     SC262500  31.209  60.617  28.047
 9613DC     SC362501  31.112  60.310  28.086
 9614DA     BB162502  31.390  60.995  28.655
 9614DA     BB262503  31.255  61.139  28.346
 9614DA     BB362504  31.042  61.157  28.360
 9614DA     SC162505  30.987  60.876  28.238
 9614DA     SC262506  30.893  60.781  28.027
 9614DA     SC362507  30.858  60.566  28.164
 9614DA     SC462508  30.972  60.752  28.340
 9615DC     BB162509  30.942  61.348  28.366
 9615DC     BB262510  30.820  61.341  28.027
 9615DC     BB362511  30.615  61.313  28.026
 9615DC     SC162512  30.641  61.059  28.088
 9615DC     SC262513  30.584  60.938  27.920
 9615DC     SC362514  30.624  60.834  28.224
 9616DT     BB162515  30.569  61.574  27.951
 9616DT     BB262516  30.408  61.379  27.694
 9616DT     BB362517  30.213  61.338  27.748
 9616DT     SC162518  30.290  61.159  27.923
 9616DT     SC262519  30.234  60.963  27.854
 9616DT     SC362520  30.330  61.038  28.155
 9617DC     BB162521  30.114  61.516  27.562
 9617DC     BB262522  29.956  61.203  27.478
 9617DC     BB362523  29.779  61.182  27.583
 9617DC     SC162524  29.909  61.128  27.805
 9617DC     SC262525  29.879  60.922  27.857
 9617DC     SC362526  29.999  61.152  28.052
 9618DT     BB162527  29.625  61.228  27.358
 9618DT     BB262528  29.514  60.906  27.478
 9618DT     BB362529  29.360  60.931  27.614
 9618DT     SC162530  29.526  61.012  27.800
 9618DT     SC262531  29.540  60.862  27.954
 9618DT     SC362532  29.644  61.168  27.977
 9619DG     BB162533  29.198  60.701  27.317
 9619DG     BB262534  29.152  60.547  27.641
 9619DG     BB362535  28.997  60.629  27.734
 9619DG     SC162536  29.163  60.847  27.870
 9619DG     SC262537  29.213  60.872  28.163
 9619DG     SC362538  29.311  61.111  28.019
 9619DG     SC462539  29.187  60.986  27.793
 9620DA     BB162540  28.868  60.310  27.779
 9620DA     BB262541  28.882  60.354  28.143
 9620DA     BB362542  28.717  60.471  28.210
 9620DA     SC162543  28.868  60.742  28.184
 9620DA     SC262544  28.960  60.917  28.335
 9620DA     SC362545  28.952  61.070  28.130
 9620DA     SC462546  28.854  60.822  28.045
 9621DC     BB162547  28.577  60.383  28.328
 9621DC     BB262548  28.682  60.537  28.637
 9621DC     BB362549  28.545  60.683  28.693
 9621DC     SC162550  28.633  60.847  28.508
 9621DC     SC262551  28.736  61.012  28.602
 9621DC     SC362552  28.636  61.000  28.293
 9622DT     BB162553  28.486  60.515  28.887
 9622DT     BB262554  28.591  60.819  29.051
 9622DT     BB362555  28.433  60.952  29.060
 9622DT     SC162556  28.456  61.008  28.804
 9622DT     SC262557  28.529  61.210  28.782
 9622DT     SC362558  28.397  61.028  28.548
 9623DT     BB162559  28.440  60.901  29.318
 9623DT     BB262560  28.485  61.258  29.290
 9623DT     BB362561  28.302  61.351  29.269
 9623DT     SC162562  28.281  61.272  29.020
 9623DT     SC262563  28.299  61.441  28.889
 9623DT     SC362564  28.190  61.148  28.806
 9624DA     BB162565  28.538  61.534  29.565
 9624DA     BB262566  28.400  61.795  29.347
 9624DA     BB362567  28.190  61.812  29.377
 9624DA     SC162568  28.117  61.606  29.155
 9624DA     SC262569  28.012  61.608  28.929
 9624DA     SC362570  27.970  61.358  28.969
 9624DA     SC462571  28.099  61.453  29.200
 9625DA     BB162572  28.299  62.119  29.410
 9625DA     BB262573  28.073  62.204  29.134
 9625DA     BB362574  27.870  62.193  29.198
 9625DA     SC162575  27.836  61.894  29.118
 9625DA     SC262576  27.713  61.762  28.946
 9625DA     SC362577  27.747  61.563  29.104
 9625DA     SC462578  27.866  61.783  29.230
 9626DG     BB162579  27.871  62.492  29.114
 9626DG     BB262580  27.621  62.380  28.878
 9626DG     BB362581  27.445  62.362  28.969
 9626DG     SC162582  27.489  62.070  29.050
 9626DG     SC262583  27.336  61.835  28.946
 9626DG     SC362584  27.512  61.756  29.171
 9626DG     SC462585  27.561  62.038  29.189
 9627DA     BB162586  27.303  62.564  28.719
 9627DA     BB262587  27.066  62.298  28.634
 9627DA     BB362588  26.910  62.287  28.780
 9627DA     SC162589  27.059  62.080  28.959
 9627DA     SC262590  27.035  61.840  29.022
 9627DA     SC362591  27.183  61.900  29.223
 9627DA     SC462592  27.151  62.138  29.077
 9628DG     BB162593  26.694  62.356  28.556
 9628DG     BB262594  26.566  62.026  28.632
 9628DG     BB362595  26.441  62.036  28.786
 9628DG     SC162596  26.659  61.993  28.997
 9628DG     SC262597  26.685  61.755  29.175
 9628DG     SC362598  26.874  61.968  29.256
 9628DG     SC462599  26.736  62.120  29.056
 9629DT     BB162600  26.194  61.992  28.794
 9629DT     BB262601  26.189  61.672  28.959
 9629DT     BB362602  26.114  61.692  29.151
 9629DT     SC162603  26.336  61.802  29.235
 9629DT     SC262604  26.437  61.667  29.369
 9629DT     SC362605  26.503  61.982  29.333
 9630DT     BB162606  25.847  61.581  29.111
 9630DT     BB262607  25.982  61.381  29.379
 9630DT     BB362608  25.925  61.460  29.562
 9630DT     SC162609  26.097  61.657  29.539
 9630DT     SC262610  26.255  61.630  29.682
 9630DT     SC362611  26.193  61.901  29.516
 9631DA     BB162612  25.786  61.064  29.597
 9631DA     BB262613  25.987  61.133  29.895
 9631DA     BB362614  25.874  61.248  30.035
 9631DA     SC162615  25.968  61.523  29.923
 9631DA     SC262616  26.114  61.712  29.996
 9631DA     SC362617  25.987  61.850  29.821
 9631DA     SC462618  25.877  61.592  29.811
 9632DA     BB162619  25.956  61.002  30.235
 9632DA     BB262620  26.145  61.249  30.430
 9632DA     BB362621  26.013  61.364  30.552
 9632DA     SC162622  25.968  61.585  30.337
 9632DA     SC262623  26.029  61.825  30.304
 9632DA     SC362624  25.835  61.829  30.136
 9632DA     SC462625  25.843  61.568  30.238
 9633DT     BB162626  26.039  61.341  30.741
 9633DT     BB262627  26.208  61.655  30.797
 9633DT     BB362628  26.078  61.790  30.885
 9633DT     SC162629  25.950  61.827  30.659
 9633DT     SC262630  25.990  62.026  30.586
 9633DT     SC362631  25.755  61.829  30.481
 9634DG     BB162632  26.422  61.740  31.096
 9634DG     BB262633  26.357  62.088  31.022
 9634DG     BB362634  26.210  62.155  31.138
 9634DG     SC162635  25.988  62.079  30.942
 9634DG     SC262636  25.812  62.270  30.794
 9634DG     SC362637  25.718  61.992  30.760
 9634DG     SC462638  25.923  61.933  30.950
 9635DA     BB162639  26.447  62.400  31.181
 9635DA     BB262640  26.203  62.648  31.065
 9635DA     BB362641  26.049  62.673  31.210
 9635DA     SC162642  25.865  62.453  31.089
 9635DA     SC262643  25.648  62.440  30.967
 9635DA     SC362644  25.643  62.195  31.043
 9635DA     SC462645  25.880  62.304  31.147
 9636DT     BB162646  26.051  62.843  31.280
 9636DT     BB262647  25.750  62.964  31.121
 9636DT     BB362648  25.591  62.951  31.252
 9636DT     SC162649  25.577  62.690  31.221
 9636DT     SC262650  25.397  62.641  31.113
 9636DT     SC362651  25.584  62.433  31.278
 9637DT     BB162652  25.596  63.218  31.274
 9637DT     BB262653  25.258  63.142  31.175
 9637DT     BB362654  25.144  63.095  31.342
 9637DT     SC162655  25.257  62.859  31.362
 9637DT     SC262656  25.114  62.707  31.312
 9637DT     SC362657  25.398  62.659  31.460
 9638DT     BB162658  25.008  63.337  31.338
 9638DT     BB262659  24.745  63.089  31.334
 9638DT     BB362660  24.693  63.038  31.528
 9638DT     SC162661  24.911  62.896  31.558
 9638DT     SC262662  24.860  62.688  31.568
 9638DT     SC362663  25.145  62.818  31.651
 9639DA     BB162664  24.324  63.150  31.359
 9639DA     BB262665  24.274  62.827  31.526
 9639DA     BB362666  24.262  62.854  31.737
 9639DA     SC162667  24.567  62.817  31.783
 9639DA     SC262668  24.719  62.648  31.886
 9639DA     SC362669  24.890  62.839  31.898
 9639DA     SC462670  24.659  62.949  31.783
 9640DT     BB162671  24.079  62.821  31.857
 9640DT     BB262672  24.183  62.507  32.002
 9640DT     BB362673  24.223  62.533  32.204
 9640DT     SC162674  24.449  62.656  32.152
 9640DT     SC262675  24.613  62.531  32.211
 9640DT     SC362676  24.630  62.847  32.141
 9641DA     BB162677  23.951  62.214  32.186
 9641DA     BB262678  24.234  62.107  32.393
 9641DA     BB362679  24.223  62.196  32.586
 9641DA     SC162680  24.391  62.446  32.508
 9641DA     SC262681  24.616  62.539  32.558
 9641DA     SC362682  24.519  62.763  32.478
 9641DA     SC462683  24.311  62.575  32.456
 9642DA     BB162684  24.250  61.880  32.661
 9642DA     BB262685  24.564  61.970  32.827
 9642DA     BB362686  24.524  62.072  33.011
 9642DA     SC162687  24.525  62.355  32.882
 9642DA     SC262688  24.668  62.559  32.885
 9642DA     SC362689  24.460  62.683  32.802
 9642DA     SC462690  24.384  62.414  32.832
 9643DA     BB162691  24.726  61.833  33.102
 9643DA     BB262692  24.954  62.099  33.212
 9643DA     BB362693  24.880  62.192  33.389
 9643DA     SC162694  24.717  62.409  33.237
 9643DA     SC262695  24.728  62.656  33.200
 9643DA     SC362696  24.480  62.637  33.138
 9643DA     SC462697  24.563  62.377  33.203
 9644DT     BB162698  24.992  62.165  33.535
 9644DT     BB262699  25.126  62.500  33.551
 9644DT     BB362700  25.028  62.608  33.698
 9644DT     SC162701  24.814  62.634  33.549
 9644DT     SC262702  24.794  62.839  33.488
 9644DT     SC362703  24.564  62.611  33.467
 9645DC     BB162704  25.255  62.594  33.839
 9645DC     BB262705  25.186  62.947  33.808
 9645DC     BB362706  25.053  63.006  33.956
 9645DC     SC162707  24.852  62.892  33.832
 9645DC     SC262708  24.720  63.044  33.756
 9645DC     SC362709  24.651  62.729  33.783
 9646DA     BB162710  25.382  63.266  33.967
 9646DA     BB262711  25.077  63.469  33.969
 9646DA     BB362712  24.979  63.455  34.158
 9646DA     SC162713  24.803  63.212  34.076
 9646DA     SC262714  24.562  63.166  34.030
 9646DA     SC362715  24.622  62.920  34.072
 9646DA     SC462716  24.860  63.065  34.107
 9647DA     BB162717  25.001  63.782  34.136
 9647DA     BB262718  24.635  63.788  34.149
 9647DA     BB362719  24.567  63.749  34.348
 9647DA     SC162720  24.549  63.441  34.308
 9647DA     SC262721  24.371  63.267  34.291
 9647DA     SC362722  24.556  63.100  34.350
 9647DA     SC462723  24.678  63.353  34.347
 9648DA     BB162724  24.408  64.030  34.291
 9648DA     BB262725  24.098  63.840  34.339
 9648DA     BB362726  24.067  63.799  34.546
 9648DA     SC162727  24.218  63.527  34.539
 9648DA     SC262728  24.163  63.285  34.558
 9648DA     SC362729  24.411  63.253  34.615
 9648DA     SC462730  24.375  63.528  34.575
 9649DA     BB162731  23.782  63.938  34.468
 9649DA     BB262732  23.625  63.621  34.566
 9649DA     BB362733  23.626  63.600  34.778
 9649DA     SC162734  23.901  63.454  34.787
 9649DA     SC262735  23.986  63.225  34.837
 9649DA     SC362736  24.213  63.340  34.874
 9649DA     SC462737  24.032  63.544  34.807
 9650DT     BB162738  23.453  63.600  34.858
 9650DT     BB262739  23.440  63.248  34.936
 9650DT     BB362740  23.481  63.218  35.137
 9650DT     SC162741  23.736  63.265  35.100
 9650DT     SC262742  23.847  63.082  35.127
 9650DT     SC362743  23.973  63.380  35.119
 9651DA     BB162744  23.130  63.013  35.031
 9651DA     BB262745  23.345  62.784  35.220
 9651DA     BB362746  23.351  62.840  35.426
 9651DA     SC162747  23.599  63.025  35.392
 9651DA     SC262748  23.839  63.026  35.459
 9651DA     SC362749  23.829  63.279  35.417
 9651DA     SC462750  23.572  63.181  35.362
 9652DG     BB162751  23.240  62.553  35.452
 9652DG     BB262752  23.550  62.501  35.629
 9652DG     BB362753  23.536  62.575  35.813
 9652DG     SC162754  23.636  62.854  35.735
 9652DG     SC262755  23.894  62.978  35.822
 9652DG     SC362756  23.723  63.175  35.681
 9652DG     SC462757  23.531  62.963  35.686
 9653DA     BB162758  23.648  62.264  35.921
 9653DA     BB262759  23.935  62.423  36.084
 9653DA     BB362760  23.873  62.522  36.263
 9653DA     SC162761  23.817  62.794  36.123
 9653DA     SC262762  23.916  63.023  36.118
 9653DA     SC362763  23.687  63.098  36.029
 9653DA     SC462764  23.668  62.821  36.070
 9654DT     BB162765  23.940  62.451  36.438
 9654DT     BB262766  24.175  62.715  36.507
 9654DT     BB362767  24.097  62.843  36.651
 9654DT     SC162768  23.932  62.951  36.477
 9654DT     SC262769  23.993  63.153  36.436
 9654DT     SC362770  23.707  63.022  36.361
 9655DT     BB162771  24.272  62.747  36.836
 9655DT     BB262772  24.334  63.102  36.830
 9655DT     BB362773  24.204  63.199  36.959
 9655DT     SC162774  24.003  63.168  36.793
 9655DT     SC262775  23.948  63.359  36.712
 9655DT     SC362776  23.771  63.088  36.697
 9656DA     BB162777  24.591  63.327  37.062
 9656DA     BB262778  24.379  63.624  37.028
 9656DA     BB362779  24.246  63.640  37.194
 9656DA     SC162780  24.018  63.477  37.059
 9656DA     SC262781  23.791  63.520  36.966
 9656DA     SC362782  23.754  63.268  36.994
 9656DA     SC462783  24.014  63.319  37.085
 9657DC     BB162784  24.268  63.796  37.324
 9657DC     BB262785  23.981  63.985  37.213
 9657DC     BB362786  23.828  63.968  37.351
 9657DC     SC162787  23.775  63.722  37.273
 9657DC     SC262788  23.585  63.719  37.172
 9657DC     SC362789  23.747  63.460  37.281
 9658DT     BB162790  23.866  64.225  37.431
 9658DT     BB262791  23.521  64.213  37.328
 9658DT     BB362792  23.402  64.152  37.486
 9658DT     SC162793  23.483  63.903  37.461
 9658DT     SC262794  23.321  63.782  37.388
 9658DT     SC362795  23.596  63.672  37.518
 9659DG     BB162796  23.262  64.516  37.368
 9659DG     BB262797  22.998  64.270  37.376
 9659DG     BB362798  22.939  64.239  37.564
 9659DG     SC162799  23.141  64.015  37.616
 9659DG     SC262800  23.075  63.727  37.664
 9659DG     SC362801  23.362  63.779  37.715
 9659DG     SC462802  23.287  64.052  37.671
 9660DA     BB162803  22.618  64.299  37.449
 9660DA     BB262804  22.518  63.962  37.556
 9660DA     BB362805  22.493  63.956  37.767
 9660DA     SC162806  22.787  63.874  37.825
 9660DA     SC262807  22.910  63.673  37.907
 9660DA     SC362808  23.100  63.837  37.961
 9660DA     SC462809  22.893  63.992  37.853
 9661DA     BB162810  22.203  63.837  37.673
 9661DA     BB262811  22.294  63.530  37.851
 9661DA     BB362812  22.277  63.559  38.061
 9661DA     SC162813  22.572  63.652  38.097
 9661DA     SC262814  22.782  63.565  38.199
 9661DA     SC362815  22.860  63.810  38.198
 9661DA     SC462816  22.601  63.810  38.089
 9662DT     BB162817  22.143  63.452  38.144
 9662DT     BB262818  22.367  63.217  38.301
 9662DT     BB362819  22.389  63.263  38.502
 9662DT     SC162820  22.543  63.468  38.445
 9662DT     SC262821  22.744  63.425  38.509
 9662DT     SC362822  22.629  63.716  38.427
 9663DA     BB162823  22.291  62.857  38.464
 9663DA     BB262824  22.582  62.885  38.685
 9663DA     BB362825  22.525  62.967  38.873
 9663DA     SC162826  22.576  63.262  38.788
 9663DA     SC262827  22.739  63.444  38.840
 9663DA     SC362828  22.560  63.602  38.747
 9663DA     SC462829  22.452  63.344  38.727
 9664DA     BB162830  22.683  62.694  38.961
 9664DA     BB262831  22.916  62.915  39.138
 9664DA     BB362832  22.824  62.996  39.313
 9664DA     SC162833  22.714  63.248  39.168
 9664DA     SC262834  22.759  63.494  39.166
 9664DA     SC362835  22.524  63.514  39.064
 9664DA     SC462836  22.566  63.240  39.107
 9665DT     BB162837  22.904  62.939  39.474
 9665DT     BB262838  23.071  63.250  39.551
 9665DT     BB362839  22.963  63.355  39.693
 9665DT     SC162840  22.781  63.424  39.516
 9665DT     SC262841  22.795  63.635  39.477
 9665DT     SC362842  22.548  63.442  39.394
 9666DA     BB162843  23.366  63.329  39.807
 9666DA     BB262844  23.259  63.678  39.838
 9666DA     BB362845  23.124  63.701  40.002
 9666DA     SC162846  22.869  63.650  39.831
 9666DA     SC262847  22.674  63.781  39.747
 9666DA     SC362848  22.559  63.553  39.718
 9666DA     SC462849  22.815  63.499  39.821
 9667DG     BB162850  23.350  63.894  40.081
 9667DG     BB262851  23.086  64.138  40.044
 9667DG     BB362852  22.967  64.134  40.203
 9667DG     SC162853  22.778  63.923  40.086
 9667DG     SC262854  22.493  63.966  40.009
 9667DG     SC362855  22.563  63.679  39.998
 9667DG     SC462856  22.811  63.768  40.110
 9668DA     BB162857  23.025  64.474  40.193
 9668DA     BB262858  22.664  64.530  40.165
 9668DA     BB362859  22.567  64.487  40.351
 9668DA     SC162860  22.514  64.188  40.280
 9668DA     SC262861  22.318  64.043  40.228
 9668DA     SC362862  22.472  63.848  40.292
 9668DA     SC462863  22.624  64.080  40.326
 9669DG     BB162864  22.487  64.783  40.313
 9669DG     BB262865  22.155  64.640  40.300
 9669DG     BB362866  22.093  64.595  40.484
 9669DG     SC162867  22.208  64.311  40.478
 9669DG     SC262868  22.049  64.058  40.481
 9669DG     SC362869  22.337  64.002  40.515
 9669DG     SC462870  22.359  64.287  40.526
 9670DT     BB162871  21.920  64.693  40.564
 9670DT     BB262872  21.673  64.430  40.557
 9670DT     BB362873  21.652  64.347  40.745
 9670DT     SC162874  21.880  64.219  40.722
 9670DT     SC262875  21.842  64.008  40.706
 9670DT     SC362876  22.129  64.144  40.769
 9671DA     BB162877  21.262  64.451  40.628
 9671DA     BB262878  21.252  64.108  40.756
 9671DA     BB362879  21.270  64.107  40.968
 9671DA     SC162880  21.580  64.084  40.966
 9671DA     SC262881  21.753  63.914  41.023
 9671DA     SC362882  21.915  64.112  41.037
 9671DA     SC462883  21.665  64.221  40.971
 9672DA     BB162884  20.987  63.933  40.964
 9672DA     BB262885  21.172  63.660  41.123
 9672DA     BB362886  21.200  63.700  41.331
 9672DA     SC162887  21.472  63.845  41.291
 9672DA     SC262888  21.713  63.803  41.341
 9672DA     SC362889  21.742  64.056  41.315
 9672DA     SC462890  21.469  64.005  41.272
 9673DA     BB162891  21.057  63.405  41.373
 9673DA     BB262892  21.371  63.295  41.527
 9673DA     BB362893  21.386  63.369  41.727
 9673DA     SC162894  21.532  63.631  41.645
 9673DA     SC262895  21.759  63.731  41.669
 9673DA     SC362896  21.643  63.955  41.623
 9673DA     SC462897  21.441  63.761  41.616
 9674DA     BB162898  21.434  63.050  41.786
 9674DA     BB262899  21.765  63.144  41.911
 9674DA     BB362900  21.749  63.233  42.104
 9674DA     SC162901  21.721  63.523  41.995
 9674DA     SC262902  21.857  63.732  41.989
 9674DA     SC362903  21.635  63.852  41.944
 9674DA     SC462904  21.573  63.579  41.969
 9675DT     BB162905  21.831  63.133  42.244
 9675DT     BB262906  22.119  63.347  42.287
 9675DT     BB362907  22.092  63.468  42.452
 9675DT     SC162908  21.921  63.620  42.324
 9675DT     SC262909  22.009  63.813  42.288
 9675DT     SC362910  21.695  63.739  42.260
 9676DG     BB162911  22.438  63.255  42.493
 9676DG     BB262912  22.492  63.610  42.539
 9676DG     BB362913  22.426  63.666  42.717
 9676DG     SC162914  22.143  63.730  42.620
 9676DG     SC262915  22.018  64.001  42.609
 9676DG     SC362916  21.818  63.790  42.551
 9676DG     SC462917  22.033  63.613  42.619
 9677DA     BB162918  22.740  63.809  42.751
 9677DA     BB262919  22.584  64.136  42.803
 9677DA     BB362920  22.495  64.146  42.996
 9677DA     SC162921  22.218  64.042  42.901
 9677DA     SC262922  21.987  64.132  42.871
 9677DA     SC362923  21.912  63.887  42.879
 9677DA     SC462924  22.191  63.884  42.910
 9678DT     BB162925  22.574  64.273  43.130
 9678DT     BB262926  22.308  64.518  43.121
 9678DT     BB362927  22.189  64.499  43.289
 9678DT     SC162928  22.076  64.281  43.194
 9678DT     SC262929  21.872  64.323  43.143
 9678DT     SC362930  22.004  64.029  43.172
 9679DG     BB162931  22.327  64.884  43.314
 9679DG     BB262932  21.966  64.874  43.340
 9679DG     BB362933  21.913  64.823  43.525
 9679DG     SC162934  21.910  64.522  43.468
 9679DG     SC262935  21.669  64.346  43.467
 9679DG     SC362936  21.917  64.186  43.446
 9679DG     SC462937  22.045  64.438  43.487
 9680DT     BB162938  21.793  64.960  43.676
 9680DT     BB262939  21.467  64.807  43.656
 9680DT     BB362940  21.428  64.701  43.829
 9680DT     SC162941  21.591  64.509  43.758
 9680DT     SC262942  21.477  64.332  43.712
 9680DT     SC362943  21.797  64.344  43.761
 9681DA     BB162944  21.101  64.959  43.780
 9681DA     BB262945  20.970  64.620  43.828
 9681DA     BB362946  20.985  64.563  44.033
 9681DA     SC162947  21.267  64.436  44.003
 9681DA     SC262948  21.369  64.209  44.008
 9681DA     SC362949  21.590  64.331  44.054
 9681DA     SC462950  21.394  64.531  44.032
 9682DC     BB162951  20.813  64.533  44.132
 9682DC     BB262952  20.829  64.173  44.131
 9682DC     BB362953  20.883  64.104  44.319
 9682DC     SC162954  21.132  64.178  44.284
 9682DC     SC262955  21.256  64.003  44.266
 9682DC     SC362956  21.360  64.305  44.319
 9683DT     BB162957  20.632  64.014  44.342
 9683DT     BB262958  20.841  63.723  44.380
 9683DT     BB362959  20.904  63.706  44.577
 9683DT     SC162960  21.075  63.902  44.547
 9683DT     SC262961  21.275  63.823  44.554
 9683DT     SC362962  21.193  64.136  44.579
 9684DC     BB162963  20.740  63.495  44.597
 9684DC     BB262964  21.068  63.368  44.680
 9684DC     BB362965  21.108  63.402  44.880
 9684DC     SC162966  21.149  63.658  44.837
 9684DC     SC262967  21.358  63.702  44.864
 9684DC     SC362968  21.118  63.919  44.849
 9685DA     BB162969  21.183  63.001  44.785
 9685DA     BB262970  21.474  63.133  44.964
 9685DA     BB362971  21.428  63.162  45.170
 9685DA     SC162972  21.332  63.456  45.133
 9685DA     SC262973  21.410  63.685  45.194
 9685DA     SC362974  21.167  63.756  45.156
 9685DA     SC462975  21.175  63.480  45.106
 9686DT     BB162976  21.528  63.051  45.281
 9686DT     BB262977  21.750  63.307  45.407
 9686DT     BB362978  21.688  63.367  45.595
 9686DT     SC162979  21.488  63.503  45.494
 9686DT     SC262980  21.524  63.714  45.519
 9686DT     SC362981  21.240  63.578  45.441
 9687DA     BB162982  22.098  63.279  45.581
 9687DA     BB262983  22.053  63.605  45.742
 9687DA     BB362984  21.963  63.581  45.934
 9687DA     SC162985  21.672  63.607  45.828
 9687DA     SC262986  21.485  63.772  45.841
 9687DA     SC362987  21.334  63.575  45.775
 9687DA     SC462988  21.595  63.472  45.787
 9688DC     BB162989  22.080  63.639  46.046
 9688DC     BB262990  21.910  63.944  46.138
 9688DC     BB362991  21.795  63.912  46.307
 9688DC     SC162992  21.615  63.780  46.169
 9688DC     SC262993  21.434  63.896  46.157
 9688DC     SC362994  21.462  63.581  46.086
 9689DT     BB162995  21.975  64.073  46.391
 9689DT     BB262996  21.659  64.231  46.463
 9689DT     BB362997  21.570  64.141  46.627
 9689DT     SC162998  21.504  63.931  46.484
 9689DT     SC262999  21.290  63.926  46.459
 9689DT     SC363000  21.493  63.681  46.400
 9690DG     BB163001  21.604  64.546  46.673
 9690DG     BB263002  21.273  64.426  46.756
 9690DG     BB363003  21.278  64.326  46.928
 9690DG     SC163004  21.335  64.056  46.797
 9690DG     SC263005  21.150  63.821  46.792
 9690DG     SC363006  21.418  63.747  46.689
 9690DG     SC463007  21.487  64.013  46.771
 9691DA     BB163008  21.011  64.528  47.046
 9691DA     BB263009  20.814  64.229  47.125
 9691DA     BB363010  20.893  64.132  47.298
 9691DA     SC163011  21.085  63.948  47.136
 9691DA     SC263012  21.104  63.705  47.080
 9691DA     SC363013  21.350  63.758  47.030
 9691DA     SC463014  21.235  64.000  47.111
 9692DG     BB163015  20.633  64.168  47.506
 9692DG     BB263016  20.624  63.807  47.516
 9692DG     BB363017  20.737  63.740  47.666
 9692DG     SC163018  20.993  63.722  47.498
 9692DG     SC263019  21.136  63.471  47.423
 9692DG     SC363020  21.295  63.709  47.349
 9692DG     SC463021  21.087  63.851  47.487
 9693DT     BB163022  20.699  63.609  47.930
 9693DT     BB263023  20.811  63.276  47.847
 9693DT     BB363024  20.982  63.230  47.955
 9693DT     SC163025  21.129  63.385  47.802
 9693DT     SC263026  21.260  63.263  47.683
 9693DT     SC363027  21.286  63.583  47.728
 9694DA     BB163028  20.758  62.900  48.110
 9694DA     BB263029  21.075  62.758  47.991
 9694DA     BB363030  21.226  62.778  48.141
 9694DA     SC163031  21.325  63.054  48.037
 9694DA     SC263032  21.527  63.148  47.924
 9694DA     SC363033  21.446  63.375  48.012
 9694DA     SC463034  21.259  63.186  48.102
 9695DC     BB163035  21.339  62.603  48.276
 9695DC     BB263036  21.645  62.608  48.086
 9695DC     BB363037  21.801  62.674  48.206
 9695DC     SC163038  21.717  62.922  48.193
 9695DC     SC263039  21.855  63.038  48.077
 9695DC     SC363040  21.623  63.156  48.270
 9696DT     BB163041  21.921  62.419  48.231
 9696DT     BB263042  22.180  62.623  48.085
 9696DT     BB363043  22.298  62.705  48.234
 9696DT     SC163044  22.111  62.878  48.298
 9696DT     SC263045  22.174  63.076  48.241
 9696DT     SC363046  21.927  63.005  48.439
 9697DG     BB163047  22.545  62.491  47.992
 9697DG     BB263048  22.662  62.831  48.031
 9697DG     BB363049  22.758  62.850  48.205
 9697DG     SC163050  22.508  62.927  48.363
 9697DG     SC263051  22.453  63.192  48.489
 9697DG     SC363052  22.251  62.993  48.571
 9697DG     SC463053  22.419  62.810  48.428
 9698DT     BB163054  22.971  62.905  48.206
 9698DT     BB263055  22.957  63.249  48.313
 9698DT     BB363056  23.014  63.264  48.512
 9698DT     SC163057  22.785  63.164  48.593
 9698DT     SC263058  22.671  63.318  48.691
 9698DT     SC363059  22.612  62.999  48.705
 9699DC     BB163060  23.250  63.379  48.437
 9699DC     BB263061  23.104  63.617  48.665
 9699DC     BB363062  23.160  63.572  48.860
 9699DC     SC163063  22.995  63.369  48.868
 9699DC     SC263064  22.833  63.413  49.003
 9699DC     SC363065  22.908  63.120  48.886
 9700DA     BB163066  23.257  63.976  48.804
 9700DA     BB263067  23.075  63.950  49.121
 9700DA     BB363068  23.201  63.866  49.272
 9700DA     SC163069  23.117  63.573  49.213
 9700DA     SC263070  22.986  63.392  49.325
 9700DA     SC363071  23.112  63.232  49.169
 9700DA     SC463072  23.206  63.489  49.109
 9701DC     BB163073  23.269  63.981  49.442
 9701DC     BB263074  23.056  63.825  49.688
 9701DC     BB363075  23.169  63.705  49.814
 9701DC     SC163076  23.194  63.521  49.628
 9701DC     SC263077  23.081  63.347  49.684
 9701DC     SC363078  23.307  63.361  49.452
 9702DA     BB163079  22.946  63.960  50.060
 9702DA     BB263080  22.902  63.618  50.184
 9702DA     BB363081  23.079  63.552  50.284
 9702DA     SC163082  23.208  63.430  50.029
 9702DA     SC263083  23.262  63.204  49.939
 9702DA     SC363084  23.427  63.327  49.785
 9702DA     SC463085  23.305  63.525  49.942
 9703DA     BB163086  22.861  63.492  50.521
 9703DA     BB263087  22.958  63.140  50.494
 9703DA     BB363088  23.147  63.107  50.587
 9703DA     SC163089  23.310  63.159  50.327
 9703DA     SC263090  23.448  63.027  50.166
 9703DA     SC363091  23.549  63.253  50.099
 9703DA     SC463092  23.361  63.309  50.300
 9704DT     BB163093  23.150  62.992  50.749
 9704DT     BB263094  23.296  62.702  50.593
 9704DT     BB363095  23.495  62.685  50.647
 9704DT     SC163096  23.563  62.882  50.487
 9704DT     SC263097  23.678  62.804  50.323
 9704DT     SC363098  23.654  63.116  50.407
 9705DT     BB163099  23.421  62.474  50.791
 9705DT     BB263100  23.672  62.349  50.564
 9705DT     BB363101  23.861  62.384  50.642
 9705DT     SC163102  23.847  62.639  50.584
 9705DT     SC263103  23.985  62.684  50.425
 9705DT     SC363104  23.838  62.901  50.616
 9706DC     BB163105  23.871  62.121  50.676
 9706DC     BB263106  24.158  62.200  50.472
 9706DC     BB363107  24.314  62.263  50.592
 9706DC     SC163108  24.201  62.496  50.632
 9706DC     SC263109  24.314  62.648  50.531
 9706DC     SC363110  24.087  62.698  50.757
 9707DT     BB163111  24.428  62.032  50.529
 9707DT     BB263112  24.669  62.283  50.433
 9707DT     BB363113  24.781  62.340  50.598
 9707DT     SC163114  24.581  62.480  50.695
 9707DT     SC263115  24.627  62.689  50.682
 9707DT     SC363116  24.388  62.558  50.857
 9708DT     BB163117  24.991  62.208  50.494
 9708DT     BB263118  25.115  62.542  50.551
 9708DT     BB363119  25.180  62.561  50.747
 9708DT     SC163120  24.934  62.570  50.836
 9708DT     SC263121  24.891  62.768  50.909
 9708DT     SC363122  24.714  62.502  50.966
 9709DG     BB163123  25.515  62.647  50.526
 9709DG     BB263124  25.457  62.902  50.776
 9709DG     BB363125  25.521  62.839  50.953
 9709DG     SC163126  25.255  62.711  51.033
 9709DG     SC263127  25.075  62.802  51.253
 9709DG     SC363128  24.985  62.542  51.144
 9709DG     SC463129  25.227  62.558  50.992
 9710DC     BB163130  25.712  62.925  51.096
 9710DC     BB263131  25.530  63.095  51.357
 9710DC     BB363132  25.546  62.990  51.535
 9710DC     SC163133  25.378  62.806  51.451
 9710DC     SC263134  25.195  62.821  51.562
 9710DC     SC363135  25.284  62.572  51.375
 9711DT     BB163136  25.745  63.153  51.684
 9711DT     BB263137  25.466  63.138  51.912
 9711DT     BB363138  25.493  62.984  52.047
 9711DT     SC163139  25.435  62.804  51.866
 9711DT     SC263140  25.246  62.713  51.914
 9711DT     SC363141  25.463  62.600  51.702
 9712DT     BB163142  25.565  63.141  52.281
 9712DT     BB263143  25.278  62.952  52.391
 9712DT     BB363144  25.339  62.777  52.484
 9712DT     SC163145  25.402  62.668  52.254
 9712DT     SC263146  25.264  62.508  52.211
 9712DT     SC363147  25.547  62.560  52.062
 9713DT     BB163148  25.274  62.866  52.741
 9713DT     BB263149  25.080  62.565  52.699
 9713DT     BB363150  25.188  62.402  52.766
 9713DT     SC163151  25.342  62.406  52.554
 9713DT     SC263152  25.299  62.235  52.431
 9713DT     SC363153  25.558  62.428  52.405
 9714DA     BB163154  24.816  62.389  52.957
 9714DA     BB263155  24.877  62.058  52.811
 9714DA     BB363156  25.023  61.952  52.925
 9714DA     SC163157  25.265  62.057  52.761
 9714DA     SC263158  25.432  61.966  52.600
 9714DA     SC363159  25.573  62.172  52.661
 9714DA     SC463160  25.338  62.191  52.813
 9715DT     BB163161  24.963  61.786  53.022
 9715DT     BB263162  25.119  61.549  52.800
 9715DT     BB363163  25.288  61.469  52.889
 9715DT     SC163164  25.423  61.690  52.849
 9715DT     SC263165  25.575  61.655  52.700
 9715DT     SC363166  25.559  61.910  52.900
 9716DA     BB163167  25.053  61.147  52.760
 9716DA     BB263168  25.395  61.091  52.641
 9716DA     BB363169  25.521  61.032  52.802
 9716DA     SC163170  25.606  61.322  52.874
 9716DA     SC263171  25.812  61.463  52.861
 9716DA     SC363172  25.698  61.609  53.038
 9716DA     SC463173  25.520  61.400  52.985
 9717DC     BB163174  25.601  60.841  52.805
 9717DC     BB263175  25.937  60.935  52.715
 9717DC     BB363176  26.061  60.921  52.880
 9717DC     SC163177  25.961  61.141  52.984
 9717DC     SC263178  26.109  61.297  52.977
 9717DC     SC363179  25.835  61.301  53.151
 9718DA     BB163180  26.240  60.705  52.569
 9718DA     BB263181  26.492  60.933  52.708
 9718DA     BB363182  26.559  60.862  52.898
 9718DA     SC163183  26.345  61.019  53.060
 9718DA     SC263184  26.338  61.213  53.217
 9718DA     SC363185  26.112  61.118  53.292
 9718DA     SC463186  26.208  60.943  53.094
 9719DA     BB163187  26.838  60.902  52.736
 9719DA     BB263188  26.925  61.149  52.993
 9719DA     BB363189  26.977  61.050  53.175
 9719DA     SC163190  26.687  61.054  53.287
 9719DA     SC263191  26.561  61.169  53.470
 9719DA     SC363192  26.391  60.978  53.445
 9719DA     SC463193  26.594  60.926  53.258
 9720DA     BB163194  27.215  61.258  53.106
 9720DA     BB263195  27.134  61.416  53.427
 9720DA     BB363196  27.191  61.288  53.588
 9720DA     SC163197  26.915  61.144  53.603
 9720DA     SC263198  26.720  61.134  53.759
 9720DA     SC363199  26.663  60.914  53.640
 9720DA     SC463200  26.897  61.009  53.518
 9721DG     BB163201  27.332  61.556  53.626
 9721DG     BB263202  27.133  61.558  53.928
 9721DG     BB363203  27.207  61.428  54.059
 9721DG     SC163204  27.039  61.193  53.959
 9721DG     SC263205  26.821  61.056  54.110
 9721DG     SC363206  26.885  60.909  53.861
 9721DG     SC463207  27.096  61.102  53.840
 9722DA     BB163208  27.163  61.713  54.250
 9722DA     BB263209  26.960  61.515  54.483
 9722DA     BB363210  27.081  61.371  54.583
 9722DA     SC163211  27.034  61.148  54.371
 9722DA     SC263212  26.914  60.930  54.356
 9722DA     SC363213  27.068  60.883  54.156
 9722DA     SC463214  27.140  61.137  54.250
 9723DT     BB163215  27.100  61.399  54.770
 9723DT     BB263216  26.901  61.120  54.883
 9723DT     BB363217  27.023  60.963  54.938
 9723DT     SC163218  27.076  60.905  54.687
 9723DT     SC263219  26.983  60.718  54.637
 9723DT     SC363220  27.211  60.870  54.464
 9724DT     BB163221  26.975  61.006  55.205
 9724DT     BB263222  26.890  60.659  55.155
 9724DT     BB363223  27.058  60.541  55.179
 9724DT     SC163224  27.153  60.616  54.946
 9724DT     SC263225  27.146  60.450  54.809
 9724DT     SC363226  27.313  60.724  54.766
 9725DT     BB163227  26.977  60.443  55.425
 9725DT     BB263228  27.032  60.146  55.227
 9725DT     BB363229  27.228  60.085  55.245
 9725DT     SC163230  27.311  60.279  55.090
 9725DT     SC263231  27.380  60.197  54.903
 9725DT     SC363232  27.437  60.498  55.011
 9726DA     BB163233  26.997  59.748  55.338
 9726DA     BB263234  27.248  59.646  55.091
 9726DA     BB363235  27.440  59.629  55.183
 9726DA     SC163236  27.520  59.924  55.124
 9726DA     SC263237  27.681  60.046  54.978
 9726DA     SC363238  27.649  60.242  55.141
 9726DA     SC463239  27.488  60.034  55.237
 9727DC     BB163240  27.523  59.447  55.194
 9727DC     BB263241  27.770  59.496  54.935
 9727DC     BB363242  27.957  59.523  55.020
 9727DC     SC163243  27.897  59.767  55.096
 9727DC     SC263244  28.011  59.908  54.979
 9727DC     SC363245  27.848  59.973  55.252
 9728DA     BB163246  27.979  59.229  54.722
 9728DA     BB263247  28.253  59.467  54.669
 9728DA     BB363248  28.402  59.443  54.820
 9728DA     SC163249  28.274  59.652  55.012
 9728DA     SC263250  28.326  59.880  55.098
 9728DA     SC363251  28.162  59.824  55.287
 9728DA     SC463252  28.169  59.598  55.122
 9729DT     BB163253  28.570  59.381  54.756
 9729DT     BB263254  28.753  59.690  54.794
 9729DT     BB363255  28.867  59.684  54.967
 9729DT     SC163256  28.655  59.719  55.117
 9729DT     SC263257  28.662  59.914  55.207
 9729DT     SC363258  28.466  59.672  55.296
 9730DC     BB163259  29.099  59.654  54.824
 9730DC     BB263260  29.164  59.940  55.033
 9730DC     BB363261  29.238  59.878  55.216
 9730DC     SC163262  29.001  59.796  55.294
 9730DC     SC263263  28.929  59.925  55.450
 9730DC     SC363264  28.808  59.635  55.372
 9731DT     BB163265  29.512  59.949  55.171
 9731DT     BB263266  29.433  60.116  55.481
 9731DT     BB363267  29.480  59.994  55.642
 9731DT     SC163268  29.270  59.843  55.598
 9731DT     SC263269  29.127  59.872  55.756
 9731DT     SC363270  29.124  59.631  55.539
 9732DA     BB163271  29.712  60.332  55.747
 9732DA     BB263272  29.519  60.241  56.044
 9732DA     BB363273  29.609  60.075  56.143
 9732DA     SC163274  29.446  59.861  55.987
 9732DA     SC263275  29.264  59.697  56.033
 9732DA     SC363276  29.344  59.579  55.820
 9732DA     SC463277  29.511  59.802  55.852
 9733DA     BB163278  29.631  60.253  56.428
 9733DA     BB263279  29.399  60.014  56.581
 9733DA     BB363280  29.505  59.842  56.651
 9733DA     SC163281  29.474  59.684  56.385
 9733DA     SC263282  29.350  59.484  56.303
 9733DA     SC363283  29.522  59.480  56.113
 9733DA     SC463284  29.591  59.698  56.276
 9734DA     BB163285  29.363  59.913  56.939
 9734DA     BB263286  29.187  59.592  56.910
 9734DA     BB363287  29.315  59.432  56.967
 9734DA     SC163288  29.424  59.384  56.679
 9734DA     SC263289  29.406  59.211  56.501
 9734DA     SC363290  29.621  59.314  56.407
 9734DA     SC463291  29.558  59.462  56.637
 9735DG     BB163292  29.094  59.389  57.176
 9735DG     BB263293  29.042  59.083  56.989
 9735DG     BB363294  29.172  58.945  57.048
 9735DG     SC163295  29.387  59.024  56.845
 9735DG     SC263296  29.481  58.859  56.616
 9735DG     SC363297  29.652  59.098  56.650
 9735DG     SC463298  29.494  59.137  56.885
 9736DC     BB163299  29.087  58.775  57.124
 9736DC     BB263300  29.137  58.541  56.855
 9736DC     BB363301  29.301  58.421  56.895
 9736DC     SC163302  29.468  58.616  56.840
 9736DC     SC263303  29.572  58.571  56.657
 9736DC     SC363304  29.654  58.800  56.872
 9737DA     BB163305  28.964  58.201  56.775
 9737DA     BB263306  29.254  58.085  56.583
 9737DA     BB363307  29.390  57.981  56.710
 9737DA     SC163308  29.554  58.235  56.783
 9737DA     SC263309  29.781  58.327  56.737
 9737DA     SC363310  29.741  58.474  56.944
 9737DA     SC463311  29.511  58.316  56.915
 9738DA     BB163312  29.341  57.776  56.459
 9738DA     BB263313  29.704  57.793  56.407
 9738DA     BB363314  29.806  57.692  56.564
 9738DA     SC163315  29.833  57.946  56.742
 9738DA     SC263316  30.014  58.099  56.821
 9738DA     SC363317  29.849  58.165  57.006
 9738DA     SC463318  29.717  57.973  56.851
 9739DT     BB163319  29.903  57.532  56.513
 9739DT     BB263320  30.237  57.665  56.545
 9739DT     BB363321  30.321  57.601  56.723
 9739DT     SC163322  30.174  57.768  56.862
 9739DT     SC263323  30.300  57.923  56.944
 9739DT     SC363324  29.996  57.858  57.034
 9740DT     BB163325  30.488  57.424  56.594
 9740DT     BB263326  30.712  57.627  56.791
 9740DT     BB363327  30.733  57.546  56.980
 9740DT     SC163328  30.495  57.630  57.051
 9740DT     SC263329  30.515  57.787  57.196
 9740DT     SC363330  30.243  57.625  57.128
 9741DT     BB163331  30.992  57.443  56.938
 9741DT     BB263332  31.030  57.649  57.231
 9741DT     BB363333  30.997  57.537  57.402
 9741DT     SC163334  30.738  57.534  57.360
 9741DT     SC263335  30.640  57.654  57.510
 9741DT     SC363336  30.495  57.444  57.311
 9742DC     BB163337  31.270  57.516  57.483
 9742DC     BB263338  31.107  57.660  57.771
 9742DC     BB363339  31.047  57.510  57.901
 9742DC     SC163340  30.848  57.443  57.744
 9742DC     SC263341  30.662  57.496  57.837
 9742DC     SC363342  30.696  57.299  57.583
 9743DC     BB163343  31.249  57.557  58.095
 9743DC     BB263344  30.941  57.589  58.281
 9743DC     BB363345  30.889  57.406  58.363
 9743DC     SC163346  30.812  57.314  58.130
 9743DC     SC263347  30.598  57.291  58.130
 9743DC     SC363348  30.803  57.165  57.913
 9744DT     BB163349  30.957  57.483  58.623
 9744DT     BB263350  30.610  57.387  58.648
 9744DT     BB363351  30.596  57.185  58.694
 9744DT     SC163352  30.662  57.117  58.449
 9744DT     SC263353  30.492  57.031  58.351
 9744DT     SC363354  30.799  57.012  58.249
 9745DC     BB163355  30.514  57.244  58.948
 9745DC     BB263356  30.248  57.042  58.813
 9745DC     BB363357  30.287  56.842  58.847
 9745DC     SC163358  30.471  56.838  58.659
 9745DC     SC263359  30.400  56.720  58.493
 9745DC     SC363360  30.706  56.815  58.542
 9746DT     BB163361  30.089  56.837  59.032
 9746DT     BB263362  29.996  56.583  58.793
 9746DT     BB363363  30.085  56.403  58.843
 9746DT     SC163364  30.319  56.485  58.758
 9746DT     SC263365  30.373  56.378  58.580
 9746DT     SC363366  30.573  56.556  58.761
 9747DA     BB163367  29.675  56.341  58.783
 9747DA     BB263368  29.857  56.086  58.593
 9747DA     BB363369  29.941  55.940  58.725
 9747DA     SC163370  30.211  56.091  58.759
 9747DA     SC263371  30.449  56.060  58.691
 9747DA     SC363372  30.503  56.224  58.881
 9747DA     SC463373  30.224  56.193  58.882
 9748DA     BB163374  29.777  55.750  58.516
 9748DA     BB263375  30.099  55.594  58.438
 9748DA     BB363376  30.162  55.468  58.598
 9748DA     SC163377  30.320  55.692  58.745
 9748DA     SC263378  30.558  55.749  58.793
 9748DA     SC363379  30.464  55.896  58.981
 9748DA     SC463380  30.242  55.777  58.857
 9749DA     BB163381  30.183  55.257  58.349
 9749DA     BB263382  30.539  55.224  58.431
 9749DA     BB363383  30.564  55.107  58.608
 9749DA     SC163384  30.554  55.351  58.800
 9749DA     SC263385  30.712  55.476  58.948
 9749DA     SC363386  30.500  55.562  59.066
 9749DA     SC463387  30.411  55.392  58.861
 9750DG     BB163388  30.727  54.921  58.420
 9750DG     BB263389  30.999  55.009  58.640
 9750DG     BB363390  30.994  54.897  58.804
 9750DG     SC163391  30.815  55.090  58.960
 9750DG     SC263392  30.894  55.245  59.202
 9750DG     SC363393  30.603  55.268  59.153
 9750DG     SC463394  30.656  55.075  58.948
 9751DC     BB163395  31.158  54.750  58.858
 9751DC     BB263396  31.320  54.919  59.133
 9751DC     BB363397  31.268  54.829  59.311
 9751DC     SC163398  31.028  54.936  59.305
 9751DC     SC263399  31.012  55.085  59.460
 9751DC     SC363400  30.766  54.956  59.294
 9752DT     BB163401  31.517  54.729  59.328
 9752DT     BB263402  31.472  54.914  59.635
 9752DT     BB363403  31.378  54.795  59.776
 9752DT     SC163404  31.147  54.820  59.654
 9752DT     SC263405  31.015  54.940  59.774
 9752DT     SC363406  30.927  54.756  59.522
 9753DA     BB163407  31.724  54.943  59.963
 9753DA     BB263408  31.441  54.998  60.190
 9753DA     BB363409  31.380  54.814  60.278
 9753DA     SC163410  31.173  54.748  60.056
 9753DA     SC263411  30.925  54.735  60.033
 9753DA     SC363412  30.972  54.590  59.826
 9753DA     SC463413  31.223  54.659  59.932
 9754DG     BB163414  31.451  54.946  60.554
 9754DG     BB263415  31.096  54.910  60.613
 9754DG     BB363416  31.057  54.727  60.679
 9754DG     SC163417  31.014  54.610  60.399
 9754DG     SC263418  30.756  54.509  60.289
 9754DG     SC363419  30.980  54.444  60.107
 9754DG     SC463420  31.140  54.551  60.320
 9755DT     BB163421  30.970  54.685  60.885
 9755DT     BB263422  30.628  54.605  60.801
 9755DT     BB363423  30.598  54.401  60.816
 9755DT     SC163424  30.729  54.356  60.593
 9755DT     SC263425  30.591  54.291  60.441
 9755DT     SC363426  30.914  54.269  60.427
 9756DA     BB163427  30.298  54.582  61.045
 9756DA     BB263428  30.137  54.339  60.823
 9756DA     BB363429  30.175  54.140  60.892
 9756DA     SC163430  30.434  54.105  60.723
 9756DA     SC263431  30.509  53.973  60.525
 9756DA     SC363432  30.747  54.019  60.611
 9756DA     SC463433  30.574  54.143  60.793
 9757DT     BB163434  30.018  54.029  60.959
 9757DT     BB263435  29.993  53.814  60.671
 9757DT     BB363436  30.069  53.626  60.716
 9757DT     SC163437  30.316  53.715  60.706
 9757DT     SC263438  30.415  53.632  60.534
 9757DT     SC363439  30.560  53.779  60.783
 9758DA     BB163440  29.687  53.579  60.549
 9758DA     BB263441  29.918  53.354  60.373
 9758DA     BB363442  29.972  53.190  60.499
 9758DA     SC163443  30.221  53.332  60.619
 9758DA     SC263444  30.469  53.311  60.608
 9758DA     SC363445  30.470  53.444  60.827
 9758DA     SC463446  30.201  53.415  60.755
 9759DT     BB163447  29.911  53.014  60.440
 9759DT     BB263448  30.232  52.894  60.327
 9759DT     BB363449  30.311  52.762  60.466
 9759DT     SC163450  30.372  52.959  60.629
 9759DT     SC263451  30.586  52.981  60.637
 9759DT     SC363452  30.373  53.112  60.844
 9760DA     BB163453  30.323  52.587  60.085
 9760DA     BB263454  30.653  52.551  60.239
 9760DA     BB363455  30.646  52.407  60.397
 9760DA     SC163456  30.580  52.617  60.617
 9760DA     SC263457  30.694  52.720  60.814
 9760DA     SC363458  30.457  52.780  60.893
 9760DA     SC463459  30.425  52.644  60.650
 9761DT     BB163460  30.750  52.248  60.367
 9761DT     BB263461  31.017  52.323  60.598
 9761DT     BB363462  30.991  52.215  60.772
 9761DT     SC163463  30.796  52.371  60.851
 9761DT     SC263464  30.861  52.488  61.019
 9761DT     SC363465  30.554  52.450  60.921
 9762DT     BB163466  31.202  52.063  60.700
 9762DT     BB263467  31.290  52.192  61.025
 9762DT     BB363468  31.212  52.070  61.173
 9762DT     SC163469  30.970  52.164  61.133
 9762DT     SC263470  30.911  52.283  61.302
 9762DT     SC363471  30.714  52.172  61.070
 9763DA     BB163472  31.620  52.109  61.260
 9763DA     BB263473  31.435  52.170  61.571
 9763DA     BB363474  31.359  51.986  61.649
 9763DA     SC163475  31.088  52.006  61.498
 9763DA     SC263476  30.848  52.044  61.553
 9763DA     SC363477  30.799  51.937  61.325
 9763DA     SC463478  31.078  51.935  61.353
 9764DT     BB163479  31.431  51.898  61.832
 9764DT     BB263480  31.142  51.971  62.036
 9764DT     BB363481  31.037  51.797  62.074
 9764DT     SC163482  30.941  51.792  61.829
 9764DT     SC263483  30.730  51.833  61.834
 9764DT     SC363484  30.894  51.710  61.583
 9765DG     BB163485  31.135  51.912  62.456
 9765DG     BB263486  30.780  51.847  62.431
 9765DG     BB363487  30.745  51.652  62.449
 9765DG     SC163488  30.770  51.595  62.150
 9765DG     SC263489  30.549  51.507  61.969
 9765DG     SC363490  30.809  51.493  61.830
 9765DG     SC463491  30.914  51.561  62.088
 9766DG     BB163492  30.548  51.661  62.730
 9766DG     BB263493  30.279  51.534  62.525
 9766DG     BB363494  30.278  51.335  62.530
 9766DG     SC163495  30.466  51.302  62.291
 9766DG     SC263496  30.394  51.186  62.026
 9766DG     SC363497  30.686  51.230  62.046
 9766DG     SC463498  30.624  51.299  62.317
 9767DA     BB163499  29.939  51.316  62.633
 9767DA     BB263500  29.849  51.144  62.322
 9767DA     BB363501  29.887  50.934  62.340
 9767DA     SC163502  30.178  50.952  62.232
 9767DA     SC263503  30.303  50.883  62.028
 9767DA     SC363504  30.513  50.906  62.174
 9767DA     SC463505  30.296  50.971  62.339
 9768DG     BB163506  29.581  50.893  62.294
 9768DG     BB263507  29.694  50.746  61.984
 9768DG     BB363508  29.733  50.553  62.010
 9768DG     SC163509  30.026  50.597  62.087
 9768DG     SC263510  30.264  50.511  61.929
 9768DG     SC363511  30.345  50.610  62.195
 9768DG     SC463512  30.062  50.623  62.241
 9769DG     BB163513  29.519  50.525  61.775
 9769DG     BB263514  29.796  50.396  61.581
 9769DG     BB363515  29.825  50.204  61.624
 9769DG     SC163516  30.021  50.260  61.852
 9769DG     SC263517  30.312  50.192  61.854
 9769DG     SC363518  30.224  50.286  62.121
 9769DG     SC463519  29.964  50.282  62.000
 9770DT     BB163520  29.812  50.125  61.462
 9770DT     BB263521  30.154  50.036  61.391
 9770DT     BB363522  30.194  49.846  61.461
 9770DT     SC163523  30.202  49.931  61.709
 9770DT     SC263524  30.405  49.920  61.781
 9770DT     SC363525  30.140  49.961  61.964
 9771DT     BB163526  30.217  49.856  61.210
 9771DT     BB263527  30.532  49.737  61.339
 9771DT     BB363528  30.510  49.544  61.412
 9771DT     SC163529  30.384  49.631  61.625
 9771DT     SC263530  30.509  49.604  61.798
 9771DT     SC363531  30.192  49.669  61.802
 9772DG     BB163532  30.824  49.626  61.153
 9772DG     BB263533  30.925  49.436  61.444
 9772DG     BB363534  30.843  49.255  61.439
 9772DG     SC163535  30.590  49.337  61.589
 9772DG     SC263536  30.510  49.246  61.862
 9772DG     SC363537  30.291  49.397  61.734
 9772DG     SC463538  30.465  49.393  61.506
 9773DT     BB163539  30.974  49.102  61.431
 9773DT     BB263540  30.936  48.939  61.750
 9773DT     BB363541  30.802  48.782  61.734
 9773DT     SC163542  30.599  48.948  61.725
 9773DT     SC263543  30.484  48.931  61.906
 9773DT     SC363544  30.387  49.077  61.633
 9774DT     BB163545  30.997  48.583  61.740
 9774DT     BB263546  30.765  48.479  61.996
 9774DT     BB363547  30.617  48.361  61.914
 9774DT     SC163548  30.500  48.569  61.804
 9774DT     SC263549  30.313  48.606  61.904
 9774DT     SC363550  30.406  48.732  61.620
 9775DA     BB163551  30.755  48.087  62.207
 9775DA     BB263552  30.389  48.091  62.233
 9775DA     BB363553  30.302  47.972  62.079
 9775DA     SC163554  30.278  48.208  61.877
 9775DA     SC263555  30.097  48.344  61.774
 9775DA     SC363556  30.271  48.402  61.594
 9775DA     SC463557  30.400  48.231  61.775
 9776DG     BB163558  30.163  47.751  62.278
 9776DG     BB263559  29.852  47.886  62.151
 9776DG     BB363560  29.793  47.782  61.992
 9776DG     SC163561  29.943  47.958  61.791
 9776DG     SC263562  29.819  48.135  61.586
 9776DG     SC363563  30.111  48.117  61.545
 9776DG     SC463564  30.095  47.922  61.755
 9777DC     BB163565  29.587  47.638  61.962
 9777DC     BB263566  29.385  47.863  61.766
 9777DC     BB363567  29.363  47.790  61.574
 9777DC     SC163568  29.609  47.858  61.513
 9777DC     SC263569  29.606  48.021  61.372
 9777DC     SC363570  29.863  47.837  61.442
 9778DT     BB163571  29.099  47.723  61.616
 9778DT     BB263572  29.091  47.955  61.340
 9778DT     BB363573  29.110  47.853  61.161
 9778DT     SC163574  29.366  47.814  61.202
 9778DT     SC263575  29.479  47.932  61.062
 9778DT     SC363576  29.595  47.689  61.243
 9779DA     BB163577  28.782  48.112  61.148
 9779DA     BB263578  28.988  48.171  60.851
 9779DA     BB363579  28.969  48.009  60.714
 9779DA     SC163580  29.209  47.850  60.833
 9779DA     SC263581  29.440  47.786  60.765
 9779DA     SC363582  29.420  47.603  60.944
 9779DA     SC463583  29.177  47.742  60.948
 9780DC     BB163584  28.893  48.067  60.559
 9780DC     BB263585  29.192  48.058  60.357
 9780DC     BB363586  29.197  47.884  60.245
 9780DC     SC163587  29.261  47.741  60.456
 9780DC     SC263588  29.463  47.672  60.436
 9780DC     SC363589  29.244  47.561  60.647
 9781DT     BB163590  29.157  48.050  60.046
 9781DT     BB263591  29.460  47.872  59.964
 9781DT     BB363592  29.414  47.688  59.882
 9781DT     SC163593  29.348  47.592  60.117
 9781DT     SC263594  29.494  47.446  60.178
 9781DT     SC363595  29.201  47.490  60.311
 9782DC     BB163596  29.501  47.790  59.654
 9782DC     BB263597  29.697  47.490  59.702
 9782DC     BB363598  29.591  47.325  59.636
 9782DC     SC163599  29.434  47.332  59.847
 9782DC     SC263600  29.476  47.163  59.973
 9782DC     SC363601  29.216  47.354  59.993
 9783DT     BB163602  29.756  47.305  59.422
 9783DT     BB263603  29.772  46.980  59.577
 9783DT     BB363604  29.618  46.861  59.507
 9783DT     SC163605  29.442  46.990  59.652
 9783DT     SC263606  29.371  46.861  59.810
 9783DT     SC363607  29.234  47.139  59.716
 9784DT     BB163608  29.787  46.708  59.351
 9784DT     BB263609  29.618  46.465  59.557
 9784DT     BB363610  29.443  46.404  59.465
 9784DT     SC163611  29.324  46.630  59.524
 9784DT     SC263612  29.172  46.594  59.672
 9784DT     SC363613  29.203  46.862  59.493
 9785DA     BB163614  29.646  46.046  59.548
 9785DA     BB263615  29.301  46.006  59.666
 9785DA     BB363616  29.169  45.976  59.501
 9785DA     SC163617  29.108  46.279  59.463
 9785DA     SC263618  28.916  46.434  59.495
 9785DA     SC363619  29.040  46.589  59.332
 9785DA     SC463620  29.200  46.360  59.359
 9786DA     BB163621  29.076  45.702  59.662
 9786DA     BB263622  28.739  45.844  59.680
 9786DA     BB363623  28.638  45.820  59.493
 9786DA     SC163624  28.734  46.093  59.378
 9786DA     SC263625  28.635  46.314  59.320
 9786DA     SC363626  28.843  46.347  59.174
 9786DA     SC463627  28.870  46.094  59.292
 9787DT     BB163628  28.472  45.694  59.476
 9787DT     BB263629  28.223  45.954  59.455
 9787DT     BB363630  28.150  45.967  59.262
 9787DT     SC163631  28.370  46.084  59.179
 9787DT     SC263632  28.327  46.289  59.130
 9787DT     SC363633  28.594  46.126  59.047
 9788DA     BB163634  27.815  45.932  59.511
 9788DA     BB263635  27.755  46.212  59.283
 9788DA     BB363636  27.710  46.141  59.088
 9788DA     SC163637  28.006  46.143  58.992
 9788DA     SC263638  28.148  46.272  58.833
 9788DA     SC363639  28.307  46.071  58.842
 9788DA     SC463640  28.091  46.007  59.010
 9789DA     BB163641  27.443  46.330  59.125
 9789DA     BB263642  27.558  46.520  58.834
 9789DA     BB363643  27.519  46.412  58.654
 9789DA     SC163644  27.794  46.267  58.653
 9789DA     SC263645  28.004  46.270  58.518
 9789DA     SC363646  28.048  46.038  58.618
 9789DA     SC463647  27.802  46.123  58.724
 9790DC     BB163648  27.377  46.480  58.512
 9790DC     BB263649  27.613  46.591  58.264
 9790DC     BB363650  27.613  46.461  58.103
 9790DC     SC163651  27.746  46.280  58.239
 9790DC     SC263652  27.945  46.263  58.159
 9790DC     SC363653  27.803  46.054  58.362
 9791DA     BB163654  27.544  46.834  57.924
 9791DA     BB263655  27.814  46.673  57.736
 9791DA     BB363656  27.736  46.522  57.608
 9791DA     SC163657  27.762  46.294  57.818
 9791DA     SC263658  27.900  46.090  57.852
 9791DA     SC363659  27.713  46.015  58.012
 9791DA     SC463660  27.635  46.265  57.912
 9792DT     BB163661  27.746  46.544  57.401
 9792DT     BB263662  28.012  46.306  57.348
 9792DT     BB363663  27.937  46.133  57.264
 9792DT     SC163664  27.830  46.058  57.492
 9792DT     SC263665  27.937  45.887  57.567
 9792DT     SC363666  27.649  45.993  57.671
 9793DA     BB163667  28.259  46.259  57.028
 9793DA     BB263668  28.308  45.904  57.105
 9793DA     BB363669  28.171  45.785  56.993
 9793DA     SC163670  27.950  45.790  57.212
 9793DA     SC263671  27.845  45.630  57.372
 9793DA     SC363672  27.651  45.797  57.380
 9793DA     SC463673  27.838  45.905  57.202
 9794DA     BB163674  28.456  45.643  56.917
 9794DA     BB263675  28.321  45.339  57.072
 9794DA     BB363676  28.174  45.251  56.945
 9794DA     SC163677  27.936  45.406  57.071
 9794DA     SC263678  27.738  45.356  57.214
 9794DA     SC363679  27.643  45.577  57.126
 9794DA     SC463680  27.894  45.546  57.004
 9795DG     BB163681  28.375  45.017  56.962
 9795DG     BB263682  28.097  44.855  57.128
 9795DG     BB363683  27.966  44.790  56.993
 9795DG     SC163684  27.804  45.050  56.990
 9795DG     SC263685  27.523  45.082  57.087
 9795DG     SC363686  27.615  45.326  56.947
 9795DG     SC463687  27.846  45.167  56.889
 9796DG     BB163688  28.010  44.492  57.120
 9796DG     BB263689  27.659  44.505  57.206
 9796DG     BB363690  27.548  44.459  57.048
 9796DG     SC163691  27.526  44.747  56.947
 9796DG     SC263692  27.277  44.911  56.936
 9796DG     SC363693  27.499  45.048  56.797
 9796DG     SC463694  27.639  44.803  56.848
 9797DT     BB163695  27.420  44.284  57.053
 9797DT     BB263696  27.093  44.434  57.086
 9797DT     BB363697  26.996  44.432  56.903
 9797DT     SC163698  27.146  44.628  56.813
 9797DT     SC263699  27.026  44.805  56.792
 9797DT     SC363700  27.321  44.759  56.665
 9798DT     BB163701  26.829  44.238  56.992
 9798DT     BB263702  26.611  44.506  56.890
 9798DT     BB363703  26.569  44.490  56.688
 9798DT     SC163704  26.808  44.577  56.624
 9798DT     SC263705  26.792  44.773  56.537
 9798DT     SC363706  27.053  44.581  56.525
 9799DA     BB163707  26.202  44.522  56.888
 9799DA     BB263708  26.203  44.765  56.614
 9799DA     BB363709  26.181  44.666  56.426
 9799DA     SC163710  26.487  44.632  56.381
 9799DA     SC263711  26.663  44.724  56.230
 9799DA     SC363712  26.798  44.516  56.294
 9799DA     SC463713  26.555  44.496  56.432
 9800DA     BB163714  25.938  44.884  56.405
 9800DA     BB263715  26.114  45.020  56.114
 9800DA     BB363716  26.091  44.891  55.946
 9800DA     SC163717  26.346  44.724  56.007
 9800DA     SC263718  26.573  44.691  55.909
 9800DA     SC363719  26.577  44.473  56.043
 9800DA     SC463720  26.329  44.592  56.097
 9801DA     BB163721  25.994  45.178  55.825
 9801DA     BB263722  26.271  45.144  55.586
 9801DA     BB363723  26.225  44.996  55.440
 9801DA     SC163724  26.352  44.762  55.602
 9801DA     SC263725  26.551  44.612  55.585
 9801DA     SC363726  26.422  44.457  55.744
 9801DA     SC463727  26.255  44.679  55.700
 9802DT     BB163728  26.211  45.067  55.269
 9802DT     BB263729  26.522  44.937  55.140
 9802DT     BB363730  26.486  44.767  55.027
 9802DT     SC163731  26.443  44.624  55.242
 9802DT     SC263732  26.605  44.484  55.268
 9802DT     SC363733  26.319  44.474  55.420
 9803DT     BB163734  26.549  44.915  54.815
 9803DT     BB263735  26.776  44.635  54.804
 9803DT     BB363736  26.683  44.473  54.713
 9803DT     SC163737  26.538  44.427  54.927
 9803DT     SC263738  26.604  44.244  55.020
 9803DT     SC363739  26.327  44.400  55.082
 9804DA     BB163740  27.052  44.532  54.520
 9804DA     BB263741  27.023  44.176  54.601
 9804DA     BB363742  26.879  44.083  54.474
 9804DA     SC163743  26.640  44.134  54.666
 9804DA     SC263744  26.489  44.000  54.813
 9804DA     SC363745  26.331  44.201  54.800
 9804DA     SC463746  26.554  44.268  54.645
 9805DC     BB163747  26.939  43.942  54.336
 9805DC     BB263748  26.810  43.652  54.508
 9805DC     BB363749  26.639  43.584  54.413
 9805DC     SC163750  26.497  43.783  54.510
 9805DC     SC263751  26.358  43.706  54.656
 9805DC     SC363752  26.348  44.000  54.519
 9806DC     BB163753  26.767  43.363  54.305
 9806DC     BB263754  26.491  43.223  54.492
 9806DC     BB363755  26.323  43.211  54.372
 9806DC     SC163756  26.284  43.470  54.387
 9806DC     SC263757  26.107  43.509  54.504
 9806DC     SC363758  26.260  43.722  54.314
 9807DT     BB163759  26.340  42.936  54.348
 9807DT     BB263760  26.012  42.993  54.485
 9807DT     BB363761  25.875  43.018  54.333
 9807DT     SC163762  25.963  43.259  54.282
 9807DT     SC263763  25.815  43.404  54.340
 9807DT     SC363764  26.073  43.461  54.152
 9808DG     BB163765  25.745  42.703  54.557
 9808DG     BB263766  25.488  42.956  54.521
 9808DG     BB363767  25.402  42.940  54.343
 9808DG     SC163768  25.598  43.130  54.204
 9808DG     SC263769  25.531  43.398  54.091
 9808DG     SC363770  25.806  43.317  54.016
 9808DG     SC463771  25.732  43.070  54.141
 9809DG     BB163772  25.126  42.905  54.509
 9809DG     BB263773  25.022  43.213  54.351
 9809DG     BB363774  24.956  43.175  54.167
 9809DG     SC163775  25.230  43.208  54.035
 9809DG     SC263776  25.309  43.425  53.845
 9809DG     SC363777  25.519  43.217  53.861
 9809DG     SC463778  25.327  43.081  54.023
 9810DT     BB163779  24.765  43.230  54.137
 9810DT     BB263780  24.800  43.525  53.933
 9810DT     BB363781  24.775  43.476  53.734
 9810DT     SC163782  25.012  43.364  53.723
 9810DT     SC263783  25.143  43.484  53.601
 9810DT     SC363784  25.198  43.179  53.695
 9811DT     BB163785  24.551  43.612  53.757
 9811DT     BB263786  24.731  43.772  53.488
 9811DT     BB363787  24.702  43.668  53.312
 9811DT     SC163788  24.864  43.476  53.389
 9811DT     SC263789  25.043  43.481  53.271
 9811DT     SC363790  24.949  43.237  53.461
 9812DA     BB163791  24.627  44.077  53.249
 9812DA     BB263792  24.844  43.956  52.979
 9812DA     BB363793  24.735  43.827  52.849
 9812DA     SC163794  24.807  43.568  53.006
 9812DA     SC263795  24.948  43.365  52.972
 9812DA     SC363796  24.802  43.259  53.156
 9812DA     SC463797  24.705  43.520  53.121
 9813DC     BB163798  24.702  43.888  52.661
 9813DC     BB263799  24.936  43.666  52.500
 9813DC     BB363800  24.835  43.510  52.408
 9813DC     SC163801  24.789  43.395  52.639
 9813DC     SC263802  24.905  43.214  52.653
 9813DC     SC363803  24.658  43.296  52.846
 9814DA     BB163804  25.083  43.676  52.114
 9814DA     BB263805  25.134  43.313  52.111
 9814DA     BB363806  24.967  43.215  52.022
 9814DA     SC163807  24.814  43.180  52.291
 9814DA     SC263808  24.749  42.994  52.443
 9814DA     SC363809  24.572  43.156  52.534
 9814DA     SC463810  24.710  43.295  52.333
 9815DA     BB163811  25.208  43.089  51.842
 9815DA     BB263812  25.107  42.762  51.973
 9815DA     BB363813  24.927  42.697  51.880
 9815DA     SC163814  24.741  42.827  52.092
 9815DA     SC263815  24.587  42.752  52.274
 9815DA     SC363816  24.482  42.985  52.255
 9815DA     SC463817  24.688  42.976  52.064
 9816DG     BB163818  25.118  42.469  51.806
 9816DG     BB263819  24.890  42.278  52.012
 9816DG     BB363820  24.725  42.235  51.909
 9816DG     SC163821  24.576  42.489  51.992
 9816DG     SC263822  24.333  42.501  52.165
 9816DG     SC363823  24.392  42.765  52.047
 9816DG     SC463824  24.593  42.621  51.904
 9817DA     BB163825  24.807  41.927  52.037
 9817DA     BB263826  24.476  41.911  52.193
 9817DA     BB363827  24.324  41.887  52.045
 9817DA     SC163828  24.279  42.193  52.007
 9817DA     SC263829  24.101  42.361  52.057
 9817DA     SC363830  24.216  42.505  51.879
 9817DA     SC463831  24.364  42.267  51.893
 9818DT     BB163832  24.250  41.734  52.076
 9818DT     BB263833  23.931  41.855  52.194
 9818DT     BB363834  23.797  41.866  52.036
 9818DT     SC163835  23.914  42.081  51.942
 9818DT     SC263836  23.784  42.251  51.968
 9818DT     SC363837  24.046  42.240  51.778
 9819DA     BB163838  23.612  41.657  52.353
 9819DA     BB263839  23.370  41.897  52.218
 9819DA     BB363840  23.307  41.837  52.024
 9819DA     SC163841  23.529  41.996  51.876
 9819DA     SC263842  23.545  42.197  51.729
 9819DA     SC363843  23.771  42.101  51.656
 9819DA     SC463844  23.666  41.919  51.842
 9820DC     BB163845  23.103  41.759  51.968
 9820DC     BB263846  22.989  42.040  51.774
 9820DC     BB363847  22.988  41.991  51.573
 9820DC     SC163848  23.250  42.009  51.560
 9820DC     SC263849  23.304  42.181  51.442
 9820DC     SC363850  23.502  41.939  51.527
 9821DT     BB163851  22.692  41.916  51.488
 9821DT     BB263852  22.778  42.156  51.234
 9821DT     BB363853  22.838  42.058  51.061
 9821DT     SC163854  23.069  41.995  51.168
 9821DT     SC263855  23.226  42.106  51.071
 9821DT     SC363856  23.267  41.849  51.263
 9822DA     BB163857  22.512  42.237  50.830
 9822DA     BB263858  22.815  42.302  50.633
 9822DA     BB363859  22.856  42.137  50.504
 9822DA     SC163860  23.036  41.989  50.710
 9822DA     SC263861  23.278  41.933  50.738
 9822DA     SC363862  23.196  41.751  50.900
 9822DA     SC463863  22.965  41.881  50.806
 9823DA     BB163864  22.850  42.317  50.209
 9823DA     BB263865  23.210  42.255  50.177
 9823DA     BB363866  23.245  42.074  50.069
 9823DA     SC163867  23.249  41.895  50.323
 9823DA     SC263868  23.416  41.763  50.453
 9823DA     SC363869  23.213  41.637  50.547
 9823DA     SC463870  23.110  41.827  50.368
 9824DT     BB163871  23.341  42.071  49.871
 9824DT     BB263872  23.663  41.966  49.995
 9824DT     BB363873  23.704  41.773  49.933
 9824DT     SC163874  23.534  41.673  50.107
 9824DT     SC263875  23.643  41.568  50.260
 9824DT     SC363876  23.324  41.547  50.205
 9825DA     BB163877  24.022  42.032  49.854
 9825DA     BB263878  24.152  41.739  50.033
 9825DA     BB363879  24.151  41.568  49.906
 9825DA     SC163880  23.865  41.477  49.990
 9825DA     SC263881  23.761  41.291  50.119
 9825DA     SC363882  23.546  41.352  49.995
 9825DA     SC463883  23.742  41.529  49.901
 9826DA     BB163884  24.449  41.591  50.033
 9826DA     BB263885  24.386  41.258  50.173
 9826DA     BB363886  24.383  41.112  50.017
 9826DA     SC163887  24.076  41.136  49.968
 9826DA     SC263888  23.872  40.997  50.004
 9826DA     SC363889  23.763  41.149  49.828
 9826DA     SC463890  24.027  41.240  49.856
 9827DT     BB163891  24.521  40.993  50.036
 9827DT     BB263892  24.326  40.708  50.141
 9827DT     BB363893  24.290  40.584  49.980
 9827DT     SC163894  24.111  40.749  49.881
 9827DT     SC263895  23.916  40.661  49.899
 9827DT     SC363896  23.993  40.917  49.717
 9828DA     BB163897  24.447  40.346  50.289
 9828DA     BB263898  24.153  40.174  50.153
 9828DA     BB363899  24.197  40.094  49.960
 9828DA     SC163900  24.105  40.348  49.806
 9828DA     SC263901  23.917  40.414  49.655
 9828DA     SC363902  24.072  40.605  49.582
 9828DA     SC463903  24.216  40.459  49.773
 9829DA     BB163904  24.097  39.802  50.085
 9829DA     BB263905  23.836  39.797  49.827
 9829DA     BB363906  23.918  39.739  49.639
 9829DA     SC163907  23.984  40.029  49.550
 9829DA     SC263908  23.903  40.194  49.381
 9829DA     SC363909  24.129  40.309  49.414
 9829DA     SC463910  24.131  40.086  49.584
 9830DG     BB163911  23.732  39.479  49.631
 9830DG     BB263912  23.585  39.644  49.344
 9830DG     BB363913  23.684  39.595  49.179
 9830DG     SC163914  23.883  39.826  49.201
 9830DG     SC263915  23.904  40.058  49.013
 9830DG     SC363916  24.130  40.056  49.204
 9830DG     SC463917  24.018  39.806  49.285
 9831DA     BB163918  23.389  39.490  49.023
 9831DA     BB263919  23.430  39.747  48.764
 9831DA     BB363920  23.567  39.680  48.615
 9831DA     SC163921  23.817  39.799  48.756
 9831DA     SC263922  23.980  39.985  48.718
 9831DA     SC363923  24.133  39.856  48.878
 9831DA     SC463924  23.899  39.704  48.856
 9832DC     BB163925  23.489  39.658  48.442
 9832DC     BB263926  23.628  39.959  48.298
 9832DC     BB363927  23.790  39.912  48.179
 9832DC     SC163928  23.941  39.867  48.389
 9832DC     SC263929  24.090  40.022  48.403
 9832DC     SC363930  24.093  39.740  48.563
 9833DA     BB163931  23.520  40.162  47.977
 9833DA     BB263932  23.856  40.305  47.948
 9833DA     BB363933  23.977  40.185  47.820
 9833DA     SC163934  24.086  40.006  48.049
 9833DA     SC263935  24.302  39.968  48.167
 9833DA     SC363936  24.201  39.743  48.238
 9833DA     SC463937  24.006  39.870  48.082
 9834DA     BB163938  24.001  40.490  47.707
 9834DA     BB263939  24.359  40.458  47.779
 9834DA     BB363940  24.450  40.321  47.643
 9834DA     SC163941  24.403  40.072  47.824
 9834DA     SC263942  24.540  39.915  47.961
 9834DA     SC363943  24.339  39.757  47.944
 9834DA     SC463944  24.268  39.988  47.802
 9835DG     BB163945  24.608  40.580  47.596
 9835DG     BB263946  24.877  40.378  47.728
 9835DG     BB363947  24.941  40.251  47.588
 9835DG     SC163948  24.746  40.028  47.666
 9835DG     SC263949  24.819  39.764  47.785
 9835DG     SC363950  24.533  39.771  47.711
 9835DG     SC463951  24.601  40.025  47.598
 9836DC     BB163952  25.134  40.275  47.543
 9836DC     BB263953  25.285  39.989  47.701
 9836DC     BB363954  25.309  39.836  47.563
 9836DC     SC163955  25.053  39.781  47.567
 9836DC     SC263956  25.022  39.591  47.662
 9836DC     SC363957  24.804  39.752  47.484
 9837DT     BB163958  25.560  39.894  47.600
 9837DT     BB263959  25.526  39.546  47.687
 9837DT     BB363960  25.521  39.430  47.515
 9837DT     SC163961  25.276  39.505  47.461
 9837DT     SC263962  25.142  39.338  47.489
 9837DT     SC363963  25.072  39.615  47.335
 9838DC     BB163964  25.749  39.355  47.612
 9838DC     BB263965  25.551  39.055  47.580
 9838DC     BB363966  25.549  38.993  47.383
 9838DC     SC163967  25.382  39.184  47.316
 9838DC     SC263968  25.191  39.099  47.268
 9838DC     SC363969  25.287  39.400  47.199
 9839DA     BB163970  25.630  38.685  47.662
 9839DA     BB263971  25.376  38.569  47.425
 9839DA     BB363972  25.459  38.551  47.229
 9839DA     SC163973  25.388  38.842  47.146
 9839DA     SC263974  25.231  38.955  46.989
 9839DA     SC363975  25.388  39.157  47.009
 9839DA     SC463976  25.499  38.956  47.170
 9840DA     BB163977  25.307  38.265  47.290
 9840DA     BB263978  25.115  38.335  46.986
 9840DA     BB363979  25.242  38.327  46.814
 9840DA     SC163980  25.314  38.630  46.824
 9840DA     SC263981  25.267  38.835  46.690
 9840DA     SC363982  25.474  38.933  46.806
 9840DA     SC463983  25.446  38.672  46.906
 9841DT     BB163984  25.201  38.188  46.697
 9841DT     BB263985  25.067  38.385  46.426
 9841DT     BB363986  25.213  38.416  46.282
 9841DT     SC163987  25.336  38.592  46.433
 9841DT     SC263988  25.314  38.788  46.347
 9841DT     SC363989  25.524  38.705  46.579
 9842DA     BB163990  24.900  38.251  46.053
 9842DA     BB263991  25.025  38.542  45.868
 9842DA     BB363992  25.210  38.495  45.773
 9842DA     SC163993  25.385  38.588  46.013
 9842DA     SC263994  25.542  38.774  46.066
 9842DA     SC363995  25.629  38.621  46.252
 9842DA     SC463996  25.426  38.478  46.122
 9843DA     BB163997  25.092  38.579  45.464
 9843DA     BB263998  25.350  38.838  45.442
 9843DA     BB363999  25.535  38.754  45.378
 9843DA     SC164000  25.637  38.694  45.665
 9843DA     SC264001  25.813  38.778  45.820
 9843DA     SC364002  25.784  38.555  45.942
 9843DA     SC464003  25.605  38.549  45.727
 9844DA     BB164004  25.560  38.963  45.109
 9844DA     BB264005  25.868  39.101  45.253
 9844DA     BB364006  26.035  38.979  45.200
 9844DA     SC164007  26.013  38.797  45.451
 9844DA     SC264008  26.142  38.755  45.660
 9844DA     SC364009  26.016  38.532  45.669
 9844DA     SC464010  25.926  38.662  45.438
 9845DT     BB164011  26.222  39.030  45.051
 9845DT     BB264012  26.464  39.083  45.313
 9845DT     BB364013  26.610  38.936  45.306
 9845DT     SC164014  26.446  38.758  45.408
 9845DT     SC264015  26.510  38.708  45.607
 9845DT     SC364016  26.296  38.542  45.429
 9846DT     BB164017  26.829  39.091  45.191
 9846DT     BB264018  26.967  38.968  45.501
 9846DT     BB364019  27.071  38.793  45.467
 9846DT     SC164020  26.849  38.656  45.439
 9846DT     SC264021  26.825  38.523  45.606
 9846DT     SC364022  26.660  38.510  45.328
 9847DT     BB164023  27.334  38.904  45.494
 9847DT     BB264024  27.321  38.645  45.745
 9847DT     BB364025  27.397  38.468  45.668
 9847DT     SC164026  27.180  38.428  45.527
 9847DT     SC264027  27.072  38.260  45.608
 9847DT     SC364028  27.022  38.396  45.318
 9848DA     BB164029  27.600  38.545  46.024
 9848DA     BB264030  27.470  38.202  46.041
 9848DA     BB364031  27.587  38.072  45.919
 9848DA     SC164032  27.414  38.113  45.665
 9848DA     SC264033  27.255  37.980  45.526
 9848DA     SC364034  27.302  38.152  45.342
 9848DA     SC464035  27.457  38.230  45.563
 9849DC     BB164036  27.678  37.939  46.020
 9849DC     BB264037  27.460  37.667  45.929
 9849DC     BB364038  27.550  37.547  45.787
 9849DC     SC164039  27.508  37.726  45.599
 9849DC     SC264040  27.360  37.651  45.461
 9849DC     SC364041  27.556  37.905  45.411
 9850DA     BB164042  27.377  37.343  46.108
 9850DA     BB264043  27.265  37.189  45.795
 9850DA     BB364044  27.427  37.089  45.699
 9850DA     SC164045  27.514  37.337  45.532
 9850DA     SC264046  27.512  37.408  45.293
 9850DA     SC364047  27.692  37.577  45.364
 9850DA     SC464048  27.625  37.433  45.595
 9851DA     BB164049  27.158  36.904  45.719
 9851DA     BB264050  27.187  36.880  45.354
 9851DA     BB364051  27.366  36.776  45.300
 9851DA     SC164052  27.541  37.033  45.285
 9851DA     SC264053  27.654  37.169  45.110
 9851DA     SC364054  27.797  37.260  45.302
 9851DA     SC464055  27.620  37.077  45.418
 9852DG     BB164056  27.119  36.642  45.172
 9852DG     BB264057  27.302  36.723  44.871
 9852DG     BB364058  27.465  36.610  44.858
 9852DG     SC164059  27.644  36.806  45.011
 9852DG     SC264060  27.874  36.959  44.897
 9852DG     SC364061  27.863  36.988  45.191
 9852DG     SC464062  27.652  36.795  45.170
 9853DA     BB164063  27.347  36.551  44.536
 9853DA     BB264064  27.669  36.659  44.399
 9853DA     BB364065  27.820  36.515  44.442
 9853DA     SC164066  27.904  36.647  44.711
 9853DA     SC264067  28.099  36.772  44.802
 9853DA     SC364068  28.008  36.706  45.033
 9853DA     SC464069  27.832  36.595  44.845
 9854DA     BB164070  27.877  36.515  44.113
 9854DA     BB264071  28.223  36.613  44.186
 9854DA     BB364072  28.334  36.446  44.257
 9854DA     SC164073  28.269  36.498  44.557
 9854DA     SC264074  28.389  36.573  44.762
 9854DA     SC364075  28.196  36.465  44.891
 9854DA     SC464076  28.140  36.424  44.619
 9855DT     BB164077  28.505  36.335  44.147
 9855DT     BB264078  28.777  36.457  44.350
 9855DT     BB364079  28.854  36.303  44.464
 9855DT     SC164080  28.648  36.309  44.627
 9855DT     SC264081  28.710  36.384  44.818
 9855DT     SC364082  28.431  36.232  44.755
 9856DA     BB164083  29.203  36.434  44.266
 9856DA     BB264084  29.286  36.412  44.623
 9856DA     BB364085  29.321  36.210  44.679
 9856DA     SC164086  29.025  36.154  44.757
 9856DA     SC264087  28.894  36.112  44.964
 9856DA     SC364088  28.718  36.010  44.808
 9856DA     SC464089  28.929  36.094  44.643
 9857DT     BB164090  29.521  36.126  44.741
 9857DT     BB264091  29.447  36.108  45.093
 9857DT     BB364092  29.432  35.910  45.152
 9857DT     SC164093  29.197  35.886  45.038
 9857DT     SC264094  29.046  35.866  45.190
 9857DT     SC364095  29.008  35.802  44.874
 9858DT     BB164096  29.674  35.918  45.286
 9858DT     BB264097  29.435  35.819  45.538
 9858DT     BB364098  29.417  35.613  45.542
 9858DT     SC164099  29.277  35.613  45.320
 9858DT     SC264100  29.074  35.557  45.364
 9858DT     SC364101  29.209  35.567  45.070
 9859DT     BB164102  29.549  35.609  45.778
 9859DT     BB264103  29.234  35.447  45.847
 9859DT     BB364104  29.247  35.245  45.803
 9859DT     SC164105  29.238  35.293  45.545
 9859DT     SC264106  29.050  35.222  45.466
 9859DT     SC364107  29.311  35.304  45.292
 9860DG     BB164108  29.137  35.278  46.194
 9860DG     BB264109  28.913  35.060  46.012
 9860DG     BB364110  28.998  34.881  45.988
 9860DG     SC164111  29.131  34.953  45.722
 9860DG     SC264112  29.065  34.836  45.456
 9860DG     SC364113  29.308  35.004  45.440
 9860DG     SC464114  29.277  35.019  45.724
 9861DA     BB164115  28.708  34.743  46.123
 9861DA     BB264116  28.655  34.548  45.817
 9861DA     BB364117  28.787  34.380  45.813
 9861DA     SC164118  29.013  34.532  45.662
 9861DA     SC264119  29.119  34.529  45.436
 9861DA     SC364120  29.316  34.648  45.549
 9861DA     SC464121  29.126  34.604  45.751
 9862DA     BB164122  28.505  34.216  45.768
 9862DA     BB264123  28.643  34.103  45.448
 9862DA     BB364124  28.790  33.951  45.479
 9862DA     SC164125  29.028  34.151  45.497
 9862DA     SC264126  29.227  34.214  45.360
 9862DA     SC364127  29.320  34.312  45.578
 9862DA     SC464128  29.069  34.205  45.643
 9863DG     BB164129  28.603  33.767  45.309
 9863DG     BB264130  28.883  33.765  45.081
 9863DG     BB364131  29.016  33.628  45.137
 9863DG     SC164132  29.173  33.820  45.317
 9863DG     SC264133  29.453  33.914  45.271
 9863DG     SC364134  29.356  33.996  45.538
 9863DG     SC464135  29.129  33.836  45.470
 9864DT     BB164136  29.069  33.448  45.010
 9864DT     BB264137  29.396  33.539  44.889
 9864DT     BB364138  29.542  33.432  44.990
 9864DT     SC164139  29.512  33.580  45.205
 9864DT     SC264140  29.687  33.702  45.232
 9864DT     SC364141  29.456  33.647  45.453
 9865DT     BB164142  29.592  33.273  44.771
 9865DT     BB264143  29.913  33.415  44.852
 9865DT     BB364144  30.010  33.296  44.991
 9865DT     SC164145  29.854  33.381  45.184
 9865DT     SC264146  29.968  33.504  45.320
 9865DT     SC364147  29.674  33.379  45.378
 9866DA     BB164148  30.290  33.334  44.680
 9866DA     BB264149  30.465  33.409  44.993
 9866DA     BB364150  30.505  33.229  45.101
 9866DA     SC164151  30.239  33.237  45.262
 9866DA     SC264152  30.166  33.276  45.497
 9866DA     SC364153  29.950  33.156  45.429
 9866DA     SC464154  30.112  33.159  45.200
 9867DG     BB164155  30.816  33.286  45.077
 9867DG     BB264156  30.796  33.317  45.437
 9867DG     BB364157  30.817  33.139  45.521
 9867DG     SC164158  30.517  33.075  45.517
 9867DG     SC264159  30.341  33.047  45.757
 9867DG     SC364160  30.199  32.964  45.511
 9867DG     SC464161  30.455  33.004  45.388
 9868DA     BB164162  31.078  33.256  45.724
 9868DA     BB264163  30.882  33.183  46.025
 9868DA     BB364164  30.895  32.976  46.075
 9868DA     SC164165  30.646  32.896  45.907
 9868DA     SC264166  30.413  32.816  45.949
 9868DA     SC364167  30.420  32.732  45.707
 9868DA     SC464168  30.670  32.849  45.755
 9869DA     BB164169  30.996  33.087  46.367
 9869DA     BB264170  30.695  32.933  46.509
 9869DA     BB364171  30.723  32.723  46.533
 9869DA     SC164172  30.612  32.652  46.251
 9869DA     SC264173  30.411  32.540  46.155
 9869DA     SC364174  30.554  32.509  45.945
 9869DA     SC464175  30.718  32.641  46.130
 9870DA     BB164176  30.632  32.809  46.832
 9870DA     BB264177  30.339  32.595  46.780
 9870DA     BB364178  30.394  32.389  46.796
 9870DA     SC164179  30.457  32.356  46.493
 9870DA     SC264180  30.359  32.239  46.296
 9870DA     SC364181  30.592  32.265  46.191
 9870DA     SC464182  30.609  32.381  46.446
 9871DG     BB164183  30.181  32.425  47.010
 9871DG     BB264184  30.000  32.198  46.794
 9871DG     BB364185  30.064  32.012  46.822
 9871DG     SC164186  30.283  32.029  46.609
 9871DG     SC264187  30.289  31.877  46.352
 9871DG     SC364188  30.545  32.020  46.397
 9871DG     SC464189  30.428  32.082  46.650
 9872DT     BB164190  29.917  31.895  46.880
 9872DT     BB264191  29.855  31.697  46.585
 9872DT     BB364192  29.956  31.516  46.600
 9872DT     SC164193  30.186  31.631  46.550
 9872DT     SC264194  30.255  31.570  46.355
 9872DT     SC364195  30.433  31.717  46.583
 9873DC     BB164196  29.712  31.426  46.621
 9873DC     BB264197  29.855  31.248  46.342
 9873DC     BB364198  29.972  31.091  46.410
 9873DC     SC164199  30.163  31.255  46.484
 9873DC     SC264200  30.334  31.229  46.356
 9873DC     SC364201  30.332  31.386  46.640
 9874DT     BB164202  29.781  30.935  46.314
 9874DT     BB264203  30.083  30.817  46.157
 9874DT     BB364204  30.182  30.687  46.284
 9874DT     SC164205  30.264  30.884  46.436
 9874DT     SC264206  30.477  30.908  46.413
 9874DT     SC364207  30.295  31.038  46.648
 9875DG     BB164208  30.111  30.476  45.941
 9875DG     BB264209  30.457  30.447  46.041
 9875DG     BB364210  30.474  30.315  46.189
 9875DG     SC164211  30.435  30.523  46.411
 9875DG     SC264212  30.641  30.608  46.610
 9875DG     SC364213  30.375  30.719  46.679
 9875DG     SC464214  30.286  30.556  46.461
 9876DA     BB164215  30.720  30.131  46.015
 9876DA     BB264216  30.960  30.179  46.287
 9876DA     BB364217  30.920  30.042  46.446
 9876DA     SC164218  30.730  30.236  46.597
 9876DA     SC264219  30.730  30.369  46.808
 9876DA     SC364220  30.475  30.373  46.783
 9876DA     SC464221  30.572  30.226  46.564
 9877DA     BB164222  31.236  29.931  46.423
 9877DA     BB264223  31.290  30.041  46.768
 9877DA     BB364224  31.213  29.896  46.905
 9877DA     SC164225  30.931  30.025  46.921
 9877DA     SC264226  30.793  30.149  47.088
 9877DA     SC364227  30.593  30.081  46.944
 9877DA     SC464228  30.819  29.971  46.819
 9878DA     BB164229  31.516  29.879  47.049
 9878DA     BB264230  31.364  30.000  47.360
 9878DA     BB364231  31.271  29.839  47.465
 9878DA     SC164232  30.994  29.878  47.328
 9878DA     SC264233  30.766  29.955  47.393
 9878DA     SC364234  30.686  29.830  47.183
 9878DA     SC464235  30.964  29.793  47.195
 9879DA     BB164236  31.459  29.923  47.726
 9879DA     BB264237  31.149  29.996  47.909
 9879DA     BB364238  31.064  29.816  47.985
 9879DA     SC164239  30.888  29.765  47.733
 9879DA     SC264240  30.646  29.769  47.672
 9879DA     SC364241  30.714  29.622  47.474
 9879DA     SC464242  30.950  29.673  47.616
 9880DT     BB164243  31.052  29.771  48.198
 9880DT     BB264244  30.698  29.836  48.232
 9880DT     BB364245  30.597  29.658  48.263
 9880DT     SC164246  30.623  29.590  48.011
 9880DT     SC264247  30.431  29.597  47.915
 9880DT     SC364248  30.698  29.454  47.797
 9881DT     BB164249  30.550  29.715  48.532
 9881DT     BB264250  30.220  29.662  48.394
 9881DT     BB364251  30.168  29.463  48.410
 9881DT     SC164252  30.328  29.397  48.213
 9881DT     SC264253  30.212  29.338  48.043
 9881DT     SC364254  30.529  29.285  48.083
 9882DA     BB164255  29.858  29.694  48.571
 9882DA     BB264256  29.710  29.454  48.336
 9882DA     BB364257  29.713  29.257  48.420
 9882DA     SC164258  29.991  29.184  48.301
 9882DA     SC264259  30.083  29.032  48.126
 9882DA     SC364260  30.306  29.058  48.249
 9882DA     SC464261  30.121  29.212  48.392
 9883DA     BB164262  29.398  29.287  48.339
 9883DA     BB264263  29.448  28.997  48.120
 9883DA     BB364264  29.464  28.819  48.236
 9883DA     SC164265  29.773  28.835  48.265
 9883DA     SC264266  29.973  28.712  48.182
 9883DA     SC364267  30.096  28.819  48.379
 9883DA     SC464268  29.832  28.910  48.394
 9884DA     BB164269  29.228  28.733  48.025
 9884DA     BB264270  29.450  28.462  47.918
 9884DA     BB364271  29.457  28.309  48.066
 9884DA     SC164272  29.700  28.431  48.217
 9884DA     SC264273  29.940  28.377  48.254
 9884DA     SC364274  29.923  28.535  48.456
 9884DA     SC464275  29.668  28.532  48.338
 9885DA     BB164276  29.376  28.121  47.808
 9885DA     BB264277  29.686  27.936  47.867
 9885DA     BB364278  29.665  27.808  48.036
 9885DA     SC164279  29.767  28.019  48.240
 9885DA     SC264280  29.968  28.055  48.384
 9885DA     SC364281  29.817  28.214  48.518
 9885DA     SC464282  29.657  28.113  48.311
 9886DT     BB164283  29.666  27.599  48.013
 9886DT     BB264284  29.994  27.540  48.151
 9886DT     BB364285  29.978  27.456  48.340
 9886DT     SC164286  29.906  27.686  48.445
 9886DT     SC264287  30.064  27.759  48.572
 9886DT     SC364288  29.760  27.869  48.565
 9887DC     BB164289  30.056  27.203  48.254
 9887DC     BB264290  30.289  27.281  48.519
 9887DC     BB364291  30.214  27.217  48.700
 9887DC     SC164292  30.042  27.414  48.708
 9887DC     SC264293  30.098  27.552  48.864
 9887DC     SC364294  29.811  27.543  48.713
 9888DA     BB164295  30.595  27.042  48.679
 9888DA     BB264296  30.567  27.204  49.007
 9888DA     BB364297  30.446  27.087  49.138
 9888DA     SC164298  30.181  27.229  49.059
 9888DA     SC264299  30.016  27.384  49.164
 9888DA     SC364300  29.854  27.301  48.983
 9888DA     SC464301  30.094  27.164  48.940
 9889DA     BB164302  30.709  27.107  49.334
 9889DA     BB264303  30.495  27.283  49.574
 9889DA     BB364304  30.370  27.144  49.678
 9889DA     SC164305  30.137  27.164  49.473
 9889DA     SC264306  29.905  27.256  49.466
 9889DA     SC364307  29.870  27.098  49.267
 9889DA     SC464308  30.134  27.058  49.352
 9890DT     BB164309  30.399  27.118  49.878
 9890DT     BB264310  30.107  27.301  49.986
 9890DT     BB364311  29.962  27.170  50.052
 9890DT     SC164312  29.903  27.099  49.807
 9890DT     SC264313  29.708  27.174  49.756
 9890DT     SC364314  29.873  26.948  49.592
 9891DT     BB164315  30.011  27.255  50.303
 9891DT     BB264316  29.660  27.318  50.252
 9891DT     BB364317  29.550  27.148  50.298
 9891DT     SC164318  29.625  27.031  50.076
 9891DT     SC264319  29.456  27.014  49.943
 9891DT     SC364320  29.737  26.856  49.913
 9892DT     BB164321  29.466  27.285  50.509
 9892DT     BB264322  29.166  27.191  50.331
 9892DT     BB364323  29.111  26.999  50.382
 9892DT     SC164324  29.304  26.896  50.237
 9892DT     SC264325  29.219  26.796  50.066
 9892DT     SC364326  29.523  26.765  50.173
 9893DA     BB164327  28.778  27.250  50.425
 9893DA     BB264328  28.672  26.953  50.238
 9893DA     BB364329  28.665  26.783  50.368
 9893DA     SC164330  28.959  26.698  50.314
 9893DA     SC264331  29.079  26.513  50.198
 9893DA     SC364332  29.280  26.580  50.342
 9893DA     SC464333  29.072  26.754  50.413
 9894DT     BB164334  28.485  26.701  50.406
 9894DT     BB264335  28.527  26.401  50.209
 9894DT     BB364336  28.566  26.240  50.333
 9894DT     SC164337  28.811  26.321  50.376
 9894DT     SC264338  28.949  26.186  50.281
 9894DT     SC364339  29.025  26.409  50.504
 9895DC     BB164340  28.313  26.133  50.297
 9895DC     BB264341  28.534  25.864  50.205
 9895DC     BB364342  28.582  25.751  50.372
 9895DC     SC164343  28.743  25.937  50.462
 9895DC     SC264344  28.947  25.867  50.448
 9895DC     SC364345  28.844  26.123  50.618
 9896DT     BB164346  28.418  25.532  50.302
 9896DT     BB264347  28.745  25.385  50.345
 9896DT     BB364348  28.770  25.323  50.541
 9896DT     SC164349  28.802  25.571  50.623
 9896DT     SC264350  29.006  25.600  50.684
 9896DT     SC364351  28.758  25.798  50.750
 9897DC     BB164352  28.743  25.047  50.487
 9897DC     BB264353  29.065  25.073  50.649
 9897DC     BB364354  29.043  25.049  50.853
 9897DC     SC164355  28.941  25.289  50.879
 9897DC     SC264356  29.081  25.415  50.983
 9897DC     SC364357  28.768  25.481  50.932
 9898DA     BB164358  29.336  24.771  50.739
 9898DA     BB264359  29.469  24.963  51.022
 9898DA     BB364360  29.379  24.899  51.204
 9898DA     SC164361  29.146  25.105  51.190
 9898DA     SC264362  29.073  25.310  51.311
 9898DA     SC364363  28.842  25.263  51.211
 9898DA     SC464364  29.009  25.058  51.119
 9899DA     BB164365  29.693  24.866  51.286
 9899DA     BB264366  29.632  25.119  51.544
 9899DA     BB364367  29.527  25.033  51.709
 9899DA     SC164368  29.245  25.099  51.595
 9899DA     SC264369  29.056  25.252  51.648
 9899DA     SC364370  28.913  25.092  51.507
 9899DA     SC464371  29.173  24.987  51.505
 9900DC     BB164372  29.627  25.031  51.871
 9900DC     BB264373  29.449  25.299  52.034
 9900DC     BB364374  29.316  25.221  52.173
 9900DC     SC164375  29.151  25.144  51.983
 9900DC     SC264376  28.973  25.264  51.990
 9900DC     SC364377  29.008  24.985  51.829
 9901DG     BB164378  29.569  25.488  52.346
 9901DG     BB264379  29.223  25.566  52.416
 9901DG     BB364380  29.151  25.441  52.553
 9901DG     SC164381  29.056  25.233  52.349
 9901DG     SC264382  28.772  25.161  52.292
 9901DG     SC364383  28.957  24.976  52.155
 9901DG     SC464384  29.157  25.119  52.301
 9902DG     BB164385  29.084  25.719  52.704
 9902DG     BB264386  28.739  25.613  52.685
 9902DG     BB364387  28.703  25.474  52.822
 9902DG     SC164388  28.778  25.240  52.639
 9902DG     SC264389  28.590  25.031  52.536
 9902DG     SC364390  28.871  24.961  52.473
 9902DG     SC464391  28.930  25.191  52.633
 9903DA     BB164392  28.436  25.679  52.901
 9903DA     BB264393  28.207  25.398  52.844
 9903DA     BB364394  28.224  25.255  53.001
 9903DA     SC164395  28.445  25.088  52.859
 9903DA     SC264396  28.466  24.864  52.752
 9903DA     SC364397  28.719  24.894  52.788
 9903DA     SC464398  28.598  25.125  52.892
 9904DA     BB164399  27.898  25.305  53.008
 9904DA     BB264400  27.862  24.946  52.942
 9904DA     BB364401  27.911  24.833  53.117
 9904DA     SC164402  28.212  24.804  53.043
 9904DA     SC264403  28.367  24.623  52.971
 9904DA     SC364404  28.554  24.780  53.051
 9904DA     SC464405  28.313  24.915  53.100
 9905DA     BB164406  27.611  24.698  53.075
 9905DA     BB264407  27.779  24.373  53.043
 9905DA     BB364408  27.839  24.302  53.235
 9905DA     SC164409  28.120  24.435  53.222
 9905DA     SC264410  28.358  24.363  53.200
 9905DA     SC364411  28.416  24.593  53.297
 9905DA     SC464412  28.136  24.582  53.284
 9906DT     BB164413  27.752  24.127  53.333
 9906DT     BB264414  28.031  23.905  53.283
 9906DT     BB364415  28.128  23.871  53.463
 9906DT     SC164416  28.237  24.110  53.458
 9906DT     SC264417  28.449  24.091  53.425
 9906DT     SC364418  28.295  24.358  53.527
 9907DT     BB164419  28.031  23.608  53.501
 9907DT     BB264420  28.389  23.570  53.515
 9907DT     BB364421  28.455  23.588  53.710
 9907DT     SC164422  28.420  23.849  53.705
 9907DT     SC264423  28.612  23.946  53.709
 9907DT     SC364424  28.326  24.087  53.764
 9908DA     BB164425  28.613  23.220  53.586
 9908DA     BB264426  28.888  23.414  53.731
 9908DA     BB364427  28.874  23.414  53.944
 9908DA     SC164428  28.701  23.672  53.957
 9908DA     SC264429  28.727  23.909  54.032
 9908DA     SC364430  28.471  23.913  54.041
 9908DA     SC464431  28.541  23.654  53.958
 9909DA     BB164432  29.182  23.301  53.927
 9909DA     BB264433  29.285  23.607  54.101
 9909DA     BB364434  29.244  23.591  54.310
 9909DA     SC164435  28.959  23.714  54.287
 9909DA     SC264436  28.843  23.925  54.354
 9909DA     SC364437  28.626  23.790  54.327
 9909DA     SC464438  28.835  23.613  54.266
 9910DA     BB164439  29.560  23.668  54.323
 9910DA     BB264440  29.458  23.973  54.499
 9910DA     BB364441  29.407  23.928  54.701
 9910DA     SC164442  29.106  23.878  54.639
 9910DA     SC264443  28.887  23.988  54.684
 9910DA     SC364444  28.784  23.758  54.635
 9910DA     SC464445  29.061  23.727  54.607
 9911DA     BB164446  29.623  24.169  54.731
 9911DA     BB264447  29.353  24.360  54.889
 9911DA     BB364448  29.315  24.285  55.086
 9911DA     SC164449  29.099  24.082  54.992
 9911DA     SC264450  28.852  24.052  55.011
 9911DA     SC364451  28.898  23.806  54.955
 9911DA     SC464452  29.148  23.932  54.957
 9912DC     BB164453  29.354  24.411  55.219
 9912DC     BB264454  29.013  24.494  55.303
 9912DC     BB364455  28.957  24.395  55.476
 9912DC     SC164456  28.936  24.167  55.349
 9912DC     SC264457  28.728  24.110  55.337
 9912DC     SC364458  28.982  23.917  55.278
 9913DT     BB164459  28.963  24.634  55.596
 9913DT     BB264460  28.628  24.511  55.652
 9913DT     BB364461  28.625  24.388  55.819
 9913DT     SC164462  28.742  24.193  55.687
 9913DT     SC264463  28.602  24.033  55.658
 9913DT     SC364464  28.923  24.014  55.618
 9914DC     BB164465  28.491  24.583  55.943
 9914DC     BB264466  28.279  24.293  55.972
 9914DC     BB364467  28.336  24.180  56.135
 9914DC     SC164468  28.547  24.089  56.009
 9914DC     SC264469  28.521  23.880  55.966
 9914DC     SC364470  28.800  24.044  55.950
 9915DG     BB164471  27.944  24.278  56.185
 9915DG     BB264472  27.996  23.923  56.225
 9915DG     BB364473  28.072  23.885  56.405
 9915DG     SC164474  28.363  23.910  56.313
 9915DG     SC264475  28.563  23.688  56.302
 9915DG     SC364476  28.693  23.950  56.252
 9915DG     SC464477  28.434  24.054  56.316
 9916DT     BB164478  27.961  23.764  56.551
 9916DT     BB264479  28.146  23.454  56.547
 9916DT     BB364480  28.266  23.442  56.716
 9916DT     SC164481  28.436  23.616  56.617
 9916DT     SC264482  28.620  23.517  56.568
 9916DT     SC364483  28.577  23.837  56.591
 9917DC     BB164484  28.102  23.252  56.820
 9917DC     BB264485  28.428  23.097  56.821
 9917DC     BB364486  28.529  23.145  56.995
 9917DC     SC164487  28.576  23.389  56.910
 9917DC     SC264488  28.786  23.410  56.869
 9917DC     SC364489  28.572  23.652  56.896
 9918DC     BB164490  28.494  22.891  57.093
 9918DC     BB264491  28.851  22.942  57.108
 9918DC     BB364492  28.902  23.031  57.288
 9918DC     SC164493  28.809  23.264  57.209
 9918DC     SC264494  28.973  23.400  57.180
 9918DC     SC364495  28.660  23.481  57.199
 9919DG     BB164496  29.113  22.681  57.287
 9919DG     BB264497  29.329  22.961  57.362
 9919DG     BB364498  29.310  23.012  57.553
 9919DG     SC164499  29.083  23.211  57.503
 9919DG     SC264500  29.098  23.507  57.538
 9919DG     SC364501  28.819  23.421  57.486
 9919DG     SC464502  28.931  23.158  57.504
 9920DT     BB164503  29.479  22.998  57.726
 9920DT     BB264504  29.566  23.345  57.769
 9920DT     BB364505  29.492  23.415  57.949
 9920DT     SC164506  29.247  23.424  57.853
 9920DT     SC264507  29.186  23.629  57.833
 9920DT     SC364508  28.991  23.370  57.823
 9921DC     BB164509  29.739  23.420  58.101
 9921DC     BB264510  29.616  23.758  58.135
 9921DC     BB364511  29.505  23.775  58.309
 9921DC     SC164512  29.303  23.646  58.201
 9921DC     SC264513  29.140  23.783  58.170
 9921DC     SC364514  29.122  23.459  58.160
 9922DT     BB164515  29.698  23.919  58.465
 9922DT     BB264516  29.408  24.132  58.473
 9922DT     BB364517  29.294  24.090  58.641
 9922DT     SC164518  29.204  23.868  58.534
 9922DT     SC264519  28.995  23.890  58.488
 9922DT     SC364520  29.160  23.611  58.497
 9923DT     BB164521  29.367  24.324  58.773
 9923DT     BB264522  29.007  24.342  58.757
 9923DT     BB364523  28.925  24.255  58.925
 9923DT     SC164524  28.979  24.014  58.837
 9923DT     SC264525  28.796  23.914  58.785
 9923DT     SC364526  29.085  23.773  58.822
 9924DA     BB164527  28.758  24.634  58.876
 9924DA     BB264528  28.483  24.396  58.925
 9924DA     BB364529  28.475  24.333  59.129
 9924DA     SC164530  28.663  24.089  59.087
 9924DA     SC264531  28.646  23.841  59.087
 9924DA     SC364532  28.900  23.843  59.126
 9924DA     SC464533  28.821  24.112  59.113
 9925DT     BB164534  28.316  24.388  59.218
 9925DT     BB264535  28.157  24.064  59.234
 9925DT     BB364536  28.179  23.983  59.423
 9925DT     SC164537  28.432  23.927  59.378
 9925DT     SC264538  28.456  23.713  59.365
 9925DT     SC364539  28.694  23.930  59.401
 9926DT     BB164540  27.918  24.028  59.458
 9926DT     BB264541  27.959  23.677  59.527
 9926DT     BB364542  28.017  23.650  59.724
 9926DT     SC164543  28.261  23.731  59.671
 9926DT     SC264544  28.397  23.565  59.685
 9926DT     SC364545  28.480  23.878  59.677
 9927DT     BB164546  27.768  23.556  59.798
 9927DT     BB264547  27.993  23.297  59.910
 9927DT     BB364548  28.058  23.339  60.102
 9927DT     SC164549  28.219  23.527  60.014
 9927DT     SC264550  28.423  23.463  60.038
 9927DT     SC364551  28.325  23.766  59.977
 9928DA     BB164552  27.897  22.953  60.170
 9928DA     BB264553  28.228  22.956  60.328
 9928DA     BB364554  28.220  23.057  60.516
 9928DA     SC164555  28.287  23.336  60.396
 9928DA     SC264556  28.478  23.498  60.400
 9928DA     SC364557  28.304  23.672  60.328
 9928DA     SC464558  28.165  23.430  60.353
 9929DC     BB164559  28.237  22.973  60.760
 9929DC     BB264560  28.571  23.099  60.817
 9929DC     BB364561  28.567  23.246  60.963
 9929DC     SC164562  28.463  23.420  60.796
 9929DC     SC264563  28.609  23.571  60.750
 9929DC     SC364564  28.291  23.588  60.688
 9930DT     BB164565  28.674  23.109  61.216
 9930DT     BB264566  28.899  23.388  61.173
 9930DT     BB364567  28.842  23.544  61.296
 9930DT     SC164568  28.639  23.603  61.141
 9930DT     SC264569  28.677  23.791  61.043
 9930DT     SC364570  28.391  23.639  61.060
 9931DA     BB164571  29.241  23.485  61.410
 9931DA     BB264572  29.205  23.839  61.320
 9931DA     BB364573  29.119  23.948  61.482
 9931DA     SC164574  28.826  23.906  61.386
 9931DA     SC264575  28.642  24.045  61.290
 9931DA     SC364576  28.487  23.856  61.370
 9931DA     SC464577  28.746  23.780  61.444
 9932DT     BB164578  29.236  24.085  61.560
 9932DT     BB264579  29.076  24.364  61.397
 9932DT     BB364580  28.962  24.470  61.533
 9932DT     SC164581  28.777  24.284  61.534
 9932DT     SC264582  28.600  24.360  61.439
 9932DT     SC364583  28.618  24.093  61.622
 9933DT     BB164584  29.147  24.646  61.484
 9933DT     BB264585  28.837  24.801  61.388
 9933DT     BB364586  28.741  24.877  61.555
 9933DT     SC164587  28.669  24.637  61.632
 9933DT     SC264588  28.456  24.616  61.611
 9933DT     SC364589  28.650  24.419  61.779
 9934DG     BB164590  28.794  25.136  61.244
 9934DG     BB264591  28.452  25.129  61.360
 9934DG     BB364592  28.439  25.220  61.537
 9934DG     SC164593  28.491  24.965  61.699
 9934DG     SC264594  28.295  24.828  61.877
 9934DG     SC364595  28.565  24.711  61.907
 9934DG     SC464596  28.642  24.925  61.734
 9935DA     BB164597  28.178  25.366  61.363
 9935DA     BB264598  27.951  25.269  61.633
 9935DA     BB364599  27.995  25.379  61.810
 9935DA     SC164600  28.196  25.169  61.921
 9935DA     SC264601  28.207  25.005  62.108
 9935DA     SC364602  28.461  25.012  62.072
 9935DA     SC464603  28.352  25.189  61.884
 9936DC     BB164604  27.859  25.504  61.867
 9936DC     BB264605  27.749  25.333  62.166
 9936DC     BB364606  27.834  25.421  62.333
 9936DC     SC164607  28.067  25.313  62.281
 9936DC     SC264608  28.111  25.163  62.429
 9936DC     SC364609  28.323  25.292  62.221
 9937DT     BB164610  27.600  25.557  62.417
 9937DT     BB264611  27.702  25.381  62.715
 9937DT     BB364612  27.828  25.500  62.828
 9937DT     SC164613  28.027  25.461  62.661
 9937DT     SC264614  28.178  25.340  62.756
 9937DT     SC364615  28.216  25.512  62.484
 9938DT     BB164616  27.648  25.602  63.048
 9938DT     BB264617  27.926  25.467  63.234
 9938DT     BB364618  28.059  25.618  63.282
 9938DT     SC164619  28.149  25.627  63.035
 9938DT     SC264620  28.350  25.552  63.030
 9938DT     SC364621  28.203  25.720  62.795
 9939DA     BB164622  27.990  25.506  63.690
 9939DA     BB264623  28.355  25.518  63.650
 9939DA     BB364624  28.425  25.718  63.672
 9939DA     SC164625  28.402  25.785  63.369
 9939DA     SC264626  28.555  25.829  63.177
 9939DA     SC364627  28.352  25.941  63.067
 9939DA     SC464628  28.264  25.851  63.318
 9940DA     BB164629  28.639  25.651  63.933
 9940DA     BB264630  28.920  25.733  63.711
 9940DA     BB364631  28.964  25.942  63.722
 9940DA     SC164632  28.772  26.019  63.489
 9940DA     SC264633  28.791  26.101  63.254
 9940DA     SC364634  28.548  26.179  63.284
 9940DA     SC464635  28.622  26.061  63.527
 9941DG     BB164636  29.255  25.881  63.835
 9941DG     BB264637  29.359  26.006  63.512
 9941DG     BB364638  29.394  26.202  63.523
 9941DG     SC164639  29.106  26.282  63.453
 9941DG     SC264640  29.019  26.421  63.204
 9941DG     SC364641  28.797  26.404  63.399
 9941DG     SC464642  28.999  26.297  63.571
 9942DG     BB164643  29.680  26.110  63.415
 9942DG     BB264644  29.592  26.293  63.116
 9942DG     BB364645  29.626  26.487  63.143
 9942DG     SC164646  29.346  26.546  63.253
 9942DG     SC264647  29.137  26.712  63.119
 9942DG     SC364648  29.056  26.642  63.395
 9942DG     SC464649  29.320  26.531  63.410
 9943DT     BB164650  29.748  26.542  63.009
 9943DT     BB264651  29.533  26.729  62.786
 9943DT     BB364652  29.540  26.930  62.834
 9943DT     SC164653  29.391  26.892  63.047
 9943DT     SC264654  29.197  26.981  63.015
 9943DT     SC364655  29.317  26.883  63.300
 9944DA     BB164656  29.575  26.835  62.424
 9944DA     BB264657  29.329  27.103  62.464
 9944DA     BB364658  29.425  27.282  62.533
 9944DA     SC164659  29.385  27.216  62.834
 9944DA     SC264660  29.250  27.302  63.026
 9944DA     SC364661  29.423  27.184  63.174
 9944DA     SC464662  29.504  27.138  62.909
 9945DA     BB164663  29.242  27.361  62.273
 9945DA     BB264664  29.075  27.598  62.498
 9945DA     BB364665  29.210  27.754  62.554
 9945DA     SC164666  29.315  27.606  62.807
 9945DA     SC264667  29.299  27.630  63.055
 9945DA     SC364668  29.509  27.482  63.062
 9945DA     SC464669  29.446  27.514  62.790
 9946DC     BB164670  29.157  27.921  62.490
 9946DC     BB264671  29.056  28.064  62.805
 9946DC     BB364672  29.207  28.185  62.880
 9946DC     SC164673  29.350  27.976  62.950
 9946DC     SC264674  29.356  27.962  63.164
 9946DC     SC364675  29.549  27.803  62.958
 9947DA     BB164676  28.853  28.410  62.883
 9947DA     BB264677  29.015  28.449  63.210
 9947DA     BB364678  29.188  28.573  63.192
 9947DA     SC164679  29.381  28.335  63.138
 9947DA     SC264680  29.567  28.217  63.257
 9947DA     SC364681  29.635  28.133  63.024
 9947DA     SC464682  29.409  28.294  62.985
 9948DA     BB164683  29.037  28.739  63.432
 9948DA     BB264684  29.331  28.672  63.640
 9948DA     BB364685  29.494  28.797  63.581
 9948DA     SC164686  29.608  28.593  63.375
 9948DA     SC264687  29.808  28.446  63.352
 9948DA     SC364688  29.752  28.444  63.102
 9948DA     SC464689  29.558  28.605  63.223
 9949DA     BB164690  29.488  28.869  63.901
 9949DA     BB264691  29.831  28.742  63.917
 9949DA     BB364692  29.966  28.882  63.830
 9949DA     SC164693  29.947  28.759  63.544
 9949DA     SC264694  30.094  28.631  63.388
 9949DA     SC364695  29.934  28.711  63.205
 9949DA     SC464696  29.837  28.821  63.445
 9950DT     BB164697  30.097  28.967  63.951
 9950DT     BB264698  30.390  28.789  63.837
 9950DT     BB364699  30.503  28.912  63.714
 9950DT     SC164700  30.333  28.884  63.516
 9950DT     SC264701  30.423  28.767  63.360
 9950DT     SC364702  30.154  28.945  63.332
 9951DA     BB164703  30.765  28.763  64.006
 9951DA     BB264704  30.927  28.722  63.680
 9951DA     BB364705  30.993  28.911  63.606
 9951DA     SC164706  30.729  28.971  63.453
 9951DA     SC264707  30.653  28.987  63.216
 9951DA     SC364708  30.456  29.122  63.311
 9951DA     SC464709  30.616  29.054  63.531
 9952DT     BB164710  31.197  28.954  63.588
 9952DT     BB264711  31.215  28.936  63.228
 9952DT     BB364712  31.230  29.126  63.149
 9952DT     SC164713  30.977  29.175  63.195
 9952DT     SC264714  30.870  29.185  63.009
 9952DT     SC364715  30.760  29.286  63.296
 9953DA     BB164716  31.559  28.924  62.982
 9953DA     BB264717  31.384  29.093  62.707
 9953DA     BB364718  31.426  29.302  62.710
 9953DA     SC164719  31.185  29.374  62.892
 9953DA     SC264720  30.966  29.493  62.870
 9953DA     SC364721  30.977  29.515  63.126
 9953DA     SC464722  31.210  29.379  63.050
 9954DA     BB164723  31.520  29.252  62.398
 9954DA     BB264724  31.252  29.482  62.298
 9954DA     BB364725  31.312  29.684  62.331
 9954DA     SC164726  31.199  29.697  62.620
 9954DA     SC264727  31.012  29.810  62.740
 9954DA     SC364728  31.148  29.763  62.953
 9954DA     SC464729  31.299  29.660  62.741
 9955DA     BB164730  31.224  29.700  62.017
 9955DA     BB264731  30.971  29.943  62.121
 9955DA     BB364732  31.061  30.131  62.164
 9955DA     SC164733  31.109  30.069  62.465
 9955DA     SC264734  31.020  30.145  62.685
 9955DA     SC364735  31.236  30.048  62.783
 9955DA     SC464736  31.250  30.005  62.506
 9956DC     BB164737  31.007  30.268  62.046
 9956DC     BB264738  30.794  30.444  62.278
 9956DC     BB364739  30.892  30.611  62.352
 9956DC     SC164740  31.043  30.462  62.507
 9956DC     SC264741  30.988  30.494  62.712
 9956DC     SC364742  31.258  30.348  62.608
 9957DG     BB164743  30.537  30.718  62.184
 9957DG     BB264744  30.573  30.850  62.519
 9957DG     BB364745  30.699  31.003  62.518
 9957DG     SC164746  30.947  30.830  62.568
 9957DG     SC264747  31.116  30.833  62.814
 9957DG     SC364748  31.241  30.669  62.602
 9957DG     SC464749  31.025  30.768  62.442
 9958DC     BB164750  30.628  31.196  62.575
 9958DC     BB264751  30.783  31.244  62.898
 9958DC     BB364752  30.949  31.365  62.879
 9958DC     SC164753  31.089  31.171  62.772
 9958DC     SC264754  31.241  31.108  62.910
 9958DC     SC364755  31.228  31.033  62.595
 9959DT     BB164756  30.822  31.582  62.994
 9959DT     BB264757  31.122  31.545  63.191
 9959DT     BB364758  31.277  31.651  63.105
 9959DT     SC164759  31.305  31.473  62.915
 9959DT     SC264760  31.490  31.367  62.942
 9959DT     SC364761  31.308  31.365  62.674
 9960DA     BB164762  31.281  31.822  63.493
 9960DA     BB264763  31.628  31.735  63.413
 9960DA     BB364764  31.713  31.880  63.281
 9960DA     SC164765  31.628  31.730  63.022
 9960DA     SC264766  31.738  31.604  62.837
 9960DA     SC364767  31.523  31.649  62.705
 9960DA     SC464768  31.487  31.769  62.956
 9961DA     BB164769  31.972  31.955  63.492
 9961DA     BB264770  32.204  31.827  63.238
 9961DA     BB364771  32.251  31.980  63.097
 9961DA     SC164772  32.018  31.907  62.904
 9961DA     SC264773  31.991  31.807  62.677
 9961DA     SC364774  31.759  31.917  62.678
 9961DA     SC464775  31.879  31.984  62.923
 9962DG     BB164776  32.563  31.976  63.175
 9962DG     BB264777  32.602  31.844  62.840
 9962DG     BB364778  32.629  31.992  62.711
 9962DG     SC164779  32.330  32.028  62.654
 9962DG     SC264780  32.193  31.972  62.395
 9962DG     SC364781  32.010  32.109  62.583
 9962DG     SC464782  32.245  32.127  62.746
 9963DA     BB164783  32.918  31.836  62.598
 9963DA     BB264784  32.767  31.795  62.267
 9963DA     BB364785  32.782  31.976  62.155
 9963DA     SC164786  32.509  32.088  62.252
 9963DA     SC264787  32.283  32.133  62.156
 9963DA     SC364788  32.251  32.290  62.357
 9963DA     SC464789  32.509  32.181  62.383
 9964DA     BB164790  32.915  31.762  61.951
 9964DA     BB264791  32.637  31.840  61.725
 9964DA     BB364792  32.667  32.030  61.633
 9964DA     SC164793  32.516  32.188  61.855
 9964DA     SC264794  32.302  32.314  61.878
 9964DA     SC364795  32.413  32.425  62.081
 9964DA     SC464796  32.603  32.246  61.977
 9965DG     BB164797  32.649  31.839  61.396
 9965DG     BB264798  32.347  32.029  61.334
 9965DG     BB364799  32.392  32.203  61.251
 9965DG     SC164800  32.421  32.351  61.518
 9965DG     SC264801  32.243  32.569  61.618
 9965DG     SC364802  32.481  32.538  61.792
 9965DG     SC464803  32.564  32.351  61.591
 9966DA     BB164804  32.145  32.084  61.049
 9966DA     BB264805  31.950  32.385  61.123
 9966DA     BB364806  32.040  32.556  61.031
 9966DA     SC164807  32.218  32.625  61.277
 9966DA     SC264808  32.231  32.802  61.452
 9966DA     SC364809  32.473  32.725  61.484
 9966DA     SC464810  32.366  32.563  61.281
 9967DA     BB164811  31.721  32.545  60.962
 9967DA     BB264812  31.707  32.876  61.119
 9967DA     BB364813  31.816  33.018  61.003
 9967DA     SC164814  32.085  32.971  61.153
 9967DA     SC264815  32.232  33.096  61.311
 9967DA     SC364816  32.416  32.933  61.235
 9967DA     SC464817  32.185  32.862  61.092
 9968DC     BB164818  31.698  33.129  60.957
 9968DC     BB264819  31.806  33.405  61.162
 9968DC     BB364820  31.940  33.523  61.057
 9968DC     SC164821  32.131  33.345  61.085
 9968DC     SC264822  32.281  33.423  61.218
 9968DC     SC364823  32.314  33.166  61.023
 9969DT     BB164824  31.741  33.689  61.066
 9969DT     BB264825  32.023  33.868  61.205
 9969DT     BB364826  32.145  33.936  61.053
 9969DT     SC164827  32.239  33.696  61.009
 9969DT     SC264828  32.445  33.687  61.070
 9969DT     SC364829  32.293  33.469  60.885
 9970DA     BB164830  32.064  34.262  61.308
 9970DA     BB264831  32.422  34.265  61.231
 9970DA     BB364832  32.454  34.321  61.027
 9970DA     SC164833  32.445  34.029  60.919
 9970DA     SC264834  32.604  33.864  60.822
 9970DA     SC364835  32.395  33.748  60.730
 9970DA     SC464836  32.303  33.973  60.870
 9971DA     BB164837  32.657  34.565  61.139
 9971DA     BB264838  32.926  34.417  60.939
 9971DA     BB364839  32.902  34.468  60.733
 9971DA     SC164840  32.731  34.217  60.666
 9971DA     SC264841  32.756  34.006  60.536
 9971DA     SC364842  32.500  33.999  60.536
 9971DA     SC464843  32.571  34.231  60.676
 9972DA     BB164844  33.213  34.610  60.714
 9972DA     BB264845  33.301  34.360  60.461
 9972DA     BB364846  33.229  34.421  60.269
 9972DA     SC164847  32.956  34.275  60.299
 9972DA     SC264848  32.840  34.078  60.200
 9972DA     SC364849  32.624  34.188  60.286
 9972DA     SC464850  32.833  34.360  60.359
 9973DG     BB164851  33.524  34.450  60.125
 9973DG     BB264852  33.411  34.173  59.922
 9973DG     BB364853  33.322  34.241  59.758
 9973DG     SC164854  33.043  34.252  59.884
 9973DG     SC264855  32.809  34.083  59.809
 9973DG     SC364856  32.728  34.297  59.996
 9973DG     SC464857  32.998  34.386  59.960
 9974DA     BB164858  33.530  34.054  59.541
 9974DA     BB264859  33.240  33.863  59.422
 9974DA     BB364860  33.138  33.971  59.269
 9974DA     SC164861  32.946  34.116  59.466
 9974DA     SC264862  32.703  34.112  59.524
 9974DA     SC364863  32.744  34.345  59.624
 9974DA     SC464864  32.991  34.260  59.521
 9975DC     BB164865  33.133  33.897  59.074
 9975DC     BB264866  32.794  33.775  59.090
 9975DC     BB364867  32.670  33.896  58.977
 9975DC     SC164868  32.677  34.086  59.157
 9975DC     SC264869  32.484  34.103  59.251
 9975DC     SC364870  32.723  34.321  59.269
 9976DA     BB164871  32.615  33.491  58.885
 9976DA     BB264872  32.287  33.641  58.953
 9976DA     BB364873  32.232  33.772  58.794
 9976DA     SC164874  32.360  34.023  58.924
 9976DA     SC264875  32.283  34.236  59.029
 9976DA     SC364876  32.520  34.322  58.981
 9976DA     SC464877  32.512  34.058  58.884
 9977DA     BB164878  31.982  33.569  58.843
 9977DA     BB264879  31.786  33.871  58.914
 9977DA     BB364880  31.758  33.985  58.736
 9977DA     SC164881  32.015  34.156  58.776
 9977DA     SC264882  32.072  34.392  58.831
 9977DA     SC364883  32.301  34.339  58.728
 9977DA     SC464884  32.150  34.104  58.707
 9978DC     BB164885  31.585  33.989  58.702
 9978DC     BB264886  31.528  34.334  58.789
 9978DC     BB364887  31.537  34.452  58.619
 9978DC     SC164888  31.798  34.433  58.610
 9978DC     SC264889  31.886  34.623  58.658
 9978DC     SC364890  32.040  34.372  58.523
 9979DT     BB164891  31.274  34.481  58.646
 9979DT     BB264892  31.404  34.818  58.640
 9979DT     BB364893  31.433  34.879  58.444
 9979DT     SC164894  31.647  34.729  58.420
 9979DT     SC264895  31.821  34.855  58.407
 9979DT     SC364896  31.808  34.539  58.333
 9980DA     BB164897  31.201  35.179  58.627
 9980DA     BB264898  31.475  35.343  58.447
 9980DA     BB364899  31.441  35.335  58.236
 9980DA     SC164900  31.592  35.066  58.197
 9980DA     SC264901  31.804  34.987  58.091
 9980DA     SC364902  31.693  34.756  58.091
 9980DA     SC464903  31.506  34.931  58.204
 9981DT     BB164904  31.398  35.511  58.116
 9981DT     BB264905  31.719  35.531  57.953
 9981DT     BB364906  31.701  35.474  57.755
 9981DT     SC164907  31.681  35.221  57.820
 9981DT     SC264908  31.858  35.116  57.758
 9981DT     SC364909  31.578  34.980  57.849
 9982DG     BB164910  31.844  35.857  57.733
 9982DG     BB264911  32.051  35.631  57.541
 9982DG     BB364912  31.967  35.595  57.365
 9982DG     SC164913  31.806  35.354  57.463
 9982DG     SC264914  31.847  35.070  57.378
 9982DG     SC364915  31.601  35.098  57.540
 9982DG     SC464916  31.660  35.377  57.524
 9983DT     BB164917  32.063  35.653  57.163
 9983DT     BB264918  32.178  35.332  57.047
 9983DT     BB364919  32.057  35.264  56.894
 9983DT     SC164920  31.865  35.204  57.062
 9983DT     SC264921  31.844  34.990  57.074
 9983DT     SC364922  31.630  35.208  57.183
 9984DA     BB164923  32.450  35.243  56.750
 9984DA     BB264924  32.290  34.920  56.686
 9984DA     BB364925  32.152  34.936  56.524
 9984DA     SC164926  31.910  35.006  56.707
 9984DA     SC264927  31.698  34.898  56.782
 9984DA     SC364928  31.620  35.136  56.838
 9984DA     SC464929  31.879  35.161  56.734
 9985DT     BB164930  32.189  34.837  56.346
 9985DT     BB264931  31.943  34.576  56.393
 9985DT     BB364932  31.781  34.610  56.269
 9985DT     SC164933  31.694  34.805  56.421
 9985DT     SC264934  31.513  34.743  56.520
 9985DT     SC364935  31.624  35.047  56.499
 9986DT     BB164936  31.852  34.402  56.103
 9986DT     BB264937  31.517  34.321  56.210
 9986DT     BB364938  31.379  34.407  56.083
 9986DT     SC164939  31.422  34.645  56.185
 9986DT     SC264940  31.248  34.707  56.296
 9986DT     SC364941  31.493  34.898  56.204
 9987DA     BB164942  31.280  34.001  56.102
 9987DA     BB264943  30.975  34.194  56.167
 9987DA     BB364944  30.901  34.279  55.986
 9987DA     SC164945  31.061  34.544  56.016
 9987DA     SC264946  31.013  34.784  56.062
 9987DA     SC364947  31.243  34.829  55.958
 9987DA     SC464948  31.206  34.551  55.947
 9988DC     BB164949  30.721  34.214  55.914
 9988DC     BB264950  30.534  34.506  56.014
 9988DC     BB364951  30.489  34.621  55.848
 9988DC     SC164952  30.736  34.709  55.832
 9988DC     SC264953  30.741  34.917  55.885
 9988DC     SC364954  30.978  34.752  55.738
 9989DT     BB164955  30.236  34.544  55.882
 9989DT     BB264956  30.231  34.904  55.908
 9989DT     BB364957  30.217  34.988  55.719
 9989DT     SC164958  30.469  34.933  55.668
 9989DT     SC264959  30.582  35.116  55.661
 9989DT     SC364960  30.681  34.827  55.554
 9990DA     BB164961  29.949  35.145  56.001
 9990DA     BB264962  30.122  35.422  55.834
 9990DA     BB364963  30.061  35.435  55.630
 9990DA     SC164964  30.286  35.247  55.526
 9990DA     SC264965  30.494  35.266  55.389
 9990DA     SC364966  30.469  35.013  55.353
 9990DA     SC464967  30.252  35.090  55.514
 9991DT     BB164968  29.994  35.586  55.628
 9991DT     BB264969  30.252  35.749  55.437
 9991DT     BB364970  30.209  35.738  55.235
 9991DT     SC164971  30.276  35.484  55.227
 9991DT     SC264972  30.457  35.462  55.113
 9991DT     SC364973  30.256  35.223  55.197
 9992DT     BB164974  30.191  35.987  55.288
 9992DT     BB264975  30.432  35.957  55.022
 9992DT     BB364976  30.335  35.916  54.843
 9992DT     SC164977  30.291  35.667  54.916
 9992DT     SC264978  30.412  35.536  54.796
 9992DT     SC364979  30.162  35.448  54.982
 9993DG     BB164980  30.567  36.250  54.804
 9993DG     BB264981  30.627  36.013  54.538
 9993DG     BB364982  30.473  36.013  54.411
 9993DG     SC164983  30.317  35.797  54.560
 9993DG     SC264984  30.258  35.522  54.459
 9993DG     SC364985  30.109  35.576  54.709
 9993DG     SC464986  30.217  35.840  54.677
 9994DA     BB164987  30.701  36.063  54.149
 9994DA     BB264988  30.585  35.755  53.988
 9994DA     BB364989  30.395  35.787  53.894
 9994DA     SC164990  30.230  35.704  54.145
 9994DA     SC264991  30.082  35.516  54.214
 9994DA     SC364992  29.993  35.678  54.392
 9994DA     SC464993  30.187  35.820  54.247
 9995DA     BB164994  30.540  35.676  53.616
 9995DA     BB264995  30.296  35.401  53.619
 9995DA     BB364996  30.107  35.469  53.547
 9995DA     SC164997  30.002  35.550  53.828
 9995DA     SC264998  29.830  35.471  53.991
 9995DA     SC364999  29.846  35.706  54.092
 9995DA     SC465000  30.025  35.702  53.876
 9996DT     BB165001  30.026  35.399  53.365
 9996DT     BB265002  29.781  35.180  53.514
 9996DT     BB365003  29.591  35.260  53.491
 9996DT     SC165004  29.636  35.440  53.677
 9996DT     SC265005  29.516  35.395  53.850
 9996DT     SC365006  29.670  35.675  53.793
 9997DA     BB165007  29.590  34.864  53.358
 9997DA     BB265008  29.312  34.907  53.594
 9997DA     BB365009  29.157  35.023  53.505
 9997DA     SC165010  29.269  35.295  53.605
 9997DA     SC265011  29.206  35.471  53.771
 9997DA     SC365012  29.361  35.624  53.636
 9997DA     SC465013  29.368  35.375  53.508
 9998DC     BB165014  29.012  34.921  53.494
 9998DC     BB265015  28.828  35.077  53.762
 9998DC     BB365016  28.697  35.218  53.685
 9998DC     SC165017  28.893  35.386  53.638
 9998DC     SC265018  28.878  35.553  53.772
 9998DC     SC365019  29.061  35.540  53.505
 9999DA     BB165020  28.531  34.957  53.974
 9999DA     BB265021  28.438  35.301  54.056
 9999DA     BB365022  28.308  35.381  53.907
 9999DA     SC165023  28.538  35.497  53.733
 9999DA     SC265024  28.628  35.722  53.671
 9999DA     SC365025  28.738  35.601  53.473
 9999DA     SC465026  28.597  35.404  53.616
10000DA     BB165027  28.165  35.439  54.198
10000DA     BB265028  28.168  35.791  54.098
10000DA     BB365029  28.037  35.822  53.932
10000DA     SC165030  28.257  35.772  53.718
10000DA     SC265031  28.384  35.905  53.549
10000DA     SC365032  28.431  35.679  53.437
10000DA     SC465033  28.274  35.622  53.662
10001DT     BB165034  27.882  35.931  53.967
10001DT     BB265035  27.977  36.221  53.774
10001DT     BB365036  27.882  36.218  53.590
10001DT     SC165037  28.043  36.030  53.502
10001DT     SC265038  28.173  36.112  53.351
10001DT     SC365039  28.125  35.797  53.410
10002DT     BB165040  27.685  36.416  53.647
10002DT     BB265041  27.834  36.536  53.341
10002DT     BB365042  27.730  36.461  53.178
10002DT     SC165043  27.835  36.223  53.210
10002DT     SC265044  27.971  36.184  53.047
10002DT     SC365045  27.855  35.964  53.255
10003DA     BB165046  27.692  36.874  53.088
10003DA     BB265047  27.802  36.711  52.779
10003DA     BB365048  27.637  36.616  52.682
10003DA     SC165049  27.677  36.344  52.826
10003DA     SC265050  27.750  36.112  52.767
10003DA     SC365051  27.630  36.041  52.982
10003DA     SC465052  27.596  36.319  52.963
10004DA     BB165053  27.688  36.791  52.395
10004DA     BB265054  27.755  36.473  52.224
10004DA     BB365055  27.572  36.382  52.164
10004DA     SC165056  27.538  36.219  52.428
10004DA     SC265057  27.549  35.981  52.500
10004DA     SC365058  27.413  36.058  52.704
10004DA     SC465059  27.452  36.286  52.546
10005DT     BB165060  27.492  36.351  51.944
10005DT     BB265061  27.564  35.997  51.928
10005DT     BB365062  27.388  35.890  51.920
10005DT     SC165063  27.341  35.932  52.175
10005DT     SC265064  27.363  35.747  52.283
10005DT     SC365065  27.223  36.018  52.395
10006DA     BB165066  27.595  35.750  51.582
10006DA     BB265067  27.486  35.455  51.771
10006DA     BB365068  27.279  35.418  51.737
10006DA     SC165069  27.183  35.591  51.976
10006DA     SC265070  27.077  35.556  52.199
10006DA     SC365071  27.008  35.803  52.183
10006DA     SC465072  27.148  35.746  51.947
10007DC     BB165073  27.206  35.241  51.629
10007DC     BB265074  27.092  35.064  51.923
10007DC     BB365075  26.885  35.058  51.926
10007DC     SC165076  26.870  35.310  51.995
10007DC     SC265077  26.799  35.324  52.198
10007DC     SC365078  26.815  35.568  51.985
10008DT     BB165079  26.877  34.788  51.861
10008DT     BB265080  26.702  34.810  52.176
10008DT     BB365081  26.500  34.843  52.142
10008DT     SC165082  26.543  35.093  52.077
10008DT     SC265083  26.463  35.221  52.230
10008DT     SC365084  26.554  35.314  51.933
10009DG     BB165085  26.532  34.500  52.360
10009DG     BB265086  26.313  34.739  52.520
10009DG     BB365087  26.133  34.736  52.434
10009DG     SC165088  26.202  34.949  52.225
10009DG     SC265089  26.084  35.223  52.209
10009DG     SC365090  26.249  35.165  51.971
10009DG     SC465091  26.267  34.904  52.086
10010DT     BB165092  25.967  34.682  52.555
10010DT     BB265093  25.814  35.005  52.607
10010DT     BB365094  25.648  35.024  52.486
10010DT     SC165095  25.797  35.060  52.273
10010DT     SC265096  25.779  35.264  52.206
10010DT     SC365097  25.906  35.019  52.036
10011DA     BB165098  25.573  35.128  52.884
10011DA     BB265099  25.448  35.397  52.668
10011DA     BB365100  25.275  35.331  52.561
10011DA     SC165101  25.436  35.225  52.317
10011DA     SC265102  25.470  35.287  52.077
10011DA     SC365103  25.548  35.045  52.047
10011DA     SC465104  25.479  35.071  52.318
10012DA     BB165105  25.223  35.620  52.704
10012DA     BB265106  25.150  35.739  52.365
10012DA     BB365107  24.974  35.646  52.290
10012DA     SC165108  25.126  35.407  52.160
10012DA     SC265109  25.180  35.325  51.931
10012DA     SC365110  25.220  35.098  52.044
10012DA     SC465111  25.145  35.275  52.249
10013DA     BB165112  24.946  35.970  52.244
10013DA     BB265113  24.899  35.887  51.890
10013DA     BB365114  24.716  35.782  51.862
10013DA     SC165115  24.843  35.501  51.898
10013DA     SC265116  24.895  35.302  51.757
10013DA     SC365117  24.905  35.172  51.978
10013DA     SC465118  24.844  35.438  52.046
10014DT     BB165119  24.595  35.879  51.761
10014DT     BB265120  24.602  35.677  51.463
10014DT     BB365121  24.442  35.545  51.462
10014DT     SC165122  24.557  35.393  51.643
10014DT     SC265123  24.615  35.207  51.553
10014DT     SC365124  24.599  35.267  51.871
10015DC     BB165125  24.312  35.691  51.270
10015DC     BB265126  24.317  35.356  51.135
10015DC     BB365127  24.153  35.250  51.204
10015DC     SC165128  24.260  35.223  51.442
10015DC     SC265129  24.314  35.017  51.473
10015DC     SC365130  24.294  35.245  51.702
10016DA     BB165131  24.100  35.203  50.787
10016DA     BB265132  24.056  34.871  50.935
10016DA     BB365133  23.863  34.854  51.025
10016DA     SC165134  23.958  34.953  51.304
10016DA     SC265135  23.992  34.858  51.532
10016DA     SC365136  23.980  35.101  51.613
10016DA     SC465137  23.946  35.111  51.335
10017DG     BB165138  23.748  34.615  50.829
10017DG     BB265139  23.742  34.417  51.132
10017DG     BB365140  23.564  34.433  51.220
10017DG     SC165141  23.641  34.677  51.389
10017DG     SC265142  23.666  34.683  51.686
10017DG     SC365143  23.685  34.956  51.573
10017DG     SC465144  23.621  34.823  51.327
10018DG     BB165145  23.458  34.102  51.211
10018DG     BB265146  23.474  34.106  51.573
10018DG     BB365147  23.296  34.154  51.648
10018DG     SC165148  23.350  34.455  51.650
10018DG     SC265149  23.378  34.627  51.892
10018DG     SC365150  23.369  34.792  51.646
10018DG     SC465151  23.315  34.541  51.519
10019DT     BB165152  23.141  34.013  51.791
10019DT     BB265153  23.211  34.161  52.113
10019DT     BB365154  23.046  34.264  52.181
10019DT     SC165155  23.088  34.460  52.012
10019DT     SC265156  23.150  34.636  52.120
10019DT     SC365157  23.051  34.628  51.811
10020DA     BB165158  23.164  34.003  52.483
10020DA     BB265159  23.137  34.338  52.629
10020DA     BB365160  22.932  34.391  52.656
10020DA     SC165161  22.904  34.523  52.376
10020DA     SC265162  22.875  34.753  52.282
10020DA     SC365163  22.789  34.634  52.072
10020DA     SC465164  22.852  34.431  52.255
10021DA     BB165165  23.074  34.441  52.942
10021DA     BB265166  22.979  34.792  52.899
10021DA     BB365167  22.769  34.817  52.926
10021DA     SC165168  22.702  34.774  52.625
10021DA     SC265169  22.619  34.911  52.433
10021DA     SC365170  22.553  34.687  52.328
10021DA     SC465171  22.667  34.625  52.577
10022DA     BB165172  22.924  35.034  53.110
10022DA     BB265173  22.739  35.287  52.920
10022DA     BB365174  22.531  35.278  52.967
10022DA     SC165175  22.463  35.075  52.741
10022DA     SC265176  22.340  35.075  52.524
10022DA     SC365177  22.330  34.820  52.554
10022DA     SC465178  22.467  34.919  52.778
10023DA     BB165179  22.621  35.590  52.997
10023DA     BB265180  22.360  35.664  52.751
10023DA     BB365181  22.167  35.630  52.835
10023DA     SC165182  22.152  35.333  52.745
10023DA     SC265183  22.024  35.196  52.580
10023DA     SC365184  22.093  34.995  52.724
10023DA     SC465185  22.204  35.221  52.848
10024DG     BB165186  22.137  35.929  52.761
10024DG     BB265187  21.869  35.805  52.552
10024DG     BB365188  21.708  35.769  52.663
10024DG     SC165189  21.785  35.479  52.725
10024DG     SC265190  21.641  35.235  52.630
10024DG     SC365191  21.849  35.164  52.828
10024DG     SC465192  21.877  35.448  52.852
10025DC     BB165193  21.502  35.883  52.649
10025DC     BB265194  21.287  35.634  52.499
10025DC     BB365195  21.159  35.557  52.642
10025DC     SC165196  21.351  35.415  52.750
10025DC     SC265197  21.317  35.207  52.712
10025DC     SC365198  21.525  35.328  52.928
10026DC     BB165199  20.907  35.698  52.575
10026DC     BB265200  20.804  35.352  52.575
10026DC     BB365201  20.725  35.302  52.760
10026DC     SC165202  20.964  35.296  52.869
10026DC     SC265203  21.015  35.093  52.918
10026DC     SC365204  21.167  35.359  53.025
10027DC     BB165205  20.424  35.302  52.716
10027DC     BB265206  20.483  34.973  52.851
10027DC     BB365207  20.444  34.972  53.054
10027DC     SC165208  20.666  35.101  53.105
10027DC     SC265209  20.804  34.970  53.206
10027DC     SC365210  20.829  35.293  53.186
10028DA     BB165211  20.176  34.664  52.942
10028DA     BB265212  20.384  34.528  53.212
10028DA     BB365213  20.308  34.589  53.402
10028DA     SC165214  20.481  34.848  53.415
10028DA     SC265215  20.674  34.934  53.546
10028DA     SC365216  20.597  35.166  53.470
10028DA     SC465217  20.416  34.984  53.358
10029DA     BB165218  20.298  34.270  53.470
10029DA     BB265219  20.557  34.334  53.721
10029DA     BB365220  20.469  34.404  53.902
10029DA     SC165221  20.489  34.704  53.823
10029DA     SC265222  20.619  34.906  53.893
10029DA     SC365223  20.432  35.040  53.781
10029DA     SC465224  20.362  34.770  53.749
10030DA     BB165225  20.661  34.159  53.968
10030DA     BB265226  20.857  34.401  54.161
10030DA     BB365227  20.753  34.455  54.340
10030DA     SC165228  20.606  34.696  54.210
10030DA     SC265229  20.611  34.945  54.224
10030DA     SC365230  20.376  34.936  54.121
10030DA     SC465231  20.460  34.669  54.147
10031DT     BB165232  20.871  34.405  54.425
10031DT     BB265233  20.988  34.730  54.531
10031DT     BB365234  20.880  34.793  54.696
10031DT     SC165235  20.671  34.848  54.549
10031DT     SC265236  20.643  35.061  54.541
10031DT     SC365237  20.425  34.837  54.452
10032DG     BB165238  21.296  34.813  54.673
10032DG     BB265239  21.143  35.120  54.786
10032DG     BB365240  21.056  35.092  54.962
10032DG     SC165241  20.786  35.010  54.844
10032DG     SC265242  20.531  35.164  54.865
10032DG     SC365243  20.484  34.897  54.748
10032DG     SC465244  20.760  34.856  54.809
10033DT     BB165245  21.136  35.214  55.076
10033DT     BB265246  20.870  35.444  55.156
10033DT     BB365247  20.763  35.373  55.319
10033DT     SC165248  20.645  35.191  55.173
10033DT     SC265249  20.437  35.240  55.151
10033DT     SC365250  20.572  34.954  55.083
10034DA     BB165251  20.868  35.773  55.399
10034DA     BB265252  20.516  35.727  55.494
10034DA     BB365253  20.502  35.607  55.670
10034DA     SC165254  20.483  35.338  55.515
10034DA     SC265255  20.312  35.163  55.470
10034DA     SC365256  20.511  35.011  55.415
10034DA     SC465257  20.620  35.259  55.486
10035DA     BB165258  20.325  35.857  55.802
10035DA     BB265259  20.048  35.620  55.848
10035DA     BB365260  20.085  35.496  56.017
10035DA     SC165261  20.231  35.275  55.855
10035DA     SC265262  20.189  35.040  55.783
10035DA     SC365263  20.443  35.025  55.751
10035DA     SC465264  20.391  35.285  55.843
10036DA     BB165265  19.789  35.596  56.134
10036DA     BB265266  19.681  35.245  56.127
10036DA     BB365267  19.757  35.140  56.296
10036DA     SC165268  20.019  35.050  56.153
10036DA     SC265269  20.119  34.839  56.067
10036DA     SC365270  20.343  34.964  56.078
10036DA     SC465271  20.148  35.145  56.168
10037DT     BB165272  19.631  35.065  56.455
10037DT     BB265273  19.652  34.716  56.366
10037DT     BB365274  19.767  34.614  56.504
10037DT     SC165275  19.988  34.716  56.407
10037DT     SC265276  20.101  34.562  56.309
10037DT     SC365277  20.212  34.854  56.392
10038DA     BB165278  19.408  34.399  56.483
10038DA     BB265279  19.682  34.157  56.453
10038DA     BB365280  19.773  34.124  56.643
10038DA     SC165281  19.984  34.350  56.608
10038DA     SC265282  20.231  34.368  56.575
10038DA     SC365283  20.204  34.609  56.659
10038DA     SC465284  19.947  34.496  56.664
10039DT     BB165285  19.756  33.940  56.736
10039DT     BB265286  20.096  33.830  56.682
10039DT     BB365287  20.202  33.840  56.860
10039DT     SC165288  20.218  34.102  56.844
10039DT     SC265289  20.422  34.159  56.805
10039DT     SC365290  20.185  34.356  56.905
10040DT     BB165291  20.203  33.563  56.899
10040DT     BB265292  20.553  33.652  56.914
10040DT     BB365293  20.606  33.697  57.108
10040DT     SC165294  20.483  33.929  57.096
10040DT     SC265295  20.629  34.087  57.097
10040DT     SC365296  20.311  34.122  57.148
10041DA     BB165297  20.889  33.395  57.025
10041DA     BB265298  21.075  33.674  57.173
10041DA     BB365299  21.050  33.675  57.385
10041DA     SC165300  20.801  33.860  57.379
10041DA     SC265301  20.743  34.094  57.445
10041DA     SC365302  20.499  34.013  57.443
10041DA     SC465303  20.656  33.790  57.374
10042DC     BB165304  21.212  33.630  57.547
10042DC     BB265305  21.261  33.972  57.649
10042DC     BB365306  21.189  34.000  57.841
10042DC     SC165307  20.941  33.995  57.757
10042DC     SC265308  20.855  34.191  57.776
10042DC     SC365309  20.691  33.916  57.726
10043DG     BB165310  21.585  34.097  57.879
10043DG     BB265311  21.374  34.365  57.999
10043DG     BB365312  21.315  34.326  58.185
10043DG     SC165313  21.063  34.175  58.100
10043DG     SC265314  20.781  34.264  58.146
10043DG     SC365315  20.789  33.987  58.043
10043DG     SC465316  21.072  34.018  58.073
10044DT     BB165317  21.370  34.460  58.356
10044DT     BB265318  21.059  34.635  58.408
10044DT     BB365319  20.965  34.563  58.578
10044DT     SC165320  20.893  34.342  58.455
10044DT     SC265321  20.680  34.343  58.427
10044DT     SC365322  20.876  34.086  58.395
10045DT     BB165323  21.024  34.797  58.691
10045DT     BB265324  20.665  34.771  58.713
10045DT     BB365325  20.612  34.661  58.880
10045DT     SC165326  20.684  34.436  58.766
10045DT     SC265327  20.509  34.318  58.724
10045DT     SC365328  20.815  34.212  58.719
10046DA     BB165329  20.396  35.021  58.866
10046DA     BB265330  20.161  34.747  58.930
10046DA     BB365331  20.188  34.670  59.127
10046DA     SC165332  20.396  34.456  59.041
10046DA     SC265333  20.408  34.207  59.021
10046DA     SC365334  20.662  34.239  59.027
10046DA     SC465335  20.551  34.496  59.048
10047DT     BB165336  20.039  34.697  59.253
10047DT     BB265337  19.924  34.355  59.262
10047DT     BB365338  19.988  34.263  59.436
10047DT     SC165339  20.233  34.244  59.345
10047DT     SC265340  20.279  34.037  59.306
10047DT     SC365341  20.494  34.279  59.324
10048DG     BB165342  19.580  34.235  59.448
10048DG     BB265343  19.735  33.912  59.500
10048DG     BB365344  19.798  33.897  59.688
10048DG     SC165345  20.076  34.012  59.629
10048DG     SC265346  20.334  33.864  59.644
10048DG     SC365347  20.381  34.153  59.604
10048DG     SC465348  20.097  34.171  59.637
10049DA     BB165349  19.621  33.596  59.735
10049DA     BB265350  19.934  33.417  59.802
10049DA     BB365351  19.997  33.450  60.003
10049DA     SC165352  20.169  33.700  59.934
10049DA     SC265353  20.410  33.762  59.925
10049DA     SC365354  20.328  34.004  59.939
10049DA     SC465355  20.098  33.844  59.944
10050DA     BB165356  19.998  33.121  60.032
10050DA     BB265357  20.360  33.144  60.089
10050DA     BB365358  20.399  33.200  60.291
10050DA     SC165359  20.401  33.505  60.232
10050DA     SC265360  20.568  33.691  60.225
10050DA     SC365361  20.365  33.846  60.250
10050DA     SC465362  20.263  33.585  60.249
10051DT     BB165363  20.494  33.065  60.415
10051DT     BB265364  20.816  33.227  60.405
10051DT     BB365365  20.854  33.321  60.585
10051DT     SC165366  20.686  33.514  60.528
10051DT     SC265367  20.795  33.696  60.494
10051DT     SC365368  20.476  33.673  60.543
10052DC     BB165369  21.037  33.133  60.620
10052DC     BB265370  21.217  33.445  60.630
10052DC     BB365371  21.206  33.527  60.819
10052DC     SC165372  20.957  33.600  60.782
10052DC     SC265373  20.947  33.815  60.768
10052DC     SC365374  20.695  33.615  60.812
10053DT     BB165375  21.463  33.467  60.831
10053DT     BB265376  21.444  33.824  60.882
10053DT     BB365377  21.400  33.865  61.080
10053DT     SC165378  21.150  33.794  61.047
10053DT     SC265379  21.024  33.968  61.060
10053DT     SC365380  20.924  33.660  61.073
10054DA     BB165381  21.728  34.089  60.943
10054DA     BB265382  21.493  34.315  61.110
10054DA     BB365383  21.492  34.279  61.321
10054DA     SC165384  21.262  34.069  61.308
10054DA     SC265385  21.023  34.052  61.377
10054DA     SC365386  21.057  33.799  61.360
10054DA     SC465387  21.304  33.914  61.293
10055DC     BB165388  21.552  34.424  61.408
10055DC     BB265389  21.235  34.533  61.540
10055DC     BB365390  21.213  34.468  61.735
10055DC     SC165391  21.167  34.222  61.656
10055DC     SC265392  20.961  34.172  61.695
10055DC     SC365393  21.198  33.962  61.623
10056DT     BB165394  21.237  34.722  61.790
10056DT     BB265395  20.921  34.623  61.932
10056DT     BB365396  20.951  34.532  62.116
10056DT     SC165397  21.039  34.313  62.001
10056DT     SC265398  20.896  34.155  62.029
10056DT     SC365399  21.203  34.118  61.931
10057DA     BB165400  20.650  34.826  62.126
10057DA     BB265401  20.527  34.525  62.294
10057DA     BB365402  20.633  34.492  62.476
10057DA     SC165403  20.853  34.315  62.345
10057DA     SC265404  20.922  34.076  62.347
10057DA     SC365405  21.148  34.162  62.261
10057DA     SC465406  20.986  34.388  62.293
10058DT     BB165407  20.519  34.506  62.611
10058DT     BB265408  20.510  34.158  62.706
10058DT     BB365409  20.645  34.123  62.859
10058DT     SC165410  20.848  34.137  62.693
10058DT     SC265411  20.935  33.942  62.670
10058DT     SC365412  21.071  34.222  62.580
10059DA     BB165413  20.271  33.959  62.963
10059DA     BB265414  20.530  33.713  63.043
10059DA     BB365415  20.648  33.781  63.207
10059DA     SC165416  20.858  33.926  63.029
10059DA     SC265417  21.097  33.897  62.964
10059DA     SC365418  21.089  34.146  62.902
10059DA     SC465419  20.833  34.082  62.997
10060DA     BB165420  20.574  33.487  63.353
10060DA     BB265421  20.934  33.423  63.378
10060DA     BB365422  21.020  33.540  63.534
10060DA     SC165423  21.088  33.781  63.350
10060DA     SC265424  21.292  33.889  63.256
10060DA     SC365425  21.142  34.094  63.221
10060DA     SC465426  20.979  33.898  63.338
10061DG     BB165427  21.120  33.292  63.738
10061DG     BB265428  21.453  33.421  63.682
10061DG     BB365429  21.497  33.558  63.820
10061DG     SC165430  21.387  33.792  63.657
10061DG     SC265431  21.548  34.016  63.541
10061DG     SC365432  21.258  34.070  63.515
10061DG     SC465433  21.232  33.831  63.671
10062DC     BB165434  21.679  33.591  64.060
10062DC     BB265435  21.923  33.813  63.914
10062DC     BB365436  21.919  33.996  64.011
10062DC     SC165437  21.695  34.063  63.891
10062DC     SC265438  21.734  34.221  63.751
10062DC     SC365439  21.442  34.128  63.857
10063DA     BB165440  22.332  33.927  64.105
10063DA     BB265441  22.318  34.260  63.952
10063DA     BB365442  22.268  34.407  64.098
10063DA     SC165443  21.961  34.385  64.051
10063DA     SC265444  21.779  34.525  63.953
10063DA     SC365445  21.620  34.375  64.088
10063DA     SC465446  21.879  34.282  64.142
10064DT     BB165447  22.406  34.589  64.189
10064DT     BB265448  22.250  34.846  63.989
10064DT     BB365449  22.151  34.980  64.112
10064DT     SC165450  21.957  34.809  64.156
10064DT     SC265451  21.777  34.878  64.059
10064DT     SC365452  21.795  34.645  64.284
10065DG     BB165453  22.422  35.200  63.903
10065DG     BB265454  22.087  35.328  63.858
10065DG     BB365455  22.037  35.442  64.013
10065DG     SC165456  21.919  35.210  64.175
10065DG     SC265457  21.631  35.175  64.247
10065DG     SC365458  21.799  34.978  64.388
10065DG     SC465459  22.015  35.126  64.272
10066DT     BB165460  21.991  35.645  63.974
10066DT     BB265461  21.631  35.643  64.000
10066DT     BB365462  21.573  35.722  64.182
10066DT     SC165463  21.646  35.505  64.310
10066DT     SC265464  21.471  35.403  64.382
10066DT     SC365465  21.777  35.346  64.475
10067DA     BB165466  21.363  35.894  63.862
10067DA     BB265467  21.121  35.793  64.119
10067DA     BB365468  21.138  35.919  64.290
10067DA     SC165469  21.347  35.740  64.434
10067DA     SC265470  21.357  35.591  64.634
10067DA     SC365471  21.612  35.623  64.619
10067DA     SC465472  21.503  35.773  64.409
10068DT     BB165473  20.983  36.023  64.320
10068DT     BB265474  20.863  35.844  64.609
10068DT     BB365475  20.911  35.947  64.782
10068DT     SC165476  21.163  35.875  64.764
10068DT     SC265477  21.208  35.737  64.922
10068DT     SC365478  21.424  35.892  64.738
10069DG     BB165479  20.507  35.898  64.777
10069DG     BB265480  20.649  35.788  65.091
10069DG     BB365481  20.691  35.945  65.205
10069DG     SC165482  20.975  35.980  65.097
10069DG     SC265483  21.227  35.939  65.251
10069DG     SC365484  21.283  36.060  64.986
10069DG     SC465485  20.998  36.072  64.968
10070DT     BB165486  20.590  35.977  65.401
10070DT     BB265487  20.853  35.893  65.633
10070DT     BB365488  20.933  36.066  65.715
10070DT     SC165489  21.061  36.121  65.492
10070DT     SC265490  21.272  36.096  65.524
10070DT     SC365491  21.134  36.248  65.273
10071DA     BB165492  20.831  35.822  66.039
10071DA     BB265493  21.174  35.940  66.093
10071DA     BB365494  21.173  36.145  66.153
10071DA     SC165495  21.193  36.255  65.863
10071DA     SC265496  21.362  36.373  65.721
10071DA     SC365497  21.162  36.442  65.576
10071DA     SC465498  21.056  36.289  65.786
10072DT     BB165499  21.235  36.192  66.341
10072DT     BB265500  21.553  36.334  66.247
10072DT     BB365501  21.545  36.541  66.262
10072DT     SC165502  21.402  36.558  66.042
10072DT     SC265503  21.521  36.647  65.886
10072DT     SC365504  21.199  36.609  65.881
10073DA     BB165505  21.880  36.425  66.486
10073DA     BB265506  21.985  36.695  66.261
10073DA     BB365507  21.912  36.883  66.332
10073DA     SC165508  21.647  36.867  66.169
10073DA     SC265509  21.543  36.982  65.974
10073DA     SC365510  21.321  36.891  66.065
10073DA     SC465511  21.519  36.803  66.242
10074DA     BB165512  22.229  36.972  66.317
10074DA     BB265513  22.129  37.222  66.068
10074DA     BB365514  22.039  37.390  66.164
10074DA     SC165515  21.750  37.276  66.147
10074DA     SC265516  21.539  37.325  66.024
10074DA     SC365517  21.423  37.191  66.209
10074DA     SC465518  21.696  37.190  66.272
10075DA     BB165519  22.268  37.554  65.997
10075DA     BB265520  21.994  37.723  65.822
10075DA     BB365521  21.909  37.875  65.946
10075DA     SC165522  21.696  37.686  66.072
10075DA     SC265523  21.449  37.656  66.065
10075DA     SC365524  21.478  37.529  66.286
10075DA     SC465525  21.735  37.612  66.210
10076DC     BB165526  21.931  38.058  65.883
10076DC     BB265527  21.592  38.103  65.770
10076DC     BB365528  21.487  38.220  65.904
10076DC     SC165529  21.470  38.022  66.076
10076DC     SC265530  21.266  37.956  66.088
10076DC     SC365531  21.503  37.882  66.297
10077DA     BB165532  21.441  38.347  65.508
10077DA     BB265533  21.109  38.322  65.663
10077DA     BB365534  21.084  38.476  65.808
10077DA     SC165535  21.193  38.305  66.044
10077DA     SC265536  21.104  38.197  66.250
10077DA     SC365537  21.347  38.197  66.331
10077DA     SC465538  21.350  38.316  66.077
10078DA     BB165539  20.828  38.466  65.606
10078DA     BB265540  20.628  38.415  65.909
10078DA     BB365541  20.634  38.589  66.032
10078DA     SC165542  20.883  38.495  66.194
10078DA     SC265543  20.934  38.419  66.426
10078DA     SC365544  21.176  38.481  66.371
10078DA     SC465545  21.027  38.542  66.142
10079DT     BB165546  20.475  38.629  66.033
10079DT     BB265547  20.406  38.554  66.380
10079DT     BB365548  20.446  38.720  66.497
10079DT     SC165549  20.705  38.682  66.476
10079DT     SC265550  20.784  38.620  66.666
10079DT     SC365551  20.958  38.724  66.413
10080DA     BB165552  20.066  38.564  66.593
10080DA     BB265553  20.237  38.650  66.906
10080DA     BB365554  20.257  38.862  66.923
10080DA     SC165555  20.535  38.871  66.782
10080DA     SC265556  20.772  38.917  66.845
10080DA     SC365557  20.808  38.960  66.594
10080DA     SC465558  20.536  38.896  66.623
10081DA     BB165559  20.103  38.843  67.223
10081DA     BB265560  20.394  39.009  67.373
10081DA     BB365561  20.392  39.217  67.328
10081DA     SC165562  20.558  39.188  67.066
10081DA     SC265563  20.786  39.248  66.985
10081DA     SC365564  20.686  39.223  66.750
10081DA     SC465565  20.477  39.170  66.929
10082DC     BB165566  20.345  39.420  67.469
10082DC     BB265567  20.682  39.548  67.478
10082DC     BB365568  20.694  39.725  67.372
10082DC     SC165569  20.682  39.598  67.143
10082DC     SC265570  20.872  39.612  67.044
10082DC     SC365571  20.594  39.518  66.908
10083DT     BB165572  20.693  39.950  67.583
10083DT     BB265573  20.989  40.025  67.391
10083DT     BB365574  20.947  40.171  67.251
10083DT     SC165575  20.818  40.000  67.100
10083DT     SC265576  20.930  39.964  66.920
10083DT     SC365577  20.620  39.884  66.970
10084DT     BB165578  21.071  40.413  67.372
10084DT     BB265579  21.232  40.390  67.050
10084DT     BB365580  21.136  40.512  66.914
10084DT     SC165581  20.935  40.344  66.895
10084DT     SC265582  20.936  40.253  66.700
10084DT     SC365583  20.690  40.248  66.910
10085DG     BB165584  21.517  40.657  66.920
10085DG     BB265585  21.416  40.571  66.583
10085DG     BB365586  21.308  40.718  66.505
10085DG     SC165587  21.040  40.609  66.606
10085DG     SC265588  20.819  40.503  66.436
10085DG     SC365589  20.733  40.528  66.718
10085DG     SC465590  20.989  40.652  66.751
10086DA     BB165591  21.529  40.695  66.243
10086DA     BB265592  21.251  40.611  66.018
10086DA     BB365593  21.139  40.787  65.971
10086DA     SC165594  20.941  40.753  66.209
10086DA     SC265595  20.700  40.696  66.242
10086DA     SC365596  20.727  40.807  66.472
10086DA     SC465597  20.977  40.828  66.347
10087DT     BB165598  21.147  40.832  65.788
10087DT     BB265599  20.813  40.727  65.702
10087DT     BB365600  20.688  40.891  65.690
10087DT     SC165601  20.680  40.913  65.952
10087DT     SC265602  20.483  40.861  66.022
10087DT     SC365603  20.712  41.014  66.193
10088DT     BB165604  20.685  40.853  65.426
10088DT     BB265605  20.338  40.842  65.525
10088DT     BB365606  20.262  41.034  65.536
10088DT     SC165607  20.389  41.080  65.760
10088DT     SC265608  20.247  41.094  65.921
10088DT     SC365609  20.556  41.188  65.933
10089DA     BB165610  20.001  40.810  65.294
10089DA     BB265611  19.799  40.990  65.541
10089DA     BB365612  19.792  41.198  65.493
10089DA     SC165613  20.042  41.271  65.663
10089DA     SC265614  20.093  41.395  65.873
10089DA     SC365615  20.332  41.410  65.782
10089DA     SC465616  20.185  41.271  65.589
10090DA     BB165617  19.463  41.158  65.503
10090DA     BB265618  19.458  41.401  65.777
10090DA     BB365619  19.477  41.600  65.701
10090DA     SC165620  19.787  41.603  65.720
10090DA     SC265621  19.963  41.717  65.856
10090DA     SC365622  20.122  41.656  65.664
10090DA     SC465623  19.870  41.557  65.590
10091DT     BB165624  19.316  41.747  65.710
10091DT     BB265625  19.459  41.943  65.976
10091DT     BB365626  19.525  42.125  65.903
10091DT     SC165627  19.733  42.013  65.790
10091DT     SC265628  19.912  42.073  65.893
10091DT     SC365629  19.900  41.930  65.603
10092DT     BB165630  19.317  42.264  66.022
10092DT     BB265631  19.616  42.417  66.155
10092DT     BB365632  19.676  42.573  66.033
10092DT     SC165633  19.767  42.406  65.852
10092DT     SC265634  19.982  42.417  65.847
10092DT     SC365635  19.793  42.279  65.623
10093DA     BB165636  19.653  42.721  66.424
10093DA     BB265637  19.979  42.817  66.286
10093DA     BB365638  19.957  42.974  66.144
10093DA     SC165639  19.923  42.783  65.901
10093DA     SC265640  20.054  42.717  65.698
10093DA     SC365641  19.829  42.636  65.605
10093DA     SC465642  19.774  42.740  65.860
10094DA     BB165643  20.181  43.112  66.339
10094DA     BB265644  20.403  43.120  66.047
10094DA     BB365645  20.345  43.277  65.915
10094DA     SC165646  20.152  43.098  65.748
10094DA     SC265647  20.144  42.999  65.519
10094DA     SC365648  19.891  42.977  65.560
10094DA     SC465649  19.998  43.094  65.792
10095DT     BB165650  20.472  43.432  65.889
10095DT     BB265651  20.586  43.341  65.559
10095DT     BB365652  20.499  43.465  65.418
10095DT     SC165653  20.268  43.343  65.440
10095DT     SC265654  20.229  43.232  65.259
10095DT     SC365655  20.013  43.302  65.491
10096DG     BB165656  20.903  43.507  65.376
10096DG     BB265657  20.746  43.425  65.061
10096DG     BB365658  20.663  43.587  64.982
10096DG     SC165659  20.392  43.546  65.119
10096DG     SC265660  20.135  43.482  64.983
10096DG     SC365661  20.090  43.542  65.269
10096DG     SC465662  20.369  43.608  65.265
10097DT     BB165663  20.732  43.670  64.786
10097DT     BB265664  20.463  43.568  64.569
10097DT     BB365665  20.343  43.731  64.523
10097DT     SC165666  20.235  43.727  64.762
10097DT     SC265667  20.029  43.665  64.746
10097DT     SC365668  20.166  43.805  65.005
10098DT     BB165669  20.443  43.724  64.273
10098DT     BB265670  20.086  43.690  64.232
10098DT     BB365671  19.997  43.877  64.224
10098DT     SC165672  20.027  43.910  64.483
10098DT     SC265673  19.834  43.903  64.578
10098DT     SC365674  20.109  44.010  64.713
10099DT     BB165675  19.955  43.817  63.971
10099DT     BB265676  19.629  43.883  64.109
10099DT     BB365677  19.593  44.087  64.112
10099DT     SC165678  19.754  44.121  64.316
10099DT     SC265679  19.639  44.173  64.490
10099DT     SC365680  19.960  44.204  64.458
10100DT     BB165681  19.419  44.024  63.927
10100DT     BB265682  19.229  44.192  64.183
10100DT     BB365683  19.248  44.397  64.162
10100DT     SC165684  19.492  44.392  64.259
10100DT     SC265685  19.494  44.486  64.453
10100DT     SC365686  19.754  44.416  64.273
10101DG     BB165687  18.856  44.289  64.160
10101DG     BB265688  18.919  44.559  64.392
10101DG     BB365689  18.946  44.729  64.292
10101DG     SC165690  19.248  44.693  64.263
10101DG     SC265691  19.458  44.863  64.391
10101DG     SC365692  19.578  44.676  64.195
10101DG     SC465693  19.305  44.613  64.136
10102DT     BB165694  18.809  44.886  64.326
10102DT     BB265695  19.007  45.126  64.510
10102DT     BB365696  19.076  45.273  64.382
10102DT     SC165697  19.255  45.110  64.280
10102DT     SC265698  19.452  45.173  64.341
10102DT     SC365699  19.385  44.963  64.104
10103DA     BB165700  18.884  45.492  64.686
10103DA     BB265701  19.210  45.649  64.628
10103DA     BB365702  19.207  45.761  64.446
10103DA     SC165703  19.304  45.523  64.271
10103DA     SC265704  19.509  45.459  64.143
10103DA     SC365705  19.355  45.298  64.016
10103DA     SC465706  19.192  45.430  64.202
10104DC     BB165707  19.216  45.991  64.424
10104DC     BB265708  19.556  46.008  64.304
10104DC     BB365709  19.558  46.065  64.105
10104DC     SC165710  19.477  45.828  64.028
10104DC     SC265711  19.637  45.728  63.924
10104DC     SC365712  19.325  45.640  63.923
10105DT     BB165713  19.645  46.338  64.140
10105DT     BB265714  19.891  46.199  63.915
10105DT     BB365715  19.835  46.235  63.719
10105DT     SC165716  19.649  46.050  63.730
10105DT     SC265717  19.706  45.884  63.606
10105DT     SC365718  19.410  45.938  63.727
10106DG     BB165719  20.198  46.423  63.746
10106DG     BB265720  20.195  46.186  63.473
10106DG     BB365721  20.110  46.268  63.313
10106DG     SC165722  19.827  46.177  63.385
10106DG     SC265723  19.663  45.978  63.235
10106DG     SC365724  19.502  46.110  63.445
10106DG     SC465725  19.736  46.271  63.479
10107DT     BB165726  20.224  46.298  63.122
10107DT     BB265727  20.091  46.027  62.925
10107DT     BB365728  19.961  46.101  62.782
10107DT     SC165729  19.775  46.143  62.961
10107DT     SC265730  19.613  46.005  62.931
10107DT     SC365731  19.603  46.271  63.115
10108DA     BB165732  20.244  45.837  62.620
10108DA     BB265733  19.910  45.734  62.508
10108DA     BB365734  19.832  45.875  62.368
10108DA     SC165735  19.692  46.050  62.584
10108DA     SC265736  19.460  46.103  62.656
10108DA     SC365737  19.563  46.310  62.766
10108DA     SC465738  19.775  46.174  62.644
10109DT     BB165739  19.812  45.787  62.220
10109DT     BB265740  19.452  45.768  62.225
10109DT     BB365741  19.371  45.923  62.114
10109DT     SC165742  19.427  46.097  62.303
10109DT     SC265743  19.244  46.165  62.394
10109DT     SC365744  19.535  46.303  62.426
10110DA     BB165745  19.202  45.546  62.028
10110DA     BB265746  18.932  45.792  62.068
10110DA     BB365747  18.937  45.934  61.909
10110DA     SC165748  19.124  46.132  62.060
10110DA     SC265749  19.108  46.358  62.165
10110DA     SC365750  19.363  46.364  62.143
10110DA     SC465751  19.283  46.118  62.037
10111DA     BB165752  18.624  45.835  61.901
10111DA     BB265753  18.533  46.187  61.946
10111DA     BB365754  18.576  46.298  61.769
10111DA     SC165755  18.864  46.374  61.858
10111DA     SC265756  18.988  46.578  61.929
10111DA     SC365757  19.200  46.447  61.867
10111DA     SC465758  18.984  46.277  61.812
10112DA     BB165759  18.258  46.387  61.801
10112DA     BB265760  18.376  46.734  61.817
10112DA     BB365761  18.439  46.799  61.624
10112DA     SC165762  18.735  46.710  61.664
10112DA     SC265763  18.958  46.817  61.693
10112DA     SC365764  19.054  46.591  61.619
10112DA     SC465765  18.775  46.562  61.614
10113DT     BB165766  18.335  46.950  61.509
10113DT     BB265767  18.577  47.214  61.553
10113DT     BB365768  18.681  47.246  61.377
10113DT     SC165769  18.821  47.027  61.412
10113DT     SC265770  19.025  47.079  61.455
10113DT     SC365771  18.918  46.785  61.370
10114DG     BB165772  18.506  47.610  61.444
10114DG     BB265773  18.863  47.645  61.393
10114DG     BB365774  18.904  47.641  61.199
10114DG     SC165775  18.939  47.337  61.187
10114DG     SC265776  19.194  47.192  61.133
10114DG     SC365777  18.965  47.005  61.134
10114DG     SC465778  18.811  47.245  61.159
10115DA     BB165779  19.078  47.940  61.240
10115DA     BB265780  19.387  47.777  61.128
10115DA     BB365781  19.387  47.757  60.915
10115DA     SC165782  19.253  47.476  60.916
10115DA     SC265783  19.318  47.241  60.865
10115DA     SC365784  19.066  47.198  60.842
10115DA     SC465785  19.093  47.470  60.905
10116DT     BB165786  19.524  47.860  60.816
10116DT     BB265787  19.739  47.581  60.738
10116DT     BB365788  19.715  47.526  60.540
10116DT     SC165789  19.483  47.414  60.590
10116DT     SC265790  19.501  47.201  60.570
10116DT     SC365791  19.223  47.368  60.585
10117DT     BB165792  19.958  47.625  60.498
10117DT     BB265793  19.977  47.281  60.390
10117DT     BB365794  19.908  47.265  60.195
10117DT     SC165795  19.659  47.292  60.273
10117DT     SC265796  19.555  47.105  60.248
10117DT     SC365797  19.417  47.393  60.300
10118DA     BB165798  20.283  47.076  60.222
10118DA     BB265799  20.052  46.848  60.052
10118DA     BB365800  20.007  46.920  59.856
10118DA     SC165801  19.759  47.085  59.946
10118DA     SC265802  19.512  47.075  59.919
10118DA     SC365803  19.515  47.324  59.981
10118DA     SC465804  19.783  47.239  59.985
10119DT     BB165805  20.072  46.814  59.695
10119DT     BB265806  19.750  46.682  59.597
10119DT     BB365807  19.680  46.784  59.431
10119DT     SC165808  19.619  46.994  59.576
10119DT     SC265809  19.405  47.014  59.587
10119DT     SC365810  19.622  47.242  59.667
10120DC     BB165811  19.730  46.573  59.258
10120DC     BB265812  19.378  46.641  59.214
10120DC     BB365813  19.352  46.785  59.067
10120DC     SC165814  19.433  46.976  59.227
10120DC     SC265815  19.267  47.103  59.277
10120DC     SC365816  19.580  47.172  59.325
10121DT     BB165817  19.257  46.606  58.871
10121DT     BB265818  18.993  46.850  58.902
10121DT     BB365819  19.024  47.005  58.768
10121DT     SC165820  19.218  47.104  58.914
10121DT     SC265821  19.155  47.290  59.001
10121DT     SC365822  19.460  47.182  58.987
10122DA     BB165823  18.633  46.876  58.687
10122DA     BB265824  18.621  47.240  58.734
10122DA     BB365825  18.696  47.339  58.560
10122DA     SC165826  18.990  47.348  58.662
10122DA     SC265827  19.153  47.519  58.740
10122DA     SC365828  19.332  47.345  58.685
10122DA     SC465829  19.086  47.226  58.619
10123DG     BB165830  18.412  47.469  58.535
10123DG     BB265831  18.593  47.774  58.606
10123DG     BB365832  18.667  47.850  58.438
10123DG     SC165833  18.931  47.697  58.455
10123DG     SC265834  19.201  47.818  58.498
10123DG     SC365835  19.223  47.530  58.431
10123DG     SC465836  18.941  47.551  58.390
10124DT     BB165837  18.603  48.054  58.358
10124DT     BB265838  18.892  48.251  58.446
10124DT     BB365839  19.003  48.294  58.276
10124DT     SC165840  19.096  48.049  58.265
10124DT     SC265841  19.306  48.050  58.312
10124DT     SC365842  19.143  47.805  58.177
10125DC     BB165843  18.921  48.554  58.288
10125DC     BB265844  19.282  48.569  58.302
10125DC     BB365845  19.360  48.576  58.111
10125DC     SC165846  19.310  48.321  58.073
10125DC     SC265847  19.496  48.212  58.066
10125DC     SC365848  19.206  48.101  57.972
10126DG     BB165849  19.489  48.899  58.320
10126DG     BB265850  19.764  48.713  58.177
10126DG     BB365851  19.780  48.754  57.983
10126DG     SC165852  19.592  48.529  57.895
10126DG     SC265853  19.670  48.287  57.738
10126DG     SC365854  19.376  48.306  57.764
10126DG     SC465855  19.435  48.559  57.886
10127DC     BB165856  19.958  48.836  57.930
10127DC     BB265857  20.119  48.560  57.763
10127DC     BB365858  20.100  48.580  57.558
10127DC     SC165859  19.848  48.509  57.566
10127DC     SC265860  19.825  48.316  57.475
10127DC     SC365861  19.586  48.523  57.544
10128DA     BB165862  20.487  48.486  57.693
10128DA     BB265863  20.401  48.264  57.414
10128DA     BB365864  20.388  48.375  57.232
10128DA     SC165865  20.085  48.437  57.262
10128DA     SC265866  19.871  48.370  57.151
10128DA     SC365867  19.774  48.583  57.257
10128DA     SC465868  20.043  48.574  57.335
10129DT     BB165869  20.507  48.302  57.144
10129DT     BB265870  20.297  48.136  56.902
10129DT     BB365871  20.263  48.261  56.741
10129DT     SC165872  20.094  48.407  56.879
10129DT     SC265873  19.895  48.377  56.804
10129DT     SC365874  19.990  48.616  57.002
10130DT     BB165875  20.406  48.077  56.635
10130DT     BB265876  20.111  48.100  56.429
10130DT     BB365877  20.123  48.266  56.307
10130DT     SC165878  20.071  48.427  56.508
10130DT     SC265879  19.875  48.513  56.482
10130DT     SC365880  20.102  48.616  56.690
10131DA     BB165881  20.028  47.940  56.057
10131DA     BB265882  19.821  48.224  55.953
10131DA     BB365883  19.942  48.372  55.858
10131DA     SC165884  20.001  48.528  56.120
10131DA     SC265885  19.941  48.747  56.223
10131DA     SC365886  20.148  48.712  56.371
10131DA     SC465887  20.135  48.488  56.202
10132DT     BB165888  19.939  48.421  55.643
10132DT     BB265889  19.790  48.749  55.667
10132DT     BB365890  19.934  48.894  55.632
10132DT     SC165891  20.040  48.857  55.870
10132DT     SC265892  20.001  49.029  55.993
10132DT     SC365893  20.216  48.795  56.056
10133DA     BB165894  19.672  49.018  55.318
10133DA     BB265895  19.762  49.322  55.501
10133DA     BB365896  19.955  49.390  55.442
10133DA     SC165897  20.107  49.228  55.660
10133DA     SC265898  20.235  49.275  55.869
10133DA     SC365899  20.336  49.042  55.835
10133DA     SC465900  20.159  49.082  55.621
10134DC     BB165901  20.029  49.593  55.309
10134DC     BB265902  20.152  49.777  55.595
10134DC     BB365903  20.357  49.801  55.580
10134DC     SC165904  20.399  49.550  55.645
10134DC     SC265905  20.489  49.540  55.840
10134DC     SC365906  20.476  49.298  55.625
10135DA     BB165907  20.229  50.199  55.624
10135DA     BB265908  20.486  50.140  55.878
10135DA     BB365909  20.680  50.148  55.790
10135DA     SC165910  20.691  49.844  55.726
10135DA     SC265911  20.815  49.643  55.806
10135DA     SC365912  20.748  49.538  55.581
10135DA     SC465913  20.640  49.797  55.581
10136DA     BB165914  20.723  50.368  56.027
10136DA     BB265915  20.973  50.139  56.167
10136DA     BB365916  21.155  50.151  56.057
10136DA     SC165917  21.078  49.926  55.856
10136DA     SC265918  21.148  49.692  55.805
10136DA     SC365919  21.038  49.731  55.576
10136DA     SC465920  21.006  49.970  55.719
10137DA     BB165921  21.236  50.191  56.369
10137DA     BB265922  21.434  49.885  56.328
10137DA     BB365923  21.605  49.923  56.206
10137DA     SC165924  21.461  49.851  55.940
10137DA     SC265925  21.470  49.670  55.768
10137DA     SC365926  21.355  49.839  55.613
10137DA     SC465927  21.391  49.971  55.858
10138DT     BB165928  21.746  49.894  56.306
10138DT     BB265929  21.846  49.583  56.154
10138DT     BB365930  21.990  49.618  56.010
10138DT     SC165931  21.812  49.713  55.843
10138DT     SC265932  21.786  49.576  55.679
10138DT     SC365933  21.683  49.883  55.688
10139DG     BB165934  22.109  49.343  56.288
10139DG     BB265935  22.151  49.222  55.950
10139DG     BB365936  22.304  49.314  55.864
10139DG     SC165937  22.136  49.544  55.752
10139DG     SC265938  22.082  49.598  55.464
10139DG     SC365939  21.985  49.821  55.633
10139DG     SC465940  22.113  49.674  55.843
10140DT     BB165941  22.459  49.193  55.804
10140DT     BB265942  22.428  49.195  55.445
10140DT     BB365943  22.559  49.333  55.363
10140DT     SC165944  22.407  49.533  55.440
10140DT     SC265945  22.318  49.626  55.268
10140DT     SC365946  22.329  49.752  55.566
10141DG     BB165947  22.659  48.975  55.194
10141DG     BB265948  22.613  49.231  54.942
10141DG     BB365949  22.773  49.348  54.934
10141DG     SC165950  22.669  49.546  55.143
10141DG     SC265951  22.593  49.830  55.094
10141DG     SC365952  22.595  49.771  55.383
10141DG     SC465953  22.700  49.519  55.298
10142DA     BB165954  22.794  49.292  54.589
10142DA     BB265955  22.757  49.651  54.525
10142DA     BB365956  22.940  49.752  54.564
10142DA     SC165957  22.873  49.810  54.862
10142DA     SC265958  22.818  50.008  55.004
10142DA     SC365959  22.889  49.860  55.201
10142DA     SC465960  22.923  49.703  54.972
10143DC     BB165961  23.051  49.843  54.409
10143DC     BB265962  22.966  50.184  54.491
10143DC     BB365963  23.130  50.278  54.576
10143DC     SC165964  23.096  50.150  54.802
10143DC     SC265965  23.031  50.288  54.953
10143DC     SC365966  23.144  49.989  55.005
10144DT     BB165967  23.168  50.426  54.350
10144DT     BB265968  23.126  50.670  54.612
10144DT     BB365969  23.309  50.710  54.702
10144DT     SC165970  23.304  50.480  54.829
10144DT     SC265971  23.277  50.516  55.039
10144DT     SC365972  23.373  50.237  54.905
10145DT     BB165973  23.309  50.952  54.584
10145DT     BB265974  23.336  51.021  54.937
10145DT     BB365975  23.534  51.012  54.996
10145DT     SC165976  23.535  50.750  54.984
10145DT     SC265977  23.549  50.669  55.182
10145DT     SC365978  23.596  50.505  54.907
10146DA     BB165979  23.370  51.374  55.132
10146DA     BB265980  23.545  51.215  55.412
10146DA     BB365981  23.756  51.226  55.383
10146DA     SC165982  23.773  50.953  55.234
10146DA     SC265983  23.863  50.725  55.276
10146DA     SC365984  23.857  50.697  55.022
10146DA     SC465985  23.763  50.956  55.073
10147DT     BB165986  23.864  51.338  55.510
10147DT     BB265987  24.015  51.067  55.693
10147DT     BB365988  24.212  51.043  55.634
10147DT     SC165989  24.138  50.932  55.408
10147DT     SC265990  24.191  50.723  55.411
10147DT     SC365991  24.106  50.894  55.149
10148DA     BB165992  24.230  51.079  56.053
10148DA     BB265993  24.428  50.785  55.958
10148DA     BB365994  24.613  50.845  55.871
10148DA     SC165995  24.502  50.849  55.580
10148DA     SC265996  24.529  50.717  55.370
10148DA     SC365997  24.436  50.925  55.252
10148DA     SC465998  24.443  50.988  55.525
10149DT     BB165999  24.811  50.813  55.964
10149DT     BB266000  24.912  50.542  55.749
10149DT     BB366001  25.062  50.605  55.621
10149DT     SC166002  24.891  50.741  55.474
10149DT     SC266003  24.870  50.645  55.283
10149DT     SC366004  24.771  50.944  55.358
10150DA     BB166005  25.222  50.264  55.806
10150DA     BB266006  25.258  50.221  55.444
10150DA     BB366007  25.419  50.341  55.370
10150DA     SC166008  25.239  50.588  55.311
10150DA     SC266009  25.153  50.710  55.111
10150DA     SC366010  25.116  50.906  55.272
10150DA     SC466011  25.225  50.699  55.427
10151DT     BB166012  25.587  50.249  55.291
10151DT     BB266013  25.501  50.310  54.946
10151DT     BB366014  25.624  50.456  54.867
10151DT     SC166015  25.497  50.645  54.997
10151DT     SC266016  25.387  50.766  54.857
10151DT     SC366017  25.451  50.842  55.166
10152DC     BB166018  25.723  50.257  54.726
10152DC     BB266019  25.593  50.492  54.485
10152DC     BB366020  25.731  50.642  54.452
10152DC     SC166021  25.677  50.754  54.683
10152DC     SC266022  25.576  50.941  54.650
10152DC     SC366023  25.710  50.844  54.929
10153DT     BB166024  25.742  50.526  54.219
10153DT     BB266025  25.645  50.867  54.153
10153DT     BB366026  25.812  50.990  54.157
10153DT     SC166027  25.824  50.978  54.419
10153DT     SC266028  25.772  51.170  54.501
10153DT     SC366029  25.915  50.927  54.661
10154DA     BB166030  25.572  51.054  53.816
10154DA     BB266031  25.655  51.379  53.965
10154DA     BB366032  25.862  51.421  53.942
10154DA     SC166033  25.945  51.289  54.211
10154DA     SC266034  26.030  51.362  54.434
10154DA     SC366035  26.109  51.120  54.461
10154DA     SC466036  25.987  51.134  54.208
10155DT     BB166037  25.902  51.570  53.828
10155DT     BB266038  26.008  51.799  54.087
10155DT     BB366039  26.215  51.807  54.093
10155DT     SC166040  26.229  51.572  54.209
10155DT     SC266041  26.295  51.596  54.412
10155DT     SC366042  26.285  51.317  54.247
10156DT     BB166043  26.216  52.057  53.981
10156DT     BB266044  26.400  52.096  54.288
10156DT     BB366045  26.600  52.052  54.258
10156DT     SC166046  26.550  51.795  54.248
10156DT     SC266047  26.631  51.700  54.423
10156DT     SC366048  26.530  51.549  54.155
10157DA     BB166049  26.605  52.435  54.430
10157DA     BB266050  26.843  52.227  54.616
10157DA     BB366051  27.021  52.199  54.503
10157DA     SC166052  26.921  51.939  54.364
10157DA     SC266053  26.972  51.695  54.370
10157DA     SC366054  26.856  51.686  54.141
10157DA     SC466055  26.846  51.954  54.223
10158DT     BB166056  27.204  52.280  54.567
10158DT     BB266057  27.346  51.970  54.684
10158DT     BB366058  27.495  51.907  54.554
10158DT     SC166059  27.318  51.831  54.376
10158DT     SC266060  27.318  51.616  54.362
10158DT     SC366061  27.183  51.820  54.149
10159DA     BB166062  27.639  51.905  54.947
10159DA     BB266063  27.712  51.579  54.796
10159DA     BB366064  27.869  51.598  54.652
10159DA     SC166065  27.676  51.651  54.413
10159DA     SC266066  27.600  51.533  54.207
10159DA     SC366067  27.532  51.766  54.124
10159DA     SC466068  27.642  51.805  54.378
10160DA     BB166069  27.947  51.356  54.854
10160DA     BB266070  27.944  51.143  54.555
10160DA     BB366071  28.107  51.193  54.427
10160DA     SC166072  27.947  51.404  54.264
10160DA     SC266073  27.855  51.428  54.033
10160DA     SC366074  27.851  51.680  54.083
10160DA     SC466075  27.954  51.557  54.313
10161DT     BB166076  28.200  51.051  54.422
10161DT     BB266077  28.124  50.955  54.083
10161DT     BB366078  28.267  51.031  53.954
10161DT     SC166079  28.167  51.273  53.974
10161DT     SC266080  28.075  51.329  53.787
10161DT     SC366081  28.149  51.530  54.030
10162DA     BB166082  28.190  50.622  53.884
10162DA     BB266083  28.196  50.798  53.562
10162DA     BB366084  28.393  50.866  53.518
10162DA     SC166085  28.354  51.142  53.655
10162DA     SC266086  28.335  51.381  53.586
10162DA     SC366087  28.399  51.435  53.829
10162DA     SC466088  28.397  51.155  53.810
10163DA     BB166089  28.336  50.701  53.237
10163DA     BB266090  28.397  51.017  53.061
10163DA     BB366091  28.605  51.064  53.063
10163DA     SC166092  28.592  51.227  53.327
10163DA     SC266093  28.612  51.466  53.398
10163DA     SC366094  28.658  51.371  53.631
10163DA     SC466095  28.620  51.149  53.464
10164DA     BB166096  28.589  51.083  52.729
10164DA     BB266097  28.697  51.432  52.756
10164DA     BB366098  28.908  51.442  52.788
10164DA     SC166099  28.885  51.438  53.099
10164DA     SC266100  28.922  51.595  53.289
10164DA     SC366101  28.936  51.384  53.434
10164DA     SC466102  28.892  51.295  53.172
10165DT     BB166103  29.063  51.521  52.641
10165DT     BB266104  29.126  51.832  52.811
10165DT     BB366105  29.316  51.831  52.893
10165DT     SC166106  29.240  51.669  53.086
10165DT     SC266107  29.240  51.775  53.273
10165DT     SC366108  29.224  51.453  53.237
10166DT     BB166109  29.433  52.007  52.704
10166DT     BB266110  29.493  52.168  53.022
10166DT     BB366111  29.676  52.109  53.098
10166DT     SC166112  29.582  51.873  53.164
10166DT     SC266113  29.571  51.859  53.379
10166DT     SC366114  29.549  51.612  53.170
10167DT     BB166115  29.783  52.355  53.045
10167DT     BB266116  29.824  52.312  53.401
10167DT     BB366117  30.004  52.215  53.440
10167DT     SC166118  29.906  51.985  53.360
10167DT     SC266119  29.884  51.854  53.529
10167DT     SC366120  29.874  51.765  53.218
10168DT     BB166121  30.085  52.448  53.538
10168DT     BB266122  30.116  52.214  53.811
10168DT     BB366123  30.297  52.113  53.797
10168DT     SC166124  30.209  51.966  53.599
10168DT     SC266125  30.185  51.763  53.666
10168DT     SC366126  30.187  51.862  53.357
10169DT     BB166127  30.349  52.253  54.011
10169DT     BB266128  30.391  51.908  54.109
10169DT     BB366129  30.577  51.840  54.048
10169DT     SC166130  30.497  51.824  53.798
10169DT     SC266131  30.484  51.618  53.740
10169DT     SC366132  30.482  51.872  53.539
10170DT     BB166133  30.623  51.840  54.304
10170DT     BB266134  30.693  51.504  54.196
10170DT     BB366135  30.882  51.495  54.110
10170DT     SC166136  30.797  51.614  53.892
10170DT     SC266137  30.797  51.474  53.729
10170DT     SC366138  30.771  51.796  53.703
10171DT     BB166139  30.967  51.362  54.328
10171DT     BB266140  31.061  51.150  54.051
10171DT     BB366141  31.243  51.211  53.974
10171DT     SC166142  31.133  51.419  53.858
10171DT     SC266143  31.135  51.391  53.645
10171DT     SC366144  31.078  51.670  53.800
10172DT     BB166145  31.381  50.997  54.085
10172DT     BB266146  31.467  50.983  53.735
10172DT     BB366147  31.634  51.100  53.698
10172DT     SC166148  31.492  51.321  53.718
10172DT     SC266149  31.476  51.413  53.524
10172DT     SC366150  31.407  51.553  53.808
10173DT     BB166151  31.820  50.888  53.670
10173DT     BB266152  31.861  51.074  53.364
10173DT     BB366153  32.009  51.217  53.388
10173DT     SC166154  31.851  51.368  53.532
10173DT     SC266155  31.800  51.545  53.420
10173DT     SC366156  31.755  51.502  53.738
10174DA     BB166157  32.145  51.007  53.049
10174DA     BB266158  32.158  51.364  52.966
10174DA     BB366159  32.328  51.455  53.059
10174DA     SC166160  32.175  51.533  53.318
10174DA     SC266161  32.094  51.741  53.430
10174DA     SC366162  32.087  51.600  53.643
10174DA     SC466163  32.179  51.429  53.441
10175DA     BB166164  32.421  51.559  52.755
10175DA     BB266165  32.385  51.904  52.876
10175DA     BB366166  32.557  51.962  52.988
10175DA     SC166167  32.442  51.866  53.261
10175DA     SC266168  32.360  51.969  53.473
10175DA     SC366169  32.402  51.739  53.577
10175DA     SC466170  32.476  51.716  53.308
10176DT     BB166171  32.702  52.116  52.922
10176DT     BB266172  32.592  52.374  53.149
10176DT     BB366173  32.736  52.405  53.295
10176DT     SC166174  32.672  52.183  53.418
10176DT     SC266175  32.577  52.229  53.605
10176DT     SC366176  32.693  51.939  53.518
10177DA     BB166177  32.670  52.788  53.135
10177DA     BB266178  32.645  52.817  53.499
10177DA     BB366179  32.839  52.814  53.587
10177DA     SC166180  32.844  52.505  53.624
10177DA     SC266181  32.836  52.341  53.812
10177DA     SC366182  32.938  52.175  53.645
10177DA     SC466183  32.909  52.417  53.506
10178DT     BB166184  32.925  52.986  53.688
10178DT     BB266185  32.877  52.862  54.023
10178DT     BB366186  33.059  52.811  54.107
10178DT     SC166187  33.074  52.593  53.961
10178DT     SC266188  33.051  52.421  54.088
10178DT     SC366189  33.160  52.419  53.783
10179DA     BB166190  32.877  53.071  54.380
10179DA     BB266191  32.984  52.772  54.564
10179DA     BB366192  33.195  52.775  54.594
10179DA     SC166193  33.259  52.621  54.331
10179DA     SC266194  33.344  52.396  54.265
10179DA     SC366195  33.401  52.507  54.041
10179DA     SC466196  33.288  52.708  54.199
10180DT     BB166197  33.264  52.791  54.784
10180DT     BB266198  33.359  52.445  54.819
10180DT     BB366199  33.565  52.427  54.811
10180DT     SC166200  33.567  52.466  54.552
10180DT     SC266201  33.621  52.283  54.452
10180DT     SC366202  33.616  52.579  54.318
10181DA     BB166203  33.409  52.226  55.142
10181DA     BB266204  33.631  51.997  54.962
10181DA     BB366205  33.835  52.054  54.990
10181DA     SC166206  33.843  52.238  54.740
10181DA     SC266207  33.949  52.239  54.515
10181DA     SC366208  33.906  52.492  54.518
10181DA     SC466209  33.808  52.394  54.761
10182DT     BB166210  33.911  51.921  55.074
10182DT     BB266211  34.102  51.796  54.794
10182DT     BB366212  34.294  51.874  54.799
10182DT     SC166213  34.209  52.108  54.717
10182DT     SC266214  34.279  52.143  54.516
10182DT     SC366215  34.155  52.366  54.716
10183DT     BB166216  34.360  51.626  54.858
10183DT     BB266217  34.552  51.709  54.564
10183DT     BB366218  34.721  51.816  54.617
10183DT     SC166219  34.579  52.032  54.661
10183DT     SC266220  34.624  52.179  54.510
10183DT     SC366221  34.468  52.234  54.789
10184DA     BB166222  34.844  51.497  54.372
10184DA     BB266223  35.008  51.802  54.252
10184DA     BB366224  35.160  51.863  54.388
10184DA     SC166225  34.971  52.045  54.555
10184DA     SC266226  34.938  52.289  54.596
10184DA     SC366227  34.814  52.216  54.809
10184DA     SC466228  34.899  51.980  54.683
10185DC     BB166229  35.367  51.856  54.338
10185DC     BB266230  35.416  52.211  54.301
10185DC     BB366231  35.525  52.285  54.461
10185DC     SC166232  35.317  52.267  54.620
10185DC     SC266233  35.248  52.465  54.670
10185DC     SC366234  35.163  52.191  54.820
10186DG     BB166235  35.770  52.379  54.146
10186DG     BB266236  35.705  52.671  54.348
10186DG     BB366237  35.827  52.673  54.506
10186DG     SC166238  35.637  52.515  54.686
10186DG     SC266239  35.499  52.618  54.929
10186DG     SC366240  35.462  52.326  54.904
10186DG     SC466241  35.645  52.355  54.685
10187DA     BB166242  35.932  52.995  54.423
10187DA     BB266243  35.800  53.123  54.741
10187DA     BB366244  35.938  53.084  54.899
10187DA     SC166245  35.814  52.808  54.972
10187DA     SC266246  35.683  52.709  55.159
10187DA     SC366247  35.765  52.483  55.069
10187DA     SC466248  35.877  52.678  54.902
10188DT     BB166249  36.022  53.243  54.987
10188DT     BB266250  35.820  53.230  55.286
10188DT     BB366251  35.933  53.159  55.445
10188DT     SC166252  35.922  52.914  55.352
10188DT     SC266253  35.799  52.794  55.482
10188DT     SC366254  36.000  52.682  55.254
10189DT     BB166255  35.898  53.404  55.522
10189DT     BB266256  35.753  53.197  55.780
10189DT     BB366257  35.902  53.123  55.904
10189DT     SC166258  35.980  52.951  55.722
10189DT     SC266259  35.930  52.752  55.787
10189DT     SC366260  36.133  52.829  55.545
10190DA     BB166261  35.548  53.276  56.082
10190DA     BB266262  35.636  52.955  56.237
10190DA     BB366263  35.821  52.971  56.342
10190DA     SC166264  35.994  52.887  56.098
10190DA     SC266265  36.134  52.692  56.030
10190DA     SC366266  36.243  52.854  55.864
10190DA     SC466267  36.051  53.003  56.003
10191DA     BB166268  35.589  52.823  56.528
10191DA     BB266269  35.837  52.556  56.567
10191DA     BB366270  36.011  52.630  56.667
10191DA     SC166271  36.157  52.711  56.404
10191DA     SC266272  36.354  52.636  56.272
10191DA     SC366273  36.348  52.870  56.167
10191DA     SC466274  36.137  52.862  56.352
10192DA     BB166275  35.939  52.361  56.847
10192DA     BB266276  36.283  52.253  56.781
10192DA     BB366277  36.421  52.379  56.883
10192DA     SC166278  36.451  52.578  56.646
10192DA     SC266279  36.626  52.642  56.480
10192DA     SC366280  36.491  52.859  56.452
10192DA     SC466281  36.354  52.706  56.643
10193DA     BB166282  36.551  52.104  57.028
10193DA     BB266283  36.875  52.192  56.880
10193DA     BB366284  36.967  52.349  56.990
10193DA     SC166285  36.840  52.577  56.820
10193DA     SC266286  36.916  52.747  56.654
10193DA     SC366287  36.698  52.870  56.712
10193DA     SC466288  36.701  52.639  56.870
10194DT     BB166289  37.160  52.341  57.130
10194DT     BB266290  37.382  52.515  56.905
10194DT     BB366291  37.431  52.700  56.984
10194DT     SC166292  37.194  52.797  56.926
10194DT     SC266293  37.214  52.942  56.768
10194DT     SC366294  36.954  52.901  56.957
10195DG     BB166295  37.805  52.529  56.963
10195DG     BB266296  37.803  52.850  56.797
10195DG     BB366297  37.829  52.995  56.930
10195DG     SC166298  37.530  53.031  56.986
10195DG     SC266299  37.366  53.271  56.918
10195DG     SC366300  37.212  53.083  57.086
10195DG     SC466301  37.461  52.942  57.100
10196DA     BB166302  38.094  53.118  56.740
10196DA     BB266303  37.915  53.434  56.689
10196DA     BB366304  37.935  53.559  56.861
10196DA     SC166305  37.679  53.450  57.000
10196DA     SC266306  37.450  53.533  57.056
10196DA     SC366307  37.446  53.342  57.228
10196DA     SC466308  37.696  53.326  57.101
10197DT     BB166309  38.036  53.727  56.838
10197DT     BB266310  37.751  53.948  56.840
10197DT     BB366311  37.739  54.046  57.022
10197DT     SC166312  37.651  53.830  57.142
10197DT     SC266313  37.445  53.858  57.197
10197DT     SC366314  37.641  53.624  57.306
10198DC     BB166315  37.810  54.265  56.888
10198DC     BB266316  37.497  54.350  57.046
10198DC     BB366317  37.530  54.411  57.241
10198DC     SC166318  37.574  54.164  57.319
10198DC     SC266319  37.412  54.099  57.444
10198DC     SC366320  37.699  53.952  57.414
10199DT     BB166321  37.471  54.663  57.165
10199DT     BB266322  37.244  54.596  57.437
10199DT     BB366323  37.337  54.636  57.618
10199DT     SC166324  37.481  54.417  57.602
10199DT     SC266325  37.415  54.277  57.751
10199DT     SC366326  37.691  54.259  57.583
10200DA     BB166327  36.981  54.861  57.636
10200DA     BB266328  37.012  54.681  57.954
10200DA     BB366329  37.161  54.771  58.077
10200DA     SC166330  37.393  54.595  57.968
10200DA     SC266331  37.540  54.411  58.051
10200DA     SC366332  37.696  54.477  57.859
10200DA     SC466333  37.477  54.652  57.844
10201DA     BB166334  36.939  54.816  58.331
10201DA     BB266335  37.146  54.596  58.539
10201DA     BB366336  37.308  54.706  58.624
10201DA     SC166337  37.504  54.649  58.389
10201DA     SC266338  37.711  54.516  58.350
10201DA     SC366339  37.748  54.671  58.149
10201DA     SC466340  37.509  54.756  58.270
10202DA     BB166341  37.215  54.618  58.937
10202DA     BB266342  37.532  54.437  58.969
10202DA     BB366343  37.688  54.570  59.028
10202DA     SC166344  37.771  54.641  58.737
10202DA     SC266345  37.964  54.600  58.584
10202DA     SC366346  37.878  54.802  58.452
10202DA     SC466347  37.702  54.770  58.669
10203DT     BB166348  37.794  54.563  59.226
10203DT     BB266349  38.095  54.409  59.100
10203DT     BB366350  38.252  54.543  59.108
10203DT     SC166351  38.159  54.677  58.903
10203DT     SC266352  38.289  54.649  58.734
10203DT     SC366353  38.059  54.876  58.760
10204DT     BB166354  38.364  54.403  59.314
10204DT     BB266355  38.615  54.403  59.054
10204DT     BB366356  38.735  54.570  59.071
10204DT     SC166357  38.546  54.725  58.975
10204DT     SC266358  38.603  54.795  58.780
10204DT     SC366359  38.363  54.915  58.962
10205DA     BB166360  38.965  54.222  59.036
10205DA     BB266361  39.090  54.468  58.795
10205DA     BB366362  39.191  54.627  58.896
10205DA     SC166363  38.936  54.803  58.926
10205DA     SC266364  38.848  55.017  58.833
10205DA     SC366365  38.694  55.019  59.038
10205DA     SC466366  38.850  54.787  59.061
10206DA     BB166367  39.404  54.528  58.670
10206DA     BB266368  39.390  54.871  58.541
10206DA     BB366369  39.489  55.005  58.675
10206DA     SC166370  39.233  55.069  58.839
10206DA     SC266371  39.080  55.262  58.874
10206DA     SC366372  39.009  55.141  59.089
10206DA     SC466373  39.203  54.979  58.969
10207DT     BB166374  39.648  55.086  58.604
10207DT     BB266375  39.515  55.419  58.561
10207DT     BB366376  39.578  55.541  58.716
10207DT     SC166377  39.410  55.428  58.883
10207DT     SC266378  39.255  55.569  58.934
10207DT     SC366379  39.320  55.292  59.090
10208DC     BB166380  39.751  55.672  58.550
10208DC     BB266381  39.547  55.934  58.691
10208DC     BB366382  39.629  55.998  58.870
10208DC     SC166383  39.546  55.782  58.994
10208DC     SC266384  39.389  55.834  59.131
10208DC     SC366385  39.552  55.555  59.127
10209DT     BB166386  39.728  56.241  58.768
10209DT     BB266387  39.522  56.344  59.045
10209DT     BB366388  39.636  56.353  59.218
10209DT     SC166389  39.640  56.091  59.238
10209DT     SC266390  39.522  56.030  59.407
10209DT     SC366391  39.733  55.845  59.246
10210DC     BB166392  39.649  56.635  59.230
10210DC     BB266393  39.506  56.542  59.547
10210DC     BB366394  39.656  56.517  59.688
10210DC     SC166395  39.727  56.287  59.582
10210DC     SC266396  39.675  56.128  59.717
10210DC     SC366397  39.874  56.104  59.462
10211DA     BB166398  39.388  56.787  59.862
10211DA     BB266399  39.450  56.521  60.106
10211DA     BB366400  39.641  56.546  60.197
10211DA     SC166401  39.791  56.372  59.987
10211DA     SC266402  39.905  56.150  59.978
10211DA     SC366403  40.022  56.241  59.769
10211DA     SC466404  39.854  56.447  59.860
10212DA     BB166405  39.440  56.521  60.451
10212DA     BB266406  39.629  56.220  60.540
10212DA     BB366407  39.821  56.272  60.615
10212DA     SC166408  39.960  56.263  60.337
10212DA     SC266409  40.126  56.120  60.218
10212DA     SC366410  40.160  56.322  60.064
10212DA     SC466411  39.968  56.400  60.253
10213DT     BB166412  39.836  56.221  60.788
10213DT     BB266413  40.055  55.940  60.731
10213DT     BB366414  40.251  55.994  60.769
10213DT     SC166415  40.265  56.131  60.545
10213DT     SC266416  40.397  56.030  60.408
10213DT     SC366417  40.290  56.335  60.379
10214DT     BB166418  40.217  55.831  60.968
10214DT     BB266419  40.498  55.701  60.782
10214DT     BB366420  40.669  55.808  60.830
10214DT     SC166421  40.590  56.014  60.687
10214DT     SC266422  40.715  56.032  60.513
10214DT     SC366423  40.512  56.258  60.626
10215DT     BB166424  40.738  55.584  60.945
10215DT     BB266425  41.003  55.656  60.712
10215DT     BB366426  41.133  55.796  60.793
10215DT     SC166427  40.960  55.990  60.754
10215DT     SC266428  41.034  56.121  60.599
10215DT     SC366429  40.792  56.187  60.805
10216DT     BB166430  41.305  55.597  60.811
10216DT     BB266431  41.477  55.851  60.621
10216DT     BB366432  41.558  55.992  60.749
10216DT     SC166433  41.323  56.097  60.796
10216DT     SC266434  41.313  56.293  60.707
10216DT     SC366435  41.106  56.174  60.927
10217DA     BB166436  41.874  55.869  60.500
10217DA     BB266437  41.879  56.235  60.513
10217DA     BB366438  41.950  56.302  60.703
10217DA     SC166439  41.667  56.313  60.832
10217DA     SC266440  41.508  56.487  60.913
10217DA     SC366441  41.402  56.297  61.049
10217DA     SC466442  41.617  56.182  60.911
10218DT     BB166443  42.140  56.404  60.731
10218DT     BB266444  42.004  56.733  60.791
10218DT     BB366445  42.024  56.783  60.991
10218DT     SC166446  41.828  56.622  61.058
10218DT     SC266447  41.659  56.738  61.122
10218DT     SC366448  41.700  56.420  61.170
10219DA     BB166449  42.216  57.109  60.805
10219DA     BB266450  41.977  57.248  61.045
10219DA     BB366451  42.054  57.233  61.244
10219DA     SC166452  41.928  56.953  61.298
10219DA     SC266453  41.746  56.857  61.439
10219DA     SC366454  41.866  56.633  61.403
10219DA     SC466455  42.017  56.824  61.265
10220DA     BB166456  42.009  57.561  61.269
10220DA     BB266457  41.764  57.492  61.533
10220DA     BB366458  41.864  57.455  61.719
10220DA     SC166459  41.885  57.148  61.674
10220DA     SC266460  41.786  56.940  61.770
10220DA     SC366461  41.989  56.821  61.668
10220DA     SC466462  42.019  57.092  61.605
10221DA     BB166463  41.668  57.695  61.826
10221DA     BB266464  41.513  57.445  62.044
10221DA     BB366465  41.636  57.409  62.215
10221DA     SC166466  41.795  57.177  62.082
10221DA     SC266467  41.816  56.930  62.107
10221DA     SC366468  42.040  56.957  61.984
10221DA     SC466469  41.932  57.215  62.006
10222DT     BB166470  41.561  57.462  62.394
10222DT     BB266471  41.480  57.128  62.502
10222DT     BB366472  41.615  57.065  62.646
10222DT     SC166473  41.802  57.028  62.465
10222DT     SC266474  41.839  56.817  62.443
10222DT     SC366475  42.028  57.056  62.332
10223DC     BB166476  41.412  57.085  62.815
10223DC     BB266477  41.518  56.741  62.837
10223DC     BB366478  41.676  56.725  62.970
10223DC     SC166479  41.843  56.831  62.797
10223DC     SC266480  41.981  56.680  62.730
10223DC     SC366481  42.014  57.000  62.689
10224DT     BB166482  41.500  56.600  63.123
10224DT     BB266483  41.772  56.366  63.081
10224DT     BB366484  41.922  56.407  63.217
10224DT     SC166485  42.000  56.616  63.080
10224DT     SC266486  42.191  56.577  62.991
10224DT     SC366487  42.051  56.868  63.018
10225DG     BB166488  41.803  56.021  63.268
10225DG     BB266489  42.162  56.045  63.235
10225DG     BB366490  42.242  56.110  63.406
10225DG     SC166491  42.222  56.406  63.330
10225DG     SC266492  42.452  56.590  63.279
10225DG     SC366493  42.197  56.740  63.287
10225DG     SC466494  42.088  56.487  63.364
10226DT     BB166495  42.382  55.986  63.530
10226DT     BB266496  42.699  56.148  63.471
10226DT     BB366497  42.752  56.261  63.636
10226DT     SC166498  42.576  56.446  63.576
10226DT     SC266499  42.678  56.624  63.513
10226DT     SC366500  42.365  56.603  63.595
10227DT     BB166501  42.950  56.083  63.723
10227DT     BB266502  43.125  56.397  63.695
10227DT     BB366503  43.116  56.499  63.875
10227DT     SC166504  42.865  56.564  63.834
10227DT     SC266505  42.851  56.775  63.797
10227DT     SC366506  42.604  56.578  63.867
10228DA     BB166507  43.530  56.485  63.803
10228DA     BB266508  43.448  56.832  63.886
10228DA     BB366509  43.422  56.854  64.097
10228DA     SC166510  43.116  56.796  64.089
10228DA     SC266511  42.904  56.923  64.123
10228DA     SC366512  42.797  56.692  64.160
10228DA     SC466513  43.068  56.644  64.110
10229DA     BB166514  43.652  57.090  64.077
10229DA     BB266515  43.398  57.328  64.194
10229DA     BB366516  43.376  57.314  64.406
10229DA     SC166517  43.152  57.099  64.393
10229DA     SC266518  42.907  57.084  64.440
10229DA     SC366519  42.946  56.831  64.454
10229DA     SC466520  43.196  56.945  64.400
10230DG     BB166521  43.463  57.612  64.405
10230DG     BB266522  43.127  57.665  64.528
10230DG     BB366523  43.122  57.638  64.725
10230DG     SC166524  43.061  57.339  64.708
10230DG     SC266525  42.807  57.206  64.793
10230DG     SC366526  43.014  57.005  64.726
10230DG     SC466527  43.182  57.235  64.700
10231DT     BB166528  43.066  57.805  64.860
10231DT     BB266529  42.732  57.711  64.957
10231DT     BB366530  42.732  57.638  65.151
10231DT     SC166531  42.841  57.412  65.073
10231DT     SC266532  42.696  57.253  65.092
10231DT     SC366533  43.015  57.215  65.049
10232DC     BB166534  42.605  57.862  65.211
10232DC     BB266535  42.387  57.595  65.320
10232DC     BB366536  42.445  57.528  65.507
10232DC     SC166537  42.652  57.402  65.405
10232DC     SC266538  42.620  57.190  65.420
10232DC     SC366539  42.902  57.335  65.355
10233DA     BB166540  42.035  57.611  65.516
10233DA     BB266541  42.087  57.280  65.663
10233DA     BB366542  42.177  57.298  65.856
10233DA     SC166543  42.468  57.282  65.747
10233DA     SC266544  42.659  57.121  65.753
10233DA     SC366545  42.805  57.324  65.694
10233DA     SC466546  42.542  57.420  65.712
10234DT     BB166547  42.069  57.241  66.009
10234DT     BB266548  42.246  56.935  66.078
10234DT     BB366549  42.369  56.960  66.243
10234DT     SC166550  42.540  57.100  66.103
10234DT     SC266551  42.721  56.987  66.077
10234DT     SC366552  42.687  57.304  66.022
10235DT     BB166553  42.200  56.802  66.377
10235DT     BB266554  42.521  56.641  66.406
10235DT     BB366555  42.628  56.723  66.564
10235DT     SC166556  42.680  56.940  66.426
10235DT     SC266557  42.889  56.946  66.378
10235DT     SC366558  42.682  57.194  66.354
10236DT     BB166559  42.587  56.493  66.693
10236DT     BB266560  42.945  56.534  66.688
10236DT     BB366561  43.005  56.654  66.846
10236DT     SC166562  42.916  56.870  66.725
10236DT     SC266563  43.083  56.992  66.666
10236DT     SC366564  42.773  57.086  66.677
10237DA     BB166565  43.236  56.304  66.840
10237DA     BB266566  43.463  56.590  66.879
10237DA     BB366567  43.442  56.675  67.073
10237DA     SC166568  43.221  56.877  66.988
10237DA     SC266569  43.198  57.123  66.958
10237DA     SC366570  42.945  57.081  66.978
10237DA     SC466571  43.068  56.830  67.005
10238DT     BB166572  43.597  56.659  67.187
10238DT     BB266573  43.698  57.006  67.181
10238DT     BB366574  43.638  57.100  67.355
10238DT     SC166575  43.388  57.107  67.275
10238DT     SC266576  43.332  57.310  67.233
10238DT     SC366577  43.129  57.060  67.267
10239DA     BB166578  44.049  57.183  67.320
10239DA     BB266579  43.880  57.497  67.402
10239DA     BB366580  43.818  57.498  67.606
10239DA     SC166581  43.538  57.376  67.547
10239DA     SC266582  43.300  57.450  67.552
10239DA     SC366583  43.244  57.200  67.562
10239DA     SC466584  43.523  57.216  67.555
10240DA     BB166585  43.990  57.784  67.651
10240DA     BB266586  43.675  57.945  67.747
10240DA     BB366587  43.625  57.897  67.949
10240DA     SC166588  43.459  57.645  67.873
10240DA     SC266589  43.220  57.574  67.874
10240DA     SC366590  43.312  57.335  67.867
10240DA     SC466591  43.536  57.503  67.870
10241DA     BB166592  43.610  58.225  68.050
10241DA     BB266593  43.256  58.177  68.131
10241DA     BB366594  43.235  58.094  68.326
10241DA     SC166595  43.240  57.799  68.228
10241DA     SC266596  43.081  57.608  68.208
10241DA     SC366597  43.290  57.460  68.197
10241DA     SC466598  43.382  57.724  68.224
10242DG     BB166599  43.075  58.349  68.448
10242DG     BB266600  42.799  58.117  68.470
10242DG     BB366601  42.800  58.027  68.648
10242DG     SC166602  42.979  57.795  68.558
10242DG     SC266603  42.897  57.509  68.535
10242DG     SC366604  43.189  57.538  68.498
10242DG     SC466605  43.138  57.811  68.568
10243DT     BB166606  42.629  58.043  68.818
10243DT     BB266607  42.465  57.726  68.770
10243DT     BB366608  42.504  57.601  68.930
10243DT     SC166609  42.749  57.557  68.845
10243DT     SC266610  42.766  57.354  68.777
10243DT     SC366611  43.013  57.555  68.839
10244DA     BB166612  42.092  57.614  68.860
10244DA     BB266613  42.194  57.263  68.875
10244DA     BB366614  42.240  57.207  69.076
10244DA     SC166615  42.542  57.281  69.053
10244DA     SC266616  42.761  57.163  69.047
10244DA     SC366617  42.862  57.389  69.115
10244DA     SC466618  42.585  57.430  69.097
10245DT     BB166619  42.124  57.079  69.133
10245DT     BB266620  42.354  56.801  69.120
10245DT     BB366621  42.430  56.764  69.308
10245DT     SC166622  42.586  56.974  69.296
10245DT     SC266623  42.791  56.910  69.281
10245DT     SC366624  42.691  57.209  69.353
10246DT     BB166625  42.284  56.546  69.291
10246DT     BB266626  42.621  56.431  69.351
10246DT     BB366627  42.664  56.442  69.553
10246DT     SC166628  42.689  56.703  69.541
10246DT     SC266629  42.896  56.757  69.569
10246DT     SC366630  42.644  56.960  69.584
10247DA     BB166631  42.761  56.056  69.420
10247DA     BB266632  43.042  56.181  69.620
10247DA     BB366633  42.989  56.187  69.827
10247DA     SC166634  42.882  56.479  69.815
10247DA     SC266635  42.949  56.704  69.901
10247DA     SC366636  42.703  56.769  69.863
10247DA     SC466637  42.725  56.500  69.786
10248DA     BB166638  43.261  56.002  69.875
10248DA     BB266639  43.388  56.271  70.088
10248DA     BB366640  43.292  56.266  70.279
10248DA     SC166641  43.062  56.458  70.195
10248DA     SC266642  42.989  56.691  70.245
10248DA     SC366643  42.760  56.616  70.157
10248DA     SC466644  42.927  56.392  70.138
10249DT     BB166645  43.390  56.211  70.480
10249DT     BB266646  43.404  56.547  70.610
10249DT     BB366647  43.271  56.568  70.767
10249DT     SC166648  43.066  56.574  70.603
10249DT     SC266649  42.982  56.772  70.601
10249DT     SC366650  42.842  56.504  70.483
10250DA     BB166651  43.631  56.689  70.949
10250DA     BB266652  43.383  56.952  71.013
10250DA     BB366653  43.252  56.894  71.171
10250DA     SC166654  43.044  56.761  70.981
10250DA     SC266655  42.812  56.805  70.902
10250DA     SC366656  42.807  56.556  70.841
10250DA     SC466657  43.060  56.604  70.952
10251DA     BB166658  43.346  57.175  71.310
10251DA     BB266659  42.999  57.288  71.272
10251DA     BB366660  42.878  57.208  71.429
10251DA     SC166661  42.799  56.952  71.271
10251DA     SC266662  42.595  56.856  71.164
10251DA     SC366663  42.717  56.631  71.180
10251DA     SC466664  42.891  56.821  71.291
10252DA     BB166665  42.822  57.526  71.437
10252DA     BB266666  42.476  57.442  71.352
10252DA     BB366667  42.376  57.358  71.521
10252DA     SC166668  42.452  57.064  71.451
10252DA     SC266669  42.336  56.858  71.372
10252DA     SC366670  42.541  56.733  71.464
10252DA     SC466671  42.586  57.005  71.515
10253DA     BB166672  42.195  57.597  71.399
10253DA     BB266673  41.939  57.339  71.348
10253DA     BB366674  41.863  57.273  71.536
10253DA     SC166675  42.071  57.043  71.567
10253DA     SC266676  42.073  56.794  71.562
10253DA     SC366677  42.295  56.814  71.689
10253DA     SC466678  42.207  57.077  71.647
10254DA     BB166679  41.613  57.347  71.339
10254DA     BB266680  41.506  57.000  71.391
10254DA     BB366681  41.447  56.971  71.594
10254DA     SC166682  41.730  56.886  71.690
10254DA     SC266683  41.843  56.678  71.770
10254DA     SC366684  42.017  56.837  71.872
10254DA     SC466685  41.826  57.001  71.748
10255DT     BB166686  41.269  56.931  71.603
10255DT     BB266687  41.301  56.583  71.693
10255DT     BB366688  41.281  56.561  71.898
10255DT     SC166689  41.521  56.659  71.940
10255DT     SC266690  41.650  56.502  72.011
10255DT     SC366691  41.712  56.820  72.025
10256DT     BB166692  41.041  56.449  71.854
10256DT     BB266693  41.220  56.206  72.051
10256DT     BB366694  41.201  56.251  72.253
10256DT     SC166695  41.370  56.450  72.232
10256DT     SC266696  41.552  56.401  72.336
10256DT     SC366697  41.465  56.696  72.234
10257DT     BB166698  41.023  56.043  72.300
10257DT     BB266699  41.286  55.987  72.540
10257DT     BB366700  41.245  56.089  72.716
10257DT     SC166701  41.308  56.319  72.606
10257DT     SC266702  41.491  56.392  72.694
10257DT     SC366703  41.284  56.565  72.514
10258DT     BB166704  41.176  55.859  72.859
10258DT     BB266705  41.437  56.009  73.057
10258DT     BB366706  41.355  56.140  73.195
10258DT     SC166707  41.309  56.319  73.008
10258DT     SC266708  41.440  56.487  73.036
10258DT     SC366709  41.177  56.480  72.847
10259DT     BB166710  41.399  55.971  73.413
10259DT     BB266711  41.570  56.276  73.503
10259DT     BB366712  41.441  56.402  73.605
10259DT     SC166713  41.315  56.465  73.384
10259DT     SC266714  41.357  56.669  73.333
10259DT     SC366715  41.120  56.487  73.207
10260DA     BB166716  41.786  56.363  73.838
10260DA     BB266717  41.712  56.721  73.806
10260DA     BB366718  41.545  56.773  73.928
10260DA     SC166719  41.335  56.722  73.704
10260DA     SC266720  41.181  56.856  73.561
10260DA     SC366721  41.054  56.636  73.527
10260DA     SC466722  41.269  56.575  73.696
10261DA     BB166723  41.765  56.991  74.030
10261DA     BB266724  41.533  57.250  73.914
10261DA     BB366725  41.368  57.267  74.048
10261DA     SC166726  41.192  57.059  73.898
10261DA     SC266727  40.985  57.059  73.759
10261DA     SC366728  40.972  56.809  73.816
10261DA     SC466729  41.201  56.906  73.946
10262DT     BB166730  41.360  57.434  74.136
10262DT     BB266731  41.079  57.569  73.955
10262DT     BB366732  40.907  57.551  74.068
10262DT     SC166733  40.893  57.293  74.021
10262DT     SC266734  40.725  57.253  73.893
10262DT     SC366735  40.891  57.033  74.064
10263DG     BB166736  40.958  57.944  73.973
10263DG     BB266737  40.626  57.829  73.888
10263DG     BB366738  40.514  57.816  74.052
10263DG     SC166739  40.592  57.526  74.112
10263DG     SC266740  40.409  57.290  74.101
10263DG     SC366741  40.670  57.216  74.219
10263DG     SC466742  40.721  57.497  74.201
10264DC     BB166743  40.335  57.940  74.074
10264DC     BB266744  40.072  57.699  74.026
10264DC     BB366745  39.990  57.646  74.208
10264DC     SC166746  40.198  57.499  74.269
10264DC     SC266747  40.142  57.292  74.267
10264DC     SC366748  40.414  57.414  74.395
10265DT     BB166749  39.764  57.788  74.151
10265DT     BB266750  39.645  57.454  74.222
10265DT     BB366751  39.613  57.432  74.425
10265DT     SC166752  39.871  57.418  74.472
10265DT     SC266753  39.921  57.218  74.534
10265DT     SC366754  40.110  57.480  74.565
10266DT     BB166755  39.343  57.435  74.387
10266DT     BB266756  39.406  57.124  74.559
10266DT     BB366757  39.405  57.155  74.764
10266DT     SC166758  39.640  57.271  74.756
10266DT     SC266759  39.785  57.143  74.851
10266DT     SC366760  39.826  57.456  74.777
10267DT     BB166761  39.164  57.027  74.787
10267DT     BB266762  39.383  56.846  75.009
10267DT     BB366763  39.383  56.935  75.196
10267DT     SC166764  39.531  57.134  75.111
10267DT     SC266765  39.727  57.120  75.199
10267DT     SC366766  39.605  57.379  75.047
10268DT     BB166767  39.240  56.726  75.295
10268DT     BB266768  39.535  56.739  75.502
10268DT     BB366769  39.506  56.872  75.658
10268DT     SC166770  39.532  57.078  75.499
10268DT     SC266771  39.716  57.180  75.545
10268DT     SC366772  39.473  57.298  75.366
10269DA     BB166773  39.639  56.510  75.824
10269DA     BB266774  39.840  56.781  75.969
10269DA     BB366775  39.724  56.893  76.108
10269DA     SC166776  39.622  57.097  75.897
10269DA     SC266777  39.656  57.338  75.842
10269DA     SC366778  39.434  57.319  75.715
10269DA     SC466779  39.483  57.065  75.824
10270DT     BB166780  39.774  56.887  76.307
10270DT     BB266781  39.915  57.219  76.328
10270DT     BB366782  39.783  57.345  76.426
10270DT     SC166783  39.626  57.357  76.216
10270DT     SC266784  39.636  57.554  76.130
10270DT     SC366785  39.412  57.330  76.064
10271DT     BB166786  39.940  57.351  76.652
10271DT     BB266787  39.905  57.699  76.561
10271DT     BB366788  39.735  57.778  76.649
10271DT     SC166789  39.579  57.652  76.479
10271DT     SC266790  39.488  57.796  76.347
10271DT     SC366791  39.396  57.487  76.386
10272DT     BB166792  39.880  57.925  76.835
10272DT     BB266793  39.677  58.171  76.666
10272DT     BB366794  39.495  58.191  76.763
10272DT     SC166795  39.409  57.963  76.666
10272DT     SC266796  39.254  58.001  76.522
10272DT     SC366797  39.323  57.714  76.656
10273DG     BB166798  39.657  58.566  76.780
10273DG     BB266799  39.324  58.576  76.642
10273DG     BB366800  39.189  58.571  76.788
10273DG     SC166801  39.170  58.265  76.793
10273DG     SC266802  38.931  58.103  76.716
10273DG     SC366803  39.139  57.933  76.840
10273DG     SC466804  39.271  58.183  76.886
10274DA     BB166805  39.042  58.857  76.655
10274DA     BB266806  38.727  58.675  76.604
10274DA     BB366807  38.619  58.661  76.788
10274DA     SC166808  38.748  58.390  76.870
10274DA     SC266809  38.678  58.152  76.894
10274DA     SC366810  38.885  58.127  77.044
10274DA     SC466811  38.881  58.395  76.961
10275DA     BB166812  38.385  58.793  76.602
10275DA     BB266813  38.189  58.490  76.666
10275DA     BB366814  38.108  58.494  76.863
10275DA     SC166815  38.352  58.350  76.993
10275DA     SC266816  38.401  58.129  77.097
10275DA     SC366817  38.602  58.248  77.205
10275DA     SC466818  38.470  58.442  77.052
10276DT     BB166819  37.910  58.505  76.880
10276DT     BB266820  37.856  58.163  76.982
10276DT     BB366821  37.814  58.156  77.184
10276DT     SC166822  38.066  58.199  77.245
10276DT     SC266823  38.151  58.021  77.330
10276DT     SC366824  38.281  58.318  77.342
10277DA     BB166825  37.519  57.942  76.978
10277DA     BB266826  37.639  57.733  77.254
10277DA     BB366827  37.567  57.808  77.441
10277DA     SC166828  37.814  57.991  77.489
10277DA     SC266829  38.009  58.001  77.644
10277DA     SC366830  38.023  58.248  77.579
10277DA     SC466831  37.804  58.143  77.437
10278DA     BB166832  37.470  57.496  77.459
10278DA     BB266833  37.677  57.470  77.761
10278DA     BB366834  37.584  57.572  77.923
10278DA     SC166835  37.724  57.844  77.865
10278DA     SC266836  37.898  57.988  77.970
10278DA     SC366837  37.798  58.177  77.829
10278DA     SC466838  37.646  57.948  77.771
10279DG     BB166839  37.592  57.291  78.055
10279DG     BB266840  37.808  57.456  78.293
10279DG     BB366841  37.698  57.555  78.426
10279DG     SC166842  37.691  57.815  78.264
10279DG     SC266843  37.820  58.073  78.340
10279DG     SC366844  37.646  58.108  78.103
10279DG     SC466845  37.574  57.836  78.156
10280DA     BB166846  37.878  57.391  78.675
10280DA     BB266847  37.988  57.712  78.813
10280DA     BB366848  37.830  57.804  78.922
10280DA     SC166849  37.719  57.961  78.677
10280DA     SC266850  37.705  58.197  78.600
10280DA     SC366851  37.516  58.115  78.447
10280DA     SC466852  37.603  57.891  78.590
10281DC     BB166853  37.836  57.830  79.136
10281DC     BB266854  37.892  58.186  79.137
10281DC     BB366855  37.721  58.285  79.200
10281DC     SC166856  37.603  58.242  78.969
10281DC     SC266857  37.583  58.428  78.863
10281DC     SC366858  37.430  58.151  78.793
10282DG     BB166859  38.012  58.397  79.464
10282DG     BB266860  37.845  58.685  79.323
10282DG     BB366861  37.669  58.713  79.413
10282DG     SC166862  37.514  58.536  79.217
10282DG     SC266863  37.306  58.629  79.024
10282DG     SC366864  37.315  58.333  79.034
10282DG     SC466865  37.501  58.379  79.248
10283DA     BB166866  37.768  59.042  79.470
10283DA     BB266867  37.480  59.162  79.277
10283DA     BB366868  37.302  59.146  79.392
10283DA     SC166869  37.233  58.859  79.293
10283DA     SC266870  37.062  58.750  79.147
10283DA     SC366871  37.128  58.534  79.268
10283DA     SC466872  37.287  58.736  79.380
10284DA     BB166873  37.278  59.465  79.315
10284DA     BB266874  36.964  59.381  79.146
10284DA     BB366875  36.808  59.349  79.288
10284DA     SC166876  36.862  59.044  79.314
10284DA     SC266877  36.749  58.830  79.251
10284DA     SC366878  36.899  58.722  79.429
10284DA     SC466879  36.963  58.995  79.430
10285DT     BB166880  36.653  59.478  79.294
10285DT     BB266881  36.410  59.260  79.141
10285DT     BB366882  36.280  59.187  79.285
10285DT     SC166883  36.462  59.022  79.376
10285DT     SC266884  36.406  58.820  79.328
10285DT     SC366885  36.634  58.909  79.541
10286DT     BB166886  36.076  59.347  79.195
10286DT     BB266887  35.943  59.012  79.176
10286DT     BB366888  35.857  58.960  79.357
10286DT     SC166889  36.092  58.927  79.468
10286DT     SC266890  36.124  58.718  79.507
10286DT     SC366891  36.297  58.963  79.630
10287DT     BB166892  35.601  58.981  79.256
10287DT     BB266893  35.620  58.643  79.381
10287DT     BB366894  35.567  58.638  79.581
10287DT     SC166895  35.795  58.745  79.653
10287DT     SC266896  35.913  58.597  79.758
10287DT     SC366897  35.968  58.917  79.753
10288DA     BB166898  35.326  58.351  79.391
10288DA     BB266899  35.483  58.192  79.682
10288DA     BB366900  35.390  58.257  79.862
10288DA     SC166901  35.584  58.497  79.904
10288DA     SC266902  35.767  58.561  80.061
10288DA     SC366903  35.723  58.801  79.982
10288DA     SC466904  35.541  58.639  79.843
10289DA     BB166905  35.358  57.935  79.904
10289DA     BB266906  35.572  57.973  80.199
10289DA     BB366907  35.461  58.057  80.361
10289DA     SC166908  35.530  58.351  80.288
10289DA     SC266909  35.667  58.538  80.382
10289DA     SC366910  35.520  58.691  80.237
10289DA     SC466911  35.427  58.430  80.192
10290DA     BB166912  35.593  57.789  80.490
10290DA     BB266913  35.768  58.016  80.718
10290DA     BB366914  35.633  58.096  80.863
10290DA     SC166915  35.559  58.345  80.692
10290DA     SC266916  35.596  58.591  80.698
10290DA     SC366917  35.395  58.606  80.540
10290DA     SC466918  35.431  58.333  80.595
10291DC     BB166919  35.684  58.040  81.024
10291DC     BB266920  35.820  58.355  81.136
10291DC     BB366921  35.681  58.455  81.252
10291DC     SC166922  35.540  58.520  81.041
10291DC     SC266923  35.556  58.732  81.007
10291DC     SC366924  35.339  58.534  80.871
10292DT     BB166925  35.850  58.399  81.445
10292DT     BB266926  35.817  58.758  81.447
10292DT     BB366927  35.647  58.813  81.551
10292DT     SC166928  35.492  58.737  81.353
10292DT     SC266929  35.403  58.911  81.262
10292DT     SC366930  35.310  58.604  81.217
10293DT     BB166931  35.812  58.903  81.740
10293DT     BB266932  35.606  59.187  81.653
10293DT     BB366933  35.429  59.181  81.760
10293DT     SC166934  35.335  58.988  81.609
10293DT     SC266935  35.174  59.064  81.488
10293DT     SC366936  35.245  58.751  81.537
10294DA     BB166937  35.595  59.561  81.815
10294DA     BB266938  35.241  59.605  81.732
10294DA     BB366939  35.118  59.551  81.897
10294DA     SC166940  35.090  59.254  81.809
10294DA     SC266941  34.911  59.104  81.721
10294DA     SC366942  35.060  58.912  81.802
10294DA     SC466943  35.196  59.148  81.868
10295DA     BB166944  34.998  59.852  81.847
10295DA     BB266945  34.672  59.694  81.790
10295DA     BB366946  34.586  59.633  81.975
10295DA     SC166947  34.712  59.348  81.968
10295DA     SC266948  34.634  59.113  81.939
10295DA     SC366949  34.856  59.048  82.051
10295DA     SC466950  34.854  59.328  82.041
10296DC     BB166951  34.418  59.726  82.037
10296DC     BB266952  34.189  59.455  81.972
10296DC     BB366953  34.134  59.365  82.150
10296DC     SC166954  34.367  59.246  82.171
10296DC     SC266955  34.341  59.034  82.142
10296DC     SC366956  34.604  59.179  82.266
10297DT     BB166957  33.889  59.475  82.123
10297DT     BB266958  33.825  59.121  82.156
10297DT     BB366959  33.813  59.070  82.356
10297DT     SC166960  34.073  59.089  82.385
10297DT     SC266961  34.156  58.893  82.415
10297DT     SC366962  34.307  59.174  82.470
10298DT     BB166963  33.548  59.036  82.322
10298DT     BB266964  33.661  58.722  82.458
10298DT     BB366965  33.666  58.732  82.665
10298DT     SC166966  33.883  58.879  82.660
10298DT     SC266967  34.049  58.765  82.736
10298DT     SC366968  34.043  59.086  82.694
10299DT     BB166969  33.446  58.572  82.680
10299DT     BB266970  33.688  58.406  82.890
10299DT     BB366971  33.679  58.483  83.082
10299DT     SC166972  33.802  58.703  83.008
10299DT     SC266973  33.999  58.707  83.094
10299DT     SC366974  33.845  58.958  82.959
10300DG     BB166975  33.588  58.088  83.154
10300DG     BB266976  33.844  58.199  83.384
10300DG     BB366977  33.761  58.296  83.536
10300DG     SC166978  33.774  58.570  83.401
10300DG     SC266979  33.942  58.801  83.487
10300DG     SC366980  33.754  58.882  83.274
10300DG     SC466981  33.652  58.617  83.308
10301DT     BB166982  33.732  58.243  83.804
10301DT     BB266983  33.969  58.475  83.945
10301DT     BB366984  33.870  58.622  84.051
10301DT     SC166985  33.791  58.740  83.830
10301DT     SC266986  33.894  58.928  83.809
10301DT     SC366987  33.632  58.834  83.642
10302DA     BB166988  34.110  58.488  84.377
10302DA     BB266989  34.146  58.853  84.367
10302DA     BB366990  33.980  58.947  84.462
10302DA     SC166991  33.811  58.968  84.201
10302DA     SC266992  33.731  59.148  84.048
10302DA     SC366993  33.557  58.976  83.971
10302DA     SC466994  33.710  58.848  84.168
10303DA     BB166995  34.182  59.112  84.677
10303DA     BB266996  34.071  59.426  84.525
10303DA     BB366997  33.888  59.491  84.614
10303DA     SC166998  33.707  59.341  84.411
10303DA     SC266999  33.551  59.400  84.224
10303DA     SC367000  33.454  59.165  84.259
10303DA     SC467001  33.659  59.193  84.449
10304DA     BB167002  34.050  59.772  84.674
10304DA     BB267003  33.811  59.938  84.451
10304DA     BB367004  33.629  59.977  84.554
10304DA     SC167005  33.497  59.706  84.474
10304DA     SC267006  33.312  59.628  84.326
10304DA     SC367007  33.316  59.414  84.469
10304DA     SC467008  33.514  59.582  84.575
10305DA     BB167009  33.692  60.279  84.447
10305DA     BB267010  33.380  60.256  84.255
10305DA     BB367011  33.212  60.283  84.384
10305DA     SC167012  33.181  59.980  84.447
10305DA     SC267013  33.021  59.796  84.396
10305DA     SC367014  33.124  59.677  84.599
10305DA     SC467015  33.257  59.923  84.577
10306DG     BB167016  33.161  60.520  84.193
10306DG     BB267017  32.866  60.328  84.109
10306DG     BB367018  32.724  60.358  84.245
10306DG     SC167019  32.814  60.128  84.426
10306DG     SC267020  32.660  59.878  84.480
10306DG     SC367021  32.897  59.897  84.657
10306DG     SC467022  32.924  60.156  84.538
10307DA     BB167023  32.519  60.431  83.976
10307DA     BB267024  32.295  60.158  84.074
10307DA     BB367025  32.177  60.215  84.243
10307DA     SC167026  32.380  60.107  84.452
10307DA     SC267027  32.394  59.920  84.617
10307DA     SC367028  32.577  60.061  84.730
10307DA     SC467029  32.491  60.210  84.508
10308DC     BB167030  31.971  60.239  84.223
10308DC     BB267031  31.877  59.936  84.395
10308DC     BB367032  31.800  59.982  84.582
10308DC     SC167033  32.040  60.035  84.676
10308DC     SC267034  32.096  59.883  84.817
10308DC     SC367035  32.242  60.170  84.778
10309DT     BB167036  31.544  59.921  84.503
10309DT     BB267037  31.604  59.705  84.785
10309DT     BB367038  31.552  59.801  84.961
10309DT     SC167039  31.766  59.953  84.951
10309DT     SC267040  31.900  59.896  85.109
10309DT     SC367041  31.916  60.169  84.934
10310DT     BB167042  31.335  59.638  84.985
10310DT     BB267043  31.525  59.585  85.287
10310DT     BB367044  31.471  59.724  85.430
10310DT     SC167045  31.602  59.915  85.307
10310DT     SC267046  31.774  59.970  85.424
10310DT     SC367047  31.650  60.139  85.176
10311DG     BB167048  31.422  59.348  85.574
10311DG     BB267049  31.630  59.549  85.792
10311DG     BB367050  31.516  59.674  85.897
10311DG     SC167051  31.527  59.899  85.690
10311DG     SC267052  31.660  60.164  85.726
10311DG     SC367053  31.501  60.159  85.477
10311DG     SC467054  31.418  59.903  85.573
10312DA     BB167055  31.719  59.532  86.134
10312DA     BB267056  31.835  59.868  86.223
10312DA     BB367057  31.678  59.978  86.318
10312DA     SC167058  31.569  60.099  86.052
10312DA     SC267059  31.560  60.322  85.941
10312DA     SC367060  31.370  60.222  85.802
10312DA     SC467061  31.452  60.019  85.977
10313DG     BB167062  31.913  59.974  86.513
10313DG     BB267063  31.896  60.331  86.458
10313DG     BB367064  31.738  60.406  86.552
10313DG     SC167065  31.547  60.368  86.316
10313DG     SC267066  31.419  60.585  86.156
10313DG     SC367067  31.307  60.322  86.084
10313DG     SC467068  31.469  60.229  86.301
10314DA     BB167069  31.983  60.625  86.659
10314DA     BB267070  31.784  60.903  86.527
10314DA     BB367071  31.609  60.931  86.646
10314DA     SC167072  31.433  60.741  86.474
10314DA     SC267073  31.241  60.759  86.316
10314DA     SC367074  31.203  60.510  86.366
10314DA     SC467075  31.425  60.586  86.519
10315DG     BB167076  31.743  61.209  86.673
10315DG     BB267077  31.438  61.318  86.512
10315DG     BB367078  31.289  61.320  86.644
10315DG     SC167079  31.204  61.031  86.589
10315DG     SC267080  30.948  60.943  86.464
10315DG     SC367081  31.098  60.711  86.569
10315DG     SC467082  31.273  60.913  86.673
10316DT     BB167083  31.190  61.506  86.694
10316DT     BB267084  30.868  61.470  86.534
10316DT     BB367085  30.726  61.416  86.673
10316DT     SC167086  30.818  61.170  86.683
10316DT     SC267087  30.675  61.037  86.594
10316DT     SC367088  30.926  60.950  86.779
10317DA     BB167089  30.559  61.756  86.490
10317DA     BB267090  30.297  61.501  86.503
10317DA     BB367091  30.222  61.482  86.702
10317DA     SC167092  30.424  61.261  86.783
10317DA     SC267093  30.420  61.017  86.836
10317DA     SC367094  30.644  61.059  86.954
10317DA     SC467095  30.562  61.307  86.852
10318DT     BB167096  30.016  61.542  86.770
10318DT     BB267097  29.883  61.209  86.806
10318DT     BB367098  29.858  61.165  87.007
10318DT     SC167099  30.116  61.132  87.040
10318DT     SC267100  30.157  60.924  87.075
10318DT     SC367101  30.362  61.170  87.128
10319DG     BB167102  29.467  61.133  86.878
10319DG     BB267103  29.566  60.835  87.057
10319DG     BB367104  29.547  60.864  87.253
10319DG     SC167105  29.832  60.971  87.289
10319DG     SC267106  30.051  60.837  87.440
10319DG     SC367107  30.130  61.111  87.361
10319DG     SC467108  29.859  61.128  87.271
10320DT     BB167109  29.391  60.751  87.419
10320DT     BB267110  29.625  60.528  87.579
10320DT     BB367111  29.659  60.589  87.774
10320DT     SC167112  29.809  60.789  87.694
10320DT     SC267113  30.013  60.751  87.748
10320DT     SC367114  29.892  61.035  87.652
10321DA     BB167115  29.539  60.189  87.823
10321DA     BB267116  29.855  60.231  88.005
10321DA     BB367117  29.821  60.329  88.191
10321DA     SC167118  29.863  60.615  88.076
10321DA     SC267119  30.031  60.799  88.094
10321DA     SC367120  29.843  60.952  88.009
10321DA     SC467121  29.733  60.694  88.024
10322DG     BB167122  29.933  60.071  88.326
10322DG     BB267123  30.203  60.292  88.421
10322DG     BB367124  30.157  60.385  88.591
10322DG     SC167125  30.021  60.622  88.454
10322DG     SC267126  30.119  60.904  88.453
10322DG     SC367127  29.847  60.887  88.337
10322DG     SC467128  29.865  60.613  88.420
10323DT     BB167129  30.283  60.355  88.770
10323DT     BB267130  30.468  60.665  88.773
10323DT     BB367131  30.396  60.789  88.923
10323DT     SC167132  30.182  60.846  88.782
10323DT     SC267133  30.191  61.051  88.718
10323DT     SC367134  29.928  60.862  88.712
10324DA     BB167135  30.812  60.753  88.935
10324DA     BB267136  30.726  61.109  88.944
10324DA     BB367137  30.639  61.159  89.133
10324DA     SC167138  30.347  61.103  89.040
10324DA     SC267139  30.140  61.234  88.992
10324DA     SC367140  30.017  61.011  89.024
10324DA     SC467141  30.288  60.955  89.065
10325DA     BB167142  30.877  61.371  89.075
10325DA     BB267143  30.617  61.628  89.097
10325DA     BB367144  30.546  61.646  89.297
10325DA     SC167145  30.320  61.436  89.262
10325DA     SC267146  30.070  61.433  89.253
10325DA     SC367147  30.091  61.184  89.310
10325DA     SC467148  30.353  61.283  89.300
10326DC     BB167149  30.587  61.807  89.351
10326DC     BB267150  30.252  61.943  89.353
10326DC     BB367151  30.171  61.929  89.543
10326DC     SC167152  30.134  61.671  89.517
10326DC     SC267153  29.923  61.630  89.505
10326DC     SC367154  30.156  61.411  89.560
10327DT     BB167155  30.196  62.188  89.530
10327DT     BB267156  29.849  62.129  89.607
10327DT     BB367157  29.827  62.089  89.809
10327DT     SC167158  29.926  61.848  89.780
10327DT     SC267159  29.770  61.703  89.809
10327DT     SC367160  30.088  61.641  89.805
10328DC     BB167161  29.713  62.328  89.826
10328DC     BB267162  29.473  62.103  89.974
10328DC     BB367163  29.522  62.068  90.172
10328DC     SC167164  29.720  61.910  90.103
10328DC     SC267165  29.672  61.707  90.155
10328DC     SC367166  29.966  61.818  90.075
10329DA     BB167167  29.119  62.190  90.185
10329DA     BB267168  29.151  61.896  90.402
10329DA     BB367169  29.252  61.949  90.583
10329DA     SC167170  29.535  61.882  90.472
10329DA     SC267171  29.712  61.710  90.509
10329DA     SC367172  29.871  61.881  90.401
10329DA     SC467173  29.618  62.002  90.404
10330DC     BB167174  29.164  61.965  90.801
10330DC     BB267175  29.323  61.673  90.940
10330DC     BB367176  29.467  61.729  91.077
10330DC     SC167177  29.631  61.804  90.886
10330DC     SC267178  29.797  61.668  90.877
10330DC     SC367179  29.781  61.958  90.734
10331DT     BB167180  29.338  61.688  91.353
10331DT     BB267181  29.646  61.503  91.387
10331DT     BB367182  29.788  61.620  91.482
10331DT     SC167183  29.826  61.764  91.266
10331DT     SC267184  30.021  61.723  91.185
10331DT     SC367185  29.831  61.973  91.105
10332DA     BB167186  29.798  61.299  91.762
10332DA     BB267187  30.146  61.362  91.666
10332DA     BB367188  30.224  61.528  91.776
10332DA     SC167189  30.140  61.740  91.564
10332DA     SC267190  30.251  61.891  91.400
10332DA     SC367191  30.032  62.025  91.405
10332DA     SC467192  29.997  61.810  91.583
10333DC     BB167193  30.393  61.522  91.938
10333DC     BB267194  30.651  61.651  91.722
10333DC     BB367195  30.709  61.839  91.785
10333DC     SC167196  30.488  61.947  91.691
10333DC     SC267197  30.536  62.071  91.521
10333DC     SC367198  30.256  62.072  91.685
10334DA     BB167199  31.058  61.612  91.753
10334DA     BB267200  31.108  61.922  91.563
10334DA     BB367201  31.141  62.086  91.695
10334DA     SC167202  30.840  62.161  91.716
10334DA     SC267203  30.690  62.346  91.642
10334DA     SC367204  30.531  62.264  91.825
10334DA     SC467205  30.755  62.096  91.837
10335DA     BB167206  31.394  62.103  91.492
10335DA     BB267207  31.264  62.431  91.395
10335DA     BB367208  31.298  62.574  91.550
10335DA     SC167209  31.026  62.521  91.692
10335DA     SC267210  30.811  62.641  91.730
10335DA     SC367211  30.777  62.477  91.924
10335DA     SC467212  31.024  62.411  91.810
10336DG     BB167213  31.448  62.702  91.314
10336DG     BB267214  31.194  62.956  91.357
10336DG     BB367215  31.240  63.073  91.511
10336DG     SC167216  31.093  62.902  91.717
10336DG     SC267217  30.849  62.982  91.870
10336DG     SC367218  30.958  62.727  91.972
10336DG     SC467219  31.171  62.781  91.788
10337DA     BB167220  31.188  63.328  91.284
10337DA     BB267221  30.927  63.465  91.502
10337DA     BB367222  31.014  63.559  91.673
10337DA     SC167223  31.008  63.301  91.848
10337DA     SC267224  30.885  63.217  92.047
10337DA     SC367225  31.080  63.052  92.072
10337DA     SC467226  31.139  63.208  91.846
10338DA     BB167227  30.825  63.804  91.563
10338DA     BB267228  30.651  63.786  91.886
10338DA     BB367229  30.773  63.869  92.040
10338DA     SC167230  30.909  63.599  92.112
10338DA     SC267231  30.908  63.436  92.301
10338DA     SC367232  31.132  63.355  92.206
10338DA     SC467233  31.048  63.564  92.039
10339DA     BB167234  30.500  64.045  92.086
10339DA     BB267235  30.484  63.895  92.420
10339DA     BB367236  30.630  63.984  92.548
10339DA     SC167237  30.852  63.778  92.479
10339DA     SC267238  30.973  63.592  92.593
10339DA     SC367239  31.152  63.624  92.412
10339DA     SC467240  30.953  63.815  92.359
10340DA     BB167241  30.359  64.022  92.725
10340DA     BB267242  30.521  63.811  92.978
10340DA     BB367243  30.673  63.921  93.080
10340DA     SC167244  30.899  63.838  92.882
10340DA     SC267245  31.103  63.694  92.885
10340DA     SC367246  31.177  63.831  92.682
10340DA     SC467247  30.928  63.935  92.758
10341DT     BB167248  30.633  63.942  93.259
10341DT     BB267249  30.871  63.701  93.383
10341DT     BB367250  31.040  63.798  93.454
10341DT     SC167251  31.123  63.847  93.209
10341DT     SC267252  31.298  63.729  93.169
10341DT     SC367253  31.194  63.981  92.993
10342DT     BB167254  30.948  63.713  93.682
10342DT     BB267255  31.280  63.576  93.654
10342DT     BB367256  31.420  63.719  93.706
10342DT     SC167257  31.386  63.846  93.479
10342DT     SC267258  31.562  63.824  93.357
10342DT     SC367259  31.323  64.037  93.308
10343DC     BB167260  31.458  63.568  93.919
10343DC     BB267261  31.783  63.597  93.765
10343DC     BB367262  31.872  63.775  93.821
10343DC     SC167263  31.716  63.913  93.662
10343DC     SC267264  31.832  63.991  93.499
10343DC     SC367265  31.533  64.085  93.582
10344DC     BB167266  32.042  63.632  93.974
10344DC     BB267267  32.255  63.827  93.757
10344DC     BB367268  32.286  64.015  93.838
10344DC     SC167269  32.044  64.091  93.772
10344DC     SC267270  32.056  64.238  93.615
10344DC     SC367271  31.795  64.174  93.795
10345DA     BB167272  32.669  63.862  93.758
10345DA     BB267273  32.655  64.203  93.624
10345DA     BB367274  32.663  64.346  93.782
10345DA     SC167275  32.354  64.360  93.818
10345DA     SC267276  32.171  64.524  93.776
10345DA     SC367277  32.036  64.384  93.944
10345DA     SC467278  32.287  64.261  93.925
10346DC     BB167279  32.829  64.473  93.806
10346DC     BB267280  32.669  64.774  93.688
10346DC     BB367281  32.631  64.901  93.847
10346DC     SC167282  32.430  64.752  93.928
10346DC     SC267283  32.246  64.857  93.896
10346DC     SC367284  32.285  64.594  94.081
10347DA     BB167285  32.838  65.128  93.564
10347DA     BB267286  32.542  65.319  93.664
10347DA     BB367287  32.569  65.402  93.859
10347DA     SC167288  32.446  65.157  94.006
10347DA     SC267289  32.241  65.104  94.137
10347DA     SC367290  32.375  64.906  94.230
10347DA     SC467291  32.547  65.040  94.054
10348DC     BB167292  32.578  65.598  93.872
10348DC     BB267293  32.251  65.648  94.015
10348DC     BB367294  32.267  65.689  94.217
10348DC     SC167295  32.322  65.438  94.272
10348DC     SC267296  32.157  65.351  94.378
10348DC     SC367297  32.454  65.225  94.353
10349DA     BB167298  32.022  65.976  94.033
10349DA     BB267299  31.851  65.855  94.334
10349DA     BB367300  31.949  65.928  94.509
10349DA     SC167301  32.140  65.684  94.535
10349DA     SC267302  32.171  65.489  94.687
10349DA     SC367303  32.409  65.478  94.591
10349DA     SC467304  32.284  65.695  94.464
10350DA     BB167305  31.637  66.016  94.563
10350DA     BB267306  31.655  65.813  94.868
10350DA     BB367307  31.777  65.909  95.014
10350DA     SC167308  32.040  65.771  94.921
10350DA     SC267309  32.199  65.599  95.008
10350DA     SC367310  32.366  65.699  94.841
10350DA     SC467311  32.130  65.848  94.812
10351DG     BB167312  31.518  65.905  95.188
10351DG     BB267313  31.719  65.697  95.406
10351DG     BB367314  31.837  65.811  95.519
10351DG     SC167315  32.068  65.813  95.319
10351DG     SC267316  32.336  65.687  95.360
10351DG     SC367317  32.334  65.853  95.115
10351DG     SC467318  32.072  65.926  95.206
10352DA     BB167319  31.715  65.648  95.806
10352DA     BB267320  32.055  65.542  95.893
10352DA     BB367321  32.164  65.705  95.977
10352DA     SC167322  32.278  65.801  95.704
10352DA     SC267323  32.498  65.809  95.588
10352DA     SC367324  32.392  65.990  95.441
10352DA     SC467325  32.194  65.913  95.625
10353DA     BB167326  32.223  65.513  96.246
10353DA     BB267327  32.581  65.540  96.171
10353DA     BB367328  32.657  65.727  96.242
10353DA     SC167329  32.603  65.877  95.975
10353DA     SC267330  32.736  65.976  95.788
10353DA     SC367331  32.524  66.112  95.737
10353DA     SC467332  32.462  65.953  95.960
10354DC     BB167333  32.804  65.752  96.412
10354DC     BB267334  33.091  65.826  96.206
10354DC     BB367335  33.145  66.024  96.228
10354DC     SC167336  32.942  66.104  96.083
10354DC     SC267337  33.014  66.182  95.896
10354DC     SC367338  32.716  66.223  96.016
10355DT     BB167339  33.373  65.969  96.382
10355DT     BB267340  33.500  66.153  96.098
10355DT     BB367341  33.501  66.356  96.140
10355DT     SC167342  33.240  66.371  96.113
10355DT     SC267343  33.193  66.484  95.936
10355DT     SC367344  32.986  66.409  96.174
10356DT     BB167345  33.773  66.354  96.157
10356DT     BB267346  33.699  66.593  95.897
10356DT     BB367347  33.669  66.780  95.979
10356DT     SC167348  33.432  66.711  96.070
10356DT     SC267349  33.280  66.816  95.960
10356DT     SC367350  33.237  66.658  96.239
10357DC     BB167351  33.901  66.851  95.868
10357DC     BB267352  33.657  67.077  95.728
10357DC     BB367353  33.629  67.238  95.855
10357DC     SC167354  33.489  67.091  96.022
10357DC     SC267355  33.283  67.154  96.017
10357DC     SC367356  33.419  66.965  96.243
10358DT     BB167357  33.750  67.373  95.665
10358DT     BB267358  33.429  67.531  95.706
10358DT     BB367359  33.435  67.664  95.865
10358DT     SC167360  33.429  67.467  96.038
10358DT     SC267361  33.240  67.467  96.141
10358DT     SC367362  33.505  67.305  96.232
10359DA     BB167363  33.265  67.834  95.519
10359DA     BB267364  33.048  67.907  95.805
10359DA     BB367365  33.144  68.044  95.938
10359DA     SC167366  33.277  67.822  96.111
10359DA     SC267367  33.253  67.729  96.341
10359DA     SC367368  33.490  67.638  96.306
10359DA     SC467369  33.425  67.775  96.070
10360DT     BB167370  33.054  68.204  95.945
10360DT     BB267371  32.919  68.168  96.278
10360DT     BB367372  33.038  68.270  96.414
10360DT     SC167373  33.224  68.086  96.402
10360DT     SC267374  33.231  67.979  96.588
10360DT     SC367375  33.457  67.971  96.357
10361DC     BB167376  32.842  68.453  96.437
10361DC     BB267377  32.904  68.345  96.776
10361DC     BB367378  33.062  68.453  96.856
10361DC     SC167379  33.237  68.318  96.715
10361DC     SC267380  33.353  68.192  96.845
10361DC     SC367381  33.426  68.266  96.538
10362DA     BB167382  32.757  68.511  97.140
10362DA     BB267383  33.060  68.423  97.327
10362DA     BB367384  33.192  68.591  97.336
10362DA     SC167385  33.345  68.515  97.076
10362DA     SC267386  33.571  68.433  97.013
10362DA     SC367387  33.517  68.523  96.779
10362DA     SC467388  33.293  68.579  96.938
10363DA     BB167389  33.193  68.571  97.672
10363DA     BB267390  33.555  68.513  97.659
10363DA     BB367391  33.659  68.698  97.639
10363DA     SC167392  33.659  68.692  97.328
10363DA     SC267393  33.825  68.662  97.144
10363DA     SC367394  33.649  68.775  96.995
10363DA     SC467395  33.538  68.765  97.252
10364DT     BB167396  33.798  68.808  97.800
10364DT     BB267397  34.113  68.733  97.641
10364DT     BB367398  34.200  68.907  97.571
10364DT     SC167399  34.031  68.920  97.371
10364DT     SC267400  34.135  68.881  97.186
10364DT     SC367401  33.839  69.010  97.214
10365DT     BB167402  34.408  68.940  97.773
10365DT     BB267403  34.594  68.939  97.465
10365DT     BB367404  34.626  69.133  97.400
10365DT     SC167405  34.376  69.155  97.322
10365DT     SC267406  34.369  69.163  97.107
10365DT     SC367407  34.127  69.241  97.308
10366DA     BB167408  35.014  68.976  97.411
10366DA     BB267409  34.971  69.132  97.082
10366DA     BB367410  34.990  69.344  97.097
10366DA     SC167411  34.687  69.392  97.147
10366DA     SC267412  34.494  69.491  97.024
10366DA     SC367413  34.384  69.511  97.255
10366DA     SC467414  34.636  69.397  97.299
10367DT     BB167415  35.157  69.457  97.007
10367DT     BB267416  34.969  69.593  96.731
10367DT     BB367417  34.944  69.797  96.756
10367DT     SC167418  34.764  69.760  96.943
10367DT     SC267419  34.571  69.820  96.868
10367DT     SC367420  34.646  69.765  97.179
10368DT     BB167421  35.126  69.855  96.555
10368DT     BB267422  34.822  70.018  96.450
10368DT     BB367423  34.816  70.211  96.524
10368DT     SC167424  34.760  70.125  96.766
10368DT     SC267425  34.558  70.179  96.816
10368DT     SC367426  34.785  70.077  97.024
10369DT     BB167427  34.861  70.310  96.274
10369DT     BB267428  34.551  70.464  96.377
10369DT     BB367429  34.590  70.640  96.479
10369DT     SC167430  34.668  70.508  96.692
10369DT     SC267431  34.524  70.536  96.849
10369DT     SC367432  34.824  70.418  96.885
10370DA     BB167433  34.309  70.717  96.179
10370DA     BB267434  34.185  70.864  96.491
10370DA     BB367435  34.296  71.040  96.540
10370DA     SC167436  34.507  70.888  96.710
10370DA     SC267437  34.571  70.868  96.950
10370DA     SC367438  34.796  70.782  96.862
10370DA     SC467439  34.641  70.838  96.636
10371DT     BB167440  34.198  71.213  96.534
10371DT     BB267441  34.178  71.267  96.891
10371DT     BB367442  34.314  71.412  96.948
10371DT     SC167443  34.516  71.246  96.921
10371DT     SC267444  34.596  71.199  97.115
10371DT     SC367445  34.739  71.139  96.831
10372DA     BB167446  33.937  71.506  97.106
10372DA     BB267447  34.184  71.539  97.374
10372DA     BB367448  34.306  71.711  97.342
10372DA     SC167449  34.522  71.557  97.179
10372DA     SC267450  34.759  71.485  97.208
10372DA     SC367451  34.763  71.466  96.952
10372DA     SC467452  34.505  71.553  97.019
10373DT     BB167453  34.291  71.862  97.472
10373DT     BB267454  34.608  71.815  97.638
10373DT     BB367455  34.743  71.958  97.573
10373DT     SC167456  34.775  71.835  97.343
10373DT     SC267457  34.972  71.750  97.334
10373DT     SC367458  34.770  71.790  97.084
10374DA     BB167459  34.749  71.989  97.992
10374DA     BB267460  35.098  71.976  97.878
10374DA     BB367461  35.155  72.163  97.792
10374DA     SC167462  35.070  72.083  97.504
10374DA     SC267463  35.182  72.032  97.286
10374DA     SC367464  34.953  72.083  97.181
10374DA     SC467465  34.921  72.120  97.457
10375DT     BB167466  35.300  72.296  97.883
10375DT     BB267467  35.569  72.232  97.651
10375DT     BB367468  35.598  72.397  97.529
10375DT     SC167469  35.382  72.342  97.391
10375DT     SC267470  35.438  72.278  97.193
10375DT     SC367471  35.140  72.367  97.287
10376DA     BB167472  35.978  72.322  97.691
10376DA     BB267473  36.018  72.357  97.328
10376DA     BB367474  36.007  72.563  97.272
10376DA     SC167475  35.700  72.558  97.225
10376DA     SC267476  35.542  72.572  97.032
10376DA     SC367477  35.366  72.638  97.207
10376DA     SC467478  35.605  72.599  97.349
10377DT     BB167479  36.177  72.671  97.194
10377DT     BB267480  36.067  72.678  96.850
10377DT     BB367481  36.011  72.870  96.798
10377DT     SC167482  35.787  72.849  96.934
10377DT     SC267483  35.621  72.842  96.798
10377DT     SC367484  35.603  72.896  97.117
10378DT     BB167485  36.235  72.900  96.643
10378DT     BB267486  35.960  72.959  96.417
10378DT     BB367487  35.906  73.159  96.421
10378DT     SC167488  35.790  73.131  96.654
10378DT     SC267489  35.577  73.150  96.630
10378DT     SC367490  35.738  73.161  96.911
10379DA     BB167491  35.965  73.051  96.021
10379DA     BB267492  35.643  73.225  96.044
10379DA     BB367493  35.673  73.434  96.072
10379DA     SC167494  35.673  73.418  96.383
10379DA     SC267495  35.526  73.488  96.572
10379DA     SC367496  35.736  73.465  96.717
10379DA     SC467497  35.815  73.399  96.456
10380DT     BB167498  35.614  73.554  95.925
10380DT     BB267499  35.323  73.688  96.090
10380DT     BB367500  35.361  73.880  96.157
10380DT     SC167501  35.509  73.791  96.354
10380DT     SC267502  35.407  73.826  96.541
10380DT     SC367503  35.720  73.748  96.506
10381DA     BB167504  35.006  73.895  95.935
10381DA     BB267505  34.947  74.073  96.250
10381DA     BB367506  35.046  74.262  96.248
10381DA     SC167507  35.310  74.153  96.372
10381DA     SC267508  35.434  74.172  96.587
10381DA     SC367509  35.638  74.094  96.453
10381DA     SC467510  35.425  74.105  96.271
10382DA     BB167511  34.741  74.352  96.327
10382DA     BB267512  34.885  74.488  96.636
10382DA     BB367513  34.995  74.666  96.595
10382DA     SC167514  35.264  74.517  96.549
10382DA     SC267515  35.485  74.494  96.664
10382DA     SC367516  35.573  74.417  96.435
10382DA     SC467517  35.300  74.473  96.398
10383DA     BB167518  34.797  74.783  96.831
10383DA     BB267519  35.101  74.858  97.022
10383DA     BB367520  35.201  75.028  96.939
10383DA     SC167521  35.378  74.860  96.746
10383DA     SC267522  35.618  74.798  96.722
10383DA     SC367523  35.560  74.747  96.478
10383DA     SC467524  35.322  74.835  96.597
10384DG     BB167525  35.157  75.168  97.217
10384DG     BB267526  35.519  75.162  97.229
10384DG     BB367527  35.592  75.318  97.130
10384DG     SC167528  35.606  75.172  96.861
10384DG     SC267529  35.855  75.099  96.714
10384DG     SC367530  35.616  75.049  96.547
10384DG     SC467531  35.478  75.175  96.765
10385DT     BB167532  35.718  75.497  97.224
10385DT     BB267533  36.050  75.414  97.109
10385DT     BB367534  36.107  75.544  96.958
10385DT     SC167535  35.950  75.426  96.785
10385DT     SC267536  36.069  75.322  96.639
10385DT     SC367537  35.753  75.389  96.613
10386DA     BB167538  36.421  75.576  97.236
10386DA     BB267539  36.572  75.513  96.908
10386DA     BB367540  36.569  75.691  96.790
10386DA     SC167541  36.292  75.630  96.661
10386DA     SC267542  36.203  75.567  96.437
10386DA     SC367543  35.978  75.654  96.525
10386DA     SC467544  36.162  75.690  96.734
10387DG     BB167545  36.884  75.679  96.784
10387DG     BB267546  36.830  75.615  96.432
10387DG     BB367547  36.815  75.787  96.333
10387DG     SC167548  36.512  75.810  96.368
10387DG     SC267549  36.309  75.793  96.150
10387DG     SC367550  36.184  75.877  96.404
10387DG     SC467551  36.454  75.883  96.498
10388DT     BB167552  36.961  75.837  96.175
10388DT     BB267553  36.763  75.767  95.882
10388DT     BB367554  36.702  75.944  95.794
10388DT     SC167555  36.523  75.984  95.981
10388DT     SC267556  36.326  75.961  95.898
10388DT     SC367557  36.397  76.097  96.184
10389DA     BB167558  36.870  75.668  95.527
10389DA     BB267559  36.546  75.779  95.395
10389DA     BB367560  36.557  75.983  95.333
10389DA     SC167561  36.471  76.097  95.609
10389DA     SC267562  36.273  76.214  95.707
10389DA     SC367563  36.435  76.289  95.892
10389DA     SC467564  36.587  76.135  95.714
10390DT     BB167565  36.519  75.954  95.181
10390DT     BB267566  36.187  76.095  95.193
10390DT     BB367567  36.195  76.298  95.156
10390DT     SC167568  36.291  76.345  95.396
10390DT     SC267569  36.142  76.447  95.513
10390DT     SC367570  36.456  76.421  95.587
10391DT     BB167571  36.065  76.186  94.970
10391DT     BB267572  35.848  76.436  95.113
10391DT     BB367573  35.915  76.625  95.062
10391DT     SC167574  36.113  76.610  95.233
10391DT     SC267575  36.078  76.746  95.396
10391DT     SC367576  36.359  76.600  95.328
10392DT     BB167577  35.690  76.600  94.942
10392DT     BB267578  35.669  76.902  95.138
10392DT     BB367579  35.783  77.051  95.050
10392DT     SC167580  36.006  76.940  95.132
10392DT     SC267581  36.096  77.063  95.284
10392DT     SC367582  36.242  76.821  95.125
10393DA     BB167583  35.399  77.208  95.126
10393DA     BB267584  35.647  77.456  95.232
10393DA     BB367585  35.744  77.542  95.062
10393DA     SC167586  35.974  77.332  95.057
10393DA     SC267587  36.219  77.326  95.102
10393DA     SC367588  36.219  77.111  94.961
10393DA     SC467589  35.953  77.202  94.965
10394DA     BB167590  35.650  77.835  95.188
10394DA     BB267591  36.005  77.927  95.202
10394DA     BB367592  36.076  77.976  95.007
10394DA     SC167593  36.166  77.686  94.939
10394DA     SC267594  36.379  77.562  94.906
10394DA     SC367595  36.236  77.390  94.781
10394DA     SC467596  36.060  77.592  94.864
10395DC     BB167597  36.136  78.178  94.947
10395DC     BB267598  36.492  78.117  94.944
10395DC     BB367599  36.561  78.113  94.749
10395DC     SC167600  36.457  77.876  94.708
10395DC     SC267601  36.615  77.731  94.689
10395DC     SC367602  36.305  77.685  94.607
10396DT     BB167603  36.685  78.358  94.773
10396DT     BB267604  36.950  78.135  94.674
10396DT     BB367605  36.960  78.125  94.468
10396DT     SC167606  36.745  77.975  94.456
10396DT     SC267607  36.800  77.776  94.394
10396DT     SC367608  36.499  77.898  94.400
10397DT     BB167609  37.190  78.267  94.474
10397DT     BB267610  37.277  77.962  94.303
10397DT     BB367611  37.236  77.980  94.100
10397DT     SC167612  36.978  77.956  94.142
10397DT     SC267613  36.910  77.768  94.064
10397DT     SC367614  36.722  78.017  94.151
10398DT     BB167615  37.500  77.985  94.063
10398DT     BB267616  37.382  77.709  93.862
10398DT     BB367617  37.316  77.779  93.678
10398DT     SC167618  37.096  77.875  93.786
10398DT     SC267619  36.928  77.759  93.720
10398DT     SC367620  36.914  78.048  93.865
10399DT     BB167621  37.533  77.669  93.563
10399DT     BB267622  37.255  77.526  93.385
10399DT     BB367623  37.196  77.652  93.232
10399DT     SC167624  37.082  77.817  93.401
10399DT     SC267625  36.869  77.809  93.377
10399DT     SC367626  37.033  78.037  93.539
10400DG     BB167627  37.293  77.304  93.038
10400DG     BB267628  36.965  77.421  92.938
10400DG     BB367629  36.983  77.567  92.804
10400DG     SC167630  36.991  77.790  93.013
10400DG     SC267631  36.782  78.000  93.053
10400DG     SC367632  37.022  78.058  93.216
10400DG     SC467633  37.132  77.834  93.075
10401DT     BB167634  36.917  77.572  92.560
10401DT     BB267635  36.622  77.780  92.576
10401DT     BB367636  36.661  77.964  92.490
10401DT     SC167637  36.803  78.040  92.698
10401DT     SC267638  36.697  78.195  92.804
10401DT     SC367639  37.009  78.117  92.842
10402DT     BB167640  36.519  77.928  92.242
10402DT     BB267641  36.371  78.226  92.382
10402DT     BB367642  36.468  78.394  92.310
10402DT     SC167643  36.675  78.350  92.464
10402DT     SC267644  36.684  78.501  92.617
10402DT     SC367645  36.923  78.296  92.538
10403DT     BB167646  36.259  78.471  92.140
10403DT     BB267647  36.306  78.756  92.356
10403DT     BB367648  36.443  78.887  92.272
10403DT     SC167649  36.643  78.728  92.334
10403DT     SC267650  36.761  78.820  92.488
10403DT     SC367651  36.850  78.568  92.305
10404DC     BB167652  36.243  79.062  92.218
10404DC     BB267653  36.473  79.247  92.426
10404DC     BB367654  36.619  79.335  92.309
10404DC     SC167655  36.739  79.104  92.273
10404DC     SC267656  36.927  79.105  92.378
10404DC     SC367657  36.836  78.891  92.151
10405DT     BB167658  36.504  79.570  92.363
10405DT     BB267659  36.844  79.605  92.476
10405DT     BB367660  36.966  79.659  92.318
10405DT     SC167661  36.959  79.417  92.218
10405DT     SC267662  37.152  79.325  92.240
10405DT     SC367663  36.911  79.218  92.052
10406DT     BB167664  36.988  79.909  92.421
10406DT     BB267665  37.329  79.794  92.389
10406DT     BB367666  37.399  79.834  92.199
10406DT     SC167667  37.258  79.638  92.097
10406DT     SC267668  37.390  79.481  92.033
10406DT     SC367669  37.077  79.512  91.952
10407DT     BB167670  37.562  80.044  92.283
10407DT     BB267671  37.789  79.821  92.112
10407DT     BB367672  37.796  79.869  91.910
10407DT     SC167673  37.560  79.762  91.868
10407DT     SC267674  37.583  79.583  91.751
10407DT     SC367675  37.305  79.742  91.805
10408DT     BB167676  38.054  79.996  91.911
10408DT     BB267677  38.087  79.735  91.664
10408DT     BB367678  38.041  79.809  91.476
10408DT     SC167679  37.785  79.809  91.531
10408DT     SC267680  37.686  79.658  91.415
10408DT     SC367681  37.540  79.899  91.574
10409DT     BB167682  38.309  79.823  91.372
10409DT     BB267683  38.137  79.604  91.142
10409DT     BB367684  38.062  79.714  90.983
10409DT     SC167685  37.869  79.812  91.132
10409DT     SC267686  37.681  79.730  91.068
10409DT     SC367687  37.720  79.988  91.261
10410DT     BB167688  38.249  79.609  90.811
10410DT     BB267689  37.929  79.507  90.678
10410DT     BB367690  37.859  79.650  90.546
10410DT     SC167691  37.795  79.812  90.743
10410DT     SC267692  37.581  79.826  90.757
10410DT     SC367693  37.795  80.024  90.899
10411DG     BB167694  37.881  79.272  90.402
10411DG     BB267695  37.547  79.410  90.380
10411DG     BB367696  37.539  79.544  90.233
10411DG     SC167697  37.617  79.780  90.412
10411DG     SC267698  37.441  80.010  90.484
10411DG     SC367699  37.719  80.058  90.573
10411DG     SC467700  37.772  79.815  90.431
10412DA     BB167701  37.271  79.327  90.236
10412DA     BB267702  37.055  79.623  90.251
10412DA     BB367703  37.081  79.742  90.076
10412DA     SC167704  37.308  79.916  90.198
10412DA     SC267705  37.340  80.151  90.274
10412DA     SC367706  37.591  80.105  90.247
10412DA     SC467707  37.460  79.868  90.173
10413DT     BB167708  36.930  79.728  90.038
10413DT     BB267709  36.837  80.072  90.095
10413DT     BB367710  36.888  80.188  89.930
10413DT     SC167711  37.142  80.180  89.995
10413DT     SC267712  37.205  80.376  90.059
10413DT     SC367713  37.401  80.129  89.980
10414DG     BB167714  36.495  80.228  90.036
10414DG     BB267715  36.656  80.547  89.985
10414DG     BB367716  36.689  80.576  89.791
10414DG     SC167717  36.965  80.446  89.793
10414DG     SC267718  37.226  80.585  89.746
10414DG     SC367719  37.263  80.291  89.755
10414DG     SC467720  36.977  80.288  89.768
10415DG     BB167721  36.509  80.855  89.800
10415DG     BB267722  36.806  81.028  89.688
10415DG     BB367723  36.826  81.009  89.491
10415DG     SC167724  36.990  80.751  89.507
10415DG     SC267725  37.276  80.720  89.428
10415DG     SC367726  37.154  80.457  89.486
10415DG     SC467727  36.913  80.610  89.510
10416DC     BB167728  36.812  81.184  89.321
10416DC     BB267729  37.159  81.216  89.225
10416DC     BB367730  37.188  81.135  89.037
10416DC     SC167731  37.172  80.891  89.131
10416DC     SC267732  37.365  80.797  89.120
10416DC     SC367733  37.083  80.645  89.170
10417DT     BB167734  37.210  81.381  88.888
10417DT     BB267735  37.516  81.206  88.807
10417DT     BB367736  37.490  81.095  88.635
10417DT     SC167737  37.348  80.915  88.762
10417DT     SC267738  37.460  80.732  88.776
10417DT     SC367739  37.142  80.765  88.832
10418DC     BB167740  37.641  81.265  88.463
10418DC     BB267741  37.804  80.944  88.433
10418DC     BB367742  37.723  80.839  88.274
10418DC     SC167743  37.506  80.785  88.410
10418DC     SC267744  37.500  80.575  88.457
10418DC     SC367745  37.251  80.781  88.480
10419DA     BB167746  38.138  80.844  88.223
10419DA     BB267747  38.026  80.496  88.197
10419DA     BB367748  37.928  80.463  88.009
10419DA     SC167749  37.645  80.534  88.117
10419DA     SC267750  37.431  80.416  88.165
10419DA     SC367751  37.323  80.648  88.151
10419DA     SC467752  37.596  80.687  88.102
10420DT     BB167753  38.021  80.342  87.902
10420DT     BB267754  37.795  80.064  87.948
10420DT     BB367755  37.671  80.046  87.783
10420DT     SC167756  37.529  80.254  87.856
10420DT     SC267757  37.334  80.189  87.918
10420DT     SC367758  37.420  80.494  87.851
10421DC     BB167759  37.811  79.828  87.749
10421DC     BB267760  37.468  79.720  87.769
10421DC     BB367761  37.374  79.747  87.587
10421DC     SC167762  37.359  80.006  87.625
10421DC     SC267763  37.154  80.063  87.656
10421DC     SC367764  37.399  80.265  87.590
10422DG     BB167765  37.343  79.364  87.725
10422DG     BB267766  37.023  79.502  87.629
10422DG     BB367767  37.010  79.513  87.431
10422DG     SC167768  37.128  79.796  87.416
10422DG     SC267769  36.982  80.042  87.331
10422DG     SC367770  37.271  80.096  87.361
10422DG     SC467771  37.286  79.813  87.405
10423DA     BB167772  36.709  79.349  87.479
10423DA     BB267773  36.535  79.622  87.306
10423DA     BB367774  36.576  79.615  87.096
10423DA     SC167775  36.825  79.801  87.114
10423DA     SC267776  36.888  80.032  87.045
10423DA     SC367777  37.130  79.951  87.068
10423DA     SC467778  36.968  79.731  87.133
10424DT     BB167779  36.425  79.574  86.979
10424DT     BB267780  36.384  79.903  86.837
10424DT     BB367781  36.466  79.909  86.647
10424DT     SC167782  36.710  79.913  86.744
10424DT     SC267783  36.797  80.106  86.708
10424DT     SC367784  36.957  79.839  86.797
10425DA     BB167785  36.074  80.054  86.608
10425DA     BB267786  36.297  80.285  86.431
10425DA     BB367787  36.365  80.198  86.249
10425DA     SC167788  36.619  80.071  86.377
10425DA     SC267789  36.866  80.104  86.370
10425DA     SC367790  36.880  79.864  86.459
10425DA     SC467791  36.607  79.920  86.432
10426DA     BB167792  36.246  80.476  86.116
10426DA     BB267793  36.586  80.545  85.997
10426DA     BB367794  36.633  80.422  85.829
10426DA     SC167795  36.752  80.191  86.001
10426DA     SC267796  36.976  80.090  86.044
10426DA     SC367797  36.845  79.885  86.125
10426DA     SC467798  36.653  80.073  86.045
10427DT     BB167799  36.660  80.505  85.640
10427DT     BB267800  37.018  80.465  85.625
10427DT     BB367801  37.067  80.310  85.496
10427DT     SC167802  36.992  80.131  85.673
10427DT     SC267803  37.165  80.026  85.746
10427DT     SC367804  36.857  79.933  85.784
10428DT     BB167805  37.157  80.479  85.293
10428DT     BB267806  37.437  80.259  85.353
10428DT     BB367807  37.422  80.091  85.234
10428DT     SC167808  37.232  79.991  85.385
10428DT     SC267809  37.307  79.820  85.490
10428DT     SC367810  36.995  79.902  85.458
10429DC     BB167811  37.624  80.164  85.047
10429DC     BB267812  37.731  79.840  85.165
10429DC     BB367813  37.654  79.692  85.042
10429DC     SC167814  37.415  79.719  85.145
10429DC     SC267815  37.367  79.545  85.262
10429DC     SC367816  37.157  79.771  85.164
10430DT     BB167817  37.896  79.628  84.902
10430DT     BB267818  37.794  79.312  85.043
10430DT     BB367819  37.677  79.209  84.908
10430DT     SC167820  37.472  79.366  84.953
10430DT     SC267821  37.319  79.256  85.057
10430DT     SC367822  37.281  79.543  84.911
10431DT     BB167823  37.871  79.011  84.825
10431DT     BB267824  37.595  78.814  84.948
10431DT     BB367825  37.469  78.763  84.792
10431DT     SC167826  37.372  79.007  84.782
10431DT     SC267827  37.168  79.005  84.850
10431DT     SC367828  37.312  79.246  84.689
10432DA     BB167829  37.567  78.406  84.986
10432DA     BB267830  37.202  78.425  84.963
10432DA     BB367831  37.138  78.385  84.764
10432DA     SC167832  37.147  78.682  84.674
10432DA     SC267833  36.986  78.862  84.611
10432DA     SC367834  37.186  78.973  84.496
10432DA     SC467835  37.284  78.735  84.607
10433DC     BB167836  37.032  78.227  84.749
10433DC     BB267837  36.715  78.395  84.714
10433DC     BB367838  36.656  78.395  84.516
10433DC     SC167839  36.831  78.580  84.455
10433DC     SC267840  36.729  78.763  84.408
10433DC     SC367841  37.039  78.697  84.343
10434DA     BB167842  36.358  78.277  84.789
10434DA     BB267843  36.221  78.533  84.565
10434DA     BB367844  36.202  78.457  84.367
10434DA     SC167845  36.486  78.549  84.279
10434DA     SC267846  36.586  78.719  84.126
10434DA     SC367847  36.797  78.572  84.135
10434DA     SC467848  36.607  78.444  84.296
10435DT     BB167849  36.037  78.466  84.340
10435DT     BB267850  36.044  78.740  84.106
10435DT     BB367851  36.058  78.668  83.912
10435DT     SC167852  36.312  78.608  83.945
10435DT     SC267853  36.432  78.740  83.826
10435DT     SC367854  36.532  78.465  83.965
10436DC     BB167855  35.818  78.765  83.906
10436DC     BB267856  35.997  78.926  83.637
10436DC     BB367857  36.012  78.798  83.475
10436DC     SC167858  36.196  78.656  83.595
10436DC     SC267859  36.385  78.685  83.496
10436DC     SC367860  36.317  78.450  83.709
10437DT     BB167861  35.842  78.964  83.363
10437DT     BB267862  36.121  78.946  83.135
10437DT     BB367863  36.107  78.775  83.019
10437DT     SC167864  36.181  78.624  83.220
10437DT     SC267865  36.378  78.545  83.182
10437DT     SC367866  36.172  78.439  83.409
10438DT     BB167867  36.039  78.925  82.804
10438DT     BB267868  36.321  78.731  82.691
10438DT     BB367869  36.257  78.546  82.624
10438DT     SC167870  36.218  78.462  82.870
10438DT     SC267871  36.365  78.311  82.918
10438DT     SC367872  36.094  78.374  83.085
10439DT     BB167873  36.286  78.601  82.349
10439DT     BB267874  36.479  78.300  82.395
10439DT     BB367875  36.359  78.134  82.366
10439DT     SC167876  36.242  78.168  82.598
10439DT     SC267877  36.301  78.011  82.732
10439DT     SC367878  36.053  78.215  82.777
10440DT     BB167879  36.450  78.052  82.102
10440DT     BB267880  36.498  77.756  82.302
10440DT     BB367881  36.332  77.634  82.289
10440DT     SC167882  36.194  77.792  82.446
10440DT     SC267883  36.159  77.694  82.634
10440DT     SC367884  36.006  77.959  82.527
10441DC     BB167885  36.437  77.427  82.112
10441DC     BB267886  36.334  77.245  82.406
10441DC     BB367887  36.141  77.174  82.382
10441DC     SC167888  36.040  77.413  82.419
10441DC     SC267889  35.936  77.418  82.607
10441DC     SC367890  35.913  77.639  82.371
10442DA     BB167891  36.362  76.832  82.479
10442DA     BB267892  36.078  76.848  82.710
10442DA     BB367893  35.899  76.783  82.612
10442DA     SC167894  35.821  77.067  82.514
10442DA     SC267895  35.645  77.238  82.563
10442DA     SC367896  35.704  77.335  82.333
10442DA     SC467897  35.870  77.112  82.368
10443DA     BB167898  35.897  76.588  82.873
10443DA     BB267899  35.586  76.757  82.970
10443DA     BB367900  35.423  76.685  82.852
10443DA     SC167901  35.457  76.901  82.630
10443DA     SC267902  35.334  77.101  82.548
10443DA     SC367903  35.469  77.070  82.332
10443DA     SC467904  35.549  76.864  82.504
10444DC     BB167905  35.295  76.596  82.955
10444DC     BB267906  35.048  76.859  82.952
10444DC     BB367907  34.900  76.815  82.814
10444DC     SC167908  35.058  76.875  82.613
10444DC     SC267909  34.989  77.056  82.519
10444DC     SC367910  35.204  76.847  82.395
10445DG     BB167911  34.742  76.880  83.183
10445DG     BB267912  34.584  77.086  82.931
10445DG     BB367913  34.460  76.976  82.822
10445DG     SC167914  34.671  76.897  82.615
10445DG     SC267915  34.675  76.979  82.328
10445DG     SC367916  34.881  76.774  82.381
10445DG     SC467917  34.760  76.766  82.640
10446DT     BB167918  34.263  77.035  82.828
10446DT     BB267919  34.218  77.182  82.502
10446DT     BB367920  34.127  77.046  82.375
10446DT     SC167921  34.349  76.909  82.350
10446DT     SC267922  34.426  76.932  82.151
10446DT     SC367923  34.520  76.708  82.366
10447DT     BB167924  33.908  77.199  82.389
10447DT     BB267925  33.982  77.178  82.037
10447DT     BB367926  33.900  77.005  81.958
10447DT     SC167927  34.085  76.856  82.069
10447DT     SC267928  34.215  76.777  81.917
10447DT     SC367929  34.198  76.675  82.224
10448DA     BB167930  33.784  77.330  81.719
10448DA     BB267931  33.907  77.065  81.498
10448DA     BB367932  33.767  76.904  81.490
10448DA     SC167933  33.895  76.748  81.727
10448DA     SC267934  34.024  76.538  81.762
10448DA     SC367935  33.949  76.556  82.006
10448DA     SC467936  33.837  76.776  81.874
10449DT     BB167937  33.681  76.873  81.317
10449DT     BB267938  33.859  76.572  81.229
10449DT     BB367939  33.737  76.407  81.260
10449DT     SC167940  33.768  76.423  81.520
10449DT     SC267941  33.886  76.257  81.589
10449DT     SC367942  33.709  76.455  81.776
10450DC     BB167943  33.720  76.382  80.994
10450DC     BB267944  33.845  76.063  81.108
10450DC     BB367945  33.687  75.942  81.164
10450DC     SC167946  33.652  76.077  81.386
10450DC     SC267947  33.709  75.955  81.554
10450DC     SC367948  33.537  76.229  81.568
10451DA     BB167949  33.926  75.723  80.897
10451DA     BB267950  33.854  75.508  81.186
10451DA     BB367951  33.651  75.443  81.181
10451DA     SC167952  33.545  75.682  81.349
10451DA     SC267953  33.451  75.721  81.577
10451DA     SC367954  33.356  75.938  81.478
10451DA     SC467955  33.493  75.812  81.269
10452DA     BB167956  33.798  75.150  81.208
10452DA     BB267957  33.610  75.105  81.519
10452DA     BB367958  33.404  75.065  81.476
10452DA     SC167959  33.320  75.364  81.482
10452DA     SC267960  33.185  75.515  81.628
10452DA     SC367961  33.170  75.667  81.422
10452DA     SC467962  33.321  75.444  81.343
10453DG     BB167963  33.450  74.793  81.625
10453DG     BB267964  33.207  74.927  81.856
10453DG     BB367965  33.023  74.895  81.787
10453DG     SC167966  33.010  75.158  81.631
10453DG     SC267967  32.829  75.389  81.691
10453DG     SC367968  32.968  75.428  81.433
10453DG     SC467969  33.063  75.162  81.480
10454DT     BB167970  32.864  74.762  81.892
10454DT     BB267971  32.641  75.010  82.028
10454DT     BB367972  32.466  75.017  81.917
10454DT     SC167973  32.586  75.142  81.720
10454DT     SC267974  32.514  75.344  81.709
10454DT     SC367975  32.684  75.191  81.480
10455DC     BB167976  32.317  74.891  82.114
10455DC     BB267977  32.142  75.202  82.056
10455DC     BB367978  32.002  75.177  81.905
10455DC     SC167979  32.189  75.175  81.721
10455DC     SC267980  32.175  75.355  81.603
10455DC     SC367981  32.344  75.089  81.526
10456DG     BB167982  31.785  75.298  82.229
10456DG     BB267983  31.718  75.507  81.942
10456DG     BB367984  31.590  75.417  81.820
10456DG     SC167985  31.806  75.274  81.657
10456DG     SC267986  31.873  75.326  81.371
10456DG     SC367987  32.016  75.087  81.471
10456DG     SC467988  31.858  75.131  81.706
10457DT     BB167989  31.384  75.500  81.774
10457DT     BB267990  31.434  75.627  81.440
10457DT     BB367991  31.343  75.502  81.302
10457DT     SC167992  31.532  75.321  81.330
10457DT     SC267993  31.649  75.313  81.150
10457DT     SC367994  31.651  75.093  81.388
10458DA     BB167995  31.208  75.890  81.224
10458DA     BB267996  31.321  75.745  80.907
10458DA     BB367997  31.181  75.600  80.838
10458DA     SC167998  31.319  75.362  80.983
10458DA     SC267999  31.450  75.159  80.921
10458DA     SC368000  31.385  75.071  81.153
10458DA     SC468001  31.267  75.324  81.130
10459DG     BB168002  31.163  75.789  80.593
10459DG     BB268003  31.305  75.505  80.420
10459DG     BB368004  31.161  75.375  80.374
10459DG     SC168005  31.185  75.219  80.636
10459DG     SC268006  31.280  74.937  80.665
10459DG     SC368007  31.170  75.037  80.920
10459DG     SC468008  31.098  75.265  80.763
10460DT     BB168009  31.119  75.328  80.165
10460DT     BB268010  31.264  74.999  80.135
10460DT     BB368011  31.115  74.855  80.138
10460DT     SC168012  31.080  74.885  80.396
10460DT     SC268013  31.150  74.708  80.498
10460DT     SC368014  30.964  74.941  80.626
10461DT     BB168015  31.159  74.812  79.875
10461DT     BB268016  31.207  74.490  80.029
10461DT     BB368017  31.026  74.392  80.047
10461DT     SC168018  30.953  74.546  80.246
10461DT     SC268019  30.948  74.431  80.428
10461DT     SC368020  30.816  74.724  80.385
10462DT     BB168021  31.101  74.221  79.850
10462DT     BB268022  31.024  74.007  80.131
10462DT     BB368023  30.822  73.961  80.131
10462DT     SC168024  30.759  74.202  80.216
10462DT     SC268025  30.688  74.189  80.419
10462DT     SC368026  30.656  74.444  80.221
10463DA     BB168027  31.032  73.600  80.159
10463DA     BB268028  30.771  73.598  80.417
10463DA     BB368029  30.579  73.568  80.329
10463DA     SC168030  30.522  73.871  80.290
10463DA     SC268031  30.369  74.043  80.386
10463DA     SC368032  30.418  74.176  80.171
10463DA     SC468033  30.563  73.937  80.150
10464DT     BB168034  30.483  73.396  80.371
10464DT     BB268035  30.232  73.537  80.589
10464DT     BB368036  30.051  73.548  80.491
10464DT     SC168037  30.131  73.753  80.348
10464DT     SC268038  30.025  73.929  80.410
10464DT     SC368039  30.199  73.898  80.139
10465DT     BB168040  29.949  73.340  80.638
10465DT     BB268041  29.713  73.608  80.691
10465DT     BB368042  29.568  73.604  80.544
10465DT     SC168043  29.734  73.702  80.366
10465DT     SC268044  29.675  73.902  80.316
10465DT     SC368045  29.885  73.719  80.150
10466DA     BB168046  29.354  73.604  80.905
10466DA     BB268047  29.203  73.860  80.689
10466DA     BB368048  29.085  73.768  80.537
10466DA     SC168049  29.318  73.749  80.332
10466DA     SC268050  29.383  73.855  80.115
10466DA     SC368051  29.534  73.650  80.084
10466DA     SC468052  29.405  73.614  80.330
10467DA     BB168053  28.838  73.960  80.647
10467DA     BB268054  28.826  74.113  80.313
10467DA     BB368055  28.721  73.986  80.178
10467DA     SC168056  28.977  73.834  80.085
10467DA     SC268057  29.117  73.816  79.880
10467DA     SC368058  29.201  73.596  79.981
10467DA     SC468059  29.015  73.699  80.164
10468DT     BB168060  28.524  74.035  80.089
10468DT     BB268061  28.645  74.111  79.758
10468DT     BB368062  28.585  73.964  79.625
10468DT     SC168063  28.764  73.796  79.719
10468DT     SC268064  28.917  73.765  79.571
10468DT     SC368065  28.868  73.584  79.835
10469DG     BB168066  28.414  74.301  79.469
10469DG     BB268067  28.607  74.127  79.217
10469DG     BB368068  28.500  73.978  79.140
10469DG     SC168069  28.595  73.772  79.345
10469DG     SC268070  28.766  73.534  79.288
10469DG     SC368071  28.662  73.525  79.565
10469DG     SC468072  28.514  73.755  79.482
10470DC     BB168073  28.429  73.963  78.914
10470DC     BB268074  28.658  73.714  78.789
10470DC     BB368075  28.558  73.536  78.756
10470DC     SC168076  28.546  73.486  79.013
10470DC     SC268077  28.674  73.319  79.059
10470DC     SC368078  28.445  73.443  79.253
10471DG     BB168079  28.715  73.636  78.393
10471DG     BB268080  28.808  73.299  78.486
10471DG     BB368081  28.659  73.174  78.445
10471DG     SC168082  28.525  73.205  78.718
10471DG     SC268083  28.502  72.992  78.927
10471DG     SC368084  28.342  73.230  79.000
10471DG     SC468085  28.418  73.321  78.740
10472DC     BB168086  28.693  73.017  78.303
10472DC     BB268087  28.720  72.730  78.520
10472DC     BB368088  28.543  72.622  78.516
10472DC     SC168089  28.421  72.800  78.664
10472DC     SC268090  28.381  72.717  78.858
10472DC     SC368091  28.249  72.987  78.737
10473DT     BB168092  28.678  72.435  78.381
10473DT     BB268093  28.548  72.265  78.671
10473DT     BB368094  28.354  72.203  78.636
10473DT     SC168095  28.263  72.447  78.662
10473DT     SC268096  28.147  72.462  78.843
10473DT     SC368097  28.150  72.677  78.601
10474DT     BB168098  28.450  71.954  78.629
10474DT     BB268099  28.197  71.948  78.886
10474DT     BB368100  28.011  71.918  78.801
10474DT     SC168101  28.003  72.165  78.712
10474DT     SC268102  27.855  72.276  78.821
10474DT     SC368103  27.995  72.368  78.544
10475DT     BB168104  28.012  71.671  78.905
10475DT     BB268105  27.711  71.822  79.033
10475DT     BB368106  27.557  71.801  78.896
10475DT     SC168107  27.659  71.987  78.741
10475DT     SC268108  27.532  72.161  78.746
10475DT     SC368109  27.768  72.102  78.531
10476DC     BB168110  27.439  71.616  79.055
10476DC     BB268111  27.184  71.867  79.006
10476DC     BB368112  27.079  71.827  78.832
10476DC     SC168113  27.279  71.911  78.683
10476DC     SC268114  27.224  72.095  78.587
10476DC     SC368115  27.476  71.907  78.508
10477DC     BB168116  26.858  71.745  78.973
10477DC     BB268117  26.734  72.007  78.759
10477DC     BB368118  26.676  71.928  78.576
10477DC     SC168119  26.926  71.901  78.501
10477DC     SC268120  26.970  72.041  78.344
10477DC     SC368121  27.152  71.786  78.427
10478DA     BB168122  26.341  72.143  78.711
10478DA     BB268123  26.406  72.244  78.364
10478DA     BB368124  26.343  72.090  78.229
10478DA     SC168125  26.620  71.948  78.226
10478DA     SC268126  26.807  71.912  78.065
10478DA     SC368127  26.873  71.715  78.217
10478DA     SC468128  26.643  71.829  78.332
10479DT     BB168129  26.181  72.119  78.097
10479DT     BB268130  26.378  72.158  77.797
10479DT     BB368131  26.359  71.990  77.678
10479DT     SC168132  26.514  71.851  77.837
10479DT     SC268133  26.701  71.811  77.737
10479DT     SC368134  26.594  71.664  78.005
10480DG     BB168135  26.232  72.303  77.448
10480DG     BB268136  26.488  72.111  77.279
10480DG     BB368137  26.409  71.947  77.200
10480DG     SC168138  26.454  71.775  77.449
10480DG     SC268139  26.641  71.543  77.470
10480DG     SC368140  26.471  71.563  77.711
10480DG     SC468141  26.342  71.771  77.562
10481DT     BB168142  26.410  71.913  76.980
10481DT     BB268143  26.669  71.663  76.950
10481DT     BB368144  26.584  71.477  76.916
10481DT     SC168145  26.508  71.458  77.166
10481DT     SC268146  26.624  71.305  77.264
10481DT     SC368147  26.350  71.438  77.377
10482DA     BB168148  26.879  71.546  76.626
10482DA     BB268149  26.936  71.214  76.770
10482DA     BB368150  26.787  71.077  76.702
10482DA     SC168151  26.593  71.133  76.939
10482DA     SC268152  26.507  71.013  77.140
10482DA     SC368153  26.315  71.183  77.135
10482DA     SC468154  26.481  71.247  76.918
10483DT     BB168155  26.853  70.934  76.592
10483DT     BB268156  26.824  70.671  76.837
10483DT     BB368157  26.656  70.557  76.799
10483DT     SC168158  26.497  70.745  76.890
10483DT     SC268159  26.409  70.680  77.075
10483DT     SC368160  26.311  70.932  76.896
10484DC     BB168161  26.822  70.362  76.723
10484DC     BB268162  26.621  70.216  76.984
10484DC     BB368163  26.443  70.144  76.905
10484DC     SC168164  26.347  70.387  76.882
10484DC     SC268165  26.187  70.415  77.023
10484DC     SC368166  26.253  70.607  76.770
10485DC     BB168167  26.540  69.900  76.948
10485DC     BB268168  26.226  69.908  77.127
10485DC     BB368169  26.070  69.865  76.997
10485DC     SC168170  26.086  70.103  76.887
10485DC     SC268171  25.912  70.218  76.941
10485DC     SC368172  26.122  70.290  76.706
10486DA     BB168173  26.032  69.613  77.330
10486DA     BB268174  25.704  69.762  77.264
10486DA     BB368175  25.618  69.676  77.089
10486DA     SC168176  25.740  69.888  76.896
10486DA     SC268177  25.659  70.077  76.755
10486DA     SC368178  25.880  70.050  76.628
10486DA     SC468179  25.882  69.854  76.829
10487DA     BB168180  25.365  69.618  77.292
10487DA     BB268181  25.160  69.824  77.068
10487DA     BB368182  25.112  69.715  76.891
10487DA     SC168183  25.362  69.814  76.734
10487DA     SC268184  25.411  69.965  76.541
10487DA     SC368185  25.634  69.839  76.526
10487DA     SC468186  25.494  69.723  76.740
10488DA     BB168187  24.797  69.786  76.966
10488DA     BB268188  24.775  69.963  76.646
10488DA     BB368189  24.755  69.825  76.485
10488DA     SC168190  25.061  69.798  76.437
10488DA     SC268191  25.226  69.864  76.262
10488DA     SC368192  25.376  69.683  76.365
10488DA     SC468193  25.139  69.680  76.514
10489DG     BB168194  24.473  69.952  76.414
10489DG     BB268195  24.638  70.045  76.106
10489DG     BB368196  24.626  69.896  75.975
10489DG     SC168197  24.886  69.763  76.065
10489DG     SC268198  25.137  69.739  75.905
10489DG     SC368199  25.156  69.579  76.153
10489DG     SC468200  24.881  69.655  76.184
10490DA     BB168201  24.485  70.105  75.727
10490DA     BB268202  24.770  70.043  75.505
10490DA     BB368203  24.746  69.857  75.403
10490DA     SC168204  24.895  69.691  75.621
10490DA     SC268205  25.111  69.568  75.643
10490DA     SC368206  24.997  69.446  75.838
10490DA     SC468207  24.807  69.626  75.738
10491DC     BB168208  24.713  69.840  75.186
10491DC     BB268209  25.047  69.730  75.105
10491DC     BB368210  25.044  69.531  75.047
10491DC     SC168211  25.010  69.451  75.295
10491DC     SC268212  25.189  69.352  75.363
10491DC     SC368213  24.899  69.341  75.507
10492DG     BB168214  25.206  69.744  74.739
10492DG     BB268215  25.424  69.476  74.845
10492DG     BB368216  25.360  69.303  74.772
10492DG     SC168217  25.179  69.240  75.011
10492DG     SC268218  25.218  69.018  75.207
10492DG     SC368219  24.956  69.150  75.247
10492DG     SC468220  25.028  69.294  75.010
10493DT     BB168221  25.489  69.195  74.641
10493DT     BB268222  25.606  68.932  74.859
10493DT     BB368223  25.505  68.756  74.817
10493DT     SC168224  25.288  68.843  74.935
10493DT     SC268225  25.256  68.732  75.116
10493DT     SC368226  25.038  68.921  74.969
10494DA     BB168227  25.921  68.702  74.834
10494DA     BB268228  25.761  68.449  75.045
10494DA     BB368229  25.658  68.307  74.924
10494DA     SC168230  25.388  68.463  74.928
10494DA     SC268231  25.161  68.436  75.026
10494DA     SC368232  25.086  68.603  74.847
10494DA     SC468233  25.361  68.567  74.808
10495DA     BB168234  25.848  68.136  75.126
10495DA     BB268235  25.537  67.984  75.246
10495DA     BB368236  25.453  67.858  75.096
10495DA     SC168237  25.280  68.083  74.969
10495DA     SC268238  25.038  68.142  74.951
10495DA     SC368239  25.109  68.288  74.752
10495DA     SC468240  25.344  68.166  74.847
10496DT     BB168241  25.454  67.694  75.159
10496DT     BB268242  25.098  67.664  75.213
10496DT     BB368243  25.009  67.574  75.049
10496DT     SC168244  25.032  67.793  74.906
10496DT     SC268245  24.837  67.877  74.873
10496DT     SC368246  25.108  67.957  74.714
10497DC     BB168247  24.975  67.376  75.216
10497DC     BB268248  24.645  67.456  75.095
10497DC     BB368249  24.616  67.370  74.909
10497DC     SC168250  24.769  67.549  74.793
10497DC     SC268251  24.649  67.679  74.671
10497DC     SC368252  24.972  67.654  74.661
10498DG     BB168253  24.321  67.241  75.160
10498DG     BB268254  24.186  67.369  74.850
10498DG     BB368255  24.214  67.238  74.704
10498DG     SC168256  24.487  67.349  74.622
10498DG     SC268257  24.551  67.485  74.364
10498DG     SC368258  24.797  67.433  74.520
10498DG     SC468259  24.618  67.293  74.694
10499DA     BB168260  23.872  67.265  74.635
10499DA     BB268261  23.948  67.370  74.292
10499DA     BB368262  24.012  67.203  74.176
10499DA     SC168263  24.314  67.241  74.241
10499DA     SC268264  24.521  67.310  74.122
10499DA     SC368265  24.646  67.191  74.312
10499DA     SC468266  24.373  67.160  74.368
10500DT     BB168267  23.896  67.125  74.015
10500DT     BB268268  24.103  67.248  73.746
10500DT     BB368269  24.208  67.091  73.661
10500DT     SC168270  24.372  67.081  73.866
10500DT     SC268271  24.567  67.148  73.805
10500DT     SC368272  24.498  66.988  74.078
10501DT     BB168273  24.054  67.075  73.426
10501DT     BB268274  24.390  67.121  73.304
10501DT     BB368275  24.481  66.937  73.275
10501DT     SC168276  24.512  66.903  73.534
10501DT     SC268277  24.721  66.916  73.583
10501DT     SC368278  24.488  66.801  73.776
10502DT     BB168279  24.466  66.947  72.997
10502DT     BB268280  24.818  66.904  73.065
10502DT     BB368281  24.864  66.702  73.074
10502DT     SC168282  24.752  66.679  73.310
10502DT     SC268283  24.904  66.645  73.459
10502DT     SC368284  24.585  66.601  73.499
10503DT     BB168285  24.995  66.701  72.829
10503DT     BB268286  25.243  66.581  73.062
10503DT     BB368287  25.231  66.375  73.078
10503DT     SC168288  25.013  66.391  73.222
10503DT     SC268289  25.056  66.330  73.424
10503DT     SC368290  24.760  66.363  73.294
10504DG     BB168291  25.613  66.455  72.955
10504DG     BB268292  25.610  66.250  73.253
10504DG     BB368293  25.572  66.061  73.205
10504DG     SC168294  25.268  66.089  73.231
10504DG     SC268295  25.097  65.958  73.437
10504DG     SC368296  24.931  66.090  73.231
10504DG     SC468297  25.184  66.136  73.103
10505DT     BB168298  25.721  65.891  73.240
10505DT     BB268299  25.574  65.731  73.528
10505DT     BB368300  25.484  65.553  73.472
10505DT     SC168301  25.283  65.680  73.362
10505DT     SC268302  25.105  65.648  73.479
10505DT     SC368303  25.115  65.768  73.178
10506DC     BB168304  25.681  65.409  73.594
10506DC     BB268305  25.377  65.301  73.754
10506DC     BB368306  25.292  65.145  73.647
10506DC     SC168307  25.209  65.308  73.459
10506DC     SC268308  24.995  65.321  73.467
10506DC     SC368309  25.184  65.421  73.223
10507DT     BB168310  25.362  64.974  73.846
10507DT     BB268311  25.003  64.946  73.820
10507DT     BB368312  24.953  64.806  73.676
10507DT     SC168313  25.017  64.970  73.482
10507DT     SC268314  24.838  65.031  73.379
10507DT     SC368315  25.142  65.071  73.273
10508DT     BB168316  24.872  64.653  73.879
10508DT     BB268317  24.581  64.702  73.671
10508DT     BB368318  24.580  64.563  73.517
10508DT     SC168319  24.769  64.693  73.390
10508DT     SC268320  24.687  64.782  73.212
10508DT     SC368321  25.002  64.745  73.278
10509DC     BB168322  24.376  64.480  73.654
10509DC     BB268323  24.250  64.565  73.326
10509DC     BB368324  24.292  64.412  73.193
10509DC     SC168325  24.545  64.482  73.182
10509DC     SC268326  24.588  64.564  72.987
10509DC     SC368327  24.808  64.469  73.206
10510DC     BB168328  24.039  64.420  73.214
10510DC     BB268329  24.116  64.475  72.866
10510DC     BB368330  24.175  64.297  72.778
10510DC     SC168331  24.410  64.309  72.895
10510DC     SC268332  24.562  64.347  72.748
10510DC     SC368333  24.613  64.245  73.051
10511DT     BB168334  23.959  64.372  72.669
10511DT     BB268335  24.201  64.333  72.404
10511DT     BB368336  24.241  64.132  72.373
10511DT     SC168337  24.386  64.120  72.592
10511DT     SC268338  24.592  64.093  72.538
10511DT     SC368339  24.465  64.050  72.833
10512DA     BB168340  24.169  64.347  72.015
10512DA     BB268341  24.456  64.124  71.966
10512DA     BB368342  24.393  63.920  71.974
10512DA     SC168343  24.439  63.893  72.280
10512DA     SC268344  24.597  63.774  72.433
10512DA     SC368345  24.417  63.809  72.612
10512DA     SC468346  24.315  63.923  72.377
10513DC     BB168347  24.407  63.821  71.809
10513DC     BB268348  24.676  63.600  71.902
10513DC     BB368349  24.600  63.415  71.956
10513DC     SC168350  24.514  63.508  72.185
10513DC     SC268351  24.631  63.424  72.345
10513DC     SC368352  24.348  63.578  72.378
10514DT     BB168353  24.682  63.290  71.720
10514DT     BB268354  24.821  63.081  71.979
10514DT     BB368355  24.685  62.934  72.033
10514DT     SC168356  24.538  63.107  72.165
10514DT     SC268357  24.553  63.067  72.376
10514DT     SC368358  24.332  63.257  72.233
10515DT     BB168359  24.816  62.722  71.901
10515DT     BB268360  24.783  62.603  72.240
10515DT     BB368361  24.606  62.498  72.261
10515DT     SC168362  24.465  62.720  72.259
10515DT     SC268363  24.383  62.754  72.455
10515DT     SC368364  24.293  62.903  72.182
10516DT     BB168365  24.726  62.244  72.269
10516DT     BB268366  24.533  62.257  72.574
10516DT     BB368367  24.343  62.181  72.541
10516DT     SC168368  24.271  62.399  72.412
10516DT     SC268369  24.127  62.507  72.530
10516DT     SC368370  24.192  62.557  72.217
10517DC     BB168371  24.394  61.946  72.678
10517DC     BB268372  24.104  62.081  72.843
10517DC     BB368373  23.932  62.013  72.751
10517DC     SC168374  23.968  62.175  72.547
10517DC     SC268375  23.817  62.328  72.550
10517DC     SC368376  24.011  62.257  72.300
10518DT     BB168377  23.868  61.838  72.957
10518DT     BB268378  23.573  62.043  72.925
10518DT     BB368379  23.443  61.959  72.788
10518DT     SC168380  23.593  62.034  72.587
10518DT     SC268381  23.492  62.189  72.477
10518DT     SC368382  23.750  62.020  72.375
10519DA     BB168383  23.204  62.010  73.131
10519DA     BB268384  23.017  62.147  72.847
10519DA     BB368385  22.935  61.989  72.729
10519DA     SC168386  23.182  61.968  72.541
10519DA     SC268387  23.238  62.019  72.303
10519DA     SC368388  23.434  61.857  72.336
10519DA     SC468389  23.297  61.863  72.581
10520DT     BB168390  22.710  61.933  72.707
10520DT     BB268391  22.670  62.065  72.373
10520DT     BB368392  22.641  61.909  72.239
10520DT     SC168393  22.894  61.842  72.249
10520DT     SC268394  22.988  61.888  72.061
10520DT     SC368395  23.111  61.699  72.294
10521DA     BB168396  22.295  62.140  72.160
10521DA     BB268397  22.454  62.072  71.836
10521DA     BB368398  22.406  61.875  71.770
10521DA     SC168399  22.654  61.744  71.905
10521DA     SC268400  22.868  61.637  71.834
10521DA     SC368401  22.868  61.530  72.067
10521DA     SC468402  22.635  61.686  72.054
10522DT     BB168403  22.278  61.827  71.590
10522DT     BB268404  22.554  61.738  71.375
10522DT     BB368405  22.551  61.535  71.336
10522DT     SC168406  22.639  61.479  71.577
10522DT     SC268407  22.839  61.403  71.564
10522DT     SC368408  22.645  61.383  71.822
10523DC     BB168409  22.471  61.577  71.075
10523DC     BB268410  22.784  61.400  71.048
10523DC     BB368411  22.750  61.196  71.047
10523DC     SC168412  22.701  61.195  71.305
10523DC     SC268413  22.860  61.094  71.407
10523DC     SC368414  22.570  61.168  71.532
10524DC     BB168415  22.824  61.207  70.792
10524DC     BB268416  23.058  60.984  70.952
10524DC     BB368417  22.979  60.793  70.961
10524DC     SC168418  22.817  60.861  71.155
10524DC     SC268419  22.879  60.765  71.338
10524DC     SC368420  22.593  60.909  71.286
10525DT     BB168421  23.170  60.749  70.790
10525DT     BB268422  23.236  60.529  71.068
10525DT     BB368423  23.117  60.360  71.054
10525DT     SC168424  22.904  60.494  71.129
10525DT     SC268425  22.845  60.429  71.326
10525DT     SC368426  22.665  60.605  71.122
10526DA     BB168427  23.525  60.294  71.144
10526DA     BB268428  23.317  60.097  71.373
10526DA     BB368429  23.212  59.945  71.266
10526DA     SC168430  22.962  60.122  71.210
10526DA     SC268431  22.724  60.132  71.283
10526DA     SC368432  22.687  60.271  71.070
10526DA     SC468433  22.959  60.205  71.072
10527DA     BB168434  23.359  59.811  71.527
10527DA     BB268435  23.024  59.694  71.619
10527DA     BB368436  22.953  59.552  71.475
10527DA     SC168437  22.817  59.766  71.296
10527DA     SC268438  22.585  59.835  71.234
10527DA     SC368439  22.694  59.947  71.031
10527DA     SC468440  22.903  59.828  71.175
10528DG     BB168441  22.941  59.390  71.738
10528DG     BB268442  22.590  59.371  71.654
10528DG     BB368443  22.563  59.241  71.506
10528DG     SC168444  22.597  59.450  71.284
10528DG     SC268445  22.384  59.543  71.096
10528DG     SC368446  22.649  59.648  71.016
10528DG     SC468447  22.744  59.480  71.228
10529DA     BB168448  22.317  59.076  71.698
10529DA     BB268449  22.070  59.120  71.431
10529DA     BB368450  22.110  58.984  71.271
10529DA     SC168451  22.294  59.181  71.116
10529DA     SC268452  22.287  59.314  70.905
10529DA     SC368453  22.543  59.322  70.926
10529DA     SC468454  22.452  59.174  71.146
10530DT     BB168455  21.986  58.794  71.205
10530DT     BB268456  21.853  58.926  70.897
10530DT     BB368457  21.941  58.832  70.735
10530DT     SC168458  22.164  58.965  70.769
10530DT     SC268459  22.190  59.104  70.607
10530DT     SC368460  22.419  59.014  70.817
10531DT     BB168461  21.734  58.624  70.638
10531DT     BB268462  21.808  58.806  70.335
10531DT     BB368463  21.949  58.703  70.223
10531DT     SC168464  22.141  58.775  70.387
10531DT     SC268465  22.271  58.915  70.287
10531DT     SC368466  22.337  58.758  70.563
10532DA     BB168467  21.652  58.706  69.917
10532DA     BB268468  21.959  58.836  69.764
10532DA     BB368469  22.086  58.676  69.704
10532DA     SC168470  22.240  58.665  69.974
10532DA     SC268471  22.469  58.717  70.058
10532DA     SC368472  22.410  58.563  70.254
10532DA     SC468473  22.185  58.564  70.086
10533DG     BB168474  22.067  58.759  69.395
10533DG     BB268475  22.416  58.842  69.440
10533DG     BB368476  22.530  58.685  69.396
10533DG     SC168477  22.528  58.573  69.680
10533DG     SC268478  22.763  58.554  69.863
10533DG     SC368479  22.530  58.410  69.976
10533DG     SC468480  22.411  58.472  69.723
10534DG     BB168481  22.676  58.872  69.173
10534DG     BB268482  22.973  58.838  69.377
10534DG     BB368483  23.068  58.669  69.331
10534DG     SC168484  22.916  58.499  69.536
10534DG     SC268485  23.034  58.371  69.778
10534DG     SC368486  22.756  58.280  69.735
10534DG     SC468487  22.779  58.430  69.493
10535DA     BB168488  23.324  58.894  69.317
10535DA     BB268489  23.499  58.702  69.575
10535DA     BB368490  23.571  58.518  69.495
10535DA     SC168491  23.314  58.358  69.567
10535DA     SC268492  23.247  58.179  69.727
10535DA     SC368493  23.048  58.140  69.569
10535DA     SC468494  23.198  58.349  69.456
10536DC     BB168495  23.752  58.515  69.499
10536DC     BB268496  23.790  58.274  69.766
10536DC     BB368497  23.824  58.086  69.687
10536DC     SC168498  23.572  58.062  69.616
10536DC     SC268499  23.478  57.913  69.739
10536DC     SC368500  23.358  58.035  69.464
10537DT     BB168501  24.076  58.109  69.774
10537DT     BB268502  23.956  57.801  69.920
10537DT     BB368503  23.976  57.646  69.784
10537DT     SC168504  23.772  57.731  69.643
10537DT     SC268505  23.608  57.594  69.664
10537DT     SC368506  23.633  57.827  69.441
10538DA     BB168507  24.177  57.500  70.126
10538DA     BB268508  23.955  57.233  70.008
10538DA     BB368509  24.037  57.140  69.835
10538DA     SC168510  23.893  57.330  69.635
10538DA     SC268511  23.709  57.317  69.467
10538DA     SC368512  23.812  57.531  69.368
10538DA     SC468513  23.972  57.462  69.588
10539DA     BB168514  24.030  56.836  69.984
10539DA     BB268515  23.794  56.726  69.726
10539DA     BB368516  23.898  56.668  69.549
10539DA     SC168517  23.889  56.951  69.421
10539DA     SC268518  23.776  57.062  69.229
10539DA     SC368519  23.962  57.239  69.248
10539DA     SC468520  24.014  57.049  69.448
10540DA     BB168521  23.760  56.359  69.557
10540DA     BB268522  23.590  56.442  69.242
10540DA     BB368523  23.718  56.402  69.076
10540DA     SC168524  23.842  56.687  69.071
10540DA     SC268525  23.835  56.888  68.923
10540DA     SC368526  24.053  56.956  69.041
10540DA     SC468527  23.977  56.711  69.154
10541DT     BB168528  23.676  56.244  68.926
10541DT     BB268529  23.553  56.474  68.677
10541DT     BB368530  23.684  56.482  68.517
10541DT     SC168531  23.855  56.625  68.655
10541DT     SC268532  23.862  56.825  68.575
10541DT     SC368533  24.077  56.695  68.779
10542DT     BB168534  23.491  56.359  68.383
10542DT     BB268535  23.540  56.674  68.215
10542DT     BB368536  23.695  56.658  68.079
10542DT     SC168537  23.874  56.661  68.270
10542DT     SC268538  23.984  56.846  68.262
10542DT     SC368539  24.069  56.582  68.430
10543DA     BB168540  23.345  56.842  67.937
10543DA     BB268541  23.632  57.053  67.853
10543DA     BB368542  23.754  56.958  67.706
10543DA     SC168543  23.935  56.813  67.913
10543DA     SC268544  24.171  56.827  67.993
10543DA     SC368545  24.134  56.588  68.079
10543DA     SC468546  23.893  56.665  67.958
10544DT     BB168547  23.745  57.065  67.576
10544DT     BB268548  24.082  57.192  67.597
10544DT     BB368549  24.207  57.080  67.476
10544DT     SC168550  24.205  56.879  67.644
10544DT     SC268551  24.399  56.861  67.736
10544DT     SC368552  24.164  56.638  67.743
10545DA     BB168553  24.258  57.493  67.416
10545DA     BB268554  24.589  57.338  67.446
10545DA     BB368555  24.629  57.217  67.275
10545DA     SC168556  24.510  56.958  67.400
10545DA     SC268557  24.593  56.739  67.484
10545DA     SC368558  24.352  56.658  67.451
10545DA     SC468559  24.355  56.927  67.371
10546DT     BB168560  24.773  57.280  67.167
10546DT     BB268561  25.013  57.025  67.251
10546DT     BB368562  25.021  56.883  67.100
10546DT     SC168563  24.792  56.780  67.174
10546DT     SC268564  24.826  56.584  67.258
10546DT     SC368565  24.539  56.704  67.166
10547DT     BB168566  25.264  56.978  67.020
10547DT     BB268567  25.321  56.626  67.078
10547DT     BB368568  25.276  56.518  66.907
10547DT     SC168569  25.018  56.547  66.946
10547DT     SC268570  24.933  56.357  67.000
10547DT     SC368571  24.768  56.621  66.907
10548DG     BB168572  25.667  56.432  66.988
10548DG     BB268573  25.475  56.130  66.941
10548DG     BB368574  25.449  56.095  66.747
10548DG     SC168575  25.188  56.255  66.729
10548DG     SC268576  24.917  56.142  66.674
10548DG     SC368577  24.911  56.438  66.669
10548DG     SC468578  25.195  56.412  66.697
10549DT     BB168579  25.533  55.913  66.639
10549DT     BB268580  25.236  55.715  66.588
10549DT     BB368581  25.178  55.724  66.390
10549DT     SC168582  25.085  55.968  66.420
10549DT     SC268583  24.871  55.965  66.407
10549DT     SC368584  25.059  56.229  66.392
10550DC     BB168585  25.261  55.467  66.345
10550DC     BB268586  24.915  55.466  66.242
10550DC     BB368587  24.901  55.522  66.044
10550DC     SC168588  24.947  55.773  66.102
10550DC     SC268589  24.768  55.888  66.071
10550DC     SC368590  25.066  56.008  66.110
10551DT     BB168591  24.844  55.264  65.960
10551DT     BB268592  24.569  55.458  65.830
10551DT     BB368593  24.616  55.530  65.642
10551DT     SC168594  24.777  55.710  65.743
10551DT     SC268595  24.692  55.906  65.715
10551DT     SC368596  24.999  55.843  65.796
10552DA     BB168597  24.246  55.335  65.600
10552DA     BB268598  24.218  55.664  65.442
10552DA     BB368599  24.325  55.668  65.257
10552DA     SC168600  24.591  55.765  65.385
10552DA     SC268601  24.731  55.971  65.386
10552DA     SC368602  24.921  55.818  65.463
10552DA     SC468603  24.697  55.653  65.431
10553DT     BB168604  24.225  55.686  65.070
10553DT     BB268605  24.317  56.029  65.008
10553DT     BB368606  24.460  56.039  64.859
10553DT     SC168607  24.647  55.953  65.022
10553DT     SC268608  24.785  56.113  65.062
10553DT     SC368609  24.834  55.799  65.126
10554DA     BB168610  24.151  56.300  64.748
10554DA     BB268611  24.468  56.482  64.722
10554DA     BB368612  24.578  56.416  64.551
10554DA     SC168613  24.732  56.194  64.706
10554DA     SC268614  24.965  56.150  64.782
10554DA     SC368615  24.893  55.905  64.797
10554DA     SC468616  24.668  56.047  64.707
10555DT     BB168617  24.604  56.548  64.410
10555DT     BB268618  24.952  56.614  64.479
10555DT     BB368619  25.071  56.519  64.339
10555DT     SC168620  25.029  56.285  64.451
10555DT     SC268621  25.210  56.216  64.544
10555DT     SC368622  24.948  56.036  64.483
10556DC     BB168623  25.124  56.761  64.245
10556DC     BB268624  25.445  56.621  64.331
10556DC     BB368625  25.514  56.502  64.176
10556DC     SC168626  25.345  56.311  64.237
10556DC     SC268627  25.453  56.143  64.315
10556DC     SC368628  25.145  56.141  64.215
10557DT     BB168629  25.691  56.694  64.143
10557DT     BB268630  25.884  56.393  64.196
10557DT     BB368631  25.897  56.287  64.019
10557DT     SC168632  25.649  56.205  64.040
10557DT     SC268633  25.646  55.994  64.081
10557DT     SC368634  25.393  56.172  63.985
10558DA     BB168635  26.284  56.332  64.179
10558DA     BB268636  26.240  55.981  64.085
10558DA     BB368637  26.238  55.960  63.872
10558DA     SC168638  25.930  55.993  63.847
10558DA     SC268639  25.733  55.851  63.789
10558DA     SC368640  25.613  56.073  63.742
10558DA     SC468641  25.873  56.141  63.821
10559DA     BB168642  26.476  55.740  63.939
10559DA     BB268643  26.261  55.489  63.780
10559DA     BB368644  26.262  55.514  63.568
10559DA     SC168645  26.019  55.707  63.564
10559DA     SC268646  25.781  55.703  63.489
10559DA     SC368647  25.797  55.959  63.492
10559DA     SC468648  26.049  55.865  63.571
10560DA     BB168649  26.354  55.194  63.557
10560DA     BB268650  26.045  55.129  63.369
10560DA     BB368651  26.068  55.190  63.166
10560DA     SC168652  25.963  55.478  63.215
10560DA     SC268653  25.761  55.614  63.157
10560DA     SC368654  25.909  55.817  63.207
10560DA     SC468655  26.071  55.592  63.249
10561DT     BB168656  26.073  55.050  62.994
10561DT     BB268657  25.741  55.124  62.874
10561DT     BB368658  25.752  55.230  62.696
10561DT     SC168659  25.822  55.449  62.822
10561DT     SC268660  25.662  55.592  62.812
10561DT     SC368661  25.967  55.655  62.899
10562DA     BB168662  25.506  54.903  62.602
10562DA     BB268663  25.332  55.206  62.491
10562DA     BB368664  25.418  55.279  62.310
10562DA     SC168665  25.624  55.464  62.453
10562DA     SC268666  25.662  55.708  62.484
10562DA     SC368667  25.904  55.642  62.540
10562DA     SC468668  25.769  55.403  62.483
10563DT     BB168669  25.306  55.278  62.132
10563DT     BB268670  25.236  55.632  62.130
10563DT     BB368671  25.346  55.725  61.981
10563DT     SC168672  25.566  55.707  62.123
10563DT     SC268673  25.626  55.903  62.188
10563DT     SC368674  25.810  55.636  62.193
10564DA     BB168675  24.944  55.833  61.949
10564DA     BB268676  25.145  56.139  61.947
10564DA     BB368677  25.248  56.159  61.762
10564DA     SC168678  25.502  56.007  61.858
10564DA     SC268679  25.739  56.060  61.913
10564DA     SC368680  25.782  55.810  61.879
10564DA     SC468681  25.508  55.849  61.832
10565DT     BB168682  25.190  56.307  61.674
10565DT     BB268683  25.482  56.511  61.734
10565DT     BB368684  25.604  56.509  61.568
10565DT     SC168685  25.687  56.266  61.621
10565DT     SC268686  25.893  56.272  61.682
10565DT     SC368687  25.728  56.007  61.595
10566DG     BB168688  25.504  56.882  61.696
10566DG     BB268689  25.861  56.844  61.655
10566DG     BB368690  25.907  56.840  61.461
10566DG     SC168691  25.878  56.536  61.436
10566DG     SC268692  26.100  56.343  61.381
10566DG     SC368693  25.837  56.208  61.367
10566DG     SC468694  25.735  56.474  61.400
10567DT     BB168695  26.028  56.983  61.419
10567DT     BB268696  26.339  56.812  61.351
10567DT     BB368697  26.355  56.774  61.148
10567DT     SC168698  26.180  56.579  61.163
10567DT     SC268699  26.279  56.391  61.132
10567DT     SC368700  25.959  56.441  61.123
10568DT     BB168701  26.543  56.958  61.153
10568DT     BB268702  26.700  56.671  61.000
10568DT     BB368703  26.650  56.662  60.799
10568DT     SC168704  26.408  56.578  60.856
10568DT     SC268705  26.387  56.373  60.794
10568DT     SC368706  26.145  56.573  60.872
10569DT     BB168707  26.900  56.747  60.718
10569DT     BB268708  26.848  56.446  60.526
10569DT     BB368709  26.749  56.491  60.350
10569DT     SC168710  26.521  56.523  60.477
10569DT     SC268711  26.387  56.363  60.426
10569DT     SC368712  26.305  56.639  60.574
10570DT     BB168713  26.969  56.487  60.150
10570DT     BB268714  26.725  56.269  59.998
10570DT     BB368715  26.606  56.377  59.867
10570DT     SC168716  26.475  56.488  60.064
10570DT     SC268717  26.274  56.412  60.068
10570DT     SC368718  26.381  56.674  60.227
10571DA     BB168719  26.739  56.120  59.540
10571DA     BB268720  26.374  56.131  59.511
10571DA     BB368721  26.313  56.302  59.400
10571DA     SC168722  26.286  56.485  59.651
10571DA     SC268723  26.103  56.595  59.780
10571DA     SC368724  26.287  56.750  59.869
10571DA     SC468725  26.414  56.572  59.693
10572DT     BB168726  26.199  56.350  59.147
10572DT     BB268727  25.868  56.409  59.278
10572DT     BB368728  25.807  56.601  59.233
10572DT     SC168729  25.965  56.703  59.416
10572DT     SC268730  25.847  56.782  59.577
10572DT     SC368731  26.161  56.841  59.525
10573DC     BB168732  25.611  56.554  59.013
10573DC     BB268733  25.416  56.722  59.267
10573DC     BB368734  25.406  56.924  59.225
10573DC     SC168735  25.654  56.960  59.303
10573DC     SC268736  25.656  57.073  59.486
10573DC     SC368737  25.911  57.020  59.294
10574DT     BB168738  25.138  56.914  59.149
10574DT     BB268739  25.144  57.141  59.429
10574DT     BB368740  25.171  57.335  59.362
10574DT     SC168741  25.425  57.291  59.312
10574DT     SC268742  25.545  57.401  59.453
10574DT     SC368743  25.650  57.263  59.178
10575DG     BB168744  24.830  57.313  59.581
10575DG     BB268745  25.055  57.565  59.709
10575DG     BB368746  25.046  57.728  59.596
10575DG     SC168747  25.267  57.638  59.404
10575DG     SC268748  25.535  57.765  59.374
10575DG     SC368749  25.491  57.563  59.164
10575DG     SC468750  25.227  57.551  59.276
10576DT     BB168751  24.986  57.899  59.695
10576DT     BB268752  25.298  58.077  59.726
10576DT     BB368753  25.310  58.224  59.581
10576DT     SC168754  25.359  58.046  59.394
10576DT     SC268755  25.562  58.066  59.327
10576DT     SC368756  25.328  57.900  59.176
10577DA     BB168757  25.401  58.373  59.962
10577DA     BB268758  25.664  58.480  59.729
10577DA     BB368759  25.588  58.627  59.594
10577DA     SC168760  25.499  58.419  59.380
10577DA     SC268761  25.568  58.350  59.151
10577DA     SC368762  25.333  58.250  59.132
10577DA     SC468763  25.348  58.365  59.387
10578DA     BB168764  25.859  58.757  59.719
10578DA     BB268765  25.981  58.772  59.373
10578DA     BB368766  25.874  58.920  59.263
10578DA     SC168767  25.653  58.724  59.165
10578DA     SC268768  25.582  58.619  58.950
10578DA     SC368769  25.357  58.582  59.067
10578DA     SC468770  25.520  58.711  59.254
10579DG     BB168771  26.166  59.011  59.240
10579DG     BB268772  26.104  58.949  58.889
10579DG     BB368773  25.996  59.098  58.812
10579DG     SC168774  25.726  58.968  58.875
10579DG     SC268775  25.529  58.867  58.675
10579DG     SC368776  25.413  58.865  58.947
10579DG     SC468777  25.658  58.996  59.017
10580DT     BB168778  26.088  59.196  58.661
10580DT     BB268779  25.902  59.088  58.371
10580DT     BB368780  25.759  59.229  58.322
10580DT     SC168781  25.607  59.155  58.524
10580DT     SC268782  25.431  59.058  58.449
10580DT     SC368783  25.473  59.167  58.751
10581DG     BB168784  26.000  59.154  58.003
10581DG     BB268785  25.650  59.132  57.914
10581DG     BB368786  25.572  59.314  57.902
10581DG     SC168787  25.489  59.325  58.197
10581DG     SC268788  25.209  59.329  58.300
10581DG     SC368789  25.403  59.379  58.518
10581DG     SC468790  25.593  59.380  58.305
10582DC     BB168791  25.496  59.371  57.718
10582DC     BB268792  25.140  59.371  57.772
10582DC     BB368793  25.075  59.563  57.812
10582DC     SC168794  25.175  59.555  58.055
10582DC     SC268795  25.014  59.550  58.198
10582DC     SC368796  25.325  59.614  58.263
10583DT     BB168797  24.958  59.590  57.564
10583DT     BB268798  24.691  59.669  57.793
10583DT     BB368799  24.694  59.870  57.839
10583DT     SC168800  24.902  59.839  57.995
10583DT     SC268801  24.843  59.868  58.200
10583DT     SC368802  25.148  59.862  58.090
10584DA     BB168803  24.298  59.821  57.702
10584DA     BB268804  24.280  60.004  58.019
10584DA     BB368805  24.336  60.208  57.990
10584DA     SC168806  24.637  60.159  58.049
10584DA     SC268807  24.802  60.216  58.228
10584DA     SC368808  24.981  60.169  58.050
10584DA     SC468809  24.733  60.127  57.924
10585DA     BB168810  24.041  60.303  58.120
10585DA     BB268811  24.227  60.465  58.391
10585DA     BB368812  24.297  60.657  58.329
10585DA     SC168813  24.569  60.550  58.222
10585DA     SC268814  24.810  60.564  58.285
10585DA     SC368815  24.856  60.497  58.042
10585DA     SC468816  24.577  60.509  58.067
10586DA     BB168817  24.138  60.773  58.594
10586DA     BB268818  24.465  60.878  58.723
10586DA     BB368819  24.526  61.061  58.631
10586DA     SC168820  24.676  60.921  58.397
10586DA     SC268821  24.912  60.890  58.322
10586DA     SC368822  24.810  60.838  58.092
10586DA     SC468823  24.594  60.894  58.262
10587DT     BB168824  24.542  61.228  58.747
10587DT     BB268825  24.903  61.228  58.764
10587DT     BB368826  24.979  61.379  58.644
10587DT     SC168827  24.927  61.243  58.426
10587DT     SC268828  25.112  61.179  58.336
10587DT     SC368829  24.820  61.179  58.193
10588DT     BB168830  25.047  61.499  58.872
10588DT     BB268831  25.357  61.455  58.692
10588DT     BB368832  25.383  61.610  58.557
10588DT     SC168833  25.202  61.511  58.395
10588DT     SC268834  25.298  61.439  58.217
10588DT     SC368835  24.980  61.490  58.254
10589DT     BB168836  25.576  61.673  58.722
10589DT     BB268837  25.734  61.629  58.401
10589DT     BB368838  25.710  61.800  58.286
10589DT     SC168839  25.458  61.743  58.240
10589DT     SC268840  25.433  61.689  58.033
10589DT     SC368841  25.195  61.763  58.240
10590DT     BB168842  25.967  61.823  58.325
10590DT     BB268843  25.925  61.822  57.967
10590DT     BB368844  25.868  62.010  57.902
10590DT     SC168845  25.624  61.977  57.994
10590DT     SC268846  25.488  61.959  57.828
10590DT     SC368847  25.406  62.013  58.137
10591DT     BB168848  26.112  62.030  57.797
10591DT     BB268849  25.888  62.093  57.521
10591DT     BB368850  25.829  62.292  57.522
10591DT     SC168851  25.667  62.251  57.725
10591DT     SC268852  25.463  62.267  57.659
10591DT     SC368853  25.563  62.268  57.967
10592DC     BB168854  25.985  62.341  57.307
10592DC     BB268855  25.657  62.453  57.207
10592DC     BB368856  25.627  62.648  57.269
10592DC     SC168857  25.593  62.571  57.518
10592DC     SC268858  25.387  62.599  57.574
10592DC     SC368859  25.634  62.545  57.777
10593DG     BB168860  25.584  62.669  56.862
10593DG     BB268861  25.301  62.819  57.030
10593DG     BB368862  25.348  63.003  57.090
10593DG     SC168863  25.453  62.914  57.363
10593DG     SC268864  25.330  62.976  57.628
10593DG     SC368865  25.595  62.849  57.663
10593DG     SC468866  25.607  62.873  57.377
10594DT     BB168867  25.246  63.199  57.013
10594DT     BB268868  25.038  63.284  57.295
10594DT     BB368869  25.118  63.446  57.396
10594DT     SC168870  25.307  63.297  57.501
10594DT     SC268871  25.273  63.277  57.712
10594DT     SC368872  25.548  63.204  57.556
10595DT     BB168873  24.921  63.612  57.303
10595DT     BB268874  24.898  63.638  57.662
10595DT     BB368875  25.025  63.787  57.730
10595DT     SC168876  25.236  63.635  57.692
10595DT     SC268877  25.319  63.579  57.882
10595DT     SC368878  25.466  63.549  57.595
10596DA     BB168879  24.645  63.857  57.891
10596DA     BB268880  24.888  63.872  58.165
10596DA     BB368881  25.003  64.051  58.152
10596DA     SC168882  25.227  63.924  57.976
10596DA     SC268883  25.466  63.859  58.001
10596DA     SC368884  25.473  63.867  57.745
10596DA     SC468885  25.211  63.936  57.817
10597DT     BB168886  24.979  64.177  58.297
10597DT     BB268887  25.294  64.119  58.462
10597DT     BB368888  25.426  64.272  58.418
10597DT     SC168889  25.465  64.180  58.175
10597DT     SC268890  25.665  64.102  58.159
10597DT     SC368891  25.466  64.167  57.912
10598DA     BB168892  25.419  64.229  58.835
10598DA     BB268893  25.770  64.241  58.729
10598DA     BB368894  25.823  64.439  58.671
10598DA     SC168895  25.747  64.398  58.372
10598DA     SC268896  25.863  64.380  58.152
10598DA     SC368897  25.636  64.439  58.050
10598DA     SC468898  25.597  64.437  58.328
10599DA     BB168899  26.065  64.395  58.891
10599DA     BB268900  26.302  64.445  58.615
10599DA     BB368901  26.314  64.651  58.564
10599DA     SC168902  26.087  64.637  58.352
10599DA     SC268903  26.065  64.652  58.104
10599DA     SC368904  25.818  64.705  58.149
10599DA     SC468905  25.937  64.670  58.400
10600DC     BB168906  26.491  64.768  58.597
10600DC     BB268907  26.594  64.786  58.252
10600DC     BB368908  26.562  64.977  58.179
10600DC     SC168909  26.303  64.937  58.164
10600DC     SC268910  26.244  64.928  57.958
10600DC     SC368911  26.045  64.964  58.211
10601DA     BB168912  26.968  64.904  58.095
10601DA     BB268913  26.811  65.023  57.785
10601DA     BB368914  26.781  65.234  57.794
10601DA     SC168915  26.495  65.213  57.916
10601DA     SC268916  26.261  65.255  57.844
10601DA     SC368917  26.207  65.264  58.094
10601DA     SC468918  26.482  65.216  58.076
10602DA     BB168919  26.953  65.244  57.513
10602DA     BB268920  26.653  65.379  57.351
10602DA     BB368921  26.634  65.588  57.391
10602DA     SC168922  26.463  65.548  57.648
10602DA     SC268923  26.228  65.588  57.721
10602DA     SC368924  26.322  65.578  57.959
10602DA     SC468925  26.541  65.540  57.788
10603DC     BB168926  26.654  65.727  57.235
10603DC     BB268927  26.304  65.809  57.207
10603DC     BB368928  26.269  65.999  57.282
10603DC     SC168929  26.294  65.914  57.529
10603DC     SC268930  26.102  65.922  57.626
10603DC     SC368931  26.388  65.886  57.774
10604DC     BB168932  26.231  66.098  57.029
10604DC     BB268933  25.928  66.187  57.204
10604DC     BB368934  25.951  66.370  57.296
10604DC     SC168935  26.103  66.266  57.483
10604DC     SC268936  25.997  66.268  57.670
10604DC     SC368937  26.315  66.218  57.633
10605DA     BB168938  25.600  66.407  57.069
10605DA     BB268939  25.527  66.536  57.404
10605DA     BB368940  25.614  66.729  57.430
10605DA     SC168941  25.882  66.619  57.544
10605DA     SC268942  26.001  66.616  57.763
10605DA     SC368943  26.212  66.568  57.624
10605DA     SC468944  26.001  66.592  57.440
10606DA     BB168945  25.311  66.848  57.509
10606DA     BB268946  25.443  66.941  57.838
10606DA     BB368947  25.549  67.126  57.826
10606DA     SC168948  25.824  66.993  57.766
10606DA     SC268949  26.042  66.959  57.883
10606DA     SC368950  26.138  66.919  57.648
10606DA     SC468951  25.865  66.972  57.612
10607DG     BB168952  25.349  67.289  58.026
10607DG     BB268953  25.638  67.309  58.242
10607DG     BB368954  25.740  67.476  58.205
10607DG     SC168955  25.917  67.350  57.990
10607DG     SC268956  26.212  67.305  58.010
10607DG     SC368957  26.116  67.249  57.736
10607DG     SC468958  25.867  67.350  57.838
10608DA     BB168959  25.735  67.602  58.540
10608DA     BB268960  26.100  67.579  58.562
10608DA     BB368961  26.191  67.757  58.485
10608DA     SC168962  26.213  67.648  58.194
10608DA     SC268963  26.393  67.576  58.037
10608DA     SC368964  26.219  67.616  57.852
10608DA     SC468965  26.091  67.680  58.093
10609DA     BB168966  26.340  67.780  58.776
10609DA     BB268967  26.656  67.724  58.599
10609DA     BB368968  26.729  67.907  58.517
10609DA     SC168969  26.583  67.871  58.244
10609DA     SC268970  26.645  67.824  58.007
10609DA     SC368971  26.414  67.921  57.950
10609DA     SC468972  26.437  67.935  58.229
10610DT     BB168973  26.891  67.956  58.594
10610DT     BB268974  27.092  67.847  58.315
10610DT     BB368975  27.157  68.010  58.206
10610DT     SC168976  26.918  68.045  58.101
10610DT     SC268977  26.925  67.996  57.892
10610DT     SC368978  26.687  68.157  58.042
10611DA     BB168979  27.407  67.682  58.299
10611DA     BB268980  27.434  67.762  57.942
10611DA     BB368981  27.520  67.955  57.915
10611DA     SC168982  27.247  68.104  57.915
10611DA     SC268983  27.103  68.225  57.751
10611DA     SC368984  26.993  68.331  57.958
10611DA     SC468985  27.193  68.160  58.055
10612DT     BB168986  27.595  67.853  57.835
10612DT     BB268987  27.514  68.000  57.515
10612DT     BB368988  27.591  68.191  57.504
10612DT     SC168989  27.405  68.284  57.664
10612DT     SC268990  27.271  68.411  57.553
10612DT     SC368991  27.291  68.393  57.876
10613DC     BB168992  27.701  68.043  57.330
10613DC     BB268993  27.568  68.330  57.157
10613DC     BB368994  27.677  68.499  57.207
10613DC     SC168995  27.563  68.511  57.443
10613DC     SC268996  27.433  68.683  57.451
10613DC     SC368997  27.535  68.509  57.706
10614DA     BB168998  27.635  68.472  56.788
10614DA     BB268999  27.575  68.819  56.889
10614DA     BB369000  27.756  68.909  56.959
10614DA     SC169001  27.710  68.827  57.256
10614DA     SC269002  27.656  68.939  57.472
10614DA     SC369003  27.750  68.727  57.582
10614DA     SC469004  27.773  68.687  57.305
10615DT     BB169005  27.845  69.059  56.852
10615DT     BB269006  27.774  69.331  57.078
10615DT     BB369007  27.945  69.381  57.184
10615DT     SC169008  27.923  69.168  57.335
10615DT     SC269009  27.871  69.227  57.535
10615DT     SC369010  27.981  68.935  57.446
10616DA     BB169011  27.829  69.750  57.017
10616DA     BB269012  27.899  69.810  57.372
10616DA     BB369013  28.109  69.812  57.407
10616DA     SC169014  28.128  69.507  57.467
10616DA     SC269015  28.170  69.360  57.664
10616DA     SC369016  28.228  69.180  57.490
10616DA     SC469017  28.161  69.409  57.344
10617DT     BB169018  28.221  69.991  57.465
10617DT     BB269019  28.273  69.899  57.810
10617DT     BB369020  28.471  69.849  57.841
10617DT     SC169021  28.442  69.619  57.719
10617DT     SC269022  28.456  69.460  57.862
10617DT     SC369023  28.471  69.427  57.540
10618DA     BB169024  28.387  70.139  58.132
10618DA     BB269025  28.548  69.857  58.302
10618DA     BB369026  28.757  69.856  58.261
10618DA     SC169027  28.732  69.675  58.009
10618DA     SC269028  28.791  69.442  57.942
10618DA     SC369029  28.772  69.528  57.701
10618DA     SC469030  28.716  69.748  57.866
10619DG     BB169031  28.794  69.887  58.570
10619DG     BB269032  28.945  69.559  58.541
10619DG     BB369033  29.136  69.577  58.487
10619DG     SC169034  29.078  69.569  58.186
10619DG     SC269035  29.159  69.352  57.998
10619DG     SC369036  29.049  69.584  57.851
10619DG     SC469037  29.046  69.706  58.110
10620DG     BB169038  29.229  69.416  58.760
10620DG     BB269039  29.362  69.163  58.539
10620DG     BB369040  29.544  69.215  58.478
10620DG     SC169041  29.445  69.368  58.232
10620DG     SC269042  29.491  69.290  57.947
10620DG     SC369043  29.371  69.560  57.965
10620DG     SC469044  29.409  69.523  58.246
10621DT     BB169045  29.737  69.095  58.527
10621DT     BB269046  29.804  68.937  58.210
10621DT     BB369047  29.964  69.029  58.117
10621DT     SC169048  29.818  69.238  58.053
10621DT     SC269049  29.788  69.241  57.840
10621DT     SC369050  29.731  69.487  58.045
10622DC     BB169051  30.118  68.813  58.168
10622DC     BB269052  30.131  68.853  57.810
10622DC     BB369053  30.281  68.987  57.759
10622DC     SC169054  30.136  69.191  57.839
10622DC     SC269055  30.076  69.307  57.669
10622DC     SC369056  30.060  69.402  57.978
10623DT     BB169057  30.426  68.782  57.663
10623DT     BB269058  30.392  69.009  57.385
10623DT     BB369059  30.540  69.154  57.393
10623DT     SC169060  30.418  69.278  57.590
10623DT     SC269061  30.341  69.466  57.519
10623DT     SC369062  30.372  69.378  57.830
10624DC     BB169063  30.661  69.038  57.182
10624DC     BB269064  30.603  69.379  57.078
10624DC     BB369065  30.758  69.500  57.143
10624DC     SC169066  30.669  69.494  57.390
10624DC     SC269067  30.594  69.689  57.443
10624DC     SC369068  30.661  69.448  57.649
10625DC     BB169069  30.848  69.521  56.888
10625DC     BB269070  30.795  69.862  56.994
10625DC     BB369071  30.963  69.932  57.093
10625DC     SC169072  30.904  69.791  57.307
10625DC     SC269073  30.845  69.923  57.466
10625DC     SC369074  30.924  69.610  57.498
10626DT     BB169075  31.042  70.094  56.883
10626DT     BB269076  31.014  70.320  57.163
10626DT     BB369077  31.193  70.328  57.266
10626DT     SC169078  31.152  70.092  57.372
10626DT     SC269079  31.114  70.114  57.583
10626DT     SC369080  31.184  69.837  57.430
10627DT     BB169081  31.272  70.584  57.174
10627DT     BB269082  31.271  70.617  57.533
10627DT     BB369083  31.459  70.572  57.608
10627DT     SC169084  31.421  70.315  57.570
10627DT     SC269085  31.401  70.216  57.760
10627DT     SC369086  31.453  70.071  57.474
10628DT     BB169087  31.530  70.838  57.669
10628DT     BB269088  31.548  70.665  57.985
10628DT     BB369089  31.739  70.592  58.015
10628DT     SC169090  31.701  70.400  57.841
10628DT     SC269091  31.692  70.211  57.944
10628DT     SC369092  31.730  70.251  57.625
10629DT     BB169093  31.782  70.779  58.209
10629DT     BB269094  31.813  70.459  58.374
10629DT     BB369095  32.008  70.391  58.360
10629DT     SC169096  31.976  70.328  58.108
10629DT     SC269097  31.978  70.114  58.087
10629DT     SC369098  32.007  70.328  57.846
10630DA     BB169099  31.827  70.375  58.738
10630DA     BB269100  31.961  70.044  58.654
10630DA     BB369101  32.175  70.049  58.651
10630DA     SC169102  32.194  70.121  58.349
10630DA     SC269103  32.267  70.011  58.138
10630DA     SC369104  32.287  70.250  58.045
10630DA     SC469105  32.202  70.277  58.310
10631DA     BB169106  32.006  69.806  58.802
10631DA     BB269107  32.196  69.592  58.573
10631DA     BB369108  32.406  69.617  58.605
10631DA     SC169109  32.435  69.845  58.396
10631DA     SC269110  32.539  69.878  58.171
10631DA     SC369111  32.527  70.128  58.225
10631DA     SC469112  32.420  69.996  58.448
10632DC     BB169113  32.402  69.467  58.629
10632DC     BB269114  32.595  69.375  58.339
10632DC     BB369115  32.794  69.422  58.368
10632DC     SC169116  32.748  69.678  58.333
10632DC     SC269117  32.837  69.741  58.148
10632DC     SC369118  32.728  69.936  58.384
10633DA     BB169119  32.725  69.034  58.209
10633DA     BB269120  33.002  69.192  58.028
10633DA     BB369121  33.169  69.220  58.159
10633DA     SC169122  33.081  69.505  58.248
10633DA     SC269123  33.158  69.740  58.217
10633DA     SC369124  33.019  69.791  58.427
10633DA     SC469125  32.990  69.516  58.381
10634DT     BB169126  33.328  69.115  58.120
10634DT     BB269127  33.538  69.384  58.004
10634DT     BB369128  33.669  69.441  58.154
10634DT     SC169129  33.478  69.564  58.285
10634DT     SC269130  33.511  69.777  58.277
10634DT     SC369131  33.307  69.624  58.477
10635DT     BB169132  33.889  69.322  58.034
10635DT     BB269133  33.993  69.663  58.084
10635DT     BB369134  34.080  69.684  58.270
10635DT     SC169135  33.846  69.672  58.389
10635DT     SC269136  33.798  69.865  58.471
10635DT     SC369137  33.650  69.586  58.543
10636DA     BB169138  34.370  69.837  58.008
10636DA     BB269139  34.323  70.084  58.276
10636DA     BB369140  34.419  70.019  58.454
10636DA     SC169141  34.169  69.870  58.564
10636DA     SC269142  34.004  69.897  58.749
10636DA     SC369143  33.956  69.647  58.716
10636DA     SC469144  34.154  69.714  58.529
10637DC     BB169145  34.580  70.125  58.526
10637DC     BB269146  34.405  70.284  58.799
10637DC     BB369147  34.461  70.198  58.979
10637DC     SC169148  34.317  69.983  58.930
10637DC     SC269149  34.149  69.977  59.064
10637DC     SC369150  34.257  69.731  58.882
10638DT     BB169151  34.580  70.428  59.023
10638DT     BB269152  34.347  70.387  59.295
10638DT     BB369153  34.430  70.267  59.442
10638DT     SC169154  34.393  70.051  59.296
10638DT     SC269155  34.241  69.930  59.386
10638DT     SC369156  34.447  69.835  59.155
10639DC     BB169157  34.429  70.491  59.573
10639DC     BB269158  34.240  70.260  59.776
10639DC     BB369159  34.369  70.138  59.883
10639DC     SC169160  34.428  69.999  59.668
10639DC     SC269161  34.344  69.801  59.686
10639DC     SC369162  34.568  69.894  59.471
10640DA     BB169163  34.069  70.300  60.132
10640DA     BB269164  34.104  69.943  60.208
10640DA     BB369165  34.293  69.905  60.301
10640DA     SC169166  34.441  69.850  60.033
10640DA     SC269167  34.543  69.656  59.915
10640DA     SC369168  34.674  69.831  59.781
10640DA     SC469169  34.514  69.975  59.962
10641DA     BB169170  34.110  69.760  60.541
10641DA     BB269171  34.304  69.454  60.484
10641DA     BB369172  34.501  69.475  60.565
10641DA     SC169173  34.624  69.588  60.303
10641DA     SC269174  34.783  69.512  60.126
10641DA     SC369175  34.808  69.762  60.071
10641DA     SC469176  34.627  69.747  60.285
10642DA     BB169177  34.475  69.199  60.770
10642DA     BB269178  34.762  69.050  60.596
10642DA     BB369179  34.945  69.127  60.675
10642DA     SC169180  34.961  69.364  60.474
10642DA     SC269181  35.101  69.431  60.279
10642DA     SC369182  35.013  69.668  60.324
10642DA     SC469183  34.896  69.504  60.519
10643DT     BB169184  35.132  69.023  60.821
10643DT     BB269185  35.376  68.995  60.556
10643DT     BB369186  35.537  69.119  60.595
10643DT     SC169187  35.399  69.332  60.530
10643DT     SC269188  35.475  69.414  60.346
10643DT     SC369189  35.276  69.565  60.553
10644DT     BB169190  35.740  68.923  60.684
10644DT     BB269191  35.902  69.091  60.408
10644DT     BB369192  36.020  69.245  60.479
10644DT     SC169193  35.810  69.394  60.527
10644DT     SC269194  35.806  69.559  60.389
10644DT     SC369195  35.631  69.535  60.660
10645DA     BB169196  36.286  69.019  60.246
10645DA     BB269197  36.315  69.367  60.136
10645DA     BB369198  36.432  69.479  60.274
10645DA     SC169199  36.187  69.567  60.446
10645DA     SC269200  36.061  69.776  60.494
10645DA     SC369201  35.977  69.654  60.703
10645DA     SC469202  36.148  69.475  60.572
10646DG     BB169203  36.619  69.525  60.031
10646DG     BB269204  36.515  69.869  60.073
10646DG     BB369205  36.625  69.957  60.213
10646DG     SC169206  36.439  69.880  60.443
10646DG     SC269207  36.276  70.069  60.608
10646DG     SC369208  36.268  69.796  60.722
10646DG     SC469209  36.461  69.740  60.517
10647DT     BB169210  36.755  70.131  60.164
10647DT     BB269211  36.567  70.403  60.307
10647DT     BB369212  36.655  70.464  60.484
10647DT     SC169213  36.565  70.253  60.611
10647DT     SC269214  36.413  70.313  60.752
10647DT     SC369215  36.564  70.026  60.746
10648DA     BB169216  36.612  70.811  60.252
10648DA     BB269217  36.479  70.884  60.586
10648DA     BB369218  36.639  70.908  60.725
10648DA     SC169219  36.645  70.608  60.807
10648DA     SC269220  36.589  70.470  61.006
10648DA     SC369221  36.742  70.293  60.902
10648DA     SC469222  36.746  70.511  60.726
10649DA     BB169223  36.501  71.202  60.791
10649DA     BB269224  36.450  71.084  61.134
10649DA     BB369225  36.631  71.097  61.245
10649DA     SC169226  36.725  70.809  61.173
10649DA     SC269227  36.755  70.591  61.289
10649DA     SC369228  36.910  70.532  61.093
10649DA     SC469229  36.818  70.792  61.043
10650DC     BB169230  36.660  71.236  61.412
10650DC     BB269231  36.633  70.986  61.672
10650DC     BB369232  36.817  70.955  61.760
10650DC     SC169233  36.902  70.820  61.552
10650DC     SC269234  36.924  70.612  61.606
10650DC     SC369235  37.045  70.753  61.340
10651DG     BB169236  36.575  71.075  62.065
10651DG     BB269237  36.734  70.760  62.141
10651DG     BB369238  36.919  70.791  62.207
10651DG     SC169239  37.047  70.780  61.928
10651DG     SC269240  37.234  70.570  61.830
10651DG     SC369241  37.217  70.794  61.637
10651DG     SC469242  37.057  70.915  61.843
10652DT     BB169243  36.967  70.725  62.404
10652DT     BB269244  37.160  70.429  62.333
10652DT     BB369245  37.362  70.468  62.359
10652DT     SC169246  37.371  70.603  62.134
10652DT     SC269247  37.486  70.493  61.989
10652DT     SC369248  37.401  70.805  61.967
10653DT     BB169249  37.342  70.312  62.571
10653DT     BB269250  37.598  70.160  62.366
10653DT     BB369251  37.780  70.252  62.401
10653DT     SC169252  37.708  70.464  62.264
10653DT     SC269253  37.821  70.473  62.082
10653DT     SC369254  37.646  70.714  62.209
10654DT     BB169255  37.853  70.026  62.524
10654DT     BB269256  38.104  70.077  62.270
10654DT     BB369257  38.250  70.206  62.340
10654DT     SC169258  38.092  70.413  62.313
10654DT     SC269259  38.163  70.538  62.152
10654DT     SC369260  37.944  70.623  62.376
10655DG     BB169261  38.448  69.862  62.242
10655DG     BB269262  38.607  70.150  62.091
10655DG     BB369263  38.718  70.245  62.226
10655DG     SC169264  38.492  70.428  62.322
10655DG     SC269265  38.479  70.724  62.285
10655DG     SC369266  38.263  70.630  62.464
10655DG     SC469267  38.396  70.378  62.439
10656DC     BB169268  38.964  70.271  62.230
10656DC     BB269269  38.996  70.618  62.136
10656DC     BB369270  39.057  70.730  62.300
10656DC     SC169271  38.818  70.717  62.408
10656DC     SC269272  38.726  70.911  62.402
10656DC     SC369273  38.627  70.659  62.579
10657DA     BB169274  39.360  70.830  62.023
10657DA     BB269275  39.231  71.146  62.158
10657DA     BB369276  39.314  71.184  62.350
10657DA     SC169277  39.086  71.039  62.505
10657DA     SC269278  38.897  71.101  62.655
10657DA     SC369279  38.903  70.855  62.730
10657DA     SC469280  39.107  70.883  62.539
10658DA     BB169281  39.419  71.473  62.229
10658DA     BB269282  39.192  71.636  62.466
10658DA     BB369283  39.283  71.650  62.659
10658DA     SC169284  39.172  71.378  62.758
10658DA     SC269285  39.005  71.296  62.924
10658DA     SC369286  39.130  71.073  62.910
10658DA     SC469287  39.264  71.248  62.737
10659DA     BB169288  39.197  71.953  62.598
10659DA     BB269289  38.971  71.920  62.884
10659DA     BB369290  39.080  71.932  63.067
10659DA     SC169291  39.129  71.626  63.086
10659DA     SC269292  39.054  71.435  63.229
10659DA     SC369293  39.264  71.315  63.142
10659DA     SC469294  39.265  71.568  63.022
10660DA     BB169295  38.811  72.109  63.034
10660DA     BB269296  38.695  71.918  63.325
10660DA     BB369297  38.818  71.959  63.494
10660DA     SC169298  39.017  71.727  63.436
10660DA     SC269299  39.078  71.507  63.536
10660DA     SC369300  39.297  71.531  63.405
10660DA     SC469301  39.147  71.761  63.348
10661DG     BB169302  38.502  71.966  63.491
10661DG     BB269303  38.562  71.720  63.749
10661DG     BB369304  38.668  71.800  63.896
10661DG     SC169305  38.940  71.729  63.774
10661DG     SC269306  39.136  71.534  63.886
10661DG     SC369307  39.254  71.684  63.660
10661DG     SC469308  39.008  71.831  63.673
10662DA     BB169309  38.400  71.579  63.999
10662DA     BB269310  38.651  71.429  64.221
10662DA     BB369311  38.739  71.578  64.344
10662DA     SC169312  38.970  71.641  64.146
10662DA     SC269313  39.217  71.608  64.133
10662DA     SC369314  39.213  71.795  63.957
10662DA     SC469315  38.947  71.759  64.039
10663DC     BB169316  38.695  71.540  64.507
10663DC     BB269317  39.023  71.458  64.634
10663DC     BB369318  39.113  71.627  64.711
10663DC     SC169319  39.162  71.721  64.471
10663DC     SC269320  39.373  71.715  64.433
10663DC     SC369321  39.154  71.880  64.261
10664DA     BB169322  39.138  71.353  65.031
10664DA     BB269323  39.465  71.515  65.001
10664DA     BB369324  39.456  71.715  65.074
10664DA     SC169325  39.382  71.839  64.798
10664DA     SC269326  39.490  71.984  64.627
10664DA     SC369327  39.251  72.031  64.546
10664DA     SC469328  39.226  71.856  64.764
10665DT     BB169329  39.554  71.796  65.264
10665DT     BB269330  39.814  71.986  65.099
10665DT     BB369331  39.778  72.188  65.120
10665DT     SC169332  39.584  72.180  64.943
10665DT     SC269333  39.646  72.285  64.765
10665DT     SC369334  39.343  72.196  64.838
10666DA     BB169335  40.169  72.149  65.268
10666DA     BB269336  40.172  72.422  65.024
10666DA     BB369337  40.086  72.598  65.108
10666DA     SC169338  39.797  72.533  65.014
10666DA     SC269339  39.633  72.621  64.848
10666DA     SC369340  39.457  72.500  64.989
10666DA     SC469341  39.702  72.452  65.115
10667DA     BB169342  40.372  72.726  65.012
10667DA     BB269343  40.178  72.944  64.790
10667DA     BB369344  40.087  73.102  64.901
10667DA     SC169345  39.824  72.944  64.957
10667DA     SC269346  39.585  72.953  64.887
10667DA     SC369347  39.540  72.814  65.098
10667DA     SC469348  39.816  72.859  65.093
10668DT     BB169349  40.151  73.274  64.856
10668DT     BB269350  39.860  73.382  64.672
10668DT     BB369351  39.744  73.507  64.789
10668DT     SC169352  39.656  73.306  64.932
10668DT     SC269353  39.448  73.274  64.890
10668DT     SC369354  39.613  73.149  65.140
10669DT     BB169355  39.825  73.693  64.621
10669DT     BB269356  39.465  73.703  64.607
10669DT     BB369357  39.391  73.813  64.766
10669DT     SC169358  39.441  73.618  64.935
10669DT     SC269359  39.256  73.533  65.003
10669DT     SC369360  39.547  73.486  65.137
10670DA     BB169361  39.215  73.954  64.411
10670DA     BB269362  38.950  73.911  64.660
10670DA     BB369363  38.966  74.059  64.812
10670DA     SC169364  39.149  73.887  64.995
10670DA     SC269365  39.133  73.768  65.214
10670DA     SC369366  39.389  73.777  65.215
10670DA     SC469367  39.308  73.903  64.978
10671DT     BB169368  38.822  74.211  64.834
10671DT     BB269369  38.670  74.089  65.138
10671DT     BB369370  38.729  74.206  65.298
10671DT     SC169371  38.967  74.097  65.300
10671DT     SC269372  38.989  73.975  65.476
10671DT     SC369373  39.229  74.073  65.282
10672DA     BB169374  38.308  74.219  65.325
10672DA     BB269375  38.437  74.138  65.659
10672DA     BB369376  38.520  74.311  65.751
10672DA     SC169377  38.807  74.262  65.641
10672DA     SC269378  39.030  74.196  65.731
10672DA     SC369379  39.124  74.298  65.515
10672DA     SC469380  38.846  74.331  65.501
10673DT     BB169381  38.434  74.409  65.925
10673DT     BB269382  38.679  74.291  66.162
10673DT     BB369383  38.803  74.447  66.220
10673DT     SC169384  38.930  74.441  65.990
10673DT     SC269385  39.130  74.369  66.022
10673DT     SC369386  39.022  74.518  65.755
10674DA     BB169387  38.659  74.287  66.581
10674DA     BB269388  39.024  74.311  66.607
10674DA     BB369389  39.083  74.514  66.636
10674DA     SC169390  39.113  74.574  66.332
10674DA     SC269391  39.297  74.619  66.170
10674DA     SC369392  39.114  74.721  66.021
10674DA     SC469393  38.985  74.634  66.255
10675DA     BB169394  39.239  74.392  66.900
10675DA     BB269395  39.551  74.501  66.743
10675DA     BB369396  39.576  74.712  66.764
10675DA     SC169397  39.432  74.780  66.497
10675DA     SC269398  39.492  74.869  66.272
10675DA     SC369399  39.243  74.927  66.250
10675DA     SC469400  39.274  74.809  66.503
10676DA     BB169401  39.865  74.625  66.896
10676DA     BB269402  40.024  74.806  66.619
10676DA     BB369403  40.015  75.016  66.653
10676DA     SC169404  39.743  75.053  66.506
10676DA     SC269405  39.660  75.157  66.295
10676DA     SC369406  39.430  75.156  66.410
10676DA     SC469407  39.609  75.045  66.595
10677DA     BB169408  40.341  74.994  66.609
10677DA     BB269409  40.294  75.207  66.314
10677DA     BB369410  40.265  75.410  66.374
10677DA     SC169411  39.956  75.387  66.391
10677DA     SC269412  39.757  75.472  66.266
10677DA     SC369413  39.626  75.418  66.480
10677DA     SC469414  39.892  75.348  66.533
10678DT     BB169415  40.408  75.554  66.325
10678DT     BB269416  40.218  75.701  66.056
10678DT     BB369417  40.144  75.886  66.114
10678DT     SC169418  39.961  75.773  66.265
10678DT     SC269419  39.767  75.805  66.178
10678DT     SC369420  39.825  75.704  66.480
10679DA     BB169421  40.344  75.924  65.749
10679DA     BB269422  40.007  76.066  65.713
10679DA     BB369423  39.994  76.252  65.817
10679DA     SC169424  39.898  76.124  66.084
10679DA     SC269425  39.690  76.116  66.220
10679DA     SC369426  39.844  76.049  66.414
10679DA     SC469427  40.011  76.085  66.192
10680DC     BB169428  39.960  76.372  65.695
10680DC     BB269429  39.610  76.406  65.775
10680DC     BB369430  39.581  76.569  65.900
10680DC     SC169431  39.679  76.437  66.105
10680DC     SC269432  39.521  76.395  66.245
10680DC     SC369433  39.838  76.371  66.305
10681DT     BB169434  39.463  76.614  65.680
10681DT     BB269435  39.210  76.611  65.937
10681DT     BB369436  39.225  76.781  66.053
10681DT     SC169437  39.438  76.689  66.175
10681DT     SC269438  39.390  76.644  66.380
10681DT     SC369439  39.688  76.670  66.257
10682DA     BB169440  38.845  76.624  65.926
10682DA     BB269441  38.833  76.713  66.282
10682DA     BB369442  38.866  76.922  66.308
10682DA     SC169443  39.174  76.894  66.337
10682DA     SC269444  39.345  76.919  66.517
10682DA     SC369445  39.514  76.942  66.325
10682DA     SC469446  39.263  76.908  66.204
10683DT     BB169447  38.724  76.955  66.376
10683DT     BB269448  38.847  77.039  66.704
10683DT     BB369449  38.907  77.238  66.709
10683DT     SC169450  39.125  77.184  66.573
10683DT     SC269451  39.296  77.206  66.701
10683DT     SC369452  39.302  77.185  66.378
10684DA     BB169453  38.654  77.157  67.038
10684DA     BB269454  38.940  77.354  67.156
10684DA     BB369455  38.930  77.553  67.080
10684DA     SC169456  39.095  77.491  66.824
10684DA     SC269457  39.320  77.545  66.731
10684DA     SC369458  39.219  77.481  66.504
10684DA     SC469459  39.013  77.448  66.692
10685DA     BB169460  38.952  77.651  67.399
10685DA     BB269461  39.255  77.836  67.306
10685DA     BB369462  39.204  78.015  67.203
10685DA     SC169463  39.213  77.884  66.921
10685DA     SC269464  39.356  77.893  66.717
10685DA     SC369465  39.153  77.796  66.594
10685DA     SC469466  39.075  77.824  66.862
10686DA     BB169467  39.377  78.196  67.429
10686DA     BB269468  39.594  78.310  67.156
10686DA     BB369469  39.501  78.469  67.049
10686DA     SC169470  39.361  78.282  66.844
10686DA     SC269471  39.380  78.227  66.601
10686DA     SC369472  39.141  78.138  66.623
10686DA     SC469473  39.212  78.233  66.877
10687DT     BB169474  39.568  78.691  67.044
10687DT     BB269475  39.708  78.681  66.712
10687DT     BB369476  39.593  78.795  66.583
10687DT     SC169477  39.405  78.612  66.576
10687DT     SC269478  39.401  78.520  66.382
10687DT     SC369479  39.171  78.496  66.608
10688DA     BB169480  39.982  78.944  66.536
10688DA     BB269481  39.851  78.870  66.201
10688DA     BB369482  39.712  79.021  66.141
10688DA     SC169483  39.464  78.873  66.258
10688DA     SC269484  39.262  78.755  66.172
10688DA     SC369485  39.164  78.795  66.405
10688DA     SC469486  39.420  78.909  66.408
10689DT     BB169487  39.762  79.136  65.985
10689DT     BB269488  39.542  78.978  65.746
10689DT     BB369489  39.379  79.100  65.708
10689DT     SC169490  39.272  79.042  65.940
10689DT     SC269491  39.096  78.922  65.909
10689DT     SC369492  39.177  79.072  66.185
10690DT     BB169493  39.488  79.133  65.469
10690DT     BB269494  39.159  78.998  65.406
10690DT     BB369495  39.019  79.151  65.408
10690DT     SC169496  39.030  79.168  65.670
10690DT     SC269497  38.845  79.096  65.754
10690DT     SC369498  39.071  79.267  65.911
10691DC     BB169499  39.003  79.106  65.149
10691DC     BB269500  38.666  79.064  65.271
10691DC     BB369501  38.574  79.249  65.289
10691DC     SC169502  38.712  79.307  65.504
10691DC     SC269503  38.581  79.307  65.675
10691DC     SC369504  38.881  79.429  65.665
10692DA     BB169505  38.324  78.986  65.076
10692DA     BB269506  38.122  79.155  65.331
10692DA     BB369507  38.094  79.360  65.279
10692DA     SC169508  38.347  79.458  65.432
10692DA     SC269509  38.399  79.592  65.636
10692DA     SC369510  38.630  79.625  65.530
10692DA     SC469511  38.484  79.469  65.349
10693DT     BB169512  37.910  79.416  65.236
10693DT     BB269513  37.846  79.608  65.534
10693DT     BB369514  37.863  79.811  65.493
10693DT     SC169515  38.125  79.795  65.484
10693DT     SC269516  38.209  79.897  65.654
10693DT     SC369517  38.371  79.803  65.390
10694DC     BB169518  37.591  79.848  65.505
10694DC     BB269519  37.721  80.088  65.741
10694DC     BB369520  37.764  80.266  65.644
10694DC     SC169521  37.980  80.163  65.534
10694DC     SC269522  38.154  80.253  65.622
10694DC     SC369523  38.147  80.076  65.350
10695DA     BB169524  37.513  80.385  65.959
10695DA     BB269525  37.803  80.609  65.961
10695DA     BB369526  37.788  80.751  65.802
10695DA     SC169527  37.941  80.574  65.597
10695DA     SC269528  38.161  80.576  65.480
10695DA     SC369529  38.050  80.416  65.312
10695DA     SC469530  37.854  80.477  65.503
10696DT     BB169531  37.755  80.969  65.831
10696DT     BB269532  38.091  81.073  65.749
10696DT     BB369533  38.091  81.171  65.566
10696DT     SC169534  38.063  80.945  65.436
10696DT     SC269535  38.245  80.900  65.330
10696DT     SC369536  37.957  80.759  65.282
10697DT     BB169537  38.124  81.433  65.671
10697DT     BB269538  38.402  81.397  65.443
10697DT     BB369539  38.348  81.467  65.256
10697DT     SC169540  38.202  81.253  65.210
10697DT     SC269541  38.297  81.134  65.058
10697DT     SC369542  37.991  81.103  65.162
10698DT     BB169543  38.499  81.705  65.272
10698DT     BB269544  38.624  81.542  64.975
10698DT     BB369545  38.517  81.605  64.809
10698DT     SC169546  38.310  81.459  64.878
10698DT     SC269547  38.289  81.296  64.738
10698DT     SC369548  38.066  81.394  64.952
10699DC     BB169549  38.725  81.762  64.712
10699DC     BB269550  38.654  81.532  64.443
10699DC     BB369551  38.511  81.612  64.317
10699DC     SC169552  38.320  81.565  64.491
10699DC     SC269553  38.192  81.409  64.417
10699DC     SC369554  38.125  81.608  64.663
10700DA     BB169555  38.833  81.499  64.075
10700DA     BB269556  38.529  81.356  63.930
10700DA     BB369557  38.415  81.508  63.832
10700DA     SC169558  38.247  81.578  64.084
10700DA     SC269559  38.011  81.553  64.162
10700DA     SC369560  38.067  81.739  64.329
10700DA     SC469561  38.301  81.696  64.179
10701DT     BB169562  38.395  81.495  63.633
10701DT     BB269563  38.053  81.381  63.633
10701DT     BB369564  37.927  81.535  63.575
10701DT     SC169565  37.953  81.654  63.808
10701DT     SC269566  37.767  81.642  63.915
10701DT     SC369567  38.016  81.837  63.987
10702DT     BB169568  37.894  81.390  63.359
10702DT     BB269569  37.564  81.429  63.499
10702DT     BB369570  37.485  81.612  63.444
10702DT     SC169571  37.640  81.739  63.613
10702DT     SC269572  37.521  81.819  63.774
10702DT     SC369573  37.827  81.901  63.706
10703DC     BB169574  37.323  81.467  63.298
10703DC     BB269575  37.109  81.661  63.513
10703DC     BB369576  37.085  81.852  63.435
10703DC     SC169577  37.327  81.921  63.509
10703DC     SC269578  37.314  82.065  63.669
10703DC     SC369579  37.578  81.998  63.493
10704DA     BB169580  36.708  81.688  63.528
10704DA     BB269581  36.724  82.027  63.666
10704DA     BB369582  36.719  82.172  63.509
10704DA     SC169583  37.028  82.184  63.477
10704DA     SC269584  37.212  82.346  63.521
10704DA     SC369585  37.348  82.207  63.353
10704DA     SC469586  37.095  82.085  63.369
10705DC     BB169587  36.559  82.290  63.497
10705DC     BB269588  36.718  82.592  63.615
10705DC     BB369589  36.757  82.718  63.456
10705DC     SC169590  36.958  82.569  63.376
10705DC     SC269591  37.143  82.674  63.410
10705DC     SC369592  37.105  82.410  63.225
10706DT     BB169593  36.557  82.888  63.532
10706DT     BB269594  36.852  83.095  63.521
10706DT     BB369595  36.879  83.169  63.329
10706DT     SC169596  36.964  82.936  63.243
10706DT     SC269597  37.174  82.949  63.198
10706DT     SC369598  36.974  82.711  63.106
10707DG     BB169599  36.847  83.498  63.569
10707DG     BB269600  37.148  83.510  63.369
10707DG     BB369601  37.105  83.569  63.184
10707DG     SC169602  37.054  83.286  63.079
10707DG     SC269603  37.220  83.142  62.877
10707DG     SC369604  36.972  82.992  62.936
10707DG     SC469605  36.907  83.223  63.091
10708DA     BB169606  37.353  83.806  63.226
10708DA     BB269607  37.538  83.661  62.944
10708DA     BB369608  37.448  83.720  62.760
10708DA     SC169609  37.258  83.474  62.745
10708DA     SC269610  37.234  83.268  62.608
10708DA     SC369611  36.992  83.264  62.693
10708DA     SC469612  37.111  83.490  62.808
10709DT     BB169613  37.561  83.828  62.654
10709DT     BB269614  37.647  83.575  62.412
10709DT     BB369615  37.535  83.601  62.240
10709DT     SC169616  37.319  83.506  62.355
10709DT     SC269617  37.271  83.315  62.269
10709DT     SC369618  37.076  83.495  62.455
10710DT     BB169619  37.765  83.672  62.134
10710DT     BB269620  37.648  83.395  61.934
10710DT     BB369621  37.512  83.462  61.794
10710DT     SC169622  37.325  83.489  61.977
10710DT     SC269623  37.173  83.340  61.946
10710DT     SC369624  37.147  83.603  62.134
10711DT     BB169625  37.704  83.405  61.626
10711DT     BB269626  37.420  83.212  61.515
10711DT     BB369627  37.292  83.331  61.405
10711DT     SC169628  37.205  83.452  61.621
10711DT     SC269629  37.001  83.395  61.658
10711DT     SC369630  37.156  83.644  61.796
10712DA     BB169631  37.373  82.975  61.195
10712DA     BB269632  37.011  83.034  61.189
10712DA     BB369633  36.965  83.201  61.065
10712DA     SC169634  36.983  83.409  61.296
10712DA     SC269635  36.827  83.555  61.425
10712DA     SC369636  37.037  83.690  61.485
10712DA     SC469637  37.125  83.481  61.320
10713DG     BB169638  36.800  82.992  60.904
10713DG     BB269639  36.522  83.200  61.007
10713DG     BB369640  36.509  83.358  60.888
10713DG     SC169641  36.693  83.533  61.059
10713DG     SC269642  36.613  83.777  61.211
10713DG     SC369643  36.907  83.745  61.210
10713DG     SC469644  36.851  83.529  61.031
10714DT     BB169645  36.330  83.395  60.759
10714DT     BB269646  36.167  83.662  60.939
10714DT     BB369647  36.199  83.842  60.841
10714DT     SC169648  36.448  83.853  60.926
10714DT     SC269649  36.467  84.011  61.070
10714DT     SC369650  36.711  83.858  60.921
10715DA     BB169651  35.787  83.803  60.907
10715DA     BB269652  35.890  84.135  61.025
10715DA     BB369653  35.932  84.262  60.859
10715DA     SC169654  36.234  84.187  60.846
10715DA     SC269655  36.453  84.296  60.892
10715DA     SC369656  36.552  84.113  60.742
10715DA     SC469657  36.276  84.066  60.749
10716DC     BB169658  35.815  84.406  60.849
10716DC     BB269659  36.046  84.659  60.963
10716DC     BB369660  36.122  84.764  60.802
10716DC     SC169661  36.277  84.563  60.735
10716DC     SC269662  36.482  84.616  60.771
10716DC     SC369663  36.380  84.365  60.594
10717DT     BB169664  35.978  84.956  60.903
10717DT     BB269665  36.316  85.083  60.890
10717DT     BB369666  36.360  85.148  60.699
10717DT     SC169667  36.383  84.902  60.612
10717DT     SC269668  36.589  84.861  60.566
10717DT     SC369669  36.335  84.681  60.475
10718DA     BB169670  36.466  85.435  60.989
10718DA     BB269671  36.744  85.397  60.754
10718DA     BB369672  36.690  85.474  60.562
10718DA     SC169673  36.580  85.203  60.457
10718DA     SC269674  36.645  85.031  60.289
10718DA     SC369675  36.399  84.958  60.299
10718DA     SC469676  36.424  85.174  60.477
10719DC     BB169677  36.789  85.627  60.509
10719DC     BB269678  36.984  85.474  60.247
10719DC     BB369679  36.898  85.514  60.063
10719DC     SC169680  36.706  85.340  60.106
10719DC     SC269681  36.732  85.171  59.976
10719DC     SC369682  36.464  85.242  60.145
10720DA     BB169683  37.293  85.654  60.002
10720DA     BB269684  37.204  85.453  59.708
10720DA     BB369685  37.071  85.561  59.582
10720DA     SC169686  36.814  85.452  59.719
10720DA     SC269687  36.626  85.298  59.663
10720DA     SC369688  36.500  85.416  59.853
10720DA     SC469689  36.751  85.539  59.840
10721DC     BB169690  37.097  85.674  59.349
10721DC     BB269691  36.905  85.430  59.165
10721DC     BB369692  36.732  85.517  59.091
10721DC     SC169693  36.622  85.516  59.329
10721DC     SC269694  36.461  85.373  59.333
10721DC     SC369695  36.514  85.605  59.554
10722DT     BB169696  36.775  85.582  58.784
10722DT     BB269697  36.476  85.380  58.779
10722DT     BB369698  36.310  85.501  58.763
10722DT     SC169699  36.330  85.576  59.014
10722DT     SC269700  36.167  85.492  59.127
10722DT     SC369701  36.363  85.730  59.225
10723DA     BB169702  36.244  85.258  58.424
10723DA     BB269703  35.937  85.245  58.624
10723DA     BB369704  35.816  85.417  58.586
10723DA     SC169705  35.943  85.586  58.815
10723DA     SC269706  35.875  85.676  59.037
10723DA     SC369707  36.071  85.839  59.008
10723DA     SC469708  36.069  85.679  58.778
10724DC     BB169709  35.622  85.404  58.489
10724DC     BB269710  35.429  85.442  58.791
10724DC     BB369711  35.334  85.626  58.792
10724DC     SC169712  35.558  85.751  58.845
10724DC     SC269713  35.550  85.829  59.045
10724DC     SC369714  35.765  85.912  58.817
10725DC     BB169715  35.102  85.494  58.756
10725DC     BB269716  35.058  85.677  59.064
10725DC     BB369717  34.992  85.869  59.023
10725DC     SC169718  35.230  85.942  58.941
10725DC     SC269719  35.315  86.080  59.082
10725DC     SC369720  35.422  86.026  58.781
10726DA     BB169721  34.746  85.692  59.313
10726DA     BB269722  34.842  86.025  59.432
10726DA     BB369723  34.741  86.176  59.320
10726DA     SC169724  34.965  86.201  59.106
10726DA     SC269725  35.138  86.368  59.037
10726DA     SC369726  35.141  86.242  58.814
10726DA     SC469727  34.952  86.111  58.974
10727DT     BB169728  34.609  86.288  59.418
10727DT     BB269729  34.806  86.590  59.432
10727DT     BB369730  34.737  86.726  59.293
10727DT     SC169731  34.843  86.591  59.095
10727DT     SC269732  35.008  86.703  59.013
10727DT     SC369733  34.863  86.448  58.874
10728DT     BB169734  34.623  86.887  59.488
10728DT     BB269735  34.845  87.109  59.309
10728DT     BB369736  34.745  87.196  59.150
10728DT     SC169737  34.755  86.973  59.012
10728DT     SC269738  34.890  86.999  58.846
10728DT     SC369739  34.676  86.758  58.882
10729DA     BB169740  34.907  87.518  59.365
10729DA     BB269741  34.998  87.564  59.013
10729DA     BB369742  34.829  87.632  58.901
10729DA     SC169743  34.732  87.346  58.826
10729DA     SC269744  34.718  87.204  58.622
10729DA     SC369745  34.543  87.069  58.753
10729DA     SC469746  34.625  87.276  58.923
10730DC     BB169747  34.830  87.823  58.818
10730DC     BB269748  34.889  87.717  58.478
10730DC     BB369749  34.716  87.740  58.366
10730DC     SC169750  34.605  87.531  58.478
10730DC     SC269751  34.589  87.372  58.334
10730DC     SC369752  34.436  87.385  58.619
10731DT     BB169753  34.836  87.945  58.238
10731DT     BB269754  34.752  87.710  57.978
10731DT     BB369755  34.558  87.745  57.912
10731DT     SC169756  34.457  87.636  58.128
10731DT     SC269757  34.363  87.450  58.078
10731DT     SC369758  34.324  87.613  58.355
10732DA     BB169759  34.836  87.710  57.597
10732DA     BB269760  34.549  87.494  57.526
10732DA     BB369761  34.376  87.611  57.482
10732DA     SC169762  34.279  87.622  57.777
10732DA     SC269763  34.091  87.530  57.914
10732DA     SC369764  34.145  87.719  58.079
10732DA     SC469765  34.327  87.747  57.867
10733DG     BB169766  34.405  87.446  57.224
10733DG     BB269767  34.085  87.316  57.329
10733DG     BB369768  33.941  87.447  57.287
10733DG     SC169769  33.961  87.594  57.554
10733DG     SC269770  33.752  87.600  57.768
10733DG     SC369771  33.970  87.791  57.828
10733DG     SC469772  34.064  87.716  57.568
10734DG     BB169773  33.803  87.207  57.113
10734DG     BB269774  33.525  87.236  57.342
10734DG     BB369775  33.408  87.388  57.289
10734DG     SC169776  33.559  87.594  57.458
10734DG     SC269777  33.451  87.737  57.697
10734DG     SC369778  33.712  87.850  57.615
10734DG     SC469779  33.684  87.671  57.394
10735DC     BB169780  33.202  87.351  57.232
10735DC     BB269781  33.023  87.472  57.521
10735DC     BB369782  32.942  87.658  57.481
10735DC     SC169783  33.177  87.773  57.500
10735DC     SC269784  33.182  87.895  57.677
10735DC     SC369785  33.394  87.907  57.432
10736DC     BB169786  32.703  87.538  57.480
10736DC     BB269787  32.679  87.794  57.733
10736DC     BB369788  32.628  87.975  57.646
10736DC     SC169789  32.871  88.006  57.550
10736DC     SC269790  32.969  88.167  57.653
10736DC     SC369791  33.067  88.031  57.376
10737DT     BB169792  32.400  87.938  57.770
10737DT     BB269793  32.524  88.254  57.891
10737DT     BB369794  32.478  88.405  57.756
10737DT     SC169795  32.664  88.324  57.590
10737DT     SC269796  32.823  88.470  57.585
10737DT     SC369797  32.779  88.229  57.372
10738DT     BB169798  32.332  88.468  57.957
10738DT     BB269799  32.538  88.756  57.890
10738DT     BB369800  32.464  88.859  57.726
10738DT     SC169801  32.556  88.677  57.561
10738DT     SC269802  32.719  88.759  57.447
10738DT     SC369803  32.560  88.485  57.379
10739DA     BB169804  32.560  89.109  58.054
10739DA     BB269805  32.683  89.265  57.745
10739DA     BB369806  32.520  89.322  57.620
10739DA     SC169807  32.512  89.051  57.467
10739DA     SC269808  32.563  88.968  57.237
10739DA     SC369809  32.413  88.769  57.298
10739DA     SC469810  32.414  88.937  57.523
10740DT     BB169811  32.502  89.506  57.599
10740DT     BB269812  32.581  89.534  57.248
10740DT     BB369813  32.407  89.537  57.136
10740DT     SC169814  32.371  89.280  57.171
10740DT     SC269815  32.401  89.177  56.985
10740DT     SC369816  32.261  89.053  57.249
10741DA     BB169817  32.551  89.915  56.989
10741DA     BB269818  32.415  89.741  56.696
10741DA     BB369819  32.202  89.753  56.695
10741DA     SC169820  32.161  89.490  56.855
10741DA     SC269821  32.076  89.259  56.813
10741DA     SC369822  32.047  89.245  57.068
10741DA     SC469823  32.150  89.501  57.015
10742DC     BB169824  31.960  89.903  56.556
10742DC     BB269825  31.836  89.618  56.373
10742DC     BB369826  31.642  89.575  56.433
10742DC     SC169827  31.726  89.472  56.659
10742DC     SC269828  31.694  89.260  56.657
10742DC     SC369829  31.762  89.439  56.918
10743DA     BB169830  31.461  89.649  56.032
10743DA     BB269831  31.329  89.321  56.132
10743DA     BB369832  31.146  89.344  56.239
10743DA     SC169833  31.283  89.360  56.518
10743DA     SC269834  31.301  89.220  56.723
10743DA     SC369835  31.367  89.437  56.842
10743DA     SC469836  31.321  89.506  56.574
10744DC     BB169837  30.871  89.285  56.190
10744DC     BB269838  30.872  88.988  56.394
10744DC     BB369839  30.734  89.007  56.547
10744DC     SC169840  30.890  89.174  56.678
10744DC     SC269841  30.964  89.078  56.856
10744DC     SC369842  30.976  89.395  56.792
10745DC     BB169843  30.528  88.826  56.446
10745DC     BB269844  30.618  88.684  56.765
10745DC     BB369845  30.487  88.749  56.911
10745DC     SC169846  30.597  88.987  56.916
10745DC     SC269847  30.701  89.014  57.102
10745DC     SC369848  30.624  89.248  56.892
10746DT     BB169849  30.372  88.499  56.927
10746DT     BB269850  30.496  88.562  57.260
10746DT     BB369851  30.350  88.656  57.373
10746DT     SC169852  30.388  88.883  57.248
10746DT     SC269853  30.479  89.024  57.383
10746DT     SC369854  30.340  89.095  57.098
10747DT     BB169855  30.333  88.426  57.508
10747DT     BB269856  30.416  88.674  57.756
10747DT     BB369857  30.244  88.765  57.826
10747DT     SC169858  30.220  88.904  57.604
10747DT     SC269859  30.258  89.112  57.646
10747DT     SC369860  30.119  88.994  57.378
10748DT     BB169861  30.293  88.634  58.051
10748DT     BB269862  30.277  88.982  58.147
10748DT     BB369863  30.080  89.037  58.178
10748DT     SC169864  30.033  89.042  57.920
10748DT     SC269865  30.003  89.245  57.856
10748DT     SC369866  29.929  88.980  57.685
10749DG     BB169867  30.290  89.115  58.517
10749DG     BB269868  30.097  89.403  58.414
10749DG     BB369869  29.906  89.378  58.464
10749DG     SC169870  29.830  89.241  58.200
10749DG     SC269871  29.648  89.352  57.992
10749DG     SC369872  29.716  89.070  57.933
10749DG     SC469873  29.845  89.082  58.188
10750DT     BB169874  29.800  89.511  58.612
10750DT     BB269875  29.582  89.705  58.400
10750DT     BB369876  29.387  89.636  58.419
10750DT     SC169877  29.440  89.423  58.275
10750DT     SC269878  29.339  89.438  58.086
10750DT     SC369879  29.472  89.170  58.210
10751DT     BB169880  29.294  89.853  58.578
10751DT     BB269881  29.060  89.847  58.303
10751DT     BB369882  28.897  89.729  58.353
10751DT     SC169883  29.036  89.509  58.320
10751DT     SC269884  28.965  89.405  58.146
10751DT     SC369885  29.157  89.282  58.376
10752DA     BB169886  28.736  90.097  58.228
10752DA     BB269887  28.556  89.831  58.051
10752DA     BB369888  28.424  89.730  58.184
10752DA     SC169889  28.633  89.516  58.269
10752DA     SC269890  28.671  89.271  58.237
10752DA     SC369891  28.823  89.288  58.443
10752DA     SC469892  28.722  89.547  58.400
10753DG     BB169893  28.192  89.824  57.995
10753DG     BB269894  28.156  89.470  57.935
10753DG     BB369895  28.044  89.387  58.077
10753DG     SC169896  28.281  89.325  58.261
10753DG     SC269897  28.379  89.052  58.333
10753DG     SC369898  28.514  89.260  58.496
10753DG     SC469899  28.329  89.436  58.366
10754DT     BB169900  27.850  89.291  58.031
10754DT     BB269901  27.939  88.942  58.056
10754DT     BB369902  27.867  88.863  58.233
10754DT     SC169903  28.054  88.985  58.372
10754DT     SC269904  28.192  88.840  58.449
10754DT     SC369905  28.168  89.148  58.545
10755DA     BB169906  27.751  88.616  57.915
10755DA     BB269907  27.903  88.406  58.174
10755DA     BB369908  27.774  88.391  58.343
10755DA     SC169909  27.895  88.638  58.489
10755DA     SC269910  28.034  88.683  58.691
10755DA     SC369911  27.942  88.922  58.676
10755DA     SC469912  27.826  88.780  58.463
10756DA     BB169913  27.844  88.080  58.270
10756DA     BB269914  27.987  88.059  58.607
10756DA     BB369915  27.832  88.063  58.753
10756DA     SC169916  27.836  88.373  58.784
10756DA     SC269917  27.903  88.540  58.956
10756DA     SC369918  27.750  88.702  58.828
10756DA     SC469919  27.735  88.458  58.692
10757DT     BB169920  27.820  87.904  58.850
10757DT     BB269921  27.958  88.029  59.160
10757DT     BB369922  27.805  88.074  59.292
10757DT     SC169923  27.744  88.292  59.159
10757DT     SC269924  27.796  88.464  59.276
10757DT     SC369925  27.605  88.464  59.014
10758DC     BB169926  27.878  87.860  59.435
10758DC     BB269927  27.892  88.136  59.667
10758DC     BB369928  27.704  88.172  59.746
10758DC     SC169929  27.624  88.283  59.522
10758DC     SC269930  27.596  88.494  59.553
10758DC     SC369931  27.487  88.324  59.300
10759DA     BB169932  27.956  88.130  60.080
10759DA     BB269933  27.758  88.435  60.128
10759DA     BB369934  27.557  88.385  60.178
10759DA     SC169935  27.458  88.381  59.883
10759DA     SC269936  27.310  88.518  59.736
10759DA     SC369937  27.297  88.309  59.589
10759DA     SC469938  27.461  88.240  59.806
10760DT     BB169939  27.473  88.427  60.371
10760DT     BB269940  27.270  88.706  60.265
10760DT     BB369941  27.070  88.651  60.263
10760DT     SC169942  27.103  88.512  60.043
10760DT     SC269943  27.002  88.610  59.880
10760DT     SC369944  27.112  88.305  59.879
10761DT     BB169945  27.005  88.797  60.492
10761DT     BB269946  26.787  88.929  60.237
10761DT     BB369947  26.610  88.822  60.233
10761DT     SC169948  26.727  88.618  60.115
10761DT     SC269949  26.655  88.602  59.913
10761DT     SC369950  26.820  88.375  60.075
10762DA     BB169951  26.506  89.226  60.265
10762DA     BB269952  26.317  89.083  59.985
10762DA     BB369953  26.159  88.960  60.058
10762DA     SC169954  26.330  88.700  60.060
10762DA     SC269955  26.341  88.485  59.933
10762DA     SC369956  26.469  88.395  60.136
10762DA     SC469957  26.406  88.662  60.196
10763DC     BB169958  25.971  89.020  60.021
10763DC     BB269959  25.904  88.781  59.759
10763DC     BB369960  25.781  88.631  59.829
10763DC     SC169961  25.977  88.522  59.964
10763DC     SC269962  26.030  88.334  59.873
10763DC     SC369963  26.120  88.435  60.168
10764DG     BB169964  25.606  88.806  59.506
10764DG     BB269965  25.634  88.448  59.466
10764DG     BB369966  25.493  88.356  59.572
10764DG     SC169967  25.664  88.334  59.825
10764DG     SC269968  25.766  88.080  59.946
10764DG     SC369969  25.815  88.310  60.125
10764DG     SC469970  25.661  88.454  59.931
10765DT     BB169971  25.361  88.240  59.463
10765DT     BB269972  25.474  87.907  59.543
10765DT     BB369973  25.353  87.824  59.688
10765DT     SC169974  25.462  87.973  59.875
10765DT     SC269975  25.579  87.849  60.006
10765DT     SC369976  25.486  88.154  60.066
10766DT     BB169977  25.281  87.670  59.490
10766DT     BB269978  25.409  87.448  59.744
10766DT     BB369979  25.264  87.415  59.888
10766DT     SC169980  25.299  87.653  59.991
10766DT     SC269981  25.391  87.635  60.185
10766DT     SC369982  25.249  87.901  60.066
10767DA     BB169983  25.454  87.065  59.750
10767DA     BB269984  25.446  87.059  60.117
10767DA     BB369985  25.246  87.037  60.186
10767DA     SC169986  25.192  87.343  60.202
10767DA     SC269987  25.157  87.516  60.378
10767DA     SC369988  25.048  87.655  60.192
10767DA     SC469989  25.127  87.414  60.073
10768DG     BB169990  25.408  86.806  60.306
10768DG     BB269991  25.308  86.966  60.615
10768DG     BB369992  25.115  86.934  60.648
10768DG     SC169993  25.022  87.183  60.497
10768DG     SC269994  24.891  87.423  60.618
10768DG     SC369995  24.884  87.437  60.323
10768DG     SC469996  24.994  87.173  60.340
10769DT     BB169997  25.084  86.839  60.817
10769DT     BB269998  24.931  87.089  61.027
10769DT     BB369999  24.724  87.075  61.014
10769DT     SC170000  24.724  87.185  60.776
10769DT     SC270001  24.637  87.382  60.789
10769DT     SC370002  24.691  87.215  60.516
10770DA     BB170003  24.824  87.075  61.424
10770DA     BB270004  24.540  87.302  61.377
10770DA     BB370005  24.363  87.192  61.331
10770DA     SC170006  24.407  87.201  61.024
10770DA     SC270007  24.301  87.310  60.825
10770DA     SC370008  24.419  87.127  60.688
10770DA     SC470009  24.486  87.079  60.956
10771DA     BB170010  24.203  87.338  61.593
10771DA     BB270011  23.952  87.465  61.358
10771DA     BB370012  23.814  87.310  61.306
10771DA     SC170013  23.977  87.213  61.060
10771DA     SC270014  23.956  87.215  60.812
10771DA     SC370015  24.127  87.024  60.816
10771DA     SC470016  24.083  87.094  61.084
10772DG     BB170017  23.527  87.436  61.434
10772DG     BB270018  23.410  87.441  61.091
10772DG     BB370019  23.311  87.273  61.051
10772DG     SC170020  23.560  87.121  60.956
10772DG     SC270021  23.613  87.029  60.677
10772DG     SC370022  23.813  86.918  60.864
10772DG     SC470023  23.647  87.040  61.063
10773DG     BB170024  22.982  87.382  60.974
10773DG     BB270025  23.031  87.257  60.639
10773DG     BB370026  22.958  87.072  60.624
10773DG     SC170027  23.220  86.936  60.705
10773DG     SC270028  23.392  86.766  60.530
10773DG     SC370029  23.485  86.756  60.810
10773DG     SC470030  23.249  86.910  60.861
10774DT     BB170031  22.755  86.972  60.484
10774DT     BB270032  22.938  86.810  60.219
10774DT     BB370033  22.915  86.605  60.232
10774DT     SC170034  23.078  86.592  60.437
10774DT     SC270035  23.260  86.494  60.378
10774DT     SC370036  23.166  86.551  60.683
10775DA     BB170037  22.793  86.682  59.838
10775DA     BB270038  23.038  86.409  59.822
10775DA     BB370039  22.947  86.225  59.878
10775DA     SC170040  23.017  86.254  60.180
10775DA     SC270041  23.169  86.145  60.345
10775DA     SC370042  23.013  86.245  60.523
10775DA     SC470043  22.907  86.323  60.275
10776DA     BB170044  23.053  86.108  59.586
10776DA     BB270045  23.257  85.866  59.771
10776DA     BB370046  23.137  85.701  59.834
10776DA     SC170047  23.062  85.829  60.108
10776DA     SC270048  23.112  85.791  60.349
10776DA     SC370049  22.900  85.928  60.394
10776DA     SC470050  22.927  85.915  60.115
10777DT     BB170051  23.156  85.490  59.755
10777DT     BB270052  23.318  85.352  60.047
10777DT     BB370053  23.190  85.222  60.144
10777DT     SC170054  23.048  85.421  60.240
10777DT     SC270055  23.078  85.434  60.453
10777DT     SC370056  22.843  85.581  60.284
10778DA     BB170057  23.525  84.976  60.081
10778DA     BB270058  23.437  84.946  60.436
10778DA     BB370059  23.272  84.813  60.460
10778DA     SC170060  23.057  85.037  60.438
10778DA     SC270061  22.894  85.152  60.588
10778DA     SC370062  22.774  85.219  60.371
10778DA     SC470063  22.997  85.068  60.292
10779DT     BB170064  23.276  84.602  60.562
10779DT     BB270065  23.121  84.711  60.869
10779DT     BB370066  22.934  84.623  60.889
10779DT     SC170067  22.832  84.782  60.707
10779DT     SC270068  22.696  84.920  60.801
10779DT     SC370069  22.718  84.863  60.483
10780DT     BB170070  23.015  84.447  61.093
10780DT     BB270071  22.752  84.644  61.241
10780DT     BB370072  22.570  84.549  61.217
10780DT     SC170073  22.561  84.614  60.963
10780DT     SC270074  22.406  84.760  60.933
10780DT     SC370075  22.555  84.590  60.700
10781DA     BB170076  22.636  84.667  61.610
10781DA     BB270077  22.308  84.793  61.504
10781DA     BB370078  22.168  84.633  61.492
10781DA     SC170079  22.227  84.572  61.193
10781DA     SC270080  22.111  84.594  60.973
10781DA     SC370081  22.278  84.419  60.889
10781DA     SC470082  22.339  84.461  61.160
10782DA     BB170083  22.076  84.908  61.651
10782DA     BB270084  21.808  84.915  61.401
10782DA     BB370085  21.686  84.741  61.418
10782DA     SC170086  21.854  84.575  61.216
10782DA     SC270087  21.828  84.483  60.985
10782DA     SC370088  22.019  84.324  61.049
10782DA     SC470089  21.973  84.484  61.274
10783DA     BB170090  21.511  85.021  61.403
10783DA     BB270091  21.352  84.863  61.113
10783DA     BB370092  21.249  84.686  61.171
10783DA     SC170093  21.494  84.499  61.124
10783DA     SC270094  21.561  84.320  60.964
10783DA     SC370095  21.730  84.251  61.144
10783DA     SC470096  21.591  84.471  61.249
10784DT     BB170097  21.078  84.710  61.141
10784DT     BB270098  21.046  84.484  60.861
10784DT     BB370099  20.984  84.298  60.928
10784DT     SC170100  21.222  84.245  61.024
10784DT     SC270101  21.314  84.091  60.905
10784DT     SC370102  21.414  84.191  61.197
10785DC     BB170103  20.745  84.347  60.818
10785DC     BB270104  20.854  84.037  60.669
10785DC     BB370105  20.807  83.879  60.793
10785DC     SC170106  21.002  83.940  60.958
10785DC     SC270107  21.155  83.790  60.947
10785DC     SC370108  21.126  84.015  61.178
10786DA     BB170109  20.647  83.781  60.417
10786DA     BB270110  20.840  83.493  60.537
10786DA     BB370111  20.735  83.393  60.693
10786DA     SC170112  20.866  83.559  60.921
10786DA     SC270113  21.030  83.523  61.106
10786DA     SC370114  20.929  83.735  61.209
10786DA     SC470115  20.790  83.692  60.969
10787DG     BB170116  20.747  83.155  60.496
10787DG     BB270117  20.958  83.014  60.753
10787DG     BB370118  20.846  82.936  60.898
10787DG     SC170119  20.832  83.195  61.061
10787DG     SC270120  20.954  83.240  61.329
10787DG     SC370121  20.779  83.467  61.254
10787DG     SC470122  20.715  83.300  61.030
10788DC     BB170123  20.877  82.740  60.927
10788DC     BB270124  21.069  82.740  61.232
10788DC     BB370125  20.945  82.703  61.393
10788DC     SC170126  20.845  82.945  61.383
10788DC     SC270127  20.911  83.057  61.554
10788DC     SC370128  20.669  83.140  61.355
10789DC     BB170129  21.097  82.497  61.384
10789DC     BB270130  21.145  82.645  61.710
10789DC     BB370131  20.982  82.603  61.831
10789DC     SC170132  20.833  82.779  61.705
10789DC     SC270133  20.794  82.945  61.835
10789DC     SC370134  20.638  82.879  61.558
10790DA     BB170135  21.372  82.559  62.002
10790DA     BB270136  21.153  82.736  62.237
10790DA     BB370137  20.993  82.610  62.298
10790DA     SC170138  20.802  82.702  62.070
10790DA     SC270139  20.592  82.835  62.047
10790DA     SC370140  20.565  82.716  61.822
10790DA     SC470141  20.802  82.616  61.934
10791DA     BB170142  21.124  82.737  62.577
10791DA     BB270143  20.783  82.847  62.653
10791DA     BB370144  20.655  82.679  62.681
10791DA     SC170145  20.570  82.663  62.382
10791DA     SC270146  20.365  82.705  62.245
10791DA     SC370147  20.478  82.556  62.069
10791DA     SC470148  20.656  82.567  62.285
10792DG     BB170149  20.603  82.784  62.975
10792DG     BB270150  20.258  82.796  62.868
10792DG     BB370151  20.177  82.614  62.877
10792DG     SC170152  20.256  82.538  62.592
10792DG     SC270153  20.068  82.490  62.365
10792DG     SC370154  20.343  82.413  62.291
10792DG     SC470155  20.399  82.470  62.566
10793DT     BB170156  19.995  82.519  63.028
10793DT     BB270157  19.721  82.485  62.796
10793DT     BB370158  19.688  82.285  62.754
10793DT     SC170159  19.900  82.274  62.601
10793DT     SC270160  19.839  82.251  62.396
10793DT     SC370161  20.138  82.204  62.511
10794DT     BB170162  19.448  82.227  62.918
10794DT     BB270163  19.347  82.119  62.589
10794DT     BB370164  19.382  81.916  62.567
10794DT     SC170165  19.640  81.956  62.543
10794DT     SC270166  19.700  81.913  62.340
10794DT     SC370167  19.898  81.947  62.594
10795DT     BB170168  19.110  81.811  62.593
10795DT     BB270169  19.218  81.683  62.273
10795DT     BB370170  19.296  81.493  62.296
10795DT     SC170171  19.516  81.588  62.403
10795DT     SC270172  19.680  81.559  62.266
10795DT     SC370173  19.706  81.636  62.580
10796DA     BB170174  19.001  81.431  62.003
10796DA     BB270175  19.313  81.286  61.875
10796DA     BB370176  19.351  81.098  61.968
10796DA     SC170177  19.517  81.218  62.202
10796DA     SC270178  19.754  81.221  62.277
10796DA     SC370179  19.659  81.285  62.507
10796DA     SC470180  19.438  81.256  62.337
10797DA     BB170181  19.366  80.985  61.658
10797DA     BB270182  19.718  80.903  61.725
10797DA     BB370183  19.732  80.722  61.837
10797DA     SC170184  19.725  80.864  62.113
10797DA     SC270185  19.881  80.908  62.303
10797DA     SC370186  19.670  80.947  62.442
10797DA     SC470187  19.581  80.883  62.184
10798DT     BB170188  19.818  80.550  61.752
10798DT     BB270189  20.131  80.573  61.930
10798DT     BB370190  20.141  80.425  62.075
10798DT     SC170191  19.972  80.554  62.229
10798DT     SC270192  20.075  80.628  62.402
10798DT     SC370193  19.754  80.609  62.367
10799DA     BB170194  20.490  80.404  61.844
10799DA     BB270195  20.587  80.417  62.197
10799DA     BB370196  20.547  80.231  62.293
10799DA     SC170197  20.260  80.311  62.382
10799DA     SC270198  20.140  80.362  62.594
10799DA     SC370199  19.926  80.311  62.462
10799DA     SC470200  20.138  80.274  62.283
10800DA     BB170201  20.860  80.281  62.363
10800DA     BB270202  20.754  80.289  62.714
10800DA     BB370203  20.707  80.092  62.782
10800DA     SC170204  20.406  80.110  62.703
10800DA     SC270205  20.186  80.124  62.819
10800DA     SC370206  20.087  80.042  62.597
10800DA     SC470207  20.364  80.057  62.557
10801DT     BB170208  20.822  80.040  62.915
10801DT     BB270209  20.588  80.080  63.188
10801DT     BB370210  20.510  79.896  63.241
10801DT     SC170211  20.357  79.890  63.028
10801DT     SC270212  20.151  79.912  63.087
10801DT     SC370213  20.256  79.813  62.797
10802DA     BB170214  20.645  80.124  63.566
10802DA     BB270215  20.308  80.000  63.641
10802DA     BB370216  20.312  79.789  63.671
10802DA     SC170217  20.258  79.721  63.372
10802DA     SC270218  20.072  79.626  63.235
10802DA     SC370219  20.254  79.577  63.060
10802DA     SC470220  20.385  79.699  63.277
10803DG     BB170221  20.195  79.905  63.928
10803DG     BB270222  19.908  79.710  63.826
10803DG     BB370223  19.942  79.517  63.861
10803DG     SC170224  20.067  79.465  63.586
10803DG     SC270225  19.950  79.294  63.371
10803DG     SC370226  20.226  79.376  63.303
10803DG     SC470227  20.224  79.486  63.567
10804DT     BB170228  19.813  79.427  63.992
10804DT     BB270229  19.615  79.214  63.779
10804DT     BB370230  19.689  79.020  63.785
10804DT     SC170231  19.894  79.084  63.636
10804DT     SC270232  19.874  78.992  63.443
10804DT     SC370233  20.144  79.126  63.562
10805DT     BB170234  19.472  78.947  63.930
10805DT     BB270235  19.474  78.718  63.651
10805DT     BB370236  19.595  78.556  63.693
10805DT     SC170237  19.812  78.699  63.657
10805DT     SC270238  19.912  78.633  63.479
10805DT     SC370239  20.039  78.822  63.709
10806DT     BB170240  19.380  78.385  63.732
10806DT     BB270241  19.581  78.214  63.486
10806DT     BB370242  19.720  78.093  63.579
10806DT     SC170243  19.867  78.300  63.646
10806DT     SC270244  20.050  78.298  63.533
10806DT     SC370245  19.991  78.478  63.796
10807DT     BB170246  19.589  77.848  63.524
10807DT     BB270247  19.920  77.796  63.392
10807DT     BB370248  20.042  77.712  63.537
10807DT     SC170249  20.061  77.941  63.664
10807DT     SC270250  20.261  78.017  63.645
10807DT     SC370251  20.038  78.122  63.855
10808DA     BB170252  20.084  77.440  63.220
10808DA     BB270253  20.422  77.520  63.336
10808DA     BB370254  20.465  77.415  63.517
10808DA     SC170255  20.360  77.641  63.703
10808DA     SC270256  20.455  77.807  63.863
10808DA     SC370257  20.217  77.820  63.959
10808DA     SC470258  20.206  77.634  63.749
10809DT     BB170259  20.617  77.252  63.534
10809DT     BB270260  20.866  77.445  63.708
10809DT     BB370261  20.883  77.380  63.904
10809DT     SC170262  20.657  77.496  63.970
10809DT     SC270263  20.697  77.662  64.100
10809DT     SC370264  20.407  77.525  64.051
10810DA     BB170265  21.275  77.363  63.758
10810DA     BB270266  21.286  77.543  64.078
10810DA     BB370267  21.270  77.405  64.240
10810DA     SC170268  20.959  77.422  64.255
10810DA     SC270269  20.786  77.513  64.410
10810DA     SC370270  20.625  77.352  64.292
10810DA     SC470271  20.875  77.314  64.170
10811DG     BB170272  21.553  77.505  64.331
10811DG     BB270273  21.371  77.627  64.619
10811DG     BB370274  21.354  77.483  64.755
10811DG     SC170275  21.090  77.376  64.643
10811DG     SC270276  20.824  77.386  64.779
10811DG     SC370277  20.811  77.220  64.535
10811DG     SC470278  21.094  77.264  64.528
10812DT     BB170279  21.443  77.509  64.951
10812DT     BB270280  21.151  77.575  65.153
10812DT     BB370281  21.100  77.405  65.260
10812DT     SC170282  21.002  77.290  65.046
10812DT     SC270283  20.788  77.277  65.063
10812DT     SC370284  20.971  77.117  64.849
10813DT     BB170285  21.186  77.528  65.484
10813DT     BB270286  20.842  77.443  65.552
10813DT     BB370287  20.829  77.249  65.623
10813DT     SC170288  20.872  77.150  65.384
10813DT     SC270289  20.692  77.057  65.312
10813DT     SC370290  20.988  77.020  65.186
10814DC     BB170291  20.771  77.348  65.866
10814DC     BB270292  20.493  77.132  65.786
10814DC     BB370293  20.538  76.937  65.840
10814DC     SC170294  20.700  76.909  65.635
10814DC     SC270295  20.613  76.773  65.493
10814DC     SC370296  20.921  76.872  65.497
10815DA     BB170297  20.167  77.033  66.009
10815DA     BB270298  20.132  76.711  65.838
10815DA     BB370299  20.232  76.558  65.948
10815DA     SC170300  20.503  76.594  65.800
10815DA     SC270301  20.643  76.468  65.637
10815DA     SC370302  20.836  76.615  65.719
10815DA     SC470303  20.611  76.695  65.865
10816DA     BB170304  19.936  76.420  65.920
10816DA     BB270305  20.101  76.149  65.737
10816DA     BB370306  20.210  76.024  65.871
10816DA     SC170307  20.475  76.186  65.846
10816DA     SC270308  20.702  76.155  65.749
10816DA     SC370309  20.774  76.343  65.908
10816DA     SC470310  20.500  76.303  65.953
10817DA     BB170311  20.028  75.796  65.721
10817DA     BB270312  20.344  75.648  65.608
10817DA     BB370313  20.440  75.546  65.768
10817DA     SC170314  20.604  75.794  65.861
10817DA     SC270315  20.842  75.868  65.862
10817DA     SC370316  20.768  76.033  66.045
10817DA     SC470317  20.539  75.888  65.974
10818DT     BB170318  20.457  75.351  65.751
10818DT     BB270319  20.810  75.345  65.677
10818DT     BB370320  20.916  75.285  65.845
10818DT     SC170321  20.880  75.518  65.960
10818DT     SC270322  21.068  75.622  65.969
10818DT     SC370323  20.800  75.699  66.134
10819DA     BB170324  21.035  75.057  65.513
10819DA     BB270325  21.336  75.183  65.681
10819DA     BB370326  21.365  75.082  65.866
10819DA     SC170327  21.201  75.289  66.032
10819DA     SC270328  21.245  75.464  66.203
10819DA     SC370329  20.996  75.442  66.261
10819DA     SC470330  21.044  75.259  66.054
10820DA     BB170331  21.654  75.046  65.718
10820DA     BB270332  21.796  75.227  66.004
10820DA     BB370333  21.795  75.103  66.178
10820DA     SC170334  21.514  75.199  66.273
10820DA     SC270335  21.419  75.336  66.458
10820DA     SC370336  21.198  75.218  66.404
10820DA     SC470337  21.387  75.114  66.225
10821DT     BB170338  21.968  75.057  66.242
10821DT     BB270339  21.966  75.269  66.534
10821DT     BB370340  21.923  75.157  66.703
10821DT     SC170341  21.670  75.140  66.637
10821DT     SC270342  21.552  75.256  66.775
10821DT     SC370343  21.438  75.035  66.566
10822DA     BB170344  22.270  75.379  66.780
10822DA     BB270345  22.045  75.419  67.066
10822DA     BB370346  22.037  75.239  67.180
10822DA     SC170347  21.797  75.120  67.023
10822DA     SC270348  21.556  75.070  67.064
10822DA     SC370349  21.576  74.911  66.863
10822DA     SC470350  21.830  75.025  66.897
10823DA     BB170351  22.113  75.448  67.422
10823DA     BB270352  21.802  75.345  67.586
10823DA     BB370353  21.824  75.150  67.671
10823DA     SC170354  21.725  75.002  67.416
10823DA     SC270355  21.526  74.869  67.345
10823DA     SC370356  21.679  74.777  67.161
10823DA     SC470357  21.836  74.955  67.309
10824DT     BB170358  21.820  75.129  67.873
10824DT     BB270359  21.495  74.975  67.899
10824DT     BB370360  21.516  74.772  67.937
10824DT     SC170361  21.588  74.725  67.689
10824DT     SC270362  21.432  74.615  67.590
10824DT     SC370363  21.736  74.653  67.483
10825DA     BB170364  21.259  74.908  68.241
10825DA     BB270365  21.110  74.604  68.101
10825DA     BB370366  21.216  74.431  68.169
10825DA     SC170367  21.415  74.429  67.930
10825DA     SC270368  21.461  74.289  67.729
10825DA     SC370369  21.693  74.399  67.730
10825DA     SC470370  21.554  74.508  67.948
10826DT     BB170371  21.135  74.275  68.311
10826DT     BB270372  21.089  74.013  68.067
10826DT     BB370373  21.228  73.863  68.098
10826DT     SC170374  21.420  74.009  67.996
10826DT     SC270375  21.481  73.926  67.807
10826DT     SC370376  21.644  74.148  67.978
10827DA     BB170377  20.875  73.629  68.124
10827DA     BB270378  21.099  73.454  67.893
10827DA     BB370379  21.247  73.345  68.001
10827DA     SC170380  21.452  73.578  68.003
10827DA     SC270381  21.672  73.632  67.899
10827DA     SC370382  21.698  73.803  68.089
10827DA     SC470383  21.450  73.678  68.129
10828DA     BB170384  21.165  73.039  67.865
10828DA     BB270385  21.498  73.030  67.710
10828DA     BB370386  21.640  72.945  67.844
10828DA     SC170387  21.719  73.219  67.970
10828DA     SC270388  21.917  73.371  67.971
10828DA     SC370389  21.814  73.470  68.184
10828DA     SC470390  21.640  73.266  68.101
10829DG     BB170391  21.712  72.683  67.661
10829DG     BB270392  22.032  72.848  67.624
10829DG     BB370393  22.159  72.780  67.760
10829DG     SC170394  22.084  72.988  67.971
10829DG     SC270395  22.261  73.206  68.073
10829DG     SC370396  22.012  73.189  68.232
10829DG     SC470397  21.964  72.957  68.072
10830DC     BB170398  22.368  72.660  67.714
10830DC     BB270399  22.593  72.939  67.754
10830DC     BB370400  22.711  72.912  67.921
10830DC     SC170401  22.511  72.969  68.082
10830DC     SC270402  22.549  73.158  68.178
10830DC     SC370403  22.326  72.940  68.267
10831DC     BB170404  22.900  72.888  67.741
10831DC     BB270405  22.981  73.182  67.933
10831DC     BB370406  23.083  73.128  68.105
10831DC     SC170407  22.864  73.038  68.218
10831DC     SC270408  22.809  73.168  68.380
10831DC     SC370409  22.691  72.871  68.326
10832DT     BB170410  23.217  73.277  67.948
10832DT     BB270411  23.176  73.457  68.258
10832DT     BB370412  23.287  73.367  68.408
10832DT     SC170413  23.115  73.170  68.427
10832DT     SC270414  23.011  73.185  68.615
10832DT     SC370415  23.016  72.926  68.420
10833DT     BB170416  23.367  73.604  68.361
10833DT     BB270417  23.275  73.590  68.709
10833DT     BB370418  23.410  73.472  68.813
10833DT     SC170419  23.308  73.252  68.713
10833DT     SC270420  23.207  73.144  68.868
10833DT     SC370421  23.289  73.027  68.577
10834DA     BB170422  23.314  73.842  68.998
10834DA     BB270423  23.306  73.575  69.249
10834DA     BB370424  23.502  73.496  69.279
10834DA     SC170425  23.473  73.276  69.062
10834DA     SC270426  23.453  73.027  69.052
10834DA     SC370427  23.529  73.051  68.808
10834DA     SC470428  23.522  73.311  68.913
10835DG     BB170429  23.434  73.592  69.565
10835DG     BB270430  23.472  73.240  69.640
10835DG     BB370431  23.665  73.193  69.647
10835DG     SC170432  23.684  73.124  69.349
10835DG     SC270433  23.734  72.853  69.234
10835DG     SC370434  23.745  73.060  69.023
10835DG     SC470435  23.719  73.240  69.244
10836DC     BB170436  23.758  73.120  69.832
10836DC     BB270437  23.806  72.770  69.760
10836DC     BB370438  24.005  72.735  69.713
10836DC     SC170439  23.977  72.844  69.476
10836DC     SC270440  23.991  72.691  69.325
10836DC     SC370441  24.009  73.011  69.275
10837DT     BB170442  24.035  72.610  69.951
10837DT     BB270443  24.136  72.365  69.706
10837DT     BB370444  24.336  72.391  69.658
10837DT     SC170445  24.282  72.604  69.515
10837DT     SC270446  24.314  72.560  69.307
10837DT     SC370447  24.279  72.856  69.435
10838DC     BB170448  24.388  72.165  69.792
10838DC     BB270449  24.520  72.108  69.461
10838DC     BB370450  24.712  72.184  69.447
10838DC     SC170451  24.621  72.431  69.436
10838DC     SC270452  24.654  72.510  69.239
10838DC     SC370453  24.578  72.682  69.503
10839DA     BB170454  24.704  71.789  69.305
10839DA     BB270455  24.885  71.995  69.061
10839DA     BB370456  25.074  72.055  69.141
10839DA     SC170457  24.965  72.319  69.266
10839DA     SC270458  24.986  72.564  69.226
10839DA     SC370459  24.906  72.589  69.468
10839DA     SC470460  24.916  72.314  69.418
10840DG     BB170461  25.177  71.904  68.890
10840DG     BB270462  25.307  72.230  68.802
10840DG     BB370463  25.475  72.265  68.903
10840DG     SC170464  25.332  72.395  69.141
10840DG     SC270465  25.351  72.682  69.222
10840DG     SC370466  25.207  72.524  69.427
10840DG     SC470467  25.282  72.302  69.262
10841DT     BB170468  25.680  72.291  68.806
10841DT     BB270469  25.742  72.644  68.846
10841DT     BB370470  25.877  72.675  68.999
10841DT     SC170471  25.695  72.624  69.181
10841DT     SC270472  25.645  72.805  69.286
10841DT     SC370473  25.569  72.504  69.379
10842DT     BB170474  26.106  72.734  68.838
10842DT     BB270475  26.087  73.018  69.060
10842DT     BB370476  26.202  72.983  69.229
10842DT     SC170477  26.023  72.817  69.326
10842DT     SC270478  25.929  72.906  69.497
10842DT     SC370479  25.913  72.593  69.412
10843DT     BB170480  26.429  73.152  69.166
10843DT     BB270481  26.324  73.273  69.489
10843DT     BB370482  26.431  73.177  69.639
10843DT     SC170483  26.293  72.956  69.607
10843DT     SC270484  26.167  72.926  69.779
10843DT     SC370485  26.236  72.705  69.552
10844DC     BB170486  26.593  73.398  69.700
10844DC     BB270487  26.437  73.316  70.015
10844DC     BB370488  26.555  73.183  70.120
10844DC     SC170489  26.485  72.985  69.962
10844DC     SC270490  26.361  72.847  70.071
10844DC     SC370491  26.504  72.789  69.786
10845DA     BB170492  26.477  73.499  70.383
10845DA     BB270493  26.404  73.187  70.561
10845DA     BB370494  26.585  73.089  70.618
10845DA     SC170495  26.604  72.922  70.356
10845DA     SC270496  26.582  72.683  70.288
10845DA     SC370497  26.715  72.751  70.080
10845DA     SC470498  26.689  72.983  70.235
10846DA     BB170499  26.440  73.099  70.913
10846DA     BB270500  26.457  72.733  70.913
10846DA     BB370501  26.656  72.667  70.952
10846DA     SC170502  26.738  72.659  70.652
10846DA     SC270503  26.792  72.486  70.480
10846DA     SC370504  26.907  72.678  70.354
10846DA     SC470505  26.805  72.791  70.589
10847DT     BB170506  26.710  72.566  71.133
10847DT     BB270507  26.753  72.237  70.991
10847DT     BB370508  26.955  72.190  70.982
10847DT     SC170509  26.992  72.351  70.778
10847DT     SC270510  27.032  72.235  70.602
10847DT     SC370511  27.082  72.553  70.635
10848DC     BB170512  26.972  72.004  71.208
10848DC     BB270513  27.110  71.812  70.936
10848DC     BB370514  27.316  71.833  70.932
10848DC     SC170515  27.298  72.075  70.834
10848DC     SC270516  27.368  72.075  70.630
10848DC     SC370517  27.319  72.337  70.814
10849DA     BB170518  27.323  71.406  70.973
10849DA     BB270519  27.542  71.484  70.690
10849DA     BB370520  27.737  71.539  70.759
10849DA     SC170521  27.671  71.842  70.777
10849DA     SC270522  27.734  72.052  70.658
10849DA     SC370523  27.654  72.173  70.869
10849DA     SC470524  27.618  71.899  70.918
10850DG     BB170525  27.926  71.287  70.632
10850DG     BB270526  28.054  71.548  70.417
10850DG     BB370527  28.227  71.615  70.488
10850DG     SC170528  28.099  71.832  70.662
10850DG     SC270529  28.125  72.127  70.623
10850DG     SC370530  27.991  72.066  70.880
10850DG     SC470531  28.055  71.795  70.812
10851DA     BB170532  28.389  71.553  70.187
10851DA     BB270533  28.426  71.914  70.135
10851DA     BB370534  28.605  71.984  70.228
10851DA     SC170535  28.467  72.050  70.499
10851DA     SC270536  28.405  72.253  70.630
10851DA     SC370537  28.394  72.094  70.832
10851DA     SC470538  28.466  71.936  70.612
10852DC     BB170539  28.711  72.051  70.098
10852DC     BB270540  28.628  72.396  70.162
10852DC     BB370541  28.779  72.486  70.271
10852DC     SC170542  28.706  72.362  70.490
10852DC     SC270543  28.623  72.504  70.629
10852DC     SC370544  28.716  72.202  70.700
10853DA     BB170545  28.615  72.689  69.939
10853DA     BB270546  28.617  72.912  70.230
10853DA     BB370547  28.817  72.960  70.285
10853DA     SC170548  28.845  72.721  70.483
10853DA     SC270549  28.862  72.687  70.730
10853DA     SC370550  28.961  72.458  70.671
10853DA     SC470551  28.906  72.584  70.426
10854DA     BB170552  28.617  73.218  70.262
10854DA     BB270553  28.709  73.276  70.612
10854DA     BB370554  28.918  73.320  70.628
10854DA     SC170555  29.002  73.023  70.668
10854DA     SC270556  29.092  72.880  70.850
10854DA     SC370557  29.166  72.722  70.662
10854DA     SC470558  29.041  72.939  70.536
10855DG     BB170559  28.758  73.549  70.753
10855DG     BB270560  28.939  73.442  71.047
10855DG     BB370561  29.131  73.494  71.031
10855DG     SC170562  29.215  73.234  70.893
10855DG     SC270563  29.394  73.024  71.008
10855DG     SC370564  29.339  72.970  70.722
10855DG     SC470565  29.207  73.225  70.733
10856DC     BB170566  29.184  73.611  71.177
10856DC     BB270567  29.399  73.401  71.376
10856DC     BB370568  29.596  73.430  71.321
10856DC     SC170569  29.563  73.293  71.100
10856DC     SC270570  29.672  73.108  71.114
10856DC     SC370571  29.550  73.237  70.843
10857DT     BB170572  29.613  73.544  71.557
10857DT     BB270573  29.868  73.289  71.556
10857DT     BB370574  30.037  73.358  71.458
10857DT     SC170575  29.921  73.331  71.224
10857DT     SC270576  30.015  73.170  71.116
10857DT     SC370577  29.818  73.393  70.990
10858DG     BB170578  30.139  73.238  71.834
10858DG     BB270579  30.359  73.096  71.584
10858DG     BB370580  30.486  73.235  71.519
10858DG     SC170581  30.304  73.331  71.293
10858DG     SC270582  30.356  73.301  71.000
10858DG     SC370583  30.121  73.475  71.048
10858DG     SC470584  30.197  73.447  71.323
10859DT     BB170585  30.697  73.209  71.550
10859DT     BB270586  30.822  73.141  71.219
10859DT     BB370587  30.904  73.312  71.138
10859DT     SC170588  30.667  73.416  71.095
10859DT     SC270589  30.629  73.422  70.883
10859DT     SC370590  30.461  73.580  71.111
10860DT     BB170591  31.165  73.224  71.171
10860DT     BB270592  31.154  73.318  70.823
10860DT     BB370593  31.201  73.518  70.802
10860DT     SC170594  30.965  73.591  70.894
10860DT     SC270595  30.850  73.677  70.734
10860DT     SC370596  30.782  73.698  71.050
10861DG     BB170597  31.525  73.375  70.583
10861DG     BB270598  31.362  73.638  70.397
10861DG     BB370599  31.430  73.816  70.457
10861DG     SC170600  31.219  73.850  70.676
10861DG     SC270601  31.001  74.054  70.680
10861DG     SC370602  31.016  73.911  70.939
10861DG     SC470603  31.249  73.792  70.823
10862DA     BB170604  31.556  73.964  70.140
10862DA     BB270605  31.315  74.239  70.160
10862DA     BB370606  31.394  74.399  70.277
10862DA     SC170607  31.277  74.294  70.545
10862DA     SC270608  31.100  74.360  70.708
10862DA     SC370609  31.226  74.211  70.875
10862DA     SC470610  31.371  74.198  70.634
10863DG     BB170611  31.406  74.631  70.040
10863DG     BB270612  31.148  74.792  70.236
10863DG     BB370613  31.230  74.923  70.361
10863DG     SC170614  31.267  74.722  70.588
10863DG     SC270615  31.125  74.725  70.850
10863DG     SC370616  31.341  74.524  70.850
10863DG     SC470617  31.402  74.636  70.594
10864DA     BB170618  31.023  75.179  70.241
10864DA     BB270619  30.864  75.208  70.570
10864DA     BB370620  30.982  75.329  70.699
10864DA     SC170621  31.147  75.091  70.813
10864DA     SC270622  31.169  74.968  71.029
10864DA     SC370623  31.396  74.890  70.938
10864DA     SC470624  31.285  75.055  70.739
10865DA     BB170625  30.692  75.472  70.718
10865DA     BB270626  30.697  75.382  71.074
10865DA     BB370627  30.830  75.510  71.180
10865DA     SC170628  31.077  75.324  71.142
10865DA     SC270629  31.220  75.176  71.283
10865DA     SC370630  31.393  75.198  71.094
10865DA     SC470631  31.171  75.350  71.015
10866DT     BB170632  30.737  75.607  71.301
10866DT     BB270633  30.846  75.427  71.595
10866DT     BB370634  31.001  75.529  71.686
10866DT     SC170635  31.170  75.453  71.501
10866DT     SC270636  31.310  75.313  71.585
10866DT     SC370637  31.342  75.466  71.301
10867DT     BB170638  30.823  75.576  71.874
10867DT     BB270639  31.096  75.411  72.042
10867DT     BB370640  31.245  75.548  72.084
10867DT     SC170641  31.322  75.555  71.833
10867DT     SC270642  31.515  75.461  71.815
10867DT     SC370643  31.371  75.648  71.592
10868DG     BB170644  31.132  75.377  72.438
10868DG     BB270645  31.491  75.365  72.394
10868DG     BB370646  31.571  75.543  72.431
10868DG     SC170647  31.546  75.642  72.143
10868DG     SC270648  31.772  75.701  71.958
10868DG     SC370649  31.515  75.790  71.841
10868DG     SC470650  31.411  75.715  72.097
10869DG     BB170651  31.765  75.428  72.679
10869DG     BB270652  32.048  75.529  72.477
10869DG     BB370653  32.090  75.720  72.510
10869DG     SC170654  31.905  75.824  72.289
10869DG     SC270655  31.990  75.960  72.038
10869DG     SC370656  31.697  75.973  72.069
10869DG     SC470657  31.751  75.854  72.324
10870DG     BB170658  32.404  75.666  72.622
10870DG     BB270659  32.516  75.849  72.330
10870DG     BB370660  32.525  76.043  72.371
10870DG     SC170661  32.237  76.099  72.286
10870DG     SC270662  32.152  76.264  72.052
10870DG     SC370663  31.919  76.193  72.221
10870DG     SC470664  32.119  76.084  72.394
10871DA     BB170665  32.857  76.054  72.265
10871DA     BB270666  32.765  76.284  71.995
10871DA     BB370667  32.752  76.484  72.069
10871DA     SC170668  32.449  76.464  72.139
10871DA     SC270669  32.234  76.558  72.056
10871DA     SC370670  32.141  76.495  72.287
10871DA     SC470671  32.410  76.418  72.289
10872DT     BB170672  32.881  76.605  71.994
10872DT     BB270673  32.651  76.770  71.770
10872DT     BB370674  32.600  76.956  71.846
10872DT     SC170675  32.443  76.847  72.027
10872DT     SC270676  32.238  76.891  71.979
10872DT     SC370677  32.348  76.777  72.262
10873DA     BB170678  32.713  76.962  71.442
10873DA     BB270679  32.394  77.138  71.478
10873DA     BB370680  32.422  77.321  71.584
10873DA     SC170681  32.371  77.196  71.864
10873DA     SC270682  32.196  77.205  72.041
10873DA     SC370683  32.378  77.117  72.198
10873DA     SC470684  32.498  77.142  71.946
10874DA     BB170685  32.254  77.380  71.310
10874DA     BB270686  31.994  77.510  71.533
10874DA     BB370687  32.061  77.688  71.630
10874DA     SC170688  32.181  77.539  71.875
10874DA     SC270689  32.131  77.514  72.118
10874DA     SC370690  32.376  77.441  72.140
10874DA     SC470691  32.336  77.498  71.869
10875DA     BB170692  31.769  77.760  71.501
10875DA     BB270693  31.668  77.844  71.843
10875DA     BB370694  31.770  78.019  71.909
10875DA     SC170695  32.011  77.864  72.031
10875DA     SC270696  32.103  77.813  72.257
10875DA     SC370697  32.322  77.764  72.134
10875DA     SC470698  32.138  77.839  71.936
10876DA     BB170699  31.456  78.097  71.971
10876DA     BB270700  31.559  78.138  72.321
10876DA     BB370701  31.678  78.313  72.343
10876DA     SC170702  31.948  78.166  72.294
10876DA     SC270703  32.149  78.100  72.426
10876DA     SC370704  32.266  78.081  72.199
10876DA     SC470705  32.003  78.161  72.143
10877DT     BB170706  31.605  78.470  72.451
10877DT     BB270707  31.817  78.429  72.740
10877DT     BB370708  31.966  78.573  72.739
10877DT     SC170709  32.097  78.448  72.548
10877DT     SC270710  32.278  78.365  72.628
10877DT     SC370711  32.207  78.399  72.314
10878DC     BB170712  31.849  78.716  72.943
10878DC     BB270713  32.182  78.646  73.063
10878DC     BB370714  32.312  78.795  73.002
10878DC     SC170715  32.314  78.703  72.756
10878DC     SC270716  32.507  78.619  72.713
10878DC     SC370717  32.279  78.692  72.495
10879DT     BB170718  32.330  78.902  73.255
10879DT     BB270719  32.671  78.826  73.166
10879DT     BB370720  32.756  78.987  73.068
10879DT     SC170721  32.621  78.934  72.849
10879DT     SC270722  32.757  78.864  72.697
10879DT     SC370723  32.451  78.962  72.649
10880DA     BB170724  33.013  78.879  73.381
10880DA     BB270725  33.212  78.905  73.074
10880DA     BB370726  33.237  79.110  73.018
10880DA     SC170727  32.982  79.118  72.840
10880DA     SC270728  32.928  79.135  72.597
10880DA     SC370729  32.696  79.212  72.676
10880DA     SC470730  32.845  79.165  72.908
10881DG     BB170731  33.534  79.032  73.052
10881DG     BB270732  33.542  79.101  72.696
10881DG     BB370733  33.555  79.297  72.666
10881DG     SC170734  33.253  79.341  72.660
10881DG     SC270735  33.092  79.425  72.422
10881DG     SC370736  32.927  79.430  72.667
10881DG     SC470737  33.176  79.371  72.797
10882DA     BB170738  33.819  79.208  72.462
10882DA     BB270739  33.650  79.366  72.177
10882DA     BB370740  33.663  79.579  72.193
10882DA     SC170741  33.396  79.607  72.351
10882DA     SC270742  33.167  79.696  72.311
10882DA     SC370743  33.148  79.705  72.567
10882DA     SC470744  33.405  79.607  72.511
10883DC     BB170745  33.767  79.666  72.055
10883DC     BB270746  33.491  79.809  71.872
10883DC     BB370747  33.475  80.011  71.915
10883DC     SC170748  33.373  79.960  72.151
10883DC     SC270749  33.166  80.018  72.154
10883DC     SC370750  33.347  79.950  72.413
10884DA     BB170751  33.476  79.960  71.499
10884DA     BB270752  33.198  80.183  71.585
10884DA     BB370753  33.272  80.374  71.644
10884DA     SC170754  33.291  80.301  71.946
10884DA     SC270755  33.175  80.361  72.158
10884DA     SC370756  33.385  80.273  72.275
10884DA     SC470757  33.431  80.243  72.000
10885DA     BB170758  33.056  80.458  71.413
10885DA     BB270759  32.885  80.653  71.672
10885DA     BB370760  32.998  80.828  71.720
10885DA     SC170761  33.161  80.691  71.947
10885DA     SC270762  33.176  80.702  72.196
10885DA     SC370763  33.407  80.594  72.166
10885DA     SC470764  33.302  80.625  71.908
10886DG     BB170765  32.739  80.973  71.628
10886DG     BB270766  32.735  81.089  71.970
10886DG     BB370767  32.859  81.243  71.991
10886DG     SC170768  33.101  81.069  72.061
10886DG     SC270769  33.241  81.060  72.325
10886DG     SC370770  33.391  80.908  72.121
10886DG     SC470771  33.194  81.014  71.943
10887DA     BB170772  32.598  81.426  72.135
10887DA     BB270773  32.794  81.475  72.441
10887DA     BB370774  32.942  81.626  72.410
10887DA     SC170775  33.161  81.425  72.316
10887DA     SC270776  33.376  81.334  72.402
10887DA     SC370777  33.425  81.273  72.158
10887DA     SC470778  33.173  81.397  72.158
10888DA     BB170779  32.812  81.780  72.676
10888DA     BB270780  33.140  81.750  72.838
10888DA     BB370781  33.274  81.898  72.762
10888DA     SC170782  33.383  81.717  72.534
10888DA     SC270783  33.596  81.600  72.477
10888DA     SC370784  33.507  81.597  72.237
10888DA     SC470785  33.311  81.726  72.391
10889DT     BB170786  33.358  82.082  72.877
10889DT     BB270787  33.693  81.955  72.920
10889DT     BB370788  33.825  82.065  72.804
10889DT     SC170789  33.742  81.948  72.584
10889DT     SC270790  33.897  81.819  72.509
10889DT     SC370791  33.634  81.915  72.346
10890DA     BB170792  34.008  82.118  73.182
10890DA     BB270793  34.273  82.010  72.952
10890DA     BB370794  34.340  82.175  72.834
10890DA     SC170795  34.136  82.125  72.604
10890DA     SC270796  34.141  82.047  72.367
10890DA     SC370797  33.911  82.160  72.347
10890DA     SC470798  33.995  82.202  72.611
10891DC     BB170799  34.553  82.286  72.841
10891DC     BB270800  34.680  82.134  72.539
10891DC     BB370801  34.705  82.278  72.393
10891DC     SC170802  34.447  82.292  72.351
10891DC     SC270803  34.401  82.209  72.158
10891DC     SC370804  34.202  82.390  72.339
10892DT     BB170805  34.987  82.283  72.408
10892DT     BB270806  34.918  82.194  72.065
10892DT     BB370807  34.909  82.364  71.948
10892DT     SC170808  34.674  82.428  72.045
10892DT     SC270809  34.525  82.404  71.891
10892DT     SC370810  34.486  82.563  72.171
10893DT     BB170811  35.148  82.300  71.830
10893DT     BB270812  34.911  82.316  71.558
10893DT     BB370813  34.900  82.509  71.485
10893DT     SC170814  34.761  82.588  71.692
10893DT     SC270815  34.559  82.632  71.631
10893DT     SC370816  34.695  82.718  71.912
10894DC     BB170817  35.022  82.414  71.268
10894DC     BB270818  34.709  82.547  71.150
10894DC     BB370819  34.727  82.750  71.115
10894DC     SC170820  34.723  82.802  71.373
10894DC     SC270821  34.538  82.901  71.423
10894DC     SC370822  34.802  82.883  71.611
10895DT     BB170823  34.702  82.674  70.866
10895DT     BB270824  34.429  82.903  70.926
10895DT     BB370825  34.496  83.099  70.910
10895DT     SC170826  34.618  83.085  71.142
10895DT     SC270827  34.516  83.210  71.284
10895DT     SC370828  34.812  83.084  71.321
10896DA     BB170829  34.141  83.023  70.698
10896DA     BB270830  34.100  83.332  70.892
10896DA     BB370831  34.223  83.487  70.813
10896DA     SC170832  34.467  83.419  70.994
10896DA     SC270833  34.587  83.522  71.187
10896DA     SC370834  34.782  83.369  71.120
10896DA     SC470835  34.577  83.317  70.936
10897DT     BB170836  34.115  83.611  70.757
10897DT     BB270837  34.188  83.857  71.010
10897DT     BB370838  34.335  83.986  70.943
10897DT     SC170839  34.522  83.805  70.977
10897DT     SC270840  34.649  83.863  71.141
10897DT     SC370841  34.714  83.633  70.922
10898DT     BB170842  34.139  84.161  70.935
10898DT     BB270843  34.394  84.316  71.139
10898DT     BB370844  34.538  84.402  71.018
10898DT     SC170845  34.640  84.168  70.958
10898DT     SC270846  34.834  84.149  71.050
10898DT     SC370847  34.715  83.959  70.816
10899DA     BB170848  34.417  84.699  71.291
10899DA     BB270849  34.783  84.705  71.275
10899DA     BB370850  34.848  84.788  71.089
10899DA     SC170851  34.858  84.513  70.943
10899DA     SC270852  35.031  84.359  70.851
10899DA     SC370853  34.841  84.261  70.711
10899DA     SC470854  34.726  84.467  70.863
10900DA     BB170855  35.028  85.011  71.264
10900DA     BB270856  35.328  84.885  71.095
10900DA     BB370857  35.341  84.964  70.897
10900DA     SC170858  35.184  84.729  70.768
10900DA     SC270859  35.231  84.536  70.616
10900DA     SC370860  34.978  84.536  70.571
10900DA     SC470861  35.024  84.745  70.752
10901DT     BB170862  35.495  85.129  70.802
10901DT     BB270863  35.688  84.898  70.603
10901DT     BB370864  35.656  84.935  70.402
10901DT     SC170865  35.418  84.824  70.412
10901DT     SC270866  35.420  84.639  70.302
10901DT     SC370867  35.156  84.798  70.400
10902DA     BB170868  36.078  84.979  70.400
10902DA     BB270869  35.997  84.750  70.126
10902DA     BB370870  35.929  84.859  69.956
10902DA     SC170871  35.629  84.848  70.038
10902DA     SC270872  35.420  84.737  69.959
10902DA     SC370873  35.298  84.919  70.091
10902DA     SC470874  35.571  84.970  70.125
10903DA     BB170875  36.170  84.721  69.763
10903DA     BB270876  35.905  84.560  69.568
10903DA     BB370877  35.829  84.694  69.420
10903DA     SC170878  35.607  84.810  69.605
10903DA     SC270879  35.358  84.803  69.621
10903DA     SC370880  35.382  85.014  69.763
10903DA     SC470881  35.642  84.941  69.690
10904DG     BB170882  35.925  84.497  69.190
10904DG     BB270883  35.569  84.457  69.137
10904DG     BB370884  35.504  84.595  69.009
10904DG     SC170885  35.441  84.801  69.227
10904DG     SC270886  35.169  84.898  69.302
10904DG     SC370887  35.379  85.057  69.437
10904DG     SC470888  35.556  84.902  69.273
10905DG     BB170889  35.399  84.357  68.808
10905DG     BB270890  35.066  84.480  68.879
10905DG     BB370891  35.022  84.630  68.756
10905DG     SC170892  35.133  84.847  68.942
10905DG     SC270893  34.974  85.057  69.081
10905DG     SC370894  35.264  85.108  69.110
10905DG     SC470895  35.288  84.887  68.930
10906DT     BB170896  34.853  84.609  68.621
10906DT     BB270897  34.607  84.813  68.789
10906DT     BB370898  34.587  84.994  68.692
10906DT     SC170899  34.815  85.080  68.788
10906DT     SC270900  34.778  85.237  68.931
10906DT     SC370901  35.064  85.167  68.796
10907DT     BB170902  34.350  84.899  68.626
10907DT     BB270903  34.286  85.203  68.810
10907DT     BB370904  34.304  85.367  68.685
10907DT     SC170905  34.566  85.348  68.686
10907DT     SC270906  34.649  85.514  68.795
10907DT     SC370907  34.812  85.314  68.599
10908DT     BB170908  34.048  85.375  68.729
10908DT     BB270909  34.178  85.691  68.844
10908DT     BB370910  34.210  85.818  68.683
10908DT     SC170911  34.424  85.685  68.610
10908DT     SC270912  34.598  85.806  68.645
10908DT     SC370913  34.587  85.538  68.464
10909DA     BB170914  34.007  85.993  69.009
10909DA     BB270915  34.276  86.217  68.901
10909DA     BB370916  34.233  86.296  68.707
10909DA     SC170917  34.379  86.068  68.555
10909DA     SC270918  34.586  86.040  68.418
10909DA     SC370919  34.472  85.828  68.327
10909DA     SC470920  34.291  85.941  68.510
10910DC     BB170921  34.221  86.463  68.734
10910DC     BB270922  34.526  86.562  68.569
10910DC     BB370923  34.487  86.605  68.370
10910DC     SC170924  34.464  86.351  68.310
10910DC     SC270925  34.630  86.291  68.188
10910DC     SC370926  34.356  86.124  68.232
10911DC     BB170927  34.541  86.846  68.452
10911DC     BB270928  34.764  86.788  68.175
10911DC     BB370929  34.663  86.813  67.996
10911DC     SC170930  34.538  86.584  68.025
10911DC     SC270931  34.611  86.444  67.878
10911DC     SC370932  34.342  86.411  68.056
10912DC     BB170933  34.798  87.043  67.960
10912DC     BB270934  34.856  86.858  67.656
10912DC     BB370935  34.699  86.888  67.523
10912DC     SC170936  34.541  86.732  67.663
10912DC     SC270937  34.502  86.552  67.551
10912DC     SC370938  34.337  86.654  67.811
10913DA     BB170939  35.027  87.001  67.282
10913DA     BB270940  34.817  86.782  67.077
10913DA     BB370941  34.646  86.888  67.006
10913DA     SC170942  34.467  86.812  67.249
10913DA     SC270943  34.268  86.669  67.295
10913DA     SC370944  34.238  86.812  67.505
10913DA     SC470945  34.465  86.913  67.374
10914DT     BB170946  34.590  86.963  66.780
10914DT     BB270947  34.331  86.718  66.719
10914DT     BB370948  34.147  86.812  66.705
10914DT     SC170949  34.138  86.850  66.965
10914DT     SC270950  33.985  86.725  67.050
10914DT     SC370951  34.130  86.974  67.198
10915DG     BB170952  34.159  86.655  66.322
10915DG     BB270953  33.851  86.559  66.487
10915DG     BB370954  33.715  86.702  66.464
10915DG     SC170955  33.794  86.853  66.717
10915DG     SC270956  33.627  86.884  66.963
10915DG     SC370957  33.868  87.055  66.977
10915DG     SC470958  33.909  86.965  66.708
10916DA     BB170959  33.482  86.475  66.330
10916DA     BB270960  33.256  86.535  66.612
10916DA     BB370961  33.140  86.711  66.578
10916DA     SC170962  33.343  86.901  66.717
10916DA     SC270963  33.356  87.038  66.925
10916DA     SC370964  33.541  87.168  66.804
10916DA     SC470965  33.455  86.971  66.624
10917DA     BB170966  32.901  86.499  66.637
10917DA     BB270967  32.818  86.703  66.930
10917DA     BB370968  32.713  86.879  66.871
10917DA     SC170969  32.971  87.051  66.839
10917DA     SC270970  33.080  87.243  66.954
10917DA     SC370971  33.207  87.277  66.734
10917DA     SC470972  33.039  87.056  66.693
10918DT     BB170973  32.539  86.882  66.938
10918DT     BB270974  32.596  87.130  67.194
10918DT     BB370975  32.525  87.314  67.131
10918DT     SC170976  32.728  87.346  66.968
10918DT     SC270977  32.855  87.503  67.042
10918DT     SC370978  32.864  87.375  66.744
10919DT     BB170979  32.350  87.269  67.320
10919DT     BB270980  32.505  87.584  67.406
10919DT     BB370981  32.419  87.737  67.296
10919DT     SC170982  32.546  87.663  67.079
10919DT     SC270983  32.695  87.810  67.029
10919DT     SC370984  32.587  87.575  66.833
10920DA     BB170985  32.438  87.835  67.705
10920DA     BB270986  32.556  88.123  67.511
10920DA     BB370987  32.394  88.213  67.406
10920DA     SC170988  32.432  88.041  67.150
10920DA     SC270989  32.508  88.074  66.915
10920DA     SC370990  32.384  87.855  66.865
10920DA     SC470991  32.349  87.904  67.139
10921DC     BB170992  32.337  88.396  67.461
10921DC     BB270993  32.457  88.576  67.172
10921DC     BB370994  32.298  88.623  67.047
10921DC     SC170995  32.281  88.375  66.963
10921DC     SC270996  32.343  88.364  66.758
10921DC     SC370997  32.182  88.134  66.919
10922DT     BB170998  32.301  88.889  67.119
10922DT     BB270999  32.324  88.896  66.758
10922DT     BB371000  32.134  88.895  66.676
10922DT     SC171001  32.102  88.641  66.731
10922DT     SC271002  32.102  88.527  66.549
10922DT     SC371003  32.004  88.421  66.839
10923DT     BB171004  32.122  89.172  66.599
10923DT     BB271005  32.049  88.998  66.292
10923DT     BB371006  31.845  88.974  66.271
10923DT     SC171007  31.841  88.784  66.452
10923DT     SC271008  31.799  88.596  66.357
10923DT     SC371009  31.785  88.655  66.675
10924DT     BB171010  31.793  89.177  66.069
10924DT     BB271011  31.663  88.876  65.920
10924DT     BB371012  31.461  88.858  65.960
10924DT     SC171013  31.509  88.789  66.209
10924DT     SC271014  31.457  88.582  66.236
10924DT     SC371015  31.513  88.796  66.472
10925DA     BB171016  31.474  88.832  65.542
10925DA     BB271017  31.283  88.543  65.664
10925DA     BB371018  31.085  88.602  65.717
10925DA     SC171019  31.157  88.665  66.013
10925DA     SC271020  31.111  88.569  66.238
10925DA     SC371021  31.175  88.800  66.328
10925DA     SC471022  31.200  88.816  66.049
10926DA     BB171023  31.012  88.362  65.510
10926DA     BB271024  30.862  88.189  65.796
10926DA     BB371025  30.671  88.271  65.841
10926DA     SC171026  30.782  88.482  66.042
10926DA     SC271027  30.776  88.523  66.288
10926DA     SC371028  30.837  88.765  66.228
10926DA     SC471029  30.818  88.627  65.984
10927DA     BB171030  30.632  87.952  65.815
10927DA     BB271031  30.527  87.963  66.166
10927DA     BB371032  30.336  88.056  66.183
10927DA     SC171033  30.451  88.343  66.221
10927DA     SC271034  30.469  88.512  66.403
10927DA     SC371035  30.505  88.682  66.214
10927DA     SC471036  30.470  88.433  66.089
10928DA     BB171037  30.350  87.774  66.345
10928DA     BB271038  30.265  87.975  66.639
10928DA     BB371039  30.069  88.055  66.620
10928DA     SC171040  30.163  88.318  66.483
10928DA     SC271041  30.178  88.560  66.539
10928DA     SC371042  30.189  88.598  66.286
10928DA     SC471043  30.167  88.320  66.322
10929DT     BB171044  30.005  87.984  66.750
10929DT     BB271045  29.964  88.281  66.952
10929DT     BB371046  29.784  88.372  66.908
10929DT     SC171047  29.877  88.464  66.680
10929DT     SC271048  29.897  88.677  66.693
10929DT     SC371049  29.905  88.501  66.421
10930DA     BB171050  29.855  88.334  67.324
10930DA     BB271051  29.722  88.668  67.255
10930DA     BB371052  29.520  88.656  67.187
10930DA     SC171053  29.597  88.638  66.886
10930DA     SC271054  29.579  88.781  66.683
10930DA     SC371055  29.610  88.562  66.552
10930DA     SC471056  29.615  88.491  66.823
10931DA     BB171057  29.464  88.873  67.434
10931DA     BB271058  29.315  89.096  67.184
10931DA     BB371059  29.125  89.022  67.122
10931DA     SC171060  29.241  88.854  66.886
10931DA     SC271061  29.239  88.860  66.637
10931DA     SC371062  29.302  88.611  66.651
10931DA     SC471063  29.278  88.700  66.916
10932DC     BB171064  28.908  89.106  67.168
10932DC     BB271065  28.828  89.224  66.837
10932DC     BB371066  28.680  89.106  66.753
10932DC     SC171067  28.851  88.911  66.710
10932DC     SC271068  28.884  88.891  66.498
10932DC     SC371069  28.966  88.674  66.725
10933DT     BB171070  28.419  89.266  66.784
10933DT     BB271071  28.417  89.188  66.431
10933DT     BB371072  28.299  89.021  66.396
10933DT     SC171073  28.482  88.861  66.494
10933DT     SC271074  28.566  88.743  66.335
10933DT     SC371075  28.600  88.686  66.652
10934DT     BB171076  28.036  89.133  66.284
10934DT     BB271077  28.135  88.897  66.030
10934DT     BB371078  28.036  88.718  66.057
10934DT     SC171079  28.187  88.655  66.262
10934DT     SC271080  28.315  88.491  66.208
10934DT     SC371081  28.258  88.598  66.509
10935DT     BB171082  27.831  88.730  65.841
10935DT     BB271083  28.008  88.423  65.770
10935DT     BB371084  27.906  88.262  65.851
10935DT     SC171085  27.985  88.325  66.094
10935DT     SC271086  28.124  88.177  66.163
10935DT     SC371087  27.975  88.399  66.347
10936DT     BB171088  27.806  88.161  65.605
10936DT     BB271089  27.995  87.886  65.742
10936DT     BB371090  27.871  87.764  65.853
10936DT     SC171091  27.863  87.937  66.050
10936DT     SC271092  27.971  87.859  66.219
10936DT     SC371093  27.768  88.111  66.223
10937DA     BB171094  28.067  87.515  65.580
10937DA     BB271095  28.109  87.368  65.913
10937DA     BB371096  27.928  87.273  65.975
10937DA     SC171097  27.814  87.527  66.115
10937DA     SC271098  27.768  87.604  66.347
10937DA     SC371099  27.611  87.774  66.238
10937DA     SC471100  27.720  87.624  66.028
10938DT     BB171101  27.931  87.073  65.997
10938DT     BB271102  27.936  87.072  66.358
10938DT     BB371103  27.751  87.017  66.431
10938DT     SC171104  27.648  87.251  66.371
10938DT     SC271105  27.606  87.359  66.552
10938DT     SC371106  27.496  87.433  66.256
10939DT     BB171107  27.861  86.784  66.508
10939DT     BB271108  27.727  86.927  66.811
10939DT     BB371109  27.528  86.875  66.831
10939DT     SC171110  27.457  87.046  66.645
10939DT     SC271111  27.348  87.208  66.735
10939DT     SC371112  27.360  87.140  66.419
10940DT     BB171113  27.600  86.712  67.033
10940DT     BB271114  27.358  86.937  67.178
10940DT     BB371115  27.167  86.864  67.148
10940DT     SC171116  27.173  86.934  66.895
10940DT     SC271117  27.036  87.097  66.863
10940DT     SC371118  27.171  86.915  66.632
10941DG     BB171119  27.227  86.917  67.546
10941DG     BB271120  26.924  87.081  67.434
10941DG     BB371121  26.780  86.947  67.409
10941DG     SC171122  26.849  86.890  67.116
10941DG     SC271123  26.678  86.957  66.880
10941DG     SC371124  26.909  86.789  66.801
10941DG     SC471125  26.956  86.776  67.083
10942DA     BB171126  26.609  87.176  67.602
10942DA     BB271127  26.359  87.207  67.335
10942DA     BB371128  26.240  87.030  67.324
10942DA     SC171129  26.425  86.889  67.118
10942DA     SC271130  26.417  86.822  66.878
10942DA     SC371131  26.606  86.660  66.938
10942DA     SC471132  26.541  86.794  67.175
10943DA     BB171133  26.010  87.264  67.345
10943DA     BB271134  25.884  87.139  67.024
10943DA     BB371135  25.789  86.950  67.051
10943DA     SC171136  26.048  86.785  66.999
10943DA     SC271137  26.139  86.633  66.823
10943DA     SC371138  26.297  86.549  67.006
10943DA     SC471139  26.137  86.745  67.127
10944DG     BB171140  25.535  87.094  66.940
10944DG     BB271141  25.566  86.852  66.673
10944DG     BB371142  25.486  86.679  66.729
10944DG     SC171143  25.745  86.569  66.849
10944DG     SC271144  25.903  86.338  66.744
10944DG     SC371145  26.007  86.427  67.007
10944DG     SC471146  25.779  86.600  67.002
10945DT     BB171147  25.295  86.575  66.633
10945DT     BB271148  25.446  86.304  66.449
10945DT     BB371149  25.410  86.124  66.546
10945DT     SC171150  25.587  86.180  66.732
10945DT     SC271151  25.756  86.049  66.710
10945DT     SC371152  25.689  86.232  66.969
10946DA     BB171153  25.260  86.041  66.161
10946DA     BB271154  25.480  85.762  66.252
10946DA     BB371155  25.381  85.631  66.387
10946DA     SC171156  25.482  85.778  66.642
10946DA     SC271157  25.640  85.734  66.830
10946DA     SC371158  25.511  85.917  66.954
10946DA     SC471159  25.388  85.893  66.703
10947DT     BB171160  25.314  85.416  66.342
10947DT     BB271161  25.578  85.256  66.529
10947DT     BB371162  25.500  85.162  66.696
10947DT     SC171163  25.468  85.392  66.819
10947DT     SC271164  25.607  85.406  66.982
10947DT     SC371165  25.349  85.596  66.936
10948DG     BB171166  25.675  84.857  66.488
10948DG     BB271167  25.801  84.873  66.827
10948DG     BB371168  25.674  84.783  66.951
10948DG     SC171169  25.511  85.036  67.007
10948DG     SC271170  25.494  85.179  67.269
10948DG     SC371171  25.298  85.288  67.076
10948DG     SC471172  25.388  85.072  66.912
10949DG     BB171173  25.920  84.588  67.035
10949DG     BB271174  25.892  84.738  67.363
10949DG     BB371175  25.751  84.646  67.468
10949DG     SC171176  25.526  84.831  67.372
10949DG     SC271177  25.373  85.023  67.541
10949DG     SC371178  25.252  85.001  67.273
10949DG     SC471179  25.447  84.793  67.238
10950DA     BB171180  26.009  84.644  67.689
10950DA     BB271181  25.802  84.834  67.924
10950DA     BB371182  25.649  84.710  68.005
10950DA     SC171183  25.441  84.779  67.784
10950DA     SC271184  25.227  84.906  67.765
10950DA     SC371185  25.188  84.769  67.552
10950DA     SC471186  25.435  84.683  67.655
10951DT     BB171187  25.682  84.706  68.172
10951DT     BB271188  25.407  84.912  68.280
10951DT     BB371189  25.246  84.794  68.332
10951DT     SC171190  25.191  84.745  68.080
10951DT     SC271191  25.008  84.843  68.026
10951DT     SC371192  25.157  84.611  67.855
10952DT     BB171193  25.310  84.885  68.566
10952DT     BB271194  24.963  84.974  68.518
10952DT     BB371195  24.843  84.809  68.554
10952DT     SC171196  24.911  84.700  68.325
10952DT     SC271197  24.742  84.702  68.192
10952DT     SC371198  25.013  84.528  68.153
10953DT     BB171199  24.766  84.933  68.777
10953DT     BB271200  24.459  84.860  68.602
10953DT     BB371201  24.399  84.666  68.643
10953DT     SC171202  24.585  84.568  68.486
10953DT     SC271203  24.492  84.481  68.312
10953DT     SC371204  24.798  84.434  68.408
10954DT     BB171205  24.194  84.750  68.808
10954DT     BB271206  24.029  84.538  68.567
10954DT     BB371207  24.031  84.342  68.632
10954DT     SC171208  24.286  84.317  68.574
10954DT     SC271209  24.308  84.184  68.406
10954DT     SC371210  24.545  84.280  68.605
10955DT     BB171211  23.760  84.337  68.702
10955DT     BB271212  23.795  84.060  68.474
10955DT     BB371213  23.841  83.887  68.578
10955DT     SC171214  24.088  83.967  68.617
10955DT     SC271215  24.221  83.845  68.501
10955DT     SC371216  24.307  84.045  68.741
10956DT     BB171217  23.587  83.776  68.546
10956DT     BB271218  23.809  83.528  68.407
10956DT     BB371219  23.867  83.395  68.554
10956DT     SC171220  24.029  83.571  68.661
10956DT     SC271221  24.233  83.509  68.628
10956DT     SC371222  24.135  83.737  68.837
10957DT     BB171223  23.711  83.202  68.441
10957DT     BB271224  24.042  83.060  68.445
10957DT     BB371225  24.076  82.965  68.626
10957DT     SC171226  24.106  83.194  68.750
10957DT     SC271227  24.312  83.218  68.808
10957DT     SC371228  24.062  83.393  68.918
10958DA     BB171229  24.175  82.709  68.309
10958DA     BB271230  24.452  82.706  68.548
10958DA     BB371231  24.397  82.601  68.725
10958DA     SC171232  24.289  82.854  68.871
10958DA     SC271233  24.355  82.997  69.064
10958DA     SC371234  24.110  83.074  69.065
10958DA     SC471235  24.133  82.888  68.856
10959DC     BB171236  24.497  82.444  68.751
10959DC     BB271237  24.697  82.560  69.028
10959DC     BB371238  24.619  82.489  69.206
10959DC     SC171239  24.421  82.661  69.197
10959DC     SC271240  24.447  82.807  69.352
10959DC     SC371241  24.176  82.756  69.183
10960DT     BB171242  24.829  82.321  69.224
10960DT     BB271243  24.833  82.501  69.536
10960DT     BB371244  24.706  82.410  69.672
10960DT     SC171245  24.495  82.504  69.549
10960DT     SC271246  24.400  82.653  69.673
10960DT     SC371247  24.268  82.510  69.413
10961DA     BB171248  25.069  82.424  69.886
10961DA     BB271249  24.807  82.542  70.113
10961DA     BB371250  24.692  82.377  70.186
10961DA     SC171251  24.483  82.391  69.956
10961DA     SC271252  24.242  82.453  69.929
10961DA     SC371253  24.253  82.316  69.712
10961DA     SC471254  24.509  82.301  69.826
10962DT     BB171255  24.691  82.301  70.397
10962DT     BB271256  24.364  82.426  70.486
10962DT     BB371257  24.231  82.268  70.505
10962DT     SC171258  24.217  82.239  70.244
10962DT     SC271259  24.022  82.299  70.176
10962DT     SC371260  24.240  82.130  70.006
10963DA     BB171261  24.191  82.462  70.877
10963DA     BB271262  23.853  82.410  70.746
10963DA     BB371263  23.794  82.207  70.770
10963DA     SC171264  23.902  82.116  70.493
10963DA     SC271265  23.809  82.040  70.274
10963DA     SC371266  24.042  81.940  70.234
10963DA     SC471267  24.053  82.060  70.487
10964DT     BB171268  23.635  82.145  70.905
10964DT     BB271269  23.389  82.079  70.649
10964DT     BB371270  23.359  81.875  70.631
10964DT     SC171271  23.588  81.845  70.506
10964DT     SC271272  23.551  81.794  70.300
10964DT     SC371273  23.834  81.765  70.455
10965DT     BB171274  23.110  81.882  70.754
10965DT     BB271275  23.044  81.733  70.432
10965DT     BB371276  23.066  81.528  70.443
10965DT     SC171277  23.328  81.548  70.451
10965DT     SC271278  23.410  81.472  70.267
10965DT     SC371279  23.575  81.531  70.540
10966DC     BB171280  22.793  81.482  70.429
10966DC     BB271281  22.929  81.294  70.152
10966DC     BB371282  22.979  81.103  70.214
10966DC     SC171283  23.191  81.191  70.340
10966DC     SC271284  23.368  81.125  70.237
10966DC     SC371285  23.358  81.247  70.537
10967DC     BB171286  22.764  80.983  70.083
10967DC     BB271287  23.054  80.818  69.947
10967DC     BB371288  23.101  80.652  70.061
10967DC     SC171289  23.199  80.802  70.253
10967DC     SC271290  23.413  80.777  70.261
10967DC     SC371291  23.229  80.914  70.489
10968DT     BB171292  23.010  80.467  69.871
10968DT     BB271293  23.356  80.379  69.921
10968DT     BB371294  23.372  80.239  70.073
10968DT     SC171295  23.327  80.421  70.256
10968DT     SC271296  23.507  80.456  70.369
10968DT     SC371297  23.209  80.551  70.453
10969DG     BB171298  23.537  80.070  69.741
10969DG     BB271299  23.769  80.073  70.019
10969DG     BB371300  23.727  79.924  70.144
10969DG     SC171301  23.533  80.088  70.314
10969DG     SC271302  23.575  80.169  70.598
10969DG     SC371303  23.299  80.232  70.510
10969DG     SC471304  23.378  80.093  70.272
10970DT     BB171305  23.878  79.779  70.174
10970DT     BB271306  24.001  79.881  70.498
10970DT     BB371307  23.928  79.753  70.644
10970DT     SC171308  23.690  79.862  70.631
10970DT     SC271309  23.652  79.972  70.812
10970DT     SC371310  23.430  79.887  70.591
10971DA     BB171311  24.338  79.848  70.654
10971DA     BB271312  24.193  79.903  70.986
10971DA     BB371313  24.134  79.717  71.073
10971DA     SC171314  23.845  79.727  70.958
10971DA     SC271315  23.613  79.758  71.044
10971DA     SC371316  23.538  79.649  70.824
10971DA     SC471317  23.818  79.656  70.816
10972DA     BB171318  24.307  79.919  71.267
10972DA     BB271319  24.019  79.891  71.492
10972DA     BB371320  23.993  79.689  71.555
10972DA     SC171321  23.803  79.613  71.321
10972DA     SC271322  23.562  79.557  71.290
10972DA     SC371323  23.637  79.450  71.068
10972DA     SC471324  23.870  79.551  71.188
10973DA     BB171325  23.983  79.894  71.813
10973DA     BB271326  23.658  79.739  71.883
10973DA     BB371327  23.683  79.532  71.931
10973DA     SC171328  23.653  79.436  71.637
10973DA     SC271329  23.487  79.309  71.500
10973DA     SC371330  23.681  79.268  71.338
10973DA     SC471331  23.787  79.420  71.549
10974DT     BB171332  23.637  79.496  72.105
10974DT     BB271333  23.338  79.305  72.040
10974DT     BB371334  23.381  79.102  72.046
10974DT     SC171335  23.500  79.112  71.813
10974DT     SC271336  23.381  79.008  71.667
10974DT     SC371337  23.690  79.099  71.630
10975DT     BB171338  23.258  79.068  72.292
10975DT     BB271339  23.102  78.818  72.084
10975DT     BB371340  23.212  78.643  72.090
10975DT     SC171341  23.398  78.745  71.936
10975DT     SC271342  23.393  78.648  71.744
10975DT     SC371343  23.633  78.834  71.856
10976DC     BB171344  23.038  78.493  72.262
10976DC     BB271345  23.075  78.277  71.975
10976DC     BB371346  23.232  78.146  72.005
10976DC     SC171347  23.409  78.335  71.963
10976DC     SC271348  23.510  78.299  71.777
10976DC     SC371349  23.605  78.506  72.008
10977DG     BB171350  22.922  77.876  71.966
10977DG     BB271351  23.192  77.792  71.740
10977DG     BB371352  23.329  77.685  71.836
10977DG     SC171353  23.491  77.928  71.926
10977DG     SC271354  23.767  77.999  71.835
10977DG     SC371355  23.682  78.173  72.059
10977DG     SC471356  23.454  77.999  72.065
10978DA     BB171357  23.312  77.431  71.594
10978DA     BB271358  23.664  77.484  71.507
10978DA     BB371359  23.791  77.384  71.646
10978DA     SC171360  23.814  77.628  71.838
10978DA     SC271361  23.989  77.791  71.908
10978DA     SC371362  23.840  77.832  72.113
10978DA     SC471363  23.709  77.638  71.958
10979DA     BB171364  23.910  77.254  71.370
10979DA     BB271365  24.230  77.413  71.456
10979DA     BB371366  24.329  77.302  71.609
10979DA     SC171367  24.200  77.463  71.842
10979DA     SC271368  24.273  77.627  72.015
10979DA     SC371369  24.060  77.559  72.141
10979DA     SC471370  24.064  77.406  71.906
10980DA     BB171371  24.560  77.323  71.381
10980DA     BB271372  24.760  77.503  71.630
10980DA     BB371373  24.834  77.367  71.778
10980DA     SC171374  24.589  77.402  71.967
10980DA     SC271375  24.541  77.504  72.189
10980DA     SC371376  24.334  77.352  72.191
10980DA     SC471377  24.467  77.299  71.950
10981DA     BB171378  25.107  77.519  71.683
10981DA     BB271379  25.144  77.626  72.032
10981DA     BB371380  25.203  77.462  72.154
10981DA     SC171381  24.912  77.377  72.224
10981DA     SC271382  24.763  77.377  72.423
10981DA     SC371383  24.627  77.200  72.297
10981DA     SC471384  24.843  77.267  72.130
10982DT     BB171385  25.380  77.476  72.232
10982DT     BB271386  25.277  77.538  72.572
10982DT     BB371387  25.296  77.366  72.685
10982DT     SC171388  25.083  77.261  72.574
10982DT     SC271389  24.925  77.250  72.719
10982DT     SC371390  24.932  77.096  72.434
10983DC     BB171391  25.508  77.477  72.810
10983DC     BB271392  25.283  77.386  73.077
10983DC     BB371393  25.314  77.189  73.131
10983DC     SC171394  25.192  77.102  72.916
10983DC     SC271395  25.005  77.011  72.971
10983DC     SC371396  25.153  76.982  72.684
10984DA     BB171397  25.336  77.411  73.486
10984DA     BB271398  25.118  77.123  73.550
10984DA     BB371399  25.234  76.944  73.566
10984DA     SC171400  25.215  76.876  73.263
10984DA     SC271401  25.105  76.705  73.119
10984DA     SC371402  25.280  76.771  72.943
10984DA     SC471403  25.333  76.930  73.168
10985DA     BB171404  25.080  76.910  73.857
10985DA     BB271405  24.947  76.591  73.733
10985DA     BB371406  25.098  76.440  73.740
10985DA     SC171407  25.201  76.496  73.451
10985DA     SC271408  25.199  76.382  73.230
10985DA     SC371409  25.394  76.538  73.171
10985DA     SC471410  25.322  76.601  73.435
10986DG     BB171411  24.922  76.271  73.943
10986DG     BB271412  24.918  76.026  73.678
10986DG     BB371413  25.078  75.909  73.690
10986DG     SC171414  25.252  76.088  73.513
10986DG     SC271415  25.357  76.017  73.242
10986DG     SC371416  25.477  76.270  73.340
10986DG     SC471417  25.336  76.206  73.581
10987DT     BB171418  25.093  75.662  73.742
10987DT     BB271419  25.169  75.530  73.415
10987DT     BB371420  25.365  75.461  73.410
10987DT     SC171421  25.459  75.706  73.401
10987DT     SC271422  25.545  75.743  73.207
10987DT     SC371423  25.588  75.925  73.472
10988DC     BB171424  25.321  75.170  73.425
10988DC     BB271425  25.520  75.206  73.127
10988DC     BB371426  25.720  75.178  73.171
10988DC     SC171427  25.736  75.413  73.286
10988DC     SC271428  25.857  75.543  73.164
10988DC     SC371429  25.770  75.597  73.472
10989DC     BB171430  25.765  74.905  73.063
10989DC     BB271431  26.011  75.104  72.890
10989DC     BB371432  26.193  75.093  72.988
10989DC     SC171433  26.108  75.251  73.180
10989DC     SC271434  26.211  75.440  73.167
10989DC     SC371435  26.038  75.334  73.420
10990DT     BB171436  26.332  74.918  72.803
10990DT     BB271437  26.536  75.215  72.812
10990DT     BB371438  26.688  75.192  72.951
10990DT     SC171439  26.521  75.225  73.150
10990DT     SC271440  26.561  75.413  73.247
10990DT     SC371441  26.379  75.173  73.367
10991DT     BB171442  26.886  75.166  72.755
10991DT     BB271443  26.984  75.456  72.946
10991DT     BB371444  27.110  75.399  73.100
10991DT     SC171445  26.910  75.299  73.238
10991DT     SC271446  26.874  75.422  73.411
10991DT     SC371447  26.758  75.124  73.362
10992DA     BB171448  27.247  75.725  72.873
10992DA     BB271449  27.255  75.816  73.228
10992DA     BB371450  27.408  75.706  73.329
10992DA     SC171451  27.220  75.470  73.407
10992DA     SC271452  27.117  75.376  73.613
10992DA     SC371453  27.089  75.161  73.477
10992DA     SC471454  27.213  75.345  73.306
10993DA     BB171455  27.430  76.024  73.394
10993DA     BB271456  27.383  75.924  73.744
10993DA     BB371457  27.551  75.811  73.812
10993DA     SC171458  27.431  75.536  73.729
10993DA     SC271459  27.341  75.333  73.842
10993DA     SC371460  27.386  75.214  73.618
10993DA     SC471461  27.467  75.480  73.583
10994DA     BB171462  27.482  76.050  74.025
10994DA     BB271463  27.445  75.778  74.269
10994DA     BB371464  27.633  75.682  74.302
10994DA     SC171465  27.593  75.471  74.078
10994DA     SC271466  27.554  75.225  74.060
10994DA     SC371467  27.639  75.249  73.819
10994DA     SC471468  27.650  75.506  73.931
10995DT     BB171469  27.682  75.707  74.473
10995DT     BB271470  27.629  75.369  74.588
10995DT     BB371471  27.808  75.265  74.584
10995DT     SC171472  27.799  75.244  74.322
10995DT     SC271473  27.763  75.038  74.269
10995DT     SC371474  27.865  75.272  74.069
10996DA     BB171475  27.625  75.218  74.960
10996DA     BB271476  27.732  74.888  74.841
10996DA     BB371477  27.945  74.873  74.845
10996DA     SC171478  27.982  74.977  74.554
10996DA     SC271479  28.053  74.885  74.333
10996DA     SC371480  28.098  75.129  74.269
10996DA     SC471481  28.005  75.134  74.534
10997DA     BB171482  27.867  74.604  75.018
10997DA     BB271483  28.045  74.412  74.761
10997DA     BB371484  28.256  74.439  74.781
10997DA     SC171485  28.267  74.683  74.589
10997DA     SC271486  28.356  74.736  74.362
10997DA     SC371487  28.345  74.981  74.436
10997DA     SC471488  28.254  74.830  74.655
10998DT     BB171489  28.365  74.281  74.835
10998DT     BB271490  28.519  74.221  74.514
10998DT     BB371491  28.715  74.289  74.516
10998DT     SC171492  28.637  74.539  74.502
10998DT     SC271493  28.689  74.619  74.309
10998DT     SC371494  28.599  74.791  74.569
10999DA     BB171495  28.722  73.893  74.377
10999DA     BB271496  28.923  74.096  74.148
10999DA     BB371497  29.107  74.151  74.240
10999DA     SC171498  28.997  74.417  74.359
10999DA     SC271499  29.025  74.661  74.322
10999DA     SC371500  28.930  74.688  74.559
10999DA     SC471501  28.937  74.412  74.508
11000DT     BB171502  29.277  74.077  74.164
11000DT     BB271503  29.395  74.380  74.008
11000DT     BB371504  29.547  74.463  74.122
11000DT     SC171505  29.377  74.548  74.302
11000DT     SC271506  29.365  74.763  74.294
11000DT     SC371507  29.254  74.575  74.534
11001DG     BB171508  29.712  74.398  73.754
11001DG     BB271509  29.767  74.739  73.862
11001DG     BB371510  29.917  74.745  73.993
11001DG     SC171511  29.738  74.703  74.238
11001DG     SC271512  29.686  74.903  74.453
11001DG     SC371513  29.575  74.639  74.526
11001DG     SC471514  29.706  74.554  74.286
11002DT     BB171515  30.107  74.857  73.952
11002DT     BB271516  30.068  75.145  74.165
11002DT     BB371517  30.186  75.125  74.333
11002DT     SC171518  30.023  74.948  74.437
11002DT     SC271519  29.923  75.034  74.608
11002DT     SC371520  29.932  74.719  74.532
11003DA     BB171521  30.275  75.500  74.166
11003DA     BB271522  30.213  75.548  74.524
11003DA     BB371523  30.377  75.472  74.639
11003DA     SC171524  30.256  75.187  74.668
11003DA     SC271525  30.159  75.046  74.850
11003DA     SC371526  30.210  74.848  74.695
11003DA     SC471527  30.297  75.077  74.558
11004DA     BB171528  30.364  75.776  74.763
11004DA     BB271529  30.300  75.620  75.088
11004DA     BB371530  30.480  75.534  75.166
11004DA     SC171531  30.431  75.255  75.036
11004DA     SC271532  30.374  75.024  75.110
11004DA     SC371533  30.468  74.950  74.883
11004DA     SC471534  30.495  75.229  74.891
11005DC     BB171535  30.562  75.613  75.333
11005DC     BB271536  30.471  75.347  75.559
11005DC     BB371537  30.637  75.231  75.601
11005DC     SC171538  30.627  75.117  75.365
11005DC     SC271539  30.568  74.911  75.387
11005DC     SC371540  30.697  75.045  75.121
11006DT     BB171541  30.662  75.332  75.857
11006DT     BB271542  30.639  74.976  75.906
11006DT     BB371543  30.828  74.891  75.896
11006DT     SC171544  30.834  74.917  75.635
11006DT     SC271545  30.822  74.723  75.543
11006DT     SC371546  30.909  74.998  75.395
11007DA     BB171547  30.695  74.754  76.273
11007DA     BB271548  30.822  74.462  76.091
11007DA     BB371549  31.035  74.460  76.093
11007DA     SC171550  31.063  74.622  75.828
11007DA     SC271551  31.137  74.581  75.594
11007DA     SC371552  31.166  74.836  75.580
11007DA     SC471553  31.076  74.782  75.840
11008DT     BB171554  31.183  74.307  76.205
11008DT     BB271555  31.273  74.123  75.908
11008DT     BB371556  31.472  74.154  75.863
11008DT     SC171557  31.423  74.396  75.774
11008DT     SC271558  31.450  74.401  75.561
11008DT     SC371559  31.427  74.659  75.755
11009DA     BB171560  31.456  73.735  75.886
11009DA     BB271561  31.602  73.821  75.561
11009DA     BB371562  31.808  73.872  75.583
11009DA     SC171563  31.753  74.175  75.626
11009DA     SC271564  31.789  74.388  75.501
11009DA     SC371565  31.764  74.502  75.730
11009DA     SC471566  31.736  74.227  75.777
11010DC     BB171567  31.951  73.751  75.494
11010DC     BB271568  31.998  73.971  75.212
11010DC     BB371569  32.183  74.063  75.225
11010DC     SC171570  32.100  74.223  75.415
11010DC     SC271571  32.088  74.424  75.340
11010DC     SC371572  32.080  74.338  75.652
11011DT     BB171573  32.202  73.914  75.017
11011DT     BB271574  32.228  74.255  74.904
11011DT     BB371575  32.418  74.328  74.941
11011DT     SC171576  32.367  74.352  75.198
11011DT     SC271577  32.357  74.560  75.250
11011DT     SC371578  32.382  74.313  75.458
11012DA     BB171579  32.196  74.402  74.581
11012DA     BB271580  32.334  74.716  74.709
11012DA     BB371581  32.548  74.708  74.710
11012DA     SC171582  32.567  74.595  74.999
11012DA     SC271583  32.642  74.673  75.223
11012DA     SC371584  32.660  74.424  75.282
11012DA     SC471585  32.573  74.435  75.016
11013DA     BB171586  32.398  74.981  74.591
11013DA     BB271587  32.610  75.154  74.836
11013DA     BB371588  32.816  75.117  74.795
11013DA     SC171589  32.832  74.865  74.976
11013DA     SC271590  32.938  74.799  75.192
11013DA     SC371591  32.906  74.558  75.111
11013DA     SC471592  32.805  74.722  74.908
11014DT     BB171593  32.874  75.271  74.761
11014DT     BB271594  33.081  75.313  75.054
11014DT     BB371595  33.272  75.244  75.015
11014DT     SC171596  33.194  74.994  75.029
11014DT     SC271597  33.276  74.903  75.206
11014DT     SC371598  33.142  74.746  74.957
11015DG     BB171599  33.288  75.631  75.141
11015DG     BB271600  33.522  75.422  75.322
11015DG     BB371601  33.678  75.380  75.207
11015DG     SC171602  33.555  75.127  75.088
11015DG     SC271603  33.651  74.848  75.132
11015DG     SC371604  33.443  74.856  74.922
11015DG     SC471605  33.465  75.139  74.956
11016DT     BB171606  33.878  75.448  75.263
11016DT     BB271607  34.040  75.141  75.362
11016DT     BB371608  34.165  75.075  75.211
11016DT     SC171609  33.960  74.994  75.067
11016DT     SC271610  33.959  74.779  75.060
11016DT     SC371611  33.788  74.976  74.869
11017DA     BB171612  34.402  75.084  75.556
11017DA     BB271613  34.461  74.762  75.391
11017DA     BB371614  34.581  74.789  75.216
11017DA     SC171615  34.338  74.829  75.026
11017DA     SC271616  34.226  74.704  74.841
11017DA     SC371617  34.127  74.932  74.775
11017DA     SC471618  34.288  74.979  75.000
11018DT     BB171619  34.776  74.713  75.207
11018DT     BB271620  34.712  74.443  74.977
11018DT     BB371621  34.789  74.489  74.790
11018DT     SC171622  34.594  74.658  74.743
11018DT     SC271623  34.467  74.579  74.589
11018DT     SC371624  34.469  74.885  74.695
11019DT     BB171625  35.000  74.312  74.817
11019DT     BB271626  34.846  74.213  74.506
11019DT     BB371627  34.928  74.320  74.350
11019DT     SC171628  34.797  74.537  74.418
11019DT     SC271629  34.646  74.579  74.271
11019DT     SC371630  34.750  74.784  74.499
11020DA     BB171631  34.985  73.923  74.218
11020DA     BB271632  34.845  74.109  73.934
11020DA     BB371633  34.996  74.230  73.844
11020DA     SC171634  34.936  74.479  74.021
11020DA     SC271635  34.839  74.707  73.992
11020DA     SC371636  34.961  74.764  74.210
11020DA     SC471637  35.021  74.496  74.156
11021DT     BB171638  35.110  74.208  73.623
11021DT     BB271639  34.944  74.485  73.462
11021DT     BB371640  35.080  74.635  73.422
11021DT     SC171641  35.087  74.707  73.674
11021DT     SC271642  34.993  74.899  73.697
11021DT     SC371643  35.180  74.752  73.916
11022DA     BB171644  34.942  74.578  73.024
11022DA     BB271645  34.922  74.938  73.090
11022DA     BB371646  35.114  75.028  73.068
11022DA     SC171647  35.193  74.990  73.366
11022DA     SC271648  35.230  75.134  73.567
11022DA     SC371649  35.363  74.935  73.659
11022DA     SC471650  35.273  74.857  73.405
11023DA     BB171651  34.983  75.237  72.842
11023DA     BB271652  35.056  75.511  73.075
11023DA     BB371653  35.259  75.572  73.057
11023DA     SC171654  35.364  75.376  73.273
11023DA     SC271655  35.458  75.388  73.504
11023DA     SC371656  35.552  75.155  73.457
11023DA     SC471657  35.416  75.232  73.224
11024DA     BB171658  35.119  75.864  73.011
11024DA     BB271659  35.285  75.970  73.320
11024DA     BB371660  35.491  76.013  73.282
11024DA     SC171661  35.587  75.723  73.345
11024DA     SC271662  35.718  75.606  73.522
11024DA     SC371663  35.751  75.422  73.347
11024DA     SC471664  35.597  75.620  73.222
11025DA     BB171665  35.384  76.282  73.429
11025DA     BB271666  35.628  76.206  73.692
11025DA     BB371667  35.826  76.247  73.624
11025DA     SC171668  35.873  75.959  73.515
11025DA     SC271669  36.012  75.760  73.573
11025DA     SC371670  35.971  75.687  73.330
11025DA     SC471671  35.838  75.932  73.360
11026DA     BB171672  35.797  76.404  73.908
11026DA     BB271673  36.077  76.197  74.022
11026DA     BB371674  36.257  76.256  73.924
11026DA     SC171675  36.222  76.057  73.687
11026DA     SC271676  36.331  75.849  73.603
11026DA     SC371677  36.221  75.906  73.379
11026DA     SC471678  36.147  76.111  73.556
11027DT     BB171679  36.384  76.327  74.042
11027DT     BB271680  36.614  76.048  74.038
11027DT     BB371681  36.771  76.089  73.909
11027DT     SC171682  36.620  76.048  73.699
11027DT     SC271683  36.683  75.867  73.600
11027DT     SC371684  36.488  76.094  73.475
11028DA     BB171685  36.943  75.975  74.276
11028DA     BB271686  37.112  75.787  74.010
11028DA     BB371687  37.242  75.916  73.900
11028DA     SC171688  37.026  75.995  73.690
11028DA     SC271689  36.980  75.954  73.448
11028DA     SC371690  36.830  76.162  73.463
11028DA     SC471691  36.939  76.127  73.719
11029DT     BB171692  37.459  75.899  73.904
11029DT     BB271693  37.497  75.757  73.574
11029DT     BB371694  37.579  75.897  73.446
11029DT     SC171695  37.352  76.028  73.431
11029DT     SC271696  37.268  76.005  73.234
11029DT     SC371697  37.176  76.223  73.455
11030DT     BB171698  37.837  75.781  73.435
11030DT     BB271699  37.732  75.793  73.090
11030DT     BB371700  37.794  75.970  73.003
11030DT     SC171701  37.608  76.106  73.129
11030DT     SC271702  37.461  76.174  72.988
11030DT     SC371703  37.496  76.280  73.292
11031DC     BB171704  37.994  75.848  72.852
11031DC     BB271705  37.782  76.009  72.608
11031DC     BB371706  37.849  76.201  72.572
11031DC     SC171707  37.755  76.286  72.802
11031DC     SC271708  37.588  76.416  72.766
11031DC     SC371709  37.749  76.385  73.046
11032DG     BB171710  37.838  75.995  72.222
11032DG     BB271711  37.648  76.302  72.202
11032DG     BB371712  37.771  76.457  72.179
11032DG     SC171713  37.806  76.506  72.479
11032DG     SC271714  37.710  76.745  72.630
11032DG     SC371715  37.882  76.575  72.801
11032DG     SC471716  37.922  76.428  72.558
11033DC     BB171717  37.741  76.563  72.008
11033DC     BB271718  37.584  76.863  72.132
11033DC     BB371719  37.723  77.015  72.148
11033DC     SC171720  37.828  76.906  72.363
11033DC     SC271721  37.783  77.029  72.534
11033DC     SC371722  38.003  76.791  72.523
11034DA     BB171723  37.384  77.149  71.942
11034DA     BB271724  37.470  77.399  72.196
11034DA     BB371725  37.649  77.501  72.142
11034DA     SC171726  37.837  77.303  72.291
11034DA     SC271727  37.984  77.303  72.492
11034DA     SC371728  38.098  77.101  72.384
11034DA     SC471729  37.895  77.179  72.207
11035DA     BB171730  37.451  77.760  72.191
11035DA     BB271731  37.692  77.871  72.445
11035DA     BB371732  37.868  77.946  72.352
11035DA     SC171733  38.015  77.672  72.350
11035DA     SC271734  38.209  77.566  72.466
11035DA     SC371735  38.208  77.400  72.270
11035DA     SC471736  37.999  77.580  72.220
11036DT     BB171737  37.923  78.154  72.358
11036DT     BB271738  38.198  78.122  72.589
11036DT     BB371739  38.378  78.146  72.488
11036DT     SC171740  38.359  77.908  72.380
11036DT     SC271741  38.509  77.779  72.465
11036DT     SC371742  38.336  77.719  72.197
11037DT     BB171743  38.439  78.413  72.579
11037DT     BB271744  38.733  78.224  72.670
11037DT     BB371745  38.874  78.235  72.519
11037DT     SC171746  38.738  78.069  72.369
11037DT     SC271747  38.844  77.883  72.353
11037DT     SC371748  38.597  77.977  72.166
11038DC     BB171749  39.057  78.419  72.647
11038DC     BB271750  39.263  78.132  72.573
11038DC     BB371751  39.356  78.158  72.391
11038DC     SC171752  39.134  78.109  72.261
11038DC     SC271753  39.150  77.919  72.160
11038DC     SC371754  38.924  78.145  72.105
11039DG     BB171755  39.663  78.115  72.656
11039DG     BB271756  39.689  77.874  72.387
11039DG     BB371757  39.772  77.959  72.228
11039DG     SC171758  39.506  78.053  72.108
11039DG     SC271759  39.382  77.953  71.856
11039DG     SC371760  39.235  78.188  71.959
11039DG     SC471761  39.448  78.196  72.151
11040DG     BB171762  39.991  77.725  72.253
11040DG     BB271763  39.867  77.611  71.933
11040DG     BB371764  39.953  77.715  71.787
11040DG     SC171765  39.738  77.933  71.784
11040DG     SC271766  39.545  77.987  71.562
11040DG     SC371767  39.532  78.200  71.767
11040DG     SC471768  39.755  78.060  71.880
11041DT     BB171769  40.049  77.596  71.665
11041DT     BB271770  39.835  77.594  71.375
11041DT     BB371771  39.903  77.730  71.235
11041DT     SC171772  39.813  77.932  71.377
11041DT     SC271773  39.647  78.022  71.275
11041DT     SC371774  39.811  78.152  71.522
11042DT     BB171775  39.948  77.507  71.113
11042DT     BB271776  39.736  77.699  70.893
11042DT     BB371777  39.848  77.842  70.795
11042DT     SC171778  39.864  77.990  71.011
11042DT     SC271779  39.747  78.169  70.983
11042DT     SC371780  39.967  78.119  71.216
11043DT     BB171781  39.807  77.692  70.581
11043DT     BB271782  39.689  78.020  70.488
11043DT     BB371783  39.848  78.138  70.428
11043DT     SC171784  39.930  78.169  70.676
11043DT     SC271785  39.897  78.372  70.736
11043DT     SC371786  40.083  78.155  70.890
11044DT     BB171787  39.768  78.120  70.167
11044DT     BB271788  39.791  78.475  70.228
11044DT     BB371789  39.983  78.541  70.191
11044DT     SC171790  40.071  78.434  70.415
11044DT     SC271791  40.122  78.590  70.553
11044DT     SC371792  40.206  78.278  70.579
11045DT     BB171793  39.917  78.667  69.950
11045DT     BB271794  40.072  78.929  70.144
11045DT     BB371795  40.276  78.932  70.109
11045DT     SC171796  40.313  78.717  70.254
11045DT     SC271797  40.418  78.770  70.434
11045DT     SC371798  40.376  78.470  70.320
11046DA     BB171799  40.146  79.324  70.038
11046DA     BB271800  40.438  79.343  70.260
11046DA     BB371801  40.617  79.307  70.150
11046DA     SC171802  40.615  79.000  70.199
11046DA     SC271803  40.747  78.833  70.328
11046DA     SC371804  40.646  78.660  70.168
11046DA     SC471805  40.543  78.908  70.089
11047DA     BB171806  40.695  79.592  70.290
11047DA     BB271807  40.972  79.415  70.453
11047DA     BB371808  41.129  79.379  70.313
11047DA     SC171809  41.020  79.101  70.224
11047DA     SC271810  41.084  78.862  70.248
11047DA     SC371811  40.932  78.822  70.045
11047DA     SC471812  40.922  79.098  70.097
11048DA     BB171813  41.282  79.522  70.563
11048DA     BB271814  41.485  79.217  70.585
11048DA     BB371815  41.621  79.207  70.422
11048DA     SC171816  41.426  79.049  70.238
11048DA     SC271817  41.407  78.819  70.142
11048DA     SC371818  41.249  78.926  69.970
11048DA     SC471819  41.332  79.134  70.139
11049DA     BB171820  41.815  79.162  70.681
11049DA     BB271821  41.912  78.844  70.528
11049DA     BB371822  42.033  78.878  70.356
11049DA     SC171823  41.793  78.886  70.159
11049DA     SC271824  41.700  78.745  69.975
11049DA     SC371825  41.580  78.959  69.900
11049DA     SC471826  41.728  79.030  70.127
11050DT     BB171827  42.222  78.820  70.366
11050DT     BB271828  42.205  78.543  70.135
11050DT     BB371829  42.284  78.599  69.952
11050DT     SC171830  42.071  78.741  69.894
11050DT     SC271831  41.962  78.645  69.735
11050DT     SC371832  41.918  78.949  69.839
11051DT     BB171833  42.537  78.464  69.975
11051DT     BB271834  42.416  78.349  69.655
11051DT     BB371835  42.485  78.474  69.504
11051DT     SC171836  42.315  78.662  69.571
11051DT     SC271837  42.166  78.681  69.417
11051DT     SC371838  42.222  78.894  69.655
11052DG     BB171839  42.674  78.127  69.374
11052DG     BB271840  42.491  78.280  69.101
11052DG     BB371841  42.602  78.422  69.017
11052DG     SC171842  42.498  78.644  69.200
11052DG     SC271843  42.330  78.877  69.117
11052DG     SC371844  42.422  78.908  69.396
11052DG     SC471845  42.573  78.672  69.339
11053DT     BB171846  42.710  78.443  68.777
11053DT     BB271847  42.480  78.678  68.628
11053DT     BB371848  42.575  78.859  68.595
11053DT     SC171849  42.567  78.918  68.851
11053DT     SC271850  42.429  79.080  68.883
11053DT     SC371851  42.649  78.973  69.096
11054DC     BB171852  42.602  78.836  68.313
11054DC     BB271853  42.414  79.140  68.358
11054DC     BB371854  42.542  79.302  68.368
11054DC     SC171855  42.617  79.238  68.611
11054DC     SC271856  42.541  79.384  68.749
11054DC     SC371857  42.771  79.165  68.812
11055DT     BB171858  42.468  79.391  68.118
11055DT     BB271859  42.391  79.666  68.339
11055DT     BB371860  42.555  79.790  68.357
11055DT     SC171861  42.677  79.617  68.513
11055DT     SC271862  42.687  79.696  68.713
11055DT     SC371863  42.857  79.444  68.599
11056DA     BB171864  42.218  80.018  68.260
11056DA     BB271865  42.379  80.170  68.552
11056DA     BB371866  42.561  80.265  68.494
11056DA     SC171867  42.737  80.013  68.544
11056DA     SC271868  42.911  79.938  68.706
11056DA     SC371869  42.975  79.767  68.526
11056DA     SC471870  42.762  79.914  68.419
11057DT     BB171871  42.559  80.453  68.518
11057DT     BB271872  42.771  80.463  68.809
11057DT     BB371873  42.963  80.518  68.755
11057DT     SC171874  43.011  80.282  68.652
11057DT     SC271875  43.154  80.178  68.774
11057DT     SC371876  43.065  80.095  68.474
11058DG     BB171877  42.824  80.776  69.038
11058DG     BB271878  43.144  80.637  69.130
11058DG     BB371879  43.289  80.724  69.025
11058DG     SC171880  43.276  80.524  68.794
11058DG     SC271881  43.490  80.329  68.720
11058DG     SC371882  43.276  80.335  68.515
11058DG     SC471883  43.176  80.552  68.673
11059DA     BB171884  43.438  80.776  69.333
11059DA     BB271885  43.730  80.584  69.223
11059DA     BB371886  43.847  80.699  69.087
11059DA     SC171887  43.699  80.597  68.833
11059DA     SC271888  43.747  80.450  68.637
11059DA     SC371889  43.549  80.569  68.525
11059DA     SC471890  43.574  80.683  68.780
11060DT     BB171891  44.029  80.752  69.146
11060DT     BB271892  44.211  80.519  68.939
11060DT     BB371893  44.294  80.619  68.777
11060DT     SC171894  44.060  80.638  68.659
11060DT     SC271895  44.057  80.511  68.485
11060DT     SC371896  43.844  80.746  68.553
11061DT     BB171897  44.537  80.587  68.889
11061DT     BB271898  44.562  80.430  68.565
11061DT     BB371899  44.611  80.571  68.422
11061DT     SC171900  44.368  80.669  68.424
11061DT     SC271901  44.270  80.623  68.238
11061DT     SC371902  44.170  80.841  68.456
11062DT     BB171903  44.851  80.454  68.410
11062DT     BB271904  44.722  80.436  68.074
11062DT     BB371905  44.762  80.613  67.973
11062DT     SC171906  44.574  80.740  68.105
11062DT     SC271907  44.412  80.786  67.972
11062DT     SC371908  44.458  80.913  68.266
11063DA     BB171909  44.882  80.283  67.743
11063DA     BB271910  44.684  80.506  67.530
11063DA     BB371911  44.793  80.685  67.487
11063DA     SC171912  44.682  80.840  67.733
11063DA     SC271913  44.528  81.032  67.776
11063DA     SC371914  44.644  81.047  68.005
11063DA     SC471915  44.768  80.834  67.869
11064DT     BB171916  44.841  80.708  67.302
11064DT     BB271917  44.606  80.972  67.227
11064DT     BB371918  44.704  81.155  67.225
11064DT     SC171919  44.719  81.158  67.487
11064DT     SC271920  44.589  81.311  67.565
11064DT     SC371921  44.823  81.159  67.730
11065DA     BB171922  44.486  81.121  66.868
11065DA     BB271923  44.416  81.451  67.012
11065DA     BB371924  44.586  81.578  66.992
11065DA     SC171925  44.710  81.497  67.266
11065DA     SC271926  44.749  81.602  67.489
11065DA     SC371927  44.925  81.418  67.522
11065DA     SC471928  44.815  81.376  67.267
11066DA     BB171929  44.365  81.777  66.850
11066DA     BB271930  44.443  82.021  67.113
11066DA     BB371931  44.631  82.113  67.075
11066DA     SC171932  44.794  81.904  67.237
11066DA     SC271933  44.924  81.896  67.450
11066DA     SC371934  45.036  81.688  67.351
11066DA     SC471935  44.853  81.778  67.157
11067DA     BB171936  44.458  82.394  67.100
11067DA     BB271937  44.673  82.482  67.383
11067DA     BB371938  44.863  82.549  67.314
11067DA     SC171939  44.992  82.266  67.320
11067DA     SC271940  45.164  82.144  67.453
11067DA     SC371941  45.177  81.984  67.253
11067DA     SC471942  44.986  82.178  67.185
11068DC     BB171943  44.924  82.748  67.340
11068DC     BB271944  45.160  82.686  67.605
11068DC     BB371945  45.353  82.705  67.534
11068DC     SC171946  45.337  82.474  67.409
11068DC     SC271947  45.466  82.332  67.507
11068DC     SC371948  45.332  82.298  67.213
11069DA     BB171949  45.331  82.953  67.871
11069DA     BB271950  45.630  82.743  67.906
11069DA     BB371951  45.784  82.811  67.775
11069DA     SC171952  45.698  82.628  67.539
11069DA     SC271953  45.786  82.427  67.420
11069DA     SC371954  45.630  82.497  67.229
11069DA     SC471955  45.596  82.689  67.431
11070DC     BB171956  45.950  82.887  67.858
11070DC     BB271957  46.164  82.604  67.791
11070DC     BB371958  46.292  82.648  67.634
11070DC     SC171959  46.098  82.623  67.459
11070DC     SC271960  46.132  82.446  67.340
11070DC     SC371961  45.923  82.685  67.271
11071DC     BB171962  46.495  82.660  67.811
11071DC     BB271963  46.596  82.410  67.571
11071DC     BB371964  46.689  82.500  67.410
11071DC     SC171965  46.460  82.587  67.316
11071DC     SC271966  46.412  82.481  67.135
11071DC     SC371967  46.271  82.753  67.239
11072DA     BB171968  46.934  82.190  67.552
11072DA     BB271969  46.903  82.154  67.188
11072DA     BB371970  47.013  82.307  67.089
11072DA     SC171971  46.774  82.506  67.078
11072DA     SC271972  46.623  82.603  66.905
11072DA     SC371973  46.576  82.786  67.079
11072DA     SC471974  46.759  82.611  67.199
11073DA     BB171975  47.142  82.044  66.941
11073DA     BB271976  47.011  82.182  66.627
11073DA     BB371977  47.131  82.347  66.563
11073DA     SC171978  46.961  82.560  66.714
11073DA     SC271979  46.804  82.745  66.656
11073DA     SC371980  46.854  82.834  66.892
11073DA     SC471981  47.006  82.600  66.863
11074DT     BB171982  47.236  82.327  66.393
11074DT     BB271983  47.024  82.536  66.189
11074DT     BB371984  47.116  82.719  66.156
11074DT     SC171985  47.064  82.798  66.400
11074DT     SC271986  46.916  82.954  66.395
11074DT     SC371987  47.101  82.877  66.649
11075DT     BB171988  47.155  82.644  65.901
11075DT     BB271989  46.963  82.949  65.880
11075DT     BB371990  47.090  83.112  65.886
11075DT     SC171991  47.130  83.082  66.144
11075DT     SC271992  47.036  83.243  66.251
11075DT     SC371993  47.255  83.037  66.372
11076DT     BB171994  47.021  83.143  65.634
11076DT     BB271995  46.927  83.451  65.797
11076DT     BB371996  47.092  83.576  65.812
11076DT     SC171997  47.193  83.431  66.006
11076DT     SC271998  47.184  83.543  66.190
11076DT     SC371999  47.359  83.275  66.138
11077DG     BB172000  46.771  83.750  65.631
11077DG     BB272001  46.900  83.950  65.903
11077DG     BB372002  47.073  84.034  65.849
11077DG     SC172003  47.245  83.801  65.948
11077DG     SC272004  47.437  83.810  66.177
11077DG     SC372005  47.462  83.556  66.028
11077DG     SC472006  47.276  83.680  65.849
11078DT     BB172007  47.056  84.223  65.863
11078DT     BB272008  47.266  84.306  66.145
11078DT     BB372009  47.457  84.349  66.080
11078DT     SC172010  47.508  84.095  66.037
11078DT     SC272011  47.652  84.025  66.181
11078DT     SC372012  47.566  83.871  65.909
11079DT     BB172013  47.392  84.591  66.151
11079DT     BB272014  47.701  84.522  66.325
11079DT     BB372015  47.862  84.546  66.196
11079DT     SC172016  47.807  84.321  66.073
11079DT     SC272017  47.960  84.177  66.118
11079DT     SC372018  47.740  84.152  65.882
11080DG     BB172019  47.943  84.815  66.496
11080DG     BB272020  48.237  84.619  66.418
11080DG     BB372021  48.322  84.688  66.252
11080DG     SC172022  48.160  84.507  66.065
11080DG     SC272023  48.269  84.285  65.898
11080DG     SC372024  47.987  84.339  65.830
11080DG     SC472025  48.019  84.559  66.010
11081DT     BB172026  48.556  84.823  66.191
11081DT     BB272027  48.744  84.564  66.024
11081DT     BB372028  48.763  84.609  65.823
11081DT     SC172029  48.513  84.544  65.777
11081DT     SC272030  48.507  84.363  65.660
11081DT     SC372031  48.259  84.567  65.709
11082DA     BB172032  49.195  84.612  65.867
11082DA     BB272033  49.129  84.400  65.574
11082DA     BB372034  49.107  84.521  65.399
11082DA     SC172035  48.799  84.552  65.431
11082DA     SC272036  48.593  84.474  65.315
11082DA     SC372037  48.477  84.671  65.433
11082DA     SC472038  48.746  84.681  65.512
11083DA     BB172039  49.363  84.378  65.207
11083DA     BB272040  49.108  84.252  64.976
11083DA     BB372041  49.069  84.396  64.823
11083DA     SC172042  48.840  84.536  64.980
11083DA     SC272043  48.592  84.558  64.964
11083DA     SC372044  48.621  84.764  65.114
11083DA     SC472045  48.879  84.661  65.073
11084DT     BB172046  49.117  84.379  64.589
11084DT     BB272047  48.778  84.301  64.494
11084DT     BB372048  48.700  84.454  64.380
11084DT     SC172049  48.671  84.607  64.591
11084DT     SC272050  48.462  84.631  64.634
11084DT     SC372051  48.703  84.810  64.756
11085DT     BB172052  48.710  84.302  64.151
11085DT     BB272053  48.361  84.384  64.191
11085DT     BB372054  48.319  84.564  64.096
11085DT     SC172055  48.438  84.701  64.286
11085DT     SC272056  48.290  84.810  64.397
11085DT     SC372057  48.610  84.859  64.407
11086DA     BB172058  48.045  84.271  63.977
11086DA     BB272059  47.858  84.567  64.084
11086DA     BB372060  47.877  84.723  63.940
11086DA     SC172061  48.128  84.849  64.074
11086DA     SC272062  48.187  85.056  64.199
11086DA     SC372063  48.429  85.003  64.135
11086DA     SC472064  48.272  84.799  64.022
11087DA     BB172065  47.555  84.696  63.980
11087DA     BB272066  47.564  85.044  64.095
11087DA     BB372067  47.598  85.176  63.931
11087DA     SC172068  47.908  85.171  63.959
11087DA     SC272069  48.089  85.328  64.028
11087DA     SC372070  48.246  85.170  63.899
11087DA     SC472071  47.988  85.062  63.873
11088DA     BB172072  47.332  85.297  64.076
11088DA     BB272073  47.529  85.602  64.126
11088DA     BB372074  47.558  85.703  63.941
11088DA     SC172075  47.824  85.557  63.873
11088DA     SC272076  48.066  85.612  63.858
11088DA     SC372077  48.085  85.400  63.714
11088DA     SC472078  47.815  85.423  63.786
11089DA     BB172079  47.437  85.938  64.133
11089DA     BB272080  47.751  86.117  64.071
11089DA     BB372081  47.755  86.193  63.872
11089DA     SC172082  47.891  85.939  63.753
11089DA     SC272083  48.112  85.877  63.656
11089DA     SC372084  47.987  85.679  63.550
11089DA     SC472085  47.795  85.824  63.695
11090DT     BB172086  47.756  86.381  63.863
11090DT     BB272087  48.101  86.419  63.765
11090DT     BB372088  48.114  86.455  63.562
11090DT     SC172089  48.061  86.204  63.506
11090DT     SC272090  48.237  86.110  63.426
11090DT     SC372091  47.935  85.992  63.413
11091DA     BB172092  48.339  86.736  63.777
11091DA     BB272093  48.547  86.604  63.505
11091DA     BB372094  48.477  86.676  63.317
11091DA     SC172095  48.284  86.436  63.269
11091DA     SC272096  48.269  86.239  63.117
11091DA     SC372097  48.020  86.237  63.179
11091DA     SC472098  48.132  86.453  63.319
11092DA     BB172099  48.795  86.753  63.307
11092DA     BB272100  48.815  86.545  63.006
11092DA     BB372101  48.719  86.643  62.842
11092DA     SC172102  48.440  86.515  62.897
11092DA     SC272103  48.290  86.347  62.790
11092DA     SC372104  48.104  86.456  62.930
11092DA     SC472105  48.338  86.597  62.991
11093DA     BB172106  49.010  86.586  62.699
11093DA     BB272107  48.829  86.395  62.444
11093DA     BB372108  48.726  86.527  62.311
11093DA     SC172109  48.464  86.530  62.478
11093DA     SC272110  48.230  86.445  62.456
11093DA     SC372111  48.172  86.621  62.634
11093DA     SC472112  48.447  86.647  62.588
11094DA     BB172113  48.888  86.373  62.063
11094DA     BB272114  48.561  86.279  61.925
11094DA     BB372115  48.474  86.444  61.821
11094DA     SC172116  48.324  86.552  62.071
11094DA     SC272117  48.088  86.571  62.151
11094DA     SC372118  48.178  86.751  62.309
11094DA     SC472119  48.398  86.662  62.161
11095DT     BB172120  48.440  86.465  61.590
11095DT     BB272121  48.083  86.417  61.595
11095DT     BB372122  47.987  86.593  61.545
11095DT     SC172123  48.039  86.698  61.780
11095DT     SC272124  47.856  86.716  61.892
11095DT     SC372125  48.138  86.859  61.963
11096DT     BB172126  47.906  86.529  61.271
11096DT     BB272127  47.595  86.615  61.431
11096DT     BB372128  47.551  86.815  61.398
11096DT     SC172129  47.733  86.891  61.571
11096DT     SC272130  47.637  86.975  61.744
11096DT     SC372131  47.951  87.004  61.669
11097DT     BB172132  47.343  86.774  61.206
11097DT     BB272133  47.183  86.963  61.469
11097DT     BB372134  47.192  87.165  61.426
11097DT     SC172135  47.447  87.175  61.488
11097DT     SC272136  47.472  87.288  61.669
11097DT     SC372137  47.707  87.207  61.462
11098DT     BB172138  46.923  87.170  61.372
11098DT     BB272139  46.967  87.407  61.640
11098DT     BB372140  47.007  87.595  61.563
11098DT     SC172141  47.252  87.525  61.501
11098DT     SC272142  47.391  87.630  61.629
11098DT     SC372143  47.466  87.472  61.355
11099DT     BB172144  46.768  87.651  61.656
11099DT     BB272145  46.992  87.879  61.823
11099DT     BB372146  47.029  88.043  61.702
11099DT     SC172147  47.187  87.903  61.547
11099DT     SC272148  47.390  87.970  61.573
11099DT     SC372149  47.281  87.783  61.332
11100DA     BB172150  46.935  88.133  62.102
11100DA     BB272151  47.230  88.327  62.003
11100DA     BB372152  47.176  88.474  61.857
11100DA     SC172153  47.231  88.288  61.614
11100DA     SC272154  47.397  88.271  61.428
11100DA     SC372155  47.220  88.128  61.310
11100DA     SC472156  47.108  88.203  61.556
11101DA     BB172157  47.346  88.631  62.090
11101DA     BB272158  47.568  88.740  61.819
11101DA     BB372159  47.466  88.875  61.690
11101DA     SC172160  47.362  88.653  61.498
11101DA     SC272161  47.403  88.576  61.265
11101DA     SC372162  47.174  88.463  61.283
11101DA     SC472163  47.216  88.591  61.529
11102DT     BB172164  47.534  89.053  61.692
11102DT     BB272165  47.677  89.060  61.361
11102DT     BB372166  47.549  89.156  61.230
11102DT     SC172167  47.388  88.949  61.224
11102DT     SC272168  47.398  88.857  61.030
11102DT     SC372169  47.170  88.803  61.254
11103DA     BB172170  47.905  89.375  61.173
11103DA     BB272171  47.771  89.304  60.840
11103DA     BB372172  47.607  89.433  60.797
11103DA     SC172173  47.393  89.238  60.911
11103DA     SC272174  47.209  89.094  60.823
11103DA     SC372175  47.117  89.101  61.063
11103DA     SC472176  47.351  89.255  61.065
11104DA     BB172177  47.749  89.559  60.512
11104DA     BB272178  47.468  89.425  60.318
11104DA     BB372179  47.304  89.562  60.322
11104DA     SC172180  47.174  89.435  60.575
11104DA     SC272181  46.971  89.302  60.632
11104DA     SC372182  47.010  89.383  60.872
11104DA     SC472183  47.214  89.497  60.718
11105DA     BB172184  47.285  89.593  59.981
11105DA     BB272185  46.951  89.444  59.992
11105DA     BB372186  46.804  89.594  60.028
11105DA     SC172187  46.814  89.564  60.337
11105DA     SC272188  46.667  89.479  60.520
11105DA     SC372189  46.812  89.622  60.676
11105DA     SC472190  46.915  89.660  60.418
11106DA     BB172191  46.643  89.506  59.747
11106DA     BB272192  46.360  89.402  59.956
11106DA     BB372193  46.235  89.569  60.001
11106DA     SC172194  46.386  89.642  60.263
11106DA     SC272195  46.343  89.637  60.508
11106DA     SC372196  46.533  89.808  60.525
11106DA     SC472197  46.506  89.749  60.252
11107DC     BB172198  46.031  89.586  59.925
11107DC     BB272199  45.872  89.496  60.236
11107DC     BB372200  45.775  89.661  60.316
11107DC     SC172201  46.002  89.768  60.392
11107DC     SC272202  46.015  89.763  60.606
11107DC     SC372203  46.203  89.938  60.408
11108DT     BB172204  45.548  89.534  60.255
11108DT     BB272205  45.536  89.583  60.613
11108DT     BB372206  45.459  89.771  60.656
11108DT     SC172207  45.683  89.888  60.584
11108DT     SC272208  45.780  89.968  60.759
11108DT     SC372209  45.852  90.040  60.451
11109DT     BB172210  45.266  89.622  60.745
11109DT     BB272211  45.375  89.820  61.026
11109DT     BB372212  45.293  90.009  61.016
11109DT     SC172213  45.457  90.079  60.824
11109DT     SC272214  45.597  90.224  60.898
11109DT     SC372215  45.544  90.155  60.586
11110DT     BB172216  45.175  89.912  61.223
11110DT     BB272217  45.333  90.218  61.334
11110DT     BB372218  45.220  90.381  61.274
11110DT     SC172219  45.302  90.355  61.026
11110DT     SC272220  45.432  90.520  60.976
11110DT     SC372221  45.296  90.315  60.765
11111DA     BB172222  45.311  90.416  61.683
11111DA     BB272223  45.364  90.743  61.527
11111DA     BB372224  45.177  90.830  61.471
11111DA     SC172225  45.177  90.707  61.186
11111DA     SC272226  45.201  90.786  60.950
11111DA     SC372227  45.087  90.566  60.886
11111DA     SC472228  45.103  90.565  61.166
11112DA     BB172229  45.300  91.083  61.648
11112DA     BB272230  45.257  91.288  61.347
11112DA     BB372231  45.050  91.324  61.311
11112DA     SC172232  45.012  91.073  61.131
11112DA     SC272233  44.970  91.023  60.890
11112DA     SC372234  44.889  90.795  60.973
11112DA     SC472235  44.964  90.937  61.202
11113DT     BB172236  44.960  91.517  61.330
11113DT     BB272237  44.909  91.581  60.979
11113DT     BB372238  44.709  91.561  60.931
11113DT     SC172239  44.725  91.299  60.945
11113DT     SC272240  44.704  91.216  60.748
11113DT     SC372241  44.682  91.052  61.027
11114DT     BB172242  44.644  91.838  60.908
11114DT     BB272243  44.540  91.701  60.591
11114DT     BB372244  44.342  91.643  60.601
11114DT     SC172245  44.402  91.431  60.743
11114DT     SC272246  44.371  91.254  60.625
11114DT     SC372247  44.412  91.263  60.946
11115DG     BB172248  44.327  91.925  60.302
11115DG     BB272249  44.182  91.613  60.191
11115DG     BB372250  43.994  91.600  60.255
11115DG     SC172251  44.066  91.464  60.519
11115DG     SC272252  43.997  91.184  60.597
11115DG     SC372253  44.111  91.332  60.826
11115DG     SC472254  44.100  91.554  60.646
11116DT     BB172255  43.808  91.589  60.114
11116DT     BB272256  43.731  91.238  60.137
11116DT     BB372257  43.561  91.210  60.252
11116DT     SC172258  43.693  91.259  60.473
11116DT     SC272259  43.710  91.077  60.588
11116DT     SC372260  43.767  91.377  60.697
11117DA     BB172261  43.506  91.006  59.890
11117DA     BB272262  43.432  90.774  60.164
11117DA     BB372263  43.246  90.823  60.255
11117DA     SC172264  43.372  91.014  60.467
11117DA     SC272265  43.410  91.016  60.713
11117DA     SC372266  43.434  91.270  60.686
11117DA     SC472267  43.382  91.170  60.429
11118DG     BB172268  43.187  90.535  60.163
11118DG     BB272269  43.169  90.478  60.520
11118DG     BB372270  42.993  90.539  60.590
11118DG     SC172271  43.087  90.824  60.647
11118DG     SC272272  43.114  90.949  60.917
11118DG     SC372273  43.150  91.151  60.704
11118DG     SC472274  43.076  90.934  60.532
11119DA     BB172275  42.989  90.223  60.729
11119DA     BB272276  42.965  90.376  61.062
11119DA     BB372277  42.770  90.455  61.093
11119DA     SC172278  42.841  90.737  60.983
11119DA     SC272279  42.870  90.968  61.072
11119DA     SC372280  42.834  91.044  60.829
11119DA     SC472281  42.815  90.765  60.826
11120DT     BB172282  42.673  90.369  61.231
11120DT     BB272283  42.701  90.632  61.476
11120DT     BB372284  42.525  90.742  61.482
11120DT     SC172285  42.583  90.861  61.256
11120DT     SC272286  42.627  91.068  61.294
11120DT     SC372287  42.565  90.937  61.004
11121DA     BB172288  42.630  90.626  61.872
11121DA     BB272289  42.558  90.985  61.874
11121DA     BB372290  42.349  91.019  61.850
11121DA     SC172291  42.362  91.036  61.540
11121DA     SC272292  42.336  91.210  61.363
11121DA     SC372293  42.296  91.013  61.204
11121DA     SC472294  42.338  90.900  61.457
11122DA     BB172295  42.400  91.193  62.123
11122DA     BB272296  42.286  91.487  61.935
11122DA     BB372297  42.074  91.483  61.912
11122DA     SC172298  42.081  91.328  61.643
11122DA     SC272299  42.033  91.373  61.402
11122DA     SC372300  42.014  91.118  61.379
11122DA     SC472301  42.072  91.167  61.649
11123DA     BB172302  42.110  91.781  62.041
11123DA     BB272303  41.955  91.912  61.735
11123DA     BB372304  41.745  91.875  61.737
11123DA     SC172305  41.768  91.600  61.594
11123DA     SC272306  41.710  91.502  61.372
11123DA     SC372307  41.724  91.275  61.491
11123DA     SC472308  41.780  91.469  61.686
11124DA     BB172309  41.736  92.199  61.682
11124DA     BB272310  41.558  92.124  61.370
11124DA     BB372311  41.355  92.071  61.411
11124DA     SC172312  41.415  91.767  61.436
11124DA     SC272313  41.367  91.558  61.308
11124DA     SC372314  41.416  91.436  61.528
11124DA     SC472315  41.448  91.709  61.583
11125DC     BB172316  41.196  92.195  61.353
11125DC     BB272317  41.072  91.989  61.084
11125DC     BB372318  40.895  91.898  61.141
11125DC     SC172319  41.023  91.728  61.295
11125DC     SC272320  41.012  91.531  61.209
11125DC     SC372321  41.103  91.602  61.512
11126DA     BB172322  40.780  92.090  60.784
11126DA     BB272323  40.656  91.745  60.763
11126DA     BB372324  40.481  91.722  60.882
11126DA     SC172325  40.636  91.638  61.138
11126DA     SC272326  40.668  91.433  61.276
11126DA     SC372327  40.741  91.593  61.462
11126DA     SC472328  40.677  91.754  61.242
11127DC     BB172329  40.255  91.687  60.809
11127DC     BB272330  40.238  91.338  60.901
11127DC     BB372331  40.105  91.312  61.056
11127DC     SC172332  40.274  91.414  61.229
11127DC     SC272333  40.343  91.259  61.361
11127DC     SC372334  40.378  91.578  61.408
11128DT     BB172335  39.875  91.197  60.912
11128DT     BB272336  39.946  90.950  61.166
11128DT     BB372337  39.825  90.982  61.330
11128DT     SC172338  39.966  91.190  61.404
11128DT     SC272339  40.074  91.143  61.585
11128DT     SC372340  40.029  91.440  61.462
11129DA     BB172341  39.745  90.581  61.235
11129DA     BB272342  39.834  90.592  61.591
11129DA     BB372343  39.667  90.659  61.706
11129DA     SC172344  39.745  90.960  61.690
11129DA     SC272345  39.830  91.137  61.844
11129DA     SC372346  39.741  91.302  61.669
11129DA     SC472347  39.682  91.047  61.570
11130DT     BB172348  39.580  90.528  61.840
11130DT     BB272349  39.732  90.674  62.133
11130DT     BB372350  39.589  90.774  62.244
11130DT     SC172351  39.584  90.972  62.072
11130DT     SC272352  39.670  91.148  62.162
11130DT     SC372353  39.493  91.141  61.891
11131DT     BB172354  39.629  90.579  62.416
11131DT     BB272355  39.714  90.882  62.592
11131DT     BB372356  39.543  90.969  62.670
11131DT     SC172357  39.469  91.054  62.433
11131DT     SC272358  39.485  91.268  62.426
11131DT     SC372359  39.325  91.082  62.214
11132DA     BB172360  39.888  90.942  62.917
11132DA     BB272361  39.750  91.281  62.936
11132DA     BB372362  39.557  91.278  63.027
11132DA     SC172363  39.404  91.243  62.758
11132DA     SC272364  39.253  91.378  62.613
11132DA     SC372365  39.181  91.153  62.513
11132DA     SC472366  39.371  91.093  62.710
11133DT     BB172367  39.580  91.370  63.166
11133DT     BB272368  39.385  91.657  63.065
11133DT     BB372369  39.189  91.635  63.127
11133DT     SC172370  39.142  91.458  62.939
11133DT     SC272371  39.008  91.544  62.793
11133DT     SC372372  39.081  91.229  62.823
11134DC     BB172373  39.247  91.828  63.297
11134DC     BB272374  38.958  91.946  63.117
11134DC     BB372375  38.786  91.864  63.198
11134DC     SC172376  38.836  91.631  63.089
11134DC     SC272377  38.692  91.593  62.934
11134DC     SC372378  38.890  91.374  63.068
11135DT     BB172379  38.722  92.105  63.305
11135DT     BB272380  38.432  92.014  63.111
11135DT     BB372381  38.306  91.896  63.224
11135DT     SC172382  38.465  91.688  63.200
11135DT     SC272383  38.371  91.541  63.074
11135DT     SC372384  38.629  91.492  63.264
11136DC     BB172385  38.123  92.100  63.256
11136DC     BB272386  37.930  91.830  63.113
11136DC     BB372387  37.856  91.709  63.263
11136DC     SC172388  38.091  91.602  63.305
11136DC     SC272389  38.089  91.397  63.239
11136DC     SC372390  38.315  91.534  63.427
11137DA     BB172391  37.526  91.814  63.027
11137DA     BB272392  37.517  91.451  63.074
11137DA     BB372393  37.454  91.403  63.272
11137DA     SC172394  37.742  91.399  63.390
11137DA     SC272395  37.903  91.231  63.479
11137DA     SC372396  38.017  91.431  63.592
11137DA     SC472397  37.798  91.536  63.453
11138DA     BB172398  37.241  91.223  63.101
11138DA     BB272399  37.383  90.930  63.269
11138DA     BB372400  37.315  90.920  63.471
11138DA     SC172401  37.553  91.085  63.584
11138DA     SC272402  37.755  91.046  63.726
11138DA     SC372403  37.752  91.299  63.765
11138DA     SC472404  37.534  91.244  63.597
11139DT     BB172405  37.204  90.769  63.511
11139DT     BB272406  37.446  90.583  63.704
11139DT     BB372407  37.408  90.604  63.906
11139DT     SC172408  37.503  90.849  63.906
11139DT     SC272409  37.687  90.854  64.016
11139DT     SC372410  37.512  91.112  63.928
11140DT     BB172411  37.327  90.350  63.904
11140DT     BB272412  37.584  90.363  64.158
11140DT     BB372413  37.503  90.427  64.337
11140DT     SC172414  37.487  90.675  64.251
11140DT     SC272415  37.630  90.796  64.357
11140DT     SC372416  37.384  90.906  64.176
11141DC     BB172417  37.520  90.175  64.443
11141DC     BB272418  37.696  90.382  64.681
11141DC     BB372419  37.562  90.459  64.820
11141DC     SC172420  37.469  90.631  64.645
11141DC     SC272421  37.529  90.830  64.702
11141DC     SC372422  37.300  90.755  64.484
11142DA     BB172423  37.852  90.274  65.061
11142DA     BB272424  37.796  90.610  65.198
11142DA     BB372425  37.611  90.616  65.305
11142DA     SC172426  37.443  90.701  65.057
11142DA     SC272427  37.321  90.904  64.978
11142DA     SC372428  37.195  90.742  64.823
11142DA     SC472429  37.375  90.585  64.970
11143DA     BB172430  37.789  90.727  65.562
11143DA     BB272431  37.590  91.035  65.548
11143DA     BB372432  37.400  91.005  65.640
11143DA     SC172433  37.259  90.917  65.377
11143DA     SC272434  37.088  91.007  65.220
11143DA     SC372435  37.060  90.764  65.143
11143DA     SC472436  37.255  90.759  65.344
11144DA     BB172437  37.487  91.267  65.819
11144DA     BB272438  37.196  91.439  65.679
11144DA     BB372439  37.017  91.374  65.776
11144DA     SC172440  36.963  91.144  65.573
11144DA     SC272441  36.799  91.091  65.393
11144DA     SC372442  36.874  90.848  65.424
11144DA     SC472443  37.022  90.998  65.608
11145DT     BB172444  36.915  91.506  65.888
11145DT     BB272445  36.641  91.558  65.660
11145DT     BB372446  36.472  91.460  65.728
11145DT     SC172447  36.570  91.227  65.656
11145DT     SC272448  36.457  91.151  65.490
11145DT     SC372449  36.663  90.981  65.674
11146DT     BB172450  36.359  91.698  65.795
11146DT     BB272451  36.118  91.543  65.575
11146DT     BB372452  35.991  91.421  65.683
11146DT     SC172453  36.178  91.238  65.709
11146DT     SC272454  36.125  91.065  65.593
11146DT     SC372455  36.353  91.077  65.822
11147DT     BB172456  35.780  91.598  65.662
11147DT     BB272457  35.646  91.288  65.534
11147DT     BB372458  35.566  91.177  65.689
11147DT     SC172459  35.805  91.110  65.775
11147DT     SC272460  35.838  90.901  65.739
11147DT     SC372461  36.015  91.091  65.932
11148DA     BB172462  35.233  91.199  65.429
11148DA     BB272463  35.267  90.847  65.527
11148DA     BB372464  35.191  90.817  65.725
11148DA     SC172465  35.464  90.870  65.864
11148DA     SC272466  35.636  90.740  65.989
11148DA     SC372467  35.712  90.967  66.081
11148DA     SC472468  35.496  91.021  65.911
11149DT     BB172469  34.983  90.696  65.810
11149DT     BB272470  35.161  90.408  65.937
11149DT     BB372471  35.143  90.400  66.143
11149DT     SC172472  35.313  90.597  66.175
11149DT     SC272473  35.495  90.521  66.261
11149DT     SC372474  35.409  90.833  66.241
11150DA     BB172475  34.975  90.015  66.068
11150DA     BB272476  35.243  89.965  66.312
11150DA     BB372477  35.173  90.005  66.509
11150DA     SC172478  35.252  90.306  66.502
11150DA     SC272479  35.420  90.455  66.610
11150DA     SC372480  35.262  90.646  66.544
11150DA     SC472481  35.140  90.411  66.453
11151DC     BB172482  35.146  89.847  66.690
11151DC     BB272483  35.454  89.945  66.850
11151DC     BB372484  35.414  90.029  67.035
11151DC     SC172485  35.328  90.251  66.925
11151DC     SC272486  35.468  90.410  66.965
11151DC     SC372487  35.165  90.446  66.855
11152DA     BB172488  35.708  89.733  67.044
11152DA     BB272489  35.845  90.040  67.192
11152DA     BB372490  35.756  90.075  67.383
11152DA     SC172491  35.524  90.248  67.270
11152DA     SC272492  35.453  90.487  67.273
11152DA     SC372493  35.220  90.398  67.212
11152DA     SC472494  35.386  90.173  67.233
11153DC     BB172495  35.892  90.069  67.478
11153DC     BB272496  35.916  90.424  67.537
11153DC     BB372497  35.814  90.474  67.710
11153DC     SC172498  35.582  90.447  67.590
11153DC     SC272499  35.490  90.640  67.568
11153DC     SC372500  35.342  90.354  67.532
11154DC     BB172501  36.060  90.522  67.760
11154DC     BB272502  35.884  90.834  67.807
11154DC     BB372503  35.777  90.828  67.984
11154DC     SC172504  35.596  90.670  67.879
11154DC     SC272505  35.411  90.777  67.856
11154DC     SC372506  35.448  90.456  67.838
11155DT     BB172507  35.956  91.006  68.039
11155DT     BB272508  35.638  91.166  68.094
11155DT     BB372509  35.558  91.103  68.275
11155DT     SC172510  35.493  90.869  68.173
11155DT     SC272511  35.279  90.855  68.158
11155DT     SC372512  35.488  90.609  68.134
11156DT     BB172513  35.611  91.348  68.359
11156DT     BB272514  35.259  91.301  68.423
11156DT     BB372515  35.232  91.198  68.601
11156DT     SC172516  35.306  90.972  68.490
11156DT     SC272517  35.135  90.842  68.475
11156DT     SC372518  35.446  90.754  68.440
11157DG     BB172519  35.032  91.552  68.643
11157DG     BB272520  34.822  91.271  68.730
11157DG     BB372521  34.869  91.204  68.912
11157DG     SC172522  35.080  91.006  68.812
11157DG     SC272523  35.062  90.709  68.827
11157DG     SC372524  35.332  90.794  68.739
11157DG     SC472525  35.231  91.057  68.794
11158DA     BB172526  34.532  91.231  69.002
11158DA     BB272527  34.521  90.872  69.078
11158DA     BB372528  34.613  90.834  69.266
11158DA     SC172529  34.896  90.787  69.146
11158DA     SC272530  35.054  90.597  69.112
11158DA     SC372531  35.235  90.777  69.090
11158DA     SC472532  34.995  90.914  69.137
11159DA     BB172533  34.326  90.687  69.331
11159DA     BB272534  34.514  90.376  69.375
11159DA     BB372535  34.615  90.375  69.563
11159DA     SC172536  34.875  90.504  69.452
11159DA     SC272537  35.111  90.435  69.408
11159DA     SC372538  35.163  90.686  69.410
11159DA     SC472539  34.888  90.664  69.458
11160DA     BB172540  34.454  90.091  69.592
11160DA     BB272541  34.783  89.930  69.617
11160DA     BB372542  34.867  89.964  69.810
11160DA     SC172543  35.015  90.225  69.727
11160DA     SC272544  35.250  90.301  69.691
11160DA     SC372545  35.156  90.538  69.719
11160DA     SC472546  34.938  90.364  69.748
11161DA     BB172547  34.889  89.638  69.795
11161DA     BB272548  35.251  89.679  69.829
11161DA     BB372549  35.301  89.732  70.029
11161DA     SC172550  35.283  90.039  69.980
11161DA     SC272551  35.438  90.233  69.967
11161DA     SC372552  35.229  90.377  70.009
11161DA     SC472553  35.142  90.110  70.008
11162DA     BB172554  35.499  89.473  69.987
11162DA     BB272555  35.778  89.702  70.052
11162DA     BB372556  35.787  89.751  70.259
11162DA     SC172557  35.604  90.001  70.233
11162DA     SC272558  35.627  90.249  70.248
11162DA     SC372559  35.373  90.250  70.285
11162DA     SC472560  35.446  89.981  70.256
11163DC     BB172561  35.945  89.687  70.366
11163DC     BB272562  36.109  90.006  70.399
11163DC     BB372563  36.081  90.081  70.591
11163DC     SC172564  35.832  90.144  70.538
11163DC     SC272565  35.813  90.358  70.531
11163DC     SC372566  35.568  90.146  70.549
11164DC     BB172567  36.342  90.028  70.664
11164DC     BB272568  36.302  90.381  70.728
11164DC     BB372569  36.231  90.410  70.920
11164DC     SC172570  35.990  90.332  70.852
11164DC     SC272571  35.856  90.500  70.855
11164DC     SC372572  35.769  90.189  70.843
11165DG     BB172573  36.586  90.613  70.911
11165DG     BB272574  36.317  90.826  71.027
11165DG     BB372575  36.280  90.790  71.218
11165DG     SC172576  36.073  90.572  71.163
11165DG     SC272577  35.780  90.588  71.221
11165DG     SC372578  35.856  90.314  71.138
11165DG     SC472579  36.122  90.420  71.147
11166DA     BB172580  36.314  91.131  71.274
11166DA     BB272581  35.968  91.147  71.395
11166DA     BB372582  35.956  91.072  71.595
11166DA     SC172583  35.899  90.779  71.507
11166DA     SC272584  35.709  90.618  71.513
11166DA     SC372585  35.887  90.437  71.484
11166DA     SC472586  36.025  90.681  71.490
11167DA     BB172587  35.815  91.363  71.638
11167DA     BB272588  35.513  91.180  71.737
11167DA     BB372589  35.535  91.101  71.934
11167DA     SC172590  35.654  90.830  71.839
11167DA     SC272591  35.584  90.591  71.830
11167DA     SC372592  35.835  90.540  71.810
11167DA     SC472593  35.814  90.819  71.829
11168DA     BB172594  35.253  91.264  71.953
11168DA     BB272595  35.099  90.941  72.034
11168DA     BB372596  35.152  90.881  72.233
11168DA     SC172597  35.406  90.725  72.144
11168DA     SC272598  35.481  90.487  72.131
11168DA     SC372599  35.719  90.584  72.125
11168DA     SC472600  35.546  90.804  72.143
11169DA     BB172601  34.827  90.858  72.228
11169DA     BB272602  34.874  90.503  72.306
11169DA     BB372603  34.942  90.480  72.507
11169DA     SC172604  35.244  90.492  72.433
11169DA     SC272605  35.439  90.337  72.427
11169DA     SC372606  35.582  90.549  72.431
11169DA     SC472607  35.316  90.636  72.437
11170DT     BB172608  34.818  90.391  72.615
11170DT     BB272609  34.998  90.079  72.644
11170DT     BB372610  35.098  90.072  72.825
11170DT     SC172611  35.280  90.241  72.740
11170DT     SC272612  35.467  90.138  72.716
11170DT     SC372613  35.427  90.459  72.722
11171DA     BB172614  34.875  89.718  72.786
11171DA     BB272615  35.214  89.627  72.892
11171DA     BB372616  35.245  89.682  73.096
11171DA     SC172617  35.355  89.965  73.029
11171DA     SC272618  35.573  90.086  73.039
11171DA     SC372619  35.432  90.300  73.031
11171DA     SC472620  35.250  90.086  73.024
11172DT     BB172621  35.270  89.535  73.238
11172DT     BB272622  35.624  89.584  73.291
11172DT     BB372623  35.656  89.681  73.471
11172DT     SC172624  35.576  89.910  73.371
11172DT     SC272625  35.745  90.043  73.354
11172DT     SC372626  35.433  90.128  73.333
11173DA     BB172627  35.895  89.337  73.495
11173DA     BB272628  36.104  89.623  73.590
11173DA     BB372629  36.055  89.688  73.788
11173DA     SC172630  35.840  89.892  73.693
11173DA     SC272631  35.812  90.140  73.683
11173DA     SC372632  35.561  90.090  73.665
11173DA     SC472633  35.688  89.841  73.685
11174DG     BB172634  36.351  89.620  73.858
11174DG     BB272635  36.374  89.977  73.912
11174DG     BB372636  36.312  90.022  74.096
11174DG     SC172637  36.019  90.061  74.014
11174DG     SC272638  35.868  90.318  74.017
11174DG     SC372639  35.687  90.091  73.963
11174DG     SC472640  35.921  89.934  74.015
11175DC     BB172641  36.449  90.114  74.239
11175DC     BB272642  36.332  90.456  74.241
11175DC     BB372643  36.223  90.492  74.413
11175DC     SC172644  36.018  90.357  74.322
11175DC     SC272645  35.856  90.492  74.279
11175DC     SC372646  35.833  90.169  74.301
11176DA     BB172647  36.512  90.789  74.353
11176DA     BB272648  36.192  90.953  74.424
11176DA     BB372649  36.138  90.926  74.629
11176DA     SC172650  35.980  90.663  74.578
11176DA     SC272651  35.742  90.587  74.581
11176DA     SC372652  35.839  90.351  74.602
11176DA     SC472653  36.059  90.524  74.592
11177DT     BB172654  36.134  91.085  74.713
11177DT     BB272655  35.777  91.113  74.751
11177DT     BB372656  35.720  91.049  74.939
11177DT     SC172657  35.757  90.798  74.875
11177DT     SC272658  35.567  90.698  74.865
11177DT     SC372659  35.857  90.554  74.874
11178DT     BB172660  35.670  91.305  74.995
11178DT     BB272661  35.362  91.133  75.074
11178DT     BB372662  35.373  91.054  75.265
11178DT     SC172663  35.533  90.862  75.185
11178DT     SC272664  35.428  90.674  75.192
11178DT     SC372665  35.749  90.712  75.162
11179DA     BB172666  35.017  91.280  75.271
11179DA     BB272667  34.942  90.955  75.424
11179DA     BB372668  35.026  90.945  75.620
11179DA     SC172669  35.296  90.824  75.524
11179DA     SC272670  35.417  90.606  75.540
11179DA     SC372671  35.628  90.742  75.486
11179DA     SC472672  35.416  90.926  75.491
11180DT     BB172673  34.916  90.945  75.834
11180DT     BB272674  34.973  90.598  75.914
11180DT     BB372675  35.106  90.582  76.071
11180DT     SC172676  35.308  90.645  75.916
11180DT     SC272677  35.434  90.472  75.890
11180DT     SC372678  35.514  90.778  75.818
11181DA     BB172679  34.793  90.369  76.274
11181DA     BB272680  35.093  90.161  76.307
11181DA     BB372681  35.213  90.230  76.470
11181DA     SC172682  35.382  90.425  76.296
11181DA     SC272683  35.616  90.441  76.212
11181DA     SC372684  35.565  90.691  76.180
11181DA     SC472685  35.331  90.577  76.285
11182DT     BB172686  35.267  90.124  76.698
11182DT     BB272687  35.598  90.018  76.601
11182DT     BB372688  35.740  90.116  76.716
11182DT     SC172689  35.705  90.339  76.583
11182DT     SC272690  35.880  90.379  76.464
11182DT     SC372691  35.643  90.590  76.531
11183DC     BB172692  35.808  89.891  76.874
11183DC     BB272693  36.117  89.984  76.712
11183DC     BB372694  36.224  90.113  76.833
11183DC     SC172695  36.062  90.312  76.777
11183DC     SC272696  36.165  90.457  76.656
11183DC     SC372697  35.884  90.504  76.809
11184DT     BB172698  36.395  89.912  76.867
11184DT     BB272699  36.589  90.178  76.718
11184DT     BB372700  36.657  90.306  76.866
11184DT     SC172701  36.419  90.412  76.895
11184DT     SC272702  36.420  90.614  76.821
11184DT     SC372703  36.190  90.482  77.007
11185DT     BB172704  36.880  90.201  76.786
11185DT     BB272705  36.914  90.557  76.735
11185DT     BB372706  36.958  90.650  76.914
11185DT     SC172707  36.711  90.623  76.998
11185DT     SC272708  36.617  90.817  77.005
11185DT     SC372709  36.505  90.546  77.143
11186DT     BB172710  37.185  90.685  76.792
11186DT     BB272711  37.074  91.015  76.887
11186DT     BB372712  37.115  91.049  77.086
11186DT     SC172713  36.918  90.894  77.162
11186DT     SC272714  36.763  91.013  77.250
11186DT     SC372715  36.790  90.691  77.272
11187DA     BB172716  37.258  91.374  76.860
11187DA     BB272717  37.082  91.508  77.152
11187DA     BB372718  37.194  91.470  77.330
11187DA     SC172719  37.058  91.197  77.387
11187DA     SC272720  36.899  91.101  77.555
11187DA     SC372721  36.990  90.873  77.480
11187DA     SC472722  37.128  91.065  77.329
11188DC     BB172723  37.291  91.626  77.445
11188DC     BB272724  37.072  91.619  77.732
11188DC     BB372725  37.168  91.531  77.892
11188DC     SC172726  37.141  91.292  77.788
11188DC     SC272727  37.001  91.178  77.904
11188DC     SC372728  37.205  91.058  77.683
11189DA     BB172729  37.078  91.901  78.083
11189DA     BB272730  36.976  91.638  78.317
11189DA     BB372731  37.146  91.563  78.423
11189DA     SC172732  37.206  91.339  78.216
11189DA     SC272733  37.194  91.090  78.205
11189DA     SC372734  37.358  91.111  78.009
11189DA     SC472735  37.309  91.373  78.097
11190DT     BB172736  37.227  91.583  78.675
11190DT     BB272737  37.132  91.246  78.764
11190DT     BB372738  37.300  91.137  78.816
11190DT     SC172739  37.374  91.116  78.565
11190DT     SC272740  37.352  90.912  78.500
11190DT     SC372741  37.518  91.144  78.346
11191DT     BB172742  37.276  91.125  79.113
11191DT     BB272743  37.279  90.778  79.013
11191DT     BB372744  37.470  90.701  79.031
11191DT     SC172745  37.550  90.828  78.816
11191DT     SC272746  37.587  90.686  78.659
11191DT     SC372747  37.683  90.996  78.662
11192DT     BB172748  37.384  90.554  79.239
11192DT     BB272749  37.489  90.315  78.990
11192DT     BB372750  37.692  90.279  79.008
11192DT     SC172751  37.751  90.511  78.901
11192DT     SC272752  37.838  90.480  78.707
11192DT     SC372753  37.846  90.756  78.876
11193DC     BB172754  37.595  90.050  79.078
11193DC     BB272755  37.798  89.989  78.786
11193DC     BB372756  37.998  89.984  78.839
11193DC     SC172757  38.005  90.244  78.866
11193DC     SC272758  38.125  90.329  78.709
11193DC     SC372759  38.031  90.481  78.979
11194DT     BB172760  37.947  89.744  78.764
11194DT     BB272761  38.214  89.862  78.552
11194DT     BB372762  38.392  89.864  78.657
11194DT     SC172763  38.321  90.077  78.791
11194DT     SC272764  38.441  90.244  78.729
11194DT     SC372765  38.255  90.232  78.994
11195DT     BB172766  38.441  89.674  78.487
11195DT     BB272767  38.706  89.914  78.444
11195DT     BB372768  38.845  89.895  78.597
11195DT     SC172769  38.683  90.010  78.769
11195DT     SC272770  38.762  90.203  78.822
11195DT     SC372771  38.527  90.044  78.979
11196DT     BB172772  39.012  89.790  78.417
11196DT     BB272773  39.196  90.063  78.565
11196DT     BB372774  39.283  90.001  78.742
11196DT     SC172775  39.053  90.007  78.867
11196DT     SC272776  39.052  90.168  79.010
11196DT     SC372777  38.840  89.923  78.999
11197DA     BB172778  39.612  90.155  78.527
11197DA     BB272779  39.626  90.299  78.864
11197DA     BB372780  39.695  90.154  79.004
11197DA     SC172781  39.410  90.049  79.073
11197DA     SC272782  39.253  90.054  79.267
11197DA     SC372783  39.140  89.853  79.155
11197DA     SC472784  39.354  89.924  78.989
11198DA     BB172785  39.944  90.360  79.097
11198DA     BB272786  39.793  90.371  79.431
11198DA     BB372787  39.852  90.200  79.545
11198DA     SC172788  39.611  90.026  79.454
11198DA     SC272789  39.404  89.931  79.555
11198DA     SC372790  39.407  89.767  79.358
11198DA     SC472791  39.631  89.933  79.325
11199DT     BB172792  39.981  90.210  79.725
11199DT     BB272793  39.711  90.168  79.960
11199DT     BB372794  39.724  89.982  80.051
11199DT     SC172795  39.638  89.861  79.835
11199DT     SC272796  39.441  89.782  79.871
11199DT     SC372797  39.635  89.704  79.623
11200DC     BB172798  39.792  90.111  80.276
11200DC     BB272799  39.486  89.935  80.353
11200DC     BB372800  39.529  89.741  80.411
11200DC     SC172801  39.581  89.670  80.164
11200DC     SC272802  39.427  89.537  80.094
11200DC     SC372803  39.715  89.585  79.953
11201DA     BB172804  39.255  89.962  80.643
11201DA     BB272805  39.109  89.636  80.559
11201DA     BB372806  39.217  89.480  80.655
11201DA     SC172807  39.415  89.438  80.419
11201DA     SC272808  39.463  89.265  80.246
11201DA     SC372809  39.693  89.376  80.227
11201DA     SC472810  39.554  89.520  80.423
11202DT     BB172811  39.092  89.424  80.739
11202DT     BB272812  39.049  89.114  80.560
11202DT     BB372813  39.173  88.969  80.639
11202DT     SC172814  39.385  89.077  80.528
11202DT     SC272815  39.456  88.947  80.371
11202DT     SC372816  39.619  89.195  80.503
11203DT     BB172817  38.941  88.876  80.709
11203DT     BB272818  39.103  88.608  80.529
11203DT     BB372819  39.240  88.513  80.652
11203DT     SC172820  39.409  88.713  80.630
11203DT     SC272821  39.579  88.651  80.515
11203DT     SC372822  39.561  88.918  80.697
11204DT     BB172823  39.072  88.303  80.666
11204DT     BB272824  39.387  88.159  80.562
11204DT     BB372825  39.504  88.120  80.728
11204DT     SC172826  39.560  88.375  80.758
11204DT     SC272827  39.767  88.409  80.711
11204DT     SC372828  39.571  88.615  80.866
11205DT     BB172829  39.466  87.836  80.736
11205DT     BB272830  39.825  87.869  80.739
11205DT     BB372831  39.894  87.875  80.934
11205DT     SC172832  39.809  88.121  80.965
11205DT     SC272833  39.978  88.254  80.979
11205DT     SC372834  39.672  88.327  81.057
11206DT     BB172835  40.002  87.599  80.972
11206DT     BB272836  40.282  87.806  81.063
11206DT     BB372837  40.287  87.833  81.268
11206DT     SC172838  40.086  88.001  81.259
11206DT     SC272839  40.156  88.199  81.306
11206DT     SC372840  39.846  88.103  81.300
11207DG     BB172841  40.651  87.638  81.230
11207DG     BB272842  40.695  87.952  81.404
11207DG     BB372843  40.663  87.927  81.599
11207DG     SC172844  40.363  87.986  81.582
11207DG     SC272845  40.224  88.223  81.700
11207DG     SC372846  40.028  88.027  81.596
11207DG     SC472847  40.261  87.866  81.552
11208DC     BB172848  40.826  87.955  81.781
11208DC     BB272849  40.721  88.280  81.900
11208DC     BB372850  40.637  88.262  82.088
11208DC     SC172851  40.417  88.158  81.989
11208DC     SC272852  40.256  88.298  82.011
11208DC     SC372853  40.226  87.984  81.940
11209DT     BB172854  40.853  88.390  82.170
11209DT     BB272855  40.575  88.602  82.259
11209DT     BB372856  40.497  88.543  82.442
11209DT     SC172857  40.383  88.333  82.333
11209DT     SC272858  40.169  88.360  82.333
11209DT     SC372859  40.325  88.081  82.280
11210DT     BB172860  40.592  88.776  82.474
11210DT     BB272861  40.241  88.797  82.553
11210DT     BB372862  40.205  88.710  82.738
11210DT     SC172863  40.232  88.469  82.639
11210DT     SC272864  40.041  88.370  82.638
11210DT     SC372865  40.328  88.227  82.597
11211DT     BB172866  40.149  88.957  82.742
11211DT     BB272867  39.853  88.781  82.850
11211DT     BB372868  39.884  88.700  83.038
11211DT     SC172869  40.036  88.510  82.940
11211DT     SC272870  39.934  88.321  82.956
11211DT     SC372871  40.250  88.363  82.893
11212DC     BB172872  39.705  88.879  83.074
11212DC     BB272873  39.575  88.576  83.220
11212DC     BB372874  39.673  88.536  83.398
11212DC     SC172875  39.888  88.456  83.270
11212DC     SC272876  39.910  88.243  83.295
11212DC     SC372877  40.138  88.447  83.186
11213DA     BB172878  39.264  88.524  83.496
11213DA     BB272879  39.425  88.239  83.661
11213DA     BB372880  39.543  88.306  83.826
11213DA     SC172881  39.802  88.339  83.658
11213DA     SC272882  40.024  88.228  83.637
11213DA     SC372883  40.101  88.447  83.527
11213DA     SC472884  39.831  88.484  83.593
11214DT     BB172885  39.500  88.274  84.049
11214DT     BB272886  39.762  88.035  84.115
11214DT     BB372887  39.909  88.121  84.232
11214DT     SC172888  40.001  88.260  84.028
11214DT     SC272889  40.194  88.184  83.972
11214DT     SC372890  40.065  88.466  83.878
11215DT     BB172891  39.846  87.999  84.488
11215DT     BB272892  40.194  87.917  84.444
11215DT     BB372893  40.312  88.059  84.538
11215DT     SC172894  40.265  88.235  84.349
11215DT     SC272895  40.445  88.267  84.235
11215DT     SC372896  40.180  88.454  84.230
11216DA     BB172897  40.449  87.699  84.704
11216DA     BB272898  40.745  87.885  84.593
11216DA     BB372899  40.791  88.041  84.731
11216DA     SC172900  40.617  88.254  84.586
11216DA     SC272901  40.653  88.461  84.452
11216DA     SC372902  40.410  88.517  84.511
11216DA     SC472903  40.465  88.271  84.635
11217DT     BB172904  40.966  88.032  84.842
11217DT     BB272905  41.146  88.287  84.660
11217DT     BB372906  41.158  88.459  84.774
11217DT     SC172907  40.906  88.516  84.728
11217DT     SC272908  40.894  88.689  84.600
11217DT     SC372909  40.650  88.562  84.772
11218DA     BB172910  41.547  88.368  84.650
11218DA     BB272911  41.490  88.723  84.582
11218DA     BB372912  41.493  88.835  84.764
11218DA     SC172913  41.186  88.807  84.813
11218DA     SC272914  40.985  88.955  84.810
11218DA     SC372915  40.875  88.772  84.954
11218DA     SC472916  41.136  88.684  84.903
11219DT     BB172917  41.647  88.974  84.808
11219DT     BB272918  41.454  89.276  84.765
11219DT     BB372919  41.414  89.361  84.949
11219DT     SC172920  41.233  89.179  85.003
11219DT     SC272921  41.038  89.269  85.001
11219DT     SC372922  41.111  88.978  85.123
11220DA     BB172923  41.600  89.688  84.754
11220DA     BB272924  41.296  89.819  84.911
11220DA     BB372925  41.326  89.846  85.121
11220DA     SC172926  41.228  89.561  85.197
11220DA     SC272927  41.033  89.458  85.313
11220DA     SC372928  41.185  89.254  85.344
11220DA     SC472929  41.339  89.445  85.208
11221DA     BB172930  41.251  90.186  85.127
11221DA     BB272931  40.966  90.113  85.346
11221DA     BB372932  41.028  90.111  85.550
11221DA     SC172933  41.092  89.807  85.553
11221DA     SC272934  40.998  89.599  85.655
11221DA     SC372935  41.229  89.497  85.611
11221DA     SC472936  41.242  89.762  85.518
11222DA     BB172937  40.803  90.350  85.636
11222DA     BB272938  40.635  90.101  85.846
11222DA     BB372939  40.728  90.090  86.037
11222DA     SC172940  40.929  89.867  85.954
11222DA     SC272941  40.967  89.626  86.002
11222DA     SC372942  41.206  89.667  85.918
11222DA     SC472943  41.073  89.914  85.899
11223DA     BB172944  40.428  90.151  86.164
11223DA     BB272945  40.442  89.817  86.315
11223DA     BB372946  40.557  89.821  86.495
11223DA     SC172947  40.826  89.755  86.353
11223DA     SC272948  40.986  89.565  86.341
11223DA     SC372949  41.156  89.739  86.259
11223DA     SC472950  40.917  89.879  86.305
11224DT     BB172951  40.465  89.785  86.679
11224DT     BB272952  40.590  89.449  86.717
11224DT     BB372953  40.736  89.445  86.864
11224DT     SC172954  40.911  89.558  86.704
11224DT     SC272955  41.063  89.415  86.652
11224DT     SC372956  41.080  89.736  86.608
11225DT     BB172957  40.564  89.313  87.026
11225DT     BB272958  40.849  89.093  86.994
11225DT     BB372959  40.992  89.142  87.135
11225DT     SC172960  41.063  89.356  87.000
11225DT     SC272961  41.260  89.326  86.918
11225DT     SC372962  41.104  89.609  86.939
11226DG     BB172963  40.891  88.751  87.192
11226DG     BB272964  41.248  88.792  87.151
11226DG     BB372965  41.329  88.860  87.320
11226DG     SC172966  41.294  89.155  87.247
11226DG     SC272967  41.514  89.349  87.192
11226DG     SC372968  41.253  89.488  87.209
11226DG     SC472969  41.157  89.229  87.286
11227DA     BB172970  41.546  88.594  87.287
11227DA     BB272971  41.827  88.829  87.269
11227DA     BB372972  41.873  88.905  87.464
11227DA     SC172973  41.682  89.150  87.440
11227DA     SC272974  41.702  89.397  87.418
11227DA     SC372975  41.459  89.403  87.502
11227DA     SC472976  41.532  89.133  87.494
11228DG     BB172977  42.141  88.773  87.394
11228DG     BB272978  42.255  89.116  87.401
11228DG     BB372979  42.286  89.174  87.588
11228DG     SC172980  42.000  89.275  87.632
11228DG     SC272981  41.919  89.559  87.673
11228DG     SC372982  41.691  89.377  87.720
11228DG     SC472983  41.889  89.173  87.684
11229DT     BB172984  42.475  89.231  87.622
11229DT     BB272985  42.440  89.590  87.637
11229DT     BB372986  42.432  89.652  87.835
11229DT     SC172987  42.186  89.564  87.860
11229DT     SC272988  42.052  89.731  87.879
11229DT     SC372989  41.981  89.422  87.946
11230DA     BB172990  42.681  89.867  87.569
11230DA     BB272991  42.473  90.102  87.759
11230DA     BB372992  42.525  90.097  87.966
11230DA     SC172993  42.319  89.875  88.038
11230DA     SC272994  42.106  89.856  88.166
11230DA     SC372995  42.158  89.605  88.175
11230DA     SC472996  42.370  89.723  88.034
11231DT     BB172997  42.558  90.247  87.961
11231DT     BB272998  42.286  90.361  88.168
11231DT     BB372999  42.332  90.332  88.368
11231DT     SC173000  42.291  90.073  88.348
11231DT     SC273001  42.114  90.020  88.458
11231DT     SC373002  42.339  89.814  88.349
11232DA     BB173003  42.154  90.706  88.260
11232DA     BB273004  42.002  90.581  88.570
11232DA     BB373005  42.148  90.569  88.725
11232DA     SC173006  42.230  90.276  88.660
11232DA     SC273007  42.208  90.051  88.764
11232DA     SC373008  42.403  89.984  88.612
11232DA     SC473009  42.353  90.254  88.558
11233DA     BB173010  41.906  90.741  88.872
11233DA     BB273011  41.913  90.483  89.132
11233DA     BB373012  42.094  90.496  89.244
11233DA     SC173013  42.249  90.298  89.062
11233DA     SC273014  42.342  90.067  89.076
11233DA     SC373015  42.490  90.135  88.879
11233DA     SC473016  42.334  90.360  88.940
11234DT     BB173017  42.102  90.559  89.450
11234DT     BB273018  42.181  90.240  89.598
11234DT     BB373019  42.380  90.236  89.657
11234DT     SC173020  42.462  90.212  89.409
11234DT     SC273021  42.544  90.015  89.380
11234DT     SC373022  42.580  90.268  89.180
11235DT     BB173023  42.340  90.267  89.940
11235DT     BB273024  42.542  89.969  89.917
11235DT     BB373025  42.742  90.017  89.930
11235DT     SC173026  42.743  90.112  89.685
11235DT     SC273027  42.859  89.982  89.559
11235DT     SC373028  42.764  90.283  89.485
11236DG     BB173029  42.707  89.775  90.261
11236DG     BB273030  42.978  89.662  90.049
11236DG     BB373031  43.142  89.766  90.088
11236DG     SC173032  43.082  89.985  89.883
11236DG     SC273033  43.238  90.039  89.634
11236DG     SC373034  43.038  90.252  89.681
11236DG     SC473035  42.995  90.111  89.927
11237DC     BB173036  43.345  89.677  90.176
11237DC     BB273037  43.546  89.671  89.876
11237DC     BB373038  43.692  89.818  89.885
11237DC     SC173039  43.515  90.006  89.838
11237DC     SC273040  43.549  90.088  89.642
11237DC     SC373041  43.365  90.220  89.874
11238DA     BB173042  43.878  89.455  89.793
11238DA     BB273043  43.990  89.706  89.549
11238DA     BB373044  44.126  89.842  89.640
11238DA     SC173045  43.906  90.043  89.728
11238DA     SC273046  43.830  90.273  89.667
11238DA     SC373047  43.716  90.274  89.897
11238DA     SC473048  43.843  90.025  89.875
11239DT     BB173049  44.299  89.833  89.566
11239DT     BB273050  44.284  90.141  89.380
11239DT     BB373051  44.384  90.291  89.483
11239DT     SC173052  44.189  90.313  89.657
11239DT     SC273053  44.089  90.502  89.628
11239DT     SC373054  44.060  90.308  89.886
11240DT     BB173055  44.564  90.272  89.289
11240DT     BB273056  44.458  90.617  89.287
11240DT     BB373057  44.562  90.724  89.431
11240DT     SC173058  44.420  90.616  89.624
11240DT     SC273059  44.293  90.766  89.711
11240DT     SC373060  44.359  90.476  89.839
11241DC     BB173061  44.697  90.844  89.233
11241DC     BB273062  44.554  91.115  89.423
11241DC     BB373063  44.677  91.162  89.582
11241DC     SC173064  44.602  90.948  89.714
11241DC     SC273065  44.483  91.006  89.883
11241DC     SC373066  44.614  90.714  89.835
11242DA     BB173067  44.596  91.520  89.376
11242DA     BB273068  44.540  91.580  89.733
11242DA     BB373069  44.726  91.585  89.838
11242DA     SC173070  44.727  91.280  89.901
11242DA     SC273071  44.702  91.133  90.101
11242DA     SC373072  44.817  90.954  89.958
11242DA     SC473073  44.801  91.183  89.797
11243DA     BB173074  44.614  91.878  89.943
11243DA     BB273075  44.632  91.743  90.283
11243DA     BB373076  44.835  91.737  90.349
11243DA     SC173077  44.886  91.448  90.245
11243DA     SC273078  44.924  91.221  90.342
11243DA     SC373079  45.024  91.163  90.113
11243DA     SC473080  44.946  91.432  90.097
11244DA     BB173081  44.725  91.914  90.607
11244DA     BB273082  44.831  91.637  90.822
11244DA     BB373083  45.042  91.640  90.849
11244DA     SC173084  45.101  91.457  90.604
11244DA     SC273085  45.183  91.226  90.562
11244DA     SC373086  45.238  91.310  90.326
11244DA     SC473087  45.129  91.529  90.463
11245DT     BB173088  45.134  91.682  91.038
11245DT     BB273089  45.233  91.343  91.111
11245DT     BB373090  45.439  91.324  91.091
11245DT     SC173091  45.422  91.329  90.830
11245DT     SC273092  45.470  91.135  90.751
11245DT     SC373093  45.453  91.409  90.580
11246DG     BB173094  45.365  91.218  91.480
11246DG     BB273095  45.550  90.961  91.307
11246DG     BB373096  45.743  91.010  91.299
11246DG     SC173097  45.719  91.160  91.033
11246DG     SC273098  45.841  91.078  90.774
11246DG     SC373099  45.725  91.349  90.754
11246DG     SC473100  45.682  91.316  91.035
11247DG     BB173101  45.824  90.733  91.461
11247DG     BB273102  45.994  90.635  91.157
11247DG     BB373103  46.178  90.711  91.155
11247DG     SC173104  46.095  90.971  91.016
11247DG     SC273105  46.174  91.055  90.740
11247DG     SC373106  46.036  91.275  90.882
11247DG     SC473107  46.047  91.095  91.105
11248DA     BB173108  46.275  90.387  91.092
11248DA     BB273109  46.415  90.496  90.771
11248DA     BB373110  46.600  90.598  90.801
11248DA     SC173111  46.469  90.879  90.825
11248DA     SC273112  46.458  91.089  90.692
11248DA     SC373113  46.391  91.201  90.912
11248DA     SC473114  46.429  90.930  90.972
11249DA     BB173115  46.664  90.368  90.580
11249DA     BB273116  46.747  90.646  90.356
11249DA     BB373117  46.930  90.737  90.415
11249DA     SC173118  46.794  90.945  90.602
11249DA     SC273119  46.755  91.191  90.607
11249DA     SC373120  46.719  91.161  90.859
11249DA     SC473121  46.777  90.906  90.757
11250DA     BB173122  46.946  90.668  90.098
11250DA     BB273123  46.992  91.029  90.052
11250DA     BB373124  47.181  91.090  90.130
11250DA     SC173125  47.071  91.152  90.415
11250DA     SC273126  47.030  91.353  90.557
11250DA     SC373127  47.031  91.188  90.754
11250DA     SC473128  47.077  91.034  90.524
11251DG     BB173129  47.168  91.173  89.836
11251DG     BB273130  47.194  91.502  89.984
11251DG     BB373131  47.378  91.531  90.053
11251DG     SC173132  47.319  91.418  90.331
11251DG     SC273133  47.317  91.573  90.586
11251DG     SC373134  47.296  91.283  90.639
11251DG     SC473135  47.338  91.261  90.357
11252DT     BB173136  47.449  91.684  89.966
11252DT     BB273137  47.459  91.929  90.231
11252DT     BB373138  47.642  91.921  90.327
11252DT     SC173139  47.576  91.699  90.451
11252DT     SC273140  47.550  91.739  90.661
11252DT     SC373141  47.580  91.446  90.525
11253DA     BB173142  47.546  92.319  90.223
11253DA     BB273143  47.662  92.313  90.571
11253DA     BB373144  47.870  92.268  90.579
11253DA     SC173145  47.828  91.961  90.601
11253DA     SC273146  47.857  91.782  90.772
11253DA     SC373147  47.857  91.620  90.574
11253DA     SC473148  47.827  91.876  90.464
11254DT     BB173149  47.990  92.410  90.643
11254DT     BB273150  48.070  92.264  90.963
11254DT     BB373151  48.257  92.176  90.956
11254DT     SC173152  48.165  91.974  90.817
11254DT     SC273153  48.168  91.796  90.938
11254DT     SC373154  48.131  91.806  90.616
11255DC     BB173155  48.368  92.376  91.107
11255DC     BB273156  48.448  92.074  91.287
11255DC     BB373157  48.624  91.993  91.215
11255DC     SC173158  48.505  91.907  90.998
11255DC     SC273159  48.495  91.692  91.003
11255DC     SC373160  48.444  91.879  90.743
11256DC     BB173161  48.768  92.069  91.438
11256DC     BB273162  48.817  91.712  91.417
11256DC     BB373163  48.981  91.670  91.297
11256DC     SC173164  48.845  91.727  91.080
11256DC     SC273165  48.810  91.546  90.968
11256DC     SC373166  48.772  91.848  90.857
11257DC     BB173167  49.136  91.598  91.512
11257DC     BB273168  49.139  91.308  91.298
11257DC     BB373169  49.293  91.322  91.161
11257DC     SC173170  49.161  91.501  91.021
11257DC     SC273171  49.101  91.415  90.833
11257DC     SC373172  49.101  91.731  90.906
11258DT     BB173173  49.429  91.128  91.292
11258DT     BB273174  49.391  91.003  90.956
11258DT     BB373175  49.545  91.072  90.836
11258DT     SC173176  49.439  91.312  90.825
11258DT     SC273177  49.366  91.349  90.626
11258DT     SC373178  49.410  91.572  90.857
11259DA     BB173179  49.516  90.656  90.793
11259DA     BB273180  49.523  90.806  90.458
11259DA     BB373181  49.719  90.880  90.414
11259DA     SC173182  49.663  91.164  90.528
11259DA     SC273183  49.634  91.396  90.439
11259DA     SC373184  49.688  91.472  90.678
11259DA     SC473185  49.699  91.191  90.682
11260DA     BB173186  49.657  90.690  90.155
11260DA     BB273187  49.691  90.994  89.954
11260DA     BB373188  49.895  91.054  89.944
11260DA     SC173189  49.880  91.236  90.195
11260DA     SC273190  49.887  91.480  90.247
11260DA     SC373191  49.948  91.407  90.485
11260DA     SC473192  49.918  91.171  90.337
11261DC     BB173193  49.975  91.045  89.768
11261DC     BB273194  49.983  91.400  89.706
11261DC     BB373195  50.174  91.473  89.736
11261DC     SC173196  50.148  91.456  89.996
11261DC     SC273197  50.139  91.654  90.080
11261DC     SC373198  50.189  91.380  90.246
11262DT     BB173199  50.201  91.505  89.469
11262DT     BB273200  50.264  91.833  89.606
11262DT     BB373201  50.463  91.850  89.659
11262DT     SC173202  50.428  91.699  89.871
11262DT     SC273203  50.446  91.820  90.048
11262DT     SC373204  50.450  91.496  90.038
11263DC     BB173205  50.506  92.016  89.449
11263DC     BB273206  50.616  92.205  89.735
11263DC     BB373207  50.814  92.161  89.777
11263DC     SC173208  50.749  91.928  89.878
11263DC     SC273209  50.781  91.931  90.091
11263DC     SC373210  50.734  91.666  89.909
11264DA     BB173211  50.798  92.580  89.750
11264DA     BB273212  50.981  92.497  90.057
11264DA     BB373213  51.177  92.428  90.010
11264DA     SC173214  51.094  92.129  89.992
11264DA     SC273215  51.131  91.919  90.122
11264DA     SC373216  51.066  91.797  89.906
11264DA     SC473217  51.052  92.071  89.848
11265DT     BB173218  51.356  92.540  90.060
11265DT     BB273219  51.466  92.328  90.331
11265DT     BB373220  51.632  92.220  90.273
11265DT     SC173221  51.486  92.060  90.124
11265DT     SC273222  51.481  91.864  90.214
11265DT     SC373223  51.391  91.937  89.911
11266DT     BB173224  51.820  92.370  90.423
11266DT     BB273225  51.870  92.031  90.537
11266DT     BB373226  52.016  91.939  90.423
11266DT     SC173227  51.851  91.912  90.220
11266DT     SC273228  51.803  91.704  90.194
11266DT     SC373229  51.747  91.940  89.979
11267DT     BB173230  52.224  91.947  90.618
11267DT     BB273231  52.194  91.596  90.539
11267DT     BB373232  52.326  91.547  90.387
11267DT     SC173233  52.175  91.664  90.207
11267DT     SC273234  52.087  91.515  90.079
11267DT     SC373235  52.098  91.834  90.020
11268DC     BB173236  52.502  91.407  90.555
11268DC     BB273237  52.402  91.164  90.309
11268DC     BB373238  52.534  91.166  90.149
11268DC     SC173239  52.432  91.391  90.059
11268DC     SC273240  52.326  91.353  89.876
11268DC     SC373241  52.414  91.644  89.987
11269DA     BB173242  52.494  90.774  90.283
11269DA     BB273243  52.434  90.776  89.922
11269DA     BB373244  52.618  90.801  89.816
11269DA     SC173245  52.600  91.112  89.809
11269DA     SC273246  52.563  91.291  89.640
11269DA     SC373247  52.671  91.448  89.812
11269DA     SC473248  52.671  91.193  89.929
11270DA     BB173249  52.464  90.546  89.693
11270DA     BB273250  52.463  90.734  89.378
11270DA     BB373251  52.661  90.747  89.299
11270DA     SC173252  52.728  91.013  89.444
11270DA     SC273253  52.766  91.252  89.383
11270DA     SC373254  52.885  91.270  89.610
11270DA     SC473255  52.799  91.004  89.588
11271DA     BB173256  52.446  90.648  89.075
11271DA     BB273257  52.558  90.942  88.885
11271DA     BB373258  52.762  90.920  88.827
11271DA     SC173259  52.875  91.056  89.083
11271DA     SC273260  52.991  91.269  89.142
11271DA     SC373261  53.066  91.145  89.354
11271DA     SC473262  52.912  90.962  89.207
11272DA     BB173263  52.572  91.013  88.574
11272DA     BB273264  52.807  91.294  88.545
11272DA     BB373265  53.002  91.223  88.495
11272DA     SC173266  53.093  91.193  88.791
11272DA     SC273267  53.252  91.304  88.948
11272DA     SC373268  53.237  91.088  89.085
11272DA     SC473269  53.071  91.050  88.862
11273DT     BB173270  53.047  91.283  88.333
11273DT     BB273271  53.304  91.515  88.436
11273DT     BB373272  53.490  91.425  88.422
11273DT     SC173273  53.445  91.283  88.638
11273DT     SC273274  53.572  91.353  88.797
11273DT     SC373275  53.408  91.073  88.794
11274DT     BB173276  53.542  91.578  88.207
11274DT     BB273277  53.820  91.638  88.429
11274DT     BB373278  53.964  91.491  88.403
11274DT     SC173279  53.819  91.315  88.532
11274DT     SC273280  53.912  91.269  88.721
11274DT     SC373281  53.675  91.099  88.580
11275DT     BB173282  54.138  91.659  88.266
11275DT     BB273283  54.342  91.527  88.533
11275DT     BB373284  54.432  91.351  88.473
11275DT     SC173285  54.206  91.218  88.495
11275DT     SC273286  54.219  91.082  88.662
11275DT     SC373287  53.994  91.077  88.429
11276DA     BB173288  54.766  91.577  88.595
11276DA     BB273289  54.798  91.247  88.751
11276DA     BB373290  54.866  91.104  88.608
11276DA     SC173291  54.580  91.020  88.519
11276DA     SC273292  54.431  90.821  88.540
11276DA     SC373293  54.304  90.921  88.340
11276DA     SC473294  54.515  91.098  88.394
11277DA     BB173295  55.123  91.031  88.811
11277DA     BB273296  54.992  90.689  88.835
11277DA     BB373297  55.051  90.575  88.665
11277DA     SC173298  54.798  90.647  88.498
11277DA     SC273299  54.594  90.532  88.414
11277DA     SC373300  54.579  90.725  88.246
11277DA     SC473301  54.807  90.775  88.401
11278DG     BB173302  55.213  90.375  88.852
11278DG     BB273303  54.966  90.135  88.741
11278DG     BB373304  55.026  90.049  88.572
11278DG     SC173305  54.895  90.258  88.390
11278DG     SC273306  54.666  90.210  88.205
11278DG     SC373307  54.781  90.479  88.162
11278DG     SC473308  54.978  90.389  88.350
11279DT     BB173309  55.076  89.818  88.544
11279DT     BB273310  54.782  89.708  88.367
11279DT     BB373311  54.829  89.668  88.170
11279DT     SC173312  54.844  89.923  88.113
11279DT     SC273313  54.679  89.978  87.985
11279DT     SC373314  54.945  90.156  88.039
11280DT     BB173315  54.809  89.394  88.207
11280DT     BB273316  54.573  89.465  87.944
11280DT     BB373317  54.666  89.453  87.759
11280DT     SC173318  54.788  89.683  87.798
11280DT     SC273319  54.706  89.830  87.664
11280DT     SC373320  54.982  89.858  87.832
11281DC     BB173321  54.537  89.218  87.700
11281DC     BB273322  54.445  89.440  87.431
11281DC     BB373323  54.584  89.428  87.278
11281DC     SC173324  54.760  89.566  87.416
11281DC     SC273325  54.786  89.759  87.325
11281DC     SC373326  54.980  89.626  87.548
11282DA     BB173327  54.194  89.389  87.130
11282DA     BB273328  54.369  89.641  86.931
11282DA     BB373329  54.519  89.549  86.809
11282DA     SC173330  54.744  89.578  87.023
11282DA     SC273331  54.953  89.710  87.053
11282DA     SC373332  55.018  89.529  87.224
11282DA     SC473333  54.767  89.455  87.124
11283DT     BB173334  54.482  89.569  86.631
11283DT     BB273335  54.735  89.816  86.559
11283DT     BB373336  54.901  89.724  86.475
11283DT     SC173337  54.974  89.626  86.708
11283DT     SC273338  55.153  89.725  86.774
11283DT     SC373339  55.031  89.451  86.896
11284DG     BB173340  54.765  90.017  86.227
11284DG     BB273341  55.119  90.051  86.294
11284DG     BB373342  55.221  89.915  86.192
11284DG     SC173343  55.206  89.703  86.412
11284DG     SC273344  55.437  89.599  86.570
11284DG     SC373345  55.193  89.441  86.624
11284DG     SC473346  55.081  89.603  86.416
11285DT     BB173347  55.363  89.978  86.044
11285DT     BB273348  55.678  89.906  86.206
11285DT     BB373349  55.756  89.729  86.133
11285DT     SC173350  55.582  89.587  86.268
11285DT     SC273351  55.683  89.481  86.426
11285DT     SC373352  55.383  89.422  86.320
11286DT     BB173353  55.950  89.861  85.990
11286DT     BB273354  56.134  89.630  86.198
11286DT     BB373355  56.151  89.448  86.103
11286DT     SC173356  55.900  89.389  86.153
11286DT     SC273357  55.891  89.230  86.297
11286DT     SC373358  55.645  89.333  86.112
11287DT     BB173359  56.421  89.479  86.039
11287DT     BB273360  56.411  89.171  86.226
11287DT     BB373361  56.380  89.011  86.098
11287DT     SC173362  56.127  89.075  86.068
11287DT     SC273363  56.004  88.926  86.164
11287DT     SC373364  55.901  89.149  85.953
11288DG     BB173365  56.738  88.923  86.274
11288DG     BB273366  56.503  88.651  86.314
11288DG     BB373367  56.497  88.542  86.148
11288DG     SC173368  56.275  88.706  86.017
11288DG     SC273369  55.998  88.611  85.959
11288DG     SC373370  56.047  88.876  85.836
11288DG     SC473371  56.314  88.833  85.928
11289DA     BB173372  56.554  88.273  86.355
11289DA     BB273373  56.230  88.132  86.257
11289DA     BB373374  56.244  88.042  86.063
11289DA     SC173375  56.164  88.302  85.911
11289DA     SC273376  55.971  88.385  85.778
11289DA     SC373377  56.137  88.556  85.681
11289DA     SC473378  56.283  88.398  85.862
11290DA     BB173379  56.115  87.820  86.259
11290DA     BB273380  55.821  87.840  86.041
11290DA     BB373381  55.862  87.750  85.852
11290DA     SC173382  55.962  88.015  85.722
11290DA     SC273383  55.884  88.175  85.547
11290DA     SC373384  56.129  88.251  85.536
11290DA     SC473385  56.119  88.047  85.728
11291DT     BB173386  55.751  87.629  85.851
11291DT     BB273387  55.528  87.776  85.609
11291DT     BB373388  55.580  87.715  85.418
11291DT     SC173389  55.789  87.874  85.415
11291DT     SC273390  55.755  88.033  85.275
11291DT     SC373391  56.040  87.954  85.407
11292DA     BB173392  55.167  87.707  85.521
11292DA     BB273393  55.210  87.863  85.192
11292DA     BB373394  55.285  87.721  85.051
11292DA     SC173395  55.584  87.788  85.108
11292DA     SC273396  55.774  87.897  84.989
11292DA     SC373397  55.923  87.772  85.156
11292DA     SC473398  55.659  87.700  85.219
11293DT     BB173399  55.162  87.707  84.933
11293DT     BB273400  55.334  87.870  84.662
11293DT     BB373401  55.436  87.731  84.549
11293DT     SC173402  55.621  87.706  84.733
11293DT     SC273403  55.806  87.791  84.661
11293DT     SC373404  55.773  87.597  84.919
11294DC     BB173405  55.254  87.780  84.365
11294DC     BB273406  55.570  87.836  84.201
11294DC     BB373407  55.651  87.656  84.139
11294DC     SC173408  55.719  87.593  84.384
11294DC     SC273409  55.933  87.598  84.403
11294DC     SC373410  55.727  87.463  84.614
11295DT     BB173411  55.593  87.715  83.880
11295DT     BB273412  55.946  87.642  83.877
11295DT     BB373413  55.976  87.438  83.855
11295DT     SC173414  55.905  87.393  84.104
11295DT     SC273415  56.077  87.331  84.217
11295DT     SC373416  55.768  87.303  84.311
11296DT     BB173417  56.059  87.464  83.594
11296DT     BB273418  56.330  87.288  83.755
11296DT     BB373419  56.296  87.084  83.748
11296DT     SC173420  56.113  87.101  83.936
11296DT     SC273421  56.186  87.009  84.116
11296DT     SC373422  55.878  87.089  84.055
11297DA     BB173423  56.680  87.129  83.584
11297DA     BB273424  56.699  86.865  83.838
11297DA     BB373425  56.610  86.685  83.765
11297DA     SC173426  56.326  86.752  83.873
11297DA     SC273427  56.172  86.670  84.051
11297DA     SC373428  55.987  86.785  83.916
11297DA     SC473429  56.225  86.829  83.775
11298DA     BB173430  56.901  86.550  83.844
11298DA     BB273431  56.719  86.337  84.080
11298DA     BB373432  56.619  86.179  83.977
11298DA     SC173433  56.356  86.339  83.936
11298DA     SC273434  56.121  86.332  84.020
11298DA     SC373435  56.064  86.470  83.812
11298DA     SC473436  56.340  86.423  83.800
11299DG     BB173437  56.797  85.988  84.149
11299DG     BB273438  56.477  85.888  84.287
11299DG     BB373439  56.392  85.752  84.169
11299DG     SC173440  56.245  85.958  83.996
11299DG     SC273441  55.950  85.996  83.982
11299DG     SC373442  56.087  86.156  83.774
11299DG     SC473443  56.320  86.018  83.868
11300DA     BB173444  56.356  85.551  84.451
11300DA     BB273445  55.992  85.551  84.406
11300DA     BB373446  55.937  85.417  84.249
11300DA     SC173447  55.952  85.634  84.026
11300DA     SC273448  55.794  85.758  83.878
11300DA     SC373449  56.000  85.803  83.731
11300DA     SC473450  56.092  85.650  83.948
11301DA     BB173451  55.742  85.288  84.481
11301DA     BB273452  55.458  85.378  84.267
11301DA     BB373453  55.440  85.240  84.106
11301DA     SC173454  55.621  85.404  83.913
11301DA     SC273455  55.595  85.538  83.705
11301DA     SC373456  55.847  85.501  83.674
11301DA     SC473457  55.778  85.368  83.911
11302DA     BB173458  55.130  85.202  84.214
11302DA     BB273459  55.017  85.328  83.889
11302DA     BB373460  55.031  85.175  83.741
11302DA     SC173461  55.321  85.249  83.656
11302DA     SC273462  55.435  85.349  83.458
11302DA     SC373463  55.648  85.241  83.552
11302DA     SC473464  55.442  85.173  83.730
11303DA     BB173465  54.711  85.237  83.687
11303DA     BB273466  54.802  85.333  83.345
11303DA     BB373467  54.831  85.160  83.224
11303DA     SC173468  55.135  85.137  83.286
11303DA     SC273469  55.351  85.167  83.165
11303DA     SC373470  55.452  85.022  83.351
11303DA     SC473471  55.179  85.044  83.410
11304DA     BB173472  54.608  85.299  83.024
11304DA     BB273473  54.869  85.310  82.766
11304DA     BB373474  54.891  85.118  82.675
11304DA     SC173475  55.110  85.022  82.875
11304DA     SC273476  55.354  84.972  82.871
11304DA     SC373477  55.309  84.837  83.084
11304DA     SC473478  55.061  84.942  83.005
11305DT     BB173479  54.839  85.086  82.471
11305DT     BB273480  55.178  85.074  82.346
11305DT     BB373481  55.227  84.880  82.293
11305DT     SC173482  55.251  84.809  82.545
11305DT     SC273483  55.458  84.771  82.588
11305DT     SC373484  55.206  84.685  82.773
11306DT     BB173485  55.216  84.943  82.026
11306DT     BB273486  55.551  84.818  82.076
11306DT     BB373487  55.555  84.613  82.049
11306DT     SC173488  55.438  84.573  82.281
11306DT     SC273489  55.579  84.484  82.417
11306DT     SC373490  55.257  84.499  82.458
11307DA     BB173491  55.855  84.792  81.821
11307DA     BB273492  56.005  84.518  82.013
11307DA     BB373493  55.946  84.329  81.933
11307DA     SC173494  55.695  84.303  82.114
11307DA     SC273495  55.619  84.163  82.306
11307DA     SC373496  55.382  84.236  82.240
11307DA     SC473497  55.555  84.359  82.057
11308DT     BB173498  56.091  84.242  81.870
11308DT     BB273499  56.114  83.996  82.132
11308DT     BB373500  56.028  83.818  82.070
11308DT     SC173501  55.786  83.917  82.098
11308DT     SC273502  55.688  83.821  82.264
11308DT     SC373503  55.544  84.000  82.036
11309DT     BB173504  56.276  83.745  82.081
11309DT     BB273505  56.098  83.518  82.298
11309DT     BB373506  56.005  83.371  82.185
11309DT     SC173507  55.820  83.539  82.106
11309DT     SC273508  55.631  83.486  82.195
11309DT     SC373509  55.672  83.689  81.946
11310DC     BB173510  56.184  83.226  82.303
11310DC     BB273511  55.869  83.067  82.377
11310DC     BB373512  55.807  82.955  82.215
11310DC     SC173513  55.738  83.170  82.083
11310DC     SC273514  55.523  83.178  82.066
11310DC     SC373515  55.734  83.356  81.895
11311DG     BB173516  55.826  82.706  82.538
11311DG     BB273517  55.514  82.664  82.360
11311DG     BB373518  55.545  82.559  82.193
11311DG     SC173519  55.603  82.805  82.020
11311DG     SC273520  55.434  82.905  81.795
11311DG     SC373521  55.692  83.049  81.805
11311DG     SC473522  55.754  82.859  82.010
11312DC     BB173523  55.460  82.347  82.149
11312DC     BB273524  55.213  82.413  81.894
11312DC     BB373525  55.285  82.354  81.709
11312DC     SC173526  55.445  82.562  81.696
11312DC     SC273527  55.375  82.697  81.544
11312DC     SC373528  55.667  82.704  81.685
11313DA     BB173529  54.929  82.125  81.714
11313DA     BB273530  54.942  82.289  81.386
11313DA     BB373531  55.078  82.185  81.258
11313DA     SC173532  55.324  82.357  81.340
11313DA     SC273533  55.472  82.529  81.236
11313DA     SC373534  55.640  82.466  81.420
11313DA     SC473535  55.416  82.302  81.460
11314DA     BB173536  54.840  82.132  81.019
11314DA     BB273537  55.038  82.335  80.787
11314DA     BB373538  55.189  82.216  80.694
11314DA     SC173539  55.404  82.276  80.911
11314DA     SC273540  55.618  82.403  80.929
11314DA     SC373541  55.665  82.255  81.134
11314DA     SC473542  55.415  82.173  81.034
11315DA     BB173543  55.071  82.304  80.393
11315DA     BB273544  55.391  82.469  80.327
11315DA     BB373545  55.535  82.328  80.260
11315DA     SC173546  55.641  82.262  80.545
11315DA     SC273547  55.848  82.300  80.678
11315DA     SC373548  55.765  82.106  80.825
11315DA     SC473549  55.573  82.139  80.623
11316DT     BB173550  55.619  82.328  80.056
11316DT     BB273551  55.939  82.468  80.147
11316DT     BB373552  56.087  82.325  80.127
11316DT     SC173553  56.008  82.203  80.346
11316DT     SC273554  56.156  82.229  80.499
11316DT     SC373555  55.913  82.015  80.505
11317DT     BB173556  56.185  82.451  79.906
11317DT     BB273557  56.463  82.442  80.136
11317DT     BB373558  56.568  82.265  80.112
11317DT     SC173559  56.381  82.128  80.235
11317DT     SC273560  56.455  82.060  80.426
11317DT     SC373561  56.188  81.952  80.276
11318DT     BB173562  56.769  82.405  79.999
11318DT     BB273563  56.922  82.237  80.279
11318DT     BB373564  56.983  82.047  80.223
11318DT     SC173565  56.736  81.958  80.224
11318DT     SC273566  56.710  81.821  80.388
11318DT     SC373567  56.508  81.859  80.137
11319DT     BB173568  57.239  82.132  80.236
11319DT     BB273569  57.225  81.850  80.461
11319DT     BB373570  57.256  81.675  80.356
11319DT     SC173571  57.015  81.684  80.253
11319DT     SC273572  56.895  81.526  80.337
11319DT     SC373573  56.822  81.701  80.074
11320DT     BB173574  57.504  81.651  80.467
11320DT     BB273575  57.337  81.343  80.553
11320DT     BB373576  57.361  81.204  80.402
11320DT     SC173577  57.188  81.329  80.249
11320DT     SC273578  57.011  81.208  80.229
11320DT     SC373579  57.089  81.463  80.045
11321DC     BB173580  57.539  81.057  80.553
11321DC     BB273581  57.280  80.821  80.465
11321DC     BB373582  57.325  80.731  80.284
11321DC     SC173583  57.260  80.947  80.151
11321DC     SC273584  57.079  80.911  80.040
11321DC     SC373585  57.282  81.160  79.996
11322DG     BB173586  57.280  80.440  80.566
11322DG     BB273587  57.071  80.380  80.277
11322DG     BB373588  57.182  80.310  80.127
11322DG     SC173589  57.247  80.586  80.013
11322DG     SC273590  57.155  80.694  79.750
11322DG     SC373591  57.355  80.874  79.874
11322DG     SC473592  57.376  80.664  80.068
11323DT     BB173593  57.139  80.115  80.050
11323DT     BB273594  56.979  80.194  79.736
11323DT     BB373595  57.113  80.169  79.580
11323DT     SC173596  57.239  80.390  79.643
11323DT     SC273597  57.203  80.538  79.491
11323DT     SC373598  57.432  80.552  79.720
11324DG     BB173599  56.786  79.935  79.511
11324DG     BB273600  56.862  80.147  79.228
11324DG     BB373601  57.018  80.074  79.129
11324DG     SC173602  57.225  80.230  79.292
11324DG     SC273603  57.400  80.449  79.189
11324DG     SC373604  57.480  80.370  79.463
11324DG     SC473605  57.283  80.165  79.426
11325DT     BB173606  56.995  80.011  78.924
11325DT     BB273607  57.161  80.276  78.745
11325DT     BB373608  57.350  80.214  78.687
11325DT     SC173609  57.442  80.237  78.932
11325DT     SC273610  57.579  80.402  78.941
11325DT     SC373611  57.543  80.172  79.166
11326DT     BB173612  57.267  80.199  78.430
11326DT     BB273613  57.549  80.423  78.421
11326DT     BB373614  57.725  80.315  78.404
11326DT     SC173615  57.713  80.241  78.655
11326DT     SC273616  57.870  80.337  78.766
11326DT     SC373617  57.693  80.085  78.867
11327DA     BB173618  57.739  80.594  78.090
11327DA     BB273619  58.059  80.611  78.268
11327DA     BB373620  58.179  80.441  78.220
11327DA     SC173621  58.071  80.268  78.456
11327DA     SC273622  58.156  80.177  78.672
11327DA     SC373623  57.961  80.011  78.655
11327DA     SC473624  57.945  80.173  78.426
11328DT     BB173625  58.359  80.460  78.111
11328DT     BB273626  58.581  80.412  78.391
11328DT     BB373627  58.670  80.225  78.379
11328DT     SC173628  58.449  80.106  78.455
11328DT     SC273629  58.475  80.026  78.653
11328DT     SC373630  58.234  79.953  78.448
11329DG     BB173631  58.977  80.494  78.381
11329DG     BB273632  59.015  80.248  78.643
11329DG     BB373633  59.087  80.079  78.567
11329DG     SC173634  58.811  79.960  78.506
11329DG     SC273635  58.690  79.722  78.638
11329DG     SC373636  58.526  79.809  78.407
11329DG     SC473637  58.743  79.992  78.365
11330DA     BB173638  59.322  80.105  78.816
11330DA     BB273639  59.207  79.786  78.955
11330DA     BB373640  59.279  79.624  78.838
11330DA     SC173641  59.030  79.618  78.650
11330DA     SC273642  58.835  79.468  78.607
11330DA     SC373643  58.819  79.590  78.381
11330DA     SC473644  59.037  79.704  78.515
11331DG     BB173645  59.394  79.565  79.115
11331DG     BB273646  59.172  79.280  79.089
11331DG     BB373647  59.252  79.142  78.972
11331DG     SC173648  59.129  79.252  78.714
11331DG     SC273649  58.922  79.117  78.547
11331DG     SC373650  59.026  79.358  78.411
11331DG     SC473651  59.208  79.364  78.632
11332DT     BB173652  59.278  78.969  79.066
11332DT     BB273653  59.018  78.764  78.923
11332DT     BB373654  59.095  78.649  78.769
11332DT     SC173655  59.106  78.857  78.609
11332DT     SC273656  58.960  78.835  78.453
11332DT     SC373657  59.206  79.045  78.454
11333DA     BB173658  58.867  78.421  79.039
11333DA     BB273659  58.760  78.341  78.698
11333DA     BB373660  58.914  78.233  78.595
11333DA     SC173661  59.049  78.489  78.480
11333DA     SC273662  59.078  78.598  78.258
11333DA     SC373663  59.275  78.722  78.367
11333DA     SC473664  59.169  78.555  78.566
11334DA     BB173665  58.647  78.049  78.555
11334DA     BB273666  58.700  78.095  78.195
11334DA     BB373667  58.872  77.987  78.131
11334DA     SC173668  59.069  78.223  78.178
11334DA     SC273669  59.206  78.379  78.040
11334DA     SC373670  59.342  78.416  78.255
11334DA     SC473671  59.142  78.232  78.321
11335DA     BB173672  58.641  77.885  77.923
11335DA     BB273673  58.856  78.016  77.656
11335DA     BB373674  59.028  77.892  77.632
11335DA     SC173675  59.202  78.052  77.835
11335DA     SC273676  59.400  78.204  77.829
11335DA     SC373677  59.426  78.146  78.077
11335DA     SC473678  59.202  78.003  77.988
11336DG     BB173679  58.906  77.874  77.349
11336DG     BB273680  59.217  78.035  77.257
11336DG     BB373681  59.364  77.901  77.255
11336DG     SC173682  59.439  77.941  77.549
11336DG     SC273683  59.694  78.058  77.650
11336DG     SC373684  59.534  77.945  77.872
11336DG     SC473685  59.365  77.853  77.660
11337DA     BB173686  59.427  78.031  76.940
11337DA     BB273687  59.768  78.114  77.044
11337DA     BB373688  59.886  77.937  77.059
11337DA     SC173689  59.819  77.889  77.359
11337DA     SC273690  59.937  77.900  77.579
11337DA     SC373691  59.748  77.749  77.665
11337DA     SC473692  59.694  77.795  77.393
11338DA     BB173693  60.081  78.114  76.861
11338DA     BB273694  60.340  78.083  77.117
11338DA     BB373695  60.419  77.884  77.119
11338DA     SC173696  60.215  77.779  77.329
11338DA     SC273697  60.218  77.704  77.567
11338DA     SC373698  59.996  77.587  77.511
11338DA     SC473699  60.080  77.712  77.274
11339DA     BB173700  60.709  78.041  77.086
11339DA     BB273701  60.811  77.885  77.401
11339DA     BB373702  60.857  77.678  77.370
11339DA     SC173703  60.567  77.581  77.429
11339DA     SC273704  60.449  77.452  77.607
11339DA     SC373705  60.268  77.412  77.429
11339DA     SC473706  60.467  77.565  77.304
11340DT     BB173707  61.057  77.596  77.386
11340DT     BB273708  61.010  77.421  77.698
11340DT     BB373709  61.001  77.217  77.664
11340DT     SC173710  60.758  77.236  77.566
11340DT     SC273711  60.619  77.145  77.702
11340DT     SC373712  60.559  77.225  77.394
11341DA     BB173713  61.312  77.236  77.948
11341DA     BB273714  61.078  76.978  78.063
11341DA     BB373715  61.106  76.798  77.952
11341DA     SC173716  60.897  76.873  77.734
11341DA     SC273717  60.671  76.797  77.661
11341DA     SC373718  60.726  76.912  77.438
11341DA     SC473719  60.951  76.949  77.602
11342DA     BB173720  61.151  76.644  78.244
11342DA     BB273721  60.851  76.447  78.169
11342DA     BB373722  60.898  76.289  78.034
11342DA     SC173723  60.837  76.456  77.779
11342DA     SC273724  60.665  76.461  77.598
11342DA     SC373725  60.840  76.593  77.464
11342DA     SC473726  60.959  76.535  77.711
11343DA     BB173727  60.762  76.098  78.267
11343DA     BB273728  60.508  76.007  78.019
11343DA     BB373729  60.587  75.864  77.881
11343DA     SC173730  60.689  76.079  77.680
11343DA     SC273731  60.632  76.160  77.451
11343DA     SC373732  60.870  76.256  77.447
11343DA     SC473733  60.841  76.130  77.696
11344DT     BB173734  60.511  75.674  77.877
11344DT     BB273735  60.321  75.711  77.573
11344DT     BB373736  60.416  75.611  77.418
11344DT     SC173737  60.600  75.797  77.400
11344DT     SC273738  60.574  75.905  77.216
11344DT     SC373739  60.836  75.913  77.406
11345DC     BB173740  60.225  75.414  77.417
11345DC     BB273741  60.220  75.545  77.081
11345DC     BB373742  60.359  75.447  76.964
11345DC     SC173743  60.557  75.575  77.079
11345DC     SC273744  60.645  75.711  76.937
11345DC     SC373745  60.776  75.619  77.219
11346DA     BB173746  59.998  75.416  76.753
11346DA     BB273747  60.253  75.541  76.521
11346DA     BB373748  60.383  75.383  76.462
11346DA     SC173749  60.586  75.432  76.693
11346DA     SC273750  60.819  75.518  76.718
11346DA     SC373751  60.817  75.397  76.945
11346DA     SC473752  60.566  75.350  76.829
11347DG     BB173753  60.283  75.437  76.171
11347DG     BB273754  60.625  75.544  76.123
11347DG     BB373755  60.740  75.387  76.082
11347DG     SC173756  60.807  75.328  76.375
11347DG     SC273757  61.076  75.354  76.502
11347DG     SC373758  60.885  75.222  76.686
11347DG     SC473759  60.710  75.231  76.459
11348DA     BB173760  60.840  75.571  75.812
11348DA     BB273761  61.182  75.575  75.946
11348DA     BB373762  61.278  75.388  75.910
11348DA     SC173763  61.186  75.261  76.179
11348DA     SC273764  61.290  75.191  76.394
11348DA     SC373765  61.080  75.047  76.425
11348DA     SC473766  61.049  75.178  76.179
11349DA     BB173767  61.464  75.627  75.805
11349DA     BB273768  61.701  75.511  76.060
11349DA     BB373769  61.784  75.322  76.004
11349DA     SC173770  61.564  75.156  76.149
11349DA     SC273771  61.547  75.007  76.349
11349DA     SC373772  61.334  74.917  76.238
11349DA     SC473773  61.436  75.112  76.064
11350DA     BB173774  61.967  75.573  76.119
11350DA     BB273775  62.060  75.329  76.377
11350DA     BB373776  62.150  75.158  76.288
11350DA     SC173777  61.881  75.004  76.256
11350DA     SC273778  61.770  74.804  76.355
11350DA     SC373779  61.625  74.804  76.144
11350DA     SC473780  61.802  75.020  76.117
11351DA     BB173781  62.226  75.329  76.588
11351DA     BB273782  62.213  74.987  76.720
11351DA     BB373783  62.333  74.857  76.600
11351DA     SC173784  62.100  74.779  76.409
11351DA     SC273785  61.962  74.577  76.360
11351DA     SC373786  61.910  74.693  76.137
11351DA     SC473787  62.081  74.866  76.275
11352DT     BB173788  62.379  74.839  76.742
11352DT     BB273789  62.308  74.486  76.757
11352DT     BB373790  62.422  74.385  76.616
11352DT     SC173791  62.270  74.471  76.420
11352DT     SC273792  62.158  74.306  76.339
11352DT     SC373793  62.196  74.596  76.200
11353DG     BB173794  62.475  74.226  76.991
11353DG     BB273795  62.434  73.970  76.738
11353DG     BB373796  62.597  73.960  76.624
11353DG     SC173797  62.497  74.167  76.421
11353DG     SC273798  62.427  74.113  76.136
11353DG     SC373799  62.428  74.403  76.191
11353DG     SC473800  62.527  74.322  76.447
11354DG     BB173801  62.683  73.636  76.691
11354DG     BB273802  62.656  73.568  76.337
11354DG     BB373803  62.828  73.611  76.247
11354DG     SC173804  62.753  73.903  76.190
11354DG     SC273805  62.708  74.022  75.920
11354DG     SC373806  62.713  74.232  76.128
11354DG     SC473807  62.786  74.014  76.300
11355DA     BB173808  62.906  73.289  76.086
11355DA     BB273809  62.900  73.440  75.751
11355DA     BB373810  63.090  73.523  75.704
11355DA     SC173811  63.023  73.804  75.818
11355DA     SC273812  62.982  74.034  75.731
11355DA     SC373813  63.036  74.113  75.969
11355DA     SC473814  63.061  73.833  75.972
11356DT     BB173815  63.266  73.452  75.536
11356DT     BB273816  63.194  73.714  75.298
11356DT     BB373817  63.357  73.841  75.281
11356DT     SC173818  63.305  73.952  75.513
11356DT     SC273819  63.237  74.154  75.482
11356DT     SC373820  63.333  74.026  75.764
11357DT     BB173821  63.445  73.751  75.024
11357DT     BB273822  63.384  74.103  74.976
11357DT     BB373823  63.558  74.210  75.007
11357DT     SC173824  63.541  74.179  75.267
11357DT     SC273825  63.496  74.368  75.359
11357DT     SC373826  63.601  74.102  75.512
11358DA     BB173827  63.393  74.321  74.640
11358DA     BB273828  63.460  74.626  74.832
11358DA     BB373829  63.670  74.666  74.836
11358DA     SC173830  63.719  74.506  75.098
11358DA     SC273831  63.779  74.554  75.335
11358DA     SC373832  63.853  74.308  75.345
11358DA     SC473833  63.761  74.351  75.084
11359DA     BB173834  63.525  74.939  74.738
11359DA     BB273835  63.674  75.094  75.035
11359DA     BB373836  63.885  75.113  75.011
11359DA     SC173837  63.948  74.836  75.139
11359DA     SC273838  64.053  74.749  75.347
11359DA     SC373839  64.083  74.530  75.217
11359DA     SC473840  63.959  74.709  75.040
11360DT     BB173841  63.920  75.284  75.012
11360DT     BB273842  64.082  75.299  75.334
11360DT     BB373843  64.287  75.283  75.311
11360DT     SC173844  64.270  75.026  75.262
11360DT     SC273845  64.353  74.916  75.427
11360DT     SC373846  64.285  74.796  75.134
11361DA     BB173847  64.196  75.612  75.557
11361DA     BB273848  64.472  75.426  75.712
11361DA     BB373849  64.651  75.449  75.597
11361DA     SC173850  64.598  75.200  75.419
11361DA     SC273851  64.694  74.972  75.388
11361DA     SC373852  64.578  74.977  75.159
11361DA     SC473853  64.520  75.222  75.281
11362DA     BB173854  64.784  75.548  75.885
11362DA     BB273855  65.031  75.279  75.848
11362DA     BB373856  65.176  75.331  75.700
11362DA     SC173857  65.017  75.203  75.465
11362DA     SC273858  65.040  75.007  75.312
11362DA     SC373859  64.877  75.133  75.159
11362DA     SC473860  64.917  75.298  75.383
11363DT     BB173861  65.396  75.381  75.736
11363DT     BB273862  65.538  75.081  75.596
11363DT     BB373863  65.634  75.125  75.418
11363DT     SC173864  65.405  75.150  75.292
11363DT     SC273865  65.382  74.987  75.154
11363DT     SC373866  65.207  75.260  75.157
11364DG     BB173867  65.975  74.996  75.620
11364DG     BB273868  65.953  74.828  75.300
11364DG     BB373869  66.035  74.940  75.159
11364DG     SC173870  65.776  75.088  75.091
11364DG     SC273871  65.625  75.068  74.834
11364DG     SC373872  65.515  75.284  75.004
11364DG     SC473873  65.740  75.222  75.171
11365DG     BB173874  66.304  74.741  75.041
11365DG     BB273875  66.135  74.725  74.722
11365DG     BB373876  66.204  74.868  74.602
11365DG     SC173877  65.999  75.077  74.692
11365DG     SC273878  65.780  75.192  74.524
11365DG     SC373879  65.802  75.336  74.782
11365DG     SC473880  66.033  75.170  74.818
11366DT     BB173881  66.348  74.865  74.366
11366DT     BB273882  66.077  74.933  74.138
11366DT     BB373883  66.105  75.116  74.046
11366DT     SC173884  66.036  75.244  74.265
11366DT     SC273885  65.847  75.341  74.233
11366DT     SC373886  66.053  75.401  74.476
11367DG     BB173887  66.111  74.871  73.715
11367DG     BB273888  65.860  75.128  73.679
11367DG     BB373889  65.942  75.294  73.605
11367DG     SC173890  66.012  75.411  73.879
11367DG     SC273891  65.892  75.656  74.000
11367DG     SC373892  66.121  75.560  74.161
11367DG     SC473893  66.153  75.374  73.945
11368DT     BB173894  65.882  75.387  73.398
11368DT     BB273895  65.670  75.655  73.516
11368DT     BB373896  65.763  75.837  73.486
11368DT     SC173897  65.927  75.796  73.686
11368DT     SC273898  65.880  75.930  73.847
11368DT     SC373899  66.152  75.757  73.818
11369DC     BB173900  65.573  75.873  73.305
11369DC     BB273901  65.528  76.136  73.548
11369DC     BB373902  65.653  76.295  73.504
11369DC     SC173903  65.863  76.165  73.592
11369DC     SC273904  65.932  76.256  73.774
11369DC     SC373905  66.097  76.043  73.593
11370DC     BB173906  65.417  76.386  73.469
11370DC     BB273907  65.567  76.589  73.727
11370DC     BB373908  65.699  76.724  73.643
11370DC     SC173909  65.877  76.535  73.600
11370DC     SC273910  66.045  76.565  73.731
11370DC     SC373911  66.038  76.371  73.472
11371DT     BB173912  65.509  76.856  73.748
11371DT     BB273913  65.814  76.973  73.902
11371DT     BB373914  65.920  77.091  73.769
11371DT     SC173915  65.996  76.881  73.631
11371DT     SC273916  66.207  76.851  73.658
11371DT     SC373917  66.023  76.713  73.430
11372DT     BB173918  65.848  77.233  73.967
11372DT     BB273919  66.206  77.266  73.938
11372DT     BB373920  66.253  77.376  73.769
11372DT     SC173921  66.196  77.174  73.612
11372DT     SC273922  66.378  77.099  73.523
11372DT     SC373923  66.077  77.031  73.426
11373DC     BB173924  66.325  77.543  73.953
11373DC     BB273925  66.613  77.505  73.739
11373DC     BB373926  66.587  77.615  73.565
11373DC     SC173927  66.415  77.440  73.471
11373DC     SC273928  66.503  77.336  73.304
11373DC     SC373929  66.189  77.337  73.383
11374DT     BB173930  66.770  77.786  73.657
11374DT     BB273931  66.888  77.698  73.328
11374DT     BB373932  66.794  77.815  73.186
11374DT     SC173933  66.570  77.680  73.210
11374DT     SC273934  66.536  77.565  73.031
11374DT     SC373935  66.318  77.625  73.263
11375DA     BB173936  67.202  77.877  73.098
11375DA     BB273937  67.032  77.814  72.779
11375DA     BB373938  66.919  77.985  72.720
11375DA     SC173939  66.658  77.894  72.864
11375DA     SC273940  66.431  77.813  72.800
11375DA     SC373941  66.362  77.882  73.037
11375DA     SC473942  66.635  77.944  73.014
11376DA     BB173943  67.083  77.998  72.424
11376DA     BB273944  66.762  77.950  72.254
11376DA     BB373945  66.656  78.135  72.242
11376DA     SC173946  66.506  78.095  72.512
11376DA     SC273947  66.273  78.051  72.588
11376DA     SC373948  66.352  78.141  72.815
11376DA     SC473949  66.574  78.156  72.644
11377DA     BB173950  66.633  78.115  71.903
11377DA     BB273951  66.268  78.104  71.939
11377DA     BB373952  66.189  78.301  71.959
11377DA     SC173953  66.207  78.302  72.270
11377DA     SC273954  66.051  78.298  72.464
11377DA     SC373955  66.248  78.391  72.599
11377DA     SC473956  66.342  78.361  72.336
11378DT     BB173957  66.053  78.428  71.804
11378DT     BB273958  65.744  78.387  71.986
11378DT     BB373959  65.682  78.570  72.062
11378DT     SC173960  65.866  78.564  72.249
11378DT     SC273961  65.772  78.536  72.441
11378DT     SC373962  66.078  78.632  72.391
11379DG     BB173963  65.361  78.485  71.816
11379DG     BB273964  65.249  78.550  72.154
11379DG     BB373965  65.228  78.746  72.182
11379DG     SC173966  65.516  78.788  72.277
11379DG     SC273967  65.600  78.868  72.553
11379DG     SC373968  65.830  78.873  72.367
11379DG     SC473969  65.630  78.818  72.169
11380DG     BB173970  64.902  78.726  72.255
11380DG     BB273971  64.994  78.831  72.588
11380DG     BB373972  64.991  79.030  72.600
11380DG     SC173973  65.283  79.064  72.516
11380DG     SC273974  65.504  79.166  72.689
11380DG     SC373975  65.594  79.139  72.408
11380DG     SC473976  65.318  79.076  72.360
11381DC     BB173977  64.850  79.141  72.741
11381DC     BB273978  65.082  79.222  73.005
11381DC     BB373979  65.125  79.425  73.002
11381DC     SC173980  65.278  79.397  72.790
11381DC     SC273981  65.483  79.430  72.846
11381DC     SC373982  65.367  79.423  72.543
11382DT     BB173983  64.987  79.434  73.229
11382DT     BB273984  65.318  79.549  73.313
11382DT     BB373985  65.335  79.751  73.274
11382DT     SC173986  65.348  79.709  73.016
11382DT     SC273987  65.546  79.754  72.946
11382DT     SC373988  65.284  79.714  72.760
11383DT     BB173989  65.350  79.754  73.534
11383DT     BB273990  65.655  79.908  73.418
11383DT     BB373991  65.619  80.106  73.368
11383DT     SC173992  65.496  80.037  73.147
11383DT     SC273993  65.617  80.093  72.978
11383DT     SC373994  65.304  80.008  72.969
11384DT     BB173995  65.769  80.140  73.578
11384DT     BB273996  65.933  80.322  73.313
11384DT     BB373997  65.840  80.505  73.286
11384DT     SC173998  65.635  80.393  73.167
11384DT     SC273999  65.636  80.445  72.958
11384DT     SC374000  65.388  80.314  73.120
11385DT     BB174001  66.057  80.618  73.395
11385DT     BB274002  66.017  80.791  73.082
11385DT     BB374003  65.882  80.946  73.104
11385DT     SC174004  65.679  80.780  73.110
11385DT     SC274005  65.563  80.803  72.930
11385DT     SC374006  65.468  80.649  73.199
11386DA     BB174007  66.217  81.145  72.943
11386DA     BB274008  65.925  81.266  72.758
11386DA     BB374009  65.816  81.407  72.876
11386DA     SC174010  65.631  81.192  73.004
11386DA     SC274011  65.391  81.124  72.993
11386DA     SC374012  65.434  81.009  73.218
11386DA     SC474013  65.677  81.128  73.144
11387DT     BB174014  65.790  81.652  72.851
11387DT     BB274015  65.448  81.647  72.737
11387DT     BB374016  65.325  81.735  72.878
11387DT     SC174017  65.341  81.526  73.035
11387DT     SC274018  65.151  81.425  73.040
11387DT     SC374019  65.397  81.377  73.245
11388DT     BB174020  65.270  82.007  72.759
11388DT     BB274021  64.938  81.875  72.813
11388DT     BB374022  64.863  81.947  72.992
11388DT     SC174023  65.017  81.786  73.131
11388DT     SC274024  64.896  81.635  73.225
11388DT     SC374025  65.204  81.705  73.298
11389DC     BB174026  64.671  82.147  72.890
11389DC     BB274027  64.466  81.927  73.089
11389DC     BB374028  64.442  82.005  73.279
11389DC     SC174029  64.686  81.939  73.346
11389DC     SC274030  64.680  81.780  73.491
11389DC     SC374031  64.939  81.962  73.420
11390DA     BB174032  64.062  81.922  73.131
11390DA     BB274033  64.090  81.764  73.460
11390DA     BB374034  64.073  81.910  73.615
11390DA     SC174035  64.379  81.966  73.629
11390DA     SC274036  64.567  81.926  73.788
11390DA     SC374037  64.688  82.113  73.661
11390DA     SC474038  64.437  82.085  73.538
11391DT     BB174039  63.920  81.884  73.722
11391DT     BB274040  64.091  81.751  74.011
11391DT     BB374041  64.106  81.897  74.157
11391DT     SC174042  64.294  82.022  74.025
11391DT     SC274043  64.481  82.002  74.131
11391DT     SC374044  64.420  82.212  73.892
11392DT     BB174045  63.946  81.726  74.265
11392DT     BB274046  64.226  81.757  74.490
11392DT     BB374047  64.210  81.931  74.599
11392DT     SC174048  64.280  82.077  74.393
11392DT     SC274049  64.475  82.160  74.427
11392DT     SC374050  64.266  82.254  74.198
11393DC     BB174051  64.172  81.758  74.788
11393DC     BB274052  64.449  81.961  74.897
11393DC     BB374053  64.380  82.140  74.974
11393DC     SC174054  64.327  82.232  74.734
11393DC     SC274055  64.465  82.390  74.685
11393DC     SC374056  64.190  82.322  74.527
11394DA     BB174057  64.656  81.962  75.236
11394DA     BB274058  64.740  82.317  75.205
11394DA     BB374059  64.591  82.437  75.300
11394DA     SC174060  64.417  82.468  75.044
11394DA     SC274061  64.356  82.648  74.883
11394DA     SC374062  64.157  82.498  74.821
11394DA     SC474063  64.300  82.361  75.021
11395DT     BB174064  64.650  82.535  75.456
11395DT     BB274065  64.643  82.867  75.315
11395DT     BB374066  64.471  82.966  75.375
11395DT     SC174067  64.322  82.825  75.211
11395DT     SC274068  64.251  82.952  75.052
11395DT     SC374069  64.138  82.657  75.125
11396DA     BB174070  64.785  83.227  75.474
11396DA     BB274071  64.525  83.426  75.309
11396DA     BB374072  64.359  83.455  75.441
11396DA     SC174073  64.208  83.201  75.345
11396DA     SC274074  64.002  83.146  75.216
11396DA     SC374075  64.017  82.916  75.328
11396DA     SC474076  64.234  83.064  75.426
11397DA     BB174077  64.393  83.786  75.395
11397DA     BB274078  64.052  83.793  75.263
11397DA     BB374079  63.910  83.788  75.423
11397DA     SC174080  63.889  83.478  75.427
11397DA     SC274081  63.721  83.303  75.370
11397DA     SC374082  63.858  83.149  75.523
11397DA     SC474083  63.987  83.398  75.527
11398DT     BB174084  63.765  83.961  75.496
11398DT     BB274085  63.459  83.819  75.368
11398DT     BB374086  63.338  83.759  75.525
11398DT     SC174087  63.488  83.550  75.572
11398DT     SC274088  63.381  83.371  75.518
11398DT     SC374089  63.651  83.384  75.697
11399DA     BB174090  63.060  84.022  75.339
11399DA     BB274091  62.880  83.708  75.398
11399DA     BB374092  62.814  83.697  75.600
11399DA     SC174093  63.071  83.555  75.702
11399DA     SC274094  63.136  83.329  75.787
11399DA     SC374095  63.340  83.449  75.888
11399DA     SC474096  63.190  83.647  75.758
11400DT     BB174097  62.579  83.707  75.703
11400DT     BB274098  62.557  83.353  75.769
11400DT     BB374099  62.547  83.319  75.973
11400DT     SC174100  62.802  83.372  76.002
11400DT     SC274101  62.907  83.191  76.052
11400DT     SC374102  63.023  83.493  76.081
11401DT     BB174103  62.259  83.252  76.007
11401DT     BB274104  62.430  82.961  76.135
11401DT     BB374105  62.447  82.973  76.341
11401DT     SC174106  62.637  83.154  76.322
11401DT     SC274107  62.823  83.068  76.385
11401DT     SC374108  62.764  83.384  76.345
11402DT     BB174109  62.256  82.775  76.387
11402DT     BB274110  62.559  82.647  76.536
11402DT     BB374111  62.569  82.705  76.735
11402DT     SC174112  62.632  82.951  76.668
11402DT     SC274113  62.836  82.990  76.723
11402DT     SC374114  62.615  83.213  76.643
11403DT     BB174115  62.529  82.448  76.787
11403DT     BB274116  62.849  82.528  76.934
11403DT     BB374117  62.822  82.609  77.122
11403DT     SC174118  62.742  82.837  77.020
11403DT     SC274119  62.891  82.988  77.057
11403DT     SC374120  62.586  83.042  76.961
11404DT     BB174121  62.933  82.384  77.189
11404DT     BB274122  63.148  82.641  77.321
11404DT     BB374123  63.070  82.714  77.498
11404DT     SC174124  62.884  82.848  77.370
11404DT     SC274125  62.924  83.059  77.387
11404DT     SC374126  62.646  82.926  77.289
11405DA     BB174127  63.479  82.620  77.525
11405DA     BB274128  63.425  82.951  77.674
11405DA     BB374129  63.314  82.933  77.856
11405DA     SC174130  63.037  82.962  77.719
11405DA     SC274131  62.852  83.130  77.709
11405DA     SC374132  62.706  82.934  77.631
11405DA     SC474133  62.962  82.827  77.673
11406DT     BB174134  63.414  82.985  78.004
11406DT     BB274135  63.239  83.292  78.077
11406DT     BB374136  63.101  83.260  78.229
11406DT     SC174137  62.939  83.134  78.066
11406DT     SC274138  62.764  83.254  78.032
11406DT     SC374139  62.796  82.939  77.960
11407DT     BB174140  63.257  83.397  78.408
11407DT     BB274141  62.937  83.562  78.428
11407DT     BB374142  62.816  83.466  78.566
11407DT     SC174143  62.773  83.266  78.401
11407DT     SC274144  62.568  83.271  78.336
11407DT     SC374145  62.773  83.022  78.302
11408DA     BB174146  62.810  83.864  78.704
11408DA     BB274147  62.462  83.747  78.696
11408DA     BB374148  62.424  83.619  78.863
11408DA     SC174149  62.501  83.359  78.711
11408DA     SC274150  62.387  83.156  78.622
11408DA     SC374151  62.619  83.048  78.626
11408DA     SC474152  62.654  83.309  78.723
11409DG     BB174153  62.203  83.822  78.975
11409DG     BB274154  61.975  83.550  78.905
11409DG     BB374155  61.965  83.428  79.063
11409DG     SC174156  62.195  83.249  78.971
11409DG     SC274157  62.172  82.963  78.886
11409DG     SC374158  62.456  83.043  78.911
11409DG     SC474159  62.345  83.287  79.014
11410DT     BB174160  61.769  83.387  79.197
11410DT     BB274161  61.675  83.061  79.073
11410DT     BB374162  61.712  82.917  79.217
11410DT     SC174163  61.971  82.928  79.173
11410DT     SC274164  62.035  82.746  79.079
11410DT     SC374165  62.228  82.968  79.214
11411DT     BB174166  61.444  82.887  79.266
11411DT     BB274167  61.557  82.558  79.169
11411DT     BB374168  61.621  82.453  79.336
11411DT     SC174169  61.842  82.594  79.349
11411DT     SC274170  62.009  82.468  79.297
11411DT     SC374171  62.026  82.759  79.440
11412DT     BB174172  61.404  82.304  79.302
11412DT     BB274173  61.681  82.073  79.286
11412DT     BB374174  61.736  82.016  79.477
11412DT     SC174175  61.851  82.248  79.521
11412DT     SC274176  62.064  82.222  79.531
11412DT     SC374177  61.900  82.484  79.629
11413DA     BB174178  61.688  81.683  79.227
11413DA     BB274179  62.008  81.651  79.402
11413DA     BB374180  61.976  81.609  79.609
11413DA     SC174181  61.973  81.908  79.694
11413DA     SC274182  62.118  82.065  79.823
11413DA     SC374183  61.907  82.208  79.847
11413DA     SC474184  61.831  81.982  79.699
11414DT     BB174185  62.039  81.439  79.660
11414DT     BB274186  62.326  81.550  79.848
11414DT     BB374187  62.284  81.546  80.051
11414DT     SC174188  62.135  81.762  80.031
11414DT     SC274189  62.234  81.926  80.130
11414DT     SC374190  61.923  81.919  80.038
11415DT     BB174191  62.448  81.336  80.070
11415DT     BB274192  62.579  81.576  80.305
11415DT     BB374193  62.480  81.560  80.486
11415DT     SC174194  62.267  81.678  80.388
11415DT     SC274195  62.245  81.872  80.478
11415DT     SC374196  62.018  81.715  80.309
11416DA     BB174197  62.891  81.543  80.568
11416DA     BB274198  62.739  81.781  80.802
11416DA     BB374199  62.625  81.678  80.950
11416DA     SC174200  62.360  81.687  80.787
11416DA     SC274201  62.139  81.801  80.801
11416DA     SC374202  62.056  81.615  80.646
11416DA     SC474203  62.327  81.562  80.692
11417DT     BB174204  62.688  81.683  81.143
11417DT     BB274205  62.434  81.907  81.268
11417DT     BB374206  62.294  81.800  81.378
11417DT     SC174207  62.187  81.701  81.159
11417DT     SC274208  61.992  81.787  81.131
11417DT     SC374209  62.110  81.526  80.979
11418DA     BB174210  62.420  82.113  81.627
11418DA     BB274211  62.054  82.107  81.633
11418DA     BB374212  61.984  81.943  81.750
11418DA     SC174213  61.971  81.746  81.509
11418DA     SC274214  61.796  81.631  81.374
11418DA     SC374215  61.983  81.469  81.306
11418DA     SC474216  62.101  81.656  81.480
11419DA     BB174217  61.816  82.177  81.910
11419DA     BB274218  61.509  82.003  81.811
11419DA     BB374219  61.480  81.829  81.931
11419DA     SC174220  61.636  81.640  81.739
11419DA     SC274221  61.584  81.452  81.584
11419DA     SC374222  61.833  81.393  81.606
11419DA     SC474223  61.793  81.619  81.767
11420DT     BB174224  61.320  81.816  82.068
11420DT     BB274225  61.120  81.583  81.879
11420DT     BB374226  61.126  81.396  81.969
11420DT     SC174227  61.369  81.353  81.882
11420DT     SC274228  61.366  81.200  81.731
11420DT     SC374229  61.630  81.310  81.883
11421DC     BB174230  60.865  81.413  82.069
11421DC     BB274231  60.862  81.109  81.876
11421DC     BB374232  60.916  80.948  81.996
11421DC     SC174233  61.168  81.021  81.993
11421DC     SC274234  61.282  80.879  81.879
11421DC     SC374235  61.404  81.103  82.080
11422DC     BB174236  60.657  80.850  82.006
11422DC     BB274237  60.852  80.575  81.875
11422DC     BB374238  60.923  80.459  82.031
11422DC     SC174239  61.104  80.640  82.092
11422DC     SC274240  61.300  80.564  82.044
11422DC     SC374241  61.236  80.822  82.230
11423DG     BB174242  60.702  80.210  81.797
11423DG     BB274243  61.035  80.078  81.852
11423DG     BB374244  61.045  79.994  82.032
11423DG     SC174245  61.131  80.250  82.175
11423DG     SC274246  61.396  80.299  82.303
11423DG     SC374247  61.207  80.517  82.367
11423DG     SC474248  61.019  80.350  82.231
11424DG     BB174249  61.134  79.722  81.876
11424DG     BB274250  61.446  79.751  82.057
11424DG     BB374251  61.425  79.677  82.241
11424DG     SC174252  61.338  79.943  82.364
11424DG     SC274253  61.492  80.103  82.564
11424DG     SC374254  61.220  80.213  82.528
11424DG     SC474255  61.182  79.981  82.364
11425DA     BB174256  61.709  79.501  82.157
11425DA     BB274257  61.883  79.647  82.445
11425DA     BB374258  61.812  79.559  82.626
11425DA     SC174259  61.588  79.771  82.669
11425DA     SC274260  61.540  79.959  82.826
11425DA     SC374261  61.296  79.932  82.749
11425DA     SC474262  61.443  79.738  82.610
11426DA     BB174263  62.136  79.516  82.660
11426DA     BB274264  62.111  79.712  82.969
11426DA     BB374265  62.015  79.597  83.121
11426DA     SC174266  61.729  79.695  83.050
11426DA     SC274267  61.553  79.841  83.150
11426DA     SC374268  61.391  79.718  82.993
11426DA     SC474269  61.643  79.607  82.946
11427DG     BB174270  62.281  79.630  83.287
11427DG     BB274271  62.067  79.804  83.521
11427DG     BB374272  61.973  79.672  83.637
11427DG     SC174273  61.732  79.641  83.451
11427DG     SC274274  61.453  79.727  83.511
11427DG     SC374275  61.463  79.567  83.262
11427DG     SC474276  61.737  79.530  83.336
11428DT     BB174277  61.997  79.635  83.883
11428DT     BB274278  61.688  79.775  84.006
11428DT     BB374279  61.563  79.624  84.071
11428DT     SC174280  61.506  79.555  83.824
11428DT     SC274281  61.302  79.605  83.781
11428DT     SC374282  61.490  79.410  83.604
11429DG     BB174283  61.603  79.808  84.443
11429DG     BB274284  61.253  79.762  84.366
11429DG     BB374285  61.194  79.581  84.422
11429DG     SC174286  61.262  79.449  84.155
11429DG     SC274287  61.067  79.333  83.961
11429DG     SC374288  61.344  79.268  83.882
11429DG     SC474289  61.410  79.391  84.132
11430DC     BB174290  61.017  79.484  84.617
11430DC     BB274291  60.740  79.407  84.400
11430DC     BB374292  60.705  79.203  84.399
11430DC     SC174293  60.916  79.161  84.248
11430DC     SC274294  60.852  79.098  84.052
11430DC     SC374295  61.152  79.073  84.171
11431DT     BB174296  60.461  79.187  84.565
11431DT     BB274297  60.361  79.047  84.248
11431DT     BB374298  60.374  78.840  84.255
11431DT     SC174299  60.636  78.849  84.239
11431DT     SC274300  60.698  78.773  84.047
11431DT     SC374301  60.889  78.820  84.305
11432DA     BB174302  59.993  78.942  84.123
11432DA     BB274303  60.140  78.713  83.877
11432DA     BB374304  60.136  78.513  83.951
11432DA     SC174305  60.416  78.530  84.084
11432DA     SC274306  60.644  78.435  84.049
11432DA     SC374307  60.686  78.496  84.294
11432DA     SC474308  60.422  78.575  84.239
11433DC     BB174309  60.029  78.409  83.843
11433DC     BB274310  60.298  78.239  83.673
11433DC     BB374311  60.322  78.049  83.752
11433DC     SC174312  60.436  78.145  83.968
11433DC     SC274313  60.645  78.092  83.968
11433DC     SC374314  60.477  78.204  84.221
11434DA     BB174315  60.316  78.076  83.332
11434DA     BB274316  60.603  77.872  83.434
11434DA     BB374317  60.537  77.687  83.517
11434DA     SC174318  60.525  77.795  83.809
11434DA     SC274319  60.649  77.762  84.023
11434DA     SC374320  60.439  77.858  84.136
11434DA     SC474321  60.385  77.855  83.861
11435DT     BB174322  60.600  77.569  83.411
11435DT     BB274323  60.850  77.433  83.632
11435DT     BB374324  60.773  77.270  83.734
11435DT     SC174325  60.631  77.425  83.890
11435DT     SC274326  60.711  77.418  84.090
11435DT     SC374327  60.421  77.536  84.005
11436DA     BB174328  61.149  77.182  83.567
11436DA     BB274329  61.143  77.055  83.910
11436DA     BB374330  61.011  76.888  83.925
11436DA     SC174331  60.762  77.060  83.998
11436DA     SC274332  60.617  77.099  84.196
11436DA     SC374333  60.444  77.187  84.027
11436DA     SC474334  60.668  77.109  83.877
11437DA     BB174335  61.281  76.752  84.058
11437DA     BB274336  61.079  76.682  84.356
11437DA     BB374337  60.943  76.522  84.318
11437DA     SC174338  60.714  76.709  84.221
11437DA     SC274339  60.490  76.784  84.302
11437DA     SC374340  60.444  76.846  84.058
11437DA     SC474341  60.704  76.740  84.064
11438DA     BB174342  61.072  76.367  84.584
11438DA     BB274343  60.737  76.360  84.732
11438DA     BB374344  60.620  76.205  84.644
11438DA     SC174345  60.504  76.386  84.419
11438DA     SC274346  60.285  76.486  84.357
11438DA     SC374347  60.384  76.508  84.122
11438DA     SC474348  60.583  76.390  84.279
11439DG     BB174349  60.582  76.036  84.921
11439DG     BB274350  60.229  76.104  84.876
11439DG     BB374351  60.146  75.959  84.768
11439DG     SC174352  60.199  76.095  84.499
11439DG     SC274353  59.991  76.204  84.314
11439DG     SC374354  60.258  76.206  84.187
11439DG     SC474355  60.337  76.067  84.424
11440DT     BB174356  59.962  75.763  84.825
11440DT     BB274357  59.673  75.899  84.658
11440DT     BB374358  59.621  75.779  84.497
11440DT     SC174359  59.823  75.869  84.355
11440DT     SC274360  59.748  75.991  84.194
11440DT     SC374361  60.049  75.873  84.219
11441DA     BB174362  59.245  75.748  84.695
11441DA     BB274363  59.168  75.840  84.349
11441DA     BB374364  59.167  75.666  84.225
11441DA     SC174365  59.468  75.687  84.151
11441DA     SC274366  59.605  75.740  83.949
11441DA     SC374367  59.795  75.619  84.072
11441DA     SC474368  59.573  75.607  84.242
11442DT     BB174369  58.980  75.566  84.116
11442DT     BB274370  59.061  75.695  83.788
11442DT     BB374371  59.112  75.539  83.662
11442DT     SC174372  59.346  75.511  83.777
11442DT     SC274373  59.500  75.574  83.642
11442DT     SC374374  59.544  75.403  83.913
11443DT     BB174375  58.873  75.550  83.514
11443DT     BB274376  59.132  75.604  83.269
11443DT     BB374377  59.190  75.423  83.186
11443DT     SC174378  59.322  75.357  83.404
11443DT     SC274379  59.533  75.360  83.362
11443DT     SC374380  59.392  75.227  83.622
11444DA     BB174381  59.101  75.687  82.875
11444DA     BB274382  59.432  75.544  82.811
11444DA     BB374383  59.415  75.342  82.746
11444DA     SC174384  59.432  75.222  83.032
11444DA     SC274385  59.594  75.089  83.167
11444DA     SC374386  59.392  75.031  83.314
11444DA     SC474387  59.294  75.197  83.111
11445DT     BB174388  59.475  75.311  82.565
11445DT     BB274389  59.785  75.149  82.651
11445DT     BB374390  59.767  74.944  82.625
11445DT     SC174391  59.622  74.921  82.843
11445DT     SC274392  59.736  74.818  82.993
11445DT     SC374393  59.417  74.871  83.000
11446DC     BB174394  59.931  74.975  82.418
11446DC     BB274395  60.097  74.740  82.635
11446DC     BB374396  60.027  74.549  82.599
11446DC     SC174397  59.802  74.600  82.724
11446DC     SC274398  59.795  74.489  82.908
11446DC     SC374399  59.544  74.636  82.765
11447DC     BB174400  60.266  74.499  82.491
11447DC     BB274401  60.230  74.255  82.754
11447DC     BB374402  60.124  74.091  82.684
11447DC     SC174403  59.898  74.224  82.692
11447DC     SC274404  59.773  74.145  82.848
11447DC     SC374405  59.676  74.342  82.610
11448DG     BB174406  60.483  73.972  82.833
11448DG     BB274407  60.210  73.786  82.978
11448DG     BB374408  60.143  73.651  82.848
11448DG     SC174409  59.937  73.839  82.721
11448DG     SC274410  59.641  73.810  82.736
11448DG     SC374411  59.716  74.023  82.545
11448DG     SC474412  59.982  73.931  82.598
11449DA     BB174413  60.181  73.445  83.120
11449DA     BB274414  59.826  73.356  83.099
11449DA     BB374415  59.791  73.229  82.931
11449DA     SC174416  59.732  73.464  82.735
11449DA     SC274417  59.536  73.557  82.613
11449DA     SC374418  59.709  73.668  82.460
11449DA     SC474419  59.855  73.523  82.651
11450DT     BB174420  59.735  73.064  82.984
11450DT     BB274421  59.391  73.094  82.879
11450DT     BB374422  59.365  73.002  82.696
11450DT     SC174423  59.485  73.199  82.571
11450DT     SC274424  59.341  73.308  82.454
11450DT     SC374425  59.663  73.329  82.427
11451DA     BB174426  59.071  72.871  82.966
11451DA     BB274427  58.907  72.954  82.648
11451DA     BB374428  58.957  72.810  82.499
11451DA     SC174429  59.206  72.967  82.397
11451DA     SC274430  59.273  73.094  82.194
11451DA     SC374431  59.514  73.056  82.274
11451DA     SC474432  59.348  72.931  82.463
11452DC     BB174433  58.811  72.698  82.435
11452DC     BB274434  58.779  72.844  82.106
11452DC     BB374435  58.870  72.722  81.966
11452DC     SC174436  59.109  72.798  82.044
11452DC     SC274437  59.199  72.919  81.890
11452DC     SC374438  59.353  72.786  82.143
11453DA     BB174439  58.481  72.778  81.817
11453DA     BB274440  58.715  72.839  81.541
11453DA     BB374441  58.794  72.655  81.468
11453DA     SC174442  59.039  72.657  81.660
11453DA     SC274443  59.286  72.686  81.643
11453DA     SC374444  59.295  72.570  81.872
11453DA     SC474445  59.023  72.582  81.801
11454DG     BB174446  58.663  72.717  81.187
11454DG     BB274447  59.007  72.730  81.076
11454DG     BB374448  59.070  72.547  81.030
11454DG     SC174449  59.171  72.484  81.313
11454DG     SC274450  59.456  72.444  81.392
11454DG     SC374451  59.274  72.374  81.614
11454DG     SC474452  59.070  72.419  81.419
11455DC     BB174453  59.135  72.484  80.819
11455DC     BB274454  59.494  72.475  80.857
11455DC     BB374455  59.560  72.279  80.863
11455DC     SC174456  59.470  72.248  81.107
11455DC     SC274457  59.637  72.230  81.242
11455DC     SC374458  59.328  72.156  81.310
11456DT     BB174459  59.666  72.314  80.618
11456DT     BB274460  59.944  72.213  80.825
11456DT     BB374461  59.954  72.007  80.833
11456DT     SC174462  59.749  71.995  80.996
11456DT     SC274463  59.815  71.933  81.191
11456DT     SC374464  59.508  71.939  81.087
11457DT     BB174465  60.173  72.034  80.687
11457DT     BB274466  60.279  71.855  80.981
11457DT     BB374467  60.239  71.653  80.959
11457DT     SC174468  59.983  71.691  80.999
11457DT     SC274469  59.927  71.606  81.188
11457DT     SC374470  59.723  71.698  80.953
11458DT     BB174471  60.502  71.626  80.940
11458DT     BB274472  60.405  71.405  81.209
11458DT     BB374473  60.337  71.225  81.132
11458DT     SC174474  60.111  71.334  81.056
11458DT     SC274475  59.951  71.257  81.177
11458DT     SC374476  59.917  71.419  80.898
11459DT     BB174477  60.565  71.102  81.215
11459DT     BB274478  60.301  70.903  81.358
11459DT     BB374479  60.238  70.760  81.222
11459DT     SC174480  60.110  70.940  81.081
11459DT     SC274481  59.898  70.909  81.100
11459DT     SC374482  60.043  71.095  80.878
11460DG     BB174483  60.368  70.514  81.527
11460DG     BB274484  60.036  70.416  81.420
11460DG     BB374485  60.048  70.302  81.258
11460DG     SC174486  60.034  70.537  81.062
11460DG     SC274487  59.811  70.595  80.873
11460DG     SC374488  60.042  70.772  80.820
11460DG     SC474489  60.170  70.610  81.018
11461DT     BB174490  59.996  70.033  81.201
11461DT     BB274491  59.687  70.069  81.019
11461DT     BB374492  59.714  70.014  80.821
11461DT     SC174493  59.843  70.236  80.769
11461DT     SC274494  59.723  70.360  80.641
11461DT     SC374495  60.039  70.400  80.701
11462DA     BB174496  59.402  69.738  80.906
11462DA     BB274497  59.301  69.919  80.603
11462DA     BB374498  59.396  69.835  80.432
11462DA     SC174499  59.644  70.022  80.447
11462DA     SC274500  59.740  70.212  80.316
11462DA     SC374501  59.961  70.154  80.434
11462DA     SC474502  59.772  69.970  80.529
11463DT     BB174503  59.291  69.722  80.260
11463DT     BB274504  59.303  69.999  80.029
11463DT     BB374505  59.430  69.954  79.872
11463DT     SC174506  59.642  69.990  80.023
11463DT     SC274507  59.746  70.167  79.959
11463DT     SC374508  59.864  69.938  80.155
11464DG     BB174509  59.065  70.038  79.715
11464DG     BB274510  59.322  70.249  79.573
11464DG     BB374511  59.423  70.148  79.435
11464DG     SC174512  59.631  70.039  79.631
11464DG     SC274513  59.921  70.109  79.636
11464DG     SC374514  59.864  69.886  79.822
11464DG     SC474515  59.602  69.901  79.707
11465DT     BB174516  59.418  70.225  79.241
11465DT     BB274517  59.747  70.371  79.213
11465DT     BB374518  59.871  70.245  79.104
11465DT     SC174519  59.893  70.079  79.306
11465DT     SC274520  60.093  70.088  79.384
11465DT     SC374521  59.874  69.858  79.449
11466DG     BB174522  59.858  70.619  78.943
11466DG     BB274523  60.197  70.508  79.002
11466DG     BB374524  60.250  70.374  78.865
11466DG     SC174525  60.150  70.134  79.027
11466DG     SC274526  60.321  69.919  79.144
11466DG     SC374527  60.035  69.850  79.168
11466DG     SC474528  59.998  70.087  79.011
11467DC     BB174529  60.411  70.421  78.738
11467DC     BB274530  60.672  70.206  78.865
11467DC     BB374531  60.691  70.039  78.744
11467DC     SC174532  60.471  69.934  78.842
11467DC     SC274533  60.521  69.763  78.961
11467DC     SC374534  60.225  69.840  78.853
11468DT     BB174535  60.924  70.138  78.652
11468DT     BB274536  61.008  69.812  78.781
11468DT     BB374537  60.973  69.668  78.637
11468DT     SC174538  60.714  69.684  78.671
11468DT     SC274539  60.643  69.503  78.764
11468DT     SC374540  60.459  69.728  78.620
11469DG     BB174541  61.369  69.634  78.731
11469DG     BB274542  61.201  69.315  78.756
11469DG     BB374543  61.178  69.236  78.574
11469DG     SC174544  60.906  69.367  78.524
11469DG     SC274545  60.645  69.225  78.499
11469DG     SC374546  60.617  69.511  78.427
11469DG     SC474547  60.902  69.513  78.458
11470DG     BB174548  61.349  68.970  78.669
11470DG     BB274549  61.045  68.783  78.611
11470DG     BB374550  61.031  68.734  78.419
11470DG     SC174551  60.881  68.989  78.339
11470DG     SC274552  60.598  69.003  78.244
11470DG     SC374553  60.733  69.265  78.214
11470DG     SC474554  60.964  69.119  78.297
11471DA     BB174555  60.981  68.413  78.534
11471DA     BB274556  60.653  68.406  78.371
11471DA     BB374557  60.674  68.379  78.161
11471DA     SC174558  60.686  68.683  78.097
11471DA     SC274559  60.542  68.854  77.986
11471DA     SC374560  60.758  68.991  77.964
11471DA     SC474561  60.831  68.752  78.092
11472DT     BB174562  60.600  68.222  78.112
11472DT     BB274563  60.307  68.360  77.952
11472DT     BB374564  60.337  68.372  77.748
11472DT     SC174565  60.497  68.578  77.774
11472DT     SC274566  60.401  68.753  77.696
11472DT     SC374567  60.716  68.725  77.766
11473DC     BB174568  60.157  68.179  77.738
11473DC     BB274569  60.024  68.446  77.535
11473DC     BB374570  60.108  68.440  77.346
11473DC     SC174571  60.335  68.538  77.436
11473DC     SC274572  60.360  68.738  77.361
11473DC     SC374573  60.590  68.555  77.498
11474DT     BB174574  59.871  68.359  77.260
11474DT     BB274575  59.943  68.656  77.068
11474DT     BB374576  60.064  68.608  76.907
11474DT     SC174577  60.274  68.581  77.062
11474DT     SC274578  60.412  68.742  77.023
11474DT     SC374579  60.478  68.469  77.186
11475DT     BB174580  59.852  68.651  76.748
11475DT     BB274581  60.108  68.873  76.625
11475DT     BB374582  60.233  68.772  76.494
11475DT     SC174583  60.350  68.646  76.693
11475DT     SC274584  60.552  68.718  76.713
11475DT     SC374585  60.432  68.449  76.848
11476DC     BB174586  60.125  68.908  76.288
11476DC     BB274587  60.478  68.978  76.269
11476DC     BB374588  60.575  68.829  76.163
11476DC     SC174589  60.555  68.662  76.364
11476DC     SC274590  60.750  68.627  76.447
11476DC     SC374591  60.485  68.450  76.505
11477DA     BB174592  60.685  69.199  75.998
11477DA     BB274593  60.991  69.005  76.061
11477DA     BB374594  61.008  68.846  75.920
11477DA     SC174595  60.856  68.640  76.097
11477DA     SC274596  60.908  68.434  76.226
11477DA     SC374597  60.657  68.385  76.212
11477DA     SC474598  60.697  68.627  76.075
11478DT     BB174599  61.156  68.862  75.803
11478DT     BB274600  61.358  68.604  75.956
11478DT     BB374601  61.347  68.430  75.844
11478DT     SC174602  61.105  68.380  75.932
11478DT     SC274603  61.110  68.209  76.063
11478DT     SC374604  60.844  68.340  75.932
11479DC     BB174605  61.598  68.483  75.782
11479DC     BB274606  61.603  68.155  75.934
11479DC     BB374607  61.552  68.012  75.794
11479DC     SC174608  61.299  68.081  75.805
11479DC     SC274609  61.186  67.924  75.899
11479DC     SC374610  61.063  68.171  75.729
11480DT     BB174611  61.804  67.942  75.814
11480DT     BB274612  61.616  67.645  75.895
11480DT     BB374613  61.553  67.551  75.721
11480DT     SC174614  61.368  67.733  75.680
11480DT     SC274615  61.174  67.645  75.710
11480DT     SC374616  61.234  67.929  75.566
11481DA     BB174617  61.740  67.270  75.972
11481DA     BB274618  61.424  67.127  75.853
11481DA     BB374619  61.437  67.079  75.645
11481DA     SC174620  61.334  67.357  75.550
11481DA     SC274621  61.130  67.450  75.441
11481DA     SC374622  61.279  67.649  75.379
11481DA     SC474623  61.443  67.471  75.520
11482DT     BB174624  61.428  66.892  75.601
11482DT     BB274625  61.097  66.894  75.457
11482DT     BB374626  61.110  66.895  75.250
11482DT     SC174627  61.180  67.148  75.248
11482DT     SC274628  61.020  67.266  75.165
11482DT     SC374629  61.326  67.365  75.211
11483DT     BB174630  61.029  66.635  75.239
11483DT     BB274631  60.795  66.811  75.027
11483DT     BB374632  60.871  66.827  74.836
11483DT     SC174633  61.040  67.013  74.909
11483DT     SC274634  60.982  67.201  74.822
11483DT     SC374635  61.269  67.135  74.959
11484DA     BB174636  60.490  66.655  74.782
11484DA     BB274637  60.520  66.933  74.545
11484DA     BB374638  60.649  66.879  74.383
11484DA     SC174639  60.907  66.985  74.521
11484DA     SC274640  61.068  67.173  74.492
11484DA     SC374641  61.229  67.030  74.632
11484DA     SC474642  60.992  66.881  74.609
11485DT     BB174643  60.582  66.850  74.174
11485DT     BB274644  60.720  67.157  74.044
11485DT     BB374645  60.883  67.116  73.923
11485DT     SC174646  61.034  67.064  74.131
11485DT     SC274647  61.182  67.218  74.153
11485DT     SC374648  61.185  66.930  74.301
11486DA     BB174649  60.638  67.345  73.668
11486DA     BB274650  60.974  67.493  73.659
11486DA     BB374651  61.104  67.375  73.537
11486DA     SC174652  61.201  67.196  73.773
11486DA     SC274653  61.411  67.162  73.903
11486DA     SC374654  61.309  66.935  73.968
11486DA     SC474655  61.122  67.060  73.800
11487DT     BB174656  61.190  67.443  73.344
11487DT     BB274657  61.519  67.510  73.475
11487DT     BB374658  61.654  67.371  73.402
11487DT     SC174659  61.560  67.185  73.561
11487DT     SC274660  61.707  67.140  73.712
11487DT     SC374661  61.446  66.961  73.641
11488DA     BB174662  61.813  67.749  73.320
11488DA     BB274663  62.068  67.555  73.497
11488DA     BB374664  62.155  67.410  73.367
11488DA     SC174665  61.951  67.186  73.440
11488DA     SC274666  61.952  66.969  73.562
11488DA     SC374667  61.737  66.919  73.432
11488DA     SC474668  61.820  67.173  73.348
11489DA     BB174669  62.402  67.574  73.493
11489DA     BB274670  62.500  67.255  73.645
11489DA     BB374671  62.578  67.123  73.496
11489DA     SC174672  62.303  66.994  73.432
11489DA     SC274673  62.190  66.774  73.464
11489DA     SC374674  62.033  66.850  73.276
11489DA     SC474675  62.216  67.058  73.312
11490DA     BB174676  62.768  67.150  73.758
11490DA     BB274677  62.711  66.789  73.794
11490DA     BB374678  62.800  66.684  73.631
11490DA     SC174679  62.545  66.694  73.453
11490DA     SC274680  62.373  66.535  73.367
11490DA     SC374681  62.325  66.714  73.190
11490DA     SC474682  62.531  66.817  73.351
11491DT     BB174683  62.884  66.605  73.732
11491DT     BB274684  62.719  66.288  73.688
11491DT     BB374685  62.790  66.194  73.518
11491DT     SC174686  62.655  66.357  73.362
11491DT     SC274687  62.496  66.248  73.266
11491DT     SC374688  62.604  66.542  73.181
11492DT     BB174689  62.859  66.050  73.716
11492DT     BB274690  62.675  65.836  73.493
11492DT     BB374691  62.789  65.793  73.325
11492DT     SC174692  62.749  66.034  73.228
11492DT     SC274693  62.623  66.020  73.054
11492DT     SC374694  62.799  66.278  73.141
11493DA     BB174695  62.628  65.438  73.486
11493DA     BB274696  62.588  65.429  73.122
11493DA     BB374697  62.778  65.409  73.027
11493DA     SC174698  62.826  65.715  73.003
11493DA     SC274699  62.836  65.886  72.822
11493DA     SC374700  62.966  66.029  72.991
11493DA     SC474701  62.907  65.787  73.122
11494DT     BB174702  62.836  65.232  72.923
11494DT     BB274703  62.823  65.365  72.588
11494DT     BB374704  63.015  65.394  72.516
11494DT     SC174705  63.048  65.606  72.667
11494DT     SC274706  63.054  65.782  72.542
11494DT     SC374707  63.144  65.767  72.853
11495DT     BB174708  63.031  65.166  72.339
11495DT     BB274709  63.113  65.444  72.124
11495DT     BB374710  63.319  65.471  72.118
11495DT     SC174711  63.319  65.576  72.359
11495DT     SC274712  63.366  65.785  72.345
11495DT     SC374713  63.370  65.607  72.615
11496DT     BB174714  63.366  65.362  71.856
11496DT     BB274715  63.503  65.695  71.836
11496DT     BB374716  63.705  65.692  71.882
11496DT     SC174717  63.655  65.660  72.137
11496DT     SC274718  63.710  65.839  72.243
11496DT     SC374719  63.648  65.550  72.377
11497DT     BB174720  63.776  65.736  71.619
11497DT     BB274721  63.923  66.011  71.800
11497DT     BB374722  64.113  65.960  71.864
11497DT     SC174723  64.017  65.805  72.053
11497DT     SC274724  64.056  65.894  72.245
11497DT     SC374725  63.963  65.588  72.193
11498DC     BB174726  64.196  66.135  71.685
11498DC     BB274727  64.326  66.253  72.000
11498DC     BB374728  64.503  66.155  72.045
11498DC     SC174729  64.375  65.935  72.108
11498DC     SC274730  64.390  65.903  72.320
11498DC     SC374731  64.294  65.684  72.101
11499DA     BB174732  64.520  66.573  72.094
11499DA     BB274733  64.666  66.412  72.390
11499DA     BB374734  64.850  66.316  72.340
11499DA     SC174735  64.717  66.043  72.272
11499DA     SC274736  64.708  65.814  72.368
11499DA     SC374737  64.636  65.740  72.133
11499DA     SC474738  64.675  66.017  72.119
11500DT     BB174739  64.976  66.397  72.430
11500DT     BB274740  65.057  66.131  72.659
11500DT     BB374741  65.213  66.018  72.584
11500DT     SC174742  65.056  65.903  72.408
11500DT     SC274743  65.030  65.696  72.461
11500DT     SC374744  64.956  65.831  72.175
11501DC     BB174745  65.377  66.127  72.770
11501DC     BB274746  65.425  65.772  72.810
11501DC     BB374747  65.567  65.704  72.675
11501DC     SC174748  65.398  65.722  72.475
11501DC     SC274749  65.347  65.524  72.407
11501DC     SC374750  65.290  65.801  72.248
11502DT     BB174751  65.783  65.677  72.860
11502DT     BB274752  65.776  65.355  72.697
11502DT     BB374753  65.901  65.357  72.532
11502DT     SC174754  65.729  65.500  72.394
11502DT     SC274755  65.645  65.379  72.237
11502DT     SC374756  65.627  65.702  72.259
11503DA     BB174757  66.088  65.029  72.730
11503DA     BB274758  66.040  64.923  72.382
11503DA     BB374759  66.193  65.004  72.258
11503DA     SC174760  66.033  65.262  72.189
11503DA     SC274761  65.920  65.361  71.990
11503DA     SC374762  65.940  65.584  72.115
11503DA     SC474763  66.056  65.391  72.282
11504DA     BB174764  66.309  64.700  72.139
11504DA     BB274765  66.209  64.801  71.801
11504DA     BB374766  66.365  64.912  71.707
11504DA     SC174767  66.261  65.188  71.807
11504DA     SC274768  66.156  65.392  71.709
11504DA     SC374769  66.236  65.510  71.923
11504DA     SC474770  66.320  65.244  71.946
11505DC     BB174771  66.516  64.854  71.513
11505DC     BB274772  66.344  65.062  71.274
11505DC     BB374773  66.469  65.214  71.210
11505DC     SC174774  66.441  65.343  71.436
11505DC     SC274775  66.327  65.523  71.402
11505DC     SC374776  66.500  65.456  71.668
11506DA     BB174777  66.366  65.040  70.840
11506DA     BB274778  66.298  65.399  70.811
11506DA     BB374779  66.479  65.506  70.773
11506DA     SC174780  66.541  65.554  71.074
11506DA     SC274781  66.546  65.747  71.233
11506DA     SC374782  66.696  65.597  71.378
11506DA     SC474783  66.634  65.447  71.149
11507DA     BB174784  66.323  65.623  70.508
11507DA     BB274785  66.344  65.955  70.664
11507DA     BB374786  66.536  66.040  70.630
11507DA     SC174787  66.661  65.923  70.890
11507DA     SC274788  66.742  66.008  71.110
11507DA     SC374789  66.872  65.787  71.125
11507DA     SC474790  66.735  65.781  70.880
11508DT     BB174791  66.548  66.209  70.515
11508DT     BB274792  66.592  66.436  70.792
11508DT     BB374793  66.787  66.505  70.796
11508DT     SC174794  66.874  66.275  70.890
11508DT     SC274795  66.938  66.301  71.094
11508DT     SC374796  67.004  66.046  70.905
11509DA     BB174797  66.506  66.812  70.822
11509DA     BB274798  66.747  66.850  71.096
11509DA     BB374799  66.936  66.914  71.021
11509DA     SC174800  67.045  66.626  70.980
11509DA     SC274801  67.218  66.478  71.083
11509DA     SC374802  67.205  66.345  70.863
11509DA     SC474803  67.024  66.558  70.836
11510DA     BB174804  66.835  67.093  71.271
11510DA     BB274805  67.145  66.983  71.434
11510DA     BB374806  67.314  67.065  71.333
11510DA     SC174807  67.345  66.824  71.138
11510DA     SC274808  67.505  66.636  71.101
11510DA     SC374809  67.404  66.624  70.865
11510DA     SC474810  67.271  66.834  70.996
11511DA     BB174811  67.319  67.095  71.659
11511DA     BB274812  67.640  66.919  71.636
11511DA     BB374813  67.781  67.036  71.526
11511DA     SC174814  67.706  66.911  71.251
11511DA     SC274815  67.810  66.759  71.082
11511DA     SC374816  67.639  66.858  70.918
11511DA     SC474817  67.593  66.985  71.164
11512DT     BB174818  67.894  67.058  71.642
11512DT     BB274819  68.157  66.859  71.495
11512DT     BB374820  68.270  66.976  71.366
11512DT     SC174821  68.081  66.972  71.184
11512DT     SC274822  68.146  66.854  71.017
11512DT     SC374823  67.893  67.057  71.020
11513DT     BB174824  68.458  66.957  71.551
11513DT     BB274825  68.621  66.856  71.246
11513DT     BB374826  68.683  67.022  71.140
11513DT     SC174827  68.438  67.075  71.064
11513DT     SC274828  68.418  67.040  70.853
11513DT     SC374829  68.208  67.203  71.038
11514DA     BB174830  69.040  66.801  71.170
11514DA     BB274831  69.021  66.922  70.824
11514DA     BB374832  69.069  67.129  70.816
11514DA     SC174833  68.775  67.224  70.853
11514DA     SC274834  68.598  67.335  70.717
11514DA     SC374835  68.491  67.396  70.942
11514DA     SC474836  68.725  67.254  71.003
11515DT     BB174837  69.269  67.245  70.725
11515DT     BB274838  69.111  67.391  70.436
11515DT     BB374839  69.105  67.597  70.455
11515DT     SC174840  68.910  67.582  70.631
11515DT     SC274841  68.729  67.659  70.543
11515DT     SC374842  68.780  67.604  70.859
11516DG     BB174843  69.358  67.611  70.119
11516DG     BB274844  69.077  67.832  70.065
11516DG     BB374845  69.117  68.013  70.137
11516DG     SC174846  69.007  67.953  70.416
11516DG     SC274847  68.765  68.077  70.540
11516DG     SC374848  68.913  67.915  70.738
11516DG     SC474849  69.104  67.890  70.526
11517DC     BB174850  69.159  68.269  70.023
11517DC     BB274851  68.840  68.417  70.103
11517DC     BB374852  68.866  68.575  70.234
11517DC     SC174853  68.911  68.412  70.435
11517DC     SC274854  68.746  68.421  70.573
11517DC     SC374855  69.036  68.289  70.632
11518DT     BB174856  68.827  68.806  70.052
11518DT     BB274857  68.576  68.857  70.307
11518DT     BB374858  68.647  68.988  70.450
11518DT     SC174859  68.804  68.804  70.553
11518DT     SC274860  68.730  68.747  70.747
11518DT     SC374861  69.023  68.679  70.628
11519DA     BB174862  68.283  69.149  70.327
11519DA     BB274863  68.274  69.127  70.693
11519DA     BB374864  68.386  69.286  70.779
11519DA     SC174865  68.653  69.126  70.788
11519DA     SC274866  68.801  69.024  70.961
11519DA     SC374867  68.982  69.030  70.779
11519DA     SC474868  68.752  69.139  70.662
11520DA     BB174869  68.100  69.307  70.925
11520DA     BB274870  68.279  69.240  71.238
11520DA     BB374871  68.388  69.413  71.299
11520DA     SC174872  68.647  69.333  71.147
11520DA     SC274873  68.878  69.257  71.203
11520DA     SC374874  68.940  69.335  70.967
11520DA     SC474875  68.666  69.389  70.997
11521DT     BB174876  68.323  69.477  71.459
11521DT     BB274877  68.597  69.368  71.667
11521DT     BB374878  68.723  69.527  71.706
11521DT     SC174879  68.822  69.519  71.463
11521DT     SC274880  69.026  69.451  71.472
11521DT     SC374881  68.883  69.593  71.218
11522DC     BB174882  68.623  69.473  71.936
11522DC     BB274883  68.981  69.446  71.973
11522DC     BB374884  69.065  69.635  71.981
11522DC     SC174885  69.032  69.670  71.723
11522DC     SC274886  69.224  69.669  71.626
11522DC     SC374887  68.945  69.770  71.495
11523DT     BB174888  69.108  69.558  72.224
11523DT     BB274889  69.431  69.649  72.092
11523DT     BB374890  69.452  69.855  72.093
11523DT     SC174891  69.292  69.880  71.887
11523DT     SC274892  69.406  69.942  71.715
11523DT     SC374893  69.083  69.949  71.742
11524DT     BB174894  69.626  69.816  72.288
11524DT     BB274895  69.806  70.009  72.042
11524DT     BB374896  69.760  70.210  72.063
11524DT     SC174897  69.524  70.176  71.955
11524DT     SC274898  69.520  70.270  71.762
11524DT     SC374899  69.261  70.168  71.929
11525DG     BB174900  70.166  70.189  72.111
11525DG     BB274901  70.076  70.446  71.872
11525DG     BB374902  70.013  70.608  71.967
11525DG     SC174903  69.720  70.521  71.973
11525DG     SC274904  69.495  70.653  71.828
11525DG     SC374905  69.394  70.448  72.016
11525DG     SC474906  69.668  70.433  72.096
11526DT     BB174907  70.119  70.823  71.969
11526DT     BB274908  69.897  71.014  71.758
11526DT     BB374909  69.785  71.144  71.873
11526DT     SC174910  69.634  70.948  71.960
11526DT     SC274911  69.436  70.967  71.877
11526DT     SC374912  69.520  70.778  72.127
11527DT     BB174913  69.924  71.384  71.805
11527DT     BB274914  69.581  71.460  71.722
11527DT     BB374915  69.487  71.547  71.885
11527DT     SC174916  69.471  71.316  72.009
11527DT     SC274917  69.265  71.253  72.017
11527DT     SC374918  69.509  71.130  72.192
11528DA     BB174919  69.418  71.835  71.585
11528DA     BB274920  69.094  71.764  71.742
11528DA     BB374921  69.079  71.864  71.929
11528DA     SC174922  69.197  71.627  72.093
11528DA     SC274923  69.116  71.459  72.258
11528DA     SC374924  69.363  71.433  72.322
11528DA     SC474925  69.355  71.626  72.119
11529DT     BB174926  68.938  72.033  71.973
11529DT     BB274927  68.705  71.836  72.165
11529DT     BB374928  68.713  71.891  72.364
11529DT     SC174929  68.942  71.766  72.397
11529DT     SC274930  68.912  71.593  72.522
11529DT     SC374931  69.198  71.725  72.446
11530DA     BB174932  68.310  71.918  72.257
11530DA     BB274933  68.331  71.713  72.560
11530DA     BB374934  68.366  71.837  72.731
11530DA     SC174935  68.676  71.817  72.710
11530DA     SC274936  68.863  71.712  72.838
11530DA     SC374937  69.014  71.881  72.716
11530DA     SC474938  68.753  71.930  72.626
11531DT     BB174939  68.222  71.847  72.871
11531DT     BB274940  68.386  71.635  73.111
11531DT     BB374941  68.461  71.749  73.267
11531DT     SC174942  68.658  71.837  73.118
11531DT     SC274943  68.843  71.753  73.187
11531DT     SC374944  68.813  72.003  72.984
11532DA     BB174945  68.238  71.419  73.402
11532DA     BB274946  68.561  71.422  73.575
11532DA     BB374947  68.570  71.586  73.712
11532DA     SC174948  68.693  71.783  73.505
11532DA     SC274949  68.911  71.898  73.467
11532DA     SC374950  68.776  72.061  73.322
11532DA     SC474951  68.592  71.875  73.421
11533DT     BB174952  68.585  71.519  73.875
11533DT     BB274953  68.932  71.603  73.927
11533DT     BB374954  68.947  71.781  74.031
11533DT     SC174955  68.880  71.920  73.819
11533DT     SC274956  69.051  72.031  73.750
11533DT     SC374957  68.744  72.080  73.659
11534DC     BB174958  69.036  71.620  74.214
11534DC     BB274959  69.298  71.862  74.162
11534DC     BB374960  69.253  72.038  74.262
11534DC     SC174961  69.072  72.102  74.083
11534DC     SC274962  69.141  72.271  73.969
11534DC     SC374963  68.837  72.158  73.976
11535DA     BB174964  69.647  71.912  74.343
11535DA     BB274965  69.652  72.270  74.263
11535DA     BB374966  69.557  72.381  74.418
11535DA     SC174967  69.275  72.369  74.289
11535DA     SC274968  69.115  72.525  74.178
11535DA     SC374969  68.937  72.349  74.232
11535DA     SC474970  69.178  72.248  74.333
11536DA     BB174971  69.845  72.541  74.398
11536DA     BB274972  69.650  72.842  74.325
11536DA     BB374973  69.550  72.910  74.501
11536DA     SC174974  69.292  72.744  74.447
11536DA     SC274975  69.055  72.788  74.383
11536DA     SC374976  69.008  72.554  74.479
11536DA     SC474977  69.283  72.598  74.513
11537DA     BB174978  69.701  73.198  74.435
11537DA     BB274979  69.367  73.349  74.411
11537DA     BB374980  69.284  73.376  74.605
11537DA     SC174981  69.145  73.098  74.612
11537DA     SC274982  68.912  73.008  74.604
11537DA     SC374983  69.014  72.796  74.707
11537DA     SC474984  69.226  72.976  74.676
11538DG     BB174985  69.274  73.691  74.557
11538DG     BB274986  68.917  73.643  74.583
11538DG     BB374987  68.861  73.649  74.774
11538DG     SC174988  68.897  73.349  74.819
11538DG     SC274989  68.679  73.152  74.875
11538DG     SC374990  68.945  73.027  74.909
11538DG     SC474991  69.040  73.294  74.865
11539DT     BB174992  68.717  73.814  74.883
11539DT     BB274993  68.413  73.623  74.915
11539DT     BB374994  68.381  73.573  75.113
11539DT     SC174995  68.569  73.390  75.105
11539DT     SC274996  68.480  73.195  75.119
11539DT     SC374997  68.794  73.263  75.159
11540DG     BB174998  68.047  73.791  75.021
11540DG     BB274999  67.957  73.468  75.156
11540DG     BB375000  67.967  73.472  75.354
11540DG     SC175001  68.261  73.388  75.366
11540DG     SC275002  68.365  73.130  75.476
11540DG     SC375003  68.587  73.317  75.416
11540DG     SC475004  68.374  73.501  75.361
11541DC     BB175005  67.784  73.439  75.494
11541DC     BB275006  67.846  73.100  75.601
11541DC     BB375007  67.908  73.099  75.798
11541DC     SC175008  68.146  73.188  75.732
11541DC     SC275009  68.292  73.032  75.763
11541DC     SC375010  68.356  73.347  75.717
11542DT     BB175011  67.673  72.989  75.850
11542DT     BB275012  67.919  72.749  75.962
11542DT     BB375013  67.985  72.799  76.152
11542DT     SC175014  68.130  72.997  76.058
11542DT     SC275015  68.338  72.949  76.078
11542DT     SC375016  68.216  73.243  76.016
11543DA     BB175017  67.875  72.394  76.122
11543DA     BB275018  68.208  72.415  76.276
11543DA     BB375019  68.193  72.499  76.472
11543DA     SC175020  68.232  72.792  76.376
11543DA     SC275021  68.406  72.970  76.393
11543DA     SC375022  68.215  73.133  76.338
11543DA     SC475023  68.100  72.877  76.343
11544DC     BB175024  68.245  72.376  76.595
11544DC     BB275025  68.562  72.527  76.677
11544DC     BB375026  68.544  72.642  76.848
11544DC     SC175027  68.417  72.831  76.717
11544DC     SC275028  68.544  73.005  76.703
11544DC     SC375029  68.225  72.995  76.643
11545DT     BB175030  68.689  72.454  76.963
11545DT     BB275031  68.872  72.761  77.013
11545DT     BB375032  68.794  72.864  77.175
11545DT     SC175033  68.584  72.939  77.036
11545DT     SC275034  68.594  73.151  77.000
11545DT     SC375035  68.333  72.963  76.961
11546DG     BB175036  69.191  72.799  77.246
11546DG     BB275037  69.104  73.148  77.283
11546DG     BB375038  69.011  73.177  77.456
11546DG     SC175039  68.731  73.127  77.341
11546DG     SC275040  68.514  73.330  77.315
11546DG     SC375041  68.413  73.059  77.253
11546DG     SC475042  68.674  72.978  77.338
11547DA     BB175043  69.244  73.426  77.509
11547DA     BB275044  68.973  73.672  77.531
11547DA     BB375045  68.873  73.655  77.719
11547DA     SC175046  68.663  73.451  77.614
11547DA     SC275047  68.418  73.446  77.565
11547DA     SC375048  68.440  73.191  77.583
11547DA     SC475049  68.696  73.294  77.631
11548DT     BB175050  68.890  73.807  77.834
11548DT     BB275051  68.555  73.934  77.786
11548DT     BB375052  68.437  73.884  77.948
11548DT     SC175053  68.421  73.634  77.870
11548DT     SC275054  68.220  73.593  77.805
11548DT     SC375055  68.448  73.372  77.871
11549DA     BB175056  68.405  74.292  77.851
11549DA     BB275057  68.067  74.152  77.885
11549DA     BB375058  68.026  74.105  78.089
11549DA     SC175059  68.132  73.813  78.069
11549DA     SC275060  68.039  73.582  78.073
11549DA     SC375061  68.277  73.508  78.132
11549DA     SC475062  68.287  73.788  78.106
11550DT     BB175063  67.893  74.206  78.138
11550DT     BB275064  67.641  73.948  78.148
11550DT     BB375065  67.624  73.874  78.341
11550DT     SC175066  67.849  73.741  78.318
11550DT     SC275067  67.806  73.530  78.312
11550DT     SC375068  68.097  73.664  78.361
11551DT     BB175069  67.395  73.994  78.322
11551DT     BB275070  67.319  73.650  78.403
11551DT     BB375071  67.350  73.617  78.605
11551DT     SC175072  67.610  73.618  78.574
11551DT     SC275073  67.686  73.419  78.605
11551DT     SC375074  67.863  73.691  78.597
11552DT     BB175075  67.086  73.600  78.620
11552DT     BB275076  67.208  73.291  78.761
11552DT     BB375077  67.262  73.320  78.959
11552DT     SC175078  67.481  73.447  78.889
11552DT     SC275079  67.652  73.326  78.937
11552DT     SC375080  67.657  73.642  78.862
11553DT     BB175081  67.044  73.181  79.038
11553DT     BB275082  67.320  73.013  79.199
11553DT     BB375083  67.364  73.106  79.379
11553DT     SC175084  67.478  73.308  79.255
11553DT     SC275085  67.690  73.303  79.290
11553DT     SC375086  67.523  73.554  79.171
11554DT     BB175087  67.256  72.900  79.524
11554DT     BB275088  67.592  72.931  79.652
11554DT     BB375089  67.597  73.069  79.805
11554DT     SC175090  67.576  73.269  79.637
11554DT     SC275091  67.762  73.378  79.632
11554DT     SC375092  67.478  73.480  79.513
11555DG     BB175093  67.734  72.723  79.975
11555DG     BB275094  67.961  72.997  80.038
11555DG     BB375095  67.892  73.110  80.187
11555DG     SC175096  67.731  73.296  80.004
11555DG     SC275097  67.785  73.585  79.956
11555DG     SC375098  67.527  73.505  79.836
11555DG     SC475099  67.580  73.256  79.967
11556DA     BB175100  68.199  73.078  80.352
11556DA     BB275101  68.245  73.442  80.346
11556DA     BB375102  68.127  73.534  80.498
11556DA     SC175103  67.879  73.574  80.315
11556DA     SC275104  67.758  73.764  80.207
11556DA     SC375105  67.560  73.601  80.190
11556DA     SC475106  67.767  73.459  80.314
11557DA     BB175107  68.413  73.671  80.596
11557DA     BB275108  68.263  73.998  80.529
11557DA     BB375109  68.129  74.052  80.686
11557DA     SC175110  67.880  73.923  80.552
11557DA     SC275111  67.668  73.999  80.445
11557DA     SC375112  67.583  73.761  80.490
11557DA     SC475113  67.845  73.771  80.590
11558DA     BB175114  68.308  74.332  80.716
11558DA     BB275115  68.003  74.518  80.630
11558DA     BB375116  67.876  74.534  80.800
11558DA     SC175117  67.719  74.272  80.737
11558DA     SC275118  67.490  74.208  80.662
11558DA     SC375119  67.546  73.976  80.758
11558DA     SC475120  67.772  74.136  80.804
11559DT     BB175121  67.829  74.725  80.910
11559DT     BB275122  67.495  74.764  80.780
11559DT     BB375123  67.356  74.731  80.931
11559DT     SC175124  67.396  74.472  80.922
11559DT     SC275125  67.222  74.375  80.841
11559DT     SC375126  67.465  74.229  80.997
11560DG     BB175127  67.273  75.118  80.823
11560DG     BB275128  66.975  74.913  80.807
11560DG     BB375129  66.895  74.896  80.988
11560DG     SC175130  67.055  74.646  81.063
11560DG     SC275131  66.942  74.373  81.106
11560DG     SC375132  67.227  74.383  81.185
11560DG     SC475133  67.198  74.663  81.131
11561DA     BB175134  66.589  75.007  80.864
11561DA     BB275135  66.435  74.685  80.949
11561DA     BB375136  66.383  74.680  81.156
11561DA     SC175137  66.655  74.561  81.247
11561DA     SC275138  66.741  74.345  81.338
11561DA     SC375139  66.942  74.482  81.419
11561DA     SC475140  66.771  74.664  81.290
11562DG     BB175141  66.098  74.640  81.044
11562DG     BB275142  66.135  74.314  81.196
11562DG     BB375143  66.089  74.323  81.389
11562DG     SC175144  66.373  74.390  81.479
11562DG     SC275145  66.551  74.214  81.643
11562DG     SC375146  66.669  74.483  81.612
11562DG     SC475147  66.419  74.543  81.486
11563DT     BB175148  65.929  74.204  81.451
11563DT     BB275149  66.100  73.938  81.625
11563DT     BB375150  66.089  73.968  81.829
11563DT     SC175151  66.267  74.160  81.818
11563DT     SC275152  66.449  74.094  81.912
11563DT     SC375153  66.375  74.401  81.836
11564DC     BB175154  65.927  73.759  81.827
11564DC     BB275155  66.191  73.670  82.055
11564DC     BB375156  66.152  73.749  82.243
11564DC     SC175157  66.217  73.991  82.163
11564DC     SC275158  66.401  74.050  82.258
11564DC     SC375159  66.196  74.247  82.103
11565DG     BB175160  66.195  73.346  82.283
11565DG     BB275161  66.401  73.525  82.520
11565DG     BB375162  66.289  73.591  82.671
11565DG     SC175163  66.225  73.859  82.537
11565DG     SC275164  66.316  74.128  82.629
11565DG     SC375165  66.117  74.153  82.412
11565DG     SC475166  66.097  73.869  82.441
11566DA     BB175167  66.510  73.438  82.895
11566DA     BB275168  66.578  73.760  83.056
11566DA     BB375169  66.416  73.814  83.185
11566DA     SC175170  66.261  73.970  82.965
11566DA     SC275171  66.202  74.207  82.913
11566DA     SC375172  66.017  74.107  82.766
11566DA     SC475173  66.151  73.889  82.880
11567DA     BB175174  66.641  73.841  83.430
11567DA     BB275175  66.548  74.194  83.460
11567DA     BB375176  66.368  74.215  83.572
11567DA     SC175177  66.183  74.200  83.322
11567DA     SC275178  66.034  74.353  83.193
11567DA     SC375179  65.924  74.139  83.105
11567DA     SC475180  66.126  74.055  83.280
11568DT     BB175181  66.350  74.308  83.779
11568DT     BB275182  66.200  74.617  83.671
11568DT     BB375183  66.004  74.627  83.736
11568DT     SC175184  65.927  74.454  83.555
11568DT     SC275185  65.806  74.554  83.408
11568DT     SC375186  65.830  74.233  83.447
11569DT     BB175187  66.059  74.818  83.931
11569DT     BB275188  65.808  74.973  83.724
11569DT     BB375189  65.619  74.930  83.797
11569DT     SC175190  65.632  74.684  83.706
11569DT     SC275191  65.493  74.661  83.543
11569DT     SC375192  65.640  74.420  83.703
11570DC     BB175193  65.599  75.187  83.876
11570DC     BB275194  65.321  75.136  83.652
11570DC     BB375195  65.158  75.061  83.756
11570DC     SC175196  65.269  74.824  83.772
11570DC     SC275197  65.160  74.686  83.649
11570DC     SC375198  65.376  74.607  83.877
11571DT     BB175199  65.052  75.299  83.711
11571DT     BB275200  64.820  75.063  83.566
11571DT     BB375201  64.693  74.990  83.713
11571DT     SC175202  64.882  74.838  83.813
11571DT     SC275203  64.836  74.632  83.774
11571DT     SC375204  65.057  74.740  83.984
11572DA     BB175205  64.494  75.115  83.361
11572DA     BB275206  64.366  74.786  83.461
11572DA     BB375207  64.256  74.801  83.643
11572DA     SC175208  64.503  74.747  83.825
11572DA     SC275209  64.585  74.565  83.975
11572DA     SC375210  64.733  74.746  84.080
11572DA     SC475211  64.586  74.874  83.878
11573DA     BB175212  64.044  74.646  83.447
11573DA     BB275213  64.045  74.376  83.695
11573DA     BB375214  63.942  74.437  83.872
11573DA     SC175215  64.197  74.550  84.011
11573DA     SC275216  64.343  74.492  84.204
11573DA     SC375217  64.419  74.737  84.195
11573DA     SC475218  64.230  74.706  83.990
11574DA     BB175219  63.777  74.159  83.814
11574DA     BB275220  63.889  74.045  84.144
11574DA     BB375221  63.780  74.145  84.298
11574DA     SC175222  63.984  74.379  84.322
11574DA     SC275223  64.152  74.461  84.488
11574DA     SC375224  64.133  74.686  84.365
11574DA     SC475225  63.957  74.511  84.234
11575DA     BB175226  63.714  73.838  84.400
11575DA     BB275227  63.884  73.924  84.714
11575DA     BB375228  63.757  74.046  84.835
11575DA     SC175229  63.863  74.314  84.719
11575DA     SC275230  64.000  74.508  84.796
11575DA     SC375231  63.892  74.636  84.602
11575DA     SC475232  63.784  74.377  84.594
11576DG     BB175233  63.779  73.814  85.043
11576DG     BB275234  63.946  74.067  85.241
11576DG     BB375235  63.811  74.180  85.334
11576DG     SC175236  63.788  74.384  85.107
11576DG     SC275237  63.874  74.669  85.118
11576DG     SC375238  63.723  74.614  84.870
11576DG     SC475239  63.681  74.358  84.991
11577DA     BB175240  63.988  74.112  85.624
11577DA     BB275241  64.048  74.470  85.673
11577DA     BB375242  63.872  74.566  85.746
11577DA     SC175243  63.763  74.635  85.463
11577DA     SC275244  63.727  74.838  85.324
11577DA     SC375245  63.562  74.694  85.191
11577DA     SC475246  63.663  74.529  85.395
11578DT     BB175247  63.886  74.638  85.925
11578DT     BB275248  63.899  74.987  85.832
11578DT     BB375249  63.715  75.075  85.864
11578DT     SC175250  63.614  74.958  85.651
11578DT     SC275251  63.577  75.106  85.500
11578DT     SC375252  63.461  74.803  85.503
11579DT     BB175253  63.822  75.206  86.072
11579DT     BB275254  63.688  75.466  85.861
11579DT     BB375255  63.487  75.495  85.902
11579DT     SC175256  63.422  75.273  85.777
11579DT     SC275257  63.316  75.322  85.597
11579DT     SC375258  63.330  75.030  85.736
11580DA     BB175259  63.664  75.876  85.927
11580DA     BB275260  63.360  75.907  85.724
11580DA     BB375261  63.187  75.895  85.848
11580DA     SC175262  63.159  75.586  85.820
11580DA     SC275263  63.004  75.424  85.711
11580DA     SC375264  63.100  75.253  85.875
11580DA     SC475265  63.230  75.495  85.931
11581DG     BB175266  63.102  76.191  85.764
11581DG     BB275267  62.814  76.027  85.620
11581DG     BB375268  62.672  76.005  85.758
11581DG     SC175269  62.772  75.731  85.852
11581DG     SC275270  62.628  75.471  85.820
11581DG     SC375271  62.866  75.440  85.993
11581DG     SC475272  62.882  75.725  85.968
11582DC     BB175273  62.450  76.107  85.763
11582DC     BB275274  62.245  75.826  85.670
11582DC     BB375275  62.138  75.760  85.834
11582DC     SC175276  62.351  75.649  85.939
11582DC     SC275277  62.331  75.435  85.933
11582DC     SC375278  62.548  75.600  86.108
11583DA     BB175279  61.843  75.824  85.542
11583DA     BB275280  61.791  75.488  85.678
11583DA     BB375281  61.700  75.499  85.870
11583DA     SC175282  61.970  75.506  86.025
11583DA     SC275283  62.101  75.356  86.175
11583DA     SC375284  62.221  75.570  86.250
11583DA     SC475285  62.032  75.650  86.059
11584DA     BB175286  61.481  75.298  85.731
11584DA     BB275287  61.579  75.047  85.979
11584DA     BB375288  61.490  75.092  86.168
11584DA     SC175289  61.728  75.265  86.267
11584DA     SC275290  61.910  75.250  86.438
11584DA     SC375291  61.925  75.505  86.415
11584DA     SC475292  61.721  75.424  86.240
11585DA     BB175293  61.397  74.782  86.126
11585DA     BB275294  61.586  74.706  86.430
11585DA     BB375295  61.481  74.776  86.602
11585DA     SC175296  61.618  75.055  86.601
11585DA     SC275297  61.783  75.181  86.741
11585DA     SC375298  61.686  75.391  86.629
11585DA     SC475299  61.544  75.174  86.522
11586DG     BB175300  61.497  74.475  86.670
11586DG     BB275301  61.700  74.598  86.944
11586DG     BB375302  61.583  74.668  87.089
11586DG     SC175303  61.575  74.953  86.977
11586DG     SC275304  61.695  75.195  87.104
11586DG     SC375305  61.529  75.270  86.872
11586DG     SC475306  61.462  74.992  86.870
11587DT     BB175307  61.590  74.575  87.281
11587DT     BB275308  61.769  74.820  87.476
11587DT     BB375309  61.637  74.930  87.591
11587DT     SC175310  61.555  75.065  87.381
11587DT     SC275311  61.622  75.269  87.397
11587DT     SC375312  61.395  75.159  87.193
11588DC     BB175313  61.723  74.804  87.816
11588DC     BB275314  61.771  75.154  87.886
11588DC     BB375315  61.597  75.236  87.963
11588DC     SC175316  61.482  75.235  87.727
11588DC     SC275317  61.459  75.437  87.659
11588DC     SC375318  61.313  75.176  87.534
11589DA     BB175319  61.898  75.337  88.239
11589DA     BB275320  61.710  75.642  88.162
11589DA     BB375321  61.520  75.639  88.259
11589DA     SC175322  61.374  75.503  88.020
11589DA     SC275323  61.204  75.566  87.849
11589DA     SC375324  61.166  75.313  87.824
11589DA     SC475325  61.364  75.343  88.021
11590DA     BB175326  61.616  75.929  88.384
11590DA     BB275327  61.333  76.079  88.207
11590DA     BB375328  61.151  76.043  88.313
11590DA     SC175329  61.089  75.778  88.163
11590DA     SC275330  60.923  75.695  87.996
11590DA     SC375331  60.987  75.461  88.078
11590DA     SC475332  61.141  75.641  88.228
11591DA     BB175333  61.128  76.369  88.293
11591DA     BB275334  60.825  76.316  88.093
11591DA     BB375335  60.662  76.263  88.219
11591DA     SC175336  60.713  75.957  88.201
11591DA     SC275337  60.604  75.757  88.099
11591DA     SC375338  60.742  75.621  88.266
11591DA     SC475339  60.807  75.890  88.313
11592DT     BB175340  60.522  76.392  88.220
11592DT     BB275341  60.291  76.204  88.016
11592DT     BB375342  60.146  76.117  88.135
11592DT     SC175343  60.315  75.935  88.222
11592DT     SC275344  60.260  75.743  88.142
11592DT     SC375345  60.466  75.796  88.386
11593DT     BB175346  59.983  76.292  88.023
11593DT     BB275347  59.840  75.969  87.950
11593DT     BB375348  59.727  75.903  88.111
11593DT     SC175349  59.943  75.846  88.249
11593DT     SC275350  59.960  75.633  88.269
11593DT     SC375351  60.125  75.854  88.440
11594DT     BB175352  59.516  75.947  87.956
11594DT     BB275353  59.490  75.601  88.055
11594DT     BB375354  59.402  75.587  88.242
11594DT     SC175355  59.622  75.669  88.360
11594DT     SC275356  59.708  75.506  88.470
11594DT     SC375357  59.786  75.819  88.501
11595DT     BB175358  59.171  75.492  88.131
11595DT     BB275359  59.262  75.242  88.374
11595DT     BB375360  59.184  75.292  88.560
11595DT     SC175361  59.365  75.480  88.593
11595DT     SC275362  59.502  75.420  88.748
11595DT     SC375363  59.472  75.719  88.625
11596DG     BB175364  59.012  74.928  88.484
11596DG     BB275365  59.171  74.931  88.809
11596DG     BB375366  59.052  75.019  88.942
11596DG     SC175367  59.164  75.299  88.893
11596DG     SC275368  59.320  75.462  89.088
11596DG     SC375369  59.249  75.623  88.851
11596DG     SC475370  59.098  75.390  88.779
11597DC     BB175371  58.949  74.916  89.137
11597DC     BB275372  59.158  75.049  89.399
11597DC     BB375373  59.052  75.189  89.509
11597DC     SC175374  59.072  75.367  89.317
11597DC     SC275375  59.203  75.525  89.380
11597DC     SC375376  59.001  75.535  89.127
11598DT     BB175377  59.027  75.021  89.729
11598DT     BB275378  59.197  75.311  89.857
11598DT     BB375379  59.059  75.450  89.924
11598DT     SC175380  58.997  75.518  89.679
11598DT     SC275381  59.068  75.718  89.640
11598DT     SC375382  58.855  75.553  89.459
11599DC     BB175383  59.135  75.393  90.176
11599DC     BB275384  59.199  75.746  90.136
11599DC     BB375385  59.028  75.854  90.179
11599DC     SC175386  58.918  75.785  89.951
11599DC     SC275387  58.906  75.957  89.823
11599DC     SC375388  58.749  75.677  89.780
11600DG     BB175389  59.347  75.974  90.401
11600DG     BB275390  59.192  76.250  90.225
11600DG     BB375391  59.022  76.300  90.314
11600DG     SC175392  58.850  76.108  90.148
11600DG     SC275393  58.643  76.186  89.948
11600DG     SC375394  58.636  75.895  89.999
11600DG     SC475395  58.830  75.958  90.200
11601DA     BB175396  59.177  76.604  90.278
11601DA     BB275397  58.885  76.723  90.091
11601DA     BB375398  58.717  76.743  90.220
11601DA     SC175399  58.614  76.454  90.172
11601DA     SC275400  58.422  76.342  90.059
11601DA     SC375401  58.478  76.140  90.207
11601DA     SC475402  58.664  76.339  90.274
11602DA     BB175403  58.736  77.031  90.066
11602DA     BB275404  58.393  76.967  89.953
11602DA     BB375405  58.257  76.980  90.117
11602DA     SC175406  58.278  76.678  90.190
11602DA     SC275407  58.132  76.476  90.180
11602DA     SC375408  58.293  76.377  90.355
11602DA     SC475409  58.388  76.635  90.299
11603DC     BB175410  58.126  77.129  90.115
11603DC     BB275411  57.830  76.934  90.049
11603DC     BB375412  57.721  76.910  90.224
11603DC     SC175413  57.891  76.734  90.316
11603DC     SC275414  57.799  76.539  90.318
11603DC     SC375415  58.073  76.621  90.470
11604DT     BB175416  57.522  77.094  90.151
11604DT     BB275417  57.335  76.796  90.232
11604DT     BB375418  57.286  76.795  90.433
11604DT     SC175419  57.532  76.735  90.501
11604DT     SC275420  57.538  76.534  90.577
11604DT     SC375421  57.772  76.755  90.609
11605DA     BB175422  56.899  76.754  90.267
11605DA     BB275423  56.927  76.499  90.529
11605DA     BB375424  56.899  76.587  90.721
11605DA     SC175425  57.201  76.648  90.764
11605DA     SC275426  57.387  76.566  90.909
11605DA     SC375427  57.502  76.788  90.853
11605DA     SC475428  57.255  76.792  90.719
11606DC     BB175429  56.712  76.563  90.884
11606DC     BB275430  56.891  76.349  91.113
11606DC     BB375431  56.919  76.446  91.293
11606DC     SC175432  57.107  76.598  91.191
11606DC     SC275433  57.297  76.543  91.275
11606DC     SC375434  57.234  76.814  91.108
11607DA     BB175435  56.721  76.100  91.429
11607DA     BB275436  57.028  76.131  91.627
11607DA     BB375437  57.001  76.272  91.785
11607DA     SC175438  57.099  76.515  91.616
11607DA     SC275439  57.296  76.668  91.610
11607DA     SC375440  57.144  76.826  91.477
11607DA     SC475441  56.989  76.599  91.536
11608DG     BB175442  57.054  76.038  91.984
11608DG     BB275443  57.358  76.224  92.045
11608DG     BB375444  57.328  76.358  92.190
11608DG     SC175445  57.240  76.580  91.998
11608DG     SC275446  57.388  76.834  91.944
11608DG     SC375447  57.120  76.840  91.820
11608DG     SC475448  57.085  76.592  91.959
11609DT     BB175449  57.450  76.329  92.344
11609DT     BB275450  57.693  76.590  92.282
11609DT     BB375451  57.656  76.751  92.407
11609DT     SC175452  57.449  76.824  92.264
11609DT     SC275453  57.494  77.008  92.162
11609DT     SC375454  57.199  76.879  92.199
11610DT     BB175455  57.876  76.630  92.408
11610DT     BB275456  57.938  76.971  92.309
11610DT     BB375457  57.890  77.100  92.464
11610DT     SC175458  57.633  77.068  92.420
11610DT     SC275459  57.551  77.251  92.341
11610DT     SC375460  57.381  77.002  92.460
11611DA     BB175461  58.176  77.123  92.092
11611DA     BB275462  58.034  77.449  92.180
11611DA     BB375463  58.061  77.488  92.387
11611DA     SC175464  57.791  77.361  92.472
11611DA     SC275465  57.571  77.438  92.562
11611DA     SC375466  57.540  77.195  92.639
11611DA     SC475467  57.791  77.206  92.513
11612DA     BB175468  58.068  77.736  92.108
11612DA     BB275469  57.892  77.927  92.367
11612DA     BB375470  57.991  77.906  92.555
11612DA     SC175471  57.825  77.658  92.642
11612DA     SC275472  57.650  77.603  92.811
11612DA     SC375473  57.721  77.359  92.776
11612DA     SC475474  57.885  77.512  92.607
11613DC     BB175475  58.054  78.060  92.596
11613DC     BB275476  57.869  78.117  92.901
11613DC     BB375477  57.972  78.038  93.062
11613DC     SC175478  57.907  77.793  92.995
11613DC     SC275479  57.769  77.714  93.139
11613DC     SC375480  57.932  77.542  92.917
11614DC     BB175481  58.078  78.283  93.165
11614DC     BB275482  57.937  78.129  93.459
11614DC     BB375483  58.080  78.014  93.555
11614DC     SC175484  58.062  77.827  93.372
11614DC     SC275485  57.970  77.652  93.458
11614DC     SC375486  58.130  77.664  93.176
11615DT     BB175487  58.161  78.188  93.783
11615DT     BB275488  58.079  77.877  93.947
11615DT     BB375489  58.251  77.765  93.975
11615DT     SC175490  58.259  77.700  93.721
11615DT     SC275491  58.213  77.491  93.699
11615DT     SC375492  58.344  77.682  93.472
11616DG     BB175493  58.149  77.815  94.372
11616DG     BB275494  58.199  77.464  94.300
11616DG     BB375495  58.392  77.419  94.314
11616DG     SC175496  58.453  77.480  94.021
11616DG     SC275497  58.533  77.282  93.813
11616DG     SC375498  58.560  77.558  93.710
11616DG     SC475499  58.494  77.630  93.980
11617DT     BB175500  58.499  77.266  94.476
11617DT     BB275501  58.556  76.980  94.263
11617DT     BB375502  58.759  76.958  94.227
11617DT     SC175503  58.759  77.160  94.060
11617DT     SC275504  58.790  77.088  93.860
11617DT     SC375505  58.814  77.396  93.956
11618DT     BB175506  58.777  76.736  94.392
11618DT     BB275507  58.896  76.619  94.072
11618DT     BB375508  59.100  76.649  94.057
11618DT     SC175509  59.068  76.906  94.020
11618DT     SC275510  59.120  76.957  93.818
11618DT     SC375511  59.081  77.167  94.062
11619DA     BB175512  59.020  76.249  93.961
11619DA     BB275513  59.235  76.387  93.699
11619DA     BB375514  59.435  76.411  93.771
11619DA     SC175515  59.389  76.703  93.870
11619DA     SC275516  59.462  76.933  93.807
11619DA     SC375517  59.395  76.997  94.046
11619DA     SC475518  59.343  76.723  94.023
11620DC     BB175519  59.579  76.297  93.690
11620DC     BB275520  59.738  76.556  93.496
11620DC     BB375521  59.915  76.613  93.586
11620DC     SC175522  59.786  76.746  93.772
11620DC     SC275523  59.817  76.957  93.744
11620DC     SC375524  59.696  76.816  94.010
11621DG     BB175525  60.029  76.485  93.215
11621DG     BB275526  60.163  76.814  93.284
11621DG     BB375527  60.325  76.798  93.398
11621DG     SC175528  60.171  76.814  93.662
11621DG     SC275529  60.186  77.036  93.861
11621DG     SC375530  60.033  76.807  93.970
11621DG     SC475531  60.116  76.678  93.728
11622DA     BB175532  60.494  76.994  93.163
11622DA     BB275533  60.561  77.246  93.420
11622DA     BB375534  60.720  77.182  93.548
11622DA     SC175535  60.531  77.042  93.752
11622DA     SC275536  60.454  77.077  93.986
11622DA     SC375537  60.391  76.829  93.982
11622DA     SC475538  60.500  76.886  93.730
11623DA     BB175539  60.852  77.471  93.464
11623DA     BB275540  60.836  77.561  93.819
11623DA     BB375541  60.992  77.464  93.927
11623DA     SC175542  60.823  77.213  93.995
11623DA     SC275543  60.718  77.110  94.197
11623DA     SC375544  60.715  76.893  94.059
11623DA     SC475545  60.831  77.088  93.894
11624DT     BB175546  61.135  77.579  94.008
11624DT     BB275547  61.022  77.550  94.350
11624DT     BB375548  61.146  77.421  94.454
11624DT     SC175549  61.041  77.212  94.336
11624DT     SC275550  60.925  77.100  94.479
11624DT     SC375551  61.020  76.995  94.187
11625DA     BB175552  61.108  77.778  94.671
11625DA     BB275553  61.042  77.499  94.899
11625DA     BB375554  61.223  77.395  94.944
11625DA     SC175555  61.195  77.194  94.708
11625DA     SC275556  61.149  76.951  94.677
11625DA     SC375557  61.255  76.981  94.445
11625DA     SC475558  61.265  77.233  94.568
11626DT     BB175559  61.274  77.406  95.126
11626DT     BB275560  61.188  77.068  95.217
11626DT     BB375561  61.358  76.951  95.223
11626DT     SC175562  61.372  76.943  94.961
11626DT     SC275563  61.327  76.744  94.893
11626DT     SC375564  61.463  76.979  94.716
11627DG     BB175565  61.167  76.932  95.583
11627DG     BB275566  61.235  76.603  95.449
11627DG     BB375567  61.428  76.559  95.472
11627DG     SC175568  61.512  76.677  95.203
11627DG     SC275569  61.616  76.524  94.969
11627DG     SC375570  61.642  76.816  94.924
11627DG     SC475571  61.551  76.832  95.195
11628DA     BB175572  61.314  76.265  95.618
11628DA     BB275573  61.496  76.071  95.365
11628DA     BB375574  61.705  76.074  95.406
11628DA     SC175575  61.760  76.327  95.233
11628DA     SC275576  61.874  76.383  95.019
11628DA     SC375577  61.880  76.623  95.108
11628DA     SC475578  61.755  76.469  95.307
11629DA     BB175579  61.668  75.746  95.391
11629DA     BB275580  61.905  75.751  95.111
11629DA     BB375581  62.104  75.780  95.183
11629DA     SC175582  62.092  76.090  95.162
11629DA     SC275583  62.194  76.270  95.022
11629DA     SC375584  62.129  76.428  95.214
11629DA     SC475585  62.045  76.172  95.293
11630DT     BB175586  62.247  75.629  95.167
11630DT     BB275587  62.436  75.778  94.898
11630DT     BB375588  62.614  75.854  94.970
11630DT     SC175589  62.492  76.058  95.082
11630DT     SC275590  62.544  76.238  94.976
11630DT     SC375591  62.402  76.222  95.268
11631DA     BB175592  62.722  75.605  94.651
11631DA     BB275593  62.890  75.927  94.602
11631DA     BB375594  63.054  75.946  94.736
11631DA     SC175595  62.886  76.081  94.960
11631DA     SC275596  62.867  76.306  95.067
11631DA     SC375597  62.757  76.182  95.262
11631DA     SC475598  62.821  75.986  95.072
11632DT     BB175599  63.240  75.953  94.658
11632DT     BB275600  63.291  76.307  94.705
11632DT     BB375601  63.419  76.339  94.864
11632DT     SC175602  63.232  76.280  95.038
11632DT     SC275603  63.174  76.458  95.144
11632DT     SC375604  63.103  76.153  95.230
11633DC     BB175605  63.601  76.417  94.685
11633DC     BB275606  63.560  76.700  94.905
11633DC     BB375607  63.681  76.677  95.071
11633DC     SC175608  63.521  76.496  95.173
11633DC     SC275609  63.422  76.577  95.346
11633DC     SC375610  63.434  76.264  95.263
11634DT     BB175611  63.826  76.875  94.970
11634DT     BB275612  63.726  76.990  95.297
11634DT     BB375613  63.855  76.915  95.441
11634DT     SC175614  63.749  76.676  95.424
11634DT     SC275615  63.640  76.633  95.604
11634DT     SC375616  63.726  76.417  95.378
11635DT     BB175617  63.943  77.165  95.465
11635DT     BB275618  63.836  77.071  95.797
11635DT     BB375619  63.986  76.965  95.892
11635DT     SC175620  63.938  76.751  95.748
11635DT     SC275621  63.852  76.599  95.874
11635DT     SC375622  63.974  76.554  95.577
11636DA     BB175623  63.859  77.275  96.147
11636DA     BB275624  63.871  76.964  96.342
11636DA     BB375625  64.073  76.906  96.376
11636DA     SC175626  64.093  76.732  96.120
11636DA     SC275627  64.110  76.489  96.062
11636DA     SC375628  64.200  76.571  95.836
11636DA     SC475629  64.148  76.802  95.986
11637DA     BB175630  63.972  76.904  96.690
11637DA     BB275631  64.060  76.548  96.697
11637DA     BB375632  64.272  76.524  96.708
11637DA     SC175633  64.311  76.516  96.399
11637DA     SC275634  64.374  76.348  96.226
11637DA     SC375635  64.430  76.551  96.079
11637DA     SC475636  64.341  76.655  96.324
11638DA     BB175637  64.204  76.340  96.974
11638DA     BB275638  64.359  76.059  96.798
11638DA     BB375639  64.572  76.076  96.804
11638DA     SC175640  64.591  76.237  96.538
11638DA     SC275641  64.673  76.200  96.306
11638DA     SC375642  64.680  76.456  96.290
11638DA     SC475643  64.589  76.397  96.548
11639DA     BB175644  64.559  75.771  96.932
11639DA     BB275645  64.750  75.659  96.640
11639DA     BB375646  64.956  75.709  96.661
11639DA     SC175647  64.928  75.986  96.522
11639DA     SC275648  64.999  76.093  96.308
11639DA     SC375649  64.959  76.315  96.429
11639DA     SC475650  64.898  76.114  96.615
11640DC     BB175651  65.098  75.559  96.682
11640DC     BB275652  65.231  75.585  96.347
11640DC     BB375653  65.417  75.675  96.351
11640DC     SC175654  65.311  75.911  96.394
11640DC     SC275655  65.337  76.034  96.220
11640DC     SC375656  65.251  76.138  96.514
11641DC     BB175657  65.531  75.436  96.293
11641DC     BB275658  65.636  75.657  96.027
11641DC     BB375659  65.807  75.758  96.083
11641DC     SC175660  65.672  75.915  96.244
11641DC     SC275661  65.669  76.114  96.163
11641DC     SC375662  65.588  76.030  96.466
11642DT     BB175663  65.938  75.608  95.904
11642DT     BB275664  65.998  75.949  95.802
11642DT     BB375665  66.159  76.027  95.906
11642DT     SC175666  66.016  76.052  96.124
11642DT     SC275667  65.983  76.260  96.165
11642DT     SC375668  65.933  76.016  96.372
11643DA     BB175669  66.210  76.094  95.496
11643DA     BB275670  66.272  76.410  95.672
11643DA     BB375671  66.457  76.401  95.777
11643DA     SC175672  66.331  76.293  96.040
11643DA     SC275673  66.288  76.375  96.271
11643DA     SC375674  66.270  76.127  96.335
11643DA     SC475675  66.325  76.133  96.060
11644DA     BB175676  66.490  76.676  95.604
11644DA     BB275677  66.532  76.848  95.924
11644DA     BB375678  66.723  76.802  96.009
11644DA     SC175679  66.621  76.556  96.168
11644DA     SC275680  66.581  76.493  96.407
11644DA     SC375681  66.590  76.251  96.323
11644DA     SC475682  66.630  76.412  96.097
11645DT     BB175683  66.850  76.951  96.023
11645DT     BB275684  66.835  76.993  96.381
11645DT     BB375685  67.003  76.910  96.469
11645DT     SC175686  66.912  76.667  96.431
11645DT     SC275687  66.860  76.580  96.621
11645DT     SC375688  66.895  76.420  96.341
11646DT     BB175689  67.103  77.159  96.522
11646DT     BB275690  67.099  76.995  96.843
11646DT     BB375691  67.275  76.889  96.871
11646DT     SC175692  67.197  76.702  96.705
11646DT     SC275693  67.158  76.521  96.815
11646DT     SC375694  67.192  76.544  96.493
11647DA     BB175695  67.246  77.133  97.212
11647DA     BB275696  67.323  76.793  97.327
11647DA     BB375697  67.528  76.747  97.290
11647DA     SC175698  67.476  76.627  97.008
11647DA     SC275699  67.481  76.403  96.899
11647DA     SC375700  67.498  76.533  96.679
11647DA     SC475701  67.487  76.726  96.882
11648DT     BB175702  67.678  76.720  97.449
11648DT     BB275703  67.705  76.361  97.421
11648DT     BB375704  67.888  76.310  97.339
11648DT     SC175705  67.810  76.385  97.100
11648DT     SC275706  67.788  76.212  96.974
11648DT     SC375707  67.799  76.520  96.873
11649DT     BB175708  68.003  76.218  97.580
11649DT     BB275709  68.036  75.936  97.357
11649DT     BB375710  68.217  75.944  97.258
11649DT     SC175711  68.133  76.138  97.102
11649DT     SC275712  68.112  76.063  96.901
11649DT     SC375713  68.115  76.376  96.989
11650DA     BB175714  68.213  75.562  97.430
11650DA     BB275715  68.302  75.521  97.077
11650DA     BB375716  68.506  75.578  97.045
11650DA     SC175717  68.439  75.875  96.982
11650DA     SC275718  68.442  76.026  96.784
11650DA     SC375719  68.444  76.217  96.955
11650DA     SC475720  68.441  75.979  97.104
11651DC     BB175721  68.655  75.434  96.989
11651DC     BB275722  68.680  75.534  96.643
11651DC     BB375723  68.860  75.630  96.610
11651DC     SC175724  68.776  75.847  96.731
11651DC     SC275725  68.750  76.004  96.587
11651DC     SC375726  68.759  76.041  96.908
11652DT     BB175727  68.938  75.414  96.471
11652DT     BB275728  68.963  75.688  96.239
11652DT     BB375729  69.146  75.783  96.261
11652DT     SC175730  69.068  75.898  96.484
11652DT     SC275731  69.046  76.109  96.452
11652DT     SC375732  69.058  75.961  96.740
11653DA     BB175733  69.078  75.694  95.857
11653DA     BB275734  69.180  76.045  95.882
11653DA     BB375735  69.387  76.059  95.931
11653DA     SC175736  69.338  76.064  96.238
11653DA     SC275737  69.357  76.228  96.426
11653DA     SC375738  69.362  76.022  96.578
11653DA     SC475739  69.341  75.923  96.316
11654DA     BB175740  69.357  76.249  95.667
11654DA     BB275741  69.478  76.522  95.879
11654DA     BB375742  69.686  76.495  95.923
11654DA     SC175743  69.634  76.331  96.183
11654DA     SC275744  69.661  76.363  96.429
11654DA     SC375745  69.652  76.107  96.442
11654DA     SC475746  69.628  76.171  96.170
11655DA     BB175747  69.682  76.802  95.808
11655DA     BB275748  69.820  76.902  96.133
11655DA     BB375749  70.023  76.841  96.149
11655DA     SC175750  69.955  76.565  96.277
11655DA     SC275751  69.979  76.454  96.499
11655DA     SC375752  69.951  76.234  96.368
11655DA     SC475753  69.937  76.440  96.178
11656DC     BB175754  70.163  76.983  96.157
11656DC     BB275755  70.246  76.947  96.507
11656DC     BB375756  70.425  76.845  96.527
11656DC     SC175757  70.310  76.617  96.466
11656DC     SC275758  70.304  76.492  96.641
11656DC     SC375759  70.252  76.395  96.336
11657DA     BB175760  70.479  77.197  96.750
11657DA     BB275761  70.588  76.916  96.959
11657DA     BB375762  70.776  76.842  96.892
11657DA     SC175763  70.652  76.634  96.697
11657DA     SC275764  70.632  76.386  96.681
11657DA     SC375765  70.588  76.426  96.431
11657DA     SC475766  70.629  76.679  96.545
11658DC     BB175767  70.961  76.861  97.007
11658DC     BB275768  70.980  76.515  97.109
11658DC     BB375769  71.134  76.420  97.008
11658DC     SC175770  70.994  76.412  96.786
11658DC     SC275771  70.940  76.208  96.744
11658DC     SC375772  70.922  76.457  96.537
11659DT     BB175773  71.305  76.410  97.230
11659DT     BB275774  71.271  76.065  97.129
11659DT     BB375775  71.419  76.017  96.992
11659DT     SC175776  71.297  76.150  96.801
11659DT     SC275777  71.220  76.011  96.656
11659DT     SC375778  71.251  76.332  96.616
11660DT     BB175779  71.557  75.864  97.176
11660DT     BB275780  71.484  75.636  96.905
11660DT     BB375781  71.636  75.643  96.765
11660DT     SC175782  71.553  75.875  96.675
11660DT     SC275783  71.472  75.850  96.477
11660DT     SC375784  71.552  76.132  96.615
11661DT     BB175785  71.714  75.396  96.844
11661DT     BB275786  71.639  75.361  96.493
11661DT     BB375787  71.805  75.410  96.379
11661DT     SC175788  71.772  75.666  96.425
11661DT     SC275789  71.711  75.764  96.243
11661DT     SC375790  71.818  75.911  96.511
11662DA     BB175791  71.643  75.043  96.261
11662DA     BB275792  71.693  75.250  95.962
11662DA     BB375793  71.901  75.268  95.918
11662DA     SC175794  71.939  75.526  96.088
11662DA     SC275795  71.983  75.768  96.049
11662DA     SC375796  72.061  75.773  96.293
11662DA     SC475797  71.984  75.508  96.242
11663DA     BB175798  71.764  75.171  95.640
11663DA     BB275799  71.897  75.480  95.495
11663DA     BB375800  72.109  75.469  95.477
11663DA     SC175801  72.164  75.591  95.758
11663DA     SC275802  72.256  75.803  95.852
11663DA     SC375803  72.293  75.667  96.067
11663DA     SC475804  72.180  75.489  95.881
11664DA     BB175805  72.006  75.559  95.180
11664DA     BB275806  72.218  75.855  95.223
11664DA     BB375807  72.424  75.800  95.215
11664DA     SC175808  72.449  75.753  95.521
11664DA     SC275809  72.560  75.861  95.716
11664DA     SC375810  72.531  75.634  95.833
11664DA     SC475811  72.423  75.604  95.576
11665DT     BB175812  72.522  75.870  95.064
11665DT     BB275813  72.721  76.112  95.242
11665DT     BB375814  72.912  76.039  95.271
11665DT     SC175815  72.830  75.876  95.460
11665DT     SC275816  72.906  75.943  95.650
11665DT     SC375817  72.775  75.653  95.588
11666DA     BB175818  72.965  76.415  95.092
11666DA     BB275819  73.195  76.395  95.377
11666DA     BB375820  73.359  76.267  95.331
11666DA     SC175821  73.221  76.011  95.440
11666DA     SC275822  73.247  75.855  95.633
11666DA     SC375823  73.112  75.689  95.492
11666DA     SC475824  73.137  75.922  95.336
11667DC     BB175825  73.565  76.337  95.305
11667DC     BB275826  73.697  76.205  95.614
11667DC     BB375827  73.820  76.043  95.575
11667DC     SC175828  73.614  75.889  95.525
11667DC     SC275829  73.595  75.743  95.681
11667DC     SC375830  73.447  75.733  95.393
11668DC     BB175831  74.073  76.174  95.617
11668DC     BB275832  74.087  75.891  95.841
11668DC     BB375833  74.177  75.730  95.746
11668DC     SC175834  73.962  75.685  95.602
11668DC     SC275835  73.871  75.501  95.666
11668DC     SC375836  73.806  75.661  95.391
11669DA     BB175837  74.417  75.766  96.090
11669DA     BB275838  74.317  75.414  96.066
11669DA     BB375839  74.436  75.314  95.920
11669DA     SC175840  74.241  75.372  95.685
11669DA     SC275841  74.084  75.245  95.539
11669DA     SC375842  74.103  75.444  95.379
11669DA     SC475843  74.267  75.505  95.598
11670DA     BB175844  74.513  75.100  96.161
11670DA     BB275845  74.344  74.841  95.964
11670DA     BB375846  74.473  74.768  95.811
11670DA     SC175847  74.377  74.975  95.599
11670DA     SC275848  74.245  74.974  95.387
11670DA     SC375849  74.359  75.200  95.340
11670DA     SC475850  74.459  75.113  95.587
11671DA     BB175851  74.405  74.480  95.948
11671DA     BB275852  74.248  74.386  95.630
11671DA     BB375853  74.398  74.332  95.488
11671DA     SC175854  74.428  74.619  95.374
11671DA     SC275855  74.374  74.741  95.163
11671DA     SC375856  74.549  74.912  95.241
11671DA     SC475857  74.541  74.714  95.439
11672DA     BB175858  74.196  74.077  95.484
11672DA     BB275859  74.137  74.157  95.131
11672DA     BB375860  74.307  74.103  95.014
11672DA     SC175861  74.445  74.380  95.041
11672DA     SC275862  74.498  74.576  94.896
11672DA     SC375863  74.674  74.635  95.073
11672DA     SC475864  74.550  74.400  95.162
11673DT     BB175865  74.268  73.967  94.891
11673DT     BB275866  74.269  74.171  94.594
11673DT     BB375867  74.448  74.149  94.493
11673DT     SC175868  74.574  74.296  94.670
11673DT     SC275869  74.631  74.483  94.580
11673DT     SC375870  74.744  74.365  94.860
11674DC     BB175871  74.310  74.016  94.308
11674DC     BB275872  74.471  74.284  94.128
11674DC     BB375873  74.663  74.229  94.077
11674DC     SC175874  74.747  74.261  94.323
11674DC     SC275875  74.877  74.432  94.333
11674DC     SC375876  74.845  74.205  94.562
11675DG     BB175877  74.472  74.320  93.728
11675DG     BB275878  74.787  74.496  93.755
11675DG     BB375879  74.937  74.374  93.710
11675DG     SC175880  74.976  74.276  93.998
11675DG     SC275881  75.214  74.329  94.170
11675DG     SC375882  75.032  74.133  94.297
11675DG     SC475883  74.891  74.150  94.049
11676DA     BB175884  75.053  74.606  93.476
11676DA     BB275885  75.373  74.631  93.653
11676DA     BB375886  75.496  74.463  93.607
11676DA     SC175887  75.393  74.291  93.844
11676DA     SC275888  75.480  74.203  94.060
11676DA     SC375889  75.288  74.033  94.045
11676DA     SC475890  75.268  74.193  93.816
11677DT     BB175891  75.679  74.481  93.493
11677DT     BB275892  75.906  74.438  93.770
11677DT     BB375893  75.998  74.253  93.757
11677DT     SC175894  75.780  74.130  93.835
11677DT     SC275895  75.811  74.049  94.032
11677DT     SC375896  75.570  73.971  93.830
11678DC     BB175897  76.240  74.365  93.683
11678DC     BB275898  76.318  74.176  93.980
11678DC     BB375899  76.370  73.982  93.928
11678DC     SC175900  76.120  73.920  93.879
11678DC     SC275901  76.049  73.783  94.029
11678DC     SC375902  75.903  73.847  93.747
11679DC     BB175903  76.625  74.040  93.993
11679DC     BB275904  76.537  73.760  94.203
11679DC     BB375905  76.571  73.582  94.102
11679DC     SC175906  76.358  73.618  93.953
11679DC     SC275907  76.208  73.473  94.007
11679DC     SC375908  76.208  73.655  93.740
11680DA     BB175909  76.747  73.570  94.482
11680DA     BB275910  76.555  73.262  94.435
11680DA     BB375911  76.652  73.134  94.293
11680DA     SC175912  76.501  73.252  94.048
11680DA     SC275913  76.327  73.177  93.885
11680DA     SC375914  76.415  73.366  93.736
11680DA     SC475915  76.571  73.373  93.969
11681DT     BB175916  76.712  72.974  94.369
11681DT     BB275917  76.470  72.754  94.218
11681DT     BB375918  76.554  72.657  94.056
11681DT     SC175919  76.540  72.874  93.909
11681DT     SC275920  76.392  72.847  93.755
11681DT     SC375921  76.616  73.082  93.765
11682DA     BB175922  76.373  72.371  94.305
11682DA     BB275923  76.273  72.301  93.959
11682DA     BB375924  76.438  72.225  93.848
11682DA     SC175925  76.534  72.504  93.751
11682DA     SC275926  76.543  72.633  93.537
11682DA     SC375927  76.722  72.775  93.654
11682DA     SC475928  76.644  72.580  93.841
11683DA     BB175929  76.233  71.973  93.778
11683DA     BB275930  76.274  72.058  93.423
11683DA     BB375931  76.463  71.990  93.352
11683DA     SC175932  76.612  72.255  93.420
11683DA     SC275933  76.716  72.445  93.297
11683DA     SC375934  76.844  72.490  93.515
11683DA     SC475935  76.683  72.265  93.564
11684DA     BB175936  76.300  71.822  93.113
11684DA     BB275937  76.478  72.025  92.866
11684DA     BB375938  76.676  71.950  92.836
11684DA     SC175939  76.803  72.128  93.057
11684DA     SC275940  76.958  72.323  93.069
11684DA     SC375941  76.995  72.252  93.313
11684DA     SC475942  76.814  72.067  93.205
11685DG     BB175943  76.611  71.888  92.530
11685DG     BB275944  76.860  72.143  92.468
11685DG     BB375945  77.041  72.061  92.462
11685DG     SC175946  77.093  72.093  92.762
11685DG     SC275947  77.298  72.272  92.887
11685DG     SC375948  77.175  72.094  93.089
11685DG     SC475949  77.047  71.977  92.862
11686DC     BB175950  77.186  72.056  92.272
11686DC     BB275951  77.421  72.314  92.364
11686DC     BB375952  77.604  72.229  92.412
11686DC     SC175953  77.512  72.143  92.642
11686DC     SC275954  77.605  72.253  92.802
11686DC     SC375955  77.439  71.977  92.834
11687DT     BB175956  77.710  72.327  92.182
11687DT     BB275957  77.913  72.469  92.444
11687DT     BB375958  78.067  72.340  92.491
11687DT     SC175959  77.904  72.178  92.619
11687DT     SC275960  77.946  72.187  92.830
11687DT     SC375961  77.768  71.961  92.680
11688DA     BB175962  78.205  72.730  92.428
11688DA     BB275963  78.345  72.607  92.745
11688DA     BB375964  78.492  72.457  92.708
11688DA     SC175965  78.290  72.221  92.719
11688DA     SC275966  78.238  72.030  92.870
11688DA     SC375967  78.121  71.927  92.666
11688DA     SC475968  78.223  72.173  92.581
11689DT     BB175969  78.648  72.518  92.767
11689DT     BB275970  78.675  72.306  93.057
11689DT     BB375971  78.791  72.140  93.012
11689DT     SC175972  78.597  72.031  92.874
11689DT     SC275973  78.523  71.859  92.978
11689DT     SC375974  78.463  71.933  92.669
11690DG     BB175975  78.935  72.340  93.337
11690DG     BB275976  78.900  71.986  93.402
11690DG     BB375977  79.044  71.885  93.308
11690DG     SC175978  78.884  71.847  93.050
11690DG     SC275979  78.783  71.587  92.943
11690DG     SC375980  78.745  71.804  92.746
11690DG     SC475981  78.892  71.959  92.936
11691DA     BB175982  79.108  71.733  93.616
11691DA     BB275983  79.058  71.402  93.466
11691DA     BB375984  79.225  71.351  93.344
11691DA     SC175985  79.104  71.473  93.085
11691DA     SC275986  79.013  71.392  92.867
11691DA     SC375987  79.058  71.630  92.782
11691DA     SC475988  79.141  71.626  93.050
11692DT     BB175989  79.361  71.194  93.394
11692DT     BB275990  79.257  70.957  93.143
11692DT     BB375991  79.400  70.945  92.994
11692DT     SC175992  79.327  71.177  92.894
11692DT     SC275993  79.232  71.146  92.704
11692DT     SC375994  79.339  71.429  92.820
11693DA     BB175995  79.362  70.541  93.108
11693DA     BB275996  79.343  70.550  92.742
11693DA     BB375997  79.538  70.575  92.659
11693DA     SC175998  79.523  70.886  92.655
11693DA     SC275999  79.505  71.067  92.485
11693DA     SC376000  79.594  71.221  92.670
11693DA     SC476001  79.580  70.965  92.782
11694DC     BB176002  79.647  70.420  92.540
11694DC     BB276003  79.603  70.574  92.217
11694DC     BB376004  79.784  70.646  92.148
11694DC     SC176005  79.776  70.849  92.315
11694DC     SC276006  79.744  71.031  92.205
11694DC     SC376007  79.841  71.009  92.514
11695DC     BB176008  79.813  70.445  91.958
11695DC     BB276009  79.832  70.750  91.766
11695DC     BB376010  80.029  70.814  91.755
11695DC     SC176011  80.024  70.898  92.003
11695DC     SC276012  80.032  71.113  92.006
11695DC     SC376013  80.083  70.917  92.260
11696DG     BB176014  79.915  70.762  91.366
11696DG     BB276015  80.056  71.091  91.416
11696DG     BB376016  80.255  71.081  91.416
11696DG     SC176017  80.277  71.033  91.718
11696DG     SC276018  80.396  71.221  91.917
11696DG     SC376019  80.337  70.959  92.041
11696DG     SC476020  80.272  70.883  91.773
11697DT     BB176021  80.393  71.183  91.258
11697DT     BB276022  80.528  71.458  91.448
11697DT     BB376023  80.726  71.420  91.496
11697DT     SC176024  80.656  71.246  91.680
11697DT     SC276025  80.700  71.326  91.875
11697DT     SC376026  80.630  71.017  91.808
11698DA     BB176027  80.747  71.796  91.307
11698DA     BB276028  80.936  71.823  91.620
11698DA     BB376029  81.126  71.728  91.600
11698DA     SC176030  81.026  71.451  91.698
11698DA     SC276031  81.055  71.304  91.898
11698DA     SC376032  80.975  71.114  91.745
11698DA     SC476033  80.975  71.346  91.587
11699DT     BB176034  81.335  71.833  91.597
11699DT     BB276035  81.431  71.735  91.931
11699DT     BB376036  81.588  71.599  91.922
11699DT     SC176037  81.427  71.407  91.845
11699DT     SC276038  81.408  71.262  92.002
11699DT     SC376039  81.320  71.219  91.694
11700DG     BB176040  81.767  71.905  92.132
11700DG     BB276041  81.794  71.593  92.313
11700DG     BB376042  81.951  71.490  92.248
11700DG     SC176043  81.795  71.342  92.030
11700DG     SC276044  81.738  71.049  92.024
11700DG     SC376045  81.659  71.177  91.769
11700DG     SC476046  81.782  71.409  91.885
11701DT     BB176047  82.150  71.429  92.378
11701DT     BB276048  82.070  71.084  92.446
11701DT     BB376049  82.199  70.960  92.342
11701DT     SC176050  82.076  71.009  92.115
11701DT     SC276051  81.972  70.832  92.051
11701DT     SC376052  82.034  71.093  91.869
11702DT     BB176053  82.306  70.898  92.579
11702DT     BB276054  82.180  70.587  92.446
11702DT     BB376055  82.322  70.501  92.322
11702DT     SC176056  82.271  70.674  92.131
11702DT     SC276057  82.174  70.574  91.968
11702DT     SC376058  82.307  70.870  91.958
11703DA     BB176059  82.155  70.238  92.603
11703DA     BB276060  82.139  70.082  92.272
11703DA     BB376061  82.335  70.031  92.204
11703DA     SC176062  82.383  70.303  92.061
11703DA     SC276063  82.403  70.387  91.827
11703DA     SC376064  82.521  70.590  91.932
11703DA     SC476065  82.455  70.420  92.145
11704DT     BB176066  82.339  69.857  92.189
11704DT     BB276067  82.340  69.843  91.828
11704DT     BB376068  82.534  69.826  91.759
11704DT     SC176069  82.583  70.078  91.811
11704DT     SC276070  82.605  70.186  91.626
11704DT     SC376071  82.691  70.292  91.920
11705DA     BB176072  82.281  69.541  91.580
11705DA     BB276073  82.483  69.699  91.318
11705DA     BB376074  82.687  69.639  91.335
11705DA     SC176075  82.765  69.876  91.521
11705DA     SC276076  82.903  70.084  91.508
11705DA     SC376077  82.906  70.074  91.764
11705DA     SC476078  82.757  69.852  91.680
11706DC     BB176079  82.756  69.531  91.190
11706DC     BB276080  82.968  69.782  91.040
11706DC     BB376081  83.165  69.749  91.094
11706DC     SC176082  83.123  69.840  91.336
11706DC     SC276083  83.225  70.027  91.361
11706DC     SC376084  83.102  69.845  91.599
11707DT     BB176085  83.226  69.659  90.842
11707DT     BB276086  83.462  69.926  90.901
11707DT     BB376087  83.631  69.852  90.996
11707DT     SC176088  83.502  69.831  91.224
11707DT     SC276089  83.579  69.977  91.362
11707DT     SC376090  83.392  69.723  91.438
11708DA     BB176091  83.778  70.056  90.660
11708DA     BB276092  83.972  70.167  90.950
11708DA     BB376093  84.111  70.016  91.009
11708DA     SC176094  83.914  69.879  91.208
11708DA     SC276095  83.891  69.852  91.455
11708DA     SC376096  83.739  69.653  91.398
11708DA     SC476097  83.824  69.758  91.152
11709DT     BB176098  84.318  70.045  90.990
11709DT     BB276099  84.387  70.095  91.341
11709DT     BB376100  84.484  69.929  91.418
11709DT     SC176101  84.262  69.789  91.417
11709DT     SC276102  84.199  69.754  91.620
11709DT     SC376103  84.088  69.600  91.357
11710DC     BB176104  84.714  70.072  91.434
11710DC     BB276105  84.655  69.956  91.770
11710DC     BB376106  84.737  69.768  91.795
11710DC     SC176107  84.543  69.657  91.657
11710DC     SC276108  84.419  69.541  91.789
11710DC     SC376109  84.419  69.526  91.465
11711DA     BB176110  84.880  70.008  92.107
11711DA     BB276111  84.757  69.696  92.254
11711DA     BB376112  84.891  69.536  92.213
11711DA     SC176113  84.750  69.453  91.948
11711DA     SC276114  84.613  69.262  91.864
11711DA     SC376115  84.679  69.344  91.631
11711DA     SC476116  84.803  69.518  91.812
11712DA     BB176117  84.863  69.514  92.538
11712DA     BB276118  84.733  69.176  92.481
11712DA     BB376119  84.890  69.045  92.422
11712DA     SC176120  84.852  69.098  92.118
11712DA     SC276121  84.771  68.973  91.917
11712DA     SC376122  84.900  69.148  91.781
11712DA     SC476123  84.940  69.215  92.051
11713DG     BB176124  84.799  68.898  92.678
11713DG     BB276125  84.712  68.639  92.440
11713DG     BB376126  84.875  68.537  92.388
11713DG     SC176127  84.944  68.720  92.153
11713DG     SC276128  84.938  68.644  91.864
11713DG     SC376129  85.060  68.911  91.900
11713DG     SC476130  85.036  68.849  92.179
11714DA     BB176131  84.682  68.263  92.469
11714DA     BB276132  84.725  68.135  92.128
11714DA     BB376133  84.923  68.060  92.102
11714DA     SC176134  85.038  68.332  92.002
11714DA     SC276135  85.124  68.429  91.789
11714DA     SC376136  85.239  68.603  91.938
11714DA     SC476137  85.103  68.430  92.111
11715DT     BB176138  84.930  67.875  92.070
11715DT     BB276139  85.013  67.890  91.720
11715DT     BB376140  85.216  67.858  91.694
11715DT     SC176141  85.273  68.098  91.781
11715DT     SC276142  85.346  68.218  91.618
11715DT     SC376143  85.371  68.291  91.933
11716DT     BB176144  85.150  67.622  91.590
11716DT     BB276145  85.347  67.783  91.335
11716DT     BB376146  85.548  67.755  91.373
11716DT     SC176147  85.544  67.931  91.568
11716DT     SC276148  85.655  68.106  91.509
11716DT     SC376149  85.561  68.033  91.811
11717DT     BB176150  85.561  67.583  91.165
11717DT     BB276151  85.815  67.829  91.094
11717DT     BB376152  85.991  67.778  91.190
11717DT     SC176153  85.895  67.854  91.422
11717DT     SC276154  85.997  68.033  91.487
11717DT     SC376155  85.811  67.843  91.672
11718DA     BB176156  86.112  67.823  90.789
11718DA     BB276157  86.351  68.009  90.996
11718DA     BB376158  86.483  67.874  91.095
11718DA     SC176159  86.304  67.847  91.348
11718DA     SC276160  86.311  67.916  91.588
11718DA     SC376161  86.137  67.731  91.625
11718DA     SC476162  86.197  67.727  91.351
11719DA     BB176163  86.751  68.031  90.960
11719DA     BB276164  86.858  68.117  91.300
11719DA     BB376165  86.959  67.951  91.389
11719DA     SC176166  86.701  67.830  91.514
11719DA     SC276167  86.603  67.800  91.741
11719DA     SC376168  86.458  67.618  91.632
11719DA     SC476169  86.621  67.720  91.428
11720DA     BB176170  87.241  68.133  91.448
11720DA     BB276171  87.182  68.087  91.807
11720DA     BB376172  87.263  67.901  91.873
11720DA     SC176173  87.001  67.742  91.821
11720DA     SC276174  86.824  67.629  91.956
11720DA     SC376175  86.770  67.500  91.741
11720DA     SC476176  86.984  67.671  91.678
11721DG     BB176177  87.477  68.037  92.074
11721DG     BB276178  87.268  67.888  92.329
11721DG     BB376179  87.337  67.707  92.376
11721DG     SC176180  87.170  67.562  92.164
11721DG     SC276181  86.947  67.371  92.217
11721DG     SC376182  87.018  67.373  91.930
11721DG     SC476183  87.231  67.544  92.017
11722DA     BB176184  87.346  67.799  92.709
11722DA     BB276185  87.091  67.548  92.787
11722DA     BB376186  87.181  67.356  92.811
11722DA     SC176187  87.151  67.277  92.512
11722DA     SC276188  87.017  67.116  92.376
11722DA     SC376189  87.197  67.149  92.196
11722DA     SC476190  87.273  67.310  92.413
11723DC     BB176191  87.168  67.277  92.992
11723DC     BB276192  86.906  67.043  92.913
11723DC     BB376193  86.983  66.851  92.902
11723DC     SC176194  87.094  66.901  92.669
11723DC     SC276195  86.993  66.790  92.516
11723DC     SC376196  87.280  66.936  92.486
11724DT     BB176197  86.840  66.819  93.119
11724DT     BB276198  86.713  66.577  92.884
11724DT     BB376199  86.833  66.408  92.884
11724DT     SC176200  87.022  66.532  92.750
11724DT     SC276201  87.034  66.450  92.551
11724DT     SC376202  87.255  66.640  92.693
11725DA     BB176203  86.423  66.323  92.910
11725DA     BB276204  86.572  66.106  92.654
11725DA     BB376205  86.700  65.962  92.744
11725DA     SC176206  86.955  66.140  92.725
11725DA     SC276207  87.169  66.143  92.597
11725DA     SC376208  87.255  66.297  92.784
11725DA     SC476209  86.990  66.233  92.851
11726DG     BB176210  86.496  65.790  92.593
11726DG     BB276211  86.793  65.682  92.416
11726DG     BB376212  86.896  65.555  92.529
11726DG     SC176213  87.065  65.772  92.663
11726DG     SC276214  87.359  65.812  92.629
11726DG     SC376215  87.253  65.986  92.843
11726DG     SC476216  87.010  65.842  92.796
11727DT     BB176217  86.924  65.352  92.461
11727DT     BB276218  87.274  65.346  92.373
11727DT     BB376219  87.383  65.254  92.523
11727DT     SC176220  87.362  65.465  92.677
11727DT     SC276221  87.554  65.560  92.696
11727DT     SC376222  87.296  65.617  92.883
11728DA     BB176223  87.491  65.050  92.173
11728DA     BB276224  87.801  65.127  92.354
11728DA     BB376225  87.822  64.998  92.523
11728DA     SC176226  87.674  65.190  92.718
11728DA     SC276227  87.731  65.334  92.913
11728DA     SC376228  87.480  65.323  92.969
11728DA     SC476229  87.515  65.169  92.736
11729DA     BB176230  88.120  64.913  92.400
11729DA     BB276231  88.271  65.040  92.709
11729DA     BB376232  88.249  64.897  92.866
11729DA     SC176233  87.978  65.011  92.966
11729DA     SC276234  87.891  65.135  93.165
11729DA     SC376235  87.661  65.049  93.092
11729DA     SC476236  87.843  64.947  92.905
11730DG     BB176237  88.567  64.867  92.894
11730DG     BB276238  88.514  65.004  93.224
11730DG     BB376239  88.475  64.857  93.353
11730DG     SC176240  88.172  64.866  93.309
11730DG     SC276241  87.968  64.949  93.510
11730DG     SC376242  87.839  64.834  93.270
11730DG     SC476243  88.108  64.777  93.192
11731DT     BB176244  88.611  64.778  93.550
11731DT     BB276245  88.418  64.915  93.823
11731DT     BB376246  88.326  64.762  93.928
11731DT     SC176247  88.149  64.727  93.737
11731DT     SC276248  87.956  64.791  93.807
11731DT     SC376249  88.013  64.611  93.543
11732DT     BB176250  88.496  64.791  94.141
11732DT     BB276251  88.167  64.837  94.282
11732DT     BB376252  88.088  64.654  94.337
11732DT     SC176253  88.040  64.590  94.087
11732DT     SC276254  87.828  64.588  94.053
11732DT     SC376255  88.053  64.461  93.857
11733DA     BB176256  88.058  64.906  94.671
11733DA     BB276257  87.729  64.755  94.613
11733DA     BB376258  87.730  64.550  94.672
11733DA     SC176259  87.814  64.445  94.391
11733DA     SC276260  87.711  64.316  94.204
11733DA     SC376261  87.953  64.269  94.131
11733DA     SC476262  87.971  64.426  94.363
11734DT     BB176263  87.614  64.499  94.826
11734DT     BB276264  87.357  64.339  94.630
11734DT     BB376265  87.373  64.133  94.646
11734DT     SC176266  87.582  64.129  94.488
11734DT     SC276267  87.529  64.037  94.301
11734DT     SC376268  87.831  64.095  94.406
11735DG     BB176269  87.001  64.253  94.759
11735DG     BB276270  86.989  64.001  94.500
11735DG     BB376271  87.028  63.822  94.578
11735DG     SC176272  87.331  63.843  94.534
11735DG     SC276273  87.492  63.676  94.346
11735DG     SC376274  87.667  63.840  94.519
11735DG     SC476275  87.421  63.909  94.648
11736DA     BB176276  86.741  63.752  94.404
11736DA     BB276277  86.927  63.503  94.211
11736DA     BB376278  86.973  63.334  94.333
11736DA     SC176279  87.247  63.446  94.428
11736DA     SC276280  87.489  63.396  94.395
11736DA     SC376281  87.525  63.529  94.611
11736DA     SC476282  87.249  63.531  94.565
11737DC     BB176283  86.890  63.195  94.263
11737DC     BB276284  87.182  63.032  94.127
11737DC     BB376285  87.251  62.889  94.260
11737DC     SC176286  87.352  63.074  94.417
11737DC     SC276287  87.566  63.065  94.410
11737DC     SC376288  87.390  63.223  94.631
11738DA     BB176289  87.217  62.744  93.865
11738DA     BB276290  87.545  62.649  93.999
11738DA     BB376291  87.523  62.505  94.154
11738DA     SC176292  87.506  62.718  94.381
11738DA     SC276293  87.646  62.796  94.572
11738DA     SC376294  87.427  62.892  94.666
11738DA     SC476295  87.359  62.769  94.424
11739DG     BB176296  87.704  62.359  93.951
11739DG     BB276297  87.936  62.367  94.229
11739DG     BB376298  87.883  62.232  94.365
11739DG     SC176299  87.702  62.423  94.521
11739DG     SC276300  87.750  62.523  94.798
11739DG     SC376301  87.480  62.599  94.704
11739DG     SC476302  87.548  62.436  94.478
11740DG     BB176303  88.184  62.108  94.325
11740DG     BB276304  88.233  62.179  94.676
11740DG     BB376305  88.145  62.039  94.786
11740DG     SC176306  87.876  62.186  94.801
11740DG     SC276307  87.754  62.303  95.047
11740DG     SC376308  87.563  62.309  94.822
11740DG     SC476309  87.767  62.160  94.687
11741DA     BB176310  88.448  61.994  94.958
11741DA     BB276311  88.283  62.075  95.276
11741DA     BB376312  88.165  61.910  95.342
11741DA     SC176313  87.906  62.006  95.197
11741DA     SC276314  87.683  62.097  95.260
11741DA     SC376315  87.609  62.022  95.026
11741DA     SC476316  87.879  61.950  95.049
11742DG     BB176317  88.340  61.875  95.609
11742DG     BB276318  88.033  61.961  95.778
11742DG     BB376319  87.925  61.797  95.811
11742DG     SC176320  87.774  61.811  95.545
11742DG     SC276321  87.482  61.864  95.512
11742DG     SC376322  87.605  61.786  95.255
11742DG     SC476323  87.838  61.741  95.416
11743DT     BB176324  87.863  61.690  96.031
11743DT     BB276325  87.516  61.788  96.053
11743DT     BB376326  87.395  61.622  96.029
11743DT     SC176327  87.441  61.615  95.771
11743DT     SC276328  87.262  61.670  95.665
11743DT     SC376329  87.524  61.528  95.536
11744DT     BB176330  87.322  61.609  96.300
11744DT     BB276331  87.007  61.637  96.127
11744DT     BB376332  86.932  61.449  96.084
11744DT     SC176333  87.107  61.416  95.890
11744DT     SC276334  87.005  61.418  95.701
11744DT     SC376335  87.308  61.316  95.752
11745DT     BB176336  86.740  61.482  96.273
11745DT     BB276337  86.557  61.418  95.969
11745DT     BB376338  86.532  61.214  95.943
11745DT     SC176339  86.783  61.184  95.872
11745DT     SC276340  86.793  61.135  95.663
11745DT     SC376341  87.035  61.105  95.877
11746DT     BB176342  86.273  61.251  95.998
11746DT     BB276343  86.275  61.093  95.674
11746DT     BB376344  86.284  60.888  95.695
11746DT     SC176345  86.537  60.898  95.761
11746DT     SC276346  86.656  60.812  95.603
11746DT     SC376347  86.758  60.875  95.904
11747DA     BB176348  85.969  60.983  95.434
11747DA     BB276349  86.163  60.711  95.283
11747DA     BB376350  86.130  60.528  95.388
11747DA     SC176351  86.366  60.571  95.586
11747DA     SC276352  86.590  60.471  95.630
11747DA     SC376353  86.570  60.578  95.863
11747DA     SC476354  86.334  60.644  95.726
11748DT     BB176355  86.029  60.372  95.297
11748DT     BB276356  86.311  60.151  95.252
11748DT     BB376357  86.302  59.996  95.390
11748DT     SC176358  86.378  60.155  95.584
11748DT     SC276359  86.576  60.101  95.647
11748DT     SC376360  86.371  60.292  95.809
11749DA     BB176361  86.323  59.774  95.030
11749DA     BB276362  86.566  59.624  95.260
11749DA     BB376363  86.466  59.501  95.404
11749DA     SC176364  86.429  59.730  95.611
11749DA     SC276365  86.519  59.792  95.835
11749DA     SC376366  86.310  59.939  95.856
11749DA     SC476367  86.293  59.814  95.605
11750DC     BB176368  86.457  59.243  95.437
11750DC     BB276369  86.672  59.236  95.728
11750DC     BB376370  86.565  59.171  95.893
11750DC     SC176371  86.440  59.401  95.913
11750DC     SC276372  86.508  59.504  96.089
11750DC     SC376373  86.245  59.578  95.915
11751DA     BB176374  86.862  58.866  95.912
11751DA     BB276375  86.847  59.014  96.247
11751DA     BB376376  86.689  58.927  96.360
11751DA     SC176377  86.477  59.136  96.271
11751DA     SC276378  86.348  59.324  96.373
11751DA     SC376379  86.188  59.295  96.175
11751DA     SC476380  86.388  59.102  96.141
11752DT     BB176381  86.716  58.797  96.546
11752DT     BB276382  86.634  59.061  96.778
11752DT     BB376383  86.455  59.019  96.873
11752DT     SC176384  86.318  59.080  96.658
11752DT     SC276385  86.208  59.262  96.692
11752DT     SC376386  86.159  59.054  96.449
11753DT     BB176387  86.594  58.974  97.099
11753DT     BB276388  86.371  59.247  97.177
11753DT     BB376389  86.188  59.173  97.239
11753DT     SC176390  86.122  59.107  96.994
11753DT     SC276391  85.964  59.235  96.926
11753DT     SC376392  86.057  58.958  96.787
11754DT     BB176393  86.268  59.276  97.465
11754DT     BB276394  85.960  59.446  97.385
11754DT     BB376395  85.799  59.328  97.439
11754DT     SC176396  85.837  59.168  97.234
11754DT     SC276397  85.677  59.194  97.093
11754DT     SC376398  85.889  58.949  97.097
11755DT     BB176399  85.774  59.521  97.609
11755DT     BB276400  85.464  59.512  97.425
11755DT     BB376401  85.343  59.359  97.497
11755DT     SC176402  85.491  59.177  97.379
11755DT     SC276403  85.380  59.089  97.217
11755DT     SC376404  85.653  58.971  97.347
11756DT     BB176405  85.199  59.560  97.583
11756DT     BB276406  84.976  59.362  97.380
11756DT     BB376407  84.907  59.200  97.489
11756DT     SC176408  85.138  59.076  97.466
11756DT     SC276409  85.115  58.906  97.337
11756DT     SC376410  85.366  58.963  97.533
11757DT     BB176411  84.668  59.320  97.500
11757DT     BB276412  84.599  58.995  97.358
11757DT     BB376413  84.576  58.856  97.510
11757DT     SC176414  84.835  58.851  97.555
11757DT     SC276415  84.914  58.661  97.493
11757DT     SC376416  85.065  58.878  97.680
11758DA     BB176417  84.229  58.815  97.276
11758DA     BB276418  84.362  58.479  97.335
11758DA     BB376419  84.322  58.418  97.535
11758DA     SC176420  84.590  58.530  97.648
11758DA     SC276421  84.804  58.440  97.740
11758DA     SC376422  84.833  58.672  97.845
11758DA     SC476423  84.589  58.680  97.706
11759DG     BB176424  84.149  58.177  97.424
11759DG     BB276425  84.406  57.974  97.577
11759DG     BB376426  84.362  57.943  97.769
11759DG     SC176427  84.511  58.192  97.868
11759DG     SC276428  84.757  58.194  98.036
11759DG     SC376429  84.646  58.467  98.009
11759DG     SC476430  84.432  58.331  97.875
11760DG     BB176431  84.356  57.613  97.730
11760DG     BB276432  84.639  57.602  97.955
11760DG     BB376433  84.575  57.597  98.143
11760DG     SC176434  84.570  57.902  98.175
11760DG     SC276435  84.748  58.062  98.354
11760DG     SC376436  84.534  58.231  98.239
11760DG     SC476437  84.437  57.982  98.136
11761DT     BB176438  84.617  57.422  98.282
11761DT     BB276439  84.878  57.561  98.489
11761DT     BB376440  84.803  57.606  98.677
11761DT     SC176441  84.677  57.817  98.585
11761DT     SC276442  84.771  57.995  98.661
11761DT     SC376443  84.480  57.980  98.519
11762DA     BB176444  85.152  57.378  98.717
11762DA     BB276445  85.181  57.671  98.935
11762DA     BB376446  85.051  57.651  99.103
11762DA     SC176447  84.811  57.793  98.965
11762DA     SC276448  84.687  58.008  98.986
11762DA     SC376449  84.498  57.888  98.859
11762DA     SC476450  84.705  57.701  98.887
11763DG     BB176451  85.319  57.672  99.257
11763DG     BB276452  85.170  57.977  99.382
11763DG     BB376453  85.043  57.935  99.530
11763DG     SC176454  84.801  57.901  99.346
11763DG     SC276455  84.561  58.078  99.337
11763DG     SC376456  84.519  57.836  99.173
11763DG     SC476457  84.771  57.756  99.283
11764DT     BB176458  85.077  58.010  99.736
11764DT     BB276459  84.829  58.271  99.760
11764DT     BB376460  84.669  58.206  99.874
11764DT     SC176461  84.581  58.054  99.678
11764DT     SC276462  84.398  58.135  99.601
11764DT     SC376463  84.512  57.838  99.544
11765DT     BB176464  84.739  58.364 100.091
11765DT     BB276465  84.401  58.464 100.014
11765DT     BB376466  84.267  58.346 100.118
11765DT     SC176467  84.309  58.142  99.958
11765DT     SC276468  84.134  58.107  99.838
11765DT     SC376469  84.383  57.903  99.875
11766DA     BB176470  84.160  58.740 100.208
11766DA     BB276471  83.856  58.565 100.102
11766DA     BB376472  83.787  58.436 100.258
11766DA     SC176473  83.949  58.190 100.159
11766DA     SC276474  83.903  57.968 100.054
11766DA     SC376475  84.136  57.902 100.139
11766DA     SC476476  84.096  58.167 100.221
11767DT     BB176477  83.610  58.480 100.342
11767DT     BB276478  83.423  58.220 100.176
11767DT     BB376479  83.381  58.067 100.309
11767DT     SC176480  83.629  57.980 100.300
11767DT     SC276481  83.635  57.791 100.198
11767DT     SC376482  83.873  57.918 100.378
11768DG     BB176483  83.048  58.215 100.131
11768DG     BB276484  83.077  57.857 100.090
11768DG     BB376485  83.031  57.765 100.260
11768DG     SC176486  83.317  57.768 100.368
11768DG     SC276487  83.490  57.529 100.413
11768DG     SC376488  83.615  57.772 100.526
11768DG     SC476489  83.367  57.895 100.453
11769DT     BB176490  82.894  57.651 100.215
11769DT     BB276491  83.050  57.327 100.232
11769DT     BB376492  83.030  57.249 100.423
11769DT     SC176493  83.214  57.411 100.516
11769DT     SC276494  83.389  57.298 100.568
11769DT     SC376495  83.327  57.603 100.658
11770DA     BB176496  82.956  56.988 100.094
11770DA     BB276497  83.161  56.815 100.344
11770DA     BB376498  83.051  56.791 100.526
11770DA     SC176499  83.149  57.059 100.649
11770DA     SC276500  83.299  57.133 100.834
11770DA     SC376501  83.173  57.356 100.819
11770DA     SC476502  83.058  57.189 100.625
11771DG     BB176503  83.143  56.507 100.439
11771DG     BB276504  83.299  56.514 100.765
11771DG     BB376505  83.160  56.504 100.907
11771DG     SC176506  83.122  56.807 100.927
11771DG     SC276507  83.193  56.978 101.162
11771DG     SC376508  83.040  57.132 100.961
11771DG     SC476509  83.015  56.878 100.832
11772DT     BB176510  83.152  56.335 101.041
11772DT     BB276511  83.249  56.475 101.359
11772DT     BB376512  83.081  56.513 101.474
11772DT     SC176513  83.021  56.724 101.329
11772DT     SC276514  83.051  56.902 101.446
11772DT     SC376515  82.889  56.883 101.166
11773DT     BB176516  83.113  56.294 101.647
11773DT     BB276517  83.079  56.573 101.874
11773DT     BB376518  82.879  56.601 101.921
11773DT     SC176519  82.831  56.706 101.685
11773DT     SC276520  82.790  56.916 101.708
11773DT     SC376521  82.729  56.738 101.444
11774DA     BB176522  83.041  56.561 102.309
11774DA     BB276523  82.824  56.857 102.316
11774DA     BB376524  82.619  56.799 102.328
11774DA     SC176525  82.578  56.791 102.020
11774DA     SC276526  82.455  56.921 101.847
11774DA     SC376527  82.478  56.711 101.701
11774DA     SC476528  82.602  56.650 101.945
11775DT     BB176529  82.480  56.829 102.507
11775DT     BB276530  82.284  57.096 102.365
11775DT     BB376531  82.092  57.029 102.324
11775DT     SC176532  82.175  56.894 102.115
11775DT     SC276533  82.101  56.988 101.936
11775DT     SC376534  82.229  56.691 101.956
11776DA     BB176535  82.017  57.366 102.566
11776DA     BB276536  81.802  57.396 102.270
11776DA     BB376537  81.634  57.266 102.287
11776DA     SC176538  81.775  57.027 102.146
11776DA     SC276539  81.756  56.904 101.929
11776DA     SC376540  81.881  56.715 102.050
11776DA     SC476541  81.852  56.921 102.238
11777DA     BB176542  81.430  57.530 102.245
11777DA     BB276543  81.305  57.370 101.939
11777DA     BB376544  81.158  57.223 101.986
11777DA     SC176545  81.364  56.991 102.010
11777DA     SC276546  81.424  56.784 101.883
11777DA     SC376547  81.534  56.707 102.102
11777DA     SC476548  81.425  56.960 102.155
11778DA     BB176549  80.928  57.374 101.787
11778DA     BB276550  80.924  57.071 101.580
11778DA     BB376551  80.791  56.926 101.664
11778DA     SC176552  81.011  56.790 101.837
11778DA     SC276553  81.135  56.573 101.841
11778DA     SC376554  81.185  56.630 102.086
11778DA     SC476555  81.030  56.842 101.987
11779DG     BB176556  80.580  56.920 101.411
11779DG     BB276557  80.704  56.583 101.366
11779DG     BB376558  80.588  56.455 101.464
11779DG     SC176559  80.747  56.470 101.725
11779DG     SC276560  80.907  56.249 101.846
11779DG     SC376561  80.886  56.479 102.032
11779DG     SC476562  80.709  56.582 101.832
11780DC     BB176563  80.428  56.256 101.376
11780DC     BB276564  80.651  55.981 101.447
11780DC     BB376565  80.569  55.860 101.593
11780DC     SC176566  80.625  56.035 101.780
11780DC     SC276567  80.781  55.957 101.907
11780DC     SC376568  80.591  56.211 101.974
11781DA     BB176569  80.659  55.611 101.272
11781DA     BB276570  80.829  55.479 101.569
11781DA     BB376571  80.691  55.374 101.693
11781DA     SC176572  80.615  55.624 101.862
11781DA     SC276573  80.650  55.706 102.095
11781DA     SC376574  80.450  55.860 102.048
11781DA     SC476575  80.489  55.711 101.814
11782DA     BB176576  80.953  55.201 101.630
11782DA     BB276577  81.014  55.221 101.991
11782DA     BB376578  80.870  55.104 102.097
11782DA     SC176579  80.669  55.340 102.130
11782DA     SC276580  80.581  55.483 102.314
11782DA     SC376581  80.386  55.532 102.155
11782DA     SC476582  80.555  55.357 102.017
11783DA     BB176583  81.181  55.056 102.184
11783DA     BB276584  81.067  55.160 102.517
11783DA     BB376585  80.926  55.019 102.594
11783DA     SC176586  80.678  55.167 102.476
11783DA     SC276587  80.484  55.298 102.562
11783DA     SC376588  80.375  55.244 102.336
11783DA     SC476589  80.627  55.121 102.331
11784DA     BB176590  81.161  55.090 102.812
11784DA     BB276591  80.883  55.189 103.030
11784DA     BB376592  80.762  55.019 103.077
11784DA     SC176593  80.570  55.058 102.835
11784DA     SC276594  80.333  55.125 102.796
11784DA     SC376595  80.359  55.010 102.568
11784DA     SC476596  80.606  54.981 102.699
11785DT     BB176597  80.769  54.982 103.255
11785DT     BB276598  80.435  55.085 103.341
11785DT     BB376599  80.309  54.920 103.347
11785DT     SC176600  80.304  54.904 103.086
11785DT     SC276601  80.108  54.958 103.015
11785DT     SC376602  80.339  54.809 102.842
11786DA     BB176603  80.258  55.123 103.712
11786DA     BB276604  79.925  55.046 103.578
11786DA     BB376605  79.883  54.838 103.598
11786DA     SC176606  79.999  54.762 103.320
11786DA     SC276607  79.913  54.684 103.099
11786DA     SC376608  80.154  54.604 103.057
11786DA     SC476609  80.154  54.719 103.313
11787DT     BB176610  79.733  54.768 103.729
11787DT     BB276611  79.492  54.680 103.475
11787DT     BB376612  79.481  54.474 103.457
11787DT     SC176613  79.711  54.464 103.331
11787DT     SC276614  79.677  54.410 103.126
11787DT     SC376615  79.963  54.407 103.278
11788DT     BB176616  79.235  54.472 103.578
11788DT     BB276617  79.180  54.315 103.258
11788DT     BB376618  79.216  54.111 103.272
11788DT     SC176619  79.475  54.149 103.278
11788DT     SC276620  79.563  54.078 103.095
11788DT     SC376621  79.724  54.151 103.367
11789DA     BB176622  78.846  54.182 103.091
11789DA     BB276623  79.031  53.944 102.883
11789DA     BB376624  79.041  53.754 102.980
11789DA     SC176625  79.309  53.815 103.127
11789DA     SC276626  79.546  53.741 103.116
11789DA     SC376627  79.565  53.834 103.355
11789DA     SC476628  79.299  53.878 103.275
11790DA     BB176629  78.935  53.700 102.677
11790DA     BB276630  79.227  53.482 102.640
11790DA     BB376631  79.205  53.308 102.762
11790DA     SC176632  79.345  53.433 103.010
11790DA     SC276633  79.559  53.405 103.135
11790DA     SC376634  79.437  53.522 103.328
11790DA     SC476635  79.252  53.507 103.118
11791DT     BB176636  79.199  53.171 102.653
11791DT     BB276637  79.518  53.024 102.736
11791DT     BB376638  79.494  52.880 102.882
11791DT     SC176639  79.461  53.063 103.067
11791DT     SC276640  79.631  53.063 103.199
11791DT     SC376641  79.346  53.207 103.256
11792DT     BB176642  79.544  52.703 102.692
11792DT     BB276643  79.777  52.622 102.955
11792DT     BB376644  79.684  52.505 103.099
11792DT     SC176645  79.553  52.712 103.193
11792DT     SC276646  79.628  52.761 103.388
11792DT     SC376647  79.352  52.869 103.259
11793DG     BB176648  79.992  52.266 102.972
11793DG     BB276649  79.983  52.282 103.334
11793DG     BB376650  79.842  52.159 103.403
11793DG     SC176651  79.620  52.370 103.396
11793DG     SC276652  79.481  52.487 103.632
11793DG     SC376653  79.349  52.569 103.381
11793DG     SC476654  79.534  52.387 103.261
11794DT     BB176655  79.867  51.952 103.540
11794DT     BB276656  79.750  52.066 103.862
11794DT     BB376657  79.566  51.982 103.904
11794DT     SC176658  79.446  52.143 103.735
11794DT     SC276659  79.325  52.283 103.843
11794DT     SC376660  79.308  52.224 103.525
11795DT     BB176661  79.647  51.780 104.097
11795DT     BB276662  79.394  51.965 104.275
11795DT     BB376663  79.209  51.874 104.251
11795DT     SC176664  79.189  51.963 104.005
11795DT     SC276665  79.035  52.112 103.995
11795DT     SC376666  79.171  51.963 103.742
11796DA     BB176667  79.234  51.883 104.672
11796DA     BB276668  78.907  52.021 104.582
11796DA     BB376669  78.770  51.864 104.534
11796DA     SC176670  78.840  51.864 104.231
11796DA     SC276671  78.730  51.928 104.016
11796DA     SC376672  78.904  51.775 103.905
11796DA     SC476673  78.955  51.764 104.181
11797DA     BB176674  78.563  51.983 104.768
11797DA     BB276675  78.321  52.051 104.501
11797DA     BB376676  78.214  51.873 104.452
11797DA     SC176677  78.414  51.784 104.231
11797DA     SC276678  78.418  51.764 103.982
11797DA     SC376679  78.614  51.603 104.019
11797DA     SC476680  78.533  51.686 104.274
11798DG     BB176681  77.945  52.016 104.540
11798DG     BB276682  77.864  51.988 104.189
11798DG     BB376683  77.777  51.812 104.153
11798DG     SC176684  78.041  51.667 104.096
11798DG     SC276685  78.126  51.556 103.832
11798DG     SC376686  78.311  51.471 104.047
11798DG     SC476687  78.120  51.600 104.218
11799DG     BB176688  77.501  51.956 104.037
11799DG     BB276689  77.585  51.808 103.718
11799DG     BB376690  77.510  51.624 103.707
11799DG     SC176691  77.757  51.489 103.826
11799DG     SC276692  77.942  51.304 103.682
11799DG     SC376693  78.003  51.310 103.972
11799DG     SC476694  77.767  51.472 103.985
11800DA     BB176695  77.365  51.720 103.408
11800DA     BB276696  77.558  51.463 103.231
11800DA     BB376697  77.468  51.271 103.258
11800DA     SC176698  77.633  51.203 103.513
11800DA     SC276699  77.816  51.046 103.578
11800DA     SC376700  77.737  51.087 103.819
11800DA     SC476701  77.569  51.240 103.655
11801DT     BB176702  77.394  51.184 103.095
11801DT     BB276703  77.661  50.945 103.054
11801DT     BB376704  77.597  50.757 103.112
11801DT     SC176705  77.610  50.822 103.366
11801DT     SC276706  77.772  50.715 103.459
11801DT     SC376707  77.535  50.872 103.614
11802DA     BB176708  77.788  50.757 102.738
11802DA     BB276709  77.935  50.493 102.945
11802DA     BB376710  77.794  50.335 102.974
11802DA     SC176711  77.675  50.456 103.235
11802DA     SC276712  77.674  50.404 103.479
11802DA     SC376713  77.467  50.555 103.489
11802DA     SC476714  77.547  50.552 103.221
11803DT     BB176715  77.858  50.187 102.898
11803DT     BB276716  77.940  50.010 103.202
11803DT     BB376717  77.787  49.881 103.252
11803DT     SC176718  77.636  50.079 103.335
11803DT     SC276719  77.615  50.069 103.548
11803DT     SC376720  77.434  50.248 103.348
11804DA     BB176721  78.154  49.675 103.261
11804DA     BB276722  77.969  49.593 103.567
11804DA     BB376723  77.801  49.469 103.521
11804DA     SC176724  77.605  49.708 103.480
11804DA     SC276725  77.408  49.806 103.597
11804DA     SC376726  77.355  49.916 103.371
11804DA     SC476727  77.588  49.766 103.331
11805DA     BB176728  77.936  49.272 103.751
11805DA     BB276729  77.623  49.306 103.938
11805DA     BB376730  77.469  49.188 103.848
11805DA     SC176731  77.369  49.418 103.663
11805DA     SC276732  77.168  49.564 103.642
11805DA     SC376733  77.245  49.601 103.401
11805DA     SC476734  77.432  49.427 103.515
11806DT     BB176735  77.379  49.007 103.939
11806DT     BB276736  77.063  49.156 104.027
11806DT     BB376737  76.913  49.082 103.904
11806DT     SC176738  76.997  49.228 103.702
11806DT     SC276739  76.852  49.382 103.661
11806DT     SC376740  77.094  49.291 103.465
11807DT     BB176741  76.791  48.911 104.096
11807DT     BB276742  76.522  49.127 103.990
11807DT     BB376743  76.421  49.040 103.832
11807DT     SC176744  76.615  49.097 103.665
11807DT     SC276745  76.550  49.249 103.528
11807DT     SC376746  76.813  49.063 103.494
11808DA     BB176747  76.123  49.124 104.114
11808DA     BB276748  76.016  49.269 103.794
11808DA     BB376749  75.944  49.116 103.664
11808DA     SC176750  76.221  49.061 103.534
11808DA     SC276751  76.331  49.096 103.312
11808DA     SC376752  76.496  48.915 103.389
11808DA     SC476753  76.312  48.946 103.599
11809DC     BB176754  75.754  49.128 103.618
11809DC     BB276755  75.805  49.258 103.286
11809DC     BB376756  75.772  49.109 103.146
11809DC     SC176757  76.000  48.993 103.202
11809DC     SC276758  76.135  49.017 103.037
11809DC     SC376759  76.172  48.811 103.285
11810DT     BB176760  75.574  49.268 103.097
11810DT     BB276761  75.766  49.250 102.792
11810DT     BB376762  75.723  49.074 102.691
11810DT     SC176763  75.863  48.932 102.861
11810DT     SC276764  76.040  48.858 102.763
11810DT     SC376765  75.922  48.755 103.047
11811DA     BB176766  75.743  49.435 102.468
11811DA     BB276767  75.931  49.173 102.294
11811DA     BB376768  75.800  49.017 102.230
11811DA     SC176769  75.830  48.850 102.490
11811DA     SC276770  75.934  48.634 102.560
11811DA     SC376771  75.776  48.648 102.762
11811DA     SC476772  75.724  48.876 102.608
11812DA     BB176773  75.999  49.113 101.984
11812DA     BB276774  76.092  48.759 101.966
11812DA     BB376775  75.923  48.641 101.911
11812DA     SC176776  75.833  48.590 102.205
11812DA     SC276777  75.823  48.399 102.364
11812DA     SC376778  75.650  48.540 102.491
11812DA     SC476779  75.726  48.692 102.268
11813DC     BB176780  75.942  48.560 101.745
11813DC     BB276781  75.977  48.219 101.857
11813DC     BB376782  75.795  48.120 101.842
11813DC     SC176783  75.701  48.246 102.052
11813DC     SC276784  75.679  48.107 102.215
11813DC     SC376785  75.550  48.403 102.200
11814DA     BB176786  76.071  47.876 101.639
11814DA     BB276787  75.873  47.660 101.860
11814DA     BB376788  75.676  47.635 101.782
11814DA     SC176789  75.558  47.880 101.935
11814DA     SC276790  75.400  47.921 102.123
11814DA     SC376791  75.379  48.158 102.027
11814DA     SC476792  75.557  48.021 101.859
11815DA     BB176793  75.739  47.310 101.803
11815DA     BB276794  75.456  47.286 102.035
11815DA     BB376795  75.272  47.291 101.928
11815DA     SC176796  75.242  47.600 101.944
11815DA     SC276797  75.096  47.766 102.059
11815DA     SC376798  75.174  47.930 101.878
11815DA     SC476799  75.302  47.686 101.822
11816DA     BB176800  75.212  47.009 102.089
11816DA     BB276801  74.924  47.176 102.242
11816DA     BB376802  74.762  47.187 102.103
11816DA     SC176803  74.847  47.463 101.988
11816DA     SC276804  74.763  47.698 101.992
11816DA     SC376805  74.909  47.732 101.784
11816DA     SC476806  74.942  47.464 101.859
11817DT     BB176807  74.595  47.082 102.143
11817DT     BB276808  74.388  47.362 102.237
11817DT     BB376809  74.254  47.405 102.085
11817DT     SC176810  74.443  47.514 101.940
11817DT     SC276811  74.411  47.726 101.928
11817DT     SC376812  74.611  47.554 101.740
11818DA     BB176813  74.040  47.372 102.444
11818DA     BB276814  73.933  47.680 102.276
11818DA     BB376815  73.814  47.633 102.105
11818DA     SC176816  74.056  47.625 101.910
11818DA     SC276817  74.145  47.761 101.720
11818DA     SC376818  74.274  47.549 101.656
11818DA     SC476819  74.126  47.483 101.885
11819DT     BB176820  73.621  47.685 102.108
11819DT     BB276821  73.640  47.957 101.872
11819DT     BB376822  73.566  47.897 101.689
11819DT     SC176823  73.781  47.756 101.639
11819DT     SC276824  73.892  47.850 101.480
11819DT     SC376825  73.936  47.548 101.591
11820DT     BB176826  73.325  48.039 101.713
11820DT     BB276827  73.459  48.153 101.398
11820DT     BB376828  73.393  48.031 101.245
11820DT     SC176829  73.557  47.839 101.316
11820DT     SC276830  73.711  47.818 101.167
11820DT     SC376831  73.643  47.605 101.402
11821DA     BB176832  73.249  48.400 101.090
11821DA     BB276833  73.426  48.236 100.815
11821DA     BB376834  73.303  48.086 100.726
11821DA     SC176835  73.404  47.858 100.912
11821DA     SC276836  73.542  47.651 100.892
11821DA     SC376837  73.428  47.578 101.110
11821DA     SC476838  73.321  47.830 101.047
11822DA     BB176839  73.320  48.223 100.413
11822DA     BB276840  73.494  47.921 100.300
11822DA     BB376841  73.353  47.771 100.244
11822DA     SC176842  73.341  47.643 100.528
11822DA     SC276843  73.413  47.432 100.638
11822DA     SC376844  73.240  47.490 100.818
11822DA     SC476845  73.227  47.696 100.628
11823DT     BB176846  73.312  47.687 100.027
11823DT     BB276847  73.491  47.378 100.076
11823DT     BB376848  73.359  47.218 100.072
11823DT     SC176849  73.269  47.276 100.311
11823DT     SC276850  73.332  47.125 100.450
11823DT     SC376851  73.103  47.347 100.504
11824DT     BB176852  73.451  47.136  99.826
11824DT     BB276853  73.507  46.853 100.042
11824DT     BB376854  73.340  46.731 100.043
11824DT     SC176855  73.208  46.900 100.195
11824DT     SC276856  73.181  46.814 100.390
11824DT     SC376857  73.024  47.072 100.273
11825DT     BB176858  73.482  46.551  99.903
11825DT     BB276859  73.380  46.375 100.201
11825DT     BB376860  73.192  46.294 100.175
11825DT     SC176861  73.078  46.530 100.199
11825DT     SC276862  72.969  46.537 100.384
11825DT     SC376863  72.942  46.747 100.139
11826DT     BB176864  73.308  46.052 100.167
11826DT     BB276865  73.068  46.029 100.435
11826DT     BB376866  72.882  45.979 100.359
11826DT     SC176867  72.846  46.221 100.264
11826DT     SC276868  72.692  46.319 100.376
11826DT     SC376869  72.811  46.417 100.091
11827DA     BB176870  72.966  45.709 100.669
11827DA     BB276871  72.626  45.836 100.720
11827DA     BB376872  72.493  45.750 100.577
11827DA     SC176873  72.532  45.977 100.368
11827DA     SC276874  72.399  46.164 100.271
11827DA     SC376875  72.568  46.157 100.078
11827DA     SC476876  72.647  45.956 100.257
11828DC     BB176877  72.339  45.615 100.635
11828DC     BB276878  72.063  45.843 100.594
11828DC     BB376879  71.953  45.791 100.426
11828DC     SC176880  72.138  45.887 100.266
11828DC     SC276881  72.063  46.065 100.170
11828DC     SC376882  72.326  45.897 100.082
11829DT     BB176883  71.737  45.685 100.571
11829DT     BB276884  71.586  45.938 100.363
11829DT     BB376885  71.525  45.856 100.183
11829DT     SC176886  71.773  45.843 100.096
11829DT     SC276887  71.800  45.986  99.937
11829DT     SC376888  72.001  45.743 100.011
11830DT     BB176889  71.256  45.867 100.251
11830DT     BB276890  71.281  46.060  99.947
11830DT     BB376891  71.253  45.936  99.783
11830DT     SC176892  71.492  45.833  99.810
11830DT     SC276893  71.617  45.897  99.647
11830DT     SC376894  71.682  45.654  99.852
11831DT     BB176895  71.011  46.052  99.741
11831DT     BB276896  71.194  46.109  99.436
11831DT     BB376897  71.169  45.949  99.307
11831DT     SC176898  71.331  45.799  99.449
11831DT     SC276899  71.512  45.765  99.339
11831DT     SC376900  71.416  45.602  99.602
11832DG     BB176901  71.071  46.308  99.139
11832DG     BB276902  71.311  46.124  98.940
11832DG     BB376903  71.221  45.972  98.849
11832DG     SC176904  71.269  45.774  99.077
11832DG     SC276905  71.446  45.533  99.065
11832DG     SC376906  71.288  45.536  99.315
11832DG     SC476907  71.162  45.763  99.195
11833DA     BB176908  71.388  46.114  98.583
11833DA     BB276909  71.556  45.793  98.526
11833DA     BB376910  71.418  45.649  98.451
11833DA     SC176911  71.338  45.543  98.732
11833DA     SC276912  71.368  45.336  98.867
11833DA     SC376913  71.167  45.419  99.003
11833DA     SC476914  71.210  45.611  98.804
11834DA     BB176915  71.661  45.633  98.231
11834DA     BB276916  71.691  45.280  98.323
11834DA     BB376917  71.524  45.169  98.248
11834DA     SC176918  71.351  45.209  98.504
11834DA     SC276919  71.266  45.070  98.692
11834DA     SC376920  71.093  45.257  98.725
11834DA     SC476921  71.252  45.335  98.507
11835DT     BB176922  71.557  45.032  98.104
11835DT     BB276923  71.512  44.739  98.311
11835DT     BB376924  71.328  44.653  98.273
11835DT     SC176925  71.203  44.842  98.405
11835DT     SC276926  71.121  44.761  98.586
11835DT     SC376927  71.044  45.047  98.455
11836DT     BB176928  71.446  44.445  98.141
11836DT     BB276929  71.252  44.289  98.402
11836DT     BB376930  71.058  44.256  98.337
11836DT     SC176931  70.999  44.511  98.359
11836DT     SC276932  70.861  44.538  98.521
11836DT     SC376933  70.930  44.756  98.292
11837DG     BB176934  71.208  43.893  98.444
11837DG     BB276935  70.894  43.961  98.611
11837DG     BB376936  70.743  43.928  98.486
11837DG     SC176937  70.739  44.214  98.377
11837DG     SC276938  70.520  44.414  98.416
11837DG     SC376939  70.719  44.512  98.220
11837DG     SC476940  70.831  44.250  98.251
11838DT     BB176941  70.603  43.780  98.540
11838DT     BB276942  70.322  43.981  98.645
11838DT     BB376943  70.180  43.986  98.494
11838DT     SC176944  70.325  44.152  98.352
11838DT     SC276945  70.230  44.345  98.349
11838DT     SC376946  70.470  44.248  98.154
11839DA     BB176947  70.015  43.894  98.870
11839DA     BB276948  69.815  44.160  98.715
11839DA     BB376949  69.707  44.083  98.547
11839DA     SC176950  69.932  44.150  98.343
11839DA     SC276951  69.969  44.309  98.154
11839DA     SC376952  70.151  44.146  98.079
11839DA     SC476953  70.040  44.035  98.311
11840DG     BB176954  69.493  44.199  98.734
11840DG     BB276955  69.435  44.415  98.450
11840DG     BB376956  69.342  44.314  98.306
11840DG     SC176957  69.600  44.218  98.172
11840DG     SC276958  69.698  44.300  97.902
11840DG     SC376959  69.862  44.080  98.011
11840DG     SC476960  69.667  44.081  98.221
11841DT     BB176961  69.156  44.384  98.252
11841DT     BB276962  69.213  44.523  97.924
11841DT     BB376963  69.159  44.386  97.779
11841DT     SC176964  69.375  44.243  97.823
11841DT     SC276965  69.507  44.258  97.655
11841DT     SC376966  69.527  44.038  97.892
11842DT     BB176967  68.947  44.539  97.725
11842DT     BB276968  69.115  44.499  97.408
11842DT     BB376969  69.059  44.320  97.320
11842DT     SC176970  69.208  44.183  97.487
11842DT     SC276971  69.374  44.098  97.381
11842DT     SC376972  69.276  44.013  97.678
11843DA     BB176973  68.983  44.608  97.023
11843DA     BB276974  69.170  44.334  96.867
11843DA     BB376975  69.044  44.164  96.840
11843DA     SC176976  69.114  44.038  97.116
11843DA     SC276977  69.239  43.841  97.202
11843DA     SC376978  69.103  43.874  97.417
11843DA     SC476979  69.018  44.074  97.240
11844DA     BB176980  69.136  44.183  96.522
11844DA     BB276981  69.284  43.850  96.563
11844DA     BB376982  69.132  43.700  96.558
11844DA     SC176983  69.086  43.704  96.866
11844DA     SC276984  69.126  43.553  97.061
11844DA     SC376985  68.948  43.694  97.180
11844DA     SC476986  68.971  43.802  96.923
11845DA     BB176987  69.327  43.579  96.323
11845DA     BB276988  69.368  43.285  96.537
11845DA     BB376989  69.193  43.163  96.531
11845DA     SC176990  69.057  43.305  96.773
11845DA     SC276991  68.997  43.251  97.009
11845DA     SC376992  68.831  43.446  96.990
11845DA     SC476993  68.959  43.428  96.741
11846DA     BB176994  69.425  42.945  96.458
11846DA     BB276995  69.321  42.766  96.760
11846DA     BB376996  69.133  42.671  96.729
11846DA     SC176997  68.966  42.914  96.830
11846DA     SC276998  68.823  42.971  97.026
11846DA     SC376999  68.725  43.154  96.875
11846DA     SC477000  68.917  43.021  96.720
11847DG     BB177001  69.305  42.423  96.798
11847DG     BB277002  69.082  42.407  97.082
11847DG     BB377003  68.908  42.328  97.027
11847DG     SC177004  68.781  42.596  96.953
11847DG     SC277005  68.553  42.727  97.093
11847DG     SC377006  68.618  42.870  96.843
11847DG     SC477007  68.800  42.652  96.804
11848DC     BB177008  68.843  42.143  97.116
11848DC     BB277009  68.580  42.254  97.336
11848DC     BB377010  68.395  42.218  97.249
11848DC     SC177011  68.427  42.419  97.084
11848DC     SC277012  68.290  42.577  97.136
11848DC     SC377013  68.454  42.553  96.858
11849DA     BB177014  68.370  42.036  97.629
11849DA     BB277015  68.070  42.242  97.584
11849DA     BB377016  67.936  42.149  97.447
11849DA     SC177017  68.055  42.290  97.197
11849DA     SC277018  67.986  42.465  97.033
11849DA     SC377019  68.168  42.366  96.881
11849DA     SC477020  68.172  42.214  97.117
11850DT     BB177021  67.734  42.062  97.499
11850DT     BB277022  67.539  42.329  97.355
11850DT     BB377023  67.443  42.262  97.184
11850DT     SC177024  67.666  42.267  97.047
11850DT     SC277025  67.657  42.425  96.901
11850DT     SC377026  67.873  42.183  96.906
11851DA     BB177027  67.118  42.408  97.410
11851DA     BB277028  67.098  42.562  97.078
11851DA     BB377029  67.017  42.424  96.937
11851DA     SC177030  67.294  42.310  96.854
11851DA     SC277031  67.443  42.315  96.654
11851DA     SC377032  67.553  42.106  96.755
11851DA     SC477033  67.348  42.180  96.932
11852DA     BB177034  66.800  42.663  96.882
11852DA     BB277035  66.939  42.686  96.544
11852DA     BB377036  66.861  42.531  96.420
11852DA     SC177037  67.088  42.329  96.487
11852DA     SC277038  67.281  42.224  96.371
11852DA     SC377039  67.270  42.046  96.556
11852DA     SC477040  67.063  42.228  96.610
11853DA     BB177041  66.801  42.800  96.249
11853DA     BB277042  67.025  42.658  95.995
11853DA     BB377043  66.928  42.499  95.891
11853DA     SC177044  67.029  42.278  96.086
11853DA     SC277045  67.189  42.087  96.081
11853DA     SC377046  67.059  41.999  96.284
11853DA     SC477047  66.935  42.240  96.210
11854DA     BB177048  67.045  42.702  95.666
11854DA     BB277049  67.243  42.416  95.550
11854DA     BB377050  67.116  42.270  95.460
11854DA     SC177051  67.067  42.113  95.724
11854DA     SC277052  67.129  41.893  95.823
11854DA     SC377053  66.930  41.929  95.980
11854DA     SC477054  66.939  42.154  95.812
11855DA     BB177055  67.355  42.326  95.244
11855DA     BB277056  67.430  41.968  95.273
11855DA     BB377057  67.274  41.852  95.184
11855DA     SC177058  67.109  41.827  95.447
11855DA     SC277059  67.049  41.648  95.610
11855DA     SC377060  66.857  41.804  95.678
11855DA     SC477061  66.996  41.937  95.474
11856DA     BB177062  67.544  41.734  95.040
11856DA     BB277063  67.448  41.408  95.179
11856DA     BB377064  67.276  41.332  95.077
11856DA     SC177065  67.072  41.463  95.273
11856DA     SC277066  66.911  41.389  95.448
11856DA     SC377067  66.799  41.616  95.412
11856DA     SC477068  67.016  41.609  95.235
11857DG     BB177069  67.462  41.093  95.000
11857DG     BB277070  67.225  40.903  95.197
11857DG     BB377071  67.066  40.858  95.087
11857DG     SC177072  66.912  41.112  95.161
11857DG     SC277073  66.662  41.124  95.323
11857DG     SC377074  66.724  41.388  95.205
11857DG     SC477075  66.933  41.244  95.073
11858DT     BB177076  67.005  40.643  95.033
11858DT     BB277077  66.721  40.594  95.250
11858DT     BB377078  66.546  40.603  95.141
11858DT     SC177079  66.563  40.864  95.119
11858DT     SC277080  66.408  40.956  95.237
11858DT     SC377081  66.588  41.103  95.010
11859DA     BB177082  66.527  40.242  95.352
11859DA     BB277083  66.211  40.419  95.408
11859DA     BB377084  66.088  40.407  95.234
11859DA     SC177085  66.199  40.669  95.108
11859DA     SC277086  66.117  40.900  95.061
11859DA     SC377087  66.310  40.912  94.891
11859DA     SC477088  66.323  40.656  95.006
11860DT     BB177089  65.918  40.306  95.251
11860DT     BB277090  65.700  40.594  95.262
11860DT     BB377091  65.603  40.616  95.080
11860DT     SC177092  65.821  40.707  94.966
11860DT     SC277093  65.796  40.916  94.921
11860DT     SC377094  66.028  40.723  94.803
11861DC     BB177095  65.384  40.542  95.210
11861DC     BB277096  65.308  40.867  95.074
11861DC     BB377097  65.244  40.848  94.878
11861DC     SC177098  65.489  40.802  94.794
11861DC     SC277099  65.558  40.969  94.678
11861DC     SC377100  65.695  40.676  94.689
11862DT     BB177101  65.018  40.923  94.983
11862DT     BB277102  65.091  41.166  94.727
11862DT     BB377103  65.039  41.090  94.541
11862DT     SC177104  65.249  40.933  94.538
11862DT     SC277105  65.388  41.002  94.390
11862DT     SC377106  65.394  40.713  94.535
11863DA     BB177107  64.878  41.476  94.593
11863DA     BB277108  65.037  41.460  94.264
11863DA     BB377109  64.925  41.334  94.133
11863DA     SC177110  65.082  41.076  94.207
11863DA     SC277111  65.245  40.921  94.099
11863DA     SC377112  65.173  40.753  94.279
11863DA     SC477113  65.023  40.985  94.326
11864DG     BB177114  64.904  41.595  93.963
11864DG     BB277115  65.087  41.398  93.721
11864DG     BB377116  64.963  41.276  93.625
11864DG     SC177117  64.994  41.046  93.824
11864DG     SC277118  65.121  40.782  93.769
11864DG     SC377119  64.989  40.782  94.033
11864DG     SC477120  64.897  41.040  93.952
11865DT     BB177121  64.917  41.288  93.398
11865DT     BB277122  65.097  41.000  93.274
11865DT     BB377123  64.965  40.849  93.228
11865DT     SC177124  64.926  40.793  93.481
11865DT     SC277125  65.014  40.602  93.527
11865DT     SC377126  64.804  40.764  93.713
11866DA     BB177127  65.184  40.896  92.872
11866DA     BB277128  65.181  40.538  92.952
11866DA     BB377129  64.991  40.453  92.904
11866DA     SC177130  64.870  40.505  93.185
11866DA     SC277131  64.799  40.370  93.383
11866DA     SC377132  64.661  40.576  93.448
11866DA     SC477133  64.790  40.642  93.208
11867DT     BB177134  64.964  40.308  92.744
11867DT     BB277135  64.928  40.021  92.960
11867DT     BB377136  64.732  39.956  92.958
11867DT     SC177137  64.655  40.156  93.109
11867DT     SC277138  64.601  40.083  93.304
11867DT     SC377139  64.532  40.376  93.186
11868DT     BB177140  64.801  39.736  92.812
11868DT     BB277141  64.653  39.603  93.113
11868DT     BB377142  64.448  39.586  93.089
11868DT     SC177143  64.416  39.845  93.113
11868DT     SC277144  64.317  39.888  93.299
11868DT     SC377145  64.354  40.095  93.053
11869DG     BB177146  64.608  39.226  93.190
11869DG     BB277147  64.341  39.323  93.415
11869DG     BB377148  64.165  39.296  93.327
11869DG     SC177149  64.154  39.576  93.204
11869DG     SC277150  63.961  39.792  93.277
11869DG     SC377151  64.119  39.868  93.039
11869DG     SC477152  64.219  39.600  93.060
11870DA     BB177153  64.113  39.140  93.627
11870DA     BB277154  63.832  39.366  93.689
11870DA     BB377155  63.668  39.319  93.560
11870DA     SC177156  63.759  39.512  93.334
11870DA     SC277157  63.682  39.727  93.233
11870DA     SC377158  63.826  39.660  93.031
11870DA     SC477159  63.853  39.453  93.218
11871DA     BB177160  63.546  39.333  93.863
11871DA     BB277161  63.323  39.592  93.733
11871DA     BB377162  63.183  39.508  93.596
11871DA     SC177163  63.362  39.554  93.346
11871DA     SC277164  63.363  39.699  93.143
11871DA     SC377165  63.524  39.525  93.044
11871DA     SC477166  63.460  39.434  93.302
11872DA     BB177167  62.990  39.672  93.805
11872DA     BB277168  62.870  39.857  93.512
11872DA     BB377169  62.749  39.731  93.389
11872DA     SC177170  62.987  39.633  93.214
11872DA     SC277171  63.068  39.662  92.980
11872DA     SC377172  63.203  39.447  93.022
11872DA     SC477173  63.062  39.498  93.259
11873DG     BB177174  62.524  39.941  93.445
11873DG     BB277175  62.541  39.990  93.087
11873DG     BB377176  62.436  39.849  92.994
11873DG     SC177177  62.671  39.654  92.971
11873DG     SC277178  62.804  39.569  92.717
11873DG     SC377179  62.901  39.409  92.946
11873DG     SC477180  62.699  39.552  93.090
11874DA     BB177181  62.257  40.095  92.819
11874DA     BB277182  62.372  39.958  92.499
11874DA     BB377183  62.260  39.783  92.449
11874DA     SC177184  62.455  39.587  92.590
11874DA     SC277185  62.619  39.411  92.524
11874DA     SC377186  62.593  39.326  92.765
11874DA     SC477187  62.424  39.548  92.743
11875DA     BB177188  62.196  39.941  92.165
11875DA     BB277189  62.368  39.667  91.992
11875DA     BB377190  62.240  39.497  91.977
11875DA     SC177191  62.335  39.372  92.245
11875DA     SC277192  62.468  39.174  92.319
11875DA     SC377193  62.352  39.207  92.546
11875DA     SC477194  62.252  39.408  92.377
11876DT     BB177195  62.171  39.433  91.790
11876DT     BB277196  62.386  39.144  91.764
11876DT     BB377197  62.276  38.972  91.792
11876DT     SC177198  62.260  39.014  92.051
11876DT     SC277199  62.379  38.868  92.155
11876DT     SC377200  62.157  39.062  92.289
11877DA     BB177201  62.497  38.932  91.439
11877DA     BB277202  62.550  38.631  91.640
11877DA     BB377203  62.375  38.509  91.639
11877DA     SC177204  62.251  38.641  91.892
11877DA     SC277205  62.204  38.578  92.128
11877DA     SC377206  62.037  38.773  92.125
11877DA     SC477207  62.151  38.765  91.869
11878DT     BB177208  62.396  38.338  91.553
11878DT     BB277209  62.397  38.136  91.852
11878DT     BB377210  62.213  38.045  91.876
11878DT     SC177211  62.104  38.271  91.954
11878DT     SC277212  62.055  38.258  92.163
11878DT     SC377213  61.947  38.482  91.956
11879DA     BB177214  62.512  37.752  91.908
11879DA     BB277215  62.280  37.709  92.189
11879DA     BB377216  62.094  37.631  92.120
11879DA     SC177217  61.966  37.910  92.073
11879DA     SC277218  61.786  38.050  92.174
11879DA     SC377219  61.786  38.176  91.950
11879DA     SC477220  61.980  37.974  91.926
11880DA     BB177221  62.152  37.401  92.351
11880DA     BB277222  61.837  37.504  92.509
11880DA     BB377223  61.671  37.429  92.399
11880DA     SC177224  61.648  37.679  92.215
11880DA     SC277225  61.490  37.870  92.182
11880DA     SC377226  61.599  37.893  91.951
11880DA     SC477227  61.727  37.677  92.076
11881DC     BB177228  61.532  37.273  92.472
11881DC     BB277229  61.250  37.489  92.534
11881DC     BB377230  61.102  37.454  92.394
11881DC     SC177231  61.238  37.580  92.208
11881DC     SC277232  61.137  37.764  92.159
11881DC     SC377233  61.372  37.623  91.985
11882DT     BB177234  60.931  37.316  92.569
11882DT     BB277235  60.727  37.584  92.443
11882DT     BB377236  60.628  37.523  92.271
11882DT     SC177237  60.848  37.541  92.129
11882DT     SC277238  60.831  37.705  91.991
11882DT     SC377239  61.053  37.469  91.979
11883DT     BB177240  60.378  37.501  92.395
11883DT     BB277241  60.320  37.732  92.124
11883DT     BB377242  60.265  37.628  91.953
11883DT     SC177243  60.511  37.546  91.914
11883DT     SC277244  60.591  37.643  91.739
11883DT     SC377245  60.716  37.383  91.887
11884DT     BB177246  60.002  37.712  91.972
11884DT     BB277247  60.109  37.825  91.646
11884DT     BB377248  60.076  37.677  91.506
11884DT     SC177249  60.280  37.537  91.593
11884DT     SC277250  60.436  37.539  91.445
11884DT     SC377251  60.417  37.338  91.699
11885DA     BB177252  59.894  38.024  91.355
11885DA     BB277253  60.106  37.885  91.090
11885DA     BB377254  60.015  37.711  91.006
11885DA     SC177255  60.152  37.513  91.203
11885DA     SC277256  60.328  37.336  91.194
11885DA     SC377257  60.224  37.251  91.413
11885DA     SC477258  60.073  37.475  91.337
11886DG     BB177259  60.021  37.876  90.742
11886DG     BB277260  60.252  37.617  90.640
11886DG     BB377261  60.152  37.458  90.575
11886DG     SC177262  60.136  37.325  90.850
11886DG     SC277263  60.271  37.071  90.931
11886DG     SC377264  60.083  37.161  91.140
11886DG     SC477265  60.013  37.360  90.946
11887DA     BB177266  60.351  37.482  90.294
11887DA     BB277267  60.484  37.147  90.362
11887DA     BB377268  60.341  36.999  90.307
11887DA     SC177269  60.207  36.989  90.588
11887DA     SC277270  60.191  36.830  90.780
11887DA     SC377271  59.985  36.966  90.849
11887DA     SC477272  60.081  37.085  90.614
11888DA     BB177273  60.605  36.898  90.144
11888DA     BB277274  60.586  36.593  90.346
11888DA     BB377275  60.425  36.470  90.280
11888DA     SC177276  60.217  36.596  90.473
11888DA     SC277277  60.089  36.529  90.677
11888DA     SC377278  59.931  36.722  90.617
11888DA     SC477279  60.130  36.720  90.419
11889DC     BB177280  60.483  36.306  90.210
11889DC     BB277281  60.384  36.103  90.491
11889DC     BB377282  60.206  36.006  90.449
11889DC     SC177283  60.069  36.228  90.481
11889DC     SC277284  59.950  36.213  90.660
11889DC     SC377285  59.915  36.435  90.426
11890DG     BB177286  60.500  35.747  90.558
11890DG     BB277287  60.200  35.705  90.756
11890DG     BB377288  60.060  35.613  90.649
11890DG     SC177289  59.941  35.873  90.538
11890DG     SC277290  59.670  35.981  90.599
11890DG     SC377291  59.799  36.136  90.382
11890DG     SC477292  60.001  35.934  90.403
11891DT     BB177293  60.005  35.446  90.733
11891DT     BB277294  59.676  35.524  90.857
11891DT     BB377295  59.533  35.465  90.720
11891DT     SC177296  59.589  35.667  90.562
11891DT     SC277297  59.425  35.807  90.563
11891DT     SC377298  59.669  35.801  90.350
11892DA     BB177299  59.447  35.344  91.117
11892DA     BB277300  59.146  35.491  90.969
11892DA     BB377301  59.073  35.367  90.811
11892DA     SC177302  59.237  35.511  90.589
11892DA     SC277303  59.193  35.661  90.395
11892DA     SC377304  59.424  35.586  90.311
11892DA     SC477305  59.382  35.452  90.554
11893DA     BB177306  58.806  35.410  90.999
11893DA     BB277307  58.648  35.552  90.701
11893DA     BB377308  58.612  35.400  90.556
11893DA     SC177309  58.886  35.437  90.413
11893DA     SC277310  58.971  35.523  90.195
11893DA     SC377311  59.182  35.387  90.247
11893DA     SC477312  59.009  35.345  90.463
11894DA     BB177313  58.304  35.520  90.572
11894DA     BB277314  58.335  35.593  90.214
11894DA     BB377315  58.322  35.413  90.100
11894DA     SC177316  58.629  35.361  90.103
11894DA     SC277317  58.818  35.364  89.941
11894DA     SC377318  58.941  35.217  90.112
11894DA     SC477319  58.687  35.269  90.222
11895DA     BB177320  58.076  35.565  89.936
11895DA     BB277321  58.280  35.532  89.633
11895DA     BB377322  58.271  35.333  89.559
11895DA     SC177323  58.518  35.235  89.721
11895DA     SC277324  58.752  35.164  89.675
11895DA     SC377325  58.742  35.051  89.905
11895DA     SC477326  58.491  35.170  89.866
11896DT     BB177327  58.176  35.281  89.372
11896DT     BB277328  58.481  35.228  89.186
11896DT     BB377329  58.508  35.026  89.151
11896DT     SC177330  58.579  34.984  89.400
11896DT     SC277331  58.789  34.936  89.407
11896DT     SC377332  58.575  34.892  89.647
11897DT     BB177333  58.445  35.050  88.883
11897DT     BB277334  58.777  34.910  88.886
11897DT     BB377335  58.766  34.703  88.893
11897DT     SC177336  58.699  34.708  89.147
11897DT     SC277337  58.861  34.630  89.265
11897DT     SC377338  58.557  34.676  89.367
11898DA     BB177339  59.018  34.813  88.577
11898DA     BB277340  59.194  34.567  88.784
11898DA     BB377341  59.110  34.373  88.756
11898DA     SC177342  58.904  34.402  88.988
11898DA     SC277343  58.867  34.307  89.215
11898DA     SC377344  58.625  34.387  89.187
11898DA     SC477345  58.758  34.459  88.951
11899DA     BB177346  59.429  34.329  88.705
11899DA     BB277347  59.418  34.100  88.991
11899DA     BB377348  59.315  33.921  88.939
11899DA     SC177349  59.036  34.025  89.027
11899DA     SC277350  58.871  33.980  89.208
11899DA     SC377351  58.700  34.091  89.052
11899DA     SC477352  58.945  34.096  88.915
11900DA     BB177353  59.600  33.832  89.071
11900DA     BB277354  59.397  33.658  89.322
11900DA     BB377355  59.297  33.491  89.233
11900DA     SC177356  59.043  33.653  89.157
11900DA     SC277357  58.804  33.666  89.227
11900DA     SC377358  58.764  33.777  88.999
11900DA     SC477359  59.038  33.719  89.010
11901DC     BB177360  59.357  33.340  89.309
11901DC     BB277361  59.061  33.264  89.501
11901DC     BB377362  58.942  33.129  89.398
11901DC     SC177363  58.862  33.316  89.232
11901DC     SC277364  58.654  33.359  89.267
11901DC     SC377365  58.825  33.448  89.007
11902DA     BB177366  59.000  32.991  89.791
11902DA     BB277367  58.643  32.966  89.712
11902DA     BB377368  58.609  32.810  89.571
11902DA     SC177369  58.639  32.994  89.322
11902DA     SC277370  58.492  33.088  89.143
11902DA     SC377371  58.710  33.123  89.012
11902DA     SC477372  58.785  33.007  89.256
11903DA     BB177373  58.396  32.717  89.804
11903DA     BB277374  58.134  32.748  89.549
11903DA     BB377375  58.145  32.585  89.411
11903DA     SC177376  58.336  32.733  89.215
11903DA     SC277377  58.325  32.831  88.986
11903DA     SC377378  58.581  32.813  88.988
11903DA     SC477379  58.494  32.712  89.235
11904DG     BB177380  57.854  32.513  89.505
11904DG     BB277381  57.771  32.582  89.160
11904DG     BB377382  57.807  32.422  89.048
11904DG     SC177383  58.096  32.501  88.985
11904DG     SC277384  58.203  32.578  88.718
11904DG     SC377385  58.423  32.546  88.914
11904DG     SC477386  58.212  32.454  89.085
11905DC     BB177387  57.645  32.301  88.933
11905DC     BB277388  57.707  32.401  88.592
11905DC     BB377389  57.800  32.248  88.489
11905DC     SC177390  58.028  32.295  88.610
11905DC     SC277391  58.169  32.376  88.469
11905DC     SC377392  58.241  32.258  88.762
11906DG     BB177393  57.455  32.300  88.274
11906DG     BB277394  57.744  32.309  88.056
11906DG     BB377395  57.802  32.123  88.014
11906DG     SC177396  57.992  32.101  88.253
11906DG     SC277397  58.290  32.081  88.240
11906DG     SC377398  58.193  32.035  88.515
11906DG     SC477399  57.935  32.048  88.393
11907DA     BB177400  57.790  32.185  87.666
11907DA     BB277401  58.148  32.113  87.635
11907DA     BB377402  58.181  31.902  87.629
11907DA     SC177403  58.214  31.873  87.937
11907DA     SC277404  58.397  31.824  88.099
11907DA     SC377405  58.209  31.762  88.261
11907DA     SC477406  58.083  31.839  88.023
11908DA     BB177407  58.341  31.954  87.342
11908DA     BB277408  58.644  31.826  87.504
11908DA     BB377409  58.642  31.613  87.507
11908DA     SC177410  58.500  31.593  87.783
11908DA     SC277411  58.558  31.524  88.015
11908DA     SC377412  58.304  31.500  88.049
11908DA     SC477413  58.340  31.584  87.784
11909DT     BB177414  58.783  31.490  87.392
11909DT     BB277415  58.988  31.395  87.673
11909DT     BB377416  58.961  31.195  87.717
11909DT     SC177417  58.727  31.242  87.824
11909DT     SC277418  58.738  31.210  88.037
11909DT     SC377419  58.466  31.236  87.862
11910DA     BB177420  59.374  31.253  87.676
11910DA     BB277421  59.316  31.080  87.994
11910DA     BB377422  59.268  30.875  87.959
11910DA     SC177423  58.961  30.923  87.943
11910DA     SC277424  58.759  30.871  88.079
11910DA     SC377425  58.628  30.911  87.863
11910DA     SC477426  58.898  30.951  87.798
11911DA     BB177427  59.514  30.847  88.170
11911DA     BB277428  59.275  30.685  88.395
11911DA     BB377429  59.235  30.486  88.330
11911DA     SC177430  58.993  30.567  88.151
11911DA     SC277431  58.746  30.539  88.152
11911DA     SC377432  58.759  30.590  87.901
11911DA     SC477433  59.023  30.599  87.996
11912DG     BB177434  59.343  30.439  88.613
11912DG     BB277435  59.008  30.316  88.668
11912DG     BB377436  58.990  30.132  88.595
11912DG     SC177437  58.903  30.224  88.317
11912DG     SC277438  58.634  30.181  88.194
11912DG     SC377439  58.824  30.290  87.996
11912DG     SC477440  59.014  30.254  88.206
11913DT     BB177441  58.943  29.981  88.732
11913DT     BB277442  58.599  29.908  88.651
11913DT     BB377443  58.589  29.738  88.534
11913DT     SC177444  58.676  29.868  88.323
11913DT     SC277445  58.517  29.887  88.180
11913DT     SC377446  58.831  29.939  88.122
11914DC     BB177447  58.486  29.607  88.746
11914DC     BB277448  58.244  29.557  88.483
11914DC     BB377449  58.298  29.394  88.367
11914DC     SC177450  58.489  29.531  88.250
11914DC     SC277451  58.436  29.566  88.045
11914DC     SC377452  58.730  29.605  88.175
11915DC     BB177453  58.100  29.228  88.474
11915DC     BB277454  58.043  29.211  88.118
11915DC     BB377455  58.154  29.057  88.036
11915DC     SC177456  58.376  29.195  88.057
11915DC     SC277457  58.445  29.250  87.860
11915DC     SC377458  58.619  29.265  88.133
11916DT     BB177459  57.938  28.871  87.997
11916DT     BB277460  58.085  28.898  87.669
11916DT     BB377461  58.228  28.750  87.643
11916DT     SC177462  58.398  28.877  87.798
11916DT     SC277463  58.561  28.952  87.678
11916DT     SC377464  58.557  28.929  88.002
11917DT     BB177465  58.078  28.573  87.469
11917DT     BB277466  58.376  28.645  87.279
11917DT     BB377467  58.519  28.498  87.313
11917DT     SC177468  58.572  28.594  87.551
11917DT     SC277469  58.769  28.681  87.551
11917DT     SC377470  58.594  28.608  87.814
11918DC     BB177471  58.491  28.371  87.060
11918DC     BB277472  58.839  28.467  87.073
11918DC     BB377473  58.952  28.311  87.149
11918DC     SC177474  58.866  28.357  87.393
11918DC     SC277475  59.027  28.435  87.512
11918DC     SC377476  58.745  28.319  87.625
11919DA     BB177477  59.118  28.447  86.792
11919DA     BB277478  59.382  28.442  87.047
11919DA     BB377479  59.442  28.242  87.088
11919DA     SC177480  59.236  28.202  87.318
11919DA     SC277481  59.239  28.177  87.566
11919DA     SC377482  59.006  28.074  87.538
11919DA     SC477483  59.093  28.139  87.280
11920DA     BB177484  59.696  28.432  87.029
11920DA     BB277485  59.803  28.341  87.368
11920DA     BB377486  59.855  28.134  87.376
11920DA     SC177487  59.569  28.040  87.455
11920DA     SC277488  59.454  27.945  87.655
11920DA     SC377489  59.275  27.866  87.489
11920DA     SC477490  59.469  27.999  87.336
11921DA     BB177491  60.078  28.331  87.513
11921DA     BB277492  60.028  28.125  87.812
11921DA     BB377493  60.090  27.924  87.775
11921DA     SC177494  59.810  27.830  87.678
11921DA     SC277495  59.627  27.681  87.759
11921DA     SC377496  59.551  27.676  87.514
11921DA     SC477497  59.779  27.838  87.520
11922DA     BB177498  60.210  28.045  88.062
11922DA     BB277499  60.057  27.747  88.209
11922DA     BB377500  60.145  27.570  88.128
11922DA     SC177501  59.939  27.546  87.895
11922DA     SC277502  59.752  27.396  87.830
11922DA     SC377503  59.786  27.490  87.593
11922DA     SC477504  59.977  27.616  87.755
11923DA     BB177505  60.172  27.516  88.453
11923DA     BB277506  59.985  27.206  88.393
11923DA     BB377507  60.105  27.067  88.283
11923DA     SC177508  60.007  27.166  88.005
11923DA     SC277509  59.866  27.080  87.818
11923DA     SC377510  59.986  27.256  87.674
11923DA     SC477511  60.094  27.280  87.932
11924DA     BB177512  60.046  26.849  88.531
11924DA     BB277513  59.895  26.628  88.280
11924DA     BB377514  60.047  26.531  88.166
11924DA     SC177515  60.057  26.752  87.947
11924DA     SC277516  59.993  26.777  87.707
11924DA     SC377517  60.155  26.976  87.706
11924DA     SC477518  60.163  26.871  87.966
11925DA     BB177519  59.923  26.229  88.249
11925DA     BB277520  59.858  26.169  87.893
11925DA     BB377521  60.037  26.106  87.795
11925DA     SC177522  60.127  26.393  87.719
11925DA     SC277523  60.149  26.531  87.512
11925DA     SC377524  60.309  26.676  87.650
11925DA     SC477525  60.224  26.470  87.821
11926DC     BB177526  60.074  25.899  87.707
11926DC     BB277527  60.032  25.997  87.363
11926DC     BB377528  60.214  25.988  87.264
11926DC     SC177529  60.297  26.208  87.382
11926DC     SC277530  60.310  26.366  87.237
11926DC     SC377531  60.441  26.369  87.533
11927DT     BB177532  60.139  25.764  87.124
11927DT     BB277533  60.215  26.010  86.871
11927DT     BB377534  60.416  26.002  86.822
11927DT     SC177535  60.483  26.121  87.047
11927DT     SC277536  60.556  26.319  87.004
11927DT     SC377537  60.590  26.161  87.284
11928DG     BB177538  60.190  25.950  86.489
11928DG     BB277539  60.426  26.221  86.450
11928DG     BB377540  60.609  26.148  86.419
11928DG     SC177541  60.682  26.135  86.716
11928DG     SC277542  60.890  26.300  86.852
11928DG     SC377543  60.788  26.090  87.032
11928DG     SC477544  60.646  26.003  86.799
11929DT     BB177545  60.683  26.208  86.246
11929DT     BB277546  60.931  26.449  86.351
11929DT     BB377547  61.117  26.359  86.360
11929DT     SC177548  61.055  26.233  86.581
11929DT     SC277549  61.169  26.316  86.745
11929DT     SC377550  61.005  26.036  86.749
11930DT     BB177551  61.157  26.518  86.158
11930DT     BB277552  61.411  26.602  86.400
11930DT     BB377553  61.564  26.463  86.392
11930DT     SC177554  61.418  26.283  86.516
11930DT     SC277555  61.497  26.250  86.713
11930DT     SC377556  61.283  26.061  86.561
11931DA     BB177557  61.728  26.850  86.373
11931DA     BB277558  61.922  26.656  86.616
11931DA     BB377559  62.038  26.507  86.517
11931DA     SC177560  61.818  26.288  86.535
11931DA     SC277561  61.780  26.073  86.656
11931DA     SC377562  61.608  26.023  86.473
11931DA     SC477563  61.716  26.275  86.411
11932DT     BB177564  62.242  26.521  86.516
11932DT     BB277565  62.310  26.250  86.743
11932DT     BB377566  62.378  26.085  86.639
11932DT     SC177567  62.137  26.032  86.549
11932DT     SC277568  62.065  25.851  86.641
11932DT     SC377569  61.937  25.997  86.381
11933DC     BB177570  62.640  26.117  86.723
11933DC     BB277571  62.559  25.779  86.819
11933DC     BB377572  62.605  25.649  86.665
11933DC     SC177573  62.395  25.726  86.528
11933DC     SC277574  62.250  25.567  86.522
11933DC     SC377575  62.250  25.831  86.334
11934DG     BB177576  62.828  25.517  86.980
11934DG     BB277577  62.633  25.247  86.837
11934DG     BB377578  62.722  25.179  86.673
11934DG     SC177579  62.579  25.373  86.484
11934DG     SC277580  62.379  25.299  86.275
11934DG     SC377581  62.455  25.584  86.252
11934DG     SC477582  62.644  25.517  86.456
11935DA     BB177583  62.698  24.862  86.812
11935DA     BB277584  62.500  24.748  86.525
11935DA     BB377585  62.627  24.715  86.356
11935DA     SC177586  62.597  25.005  86.247
11935DA     SC277587  62.490  25.119  86.053
11935DA     SC377588  62.652  25.312  86.103
11935DA     SC477589  62.707  25.114  86.293
11936DT     BB177590  62.651  24.526  86.286
11936DT     BB277591  62.455  24.561  85.986
11936DT     BB377592  62.579  24.575  85.821
11936DT     SC177593  62.644  24.822  85.882
11936DT     SC277594  62.560  24.956  85.736
11936DT     SC377595  62.791  25.030  85.951
11937DA     BB177596  62.316  24.262  85.722
11937DA     BB277597  62.333  24.485  85.432
11937DA     BB377598  62.518  24.459  85.330
11937DA     SC177599  62.667  24.678  85.492
11937DA     SC277600  62.761  24.906  85.452
11937DA     SC377601  62.901  24.863  85.663
11937DA     SC477602  62.747  24.632  85.624
11938DG     BB177603  62.381  24.354  85.053
11938DG     BB277604  62.524  24.654  84.909
11938DG     BB377605  62.708  24.617  84.843
11938DG     SC177606  62.844  24.687  85.108
11938DG     SC277607  63.025  24.919  85.156
11938DG     SC377608  63.023  24.738  85.389
11938DG     SC477609  62.863  24.573  85.219
11939DA     BB177610  62.683  24.715  84.486
11939DA     BB277611  62.932  24.981  84.531
11939DA     BB377612  63.128  24.904  84.501
11939DA     SC177613  63.171  24.830  84.800
11939DA     SC277614  63.310  24.909  84.992
11939DA     SC377615  63.264  24.679  85.094
11939DA     SC477616  63.132  24.681  84.846
11940DC     BB177617  63.327  24.936  84.306
11940DC     BB277618  63.521  25.162  84.510
11940DC     BB377619  63.708  25.082  84.547
11940DC     SC177620  63.609  24.911  84.720
11940DC     SC277621  63.674  24.964  84.918
11940DC     SC377622  63.540  24.682  84.831
11941DA     BB177623  63.821  25.447  84.372
11941DA     BB277624  63.981  25.430  84.701
11941DA     BB377625  64.161  25.315  84.691
11941DA     SC177626  64.020  25.046  84.758
11941DA     SC277627  64.013  24.884  84.948
11941DA     SC377628  63.927  24.716  84.774
11941DA     SC477629  63.969  24.956  84.635
11942DT     BB177630  64.329  25.414  84.731
11942DT     BB277631  64.355  25.292  85.070
11942DT     BB377632  64.509  25.154  85.083
11942DT     SC177633  64.364  24.971  84.963
11942DT     SC277634  64.312  24.817  85.103
11942DT     SC377635  64.287  24.796  84.781
11943DG     BB177636  64.531  25.463  85.347
11943DG     BB277637  64.536  25.141  85.512
11943DG     BB377638  64.712  25.054  85.485
11943DG     SC177639  64.631  24.912  85.227
11943DG     SC277640  64.602  24.617  85.190
11943DG     SC377641  64.582  24.758  84.931
11943DG     SC477642  64.650  24.988  85.087
11944DG     BB177643  64.691  25.051  85.806
11944DG     BB277644  64.705  24.691  85.773
11944DG     BB377645  64.891  24.634  85.734
11944DG     SC177646  64.860  24.653  85.431
11944DG     SC277647  64.865  24.424  85.239
11944DG     SC377648  64.867  24.683  85.095
11944DG     SC477649  64.891  24.793  85.358
11945DA     BB177650  64.828  24.419  85.996
11945DA     BB277651  64.901  24.135  85.776
11945DA     BB377652  65.111  24.123  85.737
11945DA     SC177653  65.098  24.302  85.483
11945DA     SC277654  65.124  24.274  85.236
11945DA     SC377655  65.164  24.528  85.232
11945DA     SC477656  65.121  24.460  85.501
11946DA     BB177657  65.063  23.817  85.845
11946DA     BB277658  65.179  23.704  85.516
11946DA     BB377659  65.391  23.724  85.502
11946DA     SC177660  65.380  24.012  85.385
11946DA     SC277661  65.428  24.125  85.168
11946DA     SC377662  65.443  24.340  85.306
11946DA     SC477663  65.387  24.135  85.489
11947DT     BB177664  65.501  23.556  85.487
11947DT     BB277665  65.579  23.589  85.136
11947DT     BB377666  65.775  23.649  85.113
11947DT     SC177667  65.717  23.894  85.186
11947DT     SC277668  65.733  24.026  85.017
11947DT     SC377669  65.715  24.117  85.327
11948DT     BB177670  65.825  23.404  85.021
11948DT     BB277671  65.920  23.626  84.753
11948DT     BB377672  66.114  23.692  84.781
11948DT     SC177673  66.040  23.855  84.973
11948DT     SC277674  66.059  24.058  84.906
11948DT     SC377675  66.019  23.962  85.213
11949DG     BB177676  66.033  23.527  84.418
11949DG     BB277677  66.183  23.855  84.391
11949DG     BB377678  66.375  23.847  84.440
11949DG     SC177679  66.327  23.901  84.737
11949DG     SC277680  66.412  24.146  84.886
11949DG     SC377681  66.309  23.939  85.072
11949DG     SC477682  66.299  23.778  84.835
11950DA     BB177683  66.323  24.039  84.154
11950DA     BB277684  66.515  24.304  84.320
11950DA     BB377685  66.713  24.237  84.362
11950DA     SC177686  66.642  24.128  84.645
11950DA     SC277687  66.690  24.187  84.882
11950DA     SC377688  66.624  23.944  84.934
11950DA     SC477689  66.599  23.973  84.657
11951DT     BB177690  66.767  24.354  84.279
11951DT     BB277691  66.944  24.527  84.542
11951DT     BB377692  67.119  24.426  84.587
11951DT     SC177693  66.988  24.238  84.714
11951DT     SC277694  67.029  24.252  84.925
11951DT     SC377695  66.892  24.000  84.774
11952DT     BB177696  67.224  24.634  84.473
11952DT     BB277697  67.405  24.594  84.783
11952DT     BB377698  67.544  24.441  84.764
11952DT     SC177699  67.356  24.258  84.777
11952DT     SC277700  67.374  24.152  84.963
11952DT     SC377701  67.199  24.059  84.707
11953DA     BB177702  67.802  24.753  84.887
11953DA     BB277703  67.903  24.455  85.075
11953DA     BB377704  68.014  24.323  84.950
11953DA     SC177705  67.763  24.164  84.856
11953DA     SC277706  67.666  23.936  84.888
11953DA     SC377707  67.534  23.985  84.674
11953DA     SC477708  67.691  24.212  84.721
11954DT     BB177709  68.254  24.263  84.946
11954DT     BB277710  68.221  23.928  85.074
11954DT     BB377711  68.271  23.791  84.927
11954DT     SC177712  68.044  23.832  84.801
11954DT     SC277713  67.920  23.657  84.819
11954DT     SC377714  67.875  23.902  84.612
11955DT     BB177715  68.543  23.707  85.011
11955DT     BB277716  68.369  23.392  84.982
11955DT     BB377717  68.403  23.309  84.796
11955DT     SC177718  68.240  23.480  84.682
11955DT     SC277719  68.064  23.377  84.614
11955DT     SC377720  68.155  23.676  84.527
11956DA     BB177721  68.531  22.992  85.042
11956DA     BB277722  68.302  22.847  84.796
11956DA     BB377723  68.401  22.820  84.609
11956DA     SC177724  68.322  23.100  84.499
11956DA     SC277725  68.173  23.195  84.324
11956DA     SC377726  68.319  23.405  84.341
11956DA     SC477727  68.426  23.221  84.524
11957DT     BB177728  68.453  22.619  84.512
11957DT     BB277729  68.196  22.627  84.259
11957DT     BB377730  68.281  22.651  84.072
11957DT     SC177731  68.331  22.905  84.119
11957DT     SC277732  68.203  23.027  83.996
11957DT     SC377733  68.465  23.128  84.157
11958DT     BB177734  68.246  22.382  83.979
11958DT     BB277735  68.080  22.579  83.727
11958DT     BB377736  68.212  22.623  83.573
11958DT     SC177737  68.337  22.801  83.720
11958DT     SC277738  68.297  22.998  83.643
11958DT     SC377739  68.529  22.921  83.856
11959DT     BB177740  68.110  22.438  83.375
11959DT     BB277741  68.093  22.757  83.208
11959DT     BB377742  68.265  22.789  83.098
11959DT     SC177743  68.404  22.839  83.314
11959DT     SC277744  68.457  23.048  83.318
11959DT     SC377745  68.587  22.815  83.503
11960DT     BB177746  68.158  22.742  82.829
11960DT     BB277747  68.291  23.077  82.811
11960DT     BB377748  68.484  23.072  82.737
11960DT     SC177749  68.577  22.981  82.965
11960DT     SC277750  68.696  23.134  83.059
11960DT     SC377751  68.691  22.820  83.139
11961DG     BB177752  68.291  23.302  82.457
11961DG     BB277753  68.574  23.479  82.597
11961DG     BB377754  68.740  23.427  82.501
11961DG     SC177755  68.804  23.192  82.688
11961DG     SC277756  69.036  23.175  82.875
11961DG     SC377757  68.893  22.917  82.860
11961DG     SC477758  68.743  23.048  82.655
11962DT     BB177759  68.850  23.581  82.401
11962DT     BB277760  69.115  23.636  82.639
11962DT     BB377761  69.290  23.550  82.570
11962DT     SC177762  69.204  23.309  82.628
11962DT     SC277763  69.317  23.230  82.793
11962DT     SC377764  69.125  23.059  82.595
11963DT     BB177765  69.357  23.801  82.554
11963DT     BB277766  69.591  23.651  82.785
11963DT     BB377767  69.740  23.553  82.680
11963DT     SC177768  69.578  23.356  82.619
11963DT     SC277769  69.638  23.179  82.725
11963DT     SC377770  69.433  23.190  82.474
11964DG     BB177771  69.860  23.823  82.963
11964DG     BB277772  70.013  23.498  83.007
11964DG     BB377773  70.146  23.466  82.863
11964DG     SC177774  69.945  23.337  82.672
11964DG     SC277775  69.944  23.052  82.584
11964DG     SC377776  69.748  23.210  82.429
11964DG     SC477777  69.863  23.431  82.571
11965DA     BB177778  70.315  23.382  83.151
11965DA     BB277779  70.379  23.051  83.005
11965DA     BB377780  70.512  23.068  82.839
11965DA     SC177781  70.284  23.103  82.630
11965DA     SC277782  70.184  22.972  82.443
11965DA     SC377783  70.094  23.198  82.360
11965DA     SC477784  70.239  23.253  82.594
11966DA     BB177785  70.644  22.836  83.029
11966DA     BB277786  70.618  22.617  82.736
11966DA     BB377787  70.756  22.679  82.585
11966DA     SC177788  70.554  22.870  82.445
11966DA     SC277789  70.427  22.879  82.230
11966DA     SC377790  70.407  23.131  82.277
11966DA     SC477791  70.554  23.024  82.491
11967DC     BB177792  70.892  22.553  82.550
11967DC     BB277793  70.776  22.445  82.226
11967DC     BB377794  70.884  22.540  82.077
11967DC     SC177795  70.755  22.765  82.117
11967DC     SC277796  70.628  22.805  81.949
11967DC     SC377797  70.709  23.017  82.179
11968DT     BB177798  71.010  22.308  82.025
11968DT     BB277799  70.869  22.407  81.708
11968DT     BB377800  70.998  22.536  81.611
11968DT     SC177801  70.934  22.733  81.772
11968DT     SC277802  70.821  22.881  81.663
11968DT     SC377803  70.957  22.923  81.954
11969DC     BB177804  71.064  22.342  81.433
11969DC     BB277805  70.951  22.617  81.227
11969DC     BB377806  71.108  22.746  81.189
11969DC     SC177807  71.099  22.842  81.432
11969DC     SC277808  71.028  23.045  81.426
11969DC     SC377809  71.173  22.903  81.678
11970DA     BB177810  70.941  22.651  80.815
11970DA     BB277811  70.983  23.015  80.830
11970DA     BB377812  71.189  23.067  80.811
11970DA     SC177813  71.243  23.061  81.117
11970DA     SC277814  71.293  23.224  81.299
11970DA     SC377815  71.383  23.021  81.428
11970DA     SC477816  71.295  22.923  81.181
11971DT     BB177817  71.263  23.170  80.641
11971DT     BB277818  71.313  23.490  80.799
11971DT     BB377819  71.516  23.524  80.827
11971DT     SC177820  71.524  23.354  81.027
11971DT     SC277821  71.556  23.461  81.211
11971DT     SC377822  71.588  23.141  81.170
11972DA     BB177823  71.377  23.864  80.623
11972DA     BB277824  71.574  23.979  80.910
11972DA     BB377825  71.782  23.950  80.873
11972DA     SC177826  71.789  23.665  80.998
11972DA     SC277827  71.884  23.555  81.201
11972DA     SC377828  71.857  23.336  81.070
11972DA     SC477829  71.766  23.540  80.900
11973DA     BB177830  71.802  24.272  80.943
11973DA     BB277831  72.017  24.180  81.225
11973DA     BB377832  72.213  24.133  81.156
11973DA     SC177833  72.154  23.830  81.119
11973DA     SC277834  72.218  23.614  81.226
11973DA     SC377835  72.143  23.505  81.006
11973DA     SC477836  72.104  23.781  80.974
11974DA     BB177837  72.296  24.359  81.379
11974DA     BB277838  72.483  24.094  81.551
11974DA     BB377839  72.665  24.053  81.448
11974DA     SC177840  72.541  23.832  81.267
11974DA     SC277841  72.556  23.585  81.242
11974DA     SC377842  72.462  23.623  81.007
11974DA     SC477843  72.483  23.877  81.124
11975DC     BB177844  72.833  24.096  81.543
11975DC     BB277845  72.927  23.757  81.621
11975DC     BB377846  73.078  23.694  81.493
11975DC     SC177847  72.909  23.668  81.294
11975DC     SC277848  72.885  23.459  81.248
11975DC     SC377849  72.792  23.706  81.061
11976DT     BB177850  73.249  23.707  81.700
11976DT     BB277851  73.273  23.367  81.581
11976DT     BB377852  73.408  23.356  81.425
11976DT     SC177853  73.238  23.468  81.259
11976DT     SC277854  73.172  23.322  81.115
11976DT     SC377855  73.132  23.643  81.093
11977DA     BB177856  73.524  23.063  81.703
11977DA     BB277857  73.516  22.906  81.372
11977DA     BB377858  73.681  22.972  81.255
11977DA     SC177859  73.529  23.214  81.131
11977DA     SC277860  73.439  23.280  80.908
11977DA     SC377861  73.444  23.520  81.001
11977DA     SC477862  73.541  23.355  81.206
11978DG     BB177863  73.774  22.671  81.243
11978DG     BB277864  73.709  22.709  80.889
11978DG     BB377865  73.868  22.789  80.799
11978DG     SC177866  73.777  23.078  80.840
11978DG     SC277867  73.696  23.269  80.625
11978DG     SC377868  73.717  23.407  80.885
11978DG     SC477869  73.818  23.154  80.975
11979DT     BB177870  74.002  22.683  80.633
11979DT     BB277871  73.887  22.854  80.337
11979DT     BB377872  74.032  22.985  80.270
11979DT     SC177873  73.980  23.154  80.464
11979DT     SC277874  73.888  23.331  80.382
11979DT     SC377875  74.013  23.303  80.680
11980DA     BB177876  73.941  22.748  79.937
11980DA     BB277877  73.917  23.099  79.833
11980DA     BB377878  74.112  23.182  79.808
11980DA     SC177879  74.134  23.283  80.101
11980DA     SC277880  74.136  23.501  80.222
11980DA     SC377881  74.246  23.371  80.414
11980DA     SC477882  74.203  23.185  80.209
11981DC     BB177883  74.170  23.239  79.620
11981DC     BB277884  74.126  23.593  79.674
11981DC     BB377885  74.311  23.685  79.691
11981DC     SC177886  74.346  23.589  79.933
11981DC     SC277887  74.335  23.750  80.076
11981DC     SC377888  74.449  23.452  80.133
11982DT     BB177889  74.246  23.791  79.460
11982DT     BB277890  74.292  24.069  79.685
11982DT     BB377891  74.493  24.114  79.702
11982DT     SC177892  74.536  23.904  79.853
11982DT     SC277893  74.580  23.967  80.054
11982DT     SC377894  74.630  23.671  79.933
11983DG     BB177895  74.269  24.436  79.591
11983DG     BB277896  74.471  24.504  79.883
11983DG     BB377897  74.661  24.526  79.830
11983DG     SC177898  74.730  24.229  79.862
11983DG     SC277899  74.913  24.112  80.066
11983DG     SC377900  74.834  23.908  79.866
11983DG     SC477901  74.709  24.131  79.737
11984DA     BB177902  74.614  24.806  80.024
11984DA     BB277903  74.886  24.692  80.241
11984DA     BB377904  75.074  24.709  80.141
11984DA     SC177905  75.064  24.421  80.023
11984DA     SC277906  75.183  24.204  80.055
11984DA     SC377907  75.093  24.144  79.822
11984DA     SC477908  75.000  24.403  79.876
11985DT     BB177909  75.178  24.829  80.226
11985DT     BB277910  75.408  24.592  80.372
11985DT     BB377911  75.578  24.578  80.256
11985DT     SC177912  75.451  24.437  80.074
11985DT     SC277913  75.524  24.234  80.077
11985DT     SC377914  75.344  24.368  79.843
11986DA     BB177915  75.672  24.634  80.662
11986DA     BB277916  75.873  24.357  80.532
11986DA     BB377917  76.019  24.429  80.394
11986DA     SC177918  75.835  24.396  80.145
11986DA     SC277919  75.822  24.250  79.943
11986DA     SC377920  75.675  24.436  79.844
11986DA     SC477921  75.747  24.523  80.101
11987DT     BB177922  76.184  24.399  80.459
11987DT     BB277923  76.276  24.133  80.233
11987DT     BB377924  76.386  24.208  80.076
11987DT     SC177925  76.172  24.313  79.965
11987DT     SC277926  76.125  24.206  79.785
11987DT     SC377927  76.004  24.493  79.872
11988DG     BB177928  76.586  23.907  80.265
11988DG     BB277929  76.569  23.855  79.908
11988DG     BB377930  76.694  23.980  79.815
11988DG     SC177931  76.487  24.203  79.785
11988DG     SC277932  76.372  24.302  79.528
11988DG     SC377933  76.292  24.476  79.753
11988DG     SC477934  76.471  24.311  79.903
11989DA     BB177935  76.801  23.689  79.659
11989DA     BB277936  76.726  23.841  79.333
11989DA     BB377937  76.868  23.994  79.289
11989DA     SC177938  76.701  24.221  79.419
11989DA     SC277939  76.571  24.421  79.345
11989DA     SC377940  76.598  24.503  79.587
11989DA     SC477941  76.730  24.255  79.574
11990DA     BB177942  76.896  23.815  79.011
11990DA     BB277943  76.800  24.118  78.829
11990DA     BB377944  76.960  24.260  78.830
11990DA     SC177945  76.866  24.401  79.091
11990DA     SC277946  76.768  24.621  79.157
11990DA     SC377947  76.852  24.564  79.393
11990DA     SC477948  76.927  24.348  79.230
11991DT     BB177949  77.068  24.313  78.654
11991DT     BB277950  76.933  24.645  78.613
11991DT     BB377951  77.075  24.786  78.667
11991DT     SC177952  77.040  24.736  78.922
11991DT     SC277953  76.944  24.904  79.016
11991DT     SC377954  77.092  24.659  79.169
11992DA     BB177955  76.976  24.911  78.276
11992DA     BB277956  76.962  25.208  78.491
11992DA     BB377957  77.159  25.277  78.535
11992DA     SC177958  77.187  25.106  78.794
11992DA     SC277959  77.197  25.144  79.040
11992DA     SC377960  77.305  24.912  79.051
11992DA     SC477961  77.254  24.960  78.780
11993DA     BB177962  77.067  25.573  78.413
11993DA     BB277963  77.127  25.714  78.746
11993DA     BB377964  77.336  25.749  78.775
11993DA     SC177965  77.391  25.468  78.898
11993DA     SC277966  77.450  25.372  79.120
11993DA     SC377967  77.530  25.167  78.987
11993DA     SC477968  77.436  25.351  78.797
11994DA     BB177969  77.237  26.056  78.846
11994DA     BB277970  77.376  26.004  79.182
11994DA     BB377971  77.588  26.021  79.178
11994DA     SC177972  77.637  25.719  79.124
11994DA     SC277973  77.728  25.522  79.247
11994DA     SC377974  77.759  25.417  79.015
11994DA     SC477975  77.649  25.672  78.971
11995DA     BB177976  77.534  26.244  79.416
11995DA     BB277977  77.733  26.029  79.637
11995DA     BB377978  77.941  26.051  79.595
11995DA     SC177979  77.948  25.821  79.386
11995DA     SC277980  78.043  25.591  79.367
11995DA     SC377981  78.015  25.622  79.114
11995DA     SC477982  77.924  25.860  79.232
11996DG     BB177983  77.971  26.152  79.891
11996DG     BB277984  78.171  25.853  79.927
11996DG     BB377985  78.357  25.888  79.866
11996DG     SC177986  78.304  25.809  79.576
11996DG     SC277987  78.419  25.572  79.434
11996DG     SC377988  78.275  25.748  79.245
11996DG     SC477989  78.252  25.920  79.473
11997DA     BB177990  78.492  25.773  80.172
11997DA     BB277991  78.675  25.509  79.997
11997DA     BB377992  78.854  25.587  79.910
11997DA     SC177993  78.719  25.657  79.638
11997DA     SC277994  78.726  25.576  79.402
11997DA     SC377995  78.627  25.805  79.342
11997DA     SC477996  78.659  25.805  79.621
11998DC     BB177997  79.076  25.541  79.972
11998DC     BB277998  79.146  25.323  79.694
11998DC     BB377999  79.284  25.411  79.568
11998DC     SC178000  79.104  25.577  79.473
11998DC     SC278001  79.060  25.525  79.269
11998DC     SC378002  78.979  25.802  79.417
11999DT     BB178003  79.517  25.252  79.638
11999DT     BB278004  79.474  25.196  79.284
11999DT     BB378005  79.592  25.329  79.177
11999DT     SC178006  79.428  25.528  79.229
11999DT     SC278007  79.327  25.586  79.048
11999DT     SC378008  79.339  25.757  79.323
12000DT     BB178009  79.769  25.130  79.099
12000DT     BB278010  79.624  25.255  78.793
12000DT     BB378011  79.739  25.411  78.719
12000DT     SC178012  79.649  25.575  78.902
12000DT     SC278013  79.523  25.723  78.809
12000DT     SC378014  79.647  25.740  79.108
12001DG     BB178015  79.657  25.100  78.472
12001DG     BB278016  79.537  25.417  78.344
12001DG     BB378017  79.690  25.526  78.280
12001DG     SC178018  79.739  25.662  78.550
12001DG     SC278019  79.699  25.952  78.610
12001DG     SC378020  79.833  25.815  78.835
12001DG     SC478021  79.837  25.592  78.655
12002DA     BB178022  79.409  25.516  78.079
12002DA     BB278023  79.408  25.882  78.101
12002DA     BB378024  79.588  25.962  78.018
12002DA     SC178025  79.743  25.958  78.288
12002DA     SC278026  79.831  26.124  78.453
12002DA     SC378027  79.983  25.933  78.532
12002DA     SC478028  79.830  25.827  78.323
12003DC     BB178029  79.501  26.040  77.920
12003DC     BB278030  79.572  26.368  78.052
12003DC     BB378031  79.757  26.433  77.986
12003DC     SC178032  79.882  26.270  78.150
12003DC     SC278033  79.979  26.385  78.304
12003DC     SC378034  80.034  26.073  78.236
12004DT     BB178035  79.594  26.594  77.870
12004DT     BB278036  79.827  26.800  78.052
12004DT     BB378037  80.008  26.808  77.951
12004DT     SC178038  80.069  26.564  78.027
12004DT     SC278039  80.231  26.571  78.168
12004DT     SC378040  80.126  26.307  78.013
12005DA     BB178041  79.884  27.197  78.049
12005DA     BB278042  80.238  27.164  78.136
12005DA     BB378043  80.357  27.153  77.959
12005DA     SC178044  80.345  26.842  77.942
12005DA     SC278045  80.500  26.649  77.972
12005DA     SC378046  80.330  26.517  77.834
12005DA     SC478047  80.227  26.777  77.854
12006DT     BB178048  80.479  27.302  77.924
12006DT     BB278049  80.788  27.131  77.997
12006DT     BB378050  80.883  27.079  77.820
12006DT     SC178051  80.713  26.884  77.776
12006DT     SC278052  80.813  26.695  77.800
12006DT     SC378053  80.524  26.741  77.661
12007DA     BB178054  81.165  27.282  78.055
12007DA     BB278055  81.324  26.977  77.928
12007DA     BB378056  81.367  26.997  77.720
12007DA     SC178057  81.095  26.879  77.628
12007DA     SC278058  81.012  26.672  77.516
12007DA     SC378059  80.803  26.811  77.459
12007DA     SC478060  80.974  26.982  77.601
12008DT     BB178061  81.559  27.001  77.666
12008DT     BB278062  81.574  26.673  77.516
12008DT     BB378063  81.571  26.689  77.310
12008DT     SC178064  81.315  26.746  77.309
12008DT     SC278065  81.206  26.582  77.224
12008DT     SC378066  81.091  26.881  77.274
12009DA     BB178067  81.897  26.445  77.413
12009DA     BB278068  81.715  26.280  77.140
12009DA     BB378069  81.747  26.384  76.957
12009DA     SC178070  81.501  26.571  76.992
12009DA     SC278071  81.277  26.604  76.886
12009DA     SC378072  81.285  26.838  76.990
12009DA     SC478073  81.526  26.714  77.063
12010DT     BB178074  81.855  26.296  76.802
12010DT     BB278075  81.581  26.235  76.576
12010DT     BB378076  81.585  26.372  76.421
12010DT     SC178077  81.496  26.564  76.577
12010DT     SC278078  81.296  26.616  76.519
12010DT     SC378079  81.488  26.790  76.713
12011DT     BB178080  81.689  26.199  76.215
12011DT     BB278081  81.393  26.336  76.061
12011DT     BB378082  81.442  26.507  75.954
12011DT     SC178083  81.468  26.647  76.174
12011DT     SC278084  81.307  26.790  76.187
12011DT     SC378085  81.579  26.792  76.365
12012DA     BB178086  81.263  26.286  75.639
12012DA     BB278087  81.111  26.620  75.633
12012DA     BB378088  81.244  26.760  75.540
12012DA     SC178089  81.383  26.841  75.806
12012DA     SC278090  81.394  27.041  75.956
12012DA     SC378091  81.610  26.936  76.046
12012DA     SC478092  81.516  26.761  75.848
12013DT     BB178093  81.218  26.872  75.332
12013DT     BB278094  81.127  27.190  75.474
12013DT     BB378095  81.277  27.329  75.438
12013DT     SC178096  81.432  27.221  75.620
12013DT     SC278097  81.449  27.356  75.787
12013DT     SC378098  81.638  27.099  75.730
12014DC     BB178099  81.132  27.469  75.244
12014DC     BB278100  81.204  27.715  75.498
12014DC     BB378101  81.384  27.810  75.456
12014DC     SC178102  81.521  27.599  75.532
12014DC     SC278103  81.625  27.645  75.715
12014DC     SC378104  81.682  27.391  75.521
12015DA     BB178105  81.089  28.098  75.524
12015DA     BB278106  81.377  28.177  75.735
12015DA     BB378107  81.538  28.253  75.617
12015DA     SC178108  81.665  27.973  75.568
12015DA     SC278109  81.871  27.849  75.636
12015DA     SC378110  81.825  27.701  75.432
12015DA     SC478111  81.621  27.893  75.435
12016DT     BB178112  81.576  28.427  75.662
12016DT     BB278113  81.882  28.359  75.840
12016DT     BB378114  82.045  28.396  75.718
12016DT     SC178115  82.003  28.175  75.582
12016DT     SC278116  82.159  28.034  75.624
12016DT     SC378117  81.947  28.015  75.380
12017DA     BB178118  82.089  28.582  76.093
12017DA     BB278119  82.398  28.401  76.015
12017DA     BB378120  82.502  28.497  75.854
12017DA     SC178121  82.362  28.329  75.633
12017DA     SC278122  82.423  28.150  75.470
12017DA     SC378123  82.213  28.222  75.343
12017DA     SC478124  82.228  28.389  75.567
12018DT     BB178125  82.672  28.574  75.900
12018DT     BB278126  82.880  28.330  75.735
12018DT     BB378127  82.947  28.405  75.554
12018DT     SC178128  82.711  28.371  75.443
12018DT     SC278129  82.722  28.213  75.298
12018DT     SC378130  82.481  28.428  75.327
12019DT     BB178131  83.200  28.438  75.652
12019DT     BB278132  83.244  28.229  75.361
12019DT     BB378133  83.264  28.346  75.192
12019DT     SC178134  83.008  28.403  75.190
12019DT     SC278135  82.915  28.307  75.022
12019DT     SC378136  82.785  28.543  75.202
12020DT     BB178137  83.537  28.297  75.168
12020DT     BB278138  83.399  28.190  74.852
12020DT     BB378139  83.395  28.349  74.719
12020DT     SC178140  83.191  28.458  74.843
12020DT     SC278141  83.016  28.445  74.718
12020DT     SC378142  83.048  28.631  74.981
12021DA     BB178143  83.596  28.040  74.520
12021DA     BB278144  83.329  28.161  74.299
12021DA     BB378145  83.384  28.349  74.213
12021DA     SC178146  83.256  28.518  74.440
12021DA     SC278147  83.061  28.671  74.470
12021DA     SC378148  83.187  28.759  74.675
12021DA     SC478149  83.350  28.561  74.564
12022DT     BB178150  83.408  28.350  74.017
12022DT     BB278151  83.097  28.515  73.940
12022DT     BB378152  83.132  28.712  73.890
12022DT     SC178153  83.176  28.777  74.140
12022DT     SC278154  83.015  28.900  74.212
12022DT     SC378155  83.301  28.859  74.357
12023DT     BB178156  83.065  28.642  73.642
12023DT     BB278157  82.833  28.903  73.731
12023DT     BB378158  82.918  29.089  73.695
12023DT     SC178159  83.072  29.067  73.907
12023DT     SC278160  83.007  29.208  74.056
12023DT     SC378161  83.289  29.048  74.055
12024DT     BB178162  82.743  29.106  73.497
12024DT     BB278163  82.679  29.393  73.706
12024DT     BB378164  82.811  29.546  73.659
12024DT     SC178165  83.008  29.424  73.780
12024DT     SC278166  83.061  29.533  73.958
12024DT     SC378167  83.239  29.301  73.818
12025DA     BB178168  82.420  29.698  73.657
12025DA     BB278169  82.630  29.926  73.853
12025DA     BB378170  82.761  30.035  73.725
12025DA     SC178171  82.991  29.826  73.743
12025DA     SC278172  83.219  29.811  73.842
12025DA     SC378173  83.257  29.620  73.675
12025DA     SC478174  82.996  29.711  73.631
12026DT     BB178175  82.734  30.233  73.708
12026DT     BB278176  83.022  30.333  73.901
12026DT     BB378177  83.172  30.400  73.775
12026DT     SC178178  83.229  30.155  73.700
12026DT     SC278179  83.422  30.099  73.778
12026DT     SC378180  83.259  29.944  73.545
12027DC     BB178181  83.130  30.659  73.852
12027DC     BB278182  83.479  30.600  73.923
12027DC     BB378183  83.593  30.642  73.756
12027DC     SC178184  83.515  30.421  73.638
12027DC     SC278185  83.681  30.285  73.625
12027DC     SC378186  83.402  30.260  73.462
12028DA     BB178187  83.759  30.854  74.077
12028DA     BB278188  84.030  30.674  73.908
12028DA     BB378189  84.077  30.768  73.722
12028DA     SC178190  83.877  30.596  73.557
12028DA     SC278191  83.886  30.416  73.385
12028DA     SC378192  83.646  30.485  73.328
12028DA     SC478193  83.729  30.655  73.536
12029DT     BB178194  84.253  30.844  73.714
12029DT     BB278195  84.399  30.593  73.500
12029DT     BB378196  84.412  30.664  73.306
12029DT     SC178197  84.154  30.635  73.269
12029DT     SC278198  84.120  30.475  73.129
12029DT     SC378199  83.902  30.696  73.223
12030DT     BB178200  84.672  30.668  73.351
12030DT     BB278201  84.629  30.458  73.060
12030DT     BB378202  84.615  30.574  72.890
12030DT     SC178203  84.370  30.647  72.951
12030DT     SC278204  84.232  30.557  72.812
12030DT     SC378205  84.165  30.800  73.016
12031DT     BB178206  84.852  30.475  72.833
12031DT     BB278207  84.645  30.394  72.549
12031DT     BB378208  84.634  30.557  72.421
12031DT     SC178209  84.470  30.682  72.583
12031DT     SC278210  84.274  30.692  72.494
12031DT     SC378211  84.375  30.865  72.748
12032DC     BB178212  84.788  30.418  72.254
12032DC     BB278213  84.496  30.506  72.060
12032DC     BB378214  84.517  30.697  71.983
12032DC     SC178215  84.470  30.804  72.218
12032DC     SC278216  84.279  30.903  72.214
12032DC     SC378217  84.508  30.941  72.440
12033DA     BB178218  84.425  30.455  71.652
12033DA     BB278219  84.208  30.750  71.637
12033DA     BB378220  84.319  30.921  71.576
12033DA     SC178221  84.395  31.006  71.865
12033DA     SC278222  84.339  31.190  72.024
12033DA     SC378223  84.556  31.126  72.144
12033DA     SC478224  84.534  30.952  71.925
12034DA     BB178225  84.088  30.947  71.341
12034DA     BB278226  84.003  31.274  71.483
12034DA     BB378227  84.146  31.420  71.424
12034DA     SC178228  84.331  31.375  71.670
12034DA     SC278229  84.398  31.498  71.876
12034DA     SC378230  84.600  31.341  71.880
12034DA     SC478231  84.450  31.268  71.654
12035DT     BB178232  84.091  31.577  71.297
12035DT     BB278233  84.088  31.836  71.549
12035DT     BB378234  84.252  31.960  71.525
12035DT     SC178235  84.414  31.778  71.624
12035DT     SC278236  84.485  31.843  71.816
12035DT     SC378237  84.609  31.602  71.639
12036DT     BB178238  84.087  32.154  71.437
12036DT     BB278239  84.257  32.300  71.719
12036DT     BB378240  84.437  32.383  71.658
12036DT     SC178241  84.547  32.146  71.635
12036DT     SC278242  84.696  32.121  71.788
12036DT     SC378243  84.662  31.936  71.525
12037DA     BB178244  84.221  32.662  71.885
12037DA     BB278245  84.565  32.652  72.012
12037DA     BB378246  84.698  32.743  71.872
12037DA     SC178247  84.759  32.477  71.721
12037DA     SC278248  84.951  32.321  71.693
12037DA     SC378249  84.828  32.240  71.483
12037DA     SC478250  84.667  32.442  71.594
12038DT     BB178251  84.780  32.902  71.934
12038DT     BB278252  85.113  32.771  71.981
12038DT     BB378253  85.233  32.825  71.821
12038DT     SC178254  85.118  32.648  71.665
12038DT     SC278255  85.257  32.490  71.621
12038DT     SC378256  84.979  32.547  71.465
12039DC     BB178257  85.366  33.007  71.975
12039DC     BB278258  85.629  32.800  71.838
12039DC     BB378259  85.687  32.873  71.654
12039DC     SC178260  85.469  32.781  71.540
12039DC     SC278261  85.521  32.618  71.409
12039DC     SC378262  85.239  32.777  71.412
12040DA     BB178263  86.058  32.865  71.856
12040DA     BB278264  86.113  32.711  71.529
12040DA     BB378265  86.125  32.861  71.377
12040DA     SC178266  85.820  32.856  71.314
12040DA     SC278267  85.671  32.783  71.128
12040DA     SC378268  85.498  32.940  71.233
12040DA     SC478269  85.727  32.960  71.394
12041DA     BB178270  86.439  32.769  71.267
12041DA     BB278271  86.294  32.688  70.941
12041DA     BB378272  86.283  32.862  70.819
12041DA     SC178273  85.997  32.940  70.914
12041DA     SC278274  85.766  32.947  70.818
12041DA     SC378275  85.714  33.109  71.010
12041DA     SC478276  85.984  33.040  71.039
12042DA     BB178277  86.470  32.731  70.563
12042DA     BB278278  86.174  32.750  70.348
12042DA     BB378279  86.162  32.943  70.256
12042DA     SC178280  85.989  33.067  70.483
12042DA     SC278281  85.755  33.147  70.515
12042DA     SC378282  85.849  33.277  70.715
12042DA     SC478283  86.067  33.141  70.603
12043DT     BB178284  86.186  32.991  70.027
12043DT     BB278285  85.833  33.030  69.964
12043DT     BB378286  85.791  33.227  69.916
12043DT     SC178287  85.819  33.303  70.165
12043DT     SC278288  85.627  33.359  70.244
12043DT     SC378289  85.914  33.426  70.378
12044DT     BB178290  85.746  33.162  69.651
12044DT     BB278291  85.435  33.308  69.763
12044DT     BB378292  85.438  33.513  69.731
12044DT     SC178293  85.601  33.550  69.934
12044DT     SC278294  85.496  33.650  70.092
12044DT     SC378295  85.817  33.616  70.069
12045DA     BB178296  85.089  33.340  69.581
12045DA     BB278297  84.995  33.627  69.789
12045DA     BB378298  85.046  33.810  69.691
12045DA     SC178299  85.330  33.826  69.816
12045DA     SC278300  85.450  33.968  69.983
12045DA     SC378301  85.665  33.879  69.873
12045DA     SC478302  85.452  33.762  69.734
12046DA     BB178303  84.734  33.844  69.775
12046DA     BB278304  84.842  34.136  69.968
12046DA     BB378305  84.896  34.295  69.837
12046DA     SC178306  85.195  34.211  69.819
12046DA     SC278307  85.416  34.297  69.898
12046DA     SC378308  85.516  34.148  69.714
12046DA     SC478309  85.238  34.114  69.699
12047DT     BB178310  84.782  34.446  69.852
12047DT     BB278311  85.014  34.666  70.019
12047DT     BB378312  85.097  34.798  69.882
12047DT     SC178313  85.251  34.610  69.782
12047DT     SC278314  85.456  34.651  69.834
12047DT     SC378315  85.354  34.441  69.609
12048DT     BB178316  84.949  34.999  69.989
12048DT     BB278317  85.288  35.120  70.006
12048DT     BB378318  85.339  35.213  69.828
12048DT     SC178319  85.362  34.982  69.705
12048DT     SC278320  85.569  34.945  69.660
12048DT     SC378321  85.316  34.786  69.535
12049DC     BB178322  85.326  35.470  69.935
12049DC     BB278323  85.657  35.455  69.794
12049DC     BB378324  85.653  35.518  69.597
12049DC     SC178325  85.541  35.293  69.519
12049DC     SC278326  85.683  35.180  69.403
12049DC     SC378327  85.364  35.126  69.420
12050DG     BB178328  85.911  35.789  69.765
12050DG     BB278329  86.059  35.639  69.471
12050DG     BB378330  85.993  35.731  69.308
12050DG     SC178331  85.751  35.547  69.271
12050DG     SC278332  85.710  35.354  69.047
12050DG     SC378333  85.466  35.378  69.212
12050DG     SC478334  85.614  35.584  69.344
12051DA     BB178335  86.321  35.795  69.194
12051DA     BB278336  86.262  35.596  68.891
12051DA     BB378337  86.160  35.713  68.745
12051DA     SC178338  85.876  35.630  68.840
12051DA     SC278339  85.686  35.491  68.756
12051DA     SC378340  85.543  35.623  68.923
12051DA     SC478341  85.803  35.723  68.949
12052DG     BB178342  86.409  35.671  68.559
12052DG     BB278343  86.173  35.487  68.355
12052DG     BB378344  86.078  35.611  68.233
12052DG     SC178345  85.851  35.670  68.429
12052DG     SC278346  85.565  35.591  68.396
12052DG     SC378347  85.597  35.773  68.627
12052DG     SC478348  85.868  35.791  68.534
12053DC     BB178349  86.095  35.597  68.006
12053DC     BB278350  85.776  35.452  67.921
12053DC     BB378351  85.654  35.595  67.835
12053DC     SC178352  85.610  35.709  68.067
12053DC     SC278353  85.406  35.676  68.126
12053DC     SC378354  85.609  35.891  68.258
12054DT     BB178355  85.684  35.476  67.591
12054DT     BB278356  85.327  35.482  67.643
12054DT     BB378357  85.248  35.661  67.574
12054DT     SC178358  85.344  35.792  67.780
12054DT     SC278359  85.181  35.855  67.906
12054DT     SC378360  85.486  35.965  67.920
12055DG     BB178361  85.055  35.365  67.371
12055DG     BB278362  84.819  35.596  67.520
12055DG     BB378363  84.805  35.760  67.408
12055DG     SC178364  85.031  35.908  67.553
12055DG     SC278365  85.000  36.152  67.722
12055DG     SC378366  85.286  36.091  67.676
12055DG     SC478367  85.182  35.889  67.501
12056DT     BB178368  84.612  35.827  67.298
12056DT     BB278369  84.506  36.106  67.501
12056DT     BB378370  84.543  36.284  67.402
12056DT     SC178371  84.800  36.266  67.449
12056DT     SC278372  84.857  36.419  67.590
12056DT     SC378373  85.060  36.244  67.406
12057DT     BB178374  84.272  36.334  67.335
12057DT     BB278375  84.373  36.633  67.510
12057DT     BB378376  84.444  36.773  67.375
12057DT     SC178377  84.668  36.641  67.343
12057DT     SC278378  84.830  36.753  67.431
12057DT     SC378379  84.861  36.502  67.228
12058DT     BB178380  84.216  36.942  67.387
12058DT     BB278381  84.489  37.161  67.473
12058DT     BB378382  84.562  37.254  67.302
12058DT     SC178383  84.681  37.033  67.224
12058DT     SC278384  84.895  37.059  67.240
12058DT     SC378385  84.742  36.822  67.078
12059DG     BB178386  84.444  37.567  67.536
12059DG     BB278387  84.787  37.609  67.429
12059DG     BB378388  84.792  37.686  67.246
12059DG     SC178389  84.789  37.414  67.105
12059DG     SC278390  85.012  37.298  66.944
12059DG     SC378391  84.766  37.134  66.918
12059DG     SC478392  84.648  37.346  67.070
12060DG     BB178393  84.965  37.940  67.360
12060DG     BB278394  85.232  37.826  67.144
12060DG     BB378395  85.207  37.899  66.961
12060DG     SC178396  85.038  37.664  66.863
12060DG     SC278397  85.117  37.466  66.654
12060DG     SC378398  84.832  37.433  66.728
12060DG     SC478399  84.879  37.669  66.883
12061DA     BB178400  85.534  38.000  66.995
12061DA     BB278401  85.626  37.803  66.700
12061DA     BB378402  85.563  37.902  66.522
12061DA     SC178403  85.286  37.762  66.514
12061DA     SC278404  85.169  37.592  66.373
12061DA     SC378405  84.953  37.688  66.472
12061DA     SC478406  85.162  37.837  66.585
12062DA     BB178407  85.880  37.837  66.474
12062DA     BB278408  85.769  37.643  66.183
12062DA     BB378409  85.698  37.774  66.030
12062DA     SC178410  85.403  37.770  66.129
12062DA     SC278411  85.183  37.680  66.053
12062DA     SC378412  85.080  37.853  66.212
12062DA     SC478413  85.358  37.885  66.232
12063DA     BB178414  85.916  37.594  65.864
12063DA     BB278415  85.637  37.492  65.649
12063DA     BB378416  85.578  37.653  65.523
12063DA     SC178417  85.368  37.766  65.722
12063DA     SC278418  85.120  37.784  65.738
12063DA     SC378419  85.164  37.970  65.909
12063DA     SC478420  85.416  37.880  65.825
12064DA     BB178421  85.625  37.423  65.294
12064DA     BB278422  85.271  37.465  65.207
12064DA     BB378423  85.243  37.647  65.098
12064DA     SC178424  85.188  37.818  65.352
12064DA     SC278425  84.996  37.936  65.458
12064DA     SC378426  85.173  38.070  65.585
12064DA     SC478427  85.314  37.892  65.421
12065DA     BB178428  85.102  37.440  64.886
12065DA     BB278429  84.792  37.630  64.937
12065DA     BB378430  84.802  37.816  64.833
12065DA     SC178431  84.923  37.972  65.073
12065DA     SC278432  84.850  38.149  65.234
12065DA     SC378433  85.101  38.188  65.273
12065DA     SC478434  85.083  37.982  65.083
12066DA     BB178435  84.521  37.698  64.716
12066DA     BB278436  84.359  37.992  64.863
12066DA     BB378437  84.401  38.166  64.747
12066DA     SC178438  84.657  38.241  64.907
12066DA     SC278439  84.730  38.419  65.066
12066DA     SC378440  84.969  38.351  65.002
12066DA     SC478441  84.798  38.185  64.853
12067DG     BB178442  84.095  38.159  64.735
12067DG     BB278443  84.130  38.471  64.915
12067DG     BB378444  84.177  38.617  64.789
12067DG     SC178445  84.479  38.576  64.817
12067DG     SC278446  84.672  38.767  64.941
12067DG     SC378447  84.815  38.545  64.808
12067DG     SC478448  84.553  38.472  64.720
12068DC     BB178449  84.043  38.767  64.784
12068DC     BB278450  84.216  39.033  64.955
12068DC     BB378451  84.305  39.160  64.817
12068DC     SC178452  84.494  38.985  64.767
12068DC     SC278453  84.681  39.058  64.844
12068DC     SC378454  84.645  38.813  64.635
12069DA     BB178455  84.085  39.382  65.098
12069DA     BB278456  84.412  39.542  65.056
12069DA     BB378457  84.426  39.632  64.863
12069DA     SC178458  84.545  39.379  64.726
12069DA     SC278459  84.763  39.308  64.628
12069DA     SC378460  84.626  39.129  64.505
12069DA     SC478461  84.442  39.276  64.658
12070DA     BB178462  84.510  39.895  65.047
12070DA     BB278463  84.823  39.905  64.857
12070DA     BB378464  84.787  39.975  64.658
12070DA     SC178465  84.739  39.691  64.541
12070DA     SC278466  84.855  39.533  64.386
12070DA     SC378467  84.625  39.422  64.360
12070DA     SC478468  84.588  39.637  64.536
12071DT     BB178469  84.853  40.175  64.573
12071DT     BB278470  85.110  40.051  64.351
12071DT     BB378471  85.047  40.068  64.155
12071DT     SC178472  84.884  39.864  64.181
12071DT     SC278473  84.958  39.698  64.066
12071DT     SC378474  84.660  39.725  64.190
12072DG     BB178475  85.372  40.327  64.119
12072DG     BB278476  85.383  40.080  63.855
12072DG     BB378477  85.271  40.139  63.702
12072DG     SC178478  85.016  40.006  63.806
12072DG     SC278479  84.875  39.775  63.679
12072DG     SC378480  84.714  39.889  63.899
12072DG     SC478481  84.920  40.088  63.904
12073DC     BB178482  85.327  40.215  63.444
12073DC     BB278483  85.223  39.916  63.272
12073DC     BB378484  85.058  39.955  63.154
12073DC     SC178485  84.901  39.964  63.364
12073DC     SC278486  84.769  39.794  63.362
12073DC     SC378487  84.734  40.059  63.546
12074DT     BB178488  85.184  39.959  62.890
12074DT     BB278489  84.930  39.704  62.859
12074DT     BB378490  84.758  39.785  62.779
12074DT     SC178491  84.699  39.905  63.005
12074DT     SC278492  84.526  39.811  63.093
12074DT     SC378493  84.652  40.097  63.180
12075DA     BB178494  84.846  39.459  62.533
12075DA     BB278495  84.496  39.425  62.639
12075DA     BB378496  84.372  39.559  62.529
12075DA     SC178497  84.399  39.792  62.733
12075DA     SC278498  84.255  39.910  62.899
12075DA     SC378499  84.428  40.099  62.883
12075DA     SC478500  84.517  39.899  62.709
12076DC     BB178501  84.236  39.477  62.406
12076DC     BB278502  83.950  39.541  62.617
12076DC     BB378503  83.838  39.697  62.540
12076DC     SC178504  84.015  39.873  62.620
12076DC     SC278505  83.931  39.990  62.780
12076DC     SC378506  84.198  40.063  62.610
12077DA     BB178507  83.593  39.368  62.623
12077DA     BB278508  83.441  39.666  62.773
12077DA     BB378509  83.360  39.792  62.621
12077DA     SC178510  83.621  39.958  62.586
12077DA     SC278511  83.701  40.190  62.634
12077DA     SC378512  83.883  40.141  62.459
12077DA     SC478513  83.725  39.909  62.474
12078DA     BB178514  83.112  39.753  62.828
12078DA     BB278515  83.119  40.117  62.870
12078DA     BB378516  83.044  40.213  62.695
12078DA     SC178517  83.323  40.235  62.559
12078DA     SC278518  83.485  40.415  62.500
12078DA     SC378519  83.581  40.245  62.333
12078DA     SC478520  83.367  40.116  62.460
12079DA     BB178521  82.865  40.348  62.933
12079DA     BB278522  83.004  40.670  62.824
12079DA     BB378523  82.919  40.728  62.637
12079DA     SC178524  83.138  40.589  62.466
12079DA     SC278525  83.327  40.657  62.318
12079DA     SC378526  83.310  40.419  62.222
12079DA     SC478527  83.111  40.438  62.419
12080DG     BB178528  82.831  40.970  62.808
12080DG     BB278529  83.043  41.150  62.577
12080DG     BB378530  82.946  41.182  62.406
12080DG     SC178531  83.039  40.921  62.276
12080DG     SC278532  83.222  40.897  62.041
12080DG     SC378533  83.105  40.634  62.111
12080DG     SC478534  82.952  40.788  62.298
12081DT     BB178535  82.902  41.387  62.337
12081DT     BB278536  83.136  41.427  62.066
12081DT     BB378537  83.038  41.408  61.885
12081DT     SC178538  83.019  41.148  61.913
12081DT     SC278539  83.148  41.051  61.770
12081DT     SC378540  82.913  40.908  61.941
12082DA     BB178541  83.260  41.764  61.876
12082DA     BB278542  83.329  41.579  61.567
12082DA     BB378543  83.159  41.586  61.437
12082DA     SC178544  83.032  41.326  61.550
12082DA     SC278545  82.990  41.092  61.473
12082DA     SC378546  82.814  41.084  61.659
12082DA     SC478547  82.926  41.341  61.670
12083DC     BB178548  83.181  41.684  61.267
12083DC     BB278549  83.194  41.395  61.051
12083DC     BB378550  83.013  41.372  60.953
12083DC     SC178551  82.898  41.282  61.170
12083DC     SC278552  82.854  41.072  61.146
12083DC     SC378553  82.734  41.266  61.376
12084DA     BB178554  83.321  41.362  60.668
12084DA     BB278555  83.099  41.077  60.606
12084DA     BB378556  82.914  41.143  60.523
12084DA     SC178557  82.774  41.176  60.799
12084DA     SC278558  82.592  41.065  60.928
12084DA     SC378559  82.581  41.284  61.062
12084DA     SC478560  82.781  41.321  60.869
12085DA     BB178561  83.005  40.914  60.307
12085DA     BB278562  82.692  40.743  60.390
12085DA     BB378563  82.526  40.848  60.308
12085DA     SC178564  82.481  41.025  60.559
12085DA     SC278565  82.312  41.048  60.741
12085DA     SC378566  82.410  41.283  60.775
12085DA     SC478567  82.555  41.168  60.564
12086DT     BB178568  82.427  40.755  60.169
12086DT     BB278569  82.130  40.681  60.360
12086DT     BB378570  81.979  40.814  60.311
12086DT     SC178571  82.094  41.007  60.446
12086DT     SC278572  81.976  41.052  60.621
12086DT     SC378573  82.214  41.236  60.499
12087DA     BB178574  81.808  40.432  60.265
12087DA     BB278575  81.571  40.637  60.456
12087DA     BB378576  81.476  40.779  60.327
12087DA     SC178577  81.688  41.001  60.375
12087DA     SC278578  81.701  41.223  60.489
12087DA     SC378579  81.905  41.265  60.340
12087DA     SC478580  81.812  41.009  60.272
12088DA     BB178581  81.178  40.657  60.427
12088DA     BB278582  81.098  40.991  60.555
12088DA     BB378583  81.037  41.119  60.396
12088DA     SC178584  81.324  41.223  60.338
12088DA     SC278585  81.452  41.436  60.363
12088DA     SC378586  81.612  41.338  60.188
12088DA     SC478587  81.411  41.145  60.227
12089DA     BB178588  80.732  41.192  60.537
12089DA     BB278589  80.835  41.543  60.557
12089DA     BB378590  80.796  41.643  60.372
12089DA     SC178591  81.077  41.580  60.252
12089DA     SC278592  81.284  41.705  60.192
12089DA     SC378593  81.338  41.504  60.043
12089DA     SC478594  81.092  41.446  60.164
12090DT     BB178595  80.626  41.825  60.306
12090DT     BB278596  80.869  42.092  60.303
12090DT     BB378597  80.888  42.168  60.111
12090DT     SC178598  81.025  41.958  60.034
12090DT     SC278599  81.230  42.016  59.998
12090DT     SC378600  81.091  41.739  59.903
12091DT     BB178601  80.741  42.424  60.136
12091DT     BB278602  81.074  42.523  60.037
12091DT     BB378603  81.081  42.550  59.832
12091DT     SC178604  81.079  42.291  59.790
12091DT     SC278605  81.271  42.229  59.715
12091DT     SC378606  80.998  42.054  59.708
12092DA     BB178607  81.233  42.890  60.018
12092DA     BB278608  81.484  42.770  59.779
12092DA     BB378609  81.424  42.816  59.580
12092DA     SC178610  81.272  42.548  59.537
12092DA     SC278611  81.299  42.339  59.403
12092DA     SC378612  81.048  42.305  59.443
12092DA     SC478613  81.115  42.545  59.572
12093DA     BB178614  81.727  42.918  59.627
12093DA     BB278615  81.816  42.683  59.360
12093DA     BB378616  81.741  42.752  59.173
12093DA     SC178617  81.470  42.601  59.198
12093DA     SC278618  81.356  42.408  59.090
12093DA     SC378619  81.140  42.509  59.184
12093DA     SC478620  81.347  42.681  59.264
12094DG     BB178621  82.044  42.711  59.154
12094DG     BB278622  81.939  42.465  58.910
12094DG     BB378623  81.872  42.556  58.746
12094DG     SC178624  81.583  42.573  58.843
12094DG     SC278625  81.350  42.428  58.726
12094DG     SC378626  81.260  42.626  58.927
12094DG     SC478627  81.537  42.700  58.930
12095DC     BB178628  81.977  42.507  58.586
12095DC     BB278629  81.746  42.304  58.397
12095DC     BB378630  81.646  42.420  58.258
12095DC     SC178631  81.496  42.528  58.444
12095DC     SC278632  81.294  42.459  58.422
12095DC     SC378633  81.390  42.710  58.602
12096DT     BB178634  81.791  42.301  58.066
12096DT     BB278635  81.449  42.253  57.963
12096DT     BB378636  81.382  42.419  57.860
12096DT     SC178637  81.361  42.558  58.082
12096DT     SC278638  81.154  42.593  58.126
12096DT     SC378639  81.405  42.746  58.262
12097DG     BB178640  81.339  42.125  57.575
12097DG     BB278641  81.033  42.316  57.608
12097DG     BB378642  81.047  42.485  57.504
12097DG     SC178643  81.164  42.646  57.737
12097DG     SC278644  81.030  42.872  57.878
12097DG     SC378645  81.312  42.848  57.963
12097DG     SC478646  81.323  42.649  57.757
12098DA     BB178647  80.752  42.434  57.306
12098DA     BB278648  80.597  42.735  57.447
12098DA     BB378649  80.662  42.909  57.341
12098DA     SC178650  80.905  42.961  57.528
12098DA     SC278651  80.973  43.129  57.699
12098DA     SC378652  81.212  43.046  57.656
12098DA     SC478653  81.046  42.897  57.486
12099DT     BB178654  80.532  43.045  57.205
12099DT     BB278655  80.499  43.310  57.447
12099DT     BB378656  80.600  43.479  57.382
12099DT     SC178657  80.833  43.371  57.439
12099DT     SC278658  80.920  43.473  57.607
12099DT     SC378659  81.074  43.271  57.406
12100DT     BB178660  80.365  43.611  57.330
12100DT     BB278661  80.533  43.813  57.577
12100DT     BB378662  80.655  43.952  57.484
12100DT     SC178663  80.832  43.767  57.424
12100DT     SC278664  81.010  43.799  57.541
12100DT     SC378665  80.984  43.607  57.280
12101DC     BB178666  80.477  44.114  57.583
12101DC     BB278667  80.792  44.207  57.733
12101DC     BB378668  80.900  44.327  57.603
12101DC     SC178669  80.961  44.121  57.452
12101DC     SC278670  81.171  44.080  57.470
12101DC     SC378671  80.974  43.963  57.241
12102DT     BB178672  80.843  44.475  57.803
12102DT     BB278673  81.203  44.470  57.778
12102DT     BB378674  81.265  44.589  57.620
12102DT     SC178675  81.187  44.409  57.445
12102DT     SC278676  81.360  44.322  57.351
12102DT     SC378677  81.054  44.297  57.247
12103DT     BB178678  81.354  44.724  57.822
12103DT     BB278679  81.640  44.660  57.611
12103DT     BB378680  81.639  44.790  57.450
12103DT     SC178681  81.446  44.656  57.334
12103DT     SC278682  81.523  44.557  57.159
12103DT     SC378683  81.210  44.601  57.230
12104DT     BB178684  81.846  44.909  57.568
12104DT     BB278685  81.962  44.830  57.236
12104DT     BB378686  81.902  44.976  57.102
12104DT     SC178687  81.655  44.887  57.105
12104DT     SC278688  81.609  44.798  56.914
12104DT     SC378689  81.394  44.880  57.142
12105DT     BB178690  82.156  45.083  57.082
12105DT     BB278691  82.063  45.015  56.740
12105DT     BB378692  81.965  45.178  56.659
12105DT     SC178693  81.747  45.124  56.795
12105DT     SC278694  81.594  45.057  56.660
12105DT     SC378695  81.549  45.149  56.967
12106DT     BB178696  82.181  45.264  56.499
12106DT     BB278697  81.910  45.223  56.264
12106DT     BB378698  81.807  45.402  56.244
12106DT     SC178699  81.691  45.371  56.478
12106DT     SC278700  81.482  45.331  56.450
12106DT     SC378701  81.623  45.415  56.729
12107DA     BB178702  81.908  45.286  55.855
12107DA     BB278703  81.550  45.364  55.858
12107DA     BB378704  81.519  45.575  55.863
12107DA     SC178705  81.513  45.591  56.174
12107DA     SC278706  81.345  45.636  56.353
12107DA     SC378707  81.548  45.688  56.501
12107DA     SC478708  81.652  45.620  56.250
12108DA     BB178709  81.339  45.486  55.609
12108DA     BB278710  81.051  45.619  55.794
12108DA     BB378711  81.055  45.832  55.793
12108DA     SC178712  81.219  45.855  56.056
12108DA     SC278713  81.182  45.929  56.291
12108DA     SC378714  81.437  45.952  56.303
12108DA     SC478715  81.379  45.864  56.043
12109DA     BB178716  80.758  45.735  55.699
12109DA     BB278717  80.634  45.929  55.985
12109DA     BB378718  80.664  46.137  55.951
12109DA     SC178719  80.945  46.144  56.084
12109DA     SC278720  81.049  46.236  56.291
12109DA     SC378721  81.271  46.212  56.165
12109DA     SC478722  81.073  46.123  55.989
12110DT     BB178723  80.506  46.201  55.950
12110DT     BB278724  80.520  46.387  56.258
12110DT     BB378725  80.584  46.581  56.222
12110DT     SC178726  80.831  46.501  56.186
12110DT     SC278727  80.953  46.571  56.349
12110DT     SC378728  81.062  46.453  56.067
12111DT     BB178729  80.334  46.655  56.274
12111DT     BB278730  80.536  46.866  56.486
12111DT     BB378731  80.605  47.029  56.378
12111DT     SC178732  80.782  46.880  56.253
12111DT     SC278733  80.979  46.933  56.319
12111DT     SC378734  80.908  46.756  56.057
12112DA     BB178735  80.417  47.217  56.706
12112DA     BB278736  80.740  47.384  56.656
12112DA     BB378737  80.732  47.510  56.483
12112DA     SC178738  80.829  47.289  56.288
12112DA     SC278739  81.033  47.238  56.152
12112DA     SC378740  80.878  47.086  56.015
12112DA     SC478741  80.717  47.200  56.214
12113DT     BB178742  80.733  47.748  56.469
12113DT     BB278743  81.069  47.783  56.342
12113DT     BB378744  81.063  47.850  56.146
12113DT     SC178745  80.988  47.613  56.060
12113DT     SC278746  81.149  47.524  55.947
12113DT     SC378747  80.840  47.425  55.950
12114DT     BB178748  81.138  48.129  56.182
12114DT     BB278749  81.381  48.009  55.944
12114DT     BB378750  81.316  48.047  55.751
12114DT     SC178751  81.140  47.853  55.764
12114DT     SC278752  81.201  47.693  55.633
12114DT     SC378753  80.908  47.728  55.767
12115DT     BB178754  81.494  48.263  55.696
12115DT     BB278755  81.565  48.023  55.436
12115DT     BB378756  81.447  48.063  55.270
12115DT     SC178757  81.234  47.965  55.387
12115DT     SC278758  81.178  47.781  55.292
12115DT     SC378759  80.994  47.953  55.495
12116DT     BB178760  81.663  48.157  55.130
12116DT     BB278761  81.537  47.884  54.930
12116DT     BB378762  81.391  47.952  54.801
12116DT     SC178763  81.216  47.973  54.996
12116DT     SC278764  81.064  47.823  54.971
12116DT     SC378765  81.048  48.081  55.168
12117DC     BB178766  81.562  47.918  54.595
12117DC     BB278767  81.276  47.714  54.512
12117DC     BB378768  81.134  47.828  54.415
12117DC     SC178769  81.064  47.945  54.639
12117DC     SC278770  80.866  47.879  54.695
12117DC     SC378771  81.024  48.134  54.818
12118DT     BB178772  81.195  47.695  54.190
12118DT     BB278773  80.842  47.638  54.239
12118DT     BB378774  80.733  47.796  54.159
12118DT     SC178775  80.799  47.953  54.359
12118DT     SC278776  80.625  47.991  54.480
12118DT     SC378777  80.905  48.155  54.491
12119DG     BB178778  80.605  47.454  53.977
12119DG     BB278779  80.329  47.642  54.117
12119DG     BB378780  80.286  47.796  53.999
12119DG     SC178781  80.479  47.989  54.138
12119DG     SC278782  80.401  48.229  54.298
12119DG     SC378783  80.694  48.221  54.255
12119DG     SC478784  80.630  47.997  54.088
12120DA     BB178785  79.957  47.683  54.002
12120DA     BB278786  79.850  48.000  54.152
12120DA     BB378787  79.844  48.154  54.004
12120DA     SC178788  80.138  48.245  54.052
12120DA     SC278789  80.257  48.442  54.147
12120DA     SC378790  80.459  48.358  54.014
12120DA     SC478791  80.252  48.178  53.961
12121DT     BB178792  79.663  48.237  53.950
12121DT     BB278793  79.708  48.548  54.127
12121DT     BB378794  79.747  48.701  53.993
12121DT     SC178795  79.992  48.615  53.954
12121DT     SC278796  80.131  48.755  54.040
12121DT     SC378797  80.204  48.518  53.832
12122DA     BB178798  79.432  48.825  54.239
12122DA     BB278799  79.684  49.091  54.236
12122DA     BB378800  79.680  49.194  54.049
12122DA     SC178801  79.891  49.010  53.914
12122DA     SC278802  80.127  49.026  53.835
12122DA     SC378803  80.071  48.820  53.692
12122DA     SC478804  79.836  48.883  53.832
12123DA     BB178805  79.649  49.445  54.256
12123DA     BB278806  79.965  49.570  54.119
12123DA     BB378807  79.934  49.655  53.925
12123DA     SC178808  79.988  49.388  53.774
12123DA     SC278809  80.163  49.293  53.624
12123DA     SC378810  79.982  49.127  53.552
12123DA     SC478811  79.862  49.295  53.741
12124DT     BB178812  79.966  49.846  53.912
12124DT     BB278813  80.280  49.824  53.736
12124DT     BB378814  80.252  49.869  53.536
12124DT     SC178815  80.140  49.636  53.492
12124DT     SC278816  80.271  49.515  53.371
12124DT     SC378817  79.958  49.456  53.428
12125DA     BB178818  80.569  50.094  53.692
12125DA     BB278819  80.681  49.938  53.379
12125DA     BB378820  80.587  50.031  53.212
12125DA     SC178821  80.345  49.837  53.208
12125DA     SC278822  80.257  49.654  53.062
12125DA     SC378823  80.032  49.697  53.179
12125DA     SC478824  80.214  49.880  53.291
12126DG     BB178825  80.885  50.074  53.152
12126DG     BB278826  80.807  49.865  52.868
12126DG     BB378827  80.714  49.972  52.728
12126DG     SC178828  80.434  49.916  52.837
12126DG     SC278829  80.221  49.756  52.701
12126DG     SC378830  80.114  49.891  52.941
12126DG     SC478831  80.373  50.013  52.949
12127DG     BB178832  80.958  49.864  52.545
12127DG     BB278833  80.701  49.709  52.343
12127DG     BB378834  80.615  49.845  52.227
12127DG     SC178835  80.399  49.918  52.432
12127DG     SC278836  80.106  49.866  52.404
12127DG     SC378837  80.161  50.036  52.639
12127DG     SC478838  80.429  50.032  52.539
12128DA     BB178839  80.682  49.605  51.988
12128DA     BB278840  80.326  49.599  51.899
12128DA     BB378841  80.271  49.780  51.800
12128DA     SC178842  80.191  49.928  52.062
12128DA     SC278843  79.982  50.010  52.171
12128DA     SC378844  80.138  50.163  52.306
12128DA     SC478845  80.304  50.016  52.135
12129DT     BB178846  80.220  49.757  51.619
12129DT     BB278847  79.867  49.823  51.655
12129DT     BB378848  79.825  50.018  51.597
12129DT     SC178849  79.929  50.114  51.818
12129DT     SC278850  79.773  50.195  51.941
12129DT     SC378851  80.090  50.246  51.979
12130DT     BB178852  79.708  49.935  51.363
12130DT     BB278853  79.458  50.147  51.512
12130DT     BB378854  79.490  50.344  51.456
12130DT     SC178855  79.694  50.365  51.619
12130DT     SC278856  79.642  50.497  51.781
12130DT     SC378857  79.941  50.399  51.703
12131DG     BB178858  79.114  50.294  51.289
12131DG     BB278859  79.122  50.599  51.484
12131DG     BB378860  79.199  50.746  51.375
12131DG     SC178861  79.488  50.692  51.461
12131DG     SC278862  79.658  50.872  51.629
12131DG     SC378863  79.817  50.648  51.519
12131DG     SC478864  79.576  50.588  51.377
12132DT     BB178865  79.097  50.973  51.274
12132DT     BB278866  79.242  51.214  51.500
12132DT     BB378867  79.380  51.331  51.400
12132DT     SC178868  79.555  51.135  51.397
12132DT     SC278869  79.719  51.183  51.528
12132DT     SC378870  79.717  50.948  51.305
12133DT     BB178871  79.229  51.582  51.367
12133DT     BB278872  79.527  51.687  51.541
12133DT     BB378873  79.669  51.754  51.406
12133DT     SC178874  79.724  51.509  51.330
12133DT     SC278875  79.921  51.456  51.397
12133DT     SC378876  79.747  51.296  51.175
12134DG     BB178877  79.606  52.083  51.641
12134DG     BB278878  79.957  51.996  51.631
12134DG     BB378879  80.041  52.071  51.467
12134DG     SC178880  79.983  51.825  51.295
12134DG     SC278881  80.186  51.638  51.182
12134DG     SC378882  79.918  51.581  51.072
12134DG     SC478883  79.844  51.817  51.216
12135DG     BB178884  80.247  52.229  51.665
12135DG     BB278885  80.506  52.026  51.514
12135DG     BB378886  80.566  52.108  51.343
12135DG     SC178887  80.360  51.960  51.171
12135DG     SC278888  80.420  51.752  50.966
12135DG     SC378889  80.135  51.830  50.956
12135DG     SC478890  80.216  52.026  51.149
12136DA     BB178891  80.871  52.059  51.491
12136DA     BB278892  80.970  51.850  51.207
12136DA     BB378893  81.004  51.970  51.035
12136DA     SC178894  80.711  51.950  50.932
12136DA     SC278895  80.589  51.842  50.743
12136DA     SC378896  80.404  52.013  50.793
12136DA     SC478897  80.608  52.065  50.977
12137DT     BB178898  81.182  51.964  50.981
12137DT     BB278899  81.135  51.763  50.685
12137DT     BB378900  81.130  51.883  50.517
12137DT     SC178901  80.888  51.967  50.575
12137DT     SC278902  80.749  51.887  50.431
12137DT     SC378903  80.690  52.129  50.639
12138DT     BB178904  81.371  51.786  50.452
12138DT     BB278905  81.165  51.720  50.163
12138DT     BB378906  81.160  51.886  50.040
12138DT     SC178907  80.998  52.012  50.205
12138DT     SC278908  80.804  52.030  50.114
12138DT     SC378909  80.908  52.193  50.374
12139DG     BB178910  81.313  51.592  49.801
12139DG     BB278911  81.036  51.759  49.639
12139DG     BB378912  81.097  51.931  49.561
12139DG     SC178913  81.039  52.095  49.812
12139DG     SC278914  80.831  52.307  49.840
12139DG     SC378915  81.007  52.301  50.077
12139DG     SC478916  81.153  52.108  49.924
12140DT     BB178917  81.105  51.990  49.325
12140DT     BB278918  80.822  52.214  49.303
12140DT     BB378919  80.888  52.409  49.279
12140DT     SC178920  80.960  52.424  49.531
12140DT     SC278921  80.829  52.559  49.635
12140DT     SC378922  81.114  52.449  49.744
12141DG     BB178923  80.668  52.354  48.938
12141DG     BB278924  80.558  52.649  49.115
12141DG     BB378925  80.675  52.803  49.069
12141DG     SC178926  80.874  52.750  49.296
12141DG     SC278927  80.920  52.926  49.533
12141DG     SC378928  81.122  52.710  49.521
12141DG     SC478929  80.997  52.652  49.269
12142DA     BB178930  80.390  52.983  48.986
12142DA     BB278931  80.466  53.227  49.249
12142DA     BB378932  80.617  53.363  49.183
12142DA     SC178933  80.852  53.191  49.291
12142DA     SC278934  81.022  53.204  49.473
12142DA     SC378935  81.154  53.032  49.336
12142DA     SC478936  80.920  53.085  49.191
12143DA     BB178937  80.390  53.582  49.269
12143DA     BB278938  80.630  53.704  49.518
12143DA     BB378939  80.781  53.822  49.424
12143DA     SC178940  80.972  53.582  49.374
12143DA     SC278941  81.192  53.500  49.459
12143DA     SC378942  81.202  53.363  49.242
12143DA     SC478943  80.961  53.506  49.233
12144DT     BB178944  80.791  54.022  49.468
12144DT     BB278945  81.082  54.002  49.681
12144DT     BB378946  81.247  54.078  49.582
12144DT     SC178947  81.266  53.865  49.431
12144DT     SC278948  81.442  53.754  49.485
12144DT     SC378949  81.267  53.713  49.215
12145DT     BB178950  81.242  54.296  49.745
12145DT     BB278951  81.569  54.151  49.794
12145DT     BB378952  81.701  54.226  49.652
12145DT     SC178953  81.594  54.077  49.464
12145DT     SC278954  81.734  53.924  49.406
12145DT     SC378955  81.468  54.010  49.242
12146DT     BB178956  81.820  54.364  49.849
12146DT     BB278957  82.079  54.155  49.711
12146DT     BB378958  82.167  54.249  49.549
12146DT     SC178959  81.959  54.197  49.397
12146DT     SC278960  82.013  54.051  49.249
12146DT     SC378961  81.747  54.236  49.245
12147DT     BB178962  82.377  54.273  49.707
12147DT     BB278963  82.493  54.085  49.421
12147DT     BB378964  82.543  54.214  49.267
12147DT     SC178965  82.291  54.260  49.213
12147DT     SC278966  82.241  54.171  49.024
12147DT     SC378967  82.063  54.390  49.184
12148DT     BB178968  82.774  54.118  49.330
12148DT     BB278969  82.724  54.037  48.982
12148DT     BB378970  82.761  54.203  48.865
12148DT     SC178971  82.534  54.314  48.936
12148DT     SC278972  82.400  54.316  48.768
12148DT     SC378973  82.364  54.485  49.042
12149DA     BB178974  82.931  53.838  48.734
12149DA     BB278975  82.772  54.007  48.450
12149DA     BB378976  82.875  54.188  48.404
12149DA     SC178977  82.699  54.364  48.591
12149DA     SC278978  82.526  54.542  48.568
12149DA     SC378979  82.583  54.601  48.811
12149DA     SC478980  82.750  54.386  48.742
12150DA     BB178981  82.826  54.011  48.129
12150DA     BB278982  82.669  54.316  47.999
12150DA     BB378983  82.812  54.474  47.986
12150DA     SC178984  82.755  54.581  48.273
12150DA     SC278985  82.650  54.782  48.377
12150DA     SC378986  82.781  54.716  48.587
12150DA     SC478987  82.845  54.524  48.393
12151DT     BB178988  82.840  54.521  47.814
12151DT     BB278989  82.694  54.851  47.822
12151DT     BB378990  82.842  54.993  47.856
12151DT     SC178991  82.858  54.926  48.109
12151DT     SC278992  82.779  55.086  48.230
12151DT     SC378993  82.958  54.837  48.336
12152DT     BB178994  82.841  55.079  47.594
12152DT     BB278995  82.804  55.384  47.784
12152DT     BB378996  82.990  55.457  47.836
12152DT     SC178997  83.021  55.273  48.020
12152DT     SC278998  83.012  55.364  48.215
12152DT     SC378999  83.119  55.066  48.150
12153DT     BB179000  83.024  55.677  47.641
12153DT     BB279001  83.084  55.842  47.956
12153DT     BB379002  83.287  55.844  47.997
12153DT     SC179003  83.286  55.589  48.060
12153DT     SC279004  83.319  55.567  48.271
12153DT     SC379005  83.340  55.331  48.050
12154DA     BB179006  83.221  56.263  48.016
12154DA     BB279007  83.400  56.171  48.323
12154DA     BB379008  83.609  56.152  48.285
12154DA     SC179009  83.593  55.848  48.217
12154DA     SC279010  83.665  55.633  48.319
12154DA     SC379011  83.639  55.536  48.083
12154DA     SC479012  83.572  55.807  48.063
12155DA     BB179013  83.665  56.377  48.523
12155DA     BB279014  83.833  56.112  48.713
12155DA     BB379015  84.034  56.090  48.647
12155DA     SC179016  83.966  55.876  48.431
12155DA     SC279017  84.004  55.632  48.394
12155DA     SC379018  83.957  55.683  48.147
12155DA     SC479019  83.936  55.928  48.282
12156DT     BB179020  84.183  56.134  48.778
12156DT     BB279021  84.264  55.791  48.857
12156DT     BB379022  84.444  55.739  48.769
12156DT     SC179023  84.332  55.724  48.532
12156DT     SC279024  84.326  55.518  48.468
12156DT     SC379025  84.279  55.777  48.279
12157DA     BB179026  84.407  55.634  49.174
12157DA     BB279027  84.516  55.340  48.984
12157DA     BB379028  84.716  55.368  48.913
12157DA     SC179029  84.628  55.494  48.643
12157DA     SC279030  84.628  55.433  48.401
12157DA     SC379031  84.606  55.684  48.357
12157DA     SC479032  84.616  55.655  48.636
12158DG     BB179033  84.690  55.112  49.079
12158DG     BB279034  84.784  54.965  48.762
12158DG     BB379035  84.974  55.007  48.722
12158DG     SC179036  84.911  55.267  48.574
12158DG     SC279037  84.952  55.318  48.283
12158DG     SC379038  84.880  55.568  48.424
12158DG     SC479039  84.902  55.404  48.658
12159DC     BB179040  85.055  54.843  48.700
12159DC     BB279041  85.137  54.833  48.349
12159DC     BB379042  85.322  54.919  48.318
12159DC     SC179043  85.224  55.160  48.352
12159DC     SC279044  85.225  55.265  48.164
12159DC     SC379045  85.183  55.399  48.456
12160DT     BB179046  85.399  54.673  48.268
12160DT     BB279047  85.509  54.863  47.982
12160DT     BB379048  85.685  54.963  48.026
12160DT     SC179049  85.557  55.139  48.173
12160DT     SC279050  85.561  55.330  48.074
12160DT     SC379051  85.481  55.278  48.384
12161DT     BB179052  85.861  54.789  47.885
12161DT     BB279053  85.958  55.115  47.764
12161DT     BB379054  86.107  55.193  47.884
12161DT     SC179055  85.936  55.247  48.076
12161DT     SC279056  85.912  55.460  48.093
12161DT     SC379057  85.816  55.239  48.311
12162DA     BB179058  86.359  55.212  47.533
12162DA     BB279059  86.395  55.539  47.696
12162DA     BB379060  86.538  55.528  47.854
12162DA     SC179061  86.329  55.456  48.072
12162DA     SC279062  86.226  55.564  48.272
12162DA     SC379063  86.166  55.325  48.345
12162DA     SC479064  86.302  55.300  48.101
12163DA     BB179065  86.774  55.773  47.747
12163DA     BB279066  86.692  55.975  48.041
12163DA     BB379067  86.819  55.923  48.204
12163DA     SC179068  86.628  55.704  48.316
12163DA     SC279069  86.481  55.671  48.515
12163DA     SC379070  86.496  55.421  48.459
12163DA     SC479071  86.651  55.553  48.266
12164DG     BB179072  86.973  56.215  48.238
12164DG     BB279073  86.791  56.232  48.550
12164DG     BB379074  86.905  56.164  48.699
12164DG     SC179075  86.814  55.873  48.669
12164DG     SC279076  86.653  55.719  48.868
12164DG     SC379077  86.752  55.542  48.652
12164DG     SC479078  86.893  55.777  48.569
12165DA     BB179079  86.855  56.458  48.882
12165DA     BB279080  86.681  56.269  49.143
12165DA     BB379081  86.821  56.182  49.278
12165DA     SC179082  86.845  55.915  49.118
12165DA     SC279083  86.779  55.677  49.146
12165DA     SC379084  86.957  55.627  48.969
12165DA     SC479085  86.961  55.905  49.008
12166DG     BB179086  86.671  56.357  49.481
12166DG     BB279087  86.567  56.034  49.609
12166DG     BB379088  86.708  55.961  49.729
12166DG     SC179089  86.858  55.816  49.505
12166DG     SC279090  86.883  55.520  49.474
12166DG     SC379091  87.058  55.661  49.282
12166DG     SC479092  86.972  55.894  49.425
12167DG     BB179093  86.465  55.953  49.941
12167DG     BB279094  86.511  55.594  49.937
12167DG     BB379095  86.664  55.544  50.053
12167DG     SC179096  86.873  55.566  49.830
12167DG     SC279097  87.029  55.340  49.713
12167DG     SC379098  87.130  55.600  49.615
12167DG     SC479099  86.943  55.707  49.803
12168DA     BB179100  86.427  55.327  50.171
12168DA     BB279101  86.647  55.047  50.085
12168DA     BB379102  86.813  55.038  50.219
12168DA     SC179103  86.995  55.220  50.045
12168DA     SC279104  87.201  55.196  49.906
12168DA     SC379105  87.225  55.450  49.934
12168DA     SC479106  86.994  55.378  50.075
12169DT     BB179107  86.809  54.884  50.319
12169DT     BB279108  87.083  54.717  50.155
12169DT     BB379109  87.256  54.739  50.266
12169DT     SC179110  87.282  54.989  50.191
12169DT     SC279111  87.452  55.007  50.061
12169DT     SC379112  87.297  55.252  50.205
12170DT     BB179113  87.232  54.480  50.322
12170DT     BB279114  87.560  54.513  50.176
12170DT     BB379115  87.697  54.571  50.320
12170DT     SC179116  87.604  54.816  50.321
12170DT     SC279117  87.750  54.948  50.235
12170DT     SC379118  87.491  55.039  50.407
12171DT     BB179119  87.801  54.324  50.308
12171DT     BB279120  88.079  54.543  50.241
12171DT     BB379121  88.164  54.606  50.419
12171DT     SC179122  87.964  54.771  50.465
12171DT     SC279123  88.033  54.974  50.445
12171DT     SC379124  87.754  54.880  50.581
12172DG     BB179125  88.449  54.428  50.188
12172DG     BB279126  88.553  54.756  50.302
12172DG     BB379127  88.603  54.748  50.494
12172DG     SC179128  88.321  54.810  50.596
12172DG     SC279129  88.237  55.057  50.740
12172DG     SC379130  88.020  54.855  50.742
12172DG     SC479131  88.219  54.689  50.620
12173DC     BB179132  88.807  54.793  50.557
12173DC     BB279133  88.766  55.118  50.708
12173DC     BB379134  88.765  55.100  50.914
12173DC     SC179135  88.521  55.003  50.912
12173DC     SC279136  88.386  55.146  50.997
12173DC     SC379137  88.321  54.833  50.943
12174DT     BB179138  89.011  55.212  50.927
12174DT     BB279139  88.805  55.422  51.136
12174DT     BB379140  88.796  55.344  51.327
12174DT     SC179141  88.632  55.154  51.250
12174DT     SC279142  88.438  55.189  51.334
12174DT     SC379143  88.539  54.913  51.198
12175DA     BB179144  88.912  55.745  51.367
12175DA     BB279145  88.634  55.685  51.598
12175DA     BB379146  88.700  55.569  51.765
12175DA     SC179147  88.633  55.296  51.632
12175DA     SC279148  88.467  55.112  51.661
12175DA     SC379149  88.634  54.968  51.529
12175DA     SC479150  88.750  55.222  51.549
12176DT     BB179151  88.698  55.655  51.943
12176DT     BB279152  88.409  55.483  52.071
12176DT     BB379153  88.467  55.335  52.204
12176DT     SC179154  88.550  55.181  52.008
12176DT     SC279155  88.420  55.011  51.991
12176DT     SC379156  88.712  55.041  51.854
12177DT     BB179157  88.367  55.486  52.401
12177DT     BB279158  88.191  55.172  52.425
12177DT     BB379159  88.302  55.037  52.535
12177DT     SC179160  88.469  54.999  52.337
12177DT     SC279161  88.443  54.801  52.258
12177DT     SC379162  88.693  54.997  52.198
12178DT     BB179163  88.117  55.066  52.724
12178DT     BB279164  88.120  54.713  52.649
12178DT     BB379165  88.272  54.620  52.754
12178DT     SC179166  88.455  54.719  52.594
12178DT     SC279167  88.540  54.561  52.476
12178DT     SC379168  88.663  54.859  52.511
12179DT     BB179169  88.080  54.509  52.901
12179DT     BB279170  88.269  54.232  52.767
12179DT     BB379171  88.436  54.196  52.885
12179DT     SC179172  88.558  54.407  52.789
12179DT     SC279173  88.723  54.344  52.666
12179DT     SC379174  88.675  54.644  52.779
12180DA     BB179175  88.229  53.834  52.830
12180DA     BB279176  88.584  53.776  52.760
12180DA     BB379177  88.698  53.782  52.940
12180DA     SC179178  88.756  54.087  52.921
12180DA     SC279179  88.952  54.235  52.879
12180DA     SC379180  88.813  54.419  52.991
12180DA     SC479181  88.654  54.187  52.996
12181DC     BB179182  88.786  53.612  53.005
12181DC     BB279183  89.125  53.703  52.920
12181DC     BB379184  89.229  53.756  53.092
12181DC     SC179185  89.104  53.987  53.105
12181DC     SC279186  89.242  54.145  53.061
12181DC     SC379187  88.950  54.180  53.196
12182DC     BB179188  89.377  53.522  53.093
12182DC     BB279189  89.626  53.783  53.092
12182DC     BB379190  89.672  53.838  53.286
12182DC     SC179191  89.446  53.968  53.312
12182DC     SC279192  89.486  54.179  53.321
12182DC     SC379193  89.207  54.035  53.401
12183DA     BB179194  90.041  53.750  53.107
12183DA     BB279195  90.074  54.076  53.273
12183DA     BB379196  90.089  54.050  53.484
12183DA     SC179197  89.783  54.069  53.533
12183DA     SC279198  89.622  54.229  53.638
12183DA     SC379199  89.463  54.028  53.652
12183DA     SC479200  89.699  53.932  53.534
12184DG     BB179201  90.369  54.187  53.458
12184DG     BB279202  90.214  54.445  53.658
12184DG     BB379203  90.225  54.397  53.851
12184DG     SC179204  89.960  54.244  53.854
12184DG     SC279205  89.713  54.325  54.001
12184DG     SC379206  89.684  54.053  53.889
12184DG     SC479207  89.960  54.088  53.818
12185DC     BB179208  90.340  54.522  54.000
12185DC     BB279209  90.070  54.685  54.177
12185DC     BB379210  90.046  54.598  54.364
12185DC     SC179211  89.933  54.386  54.260
12185DC     SC279212  89.725  54.383  54.313
12185DC     SC379213  89.893  54.134  54.191
12186DC     BB179214  90.154  54.819  54.488
12186DC     BB279215  89.829  54.781  54.640
12186DC     BB379216  89.841  54.654  54.803
12186DC     SC179217  89.862  54.444  54.648
12186DC     SC279218  89.682  54.326  54.663
12186DC     SC379219  89.963  54.229  54.533
12187DA     BB179220  89.652  55.004  54.937
12187DA     BB279221  89.451  54.718  55.048
12187DA     BB379222  89.547  54.618  55.210
12187DA     SC179223  89.704  54.421  55.026
12187DA     SC279224  89.701  54.178  54.973
12187DA     SC379225  89.941  54.215  54.888
12187DA     SC479226  89.851  54.464  54.980
12188DT     BB179227  89.462  54.620  55.400
12188DT     BB279228  89.346  54.278  55.398
12188DT     BB379229  89.465  54.162  55.522
12188DT     SC179230  89.661  54.162  55.348
12188DT     SC279231  89.683  53.965  55.266
12188DT     SC379232  89.898  54.206  55.241
12189DA     BB179233  89.069  54.095  55.641
12189DA     BB279234  89.230  53.768  55.599
12189DA     BB379235  89.363  53.730  55.761
12189DA     SC179236  89.610  53.856  55.620
12189DA     SC279237  89.825  53.779  55.521
12189DA     SC379238  89.902  54.022  55.550
12189DA     SC479239  89.640  54.012  55.648
12190DT     BB179240  89.318  53.579  55.888
12190DT     BB279241  89.568  53.348  55.768
12190DT     BB379242  89.724  53.336  55.903
12190DT     SC179243  89.816  53.570  55.829
12190DT     SC279244  90.002  53.544  55.724
12190DT     SC379245  89.887  53.824  55.842
12191DA     BB179246  89.596  52.946  55.820
12191DA     BB279247  89.961  52.955  55.784
12191DA     BB379248  90.054  52.966  55.976
12191DA     SC179249  90.060  53.277  55.983
12191DA     SC279250  90.230  53.459  55.970
12191DA     SC379251  90.050  53.606  56.079
12191DA     SC479252  89.935  53.352  56.052
12192DA     BB179253  90.209  52.708  55.848
12192DA     BB279254  90.520  52.898  55.889
12192DA     BB379255  90.576  52.905  56.095
12192DA     SC179256  90.421  53.168  56.154
12192DA     SC279257  90.474  53.405  56.208
12192DA     SC379258  90.235  53.417  56.301
12192DA     SC479259  90.270  53.154  56.208
12193DA     BB179260  90.856  52.790  55.968
12193DA     BB279261  91.020  53.088  56.106
12193DA     BB379262  91.043  53.068  56.317
12193DA     SC179263  90.770  53.202  56.384
12193DA     SC279264  90.689  53.415  56.485
12193DA     SC379265  90.469  53.289  56.524
12193DA     SC479266  90.642  53.106  56.400
12194DC     BB179267  91.233  53.050  56.403
12194DC     BB279268  91.251  53.379  56.549
12194DC     BB379269  91.228  53.368  56.754
12194DC     SC179270  90.970  53.325  56.729
12194DC     SC279271  90.862  53.497  56.801
12194DC     SC379272  90.736  53.204  56.743
12195DG     BB179273  91.600  53.536  56.719
12195DG     BB279274  91.392  53.731  56.943
12195DG     BB379275  91.392  53.649  57.124
12195DG     SC179276  91.151  53.469  57.069
12195DG     SC279277  90.883  53.491  57.198
12195DG     SC379278  90.902  53.243  57.037
12195DG     SC479279  91.176  53.323  57.006
12196DG     BB179280  91.524  53.916  57.289
12196DG     BB279281  91.212  53.934  57.472
12196DG     BB379282  91.222  53.822  57.635
12196DG     SC179283  91.118  53.569  57.497
12196DG     SC279284  90.857  53.434  57.552
12196DG     SC379285  91.026  53.269  57.374
12196DG     SC479286  91.222  53.471  57.426
12197DA     BB179287  91.131  54.087  57.851
12197DA     BB279288  90.829  53.908  57.955
12197DA     BB379289  90.874  53.769  58.109
12197DA     SC179290  90.931  53.534  57.913
12197DA     SC279291  90.826  53.317  57.849
12197DA     SC379292  91.058  53.254  57.760
12197DA     SC479293  91.083  53.512  57.865
12198DA     BB179294  90.640  53.925  58.279
12198DA     BB279295  90.451  53.611  58.277
12198DA     BB379296  90.524  53.479  58.428
12198DA     SC179297  90.732  53.341  58.242
12198DA     SC279298  90.765  53.119  58.135
12198DA     SC379299  91.011  53.188  58.113
12198DA     SC479300  90.881  53.402  58.239
12199DA     BB179301  90.208  53.489  58.494
12199DA     BB279302  90.204  53.130  58.422
12199DA     BB379303  90.290  53.021  58.584
12199DA     SC179304  90.578  53.029  58.467
12199DA     SC279305  90.741  52.868  58.367
12199DA     SC379306  90.919  53.044  58.425
12199DA     SC479307  90.674  53.150  58.512
12200DG     BB179308  90.009  52.910  58.554
12200DG     BB279309  90.192  52.610  58.467
12200DG     BB379310  90.263  52.525  58.632
12200DG     SC179311  90.528  52.679  58.627
12200DG     SC279312  90.798  52.561  58.579
12200DG     SC379313  90.820  52.844  58.663
12200DG     SC479314  90.537  52.821  58.700
12201DT     BB179315  90.194  52.348  58.643
12201DT     BB279316  90.482  52.142  58.573
12201DT     BB379317  90.574  52.087  58.750
12201DT     SC179318  90.675  52.327  58.781
12201DT     SC279319  90.888  52.319  58.753
12201DT     SC379320  90.723  52.565  58.885
12202DA     BB179321  90.517  51.765  58.483
12202DA     BB279322  90.857  51.747  58.619
12202DA     BB379323  90.851  51.701  58.828
12202DA     SC179324  90.843  51.999  58.918
12202DA     SC279325  90.994  52.161  59.032
12202DA     SC379326  90.780  52.294  59.082
12202DA     SC479327  90.699  52.066  58.940
12203DC     BB179328  90.923  51.528  58.880
12203DC     BB279329  91.220  51.643  59.050
12203DC     BB379330  91.190  51.639  59.254
12203DC     SC179331  91.037  51.852  59.245
12203DC     SC279332  91.139  52.017  59.338
12203DC     SC379333  90.824  52.005  59.265
12204DT     BB179334  91.348  51.410  59.298
12204DT     BB279335  91.486  51.650  59.529
12204DT     BB379336  91.389  51.637  59.711
12204DT     SC179337  91.176  51.758  59.615
12204DT     SC279338  91.159  51.953  59.704
12204DT     SC379339  90.927  51.798  59.539
12205DC     BB179340  91.592  51.495  59.863
12205DC     BB279341  91.527  51.786  60.067
12205DC     BB379342  91.384  51.741  60.210
12205DC     SC179343  91.193  51.747  60.030
12205DC     SC279344  91.068  51.919  60.065
12205DC     SC379345  90.995  51.666  59.876
12206DA     BB179346  91.696  51.879  60.458
12206DA     BB279347  91.393  52.059  60.560
12206DA     BB379348  91.272  51.934  60.683
12206DA     SC179349  91.108  51.818  60.446
12206DA     SC279350  90.875  51.833  60.357
12206DA     SC379351  90.929  51.613  60.235
12206DA     SC479352  91.160  51.681  60.380
12207DA     BB179353  91.285  52.174  60.913
12207DA     BB279354  90.922  52.210  60.877
12207DA     BB379355  90.820  52.062  60.991
12207DA     SC179356  90.811  51.854  60.760
12207DA     SC279357  90.639  51.752  60.611
12207DA     SC379358  90.812  51.567  60.573
12207DA     SC479359  90.931  51.748  60.750
12208DC     BB179360  90.701  52.115  61.160
12208DC     BB279361  90.382  52.068  60.999
12208DC     BB379362  90.288  51.900  61.074
12208DC     SC179363  90.449  51.741  60.941
12208DC     SC279364  90.338  51.642  60.785
12208DC     SC379365  90.633  51.559  60.892
12209DA     BB179366  90.022  52.222  61.090
12209DA     BB279367  89.849  51.939  60.932
12209DA     BB379368  89.801  51.791  61.078
12209DA     SC179369  90.066  51.633  61.042
12209DA     SC279370  90.139  51.414  60.950
12209DA     SC379371  90.350  51.447  61.092
12209DA     SC479372  90.189  51.672  61.138
12210DC     BB179373  89.614  51.768  61.103
12210DC     BB279374  89.585  51.450  60.936
12210DC     BB379375  89.574  51.298  61.076
12210DC     SC179376  89.831  51.317  61.128
12210DC     SC279377  89.932  51.142  61.054
12210DC     SC379378  90.055  51.360  61.261
12211DT     BB179379  89.314  51.267  61.013
12211DT     BB279380  89.457  50.940  60.964
12211DT     BB379381  89.457  50.835  61.142
12211DT     SC179382  89.658  50.977  61.234
12211DT     SC279383  89.834  50.853  61.246
12211DT     SC379384  89.796  51.143  61.385
12212DC     BB179385  89.261  50.680  61.043
12212DC     BB279386  89.522  50.449  61.137
12212DC     BB379387  89.506  50.403  61.339
12212DC     SC179388  89.602  50.637  61.408
12212DC     SC279389  89.798  50.611  61.494
12212DC     SC379390  89.616  50.878  61.514
12213DT     BB179391  89.410  50.150  61.285
12213DT     BB279392  89.698  50.092  61.494
12213DT     BB379393  89.643  50.096  61.693
12213DT     SC179394  89.620  50.357  61.690
12213DT     SC279395  89.778  50.444  61.808
12213DT     SC379396  89.511  50.597  61.705
12214DT     BB179397  89.667  49.820  61.723
12214DT     BB279398  89.886  49.955  61.976
12214DT     BB379399  89.781  49.984  62.152
12214DT     SC179400  89.661  50.196  62.054
12214DT     SC279401  89.734  50.372  62.155
12214DT     SC379402  89.469  50.355  61.969
12215DT     BB179403  89.909  49.773  62.268
12215DT     BB279404  89.983  50.053  62.483
12215DT     BB379405  89.834  50.075  62.624
12215DT     SC179406  89.668  50.175  62.447
12215DT     SC279407  89.636  50.383  62.489
12215DT     SC379408  89.457  50.199  62.290
12216DT     BB179409  90.009  49.989  62.808
12216DT     BB279410  89.905  50.314  62.924
12216DT     BB379411  89.731  50.297  63.035
12216DT     SC179412  89.588  50.260  62.818
12216DT     SC279413  89.463  50.432  62.785
12216DT     SC379414  89.431  50.143  62.642
12217DA     BB179415  90.020  50.524  63.237
12217DA     BB279416  89.702  50.707  63.245
12217DA     BB379417  89.563  50.607  63.373
12217DA     SC179418  89.443  50.432  63.147
12217DA     SC279419  89.228  50.414  63.021
12217DA     SC379420  89.305  50.176  62.963
12217DA     SC479421  89.507  50.286  63.123
12218DA     BB179422  89.563  50.918  63.476
12218DA     BB279423  89.203  50.916  63.405
12218DA     BB379424  89.101  50.792  63.545
12218DA     SC179425  89.125  50.535  63.371
12218DA     SC279426  88.974  50.387  63.239
12218DA     SC379427  89.160  50.212  63.260
12218DA     SC479428  89.251  50.440  63.396
12219DC     BB179429  88.981  50.884  63.662
12219DC     BB279430  88.671  50.764  63.522
12219DC     BB379431  88.596  50.610  63.638
12219DC     SC179432  88.774  50.442  63.545
12219DC     SC279433  88.677  50.297  63.420
12219DC     SC379434  88.978  50.275  63.539
12220DA     BB179435  88.273  50.881  63.615
12220DA     BB279436  88.139  50.547  63.549
12220DA     BB379437  88.127  50.434  63.729
12220DA     SC179438  88.412  50.312  63.701
12220DA     SC279439  88.513  50.089  63.655
12220DA     SC379440  88.726  50.187  63.761
12220DA     SC479441  88.533  50.391  63.771
12221DG     BB179442  87.800  50.401  63.727
12221DG     BB279443  87.870  50.047  63.696
12221DG     BB379444  87.884  49.964  63.876
12221DG     SC179445  88.185  50.014  63.903
12221DG     SC279446  88.397  49.805  63.911
12221DG     SC379447  88.509  50.071  63.975
12221DG     SC479448  88.235  50.153  63.966
12222DT     BB179449  87.733  49.783  64.007
12222DT     BB279450  87.945  49.493  63.974
12222DT     BB379451  88.018  49.438  64.160
12222DT     SC179452  88.187  49.639  64.162
12222DT     SC279453  88.388  49.564  64.142
12222DT     SC379454  88.305  49.863  64.235
12223DA     BB179455  87.839  49.080  64.032
12223DA     BB279456  88.180  48.996  64.137
12223DA     BB379457  88.191  48.983  64.350
12223DA     SC179458  88.265  49.283  64.388
12223DA     SC279459  88.464  49.416  64.459
12223DA     SC379460  88.296  49.604  64.505
12223DA     SC479461  88.145  49.387  64.412
12224DC     BB179462  88.229  48.798  64.450
12224DC     BB279463  88.572  48.868  64.535
12224DC     BB379464  88.590  48.900  64.739
12224DC     SC179465  88.480  49.138  64.718
12224DC     SC279466  88.629  49.289  64.757
12224DC     SC379467  88.308  49.336  64.750
12225DG     BB179468  88.839  48.592  64.646
12225DG     BB279469  89.014  48.853  64.826
12225DG     BB379470  88.974  48.839  65.021
12225DG     SC179471  88.728  49.021  65.009
12225DG     SC279472  88.705  49.291  65.134
12225DG     SC379473  88.444  49.201  65.028
12225DG     SC479474  88.585  48.957  64.977
12226DC     BB179475  89.134  48.795  65.172
12226DC     BB279476  89.176  49.118  65.328
12226DC     BB379477  89.087  49.118  65.515
12226DC     SC179478  88.847  49.131  65.409
12226DC     SC279479  88.761  49.324  65.449
12226DC     SC379480  88.601  49.063  65.344
12227DT     BB179481  89.330  49.109  65.654
12227DT     BB279482  89.165  49.402  65.787
12227DT     BB379483  89.051  49.349  65.951
12227DT     SC179484  88.868  49.240  65.799
12227DT     SC279485  88.689  49.359  65.804
12227DT     SC379486  88.712  49.056  65.691
12228DT     BB179487  89.224  49.458  66.152
12228DT     BB279488  88.909  49.621  66.216
12228DT     BB379489  88.801  49.513  66.355
12228DT     SC179490  88.741  49.330  66.178
12228DT     SC279491  88.531  49.341  66.132
12228DT     SC379492  88.729  49.095  66.058
12229DA     BB179493  88.814  49.894  66.532
12229DA     BB279494  88.463  49.790  66.529
12229DA     BB379495  88.426  49.652  66.688
12229DA     SC179496  88.489  49.400  66.517
12229DA     SC279497  88.365  49.208  66.419
12229DA     SC379498  88.594  49.092  66.408
12229DA     SC479499  88.640  49.345  66.520
12230DT     BB179500  88.296  49.702  66.853
12230DT     BB279501  88.016  49.510  66.733
12230DT     BB379502  87.986  49.345  66.855
12230DT     SC179503  88.194  49.222  66.754
12230DT     SC279504  88.127  49.054  66.636
12230DT     SC379505  88.431  49.107  66.737
12231DC     BB179506  87.764  49.469  66.935
12231DC     BB279507  87.653  49.159  66.789
12231DC     BB379508  87.659  49.008  66.930
12231DC     SC179509  87.921  48.994  66.915
12231DC     SC279510  87.977  48.808  66.822
12231DC     SC379511  88.175  49.006  66.986
12232DT     BB179512  87.411  49.038  66.875
12232DT     BB279513  87.494  48.697  66.790
12232DT     BB379514  87.510  48.584  66.963
12232DT     SC179515  87.742  48.691  67.021
12232DT     SC279516  87.897  48.544  66.998
12232DT     SC379517  87.927  48.828  67.151
12233DT     BB179518  87.305  48.487  66.843
12233DT     BB279519  87.534  48.212  66.889
12233DT     BB379520  87.531  48.150  67.087
12233DT     SC179521  87.669  48.359  67.163
12233DT     SC279522  87.866  48.296  67.223
12233DT     SC379523  87.731  48.585  67.284
12234DG     BB179524  87.459  47.843  66.826
12234DG     BB279525  87.713  47.759  67.070
12234DG     BB379526  87.629  47.729  67.247
12234DG     SC179527  87.653  48.022  67.335
12234DG     SC279528  87.826  48.125  67.555
12234DG     SC379529  87.645  48.337  67.455
12234DG     SC479530  87.535  48.123  67.299
12235DT     BB179531  87.636  47.533  67.346
12235DT     BB279532  87.867  47.590  67.617
12235DT     BB379533  87.763  47.614  67.794
12235DT     SC179534  87.687  47.856  67.726
12235DT     SC279535  87.787  48.000  67.850
12235DT     SC379536  87.530  48.057  67.661
12236DT     BB179537  87.829  47.361  67.896
12236DT     BB279538  87.934  47.587  68.156
12236DT     BB379539  87.779  47.619  68.289
12236DT     SC179540  87.655  47.775  68.118
12236DT     SC279541  87.661  47.978  68.190
12236DT     SC379542  87.470  47.865  67.953
12237DT     BB179543  87.879  47.457  68.502
12237DT     BB279544  87.830  47.779  68.657
12237DT     BB379545  87.641  47.789  68.741
12237DT     SC179546  87.529  47.817  68.505
12237DT     SC279547  87.451  48.016  68.486
12237DT     SC379548  87.381  47.765  68.293
12238DA     BB179549  87.895  47.889  69.059
12238DA     BB279550  87.636  48.148  69.041
12238DA     BB379551  87.453  48.075  69.123
12238DA     SC179552  87.346  47.967  68.852
12238DA     SC279553  87.166  48.023  68.688
12238DA     SC379554  87.194  47.782  68.606
12238DA     SC479555  87.378  47.813  68.816
12239DG     BB179556  87.487  48.309  69.324
12239DG     BB279557  87.189  48.432  69.161
12239DG     BB379558  87.027  48.348  69.241
12239DG     SC179559  87.025  48.110  69.049
12239DG     SC279560  86.818  48.054  68.842
12239DG     SC379561  87.005  47.826  68.868
12239DG     SC479562  87.109  47.979  69.087
12240DC     BB179563  86.887  48.476  69.333
12240DC     BB279564  86.620  48.478  69.090
12240DC     BB379565  86.468  48.353  69.152
12240DC     SC179566  86.607  48.139  69.090
12240DC     SC279567  86.517  48.043  68.919
12240DC     SC379568  86.740  47.913  69.116
12241DT     BB179569  86.333  48.576  69.188
12241DT     BB279570  86.132  48.381  68.962
12241DT     BB379571  86.017  48.245  69.068
12241DT     SC179572  86.226  48.093  69.112
12241DT     SC279573  86.207  47.910  68.999
12241DT     SC379574  86.416  47.963  69.241
12242DA     BB179575  85.779  48.459  68.794
12242DA     BB279576  85.700  48.102  68.764
12242DA     BB379577  85.598  48.033  68.938
12242DA     SC179578  85.858  47.951  69.088
12242DA     SC279579  85.971  47.741  69.160
12242DA     SC379580  86.098  47.890  69.326
12242DA     SC479581  85.926  48.060  69.185
12243DA     BB179582  85.387  47.931  68.706
12243DA     BB279583  85.442  47.592  68.835
12243DA     BB379584  85.344  47.568  69.024
12243DA     SC179585  85.591  47.658  69.190
12243DA     SC279586  85.757  47.555  69.345
12243DA     SC379587  85.800  47.794  69.427
12243DA     SC479588  85.602  47.814  69.229
12244DC     BB179589  85.183  47.440  69.043
12244DC     BB279590  85.352  47.180  69.227
12244DC     BB379591  85.295  47.186  69.426
12244DC     SC179592  85.442  47.399  69.470
12244DC     SC279593  85.608  47.346  69.596
12244DC     SC379594  85.507  47.647  69.531
12245DC     BB179595  85.137  46.959  69.407
12245DC     BB279596  85.368  46.882  69.673
12245DC     BB379597  85.291  46.946  69.854
12245DC     SC179598  85.343  47.196  69.797
12245DC     SC279599  85.502  47.267  69.924
12245DC     SC379600  85.305  47.452  69.745
12246DT     BB179601  85.233  46.688  69.940
12246DT     BB279602  85.449  46.821  70.197
12246DT     BB379603  85.336  46.917  70.342
12246DT     SC179604  85.295  47.122  70.184
12246DT     SC279605  85.402  47.293  70.259
12246DT     SC379606  85.167  47.299  70.035
12247DA     BB179607  85.579  46.642  70.545
12247DA     BB279608  85.617  46.968  70.709
12247DA     BB379609  85.443  47.014  70.824
12247DA     SC179610  85.298  47.161  70.591
12247DA     SC279611  85.232  47.394  70.533
12247DA     SC379612  85.064  47.285  70.373
12247DA     SC479613  85.199  47.074  70.499
12248DT     BB179614  85.465  47.026  71.023
12248DT     BB279615  85.449  47.385  71.045
12248DT     BB379616  85.265  47.444  71.119
12248DT     SC179617  85.148  47.391  70.890
12248DT     SC279618  85.086  47.575  70.797
12248DT     SC379619  84.988  47.278  70.714
12249DG     BB179620  85.560  47.595  71.356
12249DG     BB279621  85.334  47.853  71.242
12249DG     BB379622  85.164  47.845  71.345
12249DG     SC179623  85.027  47.650  71.152
12249DG     SC279624  84.792  47.711  70.978
12249DG     SC379625  84.855  47.422  70.972
12249DG     SC479626  85.046  47.493  71.174
12250DT     BB179627  85.113  48.014  71.457
12250DT     BB279628  84.845  48.156  71.261
12250DT     BB379629  84.663  48.105  71.344
12250DT     SC179630  84.682  47.859  71.254
12250DT     SC279631  84.537  47.828  71.098
12250DT     SC379632  84.701  47.596  71.253
12251DA     BB179633  84.673  48.519  71.281
12251DA     BB279634  84.357  48.391  71.146
12251DA     BB379635  84.226  48.334  71.304
12251DA     SC179636  84.327  48.040  71.315
12251DA     SC279637  84.241  47.813  71.259
12251DA     SC379638  84.424  47.727  71.416
12251DA     SC479639  84.447  48.006  71.417
12252DT     BB179640  84.059  48.440  71.326
12252DT     BB279641  83.831  48.190  71.200
12252DT     BB379642  83.731  48.100  71.357
12252DT     SC179643  83.944  47.961  71.423
12252DT     SC279644  83.911  47.754  71.379
12252DT     SC379645  84.149  47.873  71.565
12253DG     BB179646  83.440  48.260  71.121
12253DG     BB279647  83.377  47.910  71.187
12253DG     BB379648  83.298  47.888  71.369
12253DG     SC179649  83.569  47.859  71.509
12253DG     SC279650  83.670  47.613  71.644
12253DG     SC379651  83.847  47.844  71.699
12253DG     SC479652  83.644  47.991  71.561
12254DT     BB179653  83.091  47.806  71.401
12254DT     BB279654  83.167  47.474  71.522
12254DT     BB379655  83.135  47.465  71.727
12254DT     SC179656  83.355  47.601  71.775
12254DT     SC279657  83.500  47.471  71.867
12254DT     SC379658  83.513  47.795  71.857
12255DA     BB179659  82.927  47.147  71.551
12255DA     BB279660  83.125  47.012  71.829
12255DA     BB379661  83.038  47.068  72.016
12255DA     SC179662  83.202  47.331  72.042
12255DA     SC279663  83.386  47.420  72.184
12255DA     SC379664  83.306  47.651  72.108
12255DA     SC479665  83.136  47.465  71.984
12256DT     BB179666  82.970  46.921  72.121
12256DT     BB279667  83.233  46.919  72.368
12256DT     BB379668  83.166  47.008  72.543
12256DT     SC179669  83.183  47.247  72.436
12256DT     SC279670  83.344  47.356  72.529
12256DT     SC379671  83.111  47.483  72.344
12257DA     BB179672  83.342  46.637  72.628
12257DA     BB279673  83.480  46.886  72.859
12257DA     BB379674  83.333  46.945  73.001
12257DA     SC179675  83.227  47.181  72.829
12257DA     SC279676  83.229  47.431  72.837
12257DA     SC379677  83.029  47.417  72.676
12257DA     SC479678  83.103  47.152  72.731
12258DA     BB179679  83.586  46.862  73.192
12258DA     BB279680  83.574  47.206  73.320
12258DA     BB379681  83.402  47.233  73.444
12258DA     SC179682  83.218  47.326  73.210
12258DA     SC279683  83.108  47.536  73.135
12258DA     SC379684  82.953  47.382  72.999
12258DA     SC479685  83.132  47.213  73.134
12259DA     BB179686  83.633  47.339  73.653
12259DA     BB279687  83.453  47.659  73.659
12259DA     BB379688  83.273  47.640  73.773
12259DA     SC179689  83.099  47.561  73.528
12259DA     SC279690  82.916  47.661  73.391
12259DA     SC379691  82.865  47.420  73.320
12259DA     SC479692  83.082  47.404  73.497
12260DT     BB179693  83.247  47.739  73.959
12260DT     BB279694  83.011  47.988  73.846
12260DT     BB379695  82.821  47.942  73.915
12260DT     SC179696  82.796  47.749  73.740
12260DT     SC279697  82.648  47.804  73.593
12260DT     SC379698  82.766  47.506  73.641
12261DA     BB179699  82.865  48.335  74.063
12261DA     BB279700  82.538  48.320  73.899
12261DA     BB379701  82.396  48.222  74.025
12261DA     SC179702  82.454  47.939  73.909
12261DA     SC279703  82.337  47.770  73.768
12261DA     SC379704  82.502  47.601  73.868
12261DA     SC479705  82.565  47.849  73.984
12262DT     BB179706  82.216  48.319  74.126
12262DT     BB279707  81.968  48.180  73.904
12262DT     BB379708  81.854  48.040  74.004
12262DT     SC179709  82.049  47.864  73.997
12262DT     SC279710  81.995  47.704  73.863
12262DT     SC379711  82.237  47.700  74.079
12263DC     BB179712  81.620  48.200  74.029
12263DC     BB279713  81.507  47.906  73.852
12263DC     BB379714  81.439  47.765  73.987
12263DC     SC179715  81.683  47.703  74.059
12263DC     SC279716  81.731  47.506  73.988
12263DC     SC379717  81.898  47.674  74.210
12264DT     BB179718  81.175  47.807  73.917
12264DT     BB279719  81.232  47.458  73.849
12264DT     BB379720  81.192  47.345  74.017
12264DT     SC179721  81.414  47.423  74.133
12264DT     SC279722  81.550  47.257  74.145
12264DT     SC379723  81.577  47.537  74.306
12265DA     BB179724  80.987  47.185  73.690
12265DA     BB279725  81.174  46.914  73.853
12265DA     BB379726  81.081  46.861  74.037
12265DA     SC179727  81.248  47.062  74.207
12265DA     SC279728  81.429  47.053  74.378
12265DA     SC379729  81.355  47.290  74.440
12265DA     SC479730  81.186  47.208  74.231
12266DA     BB179731  81.120  46.586  73.869
12266DA     BB279732  81.332  46.478  74.149
12266DA     BB379733  81.213  46.442  74.322
12266DA     SC179734  81.239  46.732  74.431
12266DA     SC279735  81.350  46.849  74.621
12266DA     SC379736  81.181  47.037  74.578
12266DA     SC479737  81.124  46.837  74.389
12267DT     BB179738  81.235  46.274  74.355
12267DT     BB279739  81.443  46.313  74.647
12267DT     BB379740  81.326  46.310  74.818
12267DT     SC179741  81.239  46.553  74.772
12267DT     SC279742  81.320  46.687  74.919
12267DT     SC379743  81.073  46.751  74.720
12268DT     BB179744  81.456  46.088  74.846
12268DT     BB279745  81.525  46.280  75.144
12268DT     BB379746  81.363  46.270  75.273
12268DT     SC179747  81.223  46.434  75.124
12268DT     SC279748  81.200  46.622  75.227
12268DT     SC379749  81.031  46.525  74.968
12269DA     BB179750  81.728  46.192  75.470
12269DA     BB279751  81.532  46.426  75.673
12269DA     BB379752  81.360  46.329  75.753
12269DA     SC179753  81.177  46.403  75.513
12269DA     SC279754  80.982  46.552  75.468
12269DA     SC379755  80.939  46.402  75.265
12269DA     SC479756  81.166  46.297  75.392
12270DT     BB179757  81.358  46.310  75.944
12270DT     BB279758  81.098  46.548  76.017
12270DT     BB379759  80.918  46.450  76.049
12270DT     SC179760  80.889  46.403  75.792
12270DT     SC279761  80.726  46.521  75.716
12270DT     SC379762  80.867  46.272  75.565
12271DT     BB179763  80.925  46.488  76.324
12271DT     BB279764  80.602  46.618  76.227
12271DT     BB379765  80.462  46.466  76.229
12271DT     SC179766  80.556  46.365  76.007
12271DT     SC279767  80.414  46.394  75.848
12271DT     SC379768  80.669  46.194  75.840
12272DA     BB179769  80.280  46.750  76.484
12272DA     BB279770  80.025  46.643  76.243
12272DA     BB379771  79.951  46.450  76.294
12272DA     SC179772  80.160  46.297  76.122
12272DA     SC279773  80.164  46.160  75.914
12272DA     SC379774  80.387  46.069  76.001
12272DA     SC479775  80.297  46.251  76.194
12273DA     BB179776  79.643  46.580  76.299
12273DA     BB279777  79.558  46.355  76.022
12273DA     BB379778  79.515  46.160  76.097
12273DA     SC179779  79.809  46.059  76.073
12273DA     SC279780  79.938  45.898  75.932
12273DA     SC379781  80.110  45.903  76.122
12273DA     SC479782  79.903  46.075  76.202
12274DT     BB179783  79.319  46.074  76.085
12274DT     BB279784  79.391  45.849  75.812
12274DT     BB379785  79.398  45.654  75.882
12274DT     SC179786  79.632  45.693  75.993
12274DT     SC279787  79.782  45.582  75.886
12274DT     SC379788  79.818  45.715  76.180
12275DA     BB179789  79.138  45.665  75.553
12275DA     BB279790  79.376  45.392  75.500
12275DA     BB379791  79.332  45.228  75.629
12275DA     SC179792  79.516  45.328  75.859
12275DA     SC279793  79.731  45.260  75.966
12275DA     SC379794  79.654  45.403  76.164
12275DA     SC479795  79.450  45.421  75.972
12276DC     BB179796  79.276  45.067  75.539
12276DC     BB279797  79.581  44.881  75.589
12276DC     BB379798  79.557  44.745  75.743
12276DC     SC179799  79.570  44.936  75.923
12276DC     SC279800  79.754  44.917  76.034
12276DC     SC379801  79.499  45.098  76.118
12277DT     BB179802  79.560  44.552  75.559
12277DT     BB279803  79.826  44.466  75.787
12277DT     BB379804  79.750  44.362  75.949
12277DT     SC179805  79.648  44.581  76.051
12277DT     SC279806  79.756  44.634  76.230
12277DT     SC379807  79.469  44.755  76.139
12278DA     BB179808  80.063  44.126  75.799
12278DA     BB279809  80.108  44.154  76.162
12278DA     BB379810  79.964  44.034  76.264
12278DA     SC179811  79.753  44.262  76.285
12278DA     SC279812  79.653  44.405  76.462
12278DA     SC379813  79.462  44.443  76.295
12278DA     SC479814  79.644  44.272  76.167
12279DT     BB179815  80.017  43.857  76.379
12279DT     BB279816  79.971  44.005  76.705
12279DT     BB379817  79.800  43.928  76.794
12279DT     SC179818  79.645  44.072  76.638
12279DT     SC279819  79.549  44.224  76.755
12279DT     SC379820  79.465  44.133  76.456
12280DT     BB179821  79.936  43.764  76.979
12280DT     BB279822  79.731  43.978  77.185
12280DT     BB379823  79.547  43.889  77.218
12280DT     SC179824  79.468  43.942  76.974
12280DT     SC279825  79.314  44.092  76.981
12280DT     SC379826  79.387  43.906  76.726
12281DG     BB179827  79.707  43.945  77.590
12281DG     BB279828  79.381  44.099  77.561
12281DG     BB379829  79.239  43.962  77.585
12281DG     SC179830  79.223  43.891  77.287
12281DG     SC279831  78.991  43.943  77.107
12281DG     SC379832  79.194  43.775  76.972
12281DG     SC479833  79.319  43.778  77.230
12282DC     BB179834  79.107  43.992  77.745
12282DC     BB279835  78.814  44.112  77.571
12282DC     BB379836  78.676  43.959  77.552
12282DC     SC179837  78.817  43.844  77.363
12282DC     SC279838  78.714  43.862  77.175
12282DC     SC379839  78.962  43.664  77.237
12283DA     BB179840  78.508  44.316  77.699
12283DA     BB279841  78.303  44.195  77.421
12283DA     BB379842  78.200  44.016  77.477
12283DA     SC179843  78.425  43.826  77.377
12283DA     SC279844  78.460  43.662  77.193
12283DA     SC379845  78.649  43.568  77.340
12283DA     SC479846  78.537  43.782  77.483
12284DA     BB179847  77.969  44.215  77.358
12284DA     BB279848  77.906  43.952  77.111
12284DA     BB379849  77.817  43.782  77.204
12284DA     SC179850  78.089  43.643  77.266
12284DA     SC279851  78.216  43.443  77.188
12284DA     SC379852  78.344  43.464  77.409
12284DA     SC479853  78.156  43.672  77.409
12285DG     BB179854  77.596  43.848  76.999
12285DG     BB279855  77.685  43.523  76.869
12285DG     BB379856  77.602  43.380  76.980
12285DG     SC179857  77.838  43.360  77.174
12285DG     SC279858  78.020  43.125  77.204
12285DG     SC379859  78.069  43.324  77.417
12285DG     SC479860  77.841  43.454  77.303
12286DG     BB179861  77.450  43.268  76.710
12286DG     BB279862  77.640  42.964  76.760
12286DG     BB379863  77.549  42.849  76.894
12286DG     SC179864  77.696  42.970  77.134
12286DG     SC279865  77.894  42.830  77.308
12286DG     SC379866  77.823  43.095  77.421
12286DG     SC479867  77.633  43.099  77.206
12287DA     BB179868  77.569  42.595  76.659
12287DA     BB279869  77.771  42.396  76.892
12287DA     BB379870  77.647  42.310  77.043
12287DA     SC179871  77.679  42.550  77.239
12287DA     SC279872  77.789  42.596  77.458
12287DA     SC379873  77.627  42.795  77.475
12287DA     SC479874  77.569  42.667  77.232
12288DA     BB179875  77.803  42.048  76.930
12288DA     BB279876  77.942  42.013  77.268
12288DA     BB379877  77.793  41.941  77.403
12288DA     SC179878  77.695  42.225  77.485
12288DA     SC279879  77.702  42.371  77.686
12288DA     SC379880  77.506  42.496  77.577
12288DA     SC479881  77.573  42.288  77.401
12289DA     BB179882  78.053  41.750  77.438
12289DA     BB279883  78.055  41.864  77.786
12289DA     BB379884  77.888  41.784  77.891
12289DA     SC179885  77.701  42.024  77.826
12289DA     SC279886  77.595  42.214  77.948
12289DA     SC379887  77.432  42.223  77.750
12289DA     SC479888  77.609  42.013  77.695
12290DT     BB179889  77.961  41.692  78.011
12290DT     BB279890  77.883  41.906  78.290
12290DT     BB379891  77.703  41.849  78.375
12290DT     SC179892  77.567  41.954  78.177
12290DT     SC279893  77.461  42.127  78.247
12290DT     SC379894  77.408  41.972  77.968
12291DA     BB179895  78.017  41.921  78.651
12291DA     BB279896  77.711  42.082  78.772
12291DA     BB379897  77.565  41.935  78.822
12291DA     SC179898  77.436  41.932  78.538
12291DA     SC279899  77.223  42.003  78.431
12291DA     SC379900  77.285  41.840  78.244
12291DA     SC479901  77.492  41.824  78.432
12292DA     BB179902  77.576  42.122  79.093
12292DA     BB279903  77.216  42.171  79.046
12292DA     BB379904  77.111  41.989  79.084
12292DA     SC179905  77.124  41.892  78.788
12292DA     SC279906  76.967  41.858  78.598
12292DA     SC379907  77.147  41.704  78.502
12292DA     SC479908  77.248  41.798  78.746
12293DT     BB179909  76.987  41.971  79.248
12293DT     BB279910  76.672  41.968  79.072
12293DT     BB379911  76.596  41.776  79.066
12293DT     SC179912  76.770  41.703  78.883
12293DT     SC279913  76.668  41.670  78.697
12293DT     SC379914  76.970  41.577  78.767
12294DA     BB179915  76.276  41.992  79.234
12294DA     BB279916  76.136  41.783  78.967
12294DA     BB379917  76.121  41.580  79.032
12294DA     SC179918  76.404  41.501  78.929
12294DA     SC279919  76.501  41.360  78.748
12294DA     SC379920  76.715  41.362  78.890
12294DA     SC479921  76.526  41.513  79.032
12295DG     BB179922  75.805  41.589  78.996
12295DG     BB279923  75.866  41.340  78.741
12295DG     BB379924  75.869  41.159  78.822
12295DG     SC179925  76.170  41.163  78.880
12295DG     SC279926  76.376  40.990  78.750
12295DG     SC379927  76.492  41.142  78.976
12295DG     SC479928  76.221  41.223  79.019
12296DC     BB179929  75.715  40.984  78.776
12296DC     BB279930  75.917  40.769  78.567
12296DC     BB379931  75.969  40.599  78.672
12296DC     SC179932  76.146  40.731  78.814
12296DC     SC279933  76.344  40.668  78.757
12296DC     SC379934  76.267  40.838  79.022
12297DG     BB179935  75.768  40.466  78.343
12297DG     BB279936  76.089  40.302  78.373
12297DG     BB379937  76.079  40.157  78.508
12297DG     SC179938  76.155  40.336  78.744
12297DG     SC279939  76.407  40.317  78.904
12297DG     SC379940  76.217  40.507  79.028
12297DG     SC479941  76.040  40.414  78.823
12298DA     BB179942  76.213  39.945  78.267
12298DA     BB279943  76.498  39.873  78.485
12298DA     BB379944  76.441  39.737  78.639
12298DA     SC179945  76.359  39.960  78.840
12298DA     SC279946  76.442  40.054  79.055
12298DA     SC379947  76.204  40.145  79.084
12298DA     SC479948  76.205  40.006  78.840
12299DA     BB179949  76.697  39.556  78.530
12299DA     BB279950  76.845  39.591  78.863
12299DA     BB379951  76.750  39.458  79.001
12299DA     SC179952  76.534  39.665  79.088
12299DA     SC279953  76.478  39.798  79.291
12299DA     SC379954  76.243  39.818  79.189
12299DA     SC479955  76.394  39.664  79.009
12300DA     BB179956  77.053  39.336  79.068
12300DA     BB279957  77.007  39.448  79.414
12300DA     BB379958  76.885  39.310  79.522
12300DA     SC179959  76.618  39.453  79.452
12300DA     SC279960  76.444  39.587  79.571
12300DA     SC379961  76.292  39.526  79.373
12300DA     SC479962  76.539  39.404  79.321
12301DT     BB179963  76.954  39.172  79.695
12301DT     BB279964  76.799  39.364  79.958
12301DT     BB379965  76.642  39.257  80.041
12301DT     SC179966  76.490  39.304  79.832
12301DT     SC279967  76.332  39.438  79.888
12301DT     SC379968  76.344  39.262  79.617
12302DG     BB179969  76.894  39.321  80.356
12302DG     BB279970  76.561  39.441  80.428
12302DG     BB379971  76.445  39.290  80.484
12302DG     SC179972  76.352  39.224  80.200
12302DG     SC279973  76.074  39.256  80.094
12302DG     SC379974  76.245  39.113  79.900
12302DG     SC479975  76.438  39.122  80.111
12303DT     BB179976  76.353  39.284  80.687
12303DT     BB279977  76.014  39.378  80.608
12303DT     BB379978  75.890  39.211  80.617
12303DT     SC179979  75.984  39.120  80.390
12303DT     SC279980  75.831  39.133  80.239
12303DT     SC379981  76.105  38.961  80.217
12304DA     BB179982  75.734  39.535  80.833
12304DA     BB279983  75.473  39.405  80.611
12304DA     BB379984  75.405  39.215  80.679
12304DA     SC179985  75.612  39.054  80.510
12304DA     SC279986  75.610  38.903  80.312
12304DA     SC379987  75.839  38.823  80.396
12304DA     SC479988  75.752  39.017  80.579
12305DT     BB179989  75.234  39.229  80.724
12305DT     BB279990  75.098  39.050  80.442
12305DT     BB379991  75.062  38.853  80.494
12305DT     SC179992  75.318  38.796  80.486
12305DT     SC279993  75.358  38.667  80.318
12305DT     SC379994  75.559  38.724  80.566
12306DA     BB179995  74.734  39.030  80.299
12306DA     BB279996  74.798  38.703  80.147
12306DA     BB379997  74.751  38.547  80.284
12306DA     SC179998  75.037  38.534  80.405
12306DA     SC279999  75.231  38.376  80.405
12306DA     SC380000  75.307  38.502  80.615
12306DA     SC480001  75.067  38.623  80.535
12307DT     BB180002  74.609  38.442  80.226
12307DT     BB280003  74.797  38.145  80.145
12307DT     BB380004  74.785  38.009  80.300
12307DT     SC180005  74.951  38.149  80.447
12307DT     SC280006  75.137  38.043  80.466
12307DT     SC380007  75.043  38.295  80.646
12308DG     BB180008  74.642  37.817  79.968
12308DG     BB280009  74.893  37.619  80.136
12308DG     BB380010  74.815  37.532  80.297
12308DG     SC180011  74.882  37.763  80.486
12308DG     SC280012  75.078  37.754  80.711
12308DG     SC380013  74.922  38.006  80.716
12308DG     SC480014  74.777  37.883  80.502
12309DA     BB180015  74.928  37.218  80.185
12309DA     BB280016  75.126  37.176  80.490
12309DA     BB380017  75.001  37.119  80.653
12309DA     SC180018  74.944  37.412  80.744
12309DA     SC280019  75.003  37.560  80.936
12309DA     SC380020  74.800  37.699  80.863
12309DA     SC480021  74.814  37.484  80.684
12310DT     BB180022  75.007  36.922  80.751
12310DT     BB280023  75.172  37.031  81.053
12310DT     BB380024  75.039  37.027  81.212
12310DT     SC180025  74.918  37.243  81.126
12310DT     SC280026  74.958  37.406  81.260
12310DT     SC380027  74.727  37.400  81.033
12311DG     BB180028  75.333  36.768  81.334
12311DG     BB280029  75.273  37.023  81.584
12311DG     BB380030  75.115  36.974  81.694
12311DG     SC180031  74.914  37.116  81.512
12311DG     SC280032  74.752  37.357  81.583
12311DG     SC380033  74.663  37.243  81.325
12311DG     SC480034  74.850  37.035  81.390
12312DA     BB180035  75.327  37.029  81.960
12312DA     BB280036  75.105  37.296  82.077
12312DA     BB380037  74.929  37.213  82.165
12312DA     SC180038  74.767  37.211  81.900
12312DA     SC280039  74.572  37.331  81.801
12312DA     SC380040  74.555  37.131  81.642
12312DA     SC480041  74.772  37.077  81.811
12313DT     BB180042  74.918  37.254  82.345
12313DT     BB280043  74.657  37.502  82.316
12313DT     BB380044  74.474  37.418  82.363
12313DT     SC180045  74.465  37.290  82.133
12313DT     SC280046  74.311  37.376  82.010
12313DT     SC380047  74.458  37.092  81.960
12314DA     BB180048  74.538  37.781  82.567
12314DA     BB280049  74.206  37.789  82.412
12314DA     BB380050  74.075  37.651  82.509
12314DA     SC180051  74.145  37.415  82.319
12314DA     SC280052  74.033  37.283  82.139
12314DA     SC380053  74.212  37.106  82.185
12314DA     SC480054  74.264  37.316  82.363
12315DT     BB180055  73.935  37.736  82.594
12315DT     BB280056  73.675  37.639  82.364
12315DT     BB380057  73.573  37.475  82.437
12315DT     SC180058  73.771  37.314  82.377
12315DT     SC280059  73.713  37.186  82.215
12315DT     SC380060  73.971  37.144  82.407
12316DA     BB180061  73.287  37.768  82.337
12316DA     BB280062  73.179  37.448  82.192
12316DA     BB380063  73.113  37.316  82.346
12316DA     SC180064  73.393  37.188  82.390
12316DA     SC280065  73.504  36.968  82.350
12316DA     SC380066  73.674  37.045  82.526
12316DA     SC480067  73.487  37.253  82.503
12317DT     BB180068  72.913  37.260  82.359
12317DT     BB280069  72.957  36.924  82.236
12317DT     BB380070  72.944  36.789  82.392
12317DT     SC180071  73.182  36.855  82.479
12317DT     SC280072  73.318  36.691  82.447
12317DT     SC380073  73.372  36.947  82.637
12318DT     BB180074  72.691  36.695  82.320
12318DT     BB280075  72.899  36.400  82.322
12318DT     BB380076  72.899  36.315  82.510
12318DT     SC180077  73.057  36.503  82.604
12318DT     SC280078  73.251  36.419  82.646
12318DT     SC380079  73.142  36.706  82.748
12319DA     BB180080  72.794  36.010  82.243
12319DA     BB280081  73.074  35.890  82.447
12319DA     BB380082  73.007  35.842  82.644
12319DA     SC180083  73.061  36.127  82.758
12319DA     SC280084  73.220  36.235  82.917
12319DA     SC380085  73.046  36.422  82.932
12319DA     SC480086  72.940  36.232  82.755
12320DA     BB180087  73.163  35.578  82.542
12320DA     BB280088  73.398  35.645  82.815
12320DA     BB380089  73.308  35.600  83.003
12320DA     SC180090  73.196  35.887  83.045
12320DA     SC280091  73.239  36.082  83.195
12320DA     SC380092  73.003  36.158  83.130
12320DA     SC480093  73.047  35.916  82.994
12321DT     BB180094  73.409  35.480  83.058
12321DT     BB280095  73.580  35.682  83.303
12321DT     BB380096  73.485  35.667  83.487
12321DT     SC180097  73.288  35.821  83.406
12321DT     SC280098  73.298  36.009  83.509
12321DT     SC380099  73.045  35.898  83.339
12322DT     BB180100  73.715  35.561  83.520
12322DT     BB280101  73.692  35.832  83.757
12322DT     BB380102  73.567  35.778  83.914
12322DT     SC180103  73.354  35.808  83.765
12322DT     SC280104  73.243  35.979  83.833
12322DT     SC380105  73.133  35.750  83.632
12323DA     BB180106  73.933  35.956  84.032
12323DA     BB280107  73.659  36.105  84.225
12323DA     BB380108  73.573  35.960  84.356
12323DA     SC180109  73.360  35.864  84.151
12323DA     SC280110  73.113  35.876  84.122
12323DA     SC380111  73.142  35.677  83.963
12323DA     SC480112  73.399  35.739  84.057
12324DT     BB180113  73.600  36.002  84.534
12324DT     BB280114  73.260  36.084  84.620
12324DT     BB380115  73.169  35.921  84.710
12324DT     SC180116  73.146  35.797  84.480
12324DT     SC280117  72.939  35.788  84.423
12324DT     SC380118  73.179  35.615  84.292
12325DT     BB180119  73.179  36.033  84.964
12325DT     BB280120  72.831  35.945  84.924
12325DT     BB380121  72.800  35.751  84.988
12325DT     SC180122  72.913  35.653  84.773
12325DT     SC280123  72.764  35.559  84.650
12325DT     SC380124  73.085  35.524  84.619
12326DT     BB180125  72.673  35.810  85.240
12326DT     BB280126  72.437  35.590  85.079
12326DT     BB380127  72.473  35.394  85.133
12326DT     SC180128  72.685  35.382  84.978
12326DT     SC280129  72.644  35.251  84.813
12326DT     SC380130  72.936  35.359  84.903
12327DA     BB180131  72.068  35.426  85.248
12327DA     BB280132  72.097  35.121  85.046
12327DA     BB380133  72.178  34.962  85.163
12327DA     SC180134  72.473  35.025  85.089
12327DA     SC280135  72.656  34.921  84.954
12327DA     SC380136  72.814  35.068  85.093
12327DA     SC480137  72.555  35.123  85.186
12328DG     BB180138  71.911  34.795  85.123
12328DG     BB280139  72.127  34.575  84.934
12328DG     BB380140  72.208  34.439  85.055
12328DG     SC180141  72.453  34.611  85.121
12328DG     SC280142  72.735  34.551  85.043
12328DG     SC380143  72.724  34.779  85.232
12328DG     SC480144  72.445  34.712  85.245
12329DA     BB180145  72.091  34.204  84.833
12329DA     BB280146  72.435  34.096  84.765
12329DA     BB380147  72.506  33.972  84.923
12329DA     SC180148  72.625  34.207  85.088
12329DA     SC280149  72.850  34.293  85.152
12329DA     SC380150  72.728  34.416  85.340
12329DA     SC480151  72.531  34.275  85.199
12330DT     BB180152  72.541  33.800  84.863
12330DT     BB280153  72.901  33.827  84.863
12330DT     BB380154  72.979  33.736  85.032
12330DT     SC180155  72.901  33.936  85.185
12330DT     SC280156  73.073  34.044  85.253
12330DT     SC380157  72.773  34.069  85.373
12331DG     BB180158  73.141  33.593  84.688
12331DG     BB280159  73.394  33.697  84.925
12331DG     BB380160  73.408  33.564  85.072
12331DG     SC180161  73.198  33.700  85.248
12331DG     SC280162  73.249  33.833  85.511
12331DG     SC380163  72.959  33.811  85.458
12331DG     SC480164  73.044  33.660  85.230
12332DT     BB180165  73.587  33.491  85.080
12332DT     BB280166  73.720  33.637  85.382
12332DT     BB380167  73.689  33.509  85.542
12332DT     SC180168  73.434  33.568  85.551
12332DT     SC280169  73.393  33.682  85.729
12332DT     SC380170  73.172  33.540  85.539
12333DA     BB180171  74.090  33.634  85.534
12333DA     BB280172  73.966  33.665  85.878
12333DA     BB380173  73.937  33.472  85.964
12333DA     SC180174  73.640  33.450  85.872
12333DA     SC280175  73.414  33.452  85.976
12333DA     SC380176  73.336  33.338  85.760
12333DA     SC480177  73.612  33.379  85.730
12334DA     BB180178  74.128  33.608  86.195
12334DA     BB280179  73.853  33.545  86.430
12334DA     BB380180  73.839  33.337  86.474
12334DA     SC180181  73.640  33.276  86.244
12334DA     SC280182  73.400  33.213  86.219
12334DA     SC380183  73.466  33.132  85.985
12334DA     SC480184  73.701  33.231  86.102
12335DA     BB180185  73.858  33.448  86.785
12335DA     BB280186  73.531  33.291  86.841
12335DA     BB380187  73.552  33.079  86.855
12335DA     SC180188  73.509  33.031  86.551
12335DA     SC280189  73.335  32.931  86.402
12335DA     SC380190  73.524  32.911  86.229
12335DA     SC480191  73.640  33.026  86.457
12336DA     BB180192  73.394  33.119  87.143
12336DA     BB280193  73.131  32.901  87.010
12336DA     BB380194  73.194  32.697  87.014
12336DA     SC180195  73.316  32.704  86.728
12336DA     SC280196  73.266  32.608  86.504
12336DA     SC380197  73.512  32.656  86.451
12336DA     SC480198  73.472  32.741  86.715
12337DC     BB180199  73.103  32.557  87.142
12337DC     BB280200  72.921  32.377  86.888
12337DC     BB380201  73.010  32.194  86.853
12337DC     SC180202  73.207  32.306  86.720
12337DC     SC280203  73.191  32.255  86.512
12337DC     SC380204  73.451  32.384  86.657
12338DT     BB180205  72.812  32.049  86.984
12338DT     BB280206  72.824  31.901  86.656
12338DT     BB380207  72.962  31.747  86.653
12338DT     SC180208  73.162  31.916  86.651
12338DT     SC280209  73.260  31.909  86.460
12338DT     SC380210  73.379  32.045  86.729
12339DT     BB180211  72.773  31.536  86.652
12339DT     BB280212  72.974  31.470  86.360
12339DT     BB380213  73.133  31.347  86.409
12339DT     SC180214  73.259  31.544  86.529
12339DT     SC280215  73.433  31.598  86.414
12339DT     SC380216  73.372  31.686  86.720
12340DT     BB180217  73.033  31.106  86.291
12340DT     BB280218  73.353  31.151  86.132
12340DT     BB380219  73.500  31.050  86.238
12340DT     SC180220  73.498  31.231  86.428
12340DT     SC280221  73.683  31.342  86.423
12340DT     SC380222  73.469  31.341  86.666
12341DT     BB180223  73.537  30.829  86.056
12341DT     BB280224  73.865  30.976  86.082
12341DT     BB380225  73.974  30.880  86.230
12341DT     SC180226  73.837  31.001  86.419
12341DT     SC280227  73.964  31.142  86.520
12341DT     SC380228  73.677  31.036  86.625
12342DA     BB180229  74.216  30.864  85.889
12342DA     BB280230  74.417  31.005  86.161
12342DA     BB380231  74.478  30.851  86.295
12342DA     SC180232  74.230  30.880  86.480
12342DA     SC280233  74.180  30.961  86.711
12342DA     SC380234  73.966  30.821  86.691
12342DA     SC480235  74.103  30.786  86.449
12343DA     BB180236  74.765  30.986  86.223
12343DA     BB280237  74.788  31.074  86.578
12343DA     BB380238  74.838  30.903  86.694
12343DA     SC180239  74.542  30.821  86.746
12343DA     SC280240  74.384  30.814  86.938
12343DA     SC380241  74.251  30.646  86.796
12343DA     SC480242  74.475  30.717  86.643
12344DG     BB180243  75.067  31.095  86.757
12344DG     BB280244  74.920  31.083  87.087
12344DG     BB380245  74.974  30.915  87.179
12344DG     SC180246  74.737  30.752  87.075
12344DG     SC280247  74.514  30.641  87.240
12344DG     SC380248  74.502  30.538  86.964
12344DG     SC480249  74.751  30.676  86.935
12345DA     BB180250  75.045  31.149  87.419
12345DA     BB280251  74.816  30.975  87.647
12345DA     BB380252  74.901  30.789  87.709
12345DA     SC180253  74.774  30.626  87.477
12345DA     SC280254  74.597  30.452  87.448
12345DA     SC380255  74.714  30.400  87.226
12345DA     SC480256  74.861  30.607  87.343
12346DC     BB180257  74.925  30.798  87.884
12346DC     BB280258  74.659  30.575  87.980
12346DC     BB380259  74.734  30.384  88.008
12346DC     SC180260  74.757  30.346  87.750
12346DC     SC280261  74.612  30.200  87.686
12346DC     SC380262  74.867  30.302  87.514
12347DG     BB180263  74.533  30.517  88.336
12347DG     BB280264  74.419  30.190  88.232
12347DG     BB380265  74.555  30.052  88.281
12347DG     SC180266  74.709  30.075  88.017
12347DG     SC280267  74.730  29.864  87.807
12347DG     SC380268  74.913  30.089  87.749
12347DG     SC480269  74.827  30.183  88.005
12348DA     BB180270  74.279  29.893  88.416
12348DA     BB280271  74.350  29.599  88.209
12348DA     BB380272  74.524  29.498  88.281
12348DA     SC180273  74.721  29.657  88.101
12348DA     SC280274  74.867  29.614  87.904
12348DA     SC380275  74.993  29.825  87.976
12348DA     SC480276  74.787  29.790  88.163
12349DA     BB180277  74.313  29.243  88.277
12349DA     BB280278  74.547  29.078  88.048
12349DA     BB380279  74.720  29.012  88.154
12349DA     SC180280  74.880  29.275  88.107
12349DA     SC280281  75.078  29.349  87.975
12349DA     SC380282  75.086  29.547  88.139
12349DA     SC480283  74.869  29.389  88.219
12350DT     BB180284  74.759  28.809  88.179
12350DT     BB280285  75.037  28.784  87.951
12350DT     BB380286  75.215  28.769  88.057
12350DT     SC180287  75.208  29.024  88.119
12350DT     SC280288  75.365  29.127  88.014
12350DT     SC380289  75.194  29.244  88.264
12351DA     BB180290  75.234  28.431  87.807
12351DA     BB280291  75.558  28.600  87.782
12351DA     BB380292  75.675  28.561  87.956
12351DA     SC180293  75.571  28.810  88.111
12351DA     SC280294  75.659  29.029  88.189
12351DA     SC380295  75.462  29.027  88.354
12351DA     SC480296  75.443  28.789  88.207
12352DA     BB180297  75.922  28.441  87.761
12352DA     BB280298  76.137  28.711  87.886
12352DA     BB380299  76.217  28.659  88.077
12352DA     SC180300  75.984  28.786  88.238
12352DA     SC280301  75.948  28.982  88.388
12352DA     SC380302  75.741  28.856  88.471
12352DA     SC480303  75.860  28.691  88.277
12353DT     BB180304  76.440  28.613  88.126
12353DT     BB280305  76.507  28.927  88.290
12353DT     BB380306  76.539  28.896  88.492
12353DT     SC180307  76.283  28.858  88.534
12353DT     SC280308  76.203  29.023  88.647
12353DT     SC380309  76.057  28.738  88.599
12354DA     BB180310  76.882  29.105  88.370
12354DA     BB280311  76.744  29.281  88.662
12354DA     BB380312  76.793  29.177  88.841
12354DA     SC180313  76.535  29.003  88.839
12354DA     SC280314  76.325  28.983  88.972
12354DA     SC380315  76.308  28.748  88.871
12354DA     SC480316  76.543  28.859  88.767
12355DC     BB180317  76.919  29.266  88.977
12355DC     BB280318  76.659  29.358  89.211
12355DC     BB380319  76.670  29.237  89.379
12355DC     SC180320  76.567  29.034  89.249
12355DC     SC280321  76.369  28.994  89.323
12355DC     SC380322  76.546  28.796  89.137
12356DA     BB180323  76.649  29.642  89.480
12356DA     BB280324  76.394  29.462  89.671
12356DA     BB380325  76.486  29.342  89.822
12356DA     SC180326  76.511  29.090  89.642
12356DA     SC280327  76.409  28.863  89.626
12356DA     SC380328  76.617  28.802  89.489
12356DA     SC480329  76.648  29.071  89.560
12357DC     BB180330  76.427  29.407  89.970
12357DC     BB280331  76.203  29.135  90.051
12357DC     BB380332  76.298  29.000  90.175
12357DC     SC180333  76.441  28.906  89.975
12357DC     SC280334  76.376  28.706  89.929
12357DC     SC380335  76.650  28.845  89.827
12358DT     BB180336  76.119  29.097  90.332
12358DT     BB280337  76.065  28.740  90.328
12358DT     BB380338  76.205  28.646  90.448
12358DT     SC180339  76.393  28.682  90.269
12358DT     SC280340  76.448  28.492  90.184
12358DT     SC380341  76.616  28.767  90.158
12359DA     BB180342  75.812  28.511  90.525
12359DA     BB280343  76.035  28.221  90.508
12359DA     BB380344  76.169  28.220  90.673
12359DA     SC180345  76.390  28.383  90.526
12359DA     SC280346  76.618  28.344  90.435
12359DA     SC380347  76.646  28.598  90.447
12359DA     SC480348  76.388  28.543  90.543
12360DT     BB180349  76.147  28.077  90.801
12360DT     BB280350  76.449  27.893  90.730
12360DT     BB380351  76.593  27.937  90.873
12360DT     SC180352  76.637  28.173  90.766
12360DT     SC280353  76.832  28.174  90.675
12360DT     SC380354  76.651  28.435  90.741
12361DG     BB180355  76.555  27.531  90.936
12361DG     BB280356  76.904  27.619  90.910
12361DG     BB380357  76.970  27.690  91.084
12361DG     SC180358  76.899  27.981  91.021
12361DG     SC280359  77.093  28.204  90.982
12361DG     SC380360  76.815  28.306  90.994
12361DG     SC480361  76.752  28.034  91.058
12362DT     BB180362  77.146  27.599  91.273
12362DT     BB280363  77.425  27.819  91.213
12362DT     BB380364  77.450  27.947  91.373
12362DT     SC180365  77.241  28.090  91.302
12362DT     SC280366  77.307  28.282  91.233
12362DT     SC380367  77.003  28.202  91.311
12363DA     BB180368  77.842  27.780  91.393
12363DA     BB280369  77.887  28.144  91.396
12363DA     BB380370  77.859  28.221  91.593
12363DA     SC180371  77.554  28.270  91.558
12363DA     SC280372  77.399  28.465  91.539
12363DA     SC380373  77.215  28.299  91.606
12363DA     SC480374  77.454  28.152  91.602
12364DT     BB180375  78.024  28.321  91.745
12364DT     BB280376  77.916  28.661  91.687
12364DT     BB380377  77.838  28.740  91.861
12364DT     SC180378  77.617  28.600  91.835
12364DT     SC280379  77.454  28.732  91.788
12364DT     SC380380  77.428  28.424  91.886
12365DT     BB180381  78.057  28.908  91.907
12365DT     BB280382  77.776  29.133  91.879
12365DT     BB380383  77.694  29.166  92.066
12365DT     SC180384  77.583  28.928  92.069
12365DT     SC280385  77.370  28.949  92.052
12365DT     SC380386  77.529  28.681  92.141
12366DT     BB180387  77.792  29.415  92.051
12366DT     BB280388  77.435  29.457  92.087
12366DT     BB380389  77.384  29.455  92.287
12366DT     SC180390  77.418  29.195  92.302
12366DT     SC280391  77.227  29.100  92.328
12366DT     SC380392  77.517  28.962  92.375
12367DA     BB180393  77.214  29.775  92.076
12367DA     BB280394  76.951  29.610  92.272
12367DA     BB380395  76.979  29.647  92.480
12367DA     SC180396  77.154  29.394  92.525
12367DA     SC280397  77.134  29.173  92.640
12367DA     SC380398  77.391  29.169  92.633
12367DA     SC480399  77.314  29.410  92.512
12368DT     BB180400  76.841  29.742  92.542
12368DT     BB280401  76.684  29.479  92.733
12368DT     BB380402  76.740  29.493  92.932
12368DT     SC180403  76.979  29.398  92.880
12368DT     SC280404  76.998  29.201  92.965
12368DT     SC380405  77.241  29.385  92.856
12369DT     BB180406  76.490  29.572  92.978
12369DT     BB280407  76.540  29.290  93.197
12369DT     BB380408  76.633  29.351  93.372
12369DT     SC180409  76.864  29.376  93.249
12369DT     SC280410  76.998  29.222  93.318
12369DT     SC380411  77.081  29.486  93.149
12370DA     BB180412  76.292  29.138  93.493
12370DA     BB280413  76.575  29.018  93.694
12370DA     BB380414  76.630  29.164  93.839
12370DA     SC180415  76.836  29.306  93.655
12370DA     SC280416  77.084  29.333  93.641
12370DA     SC380417  77.033  29.537  93.494
12370DA     SC480418  76.784  29.430  93.567
12371DA     BB180419  76.590  28.925  94.069
12371DA     BB280420  76.943  28.969  94.157
12371DA     BB380421  76.968  29.140  94.281
12371DA     SC180422  77.016  29.335  94.043
12371DA     SC280423  77.206  29.466  93.948
12371DA     SC380424  77.024  29.607  93.834
12371DA     SC480425  76.889  29.411  93.983
12372DA     BB180426  77.116  28.940  94.504
12372DA     BB280427  77.420  29.141  94.463
12372DA     BB380428  77.405  29.321  94.577
12372DA     SC180429  77.280  29.486  94.345
12372DA     SC280430  77.347  29.673  94.193
12372DA     SC380431  77.095  29.707  94.157
12372DA     SC480432  77.119  29.492  94.336
12373DA     BB180433  77.690  29.236  94.728
12373DA     BB280434  77.842  29.537  94.585
12373DA     BB380435  77.791  29.708  94.702
12373DA     SC180436  77.535  29.774  94.539
12373DA     SC280437  77.457  29.950  94.380
12373DA     SC380438  77.221  29.872  94.440
12373DA     SC480439  77.396  29.712  94.590
12374DT     BB180440  77.938  29.828  94.824
12374DT     BB280441  77.957  30.107  94.596
12374DT     BB380442  77.868  30.273  94.680
12374DT     SC180443  77.628  30.175  94.638
12374DT     SC280444  77.529  30.291  94.486
12374DT     SC380445  77.387  30.080  94.687
12375DT     BB180446  78.110  30.402  94.727
12375DT     BB280447  77.927  30.630  94.516
12375DT     BB380448  77.816  30.761  94.632
12375DT     SC180449  77.641  30.574  94.689
12375DT     SC280450  77.454  30.619  94.591
12375DT     SC380451  77.497  30.402  94.829
12376DA     BB180452  78.041  30.978  94.356
12376DA     BB280453  77.693  31.089  94.332
12376DA     BB380454  77.641  31.209  94.501
12376DA     SC180455  77.540  30.968  94.671
12376DA     SC280456  77.323  30.881  94.757
12376DA     SC380457  77.465  30.751  94.926
12376DA     SC480458  77.646  30.896  94.768
12377DA     BB180459  77.558  31.378  94.239
12377DA     BB280460  77.216  31.361  94.370
12377DA     BB380461  77.196  31.485  94.543
12377DA     SC180462  77.271  31.259  94.743
12377DA     SC280463  77.157  31.122  94.917
12377DA     SC380464  77.393  31.078  95.008
12377DA     SC480465  77.426  31.244  94.784
12378DT     BB180466  77.082  31.597  94.494
12378DT     BB280467  76.809  31.474  94.695
12378DT     BB380468  76.805  31.573  94.877
12378DT     SC180469  77.012  31.438  94.964
12378DT     SC280470  76.949  31.303  95.120
12378DT     SC380471  77.256  31.386  95.051
12379DG     BB180472  76.453  31.567  94.668
12379DG     BB280473  76.412  31.465  95.013
12379DG     BB380474  76.434  31.622  95.133
12379DG     SC180475  76.736  31.585  95.166
12379DG     SC280476  76.876  31.509  95.418
12379DG     SC380477  77.070  31.586  95.209
12379DG     SC480478  76.835  31.655  95.061
12380DT     BB180479  76.274  31.647  95.235
12380DT     BB280480  76.373  31.567  95.573
12380DT     BB380481  76.438  31.738  95.670
12380DT     SC180482  76.664  31.737  95.537
12380DT     SC280483  76.825  31.688  95.671
12380DT     SC380484  76.857  31.813  95.374
12381DT     BB180485  76.211  31.734  95.813
12381DT     BB280486  76.471  31.761  96.062
12381DT     BB380487  76.527  31.959  96.085
12381DT     SC180488  76.658  31.958  95.858
12381DT     SC280489  76.869  31.971  95.897
12381DT     SC380490  76.726  32.017  95.610
12382DA     BB180491  76.431  31.856  96.484
12382DA     BB280492  76.748  32.040  96.494
12382DA     BB380493  76.714  32.248  96.464
12382DA     SC180494  76.745  32.234  96.155
12382DA     SC280495  76.908  32.311  95.983
12382DA     SC380496  76.715  32.282  95.817
12382DA     SC480497  76.612  32.212  96.068
12383DA     BB180498  76.864  32.338  96.759
12383DA     BB280499  77.111  32.529  96.566
12383DA     BB380500  77.034  32.721  96.516
12383DA     SC180501  76.911  32.628  96.245
12383DA     SC280502  76.954  32.662  96.002
12383DA     SC380503  76.712  32.585  95.969
12383DA     SC480504  76.758  32.579  96.246
12384DT     BB180505  77.100  32.940  96.596
12384DT     BB280506  77.275  33.037  96.295
12384DT     BB380507  77.175  33.193  96.202
12384DT     SC180508  76.987  33.031  96.116
12384DT     SC280509  77.003  33.011  95.902
12384DT     SC380510  76.750  32.921  96.083
12385DA     BB180511  77.563  33.348  96.247
12385DA     BB280512  77.468  33.391  95.895
12385DA     BB380513  77.334  33.556  95.874
12385DA     SC180514  77.077  33.384  95.910
12385DA     SC280515  76.887  33.305  95.770
12385DA     SC380516  76.765  33.268  95.993
12385DA     SC480517  77.018  33.369  96.059
12386DC     BB180518  77.392  33.729  95.769
12386DC     BB280519  77.201  33.658  95.471
12386DC     BB380520  77.038  33.786  95.460
12386DC     SC180521  76.911  33.654  95.648
12386DC     SC280522  76.743  33.551  95.561
12386DC     SC380523  76.793  33.601  95.878
12387DA     BB180524  77.247  33.799  95.096
12387DA     BB280525  76.892  33.738  95.023
12387DA     BB380526  76.779  33.916  95.056
12387DA     SC180527  76.716  33.849  95.354
12387DA     SC280528  76.518  33.783  95.491
12387DA     SC380529  76.655  33.865  95.691
12387DA     SC480530  76.817  33.906  95.466
12388DC     BB180531  76.697  33.992  94.898
12388DC     BB280532  76.359  33.888  94.970
12388DC     BB380533  76.250  34.048  95.043
12388DC     SC180534  76.370  34.034  95.276
12388DC     SC280535  76.230  33.966  95.424
12388DC     SC380536  76.518  34.103  95.483
12389DA     BB180537  76.037  33.869  94.729
12389DA     BB280538  75.809  33.909  95.013
12389DA     BB380539  75.759  34.115  95.040
12389DA     SC180540  75.994  34.173  95.235
12389DA     SC280541  76.024  34.225  95.477
12389DA     SC380542  76.253  34.317  95.408
12389DA     SC480543  76.131  34.227  95.172
12390DC     BB180544  75.572  34.160  95.009
12390DC     BB280545  75.483  34.204  95.356
12390DC     BB380546  75.472  34.406  95.401
12390DC     SC180547  75.734  34.428  95.401
12390DC     SC280548  75.803  34.463  95.602
12390DC     SC380549  75.976  34.505  95.331
12391DT     BB180550  75.205  34.380  95.417
12391DT     BB280551  75.306  34.507  95.739
12391DT     BB380552  75.320  34.713  95.733
12391DT     SC180553  75.544  34.702  95.597
12391DT     SC280554  75.706  34.769  95.722
12391DT     SC380555  75.717  34.732  95.400
12392DT     BB180556  75.101  34.719  95.886
12392DT     BB280557  75.350  34.901  96.073
12392DT     BB380558  75.356  35.098  96.010
12392DT     SC180559  75.480  35.032  95.788
12392DT     SC280560  75.682  35.105  95.795
12392DT     SC380561  75.528  34.998  95.531
12393DT     BB180562  75.241  35.171  96.243
12393DT     BB280563  75.546  35.363  96.229
12393DT     BB380564  75.514  35.538  96.122
12393DT     SC180565  75.512  35.408  95.894
12393DT     SC280566  75.688  35.458  95.782
12393DT     SC380567  75.425  35.309  95.666
12394DT     BB180568  75.525  35.684  96.352
12394DT     BB280569  75.777  35.832  96.140
12394DT     BB380570  75.691  35.977  96.019
12394DT     SC180571  75.581  35.794  95.866
12394DT     SC280572  75.677  35.795  95.674
12394DT     SC380573  75.396  35.651  95.745
12395DG     BB180574  75.971  36.189  96.230
12395DG     BB280575  76.009  36.245  95.875
12395DG     BB380576  75.877  36.381  95.813
12395DG     SC180577  75.658  36.176  95.750
12395DG     SC280578  75.553  36.109  95.479
12395DG     SC380579  75.390  35.981  95.690
12395DG     SC480580  75.556  36.133  95.866
12396DA     BB180581  76.127  36.584  95.668
12396DA     BB280582  75.976  36.541  95.336
12396DA     BB380583  75.813  36.676  95.311
12396DA     SC180584  75.600  36.477  95.420
12396DA     SC280585  75.409  36.344  95.331
12396DA     SC380586  75.329  36.334  95.574
12396DA     SC480587  75.566  36.484  95.577
12397DT     BB180588  75.812  36.847  95.166
12397DT     BB280589  75.600  36.686  94.924
12397DT     BB380590  75.415  36.780  94.918
12397DT     SC180591  75.343  36.671  95.145
12397DT     SC280592  75.188  36.527  95.110
12397DT     SC380593  75.271  36.649  95.398
12398DA     BB180594  75.568  36.752  94.531
12398DA     BB280595  75.229  36.611  94.531
12398DA     BB380596  75.084  36.767  94.545
12398DA     SC180597  75.073  36.764  94.855
12398DA     SC280598  74.911  36.698  95.034
12398DA     SC380599  75.050  36.850  95.187
12398DA     SC480600  75.171  36.864  94.934
12399DA     BB180601  75.018  36.566  94.302
12399DA     BB280602  74.706  36.500  94.484
12399DA     BB380603  74.580  36.672  94.481
12399DA     SC180604  74.695  36.791  94.745
12399DA     SC280605  74.618  36.828  94.979
12399DA     SC380606  74.808  37.000  94.993
12399DA     SC480607  74.818  36.894  94.733
12400DT     BB180608  74.478  36.582  94.418
12400DT     BB280609  74.250  36.572  94.698
12400DT     BB380610  74.140  36.747  94.705
12400DT     SC180611  74.345  36.882  94.797
12400DT     SC280612  74.309  36.937  95.001
12400DT     SC380613  74.540  37.060  94.810
12401DT     BB180614  74.000  36.539  94.672
12401DT     BB280615  73.870  36.712  94.961
12401DT     BB380616  73.785  36.892  94.903
12401DT     SC180617  74.021  37.001  94.867
12401DT     SC280618  74.055  37.150  95.018
12401DT     SC380619  74.227  37.113  94.746
12402DC     BB180620  73.594  36.747  94.989
12402DC     BB280621  73.573  37.063  95.162
12402DC     BB380622  73.509  37.211  95.032
12402DC     SC180623  73.743  37.220  94.915
12402DC     SC280624  73.840  37.407  94.962
12402DC     SC380625  73.928  37.201  94.727
12403DT     BB180626  73.265  37.212  95.151
12403DT     BB280627  73.363  37.559  95.149
12403DT     BB380628  73.312  37.646  94.968
12403DT     SC180629  73.511  37.525  94.846
12403DT     SC280630  73.659  37.670  94.790
12403DT     SC380631  73.640  37.366  94.680
12404DT     BB180632  73.079  37.792  95.052
12404DT     BB280633  73.280  38.045  94.891
12404DT     BB380634  73.228  38.060  94.691
12404DT     SC180635  73.353  37.836  94.634
12404DT     SC280636  73.527  37.880  94.516
12404DT     SC380637  73.393  37.587  94.556
12405DC     BB180638  73.074  38.305  94.699
12405DC     BB280639  73.326  38.373  94.450
12405DC     BB380640  73.253  38.327  94.262
12405DC     SC180641  73.279  38.069  94.307
12405DC     SC280642  73.437  37.991  94.184
12405DC     SC380643  73.214  37.816  94.342
12406DC     BB180644  73.218  38.594  94.178
12406DC     BB280645  73.441  38.454  93.931
12406DC     BB380646  73.332  38.377  93.773
12406DC     SC180647  73.258  38.169  93.916
12406DC     SC280648  73.355  37.992  93.839
12406DC     SC380649  73.104  37.998  94.044
12407DG     BB180650  73.589  38.654  93.625
12407DG     BB280651  73.626  38.336  93.458
12407DG     BB380652  73.479  38.311  93.326
12407DG     SC180653  73.289  38.177  93.525
12407DG     SC280654  73.198  37.892  93.516
12407DG     SC380655  73.049  38.044  93.721
12407DG     SC480656  73.192  38.268  93.613
12408DC     BB180657  73.539  38.289  93.131
12408DC     BB280658  73.484  37.937  93.075
12408DC     BB380659  73.305  37.908  92.975
12408DC     SC180660  73.167  37.958  93.193
12408DC     SC280661  73.074  37.777  93.261
12408DC     SC380662  73.001  38.078  93.359
12409DT     BB180663  73.461  37.838  92.776
12409DT     BB280664  73.244  37.556  92.829
12409DT     BB380665  73.061  37.589  92.738
12409DT     SC180666  72.989  37.758  92.925
12409DT     SC280667  72.831  37.672  93.043
12409DT     SC380668  72.918  37.984  93.041
12410DA     BB180669  73.198  37.211  92.611
12410DA     BB280670  72.846  37.177  92.707
12410DA     BB380671  72.720  37.271  92.563
12410DA     SC180672  72.720  37.546  92.708
12410DA     SC280673  72.559  37.688  92.835
12410DA     SC380674  72.719  37.882  92.782
12410DA     SC480675  72.832  37.654  92.664
12411DG     BB180676  72.578  36.992  92.493
12411DG     BB280677  72.280  37.154  92.617
12411DG     BB380678  72.193  37.258  92.471
12411DG     SC180679  72.349  37.515  92.528
12411DG     SC280680  72.233  37.771  92.630
12411DG     SC380681  72.515  37.808  92.549
12411DG     SC480682  72.490  37.538  92.456
12412DC     BB180683  71.965  37.226  92.349
12412DC     BB280684  71.775  37.494  92.498
12412DC     BB380685  71.737  37.641  92.357
12412DC     SC180686  71.985  37.726  92.368
12412DC     SC280687  71.989  37.920  92.461
12412DC     SC380688  72.231  37.785  92.293
12413DA     BB180689  71.345  37.554  92.485
12413DA     BB280690  71.384  37.918  92.502
12413DA     BB380691  71.365  38.004  92.308
12413DA     SC180692  71.669  37.987  92.244
12413DA     SC280693  71.861  38.144  92.215
12413DA     SC380694  71.973  37.950  92.089
12413DA     SC480695  71.721  37.855  92.168
12414DT     BB180696  71.198  38.135  92.248
12414DT     BB280697  71.384  38.444  92.261
12414DT     BB380698  71.413  38.518  92.070
12414DT     SC180699  71.596  38.336  92.019
12414DT     SC280700  71.788  38.432  92.005
12414DT     SC380701  71.717  38.131  91.907
12415DA     BB180702  71.247  38.830  92.293
12415DA     BB280703  71.542  38.962  92.121
12415DA     BB380704  71.500  38.991  91.913
12415DA     SC180705  71.593  38.706  91.830
12415DA     SC280706  71.782  38.603  91.703
12415DA     SC380707  71.627  38.399  91.679
12415DA     SC480708  71.482  38.590  91.825
12416DT     BB180709  71.499  39.180  91.840
12416DT     BB280710  71.813  39.162  91.663
12416DT     BB380711  71.778  39.147  91.460
12416DT     SC180712  71.705  38.896  91.483
12416DT     SC280713  71.853  38.769  91.392
12416DT     SC380714  71.553  38.680  91.476
12417DT     BB180715  71.861  39.406  91.417
12417DT     BB280716  72.073  39.209  91.201
12417DT     BB380717  71.981  39.183  91.017
12417DT     SC180718  71.813  39.007  91.117
12417DT     SC280719  71.859  38.812  91.039
12417DT     SC380720  71.586  38.896  91.192
12418DA     BB180721  72.356  39.343  90.915
12418DA     BB280722  72.304  39.047  90.705
12418DA     BB380723  72.168  39.091  90.547
12418DA     SC180724  71.916  39.006  90.708
12418DA     SC280725  71.747  38.823  90.704
12418DA     SC380726  71.599  38.982  90.840
12418DA     SC480727  71.839  39.121  90.790
12419DC     BB180728  72.222  39.100  90.325
12419DC     BB280729  72.072  38.783  90.239
12419DC     BB380730  71.906  38.813  90.120
12419DC     SC180731  71.764  38.895  90.326
12419DC     SC280732  71.614  38.748  90.372
12419DC     SC380733  71.623  39.053  90.483
12420DT     BB180734  72.029  38.723  89.884
12420DT     BB280735  71.746  38.504  89.928
12420DT     BB380736  71.581  38.581  89.828
12420DT     SC180737  71.546  38.765  90.011
12420DT     SC280738  71.367  38.722  90.122
12420DT     SC380739  71.529  39.003  90.124
12421DT     BB180740  71.607  38.380  89.650
12421DT     BB280741  71.279  38.338  89.796
12421DT     BB380742  71.140  38.450  89.692
12421DT     SC180743  71.228  38.673  89.799
12421DT     SC280744  71.079  38.750  89.934
12421DT     SC380745  71.335  38.912  89.820
12422DT     BB180746  71.067  38.209  89.640
12422DT     BB280747  70.788  38.366  89.806
12422DT     BB380748  70.686  38.488  89.674
12422DT     SC180749  70.876  38.670  89.685
12422DT     SC280750  70.802  38.844  89.788
12422DT     SC380751  71.071  38.829  89.609
12423DA     BB180752  70.447  38.233  89.912
12423DA     BB280753  70.307  38.572  89.920
12423DA     BB380754  70.233  38.626  89.727
12423DA     SC180755  70.501  38.752  89.632
12423DA     SC280756  70.590  38.979  89.581
12423DA     SC380757  70.772  38.856  89.448
12423DA     SC480758  70.604  38.657  89.554
12424DG     BB180759  69.990  38.654  89.914
12424DG     BB280760  70.011  38.998  89.804
12424DG     BB380761  69.944  39.014  89.617
12424DG     SC180762  70.218  38.964  89.489
12424DG     SC280763  70.377  39.163  89.333
12424DG     SC380764  70.498  38.893  89.315
12424DG     SC480765  70.262  38.814  89.458
12425DC     BB180766  69.772  39.134  89.579
12425DC     BB280767  69.912  39.419  89.408
12425DC     BB380768  69.884  39.400  89.204
12425DC     SC180769  70.074  39.219  89.188
12425DC     SC280770  70.242  39.302  89.083
12425DC     SC380771  70.193  38.988  89.145
12426DA     BB180772  69.722  39.778  89.292
12426DA     BB280773  69.940  39.818  89.000
12426DA     BB380774  69.846  39.739  88.826
12426DA     SC180775  69.966  39.454  88.861
12426DA     SC280776  70.134  39.310  88.747
12426DA     SC380777  70.017  39.115  88.867
12426DA     SC480778  69.879  39.347  88.943
12427DA     BB180779  69.893  40.038  88.688
12427DA     BB280780  70.103  39.873  88.436
12427DA     BB380781  69.982  39.779  88.288
12427DA     SC180782  69.968  39.507  88.438
12427DA     SC280783  70.056  39.275  88.409
12427DA     SC380784  69.869  39.205  88.570
12427DA     SC480785  69.844  39.483  88.539
12428DC     BB180786  69.974  39.846  88.083
12428DC     BB280787  70.173  39.577  87.947
12428DC     BB380788  70.053  39.450  87.836
12428DC     SC180789  69.949  39.346  88.053
12428DC     SC280790  70.017  39.143  88.076
12428DC     SC380791  69.770  39.279  88.235
12429DT     BB180792  70.164  39.541  87.604
12429DT     BB280793  70.227  39.185  87.601
12429DT     BB380794  70.067  39.086  87.515
12429DT     SC180795  69.920  39.122  87.730
12429DT     SC280796  69.889  38.933  87.828
12429DT     SC380797  69.723  39.205  87.885
12430DA     BB180798  70.426  38.961  87.340
12430DA     BB280799  70.234  38.663  87.433
12430DA     BB380800  70.065  38.640  87.304
12430DA     SC180801  69.873  38.806  87.484
12430DA     SC280802  69.675  38.764  87.630
12430DA     SC380803  69.628  39.015  87.603
12430DA     SC480804  69.860  38.963  87.454
12431DT     BB180805  70.078  38.486  87.204
12431DT     BB280806  69.824  38.296  87.376
12431DT     BB380807  69.647  38.302  87.269
12431DT     SC180808  69.601  38.550  87.346
12431DT     SC280809  69.435  38.553  87.482
12431DT     SC380810  69.564  38.810  87.333
12432DT     BB180811  69.694  38.048  87.216
12432DT     BB280812  69.367  38.052  87.368
12432DT     BB380813  69.224  38.100  87.226
12432DT     SC180814  69.296  38.352  87.227
12432DT     SC280815  69.140  38.471  87.316
12432DT     SC380816  69.389  38.584  87.142
12433DC     BB180817  69.138  37.844  87.231
12433DC     BB280818  68.842  38.038  87.300
12433DC     BB380819  68.754  38.098  87.123
12433DC     SC180820  68.940  38.280  87.083
12433DC     SC280821  68.854  38.476  87.107
12433DC     SC380822  69.141  38.409  86.972
12434DA     BB180823  68.443  37.910  87.333
12434DA     BB280824  68.313  38.229  87.209
12434DA     BB380825  68.276  38.218  86.999
12434DA     SC180826  68.560  38.316  86.918
12434DA     SC280827  68.663  38.518  86.815
12434DA     SC380828  68.861  38.364  86.761
12434DA     SC480829  68.672  38.204  86.893
12435DT     BB180830  68.074  38.223  86.907
12435DT     BB280831  68.096  38.558  86.775
12435DT     BB380832  68.112  38.552  86.569
12435DT     SC180833  68.362  38.474  86.582
12435DT     SC280834  68.490  38.632  86.513
12435DT     SC380835  68.577  38.323  86.556
12436DA     BB180836  67.783  38.806  86.630
12436DA     BB280837  68.009  38.976  86.397
12436DA     BB380838  67.991  38.891  86.202
12436DA     SC180839  68.216  38.680  86.247
12436DA     SC280840  68.448  38.637  86.166
12436DA     SC380841  68.409  38.396  86.245
12436DA     SC480842  68.172  38.536  86.301
12437DA     BB180843  67.930  39.201  86.105
12437DA     BB280844  68.235  39.181  85.903
12437DA     BB380845  68.198  39.073  85.723
12437DA     SC180846  68.274  38.797  85.844
12437DA     SC280847  68.458  38.630  85.820
12437DA     SC380848  68.292  38.463  85.923
12437DA     SC480849  68.156  38.709  85.908
12438DT     BB180850  68.208  39.171  85.540
12438DT     BB280851  68.526  39.034  85.439
12438DT     BB380852  68.498  38.894  85.289
12438DT     SC180853  68.406  38.718  85.460
12438DT     SC280854  68.549  38.558  85.481
12438DT     SC380855  68.240  38.552  85.580
12439DA     BB180856  68.791  39.169  85.170
12439DA     BB280857  68.923  38.831  85.117
12439DA     BB380858  68.827  38.739  84.950
12439DA     SC180859  68.601  38.611  85.121
12439DA     SC280860  68.531  38.383  85.194
12439DA     SC380861  68.301  38.488  85.235
12439DA     SC480862  68.464  38.694  85.139
12440DA     BB180863  69.144  38.706  84.884
12440DA     BB280864  69.082  38.344  84.888
12440DA     BB380865  68.972  38.286  84.715
12440DA     SC180866  68.694  38.323  84.849
12440DA     SC280867  68.506  38.178  84.928
12440DA     SC380868  68.364  38.391  84.915
12440DA     SC480869  68.622  38.466  84.833
12441DA     BB180870  69.227  38.082  84.708
12441DA     BB280871  68.982  37.810  84.726
12441DA     BB380872  68.878  37.791  84.541
12441DA     SC180873  68.650  37.986  84.621
12441DA     SC280874  68.406  37.974  84.674
12441DA     SC380875  68.402  38.224  84.620
12441DA     SC480876  68.667  38.141  84.581
12442DG     BB180877  69.005  37.512  84.578
12442DG     BB280878  68.658  37.413  84.591
12442DG     BB380879  68.580  37.415  84.408
12442DG     SC180880  68.490  37.708  84.423
12442DG     SC280881  68.207  37.804  84.426
12442DG     SC380882  68.395  38.030  84.397
12442DG     SC480883  68.591  37.823  84.378
12443DA     BB180884  68.477  37.096  84.494
12443DA     BB280885  68.129  37.198  84.436
12443DA     BB380886  68.092  37.220  84.227
12443DA     SC180887  68.169  37.522  84.221
12443DA     SC280888  68.053  37.741  84.191
12443DA     SC380889  68.286  37.832  84.133
12443DA     SC480890  68.321  37.559  84.187
12444DT     BB180891  67.967  37.096  84.155
12444DT     BB280892  67.693  37.327  84.114
12444DT     BB380893  67.680  37.387  83.916
12444DT     SC180894  67.890  37.543  83.941
12444DT     SC280895  67.827  37.748  83.931
12444DT     SC380896  68.132  37.641  83.905
12445DT     BB180897  67.459  37.242  83.906
12445DT     BB280898  67.359  37.575  83.811
12445DT     BB380899  67.399  37.607  83.610
12445DT     SC180900  67.656  37.630  83.658
12445DT     SC280901  67.716  37.834  83.626
12445DT     SC380902  67.915  37.580  83.653
12446DT     BB180903  67.138  37.601  83.579
12446DT     BB280904  67.243  37.921  83.448
12446DT     BB380905  67.313  37.898  83.255
12446DT     SC180906  67.536  37.789  83.339
12446DT     SC280907  67.699  37.925  83.304
12446DT     SC380908  67.725  37.610  83.378
12447DG     BB180909  67.012  38.174  83.259
12447DG     BB280910  67.308  38.301  83.095
12447DG     BB380911  67.326  38.219  82.914
12447DG     SC180912  67.491  37.980  83.012
12447DG     SC280913  67.776  37.925  82.945
12447DG     SC380914  67.655  37.695  83.086
12447DG     SC480915  67.414  37.848  83.061
12448DA     BB180916  67.360  38.547  82.802
12448DA     BB280917  67.688  38.462  82.662
12448DA     BB380918  67.665  38.343  82.486
12448DA     SC180919  67.674  38.073  82.639
12448DA     SC280920  67.830  37.879  82.662
12448DA     SC380921  67.624  37.750  82.745
12448DA     SC480922  67.534  38.009  82.687
12449DA     BB180923  67.853  38.579  82.349
12449DA     BB280924  68.098  38.315  82.277
12449DA     BB380925  68.031  38.195  82.113
12449DA     SC180926  67.881  37.990  82.292
12449DA     SC280927  67.906  37.752  82.362
12449DA     SC380928  67.657  37.764  82.420
12449DA     SC480929  67.725  38.017  82.321
12450DA     BB180930  68.324  38.268  81.970
12450DA     BB280931  68.398  37.909  81.978
12450DA     BB380932  68.294  37.808  81.820
12450DA     SC180933  68.042  37.748  81.992
12450DA     SC280934  67.931  37.549  82.094
12450DA     SC380935  67.721  37.696  82.103
12450DA     SC480936  67.922  37.854  81.988
12451DT     BB180937  68.391  37.711  81.641
12451DT     BB280938  68.349  37.372  81.756
12451DT     BB380939  68.208  37.275  81.640
12451DT     SC180940  68.012  37.405  81.757
12451DT     SC280941  67.899  37.268  81.879
12451DT     SC380942  67.805  37.565  81.790
12452DT     BB180943  68.386  37.109  81.485
12452DT     BB280944  68.166  36.872  81.644
12452DT     BB380945  68.008  36.826  81.518
12452DT     SC180946  67.894  37.058  81.565
12452DT     SC280947  67.715  37.027  81.680
12452DT     SC380948  67.796  37.299  81.523
12453DT     BB180949  68.104  36.570  81.460
12453DT     BB280950  67.777  36.512  81.603
12453DT     BB380951  67.635  36.508  81.453
12453DT     SC180952  67.645  36.769  81.425
12453DT     SC280953  67.462  36.856  81.496
12453DT     SC380954  67.685  37.005  81.314
12454DG     BB180955  67.620  36.162  81.664
12454DG     BB280956  67.297  36.323  81.650
12454DG     BB380957  67.212  36.290  81.473
12454DG     SC180958  67.334  36.539  81.342
12454DG     SC280959  67.183  36.779  81.248
12454DG     SC380960  67.465  36.791  81.161
12454DG     SC480961  67.477  36.528  81.273
12455DA     BB180962  66.954  36.202  81.679
12455DA     BB280963  66.744  36.456  81.518
12455DA     BB380964  66.690  36.393  81.321
12455DA     SC180965  66.936  36.528  81.185
12455DA     SC280966  66.980  36.721  81.034
12455DA     SC380967  67.202  36.602  80.982
12455DA     SC480968  67.068  36.438  81.165
12456DT     BB180969  66.509  36.367  81.307
12456DT     BB280970  66.433  36.656  81.105
12456DT     BB380971  66.416  36.601  80.907
12456DT     SC180972  66.676  36.576  80.883
12456DT     SC280973  66.753  36.732  80.757
12456DT     SC380974  66.912  36.464  80.845
12457DT     BB180975  66.152  36.643  80.929
12457DT     BB280976  66.252  36.848  80.650
12457DT     BB380977  66.254  36.736  80.476
12457DT     SC180978  66.476  36.616  80.547
12457DT     SC280979  66.636  36.681  80.419
12457DT     SC380980  66.643  36.424  80.617
12458DA     BB180981  66.016  37.070  80.386
12458DA     BB280982  66.251  37.025  80.108
12458DA     BB380983  66.192  36.859  79.988
12458DA     SC180984  66.361  36.652  80.148
12458DA     SC280985  66.565  36.513  80.112
12458DA     SC380986  66.476  36.370  80.306
12458DA     SC480987  66.289  36.575  80.269
12459DA     BB180988  66.193  37.066  79.725
12459DA     BB280989  66.450  36.854  79.573
12459DA     BB380990  66.361  36.681  79.485
12459DA     SC180991  66.388  36.508  79.742
12459DA     SC280992  66.521  36.312  79.820
12459DA     SC380993  66.338  36.283  79.997
12459DA     SC480994  66.264  36.506  79.844
12460DC     BB180995  66.344  36.631  79.257
12460DC     BB280996  66.599  36.375  79.253
12460DC     BB380997  66.512  36.190  79.218
12460DC     SC180998  66.417  36.179  79.462
12460DC     SC280999  66.522  36.027  79.573
12460DC     SC381000  66.245  36.170  79.661
12461DT     BB181001  66.595  36.159  78.944
12461DT     BB281002  66.726  35.864  79.104
12461DT     BB381003  66.591  35.708  79.087
12461DT     SC181004  66.433  35.813  79.268
12461DT     SC281005  66.438  35.692  79.446
12461DT     SC381006  66.220  35.922  79.379
12462DC     BB181007  66.748  35.577  78.902
12462DC     BB281008  66.710  35.341  79.172
12462DC     BB381009  66.540  35.226  79.141
12462DC     SC181010  66.384  35.425  79.211
12462DC     SC281011  66.291  35.381  79.400
12462DC     SC381012  66.201  35.615  79.194
12463DT     BB181013  66.693  35.008  79.080
12463DT     BB281014  66.492  34.902  79.360
12463DT     BB381015  66.311  34.826  79.293
12463DT     SC181016  66.221  35.067  79.239
12463DT     SC281017  66.064  35.117  79.378
12463DT     SC381018  66.131  35.273  79.101
12464DT     BB181019  66.399  34.584  79.366
12464DT     BB281020  66.096  34.635  79.555
12464DT     BB381021  65.931  34.579  79.442
12464DT     SC181022  65.950  34.796  79.294
12464DT     SC281023  65.784  34.926  79.337
12464DT     SC381024  65.984  34.950  79.083
12465DA     BB181025  65.918  34.404  79.822
12465DA     BB281026  65.594  34.562  79.756
12465DA     BB381027  65.487  34.452  79.608
12465DA     SC181028  65.601  34.614  79.368
12465DA     SC281029  65.519  34.779  79.201
12465DA     SC381030  65.725  34.712  79.063
12465DA     SC481031  65.734  34.558  79.297
12466DT     BB181032  65.335  34.383  79.679
12466DT     BB281033  65.104  34.608  79.518
12466DT     BB381034  65.021  34.517  79.352
12466DT     SC181035  65.243  34.549  79.215
12466DT     SC281036  65.212  34.694  79.060
12466DT     SC381037  65.462  34.489  79.081
12467DG     BB181038  64.740  34.656  79.611
12467DG     BB281039  64.683  34.773  79.273
12467DG     BB381040  64.614  34.624  79.161
12467DG     SC181041  64.892  34.528  79.074
12467DG     SC281042  65.003  34.541  78.797
12467DG     SC381043  65.180  34.384  78.974
12467DG     SC481044  64.969  34.421  79.164
12468DA     BB181045  64.384  34.869  79.083
12468DA     BB281046  64.469  34.828  78.728
12468DA     BB381047  64.398  34.640  78.656
12468DA     SC181048  64.660  34.487  78.724
12468DA     SC281049  64.849  34.381  78.601
12468DA     SC381050  64.891  34.251  78.818
12468DA     SC481051  64.669  34.415  78.868
12469DC     BB181052  64.267  34.660  78.528
12469DC     BB281053  64.458  34.551  78.242
12469DC     BB381054  64.417  34.353  78.201
12469DC     SC181055  64.561  34.273  78.406
12469DC     SC281056  64.738  34.174  78.335
12469DC     SC381057  64.623  34.163  78.637
12470DT     BB181058  64.277  34.428  77.983
12470DT     BB281059  64.516  34.189  77.856
12470DT     BB381060  64.442  33.997  77.878
12470DT     SC181061  64.489  34.001  78.137
12470DT     SC281062  64.650  33.865  78.182
12470DT     SC381063  64.446  33.996  78.397
12471DA     BB181064  64.527  34.004  77.465
12471DA     BB281065  64.664  33.690  77.596
12471DA     BB381066  64.508  33.549  77.629
12471DA     SC181067  64.458  33.637  77.924
12471DA     SC281068  64.492  33.543  78.152
12471DA     SC381069  64.317  33.715  78.227
12471DA     SC481070  64.347  33.749  77.950
12472DT     BB181071  64.459  33.346  77.511
12472DT     BB281072  64.572  33.119  77.767
12472DT     BB381073  64.411  33.016  77.846
12472DT     SC181074  64.332  33.227  77.981
12472DT     SC281075  64.362  33.193  78.191
12472DT     SC381076  64.181  33.428  78.060
12473DA     BB181077  64.651  32.689  77.728
12473DA     BB281078  64.553  32.625  78.075
12473DA     BB381079  64.353  32.549  78.083
12473DA     SC181080  64.222  32.830  78.110
12473DA     SC281081  64.101  32.961  78.284
12473DA     SC381082  64.012  33.101  78.088
12473DA     SC481083  64.176  32.904  77.974
12474DA     BB181084  64.471  32.286  78.250
12474DA     BB281085  64.265  32.389  78.534
12474DA     BB381086  64.063  32.324  78.508
12474DA     SC181087  63.972  32.583  78.362
12474DA     SC281088  63.825  32.779  78.409
12474DA     SC381089  63.820  32.810  78.154
12474DA     SC481090  63.980  32.585  78.202
12475DA     BB181091  64.098  32.178  78.803
12475DA     BB281092  63.831  32.397  78.926
12475DA     BB381093  63.640  32.322  78.869
12475DA     SC181094  63.631  32.480  78.601
12475DA     SC281095  63.503  32.671  78.504
12475DA     SC381096  63.579  32.580  78.277
12475DA     SC481097  63.687  32.407  78.470
12476DC     BB181098  63.497  32.246  79.013
12476DC     BB281099  63.275  32.531  79.002
12476DC     BB381100  63.099  32.480  78.907
12476DC     SC181101  63.216  32.483  78.672
12476DC     SC281102  63.143  32.651  78.558
12476DC     SC381103  63.311  32.399  78.440
12477DT     BB181104  62.950  32.477  79.143
12477DT     BB281105  62.779  32.716  78.934
12477DT     BB381106  62.634  32.621  78.822
12477DT     SC181107  62.814  32.517  78.662
12477DT     SC281108  62.800  32.609  78.468
12477DT     SC381109  62.961  32.337  78.538
12478DA     BB181110  62.435  32.935  79.016
12478DA     BB281111  62.351  32.955  78.659
12478DA     BB381112  62.209  32.804  78.608
12478DA     SC181113  62.423  32.592  78.533
12478DA     SC281114  62.507  32.479  78.328
12478DA     SC381115  62.598  32.300  78.487
12478DA     SC481116  62.471  32.490  78.649
12479DA     BB181117  62.049  33.066  78.496
12479DA     BB281118  62.075  32.915  78.163
12479DA     BB381119  61.932  32.758  78.142
12479DA     SC181120  62.124  32.535  78.244
12479DA     SC281121  62.245  32.339  78.151
12479DA     SC381122  62.259  32.257  78.394
12479DA     SC481123  62.121  32.501  78.401
12480DT     BB181124  61.799  32.792  78.009
12480DT     BB281125  61.934  32.569  77.759
12480DT     BB381126  61.821  32.396  77.752
12480DT     SC181127  61.927  32.309  77.976
12480DT     SC281128  62.054  32.141  77.934
12480DT     SC381129  61.946  32.229  78.226
12481DT     BB181130  61.751  32.492  77.518
12481DT     BB281131  61.901  32.171  77.450
12481DT     BB381132  61.762  32.020  77.479
12481DT     SC181133  61.781  32.043  77.740
12481DT     SC281134  61.877  31.868  77.820
12481DT     SC381135  61.713  32.090  77.991
12482DC     BB181136  61.813  32.016  77.229
12482DC     BB281137  61.893  31.688  77.355
12482DC     BB381138  61.719  31.582  77.393
12482DC     SC181139  61.672  31.722  77.610
12482DC     SC281140  61.699  31.597  77.783
12482DC     SC381141  61.553  31.886  77.778
12483DC     BB181142  61.819  31.451  77.195
12483DC     BB281143  61.772  31.211  77.461
12483DC     BB381144  61.572  31.160  77.476
12483DC     SC181145  61.514  31.390  77.589
12483DC     SC281146  61.462  31.357  77.795
12483DC     SC381147  61.408  31.628  77.627
12484DA     BB181148  61.813  30.814  77.467
12484DA     BB281149  61.564  30.776  77.733
12484DA     BB381150  61.369  30.754  77.649
12484DA     SC181151  61.307  31.059  77.652
12484DA     SC281152  61.157  31.216  77.775
12484DA     SC381153  61.195  31.375  77.577
12484DA     SC481154  61.342  31.143  77.519
12485DA     BB181155  61.367  30.483  77.840
12485DA     BB281156  61.069  30.621  78.003
12485DA     BB381157  60.900  30.606  77.874
12485DA     SC181158  60.944  30.885  77.744
12485DA     SC281159  60.832  31.108  77.743
12485DA     SC381160  60.961  31.150  77.526
12485DA     SC481161  61.031  30.891  77.609
12486DT     BB181162  60.732  30.475  77.912
12486DT     BB281163  60.493  30.730  78.001
12486DT     BB381164  60.355  30.754  77.848
12486DT     SC181165  60.530  30.882  77.700
12486DT     SC281166  60.473  31.089  77.685
12486DT     SC381167  60.692  30.938  77.500
12487DT     BB181168  60.136  30.619  77.972
12487DT     BB281169  59.999  30.943  77.890
12487DT     BB381170  59.911  30.937  77.703
12487DT     SC181171  60.145  30.937  77.584
12487DT     SC281172  60.174  31.124  77.484
12487DT     SC381173  60.350  30.856  77.439
12488DA     BB181174  59.591  31.078  77.938
12488DA     BB281175  59.621  31.304  77.651
12488DA     BB381176  59.537  31.215  77.477
12488DA     SC181177  59.803  31.083  77.386
12488DA     SC281178  59.969  31.110  77.202
12488DA     SC381179  60.041  30.870  77.258
12488DA     SC481180  59.832  30.932  77.435
12489DA     BB181181  59.343  31.484  77.452
12489DA     BB281182  59.512  31.556  77.134
12489DA     BB381183  59.427  31.439  76.977
12489DA     SC181184  59.626  31.202  77.015
12489DA     SC281185  59.816  31.099  76.891
12489DA     SC381186  59.772  30.892  77.035
12489DA     SC481187  59.581  31.083  77.113
12490DA     BB181188  59.387  31.731  76.835
12490DA     BB281189  59.619  31.615  76.575
12490DA     BB381190  59.518  31.485  76.439
12490DA     SC181191  59.587  31.226  76.599
12490DA     SC281192  59.731  31.025  76.571
12490DA     SC381193  59.579  30.917  76.747
12490DA     SC481194  59.480  31.176  76.708
12491DA     BB181195  59.645  31.702  76.233
12491DA     BB281196  59.838  31.424  76.092
12491DA     BB381197  59.712  31.301  75.972
12491DA     SC181198  59.633  31.111  76.206
12491DA     SC281199  59.675  30.876  76.275
12491DA     SC381200  59.465  30.902  76.420
12491DA     SC481201  59.499  31.147  76.288
12492DT     BB181202  59.762  31.301  75.790
12492DT     BB281203  59.911  30.973  75.785
12492DT     BB381204  59.780  30.837  75.701
12492DT     SC181205  59.631  30.835  75.917
12492DT     SC281206  59.651  30.644  76.015
12492DT     SC381207  59.423  30.866  76.076
12493DA     BB181208  60.155  30.803  75.517
12493DA     BB281209  60.042  30.467  75.609
12493DA     BB381210  59.881  30.405  75.483
12493DA     SC181211  59.659  30.518  75.669
12493DA     SC281212  59.480  30.429  75.818
12493DA     SC381213  59.374  30.661  75.795
12493DA     SC481214  59.608  30.668  75.642
12494DG     BB181215  60.075  30.174  75.406
12494DG     BB281216  59.820  29.968  75.558
12494DG     BB381217  59.673  29.935  75.427
12494DG     SC181218  59.512  30.182  75.507
12494DG     SC281219  59.245  30.181  75.641
12494DG     SC381220  59.319  30.455  75.556
12494DG     SC481221  59.541  30.321  75.434
12495DT     BB181222  59.619  29.726  75.347
12495DT     BB281223  59.315  29.659  75.529
12495DT     BB381224  59.152  29.677  75.403
12495DT     SC181225  59.169  29.939  75.405
12495DT     SC281226  59.002  30.021  75.513
12495DT     SC381227  59.203  30.186  75.319
12496DA     BB181228  59.116  29.300  75.582
12496DA     BB281229  58.795  29.473  75.621
12496DA     BB381230  58.688  29.475  75.437
12496DA     SC181231  58.809  29.745  75.342
12496DA     SC281232  58.731  29.979  75.305
12496DA     SC381233  58.938  30.004  75.155
12496DA     SC481234  58.942  29.740  75.252
12497DT     BB181235  58.518  29.373  75.431
12497DT     BB281236  58.301  29.660  75.447
12497DT     BB381237  58.217  29.696  75.262
12497DT     SC181238  58.442  29.794  75.170
12497DT     SC281239  58.421  30.006  75.139
12497DT     SC381240  58.661  29.820  75.024
12498DC     BB181241  58.005  29.623  75.391
12498DC     BB281242  57.940  29.959  75.277
12498DC     BB381243  57.882  29.956  75.078
12498DC     SC181244  58.128  29.910  74.999
12498DC     SC281245  58.204  30.084  74.898
12498DC     SC381246  58.335  29.787  74.891
12499DC     BB181247  57.693  30.042  75.220
12499DC     BB281248  57.769  30.300  74.980
12499DC     BB381249  57.707  30.242  74.792
12499DC     SC181250  57.908  30.074  74.769
12499DC     SC281251  58.045  30.147  74.620
12499DC     SC381252  58.040  29.847  74.743
12500DG     BB181253  57.628  30.622  74.944
12500DG     BB281254  57.750  30.627  74.604
12500DG     BB381255  57.619  30.537  74.484
12500DG     SC181256  57.742  30.259  74.516
12500DG     SC281257  57.880  30.102  74.302
12500DG     SC381258  57.839  29.937  74.544
12500DG     SC481259  57.692  30.165  74.636
12501DC     BB181260  57.579  30.665  74.360
12501DC     BB281261  57.689  30.527  74.046
12501DC     BB381262  57.546  30.398  73.971
12501DC     SC181263  57.610  30.213  74.145
12501DC     SC281264  57.705  30.049  74.044
12501DC     SC381265  57.589  30.044  74.346
12502DA     BB181266  57.619  30.664  73.650
12502DA     BB281267  57.588  30.326  73.511
12502DA     BB381268  57.386  30.259  73.522
12502DA     SC181269  57.419  30.128  73.802
12502DA     SC281270  57.423  29.898  73.898
12502DA     SC381271  57.369  30.013  74.122
12502DA     SC481272  57.384  30.218  73.930
12503DT     BB181273  57.225  30.229  73.349
12503DT     BB281274  57.209  29.869  73.356
12503DT     BB381275  57.027  29.807  73.433
12503DT     SC181276  57.099  29.872  73.677
12503DT     SC281277  57.124  29.693  73.793
12503DT     SC381278  57.102  29.994  73.911
12504DT     BB181279  56.874  29.728  73.189
12504DT     BB281280  56.844  29.435  73.398
12504DT     BB381281  56.667  29.443  73.506
12504DT     SC181282  56.765  29.625  73.668
12504DT     SC281283  56.794  29.539  73.863
12504DT     SC381284  56.795  29.855  73.793
12505DA     BB181285  56.597  29.070  73.315
12505DA     BB281286  56.534  29.016  73.672
12505DA     BB381287  56.340  29.088  73.725
12505DA     SC181288  56.438  29.374  73.797
12505DA     SC281289  56.466  29.514  74.002
12505DA     SC381290  56.466  29.713  73.841
12505DA     SC481291  56.435  29.485  73.681
12506DC     BB181292  56.146  28.962  73.793
12506DC     BB281293  56.173  29.043  74.143
12506DC     BB381294  56.014  29.161  74.201
12506DC     SC181295  56.116  29.371  74.081
12506DC     SC281296  56.180  29.514  74.228
12506DC     SC381297  56.142  29.572  73.911
12507DA     BB181298  55.993  28.843  74.475
12507DA     BB281299  55.992  29.153  74.669
12507DA     BB381300  55.799  29.244  74.663
12507DA     SC181301  55.861  29.416  74.411
12507DA     SC281302  55.896  29.657  74.356
12507DA     SC381303  55.843  29.588  74.114
12507DA     SC481304  55.824  29.354  74.268
12508DG     BB181305  55.788  29.209  74.975
12508DG     BB281306  55.806  29.570  74.970
12508DG     BB381307  55.624  29.647  74.953
12508DG     SC181308  55.628  29.650  74.647
12508DG     SC281309  55.629  29.894  74.474
12508DG     SC381310  55.589  29.649  74.312
12508DG     SC481311  55.577  29.521  74.567
12509DG     BB181312  55.675  29.804  75.234
12509DG     BB281313  55.662  30.106  75.036
12509DG     BB381314  55.473  30.164  75.013
12509DG     SC181315  55.428  30.003  74.757
12509DG     SC281316  55.380  30.116  74.485
12509DG     SC381317  55.337  29.823  74.487
12509DG     SC481318  55.377  29.851  74.769
12510DG     BB181319  55.594  30.429  75.144
12510DG     BB281320  55.518  30.582  74.825
12510DG     BB381321  55.324  30.626  74.815
12510DG     SC181322  55.243  30.356  74.697
12510DG     SC281323  55.134  30.310  74.423
12510DG     SC381324  55.115  30.064  74.587
12510DG     SC481325  55.207  30.235  74.797
12511DT     BB181326  55.321  30.807  74.782
12511DT     BB281327  55.223  30.816  74.434
12511DT     BB381328  55.018  30.831  74.419
12511DT     SC181329  54.986  30.579  74.486
12511DT     SC281330  54.917  30.468  74.316
12511DT     SC381331  54.913  30.366  74.623
12512DT     BB181332  55.138  31.030  74.319
12512DT     BB281333  54.940  30.882  74.056
12512DT     BB381334  54.739  30.909  74.095
12512DT     SC181335  54.742  30.724  74.282
12512DT     SC281336  54.631  30.553  74.216
12512DT     SC381337  54.725  30.612  74.520
12513DA     BB181338  54.877  30.977  73.696
12513DA     BB281339  54.566  30.783  73.689
12513DA     BB381340  54.405  30.898  73.770
12513DA     SC181341  54.447  30.796  74.061
12513DA     SC281342  54.329  30.650  74.224
12513DA     SC381343  54.469  30.770  74.402
12513DA     SC481344  54.543  30.883  74.157
12514DC     BB181345  54.286  30.929  73.642
12514DC     BB281346  54.019  30.721  73.768
12514DC     BB381347  53.890  30.835  73.883
12514DC     SC181348  54.061  30.844  74.082
12514DC     SC281349  53.987  30.726  74.246
12514DC     SC381350  54.229  30.941  74.260
12515DA     BB181351  53.645  30.639  73.602
12515DA     BB281352  53.488  30.603  73.931
12515DA     BB381353  53.404  30.789  73.994
12515DA     SC181354  53.661  30.884  74.140
12515DA     SC281355  53.737  30.922  74.375
12515DA     SC381356  53.919  31.070  74.271
12515DA     SC481357  53.766  30.973  74.056
12516DA     BB181358  53.112  30.629  74.030
12516DA     BB281359  53.124  30.717  74.386
12516DA     BB381360  53.064  30.920  74.414
12516DA     SC181361  53.352  31.035  74.389
12516DA     SC281362  53.522  31.141  74.537
12516DA     SC381363  53.626  31.230  74.319
12516DA     SC481364  53.401  31.082  74.243
12517DT     BB181365  52.882  30.976  74.517
12517DT     BB281366  53.040  31.085  74.822
12517DT     BB381367  53.030  31.291  74.837
12517DT     SC181368  53.218  31.321  74.656
12517DT     SC281369  53.396  31.396  74.749
12517DT     SC381370  53.336  31.391  74.431
12518DA     BB181371  52.882  31.130  75.194
12518DA     BB281372  53.135  31.381  75.279
12518DA     BB381373  53.058  31.578  75.245
12518DA     SC181374  53.160  31.593  74.952
12518DA     SC281375  53.334  31.717  74.823
12518DA     SC381376  53.195  31.656  74.616
12518DA     SC481377  53.059  31.546  74.836
12519DC     BB181378  53.046  31.673  75.402
12519DC     BB281379  53.328  31.890  75.344
12519DC     BB381380  53.263  32.074  75.275
12519DC     SC181381  53.211  31.974  75.037
12519DC     SC281382  53.352  32.053  74.895
12519DC     SC381383  53.076  31.899  74.824
12520DT     BB181384  53.348  32.149  75.508
12520DT     BB281385  53.529  32.350  75.269
12520DT     BB381386  53.410  32.505  75.203
12520DT     SC181387  53.269  32.343  75.053
12520DT     SC281388  53.309  32.383  74.845
12520DT     SC381389  53.062  32.207  74.960
12521DT     BB181390  53.572  32.659  75.342
12521DT     BB281391  53.577  32.797  75.009
12521DT     BB381392  53.412  32.919  74.981
12521DT     SC181393  53.253  32.712  74.960
12521DT     SC281394  53.183  32.695  74.757
12521DT     SC381395  53.058  32.542  75.013
12522DT     BB181396  53.570  33.139  74.992
12522DT     BB281397  53.393  33.173  74.680
12522DT     BB381398  53.209  33.263  74.712
12522DT     SC181399  53.111  33.044  74.816
12522DT     SC281400  52.964  32.961  74.682
12522DT     SC381401  53.006  32.877  74.992
12523DA     BB181402  53.382  33.507  74.416
12523DA     BB281403  53.040  33.430  74.307
12523DA     BB381404  52.899  33.545  74.418
12523DA     SC181405  52.864  33.331  74.642
12523DA     SC281406  52.687  33.174  74.720
12523DA     SC381407  52.818  33.169  74.941
12523DA     SC481408  52.958  33.343  74.771
12524DA     BB181409  52.786  33.650  74.124
12524DA     BB281410  52.465  33.495  74.209
12524DA     BB381411  52.356  33.620  74.344
12524DA     SC181412  52.473  33.488  74.600
12524DA     SC281413  52.394  33.343  74.786
12524DA     SC381414  52.599  33.429  74.914
12524DA     SC481415  52.605  33.555  74.664
12525DT     BB181416  52.176  33.714  74.285
12525DT     BB281417  51.954  33.497  74.471
12525DT     BB381418  51.877  33.598  74.634
12525DT     SC181419  52.104  33.580  74.763
12525DT     SC281420  52.082  33.444  74.929
12525DT     SC381421  52.327  33.651  74.884
12526DG     BB181422  51.558  33.474  74.411
12526DG     BB281423  51.528  33.369  74.756
12526DG     BB381424  51.467  33.521  74.869
12526DG     SC181425  51.750  33.619  74.931
12526DG     SC281426  51.882  33.615  75.199
12526DG     SC381427  52.045  33.766  75.004
12526DG     SC481428  51.820  33.724  74.832
12527DG     BB181429  51.207  33.342  74.960
12527DG     BB281430  51.338  33.364  75.296
12527DG     BB381431  51.285  33.537  75.379
12527DG     SC181432  51.531  33.689  75.280
12527DG     SC281433  51.749  33.800  75.452
12527DG     SC381434  51.778  33.892  75.172
12527DG     SC481435  51.526  33.760  75.136
12528DT     BB181436  51.152  33.548  75.561
12528DT     BB281437  51.389  33.639  75.817
12528DT     BB381438  51.369  33.839  75.865
12528DT     SC181439  51.487  33.912  75.642
12528DT     SC281440  51.679  33.997  75.688
12528DT     SC381441  51.523  34.022  75.405
12529DA     BB181442  51.337  33.643  76.236
12529DA     BB281443  51.580  33.915  76.276
12529DA     BB381444  51.480  34.103  76.286
12529DA     SC181445  51.492  34.154  75.980
12529DA     SC281446  51.609  34.307  75.822
12529DA     SC381447  51.422  34.247  75.657
12529DA     SC481448  51.366  34.105  75.892
12530DG     BB181449  51.592  34.150  76.582
12530DG     BB281450  51.773  34.422  76.424
12530DG     BB381451  51.661  34.586  76.424
12530DG     SC181452  51.531  34.526  76.153
12530DG     SC281453  51.569  34.682  75.902
12530DG     SC381454  51.353  34.482  75.870
12530DG     SC481455  51.397  34.439  76.150
12531DA     BB181456  51.915  34.770  76.581
12531DA     BB281457  51.942  34.988  76.287
12531DA     BB381458  51.792  35.139  76.293
12531DA     SC181459  51.583  34.971  76.134
12531DA     SC281460  51.476  34.975  75.909
12531DA     SC381461  51.295  34.827  76.015
12531DA     SC481462  51.480  34.881  76.218
12532DA     BB181463  52.051  35.334  76.262
12532DA     BB281464  51.912  35.436  75.938
12532DA     BB381465  51.754  35.577  75.966
12532DA     SC181466  51.531  35.360  75.981
12532DA     SC281467  51.339  35.283  75.841
12532DA     SC381468  51.249  35.179  76.058
12532DA     SC481469  51.491  35.304  76.126
12533DC     BB181470  51.792  35.749  75.894
12533DC     BB281471  51.579  35.720  75.604
12533DC     BB381472  51.405  35.828  75.633
12533DC     SC181473  51.311  35.646  75.798
12533DC     SC281474  51.145  35.545  75.705
12533DC     SC381475  51.223  35.534  76.020
12534DA     BB181476  51.585  35.908  75.263
12534DA     BB281477  51.228  35.842  75.208
12534DA     BB381478  51.110  36.002  75.285
12534DA     SC181479  51.078  35.875  75.567
12534DA     SC281480  50.896  35.772  75.703
12534DA     SC381481  51.047  35.822  75.905
12534DA     SC481482  51.185  35.915  75.679
12535DA     BB181483  51.007  35.958  74.978
12535DA     BB281484  50.675  35.900  75.124
12535DA     BB381485  50.596  36.082  75.204
12535DA     SC181486  50.716  36.039  75.487
12535DA     SC281487  50.633  35.988  75.717
12535DA     SC381488  50.858  36.082  75.797
12535DA     SC481489  50.861  36.102  75.517
12536DT     BB181490  50.440  36.149  75.114
12536DT     BB281491  50.199  36.078  75.373
12536DT     BB381492  50.154  36.250  75.477
12536DT     SC181493  50.385  36.243  75.603
12536DT     SC281494  50.352  36.197  75.810
12536DT     SC381495  50.626  36.314  75.683
12537DT     BB181496  49.906  36.269  75.360
12537DT     BB281497  49.835  36.278  75.713
12537DT     BB381498  49.843  36.473  75.782
12537DT     SC181499  50.106  36.474  75.772
12537DT     SC281500  50.185  36.477  75.972
12537DT     SC381501  50.351  36.539  75.700
12538DA     BB181502  49.460  36.351  75.907
12538DA     BB281503  49.622  36.509  76.196
12538DA     BB381504  49.619  36.721  76.175
12538DA     SC181505  49.894  36.735  76.030
12538DA     SC281506  50.125  36.815  76.079
12538DA     SC381507  50.156  36.817  75.824
12538DA     SC481508  49.893  36.730  75.869
12539DG     BB181509  49.440  36.756  76.439
12539DG     BB281510  49.732  36.925  76.569
12539DG     BB381511  49.724  37.118  76.525
12539DG     SC181512  49.870  37.088  76.257
12539DG     SC281513  50.141  37.196  76.192
12539DG     SC381514  50.009  37.088  75.950
12539DG     SC481515  49.785  37.057  76.125
12540DG     BB181516  49.728  37.221  76.844
12540DG     BB281517  50.047  37.376  76.770
12540DG     BB381518  50.018  37.561  76.702
12540DG     SC181519  49.998  37.477  76.409
12540DG     SC281520  50.193  37.546  76.193
12540DG     SC381521  49.951  37.419  76.080
12540DG     SC481522  49.855  37.437  76.349
12541DG     BB181523  50.199  37.687  76.948
12541DG     BB281524  50.430  37.798  76.693
12541DG     BB381525  50.374  37.976  76.623
12541DG     SC181526  50.196  37.860  76.402
12541DG     SC281527  50.244  37.882  76.109
12541DG     SC381528  49.977  37.769  76.163
12541DG     SC481529  50.042  37.828  76.435
12542DG     BB181530  50.667  38.083  76.713
12542DG     BB281531  50.724  38.147  76.361
12542DG     BB381532  50.644  38.322  76.310
12542DG     SC181533  50.371  38.203  76.237
12542DG     SC281534  50.253  38.193  75.964
12542DG     SC381535  50.055  38.111  76.168
12542DG     SC481536  50.260  38.189  76.351
12543DC     BB181537  50.774  38.474  76.237
12543DC     BB281538  50.698  38.474  75.885
12543DC     BB381539  50.573  38.633  75.840
12543DC     SC181540  50.367  38.513  75.948
12543DC     SC281541  50.228  38.456  75.794
12543DC     SC381542  50.166  38.464  76.112
12544DT     BB181543  50.781  38.756  75.715
12544DT     BB281544  50.523  38.739  75.464
12544DT     BB381545  50.398  38.903  75.479
12544DT     SC181546  50.282  38.805  75.694
12544DT     SC281547  50.080  38.748  75.646
12544DT     SC381548  50.204  38.781  75.944
12545DA     BB181549  50.520  38.889  75.078
12545DA     BB281550  50.156  38.934  75.081
12545DA     BB381551  50.107  39.134  75.137
12545DA     SC181552  50.089  39.071  75.441
12545DA     SC281553  49.913  39.055  75.617
12545DA     SC381554  50.105  39.085  75.784
12545DA     SC481555  50.222  39.091  75.529
12546DT     BB181556  50.017  39.273  74.999
12546DT     BB281557  49.685  39.267  75.141
12546DT     BB381558  49.647  39.446  75.239
12546DT     SC181559  49.802  39.378  75.440
12546DT     SC281560  49.681  39.342  75.614
12546DT     SC381561  50.003  39.383  75.610
12547DC     BB181562  49.472  39.540  75.042
12547DC     BB281563  49.275  39.549  75.344
12547DC     BB381564  49.296  39.733  75.436
12547DC     SC181565  49.537  39.673  75.521
12547DC     SC281566  49.533  39.649  75.734
12547DC     SC381567  49.798  39.682  75.551
12548DC     BB181568  49.041  39.810  75.364
12548DC     BB281569  49.044  39.837  75.724
12548DC     BB381570  49.106  40.026  75.780
12548DC     SC181571  49.356  39.969  75.720
12548DC     SC281572  49.472  39.957  75.901
12548DC     SC381573  49.590  39.979  75.600
12549DA     BB181574  48.748  39.940  75.977
12549DA     BB281575  48.989  40.060  76.227
12549DA     BB381576  49.018  40.270  76.207
12549DA     SC181577  49.255  40.244  76.008
12549DA     SC281578  49.502  40.284  76.008
12549DA     SC381579  49.480  40.290  75.753
12549DA     SC481580  49.221  40.245  75.851
12550DA     BB181581  48.948  40.229  76.522
12550DA     BB281582  49.276  40.377  76.591
12550DA     BB381583  49.273  40.587  76.548
12550DA     SC181584  49.363  40.553  76.253
12550DA     SC281585  49.565  40.602  76.115
12550DA     SC381586  49.407  40.586  75.914
12550DA     SC481587  49.249  40.540  76.141
12551DT     BB181588  49.298  40.688  76.701
12551DT     BB281589  49.632  40.803  76.629
12551DT     BB381590  49.626  40.995  76.552
12551DT     SC181591  49.539  40.908  76.321
12551DT     SC281592  49.694  40.933  76.173
12551DT     SC381593  49.381  40.871  76.113
12552DT     BB181594  49.731  41.071  76.784
12552DT     BB281595  49.957  41.200  76.534
12552DT     BB381596  49.886  41.380  76.461
12552DT     SC181597  49.700  41.258  76.320
12552DT     SC281598  49.747  41.275  76.111
12552DT     SC381599  49.462  41.184  76.236
12553DA     BB181600  50.282  41.454  76.578
12553DA     BB281601  50.237  41.598  76.244
12553DA     BB381602  50.120  41.776  76.255
12553DA     SC181603  49.848  41.630  76.216
12553DA     SC281604  49.672  41.612  76.040
12553DA     SC381605  49.519  41.532  76.230
12553DA     SC481606  49.769  41.584  76.348
12554DA     BB181607  50.373  41.921  76.096
12554DA     BB281608  50.139  42.002  75.826
12554DA     BB381609  50.018  42.169  75.880
12554DA     SC181610  49.793  41.996  76.007
12554DA     SC281611  49.556  41.934  75.956
12554DA     SC381612  49.540  41.875  76.205
12554DA     SC481613  49.802  41.966  76.165
12555DT     BB181614  50.032  42.363  75.782
12555DT     BB281615  49.725  42.339  75.595
12555DT     BB381616  49.583  42.468  75.674
12555DT     SC181617  49.543  42.310  75.880
12555DT     SC281618  49.347  42.222  75.865
12555DT     SC381619  49.536  42.224  76.129
12556DT     BB181620  49.604  42.647  75.463
12556DT     BB281621  49.253  42.562  75.472
12556DT     BB381622  49.152  42.691  75.597
12556DT     SC181623  49.250  42.574  75.810
12556DT     SC281624  49.092  42.469  75.912
12556DT     SC381625  49.384  42.538  76.034
12557DT     BB181626  49.032  42.824  75.386
12557DT     BB281627  48.755  42.713  75.588
12557DT     BB381628  48.709  42.857  75.730
12557DT     SC181629  48.919  42.794  75.873
12557DT     SC281630  48.856  42.699  76.056
12557DT     SC381631  49.152  42.816  75.995
12558DT     BB181632  48.479  42.927  75.597
12558DT     BB281633  48.366  42.839  75.927
12558DT     BB381634  48.373  43.005  76.051
12558DT     SC181635  48.634  42.990  76.069
12558DT     SC281636  48.689  42.931  76.269
12558DT     SC381637  48.889  43.055  76.046
12559DT     BB181638  48.098  43.030  76.050
12559DT     BB281639  48.183  43.005  76.400
12559DT     BB381640  48.223  43.193  76.477
12559DT     SC181641  48.456  43.201  76.357
12559DT     SC281642  48.613  43.189  76.504
12559DT     SC381643  48.649  43.279  76.195
12560DA     BB181644  47.932  43.035  76.735
12560DA     BB281645  48.203  43.167  76.944
12560DA     BB381646  48.193  43.380  76.951
12560DA     SC181647  48.379  43.421  76.705
12560DA     SC281648  48.610  43.506  76.660
12560DA     SC381649  48.529  43.537  76.419
12560DA     SC481650  48.310  43.435  76.561
12561DC     BB181651  48.143  43.494  77.134
12561DC     BB281652  48.477  43.610  77.203
12561DC     BB381653  48.491  43.814  77.167
12561DC     SC181654  48.491  43.776  76.908
12561DC     SC281655  48.685  43.825  76.829
12561DC     SC381656  48.413  43.785  76.656
12562DT     BB181657  48.505  43.860  77.434
12562DT     BB281658  48.807  44.004  77.298
12562DT     BB381659  48.771  44.198  77.235
12562DT     SC181660  48.642  44.113  77.023
12562DT     SC281661  48.758  44.155  76.847
12562DT     SC381662  48.445  44.071  76.852
12563DT     BB181663  48.917  44.283  77.443
12563DT     BB281664  49.080  44.418  77.151
12563DT     BB381665  48.990  44.596  77.096
12563DT     SC181666  48.783  44.470  76.997
12563DT     SC281667  48.783  44.489  76.783
12563DT     SC381668  48.534  44.389  76.965
12564DC     BB181669  49.213  44.713  77.180
12564DC     BB281670  49.179  44.811  76.834
12564DC     BB381671  49.051  44.973  76.819
12564DC     SC181672  48.841  44.821  76.861
12564DC     SC281673  48.726  44.806  76.680
12564DC     SC381674  48.626  44.722  76.977
12565DC     BB181675  49.267  45.111  76.757
12565DC     BB281676  49.043  45.156  76.478
12565DC     BB381677  48.906  45.305  76.521
12565DC     SC181678  48.773  45.147  76.683
12565DC     SC281679  48.582  45.099  76.596
12565DC     SC381680  48.667  45.052  76.905
12566DT     BB181681  49.034  45.458  76.343
12566DT     BB281682  48.692  45.450  76.229
12566DT     BB381683  48.580  45.592  76.329
12566DT     SC181684  48.576  45.448  76.548
12566DT     SC281685  48.376  45.375  76.581
12566DT     SC381686  48.618  45.374  76.798
12567DT     BB181687  48.570  45.740  76.103
12567DT     BB281688  48.224  45.688  76.194
12567DT     BB381689  48.165  45.832  76.330
12567DT     SC181690  48.298  45.715  76.523
12567DT     SC281691  48.159  45.629  76.664
12567DT     SC381692  48.476  45.677  76.714
12568DG     BB181693  47.911  45.874  76.012
12568DG     BB281694  47.728  45.836  76.322
12568DG     BB381695  47.727  46.008  76.421
12568DG     SC181696  47.985  45.950  76.575
12568DG     SC281697  48.007  45.906  76.869
12568DG     SC381698  48.275  45.929  76.745
12568DG     SC481699  48.125  45.992  76.510
12569DT     BB181700  47.536  46.123  76.466
12569DT     BB281701  47.495  46.049  76.817
12569DT     BB381702  47.547  46.214  76.931
12569DT     SC181703  47.802  46.173  76.888
12569DT     SC281704  47.896  46.110  77.071
12569DT     SC381705  48.049  46.213  76.805
12570DG     BB181706  47.161  46.119  77.024
12570DG     BB281707  47.370  46.135  77.319
12570DG     BB381708  47.400  46.325  77.371
12570DG     SC181709  47.652  46.357  77.200
12570DG     SC281710  47.929  46.399  77.302
12570DG     SC381711  47.919  46.433  77.009
12570DG     SC481712  47.637  46.403  77.047
12571DA     BB181713  47.296  46.213  77.678
12571DA     BB281714  47.619  46.313  77.819
12571DA     BB381715  47.630  46.525  77.839
12571DA     SC181716  47.753  46.569  77.557
12571DA     SC281717  47.971  46.641  77.460
12571DA     SC381718  47.837  46.693  77.247
12571DA     SC481719  47.652  46.597  77.435
12572DT     BB181720  47.641  46.582  78.018
12572DT     BB281721  47.990  46.675  78.011
12572DT     BB381722  48.008  46.880  77.992
12572DT     SC181723  47.941  46.871  77.739
12572DT     SC281724  48.113  46.918  77.618
12572DT     SC381725  47.805  46.910  77.516
12573DA     BB181726  48.244  46.746  78.312
12573DA     BB281727  48.450  46.965  78.101
12573DA     BB381728  48.388  47.168  78.123
12573DA     SC181729  48.182  47.157  77.890
12573DA     SC281730  48.158  47.250  77.660
12573DA     SC381731  47.908  47.200  77.688
12573DA     SC481732  48.031  47.119  77.927
12574DT     BB181733  48.520  47.283  78.202
12574DT     BB281734  48.613  47.459  77.901
12574DT     BB381735  48.522  47.645  77.898
12574DT     SC181736  48.289  47.540  77.839
12574DT     SC281737  48.236  47.592  77.637
12574DT     SC381738  48.036  47.471  77.861
12575DA     BB181739  48.933  47.687  77.823
12575DA     BB281740  48.750  47.875  77.567
12575DA     BB381741  48.663  48.051  77.652
12575DA     SC181742  48.394  47.913  77.726
12575DA     SC281743  48.157  47.920  77.651
12575DA     SC381744  48.103  47.815  77.878
12575DA     SC481745  48.381  47.849  77.873
12576DA     BB181746  48.828  48.163  77.395
12576DA     BB281747  48.505  48.287  77.272
12576DA     BB381748  48.441  48.453  77.389
12576DA     SC181749  48.283  48.280  77.593
12576DA     SC281750  48.045  48.238  77.655
12576DA     SC381751  48.139  48.152  77.878
12576DA     SC481752  48.361  48.232  77.726
12577DA     BB181753  48.421  48.551  77.078
12577DA     BB281754  48.065  48.609  77.145
12577DA     BB381755  48.041  48.775  77.277
12577DA     SC181756  48.049  48.601  77.536
12577DA     SC281757  47.891  48.529  77.714
12577DA     SC381758  48.102  48.483  77.854
12577DA     SC481759  48.192  48.581  77.607
12578DT     BB181760  47.953  48.905  77.192
12578DT     BB281761  47.640  48.881  77.370
12578DT     BB381762  47.635  49.020  77.524
12578DT     SC181763  47.800  48.876  77.669
12578DT     SC281764  47.694  48.794  77.837
12578DT     SC381765  48.016  48.805  77.802
12579DT     BB181766  47.457  49.148  77.377
12579DT     BB281767  47.296  49.105  77.697
12579DT     BB381768  47.359  49.252  77.828
12579DT     SC181769  47.592  49.137  77.859
12579DT     SC281770  47.607  49.058  78.058
12579DT     SC381771  47.853  49.100  77.852
12580DT     BB181772  47.119  49.386  77.811
12580DT     BB281773  47.168  49.347  78.166
12580DT     BB381774  47.281  49.504  78.240
12580DT     SC181775  47.500  49.406  78.135
12580DT     SC281776  47.629  49.336  78.293
12580DT     SC381777  47.715  49.384  77.984
12581DT     BB181778  47.074  49.677  78.367
12581DT     BB281779  47.316  49.642  78.632
12581DT     BB381780  47.447  49.802  78.629
12581DT     SC181781  47.571  49.706  78.419
12581DT     SC281782  47.768  49.640  78.476
12581DT     SC381783  47.664  49.687  78.173
12582DA     BB181784  47.318  49.882  79.030
12582DA     BB281785  47.684  49.886  79.041
12582DA     BB381786  47.758  50.076  78.978
12582DA     SC181787  47.780  49.995  78.679
12582DA     SC281788  47.960  49.951  78.512
12582DA     SC381789  47.779  49.993  78.335
12582DA     SC481790  47.654  50.026  78.584
12583DT     BB181791  47.875  50.259  79.107
12583DT     BB281792  48.203  50.181  78.979
12583DT     BB381793  48.274  50.339  78.865
12583DT     SC181794  48.113  50.276  78.666
12583DT     SC281795  48.230  50.201  78.502
12583DT     SC381796  47.920  50.295  78.488
12584DG     BB181797  48.553  50.306  79.161
12584DG     BB281798  48.706  50.282  78.834
12584DG     BB381799  48.735  50.464  78.760
12584DG     SC181800  48.462  50.478  78.622
12584DG     SC281801  48.414  50.484  78.328
12584DG     SC381802  48.164  50.536  78.476
12584DG     SC481803  48.337  50.535  78.705
12585DA     BB181804  49.056  50.352  78.712
12585DA     BB281805  49.017  50.402  78.351
12585DA     BB381806  49.031  50.609  78.303
12585DA     SC181807  48.725  50.660  78.331
12585DA     SC281808  48.532  50.713  78.181
12585DA     SC381809  48.416  50.796  78.394
12585DA     SC481810  48.670  50.708  78.474
12586DT     BB181811  49.178  50.644  78.198
12586DT     BB281812  48.999  50.696  77.889
12586DT     BB381813  48.976  50.899  77.853
12586DT     SC181814  48.790  50.918  78.037
12586DT     SC281815  48.600  50.956  77.943
12586DT     SC381816  48.666  50.992  78.258
12587DC     BB181817  49.150  50.862  77.657
12587DC     BB281818  48.859  51.004  77.499
12587DC     BB381819  48.862  51.210  77.519
12587DC     SC181820  48.793  51.194  77.771
12587DC     SC281821  48.593  51.268  77.796
12587DC     SC381822  48.806  51.216  78.034
12588DA     BB181823  48.805  51.127  77.111
12588DA     BB281824  48.557  51.379  77.209
12588DA     BB381825  48.651  51.568  77.239
12588DA     SC181826  48.707  51.521  77.541
12588DA     SC281827  48.625  51.609  77.760
12588DA     SC381828  48.843  51.516  77.856
12588DA     SC481829  48.848  51.457  77.582
12589DT     BB181830  48.614  51.734  77.110
12589DT     BB281831  48.410  51.923  77.340
12589DT     BB381832  48.516  52.085  77.412
12589DT     SC181833  48.661  51.933  77.568
12589DT     SC281834  48.609  51.970  77.773
12589DT     SC381835  48.872  51.811  77.670
12590DT     BB181836  48.376  52.277  77.259
12590DT     BB281837  48.333  52.387  77.600
12590DT     BB381838  48.485  52.518  77.652
12590DT     SC181839  48.658  52.321  77.672
12590DT     SC281840  48.711  52.294  77.878
12590DT     SC381841  48.868  52.170  77.623
12591DG     BB181842  48.143  52.735  77.702
12591DG     BB281843  48.343  52.733  78.003
12591DG     BB381844  48.488  52.868  77.989
12591DG     SC181845  48.689  52.674  77.863
12591DG     SC281846  48.941  52.577  77.990
12591DG     SC381847  48.928  52.495  77.706
12591DG     SC481848  48.692  52.658  77.704
12592DG     BB181849  48.365  53.002  78.258
12592DG     BB281850  48.678  52.912  78.415
12592DG     BB381851  48.816  53.050  78.376
12592DG     SC181852  48.914  52.916  78.119
12592DG     SC281853  49.182  52.792  78.077
12592DG     SC381854  49.032  52.806  77.823
12592DG     SC481855  48.842  52.952  77.980
12593DA     BB181856  48.855  53.037  78.716
12593DA     BB281857  49.205  52.938  78.668
12593DA     BB381858  49.321  53.106  78.605
12593DA     SC181859  49.277  53.053  78.301
12593DA     SC281860  49.412  52.977  78.105
12593DA     SC381861  49.228  53.085  77.963
12593DA     SC481862  49.153  53.126  78.230
12594DT     BB181863  49.450  53.152  78.730
12594DT     BB281864  49.735  53.025  78.550
12594DT     BB381865  49.834  53.180  78.455
12594DT     SC181866  49.647  53.197  78.271
12594DT     SC281867  49.725  53.130  78.083
12594DT     SC381868  49.450  53.295  78.126
12595DG     BB181869  50.090  52.978  78.698
12595DG     BB281870  50.219  53.008  78.361
12595DG     BB381871  50.286  53.192  78.330
12595DG     SC181872  50.018  53.300  78.229
12595DG     SC281873  49.959  53.392  77.951
12595DG     SC381874  49.735  53.456  78.133
12595DG     SC481875  49.913  53.359  78.335
12596DT     BB181876  50.489  53.212  78.284
12596DT     BB281877  50.480  53.290  77.932
12596DT     BB381878  50.504  53.494  77.904
12596DT     SC181879  50.259  53.542  77.985
12596DT     SC281880  50.141  53.608  77.818
12596DT     SC381881  50.060  53.634  78.131
12597DA     BB181882  50.766  53.278  77.657
12597DA     BB281883  50.598  53.533  77.454
12597DA     BB381884  50.669  53.727  77.505
12597DA     SC181885  50.452  53.776  77.723
12597DA     SC281886  50.251  53.920  77.755
12597DA     SC381887  50.281  53.872  78.005
12597DA     SC481888  50.488  53.735  77.874
12598DT     BB181889  50.756  53.804  77.365
12598DT     BB281890  50.506  54.050  77.281
12598DT     BB381891  50.555  54.233  77.365
12598DT     SC181892  50.485  54.151  77.604
12598DT     SC281893  50.306  54.255  77.665
12598DT     SC381894  50.503  54.084  77.858
12599DT     BB181895  50.604  54.308  77.116
12599DT     BB281896  50.365  54.549  77.241
12599DT     BB381897  50.463  54.695  77.350
12599DT     SC181898  50.499  54.532  77.553
12599DT     SC281899  50.376  54.595  77.718
12599DT     SC381900  50.621  54.383  77.733
12600DT     BB181901  50.412  54.863  77.149
12600DT     BB281902  50.279  55.029  77.440
12600DT     BB381903  50.430  55.132  77.537
12600DT     SC181904  50.530  54.910  77.633
12600DT     SC281905  50.498  54.903  77.846
12600DT     SC381906  50.700  54.713  77.678
12601DT     BB181907  50.339  55.378  77.450
12601DT     BB281908  50.362  55.419  77.807
12601DT     BB381909  50.552  55.482  77.859
12601DT     SC181910  50.651  55.242  77.818
12601DT     SC281911  50.708  55.155  78.006
12601DT     SC381912  50.795  55.048  77.713
12602DA     BB181913  50.318  55.785  78.038
12602DA     BB281914  50.560  55.674  78.290
12602DA     BB381915  50.753  55.755  78.249
12602DA     SC181916  50.843  55.514  78.074
12602DA     SC281917  51.006  55.326  78.089
12602DA     SC381918  50.985  55.314  77.833
12602DA     SC481919  50.818  55.524  77.915
12603DT     BB181920  50.873  55.919  78.371
12603DT     BB281921  51.111  55.691  78.518
12603DT     BB381922  51.299  55.726  78.440
12603DT     SC181923  51.235  55.610  78.213
12603DT     SC281924  51.342  55.424  78.195
12603DT     SC381925  51.186  55.579  77.956
12604DA     BB181926  51.373  55.763  78.853
12604DA     BB281927  51.621  55.527  78.720
12604DA     BB381928  51.778  55.632  78.620
12604DA     SC181929  51.639  55.624  78.342
12604DA     SC281930  51.673  55.512  78.122
12604DA     SC381931  51.523  55.698  78.027
12604DA     SC481932  51.545  55.749  78.302
12605DT     BB181933  51.978  55.633  78.695
12605DT     BB281934  52.106  55.396  78.455
12605DT     BB381935  52.230  55.493  78.320
12605DT     SC181936  52.025  55.601  78.197
12605DT     SC281937  52.004  55.512  78.002
12605DT     SC381938  51.859  55.784  78.104
12606DT     BB181939  52.442  55.370  78.434
12606DT     BB281940  52.447  55.265  78.088
12606DT     BB381941  52.551  55.404  77.974
12606DT     SC181942  52.351  55.573  77.985
12606DT     SC281943  52.261  55.590  77.790
12606DT     SC381944  52.214  55.792  78.039
12607DA     BB181945  52.680  55.011  77.903
12607DA     BB281946  52.612  55.172  77.581
12607DA     BB381947  52.758  55.321  77.540
12607DA     SC181948  52.598  55.551  77.676
12607DA     SC281949  52.475  55.756  77.606
12607DA     SC381950  52.503  55.832  77.849
12607DA     SC481951  52.627  55.581  77.831
12608DT     BB181952  52.847  55.272  77.395
12608DT     BB281953  52.704  55.515  77.170
12608DT     BB381954  52.829  55.680  77.155
12608DT     SC181955  52.757  55.765  77.393
12608DT     SC281956  52.640  55.945  77.372
12608DT     SC381957  52.774  55.836  77.646
12609DT     BB181958  52.871  55.591  76.912
12609DT     BB281959  52.754  55.929  76.870
12609DT     BB381960  52.910  56.062  76.898
12609DT     SC181961  52.904  56.026  77.158
12609DT     SC281962  52.832  56.205  77.253
12609DT     SC381963  52.981  55.958  77.401
12610DT     BB181964  52.896  56.105  76.637
12610DT     BB281965  52.860  56.431  76.787
12610DT     BB381966  53.046  56.509  76.833
12610DT     SC181967  53.071  56.348  77.039
12610DT     SC281968  53.060  56.462  77.221
12610DT     SC381969  53.165  56.157  77.194
12611DT     BB181970  53.029  56.688  76.628
12611DT     BB281971  53.092  56.893  76.918
12611DT     BB381972  53.296  56.908  76.950
12611DT     SC181973  53.308  56.663  77.043
12611DT     SC281974  53.348  56.669  77.255
12611DT     SC381975  53.372  56.408  77.064
12612DT     BB181976  53.313  57.172  76.859
12612DT     BB281977  53.456  57.187  77.190
12612DT     BB381978  53.659  57.152  77.181
12612DT     SC181979  53.622  56.896  77.141
12612DT     SC281980  53.685  56.786  77.315
12612DT     SC381981  53.624  56.660  77.023
12613DC     BB181982  53.740  57.422  77.222
12613DC     BB281983  53.913  57.241  77.483
12613DC     BB381984  54.100  57.183  77.416
12613DC     SC181985  53.997  56.994  77.267
12613DC     SC281986  54.048  56.802  77.350
12613DC     SC381987  53.931  56.855  77.052
12614DA     BB181988  54.193  57.393  77.769
12614DA     BB281989  54.369  57.072  77.786
12614DA     BB381990  54.543  57.076  77.662
12614DA     SC181991  54.396  56.968  77.410
12614DA     SC281992  54.392  56.760  77.273
12614DA     SC381993  54.290  56.907  77.089
12614DA     SC481994  54.335  57.077  77.308
12615DG     BB181995  54.726  57.029  77.918
12615DG     BB281996  54.799  56.713  77.757
12615DG     BB381997  54.953  56.735  77.633
12615DG     SC181998  54.780  56.809  77.392
12615DG     SC281999  54.744  56.646  77.144
12615DG     SC382000  54.623  56.914  77.112
12615DG     SC482001  54.743  56.963  77.367
12616DA     BB182002  55.110  56.468  77.792
12616DA     BB282003  55.106  56.277  77.479
12616DA     BB382004  55.266  56.340  77.352
12616DA     SC182005  55.097  56.557  77.207
12616DA     SC282006  54.999  56.594  76.980
12616DA     SC382007  54.990  56.842  77.047
12616DA     SC482008  55.101  56.706  77.266
12617DG     BB182009  55.354  56.045  77.380
12617DG     BB282010  55.275  56.037  77.027
12617DG     BB382011  55.430  56.105  76.921
12617DG     SC182012  55.338  56.397  76.928
12617DG     SC282013  55.247  56.557  76.693
12617DG     SC382014  55.277  56.728  76.932
12617DG     SC482015  55.383  56.490  77.050
12618DT     BB182016  55.516  55.971  76.785
12618DT     BB282017  55.391  56.100  76.471
12618DT     BB382018  55.539  56.209  76.376
12618DT     SC182019  55.509  56.410  76.542
12618DT     SC282020  55.421  56.576  76.438
12618DT     SC382021  55.563  56.588  76.729
12619DG     BB182022  55.385  55.914  76.144
12619DG     BB282023  55.377  56.235  75.978
12619DG     BB382024  55.560  56.286  75.919
12619DG     SC182025  55.631  56.430  76.179
12619DG     SC282026  55.679  56.723  76.210
12619DG     SC382027  55.751  56.578  76.457
12619DG     SC482028  55.697  56.346  76.299
12620DG     BB182029  55.397  56.308  75.642
12620DG     BB282030  55.500  56.655  75.644
12620DG     BB382031  55.692  56.669  75.594
12620DG     SC182032  55.794  56.645  75.881
12620DG     SC282033  55.932  56.859  76.038
12620DG     SC382034  55.941  56.601  76.182
12620DG     SC482035  55.823  56.499  75.942
12621DC     BB182036  55.723  56.777  75.430
12621DC     BB282037  55.880  57.077  75.556
12621DC     BB382038  56.086  57.060  75.541
12621DC     SC182039  56.095  56.895  75.745
12621DC     SC282040  56.188  56.992  75.912
12621DC     SC382041  56.134  56.674  75.884
12622DT     BB182042  56.073  57.239  75.343
12622DT     BB282043  56.313  57.376  75.575
12622DT     BB382044  56.500  57.294  75.540
12622DT     SC182045  56.430  57.067  75.651
12622DT     SC282046  56.535  57.043  75.837
12622DT     SC382047  56.374  56.811  75.678
12623DT     BB182048  56.599  57.525  75.420
12623DT     BB282049  56.842  57.453  75.677
12623DT     BB382050  56.989  57.327  75.603
12623DT     SC182051  56.827  57.121  75.611
12623DT     SC282052  56.892  56.985  75.764
12623DT     SC382053  56.679  56.918  75.529
12624DT     BB182054  57.194  57.524  75.576
12624DT     BB282055  57.352  57.268  75.776
12624DT     BB382056  57.450  57.134  75.653
12624DT     SC182057  57.224  57.024  75.579
12624DT     SC282058  57.210  56.825  75.661
12624DT     SC382059  57.025  56.946  75.424
12625DT     BB182060  57.720  57.223  75.702
12625DT     BB282061  57.733  56.871  75.782
12625DT     BB382062  57.792  56.763  75.616
12625DT     SC182063  57.557  56.792  75.504
12625DT     SC282064  57.455  56.602  75.500
12625DT     SC382065  57.371  56.866  75.331
12626DA     BB182066  58.076  56.639  75.901
12626DA     BB282067  57.940  56.335  75.748
12626DA     BB382068  58.028  56.303  75.556
12626DA     SC182069  57.811  56.463  75.402
12626DA     SC282070  57.624  56.416  75.244
12626DA     SC382071  57.642  56.664  75.181
12626DA     SC482072  57.838  56.619  75.376
12627DT     BB182073  58.165  56.133  75.508
12627DT     BB282074  57.924  55.940  75.320
12627DT     BB382075  57.975  55.940  75.120
12627DT     SC182076  57.893  56.187  75.090
12627DT     SC282077  57.715  56.190  74.970
12627DT     SC382078  57.898  56.447  75.042
12628DT     BB182079  58.062  55.674  75.122
12628DT     BB282080  57.805  55.680  74.869
12628DT     BB382081  57.889  55.722  74.684
12628DT     SC182082  57.919  55.975  74.747
12628DT     SC282083  57.783  56.094  74.631
12628DT     SC382084  58.037  56.205  74.800
12629DT     BB182085  57.853  55.462  74.599
12629DT     BB282086  57.674  55.661  74.357
12629DT     BB382087  57.802  55.717  74.204
12629DT     SC182088  57.919  55.896  74.356
12629DT     SC282089  57.869  56.093  74.287
12629DT     SC382090  58.107  56.019  74.494
12630DC     BB182091  57.679  55.543  74.032
12630DC     BB282092  57.648  55.865  73.872
12630DC     BB382093  57.813  55.901  73.753
12630DC     SC182094  57.962  55.951  73.964
12630DC     SC282095  58.011  56.160  73.969
12630DC     SC382096  58.154  55.927  74.143
12631DT     BB182097  57.662  55.864  73.529
12631DT     BB282098  57.798  56.197  73.493
12631DT     BB382099  57.983  56.188  73.401
12631DT     SC182100  58.097  56.097  73.619
12631DT     SC282101  58.227  56.249  73.700
12631DT     SC382102  58.225  55.936  73.784
12632DA     BB182103  57.741  56.469  73.206
12632DA     BB282104  58.066  56.625  73.274
12632DA     BB382105  58.216  56.543  73.146
12632DA     SC182106  58.297  56.317  73.344
12632DA     SC282107  58.491  56.259  73.488
12632DA     SC382108  58.396  56.020  73.485
12632DA     SC482109  58.222  56.175  73.329
12633DA     BB182110  58.252  56.863  73.095
12633DA     BB282111  58.595  56.823  73.217
12633DA     BB382112  58.714  56.723  73.071
12633DA     SC182113  58.655  56.438  73.180
12633DA     SC282114  58.778  56.257  73.299
12633DA     SC382115  58.592  56.103  73.213
12633DA     SC482116  58.531  56.359  73.117
12634DT     BB182117  58.856  56.830  72.996
12634DT     BB282118  59.131  56.667  73.161
12634DT     BB382119  59.226  56.538  73.030
12634DT     SC182120  59.030  56.363  73.048
12634DT     SC282121  59.100  56.189  73.154
12634DT     SC382122  58.828  56.210  72.979
12635DG     BB182123  59.504  56.802  73.168
12635DG     BB282124  59.617  56.460  73.204
12635DG     BB382125  59.678  56.390  73.029
12635DG     SC182126  59.403  56.282  72.948
12635DG     SC282127  59.330  55.995  72.915
12635DG     SC382128  59.113  56.171  72.819
12635DG     SC482129  59.302  56.379  72.871
12636DT     BB182130  59.890  56.329  72.995
12636DT     BB282131  59.864  55.969  72.986
12636DT     BB382132  59.875  55.903  72.790
12636DT     SC182133  59.631  55.984  72.740
12636DT     SC282134  59.503  55.813  72.713
12636DT     SC382135  59.431  56.118  72.632
12637DT     BB182136  60.131  55.805  72.825
12637DT     BB282137  59.946  55.521  72.703
12637DT     BB382138  59.949  55.518  72.496
12637DT     SC182139  59.776  55.715  72.483
12637DT     SC282140  59.589  55.641  72.407
12637DT     SC382141  59.674  55.953  72.430
12638DT     BB182142  60.132  55.306  72.476
12638DT     BB282143  59.851  55.193  72.280
12638DT     BB382144  59.875  55.251  72.083
12638DT     SC182145  59.815  55.500  72.140
12638DT     SC282146  59.624  55.548  72.055
12638DT     SC382147  59.840  55.760  72.170
12639DA     BB182148  59.815  54.836  72.050
12639DA     BB282149  59.589  54.996  71.810
12639DA     BB382150  59.697  55.060  71.638
12639DA     SC182151  59.758  55.343  71.751
12639DA     SC282152  59.690  55.579  71.707
12639DA     SC382153  59.904  55.644  71.832
12639DA     SC482154  59.896  55.363  71.831
12640DT     BB182155  59.675  54.972  71.432
12640DT     BB282156  59.487  55.246  71.292
12640DT     BB382157  59.602  55.348  71.153
12640DT     SC182158  59.744  55.461  71.343
12640DT     SC282159  59.699  55.671  71.350
12640DT     SC382160  59.951  55.525  71.493
12641DG     BB182161  59.282  55.222  70.932
12641DG     BB282162  59.331  55.579  70.897
12641DG     BB382163  59.472  55.615  70.762
12641DG     SC182164  59.701  55.611  70.965
12641DG     SC282165  59.869  55.845  71.044
12641DG     SC382166  59.978  55.594  71.156
12641DG     SC482167  59.773  55.472  70.998
12642DT     BB182168  59.427  55.727  70.575
12642DT     BB282169  59.573  56.048  70.651
12642DT     BB382170  59.751  56.071  70.548
12642DT     SC182171  59.875  55.907  70.711
12642DT     SC282172  60.015  56.017  70.831
12642DT     SC382173  60.007  55.695  70.797
12643DA     BB182174  59.511  56.408  70.479
12643DA     BB282175  59.845  56.524  70.577
12643DA     BB382176  59.984  56.491  70.419
12643DA     SC182177  60.067  56.208  70.518
12643DA     SC282178  60.267  56.099  70.619
12643DA     SC382179  60.163  55.879  70.538
12643DA     SC482180  59.987  56.082  70.458
12644DA     BB182181  60.031  56.810  70.481
12644DA     BB282182  60.378  56.722  70.559
12644DA     BB382183  60.485  56.677  70.380
12644DA     SC182184  60.419  56.373  70.388
12644DA     SC282185  60.540  56.159  70.428
12644DA     SC382186  60.343  56.048  70.307
12644DA     SC482187  60.288  56.323  70.309
12645DA     BB182188  60.689  56.905  70.502
12645DA     BB282189  60.948  56.645  70.505
12645DA     BB382190  61.018  56.608  70.307
12645DA     SC182191  60.811  56.384  70.249
12645DA     SC282192  60.811  56.136  70.217
12645DA     SC382193  60.584  56.172  70.101
12645DA     SC482194  60.672  56.427  70.179
12646DA     BB182195  61.315  56.670  70.439
12646DA     BB282196  61.409  56.328  70.345
12646DA     BB382197  61.450  56.318  70.136
12646DA     SC182198  61.157  56.246  70.058
12646DA     SC282199  61.033  56.048  69.970
12646DA     SC382200  60.854  56.218  69.900
12646DA     SC482201  61.058  56.367  70.021
12647DT     BB182202  61.649  56.280  70.054
12647DT     BB282203  61.588  55.938  69.956
12647DT     BB382204  61.578  55.925  69.749
12647DT     SC182205  61.340  56.034  69.746
12647DT     SC282206  61.194  55.886  69.689
12647DT     SC382207  61.146  56.206  69.696
12648DT     BB182208  61.826  55.800  69.728
12648DT     BB282209  61.596  55.569  69.574
12648DT     BB382210  61.578  55.610  69.372
12648DT     SC182211  61.431  55.822  69.420
12648DT     SC282212  61.230  55.785  69.355
12648DT     SC382213  61.355  56.074  69.430
12649DT     BB182214  61.718  55.384  69.313
12649DT     BB282215  61.400  55.342  69.148
12649DT     BB382216  61.407  55.427  68.959
12649DT     SC182217  61.394  55.669  69.059
12649DT     SC282218  61.203  55.756  69.010
12649DT     SC382219  61.462  55.917  69.120
12650DA     BB182220  61.251  55.038  68.962
12650DA     BB282221  61.022  55.256  68.777
12650DA     BB382222  61.109  55.316  68.592
12650DA     SC182223  61.240  55.573  68.709
12650DA     SC282224  61.210  55.820  68.691
12650DA     SC382225  61.450  55.835  68.779
12650DA     SC482226  61.391  55.561  68.763
12651DA     BB182227  60.808  55.202  68.544
12651DA     BB282228  60.739  55.532  68.399
12651DA     BB382229  60.849  55.558  68.219
12651DA     SC182230  61.096  55.685  68.359
12651DA     SC282231  61.207  55.908  68.373
12651DA     SC382232  61.414  55.778  68.449
12651DA     SC482233  61.215  55.586  68.403
12652DT     BB182234  60.727  55.576  68.107
12652DT     BB282235  60.777  55.926  68.036
12652DT     BB382236  60.911  55.948  67.880
12652DT     SC182237  61.114  55.886  68.034
12652DT     SC282238  61.235  56.061  68.066
12652DT     SC382239  61.321  55.755  68.131
12653DA     BB182240  60.566  56.183  67.818
12653DA     BB282241  60.862  56.387  67.743
12653DA     BB382242  60.957  56.316  67.566
12653DA     SC182243  61.146  56.120  67.716
12653DA     SC282244  61.389  56.101  67.768
12653DA     SC382245  61.341  55.853  67.808
12653DA     SC482246  61.096  55.969  67.735
12654DC     BB182247  60.954  56.435  67.409
12654DC     BB282248  61.303  56.526  67.408
12654DC     BB382249  61.404  56.419  67.263
12654DC     SC182250  61.398  56.201  67.408
12654DC     SC282251  61.596  56.154  67.475
12654DC     SC382252  61.341  55.954  67.482
12655DA     BB182253  61.501  56.820  67.178
12655DA     BB282254  61.813  56.628  67.169
12655DA     BB382255  61.824  56.512  66.991
12655DA     SC182256  61.688  56.262  67.117
12655DA     SC282257  61.754  56.031  67.184
12655DA     SC382258  61.503  55.978  67.172
12655DA     SC482259  61.529  56.249  67.102
12656DA     BB182260  62.117  56.661  66.929
12656DA     BB282261  62.273  56.329  66.941
12656DA     BB382262  62.242  56.226  66.758
12656DA     SC182263  61.977  56.091  66.852
12656DA     SC282264  61.898  55.862  66.911
12656DA     SC382265  61.662  55.955  66.868
12656DA     SC482266  61.839  56.167  66.819
12657DC     BB182267  62.401  56.176  66.611
12657DC     BB282268  62.419  55.824  66.685
12657DC     BB382269  62.341  55.714  66.528
12657DC     SC182270  62.096  55.779  66.593
12657DC     SC282271  61.993  55.606  66.668
12657DC     SC382272  61.854  55.884  66.578
12658DC     BB182273  62.590  55.623  66.432
12658DC     BB282274  62.404  55.319  66.490
12658DC     BB382275  62.302  55.264  66.319
12658DC     SC182276  62.125  55.454  66.354
12658DC     SC282277  61.935  55.366  66.406
12658DC     SC382278  61.983  55.672  66.311
12659DT     BB182279  62.473  55.051  66.260
12659DT     BB282280  62.147  54.898  66.280
12659DT     BB382281  62.057  54.899  66.094
12659DT     SC182282  62.007  55.156  66.111
12659DT     SC282283  61.795  55.186  66.132
12659DT     SC382284  62.012  55.414  66.057
12660DC     BB182285  62.092  54.627  66.059
12660DC     BB282286  61.736  54.675  66.027
12660DC     BB382287  61.688  54.715  65.830
12660DC     SC182288  61.782  54.959  65.847
12660DC     SC282289  61.619  55.099  65.839
12660DC     SC382290  61.933  55.170  65.803
12661DA     BB182291  61.441  54.396  65.944
12661DA     BB282292  61.227  54.651  65.791
12661DA     BB382293  61.250  54.649  65.579
12661DA     SC182294  61.480  54.859  65.578
12661DA     SC282295  61.514  55.095  65.507
12661DA     SC382296  61.765  55.038  65.508
12661DA     SC482297  61.631  54.803  65.583
12662DA     BB182298  60.926  54.620  65.606
12662DA     BB282299  60.906  54.940  65.428
12662DA     BB382300  60.950  54.913  65.221
12662DA     SC182301  61.255  54.965  65.255
12662DA     SC282302  61.420  55.141  65.192
12662DA     SC382303  61.597  54.958  65.227
12662DA     SC482304  61.350  54.838  65.280
12663DT     BB182305  60.803  54.948  65.099
12663DT     BB282306  60.925  55.264  64.976
12663DT     BB382307  61.007  55.240  64.788
12663DT     SC182308  61.221  55.126  64.887
12663DT     SC282309  61.390  55.257  64.864
12663DT     SC382310  61.403  54.942  64.939
12664DG     BB182311  60.714  55.522  64.775
12664DG     BB282312  61.025  55.645  64.638
12664DG     BB382313  61.054  55.570  64.456
12664DG     SC182314  61.204  55.322  64.556
12664DG     SC282315  61.492  55.261  64.507
12664DG     SC382316  61.355  55.030  64.630
12664DG     SC482317  61.121  55.191  64.594
12665DT     BB182318  61.066  55.708  64.302
12665DT     BB282319  61.419  55.704  64.228
12665DT     BB382320  61.455  55.585  64.062
12665DT     SC182321  61.419  55.366  64.202
12665DT     SC282322  61.606  55.263  64.224
12665DT     SC382323  61.313  55.138  64.283
12666DG     BB182324  61.604  55.960  64.009
12666DG     BB282325  61.853  55.705  63.946
12666DG     BB382326  61.817  55.617  63.771
12666DG     SC182327  61.636  55.401  63.889
12666DG     SC282328  61.696  55.109  63.900
12666DG     SC382329  61.417  55.162  63.982
12666DG     SC482330  61.479  55.430  63.903
12667DG     BB182331  62.121  55.710  63.704
12667DG     BB282332  62.192  55.357  63.667
12667DG     BB382333  62.125  55.293  63.491
12667DG     SC182334  61.847  55.219  63.594
12667DG     SC282335  61.735  54.943  63.614
12667DG     SC382336  61.527  55.146  63.669
12667DG     SC482337  61.732  55.331  63.594
12668DA     BB182338  62.446  55.164  63.465
12668DA     BB282339  62.304  54.830  63.417
12668DA     BB382340  62.215  54.813  63.224
12668DA     SC182341  61.934  54.906  63.319
12668DA     SC282342  61.708  54.805  63.352
12668DA     SC382343  61.622  55.047  63.342
12668DA     SC482344  61.900  55.062  63.309
12669DA     BB182345  62.414  54.551  63.218
12669DA     BB282346  62.113  54.349  63.164
12669DA     BB382347  62.038  54.378  62.966
12669DA     SC182348  61.852  54.614  63.045
12669DA     SC282349  61.607  54.657  63.065
12669DA     SC382350  61.670  54.906  63.050
12669DA     SC482351  61.911  54.763  63.033
12670DT     BB182352  62.043  54.224  62.827
12670DT     BB282353  61.690  54.153  62.822
12670DT     BB382354  61.605  54.228  62.648
12670DT     SC182355  61.618  54.474  62.738
12670DT     SC282356  61.419  54.545  62.778
12670DT     SC382357  61.686  54.728  62.757
12671DA     BB182358  61.487  53.823  62.635
12671DA     BB282359  61.188  54.024  62.568
12671DA     BB382360  61.192  54.100  62.368
12671DA     SC182361  61.338  54.364  62.445
12671DA     SC282362  61.285  54.607  62.458
12671DA     SC382363  61.539  54.642  62.449
12671DA     SC482364  61.499  54.365  62.437
12672DA     BB182365  60.893  53.956  62.314
12672DA     BB282366  60.757  54.292  62.257
12672DA     BB382367  60.801  54.357  62.058
12672DA     SC182368  61.070  54.493  62.137
12672DA     SC282369  61.162  54.724  62.155
12672DA     SC382370  61.392  54.612  62.141
12672DA     SC482371  61.204  54.404  62.125
12673DC     BB182372  60.649  54.389  61.895
12673DC     BB282373  60.651  54.749  61.911
12673DC     BB382374  60.740  54.827  61.741
12673DC     SC182375  60.979  54.760  61.825
12673DC     SC282376  61.090  54.938  61.874
12673DC     SC382377  61.214  54.641  61.835
12674DA     BB182378  60.368  55.019  61.767
12674DA     BB282379  60.623  55.278  61.726
12674DA     BB382380  60.692  55.284  61.524
12674DA     SC182381  60.922  55.080  61.570
12674DA     SC282382  61.172  55.083  61.578
12674DA     SC382383  61.155  54.830  61.538
12674DA     SC482384  60.891  54.925  61.544
12675DT     BB182385  60.653  55.450  61.409
12675DT     BB282386  60.987  55.586  61.423
12675DT     BB382387  61.082  55.559  61.240
12675DT     SC182388  61.116  55.303  61.287
12675DT     SC282389  61.326  55.264  61.318
12675DT     SC382390  61.097  55.041  61.261
12676DT     BB182391  61.061  55.824  61.200
12676DT     BB282392  61.415  55.754  61.184
12676DT     BB382393  61.467  55.695  60.993
12676DT     SC182394  61.358  55.458  61.028
12676DT     SC282395  61.513  55.309  61.037
12676DT     SC382396  61.196  55.253  60.996
12677DC     BB182397  61.592  55.929  60.969
12677DC     BB282398  61.847  55.680  60.913
12677DC     BB382399  61.844  55.620  60.715
12677DC     SC182400  61.627  55.478  60.753
12677DC     SC282401  61.674  55.269  60.739
12677DC     SC382402  61.377  55.397  60.731
12678DA     BB182403  62.235  55.722  60.829
12678DA     BB282404  62.244  55.394  60.666
12678DA     BB382405  62.210  55.414  60.456
12678DA     SC182406  61.902  55.381  60.478
12678DA     SC282407  61.730  55.211  60.416
12678DA     SC382408  61.562  55.404  60.435
12678DA     SC482409  61.813  55.514  60.494
12679DC     BB182410  62.359  55.364  60.355
12679DC     BB282411  62.226  55.052  60.234
12679DC     BB382412  62.155  55.075  60.041
12679DC     SC182413  61.943  55.204  60.126
12679DC     SC282414  61.768  55.081  60.096
12679DC     SC382415  61.769  55.399  60.162
12680DG     BB182416  62.430  54.775  60.058
12680DG     BB282417  62.122  54.667  59.902
12680DG     BB382418  62.110  54.741  59.718
12680DG     SC182419  61.968  54.998  59.803
12680DG     SC282420  61.687  55.074  59.735
12680DG     SC382421  61.829  55.300  59.864
12680DG     SC482422  62.056  55.125  59.845
12681DT     BB182423  62.100  54.602  59.565
12681DT     BB282424  61.755  54.626  59.462
12681DT     BB382425  61.740  54.745  59.293
12681DT     SC182426  61.778  54.963  59.435
12681DT     SC282427  61.595  55.077  59.441
12681DT     SC382428  61.889  55.185  59.524
12682DA     BB182429  61.537  54.384  59.224
12682DA     BB282430  61.318  54.660  59.123
12682DA     BB382431  61.392  54.751  58.944
12682DA     SC182432  61.567  54.961  59.094
12682DA     SC282433  61.567  55.207  59.133
12682DA     SC382434  61.816  55.177  59.188
12682DA     SC482435  61.720  54.922  59.123
12683DT     BB182436  61.281  54.735  58.777
12683DT     BB282437  61.162  55.075  58.769
12683DT     BB382438  61.263  55.182  58.624
12683DT     SC182439  61.479  55.195  58.773
12683DT     SC282440  61.508  55.398  58.838
12683DT     SC382441  61.728  55.160  58.853
12684DC     BB182442  61.040  55.183  58.472
12684DC     BB282443  61.123  55.531  58.516
12684DC     BB382444  61.259  55.590  58.371
12684DC     SC182445  61.454  55.464  58.493
12684DC     SC282446  61.592  55.608  58.575
12684DC     SC382447  61.648  55.291  58.536
12685DT     BB182448  61.062  55.732  58.259
12685DT     BB282449  61.321  55.973  58.329
12685DT     BB382450  61.458  55.976  58.174
12685DT     SC182451  61.562  55.748  58.251
12685DT     SC282452  61.760  55.783  58.329
12685DT     SC382453  61.636  55.495  58.248
12686DT     BB182454  61.357  56.214  58.124
12686DT     BB282455  61.710  56.269  58.176
12686DT     BB382456  61.814  56.229  58.002
12686DT     SC182457  61.786  55.970  58.037
12686DT     SC282458  61.978  55.884  58.084
12686DT     SC382459  61.712  55.721  57.994
12687DT     BB182460  61.848  56.486  58.011
12687DT     BB282461  62.180  56.345  58.000
12687DT     BB382462  62.226  56.290  57.805
12687DT     SC182463  62.070  56.079  57.819
12687DT     SC282464  62.190  55.901  57.820
12687DT     SC382465  61.871  55.915  57.767
12688DA     BB182466  62.540  56.516  57.975
12688DA     BB282467  62.686  56.228  57.801
12688DA     BB382468  62.661  56.248  57.590
12688DA     SC182469  62.388  56.099  57.583
12688DA     SC282470  62.298  55.882  57.499
12688DA     SC382471  62.069  55.996  57.510
12688DA     SC482472  62.254  56.188  57.595
12689DT     BB182473  62.823  56.279  57.471
12689DT     BB282474  62.828  55.962  57.299
12689DT     BB382475  62.749  55.983  57.109
12689DT     SC182476  62.505  55.999  57.204
12689DT     SC282477  62.395  55.822  57.149
12689DT     SC382478  62.267  56.097  57.263
12690DA     BB182479  63.128  55.840  56.956
12690DA     BB282480  62.872  55.662  56.762
12690DA     BB382481  62.797  55.787  56.606
12690DA     SC182482  62.567  55.905  56.779
12690DA     SC282483  62.318  55.892  56.789
12690DA     SC382484  62.332  56.111  56.921
12690DA     SC482485  62.596  56.042  56.858
12691DA     BB182486  62.863  55.640  56.245
12691DA     BB282487  62.502  55.605  56.190
12691DA     BB382488  62.427  55.772  56.081
12691DA     SC182489  62.359  55.938  56.336
12691DA     SC282490  62.156  56.017  56.457
12691DA     SC382491  62.311  56.190  56.564
12691DA     SC482492  62.472  56.039  56.391
12692DG     BB182493  62.298  55.687  55.734
12692DG     BB282494  61.972  55.756  55.875
12692DG     BB382495  61.905  55.931  55.808
12692DG     SC182496  62.030  56.094  56.035
12692DG     SC282497  61.880  56.242  56.247
12692DG     SC382498  62.169  56.306  56.257
12692DG     SC482499  62.179  56.148  56.018
12693DA     BB182500  61.592  55.817  55.669
12693DA     BB282501  61.407  56.000  55.927
12693DA     BB382502  61.364  56.198  55.860
12693DA     SC182503  61.625  56.321  55.978
12693DA     SC282504  61.689  56.475  56.163
12693DA     SC382505  61.908  56.507  56.033
12693DA     SC482506  61.753  56.328  55.882
12694DT     BB182507  61.167  56.252  55.832
12694DT     BB282508  61.138  56.437  56.141
12694DT     BB382509  61.129  56.640  56.101
12694DT     SC182510  61.386  56.649  56.047
12694DT     SC282511  61.487  56.758  56.202
12694DT     SC382512  61.610  56.680  55.913
12695DT     BB182513  60.880  56.615  56.184
12695DT     BB282514  61.032  56.854  56.407
12695DT     BB382515  61.032  57.042  56.320
12695DT     SC182516  61.227  56.976  56.157
12695DT     SC282517  61.405  57.083  56.213
12695DT     SC382518  61.357  56.926  55.934
12696DT     BB182519  60.851  57.100  56.505
12696DT     BB282520  61.117  57.339  56.554
12696DT     BB382521  61.095  57.497  56.423
12696DT     SC182522  61.179  57.351  56.221
12696DT     SC282523  61.372  57.422  56.158
12696DT     SC382524  61.178  57.222  55.991
12697DT     BB182525  61.023  57.650  56.632
12697DT     BB282526  61.303  57.823  56.484
12697DT     BB382527  61.238  57.943  56.328
12697DT     SC182528  61.202  57.736  56.172
12697DT     SC282529  61.349  57.739  56.015
12697DT     SC382530  61.082  57.557  56.020
12698DA     BB182531  61.459  58.199  56.577
12698DA     BB282532  61.577  58.250  56.234
12698DA     BB382533  61.435  58.364  56.122
12698DA     SC182534  61.279  58.115  56.020
12698DA     SC282535  61.244  57.995  55.803
12698DA     SC382536  61.036  57.895  55.916
12698DA     SC482537  61.154  58.064  56.107
12699DA     BB182538  61.688  58.567  56.061
12699DA     BB282539  61.647  58.484  55.706
12699DA     BB382540  61.485  58.594  55.623
12699DA     SC182541  61.272  58.376  55.686
12699DA     SC282542  61.131  58.214  55.559
12699DA     SC382543  60.984  58.209  55.770
12699DA     SC482544  61.193  58.388  55.825
12700DA     BB182545  61.720  58.676  55.414
12700DA     BB282546  61.521  58.507  55.157
12700DA     BB382547  61.356  58.629  55.098
12700DA     SC182548  61.162  58.511  55.310
12700DA     SC282549  60.959  58.365  55.313
12700DA     SC382550  60.916  58.466  55.545
12700DA     SC482551  61.152  58.586  55.452
12701DA     BB182552  61.510  58.542  54.829
12701DA     BB282553  61.196  58.375  54.737
12701DA     BB382554  61.048  58.520  54.687
12701DA     SC182555  60.937  58.541  54.977
12701DA     SC282556  60.730  58.477  55.100
12701DA     SC382557  60.803  58.652  55.273
12701DA     SC482558  60.999  58.655  55.072
12702DA     BB182559  61.076  58.282  54.465
12702DA     BB282560  60.722  58.219  54.536
12702DA     BB382561  60.604  58.386  54.475
12702DA     SC182562  60.621  58.530  54.750
12702DA     SC282563  60.468  58.584  54.940
12702DA     SC382564  60.641  58.763  55.002
12702DA     SC482565  60.739  58.636  54.771
12703DA     BB182566  60.477  58.106  54.360
12703DA     BB282567  60.173  58.207  54.537
12703DA     BB382568  60.091  58.384  54.449
12703DA     SC182569  60.249  58.578  54.634
12703DA     SC282570  60.199  58.735  54.821
12703DA     SC382571  60.425  58.842  54.763
12703DA     SC482572  60.391  58.631  54.582
12704DT     BB182573  59.929  58.348  54.377
12704DT     BB282574  59.727  58.528  54.615
12704DT     BB382575  59.682  58.716  54.541
12704DT     SC182576  59.925  58.802  54.589
12704DT     SC282577  59.920  58.945  54.750
12704DT     SC382578  60.168  58.896  54.547
12705DA     BB182579  59.321  58.538  54.660
12705DA     BB282580  59.327  58.880  54.793
12705DA     BB382581  59.299  59.021  54.635
12705DA     SC182582  59.602  59.052  54.575
12705DA     SC282583  59.779  59.226  54.601
12705DA     SC382584  59.907  59.093  54.423
12705DA     SC482585  59.666  58.956  54.462
12706DA     BB182586  59.055  59.129  54.829
12706DA     BB282587  59.227  59.453  54.838
12706DA     BB382588  59.198  59.558  54.654
12706DA     SC182589  59.451  59.440  54.518
12706DA     SC282590  59.675  59.520  54.444
12706DA     SC382591  59.678  59.312  54.293
12706DA     SC482592  59.433  59.306  54.431
12707DT     BB182593  59.090  59.729  54.656
12707DT     BB282594  59.366  59.957  54.612
12707DT     BB382595  59.367  60.029  54.418
12707DT     SC182596  59.460  59.802  54.326
12707DT     SC282597  59.662  59.829  54.259
12707DT     SC382598  59.472  59.576  54.191
12708DA     BB182599  59.385  60.359  54.676
12708DA     BB282600  59.645  60.402  54.420
12708DA     BB382601  59.557  60.454  54.233
12708DA     SC182602  59.528  60.160  54.137
12708DA     SC282603  59.630  60.011  53.965
12708DA     SC382604  59.420  59.867  53.993
12708DA     SC482605  59.390  60.085  54.168
12709DA     BB182606  59.779  60.694  54.266
12709DA     BB282607  59.923  60.577  53.950
12709DA     BB382608  59.796  60.630  53.786
12709DA     SC182609  59.633  60.365  53.796
12709DA     SC282610  59.605  60.160  53.656
12709DA     SC382611  59.384  60.129  53.783
12709DA     SC482612  59.499  60.364  53.884
12710DC     BB182613  59.864  60.764  53.653
12710DC     BB282614  59.917  60.540  53.376
12710DC     BB382615  59.764  60.560  53.238
12710DC     SC182616  59.597  60.430  53.392
12710DC     SC282617  59.552  60.239  53.304
12710DC     SC382618  59.388  60.379  53.545
12711DA     BB182619  60.105  60.623  52.996
12711DA     BB282620  59.887  60.390  52.814
12711DA     BB382621  59.723  60.494  52.727
12711DA     SC182622  59.537  60.457  52.973
12711DA     SC282623  59.330  60.330  53.031
12711DA     SC382624  59.303  60.500  53.221
12711DA     SC482625  59.537  60.573  53.084
12712DA     BB182626  59.797  60.385  52.412
12712DA     BB282627  59.471  60.218  52.402
12712DA     BB382628  59.318  60.356  52.346
12712DA     SC182629  59.253  60.439  52.639
12712DA     SC282630  59.066  60.411  52.802
12712DA     SC382631  59.168  60.613  52.923
12712DA     SC482632  59.331  60.567  52.699
12713DG     BB182633  59.236  60.205  52.068
12713DG     BB282634  58.922  60.145  52.237
12713DG     BB382635  58.794  60.292  52.196
12713DG     SC182636  58.880  60.465  52.434
12713DG     SC282637  58.713  60.531  52.672
12713DG     SC382638  58.963  60.689  52.671
12713DG     SC482639  59.000  60.568  52.414
12714DT     BB182640  58.576  60.279  52.072
12714DT     BB282641  58.349  60.289  52.353
12714DT     BB382642  58.245  60.467  52.353
12714DT     SC182643  58.455  60.599  52.438
12714DT     SC282644  58.421  60.664  52.641
12714DT     SC382645  58.655  60.770  52.444
12715DA     BB182646  57.968  60.156  52.379
12715DA     BB282647  57.898  60.393  52.649
12715DA     BB382648  57.805  60.569  52.572
12715DA     SC182649  58.073  60.720  52.526
12715DA     SC282650  58.194  60.915  52.623
12715DA     SC382651  58.324  60.918  52.402
12715DA     SC482652  58.142  60.706  52.381
12716DT     BB182653  57.637  60.585  52.640
12716DT     BB282654  57.709  60.852  52.871
12716DT     BB382655  57.651  61.033  52.790
12716DT     SC182656  57.856  61.035  52.627
12716DT     SC282657  57.993  61.190  52.686
12716DT     SC382658  57.994  61.034  52.402
12717DT     BB182659  57.476  61.016  52.982
12717DT     BB282660  57.651  61.326  53.039
12717DT     BB382661  57.577  61.473  52.914
12717DT     SC182662  57.699  61.370  52.706
12717DT     SC282663  57.857  61.501  52.644
12717DT     SC382664  57.735  61.256  52.471
12718DG     BB182665  57.568  61.586  53.306
12718DG     BB282666  57.721  61.837  53.096
12718DG     BB382667  57.582  61.931  52.989
12718DG     SC182668  57.597  61.735  52.754
12718DG     SC282669  57.696  61.799  52.479
12718DG     SC382670  57.574  61.530  52.487
12718DG     SC482671  57.505  61.605  52.755
12719DA     BB182672  57.722  62.227  53.108
12719DA     BB282673  57.775  62.342  52.764
12719DA     BB382674  57.589  62.399  52.676
12719DA     SC182675  57.530  62.117  52.560
12719DA     SC282676  57.520  62.008  52.335
12719DA     SC382677  57.379  61.828  52.452
12719DA     SC482678  57.443  62.016  52.650
12720DG     BB182679  57.692  62.700  52.639
12720DG     BB282680  57.649  62.633  52.286
12720DG     BB382681  57.460  62.669  52.233
12720DG     SC182682  57.364  62.384  52.292
12720DG     SC282683  57.268  62.186  52.090
12720DG     SC382684  57.220  62.088  52.365
12720DG     SC482685  57.313  62.349  52.440
12721DA     BB182686  57.527  62.905  51.967
12721DA     BB282687  57.368  62.687  51.719
12721DA     BB382688  57.157  62.717  51.718
12721DA     SC182689  57.099  62.498  51.931
12721DA     SC282690  56.993  62.273  51.939
12721DA     SC382691  56.971  62.315  52.191
12721DA     SC482692  57.093  62.544  52.085
12722DA     BB182693  57.160  62.791  51.387
12722DA     BB282694  56.955  62.492  51.330
12722DA     BB382695  56.749  62.536  51.364
12722DA     SC182696  56.757  62.459  51.665
12722DA     SC282697  56.667  62.278  51.812
12722DA     SC382698  56.706  62.443  52.004
12722DA     SC482699  56.787  62.576  51.771
12723DG     BB182700  56.676  62.469  51.059
12723DG     BB282701  56.498  62.191  51.207
12723DG     BB382702  56.312  62.245  51.251
12723DG     SC182703  56.379  62.343  51.533
12723DG     SC282704  56.287  62.219  51.788
12723DG     SC382705  56.421  62.477  51.839
12723DG     SC482706  56.425  62.495  51.553
12724DA     BB182707  56.198  61.971  51.070
12724DA     BB282708  56.050  61.831  51.375
12724DA     BB382709  55.863  61.924  51.416
12724DA     SC182710  55.986  62.148  51.594
12724DA     SC282711  55.989  62.212  51.835
12724DA     SC382712  56.056  62.445  51.751
12724DA     SC482713  56.026  62.286  51.522
12725DG     BB182714  55.767  61.633  51.386
12725DG     BB282715  55.698  61.672  51.739
12725DG     BB382716  55.525  61.765  51.765
12725DG     SC182717  55.647  62.046  51.765
12725DG     SC282718  55.657  62.233  51.998
12725DG     SC382719  55.744  62.369  51.750
12725DG     SC482720  55.664  62.123  51.626
12726DG     BB182721  55.458  61.501  51.935
12726DG     BB282722  55.435  61.724  52.218
12726DG     BB382723  55.259  61.816  52.218
12726DG     SC182724  55.355  62.052  52.049
12726DG     SC282725  55.380  62.335  52.141
12726DG     SC382726  55.420  62.316  51.848
12726DG     SC482727  55.346  62.042  51.889
12727DT     BB182728  55.161  61.778  52.383
12727DT     BB282729  55.190  62.091  52.561
12727DT     BB382730  55.021  62.206  52.529
12727DT     SC182731  55.098  62.266  52.286
12727DT     SC282732  55.152  62.474  52.277
12727DT     SC382733  55.100  62.280  52.022
12728DA     BB182734  55.148  62.178  52.931
12728DA     BB282735  55.082  62.529  52.850
12728DA     BB382736  54.874  62.559  52.815
12728DA     SC182737  54.892  62.505  52.509
12728DA     SC282738  54.872  62.635  52.297
12728DA     SC382739  54.831  62.407  52.186
12728DA     SC482740  54.867  62.354  52.459
12729DT     BB182741  54.831  62.667  52.937
12729DT     BB282742  54.776  62.957  52.728
12729DT     BB382743  54.578  62.964  52.668
12729DT     SC182744  54.615  62.770  52.496
12729DT     SC282745  54.602  62.848  52.296
12729DT     SC382746  54.592  62.535  52.378
12730DT     BB182747  54.585  63.169  52.825
12730DT     BB282748  54.461  63.293  52.509
12730DT     BB382749  54.262  63.242  52.487
12730DT     SC182750  54.324  62.992  52.436
12730DT     SC282751  54.282  62.948  52.229
12730DT     SC382752  54.339  62.730  52.461
12731DA     BB182753  54.296  63.654  52.411
12731DA     BB282754  54.083  63.509  52.150
12731DA     BB382755  53.894  63.454  52.232
12731DA     SC182756  53.983  63.164  52.304
12731DA     SC282757  53.936  62.932  52.226
12731DA     SC382758  54.026  62.859  52.454
12731DA     SC482759  54.041  63.139  52.451
12732DA     BB182760  53.766  63.643  51.989
12732DA     BB282761  53.587  63.345  51.872
12732DA     BB382762  53.423  63.301  52.002
12732DA     SC182763  53.588  63.115  52.188
12732DA     SC282764  53.601  62.872  52.242
12732DA     SC382765  53.717  62.946  52.458
12732DA     SC482766  53.658  63.181  52.317
12733DC     BB182767  53.211  63.320  51.947
12733DC     BB282768  53.138  62.968  51.924
12733DC     BB382769  53.021  62.910  52.085
12733DC     SC182770  53.227  62.920  52.248
12733DC     SC282771  53.280  62.721  52.309
12733DC     SC382772  53.382  62.995  52.448
12734DT     BB182773  52.772  62.887  51.948
12734DT     BB282774  52.814  62.563  52.100
12734DT     BB382775  52.725  62.561  52.287
12734DT     SC182776  52.920  62.703  52.390
12734DT     SC282777  53.034  62.580  52.525
12734DT     SC382778  53.047  62.904  52.505
12735DT     BB182779  52.494  62.407  52.219
12735DT     BB282780  52.644  62.220  52.489
12735DT     BB382781  52.564  62.280  52.670
12735DT     SC182782  52.701  62.504  52.665
12735DT     SC282783  52.853  62.498  52.818
12735DT     SC382784  52.755  62.762  52.657
12736DA     BB182785  52.502  61.864  52.674
12736DA     BB282786  52.667  61.953  52.989
12736DA     BB382787  52.527  62.042  53.123
12736DA     SC182788  52.583  62.333  53.026
12736DA     SC282789  52.690  62.540  53.115
12736DA     SC382790  52.554  62.662  52.934
12736DA     SC482791  52.489  62.391  52.909
12737DT     BB182792  52.470  61.947  53.306
12737DT     BB282793  52.671  62.156  53.521
12737DT     BB382794  52.549  62.285  53.628
12737DT     SC182795  52.508  62.435  53.416
12737DT     SC282796  52.607  62.624  53.443
12737DT     SC382797  52.382  62.556  53.219
12738DC     BB182798  52.595  62.145  53.858
12738DC     BB282799  52.711  62.479  53.928
12738DC     BB382800  52.555  62.596  53.998
12738DC     SC182801  52.451  62.615  53.758
12738DC     SC282802  52.471  62.817  53.687
12738DC     SC382803  52.280  62.589  53.559
12739DA     BB182804  52.883  62.626  54.256
12739DA     BB282805  52.774  62.965  54.166
12739DA     BB382806  52.590  63.011  54.263
12739DA     SC182807  52.413  62.905  54.030
12739DA     SC282808  52.261  62.999  53.855
12739DA     SC382809  52.164  62.763  53.841
12739DA     SC482810  52.364  62.752  54.037
12740DA     BB182811  52.794  63.254  54.329
12740DA     BB282812  52.554  63.466  54.150
12740DA     BB382813  52.376  63.489  54.264
12740DA     SC182814  52.234  63.243  54.137
12740DA     SC282815  52.043  63.199  53.983
12740DA     SC382816  52.044  62.962  54.082
12740DA     SC482817  52.250  63.101  54.212
12741DG     BB182818  52.488  63.767  54.210
12741DG     BB282819  52.179  63.795  54.024
12741DG     BB382820  52.026  63.814  54.150
12741DG     SC182821  51.976  63.513  54.173
12741DG     SC282822  51.735  63.366  54.074
12741DG     SC382823  51.906  63.189  54.238
12741DG     SC482824  52.054  63.430  54.286
12742DT     BB182825  51.935  63.978  54.112
12742DT     BB282826  51.627  63.866  53.960
12742DT     BB382827  51.480  63.848  54.105
12742DT     SC182828  51.587  63.628  54.198
12742DT     SC282829  51.459  63.461  54.152
12742DT     SC382830  51.704  63.460  54.365
12743DT     BB182831  51.380  64.054  53.979
12743DT     BB282832  51.118  63.806  53.979
12743DT     BB382833  51.021  63.806  54.162
12743DT     SC182834  51.222  63.684  54.278
12743DT     SC282835  51.163  63.484  54.330
12743DT     SC382836  51.426  63.640  54.440
12744DT     BB182837  50.804  63.924  54.048
12744DT     BB282838  50.670  63.631  54.209
12744DT     BB382839  50.626  63.673  54.407
12744DT     SC182840  50.880  63.669  54.472
12744DT     SC282841  50.920  63.496  54.594
12744DT     SC382842  51.117  63.751  54.556
12745DG     BB182843  50.254  63.568  54.266
12745DG     BB282844  50.331  63.385  54.567
12745DG     BB382845  50.293  63.497  54.727
12745DG     SC182846  50.574  63.619  54.738
12745DG     SC282847  50.775  63.574  54.954
12745DG     SC382848  50.864  63.787  54.769
12745DG     SC482849  50.604  63.752  54.655
12746DA     BB182850  50.071  63.264  54.887
12746DA     BB282851  50.296  63.237  55.175
12746DA     BB382852  50.261  63.397  55.313
12746DA     SC182853  50.470  63.587  55.183
12746DA     SC282854  50.693  63.683  55.241
12746DA     SC382855  50.639  63.860  55.062
12746DA     SC482856  50.418  63.688  55.069
12747DT     BB182857  50.169  63.382  55.531
12747DT     BB282858  50.485  63.420  55.701
12747DT     BB382859  50.489  63.600  55.804
12747DT     SC182860  50.520  63.736  55.582
12747DT     SC282861  50.719  63.819  55.577
12747DT     SC382862  50.472  63.905  55.385
12748DC     BB182863  50.467  63.475  56.051
12748DC     BB282864  50.780  63.654  56.064
12748DC     BB382865  50.750  63.844  56.139
12748DC     SC182866  50.642  63.924  55.913
12748DC     SC282867  50.774  64.063  55.816
12748DC     SC382868  50.463  64.014  55.741
12749DT     BB182869  50.886  63.747  56.338
12749DT     BB282870  51.081  64.021  56.208
12749DT     BB382871  51.011  64.200  56.285
12749DT     SC182872  50.801  64.193  56.127
12749DT     SC282873  50.818  64.348  55.979
12749DT     SC382874  50.549  64.182  56.049
12750DA     BB182875  51.427  64.109  56.244
12750DA     BB282876  51.358  64.444  56.112
12750DA     BB382877  51.285  64.572  56.267
12750DA     SC182878  50.986  64.503  56.217
12750DA     SC282879  50.783  64.617  56.128
12750DA     SC382880  50.651  64.435  56.251
12750DA     SC482881  50.922  64.382  56.301
12751DA     BB182882  51.514  64.677  56.035
12751DA     BB282883  51.279  64.957  55.999
12751DA     BB382884  51.243  65.048  56.189
12751DA     SC182885  50.999  64.867  56.257
12751DA     SC282886  50.752  64.891  56.281
12751DA     SC382887  50.764  64.674  56.417
12751DA     SC482888  51.028  64.732  56.340
12752DG     BB182889  51.332  65.253  55.967
12752DG     BB282890  51.022  65.406  56.072
12752DG     BB382891  51.035  65.463  56.263
12752DG     SC182892  50.933  65.197  56.375
12752DG     SC282893  50.676  65.154  56.519
12752DG     SC382894  50.845  64.912  56.533
12752DG     SC482895  51.039  65.080  56.405
12753DC     BB182896  51.024  65.671  56.316
12753DC     BB282897  50.711  65.696  56.493
12753DC     BB382898  50.744  65.692  56.697
12753DC     SC182899  50.791  65.433  56.691
12753DC     SC282900  50.631  65.329  56.790
12753DC     SC382901  50.920  65.204  56.713
12754DG     BB182902  50.572  66.066  56.668
12754DG     BB282903  50.414  65.875  56.931
12754DG     BB382904  50.523  65.885  57.097
12754DG     SC182905  50.692  65.639  57.031
12754DG     SC282906  50.689  65.380  57.179
12754DG     SC382907  50.908  65.386  56.981
12754DG     SC482908  50.826  65.657  56.945
12755DT     BB182909  50.470  65.992  57.321
12755DT     BB282910  50.401  65.697  57.518
12755DT     BB382911  50.553  65.667  57.656
12755DT     SC182912  50.716  65.581  57.469
12755DT     SC282913  50.751  65.371  57.496
12755DT     SC382914  50.925  65.569  57.309
12756DA     BB182915  50.204  65.669  57.888
12756DA     BB282916  50.394  65.368  57.977
12756DA     BB382917  50.559  65.419  58.102
12756DA     SC182918  50.757  65.460  57.866
12756DA     SC282919  50.958  65.345  57.771
12756DA     SC382920  51.008  65.570  57.659
12756DA     SC482921  50.772  65.608  57.806
12757DT     BB182922  50.556  65.350  58.289
12757DT     BB282923  50.804  65.092  58.242
12757DT     BB382924  50.984  65.150  58.326
12757DT     SC182925  51.031  65.318  58.130
12757DT     SC282926  51.195  65.245  58.011
12757DT     SC382927  51.072  65.545  58.002
12758DT     BB182928  50.934  64.963  58.506
12758DT     BB282929  51.254  64.875  58.363
12758DT     BB382930  51.405  64.983  58.455
12758DT     SC182931  51.337  65.201  58.326
12758DT     SC282932  51.490  65.250  58.183
12758DT     SC382933  51.252  65.447  58.281
12759DC     BB182934  51.476  64.753  58.564
12759DC     BB282935  51.772  64.871  58.395
12759DC     BB382936  51.871  65.008  58.514
12759DC     SC182937  51.693  65.194  58.463
12759DC     SC282938  51.781  65.346  58.341
12759DC     SC382939  51.501  65.371  58.502
12760DT     BB182940  52.069  64.827  58.569
12760DT     BB282941  52.247  65.114  58.441
12760DT     BB382942  52.287  65.246  58.595
12760DT     SC182943  52.037  65.326  58.602
12760DT     SC282944  52.025  65.528  58.530
12760DT     SC382945  51.793  65.370  58.692
12761DC     BB182946  52.567  65.188  58.626
12761DC     BB282947  52.562  65.546  58.579
12761DC     BB382948  52.551  65.641  58.762
12761DC     SC182949  52.297  65.579  58.787
12761DC     SC282950  52.178  65.757  58.770
12761DC     SC382951  52.077  65.471  58.884
12762DG     BB182952  52.914  65.791  58.634
12762DG     BB282953  52.693  66.061  58.730
12762DG     BB382954  52.701  66.089  58.927
12762DG     SC182955  52.476  65.892  58.989
12762DG     SC282956  52.208  65.961  59.101
12762DG     SC382957  52.247  65.668  59.095
12762DG     SC482958  52.512  65.737  59.012
12763DT     BB182959  52.783  66.288  59.048
12763DT     BB282960  52.468  66.434  59.147
12763DT     BB382961  52.441  66.415  59.351
12763DT     SC182962  52.387  66.159  59.327
12763DT     SC282963  52.179  66.126  59.372
12763DT     SC382964  52.407  65.897  59.353
12764DG     BB182965  52.428  66.818  59.286
12764DG     BB282966  52.135  66.705  59.465
12764DG     BB382967  52.177  66.684  59.658
12764DG     SC182968  52.264  66.392  59.632
12764DG     SC282969  52.123  66.156  59.749
12764DG     SC382970  52.386  66.077  59.637
12764DG     SC482971  52.417  66.359  59.598
12765DA     BB182972  51.902  66.886  59.723
12765DA     BB282973  51.745  66.613  59.911
12765DA     BB382974  51.833  66.596  60.104
12765DA     SC182975  52.051  66.393  60.014
12765DA     SC282976  52.104  66.152  60.049
12765DA     SC382977  52.342  66.215  59.975
12765DA     SC482978  52.193  66.452  59.968
12766DA     BB182979  51.521  66.624  60.205
12766DA     BB282980  51.557  66.289  60.349
12766DA     BB382981  51.667  66.298  60.532
12766DA     SC182982  51.943  66.256  60.395
12766DA     SC282983  52.118  66.078  60.383
12766DA     SC382984  52.276  66.267  60.309
12766DA     SC482985  52.026  66.387  60.352
12767DT     BB182986  51.576  66.253  60.719
12767DT     BB282987  51.728  65.929  60.759
12767DT     BB382988  51.873  65.936  60.906
12767DT     SC182989  52.039  66.063  60.748
12767DT     SC282990  52.203  65.933  60.696
12767DT     SC382991  52.194  66.254  60.652
12768DT     BB182992  51.720  65.795  61.093
12768DT     BB282993  52.019  65.597  61.054
12768DT     BB382994  52.162  65.657  61.191
12768DT     SC182995  52.213  65.875  61.055
12768DT     SC282996  52.410  65.861  60.969
12768DT     SC382997  52.233  66.131  60.995
12769DG     BB182998  52.089  65.261  61.247
12769DG     BB282999  52.439  65.326  61.183
12769DG     BB383000  52.527  65.394  61.348
12769DG     SC183001  52.468  65.688  61.288
12769DG     SC283002  52.672  65.898  61.224
12769DG     SC383003  52.405  66.018  61.263
12769DG     SC483004  52.331  65.752  61.338
12770DC     BB183005  52.673  65.277  61.398
12770DC     BB283006  52.956  65.472  61.288
12770DC     BB383007  53.038  65.575  61.448
12770DC     SC183008  52.840  65.747  61.449
12770DC     SC283009  52.912  65.939  61.384
12770DC     SC383010  52.629  65.882  61.531
12771DT     BB183011  53.194  65.410  61.339
12771DT     BB283012  53.342  65.737  61.305
12771DT     BB383013  53.402  65.807  61.490
12771DT     SC183014  53.154  65.858  61.560
12771DT     SC283015  53.124  66.071  61.571
12771DT     SC383016  52.925  65.845  61.692
12772DA     BB183017  53.622  65.865  61.116
12772DA     BB283018  53.618  66.174  61.314
12772DA     BB383019  53.708  66.141  61.504
12772DA     SC183020  53.441  66.063  61.644
12772DA     SC283021  53.287  66.159  61.814
12772DA     SC383022  53.201  65.919  61.843
12772DA     SC483023  53.403  65.907  61.648
12773DA     BB183024  53.819  66.418  61.353
12773DA     BB283025  53.726  66.582  61.668
12773DA     BB383026  53.839  66.500  61.830
12773DA     SC183027  53.628  66.280  61.896
12773DA     SC283028  53.466  66.230  62.079
12773DA     SC383029  53.471  65.989  61.989
12773DA     SC483030  53.646  66.137  61.826
12774DT     BB183031  53.957  66.621  61.906
12774DT     BB283032  53.792  66.663  62.225
12774DT     BB383033  53.881  66.541  62.367
12774DT     SC183034  53.768  66.327  62.266
12774DT     SC283035  53.620  66.253  62.403
12774DT     SC383036  53.742  66.092  62.150
12775DT     BB183037  54.013  66.751  62.494
12775DT     BB283038  53.834  66.588  62.762
12775DT     BB383039  53.951  66.438  62.844
12775DT     SC183040  53.910  66.282  62.637
12775DT     SC283041  53.786  66.116  62.697
12775DT     SC383042  53.958  66.136  62.423
12776DA     BB183043  53.856  66.669  63.183
12776DA     BB283044  53.788  66.319  63.269
12776DA     BB383045  53.970  66.215  63.309
12776DA     SC183046  54.011  66.123  63.015
12776DA     SC283047  54.004  65.910  62.886
12776DA     SC383048  54.145  66.034  62.711
12776DA     SC483049  54.100  66.217  62.919
12777DC     BB183050  54.022  66.141  63.506
12777DC     BB283051  53.958  65.793  63.436
12777DC     BB383052  54.137  65.689  63.427
12777DC     SC183053  54.192  65.790  63.191
12777DC     SC283054  54.180  65.636  63.042
12777DC     SC383055  54.317  65.927  63.002
12778DA     BB183056  53.891  65.484  63.695
12778DA     BB283057  54.023  65.239  63.456
12778DA     BB383058  54.229  65.200  63.497
12778DA     SC183059  54.335  65.423  63.309
12778DA     SC283060  54.457  65.440  63.092
12778DA     SC383061  54.515  65.678  63.166
12778DA     SC483062  54.362  65.568  63.373
12779DT     BB183063  54.267  65.019  63.554
12779DT     BB283064  54.422  64.907  63.248
12779DT     BB383065  54.628  64.904  63.270
12779DT     SC183066  54.641  65.166  63.254
12779DT     SC283067  54.735  65.221  63.068
12779DT     SC383068  54.685  65.417  63.322
12780DA     BB183069  54.501  64.534  63.116
12780DA     BB283070  54.784  64.651  62.914
12780DA     BB383071  54.966  64.637  63.027
12780DA     SC183072  54.944  64.926  63.141
12780DA     SC283073  55.062  65.144  63.115
12780DA     SC383074  54.957  65.205  63.341
12780DA     SC483075  54.871  64.944  63.283
12781DT     BB183076  55.110  64.503  62.970
12781DT     BB283077  55.349  64.740  62.840
12781DT     BB383078  55.505  64.763  62.974
12781DT     SC183079  55.356  64.907  63.135
12781DT     SC283080  55.425  65.111  63.133
12781DT     SC383081  55.224  64.980  63.351
12782DC     BB183082  55.681  64.619  62.817
12782DC     BB283083  55.849  64.935  62.870
12782DC     BB383084  55.960  64.927  63.044
12782DC     SC183085  55.744  64.947  63.192
12782DC     SC283086  55.741  65.139  63.289
12782DC     SC383087  55.556  64.884  63.366
12783DA     BB183088  56.251  65.043  62.761
12783DA     BB283089  56.278  65.274  63.044
12783DA     BB383090  56.379  65.180  63.207
12783DA     SC183091  56.118  65.071  63.337
12783DA     SC283092  55.981  65.114  63.541
12783DA     SC383093  55.884  64.880  63.500
12783DA     SC483094  56.070  64.923  63.296
12784DT     BB183095  56.585  65.236  63.286
12784DT     BB283096  56.466  65.406  63.582
12784DT     BB383097  56.514  65.296  63.750
12784DT     SC183098  56.326  65.121  63.700
12784DT     SC283099  56.170  65.139  63.847
12784DT     SC383100  56.210  64.891  63.642
12785DG     BB183101  56.703  65.654  63.811
12785DG     BB283102  56.485  65.573  64.088
12785DG     BB383103  56.576  65.446  64.211
12785DG     SC183104  56.475  65.195  64.067
12785DG     SC283105  56.283  64.995  64.177
12785DG     SC383106  56.398  64.900  63.922
12785DG     SC483107  56.560  65.135  63.945
12786DA     BB183108  56.492  65.672  64.454
12786DA     BB283109  56.287  65.416  64.617
12786DA     BB383110  56.411  65.278  64.723
12786DA     SC183111  56.442  65.083  64.483
12786DA     SC283112  56.366  64.854  64.420
12786DA     SC383113  56.559  64.858  64.252
12786DA     SC483114  56.568  65.104  64.386
12787DG     BB183115  56.227  65.393  64.937
12787DG     BB283116  56.107  65.052  64.942
12787DG     BB383117  56.235  64.937  65.043
12787DG     SC183118  56.404  64.867  64.797
12787DG     SC283119  56.428  64.596  64.673
12787DG     SC383120  56.622  64.785  64.554
12787DG     SC483121  56.526  64.962  64.757
12788DT     BB183122  56.138  64.858  65.183
12788DT     BB283123  56.109  64.515  65.074
12788DT     BB383124  56.265  64.403  65.149
12788DT     SC183125  56.434  64.509  64.978
12788DT     SC283126  56.493  64.359  64.835
12788DT     SC383127  56.640  64.645  64.884
12789DA     BB183128  55.878  64.232  65.179
12789DA     BB283129  56.113  63.981  65.053
12789DA     BB383130  56.258  63.933  65.202
12789DA     SC183131  56.460  64.150  65.110
12789DA     SC283132  56.684  64.160  65.000
12789DA     SC383133  56.699  64.396  65.098
12789DA     SC483134  56.452  64.295  65.181
12790DA     BB183135  56.134  63.650  65.084
12790DA     BB283136  56.482  63.563  65.011
12790DA     BB383137  56.593  63.543  65.192
12790DA     SC183138  56.682  63.841  65.198
12790DA     SC283139  56.893  63.971  65.169
12790DA     SC383140  56.771  64.158  65.296
12790DA     SC483141  56.590  63.944  65.280
12791DC     BB183142  56.653  63.368  65.225
12791DC     BB283143  57.006  63.421  65.174
12791DC     BB383144  57.100  63.449  65.357
12791DC     SC183145  57.003  63.692  65.379
12791DC     SC283146  57.163  63.834  65.359
12791DC     SC383147  56.866  63.896  65.473
12792DT     BB183148  57.216  63.196  65.360
12792DT     BB283149  57.496  63.416  65.416
12792DT     BB383150  57.518  63.452  65.619
12792DT     SC183151  57.310  63.613  65.621
12792DT     SC283152  57.377  63.815  65.653
12792DT     SC383153  57.071  63.709  65.679
12793DG     BB183154  57.883  63.272  65.549
12793DG     BB283155  57.930  63.583  65.726
12793DG     BB383156  57.905  63.555  65.921
12793DG     SC183157  57.604  63.613  65.915
12793DG     SC283158  57.468  63.846  66.042
12793DG     SC383159  57.270  63.650  65.942
12793DG     SC483160  57.503  63.492  65.887
12794DT     BB183161  58.072  63.573  66.113
12794DT     BB283162  57.970  63.887  66.258
12794DT     BB383163  57.882  63.854  66.443
12794DT     SC183164  57.663  63.763  66.331
12794DT     SC283165  57.503  63.903  66.362
12794DT     SC383166  57.470  63.597  66.263
12795DA     BB183167  58.184  64.131  66.539
12795DA     BB283168  57.872  64.259  66.683
12795DA     BB383169  57.825  64.153  66.863
12795DA     SC183170  57.655  63.935  66.719
12795DA     SC283171  57.415  63.868  66.703
12795DA     SC383172  57.505  63.641  66.624
12795DA     SC483173  57.730  63.801  66.673
12796DT     BB183174  57.827  64.247  67.057
12796DT     BB283175  57.469  64.271  67.094
12796DT     BB383176  57.404  64.137  67.238
12796DT     SC183177  57.436  63.934  67.074
12796DT     SC283178  57.244  63.855  67.019
12796DT     SC383179  57.529  63.709  66.974
12797DA     BB183180  57.248  64.509  67.352
12797DA     BB283181  56.972  64.267  67.355
12797DA     BB383182  56.986  64.140  67.526
12797DA     SC183183  57.157  63.925  67.381
12797DA     SC283184  57.129  63.690  67.300
12797DA     SC383185  57.385  63.680  67.304
12797DA     SC483186  57.317  63.937  67.392
12798DT     BB183187  56.841  64.150  67.675
12798DT     BB283188  56.672  63.843  67.588
12798DT     BB383189  56.715  63.697  67.728
12798DT     SC183190  56.957  63.665  67.631
12798DT     SC283191  56.970  63.473  67.535
12798DT     SC383192  57.221  63.662  67.617
12799DA     BB183193  56.298  63.712  67.698
12799DA     BB283194  56.400  63.362  67.664
12799DA     BB383195  56.457  63.282  67.854
12799DA     SC183196  56.756  63.360  67.823
12799DA     SC283197  56.975  63.244  67.791
12799DA     SC383198  57.080  63.460  67.880
12799DA     SC483199  56.803  63.502  67.882
12800DA     BB183200  56.234  63.056  67.774
12800DA     BB283201  56.507  62.811  67.782
12800DA     BB383202  56.556  62.762  67.983
12800DA     SC183203  56.771  62.985  68.011
12800DA     SC283204  57.019  63.001  68.031
12800DA     SC383205  56.976  63.234  68.127
12800DA     SC483206  56.724  63.127  68.070
12801DC     BB183207  56.522  62.574  68.040
12801DC     BB283208  56.866  62.467  68.035
12801DC     BB383209  56.938  62.451  68.228
12801DC     SC183210  56.955  62.712  68.252
12801DC     SC283211  57.162  62.769  68.258
12801DC     SC383212  56.910  62.956  68.339
12802DC     BB183213  56.937  62.192  68.179
12802DC     BB283214  57.279  62.273  68.261
12802DC     BB383215  57.303  62.277  68.466
12802DC     SC183216  57.179  62.508  68.483
12802DC     SC283217  57.320  62.661  68.537
12802DC     SC383218  56.998  62.688  68.548
12803DA     BB183219  57.600  62.045  68.280
12803DA     BB283220  57.762  62.274  68.517
12803DA     BB383221  57.717  62.217  68.718
12803DA     SC183222  57.463  62.395  68.738
12803DA     SC283223  57.391  62.602  68.858
12803DA     SC383224  57.152  62.522  68.810
12803DA     SC483225  57.322  62.328  68.699
12804DA     BB183226  58.045  62.237  68.722
12804DA     BB283227  58.003  62.488  68.987
12804DA     BB383228  57.938  62.395  69.167
12804DA     SC183229  57.635  62.429  69.105
12804DA     SC283230  57.443  62.563  69.190
12804DA     SC383231  57.296  62.385  69.077
12804DA     SC483232  57.561  62.308  69.029
12805DA     BB183233  58.202  62.550  69.293
12805DA     BB283234  57.971  62.724  69.519
12805DA     BB383235  57.906  62.593  69.674
12805DA     SC183236  57.657  62.490  69.517
12805DA     SC283237  57.409  62.511  69.531
12805DA     SC383238  57.404  62.299  69.386
12805DA     SC483239  57.675  62.358  69.428
12806DA     BB183240  58.016  62.823  69.888
12806DA     BB283241  57.672  62.852  70.012
12806DA     BB383242  57.627  62.691  70.144
12806DA     SC183243  57.518  62.505  69.919
12806DA     SC283244  57.298  62.412  69.848
12806DA     SC383245  57.436  62.236  69.723
12806DA     SC483246  57.621  62.404  69.850
12807DT     BB183247  57.592  62.713  70.364
12807DT     BB283248  57.234  62.669  70.350
12807DT     BB383249  57.181  62.488  70.434
12807DT     SC183250  57.268  62.356  70.224
12807DT     SC283251  57.100  62.272  70.118
12807DT     SC383252  57.412  62.192  70.076
12808DA     BB183253  56.948  62.772  70.634
12808DA     BB283254  56.723  62.508  70.515
12808DA     BB383255  56.741  62.334  70.638
12808DA     SC183256  56.965  62.205  70.465
12808DA     SC283257  56.990  62.010  70.311
12808DA     SC383258  57.242  62.035  70.354
12808DA     SC483259  57.118  62.236  70.505
12809DA     BB183260  56.421  62.385  70.649
12809DA     BB283261  56.385  62.059  70.486
12809DA     BB383262  56.421  61.902  70.626
12809DA     SC183263  56.726  61.885  70.567
12809DA     SC283264  56.884  61.725  70.459
12809DA     SC383265  57.066  61.848  70.591
12809DA     SC483266  56.824  61.973  70.658
12810DC     BB183267  56.270  61.805  70.646
12810DC     BB283268  56.378  61.517  70.458
12810DC     BB383269  56.444  61.369  70.587
12810DC     SC183270  56.667  61.500  70.634
12810DC     SC283271  56.832  61.394  70.545
12810DC     SC383272  56.855  61.632  70.763
12811DA     BB183273  56.180  61.234  70.289
12811DA     BB283274  56.469  61.008  70.303
12811DA     BB383275  56.469  60.900  70.487
12811DA     SC183276  56.640  61.110  70.639
12811DA     SC283277  56.870  61.127  70.734
12811DA     SC383278  56.776  61.317  70.877
12811DA     SC483279  56.562  61.225  70.721
12812DT     BB183280  56.449  60.731  70.447
12812DT     BB283281  56.782  60.620  70.532
12812DT     BB383282  56.785  60.549  70.726
12812DT     SC183283  56.773  60.791  70.824
12812DT     SC283284  56.961  60.840  70.918
12812DT     SC383285  56.683  61.002  70.954
12813DT     BB183286  56.814  60.308  70.617
12813DT     BB283287  57.090  60.338  70.847
12813DT     BB383288  57.028  60.289  71.039
12813DT     SC183289  56.901  60.517  71.064
12813DT     SC283290  57.003  60.640  71.209
12813DT     SC383291  56.703  60.688  71.096
12814DA     BB183292  57.367  60.050  70.970
12814DA     BB283293  57.403  60.197  71.304
12814DA     BB383294  57.270  60.102  71.441
12814DA     SC183295  57.036  60.301  71.391
12814DA     SC283296  56.919  60.483  71.516
12814DA     SC383297  56.728  60.447  71.348
12814DA     SC483298  56.929  60.263  71.278
12815DC     BB183299  57.334  59.971  71.608
12815DC     BB283300  57.260  60.198  71.878
12815DC     BB383301  57.094  60.133  71.982
12815DC     SC183302  56.933  60.210  71.791
12815DC     SC283303  56.818  60.379  71.858
12815DC     SC383304  56.756  60.199  71.596
12816DA     BB183305  57.373  60.158  72.300
12816DA     BB283306  57.069  60.328  72.414
12816DA     BB383307  56.922  60.185  72.474
12816DA     SC183308  56.791  60.165  72.192
12816DA     SC283309  56.576  60.232  72.084
12816DA     SC383310  56.636  60.056  71.906
12816DA     SC483311  56.845  60.051  72.093
12817DA     BB183312  56.899  60.321  72.784
12817DA     BB283313  56.548  60.402  72.712
12817DA     BB383314  56.424  60.234  72.750
12817DA     SC183315  56.445  60.121  72.461
12817DA     SC283316  56.296  60.094  72.262
12817DA     SC383317  56.466  59.917  72.186
12817DA     SC483318  56.561  60.014  72.431
12818DA     BB183319  56.236  60.414  72.966
12818DA     BB283320  55.952  60.370  72.738
12818DA     BB383321  55.856  60.183  72.775
12818DA     SC183322  56.029  60.025  72.570
12818DA     SC283323  55.998  59.915  72.349
12818DA     SC383324  56.212  59.785  72.407
12818DA     SC483325  56.162  59.954  72.625
12819DT     BB183326  55.645  60.158  72.860
12819DT     BB283327  55.491  60.076  72.544
12819DT     BB383328  55.429  59.878  72.545
12819DT     SC183329  55.676  59.792  72.519
12819DT     SC283330  55.701  59.706  72.323
12819DT     SC383331  55.903  59.671  72.574
12820DT     BB183332  55.164  59.953  72.560
12820DT     BB283333  55.189  59.761  72.255
12820DT     BB383334  55.156  59.561  72.294
12820DT     SC183335  55.393  59.535  72.404
12820DT     SC283336  55.518  59.413  72.277
12820DT     SC383337  55.579  59.491  72.586
12821DT     BB183338  54.925  59.590  72.163
12821DT     BB283339  55.107  59.337  71.981
12821DT     BB383340  55.074  59.151  72.065
12821DT     SC183341  55.230  59.206  72.268
12821DT     SC283342  55.409  59.086  72.255
12821DT     SC383343  55.309  59.252  72.516
12822DT     BB183344  54.956  59.125  71.837
12822DT     BB283345  55.211  58.870  71.848
12822DT     BB383346  55.148  58.711  71.964
12822DT     SC183347  55.186  58.847  72.185
12822DT     SC283348  55.353  58.764  72.292
12822DT     SC383349  55.135  58.972  72.412
12823DT     BB183350  55.157  58.607  71.729
12823DT     BB283351  55.375  58.407  71.936
12823DT     BB383352  55.263  58.281  72.056
12823DT     SC183353  55.193  58.480  72.213
12823DT     SC283354  55.288  58.457  72.404
12823DT     SC383355  55.041  58.656  72.338
12824DC     BB183356  55.370  58.104  71.900
12824DC     BB283357  55.458  58.004  72.235
12824DC     BB383358  55.298  57.908  72.324
12824DC     SC183359  55.171  58.135  72.359
12824DC     SC283360  55.165  58.183  72.568
12824DC     SC383361  54.986  58.322  72.337
12825DT     BB183362  55.444  57.690  72.301
12825DT     BB283363  55.360  57.708  72.651
12825DT     BB383364  55.170  57.632  72.682
12825DT     SC183365  55.058  57.846  72.580
12825DT     SC283366  54.959  57.956  72.736
12825DT     SC383367  54.918  58.000  72.417
12826DT     BB183368  55.276  57.411  72.798
12826DT     BB283369  55.044  57.536  73.043
12826DT     BB383370  54.854  57.462  73.005
12826DT     SC183371  54.823  57.626  72.802
12826DT     SC283372  54.676  57.774  72.851
12826DT     SC383373  54.789  57.710  72.554
12827DG     BB183374  54.931  57.323  73.383
12827DG     BB283375  54.610  57.490  73.371
12827DG     BB383376  54.473  57.367  73.295
12827DG     SC183377  54.520  57.453  73.005
12827DG     SC283378  54.327  57.601  72.832
12827DG     SC383379  54.560  57.509  72.675
12827DG     SC483380  54.632  57.377  72.919
12828DT     BB183381  54.279  57.278  73.408
12828DT     BB283382  54.016  57.475  73.259
12828DT     BB383383  53.905  57.358  73.129
12828DT     SC183384  54.096  57.363  72.949
12828DT     SC283385  54.032  57.481  72.781
12828DT     SC383386  54.286  57.280  72.787
12829DA     BB183387  53.610  57.514  73.386
12829DA     BB283388  53.497  57.572  73.043
12829DA     BB383389  53.421  57.392  72.958
12829DA     SC183390  53.695  57.305  72.839
12829DA     SC283391  53.800  57.281  72.614
12829DA     SC383392  53.967  57.126  72.731
12829DA     SC483393  53.789  57.210  72.930
12830DT     BB183394  53.209  57.359  72.906
12830DT     BB283395  53.250  57.395  72.550
12830DT     BB383396  53.225  57.212  72.457
12830DT     SC183397  53.460  57.130  72.538
12830DT     SC283398  53.593  57.114  72.370
12830DT     SC383399  53.644  56.988  72.664
12831DA     BB183400  52.963  57.474  72.261
12831DA     BB283401  53.162  57.303  72.005
12831DA     BB383402  53.093  57.103  71.979
12831DA     SC183403  53.287  56.984  72.192
12831DA     SC283404  53.489  56.837  72.196
12831DA     SC383405  53.430  56.798  72.443
12831DA     SC483406  53.234  56.971  72.343
12832DT     BB183407  53.015  57.060  71.806
12832DT     BB283408  53.296  56.874  71.679
12832DT     BB383409  53.256  56.671  71.687
12832DT     SC183410  53.291  56.667  71.947
12832DT     SC283411  53.471  56.558  71.993
12832DT     SC383412  53.238  56.639  72.204
12833DG     BB183413  53.351  56.779  71.306
12833DG     BB283414  53.557  56.506  71.424
12833DG     BB383415  53.453  56.337  71.422
12833DG     SC183416  53.346  56.369  71.706
12833DG     SC283417  53.414  56.196  71.940
12833DG     SC383418  53.194  56.383  72.007
12833DG     SC483419  53.209  56.449  71.729
12834DA     BB183420  53.737  56.235  71.256
12834DA     BB283421  53.788  55.979  71.513
12834DA     BB383422  53.642  55.824  71.494
12834DA     SC183423  53.437  55.959  71.686
12834DA     SC283424  53.344  55.919  71.913
12834DA     SC383425  53.152  56.073  71.839
12834DA     SC483426  53.327  56.056  71.620
12835DT     BB183427  53.722  55.668  71.452
12835DT     BB283428  53.681  55.507  71.772
12835DT     BB383429  53.515  55.383  71.768
12835DT     SC183430  53.351  55.588  71.779
12835DT     SC283431  53.253  55.591  71.971
12835DT     SC383432  53.165  55.761  71.710
12836DT     BB183433  53.691  55.188  71.778
12836DT     BB283434  53.474  55.135  72.061
12836DT     BB383435  53.302  55.037  72.001
12836DT     SC183436  53.208  55.256  71.891
12836DT     SC283437  53.039  55.326  72.005
12836DT     SC383438  53.121  55.423  71.707
12837DT     BB183439  53.394  54.821  72.128
12837DT     BB283440  53.069  54.881  72.273
12837DT     BB383441  52.922  54.796  72.154
12837DT     SC183442  52.946  54.985  71.974
12837DT     SC283443  52.770  55.108  71.976
12837DT     SC383444  52.996  55.104  71.744
12838DG     BB183445  52.883  54.631  72.526
12838DG     BB283446  52.568  54.761  72.405
12838DG     BB383447  52.489  54.636  72.272
12838DG     SC183448  52.627  54.766  72.031
12838DG     SC283449  52.491  54.914  71.811
12838DG     SC383450  52.777  54.871  71.748
12838DG     SC483451  52.773  54.715  71.989
12839DT     BB183452  52.292  54.528  72.304
12839DT     BB283453  52.074  54.708  72.081
12839DT     BB383454  52.037  54.596  71.911
12839DT     SC183455  52.277  54.646  71.817
12839DT     SC283456  52.261  54.775  71.646
12839DT     SC383457  52.524  54.607  71.733
12840DT     BB183458  51.779  54.536  71.988
12840DT     BB283459  51.742  54.690  71.664
12840DT     BB383460  51.755  54.546  71.515
12840DT     SC183461  52.015  54.528  71.546
12840DT     SC283462  52.114  54.610  71.373
12840DT     SC383463  52.252  54.426  71.601
12841DA     BB183464  51.394  54.745  71.437
12841DA     BB283465  51.583  54.732  71.123
12841DA     BB383466  51.576  54.536  71.040
12841DA     SC183467  51.833  54.438  71.185
12841DA     SC283468  52.067  54.377  71.124
12841DA     SC383469  52.071  54.253  71.349
12841DA     SC483470  51.815  54.366  71.328
12842DC     BB183471  51.476  54.501  70.859
12842DC     BB283472  51.772  54.466  70.656
12842DC     BB383473  51.800  54.268  70.605
12842DC     SC183474  51.884  54.209  70.847
12842DC     SC283475  52.094  54.164  70.840
12842DC     SC383476  51.893  54.099  71.086
12843DA     BB183477  51.815  54.495  70.254
12843DA     BB283478  52.109  54.276  70.259
12843DA     BB383479  52.052  54.074  70.219
12843DA     SC183480  52.007  54.002  70.519
12843DA     SC283481  52.116  53.860  70.693
12843DA     SC383482  51.891  53.872  70.814
12843DA     SC483483  51.859  54.020  70.578
12844DT     BB183484  52.120  53.998  70.054
12844DT     BB283485  52.368  53.783  70.202
12844DT     BB383486  52.301  53.587  70.203
12844DT     SC183487  52.135  53.637  70.401
12844DT     SC283488  52.204  53.537  70.578
12844DT     SC383489  51.909  53.666  70.534
12845DG     BB183490  52.657  53.601  70.005
12845DG     BB283491  52.658  53.349  70.265
12845DG     BB383492  52.556  53.189  70.205
12845DG     SC183493  52.288  53.289  70.313
12845DG     SC283494  52.134  53.168  70.539
12845DG     SC383495  51.975  53.376  70.402
12845DG     SC483496  52.195  53.380  70.220
12846DC     BB183497  52.655  52.993  70.181
12846DC     BB283498  52.529  52.811  70.466
12846DC     BB383499  52.381  52.679  70.406
12846DC     SC183500  52.209  52.875  70.376
12846DC     SC283501  52.057  52.860  70.528
12846DC     SC383502  52.041  53.041  70.259
12847DA     BB183503  52.655  52.444  70.622
12847DA     BB283504  52.320  52.367  70.748
12847DA     BB383505  52.214  52.246  70.609
12847DA     SC183506  52.088  52.487  70.458
12847DA     SC283507  51.863  52.590  70.429
12847DA     SC383508  51.961  52.699  70.219
12847DA     SC483509  52.167  52.545  70.330
12848DT     BB183510  52.160  52.039  70.648
12848DT     BB283511  51.808  52.098  70.704
12848DT     BB383512  51.698  52.024  70.546
12848DT     SC183513  51.770  52.224  70.392
12848DT     SC283514  51.601  52.351  70.355
12848DT     SC383515  51.881  52.356  70.192
12849DA     BB183516  51.526  51.846  70.884
12849DA     BB283517  51.254  51.994  70.688
12849DA     BB383518  51.211  51.873  70.517
12849DA     SC183519  51.411  52.023  70.331
12849DA     SC283520  51.401  52.176  70.135
12849DA     SC383521  51.643  52.103  70.092
12849DA     SC483522  51.560  51.964  70.321
12850DG     BB183523  50.928  51.845  70.642
12850DG     BB283524  50.830  52.033  70.349
12850DG     BB383525  50.803  51.910  70.195
12850DG     SC183526  51.094  51.926  70.100
12850DG     SC283527  51.188  52.049  69.845
12850DG     SC383528  51.408  51.905  69.980
12850DG     SC483529  51.201  51.824  70.160
12851DT     BB183530  50.609  51.900  70.106
12851DT     BB283531  50.663  52.089  69.803
12851DT     BB383532  50.681  51.960  69.642
12851DT     SC183533  50.923  51.890  69.715
12851DT     SC283534  51.065  51.968  69.574
12851DT     SC383535  51.124  51.740  69.796
12852DT     BB183536  50.450  52.065  69.576
12852DT     BB283537  50.671  52.134  69.300
12852DT     BB383538  50.686  51.968  69.177
12852DT     SC183539  50.840  51.845  69.350
12852DT     SC283540  51.039  51.829  69.271
12852DT     SC383541  50.923  51.665  69.525
12853DA     BB183542  50.606  52.317  68.957
12853DA     BB283543  50.883  52.138  68.797
12853DA     BB383544  50.813  51.958  68.707
12853DA     SC183545  50.862  51.783  68.959
12853DA     SC283546  51.017  51.601  69.030
12853DA     SC383547  50.841  51.549  69.209
12853DA     SC483548  50.740  51.766  69.062
12854DA     BB183549  50.975  52.105  68.464
12854DA     BB283550  51.187  51.806  68.456
12854DA     BB383551  51.078  51.641  68.375
12854DA     SC183552  50.973  51.544  68.651
12854DA     SC283553  51.009  51.351  68.805
12854DA     SC383554  50.783  51.416  68.907
12854DA     SC483555  50.830  51.599  68.700
12855DA     BB183556  51.348  51.643  68.190
12855DA     BB283557  51.409  51.303  68.315
12855DA     BB383558  51.270  51.167  68.228
12855DA     SC183559  51.059  51.199  68.454
12855DA     SC283560  50.965  51.062  68.640
12855DA     SC383561  50.767  51.226  68.634
12855DA     SC483562  50.944  51.310  68.433
12856DT     BB183563  51.349  51.036  68.114
12856DT     BB283564  51.312  50.753  68.335
12856DT     BB383565  51.149  50.639  68.277
12856DT     SC183566  50.981  50.815  68.373
12856DT     SC283567  50.882  50.734  68.546
12856DT     SC383568  50.789  50.997  68.381
12857DC     BB183569  51.324  50.454  68.196
12857DC     BB283570  51.111  50.282  68.429
12857DC     BB383571  50.940  50.215  68.333
12857DC     SC183572  50.840  50.458  68.325
12857DC     SC283573  50.672  50.470  68.458
12857DC     SC383574  50.749  50.686  68.228
12858DT     BB183575  51.039  49.970  68.361
12858DT     BB283576  50.714  49.957  68.517
12858DT     BB383577  50.568  49.925  68.374
12858DT     SC183578  50.586  50.173  68.289
12858DT     SC283579  50.407  50.280  68.342
12858DT     SC383580  50.631  50.378  68.129
12859DT     BB183581  50.539  49.676  68.469
12859DT     BB283582  50.208  49.818  68.485
12859DT     BB383583  50.113  49.797  68.302
12859DT     SC183584  50.258  49.989  68.196
12859DT     SC283585  50.133  50.160  68.158
12859DT     SC383586  50.431  50.112  68.039
12860DT     BB183587  49.949  49.600  68.399
12860DT     BB283588  49.721  49.843  68.262
12860DT     BB383589  49.690  49.806  68.060
12860DT     SC183590  49.927  49.902  67.999
12860DT     SC283591  49.904  50.087  67.893
12860DT     SC383592  50.175  49.911  67.911
12861DA     BB183593  49.294  49.807  68.205
12861DA     BB283594  49.298  50.020  67.906
12861DA     BB383595  49.304  49.899  67.730
12861DA     SC183596  49.614  49.892  67.715
12861DA     SC283597  49.794  49.985  67.569
12861DA     SC383598  49.942  49.800  67.668
12861DA     SC483599  49.689  49.770  67.787
12862DA     BB183600  49.021  50.043  67.607
12862DA     BB283601  49.218  50.168  67.324
12862DA     BB383602  49.236  50.018  67.174
12862DA     SC183603  49.499  49.899  67.289
12862DA     SC283604  49.740  49.888  67.225
12862DA     SC383605  49.753  49.690  67.388
12862DA     SC483606  49.487  49.777  67.393
12863DT     BB183607  49.139  50.017  66.957
12863DT     BB283608  49.444  50.096  66.781
12863DT     BB383609  49.502  49.935  66.664
12863DT     SC183610  49.585  49.802  66.875
12863DT     SC283611  49.799  49.788  66.871
12863DT     SC383612  49.601  49.613  67.059
12864DT     BB183613  49.430  50.055  66.420
12864DT     BB283614  49.780  49.980  66.380
12864DT     BB383615  49.804  49.793  66.295
12864DT     SC183616  49.740  49.674  66.520
12864DT     SC283617  49.915  49.578  66.601
12864DT     SC383618  49.608  49.526  66.694
12865DG     BB183619  49.991  50.061  66.053
12865DG     BB283620  50.213  49.791  66.147
12865DG     BB383621  50.174  49.630  66.037
12865DG     SC183622  49.966  49.517  66.230
12865DG     SC283623  49.993  49.266  66.390
12865DG     SC383624  49.718  49.374  66.409
12865DG     SC483625  49.813  49.561  66.214
12866DG     BB183626  50.487  49.645  65.947
12866DG     BB283627  50.522  49.320  66.102
12866DG     BB383628  50.460  49.178  65.977
12866DG     SC183629  50.169  49.185  66.074
12866DG     SC283630  50.028  48.966  66.220
12866DG     SC383631  49.839  49.180  66.142
12866DG     SC483632  50.067  49.287  66.005
12867DA     BB183633  50.765  49.029  66.044
12867DA     BB283634  50.592  48.728  66.163
12867DA     BB383635  50.514  48.617  65.998
12867DA     SC183636  50.239  48.761  66.000
12867DA     SC283637  50.002  48.706  66.055
12867DA     SC383638  49.942  48.910  65.912
12867DA     SC483639  50.222  48.891  65.906
12868DA     BB183640  50.685  48.369  66.134
12868DA     BB283641  50.368  48.189  66.166
12868DA     BB383642  50.307  48.111  65.977
12868DA     SC183643  50.142  48.363  65.898
12868DA     SC283644  49.903  48.424  65.868
12868DA     SC383645  49.992  48.621  65.729
12868DA     SC483646  50.217  48.477  65.814
12869DG     BB183647  50.324  47.814  66.091
12869DG     BB283648  49.968  47.810  66.027
12869DG     BB383649  49.933  47.753  65.839
12869DG     SC183650  49.943  48.037  65.726
12869DG     SC283651  49.713  48.187  65.608
12869DG     SC383652  49.967  48.333  65.565
12869DG     SC483653  50.084  48.098  65.679
12870DA     BB183654  49.715  47.491  65.934
12870DA     BB283655  49.437  47.646  65.751
12870DA     BB383656  49.448  47.596  65.544
12870DA     SC183657  49.621  47.844  65.468
12870DA     SC283658  49.593  48.056  65.341
12870DA     SC383659  49.849  48.058  65.327
12870DA     SC483660  49.781  47.826  65.469
12871DT     BB183661  49.300  47.464  65.433
12871DT     BB283662  49.131  47.733  65.261
12871DT     BB383663  49.171  47.723  65.058
12871DT     SC183664  49.414  47.814  65.093
12871DT     SC283665  49.429  48.013  65.011
12871DT     SC383666  49.678  47.824  65.096
12872DA     BB183667  48.757  47.751  65.116
12872DA     BB283668  48.857  48.008  64.874
12872DA     BB383669  48.906  47.918  64.687
12872DA     SC183670  49.208  47.883  64.756
12872DA     SC283671  49.426  47.980  64.684
12872DA     SC383672  49.530  47.768  64.783
12872DA     SC483673  49.253  47.744  64.822
12873DT     BB183674  48.790  47.971  64.552
12873DT     BB283675  49.018  48.194  64.384
12873DT     BB383676  49.100  48.100  64.219
12873DT     SC183677  49.257  47.954  64.370
12873DT     SC283678  49.461  48.018  64.344
12873DT     SC383679  49.364  47.742  64.485
12874DT     BB183680  48.953  48.270  64.081
12874DT     BB283681  49.291  48.327  63.972
12874DT     BB383682  49.344  48.187  63.829
12874DT     SC183683  49.369  48.000  64.011
12874DT     SC283684  49.577  47.948  64.033
12874DT     SC383685  49.326  47.777  64.146
12875DA     BB183686  49.435  48.571  63.685
12875DA     BB283687  49.727  48.356  63.631
12875DA     BB383688  49.687  48.215  63.476
12875DA     SC183689  49.578  47.997  63.670
12875DA     SC283690  49.649  47.774  63.756
12875DA     SC383691  49.402  47.741  63.815
12875DA     SC483692  49.420  47.995  63.698
12876DG     BB183693  49.928  48.349  63.329
12876DG     BB283694  50.077  48.022  63.366
12876DG     BB383695  50.012  47.901  63.222
12876DG     SC183696  49.770  47.801  63.381
12876DG     SC283697  49.730  47.523  63.483
12876DG     SC383698  49.485  47.685  63.519
12876DG     SC483699  49.633  47.882  63.372
12877DC     BB183700  50.148  47.806  63.058
12877DC     BB283701  50.169  47.466  63.175
12877DC     BB383702  50.052  47.343  63.056
12877DC     SC183703  49.831  47.432  63.166
12877DC     SC283704  49.743  47.277  63.286
12877DC     SC383705  49.597  47.551  63.191
12878DT     BB183706  50.272  47.227  62.933
12878DT     BB283707  50.094  46.949  63.078
12878DT     BB383708  49.954  46.877  62.944
12878DT     SC183709  49.795  47.081  62.988
12878DT     SC283710  49.620  47.014  63.094
12878DT     SC383711  49.654  47.300  62.945
12879DG     BB183712  50.203  46.569  63.038
12879DG     BB283713  49.857  46.484  63.100
12879DG     BB383714  49.766  46.439  62.929
12879DG     SC183715  49.678  46.726  62.871
12879DG     SC283716  49.397  46.826  62.867
12879DG     SC383717  49.583  47.032  62.766
12879DG     SC483718  49.777  46.823  62.790
12880DA     BB183719  49.676  46.167  63.114
12880DA     BB283720  49.324  46.258  63.066
12880DA     BB383721  49.263  46.216  62.866
12880DA     SC183722  49.338  46.498  62.758
12880DA     SC283723  49.220  46.701  62.674
12880DA     SC383724  49.445  46.761  62.565
12880DA     SC483725  49.486  46.517  62.697
12881DT     BB183726  49.141  46.099  62.884
12881DT     BB283727  48.862  46.314  62.804
12881DT     BB383728  48.818  46.300  62.602
12881DT     SC183729  49.028  46.444  62.538
12881DT     SC283730  48.963  46.635  62.463
12881DT     SC383731  49.261  46.510  62.434
12882DA     BB183732  48.485  46.278  62.864
12882DA     BB283733  48.410  46.512  62.591
12882DA     BB383734  48.399  46.408  62.406
12882DA     SC183735  48.700  46.446  62.339
12882DA     SC283736  48.839  46.574  62.176
12882DA     SC383737  49.023  46.404  62.229
12882DA     SC483738  48.802  46.330  62.385
12883DT     BB183739  48.234  46.422  62.345
12883DT     BB283740  48.302  46.644  62.069
12883DT     BB383741  48.331  46.535  61.896
12883DT     SC183742  48.570  46.459  61.974
12883DT     SC283743  48.719  46.554  61.852
12883DT     SC383744  48.768  46.302  62.050
12884DT     BB183745  48.093  46.623  61.810
12884DT     BB283746  48.324  46.713  61.548
12884DT     BB383747  48.353  46.553  61.421
12884DT     SC183748  48.504  46.430  61.597
12884DT     SC283749  48.707  46.427  61.527
12884DT     SC383750  48.587  46.248  61.769
12885DT     BB183751  48.202  46.666  61.221
12885DT     BB283752  48.518  46.595  61.062
12885DT     BB383753  48.518  46.402  60.988
12885DT     SC183754  48.544  46.300  61.228
12885DT     SC283755  48.740  46.214  61.248
12885DT     SC383756  48.490  46.165  61.448
12886DA     BB183757  48.623  46.633  60.651
12886DA     BB283758  48.865  46.358  60.676
12886DA     BB383759  48.777  46.176  60.609
12886DA     SC183760  48.675  46.094  60.892
12886DA     SC283761  48.726  45.922  61.064
12886DA     SC383762  48.491  45.971  61.155
12886DA     SC483763  48.525  46.138  60.932
12887DT     BB183764  48.842  46.074  60.431
12887DT     BB283765  49.023  45.811  60.599
12887DT     BB383766  48.920  45.632  60.582
12887DT     SC183767  48.742  45.709  60.759
12887DT     SC283768  48.766  45.593  60.939
12887DT     SC383769  48.510  45.777  60.864
12888DA     BB183770  49.312  45.561  60.453
12888DA     BB283771  49.226  45.305  60.702
12888DA     BB383772  49.092  45.163  60.618
12888DA     SC183773  48.836  45.316  60.705
12888DA     SC283774  48.650  45.287  60.869
12888DA     SC383775  48.522  45.454  60.722
12888DA     SC483776  48.772  45.421  60.601
12889DT     BB183777  49.163  44.986  60.603
12889DT     BB283778  48.979  44.844  60.880
12889DT     BB383779  48.820  44.733  60.809
12889DT     SC183780  48.685  44.950  60.748
12889DT     SC283781  48.517  44.969  60.881
12889DT     SC383782  48.560  45.132  60.605
12890DC     BB183783  48.960  44.529  60.897
12890DC     BB283784  48.644  44.513  61.071
12890DC     BB383785  48.502  44.423  60.951
12890DC     SC183786  48.480  44.638  60.803
12890DC     SC283787  48.287  44.728  60.836
12890DC     SC383788  48.489  44.796  60.592
12891DG     BB183789  48.535  44.232  61.310
12891DG     BB283790  48.192  44.319  61.234
12891DG     BB383791  48.120  44.198  61.094
12891DG     SC183792  48.210  44.374  60.860
12891DG     SC283793  48.030  44.520  60.672
12891DG     SC383794  48.311  44.533  60.580
12891DG     SC483795  48.356  44.354  60.799
12892DA     BB183796  47.860  44.161  61.319
12892DA     BB283797  47.625  44.276  61.062
12892DA     BB383798  47.599  44.126  60.912
12892DA     SC183799  47.830  44.231  60.732
12892DA     SC283800  47.855  44.343  60.511
12892DA     SC383801  48.097  44.258  60.517
12892DA     SC483802  47.976  44.168  60.754
12893DG     BB183803  47.301  44.140  61.001
12893DG     BB283804  47.251  44.249  60.660
12893DG     BB383805  47.247  44.092  60.538
12893DG     SC183806  47.549  44.094  60.487
12893DG     SC283807  47.682  44.155  60.226
12893DG     SC383808  47.878  44.054  60.424
12893DG     SC483809  47.645  44.012  60.585
12894DC     BB183810  47.065  44.033  60.417
12894DC     BB283811  47.162  44.131  60.084
12894DC     BB383812  47.214  43.964  59.974
12894DC     SC183813  47.442  43.940  60.101
12894DC     SC283814  47.604  43.987  59.967
12894DC     SC383815  47.632  43.838  60.253
12895DA     BB183816  46.926  44.160  59.737
12895DA     BB283817  47.211  44.080  59.520
12895DA     BB383818  47.212  43.872  59.474
12895DA     SC183819  47.391  43.793  59.716
12895DA     SC283820  47.623  43.712  59.756
12895DA     SC383821  47.535  43.633  59.983
12895DA     SC483822  47.317  43.751  59.852
12896DT     BB183823  47.175  43.793  59.273
12896DT     BB283824  47.516  43.704  59.199
12896DT     BB383825  47.538  43.499  59.199
12896DT     SC183826  47.527  43.490  59.461
12896DT     SC283827  47.720  43.437  59.539
12896DT     SC383828  47.442  43.435  59.705
12897DA     BB183829  47.690  43.618  58.827
12897DA     BB283830  47.939  43.398  58.982
12897DA     BB383831  47.875  43.194  58.970
12897DA     SC183832  47.726  43.199  59.243
12897DA     SC283833  47.755  43.100  59.470
12897DA     SC383834  47.505  43.148  59.500
12897DA     SC483835  47.570  43.235  59.242
12898DA     BB183836  48.169  43.151  58.827
12898DA     BB283837  48.252  42.930  59.107
12898DA     BB383838  48.160  42.739  59.081
12898DA     SC183839  47.901  42.817  59.235
12898DA     SC283840  47.791  42.760  59.452
12898DA     SC383841  47.576  42.849  59.343
12898DA     SC483842  47.778  42.876  59.150
12899DA     BB183843  48.469  42.639  59.121
12899DA     BB283844  48.352  42.462  59.421
12899DA     BB383845  48.247  42.285  59.366
12899DA     SC183846  47.969  42.424  59.354
12899DA     SC283847  47.756  42.423  59.484
12899DA     SC383848  47.650  42.520  59.272
12899DA     SC483849  47.921  42.482  59.212
12900DA     BB183850  48.467  42.163  59.574
12900DA     BB283851  48.183  42.058  59.780
12900DA     BB383852  48.086  41.889  59.693
12900DA     SC183853  47.887  42.058  59.524
12900DA     SC283854  47.642  42.106  59.522
12900DA     SC383855  47.679  42.177  59.279
12900DA     SC483856  47.930  42.096  59.374
12901DT     BB183857  48.097  41.727  59.797
12901DT     BB283858  47.755  41.727  59.911
12901DT     BB383859  47.644  41.590  59.803
12901DT     SC183860  47.640  41.747  59.593
12901DT     SC283861  47.440  41.821  59.564
12901DT     SC383862  47.681  41.835  59.348
12902DA     BB183863  47.584  41.535  60.215
12902DA     BB283864  47.257  41.546  60.051
12902DA     BB383865  47.226  41.369  59.935
12902DA     SC183866  47.348  41.489  59.675
12902DA     SC283867  47.267  41.563  59.450
12902DA     SC383868  47.512  41.537  59.377
12902DA     SC483869  47.504  41.466  59.648
12903DA     BB183870  46.956  41.375  60.119
12903DA     BB283871  46.769  41.395  59.805
12903DA     BB383872  46.772  41.207  59.704
12903DA     SC183873  47.030  41.271  59.541
12903DA     SC283874  47.091  41.317  59.304
12903DA     SC383875  47.329  41.254  59.375
12903DA     SC483876  47.171  41.227  59.604
12904DA     BB183877  46.452  41.269  59.715
12904DA     BB283878  46.461  41.261  59.348
12904DA     BB383879  46.483  41.061  59.279
12904DA     SC183880  46.794  41.071  59.274
12904DA     SC283881  46.976  41.072  59.104
12904DA     SC383882  47.128  40.995  59.296
12904DA     SC483883  46.872  41.021  59.406
12905DG     BB183884  46.216  41.132  59.143
12905DG     BB283885  46.411  41.086  58.842
12905DG     BB383886  46.428  40.893  58.802
12905DG     SC183887  46.685  40.855  58.965
12905DG     SC283888  46.955  40.791  58.855
12905DG     SC383889  46.954  40.775  59.150
12905DG     SC483890  46.673  40.819  59.120
12906DT     BB183891  46.351  40.835  58.622
12906DT     BB283892  46.648  40.775  58.426
12906DT     BB383893  46.691  40.573  58.423
12906DT     SC183894  46.780  40.581  58.670
12906DT     SC283895  46.993  40.551  58.671
12906DT     SC383896  46.798  40.533  58.929
12907DT     BB183897  46.621  40.592  58.172
12907DT     BB283898  46.956  40.459  58.167
12907DT     BB383899  46.951  40.255  58.203
12907DT     SC183900  46.903  40.293  58.458
12907DT     SC283901  47.076  40.234  58.573
12907DT     SC383902  46.779  40.288  58.691
12908DT     BB183903  47.020  40.235  57.950
12908DT     BB283904  47.273  40.052  58.131
12908DT     BB383905  47.205  39.861  58.175
12908DT     SC183906  47.048  39.953  58.364
12908DT     SC283907  47.123  39.891  58.556
12908DT     SC383908  46.828  40.012  58.497
12909DG     BB183909  47.551  39.818  57.962
12909DG     BB283910  47.555  39.617  58.263
12909DG     BB383911  47.442  39.455  58.238
12909DG     SC183912  47.185  39.588  58.339
12909DG     SC283913  47.039  39.518  58.589
12909DG     SC383914  46.882  39.708  58.425
12909DG     SC483915  47.092  39.666  58.235
12910DA     BB183916  47.706  39.238  58.334
12910DA     BB283917  47.503  39.100  58.606
12910DA     BB383918  47.362  38.960  58.529
12910DA     SC183919  47.138  39.172  58.486
12910DA     SC283920  46.917  39.230  58.585
12910DA     SC383921  46.873  39.354  58.365
12910DA     SC483922  47.130  39.242  58.342
12911DT     BB183923  47.355  38.720  58.554
12911DT     BB283924  47.076  38.709  58.784
12911DT     BB383925  46.912  38.624  58.691
12911DT     SC183926  46.868  38.842  58.551
12911DT     SC283927  46.688  38.937  58.620
12911DT     SC383928  46.843  39.002  58.343
12912DC     BB183929  46.909  38.352  58.809
12912DC     BB283930  46.579  38.477  58.884
12912DC     BB383931  46.445  38.414  58.740
12912DC     SC183932  46.538  38.587  58.566
12912DC     SC283933  46.391  38.740  58.531
12912DC     SC383934  46.654  38.684  58.350
12913DA     BB183935  46.263  38.278  59.093
12913DA     BB283936  46.009  38.466  58.907
12913DA     BB383937  45.930  38.347  58.748
12913DA     SC183938  46.139  38.446  58.539
12913DA     SC283939  46.142  38.588  58.334
12913DA     SC383940  46.362  38.468  58.279
12913DA     SC483941  46.273  38.359  58.522
12914DA     BB183942  45.647  38.424  58.893
12914DA     BB283943  45.555  38.595  58.582
12914DA     BB383944  45.497  38.454  58.434
12914DA     SC183945  45.783  38.421  58.317
12914DA     SC283946  45.905  38.481  58.108
12914DA     SC383947  46.072  38.299  58.177
12914DA     SC483948  45.875  38.303  58.377
12915DA     BB183949  45.240  38.656  58.434
12915DA     BB283950  45.319  38.722  58.082
12915DA     BB383951  45.264  38.555  57.961
12915DA     SC183952  45.541  38.416  57.984
12915DA     SC283953  45.735  38.366  57.836
12915DA     SC383954  45.795  38.186  58.010
12915DA     SC483955  45.560  38.309  58.102
12916DA     BB183956  45.104  38.793  57.799
12916DA     BB283957  45.305  38.704  57.506
12916DA     BB383958  45.236  38.521  57.421
12916DA     SC183959  45.426  38.342  57.591
12916DA     SC283960  45.627  38.199  57.554
12916DA     SC383961  45.564  38.089  57.777
12916DA     SC483962  45.370  38.285  57.731
12917DT     BB183963  45.142  38.512  57.229
12917DT     BB283964  45.417  38.359  57.051
12917DT     BB383965  45.372  38.162  57.009
12917DT     SC183966  45.412  38.091  57.258
12917DT     SC283967  45.591  37.971  57.270
12917DT     SC383968  45.364  37.999  57.501
12918DT     BB183969  45.314  38.190  56.726
12918DT     BB283970  45.572  37.938  56.733
12918DT     BB383971  45.487  37.749  56.738
12918DT     SC183972  45.420  37.778  56.991
12918DT     SC283973  45.540  37.646  57.111
12918DT     SC383974  45.271  37.799  57.207
12919DC     BB183975  45.531  37.662  56.460
12919DC     BB283976  45.693  37.407  56.656
12919DC     BB383977  45.565  37.247  56.685
12919DC     SC183978  45.425  37.382  56.862
12919DC     SC283979  45.457  37.297  57.057
12919DC     SC383980  45.222  37.506  56.976
12920DT     BB183981  45.692  37.065  56.504
12920DT     BB283982  45.711  36.903  56.826
12920DT     BB383983  45.550  36.775  56.850
12920DT     SC183984  45.387  36.976  56.891
12920DT     SC283985  45.324  36.976  57.097
12920DT     SC383986  45.187  37.145  56.857
12921DT     BB183987  45.730  36.580  56.831
12921DT     BB283988  45.589  36.554  57.163
12921DT     BB383989  45.415  36.440  57.157
12921DT     SC183990  45.281  36.637  57.048
12921DT     SC283991  45.138  36.714  57.189
12921DT     SC383992  45.140  36.774  56.871
12922DA     BB183993  45.713  36.399  57.463
12922DA     BB283994  45.381  36.434  57.615
12922DA     BB383995  45.256  36.271  57.559
12922DA     SC183996  45.143  36.412  57.306
12922DA     SC283997  44.926  36.509  57.230
12922DA     SC383998  45.020  36.483  56.993
12922DA     SC483999  45.219  36.387  57.166
12923DT     BB184000  45.242  36.245  57.708
12923DT     BB284001  44.894  36.338  57.733
12923DT     BB384002  44.775  36.186  57.657
12923DT     SC184003  44.839  36.249  57.410
12923DT     SC284004  44.668  36.333  57.311
12923DT     SC384005  44.938  36.228  57.167
12924DA     BB184006  44.652  36.356  58.028
12924DA     BB284007  44.362  36.321  57.806
12924DA     BB384008  44.323  36.115  57.766
12924DA     SC184009  44.503  36.105  57.513
12924DA     SC284010  44.474  36.083  57.266
12924DA     SC384011  44.720  36.009  57.264
12924DA     SC484012  44.657  36.060  57.533
12925DT     BB184013  44.164  36.070  57.835
12925DT     BB284014  43.986  36.028  57.523
12925DT     BB384015  43.989  35.829  57.467
12925DT     SC184016  44.241  35.845  57.393
12925DT     SC284017  44.253  35.830  57.179
12925DT     SC384018  44.501  35.802  57.386
12926DT     BB184019  43.728  35.810  57.530
12926DT     BB284020  43.747  35.699  57.187
12926DT     BB384021  43.796  35.498  57.181
12926DT     SC184022  44.046  35.549  57.243
12926DT     SC284023  44.171  35.509  57.073
12926DT     SC384024  44.272  35.551  57.378
12927DT     BB184025  43.542  35.430  57.107
12927DT     BB284026  43.751  35.291  56.848
12927DT     BB384027  43.815  35.102  56.903
12927DT     SC184028  43.987  35.203  57.074
12927DT     SC284029  44.187  35.170  57.002
12927DT     SC384030  44.106  35.258  57.303
12928DA     BB184031  43.645  35.063  56.521
12928DA     BB284032  43.975  34.902  56.515
12928DA     BB384033  43.969  34.718  56.622
12928DA     SC184034  44.049  34.845  56.894
12928DA     SC284035  44.246  34.843  57.047
12928DA     SC384036  44.081  34.922  57.227
12928DA     SC484037  43.931  34.892  56.992
12929DC     BB184038  43.997  34.556  56.516
12929DC     BB284039  44.333  34.488  56.630
12929DC     BB384040  44.331  34.335  56.769
12929DC     SC184041  44.233  34.494  56.954
12929DC     SC284042  44.383  34.529  57.104
12929DC     SC384043  44.067  34.595  57.132
12930DA     BB184044  44.618  34.256  56.473
12930DA     BB284045  44.774  34.209  56.801
12930DA     BB384046  44.697  34.034  56.896
12930DA     SC184047  44.466  34.184  57.040
12930DA     SC284048  44.405  34.248  57.274
12930DA     SC384049  44.167  34.273  57.183
12930DA     SC484050  44.324  34.193  56.965
12931DT     BB184051  44.825  33.897  56.921
12931DT     BB284052  44.861  33.931  57.278
12931DT     BB384053  44.750  33.785  57.374
12931DT     SC184054  44.526  33.911  57.322
12931DT     SC284055  44.444  33.990  57.505
12931DT     SC384056  44.286  33.961  57.224
12932DT     BB184057  44.978  33.654  57.442
12932DT     BB284058  44.810  33.708  57.756
12932DT     BB384059  44.675  33.555  57.792
12932DT     SC184060  44.507  33.651  57.614
12932DT     SC284061  44.333  33.728  57.715
12932DT     SC384062  44.358  33.668  57.397
12933DC     BB184063  44.834  33.439  57.987
12933DC     BB284064  44.518  33.493  58.152
12933DC     BB384065  44.394  33.329  58.125
12933DC     SC184066  44.347  33.398  57.876
12933DC     SC284067  44.142  33.462  57.858
12933DC     SC384068  44.341  33.387  57.612
12934DA     BB184069  44.401  33.378  58.542
12934DA     BB284070  44.050  33.346  58.441
12934DA     BB384071  44.004  33.143  58.396
12934DA     SC184072  44.076  33.168  58.095
12934DA     SC284073  43.956  33.167  57.876
12934DA     SC384074  44.185  33.110  57.774
12934DA     SC484075  44.226  33.132  58.051
12935DA     BB184076  43.761  33.178  58.619
12935DA     BB284077  43.524  33.113  58.347
12935DA     BB384078  43.515  32.904  58.305
12935DA     SC184079  43.740  32.911  58.091
12935DA     SC284080  43.761  32.885  57.844
12935DA     SC384081  44.009  32.838  57.890
12935DA     SC484082  43.891  32.883  58.140
12936DA     BB184083  43.192  32.945  58.354
12936DA     BB284084  43.143  32.842  58.005
12936DA     BB384085  43.159  32.630  57.988
12936DA     SC184086  43.465  32.633  57.932
12936DA     SC284087  43.618  32.587  57.740
12936DA     SC384088  43.800  32.559  57.919
12936DA     SC484089  43.564  32.618  58.058
12937DA     BB184090  42.867  32.672  57.847
12937DA     BB284091  43.017  32.535  57.541
12937DA     BB384092  43.038  32.323  57.558
12937DA     SC184093  43.324  32.336  57.678
12937DA     SC284094  43.557  32.280  57.608
12937DA     SC384095  43.611  32.278  57.858
12937DA     SC484096  43.338  32.338  57.838
12938DA     BB184097  42.874  32.347  57.276
12938DA     BB284098  43.163  32.185  57.119
12938DA     BB384099  43.167  31.977  57.167
12938DA     SC184100  43.341  32.014  57.422
12938DA     SC284101  43.573  31.961  57.496
12938DA     SC384102  43.481  31.987  57.734
12938DA     SC484103  43.265  32.033  57.562
12939DA     BB184104  43.187  31.972  56.841
12939DA     BB284105  43.509  31.803  56.886
12939DA     BB384106  43.479  31.602  56.950
12939DA     SC184107  43.487  31.672  57.253
12939DA     SC284108  43.639  31.634  57.448
12939DA     SC384109  43.433  31.683  57.592
12939DA     SC484110  43.347  31.704  57.326
12940DA     BB184111  43.674  31.560  56.691
12940DA     BB284112  43.912  31.405  56.923
12940DA     BB384113  43.844  31.212  56.982
12940DA     SC184114  43.688  31.317  57.230
12940DA     SC284115  43.708  31.306  57.479
12940DA     SC384116  43.459  31.366  57.481
12940DA     SC484117  43.533  31.353  57.211
12941DC     BB184118  43.951  31.055  56.923
12941DC     BB284119  44.096  30.977  57.244
12941DC     BB384120  44.002  30.812  57.326
12941DC     SC184121  43.790  30.954  57.387
12941DC     SC284122  43.777  30.975  57.601
12941DC     SC384123  43.540  31.038  57.389
12942DA     BB184124  44.413  30.734  57.334
12942DA     BB284125  44.278  30.658  57.667
12942DA     BB384126  44.167  30.476  57.662
12942DA     SC184127  43.896  30.615  57.597
12942DA     SC284128  43.679  30.660  57.712
12942DA     SC384129  43.585  30.694  57.475
12942DA     SC484130  43.856  30.631  57.442
12943DT     BB184131  44.237  30.316  57.764
12943DT     BB284132  43.996  30.325  58.033
12943DT     BB384133  43.858  30.174  58.009
12943DT     SC184134  43.738  30.302  57.814
12943DT     SC284135  43.545  30.368  57.880
12943DT     SC384136  43.647  30.358  57.573
12944DA     BB184137  44.007  30.150  58.400
12944DA     BB284138  43.641  30.132  58.419
12944DA     BB384139  43.573  29.942  58.350
12944DA     SC184140  43.541  30.032  58.054
12944DA     SC284141  43.355  30.076  57.893
12944DA     SC384142  43.534  30.047  57.711
12944DA     SC484143  43.666  30.010  57.956
12945DT     BB184144  43.486  29.822  58.484
12945DT     BB284145  43.147  29.856  58.367
12945DT     BB384146  43.091  29.686  58.263
12945DT     SC184147  43.235  29.757  58.055
12945DT     SC284148  43.105  29.810  57.893
12945DT     SC384149  43.423  29.750  57.870
12946DG     BB184150  42.823  29.728  58.567
12946DG     BB284151  42.654  29.682  58.251
12946DG     BB384152  42.657  29.490  58.199
12946DG     SC184153  42.922  29.509  58.047
12946DG     SC284154  42.958  29.476  57.753
12946DG     SC384155  43.219  29.490  57.890
12946DG     SC484156  43.059  29.487  58.127
12947DG     BB184157  42.323  29.471  58.189
12947DG     BB284158  42.356  29.385  57.839
12947DG     BB384159  42.389  29.190  57.820
12947DG     SC184160  42.693  29.213  57.836
12947DG     SC284161  42.885  29.156  57.614
12947DG     SC384162  43.029  29.200  57.869
12947DG     SC484163  42.764  29.208  57.979
12948DT     BB184164  42.242  29.012  57.717
12948DT     BB284165  42.418  28.946  57.409
12948DT     BB384166  42.506  28.759  57.417
12948DT     SC184167  42.694  28.846  57.578
12948DT     SC284168  42.882  28.849  57.474
12948DT     SC384169  42.842  28.873  57.795
12949DG     BB184170  42.251  28.678  57.098
12949DG     BB284171  42.590  28.587  57.010
12949DG     BB384172  42.629  28.402  57.073
12949DG     SC184173  42.732  28.491  57.348
12949DG     SC284174  43.012  28.466  57.446
12949DG     SC384175  42.831  28.550  57.664
12949DG     SC484176  42.627  28.506  57.468
12950DA     BB184177  42.730  28.249  56.757
12950DA     BB284178  43.069  28.191  56.882
12950DA     BB384179  43.081  28.003  56.982
12950DA     SC184180  43.010  28.120  57.262
12950DA     SC284181  43.125  28.161  57.479
12950DA     SC384182  42.889  28.170  57.579
12950DA     SC484183  42.855  28.121  57.305
12951DT     BB184184  43.203  27.797  56.916
12951DT     BB284185  43.474  27.852  57.148
12951DT     BB384186  43.478  27.700  57.289
12951DT     SC184187  43.269  27.799  57.413
12951DT     SC284188  43.330  27.877  57.604
12951DT     SC384189  43.025  27.819  57.511
12952DT     BB184190  43.706  27.598  57.178
12952DT     BB284191  43.798  27.687  57.515
12952DT     BB384192  43.762  27.527  57.642
12952DT     SC184193  43.503  27.570  57.635
12952DT     SC284194  43.438  27.643  57.827
12952DT     SC384195  43.246  27.531  57.590
12953DT     BB184196  44.025  27.519  57.656
12953DT     BB284197  43.911  27.578  57.994
12953DT     BB384198  43.858  27.399  58.082
12953DT     SC184199  43.635  27.387  57.943
12953DT     SC284200  43.468  27.417  58.074
12953DT     SC384201  43.454  27.302  57.772
12954DC     BB184202  44.069  27.453  58.225
12954DC     BB284203  43.798  27.425  58.461
12954DC     BB384204  43.759  27.225  58.501
12954DC     SC184205  43.643  27.193  58.268
12954DC     SC284206  43.432  27.163  58.297
12954DC     SC384207  43.596  27.104  58.024
12955DT     BB184208  43.859  27.285  58.737
12955DT     BB284209  43.529  27.153  58.802
12955DT     BB384210  43.535  26.946  58.801
12955DT     SC184211  43.553  26.940  58.539
12955DT     SC284212  43.370  26.863  58.456
12955DT     SC384213  43.650  26.897  58.298
12956DG     BB184214  43.389  27.064  59.163
12956DG     BB284215  43.174  26.818  59.007
12956DG     BB384216  43.253  26.636  59.027
12956DG     SC184217  43.413  26.651  58.766
12956DG     SC284218  43.366  26.485  58.522
12956DG     SC384219  43.616  26.641  58.497
12956DG     SC484220  43.560  26.713  58.769
12957DT     BB184221  43.152  26.473  59.143
12957DT     BB284222  43.033  26.259  58.878
12957DT     BB384223  43.152  26.091  58.864
12957DT     SC184224  43.345  26.228  58.751
12957DT     SC284225  43.364  26.168  58.546
12957DT     SC384226  43.581  26.340  58.714
12958DT     BB184227  42.957  25.931  58.973
12958DT     BB284228  43.031  25.777  58.655
12958DT     BB384229  43.186  25.642  58.676
12958DT     SC184230  43.363  25.834  58.695
12958DT     SC284231  43.486  25.835  58.519
12958DT     SC384232  43.549  25.991  58.796
12959DA     BB184233  42.870  25.448  58.482
12959DA     BB284234  43.175  25.385  58.290
12959DA     BB384235  43.300  25.246  58.393
12959DA     SC184236  43.457  25.465  58.549
12959DA     SC284237  43.687  25.561  58.550
12959DA     SC384238  43.630  25.643  58.786
12959DA     SC484239  43.403  25.506  58.694
12960DC     BB184240  43.323  25.083  58.300
12960DC     BB284241  43.663  25.139  58.193
12960DC     BB384242  43.793  25.034  58.314
12960DC     SC184243  43.761  25.205  58.510
12960DC     SC284244  43.943  25.317  58.537
12960DC     SC384245  43.696  25.303  58.746
12961DT     BB184246  43.830  24.885  58.100
12961DT     BB284247  44.159  25.003  58.190
12961DT     BB384248  44.238  24.884  58.341
12961DT     SC184249  44.081  24.993  58.520
12961DT     SC284250  44.199  25.113  58.655
12961DT     SC384251  43.893  25.018  58.704
12962DG     BB184252  44.491  24.898  58.020
12962DG     BB284253  44.660  24.974  58.330
12962DG     BB384254  44.686  24.808  58.436
12962DG     SC184255  44.419  24.833  58.585
12962DG     SC284256  44.385  24.884  58.877
12962DG     SC384257  44.126  24.817  58.750
12962DG     SC484258  44.288  24.768  58.520
12963DT     BB184259  44.886  24.737  58.482
12963DT     BB284260  44.913  24.814  58.834
12963DT     BB384261  44.883  24.643  58.946
12963DT     SC184262  44.625  24.649  58.901
12963DT     SC284263  44.522  24.699  59.084
12963DT     SC384264  44.386  24.577  58.815
12964DT     BB184265  45.149  24.628  59.010
12964DT     BB284266  44.981  24.637  59.329
12964DT     BB384267  44.929  24.445  59.387
12964DT     SC184268  44.732  24.438  59.213
12964DT     SC284269  44.544  24.441  59.318
12964DT     SC384270  44.587  24.364  59.006
12965DA     BB184271  45.139  24.617  59.706
12965DA     BB284272  44.827  24.475  59.838
12965DA     BB384273  44.839  24.262  59.843
12965DA     SC184274  44.721  24.225  59.558
12965DA     SC284275  44.512  24.138  59.455
12965DA     SC384276  44.651  24.114  59.241
12965DA     SC484277  44.825  24.216  59.435
12966DC     BB184278  44.834  24.189  60.018
12966DC     BB284279  44.495  24.065  60.001
12966DC     BB384280  44.496  23.861  59.966
12966DC     SC184281  44.562  23.896  59.715
12966DC     SC284282  44.396  23.842  59.589
12966DC     SC384283  44.702  23.887  59.492
12967DT     BB184284  44.406  23.854  60.211
12967DT     BB284285  44.155  23.689  60.010
12967DT     BB384286  44.213  23.494  59.972
12967DT     SC184287  44.391  23.572  59.797
12967DT     SC284288  44.328  23.514  59.599
12967DT     SC384289  44.625  23.613  59.682
12968DT     BB184290  44.010  23.453  60.126
12968DT     BB284291  43.939  23.274  59.821
12968DT     BB384292  44.046  23.097  59.816
12968DT     SC184293  44.269  23.225  59.763
12968DT     SC284294  44.330  23.181  59.561
12968DT     SC384295  44.514  23.318  59.790
12969DG     BB184296  43.647  23.025  59.765
12969DG     BB284297  43.847  22.858  59.514
12969DG     BB384298  43.941  22.703  59.595
12969DG     SC184299  44.189  22.865  59.675
12969DG     SC284300  44.463  22.833  59.561
12969DG     SC384301  44.466  23.015  59.795
12969DG     SC484302  44.192  22.937  59.818
12970DA     BB184303  43.813  22.492  59.342
12970DA     BB284304  44.153  22.392  59.247
12970DA     BB384305  44.233  22.256  59.391
12970DA     SC184306  44.360  22.478  59.567
12970DA     SC284307  44.589  22.560  59.625
12970DA     SC384308  44.476  22.667  59.829
12970DA     SC484309  44.272  22.536  59.689
12971DT     BB184310  44.279  22.016  59.375
12971DT     BB284311  44.639  22.039  59.368
12971DT     BB384312  44.718  21.963  59.543
12971DT     SC184313  44.644  22.175  59.679
12971DT     SC284314  44.819  22.287  59.736
12971DT     SC384315  44.521  22.325  59.857
12972DC     BB184316  44.822  21.677  59.477
12972DC     BB284317  45.113  21.833  59.622
12972DC     BB384318  45.130  21.780  59.821
12972DC     SC184319  44.934  21.941  59.889
12972DC     SC284320  45.013  22.106  60.002
12972DC     SC384321  44.700  22.023  59.979
12973DA     BB184322  45.512  21.636  59.701
12973DA     BB284323  45.570  21.855  59.989
12973DA     BB384324  45.535  21.749  60.171
12973DA     SC184325  45.234  21.829  60.187
12973DA     SC284326  45.089  21.975  60.328
12973DA     SC384327  44.895  21.833  60.238
12973DA     SC484328  45.127  21.729  60.121
12974DC     BB184329  45.694  21.691  60.331
12974DC     BB284330  45.605  21.954  60.562
12974DC     BB384331  45.523  21.873  60.733
12974DC     SC184332  45.298  21.819  60.610
12974DC     SC284333  45.142  21.947  60.685
12974DC     SC384334  45.098  21.680  60.506
12975DG     BB184335  45.846  22.092  60.849
12975DG     BB284336  45.545  22.198  61.020
12975DG     BB384337  45.505  22.074  61.170
12975DG     SC184338  45.333  21.885  61.001
12975DG     SC284339  45.040  21.842  61.030
12975DG     SC384340  45.156  21.647  60.841
12975DG     SC484341  45.404  21.765  60.923
12976DA     BB184342  45.488  22.366  61.346
12976DA     BB284343  45.138  22.292  61.428
12976DA     BB384344  45.128  22.139  61.577
12976DA     SC184345  45.117  21.905  61.372
12976DA     SC284346  44.951  21.737  61.292
12976DA     SC384347  45.155  21.605  61.209
12976DA     SC484348  45.256  21.838  61.329
12977DA     BB184349  44.943  22.381  61.691
12977DA     BB284350  44.667  22.141  61.683
12977DA     BB384351  44.691  21.995  61.837
12977DA     SC184352  44.852  21.797  61.658
12977DA     SC284353  44.818  21.574  61.552
12977DA     SC384354  45.074  21.564  61.539
12977DA     SC484355  45.012  21.809  61.660
12978DA     BB184356  44.388  22.108  61.876
12978DA     BB284357  44.279  21.762  61.820
12978DA     BB384358  44.330  21.640  61.988
12978DA     SC184359  44.608  21.558  61.873
12978DA     SC284360  44.717  21.353  61.782
12978DA     SC384361  44.938  21.472  61.834
12978DA     SC484362  44.735  21.648  61.914
12979DA     BB184363  44.012  21.582  61.945
12979DA     BB284364  44.107  21.231  61.897
12979DA     BB384365  44.168  21.145  62.083
12979DA     SC184366  44.468  21.219  62.046
12979DA     SC284367  44.683  21.100  62.003
12979DA     SC384368  44.795  21.312  62.095
12979DA     SC484369  44.519  21.359  62.107
12980DC     BB184370  44.054  21.009  62.141
12980DC     BB284371  44.275  20.732  62.074
12980DC     BB384372  44.367  20.671  62.249
12980DC     SC184373  44.526  20.879  62.247
12980DC     SC284374  44.727  20.815  62.206
12980DC     SC384375  44.641  21.105  62.321
12981DT     BB184376  44.214  20.453  62.237
12981DT     BB284377  44.551  20.327  62.252
12981DT     BB384378  44.614  20.318  62.449
12981DT     SC184379  44.644  20.578  62.461
12981DT     SC284380  44.854  20.625  62.474
12981DT     SC384381  44.609  20.829  62.535
12982DA     BB184382  44.689  19.947  62.265
12982DA     BB284383  44.991  20.048  62.446
12982DA     BB384384  44.960  20.033  62.656
12982DA     SC184385  44.859  20.326  62.687
12982DA     SC284386  44.939  20.540  62.787
12982DA     SC384387  44.692  20.611  62.783
12982DA     SC484388  44.700  20.351  62.677
12983DA     BB184389  45.233  19.848  62.641
12983DA     BB284390  45.390  20.092  62.865
12983DA     BB384391  45.319  20.065  63.065
12983DA     SC184392  45.082  20.265  63.033
12983DA     SC284393  45.019  20.491  63.118
12983DA     SC384394  44.780  20.426  63.052
12983DA     SC484395  44.940  20.205  62.987
12984DT     BB184396  45.447  19.998  63.215
12984DT     BB284397  45.482  20.315  63.385
12984DT     BB384398  45.375  20.312  63.562
12984DT     SC184399  45.147  20.336  63.434
12984DT     SC284400  45.064  20.530  63.472
12984DT     SC384401  44.907  20.278  63.343
12985DT     BB184402  45.606  20.301  63.705
12985DT     BB284403  45.439  20.596  63.827
12985DT     BB384404  45.309  20.546  63.980
12985DT     SC184405  45.137  20.442  63.811
12985DT     SC284406  44.962  20.567  63.803
12985DT     SC384407  44.986  20.264  63.688
12986DG     BB184408  45.571  20.825  64.117
12986DG     BB284409  45.228  20.924  64.175
12986DG     BB384410  45.154  20.823  64.330
12986DG     SC184411  45.051  20.590  64.161
12986DG     SC284412  44.764  20.519  64.117
12986DG     SC384413  44.942  20.309  64.008
12986DG     SC484414  45.148  20.467  64.131
12987DG     BB184415  45.095  21.118  64.454
12987DG     BB284416  44.746  21.023  64.446
12987DG     BB384417  44.704  20.906  64.602
12987DG     SC184418  44.771  20.646  64.456
12987DG     SC284419  44.576  20.432  64.381
12987DG     SC384420  44.854  20.343  64.333
12987DG     SC484421  44.921  20.591  64.459
12988DA     BB184422  44.445  21.131  64.645
12988DA     BB284423  44.205  20.854  64.624
12988DA     BB384424  44.213  20.735  64.800
12988DA     SC184425  44.429  20.541  64.689
12988DA     SC284426  44.443  20.303  64.615
12988DA     SC384427  44.695  20.328  64.652
12988DA     SC484428  44.583  20.576  64.719
12989DG     BB184429  43.913  20.817  64.825
12989DG     BB284430  43.860  20.460  64.793
12989DG     BB384431  43.891  20.371  64.967
12989DG     SC184432  44.189  20.323  64.917
12989DG     SC284433  44.321  20.058  64.880
12989DG     SC384434  44.523  20.273  64.903
12989DG     SC484435  44.294  20.436  64.959
12990DT     BB184436  43.729  20.259  65.091
12990DT     BB284437  43.823  19.914  65.040
12990DT     BB384438  43.913  19.840  65.211
12990DT     SC184439  44.134  19.972  65.161
12990DT     SC284440  44.290  19.834  65.108
12990DT     SC384441  44.332  20.145  65.190
12991DT     BB184442  43.693  19.681  65.307
12991DT     BB284443  43.965  19.444  65.289
12991DT     BB384444  44.063  19.435  65.471
12991DT     SC184445  44.179  19.666  65.429
12991DT     SC284446  44.390  19.636  65.398
12991DT     SC384447  44.246  19.920  65.460
12992DA     BB184448  43.965  19.028  65.418
12992DA     BB284449  44.322  19.040  65.500
12992DA     BB384450  44.349  19.067  65.710
12992DA     SC184451  44.354  19.377  65.694
12992DA     SC284452  44.520  19.561  65.723
12992DA     SC384453  44.316  19.713  65.757
12992DA     SC484454  44.215  19.455  65.714
12993DT     BB184455  44.437  18.911  65.860
12993DT     BB284456  44.759  19.071  65.894
12993DT     BB384457  44.780  19.147  66.085
12993DT     SC184458  44.617  19.346  66.032
12993DT     SC284459  44.729  19.530  66.026
12993DT     SC384460  44.406  19.504  66.044
12994DT     BB184461  44.963  18.949  66.179
12994DT     BB284462  45.140  19.261  66.226
12994DT     BB384463  45.107  19.333  66.417
12994DT     SC184464  44.863  19.408  66.354
12994DT     SC284465  44.854  19.623  66.351
12994DT     SC384466  44.600  19.422  66.355
12995DG     BB184467  45.511  19.286  66.394
12995DG     BB284468  45.424  19.624  66.490
12995DG     BB384469  45.385  19.631  66.685
12995DG     SC184470  45.087  19.571  66.653
12995DG     SC284471  44.862  19.759  66.712
12995DG     SC384472  44.760  19.487  66.656
12995DG     SC484473  45.038  19.418  66.651
12996DC     BB184474  45.509  19.756  66.820
12996DC     BB284475  45.286  20.036  66.871
12996DC     BB384476  45.205  20.027  67.061
12996DC     SC184477  45.044  19.831  66.992
12996DC     SC284478  44.841  19.904  66.988
12996DC     SC384479  44.932  19.593  66.984
12997DC     BB184480  45.355  20.239  67.104
12997DC     BB284481  45.016  20.347  67.164
12997DC     BB384482  44.959  20.297  67.357
12997DC     SC184483  44.933  20.044  67.292
12997DC     SC284484  44.725  19.990  67.296
12997DC     SC384485  44.974  19.783  67.288
12998DT     BB184486  44.964  20.553  67.360
12998DT     BB284487  44.627  20.457  67.447
12998DT     BB384488  44.620  20.394  67.644
12998DT     SC184489  44.736  20.166  67.583
12998DT     SC284490  44.594  20.006  67.604
12998DT     SC384491  44.915  19.973  67.577
12999DT     BB184492  44.480  20.603  67.622
12999DT     BB284493  44.263  20.347  67.756
12999DT     BB384494  44.313  20.309  67.953
12999DT     SC184495  44.528  20.177  67.882
12999DT     SC284496  44.502  19.968  67.925
12999DT     SC384497  44.783  20.114  67.855
13000DT     BB184498  44.078  20.401  67.940
13000DT     BB284499  44.059  20.094  68.128
13000DT     BB384500  44.150  20.119  68.313
13000DT     SC184501  44.389  20.110  68.205
13000DT     SC284502  44.487  19.928  68.263
13000DT     SC384503  44.630  20.186  68.129
13001DT     BB184504  43.904  20.100  68.391
13001DT     BB284505  44.086  19.870  68.601
13001DT     BB384506  44.187  19.973  68.749
13001DT     SC184507  44.367  20.058  68.578
13001DT     SC284508  44.555  19.963  68.620
13001DT     SC384509  44.511  20.223  68.431
13002DA     BB184510  43.967  19.695  68.981
13002DA     BB284511  44.303  19.715  69.127
13002DA     BB384512  44.328  19.900  69.232
13002DA     SC184513  44.439  20.053  68.985
13002DA     SC284514  44.656  20.150  68.910
13002DA     SC384515  44.514  20.291  68.749
13002DA     SC484516  44.333  20.132  68.893
13003DC     BB184517  44.340  19.957  69.477
13003DC     BB284518  44.689  20.046  69.488
13003DC     BB384519  44.710  20.249  69.524
13003DC     SC184520  44.639  20.307  69.278
13003DC     SC284521  44.809  20.383  69.171
13003DC     SC384522  44.500  20.404  69.076
13004DA     BB184523  44.933  20.143  69.876
13004DA     BB284524  45.135  20.396  69.704
13004DA     BB384525  45.066  20.592  69.752
13004DA     SC184526  44.867  20.606  69.513
13004DA     SC284527  44.845  20.730  69.298
13004DA     SC384528  44.597  20.668  69.310
13004DA     SC484529  44.715  20.558  69.540
13005DA     BB184530  45.367  20.707  69.879
13005DA     BB284531  45.382  20.948  69.603
13005DA     BB384532  45.278  21.126  69.654
13005DA     SC184533  45.005  21.030  69.539
13005DA     SC284534  44.856  21.085  69.347
13005DA     SC384535  44.672  20.970  69.484
13005DA     SC484536  44.904  20.956  69.640
13006DG     BB184537  45.543  21.311  69.636
13006DG     BB284538  45.373  21.454  69.350
13006DG     BB384539  45.264  21.610  69.407
13006DG     SC184540  45.013  21.444  69.464
13006DG     SC284541  44.756  21.458  69.312
13006DG     SC384542  44.727  21.291  69.555
13006DG     SC484543  44.993  21.380  69.609
13007DT     BB184544  45.295  21.840  69.338
13007DT     BB284545  45.030  21.864  69.094
13007DT     BB384546  44.880  21.987  69.165
13007DT     SC184547  44.795  21.801  69.331
13007DT     SC284548  44.604  21.729  69.265
13007DT     SC384549  44.737  21.678  69.556
13008DT     BB184550  44.951  22.178  68.986
13008DT     BB284551  44.608  22.099  68.907
13008DT     BB384552  44.480  22.215  69.021
13008DT     SC184553  44.529  22.073  69.235
13008DT     SC284554  44.354  21.960  69.288
13008DT     SC384555  44.612  22.009  69.478
13009DC     BB184556  44.422  22.339  68.793
13009DC     BB284557  44.109  22.202  68.912
13009DC     BB384558  44.023  22.332  69.048
13009DC     SC184559  44.196  22.263  69.234
13009DC     SC284560  44.095  22.152  69.387
13009DC     SC384561  44.390  22.282  69.411
13010DG     BB184562  43.779  22.233  68.739
13010DG     BB284563  43.627  22.168  69.061
13010DG     BB384564  43.572  22.339  69.146
13010DG     SC184565  43.840  22.381  69.289
13010DG     SC284566  43.884  22.374  69.584
13010DG     SC384567  44.126  22.469  69.443
13010DG     SC484568  43.957  22.459  69.213
13011DT     BB184569  43.385  22.333  69.179
13011DT     BB284570  43.370  22.296  69.538
13011DT     BB384571  43.352  22.482  69.627
13011DT     SC184572  43.604  22.538  69.581
13011DT     SC284573  43.712  22.541  69.767
13011DT     SC384574  43.818  22.658  69.484
13012DT     BB184575  43.131  22.365  69.679
13012DT     BB284576  43.273  22.458  69.997
13012DT     BB384577  43.254  22.661  70.027
13012DT     SC184578  43.446  22.713  69.855
13012DT     SC284579  43.617  22.789  69.961
13012DT     SC384580  43.569  22.805  69.641
13013DT     BB184581  43.091  22.575  70.208
13013DT     BB284582  43.324  22.788  70.381
13013DT     BB384583  43.277  22.986  70.349
13013DT     SC184584  43.371  22.977  70.104
13013DT     SC284585  43.551  23.095  70.092
13013DT     SC384586  43.378  22.985  69.840
13014DT     BB184587  43.196  22.995  70.602
13014DT     BB284588  43.431  23.266  70.573
13014DT     BB384589  43.338  23.433  70.494
13014DT     SC184590  43.335  23.327  70.254
13014DT     SC284591  43.471  23.434  70.127
13014DT     SC384592  43.243  23.227  70.028
13015DC     BB184593  43.328  23.569  70.736
13015DC     BB284594  43.489  23.803  70.513
13015DC     BB384595  43.346  23.918  70.417
13015DC     SC184596  43.279  23.719  70.260
13015DC     SC284597  43.342  23.762  70.059
13015DC     SC384598  43.133  23.530  70.147
13016DA     BB184599  43.579  24.227  70.590
13016DA     BB284600  43.531  24.316  70.237
13016DA     BB384601  43.336  24.396  70.207
13016DA     SC184602  43.206  24.121  70.143
13016DA     SC284603  43.109  24.003  69.945
13016DA     SC384604  42.992  23.853  70.117
13016DA     SC484605  43.141  24.039  70.265
13017DA     BB184606  43.463  24.681  70.076
13017DA     BB284607  43.302  24.594  69.759
13017DA     BB384608  43.098  24.655  69.760
13017DA     SC184609  42.992  24.386  69.874
13017DA     SC284610  42.857  24.192  69.794
13017DA     SC384611  42.817  24.144  70.043
13017DA     SC484612  42.977  24.374  70.034
13018DT     BB184613  43.009  24.819  69.629
13018DT     BB284614  42.851  24.592  69.397
13018DT     BB384615  42.645  24.603  69.417
13018DT     SC184616  42.651  24.467  69.642
13018DT     SC284617  42.564  24.273  69.611
13018DT     SC384618  42.625  24.410  69.898
13019DC     BB184619  42.624  24.731  69.177
13019DC     BB284620  42.431  24.429  69.138
13019DC     BB384621  42.237  24.461  69.201
13019DC     SC184622  42.309  24.457  69.453
13019DC     SC284623  42.231  24.279  69.546
13019DC     SC384624  42.351  24.538  69.701
13020DC     BB184625  42.180  24.437  68.945
13020DC     BB284626  41.998  24.173  69.110
13020DC     BB384627  41.821  24.247  69.187
13020DC     SC184628  41.947  24.367  69.383
13020DC     SC284629  41.901  24.269  69.569
13020DC     SC384630  42.039  24.561  69.537
13021DG     BB184631  41.783  23.920  68.946
13021DG     BB284632  41.625  23.873  69.267
13021DG     BB384633  41.459  23.983  69.278
13021DG     SC184634  41.599  24.230  69.391
13021DG     SC284635  41.561  24.343  69.665
13021DG     SC384636  41.724  24.525  69.497
13021DG     SC484637  41.661  24.337  69.290
13022DT     BB184638  41.319  23.863  69.312
13022DT     BB284639  41.232  23.939  69.654
13022DT     BB384640  41.085  24.085  69.659
13022DT     SC184641  41.258  24.272  69.596
13022DT     SC284642  41.288  24.402  69.765
13022DT     SC384643  41.377  24.464  69.460
13023DA     BB184644  40.997  23.758  69.909
13023DA     BB284645  40.934  24.068  70.094
13023DA     BB384646  40.766  24.170  70.012
13023DA     SC184647  40.936  24.338  69.812
13023DA     SC284648  41.004  24.576  69.783
13023DA     SC384649  41.051  24.511  69.539
13023DA     SC484650  40.958  24.278  69.665
13024DC     BB184651  40.630  24.177  70.131
13024DC     BB284652  40.645  24.531  70.204
13024DC     BB384653  40.507  24.632  70.088
13024DC     SC184654  40.656  24.607  69.874
13024DC     SC284655  40.734  24.799  69.818
13024DC     SC384656  40.733  24.533  69.633
13025DA     BB184657  40.437  24.753  70.485
13025DA     BB284658  40.440  25.054  70.276
13025DA     BB384659  40.263  25.063  70.157
13025DA     SC184660  40.387  24.910  69.917
13025DA     SC284661  40.458  24.959  69.683
13025DA     SC384662  40.439  24.706  69.645
13025DA     SC484663  40.367  24.750  69.913
13026DT     BB184664  40.107  25.210  70.186
13026DT     BB284665  40.171  25.407  69.890
13026DT     BB384666  40.023  25.374  69.750
13026DT     SC184667  40.122  25.138  69.690
13026DT     SC284668  40.206  25.143  69.492
13026DT     SC384669  40.140  24.876  69.663
13027DT     BB184670  39.874  25.619  69.782
13027DT     BB284671  39.945  25.613  69.428
13027DT     BB384672  39.789  25.523  69.326
13027DT     SC184673  39.863  25.284  69.409
13027DT     SC284674  39.939  25.172  69.242
13027DT     SC384675  39.855  25.051  69.531
13028DA     BB184676  39.793  25.893  69.120
13028DA     BB284677  39.795  25.630  68.864
13028DA     BB384678  39.598  25.552  68.836
13028DA     SC184679  39.631  25.328  69.049
13028DA     SC284680  39.650  25.079  69.055
13028DA     SC384681  39.579  25.099  69.300
13028DA     SC484682  39.584  25.361  69.200
13029DT     BB184683  39.452  25.573  68.643
13029DT     BB284684  39.508  25.237  68.523
13029DT     BB384685  39.334  25.127  68.538
13029DT     SC184686  39.360  25.105  68.798
13029DT     SC284687  39.407  24.901  68.848
13029DT     SC384688  39.309  25.130  69.055
13030DT     BB184689  39.272  25.123  68.259
13030DT     BB284690  39.304  24.775  68.349
13030DT     BB384691  39.119  24.698  68.400
13030DT     SC184692  39.123  24.822  68.631
13030DT     SC284693  39.144  24.678  68.789
13030DT     SC384694  39.055  24.987  68.825
13031DT     BB184695  39.111  24.551  68.169
13031DT     BB284696  39.097  24.308  68.435
13031DT     BB384697  38.901  24.274  68.490
13031DT     SC184698  38.888  24.504  68.615
13031DT     SC284699  38.876  24.469  68.827
13031DT     SC384700  38.813  24.749  68.676
13032DA     BB184701  39.128  23.927  68.426
13032DA     BB284702  38.964  23.903  68.753
13032DA     BB384703  38.753  23.880  68.729
13032DA     SC184704  38.694  24.185  68.734
13032DA     SC284705  38.585  24.349  68.887
13032DA     SC384706  38.565  24.499  68.680
13032DA     SC484707  38.690  24.263  68.594
13033DT     BB184708  38.728  23.730  68.800
13033DT     BB284709  38.563  23.850  69.098
13033DT     BB384710  38.358  23.856  69.068
13033DT     SC184711  38.379  24.070  68.918
13033DT     SC284712  38.294  24.239  69.022
13033DT     SC384713  38.367  24.227  68.706
13034DT     BB184714  38.371  23.664  69.241
13034DT     BB284715  38.149  23.909  69.384
13034DT     BB384716  37.962  23.894  69.297
13034DT     SC184717  38.047  24.008  69.076
13034DT     SC284718  37.958  24.203  69.058
13034DT     SC384719  38.109  24.041  68.822
13035DA     BB184720  37.915  23.891  69.715
13035DA     BB284721  37.670  24.125  69.575
13035DA     BB384722  37.516  24.019  69.472
13035DA     SC184723  37.662  24.025  69.197
13035DA     SC284724  37.633  24.135  68.975
13035DA     SC384725  37.786  23.949  68.886
13035DA     SC484726  37.757  23.900  69.160
13036DT     BB184727  37.319  24.014  69.544
13036DT     BB284728  37.175  24.232  69.294
13036DT     BB384729  37.063  24.121  69.160
13036DT     SC184730  37.279  24.028  69.044
13036DT     SC284731  37.296  24.112  68.847
13036DT     SC384732  37.461  23.856  68.960
13037DA     BB184733  36.789  24.412  69.291
13037DA     BB284734  36.777  24.409  68.924
13037DA     BB384735  36.667  24.240  68.855
13037DA     SC184736  36.916  24.054  68.837
13037DA     SC284737  37.053  23.946  68.659
13037DA     SC384738  37.131  23.787  68.844
13037DA     SC484739  36.951  23.964  68.965
13038DA     BB184740  36.485  24.462  68.693
13038DA     BB284741  36.601  24.305  68.383
13038DA     BB384742  36.491  24.126  68.345
13038DA     SC184743  36.690  23.942  68.498
13038DA     SC284744  36.857  23.765  68.444
13038DA     SC384745  36.833  23.695  68.690
13038DA     SC484746  36.660  23.914  68.653
13039DT     BB184747  36.375  24.124  68.183
13039DT     BB284748  36.593  23.919  67.982
13039DT     BB384749  36.516  23.727  67.967
13039DT     SC184750  36.588  23.671  68.213
13039DT     SC284751  36.748  23.528  68.210
13039DT     SC384752  36.570  23.608  68.469
13040DT     BB184753  36.483  23.802  67.720
13040DT     BB284754  36.697  23.512  67.708
13040DT     BB384755  36.583  23.339  67.724
13040DT     SC184756  36.547  23.379  67.981
13040DT     SC284757  36.655  23.230  68.092
13040DT     SC384758  36.425  23.424  68.210
13041DC     BB184759  36.674  23.326  67.485
13041DC     BB284760  36.783  23.024  67.650
13041DC     BB384761  36.625  22.891  67.666
13041DC     SC184762  36.515  23.031  67.859
13041DC     SC284763  36.530  22.922  68.043
13041DC     SC384764  36.341  23.180  67.989
13042DA     BB184765  36.975  22.709  67.518
13042DA     BB284766  36.827  22.490  67.773
13042DA     BB384767  36.643  22.408  67.702
13042DA     SC184768  36.469  22.639  67.817
13042DA     SC284769  36.301  22.671  67.998
13042DA     SC384770  36.228  22.879  67.867
13042DA     SC484771  36.437  22.764  67.720
13043DC     BB184772  36.642  22.218  67.672
13043DC     BB284773  36.424  22.123  67.944
13043DC     BB384774  36.233  22.088  67.873
13043DC     SC184775  36.189  22.345  67.845
13043DC     SC284776  36.044  22.409  67.991
13043DC     SC384777  36.138  22.577  67.730
13044DC     BB184778  36.252  21.810  67.893
13044DC     BB284779  35.949  21.885  68.073
13044DC     BB384780  35.787  21.882  67.944
13044DC     SC184781  35.856  22.113  67.840
13044DC     SC284782  35.713  22.263  67.898
13044DC     SC384783  35.934  22.292  67.663
13045DT     BB184784  35.672  21.625  68.017
13045DT     BB284785  35.392  21.849  68.050
13045DT     BB384786  35.282  21.852  67.874
13045DT     SC184787  35.465  21.998  67.754
13045DT     SC284788  35.386  22.195  67.720
13045DT     SC384789  35.652  22.069  67.583
13046DA     BB184790  34.971  21.741  68.139
13046DA     BB284791  34.840  22.018  67.938
13046DA     BB384792  34.777  21.947  67.746
13046DA     SC184793  35.053  21.994  67.611
13046DA     SC284794  35.151  22.148  67.440
13046DA     SC384795  35.335  21.970  67.416
13046DA     SC484796  35.157  21.872  67.609
13047DA     BB184797  34.467  22.071  67.796
13047DA     BB284798  34.522  22.295  67.511
13047DA     BB384799  34.478  22.195  67.328
13047DA     SC184800  34.769  22.091  67.287
13047DA     SC284801  34.960  22.134  67.133
13047DA     SC384802  35.046  21.904  67.208
13047DA     SC484803  34.804  21.946  67.345
13048DT     BB184804  34.302  22.243  67.186
13048DT     BB284805  34.501  22.411  66.936
13048DT     BB384806  34.506  22.299  66.762
13048DT     SC184807  34.672  22.126  66.868
13048DT     SC284808  34.865  22.145  66.774
13048DT     SC384809  34.768  21.899  66.961
13049DC     BB184810  34.335  22.472  66.621
13049DC     BB284811  34.635  22.464  66.421
13049DC     BB384812  34.622  22.314  66.279
13049DC     SC184813  34.663  22.128  66.460
13049DC     SC284814  34.856  22.039  66.429
13049DC     SC384815  34.619  21.920  66.616
13050DA     BB184816  34.725  22.667  66.082
13050DA     BB284817  34.960  22.406  65.976
13050DA     BB384818  34.866  22.271  65.841
13050DA     SC184819  34.769  22.077  66.064
13050DA     SC284820  34.822  21.846  66.143
13050DA     SC384821  34.591  21.854  66.255
13050DA     SC484822  34.623  22.101  66.125
13051DT     BB184823  34.934  22.269  65.653
13051DT     BB284824  35.110  21.955  65.676
13051DT     BB384825  35.004  21.807  65.576
13051DT     SC184826  34.827  21.793  65.769
13051DT     SC284827  34.848  21.605  65.872
13051DT     SC384828  34.595  21.807  65.895
13052DA     BB184829  35.412  21.815  65.471
13052DA     BB284830  35.316  21.470  65.551
13052DA     BB384831  35.184  21.393  65.402
13052DA     SC184832  34.926  21.486  65.548
13052DA     SC284833  34.734  21.380  65.668
13052DA     SC384834  34.612  21.602  65.625
13052DA     SC484835  34.867  21.630  65.510
13053DT     BB184836  35.264  21.257  65.318
13053DT     BB284837  35.064  20.992  65.461
13053DT     BB384838  34.910  20.942  65.332
13053DT     SC184839  34.778  21.160  65.393
13053DT     SC284840  34.602  21.108  65.506
13053DT     SC384841  34.660  21.395  65.367
13054DT     BB184842  35.046  20.720  65.299
13054DT     BB284843  34.717  20.616  65.406
13054DT     BB384844  34.587  20.617  65.245
13054DT     SC184845  34.573  20.879  65.248
13054DT     SC284846  34.377  20.939  65.312
13054DT     SC384847  34.597  21.129  65.169
13055DA     BB184848  34.555  20.241  65.431
13055DA     BB284849  34.216  20.368  65.372
13055DA     BB384850  34.169  20.361  65.164
13055DA     SC184851  34.274  20.649  65.107
13055DA     SC284852  34.179  20.871  65.047
13055DA     SC384853  34.415  20.927  64.965
13055DA     SC484854  34.427  20.664  65.061
13056DA     BB184855  33.904  20.187  65.260
13056DA     BB284856  33.696  20.450  65.112
13056DA     BB384857  33.694  20.432  64.899
13056DA     SC184858  33.940  20.617  64.856
13056DA     SC284859  33.986  20.844  64.763
13056DA     SC384860  34.229  20.764  64.741
13056DA     SC484861  34.085  20.548  64.849
13057DA     BB184862  33.362  20.422  64.923
13057DA     BB284863  33.354  20.729  64.722
13057DA     BB384864  33.383  20.683  64.516
13057DA     SC184865  33.693  20.714  64.528
13057DA     SC284866  33.866  20.871  64.443
13057DA     SC384867  34.031  20.679  64.482
13057DA     SC484868  33.779  20.581  64.558
13058DA     BB184869  33.096  20.842  64.457
13058DA     BB284870  33.288  21.083  64.258
13058DA     BB384871  33.328  21.004  64.064
13058DA     SC184872  33.599  20.875  64.146
13058DA     SC284873  33.841  20.911  64.102
13058DA     SC384874  33.871  20.668  64.178
13058DA     SC484875  33.596  20.722  64.196
13059DC     BB184876  33.242  21.088  63.887
13059DC     BB284877  33.542  21.256  63.778
13059DC     BB384878  33.620  21.160  63.612
13059DC     SC184879  33.710  20.963  63.759
13059DC     SC284880  33.925  20.970  63.765
13059DC     SC384881  33.741  20.719  63.856
13060DC     BB184882  33.544  21.369  63.457
13060DC     BB284883  33.902  21.347  63.415
13060DC     BB384884  33.948  21.213  63.264
13060DC     SC184885  33.890  21.008  63.418
13060DC     SC284886  34.071  20.903  63.466
13060DC     SC384887  33.770  20.792  63.509
13061DG     BB184888  34.112  21.577  63.187
13061DG     BB284889  34.359  21.313  63.182
13061DG     BB384890  34.344  21.209  63.013
13061DG     SC184891  34.142  21.008  63.125
13061DG     SC284892  34.191  20.717  63.172
13061DG     SC384893  33.905  20.783  63.210
13061DG     SC484894  33.986  21.041  63.116
13062DA     BB184895  34.680  21.273  63.018
13062DA     BB284896  34.743  20.912  63.010
13062DA     BB384897  34.695  20.832  62.818
13062DA     SC184898  34.400  20.767  62.893
13062DA     SC284899  34.260  20.564  62.931
13062DA     SC384900  34.060  20.719  62.888
13062DA     SC484901  34.289  20.879  62.861
13063DG     BB184902  34.990  20.758  62.855
13063DG     BB284903  34.856  20.422  62.838
13063DG     BB384904  34.812  20.377  62.649
13063DG     SC184905  34.525  20.483  62.665
13063DG     SC284906  34.277  20.319  62.648
13063DG     SC384907  34.213  20.607  62.641
13063DG     SC484908  34.498  20.637  62.632
13064DA     BB184909  34.998  20.092  62.713
13064DA     BB284910  34.711  19.884  62.620
13064DA     BB384911  34.680  19.890  62.409
13064DA     SC184912  34.487  20.133  62.419
13064DA     SC284913  34.244  20.177  62.382
13064DA     SC384914  34.314  20.422  62.351
13064DA     SC484915  34.550  20.279  62.402
13065DT     BB184916  34.711  19.720  62.295
13065DT     BB284917  34.366  19.648  62.222
13065DT     BB384918  34.323  19.699  62.026
13065DT     SC184919  34.321  19.955  62.086
13065DT     SC284920  34.120  20.030  62.073
13065DT     SC384921  34.389  20.210  62.088
13066DT     BB184922  34.317  19.435  61.925
13066DT     BB284923  33.996  19.570  61.827
13066DT     BB384924  34.010  19.656  61.640
13066DT     SC184925  34.138  19.864  61.736
13066DT     SC284926  34.011  20.037  61.726
13066DT     SC384927  34.331  20.039  61.779
13067DA     BB184928  33.694  19.383  61.579
13067DA     BB284929  33.580  19.708  61.453
13067DA     BB384930  33.665  19.748  61.262
13067DA     SC184931  33.916  19.893  61.375
13067DA     SC284932  34.007  20.125  61.383
13067DA     SC384933  34.233  20.013  61.430
13067DA     SC484934  34.047  19.804  61.403
13068DT     BB184935  33.550  19.758  61.063
13068DT     BB284936  33.556  20.118  61.038
13068DT     BB384937  33.676  20.176  60.880
13068DT     SC184938  33.894  20.119  61.014
13068DT     SC284939  33.997  20.302  61.063
13068DT     SC384940  34.121  20.003  61.082
13069DC     BB184941  33.457  20.252  60.731
13069DC     BB284942  33.656  20.551  60.763
13069DC     BB384943  33.792  20.562  60.608
13069DC     SC184944  33.943  20.377  60.717
13069DC     SC284945  34.126  20.465  60.786
13069DC     SC384946  34.070  20.148  60.749
13070DA     BB184947  33.578  20.918  60.655
13070DA     BB284948  33.936  20.997  60.647
13070DA     BB384949  34.013  20.970  60.450
13070DA     SC184950  34.093  20.673  60.495
13070DA     SC284951  34.302  20.539  60.517
13070DA     SC384952  34.155  20.337  60.458
13070DA     SC484953  33.985  20.560  60.456
13071DT     BB184954  34.066  21.127  60.402
13071DT     BB284955  34.420  21.064  60.426
13071DT     BB384956  34.495  21.009  60.241
13071DT     SC184957  34.388  20.770  60.260
13071DT     SC284958  34.544  20.624  60.284
13071DT     SC384959  34.235  20.561  60.207
13072DG     BB184960  34.691  21.317  60.423
13072DG     BB284961  34.917  21.058  60.310
13072DG     BB384962  34.929  21.061  60.112
13072DG     SC184963  34.696  20.867  60.069
13072DG     SC284964  34.716  20.591  59.958
13072DG     SC384965  34.434  20.673  59.986
13072DG     SC484966  34.548  20.925  60.058
13073DG     BB184967  35.246  21.091  60.176
13073DG     BB284968  35.286  20.786  59.985
13073DG     BB384969  35.271  20.825  59.791
13073DG     SC184970  34.968  20.783  59.781
13073DG     SC284971  34.826  20.563  59.637
13073DG     SC384972  34.634  20.764  59.739
13073DG     SC484973  34.871  20.907  59.811
13074DA     BB184974  35.574  20.655  59.750
13074DA     BB284975  35.417  20.427  59.510
13074DA     BB384976  35.387  20.525  59.323
13074DA     SC184977  35.101  20.626  59.395
13074DA     SC284978  34.866  20.579  59.326
13074DA     SC384979  34.812  20.809  59.426
13074DA     SC484980  35.088  20.772  59.461
13075DT     BB184981  35.495  20.474  59.145
13075DT     BB284982  35.223  20.314  58.969
13075DT     BB384983  35.158  20.437  58.815
13075DT     SC184984  35.037  20.597  58.984
13075DT     SC284985  34.824  20.577  58.960
13075DT     SC384986  34.976  20.815  59.119
13076DG     BB184987  35.278  20.106  58.601
13076DG     BB284988  34.942  20.202  58.507
13076DG     BB384989  34.948  20.348  58.373
13076DG     SC184990  34.945  20.572  58.581
13076DG     SC284991  34.725  20.769  58.625
13076DG     SC384992  34.964  20.842  58.783
13076DG     SC484993  35.085  20.624  58.641
13077DT     BB184994  34.875  20.347  58.132
13077DT     BB284995  34.567  20.534  58.157
13077DT     BB384996  34.590  20.720  58.067
13077DT     SC184997  34.733  20.808  58.268
13077DT     SC284998  34.620  20.956  58.376
13077DT     SC384999  34.939  20.902  58.404
13078DA     BB185000  34.253  20.565  57.868
13078DA     BB285001  34.165  20.902  57.984
13078DA     BB385002  34.251  21.049  57.856
13078DA     SC185003  34.513  21.075  58.021
13078DA     SC285004  34.624  21.243  58.168
13078DA     SC385005  34.840  21.114  58.120
13078DA     SC485006  34.637  20.982  57.978
13079DA     BB185007  33.942  21.161  57.824
13079DA     BB285008  34.055  21.473  57.980
13079DA     BB385009  34.156  21.595  57.837
13079DA     SC185010  34.437  21.477  57.897
13079DA     SC285011  34.650  21.552  58.003
13079DA     SC385012  34.759  21.358  57.874
13079DA     SC485013  34.486  21.352  57.808
13080DA     BB185014  33.936  21.814  57.940
13080DA     BB285015  34.218  22.016  58.057
13080DA     BB385016  34.312  22.115  57.892
13080DA     SC185017  34.515  21.884  57.838
13080DA     SC285018  34.760  21.845  57.861
13080DA     SC385019  34.724  21.655  57.692
13080DA     SC485020  34.472  21.772  57.732
13081DC     BB185021  34.302  22.316  57.885
13081DC     BB285022  34.644  22.379  57.983
13081DC     BB385023  34.755  22.439  57.818
13081DC     SC185024  34.761  22.195  57.723
13081DC     SC285025  34.961  22.117  57.737
13081DC     SC385026  34.720  21.990  57.561
13082DT     BB185027  34.759  22.675  57.937
13082DT     BB285028  35.105  22.583  57.895
13082DT     BB385029  35.168  22.630  57.703
13082DT     SC185030  35.037  22.426  57.602
13082DT     SC285031  35.177  22.278  57.533
13082DT     SC385032  34.861  22.290  57.460
13083DT     BB185033  35.313  22.823  57.815
13083DT     BB285034  35.550  22.622  57.633
13083DT     BB385035  35.554  22.680  57.434
13083DT     SC185036  35.324  22.563  57.387
13083DT     SC285037  35.356  22.392  57.260
13083DT     SC385038  35.070  22.531  57.323
13084DT     BB185039  35.796  22.788  57.479
13084DT     BB285040  35.847  22.556  57.207
13084DT     BB385041  35.801  22.647  57.027
13084DT     SC185042  35.544  22.631  57.075
13084DT     SC285043  35.455  22.488  56.941
13084DT     SC385044  35.295  22.704  57.121
13085DA     BB185045  36.186  22.485  56.983
13085DA     BB285046  35.988  22.384  56.692
13085DA     BB385047  35.958  22.550  56.561
13085DA     SC185048  35.693  22.640  56.695
13085DA     SC285049  35.450  22.645  56.639
13085DA     SC385050  35.432  22.822  56.824
13085DA     SC485051  35.702  22.749  56.813
13086DT     BB185052  36.045  22.552  56.370
13086DT     BB285053  35.742  22.487  56.185
13086DT     BB385054  35.680  22.660  56.090
13086DT     SC185055  35.594  22.763  56.315
13086DT     SC285056  35.379  22.772  56.312
13086DT     SC385057  35.573  22.927  56.521
13087DG     BB185058  35.734  22.382  55.796
13087DG     BB285059  35.403  22.527  55.781
13087DG     BB385060  35.411  22.706  55.694
13087DG     SC185061  35.458  22.858  55.955
13087DG     SC285062  35.269  23.050  56.083
13087DG     SC385063  35.531  23.055  56.219
13087DG     SC485064  35.608  22.880  56.006
13088DA     BB185065  35.160  22.583  55.493
13088DA     BB285066  34.938  22.850  55.609
13088DA     BB385067  34.990  23.035  55.516
13088DA     SC185068  35.189  23.120  55.740
13088DA     SC285069  35.202  23.291  55.921
13088DA     SC385070  35.455  23.248  55.916
13088DA     SC485071  35.344  23.080  55.721
13089DT     BB185072  34.854  23.098  55.408
13089DT     BB285073  34.743  23.363  55.626
13089DT     BB385074  34.821  23.544  55.562
13089DT     SC185075  35.059  23.483  55.654
13089DT     SC285076  35.103  23.608  55.824
13089DT     SC385077  35.317  23.429  55.658
13090DT     BB185078  34.571  23.589  55.504
13090DT     BB285079  34.667  23.854  55.729
13090DT     BB385080  34.771  24.000  55.625
13090DT     SC185081  34.985  23.849  55.611
13090DT     SC285082  35.139  23.933  55.737
13090DT     SC385083  35.181  23.705  55.509
13091DG     BB185084  34.451  24.157  55.825
13091DG     BB285085  34.756  24.339  55.893
13091DG     BB385086  34.806  24.450  55.735
13091DG     SC185087  34.975  24.231  55.603
13091DG     SC285088  35.271  24.238  55.564
13091DG     SC385089  35.150  24.008  55.421
13091DG     SC485090  34.904  24.127  55.505
13092DT     BB185091  34.812  24.657  55.762
13092DT     BB285092  35.166  24.726  55.752
13092DT     BB385093  35.220  24.793  55.563
13092DT     SC185094  35.201  24.550  55.464
13092DT     SC285095  35.398  24.479  55.414
13092DT     SC385096  35.117  24.348  55.317
13093DC     BB185097  35.251  25.044  55.659
13093DC     BB285098  35.567  24.968  55.502
13093DC     BB385099  35.558  25.013  55.300
13093DC     SC185100  35.412  24.800  55.252
13093DC     SC285101  35.528  24.658  55.140
13093DC     SC385102  35.207  24.652  55.179
13094DA     BB185103  35.898  25.218  55.440
13094DA     BB285104  35.995  25.037  55.136
13094DA     BB385105  35.916  25.134  54.963
13094DA     SC185106  35.652  24.970  54.962
13094DA     SC285107  35.545  24.793  54.822
13094DA     SC385108  35.325  24.868  54.932
13094DA     SC485109  35.526  25.031  55.040
13095DT     BB185110  36.041  25.229  54.820
13095DT     BB285111  36.010  24.980  54.561
13095DT     BB385112  35.891  25.052  54.408
13095DT     SC185113  35.673  25.021  54.551
13095DT     SC285114  35.556  24.861  54.468
13095DT     SC385115  35.454  25.079  54.685
13096DA     BB185116  36.244  24.924  54.221
13096DA     BB285117  35.962  24.780  54.036
13096DA     BB385118  35.867  24.930  53.918
13096DA     SC185119  35.664  25.011  54.140
13096DA     SC285120  35.419  24.992  54.182
13096DA     SC385121  35.454  25.183  54.349
13096DA     SC485122  35.706  25.131  54.238
13097DT     BB185123  35.873  24.923  53.707
13097DT     BB285124  35.531  24.817  53.658
13097DT     BB385125  35.418  24.975  53.585
13097DT     SC185126  35.414  25.091  53.820
13097DT     SC285127  35.215  25.082  53.901
13097DT     SC385128  35.456  25.271  54.009
13098DT     BB185129  35.404  24.863  53.334
13098DT     BB285130  35.060  24.907  53.431
13098DT     BB385131  34.995  25.096  53.377
13098DT     SC185132  35.129  25.207  53.573
13098DT     SC285133  34.992  25.283  53.720
13098DT     SC385134  35.307  25.357  53.698
13099DA     BB185135  34.713  24.832  53.212
13099DA     BB285136  34.529  25.091  53.394
13099DA     BB385137  34.529  25.274  53.284
13099DA     SC185138  34.788  25.382  53.417
13099DA     SC285139  34.852  25.563  53.577
13099DA     SC385140  35.089  25.536  53.481
13099DA     SC485141  34.928  25.351  53.344
13100DA     BB185142  34.202  25.248  53.319
13100DA     BB285143  34.218  25.561  53.510
13100DA     BB385144  34.239  25.727  53.378
13100DA     SC185145  34.550  25.723  53.384
13100DA     SC285146  34.735  25.863  53.474
13100DA     SC385147  34.883  25.743  53.303
13100DA     SC485148  34.625  25.638  53.270
13101DT     BB185149  34.086  25.868  53.360
13101DT     BB285150  34.247  26.126  53.554
13101DT     BB385151  34.312  26.278  53.429
13101DT     SC185152  34.512  26.132  53.342
13101DT     SC285153  34.697  26.213  53.415
13101DT     SC385154  34.665  25.995  53.177
13102DT     BB185155  34.121  26.424  53.540
13102DT     BB285156  34.428  26.600  53.609
13102DT     BB385157  34.481  26.717  53.447
13102DT     SC185158  34.559  26.506  53.311
13102DT     SC285159  34.773  26.510  53.290
13102DT     SC385160  34.569  26.322  53.122
13103DA     BB185161  34.493  26.935  53.806
13103DA     BB285162  34.808  26.988  53.625
13103DA     BB385163  34.774  27.105  53.450
13103DA     SC185164  34.724  26.860  53.266
13103DA     SC285165  34.839  26.744  53.078
13103DA     SC385166  34.608  26.645  53.024
13103DA     SC485167  34.572  26.810  53.248
13104DT     BB185168  34.862  27.264  53.463
13104DT     BB285169  35.123  27.189  53.226
13104DT     BB385170  35.076  27.269  53.041
13104DT     SC185171  34.897  27.082  52.997
13104DT     SC285172  34.967  26.952  52.841
13104DT     SC385173  34.664  26.967  52.954
13105DC     BB185174  35.273  27.438  53.089
13105DC     BB285175  35.360  27.276  52.779
13105DC     BB385176  35.260  27.367  52.622
13105DC     SC185177  35.034  27.253  52.690
13105DC     SC285178  34.981  27.106  52.542
13105DC     SC385179  34.784  27.225  52.770
13106DT     BB185180  35.496  27.463  52.549
13106DT     BB285181  35.377  27.279  52.263
13106DT     BB385182  35.247  27.396  52.152
13106DT     SC185183  35.056  27.366  52.329
13106DT     SC285184  34.900  27.244  52.246
13106DT     SC385185  34.877  27.426  52.513
13107DT     BB185186  35.437  27.413  51.964
13107DT     BB285187  35.151  27.275  51.794
13107DT     BB385188  35.025  27.427  51.733
13107DT     SC185189  34.939  27.466  51.978
13107DT     SC285190  34.734  27.402  51.992
13107DT     SC385191  34.892  27.585  52.208
13108DT     BB185192  35.102  27.371  51.484
13108DT     BB285193  34.743  27.333  51.483
13108DT     BB385194  34.653  27.517  51.456
13108DT     SC185195  34.706  27.588  51.703
13108DT     SC285196  34.524  27.597  51.817
13108DT     SC385197  34.809  27.721  51.906
13109DT     BB185198  34.586  27.428  51.216
13109DT     BB285199  34.274  27.513  51.376
13109DT     BB385200  34.238  27.716  51.358
13109DT     SC185201  34.419  27.772  51.540
13109DT     SC285202  34.321  27.846  51.717
13109DT     SC385203  34.638  27.869  51.651
13110DT     BB185204  34.046  27.645  51.193
13110DT     BB285205  33.883  27.838  51.451
13110DT     BB385206  33.903  28.040  51.411
13110DT     SC185207  34.155  28.038  51.485
13110DT     SC285208  34.177  28.147  51.669
13110DT     SC385209  34.418  28.057  51.472
13111DA     BB185210  33.501  27.947  51.493
13111DA     BB285211  33.595  28.240  51.691
13111DA     BB385212  33.622  28.410  51.564
13111DA     SC185213  33.926  28.358  51.520
13111DA     SC285214  34.143  28.463  51.585
13111DA     SC385215  34.242  28.332  51.388
13111DA     SC485216  33.968  28.270  51.392
13112DA     BB185217  33.410  28.531  51.783
13112DA     BB285218  33.666  28.781  51.861
13112DA     BB385219  33.682  28.923  51.703
13112DA     SC185220  33.901  28.764  51.550
13112DA     SC285221  34.144  28.787  51.498
13112DA     SC385222  34.099  28.620  51.308
13112DA     SC485223  33.853  28.660  51.437
13113DC     BB185224  33.629  29.108  51.743
13113DC     BB285225  33.960  29.251  51.751
13113DC     BB385226  33.996  29.355  51.576
13113DC     SC185227  34.027  29.132  51.440
13113DC     SC285228  34.234  29.112  51.383
13113DC     SC385229  33.985  28.942  51.262
13114DT     BB185230  33.979  29.583  51.716
13114DT     BB285231  34.303  29.598  51.558
13114DT     BB385232  34.286  29.674  51.367
13114DT     SC185233  34.183  29.450  51.278
13114DT     SC285234  34.324  29.354  51.147
13114DT     SC385235  34.010  29.280  51.175
13115DA     BB185236  34.585  29.894  51.563
13115DA     BB285237  34.714  29.797  51.234
13115DA     BB385238  34.619  29.911  51.080
13115DA     SC185239  34.389  29.706  51.037
13115DA     SC285240  34.316  29.545  50.862
13115DA     SC385241  34.086  29.556  50.975
13115DA     SC485242  34.253  29.728  51.121
13116DA     BB185243  34.932  29.978  50.997
13116DA     BB285244  34.859  29.827  50.671
13116DA     BB385245  34.740  29.959  50.553
13116DA     SC185246  34.469  29.843  50.653
13116DA     SC285247  34.281  29.708  50.561
13116DA     SC385248  34.144  29.803  50.757
13116DA     SC485249  34.401  29.914  50.781
13117DT     BB185250  34.814  30.054  50.376
13117DT     BB285251  34.628  29.858  50.137
13117DT     BB385252  34.475  29.971  50.056
13117DT     SC185253  34.334  29.951  50.277
13117DT     SC285254  34.162  29.828  50.240
13117DT     SC385255  34.205  30.021  50.496
13118DT     BB185256  34.592  30.025  49.798
13118DT     BB285257  34.273  29.879  49.715
13118DT     BB385258  34.131  30.028  49.691
13118DT     SC185259  34.116  30.066  49.950
13118DT     SC285260  33.925  29.998  50.022
13118DT     SC385261  34.133  30.186  50.185
13119DA     BB185262  34.090  29.849  49.308
13119DA     BB285263  33.752  29.876  49.447
13119DA     BB385264  33.677  30.074  49.421
13119DA     SC185265  33.785  30.177  49.694
13119DA     SC285266  33.692  30.248  49.914
13119DA     SC385267  33.917  30.366  49.949
13119DA     SC485268  33.931  30.244  49.696
13120DA     BB185269  33.406  29.965  49.250
13120DA     BB285270  33.199  30.082  49.529
13120DA     BB385271  33.152  30.289  49.505
13120DA     SC185272  33.401  30.389  49.662
13120DA     SC285273  33.449  30.500  49.880
13120DA     SC385274  33.673  30.566  49.774
13120DA     SC485275  33.534  30.421  49.578
13121DT     BB185276  32.942  30.371  49.468
13121DT     BB285277  32.894  30.473  49.810
13121DT     BB385278  32.884  30.680  49.822
13121DT     SC185279  33.143  30.702  49.786
13121DT     SC285280  33.235  30.770  49.969
13121DT     SC385281  33.374  30.767  49.676
13122DC     BB185282  32.621  30.655  49.880
13122DC     BB285283  32.768  30.813  50.169
13122DC     BB385284  32.771  31.018  50.144
13122DC     SC185285  32.970  31.002  49.974
13122DC     SC285286  33.147  31.085  50.063
13122DC     SC385287  33.106  31.021  49.748
13123DC     BB185288  32.594  31.007  50.337
13123DC     BB285289  32.867  31.203  50.467
13123DC     BB385290  32.850  31.399  50.403
13123DC     SC185291  32.929  31.335  50.161
13123DC     SC285292  33.124  31.418  50.125
13123DC     SC385293  32.924  31.300  49.900
13124DT     BB185294  32.809  31.425  50.657
13124DT     BB285295  33.094  31.632  50.581
13124DT     BB385296  33.032  31.810  50.497
13124DT     SC185297  32.978  31.692  50.268
13124DT     SC285298  33.120  31.757  50.120
13124DT     SC385299  32.841  31.602  50.062
13125DA     BB185300  33.312  31.860  50.805
13125DA     BB285301  33.413  32.067  50.520
13125DA     BB385302  33.276  32.229  50.495
13125DA     SC185303  33.091  32.073  50.300
13125DA     SC285304  33.030  32.079  50.058
13125DA     SC385305  32.821  31.948  50.128
13125DA     SC485306  32.966  31.994  50.364
13126DT     BB185307  33.364  32.382  50.522
13126DT     BB285308  33.369  32.499  50.181
13126DT     BB385309  33.213  32.630  50.148
13126DT     SC185310  33.039  32.433  50.144
13126DT     SC285311  32.963  32.409  49.944
13126DT     SC385312  32.835  32.281  50.213
13127DT     BB185313  33.399  32.818  50.137
13127DT     BB285314  33.216  32.850  49.827
13127DT     BB385315  33.046  32.964  49.857
13127DT     SC185316  32.925  32.767  49.980
13127DT     SC285317  32.765  32.693  49.857
13127DT     SC385318  32.808  32.628  50.172
13128DA     BB185319  33.250  33.127  49.528
13128DA     BB285320  32.895  33.103  49.439
13128DA     BB385321  32.782  33.250  49.543
13128DA     SC185322  32.721  33.066  49.787
13128DA     SC285323  32.523  32.950  49.885
13128DA     SC385324  32.662  32.942  50.101
13128DA     SC485325  32.822  33.072  49.911
13129DT     BB185326  32.695  33.404  49.440
13129DT     BB285327  32.351  33.300  49.472
13129DT     BB385328  32.255  33.418  49.612
13129DT     SC185329  32.376  33.294  49.810
13129DT     SC285330  32.233  33.176  49.919
13129DT     SC385331  32.531  33.254  50.020
13130DG     BB185332  32.031  33.493  49.276
13130DG     BB285333  31.815  33.410  49.554
13130DG     BB385334  31.788  33.570  49.669
13130DG     SC185335  32.029  33.512  49.848
13130DG     SC285336  32.018  33.438  50.137
13130DG     SC385337  32.297  33.491  50.052
13130DG     SC485338  32.172  33.570  49.807
13131DG     BB185339  31.443  33.611  49.642
13131DG     BB285340  31.420  33.558  49.999
13131DG     BB385341  31.434  33.732  50.095
13131DG     SC185342  31.739  33.723  50.120
13131DG     SC285343  31.893  33.696  50.374
13131DG     SC385344  32.073  33.755  50.147
13131DG     SC485345  31.828  33.784  50.002
13132DA     BB185346  31.125  33.712  50.283
13132DA     BB285347  31.306  33.722  50.602
13132DA     BB385348  31.347  33.924  50.657
13132DA     SC185349  31.623  33.934  50.513
13132DA     SC285350  31.864  33.945  50.577
13132DA     SC385351  31.901  34.031  50.338
13132DA     SC485352  31.625  33.988  50.362
13133DT     BB185353  31.255  34.049  50.840
13133DT     BB285354  31.549  34.032  51.048
13133DT     BB385355  31.631  34.221  51.069
13133DT     SC185356  31.728  34.214  50.825
13133DT     SC285357  31.942  34.200  50.834
13133DT     SC385358  31.767  34.277  50.572
13134DT     BB185359  31.547  34.265  51.338
13134DT     BB285360  31.905  34.302  51.354
13134DT     BB385361  31.957  34.501  51.328
13134DT     SC185362  31.908  34.489  51.071
13134DT     SC285363  32.092  34.502  50.962
13134DT     SC385364  31.795  34.537  50.837
13135DA     BB185365  32.145  34.382  51.683
13135DA     BB285366  32.399  34.542  51.472
13135DA     BB385367  32.374  34.754  51.474
13135DA     SC185368  32.184  34.757  51.228
13135DA     SC285369  32.191  34.833  50.990
13135DA     SC385370  31.935  34.829  51.002
13135DA     SC485371  32.026  34.750  51.255
13136DA     BB185372  32.690  34.751  51.565
13136DA     BB285373  32.763  34.936  51.257
13136DA     BB385374  32.710  35.141  51.280
13136DA     SC185375  32.420  35.103  51.174
13136DA     SC285376  32.287  35.167  50.973
13136DA     SC385377  32.082  35.125  51.120
13136DA     SC485378  32.305  35.074  51.282
13137DC     BB185379  32.858  35.295  51.282
13137DC     BB285380  32.791  35.420  50.950
13137DC     BB385381  32.698  35.604  50.962
13137DC     SC185382  32.471  35.494  51.034
13137DC     SC285383  32.328  35.514  50.874
13137DC     SC385384  32.261  35.432  51.180
13138DT     BB185385  32.925  35.742  50.879
13138DT     BB285386  32.672  35.834  50.638
13138DT     BB385387  32.571  36.002  50.702
13138DT     SC185388  32.439  35.864  50.882
13138DT     SC285389  32.232  35.852  50.824
13138DT     SC385390  32.352  35.780  51.117
13139DA     BB185391  32.703  36.082  50.314
13139DA     BB285392  32.344  36.157  50.329
13139DA     BB385393  32.311  36.341  50.432
13139DA     SC185394  32.282  36.206  50.711
13139DA     SC285395  32.102  36.164  50.878
13139DA     SC385396  32.292  36.134  51.047
13139DA     SC485397  32.415  36.193  50.801
13140DG     BB185398  32.188  36.409  50.161
13140DG     BB285399  31.884  36.418  50.356
13140DG     BB385400  31.868  36.593  50.449
13140DG     SC185401  32.018  36.502  50.700
13140DG     SC285402  31.901  36.470  50.972
13140DG     SC385403  32.196  36.442  50.980
13140DG     SC485404  32.178  36.517  50.704
13141DA     BB185405  31.565  36.548  50.304
13141DA     BB285406  31.412  36.570  50.636
13141DA     BB385407  31.425  36.769  50.711
13141DA     SC185408  31.698  36.726  50.852
13141DA     SC285409  31.785  36.712  51.086
13141DA     SC385410  32.013  36.764  50.982
13141DA     SC485411  31.831  36.761  50.769
13142DA     BB185412  31.124  36.645  50.738
13142DA     BB285413  31.161  36.718  51.096
13142DA     BB385414  31.174  36.928  51.128
13142DA     SC185415  31.484  36.937  51.105
13142DA     SC285416  31.679  36.976  51.256
13142DA     SC385417  31.809  37.028  51.041
13142DA     SC485418  31.548  36.967  50.960
13143DA     BB185419  30.948  36.811  51.333
13143DA     BB285420  31.149  36.962  51.599
13143DA     BB385421  31.144  37.175  51.584
13143DA     SC185422  31.394  37.193  51.400
13143DA     SC285423  31.630  37.273  51.417
13143DA     SC385424  31.624  37.281  51.161
13143DA     SC485425  31.370  37.193  51.241
13144DT     BB185426  31.056  37.264  51.729
13144DT     BB285427  31.347  37.413  51.883
13144DT     BB385428  31.360  37.612  51.830
13144DT     SC185429  31.442  37.551  51.588
13144DT     SC285430  31.649  37.607  51.566
13144DT     SC385431  31.446  37.530  51.325
13145DT     BB185432  31.280  37.698  52.080
13145DT     BB285433  31.591  37.872  52.026
13145DT     BB385434  31.556  38.051  51.929
13145DT     SC185435  31.513  37.929  51.701
13145DT     SC285436  31.674  37.972  51.565
13145DT     SC385437  31.388  37.843  51.485
13146DA     BB185438  31.771  38.176  52.268
13146DA     BB285439  31.924  38.341  51.979
13146DA     BB385440  31.804  38.506  51.915
13146DA     SC185441  31.636  38.337  51.715
13146DA     SC285442  31.609  38.316  51.468
13146DA     SC385443  31.384  38.206  51.522
13146DA     SC485444  31.499  38.272  51.769
13147DA     BB185445  32.073  38.699  51.949
13147DA     BB285446  32.052  38.771  51.590
13147DA     BB385447  31.906  38.922  51.554
13147DA     SC185448  31.673  38.720  51.514
13147DA     SC285449  31.529  38.638  51.327
13147DA     SC385450  31.367  38.563  51.511
13147DA     SC485451  31.584  38.682  51.643
13148DT     BB185452  31.957  39.121  51.482
13148DT     BB285453  31.842  39.074  51.143
13148DT     BB385454  31.670  39.185  51.111
13148DT     SC185455  31.525  39.016  51.250
13148DT     SC285456  31.393  38.909  51.117
13148DT     SC385457  31.371  38.919  51.441
13149DA     BB185458  31.934  39.289  50.804
13149DA     BB285459  31.611  39.211  50.650
13149DA     BB385460  31.472  39.370  50.683
13149DA     SC185461  31.361  39.251  50.948
13149DA     SC285462  31.150  39.147  51.029
13149DA     SC385463  31.234  39.206  51.264
13149DA     SC485464  31.431  39.297  51.085
13150DA     BB185465  31.444  39.357  50.356
13150DA     BB285466  31.089  39.281  50.406
13150DA     BB385467  30.982  39.459  50.458
13150DA     SC185468  31.020  39.421  50.764
13150DA     SC285469  30.880  39.365  50.963
13150DA     SC385470  31.069  39.470  51.101
13150DA     SC485471  31.148  39.491  50.832
13151DA     BB185472  30.789  39.379  50.202
13151DA     BB285473  30.508  39.360  50.436
13151DA     BB385474  30.439  39.556  50.486
13151DA     SC185475  30.627  39.586  50.732
13151DA     SC285476  30.606  39.595  50.980
13151DA     SC385477  30.838  39.706  50.975
13151DA     SC485478  30.771  39.655  50.708
13152DA     BB185479  30.150  39.432  50.387
13152DA     BB285480  30.028  39.499  50.727
13152DA     BB385481  29.992  39.708  50.753
13152DA     SC185482  30.279  39.768  50.857
13152DA     SC285483  30.387  39.834  51.072
13152DA     SC385484  30.583  39.913  50.926
13152DA     SC485485  30.389  39.812  50.749
13153DA     BB185486  29.691  39.607  50.844
13153DA     BB285487  29.760  39.757  51.172
13153DA     BB385488  29.740  39.969  51.162
13153DA     SC185489  30.039  40.018  51.091
13153DA     SC285490  30.241  40.115  51.200
13153DA     SC385491  30.333  40.139  50.961
13153DA     SC485492  30.077  40.026  50.935
13154DT     BB185493  29.587  40.065  51.266
13154DT     BB285494  29.795  40.200  51.528
13154DT     BB385495  29.819  40.404  51.501
13154DT     SC185496  29.987  40.365  51.303
13154DT     SC285497  30.185  40.424  51.364
13154DT     SC385498  30.089  40.369  51.060
13155DA     BB185499  29.690  40.340  51.895
13155DA     BB285500  29.985  40.558  51.906
13155DA     BB385501  29.936  40.753  51.837
13155DA     SC185502  30.006  40.693  51.540
13155DA     SC285503  30.181  40.758  51.374
13155DA     SC385504  30.012  40.681  51.196
13155DA     SC485505  29.887  40.642  51.444
13156DT     BB185506  29.948  40.897  51.969
13156DT     BB285507  30.252  41.045  51.844
13156DT     BB385508  30.208  41.218  51.739
13156DT     SC185509  30.118  41.080  51.535
13156DT     SC285510  30.253  41.101  51.369
13156DT     SC385511  29.951  40.985  51.354
13157DA     BB185512  30.510  41.293  52.021
13157DA     BB285513  30.618  41.427  51.697
13157DA     BB385514  30.504  41.600  51.647
13157DA     SC185515  30.285  41.440  51.494
13157DA     SC285516  30.209  41.410  51.258
13157DA     SC385517  29.989  41.327  51.361
13157DA     SC485518  30.156  41.393  51.577
13158DT     BB185519  30.607  41.757  51.639
13158DT     BB285520  30.608  41.793  51.280
13158DT     BB385521  30.467  41.933  51.223
13158DT     SC185522  30.271  41.765  51.267
13158DT     SC285523  30.182  41.708  51.080
13158DT     SC385524  30.053  41.660  51.374
13159DT     BB185525  30.670  42.097  51.163
13159DT     BB285526  30.479  42.071  50.857
13159DT     BB385527  30.322  42.206  50.860
13159DT     SC185528  30.188  42.058  51.030
13159DT     SC285529  30.017  41.974  50.931
13159DT     SC385530  30.065  41.984  51.252
13160DA     BB185531  30.529  42.266  50.499
13160DA     BB285532  30.172  42.242  50.422
13160DA     BB385533  30.070  42.419  50.485
13160DA     SC185534  30.004  42.309  50.768
13160DA     SC285535  29.802  42.235  50.895
13160DA     SC385536  29.944  42.274  51.105
13160DA     SC485537  30.108  42.340  50.886
13161DA     BB185538  29.967  42.425  50.171
13161DA     BB285539  29.625  42.397  50.301
13161DA     BB385540  29.560  42.585  50.380
13161DA     SC185541  29.662  42.526  50.668
13161DA     SC285542  29.564  42.481  50.893
13161DA     SC385543  29.792  42.551  50.985
13161DA     SC485544  29.810  42.575  50.706
13162DT     BB185545  29.407  42.689  50.288
13162DT     BB285546  29.154  42.617  50.535
13162DT     BB385547  29.116  42.786  50.649
13162DT     SC185548  29.342  42.756  50.780
13162DT     SC285549  29.299  42.700  50.983
13162DT     SC385550  29.584  42.806  50.872
13163DT     BB185551  28.875  42.820  50.527
13163DT     BB285552  28.796  42.796  50.879
13163DT     BB385553  28.809  42.983  50.967
13163DT     SC185554  29.071  42.977  50.961
13163DT     SC285555  29.146  42.959  51.162
13163DT     SC385556  29.319  43.042  50.900
13164DC     BB185557  28.540  42.986  50.988
13164DC     BB285558  28.658  43.030  51.326
13164DC     BB385559  28.695  43.231  51.362
13164DC     SC185560  28.915  43.225  51.219
13164DC     SC285561  29.085  43.246  51.349
13164DC     SC385562  29.087  43.277  51.027
13165DA     BB185563  28.450  43.084  51.670
13165DA     BB285564  28.728  43.268  51.823
13165DA     BB385565  28.703  43.478  51.794
13165DA     SC185566  28.862  43.484  51.527
13165DA     SC285567  29.080  43.573  51.444
13165DA     SC385568  28.976  43.554  51.210
13165DA     SC485569  28.779  43.467  51.390
13166DA     BB185570  28.740  43.476  52.121
13166DA     BB285571  29.033  43.689  52.070
13166DA     BB385572  28.973  43.888  52.021
13166DA     SC185573  28.972  43.837  51.714
13166DA     SC285574  29.105  43.906  51.515
13166DA     SC385575  28.899  43.838  51.378
13166DA     SC485576  28.833  43.791  51.647
13167DA     BB185577  29.166  43.969  52.276
13167DA     BB285578  29.367  44.165  52.040
13167DA     BB385579  29.268  44.347  51.991
13167DA     SC185580  29.117  44.229  51.746
13167DA     SC285581  29.123  44.250  51.498
13167DA     SC385582  28.885  44.154  51.504
13167DA     SC485583  28.970  44.169  51.771
13168DG     BB185584  29.514  44.503  52.114
13168DG     BB285585  29.558  44.618  51.774
13168DG     BB385586  29.444  44.778  51.741
13168DG     SC185587  29.201  44.616  51.647
13168DG     SC285588  29.088  44.613  51.371
13168DG     SC385589  28.911  44.469  51.559
13168DG     SC485590  29.095  44.565  51.756
13169DT     BB185591  29.521  44.998  51.691
13169DT     BB285592  29.451  45.012  51.337
13169DT     BB385593  29.291  45.138  51.302
13169DT     SC185594  29.121  44.960  51.392
13169DT     SC285595  29.003  44.885  51.228
13169DT     SC385596  28.937  44.847  51.543
13170DT     BB185597  29.451  45.339  51.194
13170DT     BB285598  29.216  45.262  50.932
13170DT     BB385599  29.047  45.380  50.951
13170DT     SC185600  28.961  45.239  51.155
13170DT     SC285601  28.786  45.128  51.096
13170DT     SC385602  28.887  45.178  51.400
13171DA     BB185603  29.187  45.413  50.559
13171DA     BB285604  28.830  45.333  50.545
13171DA     BB385605  28.714  45.504  50.599
13171DA     SC185606  28.706  45.432  50.902
13171DA     SC285607  28.537  45.355  51.069
13171DA     SC385608  28.701  45.444  51.245
13171DA     SC485609  28.820  45.495  50.996
13172DC     BB185610  28.617  45.549  50.458
13172DC     BB285611  28.302  45.425  50.583
13172DC     BB385612  28.195  45.580  50.671
13172DC     SC185613  28.350  45.578  50.882
13172DC     SC285614  28.240  45.505  51.051
13172DC     SC385615  28.524  45.660  51.063
13173DA     BB185616  27.969  45.343  50.403
13173DA     BB285617  27.781  45.383  50.715
13173DA     BB385618  27.721  45.587  50.739
13173DA     SC185619  27.976  45.669  50.896
13173DA     SC285620  28.036  45.735  51.129
13173DA     SC385621  28.246  45.838  51.024
13173DA     SC485622  28.099  45.728  50.812
13174DT     BB185623  27.546  45.589  50.737
13174DT     BB285624  27.494  45.660  51.087
13174DT     BB385625  27.475  45.864  51.115
13174DT     SC185626  27.732  45.901  51.081
13174DT     SC285627  27.821  45.958  51.269
13174DT     SC385628  27.959  45.986  50.977
13175DT     BB185629  27.220  45.814  51.166
13175DT     BB285630  27.339  45.991  51.456
13175DT     BB385631  27.338  46.194  51.421
13175DT     SC185632  27.550  46.177  51.267
13175DT     SC285633  27.717  46.270  51.365
13175DT     SC385634  27.702  46.188  51.052
13176DC     BB185635  27.125  46.225  51.586
13176DC     BB285636  27.374  46.450  51.718
13176DC     BB385637  27.365  46.631  51.619
13176DC     SC185638  27.480  46.530  51.406
13176DC     SC285639  27.677  46.612  51.385
13176DC     SC385640  27.514  46.450  51.157
13177DT     BB185641  27.245  46.767  51.831
13177DT     BB285642  27.543  46.958  51.762
13177DT     BB385643  27.503  47.103  51.619
13177DT     SC185644  27.497  46.924  51.427
13177DT     SC285645  27.668  46.951  51.300
13177DT     SC385646  27.407  46.773  51.231
13178DT     BB185647  27.507  47.317  51.800
13178DT     BB285648  27.757  47.402  51.555
13178DT     BB385649  27.671  47.510  51.400
13178DT     SC185650  27.559  47.294  51.302
13178DT     SC285651  27.654  47.243  51.115
13178DT     SC385652  27.372  47.125  51.224
13179DA     BB185653  27.998  47.733  51.536
13179DA     BB285654  28.030  47.695  51.173
13179DA     BB385655  27.890  47.820  51.073
13179DA     SC185656  27.666  47.604  51.064
13179DA     SC285657  27.553  47.463  50.893
13179DA     SC385658  27.366  47.438  51.067
13179DA     SC485659  27.560  47.602  51.185
13180DT     BB185660  27.972  47.953  50.968
13180DT     BB285661  27.914  47.794  50.650
13180DT     BB385662  27.754  47.883  50.554
13180DT     SC185663  27.583  47.766  50.715
13180DT     SC285664  27.471  47.618  50.605
13180DT     SC385665  27.395  47.735  50.897
13181DT     BB185666  27.948  47.953  50.399
13181DT     BB285667  27.720  47.762  50.195
13181DT     BB385668  27.558  47.879  50.141
13181DT     SC185669  27.456  47.861  50.382
13181DT     SC285670  27.277  47.741  50.375
13181DT     SC385671  27.368  47.933  50.620
13182DC     BB185672  27.678  47.838  49.918
13182DC     BB285673  27.342  47.711  49.879
13182DC     BB385674  27.210  47.867  49.854
13182DC     SC185675  27.223  47.929  50.109
13182DC     SC285676  27.036  47.882  50.204
13182DC     SC385677  27.271  48.066  50.329
13183DA     BB185678  27.157  47.558  49.571
13183DA     BB285679  26.830  47.654  49.705
13183DA     BB385680  26.779  47.852  49.642
13183DA     SC185681  26.907  47.989  49.890
13183DA     SC285682  26.830  48.112  50.093
13183DA     SC385683  27.069  48.205  50.102
13183DA     SC485684  27.060  48.037  49.878
13184DT     BB185685  26.630  47.858  49.527
13184DT     BB285686  26.396  48.008  49.758
13184DT     BB385687  26.383  48.211  49.722
13184DT     SC185688  26.616  48.254  49.834
13184DT     SC285689  26.588  48.359  50.020
13184DT     SC385690  26.869  48.324  49.862
13185DT     BB185691  26.135  48.182  49.610
13185DT     BB285692  26.086  48.427  49.871
13185DT     BB385693  26.129  48.617  49.798
13185DT     SC185694  26.387  48.570  49.805
13185DT     SC285695  26.477  48.689  49.959
13185DT     SC385696  26.635  48.535  49.722
13186DT     BB185697  25.861  48.697  49.783
13186DT     BB285698  26.015  48.950  49.989
13186DT     BB385699  26.087  49.103  49.870
13186DT     SC185700  26.289  48.957  49.790
13186DT     SC285701  26.471  49.035  49.873
13186DT     SC385702  26.450  48.822  49.630
13187DA     BB185703  25.842  49.299  50.150
13187DA     BB285704  26.165  49.473  50.146
13187DA     BB385705  26.182  49.594  49.971
13187DA     SC185706  26.313  49.371  49.799
13187DA     SC285707  26.536  49.323  49.698
13187DA     SC385708  26.409  49.163  49.543
13187DA     SC485709  26.216  49.278  49.711
13188DG     BB185710  26.207  49.833  50.170
13188DG     BB285711  26.541  49.852  50.034
13188DG     BB385712  26.540  49.957  49.865
13188DG     SC185713  26.488  49.714  49.686
13188DG     SC285714  26.679  49.600  49.486
13188DG     SC385715  26.412  49.473  49.462
13188DG     SC485716  26.337  49.670  49.656
13189DA     BB185717  26.794  50.131  50.016
13189DA     BB285718  27.019  50.035  49.743
13189DA     BB385719  26.975  50.148  49.568
13189DA     SC185720  26.771  49.941  49.456
13189DA     SC285721  26.757  49.779  49.267
13189DA     SC385722  26.504  49.788  49.305
13189DA     SC485723  26.616  49.962  49.494
13190DA     BB185724  27.296  50.185  49.613
13190DA     BB285725  27.335  50.030  49.283
13190DA     BB385726  27.270  50.163  49.130
13190DA     SC185727  26.976  50.060  49.131
13190DA     SC285728  26.826  49.930  48.980
13190DA     SC385729  26.634  50.033  49.115
13190DA     SC485730  26.871  50.136  49.226
13191DT     BB185731  27.409  50.209  49.024
13191DT     BB285732  27.312  50.017  48.734
13191DT     BB385733  27.213  50.139  48.599
13191DT     SC185734  26.997  50.142  48.747
13191DT     SC285735  26.841  50.031  48.648
13191DT     SC385736  26.801  50.232  48.898
13192DT     BB185737  27.430  50.105  48.456
13192DT     BB285738  27.158  49.995  48.246
13192DT     BB385739  27.065  50.158  48.159
13192DT     SC185740  26.947  50.221  48.385
13192DT     SC285741  26.736  50.185  48.368
13192DT     SC385742  26.881  50.358  48.600
13193DT     BB185743  27.173  50.082  47.928
13193DT     BB285744  26.819  50.099  47.862
13193DT     BB385745  26.765  50.294  47.818
13193DT     SC185746  26.785  50.365  48.069
13193DT     SC285747  26.589  50.407  48.148
13193DT     SC385748  26.870  50.489  48.286
13194DA     BB185749  26.614  50.053  47.508
13194DA     BB285750  26.345  50.275  47.619
13194DA     BB385751  26.382  50.475  47.554
13194DA     SC185752  26.538  50.555  47.811
13194DA     SC285753  26.504  50.703  48.009
13194DA     SC385754  26.759  50.693  48.035
13194DA     SC485755  26.698  50.537  47.810
13195DA     BB185756  26.079  50.447  47.425
13195DA     BB285757  25.981  50.726  47.641
13195DA     BB385758  26.055  50.910  47.563
13195DA     SC185759  26.323  50.898  47.721
13195DA     SC285760  26.431  51.019  47.910
13195DA     SC385761  26.651  50.922  47.820
13195DA     SC485762  26.449  50.829  47.649
13196DA     BB185763  25.738  51.003  47.582
13196DA     BB285764  25.847  51.263  47.816
13196DA     BB385765  25.941  51.423  47.711
13196DA     SC185766  26.227  51.302  47.732
13196DA     SC285767  26.440  51.351  47.851
13196DA     SC385768  26.550  51.204  47.672
13196DA     SC485769  26.277  51.208  47.611
13197DA     BB185770  25.717  51.606  47.870
13197DA     BB285771  25.999  51.778  48.030
13197DA     BB385772  26.089  51.915  47.894
13197DA     SC185773  26.294  51.708  47.783
13197DA     SC285774  26.540  51.668  47.793
13197DA     SC385775  26.504  51.525  47.583
13197DA     SC485776  26.251  51.624  47.653
13198DA     BB185777  26.034  52.128  48.139
13198DA     BB285778  26.398  52.173  48.156
13198DA     BB385779  26.465  52.296  47.995
13198DA     SC185780  26.515  52.058  47.802
13198DA     SC285781  26.710  51.942  47.698
13198DA     SC385782  26.542  51.854  47.526
13198DA     SC485783  26.395  52.015  47.704
13199DT     BB185784  26.542  52.479  48.037
13199DT     BB285785  26.887  52.391  47.978
13199DT     BB385786  26.951  52.470  47.798
13199DT     SC185787  26.816  52.290  47.662
13199DT     SC285788  26.954  52.155  47.567
13199DT     SC385789  26.638  52.185  47.499
13200DC     BB185790  27.103  52.649  47.932
13200DC     BB285791  27.335  52.469  47.723
13200DC     BB385792  27.342  52.556  47.535
13200DC     SC185793  27.109  52.456  47.470
13200DC     SC285794  27.136  52.304  47.320
13200DC     SC385795  26.855  52.443  47.401
13201DT     BB185796  27.589  52.646  47.595
13201DT     BB285797  27.632  52.445  47.299
13201DT     BB385798  27.595  52.559  47.130
13201DT     SC185799  27.336  52.552  47.172
13201DT     SC285800  27.242  52.430  47.022
13201DT     SC385801  27.090  52.634  47.224
13202DT     BB185802  27.858  52.549  47.079
13202DT     BB285803  27.701  52.407  46.787
13202DT     BB385804  27.646  52.558  46.656
13202DT     SC185805  27.443  52.626  46.808
13202DT     SC285806  27.259  52.574  46.709
13202DT     SC385807  27.289  52.771  46.965
13203DT     BB185808  27.843  52.475  46.495
13203DT     BB285809  27.545  52.456  46.293
13203DT     BB385810  27.506  52.640  46.207
13203DT     SC185811  27.420  52.736  46.436
13203DT     SC285812  27.208  52.768  46.425
13203DT     SC385813  27.406  52.887  46.652
13204DA     BB185814  27.501  52.353  45.902
13204DA     BB285815  27.199  52.559  45.868
13204DA     BB385816  27.250  52.753  45.794
13204DA     SC185817  27.289  52.877  46.076
13204DA     SC285818  27.173  53.043  46.223
13204DA     SC385819  27.398  53.060  46.345
13204DA     SC485820  27.437  52.875  46.139
13205DT     BB185821  27.186  52.808  45.608
13205DT     BB285822  26.929  53.037  45.716
13205DT     BB385823  26.993  53.232  45.687
13205DT     SC185824  27.155  53.219  45.893
13205DT     SC285825  27.080  53.345  46.051
13205DT     SC385826  27.378  53.218  46.033
13206DC     BB185827  26.821  53.266  45.475
13206DC     BB285828  26.732  53.530  45.704
13206DC     BB385829  26.848  53.698  45.667
13206DC     SC185830  27.058  53.587  45.779
13206DC     SC285831  27.102  53.687  45.964
13206DC     SC385832  27.299  53.484  45.806
13207DA     BB185833  26.449  53.826  45.664
13207DA     BB285834  26.637  54.051  45.884
13207DA     BB385835  26.759  54.183  45.769
13207DA     SC185836  27.006  53.995  45.770
13207DA     SC285837  27.234  53.991  45.871
13207DA     SC385838  27.291  53.821  45.686
13207DA     SC485839  27.022  53.893  45.647
13208DC     BB185840  26.713  54.376  45.776
13208DC     BB285841  26.988  54.476  45.988
13208DC     BB385842  27.132  54.573  45.875
13208DC     SC185843  27.213  54.346  45.771
13208DC     SC285844  27.409  54.298  45.846
13208DC     SC385845  27.265  54.159  45.591
13209DT     BB185846  27.056  54.792  46.002
13209DT     BB285847  27.408  54.759  46.073
13209DT     BB385848  27.520  54.839  45.917
13209DT     SC185849  27.468  54.633  45.764
13209DT     SC285850  27.647  54.518  45.735
13209DT     SC385851  27.375  54.491  45.561
13210DA     BB185852  27.651  54.985  46.288
13210DA     BB285853  27.944  54.876  46.096
13210DA     BB385854  27.979  55.008  45.933
13210DA     SC185855  27.803  54.848  45.733
13210DA     SC285856  27.836  54.706  45.530
13210DA     SC385857  27.589  54.754  45.481
13210DA     SC485858  27.648  54.890  45.719
13211DA     BB185859  28.271  54.998  46.080
13211DA     BB285860  28.404  54.878  45.760
13211DA     BB385861  28.405  55.035  45.617
13211DA     SC185862  28.120  54.973  45.508
13211DA     SC285863  28.018  54.883  45.300
13211DA     SC385864  27.802  54.995  45.381
13211DA     SC485865  27.997  55.051  45.576
13212DT     BB185866  28.580  55.094  45.558
13212DT     BB285867  28.568  54.956  45.225
13212DT     BB385868  28.524  55.105  45.088
13212DT     SC185869  28.273  55.111  45.163
13212DT     SC285870  28.150  55.032  45.005
13212DT     SC385871  28.045  55.200  45.261
13213DC     BB185872  28.781  55.105  44.995
13213DC     BB285873  28.580  55.049  44.700
13213DC     BB385874  28.524  55.231  44.618
13213DC     SC185875  28.347  55.270  44.808
13213DC     SC285876  28.149  55.255  44.725
13213DC     SC385877  28.224  55.379  45.015
13214DT     BB185878  28.698  55.203  44.408
13214DT     BB285879  28.377  55.251  44.250
13214DT     BB385880  28.341  55.453  44.223
13214DT     SC185881  28.291  55.486  44.479
13214DT     SC285882  28.081  55.528  44.505
13214DT     SC385883  28.313  55.571  44.727
13215DA     BB185884  28.282  55.272  43.850
13215DA     BB285885  27.993  55.488  43.916
13215DA     BB385886  28.047  55.693  43.893
13215DA     SC185887  28.129  55.731  44.190
13215DA     SC285888  28.043  55.852  44.391
13215DA     SC385889  28.281  55.827  44.482
13215DA     SC485890  28.283  55.707  44.229
13216DA     BB185891  27.788  55.685  43.692
13216DA     BB285892  27.636  55.939  43.908
13216DA     BB385893  27.727  56.129  43.874
13216DA     SC185894  27.945  56.090  44.093
13216DA     SC285895  28.000  56.185  44.317
13216DA     SC385896  28.236  56.094  44.275
13216DA     SC485897  28.085  56.028  44.048
13217DC     BB185898  27.615  56.274  43.793
13217DC     BB285899  27.576  56.475  44.089
13217DC     BB385900  27.700  56.641  44.079
13217DC     SC185901  27.912  56.495  44.130
13217DC     SC285902  27.986  56.544  44.326
13217DC     SC385903  28.146  56.378  44.098
13218DT     BB185904  27.489  56.812  44.030
13218DT     BB285905  27.651  56.955  44.319
13218DT     BB385906  27.801  57.085  44.259
13218DT     SC185907  27.958  56.886  44.191
13218DT     SC285908  28.123  56.876  44.328
13218DT     SC385909  28.104  56.724  44.043
13219DA     BB185910  27.571  57.335  44.509
13219DA     BB285911  27.921  57.377  44.610
13219DA     BB385912  28.024  57.502  44.471
13219DA     SC185913  28.116  57.266  44.290
13219DA     SC285914  28.329  57.150  44.232
13219DA     SC385915  28.204  57.067  44.024
13219DA     SC485916  28.022  57.226  44.166
13220DT     BB185917  28.110  57.728  44.500
13220DT     BB285918  28.457  57.633  44.522
13220DT     BB385919  28.561  57.705  44.357
13220DT     SC185920  28.456  57.522  44.201
13220DT     SC285921  28.608  57.381  44.143
13220DT     SC385922  28.316  57.412  44.006
13221DA     BB185923  28.793  57.882  44.663
13221DA     BB285924  29.027  57.705  44.442
13221DA     BB385925  29.069  57.823  44.269
13221DA     SC185926  28.837  57.702  44.101
13221DA     SC285927  28.811  57.553  43.903
13221DA     SC385928  28.576  57.654  43.883
13221DA     SC485929  28.695  57.778  44.104
13222DG     BB185930  29.370  57.829  44.358
13222DG     BB285931  29.413  57.623  44.063
13222DG     BB385932  29.442  57.739  43.904
13222DG     SC185933  29.145  57.762  43.836
13222DG     SC285934  29.011  57.649  43.594
13222DG     SC385935  28.826  57.825  43.744
13222DG     SC485936  29.059  57.880  43.902
13223DA     BB185937  29.711  57.534  43.861
13223DA     BB285938  29.572  57.424  43.540
13223DA     BB385939  29.600  57.575  43.392
13223DA     SC185940  29.328  57.715  43.448
13223DA     SC285941  29.109  57.745  43.333
13223DA     SC385942  29.076  57.944  43.491
13223DA     SC485943  29.327  57.836  43.554
13224DA     BB185944  29.710  57.293  43.273
13224DA     BB285945  29.457  57.337  43.011
13224DA     BB385946  29.510  57.500  42.884
13224DA     SC185947  29.357  57.713  43.051
13224DA     SC285948  29.153  57.856  43.027
13224DA     SC385949  29.258  58.001  43.211
13224DA     SC485950  29.439  57.791  43.165
13225DA     BB185951  29.440  57.241  42.697
13225DA     BB285952  29.185  57.455  42.544
13225DA     BB385953  29.277  57.613  42.434
13225DA     SC185954  29.282  57.811  42.674
13225DA     SC285955  29.168  58.022  42.742
13225DA     SC385956  29.367  58.054  42.902
13225DA     SC485957  29.414  57.813  42.766
13226DT     BB185958  29.240  57.598  42.256
13226DT     BB285959  29.015  57.879  42.228
13226DT     BB385960  29.117  58.044  42.157
13226DT     SC185961  29.234  58.081  42.389
13226DT     SC285962  29.157  58.260  42.480
13226DT     SC385963  29.425  58.101  42.570
13227DA     BB185964  28.776  57.995  41.915
13227DA     BB285965  28.798  58.349  42.009
13227DA     BB385966  28.959  58.444  41.905
13227DA     SC185967  29.169  58.384  42.127
13227DA     SC285968  29.300  58.512  42.296
13227DA     SC385969  29.457  58.309  42.299
13227DA     SC485970  29.255  58.249  42.113
13228DT     BB185971  28.929  58.594  41.753
13228DT     BB285972  29.039  58.878  41.947
13228DT     BB385973  29.223  58.942  41.879
13228DT     SC185974  29.345  58.739  41.992
13228DT     SC285975  29.463  58.809  42.158
13228DT     SC385976  29.485  58.517  42.019
13229DG     BB185977  28.992  59.276  41.818
13229DG     BB285978  29.288  59.359  42.008
13229DG     BB385979  29.443  59.384  41.886
13229DG     SC185980  29.528  59.090  41.894
13229DG     SC285981  29.780  58.984  42.014
13229DG     SC385982  29.638  58.773  41.865
13229DG     SC485983  29.465  58.988  41.789
13230DA     BB185984  29.510  59.702  42.019
13230DA     BB285985  29.840  59.589  42.133
13230DA     BB385986  29.980  59.594  41.971
13230DA     SC185987  29.924  59.302  41.882
13230DA     SC285988  30.043  59.083  41.882
13230DA     SC385989  29.876  59.015  41.700
13230DA     SC485990  29.812  59.279  41.769
13231DT     BB185991  30.141  59.728  41.975
13231DT     BB285992  30.392  59.483  42.059
13231DT     BB385993  30.513  59.447  41.894
13231DT     SC185994  30.325  59.306  41.777
13231DT     SC285995  30.383  59.099  41.773
13231DT     SC385996  30.144  59.233  41.600
13232DA     BB185997  30.743  59.527  42.236
13232DA     BB285998  30.867  59.218  42.082
13232DA     BB385999  30.968  59.261  41.899
13232DA     SC186000  30.713  59.233  41.723
13232DA     SC286001  30.624  59.076  41.551
13232DA     SC386002  30.472  59.270  41.482
13232DA     SC486003  30.628  59.366  41.693
13233DT     BB186004  31.145  59.216  41.911
13233DT     BB286005  31.129  58.921  41.704
13233DT     BB386006  31.193  58.965  41.512
13233DT     SC186007  30.969  59.091  41.458
13233DT     SC286008  30.856  58.978  41.315
13233DT     SC386009  30.803  59.287  41.397
13234DT     BB186010  31.400  58.816  41.577
13234DT     BB286011  31.258  58.662  41.283
13234DT     BB386012  31.324  58.761  41.113
13234DT     SC186013  31.164  58.964  41.160
13234DT     SC286014  31.008  58.967  41.012
13234DT     SC386015  31.084  59.209  41.214
13235DT     BB186016  31.466  58.543  41.066
13235DT     BB286017  31.261  58.587  40.772
13235DT     BB386018  31.350  58.723  40.644
13235DT     SC186019  31.282  58.925  40.798
13235DT     SC286020  31.131  59.042  40.700
13235DT     SC386021  31.304  59.133  40.958
13236DT     BB186022  31.402  58.518  40.482
13236DT     BB286023  31.214  58.749  40.280
13236DT     BB386024  31.340  58.893  40.201
13236DT     SC186025  31.360  59.015  40.432
13236DT     SC286026  31.259  59.204  40.422
13236DT     SC386027  31.466  59.112  40.653
13237DT     BB186028  31.306  58.776  39.962
13237DT     BB286029  31.206  59.120  39.912
13237DT     BB386030  31.372  59.237  39.872
13237DT     SC186031  31.448  59.229  40.123
13237DT     SC286032  31.423  59.424  40.211
13237DT     SC386033  31.594  59.179  40.337
13238DT     BB186034  31.286  59.256  39.619
13238DT     BB286035  31.317  59.597  39.733
13238DT     BB386036  31.512  59.662  39.709
13238DT     SC186037  31.592  59.521  39.915
13238DT     SC286038  31.646  59.653  40.076
13238DT     SC386039  31.721  59.338  40.056
13239DA     BB186040  31.256  59.945  39.534
13239DA     BB286041  31.494  60.124  39.748
13239DA     BB386042  31.688  60.123  39.661
13239DA     SC186043  31.777  59.860  39.801
13239DA     SC286044  31.937  59.792  39.980
13239DA     SC386045  31.919  59.557  39.878
13239DA     SC486046  31.754  59.722  39.722
13240DA     BB186047  31.653  60.446  39.710
13240DA     BB286048  31.951  60.427  39.923
13240DA     BB386049  32.126  60.404  39.803
13240DA     SC186050  32.117  60.093  39.807
13240DA     SC286051  32.249  59.906  39.907
13240DA     SC386052  32.139  59.760  39.727
13240DA     SC486053  32.040  60.019  39.687
13241DA     BB186054  32.226  60.668  39.974
13241DA     BB286055  32.504  60.463  40.095
13241DA     BB386056  32.651  60.439  39.942
13241DA     SC186057  32.525  60.179  39.828
13241DA     SC286058  32.580  59.936  39.818
13241DA     SC386059  32.413  59.927  39.623
13241DA     SC486060  32.419  60.194  39.708
13242DT     BB186061  32.836  60.523  39.965
13242DT     BB286062  33.017  60.217  40.030
13242DT     BB386063  33.126  60.163  39.863
13242DT     SC186064  32.910  60.082  39.738
13242DT     SC286065  32.914  59.868  39.720
13242DT     SC386066  32.717  60.068  39.558
13243DG     BB186067  33.405  60.204  40.159
13243DG     BB286068  33.434  59.883  39.996
13243DG     BB386069  33.531  59.903  39.823
13243DG     SC186070  33.278  59.955  39.659
13243DG     SC286071  33.166  59.774  39.450
13243DG     SC386072  33.024  60.034  39.452
13243DG     SC486073  33.225  60.105  39.644
13244DA     BB186074  33.750  59.651  39.926
13244DA     BB286075  33.653  59.446  39.638
13244DA     BB386076  33.749  59.516  39.461
13244DA     SC186077  33.519  59.712  39.385
13244DA     SC286078  33.343  59.730  39.209
13244DA     SC386079  33.335  59.979  39.271
13244DA     SC486080  33.530  59.863  39.437
13245DA     BB186081  33.850  59.203  39.439
13245DA     BB286082  33.666  59.185  39.123
13245DA     BB386083  33.775  59.283  38.968
13245DA     SC186084  33.641  59.560  39.016
13245DA     SC286085  33.481  59.710  38.898
13245DA     SC386086  33.577  59.896  39.047
13245DA     SC486087  33.715  59.661  39.116
13246DT     BB186088  33.851  59.173  38.812
13246DT     BB286089  33.609  59.278  38.566
13246DT     BB386090  33.696  59.412  38.434
13246DT     SC186091  33.690  59.604  38.613
13246DT     SC286092  33.546  59.753  38.554
13246DT     SC386093  33.774  59.789  38.782
13247DT     BB186094  33.697  59.225  38.235
13247DT     BB286095  33.508  59.501  38.099
13247DT     BB386096  33.636  59.636  38.009
13247DT     SC186097  33.718  59.726  38.242
13247DT     SC286098  33.645  59.926  38.271
13247DT     SC386099  33.878  59.782  38.444
13248DA     BB186100  33.338  59.542  37.729
13248DA     BB286101  33.363  59.907  37.748
13248DA     BB386102  33.541  59.974  37.651
13248DA     SC186103  33.716  59.961  37.908
13248DA     SC286104  33.828  60.120  38.064
13248DA     SC386105  33.973  59.920  38.132
13248DA     SC486106  33.796  59.825  37.936
13249DA     BB186107  33.316  60.156  37.500
13249DA     BB286108  33.490  60.448  37.639
13249DA     BB386109  33.673  60.482  37.534
13249DA     SC186110  33.844  60.304  37.724
13249DA     SC286111  34.021  60.335  37.896
13249DA     SC386112  34.075  60.088  37.856
13249DA     SC486113  33.863  60.149  37.684
13250DT     BB186114  33.676  60.646  37.440
13250DT     BB286115  33.896  60.821  37.666
13250DT     BB386116  34.088  60.826  37.589
13250DT     SC186117  34.126  60.573  37.648
13250DT     SC286118  34.270  60.558  37.807
13250DT     SC386119  34.172  60.315  37.616
13251DT     BB186120  34.043  61.084  37.556
13251DT     BB286121  34.335  61.065  37.766
13251DT     BB386122  34.504  61.036  37.650
13251DT     SC186123  34.442  60.785  37.607
13251DT     SC286124  34.582  60.658  37.710
13251DT     SC386125  34.375  60.565  37.479
13252DA     BB186126  34.564  61.353  37.919
13252DA     BB286127  34.855  61.131  37.937
13252DA     BB386128  34.972  61.147  37.759
13252DA     SC186129  34.822  60.919  37.610
13252DA     SC286130  34.869  60.687  37.532
13252DA     SC386131  34.671  60.721  37.373
13252DA     SC486132  34.697  60.960  37.518
13253DT     BB186133  35.155  61.225  37.776
13253DT     BB286134  35.341  60.920  37.730
13253DT     BB386135  35.421  60.914  37.539
13253DT     SC186136  35.186  60.860  37.434
13253DT     SC286137  35.186  60.658  37.360
13253DT     SC386138  34.967  60.887  37.290
13254DC     BB186139  35.680  60.964  37.627
13254DC     BB286140  35.710  60.657  37.441
13254DC     BB386141  35.749  60.698  37.242
13254DC     SC186142  35.501  60.772  37.200
13254DC     SC286143  35.403  60.627  37.075
13254DC     SC386144  35.293  60.924  37.142
13255DA     BB186145  36.062  60.439  37.347
13255DA     BB286146  35.916  60.311  37.037
13255DA     BB386147  35.981  60.427  36.870
13255DA     SC186148  35.743  60.627  36.886
13255DA     SC286149  35.540  60.683  36.752
13255DA     SC386150  35.545  60.907  36.877
13255DA     SC486151  35.764  60.761  36.973
13256DT     BB186152  36.109  60.346  36.717
13256DT     BB286153  35.850  60.310  36.468
13256DT     BB386154  35.877  60.449  36.317
13256DT     SC186155  35.789  60.643  36.470
13256DT     SC286156  35.598  60.711  36.398
13256DT     SC386157  35.786  60.866  36.611
13257DA     BB186158  35.835  60.070  36.149
13257DA     BB286159  35.601  60.297  35.980
13257DA     BB386160  35.706  60.428  35.849
13257DA     SC186161  35.746  60.649  36.064
13257DA     SC286162  35.663  60.880  36.110
13257DA     SC386163  35.871  60.904  36.258
13257DA     SC486164  35.882  60.645  36.150
13258DG     BB186165  35.503  60.279  35.680
13258DG     BB286166  35.368  60.613  35.642
13258DG     BB386167  35.481  60.717  35.516
13258DG     SC186168  35.668  60.825  35.734
13258DG     SC286169  35.691  61.109  35.820
13258DG     SC386170  35.904  60.944  35.943
13258DG     SC486171  35.797  60.739  35.774
13259DA     BB186172  35.154  60.769  35.423
13259DA     BB286173  35.215  61.129  35.452
13259DA     BB386174  35.356  61.193  35.305
13259DA     SC186175  35.604  61.149  35.488
13259DA     SC286176  35.773  61.288  35.606
13259DA     SC386177  35.915  61.075  35.612
13259DA     SC486178  35.677  61.006  35.481
13260DA     BB186179  35.093  61.394  35.307
13260DA     BB286180  35.337  61.663  35.350
13260DA     BB386181  35.465  61.675  35.179
13260DA     SC186182  35.678  61.480  35.294
13260DA     SC286183  35.912  61.492  35.379
13260DA     SC386184  35.920  61.239  35.333
13260DA     SC486185  35.663  61.324  35.257
13261DA     BB186186  35.366  61.992  35.203
13261DA     BB286187  35.721  62.083  35.207
13261DA     BB386188  35.809  62.047  35.016
13261DA     SC186189  35.895  61.756  35.083
13261DA     SC286190  36.107  61.630  35.123
13261DA     SC386191  35.969  61.421  35.068
13261DA     SC486192  35.793  61.638  35.045
13262DT     BB186193  35.877  62.203  34.868
13262DT     BB286194  36.232  62.149  34.895
13262DT     BB386195  36.303  62.057  34.723
13262DT     SC186196  36.199  61.827  34.795
13262DT     SC286197  36.357  61.690  34.845
13262DT     SC386198  36.048  61.611  34.792
13263DT     BB186199  36.430  62.283  34.575
13263DT     BB286200  36.695  62.038  34.587
13263DT     BB386201  36.696  61.927  34.412
13263DT     SC186202  36.484  61.792  34.487
13263DT     SC286203  36.539  61.589  34.530
13263DT     SC386204  36.237  61.698  34.490
13264DA     BB186205  37.093  62.068  34.404
13264DA     BB286206  37.110  61.705  34.353
13264DA     BB386207  37.065  61.657  34.151
13264DA     SC186208  36.760  61.623  34.201
13264DA     SC286209  36.593  61.438  34.207
13264DA     SC386210  36.418  61.622  34.174
13264DA     SC486211  36.666  61.752  34.179
13265DG     BB186212  37.354  61.535  34.128
13265DG     BB286213  37.173  61.224  34.090
13265DG     BB386214  37.126  61.195  33.899
13265DG     SC186215  36.858  61.340  33.918
13265DG     SC286216  36.588  61.215  33.890
13265DG     SC386217  36.567  61.510  33.897
13265DG     SC486218  36.853  61.498  33.893
13266DT     BB186219  37.205  61.022  33.798
13266DT     BB286220  36.914  60.809  33.782
13266DT     BB386221  36.835  60.813  33.591
13266DT     SC186222  36.735  61.052  33.629
13266DT     SC286223  36.520  61.039  33.638
13266DT     SC386224  36.692  61.311  33.600
13267DC     BB186225  36.923  60.564  33.579
13267DC     BB286226  36.569  60.542  33.509
13267DC     BB386227  36.534  60.585  33.309
13267DC     SC186228  36.574  60.841  33.349
13267DC     SC286229  36.387  60.946  33.329
13267DC     SC386230  36.682  61.081  33.332
13268DA     BB186231  36.340  60.224  33.404
13268DA     BB286232  36.106  60.431  33.212
13268DA     BB386233  36.166  60.443  33.008
13268DA     SC186234  36.340  60.697  33.048
13268DA     SC286235  36.333  60.938  32.983
13268DA     SC386236  36.585  60.938  33.031
13268DA     SC486237  36.496  60.676  33.081
13269DA     BB186238  35.860  60.330  32.921
13269DA     BB286239  35.815  60.636  32.724
13269DA     BB386240  35.921  60.622  32.539
13269DA     SC186241  36.182  60.747  32.651
13269DA     SC286242  36.312  60.959  32.625
13269DA     SC386243  36.510  60.826  32.719
13269DA     SC486244  36.294  60.647  32.710
13270DC     BB186245  35.849  60.589  32.280
13270DC     BB286246  35.926  60.925  32.174
13270DC     BB386247  36.082  60.922  32.038
13270DC     SC186248  36.257  60.875  32.227
13270DC     SC286249  36.382  61.048  32.254
13270DC     SC386250  36.442  60.751  32.369
13271DT     BB186251  35.981  60.943  31.712
13271DT     BB286252  36.218  61.215  31.734
13271DT     BB386253  36.396  61.161  31.643
13271DT     SC186254  36.461  61.006  31.844
13271DT     SC286255  36.627  61.092  31.950
13271DT     SC386256  36.520  60.788  31.980
13272DA     BB186257  36.335  61.500  31.388
13272DA     BB286258  36.664  61.545  31.542
13272DA     BB386259  36.813  61.442  31.430
13272DA     SC186260  36.787  61.177  31.592
13272DA     SC286261  36.922  61.046  31.755
13272DA     SC386262  36.773  60.848  31.689
13272DA     SC486263  36.684  61.066  31.536
13273DG     BB186264  36.949  61.719  31.379
13273DG     BB286265  37.199  61.584  31.602
13273DG     BB386266  37.337  61.485  31.498
13273DG     SC186267  37.190  61.217  31.512
13273DG     SC286268  37.283  60.974  31.659
13273DG     SC386269  37.047  60.912  31.491
13273DG     SC486270  37.082  61.181  31.399
13274DA     BB186271  37.531  61.687  31.689
13274DA     BB286272  37.681  61.389  31.841
13274DA     BB386273  37.814  61.294  31.703
13274DA     SC186274  37.595  61.109  31.582
13274DA     SC286275  37.538  60.866  31.583
13274DA     SC386276  37.401  60.918  31.373
13274DA     SC486277  37.516  61.161  31.452
13275DT     BB186278  37.975  61.301  31.774
13275DT     BB286279  37.998  60.953  31.866
13275DT     BB386280  38.100  60.848  31.720
13275DT     SC186281  37.894  60.856  31.558
13275DT     SC286282  37.811  60.659  31.538
13275DT     SC386283  37.746  60.912  31.347
13276DT     BB186284  38.285  60.831  31.906
13276DT     BB286285  38.208  60.490  31.815
13276DT     BB386286  38.310  60.438  31.643
13276DT     SC186287  38.147  60.580  31.494
13276DT     SC286288  38.027  60.448  31.375
13276DT     SC386289  38.061  60.767  31.330
13277DT     BB186290  38.466  60.281  31.795
13277DT     BB286291  38.329  60.060  31.545
13277DT     BB386292  38.444  60.069  31.373
13277DT     SC186293  38.346  60.303  31.309
13277DT     SC286294  38.220  60.283  31.136
13277DT     SC386295  38.334  60.562  31.257
13278DC     BB186296  38.548  59.820  31.422
13278DC     BB286297  38.402  59.793  31.093
13278DC     BB386298  38.540  59.850  30.950
13278DC     SC186299  38.511  60.103  31.010
13278DC     SC286300  38.411  60.204  30.848
13278DC     SC386301  38.568  60.347  31.093
13279DG     BB186302  38.434  59.467  30.859
13279DG     BB286303  38.392  59.687  30.574
13279DG     BB386304  38.568  59.719  30.487
13279DG     SC186305  38.635  59.965  30.658
13279DG     SC286306  38.657  60.246  30.559
13279DG     SC386307  38.749  60.224  30.840
13279DG     SC486308  38.711  59.944  30.797
13280DT     BB186309  38.591  59.658  30.286
13280DT     BB286310  38.575  59.974  30.114
13280DT     BB386311  38.766  60.035  30.060
13280DT     SC186312  38.822  60.102  30.307
13280DT     SC286313  38.838  60.316  30.322
13280DT     SC386314  38.940  60.103  30.543
13281DA     BB186315  38.486  60.060  29.748
13281DA     BB286316  38.670  60.377  29.768
13281DA     BB386317  38.872  60.350  29.707
13281DA     SC186318  38.976  60.286  29.993
13281DA     SC286319  39.120  60.394  30.166
13281DA     SC386320  39.145  60.158  30.263
13281DA     SC486321  38.981  60.131  30.038
13282DT     BB186322  38.880  60.450  29.574
13282DT     BB286323  39.091  60.704  29.718
13282DT     BB386324  39.290  60.658  29.685
13282DT     SC186325  39.286  60.470  29.868
13282DT     SC286326  39.405  60.531  30.036
13282DT     SC386327  39.299  60.231  29.978
13283DT     BB186328  39.277  60.865  29.525
13283DT     BB286329  39.549  60.937  29.750
13283DT     BB386330  39.720  60.837  29.689
13283DT     SC186331  39.627  60.608  29.775
13283DT     SC286332  39.741  60.544  29.946
13283DT     SC386333  39.539  60.359  29.773
13284DG     BB186334  39.813  61.235  29.702
13284DG     BB286335  40.060  61.036  29.877
13284DG     BB386336  40.180  60.946  29.746
13284DG     SC186337  40.006  60.695  29.721
13284DG     SC286338  40.080  60.421  29.812
13284DG     SC386339  39.830  60.416  29.654
13284DG     SC486340  39.889  60.693  29.611
13285DT     BB186341  40.409  60.987  29.724
13285DT     BB286342  40.551  60.687  29.866
13285DT     BB386343  40.624  60.565  29.716
13285DT     SC186344  40.382  60.492  29.646
13285DT     SC286345  40.352  60.286  29.698
13285DT     SC386346  40.165  60.461  29.500
13286DT     BB186347  40.896  60.621  29.765
13286DT     BB286348  40.877  60.261  29.786
13286DT     BB386349  40.913  60.177  29.601
13286DT     SC186350  40.674  60.247  29.515
13286DT     SC286351  40.553  60.071  29.490
13286DT     SC386352  40.487  60.366  29.373
13287DG     BB186353  41.208  60.017  29.834
13287DG     BB286354  41.023  59.757  29.663
13287DG     BB386355  41.089  59.739  29.476
13287DG     SC186356  40.893  59.944  29.361
13287DG     SC286357  40.669  59.886  29.172
13287DG     SC386358  40.707  60.177  29.204
13287DG     SC486359  40.936  60.098  29.358
13288DA     BB186360  41.130  59.400  29.539
13288DA     BB286361  40.891  59.320  29.272
13288DA     BB386362  40.985  59.339  29.081
13288DA     SC186363  40.907  59.638  29.045
13288DA     SC286364  40.754  59.773  28.902
13288DA     SC386365  40.903  59.972  28.965
13288DA     SC486366  41.013  59.749  29.095
13289DG     BB186367  40.908  59.040  29.061
13289DG     BB286368  40.697  59.160  28.793
13289DG     BB386369  40.804  59.182  28.627
13289DG     SC186370  40.883  59.472  28.685
13289DG     SC286371  40.796  59.712  28.530
13289DG     SC386372  41.004  59.784  28.728
13289DG     SC486373  41.015  59.501  28.771
13290DA     BB186374  40.555  58.992  28.479
13290DA     BB286375  40.487  59.265  28.244
13290DA     BB386376  40.640  59.275  28.096
13290DA     SC186377  40.817  59.475  28.257
13290DA     SC286378  40.887  59.713  28.242
13290DA     SC386379  41.079  59.646  28.398
13290DA     SC486380  40.930  59.413  28.353
13291DG     BB186381  40.406  59.225  27.897
13291DG     BB286382  40.495  59.553  27.776
13291DG     BB386383  40.650  59.540  27.651
13291DG     SC186384  40.861  59.572  27.870
13291DG     SC286385  41.047  59.803  27.903
13291DG     SC386386  41.119  59.583  28.087
13291DG     SC486387  40.914  59.441  27.946
13292DT     BB186388  40.637  59.597  27.432
13292DT     BB286389  40.818  59.909  27.427
13292DT     BB386390  41.006  59.881  27.345
13292DT     SC186391  41.092  59.763  27.563
13292DT     SC286392  41.235  59.889  27.662
13292DT     SC386393  41.185  59.575  27.723
13293DA     BB186394  40.844  60.195  27.117
13293DA     BB286395  41.180  60.298  27.222
13293DA     BB386396  41.328  60.197  27.106
13293DA     SC186397  41.354  59.957  27.302
13293DA     SC286398  41.522  59.867  27.462
13293DA     SC386399  41.394  59.646  27.441
13293DA     SC486400  41.261  59.829  27.274
13294DA     BB186401  41.443  60.500  27.032
13294DA     BB286402  41.755  60.406  27.199
13294DA     BB386403  41.875  60.285  27.070
13294DA     SC186404  41.754  60.016  27.170
13294DA     SC286405  41.828  59.819  27.304
13294DA     SC386406  41.632  59.696  27.193
13294DA     SC486407  41.628  59.957  27.090
13295DC     BB186408  42.067  60.351  26.988
13295DC     BB286409  42.273  60.152  27.207
13295DC     BB386410  42.363  59.999  27.100
13295DC     SC186411  42.137  59.865  27.088
13295DC     SC286412  42.153  59.689  27.211
13295DC     SC386413  41.924  59.746  26.988
13296DT     BB186414  42.605  60.124  27.118
13296DT     BB286415  42.654  59.802  27.273
13296DT     BB386416  42.708  59.662  27.131
13296DT     SC186417  42.463  59.649  27.039
13296DT     SC286418  42.378  59.458  27.088
13296DT     SC386419  42.258  59.669  26.874
13297DC     BB186420  42.950  59.665  27.243
13297DC     BB286421  42.838  59.323  27.268
13297DC     BB386422  42.881  59.222  27.093
13297DC     SC186423  42.686  59.342  26.966
13297DC     SC286424  42.530  59.199  26.924
13297DC     SC386425  42.560  59.493  26.791
13298DA     BB186426  42.996  59.017  27.442
13298DA     BB286427  42.809  58.788  27.226
13298DA     BB386428  42.922  58.741  27.051
13298DA     SC186429  42.805  58.975  26.883
13298DA     SC286430  42.652  59.004  26.688
13298DA     SC386431  42.759  59.236  26.664
13298DA     SC486432  42.885  59.115  26.884
13299DG     BB186433  42.853  58.478  27.192
13299DG     BB286434  42.679  58.420  26.880
13299DG     BB386435  42.811  58.384  26.735
13299DG     SC186436  42.840  58.678  26.655
13299DG     SC286437  42.753  58.799  26.397
13299DG     SC386438  42.912  58.992  26.555
13299DG     SC486439  42.950  58.768  26.729
13300DA     BB186440  42.588  58.123  26.689
13300DA     BB286441  42.548  58.227  26.339
13300DA     BB386442  42.729  58.193  26.231
13300DA     SC186443  42.846  58.475  26.289
13300DA     SC286444  42.895  58.684  26.162
13300DA     SC386445  43.054  58.740  26.356
13300DA     SC486446  42.940  58.491  26.418
13301DT     BB186447  42.717  58.060  26.095
13301DT     BB286448  42.746  58.273  25.806
13301DT     BB386449  42.940  58.270  25.735
13301DT     SC186450  43.024  58.421  25.932
13301DT     SC286451  43.078  58.615  25.856
13301DT     SC386452  43.155  58.497  26.148
13302DC     BB186453  42.896  58.098  25.508
13302DC     BB286454  43.068  58.379  25.361
13302DC     BB386455  43.272  58.344  25.358
13302DC     SC186456  43.291  58.388  25.616
13302DC     SC286457  43.398  58.571  25.649
13302DC     SC386458  43.335  58.345  25.872
13303DA     BB186459  43.235  58.402  24.937
13303DA     BB286460  43.524  58.603  25.039
13303DA     BB386461  43.697  58.480  25.056
13303DA     SC186462  43.652  58.415  25.357
13303DA     SC286463  43.758  58.470  25.576
13303DA     SC386464  43.635  58.262  25.664
13303DA     SC486465  43.568  58.282  25.392
13304DA     BB186466  43.895  58.654  24.828
13304DA     BB286467  44.127  58.738  25.099
13304DA     BB386468  44.274  58.584  25.121
13304DA     SC186469  44.108  58.422  25.329
13304DA     SC286470  44.120  58.368  25.572
13304DA     SC386471  43.963  58.173  25.516
13304DA     SC486472  44.012  58.306  25.274
13305DA     BB186473  44.535  58.797  25.074
13305DA     BB286474  44.642  58.729  25.419
13305DA     BB386475  44.767  58.557  25.425
13305DA     SC186476  44.532  58.358  25.471
13305DA     SC286477  44.447  58.213  25.655
13305DA     SC386478  44.324  58.085  25.469
13305DA     SC486479  44.465  58.291  25.341
13306DA     BB186480  44.999  58.743  25.572
13306DA     BB286481  44.964  58.531  25.869
13306DA     BB386482  45.083  58.355  25.848
13306DA     SC186483  44.855  58.188  25.717
13306DA     SC286484  44.709  57.995  25.777
13306DA     SC386485  44.674  57.969  25.525
13306DA     SC486486  44.847  58.187  25.556
13307DC     BB186487  45.251  58.320  25.975
13307DC     BB286488  45.091  58.073  26.184
13307DC     BB386489  45.172  57.886  26.147
13307DC     SC186490  45.044  57.867  25.919
13307DC     SC286491  44.892  57.716  25.935
13307DC     SC386492  45.001  57.847  25.659
13308DA     BB186493  45.177  57.957  26.558
13308DA     BB286494  45.029  57.627  26.503
13308DA     BB386495  45.179  57.486  26.449
13308DA     SC186496  45.151  57.535  26.143
13308DA     SC286497  45.068  57.412  25.943
13308DA     SC386498  45.211  57.577  25.808
13308DA     SC486499  45.247  57.646  26.077
13309DA     BB186500  45.031  57.337  26.697
13309DA     BB286501  44.955  57.065  26.463
13309DA     BB386502  45.130  56.951  26.421
13309DA     SC186503  45.214  57.124  26.176
13309DA     SC286504  45.227  57.098  25.928
13309DA     SC386505  45.390  57.296  25.937
13309DA     SC486506  45.314  57.247  26.202
13310DA     BB186507  44.920  56.719  26.510
13310DA     BB286508  44.975  56.570  26.180
13310DA     BB386509  45.167  56.478  26.171
13310DA     SC186510  45.311  56.733  26.067
13310DA     SC286511  45.420  56.811  25.856
13310DA     SC386512  45.538  56.984  26.004
13310DA     SC486513  45.376  56.832  26.176
13311DA     BB186514  44.988  56.221  26.073
13311DA     BB286515  45.184  56.221  25.764
13311DA     BB386516  45.378  56.140  25.799
13311DA     SC186517  45.508  56.414  25.866
13311DA     SC286518  45.672  56.571  25.764
13311DA     SC386519  45.698  56.667  26.000
13311DA     SC486520  45.511  56.459  26.021
13312DT     BB186521  45.412  55.976  25.709
13312DT     BB286522  45.641  56.105  25.462
13312DT     BB386523  45.836  56.064  25.518
13312DT     SC186524  45.831  56.252  25.702
13312DT     SC286525  45.960  56.414  25.643
13312DT     SC386526  45.837  56.367  25.939
13313DT     BB186527  45.848  55.882  25.321
13313DT     BB286528  46.123  56.107  25.255
13313DT     BB386529  46.289  56.050  25.366
13313DT     SC186530  46.183  56.144  25.587
13313DT     SC286531  46.293  56.318  25.649
13313DT     SC386532  46.082  56.151  25.830
13314DA     BB186533  46.411  56.090  24.966
13314DA     BB286534  46.651  56.270  25.177
13314DA     BB386535  46.772  56.132  25.285
13314DA     SC186536  46.582  56.122  25.531
13314DA     SC286537  46.583  56.198  25.769
13314DA     SC386538  46.399  56.023  25.804
13314DA     SC486539  46.470  56.007  25.534
13315DA     BB186540  47.012  56.311  25.146
13315DA     BB286541  47.121  56.393  25.486
13315DA     BB386542  47.218  56.225  25.576
13315DA     SC186543  46.957  56.111  25.701
13315DA     SC286544  46.858  56.083  25.928
13315DA     SC386545  46.709  55.905  25.818
13315DA     SC486546  46.874  56.003  25.614
13316DT     BB186547  47.419  56.234  25.618
13316DT     BB286548  47.389  56.263  25.977
13316DT     BB386549  47.437  56.083  26.067
13316DT     SC186550  47.208  55.977  25.994
13316DT     SC286551  47.085  55.946  26.168
13316DT     SC386552  47.036  55.816  25.875
13317DT     BB186553  47.680  56.177  26.159
13317DT     BB286554  47.512  56.060  26.457
13317DT     BB386555  47.552  55.859  26.486
13317DT     SC186556  47.389  55.791  26.292
13317DT     SC286557  47.216  55.693  26.374
13317DT     SC386558  47.304  55.692  26.062
13318DT     BB186559  47.732  55.895  26.700
13318DT     BB286560  47.482  55.673  26.835
13318DT     BB386561  47.536  55.476  26.801
13318DT     SC186562  47.473  55.494  26.547
13318DT     SC286563  47.298  55.375  26.508
13318DT     SC386564  47.499  55.496  26.284
13319DT     BB186565  47.617  55.411  27.069
13319DT     BB286566  47.363  55.167  26.994
13319DT     BB386567  47.450  54.996  26.917
13319DT     SC186568  47.493  55.113  26.686
13319DT     SC286569  47.364  55.026  26.537
13319DT     SC386570  47.621  55.215  26.479
13320DA     BB186571  47.225  54.849  27.240
13320DA     BB286572  47.131  54.655  26.944
13320DA     BB386573  47.282  54.510  26.899
13320DA     SC186574  47.441  54.699  26.710
13320DA     SC286575  47.490  54.717  26.466
13320DA     SC386576  47.689  54.863  26.538
13320DA     SC486577  47.560  54.786  26.775
13321DA     BB186578  47.025  54.310  26.917
13321DA     BB286579  47.080  54.246  26.560
13321DA     BB386580  47.242  54.110  26.533
13321DA     SC186581  47.458  54.333  26.513
13321DA     SC286582  47.606  54.431  26.338
13321DA     SC386583  47.746  54.517  26.535
13321DA     SC486584  47.532  54.377  26.649
13322DA     BB186585  46.994  53.988  26.366
13322DA     BB286586  47.205  54.034  26.070
13322DA     BB386587  47.363  53.890  26.068
13322DA     SC186588  47.562  54.072  26.224
13322DA     SC286589  47.773  54.197  26.177
13322DA     SC386590  47.807  54.193  26.431
13322DA     SC486591  47.566  54.058  26.384
13323DA     BB186592  47.212  53.888  25.780
13323DA     BB286593  47.539  53.977  25.641
13323DA     BB386594  47.675  53.814  25.662
13323DA     SC186595  47.782  53.906  25.939
13323DA     SC286596  47.993  53.999  26.034
13323DA     SC386597  47.902  53.918  26.260
13323DA     SC486598  47.709  53.847  26.070
13324DA     BB186599  47.687  53.911  25.349
13324DA     BB286600  48.044  53.965  25.408
13324DA     BB386601  48.144  53.778  25.437
13324DA     SC186602  48.106  53.778  25.746
13324DA     SC286603  48.248  53.802  25.949
13324DA     SC386604  48.054  53.688  26.073
13324DA     SC486605  47.975  53.705  25.804
13325DA     BB186606  48.327  53.916  25.201
13325DA     BB286607  48.610  53.882  25.431
13325DA     BB386608  48.667  53.678  25.450
13325DA     SC186609  48.479  53.622  25.692
13325DA     SC286610  48.501  53.575  25.936
13325DA     SC386611  48.264  53.480  25.918
13325DA     SC486612  48.332  53.567  25.660
13326DG     BB186613  48.946  53.767  25.337
13326DG     BB286614  49.065  53.657  25.660
13326DG     BB386615  49.092  53.460  25.659
13326DG     SC186616  48.807  53.395  25.750
13326DG     SC286617  48.730  53.273  26.011
13326DG     SC386618  48.497  53.287  25.829
13326DG     SC486619  48.693  53.377  25.640
13327DT     BB186620  49.301  53.345  25.684
13327DT     BB286621  49.271  53.221  26.021
13327DT     BB386622  49.240  53.016  26.018
13327DT     SC186623  48.991  53.046  25.941
13327DT     SC286624  48.859  52.990  26.101
13327DT     SC386625  48.775  53.033  25.791
13328DA     BB186626  49.570  53.067  26.272
13328DA     BB286627  49.328  52.855  26.448
13328DA     BB386628  49.333  52.657  26.369
13328DA     SC186629  49.113  52.710  26.156
13328DA     SC286630  48.876  52.644  26.114
13328DA     SC386631  48.921  52.713  25.871
13328DA     SC486632  49.160  52.757  26.010
13329DC     BB186633  49.399  52.502  26.488
13329DC     BB286634  49.073  52.363  26.555
13329DC     BB386635  49.048  52.186  26.450
13329DC     SC186636  49.015  52.316  26.224
13329DC     SC286637  48.811  52.296  26.160
13329DC     SC386638  49.058  52.401  25.978
13330DA     BB186639  48.947  52.139  26.853
13330DA     BB286640  48.674  52.004  26.649
13330DA     BB386641  48.735  51.822  26.555
13330DA     SC186642  48.842  51.962  26.298
13330DA     SC286643  48.779  51.980  26.058
13330DA     SC386644  49.023  52.050  26.020
13330DA     SC486645  48.998  52.002  26.295
13331DA     BB186646  48.450  51.766  26.702
13331DA     BB286647  48.327  51.675  26.369
13331DA     BB386648  48.417  51.493  26.303
13331DA     SC186649  48.656  51.635  26.163
13331DA     SC286650  48.737  51.674  25.930
13331DA     SC386651  48.965  51.718  26.038
13331DA     SC486652  48.790  51.657  26.249
13332DA     BB186653  48.092  51.468  26.264
13332DA     BB286654  48.170  51.405  25.912
13332DA     BB386655  48.275  51.221  25.891
13332DA     SC186656  48.556  51.350  25.918
13332DA     SC286657  48.754  51.395  25.772
13332DA     SC386658  48.886  51.415  25.991
13332DA     SC486659  48.621  51.357  26.065
13333DT     BB186660  48.177  51.097  25.796
13333DT     BB286661  48.375  51.101  25.494
13333DT     BB386662  48.508  50.943  25.495
13333DT     SC186663  48.661  51.063  25.671
13333DT     SC286664  48.846  51.121  25.576
13333DT     SC386665  48.791  51.111  25.895
13334DG     BB186666  48.279  50.913  25.158
13334DG     BB286667  48.632  50.894  25.081
13334DG     BB386668  48.702  50.715  25.131
13334DG     SC186669  48.776  50.795  25.417
13334DG     SC286670  49.053  50.814  25.527
13334DG     SC386671  48.851  50.843  25.742
13334DG     SC486672  48.666  50.781  25.532
13335DC     BB186673  48.785  50.581  24.978
13335DC     BB286674  49.139  50.600  25.045
13335DC     BB386675  49.201  50.432  25.148
13335DC     SC186676  49.091  50.518  25.370
13335DC     SC286677  49.245  50.570  25.510
13335DC     SC386678  48.931  50.529  25.580
13336DT     BB186679  49.326  50.347  24.925
13336DT     BB286680  49.584  50.357  25.178
13336DT     BB386681  49.583  50.181  25.286
13336DT     SC186682  49.367  50.253  25.416
13336DT     SC286683  49.416  50.293  25.621
13336DT     SC386684  49.118  50.251  25.503
13337DT     BB186685  49.813  50.109  25.165
13337DT     BB286686  49.888  50.098  25.518
13337DT     BB386687  49.833  49.914  25.596
13337DT     SC186688  49.579  49.979  25.589
13337DT     SC286689  49.506  50.004  25.790
13337DT     SC386690  49.323  49.975  25.524
13338DT     BB186691  50.094  49.845  25.618
13338DT     BB286692  49.962  49.807  25.952
13338DT     BB386693  49.877  49.619  25.973
13338DT     SC186694  49.667  49.690  25.831
13338DT     SC286695  49.495  49.702  25.960
13338DT     SC386696  49.491  49.695  25.636
13339DG     BB186697  50.168  49.634  26.261
13339DG     BB286698  49.849  49.536  26.402
13339DG     BB386699  49.815  49.344  26.364
13339DG     SC186700  49.672  49.398  26.098
13339DG     SC286701  49.383  49.349  26.041
13339DG     SC386702  49.529  49.419  25.793
13339DG     SC486703  49.759  49.406  25.964
13340DT     BB186704  49.797  49.167  26.525
13340DT     BB286705  49.440  49.113  26.525
13340DT     BB386706  49.395  48.935  26.429
13340DT     SC186707  49.441  49.043  26.194
13340DT     SC286708  49.256  49.062  26.087
13340DT     SC386709  49.552  49.088  25.959
13341DA     BB186710  49.209  48.875  26.802
13341DA     BB286711  48.960  48.799  26.544
13341DA     BB386712  48.997  48.607  26.459
13341DA     SC186713  49.181  48.714  26.233
13341DA     SC286714  49.173  48.740  25.985
13341DA     SC386715  49.429  48.754  25.999
13341DA     SC486716  49.339  48.718  26.262
13342DT     BB186717  48.862  48.422  26.482
13342DT     BB286718  48.720  48.442  26.151
13342DT     BB386719  48.785  48.282  26.036
13342DT     SC186720  49.024  48.388  26.009
13342DT     SC286721  49.051  48.450  25.805
13342DT     SC386722  49.285  48.420  26.027
13343DT     BB186723  48.537  48.163  26.045
13343DT     BB286724  48.603  48.213  25.693
13343DT     BB386725  48.702  48.049  25.616
13343DT     SC186726  48.926  48.120  25.732
13343DT     SC286727  49.067  48.183  25.582
13343DT     SC386728  49.137  48.113  25.890
13344DC     BB186729  48.476  47.995  25.485
13344DC     BB286730  48.726  48.034  25.229
13344DC     BB386731  48.827  47.856  25.200
13344DC     SC186732  48.961  47.887  25.423
13344DC     SC286733  49.168  47.926  25.377
13344DC     SC386734  49.050  47.843  25.668
13345DG     BB186735  48.667  48.000  24.855
13345DG     BB286736  49.020  47.926  24.821
13345DG     BB386737  49.047  47.730  24.811
13345DG     SC186738  49.076  47.693  25.113
13345DG     SC286739  49.324  47.610  25.257
13345DG     SC386740  49.092  47.613  25.441
13345DG     SC486741  48.945  47.667  25.201
13346DC     BB186742  49.134  47.666  24.639
13346DC     BB286743  49.466  47.574  24.747
13346DC     BB386744  49.475  47.369  24.780
13346DC     SC186745  49.340  47.391  25.004
13346DC     SC286746  49.471  47.349  25.170
13346DC     SC386747  49.147  47.362  25.180
13347DC     BB186748  49.626  47.351  24.558
13347DC     BB286749  49.825  47.195  24.815
13347DC     BB386750  49.769  46.997  24.837
13347DC     SC186751  49.548  47.064  24.961
13347DC     SC286752  49.562  47.005  25.168
13347DC     SC386753  49.291  47.091  25.013
13348DG     BB186754  50.167  46.982  24.742
13348DG     BB286755  50.096  46.783  25.036
13348DG     BB386756  50.019  46.608  24.982
13348DG     SC186757  49.729  46.706  24.988
13348DG     SC286758  49.518  46.618  25.179
13348DG     SC386759  49.402  46.786  24.965
13348DG     SC486760  49.667  46.772  24.856
13349DA     BB186761  50.261  46.425  25.165
13349DA     BB286762  49.999  46.270  25.370
13349DA     BB386763  49.909  46.108  25.265
13349DA     SC186764  49.687  46.283  25.135
13349DA     SC286765  49.440  46.312  25.154
13349DA     SC386766  49.455  46.420  24.922
13349DA     SC486767  49.717  46.346  24.990
13350DA     BB186768  49.987  45.913  25.524
13350DA     BB286769  49.627  45.859  25.573
13350DA     BB386770  49.555  45.710  25.438
13350DA     SC186771  49.482  45.914  25.215
13350DA     SC286772  49.275  46.006  25.109
13350DA     SC386773  49.429  46.071  24.914
13350DA     SC486774  49.593  45.945  25.103
13351DA     BB186775  49.444  45.553  25.707
13351DA     BB286776  49.105  45.599  25.576
13351DA     BB386777  49.062  45.452  25.427
13351DA     SC186778  49.165  45.625  25.190
13351DA     SC286779  49.068  45.745  24.994
13351DA     SC386780  49.306  45.736  24.898
13351DA     SC486781  49.319  45.608  25.147
13352DA     BB186782  48.810  45.416  25.630
13352DA     BB286783  48.598  45.515  25.348
13352DA     BB386784  48.584  45.356  25.206
13352DA     SC186785  48.830  45.449  25.040
13352DA     SC286786  48.873  45.547  24.815
13352DA     SC386787  49.113  45.461  24.847
13352DA     SC486788  48.973  45.386  25.078
13353DC     BB186789  48.410  45.290  25.191
13353DC     BB286790  48.336  45.437  24.870
13353DC     BB386791  48.356  45.294  24.721
13353DC     SC186792  48.618  45.305  24.735
13353DC     SC286793  48.695  45.396  24.556
13353DC     SC386794  48.867  45.229  24.775
13354DC     BB186795  48.093  45.312  24.704
13354DC     BB286796  48.215  45.388  24.373
13354DC     BB386797  48.254  45.213  24.270
13354DC     SC186798  48.473  45.172  24.409
13354DC     SC286799  48.644  45.198  24.281
13354DC     SC386800  48.645  45.058  24.573
13355DA     BB186801  48.014  45.462  24.031
13355DA     BB286802  48.291  45.339  23.826
13355DA     BB386803  48.266  45.131  23.785
13355DA     SC186804  48.426  45.037  24.035
13355DA     SC286805  48.644  44.927  24.084
13355DA     SC386806  48.540  44.868  24.311
13355DA     SC486807  48.343  45.009  24.170
13356DT     BB186808  48.228  45.066  23.592
13356DT     BB286809  48.552  44.922  23.527
13356DT     BB386810  48.540  44.715  23.535
13356DT     SC186811  48.525  44.718  23.797
13356DT     SC286812  48.706  44.637  23.880
13356DT     SC386813  48.428  44.685  24.040
13357DG     BB186814  48.670  44.781  23.150
13357DG     BB286815  48.884  44.544  23.320
13357DG     BB386816  48.802  44.363  23.316
13357DG     SC186817  48.649  44.400  23.578
13357DG     SC286818  48.699  44.253  23.833
13357DG     SC386819  48.451  44.414  23.851
13357DG     SC486820  48.502  44.464  23.574
13358DT     BB186821  48.889  44.165  23.205
13358DT     BB286822  49.018  43.984  23.489
13358DT     BB386823  48.899  43.819  23.528
13358DT     SC186824  48.710  43.970  23.630
13358DT     SC286825  48.698  43.936  23.843
13358DT     SC386826  48.476  44.087  23.662
13359DC     BB186827  49.088  43.640  23.434
13359DC     BB286828  49.032  43.542  23.777
13359DC     BB386829  48.878  43.404  23.787
13359DC     SC186830  48.698  43.590  23.745
13359DC     SC286831  48.584  43.620  23.925
13359DC     SC386832  48.505  43.727  23.629
13360DT     BB186833  49.064  43.222  23.849
13360DT     BB286834  48.838  43.228  24.130
13360DT     BB386835  48.677  43.102  24.094
13360DT     SC186836  48.571  43.273  23.925
13360DT     SC286837  48.392  43.356  24.011
13360DT     SC386838  48.480  43.375  23.700
13361DT     BB186839  48.794  42.974  24.286
13361DT     BB286840  48.462  43.052  24.405
13361DT     BB386841  48.326  42.918  24.326
13361DT     SC186842  48.336  43.034  24.091
13361DT     SC286843  48.149  43.133  24.052
13361DT     SC386844  48.379  43.068  23.833
13362DA     BB186845  48.293  42.995  24.740
13362DA     BB286846  47.960  43.016  24.587
13362DA     BB386847  47.898  42.823  24.518
13362DA     SC186848  48.018  42.860  24.234
13362DA     SC286849  47.935  42.891  24.001
13362DA     SC386850  48.168  42.812  23.928
13362DA     SC486851  48.169  42.808  24.209
13363DT     BB186852  47.757  42.780  24.611
13363DT     BB286853  47.513  42.812  24.347
13363DT     BB386854  47.480  42.628  24.259
13363DT     SC186855  47.710  42.639  24.133
13363DT     SC286856  47.674  42.664  23.922
13363DT     SC386857  47.955  42.577  24.058
13364DC     BB186858  47.246  42.646  24.376
13364DC     BB286859  47.172  42.591  24.028
13364DC     BB386860  47.186  42.390  23.983
13364DC     SC186861  47.449  42.399  23.990
13364DC     SC286862  47.527  42.373  23.791
13364DC     SC386863  47.696  42.351  24.066
13365DC     BB186864  46.919  42.384  23.962
13365DC     BB286865  47.036  42.249  23.649
13365DC     BB386866  47.073  42.046  23.669
13365DC     SC186867  47.294  42.092  23.803
13365DC     SC286868  47.463  42.036  23.682
13365DC     SC386869  47.468  42.095  24.001
13366DT     BB186870  46.848  41.981  23.525
13366DT     BB286871  47.113  41.805  23.355
13366DT     BB386872  47.141  41.619  23.441
13366DT     SC186873  47.260  41.725  23.649
13366DT     SC286874  47.469  41.673  23.646
13366DT     SC386875  47.308  41.795  23.899
13367DT     BB186876  47.019  41.478  23.233
13367DT     BB286877  47.341  41.318  23.264
13367DT     BB386878  47.329  41.162  23.399
13367DT     SC186879  47.322  41.328  23.603
13367DT     SC286880  47.506  41.313  23.713
13367DT     SC386881  47.233  41.456  23.815
13368DA     BB186882  47.484  40.961  23.062
13368DA     BB286883  47.690  40.860  23.347
13368DA     BB386884  47.587  40.715  23.465
13368DA     SC186885  47.454  40.925  23.652
13368DA     SC286886  47.471  40.998  23.889
13368DA     SC386887  47.237  41.097  23.855
13368DA     SC486888  47.307  40.978  23.611
13369DC     BB186889  47.636  40.480  23.493
13369DC     BB286890  47.768  40.506  23.828
13369DC     BB386891  47.641  40.411  23.961
13369DC     SC186892  47.468  40.607  23.948
13369DC     SC286893  47.465  40.713  24.135
13369DC     SC386894  47.243  40.737  23.900
13370DC     BB186895  47.788  40.157  24.015
13370DC     BB286896  47.741  40.295  24.345
13370DC     BB386897  47.572  40.213  24.433
13370DC     SC186898  47.414  40.358  24.282
13370DC     SC286899  47.315  40.505  24.403
13370DC     SC386900  47.232  40.420  24.102
13371DC     BB186901  47.693  40.021  24.626
13371DC     BB286902  47.489  40.232  24.836
13371DC     BB386903  47.305  40.143  24.868
13371DC     SC186904  47.225  40.201  24.625
13371DC     SC286905  47.071  40.351  24.634
13371DC     SC386906  47.144  40.169  24.376
13372DA     BB186907  47.454  40.230  25.249
13372DA     BB286908  47.117  40.374  25.225
13372DA     BB386909  46.970  40.222  25.244
13372DA     SC186910  46.954  40.166  24.938
13372DA     SC286911  46.791  40.199  24.752
13372DA     SC386912  46.925  40.018  24.630
13372DA     SC486913  47.049  40.050  24.879
13373DT     BB186914  46.857  40.238  25.400
13373DT     BB286915  46.568  40.365  25.227
13373DT     BB386916  46.426  40.216  25.208
13373DT     SC186917  46.564  40.099  25.018
13373DT     SC286918  46.461  40.120  24.831
13373DT     SC386919  46.706  39.916  24.891
13374DA     BB186920  46.273  40.580  25.351
13374DA     BB286921  46.062  40.464  25.075
13374DA     BB386922  45.953  40.290  25.133
13374DA     SC186923  46.171  40.091  25.034
13374DA     SC286924  46.198  39.924  24.851
13374DA     SC386925  46.384  39.824  24.998
13374DA     SC486926  46.281  40.043  25.140
13375DT     BB186927  45.787  40.336  25.126
13375DT     BB286928  45.697  40.145  24.833
13375DT     BB386929  45.621  39.961  24.890
13375DT     SC186930  45.861  39.872  24.951
13375DT     SC286931  45.919  39.721  24.809
13375DT     SC386932  46.062  39.780  25.094
13376DT     BB186933  45.395  40.060  24.803
13376DT     BB286934  45.437  39.751  24.622
13376DT     BB386935  45.377  39.592  24.739
13376DT     SC186936  45.594  39.608  24.886
13376DT     SC286937  45.720  39.438  24.847
13376DT     SC386938  45.750  39.643  25.096
13377DT     BB186939  45.154  39.562  24.587
13377DT     BB286940  45.307  39.235  24.585
13377DT     BB386941  45.246  39.127  24.751
13377DT     SC186942  45.402  39.267  24.909
13377DT     SC286943  45.563  39.143  24.979
13377DT     SC386944  45.478  39.431  25.101
13378DT     BB186945  45.061  38.955  24.617
13378DT     BB286946  45.277  38.725  24.791
13378DT     BB386947  45.199  38.682  24.979
13378DT     SC186948  45.272  38.917  25.070
13378DT     SC286949  45.432  38.892  25.212
13378DT     SC386950  45.255  39.161  25.171
13379DT     BB186951  45.085  38.412  24.936
13379DT     BB286952  45.305  38.363  25.217
13379DT     BB386953  45.199  38.380  25.394
13379DT     SC186954  45.185  38.641  25.371
13379DT     SC286955  45.308  38.733  25.522
13379DT     SC386956  45.083  38.883  25.342
13380DA     BB186957  45.362  37.995  25.448
13380DA     BB286958  45.444  38.188  25.749
13380DA     BB386959  45.277  38.194  25.881
13380DA     SC186960  45.160  38.456  25.759
13380DA     SC286961  45.131  38.694  25.827
13380DA     SC386962  44.952  38.703  25.643
13380DA     SC486963  45.052  38.441  25.641
13381DT     BB186964  45.275  38.097  26.080
13381DT     BB286965  45.329  38.403  26.263
13381DT     BB386966  45.159  38.452  26.371
13381DT     SC186967  45.034  38.531  26.154
13381DT     SC286968  45.009  38.744  26.159
13381DT     SC386969  44.856  38.540  25.959
13382DA     BB186970  45.503  38.462  26.608
13382DA     BB286971  45.325  38.781  26.646
13382DA     BB386972  45.146  38.753  26.760
13382DA     SC186973  44.968  38.697  26.512
13382DA     SC286974  44.784  38.810  26.387
13382DA     SC386975  44.730  38.577  26.295
13382DA     SC486976  44.949  38.544  26.467
13383DA     BB186977  45.316  38.999  26.886
13383DA     BB286978  45.021  39.203  26.810
13383DA     BB386979  44.858  39.147  26.936
13383DA     SC186980  44.747  38.934  26.740
13383DA     SC286981  44.547  38.905  26.593
13383DA     SC386982  44.604  38.654  26.600
13383DA     SC486983  44.797  38.782  26.758
13384DA     BB186984  44.894  39.471  26.951
13384DA     BB286985  44.548  39.485  26.829
13384DA     BB386986  44.414  39.413  26.979
13384DA     SC186987  44.424  39.118  26.880
13384DA     SC286988  44.271  38.956  26.768
13384DA     SC386989  44.429  38.775  26.859
13384DA     SC486990  44.533  39.021  26.947
13385DG     BB186991  44.313  39.698  26.926
13385DG     BB286992  44.017  39.520  26.819
13385DG     BB386993  43.916  39.456  26.977
13385DG     SC186994  44.063  39.188  26.993
13385DG     SC286995  43.943  38.919  26.944
13385DG     SC386996  44.217  38.894  27.053
13385DG     SC486997  44.198  39.178  27.079
13386DA     BB186998  43.649  39.607  26.818
13386DA     BB286999  43.470  39.288  26.818
13386DA     BB387000  43.402  39.240  27.015
13386DA     SC187001  43.659  39.083  27.091
13386DA     SC287002  43.724  38.846  27.136
13386DA     SC387003  43.927  38.946  27.258
13386DA     SC487004  43.778  39.164  27.164
13387DG     BB187005  43.125  39.246  26.876
13387DG     BB287006  43.122  38.897  26.971
13387DG     BB387007  43.070  38.879  27.162
13387DG     SC187008  43.357  38.897  27.267
13387DG     SC287009  43.509  38.678  27.401
13387DG     SC387010  43.656  38.934  27.418
13387DG     SC487011  43.418  39.041  27.300
13388DT     BB187012  42.889  38.772  27.215
13388DT     BB287013  43.021  38.465  27.352
13388DT     BB387014  43.012  38.470  27.558
13388DT     SC187015  43.216  38.636  27.570
13388DT     SC287016  43.386  38.534  27.653
13388DT     SC387017  43.355  38.855  27.618
13389DA     BB187018  42.837  38.113  27.427
13389DA     BB287019  43.072  38.032  27.697
13389DA     BB387020  42.995  38.097  27.885
13389DA     SC187021  43.128  38.378  27.870
13389DA     SC287022  43.311  38.502  27.985
13389DA     SC387023  43.197  38.713  27.895
13389DA     SC487024  43.041  38.497  27.806
13390DT     BB187025  42.954  37.956  28.009
13390DT     BB287026  43.227  38.011  28.238
13390DT     BB387027  43.160  38.114  28.404
13390DT     SC187028  43.146  38.339  28.270
13390DT     SC287029  43.298  38.473  28.339
13390DT     SC387030  43.043  38.553  28.156
13391DT     BB187031  43.182  37.888  28.554
13391DT     BB287032  43.378  38.132  28.733
13391DT     BB387033  43.257  38.240  28.861
13391DT     SC187034  43.155  38.377  28.662
13391DT     SC287035  43.223  38.580  28.673
13391DT     SC387036  42.978  38.471  28.491
13392DC     BB187037  43.359  38.111  29.079
13392DC     BB287038  43.409  38.461  29.151
13392DC     BB387039  43.239  38.539  29.241
13392DC     SC187040  43.110  38.541  29.013
13392DC     SC287041  43.081  38.744  28.949
13392DC     SC387042  42.929  38.483  28.829
13393DG     BB187043  43.529  38.603  29.524
13393DG     BB287044  43.350  38.909  29.451
13393DG     BB387045  43.177  38.911  29.550
13393DG     SC187046  43.019  38.774  29.327
13393DG     SC287047  42.802  38.898  29.164
13393DG     SC387048  42.819  38.608  29.112
13393DG     SC487049  43.012  38.614  29.324
13394DA     BB187050  43.260  39.224  29.684
13394DA     BB287051  42.966  39.373  29.523
13394DA     BB387052  42.790  39.328  29.635
13394DA     SC187053  42.727  39.066  29.480
13394DA     SC287054  42.557  38.985  29.317
13394DA     SC387055  42.630  38.750  29.390
13394DA     SC487056  42.786  38.929  29.539
13395DT     BB187057  42.689  39.481  29.728
13395DT     BB287058  42.414  39.494  29.494
13395DT     BB387059  42.245  39.411  29.578
13395DT     SC187060  42.340  39.168  29.549
13395DT     SC287061  42.226  39.065  29.399
13395DT     SC387062  42.430  38.928  29.610
13396DC     BB187063  42.139  39.658  29.595
13396DC     BB287064  41.903  39.470  29.397
13396DC     BB387065  41.771  39.369  29.520
13396DC     SC187066  41.954  39.192  29.585
13396DC     SC287067  41.903  39.002  29.498
13396DC     SC387068  42.123  39.052  29.731
13397DG     BB187069  41.562  39.607  29.264
13397DG     BB287070  41.446  39.265  29.255
13397DG     BB387071  41.335  39.226  29.416
13397DG     SC187072  41.572  39.134  29.587
13397DG     SC287073  41.618  38.856  29.687
13397DG     SC387074  41.810  39.045  29.808
13397DG     SC487075  41.653  39.242  29.672
13398DA     BB187076  41.108  39.109  29.183
13398DA     BB287077  41.116  38.780  29.345
13398DA     BB387078  41.012  38.786  29.531
13398DA     SC187079  41.264  38.861  29.697
13398DA     SC287080  41.411  38.754  29.867
13398DA     SC387081  41.480  38.993  29.929
13398DA     SC487082  41.292  39.017  29.722
13399DA     BB187083  40.857  38.532  29.391
13399DA     BB287084  40.976  38.330  29.673
13399DA     BB387085  40.866  38.376  29.849
13399DA     SC187086  41.061  38.600  29.942
13399DA     SC287087  41.227  38.636  30.125
13399DA     SC387088  41.199  38.885  30.074
13399DA     SC487089  41.029  38.750  29.896
13400DA     BB187090  40.815  38.050  29.852
13400DA     BB287091  40.988  38.045  30.176
13400DA     BB387092  40.860  38.120  30.329
13400DA     SC187093  40.953  38.415  30.297
13400DA     SC287094  41.086  38.581  30.427
13400DA     SC387095  40.969  38.757  30.281
13400DA     SC487096  40.870  38.509  30.198
13401DT     BB187097  40.788  37.994  30.484
13401DT     BB287098  41.003  38.123  30.744
13401DT     BB387099  40.893  38.239  30.875
13401DT     SC187100  40.879  38.436  30.703
13401DT     SC287101  40.998  38.601  30.773
13401DT     SC387102  40.776  38.613  30.537
13402DT     BB187103  40.905  38.047  31.074
13402DT     BB287104  41.050  38.341  31.225
13402DT     BB387105  40.902  38.455  31.314
13402DT     SC187106  40.817  38.541  31.081
13402DT     SC287107  40.863  38.750  31.060
13402DT     SC387108  40.657  38.581  30.874
13403DT     BB187109  40.988  38.384  31.564
13403DT     BB287110  41.007  38.744  31.562
13403DT     BB387111  40.826  38.825  31.621
13403DT     SC187112  40.716  38.767  31.390
13403DT     SC287113  40.678  38.949  31.282
13403DT     SC387114  40.554  38.657  31.213
13404DA     BB187115  41.131  38.998  31.850
13404DA     BB287116  40.924  39.268  31.714
13404DA     BB387117  40.736  39.276  31.815
13404DA     SC187118  40.594  39.083  31.617
13404DA     SC287119  40.417  39.096  31.441
13404DA     SC387120  40.394  38.843  31.474
13404DA     SC487121  40.593  38.927  31.653
13405DT     BB187122  40.709  39.436  31.914
13405DT     BB287123  40.473  39.588  31.688
13405DT     BB387124  40.281  39.568  31.762
13405DT     SC187125  40.275  39.314  31.697
13405DT     SC287126  40.136  39.285  31.535
13405DT     SC387127  40.261  39.051  31.722
13406DA     BB187128  40.361  39.963  31.648
13406DA     BB287129  40.040  39.863  31.502
13406DA     BB387130  39.892  39.844  31.655
13406DA     SC187131  39.949  39.543  31.707
13406DA     SC287132  39.834  39.324  31.671
13406DA     SC387133  39.993  39.234  31.851
13406DA     SC487134  40.055  39.506  31.822
13407DG     BB187135  39.772  40.052  31.464
13407DG     BB287136  39.519  39.797  31.425
13407DG     BB387137  39.400  39.795  31.584
13407DG     SC187138  39.569  39.593  31.739
13407DG     SC287139  39.488  39.314  31.810
13407DG     SC387140  39.741  39.388  31.944
13407DG     SC487141  39.688  39.646  31.832
13408DA     BB187142  39.153  39.807  31.342
13408DA     BB287143  39.008  39.500  31.478
13408DA     BB387144  38.914  39.539  31.665
13408DA     SC187145  39.169  39.478  31.833
13408DA     SC287146  39.248  39.303  31.992
13408DA     SC387147  39.417  39.479  32.070
13408DA     SC487148  39.265  39.602  31.869
13409DG     BB187149  38.664  39.432  31.514
13409DG     BB287150  38.673  39.177  31.770
13409DG     BB387151  38.595  39.247  31.938
13409DG     SC187152  38.860  39.354  32.046
13409DG     SC287153  39.007  39.251  32.285
13409DG     SC387154  39.130  39.501  32.186
13409DG     SC487155  38.905  39.503  32.009
13410DT     BB187156  38.405  39.164  32.033
13410DT     BB287157  38.533  38.989  32.321
13410DT     BB387158  38.498  39.099  32.492
13410DT     SC187159  38.690  39.268  32.432
13410DT     SC287160  38.853  39.243  32.570
13410DT     SC387161  38.811  39.493  32.368
13411DA     BB187162  38.316  38.733  32.598
13411DA     BB287163  38.526  38.832  32.882
13411DA     BB387164  38.431  38.985  32.995
13411DA     SC187165  38.560  39.218  32.834
13411DA     SC287166  38.730  39.396  32.872
13411DA     SC387167  38.622  39.514  32.671
13411DA     SC487168  38.478  39.276  32.708
13412DT     BB187169  38.341  38.971  33.213
13412DT     BB287170  38.605  39.155  33.377
13412DT     BB387171  38.533  39.336  33.446
13412DT     SC187172  38.530  39.436  33.203
13412DT     SC287173  38.682  39.586  33.185
13412DT     SC387174  38.438  39.538  32.978
13413DT     BB187175  38.522  39.269  33.723
13413DT     BB287176  38.734  39.560  33.714
13413DT     BB387177  38.621  39.731  33.742
13413DT     SC187178  38.525  39.717  33.498
13413DT     SC287179  38.605  39.878  33.380
13413DT     SC387180  38.352  39.691  33.300
13414DT     BB187181  38.715  39.772  33.999
13414DT     BB287182  38.800  40.076  33.825
13414DT     BB387183  38.645  40.212  33.840
13414DT     SC187184  38.500  40.079  33.667
13414DT     SC287185  38.484  40.193  33.485
13414DT     SC387186  38.302  39.937  33.566
13415DT     BB187187  38.795  40.362  34.010
13415DT     BB287188  38.714  40.585  33.738
13415DT     BB387189  38.532  40.677  33.773
13415DT     SC187190  38.401  40.458  33.715
13415DT     SC287191  38.295  40.485  33.530
13415DT     SC387192  38.246  40.246  33.743
13416DA     BB187193  38.815  40.972  33.680
13416DA     BB287194  38.517  41.032  33.475
13416DA     BB387195  38.358  41.108  33.595
13416DA     SC187196  38.241  40.828  33.663
13416DA     SC287197  38.038  40.695  33.608
13416DA     SC387198  38.095  40.558  33.817
13416DA     SC487199  38.293  40.756  33.797
13417DA     BB187200  38.365  41.340  33.362
13417DA     BB287201  38.018  41.247  33.287
13417DA     BB387202  37.887  41.321  33.438
13417DA     SC187203  37.905  41.065  33.615
13417DA     SC287204  37.757  40.877  33.682
13417DA     SC387205  37.920  40.844  33.877
13417DA     SC487206  38.017  41.062  33.730
13418DT     BB187207  37.746  41.473  33.396
13418DT     BB287208  37.453  41.263  33.401
13418DT     BB387209  37.343  41.299  33.572
13418DT     SC187210  37.516  41.168  33.720
13418DT     SC287211  37.426  40.985  33.790
13418DT     SC387212  37.698  41.119  33.904
13419DT     BB187213  37.142  41.437  33.437
13419DT     BB287214  36.967  41.171  33.606
13419DT     BB387215  36.909  41.233  33.795
13419DT     SC187216  37.154  41.213  33.885
13419DT     SC287217  37.166  41.048  34.024
13419DT     SC387218  37.388  41.282  33.987
13420DA     BB187219  36.556  41.094  33.616
13420DA     BB287220  36.584  40.933  33.944
13420DA     BB387221  36.532  41.070  34.099
13420DA     SC187222  36.823  41.173  34.138
13420DA     SC287223  37.002  41.159  34.311
13420DA     SC387224  37.101  41.366  34.197
13420DA     SC487225  36.868  41.303  34.054
13421DA     BB187226  36.327  40.829  34.177
13421DA     BB287227  36.509  40.802  34.494
13421DA     BB387228  36.451  40.960  34.626
13421DA     SC187229  36.673  41.156  34.529
13421DA     SC287230  36.882  41.256  34.619
13421DA     SC387231  36.851  41.434  34.437
13421DA     SC487232  36.635  41.257  34.410
13422DT     BB187233  36.365  40.897  34.782
13422DT     BB287234  36.640  40.950  35.009
13422DT     BB387235  36.609  41.123  35.118
13422DT     SC187236  36.669  41.273  34.911
13422DT     SC287237  36.857  41.372  34.947
13422DT     SC387238  36.643  41.448  34.716
13423DT     BB187239  36.572  40.960  35.324
13423DT     BB287240  36.841  41.178  35.424
13423DT     BB387241  36.764  41.356  35.498
13423DT     SC187242  36.704  41.439  35.256
13423DT     SC287243  36.833  41.602  35.202
13423DT     SC387244  36.560  41.517  35.049
13424DA     BB187245  37.037  41.205  35.779
13424DA     BB287246  37.113  41.560  35.726
13424DA     BB387247  36.964  41.682  35.817
13424DA     SC187248  36.785  41.695  35.562
13424DA     SC287249  36.718  41.865  35.393
13424DA     SC387250  36.521  41.708  35.343
13424DA     SC487251  36.669  41.585  35.547
13425DC     BB187252  37.013  41.801  35.979
13425DC     BB287253  37.007  42.117  35.805
13425DC     BB387254  36.837  42.222  35.856
13425DC     SC187255  36.687  42.067  35.707
13425DC     SC287256  36.616  42.178  35.537
13425DC     SC387257  36.501  41.893  35.638
13426DC     BB187258  36.973  42.405  36.017
13426DC     BB287259  36.803  42.611  35.775
13426DC     BB387260  36.615  42.662  35.846
13426DC     SC187261  36.523  42.421  35.797
13426DC     SC287262  36.383  42.430  35.634
13426DC     SC387263  36.421  42.182  35.839
13427DT     BB187264  36.686  42.926  35.899
13427DT     BB287265  36.408  42.954  35.671
13427DT     BB387266  36.231  42.963  35.777
13427DT     SC187267  36.241  42.706  35.831
13427DT     SC287268  36.086  42.604  35.723
13427DT     SC387269  36.258  42.482  35.970
13428DA     BB187270  36.245  43.279  35.505
13428DA     BB287271  35.925  43.105  35.461
13428DA     BB387272  35.795  43.147  35.625
13428DA     SC187273  35.890  42.905  35.795
13428DA     SC287274  35.798  42.687  35.873
13428DA     SC387275  35.981  42.696  36.052
13428DA     SC487276  36.009  42.930  35.899
13429DG     BB187277  35.646  43.237  35.375
13429DG     BB287278  35.424  42.970  35.476
13429DG     BB387279  35.312  43.029  35.629
13429DG     SC187280  35.511  42.934  35.842
13429DG     SC287281  35.467  42.712  36.036
13429DG     SC387282  35.715  42.860  36.101
13429DG     SC487283  35.626  43.034  35.891
13430DA     BB187284  35.098  42.881  35.405
13430DA     BB287285  34.989  42.657  35.675
13430DA     BB387286  34.888  42.768  35.826
13430DA     SC187287  35.145  42.822  35.993
13430DA     SC287288  35.242  42.752  36.211
13430DA     SC387289  35.387  42.963  36.192
13430DA     SC487290  35.225  42.959  35.963
13431DT     BB187291  34.739  42.697  35.820
13431DT     BB287292  34.745  42.532  36.140
13431DT     BB387293  34.674  42.660  36.287
13431DT     SC187294  34.898  42.798  36.284
13431DT     SC287295  35.004  42.764  36.468
13431DT     SC387296  35.064  43.000  36.254
13432DC     BB187297  34.472  42.496  36.287
13432DC     BB287298  34.576  42.516  36.631
13432DC     BB387299  34.504  42.690  36.717
13432DC     SC187300  34.681  42.836  36.589
13432DC     SC287301  34.824  42.913  36.730
13432DC     SC387302  34.783  43.015  36.425
13433DT     BB187303  34.307  42.559  36.862
13433DT     BB287304  34.477  42.758  37.111
13433DT     BB387305  34.391  42.946  37.122
13433DT     SC187306  34.504  43.019  36.897
13433DT     SC287307  34.655  43.167  36.938
13433DT     SC387308  34.530  43.098  36.647
13434DT     BB187309  34.236  42.915  37.366
13434DT     BB287310  34.428  43.214  37.430
13434DT     BB387311  34.319  43.381  37.374
13434DT     SC187312  34.362  43.333  37.119
13434DT     SC287313  34.494  43.483  37.040
13434DT     SC387314  34.314  43.276  36.866
13435DT     BB187315  34.226  43.486  37.636
13435DT     BB287316  34.393  43.771  37.491
13435DT     BB387317  34.255  43.892  37.396
13435DT     SC187318  34.233  43.724  37.196
13435DT     SC287319  34.321  43.811  37.020
13435DT     SC387320  34.127  43.552  37.027
13436DC     BB187321  34.241  44.109  37.590
13436DC     BB287322  34.337  44.275  37.285
13436DC     BB387323  34.170  44.346  37.187
13436DC     SC187324  34.103  44.105  37.108
13436DC     SC287325  34.130  44.090  36.895
13436DC     SC387326  33.966  43.882  37.081
13437DC     BB187327  34.219  44.616  37.249
13437DC     BB287328  34.211  44.608  36.889
13437DC     BB387329  34.018  44.644  36.822
13437DC     SC187330  33.941  44.403  36.890
13437DC     SC287331  33.902  44.287  36.713
13437DC     SC387332  33.810  44.210  37.014
13438DG     BB187333  34.265  44.923  36.658
13438DG     BB287334  34.077  44.746  36.405
13438DG     BB387335  33.892  44.817  36.395
13438DG     SC187336  33.781  44.621  36.604
13438DG     SC287337  33.584  44.403  36.552
13438DG     SC387338  33.630  44.437  36.842
13438DG     SC487339  33.786  44.662  36.758
13439DG     BB187340  33.967  44.869  36.086
13439DG     BB287341  33.703  44.633  36.011
13439DG     BB387342  33.526  44.723  36.023
13439DG     SC187343  33.487  44.661  36.320
13439DG     SC287344  33.280  44.480  36.436
13439DG     SC387345  33.421  44.629  36.649
13439DG     SC487346  33.544  44.764  36.429
13440DA     BB187347  33.494  44.572  35.716
13440DA     BB287348  33.196  44.397  35.838
13440DA     BB387349  33.033  44.534  35.860
13440DA     SC187350  33.100  44.603  36.156
13440DA     SC287351  33.001  44.563  36.382
13440DA     SC387352  33.144  44.762  36.457
13440DA     SC487353  33.195  44.730  36.184
13441DA     BB187354  32.904  44.294  35.678
13441DA     BB287355  32.658  44.253  35.947
13441DA     BB387356  32.523  44.418  35.949
13441DA     SC187357  32.693  44.587  36.147
13441DA     SC287358  32.677  44.666  36.383
13441DA     SC387359  32.849  44.843  36.314
13441DA     SC487360  32.799  44.690  36.084
13442DT     BB187361  32.347  44.369  35.907
13442DT     BB287362  32.209  44.405  36.239
13442DT     BB387363  32.111  44.587  36.255
13442DT     SC187364  32.339  44.717  36.268
13442DT     SC287365  32.365  44.796  36.467
13442DT     SC387366  32.535  44.882  36.204
13443DA     BB187367  31.848  44.288  36.387
13443DA     BB287368  31.848  44.557  36.636
13443DA     BB387369  31.745  44.727  36.561
13443DA     SC187370  32.000  44.858  36.439
13443DA     SC287371  32.145  45.055  36.483
13443DA     SC387372  32.222  45.027  36.240
13443DA     SC487373  32.034  44.825  36.285
13444DG     BB187374  31.565  44.676  36.808
13444DG     BB287375  31.690  45.000  36.909
13444DG     BB387376  31.589  45.143  36.815
13444DG     SC187377  31.778  45.153  36.574
13444DG     SC287378  31.956  45.382  36.501
13444DG     SC387379  31.953  45.177  36.287
13444DG     SC487380  31.751  45.056  36.450
13445DT     BB187381  31.475  45.282  36.930
13445DT     BB287382  31.674  45.582  36.906
13445DT     BB387383  31.592  45.710  36.766
13445DT     SC187384  31.680  45.562  36.568
13445DT     SC287385  31.836  45.666  36.464
13445DT     SC387386  31.678  45.405  36.356
13446DC     BB187387  31.515  45.870  36.967
13446DC     BB287388  31.711  46.083  36.752
13446DC     BB387389  31.592  46.158  36.600
13446DC     SC187390  31.593  45.927  36.475
13446DC     SC287391  31.708  45.944  36.294
13446DC     SC387392  31.505  45.703  36.369
13447DT     BB187393  31.590  46.406  36.715
13447DT     BB287394  31.709  46.466  36.379
13447DT     BB387395  31.548  46.492  36.251
13447DT     SC187396  31.494  46.235  36.253
13447DT     SC287397  31.540  46.151  36.060
13447DT     SC387398  31.365  46.009  36.293
13448DT     BB187399  31.572  46.774  36.225
13448DT     BB287400  31.573  46.658  35.883
13448DT     BB387401  31.379  46.653  35.809
13448DT     SC187402  31.324  46.437  35.948
13448DT     SC287403  31.301  46.270  35.814
13448DT     SC387404  31.211  46.278  36.125
13449DA     BB187405  31.534  46.916  35.510
13449DA     BB287406  31.353  46.652  35.331
13449DA     BB387407  31.144  46.692  35.332
13449DA     SC187408  31.090  46.533  35.594
13449DA     SC287409  30.977  46.322  35.662
13449DA     SC387410  30.970  46.425  35.897
13449DA     SC487411  31.095  46.615  35.732
13450DA     BB187412  31.089  46.703  34.983
13450DA     BB287413  30.885  46.400  35.015
13450DA     BB387414  30.681  46.451  35.051
13450DA     SC187415  30.710  46.450  35.361
13450DA     SC287416  30.633  46.311  35.553
13450DA     SC387417  30.682  46.518  35.697
13450DA     SC487418  30.745  46.589  35.433
13451DT     BB187419  30.463  46.422  34.905
13451DT     BB287420  30.360  46.127  35.085
13451DT     BB387421  30.178  46.162  35.178
13451DT     SC187422  30.292  46.310  35.362
13451DT     SC287423  30.285  46.208  35.551
13451DT     SC387424  30.352  46.522  35.508
13452DT     BB187425  30.038  45.994  35.004
13452DT     BB287426  30.004  45.841  35.329
13452DT     BB387427  29.833  45.911  35.423
13452DT     SC187428  29.946  46.142  35.474
13452DT     SC287429  29.980  46.159  35.686
13452DT     SC387430  29.993  46.402  35.471
13453DT     BB187431  29.754  45.664  35.385
13453DT     BB287432  29.760  45.713  35.743
13453DT     BB387433  29.585  45.806  35.804
13453DT     SC187434  29.666  46.037  35.709
13453DT     SC287435  29.708  46.171  35.871
13453DT     SC387436  29.674  46.254  35.560
13454DT     BB187437  29.559  45.572  35.912
13454DT     BB287438  29.555  45.809  36.184
13454DT     BB387439  29.368  45.899  36.197
13454DT     SC187440  29.417  46.047  35.986
13454DT     SC287441  29.439  46.252  36.047
13454DT     SC387442  29.396  46.148  35.743
13455DA     BB187443  29.518  45.759  36.566
13455DA     BB287444  29.396  46.102  36.609
13455DA     BB387445  29.184  46.108  36.589
13455DA     SC187446  29.189  46.162  36.283
13455DA     SC287447  29.137  46.349  36.127
13455DA     SC387448  29.122  46.167  35.946
13455DA     SC487449  29.183  46.034  36.185
13456DA     BB187450  29.238  46.260  36.874
13456DA     BB287451  29.072  46.550  36.724
13456DA     BB387452  28.863  46.514  36.704
13456DA     SC187453  28.886  46.395  36.418
13456DA     SC287454  28.823  46.459  36.185
13456DA     SC387455  28.844  46.209  36.132
13456DA     SC487456  28.903  46.235  36.405
13457DC     BB187457  28.751  46.626  36.812
13457DC     BB287458  28.624  46.833  36.545
13457DC     BB387459  28.433  46.773  36.494
13457DC     SC187460  28.524  46.561  36.370
13457DC     SC287461  28.494  46.584  36.158
13457DC     SC387462  28.569  46.308  36.311
13458DA     BB187463  28.430  47.187  36.561
13458DA     BB287464  28.261  47.122  36.242
13458DA     BB387465  28.070  47.033  36.277
13458DA     SC187466  28.176  46.741  36.266
13458DA     SC287467  28.160  46.544  36.114
13458DA     SC387468  28.231  46.406  36.318
13458DA     SC487469  28.221  46.673  36.405
13459DC     BB187470  27.928  47.142  36.222
13459DC     BB287471  27.836  46.953  35.929
13459DC     BB387472  27.672  46.834  35.970
13459DC     SC187473  27.818  46.666  36.109
13459DC     SC287474  27.833  46.480  36.002
13459DC     SC387475  27.910  46.528  36.314
13460DA     BB187476  27.620  47.051  35.614
13460DA     BB287477  27.527  46.702  35.552
13460DA     BB387478  27.346  46.654  35.654
13460DA     SC187479  27.489  46.557  35.913
13460DA     SC287480  27.529  46.342  36.033
13460DA     SC387481  27.575  46.488  36.238
13460DA     SC487482  27.513  46.665  36.030
13461DT     BB187483  27.213  46.615  35.536
13461DT     BB287484  27.191  46.260  35.598
13461DT     BB387485  27.038  46.221  35.731
13461DT     SC187486  27.179  46.311  35.933
13461DT     SC287487  27.233  46.147  36.061
13461DT     SC387488  27.253  46.461  36.137
13462DT     BB187489  26.910  46.117  35.524
13462DT     BB287490  26.912  45.856  35.773
13462DT     BB387491  26.759  45.887  35.909
13462DT     SC187492  26.891  46.083  36.024
13462DT     SC287493  26.954  46.022  36.220
13462DT     SC387494  26.950  46.326  36.108
13463DC     BB187495  26.616  45.680  35.805
13463DC     BB287496  26.645  45.601  36.156
13463DC     BB387497  26.492  45.692  36.262
13463DC     SC187498  26.608  45.927  36.242
13463DC     SC287499  26.679  45.988  36.435
13463DC     SC387500  26.648  46.179  36.175
13464DA     BB187501  26.473  45.286  36.370
13464DA     BB287502  26.468  45.484  36.678
13464DA     BB387503  26.278  45.578  36.704
13464DA     SC187504  26.359  45.838  36.553
13464DA     SC287505  26.403  46.077  36.607
13464DA     SC387506  26.361  46.120  36.358
13464DA     SC487507  26.328  45.844  36.395
13465DT     BB187508  26.163  45.521  36.859
13465DT     BB287509  26.218  45.813  37.062
13465DT     BB387510  26.051  45.936  37.057
13465DT     SC187511  26.108  46.017  36.814
13465DT     SC287512  26.168  46.223  36.820
13465DT     SC387513  26.087  46.057  36.554
13466DT     BB187514  26.009  45.864  37.309
13466DT     BB287515  26.035  46.223  37.317
13466DT     BB387516  25.853  46.308  37.269
13466DT     SC187517  25.882  46.250  37.015
13466DT     SC287518  25.913  46.431  36.903
13466DT     SC387519  25.839  46.140  36.779
13467DT     BB187520  25.849  46.379  37.522
13467DT     BB287521  25.816  46.687  37.337
13467DT     BB387522  25.619  46.713  37.279
13467DT     SC187523  25.642  46.531  37.092
13467DT     SC287524  25.635  46.625  36.898
13467DT     SC387525  25.603  46.308  36.956
13468DG     BB187526  25.737  47.040  37.495
13468DG     BB287527  25.586  47.135  37.180
13468DG     BB387528  25.389  47.112  37.189
13468DG     SC187529  25.392  46.822  37.092
13468DG     SC287530  25.281  46.723  36.833
13468DG     SC387531  25.361  46.498  37.007
13468DG     SC487532  25.408  46.705  37.199
13469DA     BB187533  25.344  47.446  37.081
13469DA     BB287534  25.149  47.330  36.793
13469DA     BB387535  24.952  47.275  36.854
13469DA     SC187536  25.026  46.977  36.908
13469DA     SC287537  24.979  46.754  36.808
13469DA     SC387538  25.047  46.659  37.036
13469DA     SC487539  25.071  46.938  37.058
13470DA     BB187540  24.809  47.492  36.633
13470DA     BB287541  24.652  47.205  36.468
13470DA     BB387542  24.475  47.147  36.572
13470DA     SC187543  24.622  46.944  36.758
13470DA     SC287544  24.635  46.697  36.788
13470DA     SC387545  24.724  46.751  37.022
13470DA     SC487546  24.675  46.998  36.900
13471DT     BB187547  24.217  47.161  36.516
13471DT     BB287548  24.185  46.810  36.438
13471DT     BB387549  24.057  46.719  36.573
13471DT     SC187550  24.241  46.724  36.761
13471DT     SC287551  24.307  46.524  36.801
13471DT     SC387552  24.362  46.783  36.987
13472DA     BB187553  23.829  46.613  36.229
13472DA     BB287554  23.888  46.301  36.411
13472DA     BB387555  23.741  46.274  36.563
13472DA     SC187556  23.907  46.420  36.782
13472DA     SC287557  24.028  46.360  36.992
13472DA     SC387558  24.007  46.608  37.051
13472DA     SC487559  23.882  46.577  36.802
13473DA     BB187560  23.670  45.983  36.424
13473DA     BB287561  23.797  45.823  36.729
13473DA     BB387562  23.644  45.812  36.877
13473DA     SC187563  23.715  46.086  37.006
13473DA     SC287564  23.814  46.170  37.219
13473DA     SC387565  23.704  46.394  37.159
13473DA     SC487566  23.638  46.217  36.951
13474DA     BB187567  23.744  45.508  36.857
13474DA     BB287568  23.848  45.541  37.207
13474DA     BB387569  23.679  45.530  37.336
13474DA     SC187570  23.628  45.837  37.335
13474DA     SC287571  23.646  46.028  37.494
13474DA     SC387572  23.484  46.149  37.336
13474DA     SC487573  23.526  45.895  37.224
13475DT     BB187574  23.697  45.385  37.439
13475DT     BB287575  23.780  45.558  37.745
13475DT     BB387576  23.612  45.573  37.865
13475DT     SC187577  23.511  45.762  37.713
13475DT     SC287578  23.514  45.949  37.820
13475DT     SC387579  23.347  45.887  37.549
13476DT     BB187580  23.750  45.405  38.011
13476DT     BB287581  23.678  45.683  38.229
13476DT     BB387582  23.486  45.665  38.306
13476DT     SC187583  23.379  45.737  38.077
13476DT     SC287584  23.290  45.931  38.098
13476DT     SC387585  23.240  45.724  37.853
13477DC     BB187586  23.608  45.612  38.536
13477DC     BB287587  23.382  45.883  38.613
13477DC     BB387588  23.193  45.808  38.651
13477DC     SC187589  23.150  45.763  38.396
13477DC     SC287590  23.001  45.900  38.323
13477DC     SC387591  23.104  45.632  38.172
13478DA     BB187592  23.279  46.047  38.986
13478DA     BB287593  22.935  46.124  38.886
13478DA     BB387594  22.804  45.965  38.944
13478DA     SC187595  22.834  45.810  38.676
13478DA     SC287596  22.694  45.756  38.477
13478DA     SC387597  22.861  45.567  38.435
13478DA     SC487598  22.948  45.697  38.668
13479DT     BB187599  22.639  45.966  39.114
13479DT     BB287600  22.348  45.964  38.901
13479DT     BB387601  22.250  45.783  38.918
13479DT     SC187602  22.433  45.661  38.774
13479DT     SC287603  22.349  45.606  38.584
13479DT     SC387604  22.627  45.496  38.709
13480DA     BB187605  21.912  46.017  39.038
13480DA     BB287606  21.783  45.782  38.787
13480DA     BB387607  21.740  45.594  38.877
13480DA     SC187608  22.023  45.476  38.824
13480DA     SC287609  22.127  45.302  38.679
13480DA     SC387610  22.321  45.307  38.846
13480DA     SC487611  22.134  45.494  38.939
13481DT     BB187612  21.510  45.458  38.936
13481DT     BB287613  21.541  45.219  38.667
13481DT     BB387614  21.557  45.028  38.745
13481DT     SC187615  21.805  45.071  38.819
13481DT     SC287616  21.938  44.953  38.696
13481DT     SC387617  22.016  45.100  38.974
13482DA     BB187618  21.225  44.978  38.490
13482DA     BB287619  21.465  44.715  38.404
13482DA     BB387620  21.453  44.554  38.545
13482DA     SC187621  21.669  44.672  38.735
13482DA     SC287622  21.902  44.619  38.806
13482DA     SC387623  21.852  44.767  39.010
13482DA     SC487624  21.618  44.766  38.856
13483DG     BB187625  21.369  44.365  38.307
13483DG     BB287626  21.691  44.214  38.373
13483DG     BB387627  21.673  44.073  38.513
13483DG     SC187628  21.722  44.264  38.747
13483DG     SC287629  21.958  44.260  38.930
13483DG     SC387630  21.752  44.448  39.028
13483DG     SC487631  21.598  44.341  38.812
13484DA     BB187632  21.833  43.867  38.289
13484DA     BB287633  22.109  43.825  38.527
13484DA     BB387634  22.054  43.685  38.679
13484DA     SC187635  21.939  43.902  38.871
13484DA     SC287636  21.998  44.006  39.089
13484DA     SC387637  21.751  44.074  39.101
13484DA     SC487638  21.781  43.934  38.860
13485DT     BB187639  22.160  43.526  38.678
13485DT     BB287640  22.362  43.610  38.966
13485DT     BB387641  22.296  43.504  39.131
13485DT     SC187642  22.085  43.658  39.156
13485DT     SC287643  22.106  43.779  39.333
13485DT     SC387644  21.833  43.734  39.164
13486DT     BB187645  22.526  43.381  39.103
13486DT     BB287646  22.534  43.525  39.433
13486DT     BB387647  22.433  43.402  39.566
13486DT     SC187648  22.200  43.478  39.471
13486DT     SC287649  22.098  43.597  39.618
13486DT     SC387650  21.964  43.465  39.354
13487DT     BB187651  22.674  43.370  39.656
13487DT     BB287652  22.483  43.498  39.934
13487DT     BB387653  22.375  43.345  40.021
13487DT     SC187654  22.203  43.342  39.823
13487DT     SC287655  22.013  43.416  39.892
13487DT     SC387656  22.065  43.256  39.615
13488DG     BB187657  22.608  43.555  40.281
13488DG     BB287658  22.266  43.528  40.395
13488DG     BB387659  22.230  43.342  40.457
13488DG     SC187660  22.138  43.242  40.183
13488DG     SC287661  21.862  43.156  40.111
13488DG     SC387662  22.052  43.094  39.893
13488DG     SC487663  22.247  43.184  40.081
13489DT     BB187664  22.175  43.345  40.641
13489DT     BB287665  21.825  43.258  40.626
13489DT     BB387666  21.802  43.053  40.649
13489DT     SC187667  21.888  43.009  40.405
13489DT     SC287668  21.725  42.940  40.283
13489DT     SC387669  22.039  42.922  40.207
13490DA     BB187670  21.540  43.262  40.903
13490DA     BB287671  21.354  42.990  40.743
13490DA     BB387672  21.421  42.801  40.817
13490DA     SC187673  21.638  42.766  40.597
13490DA     SC287674  21.678  42.621  40.398
13490DA     SC387675  21.924  42.688  40.423
13490DA     SC487676  21.787  42.818  40.630
13491DT     BB187677  21.295  42.694  40.926
13491DT     BB287678  21.232  42.428  40.692
13491DT     BB387679  21.341  42.260  40.744
13491DT     SC187680  21.564  42.368  40.656
13491DT     SC287681  21.629  42.264  40.479
13491DT     SC387682  21.808  42.469  40.656
13492DG     BB187683  20.957  42.116  40.765
13492DG     BB287684  21.166  41.893  40.572
13492DG     BB387685  21.272  41.777  40.693
13492DG     SC187686  21.508  41.971  40.711
13492DG     SC287687  21.783  41.923  40.604
13492DG     SC387688  21.776  42.168  40.769
13492DG     SC487689  21.507  42.084  40.824
13493DT     BB187690  21.262  41.528  40.729
13493DT     BB287691  21.562  41.423  40.559
13493DT     BB387692  21.703  41.359  40.697
13493DT     SC187693  21.755  41.606  40.770
13493DT     SC287694  21.953  41.659  40.703
13493DT     SC387695  21.775  41.821  40.921
13494DT     BB187696  21.676  41.079  40.648
13494DT     BB287697  22.028  41.142  40.594
13494DT     BB387698  22.133  41.111  40.770
13494DT     SC187699  22.044  41.336  40.872
13494DT     SC287700  22.206  41.477  40.886
13494DT     SC387701  21.919  41.503  41.033
13495DT     BB187702  22.244  40.877  40.676
13495DT     BB287703  22.528  41.083  40.760
13495DT     BB387704  22.581  41.053  40.958
13495DT     SC187705  22.375  41.194  41.041
13495DT     SC287706  22.446  41.378  41.127
13495DT     SC387707  22.148  41.254  41.160
13496DT     BB187708  22.800  40.921  40.874
13496DT     BB287709  22.928  41.188  41.081
13496DT     BB387710  22.929  41.130  41.279
13496DT     SC187711  22.669  41.156  41.297
13496DT     SC287712  22.623  41.323  41.424
13496DT     SC387713  22.415  41.093  41.330
13497DT     BB187714  23.199  41.115  41.268
13497DT     BB287715  23.133  41.341  41.542
13497DT     BB387716  23.102  41.233  41.716
13497DT     SC187717  22.863  41.159  41.638
13497DT     SC287718  22.715  41.256  41.759
13497DT     SC387719  22.664  41.003  41.563
13498DT     BB187720  23.348  41.306  41.818
13498DT     BB287721  23.115  41.406  42.075
13498DT     BB387722  23.080  41.248  42.204
13498DT     SC187723  22.930  41.125  42.028
13498DT     SC287724  22.726  41.128  42.094
13498DT     SC387725  22.847  40.942  41.858
13499DA     BB187726  23.206  41.542  42.482
13499DA     BB287727  22.899  41.395  42.617
13499DA     BB387728  22.941  41.205  42.707
13499DA     SC187729  22.889  41.044  42.446
13499DA     SC287730  22.719  40.884  42.359
13499DA     SC387731  22.900  40.814  42.191
13499DA     SC487732  23.015  41.014  42.351
13500DA     BB187733  22.820  41.286  43.022
13500DA     BB287734  22.559  41.032  42.978
13500DA     BB387735  22.630  40.841  43.041
13500DA     SC187736  22.739  40.761  42.761
13500DA     SC287737  22.682  40.599  42.581
13500DA     SC387738  22.924  40.633  42.502
13500DA     SC487739  22.893  40.795  42.729
13501DA     BB187740  22.380  40.800  43.269
13501DA     BB287741  22.255  40.524  43.062
13501DA     BB387742  22.350  40.341  43.118
13501DA     SC187743  22.583  40.372  42.914
13501DA     SC287744  22.659  40.264  42.703
13501DA     SC387745  22.888  40.367  42.756
13501DA     SC487746  22.717  40.444  42.965
13502DC     BB187747  22.237  40.183  43.202
13502DC     BB287748  22.217  39.995  42.894
13502DC     BB387749  22.334  39.825  42.908
13502DC     SC187750  22.554  39.966  42.880
13502DC     SC287751  22.643  39.923  42.689
13502DC     SC387752  22.788  40.074  42.936
13503DC     BB187753  22.103  39.698  42.908
13503DC     BB287754  22.277  39.585  42.613
13503DC     BB387755  22.409  39.433  42.662
13503DC     SC187756  22.576  39.604  42.772
13503DC     SC287757  22.753  39.618  42.651
13503DC     SC387758  22.722  39.725  42.955
13504DT     BB187759  22.237  39.307  42.517
13504DT     BB287760  22.554  39.274  42.349
13504DT     BB387761  22.670  39.130  42.443
13504DT     SC187762  22.722  39.291  42.643
13504DT     SC287763  22.929  39.348  42.637
13504DT     SC387764  22.729  39.388  42.888
13505DT     BB187765  22.621  39.022  42.215
13505DT     BB287766  22.980  39.045  42.241
13505DT     BB387767  23.051  38.897  42.367
13505DT     SC187768  22.965  39.025  42.579
13505DT     SC287769  23.133  39.099  42.691
13505DT     SC387770  22.828  39.079  42.798
13506DT     BB187771  23.146  38.822  42.140
13506DT     BB287772  23.430  38.863  42.358
13506DT     BB387773  23.444  38.702  42.487
13506DT     SC187774  23.242  38.789  42.630
13506DT     SC287775  23.313  38.855  42.822
13506DT     SC387776  23.004  38.799  42.744
13507DA     BB187777  23.810  38.800  42.302
13507DA     BB287778  23.867  38.753  42.661
13507DA     BB387779  23.837  38.549  42.715
13507DA     SC187780  23.535  38.583  42.779
13507DA     SC287781  23.387  38.582  42.980
13507DA     SC387782  23.196  38.538  42.815
13507DA     SC487783  23.430  38.555  42.661
13508DT     BB187784  23.992  38.482  42.773
13508DT     BB287785  23.905  38.456  43.123
13508DT     BB387786  23.838  38.265  43.165
13508DT     SC187787  23.608  38.311  43.047
13508DT     SC287788  23.452  38.319  43.195
13508DT     SC387789  23.409  38.292  42.875
13509DT     BB187790  24.064  38.242  43.296
13509DT     BB287791  23.807  38.162  43.536
13509DT     BB387792  23.745  37.966  43.512
13509DT     SC187793  23.611  38.027  43.295
13509DT     SC287794  23.400  38.011  43.335
13509DT     SC387795  23.537  38.032  43.042
13510DT     BB187796  23.870  37.910  43.741
13510DT     BB287797  23.533  37.793  43.790
13510DT     BB387798  23.511  37.603  43.710
13510DT     SC187799  23.508  37.700  43.465
13510DT     SC287800  23.311  37.677  43.382
13510DT     SC387801  23.581  37.746  43.216
13511DC     BB187802  23.506  37.489  43.957
13511DC     BB287803  23.204  37.369  43.799
13511DC     BB387804  23.245  37.198  43.690
13511DC     SC187805  23.363  37.338  43.501
13511DC     SC287806  23.242  37.335  43.323
13511DC     SC387807  23.551  37.429  43.341
13512DG     BB187808  22.968  37.057  43.959
13512DG     BB287809  22.875  36.969  43.621
13512DG     BB387810  22.977  36.809  43.561
13512DG     SC187811  23.210  36.970  43.447
13512DG     SC287812  23.285  36.989  43.159
13512DG     SC387813  23.492  37.113  43.330
13512DG     SC487814  23.332  37.008  43.543
13513DG     BB187815  22.708  36.608  43.506
13513DG     BB287816  22.805  36.605  43.158
13513DG     BB387817  22.934  36.457  43.125
13513DG     SC187818  23.182  36.626  43.185
13513DG     SC287819  23.392  36.706  42.989
13513DG     SC387820  23.474  36.775  43.265
13513DG     SC487821  23.235  36.634  43.336
13514DA     BB187822  22.735  36.329  42.864
13514DA     BB287823  23.007  36.387  42.624
13514DA     BB387824  23.150  36.229  42.635
13514DA     SC187825  23.326  36.370  42.849
13514DA     SC287826  23.551  36.477  42.862
13514DA     SC387827  23.531  36.440  43.115
13514DA     SC487828  23.295  36.337  43.004
13515DG     BB187829  23.077  36.177  42.335
13515DG     BB287830  23.419  36.282  42.281
13515DG     BB387831  23.542  36.128  42.308
13515DG     SC187832  23.582  36.179  42.607
13515DG     SC287833  23.836  36.265  42.738
13515DG     SC387834  23.631  36.194  42.940
13515DG     SC487835  23.480  36.112  42.711
13516DA     BB187836  23.668  36.213  41.997
13516DA     BB287837  23.998  36.270  42.148
13516DA     BB387838  24.093  36.084  42.191
13516DA     SC187839  23.978  36.064  42.479
13516DA     SC287840  24.062  36.078  42.714
13516DA     SC387841  23.848  35.953  42.777
13516DA     SC487842  23.839  35.984  42.499
13517DA     BB187843  24.327  36.229  42.014
13517DA     BB287844  24.539  36.204  42.312
13517DA     BB387845  24.604  36.002  42.340
13517DA     SC187846  24.363  35.924  42.520
13517DA     SC287847  24.321  35.867  42.759
13517DA     SC387848  24.105  35.757  42.675
13517DA     SC487849  24.234  35.860  42.448
13518DC     BB187850  24.798  35.968  42.322
13518DC     BB287851  24.868  35.927  42.673
13518DC     BB387852  24.890  35.726  42.718
13518DC     SC187853  24.631  35.685  42.701
13518DC     SC287854  24.552  35.644  42.896
13518DC     SC387855  24.400  35.592  42.615
13519DA     BB187856  25.229  35.922  42.868
13519DA     BB287857  25.093  35.711  43.135
13519DA     BB387858  25.134  35.505  43.095
13519DA     SC187859  24.870  35.457  42.939
13519DA     SC287860  24.656  35.332  42.971
13519DA     SC387861  24.632  35.349  42.716
13519DA     SC487862  24.873  35.476  42.779
13520DC     BB187863  25.260  35.406  43.220
13520DC     BB287864  25.005  35.216  43.391
13520DC     BB387865  25.008  35.020  43.327
13520DC     SC187866  24.896  35.084  43.099
13520DC     SC287867  24.695  35.005  43.093
13520DC     SC387868  24.863  35.117  42.839
13521DA     BB187869  25.018  35.029  43.745
13521DA     BB287870  24.752  34.799  43.642
13521DA     BB387871  24.835  34.619  43.563
13521DA     SC187872  24.844  34.722  43.270
13521DA     SC287873  24.727  34.676  43.054
13521DA     SC387874  24.930  34.787  42.944
13521DA     SC487875  24.979  34.793  43.220
13522DA     BB187876  24.629  34.506  43.789
13522DA     BB287877  24.457  34.335  43.514
13522DA     BB387878  24.571  34.167  43.449
13522DA     SC187879  24.728  34.327  43.233
13522DA     SC287880  24.739  34.340  42.985
13522DA     SC387881  24.969  34.448  43.021
13522DA     SC487882  24.869  34.391  43.277
13523DA     BB187883  24.281  34.027  43.505
13523DA     BB287884  24.280  33.931  43.151
13523DA     BB387885  24.417  33.771  43.117
13523DA     SC187886  24.658  33.957  43.054
13523DA     SC287887  24.795  34.020  42.856
13523DA     SC387888  24.970  34.097  43.027
13523DA     SC487889  24.754  33.998  43.176
13524DA     BB187890  24.148  33.636  42.985
13524DA     BB287891  24.335  33.617  42.669
13524DA     BB387892  24.477  33.459  42.677
13524DA     SC187893  24.706  33.637  42.788
13524DA     SC287894  24.923  33.730  42.708
13524DA     SC387895  24.981  33.757  42.956
13524DA     SC487896  24.724  33.644  42.948
13525DT     BB187897  24.458  33.284  42.554
13525DT     BB287898  24.723  33.363  42.323
13525DT     BB387899  24.885  33.239  42.356
13525DT     SC187900  24.951  33.369  42.573
13525DT     SC287901  25.135  33.477  42.539
13525DT     SC387902  24.999  33.419  42.828
13526DA     BB187903  24.802  33.196  41.947
13526DA     BB287904  25.161  33.260  41.979
13526DA     BB387905  25.262  33.085  42.046
13526DA     SC187906  25.235  33.154  42.348
13526DA     SC287907  25.384  33.223  42.536
13526DA     SC387908  25.196  33.141  42.689
13526DA     SC487909  25.107  33.097  42.426
13527DA     BB187910  25.443  33.139  41.778
13527DA     BB287911  25.731  33.179  42.001
13527DA     BB387912  25.801  32.988  42.067
13527DA     SC187913  25.621  32.982  42.321
13527DA     SC287914  25.649  32.997  42.568
13527DA     SC387915  25.418  32.886  42.581
13527DA     SC487916  25.477  32.912  42.308
13528DT     BB187917  25.982  32.935  42.006
13528DT     BB287918  26.150  32.988  42.321
13528DT     BB387919  26.190  32.806  42.411
13528DT     SC187920  25.939  32.774  42.479
13528DT     SC287921  25.920  32.792  42.693
13528DT     SC387922  25.696  32.672  42.491
13529DA     BB187923  26.526  33.056  42.403
13529DA     BB287924  26.490  32.921  42.742
13529DA     BB387925  26.537  32.712  42.744
13529DA     SC187926  26.245  32.621  42.690
13529DA     SC287927  26.061  32.506  42.813
13529DA     SC387928  25.965  32.455  42.581
13529DA     SC487929  26.202  32.598  42.536
13530DT     BB187930  26.679  32.690  42.846
13530DT     BB287931  26.519  32.525  43.124
13530DT     BB387932  26.537  32.320  43.104
13530DT     SC187933  26.356  32.314  42.915
13530DT     SC287934  26.179  32.217  42.989
13530DT     SC387935  26.245  32.279  42.678
13531DT     BB187936  26.707  32.336  43.308
13531DT     BB287937  26.465  32.088  43.410
13531DT     BB387938  26.515  31.904  43.331
13531DT     SC187939  26.433  31.976  43.092
13531DT     SC287940  26.255  31.866  43.042
13531DT     SC387941  26.439  32.035  42.835
13532DA     BB187942  26.462  31.841  43.744
13532DA     BB287943  26.288  31.572  43.567
13532DA     BB387944  26.429  31.437  43.480
13532DA     SC187945  26.445  31.589  43.209
13532DA     SC287946  26.375  31.552  42.973
13532DA     SC387947  26.551  31.730  42.915
13532DA     SC487948  26.560  31.700  43.194
13533DT     BB187949  26.464  31.226  43.546
13533DT     BB287950  26.309  31.063  43.264
13533DT     BB387951  26.454  30.976  43.145
13533DT     SC187952  26.528  31.209  43.050
13533DT     SC287953  26.472  31.223  42.843
13533DT     SC387954  26.679  31.418  42.996
13534DA     BB187955  26.208  30.642  43.222
13534DA     BB287956  26.264  30.651  42.860
13534DA     BB387957  26.457  30.575  42.813
13534DA     SC187958  26.597  30.853  42.829
13534DA     SC287959  26.703  31.016  42.673
13534DA     SC387960  26.819  31.109  42.882
13534DA     SC487961  26.661  30.895  42.971
13535DT     BB187962  26.497  30.384  42.701
13535DT     BB287963  26.587  30.540  42.389
13535DT     BB387964  26.789  30.516  42.353
13535DT     SC187965  26.851  30.696  42.533
13535DT     SC287966  26.930  30.871  42.434
13535DT     SC387967  26.952  30.804  42.751
13536DC     BB187968  26.740  30.334  42.153
13536DC     BB287969  26.926  30.597  41.992
13536DC     BB387970  27.129  30.560  42.008
13536DC     SC187971  27.130  30.629  42.262
13536DC     SC287972  27.237  30.815  42.285
13536DC     SC387973  27.154  30.612  42.524
13537DC     BB187974  27.128  30.509  41.746
13537DC     BB287975  27.363  30.780  41.788
13537DC     BB387976  27.549  30.704  41.837
13537DC     SC187977  27.471  30.651  42.082
13537DC     SC287978  27.571  30.784  42.219
13537DC     SC387979  27.411  30.514  42.299
13538DT     BB187980  27.618  30.784  41.596
13538DT     BB287981  27.843  30.955  41.819
13538DT     BB387982  28.001  30.830  41.870
13538DT     SC187983  27.848  30.690  42.031
13538DT     SC287984  27.907  30.726  42.235
13538DT     SC387985  27.715  30.485  42.132
13539DA     BB187986  28.143  31.206  41.745
13539DA     BB287987  28.312  31.116  42.058
13539DA     BB387988  28.448  30.954  42.025
13539DA     SC187989  28.238  30.733  42.088
13539DA     SC287990  28.196  30.565  42.268
13539DA     SC387991  28.052  30.445  42.093
13539DA     SC487992  28.154  30.673  41.965
13540DA     BB187993  28.652  31.169  42.168
13540DA     BB287994  28.707  30.915  42.426
13540DA     BB387995  28.828  30.756  42.350
13540DA     SC187996  28.586  30.587  42.251
13540DA     SC287997  28.473  30.373  42.312
13540DA     SC387998  28.378  30.379  42.074
13540DA     SC487999  28.538  30.608  42.099
13541DC     BB188000  29.026  30.721  42.419
13541DC     BB288001  28.955  30.422  42.608
13541DC     BB388002  29.030  30.256  42.510
13541DC     SC188003  28.837  30.265  42.332
13541DC     SC288004  28.706  30.097  42.361
13541DC     SC388005  28.714  30.289  42.100
13542DT     BB188006  29.242  30.221  42.686
13542DT     BB288007  29.069  29.904  42.692
13542DT     BB388008  29.144  29.780  42.544
13542DT     SC188009  29.020  29.915  42.357
13542DT     SC288010  28.862  29.794  42.275
13542DT     SC388011  28.982  30.065  42.144
13543DG     BB188012  29.212  29.569  42.889
13543DG     BB288013  29.031  29.369  42.648
13543DG     BB388014  29.157  29.293  42.514
13543DG     SC188015  29.135  29.531  42.323
13543DG     SC288016  29.014  29.525  42.050
13543DG     SC388017  29.150  29.783  42.099
13543DG     SC488018  29.234  29.655  42.341
13544DT     BB188019  29.193  29.067  42.487
13544DT     BB288020  29.007  29.007  42.184
13544DT     BB388021  29.137  28.979  42.025
13544DT     SC188022  29.191  29.236  42.015
13544DT     SC288023  29.107  29.320  41.835
13544DT     SC388024  29.327  29.462  42.026
13545DA     BB188025  28.871  28.655  42.029
13545DA     BB288026  28.877  28.794  41.689
13545DA     BB388027  29.060  28.743  41.592
13545DA     SC188028  29.210  28.999  41.686
13545DA     SC288029  29.298  29.209  41.584
13545DA     SC388030  29.445  29.224  41.794
13545DA     SC488031  29.294  28.990  41.822
13546DA     BB188032  28.841  28.637  41.374
13546DA     BB288033  28.988  28.879  41.141
13546DA     BB388034  29.178  28.810  41.073
13546DA     SC188035  29.337  28.950  41.300
13546DA     SC288036  29.496  29.141  41.324
13546DA     SC388037  29.565  29.030  41.545
13546DA     SC488038  29.367  28.865  41.433
13547DT     BB188039  29.184  28.773  40.887
13547DT     BB288040  29.374  29.063  40.790
13547DT     BB388041  29.572  29.011  40.760
13547DT     SC188042  29.615  28.992  41.018
13547DT     SC288043  29.744  29.152  41.082
13547DT     SC388044  29.672  28.886  41.253
13548DT     BB188045  29.527  29.051  40.501
13548DT     BB288046  29.799  29.273  40.584
13548DT     BB388047  29.978  29.171  40.577
13548DT     SC188048  29.927  29.048  40.803
13548DT     SC288049  30.060  29.122  40.956
13548DT     SC388050  29.878  28.854  40.974
13549DA     BB188051  30.008  29.525  40.353
13549DA     BB288052  30.298  29.505  40.576
13549DA     BB388053  30.432  29.352  40.510
13549DA     SC188054  30.299  29.129  40.682
13549DA     SC288055  30.357  28.992  40.883
13549DA     SC388056  30.174  28.831  40.800
13549DA     SC488057  30.184  29.041  40.614
13550DC     BB188058  30.603  29.415  40.451
13550DC     BB288059  30.793  29.303  40.737
13550DC     BB388060  30.894  29.128  40.690
13550DC     SC188061  30.673  28.987  40.703
13550DC     SC288062  30.681  28.859  40.876
13550DC     SC388063  30.472  28.834  40.629
13551DA     BB188064  31.163  29.403  40.858
13551DA     BB288065  31.208  29.081  41.027
13551DA     BB388066  31.302  28.941  40.897
13551DA     SC188067  31.035  28.831  40.783
13551DA     SC288068  30.902  28.620  40.795
13551DA     SC388069  30.789  28.703  40.580
13551DA     SC488070  30.977  28.899  40.649
13552DG     BB188071  31.515  28.941  41.122
13552DG     BB288072  31.415  28.594  41.153
13552DG     BB388073  31.505  28.485  41.013
13552DG     SC188074  31.284  28.523  40.805
13552DG     SC288075  31.103  28.309  40.701
13552DG     SC388076  31.070  28.560  40.547
13552DG     SC488077  31.290  28.649  40.707
13553DT     BB188078  31.646  28.325  41.068
13553DT     BB288079  31.454  28.028  40.996
13553DT     BB388080  31.519  27.944  40.818
13553DT     SC188081  31.400  28.130  40.677
13553DT     SC288082  31.234  28.045  40.571
13553DT     SC388083  31.367  28.334  40.513
13554DG     BB188084  31.567  27.652  41.099
13554DG     BB288085  31.386  27.526  40.813
13554DG     BB388086  31.513  27.485  40.665
13554DG     SC188087  31.499  27.765  40.542
13554DG     SC288088  31.382  27.835  40.276
13554DG     SC388089  31.523  28.067  40.393
13554DG     SC488090  31.600  27.878  40.594
13555DA     BB188091  31.384  27.158  40.636
13555DA     BB288092  31.292  27.219  40.286
13555DA     BB388093  31.464  27.203  40.161
13555DA     SC188094  31.536  27.505  40.181
13555DA     SC288095  31.536  27.705  40.033
13555DA     SC388096  31.702  27.805  40.201
13555DA     SC488097  31.639  27.549  40.297
13556DC     BB188098  31.508  27.036  40.005
13556DC     BB288099  31.445  27.236  39.711
13556DC     BB388100  31.622  27.269  39.609
13556DC     SC188101  31.701  27.445  39.788
13556DC     SC288102  31.699  27.641  39.700
13556DC     SC388103  31.844  27.558  39.978
13557DT     BB188104  31.589  27.082  39.386
13557DT     BB288105  31.646  27.398  39.221
13557DT     BB388106  31.847  27.419  39.176
13557DT     SC188107  31.906  27.469  39.427
13557DT     SC288108  31.964  27.675  39.448
13557DT     SC388109  32.011  27.441  39.667
13558DA     BB188110  31.680  27.471  38.792
13558DA     BB288111  31.903  27.756  38.850
13558DA     BB388112  32.106  27.700  38.815
13558DA     SC188113  32.159  27.614  39.109
13558DA     SC288114  32.292  27.696  39.304
13558DA     SC388115  32.269  27.456  39.394
13558DA     SC488116  32.135  27.460  39.147
13559DA     BB188117  32.113  27.950  38.601
13559DA     BB288118  32.358  28.109  38.822
13559DA     BB388119  32.553  28.031  38.785
13559DA     SC188120  32.529  27.804  38.996
13559DA     SC288121  32.627  27.747  39.218
13559DA     SC388122  32.551  27.507  39.167
13559DA     SC488123  32.475  27.661  38.946
13560DT     BB188124  32.683  28.160  38.715
13560DT     BB288125  32.856  28.209  39.028
13560DT     BB388126  33.039  28.113  39.023
13560DT     SC188127  32.925  27.878  39.051
13560DT     SC288128  32.972  27.799  39.245
13560DT     SC388129  32.848  27.632  38.996
13561DG     BB188130  33.044  28.506  39.124
13561DG     BB288131  33.205  28.298  39.372
13561DG     BB388132  33.381  28.235  39.304
13561DG     SC188133  33.269  27.981  39.175
13561DG     SC288134  33.325  27.701  39.261
13561DG     SC388135  33.177  27.705  39.005
13561DG     SC488136  33.216  27.988  39.024
13562DT     BB188137  33.474  28.293  39.439
13562DT     BB288138  33.577  27.988  39.601
13562DT     BB388139  33.744  27.910  39.506
13562DT     SC188140  33.599  27.827  39.304
13562DT     SC288141  33.591  27.612  39.305
13562DT     SC388142  33.507  27.804  39.058
13563DG     BB188143  33.761  27.955  39.915
13563DG     BB288144  33.863  27.626  39.805
13563DG     BB388145  34.036  27.638  39.708
13563DG     SC188146  33.907  27.681  39.434
13563DG     SC288147  33.916  27.491  39.204
13563DG     SC388148  33.800  27.750  39.121
13563DG     SC488149  33.873  27.830  39.386
13564DA     BB188150  34.106  27.378  39.927
13564DA     BB288151  34.200  27.170  39.640
13564DA     BB388152  34.379  27.245  39.550
13564DA     SC188153  34.231  27.432  39.351
13564DA     SC288154  34.189  27.445  39.105
13564DA     SC388155  34.139  27.693  39.147
13564DA     SC488156  34.204  27.584  39.397
13565DA     BB188157  34.469  26.930  39.595
13565DA     BB288158  34.528  26.916  39.233
13565DA     BB388159  34.703  27.027  39.182
13565DA     SC188160  34.549  27.293  39.135
13565DA     SC288161  34.488  27.440  38.942
13565DA     SC388162  34.455  27.623  39.118
13565DA     SC488163  34.535  27.394  39.259
13566DT     BB188164  34.880  26.935  39.111
13566DT     BB288165  34.856  27.043  38.768
13566DT     BB388166  34.994  27.193  38.732
13566DT     SC188167  34.850  27.369  38.863
13566DT     SC288168  34.769  27.512  38.724
13566DT     SC388169  34.780  27.544  39.046
13567DA     BB188170  35.085  26.912  38.431
13567DA     BB288171  35.061  27.240  38.269
13567DA     BB388172  35.236  27.355  38.309
13567DA     SC188173  35.119  27.487  38.566
13567DA     SC288174  35.041  27.713  38.638
13567DA     SC388175  35.076  27.625  38.877
13567DA     SC488176  35.148  27.415  38.706
13568DT     BB188177  35.387  27.413  38.157
13568DT     BB288178  35.289  27.759  38.130
13568DT     BB388179  35.433  27.880  38.216
13568DT     SC188180  35.358  27.813  38.458
13568DT     SC288181  35.265  27.981  38.553
13568DT     SC388182  35.367  27.712  38.702
13569DA     BB188183  35.387  28.037  37.829
13569DA     BB288184  35.360  28.317  38.065
13569DA     BB388185  35.553  28.371  38.138
13569DA     SC188186  35.541  28.179  38.383
13569DA     SC288187  35.522  28.197  38.631
13569DA     SC388188  35.617  27.958  38.635
13569DA     SC488189  35.602  28.031  38.364
13570DA     BB188190  35.469  28.670  38.030
13570DA     BB288191  35.492  28.782  38.378
13570DA     BB388192  35.696  28.809  38.434
13570DA     SC188193  35.732  28.518  38.538
13570DA     SC288194  35.762  28.403  38.757
13570DA     SC388195  35.854  28.208  38.618
13570DA     SC488196  35.787  28.409  38.435
13571DG     BB188197  35.612  29.105  38.483
13571DG     BB288198  35.686  29.021  38.827
13571DG     BB388199  35.881  29.039  38.861
13571DG     SC188200  35.947  28.751  38.784
13571DG     SC288201  36.047  28.538  38.968
13571DG     SC388202  36.058  28.447  38.687
13571DG     SC488203  35.980  28.717  38.631
13572DA     BB188204  35.778  29.231  39.128
13572DA     BB288205  35.946  28.998  39.356
13572DA     BB388206  36.158  29.027  39.349
13572DA     SC188207  36.202  28.818  39.123
13572DA     SC288208  36.305  28.592  39.098
13572DA     SC388209  36.316  28.647  38.847
13572DA     SC488210  36.201  28.871  38.971
13573DT     BB188211  36.233  29.090  39.512
13573DT     BB288212  36.390  28.782  39.612
13573DT     BB388213  36.593  28.789  39.570
13573DT     SC188214  36.549  28.756  39.313
13573DT     SC288215  36.618  28.561  39.254
13573DT     SC388216  36.542  28.805  39.054
13574DC     BB188217  36.637  28.807  39.834
13574DC     BB288218  36.827  28.519  39.729
13574DC     BB388219  37.012  28.578  39.658
13574DC     SC188220  36.906  28.668  39.435
13574DC     SC288221  36.966  28.541  39.271
13574DC     SC388222  36.832  28.835  39.245
13575DT     BB188223  37.138  28.481  39.881
13575DT     BB288224  37.304  28.315  39.607
13575DT     BB388225  37.460  28.432  39.538
13575DT     SC188226  37.294  28.597  39.419
13575DT     SC288227  37.313  28.576  39.206
13575DT     SC388228  37.165  28.819  39.360
13576DA     BB188229  37.644  28.063  39.619
13576DA     BB288230  37.746  28.164  39.282
13576DA     BB388231  37.893  28.318  39.293
13576DA     SC188232  37.686  28.550  39.287
13576DA     SC288233  37.615  28.730  39.129
13576DA     SC388234  37.517  28.845  39.336
13576DA     SC488235  37.634  28.607  39.428
13577DA     BB188236  38.087  28.121  39.107
13577DA     BB288237  38.074  28.380  38.847
13577DA     BB388238  38.213  28.536  38.891
13577DA     SC188239  38.008  28.705  39.053
13577DA     SC288240  37.884  28.921  39.026
13577DA     SC388241  37.855  28.911  39.281
13577DA     SC488242  38.001  28.682  39.212
13578DC     BB188243  38.384  28.573  38.768
13578DC     BB288244  38.246  28.863  38.603
13578DC     BB388245  38.344  29.034  38.668
13578DC     SC188246  38.219  29.028  38.898
13578DC     SC288247  38.080  29.192  38.909
13578DC     SC388248  38.178  29.010  39.158
13579DA     BB188249  38.332  29.018  38.251
13579DA     BB288250  38.203  29.345  38.359
13579DA     BB388251  38.362  29.467  38.430
13579DA     SC188252  38.335  29.372  38.725
13579DA     SC288253  38.261  29.467  38.944
13579DA     SC388254  38.395  29.276  39.050
13579DA     SC488255  38.425  29.247  38.772
13580DT     BB188256  38.362  29.599  38.324
13580DT     BB288257  38.218  29.838  38.552
13580DT     BB388258  38.369  29.944  38.648
13580DT     SC188259  38.426  29.739  38.801
13580DT     SC288260  38.368  29.782  39.003
13580DT     SC388261  38.563  29.541  38.909
13581DG     BB188262  38.069  30.158  38.468
13581DG     BB288263  38.125  30.257  38.811
13581DG     BB388264  38.299  30.352  38.827
13581DG     SC188265  38.460  30.097  38.882
13581DG     SC288266  38.598  30.028  39.138
13581DG     SC388267  38.670  29.836  38.925
13581DG     SC488268  38.519  30.014  38.758
13582DC     BB188269  38.265  30.523  38.896
13582DC     BB288270  38.405  30.509  39.228
13582DC     BB388271  38.603  30.570  39.224
13582DC     SC188272  38.679  30.345  39.114
13582DC     SC288273  38.794  30.231  39.257
13582DC     SC388274  38.778  30.175  38.938
13583DT     BB188275  38.514  30.784  39.351
13583DT     BB288276  38.779  30.655  39.560
13583DT     BB388277  38.963  30.721  39.489
13583DT     SC188278  38.954  30.552  39.288
13583DT     SC288279  39.102  30.399  39.317
13583DT     SC388280  38.944  30.461  39.041
13584DA     BB188281  38.947  30.810  39.899
13584DA     BB288282  39.274  30.658  39.829
13584DA     BB388283  39.397  30.794  39.721
13584DA     SC188284  39.304  30.694  39.441
13584DA     SC288285  39.401  30.568  39.249
13584DA     SC388286  39.211  30.672  39.111
13584DA     SC488287  39.180  30.770  39.372
13585DT     BB188288  39.564  30.873  39.809
13585DT     BB288289  39.812  30.691  39.620
13585DT     BB388290  39.899  30.816  39.479
13585DT     SC188291  39.685  30.808  39.327
13585DT     SC288292  39.730  30.697  39.148
13585DT     SC388293  39.471  30.887  39.195
13586DG     BB188294  40.219  30.697  39.706
13586DG     BB288295  40.289  30.653  39.354
13586DG     BB388296  40.343  30.827  39.274
13586DG     SC188297  40.058  30.909  39.199
13586DG     SC288298  39.951  30.938  38.922
13586DG     SC388299  39.757  31.039  39.121
13586DG     SC488300  39.969  30.989  39.306
13587DG     BB188301  40.654  30.731  39.171
13587DG     BB288302  40.548  30.802  38.832
13587DG     BB388303  40.581  30.993  38.789
13587DG     SC188304  40.307  31.088  38.887
13587DG     SC288305  40.089  31.200  38.716
13587DG     SC388306  40.024  31.229  39.003
13587DG     SC488307  40.289  31.128  39.041
13588DT     BB188308  40.750  31.117  38.620
13588DT     BB288309  40.520  31.221  38.362
13588DT     BB388310  40.502  31.427  38.363
13588DT     SC188311  40.354  31.422  38.580
13588DT     SC288312  40.152  31.478  38.530
13588DT     SC388313  40.277  31.462  38.829
13589DA     BB188314  40.639  31.419  37.954
13589DA     BB288315  40.336  31.626  37.952
13589DA     BB388316  40.383  31.827  38.007
13589DA     SC188317  40.335  31.780  38.311
13589DA     SC288318  40.169  31.848  38.484
13589DA     SC388319  40.351  31.787  38.653
13589DA     SC488320  40.461  31.738  38.400
13590DC     BB188321  40.395  32.093  37.875
13590DC     BB288322  40.080  32.199  38.015
13590DC     BB388323  40.107  32.369  38.131
13590DC     SC188324  40.217  32.229  38.324
13590DC     SC288325  40.085  32.224  38.493
13590DC     SC388326  40.398  32.141  38.495
13591DG     BB188327  39.862  32.571  37.853
13591DG     BB288328  39.718  32.587  38.185
13591DG     BB388329  39.780  32.751  38.278
13591DG     SC188330  40.028  32.619  38.399
13591DG     SC288331  40.075  32.568  38.690
13591DG     SC388332  40.319  32.512  38.532
13591DG     SC488333  40.165  32.618  38.316
13592DT     BB188334  39.634  32.933  38.358
13592DT     BB288335  39.612  32.822  38.701
13592DT     BB388336  39.702  32.961  38.826
13592DT     SC188337  39.941  32.883  38.751
13592DT     SC288338  40.038  32.782  38.914
13592DT     SC388339  40.183  32.891  38.646
13593DA     BB188340  39.326  32.813  38.930
13593DA     BB288341  39.554  32.767  39.213
13593DA     BB388342  39.605  32.956  39.299
13593DA     SC188343  39.855  32.999  39.119
13593DA     SC288344  40.103  33.003  39.145
13593DA     SC388345  40.104  33.133  38.924
13593DA     SC488346  39.834  33.080  38.981
13594DT     BB188347  39.546  32.917  39.441
13594DT     BB288348  39.862  32.888  39.612
13594DT     BB388349  39.921  33.073  39.684
13594DT     SC188350  39.989  33.153  39.443
13594DT     SC288351  40.203  33.171  39.431
13594DT     SC388352  39.989  33.292  39.219
13595DT     BB188353  39.877  32.932  39.893
13595DT     BB288354  40.215  33.052  39.924
13595DT     BB388355  40.214  33.252  39.977
13595DT     SC188356  40.144  33.325  39.735
13595DT     SC288357  40.309  33.427  39.641
13595DT     SC388358  40.002  33.426  39.537
13596DA     BB188359  40.475  33.036  40.227
13596DA     BB288360  40.642  33.348  40.130
13596DA     BB388361  40.548  33.515  40.224
13596DA     SC188362  40.347  33.565  39.992
13596DA     SC288363  40.308  33.736  39.815
13596DA     SC388364  40.069  33.641  39.805
13596DA     SC488365  40.203  33.493  40.002
13597DT     BB188366  40.645  33.627  40.375
13597DT     BB288367  40.699  33.931  40.189
13597DT     BB388368  40.568  34.078  40.253
13597DT     SC188369  40.367  33.963  40.129
13597DT     SC288370  40.306  34.086  39.963
13597DT     SC388371  40.136  33.841  40.090
13598DT     BB188372  40.750  34.239  40.416
13598DT     BB288373  40.603  34.485  40.197
13598DT     BB388374  40.440  34.573  40.289
13598DT     SC188375  40.292  34.359  40.250
13598DT     SC288376  40.141  34.403  40.104
13598DT     SC388377  40.146  34.146  40.301
13599DT     BB188378  40.548  34.840  40.378
13599DT     BB288379  40.257  34.935  40.188
13599DT     BB388380  40.096  34.966  40.315
13599DT     SC188381  40.065  34.708  40.352
13599DT     SC288382  39.883  34.644  40.257
13599DT     SC388383  40.055  34.474  40.473
13600DT     BB188384  40.080  35.266  40.326
13600DT     BB288385  39.749  35.171  40.217
13600DT     BB388386  39.620  35.165  40.380
13600DT     SC188387  39.725  34.940  40.465
13600DT     SC288388  39.583  34.781  40.439
13600DT     SC388389  39.852  34.768  40.619
13601DA     BB188390  39.418  35.429  40.124
13601DA     BB288391  39.176  35.172  40.223
13601DA     BB388392  39.098  35.215  40.417
13601DA     SC188393  39.316  35.050  40.567
13601DA     SC288394  39.329  34.839  40.698
13601DA     SC388395  39.547  34.936  40.793
13601DA     SC488396  39.448  35.128  40.615
13602DA     BB188397  38.819  35.189  40.253
13602DA     BB288398  38.743  34.901  40.466
13602DA     BB388399  38.677  34.967  40.659
13602DA     SC188400  38.963  34.967  40.782
13602DA     SC288401  39.091  34.836  40.951
13602DA     SC388402  39.245  35.041  40.963
13602DA     SC488403  39.046  35.105  40.777
13603DT     BB188404  38.496  34.920  40.698
13603DT     BB288405  38.570  34.652  40.928
13603DT     BB388406  38.539  34.716  41.122
13603DT     SC188407  38.759  34.858  41.120
13603DT     SC288408  38.904  34.767  41.250
13603DT     SC388409  38.920  35.066  41.128
13604DA     BB188410  38.363  34.345  41.035
13604DA     BB288411  38.548  34.316  41.350
13604DA     BB388412  38.450  34.427  41.504
13604DA     SC188413  38.609  34.689  41.450
13604DA     SC288414  38.784  34.826  41.563
13604DA     SC388415  38.704  35.017  41.411
13604DA     SC488416  38.544  34.795  41.348
13605DT     BB188417  38.401  34.310  41.622
13605DT     BB288418  38.634  34.402  41.882
13605DT     BB388419  38.545  34.536  42.013
13605DT     SC188420  38.566  34.731  41.839
13605DT     SC288421  38.711  34.874  41.909
13605DT     SC388422  38.497  34.923  41.671
13606DC     BB188423  38.549  34.334  42.182
13606DC     BB288424  38.712  34.604  42.358
13606DC     BB388425  38.570  34.728  42.444
13606DC     SC188426  38.510  34.833  42.211
13606DC     SC288427  38.577  35.037  42.204
13606DC     SC388428  38.370  34.899  41.997
13607DA     BB188429  38.831  34.630  42.759
13607DA     BB288430  38.764  34.990  42.781
13607DA     BB388431  38.566  35.024  42.854
13607DA     SC188432  38.437  35.030  42.571
13607DA     SC288433  38.332  35.198  42.419
13607DA     SC388434  38.225  34.996  42.303
13607DA     SC488435  38.379  34.892  42.513
13608DA     BB188436  38.679  35.215  43.114
13608DA     BB288437  38.477  35.495  42.990
13608DA     BB388438  38.274  35.474  43.052
13608DA     SC188439  38.188  35.315  42.799
13608DA     SC288440  38.046  35.352  42.598
13608DA     SC388441  38.040  35.096  42.580
13608DA     SC488442  38.195  35.155  42.806
13609DA     BB188443  38.233  35.777  43.233
13609DA     BB288444  37.970  35.881  42.999
13609DA     BB388445  37.780  35.810  43.064
13609DA     SC188446  37.799  35.543  42.906
13609DA     SC288447  37.689  35.437  42.708
13609DA     SC388448  37.776  35.216  42.804
13609DA     SC488449  37.860  35.415  42.982
13610DA     BB188450  37.593  36.115  43.103
13610DA     BB288451  37.370  36.010  42.832
13610DA     BB388452  37.202  35.905  42.911
13610DA     SC188453  37.337  35.625  42.892
13610DA     SC288454  37.312  35.417  42.757
13610DA     SC388455  37.439  35.302  42.948
13610DA     SC488456  37.416  35.572  43.021
13611DT     BB188457  36.931  35.960  42.931
13611DT     BB288458  36.842  35.748  42.653
13611DT     BB388459  36.714  35.598  42.716
13611DT     SC188460  36.911  35.469  42.832
13611DT     SC288461  36.951  35.288  42.724
13611DT     SC388462  37.058  35.359  43.021
13612DG     BB188463  36.493  35.795  42.434
13612DG     BB288464  36.529  35.445  42.350
13612DG     BB388465  36.394  35.338  42.449
13612DG     SC188466  36.573  35.290  42.693
13612DG     SC288467  36.685  35.028  42.779
13612DG     SC388468  36.733  35.236  42.984
13612DG     SC488469  36.571  35.397  42.812
13613DG     BB188470  36.294  35.238  42.157
13613DG     BB288471  36.410  34.912  42.259
13613DG     BB388472  36.270  34.821  42.367
13613DG     SC188473  36.369  34.932  42.635
13613DG     SC288474  36.489  34.773  42.857
13613DG     SC388475  36.438  35.052  42.943
13613DG     SC488476  36.313  35.073  42.686
13614DT     BB188477  36.201  34.642  42.290
13614DT     BB288478  36.367  34.404  42.504
13614DT     BB388479  36.236  34.335  42.648
13614DT     SC188480  36.251  34.561  42.782
13614DT     SC288481  36.355  34.527  42.967
13614DT     SC388482  36.178  34.789  42.893
13615DT     BB188483  36.254  34.110  42.514
13615DT     BB288484  36.365  34.033  42.849
13615DT     BB388485  36.201  33.999  42.971
13615DT     SC188486  36.146  34.255  42.981
13615DT     SC288487  36.186  34.329  43.179
13615DT     SC388488  36.016  34.482  42.950
13616DA     BB188489  36.495  33.700  43.003
13616DA     BB288490  36.402  33.811  43.340
13616DA     BB388491  36.204  33.748  43.387
13616DA     SC188492  36.070  34.007  43.277
13616DA     SC288493  35.950  34.206  43.369
13616DA     SC388494  35.857  34.233  43.132
13616DA     SC488495  36.021  34.006  43.124
13617DA     BB188496  36.396  33.656  43.632
13617DA     BB288497  36.181  33.866  43.842
13617DA     BB388498  35.987  33.778  43.860
13617DA     SC188499  35.871  33.928  43.613
13617DA     SC288500  35.705  34.109  43.568
13617DA     SC388501  35.697  34.015  43.329
13617DA     SC488502  35.879  33.854  43.471
13618DG     BB188503  36.099  33.815  44.142
13618DG     BB288504  35.814  34.035  44.168
13618DG     BB388505  35.646  33.929  44.179
13618DG     SC188506  35.603  33.920  43.876
13618DG     SC288507  35.380  34.052  43.727
13618DG     SC388508  35.535  33.874  43.549
13618DG     SC488509  35.669  33.802  43.791
13619DG     BB188510  35.631  34.122  44.437
13619DG     BB288511  35.323  34.241  44.289
13619DG     BB388512  35.182  34.101  44.305
13619DG     SC188513  35.250  33.967  44.038
13619DG     SC288514  35.076  33.960  43.796
13619DG     SC388515  35.310  33.783  43.762
13619DG     SC488516  35.360  33.851  44.035
13620DT     BB188517  35.041  34.178  44.398
13620DT     BB288518  34.777  34.203  44.154
13620DT     BB388519  34.666  34.028  44.152
13620DT     SC188520  34.856  33.899  44.026
13620DT     SC288521  34.791  33.855  43.826
13620DT     SC388522  35.045  33.722  43.977
13621DA     BB188523  34.401  34.356  44.178
13621DA     BB288524  34.263  34.117  43.938
13621DA     BB388525  34.197  33.940  44.038
13621DA     SC188526  34.470  33.793  44.009
13621DA     SC288527  34.563  33.600  43.882
13621DA     SC388528  34.749  33.599  44.059
13621DA     SC488529  34.576  33.809  44.129
13622DT     BB188530  33.987  33.879  44.065
13622DT     BB288531  33.986  33.593  43.846
13622DT     BB388532  33.981  33.419  43.957
13622DT     SC188533  34.234  33.445  44.023
13622DT     SC288534  34.350  33.293  43.924
13622DT     SC388535  34.450  33.478  44.171
13623DA     BB188536  33.622  33.333  43.742
13623DA     BB288537  33.822  33.027  43.726
13623DA     BB388538  33.800  32.914  43.907
13623DA     SC188539  34.041  33.050  44.049
13623DA     SC288540  34.270  32.988  44.124
13623DA     SC388541  34.253  33.191  44.280
13623DA     SC488542  34.010  33.180  44.140
13624DG     BB188543  33.653  32.638  43.786
13624DG     BB288544  33.960  32.474  43.883
13624DG     BB388545  33.940  32.393  44.063
13624DG     SC188546  34.035  32.643  44.212
13624DG     SC288547  34.287  32.668  44.371
13624DG     SC388548  34.116  32.906  44.408
13624DG     SC488549  33.928  32.755  44.253
13625DC     BB188550  33.945  32.145  44.136
13625DC     BB288551  34.280  32.134  44.270
13625DC     BB388552  34.274  32.104  44.475
13625DC     SC188553  34.199  32.352  44.516
13625DC     SC288554  34.358  32.460  44.611
13625DC     SC388555  34.050  32.558  44.589
13626DA     BB188556  34.529  31.819  44.310
13626DA     BB288557  34.709  31.988  44.581
13626DA     BB388558  34.638  31.921  44.771
13626DA     SC188559  34.419  32.141  44.794
13626DA     SC288560  34.376  32.345  44.932
13626DA     SC388561  34.132  32.317  44.860
13626DA     SC488562  34.272  32.106  44.739
13627DA     BB188563  34.960  31.897  44.769
13627DA     BB288564  34.951  32.132  45.051
13627DA     BB388565  34.871  32.036  45.224
13627DA     SC188566  34.577  32.118  45.162
13627DA     SC288567  34.405  32.272  45.256
13627DA     SC388568  34.235  32.127  45.130
13627DA     SC488569  34.487  32.015  45.078
13628DC     BB188570  35.000  32.046  45.328
13628DC     BB288571  34.862  32.292  45.553
13628DC     BB388572  34.758  32.198  45.706
13628DC     SC188573  34.558  32.141  45.546
13628DC     SC288574  34.387  32.258  45.601
13628DC     SC388575  34.385  31.999  45.406
13629DT     BB188576  34.958  32.291  45.843
13629DT     BB288577  34.662  32.411  46.012
13629DT     BB388578  34.582  32.260  46.129
13629DT     SC188579  34.487  32.136  45.918
13629DT     SC288580  34.272  32.150  45.918
13629DT     SC388581  34.450  31.949  45.736
13630DT     BB188582  34.670  32.386  46.353
13630DT     BB288583  34.321  32.325  46.422
13630DT     BB388584  34.297  32.134  46.500
13630DT     SC188585  34.334  32.025  46.264
13630DT     SC288586  34.148  31.941  46.195
13630DT     SC388587  34.442  31.881  46.071
13631DT     BB188588  34.267  32.186  46.794
13631DT     BB288589  33.983  31.974  46.727
13631DT     BB388590  34.030  31.776  46.768
13631DT     SC188591  34.175  31.758  46.550
13631DT     SC288592  34.076  31.627  46.410
13631DT     SC388593  34.384  31.726  46.393
13632DC     BB188594  33.909  31.708  47.046
13632DC     BB288595  33.776  31.444  46.839
13632DC     BB388596  33.892  31.274  46.860
13632DC     SC188597  34.084  31.376  46.714
13632DC     SC288598  34.095  31.272  46.526
13632DC     SC388599  34.321  31.471  46.646
13633DA     BB188600  33.527  31.089  46.983
13633DA     BB288601  33.666  30.875  46.719
13633DA     BB388602  33.813  30.744  46.800
13633DA     SC188603  34.050  30.939  46.749
13633DA     SC288604  34.249  30.954  46.600
13633DA     SC388605  34.341  31.120  46.772
13633DA     SC488606  34.090  31.040  46.869
13634DA     BB188607  33.641  30.483  46.680
13634DA     BB288608  33.925  30.418  46.456
13634DA     BB388609  34.075  30.305  46.557
13634DA     SC188610  34.229  30.555  46.660
13634DA     SC288611  34.446  30.669  46.616
13634DA     SC388612  34.412  30.779  46.845
13634DA     SC488613  34.190  30.612  46.805
13635DA     BB188614  34.034  30.107  46.300
13635DA     BB288615  34.381  30.185  46.211
13635DA     BB388616  34.516  30.074  46.333
13635DA     SC188617  34.535  30.294  46.553
13635DA     SC288618  34.706  30.456  46.637
13635DA     SC388619  34.562  30.464  46.850
13635DA     SC488620  34.433  30.285  46.677
13636DA     BB188621  34.621  29.997  46.035
13636DA     BB288622  34.936  30.159  46.129
13636DA     BB388623  35.047  30.034  46.262
13636DA     SC188624  34.922  30.156  46.519
13636DA     SC288625  34.994  30.300  46.710
13636DA     SC388626  34.790  30.205  46.833
13636DA     SC488627  34.791  30.085  46.579
13637DA     BB188628  35.262  30.101  46.027
13637DA     BB288629  35.463  30.259  46.290
13637DA     BB388630  35.550  30.111  46.416
13637DA     SC188631  35.313  30.108  46.617
13637DA     SC288632  35.269  30.178  46.852
13637DA     SC388633  35.071  30.015  46.842
13637DA     SC488634  35.196  30.000  46.591
13638DA     BB188635  35.810  30.289  46.329
13638DA     BB288636  35.850  30.362  46.686
13638DA     BB388637  35.924  30.190  46.789
13638DA     SC188638  35.642  30.079  46.856
13638DA     SC288639  35.499  30.048  47.058
13638DA     SC388640  35.372  29.876  46.917
13638DA     SC488641  35.576  29.975  46.753
13639DA     BB188642  36.134  30.424  46.876
13639DA     BB288643  36.023  30.362  47.220
13639DA     BB388644  36.100  30.176  47.290
13639DA     SC188645  35.855  30.009  47.194
13639DA     SC288646  35.664  29.886  47.296
13639DA     SC388647  35.650  29.764  47.070
13639DA     SC488648  35.863  29.944  47.047
13640DA     BB188649  36.185  30.390  47.519
13640DA     BB288650  35.981  30.188  47.748
13640DA     BB388651  36.079  30.002  47.789
13640DA     SC188652  35.943  29.851  47.554
13640DA     SC288653  35.773  29.671  47.524
13640DA     SC388654  35.875  29.642  47.290
13640DA     SC488655  36.021  29.847  47.413
13641DT     BB188656  36.117  29.996  47.963
13641DT     BB288657  35.865  29.756  48.057
13641DT     BB388658  35.947  29.567  48.066
13641DT     SC188659  35.956  29.549  47.805
13641DT     SC288660  35.813  29.403  47.738
13641DT     SC388661  36.053  29.527  47.561
13642DG     BB188662  35.752  29.678  48.407
13642DG     BB288663  35.641  29.356  48.284
13642DG     BB388664  35.782  29.219  48.318
13642DG     SC188665  35.923  29.264  48.050
13642DG     SC288666  35.940  29.069  47.825
13642DG     SC388667  36.115  29.302  47.775
13642DG     SC488668  36.038  29.376  48.041
13643DA     BB188669  35.513  29.048  48.451
13643DA     BB288670  35.580  28.770  48.221
13643DA     BB388671  35.758  28.668  48.279
13643DA     SC188672  35.946  28.843  48.104
13643DA     SC288673  36.084  28.816  47.898
13643DA     SC388674  36.210  29.025  47.980
13643DA     SC488675  36.012  28.973  48.172
13644DT     BB188676  35.740  28.481  48.345
13644DT     BB288677  35.884  28.315  48.058
13644DT     BB388678  36.077  28.255  48.101
13644DT     SC188679  36.167  28.501  48.082
13644DT     SC288680  36.290  28.518  47.906
13644DT     SC388681  36.274  28.731  48.150
13645DT     BB188682  36.004  27.989  48.120
13645DT     BB288683  36.268  27.990  47.874
13645DT     BB388684  36.452  27.970  47.968
13645DT     SC188685  36.445  28.219  48.052
13645DT     SC288686  36.593  28.334  47.948
13645DT     SC388687  36.437  28.425  48.217
13646DA     BB188688  36.452  27.662  47.682
13646DA     BB288689  36.769  27.842  47.648
13646DA     BB388690  36.902  27.789  47.807
13646DA     SC188691  36.807  28.017  47.996
13646DA     SC288692  36.898  28.230  48.088
13646DA     SC388693  36.717  28.206  48.268
13646DA     SC488694  36.689  27.984  48.099
13647DG     BB188695  37.094  27.683  47.583
13647DG     BB288696  37.308  27.951  47.701
13647DG     BB388697  37.414  27.889  47.858
13647DG     SC188698  37.205  27.975  48.064
13647DG     SC288699  37.237  28.193  48.266
13647DG     SC388700  36.989  28.039  48.316
13647DG     SC488701  37.089  27.872  48.105
13648DA     BB188702  37.690  28.003  47.684
13648DA     BB288703  37.765  28.236  47.957
13648DA     BB388704  37.852  28.132  48.122
13648DA     SC188705  37.580  28.075  48.262
13648DA     SC288706  37.459  28.149  48.467
13648DA     SC388707  37.322  27.934  48.438
13648DA     SC488708  37.507  27.936  48.227
13649DT     BB188709  38.036  28.180  48.162
13649DT     BB288710  37.970  28.370  48.461
13649DT     BB388711  38.017  28.257  48.628
13649DT     SC188712  37.801  28.111  48.599
13649DT     SC288713  37.663  28.155  48.758
13649DT     SC388714  37.648  27.900  48.558
13650DA     BB188715  38.202  28.632  48.660
13650DA     BB288716  38.034  28.561  48.978
13650DA     BB388717  38.138  28.407  49.084
13650DA     SC188718  37.973  28.176  48.958
13650DA     SC288719  37.802  28.010  49.032
13650DA     SC388720  37.871  27.876  48.824
13650DA     SC488721  38.031  28.107  48.825
13651DC     BB188722  38.230  28.455  49.257
13651DC     BB288723  38.000  28.289  49.480
13651DC     BB388724  38.084  28.113  49.550
13651DC     SC188725  38.044  27.994  49.320
13651DC     SC288726  37.892  27.844  49.342
13651DC     SC388727  38.095  27.872  49.091
13652DT     BB188728  38.123  28.222  49.797
13652DT     BB288729  37.928  27.924  49.860
13652DT     BB388730  38.054  27.761  49.882
13652DT     SC188731  38.100  27.752  49.624
13652DT     SC288732  38.007  27.576  49.542
13652DT     SC388733  38.229  27.761  49.394
13653DA     BB188734  37.807  27.762  50.221
13653DA     BB288735  37.805  27.422  50.083
13653DA     BB388736  37.990  27.324  50.125
13653DA     SC188737  38.127  27.418  49.861
13653DA     SC288738  38.205  27.316  49.648
13653DA     SC388739  38.351  27.526  49.625
13653DA     SC488740  38.212  27.555  49.866
13654DA     BB188741  37.788  27.097  50.249
13654DA     BB288742  37.927  26.864  50.003
13654DA     BB388743  38.122  26.802  50.062
13654DA     SC188744  38.268  27.031  49.910
13654DA     SC288745  38.416  27.055  49.711
13654DA     SC388746  38.485  27.279  49.815
13654DA     SC488747  38.300  27.166  49.992
13655DC     BB188748  38.151  26.607  50.113
13655DC     BB288749  38.333  26.510  49.817
13655DC     BB388750  38.535  26.491  49.860
13655DC     SC188751  38.565  26.752  49.869
13655DC     SC288752  38.683  26.815  49.700
13655DC     SC388753  38.615  26.993  49.963
13656DC     BB188754  38.520  26.218  49.846
13656DC     BB288755  38.780  26.305  49.611
13656DC     BB388756  38.962  26.316  49.709
13656DC     SC188757  38.898  26.546  49.818
13656DC     SC288758  39.018  26.703  49.731
13656DC     SC388759  38.842  26.726  50.002
13657DA     BB188760  39.037  26.048  49.393
13657DA     BB288761  39.307  26.296  49.391
13657DA     BB388762  39.444  26.258  49.550
13657DA     SC188763  39.295  26.439  49.755
13657DA     SC288764  39.333  26.657  49.871
13657DA     SC388765  39.157  26.575  50.038
13657DA     SC488766  39.184  26.370  49.849
13658DC     BB188767  39.663  26.185  49.531
13658DC     BB288768  39.818  26.501  49.609
13658DC     BB388769  39.912  26.490  49.793
13658DC     SC188770  39.682  26.500  49.920
13658DC     SC288771  39.666  26.688  50.022
13658DC     SC388772  39.480  26.427  50.073
13659DT     BB188773  40.190  26.473  49.706
13659DT     BB288774  40.186  26.763  49.921
13659DT     BB388775  40.240  26.709  50.113
13659DT     SC188776  40.007  26.597  50.156
13659DT     SC288777  39.896  26.714  50.298
13659DT     SC388778  39.826  26.411  50.205
13660DA     BB188779  40.511  27.016  50.023
13660DA     BB288780  40.348  27.103  50.340
13660DA     BB388781  40.433  26.991  50.500
13660DA     SC188782  40.232  26.755  50.475
13660DA     SC288783  40.042  26.660  50.605
13660DA     SC388784  40.083  26.446  50.470
13660DA     SC488785  40.274  26.631  50.381
13661DT     BB188786  40.535  27.093  50.647
13661DT     BB288787  40.267  27.078  50.888
13661DT     BB388788  40.315  26.946  51.039
13661DT     SC188789  40.270  26.739  50.883
13661DT     SC288790  40.093  26.637  50.950
13661DT     SC388791  40.313  26.520  50.742
13662DT     BB188792  40.323  27.167  51.177
13662DT     BB288793  40.065  26.966  51.329
13662DT     BB388794  40.150  26.826  51.456
13662DT     SC188795  40.232  26.680  51.254
13662DT     SC288796  40.120  26.497  51.248
13662DT     SC388797  40.394  26.557  51.086
13663DA     BB188798  39.823  27.039  51.616
13663DA     BB288799  39.774  26.680  51.677
13663DA     BB388800  39.919  26.609  51.816
13663DA     SC188801  40.127  26.531  51.598
13663DA     SC288802  40.224  26.323  51.501
13663DA     SC388803  40.415  26.474  51.421
13663DA     SC488804  40.237  26.641  51.558
13664DT     BB188805  39.837  26.553  51.968
13664DT     BB288806  39.885  26.199  51.921
13664DT     BB388807  40.050  26.135  52.028
13664DT     SC188808  40.215  26.244  51.855
13664DT     SC288809  40.317  26.089  51.747
13664DT     SC388810  40.400  26.402  51.755
13665DC     BB188811  39.881  26.012  52.197
13665DC     BB288812  40.105  25.752  52.085
13665DC     BB388813  40.276  25.751  52.200
13665DC     SC188814  40.367  25.967  52.080
13665DC     SC288815  40.537  25.915  51.959
13665DC     SC388816  40.448  26.215  52.044
13666DA     BB188817  40.134  25.357  52.214
13666DA     BB288818  40.491  25.343  52.132
13666DA     BB388819  40.609  25.383  52.306
13666DA     SC188820  40.621  25.690  52.255
13666DA     SC288821  40.792  25.859  52.189
13666DA     SC388822  40.631  26.032  52.289
13666DA     SC488823  40.509  25.782  52.324
13667DC     BB188824  40.727  25.235  52.388
13667DC     BB288825  41.042  25.365  52.270
13667DC     BB388826  41.148  25.448  52.427
13667DC     SC188827  40.991  25.659  52.431
13667DC     SC288828  41.101  25.831  52.362
13667DC     SC388829  40.816  25.836  52.517
13668DT     BB188830  41.317  25.241  52.410
13668DT     BB288831  41.522  25.534  52.360
13668DT     BB388832  41.582  25.610  52.542
13668DT     SC188833  41.343  25.709  52.589
13668DT     SC288834  41.351  25.923  52.579
13668DT     SC388835  41.109  25.748  52.703
13669DC     BB188836  41.812  25.527  52.455
13669DC     BB288837  41.851  25.881  52.513
13669DC     BB388838  41.883  25.916  52.715
13669DC     SC188839  41.630  25.872  52.770
13669DC     SC288840  41.536  26.057  52.828
13669DC     SC388841  41.414  25.760  52.872
13670DC     BB188842  42.099  25.984  52.600
13670DC     BB288843  41.986  26.275  52.782
13670DC     BB388844  42.019  26.248  52.985
13670DC     SC188845  41.818  26.080  53.004
13670DC     SC288846  41.659  26.172  53.117
13670DC     SC388847  41.685  25.857  53.045
13671DT     BB188848  42.179  26.438  52.924
13671DT     BB288849  41.983  26.560  53.201
13671DT     BB388850  42.047  26.472  53.377
13671DT     SC188851  41.932  26.245  53.315
13671DT     SC288852  41.764  26.211  53.445
13671DT     SC388853  41.902  25.990  53.253
13672DT     BB188854  42.143  26.710  53.434
13672DT     BB288855  41.948  26.618  53.723
13672DT     BB388856  42.056  26.490  53.844
13672DT     SC188857  42.021  26.290  53.678
13672DT     SC288858  41.890  26.145  53.769
13672DT     SC388859  42.075  26.097  53.507
13673DA     BB188860  41.950  26.795  54.117
13673DA     BB288861  41.888  26.475  54.284
13673DA     BB388862  42.072  26.386  54.345
13673DA     SC188863  42.110  26.226  54.080
13673DA     SC288864  42.103  25.988  54.005
13673DA     SC388865  42.239  26.069  53.804
13673DA     SC488866  42.195  26.296  53.963
13674DT     BB188867  42.157  26.356  54.563
13674DT     BB288868  42.107  26.000  54.583
13674DT     BB388869  42.290  25.903  54.582
13674DT     SC188870  42.322  25.947  54.325
13674DT     SC288871  42.306  25.761  54.218
13674DT     SC388872  42.424  26.039  54.100
13675DA     BB188873  42.126  25.746  54.939
13675DA     BB288874  42.248  25.460  54.745
13675DA     BB388875  42.460  25.443  54.763
13675DA     SC188876  42.521  25.622  54.515
13675DA     SC288877  42.611  25.593  54.285
13675DA     SC388878  42.657  25.845  54.293
13675DA     SC488879  42.543  25.779  54.541
13676DG     BB188880  42.427  25.157  54.898
13676DG     BB288881  42.592  25.042  54.597
13676DG     BB388882  42.789  25.049  54.621
13676DG     SC188883  42.816  25.336  54.517
13676DG     SC288884  42.953  25.419  54.265
13676DG     SC388885  42.880  25.655  54.429
13676DG     SC488886  42.802  25.457  54.621
13677DA     BB188887  42.811  24.714  54.524
13677DA     BB288888  43.019  24.806  54.237
13677DA     BB388889  43.220  24.840  54.299
13677DA     SC188890  43.179  25.144  54.352
13677DA     SC288891  43.251  25.360  54.252
13677DA     SC388892  43.192  25.462  54.479
13677DA     SC488893  43.138  25.188  54.501
13678DT     BB188894  43.375  24.712  54.237
13678DT     BB288895  43.519  24.938  53.995
13678DT     BB388896  43.698  25.014  54.067
13678DT     SC188897  43.573  25.173  54.234
13678DT     SC288898  43.597  25.377  54.171
13678DT     SC388899  43.492  25.279  54.461
13679DT     BB188900  43.845  24.861  53.891
13679DT     BB288901  43.943  25.201  53.819
13679DT     BB388902  44.102  25.256  53.941
13679DT     SC188903  43.944  25.279  54.149
13679DT     SC288904  43.927  25.487  54.203
13679DT     SC388905  43.839  25.235  54.387
13680DC     BB188906  44.282  25.246  53.732
13680DC     BB288907  44.307  25.583  53.857
13680DC     BB388908  44.449  25.592  54.007
13680DC     SC188909  44.287  25.475  54.177
13680DC     SC288910  44.226  25.617  54.327
13680DC     SC388911  44.191  25.295  54.344
13681DA     BB188912  44.550  25.889  53.730
13681DA     BB288913  44.541  26.044  54.062
13681DA     BB388914  44.713  25.989  54.174
13681DA     SC188915  44.580  25.738  54.301
13681DA     SC288916  44.499  25.666  54.526
13681DA     SC388917  44.516  25.427  54.433
13681DA     SC488918  44.598  25.598  54.225
13682DC     BB188919  44.843  26.134  54.222
13682DC     BB288920  44.747  26.162  54.568
13682DC     BB388921  44.892  26.077  54.689
13682DC     SC188922  44.816  25.835  54.623
13682DC     SC288923  44.724  25.740  54.792
13682DC     SC388924  44.824  25.591  54.522
13683DC     BB188925  44.946  26.326  54.766
13683DC     BB288926  44.859  26.151  55.069
13683DC     BB388927  45.025  26.052  55.144
13683DC     SC188928  45.009  25.867  54.959
13683DC     SC288929  44.950  25.681  55.049
13683DC     SC388930  45.073  25.718  54.751
13684DA     BB188931  44.824  26.276  55.436
13684DA     BB288932  44.887  25.941  55.569
13684DA     BB388933  45.096  25.914  55.606
13684DA     SC188934  45.156  25.800  55.323
13684DA     SC288935  45.220  25.581  55.222
13684DA     SC388936  45.300  25.720  55.022
13684DA     SC488937  45.201  25.904  55.209
13685DC     BB188938  45.121  25.890  55.781
13685DC     BB288939  45.203  25.539  55.773
13685DC     BB388940  45.409  25.515  55.773
13685DC     SC188941  45.426  25.589  55.522
13685DC     SC288942  45.480  25.419  55.401
13685DC     SC388943  45.491  25.730  55.309
13686DA     BB188944  45.235  25.270  56.066
13686DA     BB288945  45.480  25.070  55.881
13686DA     BB388946  45.678  25.134  55.928
13686DA     SC188947  45.692  25.342  55.698
13686DA     SC288948  45.812  25.370  55.481
13686DA     SC388949  45.755  25.619  55.505
13686DA     SC488950  45.647  25.493  55.731
13687DC     BB188951  45.796  25.008  56.028
13687DC     BB288952  46.024  24.926  55.761
13687DC     BB388953  46.202  25.029  55.786
13687DC     SC188954  46.092  25.254  55.708
13687DC     SC288955  46.173  25.310  55.516
13687DC     SC388956  46.003  25.502  55.714
13688DG     BB188957  46.329  24.638  55.797
13688DG     BB288958  46.532  24.831  55.568
13688DG     BB388959  46.671  24.932  55.668
13688DG     SC188960  46.495  25.179  55.709
13688DG     SC288961  46.541  25.449  55.588
13688DG     SC388962  46.323  25.459  55.789
13688DG     SC488963  46.400  25.187  55.837
13689DT     BB188964  46.933  24.911  55.677
13689DT     BB288965  47.030  25.203  55.488
13689DT     BB388966  47.119  25.342  55.613
13689DT     SC188967  46.887  25.409  55.717
13689DT     SC288968  46.835  25.608  55.654
13689DT     SC388969  46.695  25.443  55.894
13690DA     BB188970  47.449  25.305  55.345
13690DA     BB288971  47.388  25.665  55.382
13690DA     BB388972  47.478  25.737  55.562
13690DA     SC188973  47.226  25.689  55.737
13690DA     SC288974  47.055  25.826  55.855
13690DA     SC388975  47.011  25.614  55.994
13690DA     SC488976  47.215  25.548  55.814
13691DA     BB188977  47.671  25.972  55.401
13691DA     BB288978  47.481  26.233  55.575
13691DA     BB388979  47.568  26.275  55.765
13691DA     SC188980  47.396  26.065  55.917
13691DA     SC288981  47.210  26.065  56.084
13691DA     SC388982  47.282  25.823  56.133
13691DA     SC488983  47.456  25.917  55.934
13692DA     BB188984  47.579  26.585  55.656
13692DA     BB288985  47.338  26.665  55.921
13692DA     BB388986  47.438  26.687  56.108
13692DA     SC188987  47.406  26.387  56.187
13692DA     SC288988  47.278  26.253  56.353
13692DA     SC388989  47.453  26.070  56.310
13692DA     SC488990  47.525  26.287  56.147
13693DC     BB188991  47.429  26.863  56.182
13693DC     BB288992  47.176  26.786  56.428
13693DC     BB388993  47.263  26.768  56.615
13693DC     SC188994  47.364  26.534  56.554
13693DC     SC288995  47.263  26.381  56.667
13693DC     SC388996  47.542  26.345  56.506
13694DT     BB188997  47.126  26.985  56.653
13694DT     BB288998  47.003  26.746  56.894
13694DT     BB388999  47.132  26.736  57.056
13694DT     SC189000  47.308  26.599  56.917
13694DT     SC289001  47.316  26.398  56.991
13694DT     SC389002  47.532  26.537  56.794
13695DA     BB189003  46.722  26.769  57.155
13695DA     BB289004  46.872  26.498  57.351
13695DA     BB389005  47.013  26.577  57.491
13695DA     SC189006  47.255  26.554  57.297
13695DA     SC289007  47.462  26.417  57.276
13695DA     SC389008  47.547  26.606  57.124
13695DA     SC489009  47.290  26.682  57.206
13696DG     BB189010  46.808  26.423  57.661
13696DG     BB289011  47.102  26.228  57.742
13696DG     BB389012  47.219  26.330  57.866
13696DG     SC189013  47.379  26.464  57.642
13696DG     SC289014  47.668  26.418  57.581
13696DG     SC389015  47.561  26.644  57.423
13696DG     SC489016  47.327  26.603  57.582
13697DT     BB189017  47.253  26.245  58.050
13697DT     BB289018  47.596  26.138  58.026
13697DT     BB389019  47.720  26.279  58.114
13697DT     SC189020  47.692  26.442  57.910
13697DT     SC289021  47.877  26.454  57.802
13697DT     SC389022  47.626  26.656  57.771
13698DG     BB189023  47.790  25.928  58.312
13698DG     BB289024  48.098  26.079  58.198
13698DG     BB389025  48.148  26.230  58.318
13698DG     SC189026  47.995  26.440  58.158
13698DG     SC289027  48.116  26.666  58.005
13698DG     SC389028  47.821  26.694  58.019
13698DG     SC489029  47.841  26.467  58.193
13699DT     BB189030  48.339  26.234  58.449
13699DT     BB289031  48.543  26.469  58.266
13699DT     BB389032  48.548  26.650  58.365
13699DT     SC189033  48.303  26.708  58.288
13699DT     SC289034  48.309  26.869  58.146
13699DT     SC389035  48.046  26.762  58.301
13700DT     BB189036  48.808  26.616  58.453
13700DT     BB289037  48.817  26.927  58.270
13700DT     BB389038  48.773  27.084  58.397
13700DT     SC189039  48.519  27.021  58.400
13700DT     SC289040  48.407  27.172  58.295
13700DT     SC389041  48.283  26.945  58.491
13701DT     BB189042  49.034  27.168  58.394
13701DT     BB289043  48.845  27.452  58.276
13701DT     BB389044  48.783  27.567  58.436
13701DT     SC189045  48.598  27.392  58.500
13701DT     SC289046  48.404  27.476  58.459
13701DT     SC389047  48.464  27.212  58.639
13702DC     BB189048  48.963  27.762  58.370
13702DC     BB289049  48.643  27.928  58.364
13702DC     BB389050  48.597  28.000  58.553
13702DC     SC189051  48.539  27.758  58.639
13702DC     SC289052  48.327  27.743  58.673
13702DC     SC389053  48.552  27.535  58.778
13703DG     BB189054  48.591  28.308  58.289
13703DG     BB289055  48.282  28.287  58.476
13703DG     BB389056  48.309  28.361  58.659
13703DG     SC189057  48.393  28.093  58.782
13703DG     SC289058  48.240  27.938  58.985
13703DG     SC389059  48.509  27.822  58.944
13703DG     SC489060  48.548  28.052  58.779
13704DT     BB189061  48.192  28.525  58.709
13704DT     BB289062  47.952  28.380  58.937
13704DT     BB389063  48.006  28.422  59.132
13704DT     SC189064  48.199  28.244  59.124
13704DT     SC289065  48.148  28.078  59.251
13704DT     SC389066  48.442  28.141  59.129
13705DT     BB189067  47.794  28.576  59.126
13705DT     BB289068  47.739  28.351  59.402
13705DT     BB389069  47.840  28.419  59.570
13705DT     SC189070  48.071  28.341  59.472
13705DT     SC289071  48.145  28.175  59.586
13705DT     SC389072  48.317  28.353  59.377
13706DG     BB189073  47.444  28.369  59.655
13706DG     BB289074  47.655  28.209  59.901
13706DG     BB389075  47.736  28.346  60.021
13706DG     SC189076  47.984  28.388  59.846
13706DG     SC289077  48.264  28.316  59.921
13706DG     SC389078  48.258  28.473  59.670
13706DG     SC489079  47.979  28.497  59.729
13707DT     BB189080  47.690  28.351  60.236
13707DT     BB289081  47.998  28.241  60.387
13707DT     BB389082  48.103  28.404  60.460
13707DT     SC189083  48.175  28.477  60.219
13707DT     SC289084  48.386  28.445  60.194
13707DT     SC389085  48.197  28.622  59.999
13708DA     BB189086  48.079  28.164  60.808
13708DA     BB289087  48.426  28.280  60.785
13708DA     BB389088  48.440  28.484  60.847
13708DA     SC189089  48.395  28.599  60.561
13708DA     SC289090  48.528  28.719  60.388
13708DA     SC389091  48.300  28.791  60.293
13708DA     SC489092  48.244  28.635  60.519
13709DT     BB189093  48.541  28.593  61.054
13709DT     BB289094  48.829  28.735  60.890
13709DT     BB389095  48.817  28.942  60.892
13709DT     SC189096  48.633  28.941  60.705
13709DT     SC289097  48.715  29.022  60.524
13709DT     SC389098  48.400  28.977  60.586
13710DT     BB189099  49.008  29.047  61.122
13710DT     BB289100  49.127  29.228  60.834
13710DT     BB389101  49.049  29.420  60.834
13710DT     SC189102  48.814  29.332  60.759
13710DT     SC289103  48.775  29.396  60.557
13710DT     SC389104  48.555  29.279  60.764
13711DT     BB189105  49.279  29.609  60.930
13711DT     BB289106  49.194  29.742  60.606
13711DT     BB389107  49.071  29.908  60.627
13711DT     SC189108  48.865  29.757  60.689
13711DT     SC289109  48.722  29.763  60.529
13711DT     SC389110  48.668  29.651  60.828
13712DA     BB189111  49.390  30.031  60.388
13712DA     BB289112  49.079  30.103  60.207
13712DA     BB389113  48.985  30.277  60.288
13712DA     SC189114  48.814  30.118  60.494
13712DA     SC289115  48.574  30.060  60.530
13712DA     SC389116  48.642  30.017  60.773
13712DA     SC489117  48.876  30.097  60.641
13713DC     BB189118  48.978  30.404  60.160
13713DC     BB289119  48.629  30.361  60.082
13713DC     BB389120  48.517  30.507  60.177
13713DC     SC189121  48.544  30.388  60.409
13713DC     SC289122  48.354  30.307  60.470
13713DC     SC389123  48.614  30.346  60.660
13714DT     BB189124  48.490  30.562  59.928
13714DT     BB289125  48.158  30.501  60.054
13714DT     BB389126  48.092  30.664  60.163
13714DT     SC189127  48.248  30.601  60.365
13714DT     SC289128  48.128  30.536  60.531
13714DT     SC389129  48.441  30.619  60.545
13715DT     BB189130  47.935  30.667  59.960
13715DT     BB289131  47.722  30.650  60.250
13715DT     BB389132  47.711  30.835  60.341
13715DT     SC189133  47.953  30.809  60.440
13715DT     SC289134  47.941  30.786  60.654
13715DT     SC389135  48.209  30.855  60.485
13716DG     BB189136  47.338  30.693  60.252
13716DG     BB289137  47.362  30.806  60.595
13716DG     BB389138  47.367  31.004  60.601
13716DG     SC189139  47.673  31.022  60.582
13716DG     SC289140  47.857  31.119  60.796
13716DG     SC389141  48.003  31.078  60.542
13716DG     SC489142  47.741  31.027  60.437
13717DT     BB189143  47.207  31.127  60.698
13717DT     BB289144  47.371  31.246  60.996
13717DT     BB389145  47.428  31.444  60.972
13717DT     SC189146  47.626  31.375  60.814
13717DT     SC289147  47.813  31.411  60.915
13717DT     SC389148  47.776  31.355  60.598
13718DT     BB189149  47.225  31.560  61.134
13718DT     BB289150  47.530  31.689  61.276
13718DT     BB389151  47.579  31.869  61.187
13718DT     SC189152  47.659  31.748  60.968
13718DT     SC289153  47.872  31.766  60.950
13718DT     SC389154  47.669  31.674  60.715
13719DC     BB189155  47.503  32.046  61.401
13719DC     BB289156  47.850  32.127  61.342
13719DC     BB389157  47.864  32.284  61.208
13719DC     SC189158  47.801  32.128  61.007
13719DC     SC289159  47.974  32.102  60.881
13719DC     SC389160  47.668  32.028  60.802
13720DT     BB189161  47.940  32.470  61.401
13720DT     BB289162  48.212  32.469  61.164
13720DT     BB389163  48.177  32.610  61.016
13720DT     SC189164  47.995  32.460  60.903
13720DT     SC289165  48.068  32.388  60.714
13720DT     SC389166  47.760  32.379  60.814
13721DT     BB189167  48.377  32.754  61.122
13721DT     BB289168  48.480  32.683  60.784
13721DT     BB389169  48.403  32.826  60.655
13721DT     SC189170  48.162  32.722  60.671
13721DT     SC289171  48.111  32.631  60.482
13721DT     SC389172  47.905  32.699  60.723
13722DT     BB189173  48.655  32.890  60.637
13722DT     BB289174  48.551  32.804  60.302
13722DT     BB389175  48.456  32.965  60.214
13722DT     SC189176  48.240  32.926  60.358
13722DT     SC289177  48.081  32.856  60.231
13722DT     SC389178  48.048  32.968  60.534
13723DT     BB189179  48.671  32.953  60.071
13723DT     BB289180  48.396  32.920  59.839
13723DT     BB389181  48.315  33.106  59.798
13723DT     SC189182  48.198  33.115  60.033
13723DT     SC289183  47.985  33.098  60.007
13723DT     SC389184  48.137  33.194  60.277
13724DG     BB189185  48.421  32.894  59.467
13724DG     BB289186  48.083  33.021  59.445
13724DG     BB389187  48.087  33.218  59.415
13724DG     SC189188  48.087  33.289  59.713
13724DG     SC289189  47.866  33.425  59.860
13724DG     SC389190  48.108  33.402  60.030
13724DG     SC489191  48.227  33.301  59.789
13725DT     BB189192  48.000  33.278  59.242
13725DT     BB289193  47.700  33.444  59.353
13725DT     BB389194  47.731  33.648  59.362
13725DT     SC189195  47.874  33.625  59.581
13725DT     SC289196  47.765  33.709  59.746
13725DT     SC389197  48.080  33.634  59.745
13726DG     BB189198  47.414  33.585  59.114
13726DG     BB289199  47.339  33.840  59.359
13726DG     BB389200  47.427  34.011  59.308
13726DG     SC189201  47.686  33.952  59.459
13726DG     SC289202  47.787  34.098  59.699
13726DG     SC389203  47.991  33.910  59.597
13726DG     SC489204  47.804  33.872  59.384
13727DC     BB189205  47.315  34.206  59.249
13727DC     BB289206  47.375  34.419  59.534
13727DC     BB389207  47.517  34.562  59.486
13727DC     SC189208  47.711  34.386  59.498
13727DC     SC289209  47.834  34.427  59.670
13727DC     SC389210  47.911  34.232  59.423
13728DG     BB189211  47.197  34.807  59.575
13728DG     BB289212  47.492  34.919  59.752
13728DG     BB389213  47.604  35.032  59.633
13728DG     SC189214  47.768  34.798  59.523
13728DG     SC289215  48.059  34.750  59.570
13728DG     SC389216  47.952  34.563  59.367
13728DG     SC489217  47.714  34.720  59.394
13729DC     BB189218  47.665  35.290  59.638
13729DC     BB289219  48.008  35.274  59.748
13729DC     BB389220  48.135  35.333  59.595
13729DC     SC189221  48.100  35.106  59.469
13729DC     SC289222  48.282  34.991  59.476
13729DC     SC389223  48.029  34.935  59.281
13730DA     BB189224  48.264  35.619  59.882
13730DA     BB289225  48.568  35.462  59.751
13730DA     BB389226  48.622  35.550  59.564
13730DA     SC189227  48.458  35.347  59.394
13730DA     SC289228  48.504  35.159  59.236
13730DA     SC389229  48.263  35.197  59.154
13730DA     SC489230  48.307  35.387  59.356
13731DA     BB189231  48.934  35.641  59.670
13731DA     BB289232  49.077  35.410  59.424
13731DA     BB389233  49.098  35.507  59.235
13731DA     SC189234  48.817  35.424  59.132
13731DA     SC289235  48.721  35.271  58.960
13731DA     SC389236  48.509  35.414  58.980
13731DA     SC489237  48.695  35.526  59.158
13732DT     BB189238  49.297  35.556  59.135
13732DT     BB289239  49.282  35.285  58.897
13732DT     BB389240  49.257  35.360  58.705
13732DT     SC189241  49.005  35.416  58.752
13732DT     SC289242  48.880  35.284  58.637
13732DT     SC389243  48.784  35.556  58.785
13733DA     BB189244  49.589  35.106  58.688
13733DA     BB289245  49.359  35.008  58.420
13733DA     BB389246  49.370  35.147  58.258
13733DA     SC189247  49.143  35.329  58.369
13733DA     SC289248  48.908  35.388  58.309
13733DA     SC389249  48.945  35.596  58.456
13733DA     SC489250  49.186  35.452  58.463
13734DC     BB189251  49.442  35.081  58.081
13734DC     BB289252  49.124  35.060  57.913
13734DC     BB389253  49.105  35.215  57.778
13734DC     SC189254  49.063  35.389  57.970
13734DC     SC289255  48.858  35.456  57.963
13734DC     SC389256  49.098  35.596  58.130
13735DA     BB189257  49.019  34.855  57.584
13735DA     BB289258  48.747  35.090  57.512
13735DA     BB389259  48.812  35.239  57.374
13735DA     SC189260  48.908  35.436  57.595
13735DA     SC289261  48.839  35.657  57.688
13735DA     SC389262  49.080  35.672  57.777
13735DA     SC489263  49.062  35.427  57.640
13736DA     BB189264  48.542  35.126  57.233
13736DA     BB289265  48.409  35.466  57.266
13736DA     BB389266  48.502  35.595  57.124
13736DA     SC189267  48.733  35.680  57.315
13736DA     SC289268  48.804  35.884  57.439
13736DA     SC389269  49.035  35.772  57.448
13736DA     SC489270  48.869  35.595  57.309
13737DT     BB189271  48.381  35.662  56.998
13737DT     BB289272  48.361  35.997  57.130
13737DT     BB389273  48.478  36.125  57.017
13737DT     SC189274  48.698  36.029  57.122
13737DT     SC289275  48.788  36.178  57.248
13737DT     SC389276  48.932  35.909  57.141
13738DT     BB189277  48.244  36.220  56.947
13738DT     BB289278  48.424  36.498  57.090
13738DT     BB389279  48.551  36.580  56.949
13738DT     SC189280  48.719  36.379  56.972
13738DT     SC289281  48.899  36.448  57.067
13738DT     SC389282  48.863  36.167  56.909
13739DA     BB189283  48.319  36.858  57.164
13739DA     BB289284  48.667  36.974  57.155
13739DA     BB389285  48.723  37.027  56.956
13739DA     SC189286  48.828  36.744  56.883
13739DA     SC289287  49.047  36.634  56.837
13739DA     SC389288  48.909  36.452  56.721
13739DA     SC489289  48.724  36.642  56.814
13740DT     BB189290  48.757  37.187  56.976
13740DT     BB289291  49.114  37.170  56.924
13740DT     BB389292  49.157  37.191  56.723
13740DT     SC189293  49.075  36.947  56.673
13740DT     SC289294  49.245  36.824  56.621
13740DT     SC389295  48.933  36.748  56.573
13741DA     BB189296  49.401  37.444  56.957
13741DA     BB289297  49.609  37.288  56.699
13741DA     BB389298  49.555  37.362  56.506
13741DA     SC189299  49.345  37.139  56.453
13741DA     SC289300  49.319  36.940  56.304
13741DA     SC389301  49.068  36.962  56.353
13741DA     SC489302  49.192  37.170  56.494
13742DT     BB189303  49.684  37.481  56.401
13742DT     BB289304  49.768  37.253  56.135
13742DT     BB389305  49.666  37.304  55.963
13742DT     SC189306  49.441  37.208  56.058
13742DT     SC289307  49.387  37.030  55.949
13742DT     SC389308  49.193  37.198  56.147
13743DT     BB189309  49.877  37.439  55.810
13743DT     BB289310  49.751  37.201  55.570
13743DT     BB389311  49.606  37.289  55.452
13743DT     SC189312  49.431  37.281  55.647
13743DT     SC289313  49.278  37.137  55.599
13743DT     SC389314  49.261  37.362  55.832
13744DT     BB189315  49.749  37.351  55.190
13744DT     BB289316  49.462  37.163  55.078
13744DT     BB389317  49.312  37.293  55.018
13744DT     SC189318  49.254  37.354  55.266
13744DT     SC289319  49.061  37.272  55.316
13744DT     SC389320  49.222  37.496  55.486
13745DT     BB189321  49.327  37.282  54.715
13745DT     BB289322  48.983  37.194  54.782
13745DT     BB389323  48.862  37.360  54.762
13745DT     SC189324  48.946  37.458  54.990
13745DT     SC289325  48.787  37.451  55.134
13745DT     SC389326  49.061  37.621  55.163
13746DA     BB189327  48.678  37.091  54.497
13746DA     BB289328  48.416  37.217  54.720
13746DA     BB389329  48.353  37.411  54.658
13746DA     SC189330  48.559  37.562  54.835
13746DA     SC289331  48.558  37.706  55.039
13746DA     SC389332  48.789  37.786  54.959
13746DA     SC489333  48.701  37.600  54.769
13747DT     BB189334  48.155  37.444  54.585
13747DT     BB289335  48.030  37.599  54.886
13747DT     BB389336  47.999  37.801  54.853
13747DT     SC189337  48.256  37.850  54.861
13747DT     SC289338  48.303  37.961  55.040
13747DT     SC389339  48.497  37.923  54.783
13748DC     BB189340  47.735  37.750  54.866
13748DC     BB289341  47.796  37.990  55.128
13748DC     BB389342  47.788  38.182  55.052
13748DC     SC189343  48.022  38.155  54.937
13748DC     SC289344  48.165  38.280  55.037
13748DC     SC389345  48.206  38.139  54.748
13749DA     BB189346  47.554  38.143  55.397
13749DA     BB289347  47.763  38.442  55.432
13749DA     BB389348  47.696  38.595  55.301
13749DA     SC189349  47.880  38.509  55.066
13749DA     SC289350  48.081  38.596  54.947
13749DA     SC389351  48.012  38.439  54.756
13749DA     SC489352  47.820  38.406  54.958
13750DT     BB189353  47.632  38.742  55.394
13750DT     BB289354  47.905  38.967  55.322
13750DT     BB389355  47.853  39.095  55.168
13750DT     SC189356  47.881  38.904  54.990
13750DT     SC289357  48.053  38.945  54.867
13750DT     SC389358  47.821  38.729  54.802
13751DT     BB189359  47.841  39.291  55.350
13751DT     BB289360  48.071  39.413  55.101
13751DT     BB389361  47.967  39.503  54.947
13751DT     SC189362  47.891  39.271  54.852
13751DT     SC289363  47.991  39.234  54.665
13751DT     SC389364  47.734  39.072  54.778
13752DG     BB189365  48.231  39.775  55.099
13752DG     BB289366  48.259  39.749  54.739
13752DG     BB389367  48.107  39.843  54.652
13752DG     SC189368  47.924  39.598  54.649
13752DG     SC289369  47.831  39.452  54.405
13752DG     SC389370  47.690  39.355  54.647
13752DG     SC489371  47.830  39.569  54.775
13753DG     BB189372  48.322  40.036  54.491
13753DG     BB289373  48.185  39.896  54.187
13753DG     BB389374  48.017  39.991  54.137
13753DG     SC189375  47.835  39.804  54.297
13753DG     SC289376  47.633  39.616  54.183
13753DG     SC389377  47.608  39.631  54.477
13753DG     SC489378  47.806  39.837  54.451
13754DC     BB189379  47.995  40.112  53.947
13754DC     BB289380  47.786  39.894  53.749
13754DC     BB389381  47.592  39.966  53.745
13754DC     SC189382  47.549  39.887  53.991
13754DC     SC289383  47.409  39.723  53.990
13754DC     SC389384  47.496  39.896  54.249
13755DC     BB189385  47.619  40.046  53.485
13755DC     BB289386  47.334  39.825  53.482
13755DC     BB389387  47.162  39.932  53.525
13755DC     SC189388  47.226  39.947  53.779
13755DC     SC289389  47.091  39.826  53.894
13755DC     SC389390  47.291  40.051  54.013
13756DA     BB189391  47.084  39.724  53.169
13756DA     BB289392  46.803  39.664  53.397
13756DA     BB389393  46.681  39.838  53.412
13756DA     SC189394  46.837  39.957  53.654
13756DA     SC289395  46.797  39.997  53.896
13756DA     SC389396  46.990  40.166  53.879
13756DA     SC489397  46.957  40.058  53.622
13757DA     BB189398  46.444  39.625  53.328
13757DA     BB289399  46.287  39.703  53.650
13757DA     BB389400  46.192  39.894  53.642
13757DA     SC189401  46.442  40.050  53.740
13757DA     SC289402  46.513  40.176  53.943
13757DA     SC389403  46.687  40.285  53.790
13757DA     SC489404  46.542  40.108  53.628
13758DT     BB189405  45.986  39.907  53.655
13758DT     BB289406  45.973  40.034  53.992
13758DT     BB389407  45.925  40.235  53.990
13758DT     SC189408  46.166  40.300  53.909
13758DT     SC289409  46.270  40.402  54.068
13758DT     SC389410  46.360  40.393  53.756
13759DT     BB189411  45.670  40.188  54.084
13759DT     BB289412  45.813  40.416  54.324
13759DT     BB389413  45.780  40.612  54.265
13759DT     SC189414  45.964  40.594  54.079
13759DT     SC289415  46.132  40.717  54.133
13759DT     SC389416  46.077  40.590  53.840
13760DC     BB189417  45.591  40.650  54.460
13760DC     BB289418  45.839  40.905  54.522
13760DC     BB389419  45.795  41.075  54.411
13760DC     SC189420  45.877  40.960  54.189
13760DC     SC289421  46.059  41.054  54.124
13760DC     SC389422  45.872  40.858  53.946
13761DT     BB189423  45.717  41.212  54.636
13761DT     BB289424  45.983  41.411  54.496
13761DT     BB389425  45.905  41.545  54.358
13761DT     SC189426  45.871  41.355  54.181
13761DT     SC289427  46.010  41.382  54.019
13761DT     SC389428  45.750  41.189  54.016
13762DC     BB189429  45.958  41.741  54.533
13762DC     BB289430  46.143  41.830  54.236
13762DC     BB389431  46.021  41.933  54.105
13762DC     SC189432  45.895  41.713  54.037
13762DC     SC289433  45.946  41.661  53.834
13762DC     SC389434  45.701  41.537  54.006
13763DG     BB189435  46.348  42.160  54.190
13763DG     BB289436  46.301  42.121  53.833
13763DG     BB389437  46.153  42.239  53.771
13763DG     SC189438  45.935  42.030  53.816
13763DG     SC289439  45.773  41.898  53.602
13763DG     SC389440  45.667  41.832  53.871
13763DG     SC489441  45.864  42.021  53.959
13764DA     BB189442  46.381  42.350  53.535
13764DA     BB289443  46.154  42.243  53.267
13764DA     BB389444  45.990  42.378  53.250
13764DA     SC189445  45.809  42.223  53.450
13764DA     SC289446  45.602  42.085  53.442
13764DA     SC389447  45.583  42.135  53.693
13764DA     SC489448  45.815  42.266  53.605
13765DT     BB189449  45.972  42.493  53.082
13765DT     BB289450  45.695  42.313  52.937
13765DT     BB389451  45.520  42.422  52.959
13765DT     SC189452  45.506  42.363  53.214
13765DT     SC289453  45.340  42.230  53.248
13765DT     SC389454  45.502  42.393  53.476
13766DA     BB189455  45.541  42.335  52.548
13766DA     BB289456  45.206  42.242  52.664
13766DA     BB389457  45.087  42.417  52.694
13766DA     SC189458  45.167  42.450  52.992
13766DA     SC289459  45.060  42.428  53.216
13766DA     SC389460  45.251  42.576  53.301
13766DA     SC489461  45.293  42.545  53.025
13767DT     BB189462  44.918  42.458  52.572
13767DT     BB289463  44.671  42.365  52.817
13767DT     BB389464  44.575  42.534  52.889
13767DT     SC189465  44.784  42.600  53.033
13767DT     SC289466  44.738  42.575  53.242
13767DT     SC389467  44.992  42.738  53.122
13768DG     BB189468  44.295  42.284  52.734
13768DG     BB289469  44.222  42.371  53.078
13768DG     BB389470  44.144  42.554  53.086
13768DG     SC189471  44.414  42.695  53.115
13768DG     SC289472  44.509  42.844  53.356
13768DG     SC389473  44.693  42.884  53.127
13768DG     SC489474  44.493  42.738  52.983
13769DT     BB189475  43.962  42.555  53.167
13769DT     BB289476  44.029  42.691  53.494
13769DT     BB389477  43.986  42.894  53.496
13769DT     SC189478  44.202  42.950  53.360
13769DT     SC289479  44.342  43.054  53.486
13769DT     SC389480  44.356  43.035  53.163
13770DG     BB189481  43.828  42.654  53.789
13770DG     BB289482  44.002  42.941  53.922
13770DG     BB389483  43.900  43.107  53.881
13770DG     SC189484  44.039  43.157  53.613
13770DG     SC289485  44.222  43.384  53.549
13770DG     SC389486  44.156  43.230  53.305
13770DG     SC489487  43.978  43.090  53.481
13771DA     BB189488  44.004  43.117  54.214
13771DA     BB289489  44.148  43.447  54.143
13771DA     BB389490  43.994  43.584  54.086
13771DA     SC189491  44.017  43.522  53.782
13771DA     SC289492  44.096  43.638  53.576
13771DA     SC389493  43.953  43.466  53.450
13771DA     SC489494  43.921  43.408  53.722
13772DT     BB189495  44.001  43.698  54.208
13772DT     BB289496  44.120  43.976  54.011
13772DT     BB389497  43.960  44.079  53.929
13772DT     SC189498  43.919  43.890  53.752
13772DT     SC289499  43.971  43.963  53.556
13772DT     SC389500  43.800  43.694  53.620
13773DC     BB189501  44.009  44.276  54.103
13773DC     BB289502  44.000  44.439  53.781
13773DC     BB389503  43.805  44.482  53.729
13773DC     SC189504  43.757  44.230  53.672
13773DC     SC289505  43.731  44.209  53.460
13773DC     SC389506  43.650  43.989  53.684
13774DT     BB189507  43.828  44.755  53.780
13774DT     BB289508  43.703  44.743  53.442
13774DT     BB389509  43.496  44.740  53.443
13774DT     SC189510  43.492  44.489  53.520
13774DT     SC289511  43.420  44.366  53.359
13774DT     SC389512  43.449  44.275  53.668
13775DT     BB189513  43.465  45.006  53.360
13775DT     BB289514  43.275  44.819  53.118
13775DT     BB389515  43.079  44.800  53.182
13775DT     SC189516  43.147  44.619  53.360
13775DT     SC289517  43.069  44.428  53.301
13775DT     SC389518  43.185  44.503  53.594
13776DT     BB189519  42.979  44.984  52.998
13776DT     BB289520  42.788  44.685  52.933
13776DT     BB389521  42.618  44.682  53.051
13776DT     SC189522  42.757  44.622  53.265
13776DT     SC289523  42.712  44.420  53.325
13776DT     SC389524  42.866  44.642  53.505
13777DA     BB189525  42.486  44.621  52.657
13777DA     BB289526  42.330  44.365  52.868
13777DA     BB389527  42.175  44.451  52.987
13777DA     SC189528  42.361  44.517  53.227
13777DA     SC289529  42.396  44.439  53.461
13777DA     SC389530  42.513  44.664  53.497
13777DA     SC489531  42.429  44.663  53.230
13778DC     BB189532  41.979  44.397  52.953
13778DC     BB289533  41.937  44.193  53.247
13778DC     BB389534  41.823  44.293  53.387
13778DC     SC189535  42.023  44.451  53.449
13778DC     SC289536  42.092  44.404  53.648
13778DC     SC389537  42.166  44.671  53.479
13779DT     BB189538  41.597  44.136  53.344
13779DT     BB289539  41.655  44.106  53.699
13779DT     BB389540  41.556  44.257  53.800
13779DT     SC189541  41.732  44.436  53.723
13779DT     SC289542  41.847  44.500  53.892
13779DT     SC389543  41.834  44.648  53.605
13780DA     BB189544  41.403  43.915  53.995
13780DA     BB289545  41.511  44.148  54.257
13780DA     BB389546  41.367  44.303  54.281
13780DA     SC189547  41.501  44.493  54.074
13780DA     SC289548  41.626  44.709  54.076
13780DA     SC389549  41.562  44.724  53.828
13780DA     SC489550  41.449  44.485  53.922
13781DT     BB189551  41.221  44.343  54.468
13781DT     BB289552  41.407  44.623  54.599
13781DT     BB389553  41.296  44.797  54.581
13781DT     SC189554  41.341  44.808  54.323
13781DT     SC289555  41.471  44.974  54.280
13781DT     SC389556  41.296  44.808  54.063
13782DT     BB189557  41.233  44.820  54.855
13782DT     BB289558  41.405  45.128  54.778
13782DT     BB389559  41.269  45.273  54.721
13782DT     SC189560  41.235  45.160  54.486
13782DT     SC289561  41.321  45.285  54.334
13782DT     SC389562  41.118  45.037  54.285
13783DT     BB189563  41.307  45.406  54.956
13783DT     BB289564  41.395  45.644  54.700
13783DT     BB389565  41.227  45.748  54.639
13783DT     SC189566  41.139  45.541  54.504
13783DT     SC289567  41.150  45.584  54.293
13783DT     SC389568  40.984  45.341  54.429
13784DC     BB189569  41.332  45.960  54.763
13784DC     BB289570  41.287  46.063  54.420
13784DC     BB389571  41.093  46.129  54.391
13784DC     SC189572  41.001  45.884  54.394
13784DC     SC289573  40.934  45.830  54.197
13784DC     SC389574  40.866  45.670  54.470
13785DT     BB189575  41.192  46.377  54.371
13785DT     BB289576  41.014  46.325  54.062
13785DT     BB389577  40.813  46.369  54.089
13785DT     SC189578  40.774  46.146  54.222
13785DT     SC289579  40.653  46.012  54.103
13785DT     SC389580  40.715  45.982  54.420
13786DA     BB189581  40.938  46.590  53.754
13786DA     BB289582  40.628  46.417  53.664
13786DA     BB389583  40.461  46.510  53.758
13786DA     SC189584  40.473  46.330  54.012
13786DA     SC289585  40.338  46.148  54.116
13786DA     SC389586  40.461  46.208  54.333
13786DA     SC489587  40.559  46.383  54.137
13787DA     BB189588  40.336  46.537  53.452
13787DA     BB289589  40.060  46.323  53.564
13787DA     BB389590  39.919  46.436  53.678
13787DA     SC189591  40.058  46.379  53.950
13787DA     SC289592  40.011  46.248  54.157
13787DA     SC389593  40.184  46.401  54.269
13787DA     SC489594  40.167  46.485  54.002
13788DA     BB189595  39.693  46.329  53.462
13788DA     BB289596  39.533  46.155  53.741
13788DA     BB389597  39.414  46.290  53.855
13788DA     SC189598  39.644  46.366  54.050
13788DA     SC289599  39.703  46.330  54.290
13788DA     SC389600  39.859  46.532  54.261
13788DA     SC489601  39.734  46.494  54.013
13789DT     BB189602  39.209  46.266  53.860
13789DT     BB289603  39.201  46.117  54.189
13789DT     BB389604  39.121  46.251  54.325
13789DT     SC189605  39.342  46.393  54.326
13789DT     SC289606  39.440  46.372  54.517
13789DT     SC389607  39.505  46.598  54.294
13790DT     BB189608  38.933  46.073  54.324
13790DT     BB289609  39.062  46.081  54.660
13790DT     BB389610  38.980  46.240  54.764
13790DT     SC189611  39.131  46.412  54.636
13790DT     SC289612  39.276  46.495  54.771
13790DT     SC389613  39.200  46.612  54.479
13791DC     BB189614  38.921  46.016  54.865
13791DC     BB289615  39.100  46.202  55.116
13791DC     BB389616  38.984  46.360  55.184
13791DC     SC189617  39.027  46.496  54.964
13791DC     SC289618  39.152  46.666  55.008
13791DC     SC389619  38.980  46.621  54.736
13792DC     BB189620  39.052  46.189  55.359
13792DC     BB289621  39.163  46.512  55.474
13792DC     BB389622  39.000  46.633  55.513
13792DC     SC189623  38.956  46.670  55.257
13792DC     SC289624  39.002  46.874  55.205
13792DC     SC389625  38.836  46.664  55.022
13793DA     BB189626  39.299  46.639  55.815
13793DA     BB289627  39.180  46.981  55.756
13793DA     BB389628  38.976  46.999  55.814
13793DA     SC189629  38.864  46.925  55.534
13793DA     SC289630  38.745  47.038  55.346
13793DA     SC389631  38.675  46.802  55.274
13793DA     SC489632  38.830  46.770  55.506
13794DT     BB189633  38.936  47.113  55.970
13794DT     BB289634  38.767  47.381  55.798
13794DT     BB389635  38.562  47.361  55.820
13794DT     SC189636  38.556  47.163  55.647
13794DT     SC289637  38.456  47.228  55.468
13794DT     SC389638  38.521  46.921  55.549
13795DA     BB189639  38.616  47.754  55.966
13795DA     BB289640  38.332  47.766  55.735
13795DA     BB389641  38.157  47.685  55.828
13795DA     SC189642  38.209  47.395  55.730
13795DA     SC289643  38.109  47.234  55.568
13795DA     SC389644  38.231  47.053  55.703
13795DA     SC489645  38.292  47.297  55.827
13796DA     BB189646  37.983  47.971  55.774
13796DA     BB289647  37.751  47.779  55.564
13796DA     BB389648  37.604  47.682  55.684
13796DA     SC189649  37.770  47.421  55.719
13796DA     SC289650  37.759  47.184  55.643
13796DA     SC389651  37.915  47.135  55.841
13796DA     SC489652  37.866  47.411  55.848
13797DA     BB189653  37.370  47.835  55.503
13797DA     BB289654  37.258  47.503  55.393
13797DA     BB389655  37.132  47.415  55.540
13797DA     SC189656  37.365  47.273  55.690
13797DA     SC289657  37.447  47.040  55.726
13797DA     SC389658  37.571  47.137  55.928
13797DA     SC489659  37.433  47.352  55.812
13798DA     BB189660  36.927  47.389  55.286
13798DA     BB289661  36.948  47.025  55.330
13798DA     BB389662  36.826  46.963  55.494
13798DA     SC189663  37.054  46.990  55.704
13798DA     SC289664  37.194  46.838  55.845
13798DA     SC389665  37.237  47.046  55.989
13798DA     SC489666  37.068  47.130  55.782
13799DT     BB189667  36.677  46.850  55.446
13799DT     BB289668  36.815  46.541  55.570
13799DT     BB389669  36.727  46.491  55.751
13799DT     SC189670  36.865  46.676  55.877
13799DT     SC289671  37.010  46.581  56.005
13799DT     SC389672  36.920  46.892  56.016
13800DT     BB189673  36.609  46.296  55.616
13800DT     BB289674  36.787  46.131  55.883
13800DT     BB389675  36.674  46.134  56.057
13800DT     SC189676  36.725  46.388  56.095
13800DT     SC289677  36.854  46.410  56.266
13800DT     SC389678  36.688  46.648  56.122
13801DT     BB189679  36.637  45.871  56.022
13801DT     BB289680  36.774  45.901  56.354
13801DT     BB389681  36.624  45.941  56.490
13801DT     SC189682  36.605  46.190  56.408
13801DT     SC289683  36.678  46.321  56.562
13801DT     SC389684  36.504  46.409  56.303
13802DT     BB189685  36.645  45.689  56.587
13802DT     BB289686  36.686  45.900  56.877
13802DT     BB389687  36.500  45.948  56.956
13802DT     SC189688  36.453  46.118  56.762
13802DT     SC289689  36.456  46.318  56.840
13802DT     SC389690  36.339  46.229  56.551
13803DA     BB189691  36.718  45.792  57.280
13803DA     BB289692  36.560  46.103  57.393
13803DA     BB389693  36.351  46.074  57.423
13803DA     SC189694  36.273  46.154  57.133
13803DA     SC289695  36.156  46.342  57.018
13803DA     SC389696  36.124  46.177  56.824
13803DA     SC489697  36.262  46.036  57.024
13804DA     BB189698  36.401  46.190  57.731
13804DA     BB289699  36.167  46.461  57.653
13804DA     BB389700  35.965  46.391  57.664
13804DA     SC189701  35.951  46.308  57.365
13804DA     SC289702  35.836  46.385  57.157
13804DA     SC389703  35.885  46.149  57.068
13804DA     SC489704  35.990  46.157  57.327
13805DT     BB189705  35.814  46.453  57.820
13805DT     BB289706  35.614  46.662  57.606
13805DT     BB389707  35.431  46.573  57.570
13805DT     SC189708  35.539  46.400  57.404
13805DT     SC289709  35.474  46.443  57.204
13805DT     SC389710  35.618  46.170  57.303
13806DA     BB189711  35.307  46.946  57.722
13806DA     BB289712  35.119  46.890  57.413
13806DA     BB389713  34.958  46.754  57.447
13806DA     SC189714  35.126  46.501  57.377
13806DA     SC289715  35.136  46.331  57.195
13806DA     SC389716  35.261  46.186  57.365
13806DA     SC489717  35.201  46.426  57.497
13807DT     BB189718  34.724  46.799  57.445
13807DT     BB289719  34.661  46.645  57.124
13807DT     BB389720  34.546  46.475  57.149
13807DT     SC189721  34.750  46.340  57.243
13807DT     SC289722  34.808  46.190  57.101
13807DT     SC389723  34.900  46.204  57.411
13808DT     BB189724  34.290  46.578  57.052
13808DT     BB289725  34.355  46.295  56.838
13808DT     BB389726  34.262  46.126  56.913
13808DT     SC189727  34.440  46.102  57.104
13808DT     SC289728  34.562  45.928  57.067
13808DT     SC389729  34.545  46.093  57.346
13809DT     BB189730  34.060  46.118  56.715
13809DT     BB289731  34.233  45.804  56.681
13809DT     BB389732  34.141  45.659  56.797
13809DT     SC189733  34.241  45.761  57.017
13809DT     SC289734  34.389  45.627  57.097
13809DT     SC389735  34.254  45.877  57.254
13810DT     BB189736  34.058  45.545  56.569
13810DT     BB289737  34.267  45.299  56.729
13810DT     BB389738  34.155  45.187  56.862
13810DT     SC189739  34.148  45.384  57.035
13810DT     SC289740  34.267  45.333  57.206
13810DT     SC389741  34.052  45.575  57.189
13811DG     BB189742  34.372  44.985  56.584
13811DG     BB289743  34.450  44.883  56.922
13811DG     BB389744  34.300  44.775  56.996
13811DG     SC189745  34.150  45.015  57.111
13811DG     SC289746  34.107  45.073  57.401
13811DG     SC389747  33.949  45.258  57.232
13811DG     SC489748  34.045  45.093  57.019
13812DA     BB189749  34.607  44.631  57.064
13812DA     BB289750  34.510  44.633  57.418
13812DA     BB389751  34.340  44.509  57.449
13812DA     SC189752  34.134  44.739  57.404
13812DA     SC289753  33.972  44.871  57.540
13812DA     SC389754  33.859  44.925  57.316
13812DA     SC489755  34.078  44.759  57.255
13813DT     BB189756  34.406  44.400  57.551
13813DT     BB289757  34.222  44.494  57.847
13813DT     BB389758  34.043  44.391  57.854
13813DT     SC189759  33.939  44.543  57.667
13813DT     SC289760  33.786  44.667  57.752
13813DT     SC389761  33.834  44.615  57.436
13814DT     BB189762  34.152  44.256  58.054
13814DT     BB289763  33.840  44.380  58.186
13814DT     BB389764  33.685  44.254  58.130
13814DT     SC189765  33.689  44.347  57.884
13814DT     SC289766  33.511  44.462  57.848
13814DT     SC389767  33.716  44.354  57.622
13815DT     BB189768  33.657  44.138  58.383
13815DT     BB289769  33.323  44.251  58.305
13815DT     BB389770  33.220  44.102  58.206
13815DT     SC189771  33.353  44.146  57.984
13815DT     SC289772  33.222  44.233  57.838
13815DT     SC389773  33.514  44.106  57.779
13816DA     BB189774  32.958  44.175  58.529
13816DA     BB289775  32.754  44.177  58.224
13816DA     BB389776  32.716  43.978  58.159
13816DA     SC189777  32.967  43.964  57.976
13816DA     SC289778  33.017  43.957  57.731
13816DA     SC389779  33.245  43.863  57.802
13816DA     SC489780  33.103  43.906  58.039
13817DT     BB189781  32.513  43.872  58.160
13817DT     BB289782  32.456  43.896  57.805
13817DT     BB389783  32.465  43.708  57.719
13817DT     SC189784  32.726  43.702  57.739
13817DT     SC289785  32.814  43.716  57.543
13817DT     SC389786  32.967  43.627  57.814
13818DA     BB189787  32.102  43.875  57.597
13818DA     BB289788  32.274  43.754  57.297
13818DA     BB389789  32.261  43.541  57.285
13818DA     SC189790  32.525  43.492  57.442
13818DA     SC289791  32.755  43.408  57.395
13818DA     SC389792  32.770  43.366  57.647
13818DA     SC489793  32.514  43.472  57.601
13819DT     BB189794  32.163  43.481  57.135
13819DT     BB289795  32.445  43.370  56.940
13819DT     BB389796  32.461  43.164  56.950
13819DT     SC189797  32.556  43.176  57.194
13819DT     SC289798  32.764  43.119  57.194
13819DT     SC389799  32.574  43.143  57.455
13820DA     BB189800  32.485  43.312  56.558
13820DA     BB289801  32.759  43.074  56.610
13820DA     BB389802  32.683  42.875  56.628
13820DA     SC189803  32.652  42.889  56.937
13820DA     SC289804  32.759  42.788  57.138
13820DA     SC389805  32.543  42.853  57.261
13820DA     SC489806  32.509  42.937  56.996
13821DT     BB189807  32.741  42.773  56.490
13821DT     BB289808  32.969  42.562  56.675
13821DT     BB389809  32.876  42.383  56.723
13821DT     SC189810  32.733  42.499  56.910
13821DT     SC289811  32.800  42.432  57.103
13821DT     SC389812  32.523  42.589  57.042
13822DA     BB189813  33.245  42.292  56.543
13822DA     BB289814  33.210  42.083  56.842
13822DA     BB389815  33.062  41.932  56.810
13822DA     SC189816  32.828  42.105  56.918
13822DA     SC289817  32.677  42.108  57.117
13822DA     SC389818  32.522  42.253  56.972
13822DA     SC489819  32.745  42.193  56.812
13823DC     BB189820  33.116  41.733  56.799
13823DC     BB289821  32.979  41.628  57.115
13823DC     BB389822  32.805  41.520  57.084
13823DC     SC189823  32.671  41.739  57.028
13823DC     SC289824  32.530  41.779  57.186
13823DC     SC389825  32.530  41.916  56.892
13824DG     BB189826  33.044  41.253  57.281
13824DG     BB289827  32.720  41.274  57.440
13824DG     BB389828  32.588  41.163  57.340
13824DG     SC189829  32.503  41.390  57.152
13824DG     SC289830  32.235  41.520  57.145
13824DG     SC389831  32.401  41.609  56.917
13824DG     SC489832  32.584  41.412  57.016
13825DA     BB189833  32.497  40.992  57.633
13825DA     BB289834  32.149  41.101  57.597
13825DA     BB389835  32.048  40.982  57.452
13825DA     SC189836  32.119  41.169  57.213
13825DA     SC289837  32.001  41.326  57.060
13825DA     SC389838  32.203  41.296  56.906
13825DA     SC489839  32.253  41.136  57.131
13826DA     BB189840  31.819  40.915  57.686
13826DA     BB289841  31.568  41.071  57.469
13826DA     BB389842  31.509  40.936  57.316
13826DA     SC189843  31.725  41.031  57.114
13826DA     SC289844  31.734  41.157  56.898
13826DA     SC389845  31.964  41.048  56.868
13826DA     SC489846  31.865  40.953  57.112
13827DA     BB189847  31.186  40.967  57.411
13827DA     BB289848  31.111  41.102  57.079
13827DA     BB389849  31.087  40.944  56.938
13827DA     SC189850  31.386  40.939  56.855
13827DA     SC289851  31.524  40.998  56.655
13827DA     SC389852  31.702  40.845  56.758
13827DA     SC489853  31.484  40.839  56.934
13828DA     BB189854  30.770  41.040  56.848
13828DA     BB289855  30.893  41.101  56.508
13828DA     BB389856  30.891  40.920  56.395
13828DA     SC189857  31.181  40.839  56.473
13828DA     SC289858  31.403  40.819  56.362
13828DA     SC389859  31.465  40.665  56.558
13828DA     SC489860  31.199  40.744  56.602
13829DA     BB189861  30.685  41.038  56.143
13829DA     BB289862  30.965  41.000  55.909
13829DA     BB389863  30.968  40.803  55.828
13829DA     SC189864  31.153  40.687  56.049
13829DA     SC289865  31.387  40.604  56.070
13829DA     SC389866  31.305  40.486  56.282
13829DA     SC489867  31.082  40.621  56.178
13830DA     BB189868  30.948  40.912  55.505
13830DA     BB289869  31.288  40.785  55.455
13830DA     BB389870  31.284  40.581  55.396
13830DA     SC189871  31.297  40.470  55.687
13830DA     SC289872  31.461  40.349  55.830
13830DA     SC389873  31.258  40.285  55.973
13830DA     SC489874  31.158  40.440  55.761
13831DT     BB189875  31.352  40.501  55.189
13831DT     BB289876  31.673  40.392  55.314
13831DT     BB389877  31.687  40.186  55.303
13831DT     SC189878  31.526  40.155  55.508
13831DT     SC289879  31.638  40.080  55.676
13831DT     SC389880  31.315  40.085  55.650
13832DA     BB189881  32.013  40.391  55.145
13832DA     BB289882  32.134  40.151  55.395
13832DA     BB389883  32.119  39.952  55.320
13832DA     SC189884  31.833  39.906  55.433
13832DA     SC289885  31.724  39.769  55.611
13832DA     SC389886  31.507  39.807  55.480
13832DA     SC489887  31.709  39.939  55.336
13833DT     BB189888  32.277  39.918  55.329
13833DT     BB289889  32.256  39.698  55.614
13833DT     BB389890  32.224  39.503  55.551
13833DT     SC189891  31.973  39.555  55.494
13833DT     SC289892  31.846  39.452  55.634
13833DT     SC389893  31.752  39.586  55.354
13834DT     BB189894  32.455  39.505  55.660
13834DT     BB289895  32.262  39.258  55.837
13834DT     BB389896  32.242  39.087  55.722
13834DT     SC189897  32.066  39.203  55.565
13834DT     SC289898  31.873  39.115  55.597
13834DT     SC389899  31.956  39.305  55.349
13835DT     BB189900  32.395  38.998  55.911
13835DT     BB289901  32.112  38.775  55.902
13835DT     BB389902  32.133  38.641  55.746
13835DT     SC189903  32.072  38.825  55.569
13835DT     SC289904  31.880  38.781  55.483
13835DT     SC389905  32.097  38.992  55.366
13836DC     BB189906  32.181  38.452  55.930
13836DC     BB289907  31.915  38.314  55.729
13836DC     BB389908  31.994  38.222  55.561
13836DC     SC189909  32.044  38.454  55.448
13836DC     SC289910  31.912  38.481  55.280
13836DC     SC389911  32.178  38.654  55.342
13837DA     BB189912  31.760  37.914  55.728
13837DA     BB289913  31.687  37.919  55.369
13837DA     BB389914  31.847  37.830  55.259
13837DA     SC189915  32.001  38.098  55.220
13837DA     SC289916  32.056  38.253  55.033
13837DA     SC389917  32.244  38.338  55.186
13837DA     SC489918  32.113  38.136  55.329
13838DT     BB189919  31.851  37.621  55.141
13838DT     BB289920  31.849  37.759  54.808
13838DT     BB389921  32.029  37.721  54.714
13838DT     SC189922  32.150  37.905  54.857
13838DT     SC289923  32.203  38.071  54.730
13838DT     SC389924  32.316  38.017  55.028
13839DT     BB189925  31.957  37.497  54.531
13839DT     BB289926  32.101  37.741  54.307
13839DT     BB389927  32.301  37.697  54.274
13839DT     SC189928  32.367  37.786  54.512
13839DT     SC289929  32.479  37.969  54.492
13839DT     SC389930  32.457  37.788  54.760
13840DA     BB189931  32.158  37.704  53.878
13840DA     BB289932  32.452  37.922  53.887
13840DA     BB389933  32.631  37.806  53.881
13840DA     SC189934  32.655  37.780  54.190
13840DA     SC289935  32.804  37.865  54.371
13840DA     SC389936  32.713  37.669  54.510
13840DA     SC489937  32.588  37.652  54.259
13841DA     BB189938  32.714  37.988  53.618
13841DA     BB289939  32.998  38.114  53.812
13841DA     BB389940  33.160  37.975  53.807
13841DA     SC189941  33.069  37.822  54.062
13841DA     SC289942  33.147  37.792  54.297
13841DA     SC389943  33.000  37.581  54.297
13841DA     SC489944  32.973  37.694  54.042
13842DG     BB189945  33.298  38.219  53.682
13842DG     BB289946  33.494  38.202  53.986
13842DG     BB389947  33.636  38.064  53.967
13842DG     SC189948  33.463  37.836  54.074
13842DG     SC289949  33.506  37.689  54.331
13842DG     SC389950  33.295  37.558  54.168
13842DG     SC489951  33.372  37.752  53.972
13843DA     BB189952  33.829  38.325  54.077
13843DA     BB289953  33.931  38.122  54.365
13843DA     BB389954  34.067  37.969  54.304
13843DA     SC189955  33.844  37.759  54.250
13843DA     SC289956  33.763  37.546  54.351
13843DA     SC389957  33.654  37.503  54.123
13843DA     SC489958  33.785  37.750  54.101
13844DT     BB189959  34.238  37.990  54.378
13844DT     BB289960  34.219  37.719  54.615
13844DT     BB389961  34.320  37.554  54.541
13844DT     SC189962  34.126  37.502  54.372
13844DT     SC289963  34.025  37.322  54.432
13844DT     SC389964  33.998  37.467  54.144
13845DA     BB189965  34.455  37.632  54.931
13845DA     BB289966  34.379  37.274  54.906
13845DA     BB389967  34.525  37.175  54.786
13845DA     SC189968  34.368  37.215  54.520
13845DA     SC289969  34.244  37.073  54.356
13845DA     SC389970  34.280  37.268  54.193
13845DA     SC489971  34.402  37.345  54.433
13846DA     BB189972  34.547  36.983  55.053
13846DA     BB289973  34.446  36.704  54.838
13846DA     BB389974  34.609  36.642  54.715
13846DA     SC189975  34.535  36.833  54.480
13846DA     SC289976  34.447  36.814  54.248
13846DA     SC389977  34.544  37.049  54.214
13846DA     SC489978  34.604  36.978  54.478
13847DC     BB189979  34.693  36.456  54.742
13847DC     BB289980  34.552  36.301  54.449
13847DC     BB389981  34.698  36.277  54.304
13847DC     SC189982  34.694  36.533  54.247
13847DC     SC289983  34.609  36.561  54.052
13847DC     SC389984  34.775  36.783  54.220
13848DT     BB189985  34.696  36.010  54.349
13848DT     BB289986  34.620  36.044  53.998
13848DT     BB389987  34.795  36.054  53.889
13848DT     SC189988  34.840  36.301  53.967
13848DT     SC289989  34.814  36.434  53.800
13848DT     SC389990  34.956  36.508  54.083
13849DA     BB189991  34.539  35.768  53.724
13849DA     BB289992  34.656  35.986  53.454
13849DA     BB389993  34.861  35.947  53.411
13849DA     SC189994  34.968  36.159  53.612
13849DA     SC289995  35.083  36.380  53.603
13849DA     SC389996  35.152  36.332  53.846
13849DA     SC489997  35.002  36.110  53.761
13850DC     BB189998  34.878  35.883  53.243
13850DC     BB289999  35.024  36.177  53.094
13850DC     BB390000  35.230  36.157  53.084
13850DC     SC190001  35.254  36.199  53.342
13850DC     SC290002  35.349  36.389  53.375
13850DC     SC390003  35.310  36.156  53.596
13851DT     BB190004  35.186  36.139  52.826
13851DT     BB290005  35.423  36.409  52.864
13851DT     BB390006  35.614  36.334  52.884
13851DT     SC190007  35.567  36.258  53.131
13851DT     SC290008  35.680  36.380  53.266
13851DT     SC390009  35.534  36.101  53.340
13852DT     BB190010  35.664  36.424  52.637
13852DT     BB290011  35.923  36.569  52.842
13852DT     BB390012  36.080  36.435  52.864
13852DT     SC190013  35.941  36.290  53.033
13852DT     SC290014  36.027  36.308  53.229
13852DT     SC390015  35.813  36.084  53.135
13853DT     BB190016  36.240  36.580  52.694
13853DT     BB290017  36.437  36.550  52.995
13853DT     BB390018  36.548  36.375  52.989
13853DT     SC190019  36.335  36.229  53.039
13853DT     SC290020  36.351  36.146  53.237
13853DT     SC390021  36.143  36.052  53.007
13854DT     BB190022  36.784  36.510  52.942
13854DT     BB290023  36.854  36.314  53.237
13854DT     BB390024  36.925  36.127  53.183
13854DT     SC190025  36.685  36.048  53.110
13854DT     SC290026  36.614  35.899  53.249
13854DT     SC390027  36.487  35.964  52.958
13855DA     BB190028  37.206  36.279  53.454
13855DA     BB290029  37.126  35.937  53.558
13855DA     BB390030  37.219  35.796  53.428
13855DA     SC190031  36.976  35.780  53.233
13855DA     SC290032  36.801  35.615  53.170
13855DA     SC390033  36.775  35.755  52.957
13855DA     SC490034  36.976  35.880  53.107
13856DT     BB190035  37.371  35.672  53.497
13856DT     BB290036  37.180  35.366  53.508
13856DT     BB390037  37.237  35.242  53.351
13856DT     SC190038  37.108  35.390  53.177
13856DT     SC290039  36.937  35.281  53.104
13856DT     SC390040  37.062  35.549  52.972
13857DA     BB190041  37.273  35.002  53.695
13857DA     BB290042  37.089  34.808  53.444
13857DA     BB390043  37.222  34.737  53.293
13857DA     SC190044  37.184  34.986  53.110
13857DA     SC290045  37.078  35.039  52.890
13857DA     SC390046  37.230  35.245  52.890
13857DA     SC490047  37.287  35.107  53.127
13858DA     BB190048  37.113  34.427  53.359
13858DA     BB290049  36.995  34.407  53.012
13858DA     BB390050  37.158  34.363  52.881
13858DA     SC190051  37.227  34.662  52.827
13858DA     SC290052  37.212  34.823  52.638
13858DA     SC390053  37.388  34.959  52.767
13858DA     SC490054  37.337  34.731  52.922
13859DA     BB190055  36.999  34.088  52.762
13859DA     BB290056  36.997  34.244  52.430
13859DA     BB390057  37.184  34.212  52.333
13859DA     SC190058  37.313  34.473  52.441
13859DA     SC290059  37.387  34.694  52.352
13859DA     SC390060  37.530  34.709  52.564
13859DA     SC490061  37.396  34.464  52.579
13860DC     BB190062  37.242  34.071  52.133
13860DC     BB290063  37.272  34.347  51.903
13860DC     BB390064  37.468  34.364  51.838
13860DC     SC190065  37.544  34.465  52.068
13860DC     SC290066  37.595  34.672  52.041
13860DC     SC390067  37.668  34.490  52.299
13861DT     BB190068  37.450  34.252  51.561
13861DT     BB290069  37.580  34.585  51.510
13861DT     BB390070  37.786  34.579  51.493
13861DT     SC190071  37.814  34.540  51.752
13861DT     SC290072  37.900  34.716  51.841
13861DT     SC390073  37.876  34.424  51.980
13862DT     BB190074  37.784  34.631  51.219
13862DT     BB290075  37.970  34.905  51.363
13862DT     BB390076  38.171  34.859  51.368
13862DT     SC190077  38.137  34.695  51.570
13862DT     SC290078  38.227  34.778  51.746
13862DT     SC390079  38.131  34.471  51.709
13863DG     BB190080  38.104  35.205  51.167
13863DG     BB290081  38.337  35.250  51.439
13863DG     BB390082  38.516  35.179  51.388
13863DG     SC190083  38.461  34.896  51.492
13863DG     SC290084  38.596  34.765  51.724
13863DG     SC390085  38.427  34.571  51.577
13863DG     SC490086  38.393  34.789  51.394
13864DA     BB190087  38.582  35.488  51.515
13864DA     BB290088  38.801  35.330  51.763
13864DA     BB390089  38.976  35.252  51.668
13864DA     SC190090  38.852  34.972  51.616
13864DA     SC290091  38.882  34.738  51.699
13864DA     SC390092  38.766  34.667  51.482
13864DA     SC490093  38.779  34.947  51.475
13865DC     BB190094  39.099  35.341  51.741
13865DC     BB290095  39.238  35.075  51.940
13865DC     BB390096  39.389  34.979  51.836
13865DC     SC190097  39.215  34.857  51.681
13865DC     SC290098  39.214  34.647  51.727
13865DC     SC390099  39.083  34.785  51.465
13866DA     BB190100  39.504  35.077  52.229
13866DA     BB290101  39.606  34.731  52.159
13866DA     BB390102  39.763  34.728  52.014
13866DA     SC190103  39.571  34.708  51.770
13866DA     SC290104  39.507  34.538  51.599
13866DA     SC390105  39.422  34.738  51.462
13866DA     SC490106  39.525  34.845  51.701
13867DA     BB190107  39.897  34.544  52.253
13867DA     BB290108  39.928  34.278  52.004
13867DA     BB390109  40.081  34.326  51.863
13867DA     SC190110  39.889  34.471  51.666
13867DA     SC290111  39.794  34.432  51.439
13867DA     SC390112  39.749  34.684  51.437
13867DA     SC490113  39.871  34.629  51.683
13868DT     BB190114  40.259  34.216  51.855
13868DT     BB290115  40.197  34.045  51.543
13868DT     BB390116  40.313  34.128  51.393
13868DT     SC190117  40.158  34.339  51.380
13868DT     SC290118  40.049  34.337  51.194
13868DT     SC390119  40.079  34.591  51.393
13869DT     BB190120  40.506  33.919  51.377
13869DT     BB290121  40.389  33.950  51.037
13869DT     BB390122  40.508  34.084  50.933
13869DT     SC190123  40.398  34.288  51.055
13869DT     SC290124  40.278  34.399  50.915
13869DT     SC390125  40.373  34.502  51.207
13870DA     BB190126  40.544  33.746  50.682
13870DA     BB290127  40.459  34.029  50.465
13870DA     BB390128  40.632  34.148  50.428
13870DA     SC190129  40.585  34.336  50.671
13870DA     SC290130  40.519  34.573  50.711
13870DA     SC390131  40.623  34.542  50.944
13870DA     SC490132  40.656  34.297  50.810
13871DG     BB190133  40.624  34.091  50.111
13871DG     BB290134  40.551  34.444  50.088
13871DG     BB390135  40.720  34.547  50.072
13871DG     SC190136  40.757  34.582  50.374
13871DG     SC290137  40.742  34.839  50.524
13871DG     SC390138  40.839  34.621  50.699
13871DG     SC490139  40.836  34.469  50.456
13872DG     BB190140  40.632  34.678  49.779
13872DG     BB290141  40.629  34.998  49.948
13872DG     BB390142  40.811  35.079  49.942
13872DG     SC190143  40.904  34.950  50.204
13872DG     SC290144  40.966  35.094  50.458
13872DG     SC390145  41.045  34.810  50.476
13872DG     SC490146  40.972  34.805  50.199
13873DG     BB190147  40.678  35.336  49.791
13873DG     BB290148  40.772  35.526  50.084
13873DG     BB390149  40.961  35.585  50.069
13873DG     SC190150  41.077  35.335  50.202
13873DG     SC290151  41.216  35.325  50.466
13873DG     SC390152  41.238  35.066  50.326
13873DG     SC490153  41.112  35.207  50.112
13874DG     BB190154  40.837  35.880  50.107
13874DG     BB290155  41.031  35.893  50.412
13874DG     BB390156  41.219  35.940  50.370
13874DG     SC190157  41.310  35.650  50.334
13874DG     SC290158  41.500  35.502  50.510
13874DG     SC390159  41.438  35.345  50.267
13874DG     SC490160  41.297  35.582  50.189
13875DT     BB190161  41.283  36.112  50.457
13875DT     BB290162  41.502  35.989  50.716
13875DT     BB390163  41.699  35.998  50.653
13875DT     SC190164  41.667  35.791  50.495
13875DT     SC290165  41.778  35.624  50.573
13875DT     SC390166  41.653  35.647  50.275
13876DA     BB190167  41.654  36.168  51.035
13876DA     BB290168  41.943  35.943  51.041
13876DA     BB390169  42.104  36.025  50.927
13876DA     SC190170  42.018  35.887  50.662
13876DA     SC290171  42.101  35.706  50.512
13876DA     SC390172  41.953  35.813  50.333
13876DA     SC490173  41.921  35.970  50.563
13877DA     BB190174  42.257  35.965  51.211
13877DA     BB290175  42.486  35.751  51.021
13877DA     BB390176  42.618  35.870  50.902
13877DA     SC190177  42.431  35.872  50.653
13877DA     SC290178  42.429  35.776  50.423
13877DA     SC390179  42.258  35.959  50.370
13877DA     SC490180  42.328  35.994  50.639
13878DT     BB190181  42.818  35.873  50.946
13878DT     BB290182  42.932  35.680  50.664
13878DT     BB390183  43.021  35.804  50.524
13878DT     SC190184  42.787  35.896  50.446
13878DT     SC290185  42.745  35.825  50.248
13878DT     SC390186  42.589  36.064  50.401
13879DT     BB190187  43.281  35.722  50.585
13879DT     BB290188  43.254  35.666  50.229
13879DT     BB390189  43.313  35.836  50.126
13879DT     SC190190  43.089  35.959  50.187
13879DT     SC290191  42.970  35.982  50.009
13879DT     SC390192  42.923  36.136  50.290
13880DA     BB190193  43.557  35.538  49.958
13880DA     BB290194  43.407  35.724  49.680
13880DA     BB390195  43.505  35.912  49.654
13880DA     SC190196  43.313  36.065  49.845
13880DA     SC290197  43.135  36.239  49.827
13880DA     SC390198  43.178  36.280  50.076
13880DA     SC490199  43.356  36.077  49.999
13881DA     BB190200  43.559  35.821  49.339
13881DA     BB290201  43.355  36.107  49.235
13881DA     BB390202  43.470  36.287  49.241
13881DA     SC190203  43.395  36.355  49.535
13881DA     SC290204  43.258  36.525  49.656
13881DA     SC390205  43.397  36.460  49.862
13881DA     SC490206  43.493  36.302  49.651
13882DG     BB190207  43.423  36.317  48.931
13882DG     BB290208  43.238  36.612  49.030
13882DG     BB390209  43.361  36.767  49.044
13882DG     SC190210  43.427  36.719  49.339
13882DG     SC290211  43.352  36.896  49.567
13882DG     SC390212  43.538  36.684  49.656
13882DG     SC490213  43.549  36.622  49.376
13883DG     BB190214  43.186  36.932  48.818
13883DG     BB290215  43.112  37.170  49.081
13883DG     BB390216  43.257  37.305  49.093
13883DG     SC190217  43.423  37.146  49.294
13883DG     SC290218  43.476  37.223  49.578
13883DG     SC390219  43.640  36.989  49.500
13883DG     SC490220  43.530  37.040  49.240
13884DC     BB190221  43.218  37.524  49.054
13884DC     BB290222  43.222  37.656  49.390
13884DC     BB390223  43.398  37.761  49.422
13884DC     SC190224  43.536  37.539  49.441
13884DC     SC290225  43.601  37.512  49.644
13884DC     SC390226  43.714  37.352  49.386
13885DT     BB190227  43.253  37.989  49.419
13885DT     BB290228  43.418  37.990  49.740
13885DT     BB390229  43.607  38.074  49.722
13885DT     SC190230  43.701  37.859  49.605
13885DT     SC290231  43.838  37.760  49.737
13885DT     SC390232  43.805  37.703  49.419
13886DA     BB190233  43.401  38.254  50.039
13886DA     BB290234  43.736  38.163  50.158
13886DA     BB390235  43.882  38.293  50.073
13886DA     SC190236  43.934  38.111  49.825
13886DA     SC290237  44.117  37.966  49.738
13886DA     SC390238  44.001  37.992  49.510
13886DA     SC490239  43.848  38.140  49.693
13887DT     BB190240  43.973  38.406  50.199
13887DT     BB290241  44.292  38.238  50.195
13887DT     BB390242  44.426  38.345  50.078
13887DT     SC190243  44.311  38.264  49.857
13887DT     SC290244  44.442  38.129  49.753
13887DT     SC390245  44.179  38.273  49.628
13888DT     BB190246  44.555  38.419  50.304
13888DT     BB290247  44.812  38.267  50.101
13888DT     BB390248  44.892  38.408  49.972
13888DT     SC190249  44.680  38.402  49.819
13888DT     SC290250  44.730  38.310  49.631
13888DT     SC390251  44.462  38.481  49.693
13889DA     BB190252  45.222  38.240  50.170
13889DA     BB290253  45.302  38.249  49.812
13889DA     BB390254  45.348  38.449  49.752
13889DA     SC190255  45.054  38.519  49.676
13889DA     SC290256  44.923  38.563  49.468
13889DA     SC390257  44.754  38.677  49.624
13889DA     SC490258  44.962  38.586  49.789
13890DA     BB190259  45.639  38.333  49.636
13890DA     BB290260  45.541  38.450  49.302
13890DA     BB390261  45.573  38.660  49.285
13890DA     SC190262  45.287  38.736  49.383
13890DA     SC290263  45.079  38.834  49.287
13890DA     SC390264  45.017  38.890  49.529
13890DA     SC490265  45.268  38.764  49.540
13891DC     BB190266  45.734  38.770  49.153
13891DC     BB290267  45.507  38.894  48.902
13891DC     BB390268  45.493  39.100  48.914
13891DC     SC190269  45.345  39.086  49.130
13891DC     SC290270  45.145  39.149  49.084
13891DC     SC390271  45.269  39.114  49.381
13892DT     BB190272  45.649  39.158  48.684
13892DT     BB290273  45.337  39.327  48.619
13892DT     BB390274  45.346  39.521  48.689
13892DT     SC190275  45.324  39.442  48.938
13892DT     SC290276  45.132  39.502  49.015
13892DT     SC390277  45.384  39.399  49.191
13893DA     BB190278  45.234  39.573  48.287
13893DA     BB290279  45.000  39.768  48.491
13893DA     BB390280  45.091  39.950  48.555
13893DA     SC190281  45.202  39.829  48.820
13893DA     SC290282  45.158  39.849  49.064
13893DA     SC390283  45.393  39.751  49.094
13893DA     SC490284  45.350  39.768  48.817
13894DA     BB190285  44.832  40.099  48.415
13894DA     BB290286  44.742  40.220  48.749
13894DA     BB390287  44.860  40.390  48.801
13894DA     SC190288  45.085  40.222  48.936
13894DA     SC290289  45.172  40.181  49.166
13894DA     SC390290  45.386  40.101  49.049
13894DA     SC490291  45.209  40.177  48.845
13895DT     BB190292  44.771  40.579  48.824
13895DT     BB290293  44.781  40.581  49.185
13895DT     BB390294  44.924  40.715  49.251
13895DT     SC190295  45.118  40.551  49.185
13895DT     SC290296  45.212  40.476  49.364
13895DT     SC390297  45.332  40.456  49.063
13896DA     BB190298  44.563  40.794  49.446
13896DA     BB290299  44.825  40.766  49.700
13896DA     BB390300  44.951  40.938  49.696
13896DA     SC190301  45.152  40.817  49.492
13896DA     SC290302  45.388  40.735  49.492
13896DA     SC390303  45.378  40.769  49.238
13896DA     SC490304  45.127  40.846  49.336
13897DA     BB190305  44.859  40.908  50.006
13897DA     BB290306  45.216  40.869  50.081
13897DA     BB390307  45.317  41.056  50.059
13897DA     SC190308  45.388  41.009  49.760
13897DA     SC290309  45.592  40.965  49.623
13897DA     SC390310  45.452  41.048  49.424
13897DA     SC490311  45.285  41.065  49.649
13898DA     BB190312  45.396  40.936  50.351
13898DA     BB290313  45.742  40.945  50.231
13898DA     BB390314  45.808  41.147  50.211
13898DA     SC190315  45.717  41.173  49.914
13898DA     SC290316  45.824  41.192  49.690
13898DA     SC390317  45.598  41.286  49.613
13898DA     SC490318  45.570  41.230  49.886
13899DA     BB190319  46.032  40.985  50.384
13899DA     BB290320  46.268  41.086  50.122
13899DA     BB390321  46.298  41.298  50.127
13899DA     SC190322  46.068  41.360  49.928
13899DA     SC290323  46.043  41.442  49.694
13899DA     SC390324  45.803  41.502  49.761
13899DA     SC490325  45.922  41.391  49.989
13900DC     BB190326  46.468  41.329  50.168
13900DC     BB290327  46.575  41.452  49.847
13900DC     BB390328  46.567  41.659  49.844
13900DC     SC190329  46.305  41.655  49.824
13900DC     SC290330  46.247  41.724  49.629
13900DC     SC390331  46.051  41.693  49.885
13901DA     BB190332  46.947  41.542  49.708
13901DA     BB290333  46.822  41.802  49.482
13901DA     BB390334  46.821  41.991  49.580
13901DA     SC190335  46.531  41.962  49.688
13901DA     SC290336  46.308  42.065  49.647
13901DA     SC390337  46.246  41.975  49.879
13901DA     SC490338  46.513  41.900  49.835
13902DC     BB190339  46.950  42.142  49.519
13902DC     BB290340  46.704  42.358  49.367
13902DC     BB390341  46.666  42.520  49.490
13902DC     SC190342  46.526  42.372  49.655
13902DC     SC290343  46.318  42.427  49.641
13902DC     SC390344  46.452  42.247  49.875
13903DC     BB190345  46.810  42.709  49.337
13903DC     BB290346  46.482  42.856  49.365
13903DC     BB390347  46.473  42.978  49.532
13903DC     SC190348  46.463  42.770  49.693
13903DC     SC290349  46.267  42.759  49.782
13903DC     SC390350  46.531  42.598  49.881
13904DT     BB190351  46.479  43.217  49.388
13904DT     BB290352  46.177  43.241  49.584
13904DT     BB390353  46.218  43.332  49.766
13904DT     SC190354  46.334  43.115  49.856
13904DT     SC290355  46.212  43.028  50.011
13904DT     SC390356  46.521  42.953  49.948
13905DT     BB190357  46.089  43.559  49.687
13905DT     BB290358  45.918  43.457  49.988
13905DT     BB390359  46.012  43.538  50.153
13905DT     SC190360  46.210  43.367  50.134
13905DT     SC290361  46.201  43.228  50.298
13905DT     SC390362  46.454  43.272  50.100
13906DT     BB190363  45.800  43.699  50.180
13906DT     BB290364  45.823  43.522  50.494
13906DT     BB390365  45.956  43.618  50.620
13906DT     SC190366  46.162  43.529  50.483
13906DT     SC290367  46.268  43.384  50.602
13906DT     SC390368  46.378  43.528  50.333
13907DA     BB190369  45.597  43.547  50.825
13907DA     BB290370  45.874  43.442  51.041
13907DA     BB390371  45.981  43.612  51.113
13907DA     SC190372  46.182  43.617  50.876
13907DA     SC290373  46.425  43.571  50.839
13907DA     SC390374  46.398  43.712  50.626
13907DA     SC490375  46.146  43.708  50.749
13908DA     BB190376  45.920  43.467  51.404
13908DA     BB290377  46.283  43.458  51.455
13908DA     BB390378  46.357  43.653  51.500
13908DA     SC190379  46.413  43.727  51.203
13908DA     SC290380  46.611  43.765  51.057
13908DA     SC390381  46.447  43.891  50.904
13908DA     SC490382  46.296  43.802  51.122
13909DA     BB190383  46.494  43.535  51.786
13909DA     BB290384  46.822  43.640  51.662
13909DA     BB390385  46.849  43.849  51.692
13909DA     SC190386  46.732  43.929  51.415
13909DA     SC290387  46.815  44.023  51.199
13909DA     SC390388  46.570  44.088  51.157
13909DA     SC490389  46.575  43.962  51.407
13910DT     BB190390  47.000  43.986  51.852
13910DT     BB290391  47.235  44.094  51.600
13910DT     BB390392  47.224  44.299  51.577
13910DT     SC190393  46.997  44.280  51.446
13910DT     SC290394  47.029  44.332  51.240
13910DT     SC390395  46.742  44.308  51.388
13911DT     BB190396  47.471  44.426  51.729
13911DT     BB290397  47.510  44.553  51.394
13911DT     BB390398  47.439  44.746  51.383
13911DT     SC190399  47.190  44.663  51.389
13911DT     SC290400  47.099  44.697  51.197
13911DT     SC390401  46.942  44.627  51.472
13912DA     BB190402  47.832  44.813  51.246
13912DA     BB290403  47.607  44.948  50.990
13912DA     BB390404  47.540  45.143  51.045
13912DA     SC190405  47.288  45.041  51.197
13912DA     SC290406  47.041  45.044  51.167
13912DA     SC390407  47.030  44.998  51.419
13912DA     SC490408  47.302  45.014  51.354
13913DT     BB190409  47.595  45.317  50.930
13913DT     BB290410  47.278  45.342  50.760
13913DT     BB390411  47.175  45.510  50.825
13913DT     SC190412  47.115  45.393  51.053
13913DT     SC290413  46.904  45.353  51.058
13913DT     SC390414  47.106  45.345  51.312
13914DA     BB190415  47.190  45.496  50.408
13914DA     BB290416  46.841  45.542  50.509
13914DA     BB390417  46.810  45.741  50.582
13914DA     SC190418  46.874  45.669  50.878
13914DA     SC290419  46.750  45.649  51.093
13914DA     SC390420  46.980  45.673  51.204
13914DA     SC490421  47.026  45.686  50.927
13915DT     BB190422  46.693  45.825  50.473
13915DT     BB290423  46.410  45.813  50.696
13915DT     BB390424  46.390  45.993  50.795
13915DT     SC190425  46.595  45.940  50.951
13915DT     SC290426  46.525  45.906  51.151
13915DT     SC390427  46.833  45.958  51.063
13916DG     BB190428  46.050  45.884  50.600
13916DG     BB290429  45.989  45.961  50.949
13916DG     BB390430  45.995  46.158  50.977
13916DG     SC190431  46.295  46.166  51.035
13916DG     SC290432  46.421  46.235  51.297
13916DG     SC390433  46.625  46.213  51.084
13916DG     SC490434  46.398  46.183  50.913
13917DG     BB190435  45.699  46.107  51.095
13917DG     BB290436  45.831  46.236  51.406
13917DG     BB390437  45.840  46.435  51.398
13917DG     SC190438  46.124  46.441  51.284
13917DG     SC290439  46.367  46.544  51.424
13917DG     SC390440  46.426  46.485  51.140
13917DG     SC490441  46.144  46.437  51.125
13918DT     BB190442  45.728  46.532  51.538
13918DT     BB290443  45.978  46.659  51.765
13918DT     BB390444  46.019  46.857  51.722
13918DT     SC190445  46.156  46.791  51.509
13918DT     SC290446  46.364  46.833  51.542
13918DT     SC390447  46.227  46.772  51.255
13919DT     BB190448  45.895  46.906  51.950
13919DT     BB290449  46.220  47.059  51.985
13919DT     BB390450  46.220  47.246  51.896
13919DT     SC190451  46.227  47.140  51.656
13919DT     SC290452  46.418  47.178  51.566
13919DT     SC390453  46.153  47.076  51.411
13920DT     BB190454  46.234  47.339  52.142
13920DT     BB290455  46.516  47.487  51.972
13920DT     BB390456  46.455  47.654  51.867
13920DT     SC190457  46.341  47.507  51.682
13920DT     SC290458  46.453  47.523  51.499
13920DT     SC390459  46.154  47.401  51.529
13921DG     BB190460  46.749  47.775  52.123
13921DG     BB290461  46.812  47.893  51.787
13921DG     BB390462  46.695  48.050  51.747
13921DG     SC190463  46.465  47.881  51.637
13921DG     SC290464  46.371  47.877  51.353
13921DG     SC390465  46.186  47.727  51.528
13921DG     SC490466  46.353  47.827  51.738
13922DT     BB190467  46.782  48.244  51.706
13922DT     BB290468  46.724  48.280  51.352
13922DT     BB390469  46.559  48.401  51.319
13922DT     SC190470  46.394  48.209  51.389
13922DT     SC290471  46.286  48.141  51.217
13922DT     SC390472  46.211  48.078  51.525
13923DT     BB190473  46.714  48.613  51.235
13923DT     BB290474  46.485  48.557  50.962
13923DT     BB390475  46.310  48.663  50.993
13923DT     SC190476  46.231  48.493  51.177
13923DT     SC290477  46.062  48.382  51.102
13923DT     SC390478  46.158  48.398  51.412
13924DA     BB190479  46.439  48.776  50.610
13924DA     BB290480  46.086  48.680  50.586
13924DA     BB390481  45.962  48.831  50.670
13924DA     SC190482  45.964  48.708  50.956
13924DA     SC290483  45.803  48.593  51.108
13924DA     SC390484  45.966  48.659  51.296
13924DA     SC490485  46.077  48.759  51.058
13925DA     BB190486  45.822  48.807  50.375
13925DA     BB290487  45.518  48.702  50.552
13925DA     BB390488  45.425  48.870  50.645
13925DA     SC190489  45.578  48.837  50.914
13925DA     SC290490  45.527  48.771  51.148
13925DA     SC390491  45.744  48.892  51.209
13925DA     SC490492  45.715  48.919  50.931
13926DT     BB190493  45.255  48.908  50.574
13926DT     BB290494  45.063  48.782  50.852
13926DT     BB390495  45.001  48.939  50.972
13926DT     SC190496  45.242  48.968  51.071
13926DT     SC290497  45.242  48.907  51.278
13926DT     SC390498  45.475  49.077  51.130
13927DT     BB190499  44.762  48.881  50.879
13927DT     BB290500  44.735  48.854  51.238
13927DT     BB390501  44.709  49.042  51.321
13927DT     SC190502  44.962  49.102  51.283
13927DT     SC290503  45.063  49.112  51.472
13927DT     SC390504  45.177  49.224  51.190
13928DT     BB190505  44.461  48.966  51.373
13928DT     BB290506  44.597  49.064  51.692
13928DT     BB390507  44.585  49.269  51.714
13928DT     SC190508  44.785  49.306  51.548
13928DT     SC290509  44.956  49.378  51.657
13928DT     SC390510  44.919  49.385  51.335
13929DA     BB190511  44.406  49.106  52.059
13929DA     BB290512  44.642  49.365  52.167
13929DA     BB390513  44.566  49.559  52.121
13929DA     SC190514  44.698  49.572  51.840
13929DA     SC290515  44.882  49.698  51.728
13929DA     SC390516  44.768  49.630  51.509
13929DA     SC490517  44.612  49.521  51.715
13930DA     BB190518  44.601  49.638  52.446
13930DA     BB290519  44.840  49.896  52.342
13930DA     BB390520  44.736  50.068  52.270
13930DA     SC190521  44.730  49.971  51.974
13930DA     SC290522  44.836  50.035  51.757
13930DA     SC390523  44.642  49.905  51.649
13930DA     SC490524  44.602  49.888  51.926
13931DT     BB190525  44.724  50.283  52.369
13931DT     BB290526  44.956  50.438  52.141
13931DT     BB390527  44.857  50.576  52.022
13931DT     SC190528  44.747  50.385  51.879
13931DT     SC290529  44.832  50.386  51.681
13931DT     SC390530  44.563  50.230  51.772
13932DC     BB190531  44.960  50.807  52.148
13932DC     BB290532  45.065  50.839  51.804
13932DC     BB390533  44.923  50.945  51.697
13932DC     SC190534  44.760  50.740  51.694
13932DC     SC290535  44.746  50.663  51.493
13932DC     SC390536  44.546  50.592  51.738
13933DA     BB190537  45.295  51.126  51.631
13933DA     BB290538  45.142  51.058  51.305
13933DA     BB390539  44.984  51.196  51.266
13933DA     SC190540  44.764  51.017  51.393
13933DA     SC290541  44.568  50.883  51.316
13933DA     SC390542  44.487  50.900  51.559
13933DA     SC490543  44.730  51.039  51.549
13934DT     BB190544  45.018  51.310  51.118
13934DT     BB290545  44.795  51.144  50.888
13934DT     BB390546  44.619  51.252  50.869
13934DT     SC190547  44.536  51.173  51.105
13934DT     SC290548  44.370  51.039  51.081
13934DT     SC390549  44.459  51.182  51.357
13935DA     BB190550  44.780  51.153  50.494
13935DA     BB290551  44.425  51.060  50.498
13935DA     BB390552  44.302  51.234  50.497
13935DA     SC190553  44.288  51.256  50.807
13935DA     SC290554  44.117  51.226  50.986
13935DA     SC390555  44.273  51.369  51.130
13935DA     SC490556  44.397  51.348  50.880
13936DA     BB190557  44.189  51.052  50.251
13936DA     BB290558  43.870  51.051  50.432
13936DA     BB390559  43.780  51.244  50.425
13936DA     SC190560  43.915  51.345  50.686
13936DA     SC290561  43.847  51.403  50.919
13936DA     SC390562  44.066  51.535  50.929
13936DA     SC490563  44.055  51.423  50.672
13937DT     BB190564  43.618  51.244  50.331
13937DT     BB290565  43.401  51.277  50.617
13937DT     BB390566  43.340  51.473  50.638
13937DT     SC190567  43.575  51.545  50.729
13937DT     SC290568  43.558  51.595  50.938
13937DT     SC390569  43.809  51.666  50.745
13938DC     BB190570  43.102  51.385  50.564
13938DC     BB290571  43.050  51.539  50.886
13938DC     BB390572  43.028  51.744  50.863
13938DC     SC190573  43.285  51.775  50.820
13938DC     SC290574  43.373  51.878  50.987
13938DC     SC390575  43.510  51.834  50.696
13939DA     BB190576  42.724  51.580  51.102
13939DA     BB290577  42.861  51.873  51.273
13939DA     BB390578  42.807  52.052  51.169
13939DA     SC190579  43.061  52.052  50.989
13939DA     SC290580  43.269  52.188  50.963
13939DA     SC390581  43.282  52.086  50.728
13939DA     SC490582  43.051  51.980  50.846
13940DA     BB190583  42.723  52.102  51.481
13940DA     BB290584  42.950  52.389  51.468
13940DA     BB390585  42.870  52.542  51.342
13940DA     SC190586  43.010  52.436  51.085
13940DA     SC290587  43.193  52.507  50.931
13940DA     SC390588  43.086  52.347  50.762
13940DA     SC490589  42.927  52.332  50.993
13941DA     BB190590  42.944  52.697  51.621
13941DA     BB290591  43.159  52.913  51.416
13941DA     BB390592  43.040  53.037  51.290
13941DA     SC190593  43.036  52.835  51.053
13941DA     SC290594  43.133  52.819  50.823
13941DA     SC390595  42.948  52.645  50.781
13941DA     SC490596  42.914  52.731  51.046
13942DA     BB190597  43.227  53.267  51.433
13942DA     BB290598  43.337  53.360  51.096
13942DA     BB390599  43.181  53.462  50.993
13942DA     SC190600  43.060  53.204  50.869
13942DA     SC290601  43.042  53.098  50.644
13942DA     SC390602  42.849  52.962  50.746
13942DA     SC490603  42.943  53.130  50.950
13943DA     BB190604  43.404  53.704  50.947
13943DA     BB290605  43.360  53.657  50.586
13943DA     BB390606  43.178  53.748  50.521
13943DA     SC190607  43.006  53.492  50.563
13943DA     SC290608  42.887  53.325  50.422
13943DA     SC390609  42.753  53.271  50.634
13943DA     SC490610  42.933  53.475  50.705
13944DA     BB190611  43.362  53.918  50.301
13944DA     BB290612  43.170  53.757  50.034
13944DA     BB390613  42.981  53.854  50.010
13944DA     SC190614  42.833  53.668  50.212
13944DA     SC290615  42.661  53.488  50.205
13944DA     SC390616  42.626  53.541  50.454
13944DA     SC490617  42.826  53.716  50.365
13945DA     BB190618  43.068  53.890  49.693
13945DA     BB290619  42.779  53.683  49.605
13945DA     BB390620  42.600  53.799  49.611
13945DA     SC190621  42.540  53.734  49.910
13945DA     SC290622  42.373  53.602  50.040
13945DA     SC390623  42.443  53.748  50.239
13945DA     SC490624  42.596  53.836  50.021
13946DG     BB190625  42.576  53.727  49.310
13946DG     BB290626  42.281  53.550  49.421
13946DG     BB390627  42.127  53.676  49.434
13946DG     SC190628  42.182  53.753  49.725
13946DG     SC290629  42.008  53.689  49.959
13946DG     SC390630  42.225  53.875  50.037
13946DG     SC490631  42.281  53.875  49.756
13947DA     BB190632  41.958  53.445  49.241
13947DA     BB290633  41.707  53.406  49.505
13947DA     BB390634  41.575  53.574  49.508
13947DA     SC190635  41.746  53.736  49.710
13947DA     SC290636  41.729  53.812  49.947
13947DA     SC390637  41.907  53.986  49.883
13947DA     SC490638  41.856  53.838  49.651
13948DC     BB190639  41.388  53.538  49.460
13948DC     BB290640  41.249  53.571  49.791
13948DC     BB390641  41.154  53.754  49.811
13948DC     SC190642  41.384  53.880  49.827
13948DC     SC290643  41.409  53.955  50.027
13948DC     SC390644  41.582  54.043  49.767
13949DT     BB190645  40.910  53.631  49.805
13949DT     BB290646  40.907  53.822  50.112
13949DT     BB390647  40.841  54.015  50.074
13949DT     SC190648  41.071  54.079  49.964
13949DT     SC290649  41.175  54.218  50.091
13949DT     SC390650  41.246  54.154  49.782
13950DG     BB190651  40.565  53.877  50.344
13950DG     BB290652  40.699  54.195  50.450
13950DG     BB390653  40.607  54.343  50.353
13950DG     SC190654  40.806  54.346  50.120
13950DG     SC290655  40.996  54.566  50.054
13950DG     SC390656  40.992  54.363  49.839
13950DG     SC490657  40.779  54.250  49.994
13951DG     BB190658  40.476  54.502  50.626
13951DG     BB290659  40.683  54.786  50.539
13951DG     BB390660  40.583  54.907  50.415
13951DG     SC190661  40.681  54.767  50.161
13951DG     SC290662  40.862  54.884  49.955
13951DG     SC390663  40.752  54.626  49.863
13951DG     SC490664  40.597  54.643  50.104
13952DA     BB190665  40.633  55.189  50.622
13952DA     BB290666  40.822  55.357  50.356
13952DA     BB390667  40.689  55.448  50.217
13952DA     SC190668  40.673  55.198  50.032
13952DA     SC290669  40.750  55.132  49.804
13952DA     SC390670  40.569  54.951  49.817
13952DA     SC490671  40.554  55.093  50.059
13953DG     BB190672  40.816  55.726  50.293
13953DG     BB290673  40.932  55.718  49.950
13953DG     BB390674  40.793  55.793  49.829
13953DG     SC190675  40.656  55.523  49.781
13953DG     SC290676  40.647  55.375  49.523
13953DG     SC390677  40.470  55.248  49.723
13953DG     SC490678  40.540  55.476  49.882
13954DT     BB190679  40.820  55.985  49.701
13954DT     BB290680  40.870  55.841  49.374
13954DT     BB390681  40.702  55.871  49.257
13954DT     SC190682  40.569  55.686  49.387
13954DT     SC290683  40.538  55.516  49.258
13954DT     SC390684  40.385  55.572  49.538
13955DG     BB190685  41.012  56.045  49.057
13955DG     BB290686  40.835  55.809  48.846
13955DG     BB390687  40.668  55.893  48.777
13955DG     SC190688  40.495  55.802  49.012
13955DG     SC290689  40.272  55.604  48.999
13955DG     SC390690  40.280  55.736  49.264
13955DG     SC490691  40.484  55.896  49.141
13956DT     BB190692  40.635  55.926  48.556
13956DT     BB290693  40.400  55.662  48.483
13956DT     BB390694  40.210  55.741  48.459
13956DT     SC190695  40.184  55.778  48.717
13956DT     SC290696  40.036  55.641  48.794
13956DT     SC390697  40.153  55.901  48.948
13957DT     BB190698  40.223  55.695  48.190
13957DT     BB290699  39.931  55.513  48.300
13957DT     BB390700  39.766  55.637  48.297
13957DT     SC190701  39.846  55.763  48.513
13957DT     SC290702  39.714  55.715  48.676
13957DT     SC390703  39.929  55.958  48.670
13958DG     BB190704  39.691  55.313  48.063
13958DG     BB290705  39.433  55.360  48.312
13958DG     BB390706  39.311  55.507  48.256
13958DG     SC190707  39.473  55.728  48.393
13958DG     SC290708  39.385  55.891  48.626
13958DG     SC390709  39.636  55.997  48.513
13958DG     SC490710  39.591  55.799  48.311
13959DT     BB190711  39.114  55.452  48.232
13959DT     BB290712  38.961  55.595  48.525
13959DT     BB390713  38.868  55.773  48.476
13959DT     SC190714  39.098  55.898  48.459
13959DT     SC290715  39.116  56.038  48.622
13959DT     SC390716  39.301  56.031  48.356
13960DT     BB190717  38.657  55.631  48.528
13960DT     BB290718  38.640  55.913  48.752
13960DT     BB390719  38.567  56.079  48.652
13960DT     SC190720  38.794  56.113  48.525
13960DT     SC290721  38.890  56.291  48.598
13960DT     SC390722  38.968  56.130  48.328
13961DT     BB190723  38.370  56.033  48.813
13961DT     BB290724  38.470  56.374  48.876
13961DT     BB390725  38.394  56.498  48.730
13961DT     SC190726  38.569  56.413  48.554
13961DT     SC290727  38.709  56.571  48.511
13961DT     SC390728  38.669  56.300  48.338
13962DT     BB190729  38.248  56.582  48.929
13962DT     BB290730  38.409  56.877  48.797
13962DT     BB390731  38.310  56.941  48.627
13962DT     SC190732  38.412  56.746  48.484
13962DT     SC290733  38.553  56.826  48.343
13962DT     SC390734  38.426  56.528  48.336
13963DT     BB190735  38.209  57.151  48.766
13963DT     BB290736  38.369  57.302  48.480
13963DT     BB390737  38.238  57.304  48.319
13963DT     SC190738  38.270  57.047  48.279
13963DT     SC290739  38.378  57.016  48.096
13963DT     SC390740  38.214  56.790  48.260
13964DA     BB190741  38.349  57.710  48.349
13964DA     BB290742  38.381  57.615  47.996
13964DA     BB390743  38.188  57.604  47.905
13964DA     SC190744  38.147  57.303  47.969
13964DA     SC290745  38.138  57.087  47.845
13964DA     SC390746  38.016  56.996  48.051
13964DA     SC490747  38.072  57.266  48.106
13965DA     BB190748  38.294  57.824  47.675
13965DA     BB290749  38.241  57.565  47.422
13965DA     BB390750  38.034  57.555  47.368
13965DA     SC190751  37.963  57.342  47.583
13965DA     SC290752  37.897  57.102  47.590
13965DA     SC390753  37.806  57.154  47.824
13965DA     SC490754  37.911  57.395  47.726
13966DT     BB190755  37.961  57.611  47.171
13966DT     BB290756  37.907  57.273  47.054
13966DT     BB390757  37.704  57.235  47.040
13966DT     SC190758  37.683  57.214  47.301
13966DT     SC290759  37.644  57.009  47.354
13966DT     SC390760  37.609  57.265  47.549
13967DT     BB190761  37.721  57.240  46.769
13967DT     BB290762  37.592  56.912  46.847
13967DT     BB390763  37.386  56.918  46.863
13967DT     SC190764  37.399  57.037  47.096
13967DT     SC290765  37.333  56.901  47.249
13967DT     SC390766  37.371  57.221  47.283
13968DT     BB190767  37.387  56.779  46.638
13968DT     BB290768  37.208  56.575  46.875
13968DT     BB390769  37.010  56.635  46.884
13968DT     SC190770  37.073  56.849  47.022
13968DT     SC290771  37.000  56.828  47.224
13968DT     SC390772  37.104  57.103  47.086
13969DT     BB190773  36.965  56.404  46.767
13969DT     BB290774  36.769  56.396  47.070
13969DT     BB390775  36.591  56.498  47.042
13969DT     SC190776  36.712  56.730  47.052
13969DT     SC290777  36.656  56.832  47.233
13969DT     SC390778  36.803  56.966  46.978
13970DA     BB190779  36.519  56.120  47.213
13970DA     BB290780  36.325  56.369  47.398
13970DA     BB390781  36.165  56.444  47.277
13970DA     SC190782  36.332  56.679  47.159
13970DA     SC290783  36.338  56.927  47.176
13970DA     SC390784  36.466  56.919  46.954
13970DA     SC490785  36.409  56.653  47.021
13971DC     BB190786  35.973  56.401  47.329
13971DC     BB290787  35.878  56.731  47.441
13971DC     BB390788  35.759  56.822  47.298
13971DC     SC190789  35.967  56.867  47.143
13971DC     SC290790  36.008  57.078  47.138
13971DC     SC390791  36.128  56.856  46.935
13972DA     BB190792  35.527  56.850  47.648
13972DA     BB290793  35.529  57.182  47.491
13972DA     BB390794  35.402  57.183  47.320
13972DA     SC190795  35.628  57.102  47.122
13972DA     SC290796  35.758  57.207  46.937
13972DA     SC390797  35.810  56.966  46.864
13972DA     SC490798  35.648  56.945  47.092
13973DA     BB190799  35.237  57.441  47.456
13973DA     BB290800  35.340  57.643  47.167
13973DA     BB390801  35.215  57.602  47.000
13973DA     SC190802  35.395  57.374  46.889
13973DA     SC290803  35.545  57.335  46.694
13973DA     SC390804  35.513  57.086  46.745
13973DA     SC490805  35.361  57.224  46.936
13974DG     BB190806  35.114  57.905  46.995
13974DG     BB290807  35.287  57.914  46.677
13974DG     BB390808  35.165  57.855  46.532
13974DG     SC190809  35.239  57.559  46.556
13974DG     SC290810  35.385  57.398  46.351
13974DG     SC390811  35.283  57.225  46.568
13974DG     SC490812  35.158  57.467  46.658
13975DT     BB190813  35.092  57.989  46.350
13975DT     BB290814  35.299  57.857  46.086
13975DT     BB390815  35.185  57.745  45.956
13975DT     SC190816  35.170  57.547  46.127
13975DT     SC290817  35.284  57.380  46.054
13975DT     SC390818  35.067  57.371  46.295
13976DG     BB190819  35.358  58.040  45.733
13976DG     BB290820  35.430  57.712  45.598
13976DG     BB390821  35.273  57.646  45.494
13976DG     SC190822  35.141  57.509  45.734
13976DG     SC290823  35.104  57.215  45.770
13976DG     SC390824  34.959  57.366  45.979
13976DG     SC490825  35.041  57.594  45.826
13977DT     BB190826  35.299  57.606  45.286
13977DT     BB290827  35.312  57.245  45.285
13977DT     BB390828  35.131  57.168  45.221
13977DT     SC190829  35.016  57.226  45.450
13977DT     SC290830  34.972  57.044  45.556
13977DT     SC390831  34.853  57.337  45.624
13978DT     BB190832  35.266  57.096  45.006
13978DT     BB290833  35.131  56.790  45.142
13978DT     BB390834  34.935  56.765  45.080
13978DT     SC190835  34.851  56.949  45.246
13978DT     SC290836  34.736  56.857  45.403
13978DT     SC390837  34.745  57.174  45.335
13979DC     BB190838  35.039  56.569  44.941
13979DC     BB290839  34.786  56.418  45.149
13979DC     BB390840  34.599  56.445  45.064
13979DC     SC190841  34.595  56.698  45.135
13979DC     SC290842  34.448  56.726  45.290
13979DC     SC390843  34.589  56.961  45.116
13980DC     BB190844  34.612  56.186  45.023
13980DC     BB290845  34.312  56.237  45.216
13980DC     BB390846  34.157  56.297  45.092
13980DC     SC190847  34.258  56.538  45.069
13980DC     SC290848  34.131  56.678  45.172
13980DC     SC390849  34.365  56.753  44.961
13981DA     BB190850  34.030  55.977  45.333
13981DA     BB290851  33.773  56.239  45.344
13981DA     BB390852  33.672  56.252  45.157
13981DA     SC190853  33.866  56.463  45.038
13981DA     SC290854  33.860  56.704  44.974
13981DA     SC390855  34.065  56.651  44.829
13981DA     SC490856  33.992  56.410  44.953
13982DA     BB190857  33.419  56.221  45.365
13982DA     BB290858  33.303  56.544  45.236
13982DA     BB390859  33.229  56.523  45.038
13982DA     SC190860  33.504  56.581  44.903
13982DA     SC290861  33.608  56.762  44.767
13982DA     SC390862  33.777  56.583  44.695
13982DA     SC490863  33.598  56.455  44.869
13983DT     BB190864  33.036  56.553  45.009
13983DT     BB290865  33.065  56.871  44.840
13983DT     BB390866  33.039  56.846  44.637
13983DT     SC190867  33.278  56.741  44.612
13983DT     SC290868  33.405  56.877  44.505
13983DT     SC390869  33.468  56.564  44.562
13984DT     BB190870  32.792  56.961  44.645
13984DT     BB290871  32.974  57.157  44.403
13984DT     BB390872  32.958  57.071  44.216
13984DT     SC190873  33.126  56.880  44.280
13984DT     SC290874  33.309  56.907  44.171
13984DT     SC390875  33.220  56.639  44.331
13985DA     BB190876  32.842  57.472  44.167
13985DA     BB290877  33.089  57.395  43.907
13985DA     BB390878  33.002  57.272  43.756
13985DA     SC190879  33.080  57.004  43.894
13985DA     SC290880  33.238  56.816  43.853
13985DA     SC390881  33.087  56.682  44.012
13985DA     SC490882  32.973  56.938  43.993
13986DG     BB190883  33.071  57.508  43.564
13986DG     BB290884  33.294  57.264  43.418
13986DG     BB390885  33.194  57.148  43.291
13986DG     SC190886  33.116  56.941  43.503
13986DG     SC290887  33.212  56.658  43.514
13986DG     SC390888  32.997  56.705  43.712
13986DG     SC490889  32.981  56.961  43.586
13987DT     BB190890  33.247  57.144  43.078
13987DT     BB290891  33.418  56.827  43.054
13987DT     BB390892  33.294  56.687  42.967
13987DT     SC190893  33.151  56.664  43.186
13987DT     SC290894  33.186  56.471  43.274
13987DT     SC390895  32.945  56.674  43.350
13988DC     BB190896  33.451  56.699  42.750
13988DC     BB290897  33.458  56.352  42.852
13988DC     BB390898  33.294  56.253  42.773
13988DC     SC190899  33.132  56.365  42.946
13988DC     SC290900  33.062  56.217  43.085
13988DC     SC390901  32.935  56.512  43.042
13989DT     BB190902  33.467  56.128  42.613
13989DT     BB290903  33.299  55.865  42.793
13989DT     BB390904  33.120  55.819  42.700
13989DT     SC190905  33.008  56.038  42.792
13989DT     SC290906  32.860  55.986  42.939
13989DT     SC390907  32.891  56.275  42.794
13990DA     BB190908  33.338  55.466  42.766
13990DA     BB290909  32.996  55.414  42.887
13990DA     BB390910  32.860  55.401  42.723
13990DA     SC190911  32.799  55.706  42.717
13990DA     SC290912  32.607  55.857  42.768
13990DA     SC390913  32.728  56.028  42.620
13990DA     SC490914  32.889  55.798  42.620
13991DA     BB190915  32.788  55.126  42.886
13991DA     BB290916  32.449  55.261  42.920
13991DA     BB390917  32.346  55.251  42.733
13991DA     SC190918  32.437  55.534  42.641
13991DA     SC290919  32.333  55.758  42.603
13991DA     SC390920  32.539  55.806  42.458
13991DA     SC490921  32.571  55.545  42.553
13992DT     BB190922  32.192  55.131  42.724
13992DT     BB290923  31.937  55.386  42.724
13992DT     BB390924  31.862  55.411  42.533
13992DT     SC190925  32.078  55.540  42.457
13992DT     SC290926  32.030  55.747  42.424
13992DT     SC390927  32.301  55.597  42.327
13993DA     BB190928  31.535  55.353  42.788
13993DA     BB290929  31.465  55.647  42.581
13993DA     BB390930  31.421  55.587  42.381
13993DA     SC190931  31.716  55.604  42.284
13993DA     SC290932  31.853  55.748  42.133
13993DA     SC390933  32.017  55.551  42.127
13993DA     SC490934  31.804  55.470  42.292
13994DA     BB190935  31.155  55.771  42.443
13994DA     BB290936  31.262  55.983  42.164
13994DA     BB390937  31.223  55.886  41.978
13994DA     SC190938  31.502  55.749  41.964
13994DA     SC290939  31.710  55.767  41.828
13994DA     SC390940  31.761  55.530  41.911
13994DA     SC490941  31.515  55.601  42.025
13995DC     BB190942  31.085  55.966  41.855
13995DC     BB290943  31.314  56.099  41.610
13995DC     BB390944  31.314  55.980  41.441
13995DC     SC190945  31.453  55.794  41.562
13995DC     SC290946  31.651  55.786  41.477
13995DC     SC390947  31.517  55.560  41.667
13996DA     BB190948  31.247  56.373  41.310
13996DA     BB290949  31.513  56.230  41.102
13996DA     BB390950  31.431  56.089  40.964
13996DA     SC190951  31.466  55.846  41.155
13996DA     SC290952  31.607  55.641  41.170
13996DA     SC390953  31.426  55.551  41.328
13996DA     SC490954  31.342  55.807  41.250
13997DG     BB190955  31.545  56.277  40.742
13997DG     BB290956  31.754  55.991  40.668
13997DG     BB390957  31.655  55.863  40.551
13997DG     SC190958  31.534  55.706  40.785
13997DG     SC290959  31.597  55.423  40.856
13997DG     SC390960  31.370  55.524  41.016
13997DG     SC490961  31.395  55.753  40.847
13998DT     BB190962  31.721  55.810  40.340
13998DT     BB290963  31.857  55.480  40.390
13998DT     BB390964  31.726  55.338  40.315
13998DT     SC190965  31.563  55.370  40.519
13998DT     SC290966  31.568  55.193  40.642
13998DT     SC390967  31.346  55.429  40.656
13999DT     BB190968  31.891  55.286  40.103
13999DT     BB290969  31.851  54.967  40.265
13999DT     BB390970  31.683  54.870  40.191
13999DT     SC190971  31.523  55.029  40.325
13999DT     SC290972  31.426  54.917  40.481
13999DT     SC390973  31.338  55.210  40.375
14000DT     BB190974  31.842  54.693  40.058
14000DT     BB290975  31.634  54.488  40.271
14000DT     BB390976  31.456  54.444  40.175
14000DT     SC190977  31.365  54.687  40.214
14000DT     SC290978  31.204  54.681  40.356
14000DT     SC390979  31.277  54.930  40.163
14001DA     BB190980  31.623  54.086  40.313
14001DA     BB290981  31.273  54.096  40.419
14001DA     BB390982  31.144  54.063  40.253
14001DA     SC190983  31.118  54.364  40.182
14001DA     SC290984  30.943  54.542  40.189
14001DA     SC390985  31.089  54.665  40.018
14001DA     SC490986  31.222  54.425  40.075
14002DA     BB190987  31.039  53.841  40.468
14002DA     BB290988  30.716  54.014  40.454
14002DA     BB390989  30.618  53.974  40.269
14002DA     SC190990  30.742  54.219  40.123
14002DA     SC290991  30.665  54.438  40.033
14002DA     SC390992  30.878  54.432  39.891
14002DA     SC490993  30.879  54.196  40.042
14003DT     BB190994  30.457  53.876  40.288
14003DT     BB290995  30.230  54.148  40.219
14003DT     BB390996  30.161  54.136  40.024
14003DT     SC190997  30.391  54.220  39.929
14003DT     SC290998  30.366  54.418  39.847
14003DT     SC390999  30.619  54.222  39.798
14004DT     BB191000  29.926  54.068  40.130
14004DT     BB291001  29.857  54.358  39.926
14004DT     BB391002  29.829  54.300  39.729
14004DT     SC191003  30.086  54.261  39.695
14004DT     SC291004  30.165  54.411  39.563
14004DT     SC391005  30.315  54.136  39.649
14005DA     BB191006  29.506  54.542  39.843
14005DA     BB291007  29.627  54.661  39.519
14005DA     BB391008  29.576  54.523  39.365
14005DA     SC191009  29.839  54.359  39.390
14005DA     SC291010  30.046  54.320  39.255
14005DA     SC391011  30.075  54.109  39.399
14005DA     SC491012  29.839  54.232  39.488
14006DT     BB191013  29.444  54.580  39.224
14006DT     BB291014  29.677  54.617  38.952
14006DT     BB391015  29.660  54.456  38.822
14006DT     SC191016  29.784  54.297  38.990
14006DT     SC291017  29.977  54.247  38.910
14006DT     SC391018  29.829  54.097  39.156
14007DA     BB191019  29.620  54.795  38.577
14007DA     BB291020  29.862  54.571  38.416
14007DA     BB391021  29.762  54.405  38.328
14007DA     SC191022  29.782  54.226  38.581
14007DA     SC291023  29.905  54.021  38.653
14007DA     SC391024  29.724  54.000  38.833
14007DA     SC491025  29.660  54.230  38.685
14008DT     BB191026  29.749  54.373  38.112
14008DT     BB291027  29.985  54.100  38.096
14008DT     BB391028  29.886  53.923  38.058
14008DT     SC191029  29.795  53.912  38.304
14008DT     SC291030  29.891  53.750  38.409
14008DT     SC391031  29.626  53.909  38.506
14009DT     BB191032  29.968  53.901  37.789
14009DT     BB291033  30.079  53.592  37.938
14009DT     BB391034  29.932  53.448  37.919
14009DT     SC191035  29.788  53.559  38.107
14009DT     SC291036  29.787  53.432  38.281
14009DT     SC391037  29.586  53.680  38.226
14010DT     BB191038  30.066  53.303  37.718
14010DT     BB291039  30.014  53.061  37.981
14010DT     BB391040  29.834  52.963  37.952
14010DT     SC191041  29.698  53.173  38.033
14010DT     SC291042  29.607  53.129  38.223
14010DT     SC391043  29.533  53.378  38.028
14011DA     BB191044  30.124  52.664  37.993
14011DA     BB291045  29.850  52.586  38.224
14011DA     BB391046  29.683  52.509  38.117
14011DA     SC191047  29.551  52.787  38.074
14011DA     SC291048  29.350  52.911  38.154
14011DA     SC391049  29.382  53.058  37.946
14011DA     SC491050  29.587  52.866  37.938
14012DT     BB191051  29.635  52.322  38.155
14012DT     BB291052  29.343  52.393  38.355
14012DT     BB391053  29.172  52.358  38.245
14012DT     SC191054  29.206  52.577  38.105
14012DT     SC291055  29.054  52.720  38.158
14012DT     SC391056  29.249  52.736  37.899
14013DA     BB191057  29.142  52.159  38.613
14013DA     BB291058  28.832  52.347  38.559
14013DA     BB391059  28.714  52.254  38.408
14013DA     SC191060  28.839  52.418  38.175
14013DA     SC291061  28.768  52.598  38.018
14013DA     SC391062  28.966  52.522  37.874
14013DA     SC491063  28.966  52.355  38.099
14014DA     BB191064  28.491  52.271  38.648
14014DA     BB291065  28.290  52.477  38.422
14014DA     BB391066  28.202  52.356  38.270
14014DA     SC191067  28.439  52.389  38.071
14014DA     SC291068  28.482  52.503  37.853
14014DA     SC391069  28.679  52.340  37.831
14014DA     SC491070  28.555  52.279  38.075
14015DT     BB191071  27.998  52.333  38.266
14015DT     BB291072  27.936  52.543  37.980
14015DT     BB391073  27.892  52.427  37.814
14015DT     SC191074  28.144  52.357  37.787
14015DT     SC291075  28.224  52.449  37.610
14015DT     SC391076  28.360  52.207  37.777
14016DT     BB191077  27.621  52.490  37.819
14016DT     BB291078  27.728  52.586  37.488
14016DT     BB391079  27.707  52.427  37.358
14016DT     SC191080  27.918  52.306  37.459
14016DT     SC291081  28.077  52.308  37.314
14016DT     SC391082  28.065  52.125  37.582
14017DA     BB191083  27.507  52.748  37.180
14017DA     BB291084  27.734  52.606  36.929
14017DA     BB391085  27.656  52.422  36.855
14017DA     SC191086  27.799  52.246  37.068
14017DA     SC291087  27.985  52.080  37.075
14017DA     SC391088  27.881  52.004  37.297
14017DA     SC491089  27.719  52.212  37.203
14018DA     BB191090  27.704  52.582  36.576
14018DA     BB291091  27.942  52.317  36.489
14018DA     BB391092  27.838  52.140  36.432
14018DA     SC191093  27.830  52.022  36.719
14018DA     SC291094  27.935  51.833  36.844
14018DA     SC391095  27.741  51.862  37.009
14018DA     SC491096  27.701  52.055  36.810
14019DA     BB191097  28.049  52.200  36.194
14019DA     BB291098  28.194  51.873  36.274
14019DA     BB391099  28.062  51.717  36.213
14019DA     SC191100  27.912  51.704  36.485
14019DA     SC291101  27.892  51.547  36.678
14019DA     SC391102  27.675  51.673  36.732
14019DA     SC491103  27.780  51.794  36.501
14020DT     BB191104  28.152  51.632  36.096
14020DT     BB291105  28.217  51.337  36.293
14020DT     BB391106  28.071  51.194  36.258
14020DT     SC191107  27.895  51.327  36.401
14020DT     SC291108  27.854  51.218  36.582
14020DT     SC391109  27.679  51.464  36.464
14021DA     BB191110  28.463  51.040  36.244
14021DA     BB291111  28.253  50.812  36.439
14021DA     BB391112  28.109  50.717  36.314
14021DA     SC191113  27.892  50.936  36.358
14021DA     SC291114  27.671  50.956  36.472
14021DA     SC391115  27.633  51.158  36.319
14021DA     SC491116  27.886  51.057  36.253
14022DC     BB191117  28.135  50.533  36.297
14022DC     BB291118  27.845  50.422  36.482
14022DC     BB391119  27.692  50.373  36.351
14022DC     SC191120  27.642  50.626  36.302
14022DC     SC291121  27.452  50.678  36.388
14022DC     SC391122  27.617  50.853  36.171
14023DC     BB191123  27.726  50.099  36.386
14023DC     BB291124  27.374  50.150  36.449
14023DC     BB391125  27.268  50.135  36.272
14023DC     SC191126  27.351  50.371  36.193
14023DC     SC291127  27.186  50.510  36.195
14023DC     SC391128  27.472  50.557  36.050
14024DA     BB191129  27.062  49.839  36.494
14024DA     BB291130  26.804  50.048  36.338
14024DA     BB391131  26.780  49.994  36.133
14024DA     SC191132  26.991  50.198  36.029
14024DA     SC291133  26.994  50.410  35.897
14024DA     SC391134  27.241  50.356  35.855
14024DA     SC491135  27.142  50.146  36.012
14025DG     BB191136  26.467  49.891  36.155
14025DG     BB291137  26.396  50.172  35.938
14025DG     BB391138  26.400  50.113  35.748
14025DG     SC191139  26.699  50.171  35.712
14025DG     SC291140  26.817  50.381  35.536
14025DG     SC391141  27.028  50.203  35.643
14025DG     SC491142  26.805  50.056  35.747
14026DG     BB191143  26.075  50.185  35.659
14026DG     BB291144  26.211  50.433  35.433
14026DG     BB391145  26.237  50.353  35.253
14026DG     SC191146  26.523  50.259  35.309
14026DG     SC291147  26.771  50.363  35.179
14026DG     SC391148  26.830  50.124  35.343
14026DG     SC491149  26.546  50.114  35.374
14027DT     BB191150  26.123  50.418  35.046
14027DT     BB291151  26.386  50.609  34.890
14027DT     BB391152  26.459  50.508  34.725
14027DT     SC191153  26.588  50.337  34.877
14027DT     SC291154  26.800  50.370  34.857
14027DT     SC391155  26.659  50.109  34.988
14028DG     BB191156  26.330  50.873  34.602
14028DG     BB291157  26.674  50.816  34.507
14028DG     BB391158  26.681  50.699  34.346
14028DG     SC191159  26.689  50.438  34.505
14028DG     SC291160  26.919  50.247  34.518
14028DG     SC391161  26.678  50.132  34.646
14028DG     SC491162  26.551  50.368  34.546
14029DA     BB191163  26.887  50.951  34.243
14029DA     BB291164  27.158  50.707  34.201
14029DA     BB391165  27.123  50.587  34.029
14029DA     SC191166  26.966  50.367  34.184
14029DA     SC291167  27.000  50.130  34.253
14029DA     SC391168  26.745  50.122  34.278
14029DA     SC491169  26.806  50.382  34.192
14030DG     BB191170  27.395  50.716  33.980
14030DG     BB291171  27.504  50.371  33.988
14030DG     BB391172  27.456  50.281  33.817
14030DG     SC191173  27.181  50.189  33.916
14030DG     SC291174  27.097  49.906  33.963
14030DG     SC391175  26.866  50.089  33.984
14030DG     SC491176  27.055  50.286  33.897
14031DT     BB191177  27.613  50.209  33.710
14031DT     BB291178  27.582  49.852  33.749
14031DT     BB391179  27.487  49.771  33.584
14031DT     SC191180  27.255  49.863  33.663
14031DT     SC291181  27.130  49.698  33.723
14031DT     SC391182  27.030  50.001  33.665
14032DA     BB191183  27.840  49.554  33.661
14032DA     BB291184  27.568  49.315  33.601
14032DA     BB391185  27.511  49.318  33.395
14032DA     SC191186  27.293  49.537  33.434
14032DA     SC291187  27.044  49.553  33.428
14032DA     SC391188  27.082  49.804  33.393
14032DA     SC491189  27.337  49.690  33.411
14033DT     BB191190  27.547  49.154  33.279
14033DT     BB291191  27.206  49.042  33.245
14033DT     BB391192  27.134  49.089  33.057
14033DT     SC191193  27.110  49.343  33.121
14033DT     SC291194  26.901  49.394  33.133
14033DT     SC391195  27.148  49.604  33.121
14034DT     BB191196  27.148  48.827  32.963
14034DT     BB291197  26.806  48.923  32.898
14034DT     BB391198  26.791  49.010  32.711
14034DT     SC191199  26.902  49.232  32.797
14034DT     SC291200  26.755  49.389  32.800
14034DT     SC391201  27.076  49.428  32.821
14035DA     BB191202  26.503  48.703  32.686
14035DA     BB291203  26.343  49.010  32.565
14035DA     BB391204  26.408  49.055  32.367
14035DA     SC191205  26.648  49.231  32.460
14035DA     SC291206  26.712  49.472  32.457
14035DA     SC391207  26.952  49.388  32.490
14035DA     SC491208  26.790  49.158  32.479
14036DA     BB191209  26.088  49.057  32.265
14036DA     BB291210  26.131  49.410  32.175
14036DA     BB391211  26.226  49.427  31.985
14036DA     SC191212  26.514  49.434  32.102
14036DA     SC291213  26.699  49.599  32.128
14036DA     SC391214  26.851  49.395  32.156
14036DA     SC491215  26.593  49.294  32.116
14037DC     BB191216  26.130  49.505  31.791
14037DC     BB291217  26.297  49.825  31.793
14037DC     BB391218  26.433  49.835  31.638
14037DC     SC191219  26.600  49.677  31.764
14037DC     SC291220  26.773  49.790  31.825
14037DC     SC391221  26.750  49.467  31.818
14038DT     BB191222  26.281  50.010  31.472
14038DT     BB291223  26.593  50.185  31.520
14038DT     BB391224  26.725  50.138  31.368
14038DT     SC191225  26.770  49.901  31.470
14038DT     SC291226  26.971  49.894  31.547
14038DT     SC391227  26.779  49.638  31.494
14039DT     BB191228  26.702  50.387  31.239
14039DT     BB291229  27.054  50.358  31.314
14039DT     BB391230  27.153  50.270  31.155
14039DT     SC191231  27.056  50.033  31.217
14039DT     SC291232  27.215  49.908  31.290
14039DT     SC391233  26.922  49.808  31.197
14040DT     BB191234  27.270  50.508  31.092
14040DT     BB291235  27.545  50.284  31.157
14040DT     BB391236  27.598  50.184  30.984
14040DT     SC191237  27.387  50.029  31.000
14040DT     SC291238  27.449  49.829  31.047
14040DT     SC391239  27.156  49.917  30.938
14041DA     BB191240  27.933  50.354  31.167
14041DA     BB291241  28.005  50.002  31.098
14041DA     BB391242  28.033  49.971  30.888
14041DA     SC191243  27.733  49.908  30.834
14041DA     SC291244  27.595  49.711  30.770
14041DA     SC391245  27.420  49.883  30.696
14041DA     SC491246  27.638  50.031  30.792
14042DT     BB191247  28.198  49.917  30.866
14042DT     BB291248  28.123  49.572  30.793
14042DT     BB391249  28.117  49.543  30.588
14042DT     SC191250  27.884  49.663  30.570
14042DT     SC291251  27.732  49.518  30.521
14042DT     SC391252  27.700  49.840  30.503
14043DC     BB191253  28.334  49.407  30.636
14043DC     BB291254  28.111  49.176  30.471
14043DC     BB391255  28.116  49.207  30.267
14043DC     SC191256  27.973  49.426  30.289
14043DC     SC291257  27.778  49.393  30.205
14043DC     SC391258  27.907  49.681  30.278
14044DA     BB191259  28.175  48.798  30.340
14044DA     BB291260  27.924  48.831  30.074
14044DA     BB391261  28.016  48.897  29.894
14044DA     SC191262  27.974  49.199  29.955
14044DA     SC291263  27.835  49.388  29.868
14044DA     SC391264  28.008  49.540  29.981
14044DA     SC491265  28.093  49.277  30.030
14045DG     BB191266  27.919  48.628  29.761
14045DG     BB291267  27.726  48.849  29.551
14045DG     BB391268  27.838  48.915  29.400
14045DG     SC191269  27.941  49.161  29.552
14045DG     SC291270  27.879  49.445  29.487
14045DG     SC391271  28.088  49.428  29.695
14045DG     SC491272  28.073  49.147  29.641
14046DA     BB191273  27.608  48.808  29.153
14046DA     BB291274  27.565  49.152  29.035
14046DA     BB391275  27.725  49.206  28.904
14046DA     SC191276  27.904  49.320  29.131
14046DA     SC291277  27.988  49.542  29.207
14046DA     SC391278  28.169  49.409  29.331
14046DA     SC491279  28.010  49.219  29.200
14047DT     BB191280  27.704  49.246  28.683
14047DT     BB291281  27.728  49.605  28.707
14047DT     BB391282  27.907  49.669  28.624
14047DT     SC191283  28.043  49.583  28.831
14047DT     SC291284  28.119  49.752  28.942
14047DT     SC391285  28.215  49.444  28.975
14048DG     BB191286  27.613  49.858  28.415
14048DG     BB291287  27.848  50.094  28.555
14048DG     BB391288  28.011  50.103  28.440
14048DG     SC191289  28.158  49.880  28.589
14048DG     SC291290  28.405  49.912  28.754
14048DG     SC391291  28.340  49.626  28.716
14048DG     SC491292  28.137  49.728  28.542
14049DT     BB191293  28.053  50.289  28.359
14049DT     BB291294  28.327  50.397  28.568
14049DT     BB391295  28.506  50.371  28.468
14049DT     SC191296  28.498  50.111  28.505
14049DT     SC291297  28.652  50.054  28.645
14049DT     SC391298  28.485  49.853  28.452
14050DA     BB191299  28.447  50.739  28.666
14050DA     BB291300  28.777  50.605  28.754
14050DA     BB391301  28.905  50.603  28.583
14050DA     SC191302  28.824  50.315  28.497
14050DA     SC291303  28.929  50.089  28.487
14050DA     SC391304  28.745  50.033  28.318
14050DA     SC491305  28.703  50.300  28.392
14051DA     BB191306  29.050  50.733  28.849
14051DA     BB291307  29.310  50.481  28.789
14051DA     BB391308  29.404  50.515  28.601
14051DA     SC191309  29.208  50.333  28.442
14051DA     SC291310  29.214  50.113  28.324
14051DA     SC391311  29.003  50.195  28.203
14051DA     SC491312  29.078  50.402  28.377
14052DT     BB191313  29.573  50.556  28.631
14052DT     BB291314  29.726  50.260  28.493
14052DT     BB391315  29.778  50.293  28.295
14052DT     SC191316  29.528  50.275  28.218
14052DT     SC291317  29.500  50.095  28.104
14052DT     SC391318  29.293  50.343  28.118
14053DT     BB191319  30.047  50.313  28.355
14053DT     BB291320  30.039  50.070  28.089
14053DT     BB391321  30.050  50.166  27.906
14053DT     SC191322  29.801  50.246  27.923
14053DT     SC291323  29.682  50.141  27.779
14053DT     SC391324  29.593  50.407  27.941
14054DC     BB191325  30.329  50.112  27.840
14054DC     BB291326  30.157  49.998  27.545
14054DC     BB391327  30.148  50.150  27.405
14054DC     SC191328  29.963  50.276  27.540
14054DC     SC291329  29.777  50.267  27.433
14054DC     SC391330  29.842  50.464  27.681
14055DC     BB191331  30.361  50.068  27.211
14055DC     BB291332  30.072  50.110  26.998
14055DC     BB391333  30.073  50.299  26.913
14055DC     SC191334  30.000  50.409  27.139
14055DC     SC291335  29.799  50.483  27.121
14055DC     SC391336  30.008  50.559  27.356
14056DA     BB191337  30.055  50.066  26.562
14056DA     BB291338  29.789  50.317  26.534
14056DA     BB391339  29.870  50.503  26.470
14056DA     SC191340  29.922  50.608  26.759
14056DA     SC291341  29.830  50.783  26.911
14056DA     SC391342  30.052  50.760  27.037
14056DA     SC491343  30.066  50.580  26.823
14057DA     BB191344  29.650  50.489  26.224
14057DA     BB291345  29.496  50.792  26.363
14057DA     BB391346  29.604  50.965  26.301
14057DA     SC191347  29.794  50.963  26.547
14057DA     SC291348  29.833  51.101  26.752
14057DA     SC391349  30.065  50.990  26.758
14057DA     SC491350  29.934  50.885  26.533
14058DC     BB191351  29.514  51.104  26.174
14058DC     BB291352  29.453  51.356  26.425
14058DC     BB391353  29.582  51.515  26.399
14058DC     SC191354  29.784  51.379  26.495
14058DC     SC291355  29.841  51.460  26.686
14058DC     SC391356  30.016  51.255  26.508
14059DT     BB191357  29.371  51.662  26.314
14059DT     BB291358  29.506  51.848  26.592
14059DT     BB391359  29.657  51.974  26.527
14059DT     SC191360  29.823  51.773  26.500
14059DT     SC291361  29.977  51.787  26.650
14059DT     SC391362  29.985  51.598  26.387
14060DC     BB191363  29.491  52.182  26.568
14060DC     BB291364  29.783  52.259  26.765
14060DC     BB391365  29.924  52.355  26.648
14060DC     SC191366  29.988  52.131  26.527
14060DC     SC291367  30.186  52.072  26.587
14060DC     SC391368  30.019  51.953  26.336
14061DC     BB191369  29.874  52.598  26.770
14061DC     BB291370  30.230  52.553  26.810
14061DC     BB391371  30.330  52.632  26.647
14061DC     SC191372  30.258  52.430  26.495
14061DC     SC291373  30.431  52.310  26.450
14061DC     SC391374  30.144  52.295  26.299
14062DT     BB191375  30.416  52.833  26.803
14062DT     BB291376  30.717  52.687  26.668
14062DT     BB391377  30.757  52.768  26.482
14062DT     SC191378  30.564  52.628  26.371
14062DT     SC291379  30.650  52.477  26.243
14062DT     SC391380  30.340  52.570  26.245
14063DA     BB191381  31.109  52.811  26.706
14063DA     BB291382  31.200  52.664  26.383
14063DA     BB391383  31.187  52.811  26.229
14063DA     SC191384  30.890  52.750  26.160
14063DA     SC291385  30.762  52.648  25.972
14063DA     SC391386  30.560  52.772  26.070
14063DA     SC491387  30.777  52.836  26.235
14064DG     BB191388  31.492  52.756  26.186
14064DG     BB291389  31.381  52.637  25.864
14064DG     BB391390  31.359  52.790  25.739
14064DG     SC191391  31.067  52.841  25.813
14064DG     SC291392  30.831  52.802  25.633
14064DG     SC391393  30.752  52.938  25.884
14064DG     SC491394  31.033  52.939  25.935
14065DA     BB191395  31.562  52.617  25.515
14065DA     BB291396  31.291  52.615  25.269
14065DA     BB391397  31.273  52.806  25.175
14065DA     SC191398  31.068  52.916  25.383
14065DA     SC291399  30.827  52.977  25.389
14065DA     SC391400  30.888  53.114  25.597
14065DA     SC491401  31.126  52.995  25.510
14066DC     BB191402  31.315  52.821  24.979
14066DC     BB291403  30.974  52.852  24.865
14066DC     BB391404  30.935  53.049  24.814
14066DC     SC191405  30.923  53.120  25.066
14066DC     SC291406  30.720  53.170  25.117
14066DC     SC391407  30.982  53.241  25.293
14067DT     BB191408  30.934  52.984  24.549
14067DT     BB291409  30.610  53.133  24.608
14067DT     BB391410  30.622  53.338  24.586
14067DT     SC191411  30.744  53.364  24.817
14067DT     SC291412  30.613  53.460  24.958
14067DT     SC391413  30.932  53.419  24.993
14068DA     BB191414  30.306  53.208  24.343
14068DA     BB291415  30.183  53.487  24.547
14068DA     BB391416  30.264  53.671  24.477
14068DA     SC191417  30.513  53.661  24.662
14068DA     SC291418  30.600  53.783  24.862
14068DA     SC391419  30.829  53.688  24.795
14068DA     SC491420  30.647  53.594  24.603
14069DT     BB191421  30.137  53.806  24.398
14069DT     BB291422  30.137  54.033  24.679
14069DT     BB391423  30.251  54.200  24.635
14069DT     SC191424  30.474  54.064  24.665
14069DT     SC291425  30.576  54.132  24.842
14069DT     SC391426  30.705  53.950  24.606
14070DA     BB191427  29.877  54.329  24.773
14070DA     BB291428  30.136  54.507  24.962
14070DA     BB391429  30.230  54.653  24.838
14070DA     SC191430  30.453  54.460  24.738
14070DA     SC291431  30.699  54.431  24.767
14070DA     SC391432  30.688  54.294  24.551
14070DA     SC491433  30.426  54.379  24.602
14071DG     BB191434  30.122  54.840  25.057
14071DG     BB291435  30.474  54.892  25.120
14071DG     BB391436  30.547  55.024  24.990
14071DG     SC191437  30.623  54.812  24.781
14071DG     SC291438  30.900  54.740  24.698
14071DG     SC391439  30.700  54.610  24.523
14071DG     SC491440  30.514  54.769  24.672
14072DA     BB191441  30.668  55.181  25.271
14072DA     BB291442  31.010  55.145  25.144
14072DA     BB391443  31.045  55.285  24.987
14072DA     SC191444  30.954  55.092  24.760
14072DA     SC291445  31.057  54.966  24.572
14072DA     SC391446  30.820  54.957  24.474
14072DA     SC491447  30.799  55.099  24.715
14073DA     BB191448  31.296  55.345  25.187
14073DA     BB291449  31.514  55.253  24.907
14073DA     BB391450  31.516  55.407  24.760
14073DA     SC191451  31.278  55.289  24.598
14073DA     SC291452  31.241  55.179  24.377
14073DA     SC391453  30.995  55.246  24.407
14073DA     SC491454  31.130  55.341  24.634
14074DG     BB191455  31.818  55.409  24.824
14074DG     BB291456  31.846  55.305  24.479
14074DG     BB391457  31.834  55.463  24.359
14074DG     SC191458  31.530  55.449  24.331
14074DG     SC291459  31.380  55.385  24.081
14074DG     SC391460  31.195  55.475  24.294
14074DG     SC491461  31.438  55.526  24.438
14075DT     BB191462  32.003  55.516  24.232
14075DT     BB291463  31.885  55.415  23.907
14075DT     BB391464  31.825  55.581  23.799
14075DT     SC191465  31.605  55.604  23.940
14075DT     SC291466  31.436  55.554  23.817
14075DT     SC391467  31.425  55.704  24.104
14076DT     BB191468  32.042  55.550  23.643
14076DT     BB291469  31.765  55.544  23.413
14076DT     BB391470  31.714  55.737  23.358
14076DT     SC191471  31.601  55.781  23.591
14076DT     SC291472  31.388  55.797  23.565
14076DT     SC391473  31.554  55.887  23.828
14077DT     BB191474  31.817  55.688  23.114
14077DT     BB291475  31.478  55.792  23.050
14077DT     BB391476  31.468  55.998  23.039
14077DT     SC191477  31.491  56.021  23.299
14077DT     SC291478  31.305  56.090  23.382
14077DT     SC391479  31.591  56.086  23.535
14078DA     BB191480  31.283  55.847  22.694
14078DA     BB291481  31.062  56.103  22.836
14078DA     BB391482  31.142  56.298  22.802
14078DA     SC191483  31.302  56.305  23.069
14078DA     SC291484  31.293  56.427  23.287
14078DA     SC391485  31.539  56.359  23.312
14078DA     SC491486  31.455  56.254  23.066
14079DT     BB191487  31.043  56.424  22.678
14079DT     BB291488  30.917  56.649  22.930
14079DT     BB391489  31.026  56.825  22.929
14079DT     SC191490  31.230  56.709  23.046
14079DT     SC291491  31.250  56.785  23.246
14079DT     SC391492  31.473  56.615  23.084
14080DC     BB191493  30.821  56.970  22.809
14080DC     BB291494  30.896  57.159  23.107
14080DC     BB391495  31.044  57.298  23.068
14080DC     SC191496  31.229  57.111  23.064
14080DC     SC291497  31.356  57.134  23.236
14080DC     SC391498  31.420  56.953  22.975
14081DG     BB191499  30.735  57.542  23.185
14081DG     BB291500  31.035  57.622  23.370
14081DG     BB391501  31.151  57.742  23.263
14081DG     SC191502  31.304  57.514  23.127
14081DG     SC291503  31.593  57.449  23.166
14081DG     SC391504  31.478  57.289  22.945
14081DG     SC491505  31.247  57.452  22.991
14082DT     BB191506  31.210  57.966  23.317
14082DT     BB291507  31.551  57.921  23.426
14082DT     BB391508  31.681  57.997  23.283
14082DT     SC191509  31.639  57.792  23.125
14082DT     SC291510  31.817  57.671  23.116
14082DT     SC391511  31.564  57.653  22.913
14083DA     BB191512  31.793  58.179  23.644
14083DA     BB291513  32.097  58.043  23.490
14083DA     BB391514  32.158  58.165  23.327
14083DA     SC191515  31.995  58.006  23.115
14083DA     SC291516  32.040  57.853  22.923
14083DA     SC391517  31.803  57.914  22.845
14083DA     SC491518  31.846  58.057  23.082
14084DT     BB191519  32.330  58.260  23.346
14084DT     BB291520  32.521  58.051  23.123
14084DT     BB391521  32.551  58.149  22.943
14084DT     SC191522  32.302  58.107  22.870
14084DT     SC291523  32.298  57.965  22.708
14084DT     SC391524  32.052  58.155  22.801
14085DT     BB191525  32.808  58.176  23.012
14085DT     BB291526  32.816  58.004  22.695
14085DT     BB391527  32.807  58.141  22.540
14085DT     SC191528  32.552  58.183  22.581
14085DT     SC291529  32.439  58.101  22.418
14085DT     SC391530  32.327  58.307  22.642
14086DA     BB191531  33.138  57.893  22.464
14086DA     BB291532  32.944  57.921  22.153
14086DA     BB391533  32.970  58.114  22.067
14086DA     SC191534  32.727  58.239  22.215
14086DA     SC291535  32.499  58.324  22.157
14086DA     SC391536  32.513  58.451  22.380
14086DA     SC491537  32.755  58.311  22.356
14087DA     BB191538  33.063  57.950  21.791
14087DA     BB291539  32.784  58.112  21.618
14087DA     BB391540  32.832  58.314  21.571
14087DA     SC191541  32.718  58.428  21.837
14087DA     SC291542  32.524  58.568  21.909
14087DA     SC391543  32.661  58.612  22.122
14087DA     SC491544  32.819  58.445  21.960
14088DC     BB191545  32.873  58.412  21.357
14088DC     BB291546  32.561  58.591  21.333
14088DC     BB391547  32.596  58.795  21.343
14088DC     SC191548  32.642  58.783  21.602
14088DC     SC291549  32.481  58.880  21.707
14088DC     SC391550  32.769  58.798  21.832
14089DG     BB191551  32.436  58.794  20.959
14089DG     BB291552  32.259  59.031  21.167
14089DG     BB391553  32.353  59.206  21.165
14089DG     SC191554  32.532  59.141  21.405
14089DG     SC291555  32.521  59.272  21.673
14089DG     SC391556  32.757  59.094  21.652
14089DG     SC491557  32.672  59.068  21.379
14090DT     BB191558  32.279  59.449  21.073
14090DT     BB291559  32.186  59.594  21.390
14090DT     BB391560  32.313  59.751  21.436
14090DT     SC191561  32.507  59.585  21.498
14090DT     SC291562  32.541  59.592  21.710
14090DT     SC391563  32.740  59.462  21.490
14091DT     BB191564  32.116  59.941  21.390
14091DT     BB291565  32.200  59.974  21.739
14091DT     BB391566  32.351  60.113  21.763
14091DT     SC191567  32.531  59.946  21.671
14091DT     SC291568  32.662  59.886  21.831
14091DT     SC391569  32.717  59.842  21.514
14092DA     BB191570  32.017  60.135  22.017
14092DA     BB291571  32.323  60.128  22.219
14092DA     BB391572  32.435  60.308  22.191
14092DA     SC191573  32.603  60.196  21.954
14092DA     SC291574  32.839  60.129  21.911
14092DA     SC391575  32.780  60.158  21.663
14092DA     SC491576  32.547  60.221  21.805
14093DG     BB191577  32.365  60.239  22.482
14093DG     BB291578  32.726  60.220  22.499
14093DG     BB391579  32.804  60.401  22.477
14093DG     SC191580  32.825  60.382  22.172
14093DG     SC291581  33.078  60.372  22.014
14093DG     SC391582  32.844  60.403  21.836
14093DG     SC491583  32.701  60.428  22.083
14094DT     BB191584  32.904  60.424  22.629
14094DT     BB291585  33.243  60.414  22.506
14094DT     BB391586  33.304  60.604  22.449
14094DT     SC191587  33.158  60.593  22.231
14094DT     SC291588  33.287  60.580  22.060
14094DT     SC391589  32.971  60.651  22.054
14095DC     BB191590  33.457  60.578  22.659
14095DC     BB291591  33.679  60.654  22.385
14095DC     BB391592  33.677  60.857  22.346
14095DC     SC191593  33.441  60.840  22.232
14095DC     SC291594  33.462  60.875  22.020
14095DC     SC391595  33.184  60.876  22.187
14096DT     BB191596  33.923  60.874  22.452
14096DT     BB291597  33.956  61.018  22.123
14096DT     BB391598  33.902  61.218  22.128
14096DT     SC191599  33.647  61.157  22.144
14096DT     SC291600  33.549  61.211  21.960
14096DT     SC391601  33.402  61.138  22.240
14097DT     BB191602  34.163  61.298  22.103
14097DT     BB291603  33.994  61.461  21.829
14097DT     BB391604  33.917  61.643  21.892
14097DT     SC191605  33.723  61.525  22.023
14097DT     SC291606  33.536  61.564  21.924
14097DT     SC391607  33.571  61.445  22.224
14098DC     BB191608  34.108  61.783  21.753
14098DC     BB291609  33.795  61.911  21.627
14098DC     BB391610  33.731  62.069  21.745
14098DC     SC191611  33.658  61.905  21.938
14098DC     SC291612  33.444  61.903  21.952
14098DC     SC391613  33.651  61.788  22.174
14099DG     BB191614  33.763  62.212  21.366
14099DG     BB291615  33.436  62.280  21.505
14099DG     BB391616  33.446  62.436  21.628
14099DG     SC191617  33.508  62.266  21.876
14099DG     SC291618  33.330  62.229  22.112
14099DG     SC391619  33.597  62.114  22.163
14099DG     SC491620  33.661  62.233  21.910
14100DT     BB191621  33.332  62.610  21.582
14100DT     BB291622  33.065  62.591  21.825
14100DT     BB391623  33.102  62.721  21.981
14100DT     SC191624  33.287  62.562  22.079
14100DT     SC291625  33.217  62.477  22.264
14100DT     SC391626  33.523  62.475  22.158
14101DA     BB191627  32.712  62.784  21.841
14101DA     BB291628  32.699  62.759  22.206
14101DA     BB391629  32.785  62.933  22.296
14101DA     SC191630  33.072  62.814  22.310
14101DA     SC291631  33.230  62.734  22.485
14101DA     SC391632  33.412  62.768  22.308
14101DA     SC491633  33.170  62.842  22.186
14102DC     BB191634  32.663  63.046  22.395
14102DC     BB291635  32.781  62.963  22.726
14102DC     BB391636  32.904  63.114  22.797
14102DC     SC191637  33.100  63.039  22.640
14102DC     SC291638  33.258  62.956  22.759
14102DC     SC391639  33.282  63.046  22.449
14103DA     BB191640  32.614  63.050  23.094
14103DA     BB291641  32.943  63.058  23.257
14103DA     BB391642  33.017  63.257  23.264
14103DA     SC191643  33.166  63.237  22.992
14103DA     SC291644  33.402  63.229  22.910
14103DA     SC391645  33.305  63.300  22.684
14103DA     SC491646  33.087  63.283  22.860
14104DC     BB191647  33.039  63.359  23.446
14104DC     BB291648  33.399  63.344  23.464
14104DC     BB391649  33.480  63.530  23.422
14104DC     SC191650  33.429  63.504  23.166
14104DC     SC291651  33.614  63.482  23.059
14104DC     SC391652  33.325  63.549  22.928
14105DA     BB191653  33.650  63.417  23.789
14105DA     BB291654  33.922  63.529  23.571
14105DA     BB391655  33.920  63.742  23.553
14105DA     SC191656  33.735  63.743  23.303
14105DA     SC291657  33.753  63.795  23.059
14105DA     SC391658  33.498  63.820  23.066
14105DA     SC491659  33.577  63.755  23.327
14106DA     BB191660  34.236  63.726  23.653
14106DA     BB291661  34.330  63.875  23.332
14106DA     BB391662  34.293  64.085  23.335
14106DA     SC191663  34.003  64.060  23.224
14106DA     SC291664  33.880  64.115  23.014
14106DA     SC391665  33.669  64.103  23.159
14106DA     SC491666  33.883  64.050  23.331
14107DT     BB191667  34.452  64.231  23.328
14107DT     BB291668  34.401  64.331  22.985
14107DT     BB391669  34.319  64.521  22.978
14107DT     SC191670  34.084  64.430  23.051
14107DT     SC291671  33.947  64.444  22.886
14107DT     SC391672  33.866  64.392  23.195
14108DT     BB191673  34.555  64.642  22.893
14108DT     BB291674  34.315  64.729  22.638
14108DT     BB391675  34.219  64.906  22.688
14108DT     SC191676  34.075  64.786  22.871
14108DT     SC291677  33.870  64.780  22.808
14108DT     SC391678  33.977  64.722  23.108
14109DG     BB191679  34.395  64.983  22.327
14109DG     BB291680  34.042  65.058  22.319
14109DG     BB391681  34.008  65.236  22.401
14109DG     SC191682  33.971  65.126  22.684
14109DG     SC291683  33.716  65.127  22.841
14109DG     SC391684  33.944  65.041  23.010
14109DG     SC491685  34.099  65.109  22.779
14110DT     BB191686  33.921  65.412  22.285
14110DT     BB291687  33.582  65.410  22.408
14110DT     BB391688  33.553  65.568  22.538
14110DT     SC191689  33.689  65.448  22.728
14110DT     SC291690  33.555  65.390  22.886
14110DT     SC391691  33.878  65.399  22.905
14111DA     BB191692  33.250  65.572  22.250
14111DA     BB291693  33.094  65.593  22.581
14111DA     BB391694  33.124  65.786  22.665
14111DA     SC191695  33.389  65.709  22.809
14111DA     SC291696  33.469  65.675  23.043
14111DA     SC391697  33.704  65.709  22.946
14111DA     SC491698  33.526  65.735  22.730
14112DT     BB191699  32.961  65.900  22.692
14112DT     BB291700  32.942  65.862  23.051
14112DT     BB391701  33.004  66.036  23.144
14112DT     SC191702  33.255  65.984  23.089
14112DT     SC291703  33.360  65.937  23.271
14112DT     SC391704  33.497  66.009  22.987
14113DA     BB191705  32.633  65.928  23.302
14113DA     BB291706  32.857  66.000  23.583
14113DA     BB391707  32.888  66.210  23.602
14113DA     SC191708  33.138  66.215  23.416
14113DA     SC291709  33.383  66.251  23.439
14113DA     SC391710  33.379  66.300  23.187
14113DA     SC491711  33.114  66.244  23.260
14114DT     BB191712  32.815  66.299  23.766
14114DT     BB291713  33.131  66.353  23.931
14114DT     BB391714  33.184  66.552  23.919
14114DT     SC191715  33.250  66.528  23.666
14114DT     SC291716  33.463  66.546  23.646
14114DT     SC391717  33.247  66.562  23.405
14115DA     BB191718  33.211  66.436  24.320
14115DA     BB291719  33.519  66.617  24.236
14115DA     BB391720  33.480  66.826  24.220
14115DA     SC191721  33.417  66.817  23.916
14115DA     SC291722  33.521  66.895  23.703
14115DA     SC391723  33.286  66.871  23.603
14115DA     SC491724  33.263  66.797  23.873
14116DA     BB191725  33.728  66.832  24.433
14116DA     BB291726  33.910  67.039  24.190
14116DA     BB391727  33.833  67.238  24.191
14116DA     SC191728  33.622  67.184  23.969
14116DA     SC291729  33.584  67.248  23.731
14116DA     SC391730  33.340  67.182  23.773
14116DA     SC491731  33.475  67.140  24.016
14117DA     BB191732  34.151  67.302  24.236
14117DA     BB291733  34.137  67.502  23.929
14117DA     BB391734  34.037  67.687  23.965
14117DA     SC191735  33.756  67.577  23.892
14117DA     SC291736  33.588  67.606  23.709
14117DA     SC391737  33.419  67.512  23.877
14117DA     SC491738  33.666  67.518  24.011
14118DC     BB191739  34.144  67.858  23.955
14118DC     BB291740  34.004  67.987  23.648
14118DC     BB391741  33.873  68.142  23.690
14118DC     SC191742  33.691  67.974  23.775
14118DC     SC291743  33.526  67.970  23.637
14118DC     SC391744  33.523  67.850  23.938
14119DT     BB191745  34.049  68.338  23.601
14119DT     BB291746  33.748  68.408  23.416
14119DT     BB391747  33.628  68.539  23.523
14119DT     SC191748  33.556  68.350  23.689
14119DT     SC291749  33.349  68.302  23.658
14119DT     SC391750  33.527  68.214  23.914
14120DC     BB191751  33.684  68.780  23.372
14120DC     BB291752  33.323  68.772  23.374
14120DC     BB391753  33.250  68.882  23.533
14120DC     SC191754  33.318  68.694  23.704
14120DC     SC291755  33.140  68.601  23.782
14120DC     SC391756  33.439  68.573  23.904
14121DA     BB191757  33.042  69.111  23.236
14121DA     BB291758  32.793  69.039  23.495
14121DA     BB391759  32.809  69.178  23.655
14121DA     SC191760  33.010  69.005  23.818
14121DA     SC291761  33.011  68.873  24.029
14121DA     SC391762  33.266  68.895  24.018
14121DA     SC491763  33.167  69.031  23.794
14122DT     BB191764  32.658  69.372  23.735
14122DT     BB291765  32.529  69.199  24.024
14122DT     BB391766  32.590  69.295  24.197
14122DT     SC191767  32.833  69.202  24.173
14122DT     SC291768  32.870  69.058  24.328
14122DT     SC391769  33.095  69.196  24.140
14123DT     BB191770  32.340  69.430  24.274
14123DT     BB291771  32.420  69.231  24.564
14123DT     BB391772  32.524  69.345  24.701
14123DT     SC191773  32.743  69.335  24.557
14123DT     SC291774  32.889  69.214  24.657
14123DT     SC391775  32.946  69.414  24.409
14124DG     BB191776  32.191  69.228  24.908
14124DG     BB291777  32.493  69.137  25.087
14124DG     BB391778  32.560  69.294  25.189
14124DG     SC191779  32.735  69.399  24.962
14124DG     SC291780  33.034  69.410  24.961
14124DG     SC391781  32.922  69.554  24.728
14124DG     SC491782  32.671  69.500  24.855
14125DA     BB191783  32.563  69.080  25.460
14125DA     BB291784  32.925  69.129  25.494
14125DA     BB391785  32.966  69.317  25.585
14125DA     SC191786  32.983  69.472  25.316
14125DA     SC291787  33.158  69.583  25.178
14125DA     SC391788  32.963  69.708  25.068
14125DA     SC491789  32.849  69.541  25.261
14126DG     BB191790  33.101  69.134  25.794
14126DG     BB291791  33.400  69.304  25.682
14126DG     BB391792  33.416  69.481  25.771
14126DG     SC191793  33.258  69.631  25.556
14126DG     SC291794  33.367  69.838  25.371
14126DG     SC391795  33.072  69.824  25.351
14126DG     SC491796  33.098  69.641  25.570
14127DG     BB191797  33.707  69.387  25.888
14127DG     BB291798  33.847  69.661  25.698
14127DG     BB391799  33.831  69.830  25.801
14127DG     SC191800  33.555  69.901  25.688
14127DG     SC291801  33.494  70.132  25.508
14127DG     SC391802  33.245  70.000  25.599
14127DG     SC491803  33.424  69.847  25.762
14128DA     BB191804  34.172  69.878  25.751
14128DA     BB291805  34.104  70.195  25.578
14128DA     BB391806  34.059  70.348  25.719
14128DA     SC191807  33.752  70.295  25.716
14128DA     SC291808  33.546  70.409  25.636
14128DA     SC391809  33.422  70.258  25.801
14128DA     SC491810  33.694  70.193  25.826
14129DC     BB191811  34.189  70.512  25.748
14129DC     BB291812  33.986  70.757  25.576
14129DC     BB391813  33.901  70.886  25.713
14129DC     SC191814  33.728  70.704  25.789
14129DC     SC291815  33.531  70.761  25.724
14129DC     SC391816  33.600  70.533  25.943
14130DA     BB191817  34.093  71.127  25.430
14130DA     BB291818  33.751  71.253  25.469
14130DA     BB391819  33.732  71.360  25.653
14130DA     SC191820  33.646  71.111  25.818
14130DA     SC291821  33.441  71.026  25.931
14130DA     SC391822  33.600  70.877  26.065
14130DA     SC491823  33.762  71.028  25.892
14131DA     BB191824  33.621  71.584  25.444
14131DA     BB291825  33.302  71.565  25.625
14131DA     BB391826  33.317  71.669  25.811
14131DA     SC191827  33.408  71.418  25.971
14131DA     SC291828  33.315  71.267  26.146
14131DA     SC391829  33.560  71.204  26.192
14131DA     SC491830  33.567  71.393  25.986
14132DC     BB191831  33.203  71.810  25.812
14132DC     BB291832  32.958  71.668  26.035
14132DC     BB391833  32.988  71.738  26.227
14132DC     SC191834  33.198  71.583  26.259
14132DC     SC291835  33.152  71.429  26.401
14132DC     SC391836  33.448  71.510  26.297
14133DA     BB191837  32.587  71.766  26.105
14133DA     BB291838  32.598  71.613  26.438
14133DA     BB391839  32.660  71.756  26.583
14133DA     SC191840  32.963  71.690  26.556
14133DA     SC291841  33.141  71.582  26.692
14133DA     SC391842  33.305  71.706  26.539
14133DA     SC491843  33.048  71.776  26.451
14134DA     BB191844  32.386  71.624  26.703
14134DA     BB291845  32.589  71.528  26.993
14134DA     BB391846  32.645  71.701  27.105
14134DA     SC191847  32.910  71.745  26.949
14134DA     SC291848  33.155  71.727  26.992
14134DA     SC391849  33.182  71.882  26.789
14134DA     SC491850  32.906  71.843  26.821
14135DT     BB191851  32.570  71.701  27.273
14135DT     BB291852  32.871  71.637  27.461
14135DT     BB391853  32.948  71.815  27.535
14135DT     SC191854  33.036  71.884  27.297
14135DT     SC291855  33.251  71.876  27.297
14135DT     SC391856  33.065  72.019  27.073
14136DA     BB191857  32.920  71.555  27.864
14136DA     BB291858  33.250  71.713  27.875
14136DA     BB391859  33.233  71.918  27.933
14136DA     SC191860  33.205  72.024  27.642
14136DA     SC291861  33.340  72.157  27.481
14136DA     SC391862  33.117  72.200  27.361
14136DA     SC491863  33.056  72.040  27.583
14137DG     BB191864  33.411  71.857  28.190
14137DG     BB291865  33.640  72.092  28.039
14137DG     BB391866  33.589  72.278  28.087
14137DG     SC191867  33.403  72.316  27.847
14137DG     SC291868  33.447  72.504  27.619
14137DG     SC391869  33.177  72.384  27.607
14137DG     SC491870  33.249  72.273  27.860
14138DG     BB191871  33.876  72.372  28.253
14138DG     BB291872  33.923  72.623  27.997
14138DG     BB391873  33.832  72.791  28.049
14138DG     SC191874  33.566  72.717  27.918
14138DG     SC291875  33.443  72.853  27.682
14138DG     SC391876  33.254  72.660  27.803
14138DG     SC491877  33.457  72.636  28.003
14139DA     BB191878  34.118  73.014  28.026
14139DA     BB291879  33.957  73.206  27.759
14139DA     BB391880  33.829  73.355  27.841
14139DA     SC191881  33.577  73.173  27.845
14139DA     SC291882  33.359  73.156  27.726
14139DA     SC391883  33.282  73.017  27.927
14139DA     SC491884  33.548  73.090  27.980
14140DA     BB191885  33.994  73.599  27.676
14140DA     BB291886  33.688  73.657  27.484
14140DA     BB391887  33.558  73.789  27.590
14140DA     SC191888  33.407  73.561  27.738
14140DA     SC291889  33.180  73.457  27.735
14140DA     SC391890  33.240  73.370  27.969
14140DA     SC491891  33.462  73.517  27.883
14141DT     BB191892  33.504  73.996  27.520
14141DT     BB291893  33.180  73.900  27.394
14141DT     BB391894  33.031  73.987  27.509
14141DT     SC191895  33.074  73.817  27.705
14141DT     SC291896  32.907  73.683  27.721
14141DT     SC391897  33.139  73.725  27.943
14142DA     BB191898  32.970  74.055  27.102
14142DA     BB291899  32.665  73.908  27.242
14142DA     BB391900  32.562  74.051  27.363
14142DA     SC191901  32.708  73.969  27.626
14142DA     SC291902  32.652  73.855  27.840
14142DA     SC391903  32.863  73.968  27.932
14142DA     SC491904  32.842  74.049  27.665
14143DA     BB191905  32.359  73.918  27.150
14143DA     BB291906  32.174  73.801  27.445
14143DA     BB391907  32.085  73.966  27.547
14143DA     SC191908  32.329  74.015  27.734
14143DA     SC291909  32.385  73.989  27.975
14143DA     SC391910  32.575  74.155  27.928
14143DA     SC491911  32.441  74.120  27.685
14144DG     BB191912  31.865  73.767  27.474
14144DG     BB291913  31.836  73.751  27.834
14144DG     BB391914  31.751  73.917  27.903
14144DG     SC191915  32.016  74.067  27.938
14144DG     SC291916  32.137  74.151  28.198
14144DG     SC391917  32.285  74.268  27.971
14144DG     SC491918  32.074  74.151  27.815
14145DC     BB191919  31.584  73.878  28.000
14145DC     BB291920  31.674  73.941  28.343
14145DC     BB391921  31.621  74.135  28.396
14145DC     SC191922  31.822  74.235  28.260
14145DC     SC291923  31.967  74.317  28.396
14145DC     SC391924  31.954  74.372  28.077
14146DA     BB191925  31.474  73.867  28.684
14146DA     BB291926  31.636  74.146  28.859
14146DA     BB391927  31.518  74.323  28.841
14146DA     SC191928  31.660  74.420  28.581
14146DA     SC291929  31.815  74.602  28.512
14146DA     SC391930  31.732  74.555  28.274
14146DA     SC491931  31.595  74.376  28.440
14147DA     BB191932  31.549  74.316  29.168
14147DA     BB291933  31.709  74.645  29.141
14147DA     BB391934  31.563  74.796  29.100
14147DA     SC191935  31.589  74.771  28.791
14147DA     SC291936  31.678  74.908  28.602
14147DA     SC391937  31.529  74.761  28.453
14147DA     SC491938  31.490  74.670  28.716
14148DA     BB191939  31.698  74.936  29.366
14148DA     BB291940  31.783  75.220  29.151
14148DA     BB391941  31.610  75.338  29.111
14148DA     SC191942  31.534  75.181  28.853
14148DA     SC291943  31.530  75.222  28.607
14148DA     SC391944  31.366  75.024  28.598
14148DA     SC491945  31.433  75.057  28.868
14149DA     BB191946  31.801  75.580  29.225
14149DA     BB291947  31.762  75.742  28.899
14149DA     BB391948  31.569  75.830  28.882
14149DA     SC191949  31.437  75.577  28.759
14149DA     SC291950  31.343  75.507  28.539
14149DA     SC391951  31.219  75.326  28.672
14149DA     SC491952  31.367  75.473  28.860
14150DT     BB191953  31.555  76.033  28.871
14150DT     BB291954  31.469  76.055  28.521
14150DT     BB391955  31.268  76.098  28.500
14150DT     SC191956  31.200  75.853  28.566
14150DT     SC291957  31.121  75.753  28.393
14150DT     SC391958  31.094  75.653  28.700
14151DT     BB191959  31.323  76.356  28.422
14151DT     BB291960  31.121  76.224  28.154
14151DT     BB391961  30.920  76.255  28.195
14151DT     SC191962  30.920  76.062  28.373
14151DT     SC291963  30.804  75.897  28.299
14151DT     SC391964  30.900  75.939  28.606
14152DC     BB191965  30.905  76.451  28.006
14152DC     BB291966  30.649  76.215  27.911
14152DC     BB391967  30.473  76.259  28.011
14152DC     SC191968  30.567  76.161  28.236
14152DC     SC291969  30.463  75.979  28.284
14152DC     SC391970  30.650  76.149  28.486
14153DT     BB191971  30.346  76.365  27.786
14153DT     BB291972  30.121  76.105  27.898
14153DT     BB391973  29.986  76.183  28.034
14153DT     SC191974  30.169  76.192  28.222
14153DT     SC291975  30.124  76.045  28.373
14153DT     SC391976  30.334  76.289  28.403
14154DT     BB191977  29.765  76.184  27.858
14154DT     BB291978  29.652  75.985  28.137
14154DT     BB391979  29.560  76.107  28.277
14154DT     SC191980  29.791  76.202  28.358
14154DT     SC291981  29.832  76.130  28.557
14154DT     SC391982  29.985  76.374  28.408
14155DA     BB191983  29.273  75.811  28.198
14155DA     BB291984  29.314  75.829  28.562
14155DA     BB391985  29.214  76.001  28.639
14155DA     SC191986  29.461  76.187  28.614
14155DA     SC291987  29.622  76.303  28.766
14155DA     SC391988  29.671  76.455  28.565
14155DA     SC491989  29.477  76.272  28.478
14156DA     BB191990  29.070  75.776  28.829
14156DA     BB291991  29.231  75.943  29.113
14156DA     BB391992  29.125  76.120  29.165
14156DA     SC191993  29.292  76.304  28.978
14156DA     SC291994  29.462  76.486  29.001
14156DA     SC391995  29.397  76.549  28.761
14156DA     SC491996  29.237  76.329  28.829
14157DC     BB191997  29.048  76.113  29.338
14157DC     BB291998  29.293  76.325  29.497
14157DC     BB391999  29.215  76.515  29.525
14157DC     SC192000  29.240  76.571  29.270
14157DC     SC292001  29.394  76.719  29.244
14157DC     SC392002  29.175  76.633  29.022
14158DA     BB192003  29.414  76.341  29.852
14158DA     BB292004  29.544  76.679  29.797
14158DA     BB392005  29.394  76.824  29.841
14158DA     SC192006  29.284  76.833  29.550
14158DA     SC292007  29.280  76.992  29.358
14158DA     SC392008  29.082  76.853  29.273
14158DA     SC492009  29.162  76.734  29.514
14159DA     BB192010  29.695  76.877  29.967
14159DA     BB292011  29.671  77.197  29.789
14159DA     BB392012  29.507  77.311  29.863
14159DA     SC192013  29.304  77.196  29.657
14159DA     SC292014  29.177  77.276  29.458
14159DA     SC392015  29.023  77.075  29.501
14159DA     SC492016  29.219  77.066  29.701
14160DT     BB192017  29.604  77.424  29.899
14160DT     BB292018  29.481  77.670  29.665
14160DT     BB392019  29.305  77.753  29.735
14160DT     SC192020  29.170  77.536  29.675
14160DT     SC292021  29.038  77.578  29.510
14160DT     SC392022  29.023  77.319  29.704
14161DA     BB192023  29.579  78.046  29.595
14161DA     BB292024  29.241  78.135  29.484
14161DA     BB392025  29.118  78.184  29.651
14161DA     SC192026  29.016  77.892  29.691
14161DA     SC292027  28.802  77.767  29.662
14161DA     SC392028  28.906  77.595  29.822
14161DA     SC492029  29.097  77.798  29.792
14162DA     BB192030  29.057  78.471  29.491
14162DA     BB292031  28.700  78.391  29.512
14162DA     BB392032  28.630  78.418  29.712
14162DA     SC192033  28.689  78.125  29.799
14162DA     SC292034  28.560  77.921  29.859
14162DA     SC392035  28.775  77.843  29.974
14162DA     SC492036  28.832  78.095  29.866
14163DT     BB192037  28.485  78.585  29.799
14163DT     BB292038  28.198  78.372  29.851
14163DT     BB392039  28.164  78.347  30.053
14163DT     SC192040  28.368  78.182  30.074
14163DT     SC292041  28.295  77.983  30.112
14163DT     SC392042  28.601  78.085  30.149
14164DA     BB192043  27.784  78.501  29.948
14164DA     BB292044  27.723  78.196  30.142
14164DA     BB392045  27.743  78.236  30.351
14164DA     SC192046  28.046  78.166  30.360
14164DA     SC292047  28.192  77.987  30.454
14164DA     SC392048  28.382  78.158  30.430
14164DA     SC492049  28.151  78.287  30.338
14165DA     BB192050  27.437  78.114  30.381
14165DA     BB292051  27.582  77.844  30.582
14165DA     BB392052  27.615  77.911  30.782
14165DA     SC192053  27.905  78.009  30.727
14165DA     SC292054  28.138  77.942  30.789
14165DA     SC392055  28.202  78.183  30.726
14165DA     SC492056  27.925  78.163  30.685
14166DA     BB192057  27.440  77.642  30.832
14166DA     BB292058  27.733  77.510  31.009
14166DA     BB392059  27.752  77.603  31.200
14166DA     SC192060  27.933  77.834  31.098
14166DA     SC292061  28.170  77.907  31.120
14166DA     SC392062  28.085  78.137  31.047
14166DA     SC492063  27.860  77.970  31.052
14167DT     BB192064  27.733  77.477  31.326
14167DT     BB292065  28.080  77.460  31.425
14167DT     BB392066  28.111  77.577  31.592
14167DT     SC192067  28.098  77.798  31.451
14167DT     SC292068  28.293  77.888  31.441
14167DT     SC392069  28.013  78.031  31.362
14168DA     BB192070  28.278  77.192  31.636
14168DA     BB292071  28.526  77.440  31.743
14168DA     BB392072  28.463  77.534  31.924
14168DA     SC192073  28.313  77.765  31.780
14168DA     SC292074  28.340  78.011  31.747
14168DA     SC392075  28.089  78.011  31.692
14168DA     SC492076  28.156  77.745  31.750
14169DA     BB192077  28.767  77.437  32.015
14169DA     BB292078  28.837  77.789  32.086
14169DA     BB392079  28.733  77.852  32.261
14169DA     SC192080  28.480  77.946  32.107
14169DA     SC292081  28.367  78.161  32.051
14169DA     SC392082  28.158  78.018  32.010
14169DA     SC492083  28.360  77.840  32.087
14170DG     BB192084  29.006  77.918  32.423
14170DG     BB292085  28.880  78.257  32.427
14170DG     BB392086  28.760  78.283  32.584
14170DG     SC192087  28.506  78.198  32.436
14170DG     SC292088  28.275  78.374  32.368
14170DG     SC392089  28.212  78.091  32.310
14170DG     SC492090  28.466  78.043  32.434
14171DT     BB192091  28.768  78.431  32.832
14171DT     BB292092  28.538  78.695  32.747
14171DT     BB392093  28.368  78.682  32.865
14171DT     SC192094  28.280  78.476  32.729
14171DT     SC292095  28.106  78.534  32.616
14171DT     SC392096  28.202  78.230  32.673
14172DT     BB192097  28.390  78.901  33.091
14172DT     BB292098  28.077  78.983  32.932
14172DT     BB392099  27.920  78.908  33.044
14172DT     SC192100  27.968  78.663  32.963
14172DT     SC292101  27.810  78.598  32.832
14172DT     SC392102  28.033  78.407  32.970
14173DT     BB192103  27.811  79.155  33.174
14173DT     BB292104  27.531  79.028  32.986
14173DT     BB392105  27.408  78.916  33.109
14173DT     SC192106  27.577  78.716  33.111
14173DT     SC292107  27.494  78.551  33.001
14173DT     SC392108  27.749  78.537  33.200
14174DC     BB192109  27.202  79.109  33.118
14174DC     BB292110  27.046  78.818  32.974
14174DC     BB392111  26.960  78.703  33.123
14174DC     SC192112  27.194  78.615  33.202
14174DC     SC292113  27.212  78.406  33.154
14174DC     SC392114  27.404  78.572  33.356
14175DC     BB192115  26.722  78.779  33.024
14175DC     BB292116  26.727  78.420  32.995
14175DC     BB392117  26.662  78.334  33.172
14175DC     SC192118  26.890  78.389  33.291
14175DC     SC292119  26.998  78.206  33.327
14175DC     SC392120  27.062  78.495  33.460
14176DA     BB192121  26.469  78.176  32.836
14176DA     BB292122  26.595  77.898  33.040
14176DA     BB392123  26.481  77.881  33.220
14176DA     SC192124  26.667  78.069  33.384
14176DA     SC292125  26.831  78.050  33.571
14176DA     SC392126  26.793  78.302  33.603
14176DA     SC492127  26.629  78.226  33.388
14177DT     BB192128  26.399  77.724  33.217
14177DT     BB292129  26.605  77.562  33.465
14177DT     BB392130  26.513  77.570  33.650
14177DT     SC192131  26.572  77.825  33.677
14177DT     SC292132  26.720  77.848  33.832
14177DT     SC392133  26.541  78.085  33.702
14178DA     BB192134  26.650  77.185  33.555
14178DA     BB292135  26.756  77.267  33.897
14178DA     BB392136  26.587  77.273  34.027
14178DA     SC192137  26.534  77.576  33.984
14178DA     SC292138  26.551  77.787  34.116
14178DA     SC392139  26.388  77.884  33.944
14178DA     SC492140  26.431  77.618  33.868
14179DA     BB192141  26.803  77.076  34.173
14179DA     BB292142  26.786  77.309  34.456
14179DA     BB392143  26.596  77.295  34.552
14179DA     SC192144  26.464  77.516  34.378
14179DA     SC292145  26.380  77.749  34.407
14179DA     SC392146  26.246  77.706  34.193
14179DA     SC492147  26.387  77.470  34.244
14180DA     BB192148  26.810  77.262  34.798
14180DA     BB292149  26.645  77.552  34.950
14180DA     BB392150  26.449  77.500  35.016
14180DA     SC192151  26.310  77.576  34.749
14180DA     SC292152  26.155  77.753  34.665
14180DA     SC392153  26.105  77.589  34.474
14180DA     SC492154  26.291  77.460  34.639
14181DA     BB192155  26.572  77.635  35.290
14181DA     BB292156  26.291  77.869  35.279
14181DA     BB392157  26.109  77.770  35.331
14181DA     SC192158  26.040  77.692  35.038
14181DA     SC292159  25.871  77.754  34.865
14181DA     SC392160  25.931  77.530  34.755
14181DA     SC492161  26.090  77.548  34.986
14182DG     BB192162  26.095  77.977  35.566
14182DG     BB292163  25.789  78.079  35.402
14182DG     BB392164  25.641  77.955  35.452
14182DG     SC192165  25.692  77.761  35.221
14182DG     SC292166  25.509  77.711  34.990
14182DG     SC392167  25.732  77.517  34.992
14182DG     SC492168  25.796  77.641  35.242
14183DT     BB192169  25.444  78.008  35.579
14183DT     BB292170  25.190  78.004  35.323
14183DT     BB392171  25.072  77.835  35.342
14183DT     SC192172  25.262  77.683  35.244
14183DT     SC292173  25.203  77.612  35.050
14183DT     SC392174  25.447  77.495  35.229
14184DA     BB192175  24.771  78.132  35.359
14184DA     BB292176  24.659  77.882  35.116
14184DA     BB392177  24.580  77.710  35.216
14184DA     SC192178  24.853  77.561  35.226
14184DA     SC292179  24.957  77.361  35.120
14184DA     SC392180  25.122  77.368  35.317
14184DA     SC492181  24.944  77.581  35.357
14185DA     BB192182  24.288  77.744  35.051
14185DA     BB292183  24.353  77.419  34.894
14185DA     BB392184  24.293  77.260  35.024
14185DA     SC192185  24.570  77.235  35.162
14185DA     SC292186  24.759  77.072  35.170
14185DA     SC392187  24.825  77.190  35.388
14185DA     SC492188  24.594  77.321  35.296
14186DT     BB192189  24.120  77.118  34.985
14186DT     BB292190  24.327  76.839  34.888
14186DT     BB392191  24.317  76.690  35.031
14186DT     SC192192  24.469  76.826  35.195
14186DT     SC292193  24.660  76.728  35.214
14186DT     SC392194  24.546  76.960  35.409
14187DA     BB192195  24.228  76.509  34.665
14187DA     BB292196  24.492  76.312  34.826
14187DA     BB392197  24.411  76.194  34.984
14187DA     SC192198  24.457  76.412  35.202
14187DA     SC292199  24.605  76.446  35.400
14187DA     SC392200  24.430  76.619  35.474
14187DA     SC492201  24.337  76.514  35.231
14188DA     BB192202  24.571  75.978  34.804
14188DA     BB292203  24.781  75.922  35.100
14188DA     BB392204  24.673  75.811  35.247
14188DA     SC192205  24.560  76.064  35.389
14188DA     SC292206  24.592  76.183  35.606
14188DA     SC392207  24.363  76.290  35.557
14188DA     SC492208  24.417  76.118  35.341
14189DT     BB192209  24.754  75.652  35.273
14189DT     BB292210  24.899  75.730  35.594
14189DT     BB392211  24.781  75.653  35.746
14189DT     SC192212  24.602  75.841  35.712
14189DT     SC292213  24.604  75.974  35.881
14189DT     SC392214  24.372  75.958  35.656
14190DT     BB192215  24.987  75.497  35.774
14190DT     BB292216  24.943  75.658  36.093
14190DT     BB392217  24.793  75.565  36.200
14190DT     SC192218  24.608  75.674  36.049
14190DT     SC292219  24.498  75.818  36.164
14190DT     SC392220  24.408  75.696  35.878
14191DT     BB192221  24.991  75.484  36.352
14191DT     BB292222  24.763  75.653  36.575
14191DT     BB392223  24.609  75.525  36.628
14191DT     SC192224  24.496  75.550  36.393
14191DT     SC292225  24.312  75.661  36.413
14191DT     SC392226  24.402  75.487  36.154
14192DC     BB192227  24.724  75.531  36.863
14192DC     BB292228  24.384  75.633  36.922
14192DC     BB392229  24.260  75.467  36.931
14192DC     SC192230  24.271  75.436  36.670
14192DC     SC292231  24.080  75.482  36.585
14192DC     SC392232  24.322  75.327  36.435
14193DC     BB192233  24.239  75.512  37.192
14193DC     BB292234  23.899  75.505  37.072
14193DC     BB392235  23.833  75.309  37.059
14193DC     SC192236  23.976  75.267  36.843
14193DC     SC292237  23.845  75.246  36.674
14193DC     SC392238  24.159  75.166  36.682
14194DA     BB192239  23.542  75.508  37.288
14194DA     BB292240  23.367  75.313  37.032
14194DA     BB392241  23.374  75.106  37.079
14194DA     SC192242  23.637  75.054  36.922
14194DA     SC292243  23.708  74.934  36.715
14194DA     SC392244  23.943  74.938  36.817
14194DA     SC492245  23.775  75.065  37.003
14195DA     BB192246  23.040  75.110  37.057
14195DA     BB292247  23.070  74.867  36.784
14195DA     BB392248  23.107  74.672  36.862
14195DA     SC192249  23.417  74.701  36.854
14195DA     SC292250  23.608  74.606  36.725
14195DA     SC392251  23.753  74.683  36.921
14195DA     SC492252  23.490  74.755  36.986
14196DA     BB192253  22.838  74.567  36.694
14196DA     BB292254  23.060  74.347  36.504
14196DA     BB392255  23.106  74.172  36.617
14196DA     SC192256  23.360  74.295  36.749
14196DA     SC292257  23.607  74.264  36.737
14196DA     SC392258  23.612  74.381  36.965
14196DA     SC492259  23.342  74.368  36.890
14197DA     BB192260  22.991  73.988  36.363
14197DA     BB292261  23.329  73.853  36.325
14197DA     BB392262  23.363  73.697  36.468
14197DA     SC192263  23.476  73.888  36.686
14197DA     SC292264  23.696  73.935  36.794
14197DA     SC392265  23.557  74.041  36.983
14197DA     SC492266  23.372  73.948  36.793
14198DT     BB192267  23.392  73.487  36.412
14198DT     BB292268  23.749  73.486  36.461
14198DT     BB392269  23.797  73.374  36.628
14198DT     SC192270  23.713  73.563  36.789
14198DT     SC292271  23.881  73.651  36.891
14198DT     SC392272  23.569  73.688  36.972
14199DG     BB192273  23.995  73.205  36.314
14199DG     BB292274  24.221  73.296  36.581
14199DG     BB392275  24.215  73.160  36.725
14199DG     SC192276  23.989  73.298  36.880
14199DG     SC292277  24.013  73.423  37.149
14199DG     SC392278  23.730  73.411  37.063
14199DG     SC492279  23.837  73.263  36.843
14200DT     BB192280  24.394  73.061  36.767
14200DT     BB292281  24.492  73.226  37.072
14200DT     BB392282  24.448  73.107  37.235
14200DT     SC192283  24.192  73.160  37.215
14200DT     SC292284  24.131  73.282  37.382
14200DT     SC392285  23.933  73.125  37.179
14201DT     BB192286  24.707  73.099  37.245
14201DT     BB292287  24.600  73.242  37.558
14201DT     BB392288  24.537  73.092  37.687
14201DT     SC192289  24.314  73.060  37.553
14201DT     SC292290  24.149  73.129  37.673
14201DT     SC392291  24.127  72.946  37.406
14202DA     BB192292  24.797  73.381  37.855
14202DA     BB292293  24.510  73.331  38.078
14202DA     BB392294  24.515  73.135  38.162
14202DA     SC192295  24.344  73.008  37.935
14202DA     SC292296  24.116  72.912  37.907
14202DA     SC392297  24.211  72.797  37.699
14202DA     SC492298  24.423  72.944  37.810
14203DA     BB192299  24.479  73.341  38.415
14203DA     BB292300  24.172  73.154  38.488
14203DA     BB392301  24.219  72.957  38.553
14203DA     SC192302  24.211  72.834  38.267
14203DA     SC292303  24.066  72.678  38.137
14203DA     SC392304  24.270  72.648  37.985
14203DA     SC492305  24.349  72.828  38.185
14204DT     BB192306  24.173  72.917  38.736
14204DT     BB292307  23.894  72.698  38.669
14204DT     BB392308  23.953  72.500  38.689
14204DT     SC192309  24.083  72.508  38.461
14204DT     SC292310  23.981  72.386  38.316
14204DT     SC392311  24.283  72.500  38.288
14205DT     BB192312  23.817  72.472  38.926
14205DT     BB292313  23.686  72.209  38.716
14205DT     BB392314  23.804  72.039  38.735
14205DT     SC192315  23.994  72.146  38.589
14205DT     SC292316  24.005  72.044  38.400
14205DT     SC392317  24.230  72.244  38.521
14206DA     BB192318  23.414  71.907  38.815
14206DA     BB292319  23.559  71.680  38.565
14206DA     BB392320  23.698  71.548  38.657
14206DA     SC192321  23.943  71.735  38.612
14206DA     SC292322  24.149  71.739  38.472
14206DA     SC392323  24.237  71.909  38.642
14206DA     SC492324  23.980  71.838  38.729
14207DG     BB192325  23.507  71.326  38.555
14207DG     BB292326  23.791  71.241  38.348
14207DG     BB392327  23.918  71.127  38.451
14207DG     SC192328  24.079  71.363  38.562
14207DG     SC292329  24.362  71.428  38.496
14207DG     SC392330  24.264  71.597  38.718
14207DG     SC492331  24.032  71.430  38.700
14208DT     BB192332  23.952  70.942  38.370
14208DT     BB292333  24.282  70.983  38.230
14208DT     BB392334  24.423  70.902  38.357
14208DT     SC192335  24.401  71.104  38.523
14208DT     SC292336  24.581  71.221  38.517
14208DT     SC392337  24.350  71.239  38.744
14209DA     BB192338  24.463  70.798  37.951
14209DA     BB292339  24.790  70.903  38.080
14209DA     BB392340  24.861  70.763  38.224
14209DA     SC192341  24.731  70.909  38.466
14209DA     SC292342  24.806  71.041  38.665
14209DA     SC392343  24.576  70.985  38.763
14209DA     SC492344  24.584  70.862  38.511
14210DA     BB192345  25.096  70.834  38.003
14210DA     BB292346  25.299  70.925  38.294
14210DA     BB392347  25.333  70.754  38.417
14210DA     SC192348  25.081  70.800  38.594
14210DA     SC292349  25.029  70.867  38.828
14210DA     SC392350  24.801  70.758  38.787
14210DA     SC492351  24.945  70.726  38.549
14211DT     BB192352  25.507  70.719  38.418
14211DT     BB292353  25.580  70.799  38.762
14211DT     BB392354  25.566  70.629  38.879
14211DT     SC192355  25.304  70.633  38.869
14211DT     SC292356  25.226  70.683  39.062
14211DT     SC392357  25.057  70.559  38.815
14212DC     BB192358  25.841  70.600  38.905
14212DC     BB292359  25.725  70.582  39.246
14212DC     BB392360  25.678  70.386  39.294
14212DC     SC192361  25.456  70.397  39.153
14212DC     SC292362  25.287  70.393  39.286
14212DC     SC392363  25.279  70.344  38.965
14213DA     BB192364  25.962  70.446  39.605
14213DA     BB292365  25.671  70.288  39.763
14213DA     BB392366  25.672  70.078  39.726
14213DA     SC192367  25.504  70.098  39.465
14213DA     SC292368  25.275  70.037  39.387
14213DA     SC392369  25.373  70.051  39.151
14213DA     SC492370  25.584  70.111  39.326
14214DA     BB192371  25.669  69.985  40.059
14214DA     BB292372  25.344  69.824  40.006
14214DA     BB392373  25.370  69.625  39.934
14214DA     SC192374  25.366  69.706  39.634
14214DA     SC292375  25.215  69.678  39.438
14214DA     SC392376  25.423  69.728  39.296
14214DA     SC492377  25.507  69.737  39.564
14215DT     BB192378  25.324  69.414  40.047
14215DT     BB292379  25.023  69.341  39.862
14215DT     BB392380  25.052  69.173  39.743
14215DT     SC192381  25.198  69.310  39.573
14215DT     SC292382  25.090  69.331  39.388
14215DT     SC392383  25.406  69.388  39.431
14216DG     BB192384  24.743  69.050  39.984
14216DG     BB292385  24.657  69.009  39.635
14216DG     BB392386  24.731  68.838  39.567
14216DG     SC192387  24.998  68.960  39.479
14216DG     SC292388  25.093  68.988  39.197
14216DG     SC392389  25.308  69.057  39.389
14216DG     SC492390  25.118  68.967  39.584
14217DT     BB192391  24.602  68.658  39.488
14217DT     BB292392  24.646  68.695  39.132
14217DT     BB392393  24.769  68.544  39.060
14217DT     SC192394  24.982  68.658  39.162
14217DT     SC292395  25.106  68.734  39.003
14217DT     SC392396  25.196  68.696  39.312
14218DT     BB192397  24.557  68.418  38.938
14218DT     BB292398  24.789  68.482  38.670
14218DT     BB392399  24.922  68.324  38.652
14218DT     SC192400  25.053  68.399  38.867
14218DT     SC292401  25.247  68.472  38.810
14218DT     SC392402  25.153  68.394  39.111
14219DG     BB192403  24.736  68.358  38.291
14219DG     BB292404  25.096  68.362  38.254
14219DG     BB392405  25.168  68.177  38.264
14219DG     SC192406  25.206  68.181  38.568
14219DG     SC292407  25.467  68.172  38.712
14219DG     SC392408  25.241  68.143  38.901
14219DG     SC492409  25.084  68.136  38.662
14220DA     BB192410  25.329  68.245  37.966
14220DA     BB292411  25.653  68.184  38.126
14220DA     BB392412  25.688  67.974  38.146
14220DA     SC192413  25.558  67.956  38.429
14220DA     SC292414  25.632  67.917  38.664
14220DA     SC392415  25.387  67.854  38.709
14220DA     SC492416  25.402  67.919  38.436
14221DA     BB192417  25.962  68.057  37.990
14221DA     BB292418  26.144  67.938  38.286
14221DA     BB392419  26.149  67.724  38.288
14221DA     SC192420  25.887  67.696  38.453
14221DA     SC292421  25.819  67.624  38.682
14221DA     SC392422  25.586  67.591  38.582
14221DA     SC492423  25.749  67.680  38.371
14222DG     BB192424  26.447  67.798  38.287
14222DG     BB292425  26.434  67.642  38.613
14222DG     BB392426  26.432  67.444  38.594
14222DG     SC192427  26.127  67.423  38.580
14222DG     SC292428  25.951  67.296  38.784
14222DG     SC392429  25.797  67.366  38.542
14222DG     SC492430  26.055  67.435  38.438
14223DA     BB192431  26.685  67.477  38.825
14223DA     BB292432  26.496  67.262  39.054
14223DA     BB392433  26.497  67.060  38.985
14223DA     SC192434  26.236  67.091  38.817
14223DA     SC292435  26.001  67.009  38.826
14223DA     SC392436  25.993  67.067  38.577
14223DA     SC492437  26.252  67.132  38.663
14224DA     BB192438  26.596  67.037  39.296
14224DA     BB292439  26.307  66.816  39.346
14224DA     BB392440  26.338  66.630  39.246
14224DA     SC192441  26.206  66.723  38.980
14224DA     SC292442  25.999  66.674  38.850
14224DA     SC392443  26.126  66.773  38.650
14224DA     SC492444  26.302  66.786  38.868
14225DA     BB192445  26.264  66.524  39.549
14225DA     BB292446  25.986  66.341  39.395
14225DA     BB392447  26.060  66.175  39.283
14225DA     SC192448  26.088  66.334  39.017
14225DA     SC292449  25.976  66.341  38.794
14225DA     SC392450  26.191  66.456  38.713
14225DA     SC492451  26.229  66.403  38.986
14226DG     BB192452  25.892  65.989  39.475
14226DG     BB292453  25.717  65.902  39.171
14226DG     BB392454  25.816  65.760  39.074
14226DG     SC192455  25.985  65.956  38.911
14226DG     SC292456  25.971  65.997  38.616
14226DG     SC392457  26.202  66.142  38.731
14226DG     SC492458  26.124  66.008  38.972
14227DA     BB192459  25.535  65.541  39.057
14227DA     BB292460  25.545  65.546  38.690
14227DA     BB392461  25.694  65.411  38.619
14227DA     SC192462  25.921  65.624  38.616
14227DA     SC292463  26.056  65.748  38.446
14227DA     SC392464  26.222  65.789  38.638
14227DA     SC492465  26.012  65.637  38.747
14228DA     BB192466  25.464  65.247  38.433
14228DA     BB292467  25.649  65.351  38.134
14228DA     BB392468  25.812  65.218  38.098
14228DA     SC192469  26.015  65.383  38.266
14228DA     SC292470  26.217  65.525  38.225
14228DA     SC392471  26.271  65.483  38.472
14228DA     SC492472  26.033  65.344  38.421
14229DC     BB192473  25.832  65.072  37.920
14229DC     BB292474  26.070  65.274  37.739
14229DC     BB392475  26.254  65.180  37.735
14229DC     SC192476  26.300  65.241  37.986
14229DC     SC292477  26.457  65.387  37.996
14229DC     SC392478  26.344  65.212  38.244
14230DA     BB192479  26.157  65.271  37.339
14230DA     BB292480  26.491  65.406  37.407
14230DA     BB392481  26.635  65.248  37.410
14230DA     SC192482  26.608  65.196  37.715
14230DA     SC292483  26.745  65.227  37.921
14230DA     SC392484  26.590  65.052  38.026
14230DA     SC492485  26.502  65.084  37.762
14231DC     BB192486  26.760  65.267  37.273
14231DC     BB292487  27.028  65.389  37.483
14231DC     BB392488  27.163  65.237  37.521
14231DC     SC192489  26.998  65.123  37.690
14231DC     SC292490  27.076  65.142  37.890
14231DC     SC392491  26.838  64.943  37.798
14232DA     BB192492  27.342  65.594  37.398
14232DA     BB292493  27.515  65.475  37.698
14232DA     BB392494  27.629  65.300  37.653
14232DA     SC192495  27.398  65.102  37.722
14232DA     SC292496  27.345  64.934  37.898
14232DA     SC392497  27.180  64.838  37.728
14232DA     SC492498  27.302  65.056  37.602
14233DA     BB192499  27.832  65.504  37.805
14233DA     BB292500  27.880  65.236  38.050
14233DA     BB392501  27.989  65.074  37.963
14233DA     SC192502  27.736  64.923  37.865
14233DA     SC292503  27.613  64.713  37.921
14233DA     SC392504  27.510  64.736  37.687
14233DA     SC492505  27.684  64.954  37.716
14234DA     BB192506  28.172  65.127  38.230
14234DA     BB292507  28.109  64.778  38.322
14234DA     BB392508  28.224  64.647  38.198
14234DA     SC192509  28.001  64.618  37.982
14234DA     SC292510  27.846  64.441  37.900
14234DA     SC392511  27.828  64.584  37.688
14234DA     SC492512  28.005  64.720  37.858
14235DT     BB192513  28.387  64.529  38.274
14235DT     BB292514  28.225  64.207  38.259
14235DT     BB392515  28.305  64.095  38.105
14235DT     SC192516  28.178  64.237  37.924
14235DT     SC292517  28.025  64.116  37.834
14235DT     SC392518  28.136  64.399  37.721
14236DA     BB192519  28.356  63.836  38.432
14236DA     BB292520  28.207  63.637  38.163
14236DA     BB392521  28.355  63.582  38.020
14236DA     SC192522  28.310  63.834  37.842
14236DA     SC292523  28.216  63.887  37.617
14236DA     SC392524  28.351  64.105  37.635
14236DA     SC492525  28.402  63.963  37.871
14237DA     BB192526  28.271  63.264  38.067
14237DA     BB292527  28.171  63.249  37.715
14237DA     BB392528  28.341  63.216  37.591
14237DA     SC192529  28.399  63.519  37.549
14237DA     SC292530  28.386  63.685  37.363
14237DA     SC392531  28.549  63.824  37.505
14237DA     SC492532  28.501  63.590  37.651
14238DG     BB192533  28.204  62.950  37.500
14238DG     BB292534  28.192  63.114  37.178
14238DG     BB392535  28.362  63.083  37.079
14238DG     SC192536  28.502  63.330  37.192
14238DG     SC292537  28.584  63.571  37.036
14238DG     SC392538  28.693  63.581  37.311
14238DG     SC492539  28.583  63.317  37.329
14239DT     BB192540  28.358  62.975  36.889
14239DT     BB292541  28.409  63.242  36.652
14239DT     BB392542  28.603  63.237  36.580
14239DT     SC192543  28.697  63.334  36.805
14239DT     SC292544  28.769  63.534  36.772
14239DT     SC392545  28.832  63.350  37.031
14240DT     BB192546  28.494  63.159  36.351
14240DT     BB292547  28.685  63.453  36.266
14240DT     BB392548  28.883  63.401  36.231
14240DT     SC192549  28.928  63.370  36.488
14240DT     SC292550  29.058  63.527  36.557
14240DT     SC392551  28.987  63.254  36.717
14241DC     BB192552  28.836  63.448  35.971
14241DC     BB292553  29.123  63.653  36.048
14241DC     BB392554  29.296  63.541  36.031
14241DC     SC192555  29.247  63.415  36.256
14241DC     SC292556  29.390  63.477  36.405
14241DC     SC392557  29.194  63.220  36.425
14242DC     BB192558  29.354  63.676  35.806
14242DC     BB292559  29.648  63.714  36.011
14242DC     BB392560  29.773  63.550  35.987
14242DC     SC192561  29.615  63.399  36.132
14242DC     SC292562  29.712  63.352  36.318
14242DC     SC392563  29.450  63.204  36.198
14243DA     BB192564  30.028  63.875  35.906
14243DA     BB292565  30.206  63.653  36.136
14243DA     BB392566  30.276  63.480  36.033
14243DA     SC192567  30.020  63.312  36.088
14243DA     SC292568  29.955  63.114  36.225
14243DA     SC392569  29.755  63.095  36.066
14243DA     SC492570  29.903  63.316  35.978
14244DT     BB192571  30.493  63.430  35.991
14244DT     BB292572  30.524  63.165  36.234
14244DT     BB392573  30.541  62.983  36.139
14244DT     SC192574  30.285  62.982  36.078
14244DT     SC292575  30.185  62.830  36.193
14244DT     SC392576  30.064  62.984  35.934
14245DA     BB192577  30.880  62.987  36.387
14245DA     BB292578  30.709  62.667  36.442
14245DA     BB392579  30.749  62.533  36.281
14245DA     SC192580  30.501  62.622  36.115
14245DA     SC292581  30.282  62.527  36.044
14245DA     SC392582  30.286  62.706  35.861
14245DA     SC492583  30.523  62.740  36.007
14246DA     BB192584  30.850  62.330  36.520
14246DA     BB292585  30.580  62.103  36.419
14246DA     BB392586  30.636  61.995  36.244
14246DA     SC192587  30.517  62.205  36.047
14246DA     SC292588  30.325  62.221  35.888
14246DA     SC392589  30.457  62.412  35.780
14246DA     SC492590  30.615  62.320  35.993
14247DT     BB192591  30.659  61.797  36.261
14247DT     BB292592  30.352  61.704  36.096
14247DT     BB392593  30.393  61.634  35.905
14247DT     SC192594  30.440  61.877  35.818
14247DT     SC292595  30.283  61.936  35.683
14247DT     SC392596  30.569  62.084  35.718
14248DT     BB192597  30.329  61.388  35.992
14248DT     BB292598  30.107  61.448  35.714
14248DT     BB392599  30.201  61.398  35.536
14248DT     SC192600  30.351  61.613  35.544
14248DT     SC292601  30.290  61.748  35.388
14248DT     SC392602  30.565  61.766  35.558
14249DT     BB192603  30.036  61.187  35.521
14249DT     BB292604  29.982  61.367  35.213
14249DT     BB392605  30.124  61.311  35.073
14249DT     SC192606  30.311  61.449  35.195
14249DT     SC292607  30.365  61.618  35.073
14249DT     SC392608  30.533  61.505  35.326
14250DG     BB192609  29.760  61.230  34.905
14250DG     BB292610  29.966  61.428  34.683
14250DG     BB392611  30.100  61.312  34.593
14250DG     SC192612  30.313  61.347  34.810
14250DG     SC292613  30.575  61.488  34.778
14250DG     SC392614  30.562  61.348  35.038
14250DG     SC492615  30.314  61.247  34.935
14251DA     BB192616  29.995  61.432  34.281
14251DA     BB292617  30.332  61.559  34.212
14251DA     BB392618  30.460  61.399  34.151
14251DA     SC192619  30.557  61.334  34.439
14251DA     SC292620  30.767  61.354  34.572
14251DA     SC392621  30.663  61.177  34.725
14251DA     SC492622  30.476  61.222  34.521
14252DT     BB192623  30.534  61.394  33.958
14252DT     BB292624  30.871  61.494  34.040
14252DT     BB392625  30.998  61.331  34.029
14252DT     SC192626  30.905  61.233  34.255
14252DT     SC292627  31.057  61.248  34.407
14252DT     SC392628  30.787  61.069  34.424
14253DT     BB192629  31.111  61.428  33.801
14253DT     BB292630  31.386  61.393  34.031
14253DT     BB392631  31.463  61.201  34.021
14253DT     SC192632  31.258  61.104  34.154
14253DT     SC292633  31.323  61.040  34.349
14253DT     SC392634  31.042  60.963  34.207
14254DT     BB192635  31.681  61.301  33.899
14254DT     BB292636  31.806  61.136  34.195
14254DT     BB392637  31.836  60.935  34.156
14254DT     SC192638  31.577  60.888  34.164
14254DT     SC292639  31.531  60.772  34.339
14254DT     SC392640  31.335  60.819  34.085
14255DT     BB192641  32.097  60.985  34.169
14255DT     BB292642  32.037  60.735  34.422
14255DT     BB392643  32.038  60.546  34.337
14255DT     SC192644  31.802  60.584  34.229
14255DT     SC292645  31.658  60.458  34.327
14255DT     SC392646  31.614  60.613  34.046
14256DT     BB192647  32.264  60.514  34.469
14256DT     BB292648  32.048  60.250  34.584
14256DT     BB392649  32.052  60.092  34.451
14256DT     SC192650  31.903  60.223  34.279
14256DT     SC292651  31.709  60.131  34.268
14256DT     SC392652  31.830  60.346  34.057
14257DA     BB192653  32.112  59.960  34.846
14257DA     BB292654  31.855  59.749  34.690
14257DA     BB392655  31.942  59.625  34.539
14257DA     SC192656  31.897  59.830  34.310
14257DA     SC292657  31.754  59.851  34.106
14257DA     SC392658  31.928  60.023  34.027
14257DA     SC492659  32.017  59.933  34.277
14258DT     BB192660  31.932  59.444  34.581
14258DT     BB292661  31.677  59.356  34.342
14258DT     BB392662  31.764  59.272  34.174
14258DT     SC192663  31.849  59.506  34.091
14258DT     SC292664  31.740  59.563  33.915
14258DT     SC392665  32.015  59.699  34.020
14259DT     BB192666  31.661  59.040  34.254
14259DT     BB292667  31.533  59.088  33.920
14259DT     BB392668  31.672  59.024  33.781
14259DT     SC192669  31.822  59.235  33.821
14259DT     SC292670  31.816  59.362  33.647
14259DT     SC392671  32.029  59.383  33.890
14260DT     BB192672  31.515  58.812  33.727
14260DT     BB292673  31.562  58.975  33.408
14260DT     BB392674  31.738  58.910  33.321
14260DT     SC192675  31.882  59.054  33.486
14260DT     SC292676  31.975  59.215  33.378
14260DT     SC392677  32.055  59.115  33.676
14261DT     BB192678  31.598  58.766  33.137
14261DT     BB292679  31.806  58.984  32.940
14261DT     BB392680  31.992  58.897  32.911
14261DT     SC192681  32.064  58.949  33.158
14261DT     SC292682  32.217  59.100  33.157
14261DT     SC392683  32.138  58.910  33.408
14262DT     BB192684  31.942  58.836  32.643
14262DT     BB292685  32.243  59.035  32.633
14262DT     BB392686  32.409  58.912  32.649
14262DT     SC192687  32.368  58.875  32.905
14262DT     SC292688  32.522  58.975  33.017
14262DT     SC392689  32.315  58.754  33.133
14263DA     BB192690  32.479  59.137  32.302
14263DA     BB292691  32.780  59.159  32.509
14263DA     BB392692  32.892  58.978  32.496
14263DA     SC192693  32.750  58.844  32.738
14263DA     SC292694  32.807  58.777  32.972
14263DA     SC392695  32.604  58.622  32.955
14263DA     SC492696  32.621  58.753  32.708
14264DT     BB192697  33.079  58.979  32.407
14264DT     BB292698  33.269  58.958  32.713
14264DT     BB392699  33.351  58.769  32.733
14264DT     SC192700  33.118  58.666  32.797
14264DT     SC292701  33.120  58.609  33.004
14264DT     SC392702  32.900  58.519  32.784
14265DC     BB192703  33.594  58.876  32.683
14265DC     BB292704  33.625  58.721  33.007
14265DC     BB392705  33.676  58.522  32.986
14265DC     SC192706  33.433  58.460  32.911
14265DC     SC292707  33.338  58.343  33.065
14265DC     SC392708  33.233  58.376  32.760
14266DC     BB192709  33.905  58.601  33.086
14266DC     BB292710  33.785  58.346  33.311
14266DC     BB392711  33.831  58.159  33.237
14266DC     SC192712  33.642  58.175  33.055
14266DC     SC292713  33.485  58.036  33.103
14266DC     SC392714  33.526  58.188  32.819
14267DA     BB192715  33.930  58.206  33.642
14267DA     BB292716  33.754  57.887  33.601
14267DA     BB392717  33.874  57.749  33.492
14267DA     SC192718  33.763  57.833  33.214
14267DA     SC292719  33.619  57.735  33.036
14267DA     SC392720  33.727  57.910  32.881
14267DA     SC492721  33.843  57.948  33.134
14268DT     BB192722  33.909  57.615  33.599
14268DT     BB292723  33.709  57.364  33.436
14268DT     BB392724  33.826  57.256  33.302
14268DT     SC192725  33.827  57.455  33.131
14268DT     SC292726  33.711  57.402  32.959
14268DT     SC392727  33.917  57.651  32.979
14269DT     BB192728  33.808  57.053  33.473
14269DT     BB292729  33.703  56.914  33.158
14269DT     BB392730  33.868  56.859  33.046
14269DT     SC192731  33.923  57.109  32.989
14269DT     SC292732  33.885  57.144  32.780
14269DT     SC392733  34.051  57.339  32.978
14270DA     BB192734  33.656  56.492  33.051
14270DA     BB292735  33.772  56.541  32.706
14270DA     BB392736  33.980  56.498  32.691
14270DA     SC192737  34.070  56.790  32.750
14270DA     SC292738  34.175  56.980  32.627
14270DA     SC392739  34.238  57.069  32.859
14270DA     SC492740  34.101  56.828  32.903
14271DA     BB192741  33.976  56.238  32.445
14271DA     BB292742  34.180  56.446  32.222
14271DA     BB392743  34.388  56.416  32.262
14271DA     SC192744  34.405  56.646  32.472
14271DA     SC292745  34.508  56.872  32.490
14271DA     SC392746  34.482  56.841  32.743
14271DA     SC492747  34.381  56.607  32.626
14272DT     BB192748  34.630  56.284  32.135
14272DT     BB292749  34.782  56.594  32.031
14272DT     BB392750  34.969  56.614  32.119
14272DT     SC192751  34.861  56.673  32.351
14272DT     SC292752  34.899  56.880  32.397
14272DT     SC392753  34.796  56.654  32.606
14273DT     BB192754  35.196  56.541  31.902
14273DT     BB292755  35.289  56.875  32.001
14273DT     BB392756  35.449  56.868  32.133
14273DT     SC192757  35.293  56.786  32.328
14273DT     SC292758  35.274  56.942  32.475
14273DT     SC392759  35.192  56.632  32.517
14274DC     BB192760  35.674  56.956  31.958
14274DC     BB292761  35.675  57.199  32.225
14274DC     BB392762  35.817  57.147  32.367
14274DC     SC192763  35.665  56.954  32.459
14274DC     SC292764  35.595  57.006  32.656
14274DC     SC392765  35.583  56.711  32.522
14275DA     BB192766  35.896  57.542  32.261
14275DA     BB292767  35.875  57.530  32.626
14275DA     BB392768  36.054  57.448  32.708
14275DA     SC192769  35.951  57.154  32.704
14275DA     SC292770  35.882  56.980  32.869
14275DA     SC392771  35.924  56.813  32.680
14275DA     SC492772  35.983  57.066  32.574
14276DA     BB192773  36.026  57.725  32.872
14276DA     BB292774  36.003  57.521  33.176
14276DA     BB392775  36.196  57.446  33.229
14276DA     SC192776  36.165  57.183  33.065
14276DA     SC292777  36.138  56.940  33.110
14276DA     SC392778  36.221  56.907  32.869
14276DA     SC492779  36.220  57.184  32.913
14277DA     BB192780  36.097  57.586  33.505
14277DA     BB292781  36.130  57.255  33.661
14277DA     BB392782  36.335  57.206  33.689
14277DA     SC192783  36.365  57.066  33.413
14277DA     SC292784  36.397  56.835  33.326
14277DA     SC392785  36.481  56.948  33.112
14277DA     SC492786  36.415  57.156  33.289
14278DA     BB192787  36.227  57.159  33.993
14278DA     BB292788  36.343  56.812  33.963
14278DA     BB392789  36.556  56.804  33.981
14278DA     SC192790  36.606  56.834  33.675
14278DA     SC292791  36.689  56.694  33.486
14278DA     SC392792  36.734  56.916  33.367
14278DA     SC492793  36.628  56.983  33.618
14279DT     BB192794  36.641  56.712  34.145
14279DT     BB292795  36.760  56.416  33.976
14279DT     BB392796  36.966  56.425  33.954
14279DT     SC192797  36.946  56.602  33.762
14279DT     SC292798  37.004  56.512  33.575
14279DT     SC392799  36.970  56.830  33.630
14280DT     BB192800  37.014  56.234  34.153
14280DT     BB292801  37.186  56.101  33.865
14280DT     BB392802  37.382  56.168  33.863
14280DT     SC192803  37.307  56.408  33.786
14280DT     SC292804  37.372  56.441  33.583
14280DT     SC392805  37.268  56.669  33.789
14281DA     BB192806  37.418  55.752  33.834
14281DA     BB292807  37.634  55.896  33.576
14281DA     BB392808  37.814  55.971  33.663
14281DA     SC192809  37.701  56.257  33.710
14281DA     SC292810  37.736  56.487  33.619
14281DA     SC392811  37.628  56.567  33.837
14281DA     SC492812  37.633  56.287  33.853
14282DA     BB192813  37.947  55.776  33.434
14282DA     BB292814  38.103  56.077  33.295
14282DA     BB392815  38.267  56.139  33.417
14282DA     SC192816  38.094  56.326  33.597
14282DA     SC292817  38.068  56.570  33.636
14282DA     SC392818  37.961  56.502  33.859
14282DA     SC492819  38.033  56.263  33.731
14283DT     BB192820  38.460  56.129  33.343
14283DT     BB292821  38.506  56.483  33.293
14283DT     BB392822  38.632  56.559  33.438
14283DT     SC192823  38.444  56.546  33.620
14283DT     SC292824  38.383  56.745  33.674
14283DT     SC392825  38.315  56.474  33.839
14284DC     BB192826  38.832  56.588  33.254
14284DC     BB292827  38.787  56.919  33.391
14284DC     BB392828  38.904  56.942  33.560
14284DC     SC192829  38.741  56.793  33.702
14284DC     SC292830  38.639  56.917  33.846
14284DC     SC392831  38.652  56.593  33.849
14285DT     BB192832  39.072  57.107  33.423
14285DT     BB292833  38.962  57.303  33.706
14285DT     BB392834  39.086  57.268  33.868
14285DT     SC192835  38.978  57.033  33.910
14285DT     SC292836  38.863  57.039  34.092
14285DT     SC392837  38.953  56.771  33.933
14286DT     BB192838  39.187  57.516  33.835
14286DT     BB292839  39.064  57.511  34.174
14286DT     BB392840  39.208  57.434  34.301
14286DT     SC192841  39.164  57.190  34.216
14286DT     SC292842  39.071  57.076  34.372
14286DT     SC392843  39.205  56.955  34.103
14287DG     BB192844  39.108  57.806  34.434
14287DG     BB292845  39.088  57.560  34.699
14287DG     BB392846  39.270  57.516  34.765
14287DG     SC192847  39.314  57.288  34.566
14287DG     SC292848  39.338  56.998  34.635
14287DG     SC392849  39.403  57.045  34.350
14287DG     SC492850  39.377  57.321  34.423
14288DC     BB192851  39.328  57.560  34.972
14288DC     BB292852  39.334  57.230  35.119
14288DC     BB392853  39.530  57.165  35.139
14288DC     SC192854  39.548  57.119  34.881
14288DC     SC292855  39.559  56.907  34.848
14288DC     SC392856  39.630  57.137  34.631
14289DA     BB192857  39.356  57.120  35.519
14289DA     BB292858  39.532  56.808  35.439
14289DA     BB392859  39.743  56.836  35.455
14289DA     SC192860  39.780  56.919  35.158
14289DA     SC292861  39.881  56.823  34.951
14289DA     SC392862  39.882  57.065  34.864
14289DA     SC492863  39.773  57.075  35.122
14290DC     BB192864  39.866  56.742  35.610
14290DC     BB292865  40.028  56.500  35.397
14290DC     BB392866  40.226  56.551  35.368
14290DC     SC192867  40.160  56.745  35.204
14290DC     SC292868  40.222  56.693  35.004
14290DC     SC392869  40.132  56.988  35.105
14291DA     BB192870  40.261  56.157  35.513
14291DA     BB292871  40.470  56.179  35.212
14291DA     BB392872  40.653  56.279  35.256
14291DA     SC192873  40.544  56.562  35.187
14291DA     SC292874  40.578  56.734  35.010
14291DA     SC392875  40.478  56.899  35.179
14291DA     SC492876  40.482  56.649  35.307
14292DG     BB192877  40.803  56.015  35.174
14292DG     BB292878  40.929  56.221  34.905
14292DG     BB392879  41.090  56.321  34.965
14292DG     SC192880  40.933  56.563  35.068
14292DG     SC292881  40.940  56.838  34.953
14292DG     SC392882  40.791  56.834  35.209
14292DG     SC492883  40.880  56.562  35.219
14293DT     BB192884  41.288  56.290  34.869
14293DT     BB292885  41.316  56.589  34.670
14293DT     BB392886  41.448  56.721  34.759
14293DT     SC192887  41.273  56.785  34.943
14293DT     SC292888  41.207  56.988  34.912
14293DT     SC392889  41.160  56.812  35.180
14294DT     BB192890  41.621  56.668  34.561
14294DT     BB292891  41.571  57.025  34.546
14294DT     BB392892  41.700  57.120  34.679
14294DT     SC192893  41.555  57.045  34.884
14294DT     SC292894  41.458  57.217  34.970
14294DT     SC392895  41.487  56.926  35.110
14295DA     BB192896  41.733  57.300  34.301
14295DA     BB292897  41.692  57.565  34.552
14295DA     BB392898  41.869  57.584  34.669
14295DA     SC192899  41.776  57.381  34.886
14295DA     SC292900  41.704  57.386  35.125
14295DA     SC392901  41.762  57.136  35.126
14295DA     SC492902  41.819  57.227  34.867
14296DA     BB192903  41.836  57.897  34.573
14296DA     BB292904  41.811  57.983  34.928
14296DA     BB392905  42.003  57.970  35.021
14296DA     SC192906  41.969  57.672  35.103
14296DA     SC292907  41.939  57.541  35.313
14296DA     SC392908  42.021  57.340  35.176
14296DA     SC492909  42.024  57.560  35.002
14297DA     BB192910  41.942  58.282  35.114
14297DA     BB292911  41.965  58.165  35.461
14297DA     BB392912  42.169  58.136  35.516
14297DA     SC192913  42.175  57.838  35.428
14297DA     SC292914  42.190  57.613  35.536
14297DA     SC392915  42.268  57.530  35.306
14297DA     SC492916  42.223  57.806  35.278
14298DA     BB192917  42.110  58.343  35.771
14298DA     BB292918  42.188  58.064  35.996
14298DA     BB392919  42.399  58.039  36.013
14298DA     SC192920  42.419  57.838  35.777
14298DA     SC292921  42.466  57.595  35.744
14298DA     SC392922  42.520  57.659  35.502
14298DA     SC492923  42.449  57.898  35.630
14299DA     BB192924  42.353  58.070  36.340
14299DA     BB292925  42.474  57.725  36.372
14299DA     BB392926  42.687  57.721  36.364
14299DA     SC192927  42.699  57.683  36.055
14299DA     SC292928  42.761  57.504  35.893
14299DA     SC392929  42.785  57.695  35.723
14299DA     SC492930  42.710  57.816  35.964
14300DT     BB192931  42.798  57.663  36.531
14300DT     BB292932  42.875  57.332  36.410
14300DT     BB392933  43.075  57.321  36.358
14300DT     SC192934  43.034  57.460  36.139
14300DT     SC292935  43.058  57.332  35.968
14300DT     SC392936  43.048  57.656  35.963
14301DT     BB192937  43.101  57.163  36.569
14301DT     BB292938  43.201  56.963  36.287
14301DT     BB392939  43.400  56.998  36.242
14301DT     SC192940  43.343  57.231  36.136
14301DT     SC292941  43.373  57.222  35.923
14301DT     SC392942  43.337  57.492  36.098
14302DC     BB192943  43.416  56.753  36.326
14302DC     BB292944  43.540  56.750  35.987
14302DC     BB392945  43.736  56.817  35.983
14302DC     SC192946  43.660  57.066  36.019
14302DC     SC292947  43.695  57.178  35.839
14302DC     SC392948  43.630  57.303  36.131
14303DA     BB192949  43.677  56.461  35.766
14303DA     BB292950  43.872  56.694  35.561
14303DA     BB392951  44.067  56.722  35.644
14303DA     SC192952  43.984  56.964  35.820
14303DA     SC292953  44.027  57.210  35.827
14303DA     SC392954  43.953  57.195  36.072
14303DA     SC492955  43.937  56.934  35.970
14304DG     BB192956  44.141  56.614  35.363
14304DG     BB292957  44.299  56.939  35.333
14304DG     BB392958  44.472  56.939  35.431
14304DG     SC192959  44.349  57.031  35.696
14304DG     SC292960  44.398  57.294  35.830
14304DG     SC392961  44.246  57.112  36.007
14304DG     SC492962  44.295  56.922  35.799
14305DA     BB192963  44.627  57.057  35.141
14305DA     BB292964  44.745  57.354  35.320
14305DA     BB392965  44.912  57.305  35.443
14305DA     SC192966  44.738  57.238  35.693
14305DA     SC292967  44.693  57.336  35.918
14305DA     SC392968  44.611  57.101  35.981
14305DA     SC492969  44.693  57.085  35.713
14306DT     BB192970  45.115  57.377  35.407
14306DT     BB292971  45.124  57.617  35.676
14306DT     BB392972  45.250  57.551  35.826
14306DT     SC192973  45.074  57.373  35.907
14306DT     SC292974  44.997  57.432  36.099
14306DT     SC392975  44.964  57.140  35.961
14307DG     BB192976  45.415  57.907  35.713
14307DG     BB292977  45.358  57.898  36.070
14307DG     BB392978  45.506  57.800  36.160
14307DG     SC192979  45.370  57.527  36.139
14307DG     SC292980  45.268  57.363  36.367
14307DG     SC392981  45.259  57.209  36.115
14307DG     SC492982  45.394  57.438  36.008
14308DT     BB192983  45.638  57.901  36.308
14308DT     BB292984  45.509  57.768  36.617
14308DT     BB392985  45.639  57.626  36.693
14308DT     SC192986  45.564  57.450  36.513
14308DT     SC292987  45.454  57.292  36.609
14308DT     SC392988  45.577  57.283  36.310
14309DT     BB192989  45.686  57.805  36.881
14309DT     BB292990  45.569  57.513  37.056
14309DT     BB392991  45.725  57.381  37.086
14309DT     SC192992  45.721  57.308  36.834
14309DT     SC292993  45.650  57.105  36.820
14309DT     SC392994  45.800  57.271  36.585
14310DA     BB192995  45.494  57.451  37.430
14310DA     BB292996  45.544  57.090  37.394
14310DA     BB392997  45.749  57.040  37.427
14310DA     SC192998  45.830  57.070  37.128
14310DA     SC292999  45.900  56.921  36.940
14310DA     SC393000  45.996  57.134  36.835
14310DA     SC493001  45.885  57.213  37.080
14311DA     BB193002  45.579  56.836  37.620
14311DA     BB293003  45.752  56.565  37.444
14311DA     BB393004  45.959  56.564  37.494
14311DA     SC193005  46.041  56.752  37.259
14311DA     SC293006  46.167  56.735  37.045
14311DA     SC393007  46.190  56.990  37.062
14311DA     SC493008  46.046  56.910  37.289
14312DG     BB193009  45.890  56.277  37.592
14312DG     BB293010  46.135  56.182  37.343
14312DG     BB393011  46.319  56.213  37.414
14312DG     SC193012  46.336  56.501  37.310
14312DG     SC293013  46.519  56.599  37.095
14312DG     SC393014  46.381  56.825  37.228
14312DG     SC493015  46.283  56.620  37.403
14313DG     BB193016  46.412  55.891  37.383
14313DG     BB293017  46.669  56.005  37.156
14313DG     BB393018  46.829  56.063  37.259
14313DG     SC193019  46.736  56.354  37.287
14313DG     SC293020  46.864  56.592  37.162
14313DG     SC393021  46.656  56.674  37.354
14313DG     SC493022  46.644  56.394  37.412
14314DG     BB193023  47.051  55.841  37.125
14314DG     BB293024  47.233  56.125  36.996
14314DG     BB393025  47.365  56.188  37.131
14314DG     SC193026  47.171  56.383  37.265
14314DG     SC293027  47.193  56.681  37.265
14314DG     SC393028  46.980  56.591  37.449
14314DG     SC493029  47.078  56.330  37.384
14315DT     BB193030  47.616  56.188  37.120
14315DT     BB293031  47.678  56.538  37.059
14315DT     BB393032  47.763  56.625  37.226
14315DT     SC193033  47.534  56.624  37.353
14315DT     SC293034  47.463  56.826  37.375
14315DT     SC393035  47.351  56.567  37.534
14316DT     BB193036  48.024  56.646  37.119
14316DT     BB293037  47.940  56.985  37.209
14316DT     BB393038  48.003  57.024  37.402
14316DT     SC193039  47.806  56.883  37.503
14316DT     SC293040  47.666  57.014  37.600
14316DT     SC393041  47.678  56.692  37.633
14317DT     BB193042  48.211  57.185  37.317
14317DT     BB293043  48.015  57.399  37.532
14317DT     BB393044  48.081  57.382  37.728
14317DT     SC193045  47.967  57.147  37.754
14317DT     SC293046  47.800  57.162  37.889
14317DT     SC393047  47.940  56.887  37.790
14318DC     BB193048  48.192  57.631  37.716
14318DC     BB293049  47.960  57.648  37.992
14318DC     BB393050  48.052  57.586  38.166
14318DC     SC193051  48.042  57.335  38.092
14318DC     SC293052  47.902  57.229  38.217
14318DC     SC393053  48.122  57.094  38.021
14319DT     BB193054  48.051  57.843  38.254
14319DT     BB293055  47.872  57.659  38.507
14319DT     BB393056  48.005  57.581  38.645
14319DT     SC193057  48.082  57.395  38.477
14319DT     SC293058  48.012  57.203  38.545
14319DT     SC393059  48.238  57.253  38.318
14320DA     BB193060  47.708  57.790  38.855
14320DA     BB293061  47.744  57.458  39.009
14320DA     BB393062  47.926  57.447  39.120
14320DA     SC193063  48.094  57.341  38.880
14320DA     SC293064  48.207  57.129  38.814
14320DA     SC393065  48.344  57.276  38.654
14320DA     SC493066  48.170  57.450  38.789
14321DA     BB193067  47.716  57.354  39.353
14321DA     BB293068  47.898  57.036  39.363
14321DA     BB393069  48.085  57.061  39.464
14321DA     SC193070  48.244  57.130  39.206
14321DA     SC293071  48.418  57.024  39.062
14321DA     SC393072  48.463  57.262  38.978
14321DA     SC493073  48.258  57.285  39.167
14322DA     BB193074  47.950  56.808  39.622
14322DA     BB293075  48.240  56.614  39.509
14322DA     BB393076  48.415  56.673  39.616
14322DA     SC193077  48.497  56.893  39.411
14322DA     SC293078  48.676  56.930  39.241
14322DA     SC393079  48.614  57.178  39.259
14322DA     SC493080  48.444  57.042  39.437
14323DT     BB193081  48.487  56.537  39.725
14323DT     BB293082  48.772  56.461  39.518
14323DT     BB393083  48.942  56.550  39.596
14323DT     SC193084  48.866  56.787  39.512
14323DT     SC293085  48.995  56.851  39.352
14323DT     SC393086  48.788  57.039  39.517
14324DA     BB193087  49.013  56.144  39.515
14324DA     BB293088  49.287  56.341  39.372
14324DA     BB393089  49.409  56.422  39.526
14324DA     SC193090  49.247  56.686  39.549
14324DA     SC293091  49.280  56.928  39.497
14324DA     SC393092  49.089  56.969  39.663
14324DA     SC493093  49.128  56.691  39.657
14325DC     BB193094  49.580  56.353  39.522
14325DC     BB293095  49.745  56.648  39.396
14325DC     BB393096  49.832  56.753  39.552
14325DC     SC193097  49.599  56.841  39.633
14325DC     SC293098  49.586  57.053  39.596
14325DC     SC393099  49.388  56.881  39.786
14326DT     BB193100  50.065  56.673  39.452
14326DT     BB293101  50.085  57.033  39.463
14326DT     BB393102  50.140  57.095  39.653
14326DT     SC193103  49.901  57.044  39.748
14326DT     SC293104  49.802  57.229  39.796
14326DT     SC393105  49.709  56.933  39.891
14327DG     BB193106  50.415  57.244  39.391
14327DG     BB293107  50.283  57.503  39.606
14327DG     BB393108  50.365  57.489  39.787
14327DG     SC193109  50.152  57.299  39.896
14327DG     SC293110  49.954  57.363  40.111
14327DG     SC393111  49.947  57.075  40.043
14327DG     SC493112  50.172  57.142  39.879
14328DA     BB193113  50.449  57.828  39.761
14328DA     BB293114  50.253  57.901  40.062
14328DA     BB393115  50.359  57.839  40.236
14328DA     SC193116  50.236  57.553  40.240
14328DA     SC293117  50.075  57.423  40.380
14328DA     SC393118  50.182  57.216  40.273
14328DA     SC493119  50.316  57.437  40.163
14329DA     BB193120  50.317  58.152  40.338
14329DA     BB293121  50.127  58.016  40.621
14329DA     BB393122  50.259  57.936  40.768
14329DA     SC193123  50.260  57.650  40.646
14329DA     SC293124  50.173  57.423  40.706
14329DA     SC393125  50.347  57.335  40.540
14329DA     SC493126  50.375  57.614  40.540
14330DT     BB193127  50.283  58.023  40.963
14330DT     BB293128  50.096  57.772  41.142
14330DT     BB393129  50.225  57.654  41.253
14330DT     SC193130  50.307  57.528  41.038
14330DT     SC293131  50.236  57.325  41.042
14330DT     SC393132  50.468  57.441  40.848
14331DA     BB193133  49.939  57.789  41.530
14331DA     BB293134  49.963  57.425  41.564
14331DA     BB393135  50.142  57.372  41.668
14331DA     SC193136  50.313  57.346  41.409
14331DA     SC293137  50.423  57.165  41.277
14331DA     SC393138  50.567  57.353  41.178
14331DA     SC493139  50.394  57.477  41.360
14332DT     BB193140  50.129  57.284  41.854
14332DT     BB293141  50.209  56.949  41.745
14332DT     BB393142  50.401  56.899  41.804
14332DT     SC193143  50.506  57.052  41.619
14332DT     SC293144  50.600  56.928  41.469
14332DT     SC393145  50.643  57.247  41.506
14333DT     BB193146  50.293  56.730  41.983
14333DT     BB293147  50.504  56.524  41.775
14333DT     BB393148  50.698  56.527  41.846
14333DT     SC193149  50.736  56.770  41.753
14333DT     SC293150  50.875  56.761  41.588
14333DT     SC393151  50.784  57.029  41.747
14334DA     BB193152  50.578  56.129  41.793
14334DA     BB293153  50.905  56.173  41.632
14334DA     BB393154  51.058  56.193  41.780
14334DA     SC193155  51.038  56.503  41.795
14334DA     SC293156  51.176  56.700  41.730
14334DA     SC393157  51.033  56.830  41.899
14334DA     SC493158  50.939  56.565  41.905
14335DA     BB193159  51.179  55.950  41.595
14335DA     BB293160  51.465  56.171  41.531
14335DA     BB393161  51.589  56.183  41.704
14335DA     SC193162  51.440  56.430  41.822
14335DA     SC293163  51.487  56.672  41.860
14335DA     SC393164  51.295  56.661  42.031
14335DA     SC493165  51.320  56.403  41.925
14336DT     BB193166  51.772  56.106  41.692
14336DT     BB293167  51.951  56.420  41.677
14336DT     BB393168  52.039  56.459  41.860
14336DT     SC193169  51.808  56.524  41.967
14336DT     SC293170  51.805  56.736  42.006
14336DT     SC393171  51.597  56.517  42.124
14337DT     BB193172  52.283  56.406  41.754
14337DT     BB293173  52.311  56.741  41.882
14337DT     BB393174  52.365  56.736  42.082
14337DT     SC193175  52.123  56.663  42.153
14337DT     SC293176  52.027  56.824  42.259
14337DT     SC393177  51.927  56.516  42.250
14338DA     BB193178  52.635  56.991  41.889
14338DA     BB293179  52.508  57.166  42.185
14338DA     BB393180  52.594  57.083  42.362
14338DA     SC193181  52.368  56.873  42.404
14338DA     SC293182  52.181  56.833  42.564
14338DA     SC393183  52.188  56.591  42.479
14338DA     SC493184  52.389  56.728  42.339
14339DT     BB193185  52.710  57.203  42.462
14339DT     BB293186  52.480  57.268  42.733
14339DT     BB393187  52.535  57.159  42.900
14339DT     SC193188  52.444  56.937  42.794
14339DT     SC293189  52.268  56.874  42.901
14339DT     SC393190  52.441  56.693  42.694
14340DA     BB193191  52.475  57.561  43.001
14340DA     BB293192  52.291  57.354  43.240
14340DA     BB393193  52.426  57.253  43.371
14340DA     SC193194  52.452  57.001  43.190
14340DA     SC293195  52.382  56.762  43.196
14340DA     SC393196  52.565  56.725  43.021
14340DA     SC493197  52.571  56.998  43.083
14341DT     BB193198  52.405  57.309  43.544
14341DT     BB293199  52.246  57.011  43.671
14341DT     BB393200  52.386  56.892  43.767
14341DT     SC193201  52.489  56.815  43.538
14341DT     SC293202  52.444  56.607  43.506
14341DT     SC393203  52.664  56.781  43.344
14342DT     BB193204  52.262  56.962  43.991
14342DT     BB293205  52.256  56.601  43.990
14342DT     BB393206  52.435  56.527  44.064
14342DT     SC193207  52.561  56.588  43.842
14342DT     SC293208  52.614  56.407  43.738
14342DT     SC393209  52.731  56.702  43.677
14343DT     BB193210  52.304  56.452  44.287
14343DT     BB293211  52.462  56.150  44.170
14343DT     BB393212  52.657  56.140  44.240
14343DT     SC193213  52.736  56.322  44.069
14343DT     SC293214  52.863  56.230  43.921
14343DT     SC393215  52.833  56.549  43.974
14344DT     BB193216  52.592  55.943  44.422
14344DT     BB293217  52.866  55.801  44.234
14344DT     BB393218  53.046  55.855  44.321
14344DT     SC193219  53.027  56.099  44.228
14344DT     SC293220  53.176  56.129  44.075
14344DT     SC393221  53.006  56.362  44.223
14345DC     BB193222  53.093  55.602  44.429
14345DC     BB293223  53.391  55.668  44.237
14345DC     BB393224  53.531  55.765  44.355
14345DC     SC193225  53.397  55.990  44.343
14345DC     SC293226  53.508  56.132  44.224
14345DC     SC393227  53.258  56.200  44.420
14346DA     BB193228  53.750  55.434  44.214
14346DA     BB293229  53.959  55.730  44.160
14346DA     BB393230  54.048  55.793  44.344
14346DA     SC193231  53.816  55.985  44.420
14346DA     SC293232  53.778  56.231  44.439
14346DA     SC393233  53.578  56.168  44.588
14346DA     SC493234  53.697  55.926  44.511
14347DC     BB193235  54.270  55.782  44.395
14347DC     BB293236  54.336  56.136  44.361
14347DC     BB393237  54.375  56.218  44.547
14347DC     SC193238  54.122  56.208  44.614
14347DC     SC293239  54.042  56.407  44.624
14347DC     SC393240  53.902  56.141  44.744
14348DT     BB193241  54.658  56.248  44.514
14348DT     BB293242  54.545  56.582  44.590
14348DT     BB393243  54.557  56.616  44.794
14348DT     SC193244  54.345  56.467  44.839
14348DT     SC293245  54.182  56.592  44.903
14348DT     SC393246  54.196  56.269  44.929
14349DC     BB193247  54.783  56.786  44.781
14349DC     BB293248  54.531  56.988  44.943
14349DC     BB393249  54.545  56.967  45.148
14349DC     SC193250  54.437  56.728  45.139
14349DC     SC293251  54.241  56.735  45.227
14349DC     SC393252  54.410  56.467  45.162
14350DA     BB193253  54.552  57.376  45.066
14350DA     BB293254  54.295  57.317  45.321
14350DA     BB393255  54.386  57.280  45.510
14350DA     SC193256  54.400  56.972  45.470
14350DA     SC293257  54.291  56.768  45.564
14350DA     SC393258  54.494  56.641  45.472
14350DA     SC493259  54.535  56.911  45.406
14351DC     BB193260  54.352  57.415  45.650
14351DC     BB293261  54.115  57.218  45.838
14351DC     BB393262  54.204  57.146  46.010
14351DC     SC193263  54.339  56.967  45.874
14351DC     SC293264  54.263  56.771  45.920
14351DC     SC393265  54.544  56.836  45.771
14352DA     BB193266  53.832  57.326  46.082
14352DA     BB293267  53.838  56.999  46.247
14352DA     BB393268  53.972  57.002  46.413
14352DA     SC193269  54.218  56.909  46.246
14352DA     SC293270  54.362  56.706  46.227
14352DA     SC393271  54.534  56.863  46.119
14352DA     SC493272  54.312  57.023  46.183
14353DG     BB193273  53.703  56.923  46.537
14353DG     BB293274  53.885  56.620  46.613
14353DG     BB393275  54.008  56.651  46.766
14353DG     SC193276  54.243  56.739  46.591
14353DG     SC293277  54.500  56.592  46.555
14353DG     SC393278  54.515  56.860  46.432
14353DG     SC493279  54.257  56.894  46.552
14354DA     BB193280  53.855  56.363  46.879
14354DA     BB293281  54.184  56.203  46.904
14354DA     BB393282  54.295  56.285  47.066
14354DA     SC193283  54.429  56.507  46.893
14354DA     SC293284  54.656  56.560  46.806
14354DA     SC393285  54.568  56.800  46.780
14354DA     SC493286  54.356  56.650  46.886
14355DT     BB193287  54.330  56.164  47.209
14355DT     BB293288  54.683  56.120  47.149
14355DT     BB393289  54.792  56.236  47.281
14355DT     SC193290  54.733  56.455  47.150
14355DT     SC293291  54.910  56.530  47.054
14355DT     SC393292  54.634  56.694  47.098
14356DC     BB193293  54.866  56.012  47.415
14356DC     BB293294  55.178  56.172  47.330
14356DC     BB393295  55.228  56.312  47.475
14356DC     SC193296  55.046  56.479  47.387
14356DC     SC293297  55.142  56.648  47.295
14356DC     SC393298  54.830  56.631  47.382
14357DA     BB193299  55.567  56.067  47.438
14357DA     BB293300  55.680  56.416  47.427
14357DA     BB393301  55.673  56.502  47.621
14357DA     SC193302  55.382  56.609  47.589
14357DA     SC293303  55.268  56.829  47.566
14357DA     SC393304  55.057  56.705  47.642
14357DA     SC493305  55.262  56.514  47.639
14358DT     BB193306  55.849  56.558  47.727
14358DT     BB293307  55.814  56.915  47.687
14358DT     BB393308  55.759  57.001  47.867
14358DT     SC193309  55.513  56.911  47.844
14358DT     SC293310  55.380  57.076  47.809
14358DT     SC393311  55.292  56.777  47.895
14359DT     BB193312  56.009  57.111  47.910
14359DT     BB293313  55.786  57.394  47.925
14359DT     BB393314  55.719  57.420  48.119
14359DT     SC193315  55.557  57.214  48.099
14359DT     SC293316  55.353  57.284  48.097
14359DT     SC393317  55.450  56.978  48.145
14360DT     BB193318  55.876  57.645  48.159
14360DT     BB293319  55.541  57.759  48.228
14360DT     BB393320  55.496  57.729  48.428
14360DT     SC193321  55.467  57.471  48.391
14360DT     SC293322  55.260  57.419  48.413
14360DT     SC393323  55.509  57.211  48.411
14361DT     BB193324  55.514  58.000  48.491
14361DT     BB293325  55.181  57.908  48.596
14361DT     BB393326  55.185  57.843  48.792
14361DT     SC193327  55.294  57.615  48.724
14361DT     SC293328  55.151  57.456  48.751
14361DT     SC393329  55.469  57.419  48.706
14362DT     BB193330  55.063  58.074  48.885
14362DT     BB293331  54.846  57.808  48.997
14362DT     BB393332  54.907  57.741  49.183
14362DT     SC193333  55.112  57.615  49.080
14362DT     SC293334  55.081  57.402  49.096
14362DT     SC393335  55.362  57.548  49.027
14363DG     BB193336  54.521  57.863  49.226
14363DG     BB293337  54.566  57.525  49.347
14363DG     BB393338  54.647  57.528  49.529
14363DG     SC193339  54.935  57.522  49.427
14363DG     SC293340  55.130  57.299  49.463
14363DG     SC393341  55.263  57.537  49.351
14363DG     SC493342  55.009  57.661  49.395
14364DT     BB193343  54.537  57.445  49.698
14364DT     BB293344  54.713  57.136  49.755
14364DT     BB393345  54.837  57.154  49.920
14364DT     SC193346  55.008  57.299  49.784
14364DT     SC293347  55.189  57.186  49.753
14364DT     SC393348  55.155  57.506  49.710
14365DC     BB193349  54.669  56.992  50.054
14365DC     BB293350  54.989  56.829  50.076
14365DC     BB393351  55.096  56.904  50.237
14365DC     SC193352  55.149  57.126  50.108
14365DC     SC293353  55.358  57.133  50.060
14365DC     SC393354  55.152  57.383  50.047
14366DT     BB193355  55.055  56.671  50.366
14366DT     BB293356  55.414  56.711  50.365
14366DT     BB393357  55.472  56.826  50.527
14366DT     SC193358  55.385  57.045  50.412
14366DT     SC293359  55.552  57.169  50.357
14366DT     SC393360  55.242  57.263  50.369
14367DC     BB193361  55.576  56.606  50.653
14367DC     BB293362  55.852  56.839  50.641
14367DC     BB393363  55.846  56.963  50.806
14367DC     SC193364  55.646  57.100  50.707
14367DC     SC293365  55.713  57.297  50.653
14367DC     SC393366  55.404  57.203  50.681
14368DT     BB193367  56.061  56.837  50.932
14368DT     BB293368  56.161  57.184  50.918
14368DT     BB393369  56.096  57.283  51.088
14368DT     SC193370  55.849  57.286  51.001
14368DT     SC293371  55.793  57.488  50.951
14368DT     SC393372  55.590  57.238  50.988
14369DC     BB193373  56.350  57.299  51.213
14369DC     BB293374  56.240  57.643  51.199
14369DC     BB393375  56.138  57.691  51.373
14369DC     SC193376  55.927  57.555  51.296
14369DC     SC293377  55.767  57.691  51.252
14369DC     SC393378  55.738  57.371  51.293
14370DA     BB193379  56.434  57.989  51.358
14370DA     BB293380  56.114  58.159  51.412
14370DA     BB393381  56.054  58.141  51.616
14370DA     SC193382  55.893  57.878  51.571
14370DA     SC293383  55.655  57.805  51.570
14370DA     SC393384  55.748  57.569  51.604
14370DA     SC493385  55.971  57.739  51.593
14371DA     BB193386  56.037  58.470  51.613
14371DA     BB293387  55.677  58.437  51.678
14371DA     BB393388  55.643  58.400  51.886
14371DA     SC193389  55.654  58.091  51.857
14371DA     SC293390  55.496  57.898  51.871
14371DA     SC393391  55.705  57.755  51.908
14371DA     SC493392  55.796  58.019  51.880
14372DC     BB193393  55.545  58.541  51.988
14372DC     BB293394  55.230  58.367  52.005
14372DC     BB393395  55.201  58.291  52.196
14372DC     SC193396  55.376  58.099  52.154
14372DC     SC293397  55.274  57.911  52.143
14372DC     SC393398  55.593  57.952  52.179
14373DA     BB193399  54.863  58.506  52.074
14373DA     BB293400  54.753  58.179  52.199
14373DA     BB393401  54.774  58.170  52.412
14373DA     SC193402  55.063  58.056  52.403
14373DA     SC293403  55.179  57.841  52.456
14373DA     SC393404  55.393  57.983  52.467
14373DA     SC493405  55.185  58.161  52.407
14374DT     BB193406  54.609  58.153  52.503
14374DT     BB293407  54.644  57.806  52.596
14374DT     BB393408  54.701  57.791  52.794
14374DT     SC193409  54.946  57.866  52.736
14374DT     SC293410  55.079  57.699  52.762
14374DT     SC393411  55.168  58.009  52.733
14375DC     BB193412  54.456  57.699  52.839
14375DC     BB293413  54.678  57.441  52.959
14375DC     BB393414  54.739  57.484  53.152
14375DC     SC193415  54.903  57.671  53.066
14375DC     SC293416  55.106  57.607  53.094
14375DC     SC393417  55.009  57.909  53.028
14376DT     BB193418  54.585  57.282  53.233
14376DT     BB293419  54.914  57.202  53.356
14376DT     BB393420  54.947  57.298  53.537
14376DT     SC193421  54.980  57.529  53.417
14376DT     SC293422  55.186  57.589  53.432
14376DT     SC393423  54.939  57.780  53.346
14377DT     BB193424  54.930  57.058  53.654
14377DT     BB293425  55.252  57.185  53.753
14377DT     BB393426  55.232  57.308  53.918
14377DT     SC193427  55.131  57.501  53.772
14377DT     SC293428  55.272  57.664  53.761
14377DT     SC393429  54.959  57.678  53.679
14378DA     BB193430  55.531  57.026  54.003
14378DA     BB293431  55.660  57.357  54.093
14378DA     BB393432  55.564  57.428  54.270
14378DA     SC193433  55.334  57.572  54.118
14378DA     SC293434  55.261  57.806  54.072
14378DA     SC393435  55.032  57.704  54.022
14378DA     SC493436  55.199  57.490  54.092
14379DT     BB193437  55.678  57.449  54.429
14379DT     BB293438  55.691  57.810  54.430
14379DT     BB393439  55.564  57.885  54.575
14379DT     SC193440  55.353  57.831  54.429
14379DT     SC293441  55.264  58.014  54.361
14379DT     SC393442  55.125  57.722  54.354
14380DA     BB193443  55.939  58.063  54.637
14380DA     BB293444  55.687  58.329  54.643
14380DA     BB393445  55.574  58.320  54.824
14380DA     SC193446  55.356  58.131  54.707
14380DA     SC293447  55.115  58.145  54.644
14380DA     SC393448  55.116  57.889  54.663
14380DA     SC493449  55.376  57.973  54.726
14381DA     BB193450  55.665  58.636  54.849
14381DA     BB293451  55.309  58.722  54.847
14381DA     BB393452  55.221  58.678  55.036
14381DA     SC193453  55.139  58.388  54.958
14381DA     SC293454  54.929  58.261  54.913
14381DA     SC393455  55.070  58.051  54.959
14381DA     SC493456  55.243  58.270  54.992
14382DA     BB193457  55.127  58.994  55.018
14382DA     BB293458  54.781  58.872  55.031
14382DA     BB393459  54.731  58.811  55.229
14382DA     SC193460  54.821  58.516  55.188
14382DA     SC293461  54.714  58.291  55.171
14382DA     SC393462  54.946  58.199  55.230
14382DA     SC493463  54.972  58.478  55.227
14383DA     BB193464  54.478  59.021  55.194
14383DA     BB293465  54.255  58.734  55.239
14383DA     BB393466  54.244  58.680  55.445
14383DA     SC193467  54.481  58.479  55.431
14383DA     SC293468  54.514  58.232  55.443
14383DA     SC393469  54.758  58.288  55.498
14383DA     SC493470  54.628  58.534  55.465
14384DT     BB193471  54.066  58.702  55.551
14384DT     BB293472  53.979  58.352  55.561
14384DT     BB393473  54.010  58.277  55.751
14384DT     SC193474  54.270  58.276  55.718
14384DT     SC293475  54.340  58.073  55.707
14384DT     SC393476  54.525  58.335  55.752
14385DT     BB193477  53.740  58.262  55.795
14385DT     BB293478  53.860  57.925  55.844
14385DT     BB393479  53.919  57.899  56.041
14385DT     SC193480  54.139  58.037  56.000
14385DT     SC293481  54.309  57.906  56.009
14385DT     SC393482  54.318  58.229  56.021
14386DT     BB193483  53.703  57.744  56.081
14386DT     BB293484  53.984  57.534  56.164
14386DT     BB393485  54.039  57.563  56.361
14386DT     SC193486  54.149  57.795  56.304
14386DT     SC293487  54.362  57.779  56.324
14386DT     SC393488  54.193  58.055  56.302
14387DT     BB193489  53.943  57.320  56.407
14387DT     BB293490  54.288  57.307  56.511
14387DT     BB393491  54.307  57.379  56.704
14387DT     SC193492  54.276  57.627  56.623
14387DT     SC293493  54.461  57.733  56.644
14387DT     SC393494  54.171  57.867  56.593
14388DA     BB193495  54.500  57.009  56.667
14388DA     BB293496  54.730  57.244  56.830
14388DA     BB393497  54.663  57.287  57.028
14388DA     SC193498  54.492  57.532  56.943
14388DA     SC293499  54.498  57.780  56.970
14388DA     SC393500  54.248  57.772  56.916
14388DA     SC493501  54.337  57.506  56.909
14389DA     BB193502  54.975  57.197  57.073
14389DA     BB293503  55.026  57.531  57.217
14389DA     BB393504  54.931  57.545  57.407
14389DA     SC193505  54.661  57.648  57.293
14389DA     SC293506  54.529  57.860  57.293
14389DA     SC393507  54.329  57.712  57.234
14389DA     SC493508  54.548  57.539  57.258
14390DA     BB193509  55.236  57.644  57.474
14390DA     BB293510  55.084  57.960  57.584
14390DA     BB393511  54.981  57.932  57.768
14390DA     SC193512  54.709  57.862  57.633
14390DA     SC293513  54.484  57.967  57.606
14390DA     SC393514  54.403  57.729  57.555
14390DA     SC493515  54.678  57.707  57.605
14391DT     BB193516  55.052  58.025  57.927
14391DT     BB293517  54.795  58.277  57.953
14391DT     BB393518  54.664  58.228  58.106
14391DT     SC193519  54.552  58.040  57.961
14391DT     SC293520  54.353  58.100  57.908
14391DT     SC393521  54.475  57.801  57.883
14392DC     BB193522  54.766  58.429  58.255
14392DC     BB293523  54.413  58.499  58.237
14392DC     BB393524  54.313  58.396  58.385
14392DC     SC193525  54.337  58.169  58.255
14392DC     SC293526  54.144  58.107  58.183
14392DC     SC393527  54.411  57.923  58.198
14393DC     BB193528  54.272  58.627  58.523
14393DC     BB293529  53.941  58.492  58.471
14393DC     BB393530  53.894  58.359  58.622
14393DC     SC193531  54.053  58.176  58.520
14393DC     SC293532  53.934  58.014  58.442
14393DC     SC393533  54.253  58.006  58.498
14394DC     BB193534  53.720  58.538  58.725
14394DC     BB293535  53.522  58.242  58.663
14394DC     BB393536  53.534  58.114  58.825
14394DC     SC193537  53.778  58.041  58.759
14394DC     SC293538  53.775  57.837  58.691
14394DC     SC393539  54.039  58.007  58.773
14395DA     BB193540  53.129  58.172  58.734
14395DA     BB293541  53.188  57.812  58.765
14395DA     BB393542  53.218  57.759  58.970
14395DA     SC193543  53.527  57.796  58.959
14395DA     SC293544  53.731  57.653  58.967
14395DA     SC393545  53.855  57.868  59.032
14395DA     SC493546  53.586  57.941  58.999
14396DA     BB193547  52.980  57.550  58.888
14396DA     BB293548  53.215  57.282  58.972
14396DA     BB393549  53.240  57.268  59.183
14396DA     SC193550  53.480  57.465  59.193
14396DA     SC293551  53.725  57.456  59.238
14396DA     SC393552  53.706  57.708  59.283
14396DA     SC493553  53.447  57.621  59.219
14397DA     BB193554  53.162  56.957  59.112
14397DA     BB293555  53.489  56.866  59.251
14397DA     BB393556  53.486  56.883  59.464
14397DA     SC193557  53.581  57.179  59.466
14397DA     SC293558  53.785  57.307  59.531
14397DA     SC393559  53.630  57.511  59.539
14397DA     SC493560  53.468  57.293  59.467
14398DC     BB193561  53.505  56.715  59.572
14398DC     BB293562  53.844  56.772  59.683
14398DC     BB393563  53.844  56.834  59.881
14398DC     SC193564  53.760  57.073  59.814
14398DC     SC293565  53.917  57.216  59.845
14398DC     SC393566  53.605  57.286  59.796
14399DA     BB193567  54.109  56.508  59.863
14399DA     BB293568  54.279  56.782  60.038
14399DA     BB393569  54.199  56.804  60.235
14399DA     SC193570  53.982  57.010  60.150
14399DA     SC293571  53.936  57.253  60.182
14399DA     SC393572  53.694  57.194  60.120
14399DA     SC493573  53.837  56.953  60.110
14400DA     BB193574  54.515  56.772  60.325
14400DA     BB293575  54.491  57.110  60.464
14400DA     BB393576  54.387  57.107  60.650
14400DA     SC193577  54.107  57.153  60.521
14400DA     SC293578  53.936  57.334  60.511
14400DA     SC393579  53.772  57.148  60.445
14400DA     SC493580  54.020  57.023  60.483
14401DA     BB193581  54.657  57.259  60.757
14401DA     BB293582  54.442  57.545  60.836
14401DA     BB393583  54.333  57.509  61.015
14401DA     SC193584  54.089  57.381  60.869
14401DA     SC293585  53.851  57.439  60.822
14401DA     SC393586  53.819  57.188  60.782
14401DA     SC493587  54.089  57.221  60.850
14402DC     BB193588  54.371  57.623  61.181
14402DC     BB293589  54.073  57.825  61.161
14402DC     BB393590  53.939  57.768  61.308
14402DC     SC193591  53.875  57.550  61.176
14402DC     SC293592  53.674  57.567  61.103
14402DC     SC393593  53.848  57.294  61.118
14403DT     BB193594  53.989  57.998  61.446
14403DT     BB293595  53.632  58.003  61.388
14403DT     BB393596  53.535  57.901  61.540
14403DT     SC193597  53.610  57.669  61.444
14403DT     SC293598  53.439  57.565  61.365
14403DT     SC393599  53.729  57.434  61.427
14404DG     BB193600  53.382  58.279  61.541
14404DG     BB293601  53.119  58.032  61.522
14404DG     BB393602  53.084  57.955  61.702
14404DG     SC193603  53.289  57.730  61.673
14404DG     SC293604  53.227  57.438  61.658
14404DG     SC393605  53.519  57.483  61.684
14404DG     SC493606  53.441  57.757  61.717
14405DA     BB193607  52.750  58.033  61.653
14405DA     BB293608  52.662  57.678  61.685
14405DA     BB393609  52.662  57.620  61.890
14405DA     SC193610  52.961  57.534  61.890
14405DA     SC293611  53.092  57.322  61.905
14405DA     SC393612  53.288  57.472  61.975
14405DA     SC493613  53.070  57.643  61.933
14406DA     BB193614  52.361  57.522  61.809
14406DA     BB293615  52.472  57.182  61.890
14406DA     BB393616  52.480  57.155  62.102
14406DA     SC193617  52.777  57.245  62.127
14406DA     SC293618  52.997  57.141  62.179
14406DA     SC393619  53.074  57.380  62.233
14406DA     SC493620  52.805  57.400  62.157
14407DG     BB193621  52.277  56.937  62.029
14407DG     BB293622  52.541  56.720  62.147
14407DG     BB393623  52.538  56.711  62.346
14407DG     SC193624  52.726  56.950  62.384
14407DG     SC293625  53.002  56.939  62.497
14407DG     SC393626  52.913  57.219  62.463
14407DG     SC493627  52.664  57.097  62.393
14408DA     BB193628  52.552  56.382  62.262
14408DA     BB293629  52.863  56.353  62.454
14408DA     BB393630  52.822  56.366  62.663
14408DA     SC193631  52.858  56.675  62.675
14408DA     SC293632  53.020  56.838  62.771
14408DA     SC393633  52.830  57.009  62.750
14408DA     SC493634  52.726  56.766  62.656
14409DA     BB193635  53.012  56.109  62.594
14409DA     BB293636  53.249  56.261  62.830
14409DA     BB393637  53.167  56.261  63.027
14409DA     SC193638  53.035  56.541  62.998
14409DA     SC293639  53.067  56.771  63.090
14409DA     SC393640  52.824  56.812  63.018
14409DA     SC493641  52.882  56.546  62.948
14410DT     BB193642  53.282  56.172  63.093
14410DT     BB293643  53.428  56.425  63.305
14410DT     BB393644  53.322  56.439  63.482
14410DT     SC193645  53.124  56.564  63.363
14410DT     SC293646  53.118  56.769  63.430
14410DT     SC393647  52.882  56.614  63.270
14411DA     BB193648  53.737  56.418  63.556
14411DA     BB293649  53.592  56.671  63.779
14411DA     BB393650  53.465  56.579  63.923
14411DA     SC193651  53.209  56.602  63.749
14411DA     SC293652  52.995  56.731  63.750
14411DA     SC393653  52.907  56.547  63.594
14411DA     SC493654  53.172  56.477  63.654
14412DT     BB193655  53.520  56.577  64.115
14412DT     BB293656  53.268  56.801  64.244
14412DT     BB393657  53.117  56.692  64.336
14412DT     SC193658  53.020  56.617  64.104
14412DT     SC293659  52.830  56.713  64.071
14412DT     SC393660  52.947  56.461  63.904
14413DC     BB193661  53.187  56.736  64.613
14413DC     BB293662  52.840  56.834  64.601
14413DC     BB393663  52.719  56.672  64.648
14413DC     SC193664  52.761  56.562  64.413
14413DC     SC293665  52.580  56.570  64.298
14413DC     SC393666  52.841  56.389  64.231
14414DT     BB193667  52.642  56.741  64.920
14414DT     BB293668  52.326  56.699  64.753
14414DT     BB393669  52.258  56.505  64.778
14414DT     SC193670  52.433  56.413  64.605
14414DT     SC293671  52.330  56.348  64.427
14414DT     SC393672  52.637  56.278  64.506
14415DG     BB193673  51.960  56.729  64.945
14415DG     BB293674  51.829  56.509  64.690
14415DG     BB393675  51.803  56.327  64.764
14415DG     SC193676  52.085  56.231  64.693
14415DG     SC293677  52.152  56.020  64.492
14415DG     SC393678  52.392  56.099  64.647
14415DG     SC493679  52.204  56.254  64.797
14416DT     BB193680  51.605  56.244  64.767
14416DT     BB293681  51.625  56.012  64.492
14416DT     BB393682  51.646  55.819  64.563
14416DT     SC193683  51.897  55.861  64.627
14416DT     SC293684  52.024  55.747  64.496
14416DT     SC393685  52.115  55.888  64.773
14417DT     BB193686  51.403  55.792  64.469
14417DT     BB293687  51.601  55.543  64.298
14417DT     BB393688  51.625  55.377  64.419
14417DT     SC193689  51.799  55.501  64.571
14417DT     SC293690  51.994  55.416  64.541
14417DT     SC393691  51.908  55.612  64.784
14418DA     BB193692  51.505  55.276  64.027
14418DA     BB293693  51.784  55.059  64.125
14418DA     BB393694  51.723  54.925  64.279
14418DA     SC193695  51.806  55.115  64.511
14418DA     SC293696  51.981  55.125  64.689
14418DA     SC393697  51.823  55.290  64.806
14418DA     SC493698  51.693  55.215  64.569
14419DA     BB193699  51.849  54.711  64.061
14419DA     BB293700  52.079  54.608  64.327
14419DA     BB393701  51.975  54.496  64.476
14419DA     SC193702  51.906  54.745  64.649
14419DA     SC293703  51.972  54.841  64.870
14419DA     SC393704  51.753  54.974  64.855
14419DA     SC493705  51.766  54.819  64.622
14420DA     BB193706  52.201  54.255  64.425
14420DA     BB293707  52.295  54.289  64.777
14420DA     BB393708  52.151  54.193  64.902
14420DA     SC193709  51.976  54.447  64.937
14420DA     SC293710  51.919  54.608  65.119
14420DA     SC393711  51.715  54.668  64.974
14420DA     SC493712  51.855  54.469  64.834
14421DT     BB193713  52.175  53.994  65.032
14421DT     BB293714  52.192  54.159  65.352
14421DT     BB393715  52.023  54.116  65.463
14421DT     SC193716  51.876  54.278  65.317
14421DT     SC293717  51.820  54.449  65.435
14421DT     SC393718  51.689  54.362  65.152
14422DA     BB193719  52.311  53.978  65.741
14422DA     BB293720  52.089  54.203  65.927
14422DA     BB393721  51.910  54.100  65.983
14422DA     SC193722  51.755  54.179  65.725
14422DA     SC293723  51.563  54.326  65.662
14422DA     SC393724  51.548  54.182  65.451
14422DA     SC493725  51.760  54.077  65.601
14423DT     BB193726  51.836  54.037  66.206
14423DT     BB293727  51.590  54.299  66.236
14423DT     BB393728  51.400  54.217  66.244
14423DT     SC193729  51.403  54.164  65.987
14423DT     SC293730  51.263  54.292  65.886
14423DT     SC393731  51.402  54.026  65.762
14424DA     BB193732  51.417  54.457  66.587
14424DA     BB293733  51.111  54.548  66.406
14424DA     BB393734  50.958  54.402  66.440
14424DA     SC193735  51.037  54.227  66.195
14424DA     SC293736  50.942  54.169  65.973
14424DA     SC393737  51.099  53.966  65.981
14424DA     SC493738  51.141  54.107  66.220
14425DC     BB193739  50.778  54.451  66.550
14425DC     BB293740  50.565  54.472  66.260
14425DC     BB393741  50.433  54.313  66.257
14425DC     SC193742  50.623  54.147  66.182
14425DC     SC293743  50.587  54.085  65.980
14425DC     SC393744  50.792  53.945  66.188
14426DG     BB193745  50.215  54.655  66.254
14426DG     BB293746  50.127  54.440  65.977
14426DG     BB393747  50.005  54.295  66.039
14426DG     SC193748  50.230  54.101  66.110
14426DG     SC293749  50.288  53.842  65.972
14426DG     SC393750  50.452  53.870  66.216
14426DG     SC493751  50.294  54.106  66.256
14427DC     BB193752  49.820  54.293  65.947
14427DC     BB293753  49.857  54.012  65.723
14427DC     BB393754  49.762  53.846  65.802
14427DC     SC193755  49.954  53.810  65.978
14427DC     SC293756  50.064  53.633  65.928
14427DC     SC393757  50.077  53.792  66.211
14428DT     BB193758  49.616  53.897  65.597
14428DT     BB293759  49.741  53.561  65.550
14428DT     BB393760  49.630  53.428  65.664
14428DT     SC193761  49.746  53.508  65.885
14428DT     SC293762  49.873  53.351  65.959
14428DT     SC393763  49.778  53.613  66.125
14429DA     BB193764  49.743  53.332  65.264
14429DA     BB293765  49.800  53.043  65.483
14429DA     BB393766  49.615  52.974  65.564
14429DA     SC193767  49.631  53.154  65.817
14429DA     SC293768  49.665  53.124  66.063
14429DA     SC393769  49.557  53.356  66.085
14429DA     SC493770  49.560  53.298  65.810
14430DA     BB193771  49.844  52.747  65.452
14430DA     BB293772  49.780  52.587  65.776
14430DA     BB393773  49.572  52.547  65.799
14430DA     SC193774  49.509  52.819  65.935
14430DA     SC293775  49.444  52.902  66.161
14430DA     SC393776  49.362  53.112  66.039
14430DA     SC493777  49.463  52.941  65.841
14431DA     BB193778  49.748  52.273  65.888
14431DA     BB293779  49.533  52.270  66.185
14431DA     BB393780  49.328  52.250  66.128
14431DA     SC193781  49.278  52.557  66.109
14431DA     SC293782  49.151  52.731  66.234
14431DA     SC393783  49.169  52.869  66.019
14431DA     SC493784  49.299  52.627  65.966
14432DC     BB193785  49.232  52.082  66.166
14432DC     BB293786  48.981  52.203  66.396
14432DC     BB393787  48.803  52.235  66.295
14432DC     SC193788  48.896  52.453  66.183
14432DC     SC293789  48.795  52.624  66.266
14432DC     SC393790  48.976  52.622  65.997
14433DA     BB193791  48.624  51.952  66.566
14433DA     BB293792  48.387  52.231  66.545
14433DA     BB393793  48.269  52.215  66.368
14433DA     SC193794  48.464  52.384  66.194
14433DA     SC293795  48.467  52.608  66.085
14433DA     SC393796  48.654  52.512  65.938
14433DA     SC493797  48.578  52.305  66.112
14434DA     BB193798  47.939  52.200  66.503
14434DA     BB293799  47.859  52.516  66.336
14434DA     BB393800  47.784  52.480  66.140
14434DA     SC193801  48.063  52.493  66.004
14434DA     SC293802  48.187  52.645  65.850
14434DA     SC393803  48.336  52.442  65.802
14434DA     SC493804  48.144  52.355  65.987
14435DT     BB193805  47.549  52.510  66.035
14435DT     BB293806  47.634  52.812  65.857
14435DT     BB393807  47.621  52.780  65.653
14435DT     SC193808  47.845  52.643  65.652
14435DT     SC293809  47.997  52.756  65.551
14435DT     SC393810  48.011  52.441  65.625
14436DA     BB193811  47.375  53.114  65.717
14436DA     BB293812  47.614  53.202  65.453
14436DA     BB393813  47.556  53.114  65.268
14436DA     SC193814  47.720  52.853  65.312
14436DA     SC293815  47.923  52.745  65.217
14436DA     SC393816  47.830  52.528  65.318
14436DA     SC493817  47.645  52.729  65.382
14437DT     BB193818  47.504  53.239  65.123
14437DT     BB293819  47.810  53.207  64.934
14437DT     BB393820  47.778  53.090  64.766
14437DT     SC193821  47.770  52.871  64.910
14437DT     SC293822  47.944  52.752  64.868
14437DT     SC393823  47.677  52.651  65.022
14438DC     BB193824  47.814  53.317  64.638
14438DC     BB293825  48.067  53.093  64.511
14438DC     BB393826  47.987  52.972  64.364
14438DC     SC193827  47.860  52.827  64.543
14438DC     SC293828  47.949  52.632  64.553
14438DC     SC393829  47.661  52.716  64.677
14439DT     BB193830  48.143  53.114  64.211
14439DT     BB293831  48.244  52.771  64.161
14439DT     BB393832  48.115  52.678  64.028
14439DT     SC193833  47.927  52.662  64.211
14439DT     SC293834  47.900  52.456  64.267
14439DT     SC393835  47.697  52.699  64.335
14440DA     BB193836  48.514  52.613  63.912
14440DA     BB293837  48.336  52.292  63.901
14440DA     BB393838  48.196  52.291  63.740
14440DA     SC193839  47.961  52.402  63.910
14440DA     SC293840  47.744  52.319  64.002
14440DA     SC393841  47.680  52.566  64.019
14440DA     SC493842  47.939  52.561  63.911
14441DG     BB193843  48.364  52.047  63.639
14441DG     BB293844  48.053  51.868  63.686
14441DG     BB393845  47.934  51.898  63.530
14441DG     SC193846  47.800  52.147  63.648
14441DG     SC293847  47.515  52.169  63.732
14441DG     SC393848  47.647  52.434  63.737
14441DG     SC493849  47.866  52.290  63.621
14442DT     BB193850  47.865  51.731  63.387
14442DT     BB293851  47.521  51.689  63.486
14442DT     BB393852  47.396  51.775  63.346
14442DT     SC193853  47.455  52.017  63.430
14442DT     SC293854  47.284  52.103  63.527
14442DT     SC393855  47.547  52.264  63.429
14443DA     BB193856  47.251  51.382  63.379
14443DA     BB293857  46.964  51.607  63.410
14443DA     BB393858  46.910  51.686  63.219
14443DA     SC193859  47.094  51.936  63.243
14443DA     SC293860  47.067  52.182  63.271
14443DA     SC393861  47.307  52.198  63.180
14443DA     SC493862  47.243  51.925  63.184
14444DC     BB193863  46.725  51.636  63.122
14444DC     BB293864  46.561  51.950  63.185
14444DC     BB393865  46.545  52.058  63.009
14444DC     SC193866  46.800  52.119  63.014
14444DC     SC293867  46.822  52.330  63.055
14444DC     SC393868  47.054  52.132  62.943
14445DT     BB193869  46.277  52.012  63.002
14445DT     BB293870  46.307  52.371  63.002
14445DT     BB393871  46.329  52.441  62.808
14445DT     SC193872  46.577  52.358  62.798
14445DT     SC293873  46.709  52.527  62.795
14445DT     SC393874  46.791  52.222  62.722
14446DC     BB193875  46.081  52.540  62.829
14446DC     BB293876  46.289  52.824  62.752
14446DC     BB393877  46.317  52.838  62.547
14446DC     SC193878  46.485  52.636  62.548
14446DC     SC293879  46.683  52.708  62.506
14446DC     SC393880  46.588  52.399  62.498
14447DT     BB193881  46.161  53.053  62.557
14447DT     BB293882  46.469  53.169  62.410
14447DT     BB393883  46.469  53.129  62.207
14447DT     SC193884  46.512  52.874  62.248
14447DT     SC293885  46.711  52.823  62.183
14447DT     SC393886  46.473  52.613  62.250
14448DA     BB193887  46.567  53.535  62.260
14448DA     BB293888  46.810  53.389  62.027
14448DA     BB393889  46.719  53.352  61.838
14448DA     SC193890  46.632  53.062  61.910
14448DA     SC293891  46.693  52.829  61.844
14448DA     SC393892  46.463  52.764  61.938
14448DA     SC493893  46.485  53.042  61.971
14449DA     BB193894  46.971  53.534  61.726
14449DA     BB293895  47.073  53.240  61.532
14449DA     BB393896  46.946  53.215  61.362
14449DA     SC193897  46.743  53.032  61.510
14449DA     SC293898  46.673  52.793  61.505
14449DA     SC393899  46.459  52.875  61.621
14449DA     SC493900  46.617  53.103  61.580
14450DC     BB193901  47.016  53.242  61.159
14450DC     BB293902  47.024  52.892  61.073
14450DC     BB393903  46.869  52.848  60.942
14450DC     SC193904  46.692  52.860  61.135
14450DC     SC293905  46.615  52.663  61.175
14450DC     SC393906  46.485  52.942  61.277
14451DT     BB193907  47.036  52.822  60.720
14451DT     BB293908  46.866  52.504  60.740
14451DT     BB393909  46.691  52.511  60.630
14451DT     SC193910  46.572  52.657  60.813
14451DT     SC293911  46.420  52.540  60.910
14451DT     SC393912  46.452  52.862  60.927
14452DT     BB193913  46.800  52.348  60.440
14452DT     BB293914  46.506  52.172  60.554
14452DT     BB393915  46.341  52.233  60.445
14452DT     SC193916  46.330  52.461  60.575
14452DT     SC293917  46.156  52.463  60.701
14452DT     SC393918  46.336  52.721  60.621
14453DT     BB193919  46.339  51.993  60.321
14453DT     BB293920  46.013  52.019  60.474
14453DT     BB393921  45.884  52.121  60.348
14453DT     SC193922  45.997  52.351  60.404
14453DT     SC293923  45.862  52.471  60.519
14453DT     SC393924  46.130  52.576  60.371
14454DT     BB193925  45.754  51.888  60.297
14454DT     BB293926  45.498  52.109  60.424
14454DT     BB393927  45.419  52.222  60.270
14454DT     SC193928  45.633  52.373  60.260
14454DT     SC293929  45.584  52.571  60.331
14454DT     SC393930  45.852  52.488  60.168
14455DT     BB193931  45.187  52.078  60.277
14455DT     BB293932  45.083  52.421  60.326
14455DT     BB393933  45.052  52.512  60.143
14455DT     SC193934  45.311  52.531  60.100
14455DT     SC293935  45.370  52.737  60.110
14455DT     SC393936  45.547  52.495  59.989
14456DC     BB193937  44.777  52.509  60.173
14456DC     BB293938  44.859  52.857  60.124
14456DC     BB393939  44.858  52.902  59.922
14456DC     SC193940  45.087  52.779  59.886
14456DC     SC293941  45.240  52.924  59.842
14456DC     SC393942  45.263  52.604  59.798
14457DA     BB193943  44.607  53.182  60.105
14457DA     BB293944  44.846  53.366  59.896
14457DA     BB393945  44.794  53.346  59.690
14457DA     SC193946  44.969  53.093  59.646
14457DA     SC293947  45.178  53.031  59.524
14457DA     SC393948  45.092  52.790  59.541
14457DA     SC493949  44.898  52.949  59.665
14458DA     BB193950  44.814  53.668  59.725
14458DA     BB293951  45.089  53.654  59.483
14458DA     BB393952  45.013  53.621  59.286
14458DA     SC193953  45.030  53.311  59.305
14458DA     SC293954  45.165  53.127  59.204
14458DA     SC393955  44.971  52.974  59.276
14458DA     SC493956  44.899  53.233  59.356
14459DA     BB193957  45.213  53.875  59.278
14459DA     BB293958  45.411  53.676  59.042
14459DA     BB393959  45.307  53.656  58.857
14459DA     SC193960  45.162  53.393  58.940
14459DA     SC293961  45.170  53.151  58.878
14459DA     SC393962  44.935  53.139  58.981
14459DA     SC493963  45.017  53.406  59.007
14460DG     BB193964  45.588  53.773  58.826
14460DG     BB293965  45.629  53.468  58.636
14460DG     BB393966  45.523  53.477  58.468
14460DG     SC193967  45.270  53.357  58.592
14460DG     SC293968  45.150  53.092  58.524
14460DG     SC393969  44.970  53.248  58.700
14460DG     SC493970  45.164  53.455  58.661
14461DG     BB193971  45.826  53.394  58.388
14461DG     BB293972  45.669  53.106  58.237
14461DG     BB393973  45.562  53.162  58.078
14461DG     SC193974  45.305  53.209  58.238
14461DG     SC293975  45.053  53.050  58.215
14461DG     SC393976  45.012  53.290  58.384
14461DG     SC493977  45.279  53.353  58.303
14462DA     BB193978  45.739  52.895  57.942
14462DA     BB293979  45.423  52.750  57.828
14462DA     BB393980  45.336  52.872  57.675
14462DA     SC193981  45.171  53.045  57.874
14462DA     SC293982  44.931  53.079  57.935
14462DA     SC393983  45.009  53.303  58.033
14462DA     SC493984  45.238  53.181  57.927
14463DT     BB193985  45.326  52.800  57.488
14463DT     BB293986  44.969  52.757  57.466
14463DT     BB393987  44.886  52.911  57.354
14463DT     SC193988  44.916  53.081  57.552
14463DT     SC293989  44.723  53.133  57.631
14463DT     SC393990  45.000  53.289  57.690
14464DG     BB193991  44.776  52.587  57.126
14464DG     BB293992  44.490  52.800  57.184
14464DG     BB393993  44.491  52.951  57.055
14464DG     SC193994  44.657  53.136  57.234
14464DG     SC293995  44.561  53.389  57.361
14464DG     SC393996  44.853  53.358  57.396
14464DG     SC493997  44.816  53.131  57.225
14465DT     BB193998  44.330  53.006  56.864
14465DT     BB293999  44.151  53.287  57.003
14465DT     BB394000  44.203  53.460  56.903
14465DT     SC194001  44.436  53.470  57.023
14465DT     SC294002  44.439  53.636  57.160
14465DT     SC394003  44.698  53.469  57.057
14466DG     BB194004  43.799  53.447  56.826
14466DG     BB294005  43.891  53.771  56.959
14466DG     BB394006  43.960  53.887  56.813
14466DG     SC194007  44.251  53.798  56.848
14466DG     SC294008  44.477  53.970  56.943
14466DG     SC394009  44.576  53.709  56.844
14466DG     SC494010  44.303  53.670  56.767
14467DA     BB194011  43.732  54.148  56.885
14467DA     BB294012  44.007  54.381  56.955
14467DA     BB394013  44.084  54.461  56.773
14467DA     SC194014  44.298  54.238  56.736
14467DA     SC294015  44.546  54.217  56.747
14467DA     SC394016  44.513  54.004  56.607
14467DA     SC494017  44.257  54.110  56.649
14468DT     BB194018  44.065  54.679  56.705
14468DT     BB294019  44.407  54.773  56.769
14468DT     BB394020  44.505  54.807  56.590
14468DT     SC194021  44.520  54.550  56.540
14468DT     SC294022  44.725  54.486  56.555
14468DT     SC394023  44.483  54.318  56.420
14469DT     BB194024  44.511  55.094  56.604
14469DT     BB294025  44.859  55.006  56.564
14469DT     BB394026  44.909  55.008  56.363
14469DT     SC194027  44.783  54.782  56.321
14469DT     SC294028  44.926  54.626  56.280
14469DT     SC394029  44.606  54.610  56.226
14470DT     BB194030  45.060  55.259  56.354
14470DT     BB294031  45.295  55.016  56.225
14470DT     BB394032  45.286  55.012  56.019
14470DT     SC194033  45.058  54.882  56.023
14470DT     SC294034  45.089  54.681  55.952
14470DT     SC394035  44.803  54.828  55.987
14471DT     BB194036  45.534  55.156  55.956
14471DT     BB294037  45.576  54.841  55.787
14471DT     BB394038  45.517  54.859  55.589
14471DT     SC194039  45.263  54.860  55.656
14471DT     SC294040  45.171  54.677  55.591
14471DT     SC394041  45.015  54.944  55.688
14472DG     BB194042  45.905  54.736  55.588
14472DG     BB294043  45.693  54.509  55.401
14472DG     BB394044  45.654  54.585  55.221
14472DG     SC194045  45.403  54.735  55.311
14472DG     SC294046  45.124  54.676  55.225
14472DG     SC394047  45.135  54.929  55.378
14472DG     SC494048  45.418  54.885  55.367
14473DA     BB194049  45.757  54.271  55.137
14473DA     BB294050  45.428  54.213  54.984
14473DA     BB394051  45.410  54.324  54.803
14473DA     SC194052  45.289  54.575  54.940
14473DA     SC294053  45.069  54.693  54.948
14473DA     SC394054  45.204  54.896  55.028
14473DA     SC494055  45.391  54.691  54.987
14474DT     BB194056  45.391  54.206  54.675
14474DT     BB294057  45.040  54.263  54.614
14474DT     BB394058  45.017  54.397  54.458
14474DT     SC194059  45.087  54.599  54.610
14474DT     SC294060  44.916  54.724  54.646
14474DT     SC394061  45.225  54.804  54.703
14475DG     BB194062  44.813  54.046  54.406
14475DG     BB294063  44.601  54.336  54.362
14475DG     BB394064  44.646  54.427  54.191
14475DG     SC194065  44.858  54.610  54.315
14475DG     SC294066  44.840  54.907  54.341
14475DG     SC394067  45.110  54.811  54.413
14475DG     SC494068  45.009  54.558  54.323
14476DT     BB194069  44.493  54.437  54.058
14476DT     BB294070  44.404  54.786  54.065
14476DT     BB394071  44.497  54.886  53.910
14476DT     SC194072  44.728  54.879  54.033
14476DT     SC294073  44.783  55.078  54.095
14476DT     SC394074  44.981  54.821  54.083
14477DC     BB194075  44.258  54.906  53.787
14477DC     BB294076  44.378  55.246  53.810
14477DC     BB394077  44.503  55.287  53.650
14477DC     SC194078  44.697  55.146  53.756
14477DC     SC294079  44.855  55.278  53.820
14477DC     SC394080  44.878  54.956  53.787
14478DA     BB194081  44.217  55.595  53.639
14478DA     BB294082  44.547  55.751  53.614
14478DA     BB394083  44.629  55.720  53.419
14478DA     SC194084  44.774  55.455  53.496
14478DA     SC294085  45.007  55.375  53.528
14478DA     SC394086  44.910  55.140  53.496
14478DA     SC494087  44.694  55.318  53.472
14479DT     BB194088  44.661  55.880  53.277
14479DT     BB294089  45.019  55.897  53.314
14479DT     BB394090  45.111  55.821  53.145
14479DT     SC194091  45.053  55.574  53.215
14479DT     SC294092  45.234  55.471  53.270
14479DT     SC394093  44.947  55.333  53.208
14480DT     BB194094  45.190  56.070  53.061
14480DT     BB294095  45.497  55.884  53.092
14480DT     BB394096  45.538  55.785  52.915
14480DT     SC194097  45.351  55.606  52.962
14480DT     SC294098  45.444  55.416  53.004
14480DT     SC394099  45.131  55.465  52.935
14481DT     BB194100  45.741  55.957  52.870
14481DT     BB294101  45.895  55.631  52.874
14481DT     BB394102  45.885  55.545  52.686
14481DT     SC194103  45.629  55.494  52.714
14481DT     SC294104  45.601  55.281  52.731
14481DT     SC394105  45.369  55.500  52.673
14482DC     BB194106  46.146  55.583  52.682
14482DC     BB294107  46.099  55.228  52.639
14482DC     BB394108  46.058  55.186  52.440
14482DC     SC194109  45.814  55.278  52.463
14482DC     SC294110  45.674  55.115  52.450
14482DC     SC394111  45.601  55.430  52.426
14483DT     BB194112  46.299  55.077  52.437
14483DT     BB294113  46.074  54.813  52.339
14483DT     BB394114  46.031  54.829  52.137
14483DT     SC194115  45.872  55.034  52.178
14483DT     SC294116  45.668  54.975  52.142
14483DT     SC394117  45.776  55.279  52.169
14484DG     BB194118  46.184  54.459  52.213
14484DG     BB294119  45.870  54.440  52.036
14484DG     BB394120  45.897  54.486  51.844
14484DG     SC194121  45.848  54.786  51.883
14484DG     SC294122  45.618  54.941  51.775
14484DG     SC394123  45.820  55.122  51.894
14484DG     SC494124  45.972  54.880  51.921
14485DT     BB194125  45.855  54.338  51.694
14485DT     BB294126  45.546  54.463  51.555
14485DT     BB394127  45.583  54.558  51.375
14485DT     SC194128  45.685  54.767  51.497
14485DT     SC294129  45.552  54.935  51.475
14485DT     SC394130  45.860  54.948  51.575
14486DA     BB194131  45.276  54.279  51.318
14486DA     BB294132  45.167  54.599  51.176
14486DA     BB394133  45.274  54.641  50.997
14486DA     SC194134  45.503  54.795  51.140
14486DA     SC294135  45.585  55.030  51.157
14486DA     SC394136  45.806  54.926  51.234
14486DA     SC494137  45.633  54.712  51.184
14487DT     BB194138  45.166  54.645  50.839
14487DT     BB294139  45.167  55.003  50.795
14487DT     BB394140  45.301  55.056  50.647
14487DT     SC194141  45.506  55.012  50.805
14487DT     SC294142  45.599  55.199  50.854
14487DT     SC394143  45.727  54.905  50.901
14488DT     BB194144  45.084  55.116  50.512
14488DT     BB294145  45.278  55.420  50.524
14488DT     BB394146  45.424  55.417  50.378
14488DT     SC194147  45.568  55.246  50.515
14488DT     SC294148  45.746  55.343  50.587
14488DT     SC394149  45.695  55.023  50.580
14489DT     BB194150  45.276  55.604  50.274
14489DT     BB294151  45.603  55.751  50.315
14489DT     BB394152  45.727  55.692  50.160
14489DT     SC194153  45.753  55.452  50.262
14489DT     SC294154  45.955  55.427  50.334
14489DT     SC394155  45.739  55.190  50.287
14490DT     BB194156  45.704  55.943  50.091
14490DT     BB294157  46.059  55.883  50.121
14490DT     BB394158  46.129  55.788  49.951
14490DT     SC194159  46.022  55.560  50.024
14490DT     SC294160  46.177  55.421  50.076
14490DT     SC394161  45.866  55.347  50.020
14491DT     BB194162  46.250  56.018  49.886
14491DT     BB294163  46.514  55.772  49.878
14491DT     BB394164  46.515  55.675  49.695
14491DT     SC194165  46.302  55.535  49.759
14491DT     SC294166  46.357  55.329  49.786
14491DT     SC394167  46.055  55.443  49.754
14492DA     BB194168  46.913  55.812  49.722
14492DA     BB294169  46.928  55.461  49.616
14492DA     BB394170  46.876  55.444  49.410
14492DA     SC194171  46.573  55.402  49.465
14492DA     SC294172  46.406  55.217  49.448
14492DA     SC394173  46.230  55.403  49.448
14492DA     SC494174  46.479  55.532  49.465
14493DC     BB194175  47.017  55.387  49.228
14493DC     BB294176  46.890  55.053  49.179
14493DC     BB394177  46.788  55.042  48.999
14493DC     SC194178  46.583  55.173  49.099
14493DC     SC294179  46.415  55.039  49.117
14493DC     SC394180  46.403  55.362  49.134
14494DG     BB194181  47.085  54.766  48.931
14494DG     BB294182  46.760  54.620  48.868
14494DG     BB394183  46.700  54.665  48.684
14494DG     SC194184  46.560  54.924  48.767
14494DG     SC294185  46.266  54.974  48.757
14494DG     SC394186  46.414  55.223  48.818
14494DG     SC494187  46.644  55.060  48.770
14495DA     BB194188  46.648  54.327  48.617
14495DA     BB294189  46.291  54.389  48.561
14495DA     BB394190  46.259  54.466  48.365
14495DA     SC194191  46.285  54.764  48.450
14495DA     SC294192  46.137  54.963  48.472
14495DA     SC394193  46.354  55.100  48.462
14495DA     SC494194  46.431  54.831  48.440
14496DG     BB194195  46.085  54.211  48.333
14496DG     BB294196  45.817  54.453  48.303
14496DG     BB394197  45.807  54.520  48.117
14496DG     SC194198  46.001  54.752  48.163
14496DG     SC294199  45.932  55.042  48.156
14496DG     SC394200  46.225  55.004  48.173
14496DG     SC494201  46.158  54.727  48.142
14497DA     BB194202  45.475  54.438  48.150
14497DA     BB294203  45.382  54.785  48.080
14497DA     BB394204  45.407  54.828  47.872
14497DA     SC194205  45.702  54.925  47.903
14497DA     SC294206  45.828  55.140  47.887
14497DA     SC394207  46.035  54.992  47.855
14497DA     SC494208  45.818  54.816  47.882
14498DA     BB194209  45.099  54.926  47.922
14498DA     BB294210  45.207  55.258  47.811
14498DA     BB394211  45.240  55.258  47.600
14498DA     SC194212  45.541  55.181  47.622
14498DA     SC294213  45.762  55.289  47.584
14498DA     SC394214  45.853  55.049  47.570
14498DA     SC494215  45.578  55.025  47.616
14499DG     BB194216  45.018  55.478  47.597
14499DG     BB294217  45.285  55.686  47.469
14499DG     BB394218  45.307  55.656  47.274
14499DG     SC194219  45.509  55.428  47.306
14499DG     SC294220  45.796  55.436  47.225
14499DG     SC394221  45.717  55.163  47.304
14499DG     SC494222  45.455  55.278  47.320
14500DT     BB194223  45.268  55.816  47.102
14500DT     BB294224  45.605  55.895  47.001
14500DT     BB394225  45.645  55.810  46.816
14500DT     SC194226  45.666  55.571  46.922
14500DT     SC294227  45.872  55.507  46.913
14500DT     SC394228  45.616  55.318  46.974
14501DA     BB194229  45.736  56.214  46.734
14501DA     BB294230  46.019  56.017  46.611
14501DA     BB394231  45.971  55.928  46.423
14501DA     SC194232  45.858  55.666  46.548
14501DA     SC294233  45.923  55.426  46.562
14501DA     SC394234  45.675  55.384  46.615
14501DA     SC494235  45.700  55.660  46.577
14502DC     BB194236  46.066  55.982  46.224
14502DC     BB294237  46.274  55.688  46.202
14502DC     BB394238  46.207  55.565  46.049
14502DC     SC194239  46.002  55.485  46.193
14502DC     SC294240  46.029  55.279  46.248
14502DC     SC394241  45.753  55.447  46.270
14503DT     BB194242  46.420  55.626  45.878
14503DT     BB294243  46.438  55.268  45.917
14503DT     BB394244  46.325  55.175  45.770
14503DT     SC194245  46.101  55.240  45.890
14503DT     SC294246  46.009  55.062  45.970
14503DT     SC394247  45.865  55.351  45.934
14504DA     BB194248  46.707  55.005  45.764
14504DA     BB294249  46.462  54.732  45.779
14504DA     BB394250  46.367  54.708  45.590
14504DA     SC194251  46.134  54.904  45.654
14504DA     SC294252  45.889  54.891  45.697
14504DA     SC394253  45.886  55.141  45.637
14504DA     SC494254  46.153  55.058  45.612
14505DT     BB194255  46.403  54.540  45.505
14505DT     BB294256  46.082  54.389  45.568
14505DT     BB394257  45.967  54.394  45.396
14505DT     SC194258  45.921  54.651  45.424
14505DT     SC294259  45.715  54.682  45.475
14505DT     SC394260  45.922  54.910  45.374
14506DG     BB194261  46.002  54.013  45.534
14506DG     BB294262  45.656  54.106  45.481
14506DG     BB394263  45.614  54.104  45.287
14506DG     SC194264  45.692  54.396  45.242
14506DG     SC294265  45.506  54.618  45.169
14506DG     SC394266  45.788  54.707  45.153
14506DG     SC494267  45.844  54.432  45.206
14507DT     BB194268  45.467  53.970  45.223
14507DT     BB294269  45.190  54.190  45.150
14507DT     BB394270  45.179  54.225  44.947
14507DT     SC194271  45.387  54.386  44.954
14507DT     SC294272  45.322  54.587  44.917
14507DT     SC394273  45.628  54.482  44.909
14508DT     BB194274  44.959  54.072  44.942
14508DT     BB294275  44.855  54.386  44.798
14508DT     BB394276  44.899  54.389  44.596
14508DT     SC194277  45.154  54.424  44.643
14508DT     SC294278  45.211  54.622  44.583
14508DT     SC394279  45.414  54.378  44.650
14509DT     BB194280  44.634  54.363  44.537
14509DT     BB294281  44.737  54.661  44.361
14509DT     BB394282  44.813  54.611  44.175
14509DT     SC194283  45.035  54.522  44.282
14509DT     SC294284  45.197  54.654  44.230
14509DT     SC394285  45.228  54.356  44.352
14510DC     BB194286  44.589  54.705  44.043
14510DC     BB294287  44.862  54.884  43.890
14510DC     BB394288  44.937  54.776  43.731
14510DC     SC194289  45.056  54.606  43.891
14510DC     SC294290  45.269  54.633  43.878
14510DC     SC394291  45.117  54.380  44.012
14511DA     BB194292  44.854  55.155  43.570
14511DA     BB294293  45.193  55.064  43.466
14511DA     BB394294  45.187  54.919  43.310
14511DA     SC194295  45.194  54.675  43.503
14511DA     SC294296  45.354  54.494  43.566
14511DA     SC394297  45.147  54.370  43.653
14511DA     SC494298  45.054  54.614  43.550
14512DC     BB194299  45.253  54.967  43.117
14512DC     BB294300  45.563  54.784  43.132
14512DC     BB394301  45.550  54.613  43.016
14512DC     SC194302  45.399  54.494  43.194
14512DC     SC294303  45.510  54.334  43.286
14512DC     SC394304  45.189  54.378  43.304
14513DA     BB194305  45.896  54.816  42.895
14513DA     BB294306  45.987  54.466  42.957
14513DA     BB394307  45.914  54.342  42.799
14513DA     SC194308  45.643  54.283  42.939
14513DA     SC294309  45.529  54.089  43.046
14513DA     SC394310  45.312  54.221  43.007
14513DA     SC494311  45.519  54.380  42.904
14514DC     BB194312  46.050  54.254  42.685
14514DC     BB294313  46.010  53.921  42.820
14514DC     BB394314  45.904  53.804  42.687
14514DC     SC194315  45.679  53.923  42.750
14514DC     SC294316  45.553  53.787  42.858
14514DC     SC394317  45.459  54.067  42.725
14515DA     BB194318  46.253  53.604  42.803
14515DA     BB294319  45.972  53.371  42.836
14515DA     BB394320  45.902  53.311  42.644
14515DA     SC194321  45.694  53.541  42.622
14515DA     SC294322  45.445  53.566  42.624
14515DA     SC394323  45.488  53.792  42.510
14515DA     SC494324  45.740  53.677  42.550
14516DA     BB194325  45.950  53.020  42.786
14516DA     BB294326  45.594  52.956  42.728
14516DA     BB394327  45.557  52.920  42.521
14516DA     SC194328  45.502  53.218  42.453
14516DA     SC294329  45.308  53.360  42.388
14516DA     SC394330  45.484  53.526  42.301
14516DA     SC494331  45.627  53.308  42.404
14517DT     BB194332  45.498  52.736  42.465
14517DT     BB294333  45.155  52.818  42.389
14517DT     BB394334  45.129  52.828  42.183
14517DT     SC194335  45.252  53.060  42.171
14517DT     SC294336  45.110  53.214  42.123
14517DT     SC394337  45.433  53.241  42.110
14518DG     BB194338  44.866  52.534  42.295
14518DG     BB294339  44.701  52.782  42.090
14518DG     BB394340  44.740  52.748  41.898
14518DG     SC194341  44.992  52.921  41.892
14518DG     SC294342  45.025  53.177  41.741
14518DG     SC394343  45.283  53.087  41.855
14518DG     SC494344  45.133  52.855  41.930
14519DT     BB194345  44.582  52.682  41.720
14519DT     BB294346  44.553  52.993  41.539
14519DT     BB394347  44.649  52.978  41.356
14519DT     SC194348  44.885  52.994  41.470
14519DT     SC294349  44.976  53.182  41.419
14519DT     SC394350  45.127  52.927  41.549
14520DT     BB194351  44.416  52.955  41.187
14520DT     BB294352  44.590  53.240  41.051
14520DT     BB394353  44.715  53.180  40.897
14520DT     SC194354  44.887  53.076  41.066
14520DT     SC294355  45.067  53.194  41.067
14520DT     SC394356  45.034  52.897  41.192
14521DC     BB194357  44.556  53.283  40.685
14521DC     BB294358  44.875  53.447  40.644
14521DC     BB394359  44.994  53.339  40.514
14521DC     SC194360  45.041  53.157  40.697
14521DC     SC294361  45.247  53.169  40.759
14521DC     SC394362  45.045  52.923  40.820
14522DT     BB194363  44.965  53.528  40.318
14522DT     BB294364  45.320  53.512  40.376
14522DT     BB394365  45.405  53.367  40.255
14522DT     SC194366  45.309  53.174  40.405
14522DT     SC294367  45.470  53.077  40.509
14522DT     SC394368  45.168  52.964  40.478
14523DT     BB194369  45.519  53.565  40.112
14523DT     BB294370  45.795  53.366  40.232
14523DT     BB394371  45.831  53.209  40.101
14523DT     SC194372  45.619  53.079  40.187
14523DT     SC294373  45.681  52.905  40.297
14523DT     SC394374  45.382  52.963  40.187
14524DA     BB194375  46.186  53.414  40.183
14524DA     BB294376  46.246  53.056  40.232
14524DA     BB394377  46.251  52.955  40.044
14524DA     SC194378  45.946  52.891  40.044
14524DA     SC294379  45.799  52.691  40.065
14524DA     SC394380  45.620  52.836  39.953
14524DA     SC494381  45.848  52.997  39.972
14525DA     BB194382  46.527  52.863  40.189
14525DA     BB294383  46.399  52.521  40.164
14525DA     BB394384  46.405  52.454  39.961
14525DA     SC194385  46.118  52.554  39.894
14525DA     SC294386  45.895  52.454  39.844
14525DA     SC394387  45.839  52.681  39.740
14525DA     SC494388  46.103  52.701  39.833
14526DT     BB194389  46.523  52.312  39.938
14526DT     BB294390  46.274  52.054  39.896
14526DT     BB394391  46.251  52.011  39.694
14526DT     SC194392  46.117  52.233  39.655
14526DT     SC294393  45.911  52.186  39.614
14526DT     SC394394  46.054  52.472  39.563
14527DT     BB194395  46.367  51.784  39.756
14527DT     BB294396  46.051  51.691  39.608
14527DT     BB394397  46.067  51.693  39.402
14527DT     SC194398  46.063  51.956  39.397
14527DT     SC294399  45.878  52.023  39.310
14527DT     SC394400  46.143  52.204  39.358
14528DT     BB194401  46.047  51.432  39.423
14528DT     BB294402  45.780  51.528  39.200
14528DT     BB394403  45.853  51.551  39.008
14528DT     SC194404  45.967  51.778  39.070
14528DT     SC294405  45.864  51.939  38.971
14528DT     SC394406  46.155  51.959  39.112
14529DT     BB194407  45.718  51.330  38.954
14529DT     BB294408  45.599  51.573  38.715
14529DT     BB394409  45.729  51.584  38.554
14529DT     SC194410  45.905  51.717  38.696
14529DT     SC294411  45.916  51.920  38.624
14529DT     SC394412  46.129  51.776  38.821
14530DA     BB194413  45.345  51.527  38.393
14530DA     BB294414  45.507  51.793  38.201
14530DA     BB394415  45.660  51.712  38.075
14530DA     SC194416  45.885  51.744  38.287
14530DA     SC294417  46.089  51.884  38.321
14530DA     SC394418  46.163  51.701  38.484
14530DA     SC494419  45.914  51.619  38.384
14531DT     BB194420  45.646  51.706  37.858
14531DT     BB294421  45.894  51.958  37.786
14531DT     BB394422  46.066  51.869  37.712
14531DT     SC194423  46.133  51.782  37.950
14531DT     SC294424  46.307  51.889  38.019
14531DT     SC394425  46.189  51.616  38.147
14532DG     BB194426  45.965  52.108  37.391
14532DG     BB294427  46.311  52.158  37.481
14532DG     BB394428  46.424  52.014  37.402
14532DG     SC194429  46.396  51.826  37.641
14532DG     SC294430  46.616  51.744  37.826
14532DG     SC394431  46.371  51.587  37.878
14532DG     SC494432  46.273  51.723  37.646
14533DC     BB194433  46.605  52.026  37.222
14533DC     BB294434  46.900  51.988  37.426
14533DC     BB394435  46.987  51.803  37.391
14533DC     SC194436  46.800  51.680  37.528
14533DC     SC294437  46.885  51.602  37.710
14533DC     SC394438  46.598  51.521  37.583
14534DT     BB194439  47.211  51.891  37.231
14534DT     BB294440  47.366  51.710  37.502
14534DT     BB394441  47.396  51.512  37.448
14534DT     SC194442  47.140  51.459  37.475
14534DT     SC294443  47.112  51.331  37.646
14534DT     SC394444  46.893  51.389  37.414
14535DT     BB194445  47.677  51.530  37.410
14535DT     BB294446  47.638  51.270  37.658
14535DT     BB394447  47.626  51.086  37.565
14535DT     SC194448  47.380  51.133  37.486
14535DT     SC294449  47.244  51.006  37.594
14535DT     SC394450  47.174  51.174  37.326
14536DT     BB194451  47.882  51.006  37.643
14536DT     BB294452  47.664  50.753  37.781
14536DT     BB394453  47.639  50.600  37.645
14536DT     SC194454  47.479  50.746  37.497
14536DT     SC294455  47.279  50.668  37.511
14536DT     SC394456  47.386  50.881  37.291
14537DA     BB194457  47.760  50.424  38.005
14537DA     BB294458  47.457  50.250  37.891
14537DA     BB394459  47.503  50.121  37.727
14537DA     SC194460  47.447  50.337  37.510
14537DA     SC294461  47.277  50.381  37.333
14537DA     SC394462  47.455  50.533  37.228
14537DA     SC494463  47.571  50.426  37.460
14538DA     BB194464  47.355  49.915  37.931
14538DA     BB294465  47.100  49.876  37.670
14538DA     BB394466  47.175  49.755  37.511
14538DA     SC194467  47.288  49.995  37.348
14538DA     SC294468  47.236  50.114  37.135
14538DA     SC394469  47.478  50.199  37.148
14538DA     SC494470  47.441  50.036  37.373
14539DC     BB194471  47.079  49.596  37.495
14539DC     BB294472  46.894  49.690  37.201
14539DC     BB394473  46.979  49.604  37.033
14539DC     SC194474  47.179  49.775  37.038
14539DC     SC294475  47.162  49.909  36.870
14539DC     SC394476  47.424  49.869  37.056
14540DT     BB194477  46.759  49.463  37.034
14540DT     BB294478  46.765  49.632  36.715
14540DT     BB394479  46.886  49.529  36.583
14540DT     SC194480  47.103  49.615  36.703
14540DT     SC294481  47.206  49.753  36.574
14540DT     SC394482  47.329  49.611  36.838
14541DA     BB194483  46.511  49.639  36.425
14541DA     BB294484  46.773  49.731  36.186
14541DA     BB394485  46.862  49.556  36.103
14541DA     SC194486  47.085  49.538  36.320
14541DA     SC294487  47.331  49.569  36.334
14541DA     SC394488  47.316  49.428  36.548
14541DA     SC494489  47.055  49.447  36.449
14542DT     BB194490  46.827  49.564  35.936
14542DT     BB294491  47.160  49.639  35.819
14542DT     BB394492  47.259  49.463  35.772
14542DT     SC194493  47.294  49.405  36.026
14542DT     SC294494  47.502  49.423  36.075
14542DT     SC394495  47.276  49.277  36.256
14543DA     BB194496  47.295  49.743  35.459
14543DA     BB294497  47.625  49.598  35.523
14543DA     BB394498  47.629  49.393  35.463
14543DA     SC194499  47.540  49.284  35.740
14543DA     SC294500  47.641  49.155  35.928
14543DA     SC394501  47.398  49.102  35.995
14543DA     SC494502  47.383  49.262  35.764
14544DA     BB194503  47.894  49.500  35.296
14544DA     BB294504  48.088  49.248  35.478
14544DA     BB394505  48.043  49.052  35.405
14544DA     SC194506  47.812  49.004  35.608
14544DA     SC294507  47.768  48.860  35.807
14544DA     SC394508  47.520  48.906  35.760
14544DA     SC494509  47.663  49.043  35.561
14545DC     BB194510  48.183  48.930  35.295
14545DC     BB294511  48.250  48.687  35.553
14545DC     BB394512  48.158  48.508  35.507
14545DC     SC194513  47.922  48.603  35.570
14545DC     SC294514  47.852  48.508  35.750
14545DC     SC394515  47.671  48.683  35.545
14546DT     BB194516  48.389  48.357  35.418
14546DT     BB294517  48.247  48.145  35.673
14546DT     BB394518  48.117  48.009  35.587
14546DT     SC194519  47.934  48.194  35.551
14546DT     SC294520  47.768  48.158  35.683
14546DT     SC394521  47.768  48.358  35.428
14547DA     BB194522  48.373  47.726  35.776
14547DA     BB294523  48.031  47.636  35.871
14547DA     BB394524  47.937  47.526  35.715
14547DA     SC194525  47.819  47.778  35.575
14547DA     SC294526  47.594  47.880  35.539
14547DA     SC394527  47.706  48.007  35.346
14547DA     SC494528  47.906  47.846  35.459
14548DT     BB194529  47.865  47.284  35.704
14548DT     BB294530  47.516  47.356  35.758
14548DT     BB394531  47.406  47.303  35.591
14548DT     SC194532  47.493  47.512  35.458
14548DT     SC294533  47.331  47.650  35.429
14548DT     SC394534  47.615  47.655  35.273
14549DT     BB194535  47.284  47.072  35.705
14549DT     BB294536  47.009  47.292  35.623
14549DT     BB394537  46.937  47.248  35.434
14549DT     SC194538  47.144  47.362  35.320
14549DT     SC294539  47.081  47.542  35.222
14549DT     SC394540  47.364  47.391  35.177
14550DG     BB194541  46.653  47.230  35.721
14550DG     BB294542  46.576  47.472  35.464
14550DG     BB394543  46.510  47.380  35.301
14550DG     SC194544  46.788  47.348  35.176
14550DG     SC294545  46.885  47.482  34.928
14550DG     SC394546  47.079  47.278  35.021
14550DG     SC494547  46.874  47.218  35.212
14551DC     BB194548  46.366  47.472  35.292
14551DC     BB294549  46.433  47.687  35.011
14551DC     BB394550  46.384  47.591  34.834
14551DC     SC194551  46.598  47.440  34.849
14551DC     SC294552  46.736  47.496  34.693
14551DC     SC394553  46.749  47.224  34.870
14552DA     BB194554  46.337  48.021  34.938
14552DA     BB294555  46.474  47.980  34.600
14552DA     BB394556  46.343  47.862  34.480
14552DA     SC194557  46.478  47.592  34.555
14552DA     SC294558  46.617  47.418  34.443
14552DA     SC394559  46.541  47.263  34.632
14552DA     SC494560  46.418  47.511  34.680
14553DT     BB194561  46.353  47.985  34.395
14553DT     BB294562  46.513  47.825  34.114
14553DT     BB394563  46.380  47.696  34.022
14553DT     SC194564  46.404  47.520  34.216
14553DT     SC294565  46.509  47.347  34.143
14553DT     SC394566  46.340  47.365  34.419
14554DT     BB194567  46.418  47.879  33.848
14554DT     BB294568  46.488  47.567  33.683
14554DT     BB394569  46.312  47.466  33.644
14554DT     SC194570  46.286  47.398  33.896
14554DT     SC294571  46.316  47.186  33.916
14554DT     SC394572  46.186  47.382  34.139
14555DA     BB194573  46.533  47.480  33.285
14555DA     BB294574  46.402  47.140  33.326
14555DA     BB394575  46.191  47.138  33.298
14555DA     SC194576  46.126  47.186  33.598
14555DA     SC294577  46.029  47.058  33.789
14555DA     SC394578  45.987  47.288  33.895
14555DA     SC494579  46.107  47.338  33.647
14556DA     BB194580  46.249  46.903  33.069
14556DA     BB294581  46.037  46.679  33.267
14556DA     BB394582  45.831  46.728  33.239
14556DA     SC194583  45.821  46.929  33.477
14556DA     SC294584  45.718  46.941  33.703
14556DA     SC394585  45.753  47.194  33.684
14556DA     SC494586  45.850  47.083  33.445
14557DA     BB194587  45.788  46.410  33.150
14557DA     BB294588  45.557  46.378  33.434
14557DA     BB394589  45.368  46.464  33.386
14557DA     SC194590  45.442  46.746  33.493
14557DA     SC294591  45.379  46.894  33.684
14557DA     SC394592  45.472  47.085  33.541
14557DA     SC494593  45.504  46.852  33.388
14558DT     BB194594  45.187  46.347  33.363
14558DT     BB294595  45.035  46.445  33.674
14558DT     BB394596  44.876  46.573  33.638
14558DT     SC194597  45.039  46.772  33.584
14558DT     SC294598  45.026  46.919  33.740
14558DT     SC394599  45.161  46.962  33.448
14559DC     BB194600  44.687  46.381  33.699
14559DC     BB294601  44.612  46.653  33.924
14559DC     BB394602  44.481  46.786  33.833
14559DC     SC194603  44.672  46.882  33.681
14559DC     SC294604  44.717  47.083  33.741
14559DC     SC394605  44.808  46.943  33.464
14560DA     BB194606  44.307  46.687  34.203
14560DA     BB294607  44.307  47.052  34.173
14560DA     BB394608  44.158  47.116  34.034
14560DA     SC194609  44.349  47.108  33.789
14560DA     SC294610  44.458  47.271  33.635
14560DA     SC394611  44.484  47.071  33.475
14560DA     SC494612  44.355  46.972  33.703
14561DT     BB194613  43.991  47.226  34.098
14561DT     BB294614  44.100  47.544  33.970
14561DT     BB394615  43.989  47.595  33.802
14561DT     SC194616  44.118  47.421  33.654
14561DT     SC294617  44.243  47.525  33.513
14561DT     SC394618  44.165  47.211  33.502
14562DT     BB194619  43.847  47.790  33.937
14562DT     BB294620  44.001  47.966  33.662
14562DT     BB394621  43.876  47.961  33.497
14562DT     SC194622  43.935  47.709  33.451
14562DT     SC294623  44.052  47.695  33.271
14562DT     SC394624  43.906  47.449  33.421
14563DA     BB194625  43.981  48.360  33.564
14563DA     BB294626  44.043  48.285  33.210
14563DA     BB394627  43.858  48.273  33.104
14563DA     SC194628  43.824  47.967  33.150
14563DA     SC294629  43.832  47.758  33.014
14563DA     SC394630  43.698  47.653  33.206
14563DA     SC494631  43.740  47.920  33.279
14564DT     BB194632  43.835  48.409  32.971
14564DT     BB294633  43.890  48.199  32.683
14564DT     BB394634  43.709  48.151  32.595
14564DT     SC194635  43.652  47.981  32.786
14564DT     SC294636  43.659  47.780  32.707
14564DT     SC394637  43.527  47.869  32.990
14565DA     BB194638  43.981  48.292  32.308
14565DA     BB294639  43.828  47.984  32.181
14565DA     BB394640  43.624  48.018  32.130
14565DA     SC194641  43.515  47.941  32.411
14565DA     SC294642  43.383  47.756  32.514
14565DA     SC394643  43.336  47.923  32.704
14565DA     SC494644  43.497  48.060  32.518
14566DG     BB194645  43.728  47.926  31.853
14566DG     BB294646  43.491  47.657  31.905
14566DG     BB394647  43.307  47.720  31.863
14566DG     SC194648  43.250  47.815  32.148
14566DG     SC294649  43.050  47.697  32.336
14566DG     SC394650  43.160  47.949  32.445
14566DG     SC494651  43.289  47.965  32.189
14567DG     BB194652  43.274  47.483  31.633
14567DG     BB294653  42.998  47.358  31.830
14567DG     BB394654  42.833  47.460  31.788
14567DG     SC194655  42.880  47.673  32.002
14567DG     SC294656  42.713  47.716  32.246
14567DG     SC394657  42.910  47.934  32.214
14567DG     SC494658  42.966  47.803  31.966
14568DT     BB194659  42.628  47.378  31.680
14568DT     BB294660  42.402  47.366  31.961
14568DT     BB394661  42.262  47.518  31.945
14568DT     SC194662  42.438  47.699  32.015
14568DT     SC294663  42.390  47.775  32.211
14568DT     SC394664  42.597  47.909  32.001
14569DT     BB194665  42.032  47.362  31.860
14569DT     BB294666  41.911  47.532  32.155
14569DT     BB394667  41.817  47.708  32.101
14569DT     SC194668  42.047  47.825  32.051
14569DT     SC294669  42.084  47.976  32.200
14569DT     SC394670  42.241  47.944  31.918
14570DT     BB194671  41.540  47.628  32.139
14570DT     BB294672  41.575  47.916  32.354
14570DT     BB394673  41.514  48.086  32.253
14570DT     SC194674  41.733  48.089  32.109
14570DT     SC294675  41.855  48.256  32.168
14570DT     SC394676  41.892  48.079  31.899
14571DT     BB194677  41.273  48.115  32.397
14571DT     BB294678  41.452  48.422  32.459
14571DT     BB394679  41.399  48.564  32.318
14571DT     SC194680  41.542  48.446  32.133
14571DT     SC294681  41.712  48.568  32.084
14571DT     SC394682  41.603  48.317  31.911
14572DA     BB194683  41.362  48.725  32.702
14572DA     BB294684  41.566  48.954  32.501
14572DA     BB394685  41.443  49.058  32.360
14572DA     SC194686  41.480  48.847  32.135
14572DA     SC294687  41.594  48.831  31.914
14572DA     SC394688  41.435  48.635  31.868
14572DA     SC494689  41.372  48.729  32.125
14573DA     BB194690  41.605  49.293  32.514
14573DA     BB294691  41.745  49.379  32.186
14573DA     BB394692  41.596  49.472  32.065
14573DA     SC194693  41.497  49.206  31.939
14573DA     SC294694  41.504  49.092  31.717
14573DA     SC394695  41.306  48.954  31.804
14573DA     SC494696  41.374  49.131  32.011
14574DT     BB194697  41.642  49.647  32.026
14574DT     BB294698  41.731  49.594  31.680
14574DT     BB394699  41.575  49.652  31.557
14574DT     SC194700  41.437  49.437  31.619
14574DT     SC294701  41.427  49.307  31.448
14574DT     SC394702  41.244  49.285  31.715
14575DT     BB194703  41.730  49.856  31.486
14575DT     BB294704  41.651  49.687  31.177
14575DT     BB394705  41.467  49.752  31.106
14575DT     SC194706  41.339  49.613  31.288
14575DT     SC294707  41.235  49.450  31.193
14575DT     SC394708  41.185  49.557  31.494
14576DT     BB194709  41.602  49.878  30.913
14576DT     BB294710  41.371  49.663  30.739
14576DT     BB394711  41.188  49.756  30.720
14576DT     SC194712  41.132  49.715  30.973
14576DT     SC294713  40.974  49.570  30.989
14576DT     SC394714  41.079  49.764  31.227
14577DA     BB194715  41.308  49.614  30.345
14577DA     BB294716  40.960  49.512  30.400
14577DA     BB394717  40.830  49.680  30.386
14577DA     SC194718  40.846  49.747  30.690
14577DA     SC294719  40.695  49.739  30.889
14577DA     SC394720  40.859  49.907  30.994
14577DA     SC494721  40.958  49.852  30.737
14578DA     BB194722  40.688  49.474  30.176
14578DA     BB294723  40.389  49.497  30.386
14578DA     BB394724  40.294  49.687  30.361
14578DA     SC194725  40.452  49.824  30.591
14578DA     SC294726  40.406  49.913  30.820
14578DA     SC394727  40.623  50.046  30.790
14578DA     SC494728  40.589  49.899  30.553
14579DC     BB194729  40.120  49.681  30.280
14579DC     BB294730  39.927  49.760  30.574
14579DC     BB394731  39.869  49.959  30.569
14579DC     SC194732  40.112  50.039  30.631
14579DC     SC294733  40.112  50.120  30.830
14579DC     SC394734  40.347  50.156  30.610
14580DA     BB194735  39.523  49.732  30.640
14580DA     BB294736  39.524  50.011  30.878
14580DA     BB394737  39.480  50.194  30.778
14580DA     SC194738  39.778  50.261  30.717
14580DA     SC294739  39.949  50.427  30.791
14580DA     SC394740  40.070  50.368  30.573
14580DA     SC494741  39.837  50.212  30.576
14581DT     BB194742  39.300  50.300  30.813
14581DT     BB294743  39.438  50.577  30.998
14581DT     BB394744  39.441  50.746  30.879
14581DT     SC194745  39.644  50.657  30.740
14581DT     SC294746  39.819  50.774  30.784
14581DT     SC394747  39.786  50.570  30.535
14582DT     BB194748  39.227  50.868  31.010
14582DT     BB294749  39.489  51.115  31.028
14582DT     BB394750  39.483  51.236  30.860
14582DT     SC194751  39.585  51.048  30.709
14582DT     SC294752  39.784  51.103  30.651
14582DT     SC394753  39.606  50.867  30.518
14583DA     BB194754  39.465  51.518  31.173
14583DA     BB294755  39.725  51.631  30.941
14583DA     BB394756  39.637  51.720  30.768
14583DA     SC194757  39.626  51.454  30.607
14583DA     SC294758  39.739  51.353  30.409
14583DA     SC394759  39.536  51.196  30.399
14583DA     SC494760  39.492  51.367  30.617
14584DT     BB194761  39.653  51.935  30.718
14584DT     BB294762  39.895  51.895  30.453
14584DT     BB394763  39.806  51.933  30.270
14584DT     SC194764  39.681  51.703  30.274
14584DT     SC294765  39.764  51.573  30.124
14584DT     SC394766  39.484  51.527  30.280
14585DA     BB194767  40.147  52.176  30.287
14585DA     BB294768  40.156  51.993  29.969
14585DA     BB394769  40.013  52.075  29.833
14585DA     SC194770  39.783  51.886  29.922
14585DA     SC294771  39.654  51.695  29.827
14585DA     SC394772  39.478  51.752  30.004
14585DA     SC494773  39.684  51.938  30.038
14586DT     BB194774  40.086  52.162  29.670
14586DT     BB294775  39.998  51.898  29.440
14586DT     BB394776  39.833  51.953  29.329
14586DT     SC194777  39.673  51.913  29.533
14586DT     SC294778  39.550  51.741  29.494
14586DT     SC394779  39.500  51.962  29.726
14587DG     BB194780  40.136  51.866  29.072
14587DG     BB294781  39.836  51.681  28.991
14587DG     BB394782  39.706  51.800  28.898
14587DG     SC194783  39.570  51.893  29.156
14587DG     SC294784  39.290  51.833  29.238
14587DG     SC394785  39.412  52.032  29.420
14587DG     SC494786  39.629  52.021  29.233
14588DA     BB194787  39.695  51.549  28.660
14588DA     BB294788  39.334  51.513  28.717
14588DA     BB394789  39.229  51.676  28.628
14588DA     SC194790  39.239  51.854  28.884
14588DA     SC294791  39.080  51.939  29.056
14588DA     SC394792  39.260  52.116  29.104
14588DA     SC494793  39.362  51.956  28.898
14589DA     BB194794  39.063  51.431  28.484
14589DA     BB294795  38.763  51.560  28.650
14589DA     BB394796  38.694  51.737  28.551
14589DA     SC194797  38.861  51.931  28.728
14589DA     SC294798  38.819  52.101  28.905
14589DA     SC394799  39.052  52.191  28.845
14589DA     SC494800  39.007  51.972  28.675
14590DT     BB194801  38.513  51.735  28.451
14590DT     BB294802  38.329  51.927  28.695
14590DT     BB394803  38.297  52.119  28.624
14590DT     SC194804  38.546  52.186  28.668
14590DT     SC294805  38.555  52.327  28.830
14590DT     SC394806  38.795  52.262  28.621
14591DT     BB194807  38.029  52.068  28.581
14591DT     BB294808  38.033  52.351  28.805
14591DT     BB394809  38.041  52.527  28.696
14591DT     SC194810  38.294  52.490  28.639
14591DT     SC294811  38.413  52.636  28.744
14591DT     SC394812  38.514  52.449  28.499
14592DG     BB194813  37.707  52.544  28.929
14592DG     BB294814  37.917  52.834  28.978
14592DG     BB394815  37.893  52.962  28.828
14592DG     SC194816  38.114  52.840  28.655
14592DG     SC294817  38.371  52.971  28.581
14592DG     SC394818  38.335  52.719  28.431
14592DG     SC494819  38.077  52.720  28.555
14593DT     BB194820  37.816  53.161  28.869
14593DT     BB294821  38.116  53.359  28.838
14593DT     BB394822  38.116  53.459  28.657
14593DT     SC194823  38.175  53.238  28.527
14593DT     SC294824  38.375  53.250  28.451
14593DT     SC394825  38.151  53.034  28.361
14594DG     BB194826  38.150  53.732  28.956
14594DG     BB294827  38.414  53.768  28.712
14594DG     BB394828  38.345  53.860  28.549
14594DG     SC194829  38.261  53.601  28.410
14594DG     SC294830  38.382  53.488  28.161
14594DG     SC394831  38.138  53.339  28.236
14594DG     SC494832  38.114  53.542  28.436
14595DC     BB194833  38.434  54.041  28.500
14595DC     BB294834  38.636  53.948  28.216
14595DC     BB394835  38.541  54.002  28.041
14595DC     SC194836  38.370  53.804  28.063
14595DC     SC294837  38.409  53.658  27.910
14595DC     SC394838  38.142  53.676  28.091
14596DT     BB194839  38.733  54.182  28.021
14596DT     BB294840  38.755  53.986  27.719
14596DT     BB394841  38.617  54.054  27.580
14596DT     SC194842  38.419  53.944  27.711
14596DT     SC294843  38.341  53.779  27.597
14596DT     SC394844  38.195  53.921  27.850
14597DA     BB194845  39.000  54.012  27.412
14597DA     BB294846  38.756  53.853  27.189
14597DA     BB394847  38.634  54.001  27.096
14597DA     SC194848  38.416  53.995  27.319
14597DA     SC294849  38.180  53.919  27.344
14597DA     SC394850  38.172  54.078  27.545
14597DA     SC494851  38.431  54.100  27.440
14598DA     BB194852  38.743  53.821  26.846
14598DA     BB294853  38.390  53.757  26.769
14598DA     BB394854  38.297  53.934  26.695
14598DA     SC194855  38.206  54.032  26.976
14598DA     SC294856  37.992  54.059  27.101
14598DA     SC394857  38.123  54.221  27.250
14598DA     SC494858  38.304  54.131  27.056
14599DT     BB194859  38.242  53.920  26.516
14599DT     BB294860  37.886  53.908  26.575
14599DT     BB394861  37.803  54.095  26.545
14599DT     SC194862  37.900  54.184  26.772
14599DT     SC294863  37.739  54.216  26.911
14599DT     SC394864  38.042  54.327  26.941
14600DA     BB194865  37.576  53.828  26.312
14600DA     BB294866  37.342  54.042  26.495
14600DA     BB394867  37.342  54.239  26.412
14600DA     SC194868  37.566  54.344  26.600
14600DA     SC294869  37.587  54.503  26.792
14600DA     SC394870  37.837  54.507  26.734
14600DA     SC494871  37.718  54.334  26.548
14601DA     BB194872  37.010  54.210  26.372
14601DA     BB294873  36.969  54.500  26.593
14601DA     BB394874  37.008  54.681  26.486
14601DA     SC194875  37.311  54.685  26.555
14601DA     SC294876  37.467  54.821  26.696
14601DA     SC394877  37.653  54.724  26.547
14601DA     SC494878  37.412  54.616  26.451
14602DC     BB194879  36.855  54.841  26.430
14602DC     BB294880  36.962  55.086  26.673
14602DC     BB394881  37.053  55.245  26.578
14602DC     SC194882  37.270  55.104  26.533
14602DC     SC294883  37.431  55.179  26.654
14602DC     SC394884  37.461  54.977  26.402
14603DA     BB194885  36.753  55.444  26.797
14603DA     BB294886  37.070  55.614  26.869
14603DA     BB394887  37.123  55.743  26.707
14603DA     SC194888  37.288  55.526  26.557
14603DA     SC294889  37.527  55.480  26.504
14603DA     SC394890  37.435  55.328  26.318
14603DA     SC494891  37.211  55.438  26.447
14604DT     BB194892  37.128  55.961  26.724
14604DT     BB294893  37.488  55.986  26.744
14604DT     BB394894  37.562  56.070  26.570
14604DT     SC194895  37.523  55.848  26.436
14604DT     SC294896  37.712  55.759  26.388
14604DT     SC394897  37.426  55.680  26.257
14605DA     BB194898  37.716  56.279  26.898
14605DA     BB294899  37.997  56.180  26.684
14605DA     BB394900  38.001  56.299  26.507
14605DA     SC194901  37.822  56.105  26.342
14605DA     SC294902  37.848  55.948  26.150
14605DA     SC394903  37.594  55.968  26.126
14605DA     SC494904  37.664  56.131  26.343
14606DC     BB194905  38.153  56.398  26.502
14606DC     BB294906  38.322  56.201  26.251
14606DC     BB394907  38.304  56.293  26.066
14606DC     SC194908  38.053  56.218  26.045
14606DC     SC294909  38.035  56.069  25.891
14606DC     SC394910  37.790  56.234  26.025
14607DT     BB194911  38.558  56.322  26.106
14607DT     BB294912  38.528  56.137  25.798
14607DT     BB394913  38.481  56.265  25.643
14607DT     SC194914  38.233  56.289  25.726
14607DT     SC294915  38.102  56.191  25.587
14607DT     SC394916  38.012  56.398  25.819
14608DG     BB194917  38.807  56.028  25.577
14608DG     BB294918  38.569  56.013  25.305
14608DG     BB394919  38.571  56.184  25.204
14608DG     SC194920  38.357  56.318  25.376
14608DG     SC294921  38.082  56.395  25.286
14608DG     SC394922  38.139  56.502  25.556
14608DG     SC494923  38.401  56.399  25.507
14609DC     BB194924  38.622  56.164  25.011
14609DC     BB294925  38.312  56.228  24.837
14609DC     BB394926  38.304  56.427  24.778
14609DC     SC194927  38.256  56.506  25.024
14609DC     SC294928  38.053  56.578  25.037
14609DC     SC394929  38.287  56.626  25.257
14610DA     BB194930  38.220  56.196  24.436
14610DA     BB294931  37.974  56.467  24.452
14610DA     BB394932  38.067  56.654  24.406
14610DA     SC194933  38.140  56.719  24.701
14610DA     SC294934  38.069  56.880  24.877
14610DA     SC394935  38.294  56.826  24.988
14610DA     SC494936  38.285  56.673  24.753
14611DA     BB194937  37.839  56.701  24.162
14611DA     BB294938  37.732  57.005  24.335
14611DA     BB394939  37.867  57.165  24.294
14611DA     SC194940  38.050  57.106  24.538
14611DA     SC294941  38.107  57.211  24.757
14611DA     SC394942  38.318  57.066  24.749
14611DA     SC494943  38.176  57.009  24.514
14612DG     BB194944  37.641  57.346  24.147
14612DG     BB294945  37.696  57.570  24.425
14612DG     BB394946  37.843  57.697  24.383
14612DG     SC194947  38.063  57.517  24.495
14612DG     SC294948  38.231  57.574  24.735
14612DG     SC394949  38.332  57.336  24.590
14612DG     SC494950  38.132  57.408  24.398
14613DA     BB194951  37.647  57.986  24.449
14613DA     BB294952  37.873  58.081  24.722
14613DA     BB394953  38.044  58.183  24.646
14613DA     SC194954  38.213  57.924  24.612
14613DA     SC294955  38.414  57.820  24.717
14613DA     SC394956  38.431  57.683  24.501
14613DA     SC494957  38.208  57.850  24.469
14614DC     BB194958  38.081  58.389  24.688
14614DC     BB294959  38.339  58.330  24.932
14614DC     BB394960  38.524  58.384  24.855
14614DC     SC194961  38.531  58.169  24.704
14614DC     SC294962  38.683  58.036  24.777
14614DC     SC394963  38.537  58.018  24.488
14615DA     BB194964  38.471  58.566  25.228
14615DA     BB294965  38.794  58.393  25.229
14615DA     BB394966  38.934  58.497  25.107
14615DA     SC194967  38.864  58.339  24.848
14615DA     SC294968  38.971  58.169  24.701
14615DA     SC394969  38.801  58.245  24.524
14615DA     SC494970  38.751  58.401  24.752
14616DA     BB194971  39.084  58.457  25.393
14616DA     BB294972  39.333  58.264  25.206
14616DA     BB394973  39.450  58.393  25.082
14616DA     SC194974  39.262  58.368  24.836
14616DA     SC294975  39.268  58.265  24.608
14616DA     SC394976  39.078  58.427  24.552
14616DA     SC494977  39.145  58.477  24.820
14617DA     BB194978  39.664  58.215  25.252
14617DA     BB294979  39.785  58.098  24.927
14617DA     BB394980  39.885  58.256  24.823
14617DA     SC194981  39.628  58.357  24.679
14617DA     SC294982  39.536  58.361  24.447
14617DA     SC394983  39.384  58.548  24.532
14617DA     SC494984  39.543  58.472  24.751
14618DT     BB194985  40.063  58.219  24.799
14618DT     BB294986  40.048  58.153  24.445
14618DT     BB394987  40.106  58.322  24.339
14618DT     SC194988  39.879  58.442  24.390
14618DT     SC294989  39.765  58.458  24.208
14618DT     SC394990  39.707  58.619  24.484
14619DA     BB194991  40.325  57.992  24.197
14619DA     BB294992  40.190  58.174  23.908
14619DA     BB394993  40.293  58.359  23.883
14619DA     SC194994  40.095  58.520  24.062
14619DA     SC294995  39.920  58.696  24.032
14619DA     SC394996  39.953  58.742  24.282
14619DA     SC494997  40.131  58.535  24.218
14620DA     BB194998  40.336  58.239  23.580
14620DA     BB294999  40.150  58.532  23.459
14620DA     BB395000  40.272  58.706  23.469
14620DA     SC195001  40.182  58.783  23.757
14620DA     SC295002  40.046  58.961  23.867
14620DA     SC395003  40.170  58.895  24.081
14620DA     SC495004  40.271  58.728  23.879
14621DG     BB195005  40.229  58.719  23.160
14621DG     BB295006  40.056  59.026  23.243
14621DG     BB395007  40.186  59.174  23.263
14621DG     SC195008  40.230  59.127  23.562
14621DG     SC295009  40.151  59.312  23.782
14621DG     SC395010  40.318  59.091  23.886
14621DG     SC495011  40.344  59.024  23.609
14622DC     BB195012  40.183  59.352  23.129
14622DC     BB295013  40.039  59.600  23.348
14622DC     BB395014  40.186  59.729  23.414
14622DC     SC195015  40.281  59.549  23.579
14622DC     SC295016  40.241  59.609  23.782
14622DC     SC395017  40.448  59.377  23.690
14623DA     BB195018  39.869  59.955  23.260
14623DA     BB295019  39.953  60.088  23.591
14623DA     BB395020  40.138  60.194  23.584
14623DA     SC195021  40.311  59.945  23.653
14623DA     SC295022  40.449  59.864  23.844
14623DA     SC395023  40.561  59.710  23.672
14623DA     SC495024  40.370  59.859  23.530
14624DC     BB195025  40.118  60.377  23.620
14624DC     BB295026  40.260  60.371  23.952
14624DC     BB395027  40.456  60.438  23.947
14624DC     SC195028  40.538  60.213  23.840
14624DC     SC295029  40.657  60.105  23.983
14624DC     SC395030  40.641  60.044  23.665
14625DA     BB195031  40.235  60.631  24.248
14625DA     BB295032  40.552  60.514  24.391
14625DA     BB395033  40.715  60.628  24.313
14625DA     SC195034  40.766  60.436  24.074
14625DA     SC295035  40.941  60.272  24.002
14625DA     SC395036  40.843  60.302  23.767
14625DA     SC495037  40.692  60.468  23.935
14626DC     BB195038  40.799  60.726  24.445
14626DC     BB295039  41.102  60.531  24.465
14626DC     BB395040  41.251  60.622  24.355
14626DC     SC195041  41.143  60.544  24.129
14626DC     SC295042  41.267  60.394  24.037
14626DC     SC395043  41.026  60.556  23.892
14627DA     BB195044  41.405  60.543  24.738
14627DA     BB295045  41.652  60.431  24.492
14627DA     BB395046  41.745  60.598  24.399
14627DA     SC195047  41.539  60.614  24.166
14627DA     SC295048  41.534  60.573  23.920
14627DA     SC395049  41.326  60.722  23.920
14627DA     SC495050  41.412  60.711  24.186
14628DT     BB195051  41.945  60.638  24.432
14628DT     BB295052  42.067  60.539  24.107
14628DT     BB395053  42.111  60.707  23.994
14628DT     SC195054  41.857  60.757  23.953
14628DT     SC295055  41.810  60.721  23.746
14628DT     SC395056  41.624  60.881  23.958
14629DT     BB195057  42.393  60.686  24.017
14629DT     BB295058  42.338  60.698  23.661
14629DT     BB395059  42.343  60.894  23.595
14629DT     SC195060  42.106  60.943  23.696
14629DT     SC295061  41.965  60.970  23.536
14629DT     SC395062  41.918  61.049  23.847
14630DT     BB195063  42.603  60.890  23.470
14630DT     BB295064  42.385  60.998  23.205
14630DT     BB395065  42.376  61.205  23.199
14630DT     SC195066  42.224  61.212  23.412
14630DT     SC295067  42.026  61.276  23.356
14630DT     SC395068  42.143  61.263  23.658
14631DA     BB195069  42.491  61.111  22.806
14631DA     BB295070  42.201  61.335  22.784
14631DA     BB395071  42.261  61.536  22.819
14631DA     SC195072  42.212  61.523  23.126
14631DA     SC295073  42.052  61.617  23.292
14631DA     SC395074  42.231  61.562  23.467
14631DA     SC495075  42.336  61.482  23.220
14632DT     BB195076  42.249  61.682  22.666
14632DT     BB295077  41.952  61.844  22.791
14632DT     BB395078  42.000  62.029  22.870
14632DT     SC195079  42.106  61.920  23.083
14632DT     SC295080  41.982  61.962  23.254
14632DT     SC395081  42.286  61.850  23.263
14633DG     BB195082  41.723  62.088  22.578
14633DG     BB295083  41.619  62.236  22.891
14633DG     BB395084  41.713  62.409  22.919
14633DG     SC195085  41.952  62.284  23.065
14633DG     SC295086  42.022  62.325  23.352
14633DG     SC395087  42.237  62.179  23.211
14633DG     SC495088  42.077  62.233  22.980
14634DC     BB195089  41.598  62.592  22.932
14634DC     BB295090  41.613  62.659  23.287
14634DC     BB395091  41.749  62.810  23.324
14634DC     SC195092  41.952  62.648  23.283
14634DC     SC295093  42.053  62.611  23.469
14634DC     SC395094  42.168  62.545  23.173
14635DT     BB195095  41.543  62.975  23.382
14635DT     BB295096  41.748  62.976  23.679
14635DT     BB395097  41.897  63.118  23.662
14635DT     SC195098  42.032  62.967  23.494
14635DT     SC295099  42.211  62.897  23.590
14635DT     SC395100  42.148  62.887  23.272
14636DA     BB195101  41.700  63.181  24.027
14636DA     BB295102  42.061  63.172  24.093
14636DA     BB395103  42.154  63.351  24.022
14636DA     SC195104  42.215  63.237  23.739
14636DA     SC295105  42.415  63.168  23.607
14636DA     SC395106  42.264  63.197  23.402
14636DA     SC495107  42.106  63.262  23.624
14637DT     BB195108  42.232  63.468  24.160
14637DT     BB295109  42.576  63.386  24.092
14637DT     BB395110  42.667  63.540  23.988
14637DT     SC195111  42.543  63.474  23.766
14637DT     SC295112  42.685  63.394  23.626
14637DT     SC395113  42.383  63.490  23.557
14638DT     BB195114  42.802  63.584  24.211
14638DT     BB295115  43.053  63.520  23.960
14638DT     BB395116  43.094  63.694  23.855
14638DT     SC195117  42.868  63.678  23.723
14638DT     SC295118  42.908  63.631  23.517
14638DT     SC395119  42.626  63.739  23.636
14639DA     BB195120  43.432  63.480  23.984
14639DA     BB295121  43.473  63.565  23.630
14639DA     BB395122  43.497  63.776  23.607
14639DA     SC195123  43.193  63.831  23.573
14639DA     SC295124  43.038  63.903  23.391
14639DA     SC395125  42.878  63.969  23.581
14639DA     SC495126  43.109  63.867  23.705
14640DA     BB195127  43.725  63.607  23.441
14640DA     BB295128  43.602  63.791  23.149
14640DA     BB395129  43.639  64.000  23.172
14640DA     SC195130  43.366  64.059  23.309
14640DA     SC295131  43.153  64.177  23.253
14640DA     SC395132  43.114  64.183  23.507
14640DA     SC495133  43.360  64.053  23.469
14641DA     BB195134  43.742  63.904  22.873
14641DA     BB295135  43.527  64.172  22.745
14641DA     BB395136  43.598  64.362  22.810
14641DA     SC195137  43.427  64.364  23.070
14641DA     SC295138  43.230  64.488  23.161
14641DA     SC395139  43.311  64.409  23.391
14641DA     SC495140  43.494  64.306  23.204
14642DC     BB195141  43.658  64.467  22.671
14642DC     BB295142  43.400  64.719  22.679
14642DC     BB395143  43.465  64.883  22.787
14642DC     SC195144  43.433  64.756  23.014
14642DC     SC295145  43.268  64.842  23.122
14642DC     SC395146  43.491  64.641  23.244
14643DA     BB195147  43.347  65.055  22.420
14643DA     BB295148  43.207  65.263  22.687
14643DA     BB395149  43.359  65.383  22.777
14643DA     SC195150  43.430  65.172  22.995
14643DA     SC295151  43.407  65.147  23.242
14643DA     SC395152  43.592  64.972  23.221
14643DA     SC495153  43.547  65.067  22.961
14644DA     BB195154  43.177  65.656  22.708
14644DA     BB295155  43.163  65.723  23.068
14644DA     BB395156  43.344  65.814  23.135
14644DA     SC195157  43.484  65.544  23.202
14644DA     SC295158  43.557  65.421  23.406
14644DA     SC395159  43.712  65.291  23.247
14644DA     SC495160  43.573  65.476  23.087
14645DG     BB195161  43.180  66.071  23.224
14645DG     BB295162  43.288  65.975  23.555
14645DG     BB395163  43.467  66.052  23.594
14645DG     SC195164  43.622  65.813  23.482
14645DG     SC295165  43.790  65.624  23.640
14645DG     SC395166  43.823  65.577  23.350
14645DG     SC495167  43.659  65.810  23.326
14646DG     BB195168  43.348  66.213  23.857
14646DG     BB295169  43.573  66.011  24.056
14646DG     BB395170  43.753  66.095  24.060
14646DG     SC195171  43.854  65.949  23.810
14646DG     SC295172  44.069  65.742  23.803
14646DG     SC395173  43.990  65.821  23.529
14646DG     SC495174  43.829  66.015  23.667
14647DG     BB195175  43.735  66.108  24.388
14647DG     BB295176  44.021  65.886  24.391
14647DG     BB395177  44.189  65.992  24.369
14647DG     SC195178  44.188  65.976  24.063
14647DG     SC295179  44.387  65.831  23.895
14647DG     SC395180  44.208  65.996  23.727
14647DG     SC495181  44.110  66.089  23.980
14648DT     BB195182  44.348  66.000  24.529
14648DT     BB295183  44.607  65.794  24.385
14648DT     BB395184  44.759  65.912  24.312
14648DT     SC195185  44.615  65.984  24.105
14648DT     SC295186  44.697  65.895  23.927
14648DT     SC395187  44.480  66.136  23.937
14649DT     BB195188  44.941  65.856  24.520
14649DT     BB295189  45.125  65.770  24.222
14649DT     BB395190  45.231  65.935  24.155
14649DT     SC195191  45.012  66.047  24.062
14649DT     SC295192  45.018  66.047  23.847
14649DT     SC395193  44.816  66.220  24.033
14650DC     BB195194  45.500  65.861  24.242
14650DC     BB295195  45.541  65.919  23.888
14650DC     BB395196  45.601  66.115  23.855
14650DC     SC195197  45.359  66.205  23.906
14650DC     SC295198  45.271  66.279  23.724
14650DC     SC395199  45.163  66.335  24.024
14651DA     BB195200  45.922  65.919  23.661
14651DA     BB295201  45.789  66.164  23.423
14651DA     BB395202  45.865  66.359  23.467
14651DA     SC195203  45.631  66.434  23.657
14651DA     SC295204  45.436  66.590  23.658
14651DA     SC395205  45.439  66.561  23.912
14651DA     SC495206  45.650  66.404  23.814
14652DT     BB195207  46.002  66.472  23.332
14652DT     BB295208  45.744  66.689  23.201
14652DT     BB395209  45.774  66.882  23.269
14652DT     SC195210  45.687  66.820  23.509
14652DT     SC295211  45.497  66.915  23.543
14652DT     SC395212  45.685  66.779  23.770
14653DA     BB195213  45.728  66.883  22.854
14653DA     BB295214  45.491  67.124  22.996
14653DA     BB395215  45.595  67.298  23.065
14653DA     SC195216  45.638  67.188  23.353
14653DA     SC295217  45.555  67.235  23.583
14653DA     SC395218  45.764  67.111  23.663
14653DA     SC495219  45.775  67.108  23.383
14654DA     BB195220  45.354  67.400  22.873
14654DA     BB295221  45.228  67.573  23.170
14654DA     BB395222  45.356  67.736  23.221
14654DA     SC195223  45.536  67.567  23.410
14654DA     SC295224  45.582  67.550  23.655
14654DA     SC395225  45.800  67.435  23.586
14654DA     SC495226  45.667  67.499  23.347
14655DA     BB195227  45.053  67.856  23.208
14655DA     BB295228  45.104  67.947  23.560
14655DA     BB395229  45.247  68.104  23.575
14655DA     SC195230  45.491  67.913  23.602
14655DA     SC295231  45.654  67.845  23.778
14655DA     SC395232  45.801  67.767  23.583
14655DA     SC495233  45.568  67.871  23.467
14656DT     BB195234  45.170  68.255  23.643
14656DT     BB295235  45.322  68.241  23.970
14656DT     BB395236  45.487  68.365  23.976
14656DT     SC195237  45.629  68.196  23.834
14656DT     SC295238  45.782  68.109  23.959
14656DT     SC395239  45.771  68.096  23.635
14657DT     BB195240  45.346  68.529  24.134
14657DT     BB295241  45.642  68.451  24.324
14657DT     BB395242  45.797  68.577  24.270
14657DT     SC195243  45.832  68.449  24.043
14657DT     SC295244  46.020  68.343  24.050
14657DT     SC395245  45.844  68.401  23.784
14658DA     BB195246  45.761  68.586  24.688
14658DA     BB295247  46.114  68.531  24.604
14658DA     BB395248  46.200  68.710  24.526
14658DA     SC195249  46.132  68.642  24.230
14658DA     SC295250  46.254  68.578  24.022
14658DA     SC395251  46.044  68.657  23.898
14658DA     SC495252  45.993  68.697  24.171
14659DT     BB195253  46.341  68.792  24.634
14659DT     BB295254  46.618  68.693  24.426
14659DT     BB395255  46.683  68.854  24.313
14659DT     SC195256  46.476  68.836  24.153
14659DT     SC295257  46.541  68.769  23.960
14659DT     SC395258  46.252  68.900  24.029
14660DG     BB195259  46.989  68.697  24.532
14660DG     BB295260  47.071  68.721  24.180
14660DG     BB395261  47.109  68.910  24.132
14660DG     SC195262  46.819  68.976  24.061
14660DG     SC295263  46.716  69.041  23.788
14660DG     SC395264  46.508  69.088  23.994
14660DG     SC495265  46.721  69.028  24.176
14661DA     BB195266  47.384  68.754  23.996
14661DA     BB295267  47.293  68.893  23.669
14661DA     BB395268  47.326  69.104  23.666
14661DA     SC195269  47.039  69.175  23.763
14661DA     SC295270  46.833  69.280  23.668
14661DA     SC395271  46.766  69.320  23.913
14661DA     SC495272  47.016  69.193  23.921
14662DA     BB195273  47.484  68.998  23.400
14662DA     BB295274  47.268  69.224  23.210
14662DA     BB395275  47.321  69.427  23.247
14662DA     SC195276  47.125  69.460  23.486
14662DA     SC295277  46.913  69.582  23.536
14662DA     SC395278  46.975  69.548  23.783
14662DA     SC495279  47.181  69.430  23.634
14663DA     BB195280  47.335  69.430  22.918
14663DA     BB295281  47.080  69.693  22.928
14663DA     BB395282  47.166  69.877  22.992
14663DA     SC195283  47.109  69.828  23.293
14663DA     SC295284  46.960  69.921  23.471
14663DA     SC395285  47.126  69.816  23.636
14663DA     SC495286  47.225  69.757  23.380
14664DT     BB195287  47.180  70.036  22.860
14664DT     BB295288  46.920  70.239  23.007
14664DT     BB395289  47.005  70.397  23.111
14664DT     SC195290  47.078  70.239  23.307
14664DT     SC295291  46.960  70.283  23.482
14664DT     SC395292  47.233  70.108  23.475
14665DA     BB195293  46.729  70.576  22.849
14665DA     BB295294  46.671  70.716  23.183
14665DA     BB395295  46.824  70.857  23.232
14665DA     SC195296  47.009  70.646  23.366
14665DA     SC295297  47.088  70.590  23.596
14665DA     SC395298  47.278  70.464  23.478
14665DA     SC495299  47.119  70.575  23.274
14666DT     BB195300  46.779  71.061  23.252
14666DT     BB295301  46.801  71.075  23.612
14666DT     BB395302  46.973  71.175  23.668
14666DT     SC195303  47.122  70.968  23.605
14666DT     SC295304  47.202  70.880  23.785
14666DT     SC395305  47.304  70.821  23.483
14667DT     BB195306  46.824  71.386  23.748
14667DT     BB295307  47.011  71.293  24.041
14667DT     BB395308  47.196  71.387  24.040
14667DT     SC195309  47.286  71.225  23.855
14667DT     SC295310  47.435  71.095  23.940
14667DT     SC395311  47.381  71.140  23.623
14668DA     BB195312  47.017  71.459  24.412
14668DA     BB295313  47.361  71.349  24.473
14668DA     BB395314  47.499  71.504  24.419
14668DA     SC195315  47.532  71.406  24.126
14668DA     SC295316  47.709  71.301  23.985
14668DA     SC395317  47.574  71.389  23.785
14668DA     SC495318  47.435  71.470  24.015
14669DG     BB195319  47.584  71.488  24.719
14669DG     BB295320  47.902  71.388  24.579
14669DG     BB395321  48.005  71.548  24.522
14669DG     SC195322  47.890  71.552  24.239
14669DG     SC295323  48.042  71.500  23.987
14669DG     SC395324  47.769  71.598  23.927
14669DG     SC495325  47.754  71.633  24.211
14670DA     BB195326  48.283  71.443  24.712
14670DA     BB295327  48.494  71.439  24.412
14670DA     BB395328  48.554  71.637  24.360
14670DA     SC195329  48.310  71.689  24.174
14670DA     SC295330  48.267  71.716  23.930
14670DA     SC395331  48.049  71.830  24.002
14670DA     SC495332  48.180  71.757  24.239
14671DA     BB195333  48.878  71.544  24.372
14671DA     BB295334  48.907  71.632  24.018
14671DA     BB395335  48.936  71.842  23.996
14671DA     SC195336  48.632  71.906  23.974
14671DA     SC295337  48.472  71.984  23.800
14671DA     SC395338  48.322  72.052  23.997
14671DA     SC495339  48.554  71.943  24.110
14672DT     BB195340  49.129  71.953  23.922
14672DT     BB295341  49.003  72.035  23.594
14672DT     BB395342  48.976  72.240  23.578
14672DT     SC195343  48.760  72.231  23.727
14672DT     SC295344  48.588  72.273  23.605
14672DT     SC395345  48.597  72.273  23.929
14673DG     BB195346  49.250  72.170  23.280
14673DG     BB295347  48.961  72.344  23.150
14673DG     BB395348  48.978  72.539  23.183
14673DG     SC195349  48.841  72.530  23.456
14673DG     SC295350  48.578  72.654  23.524
14673DG     SC395351  48.713  72.554  23.767
14673DG     SC495352  48.929  72.503  23.587
14674DA     BB195353  48.921  72.590  22.845
14674DA     BB295354  48.617  72.780  22.924
14674DA     BB395355  48.668  72.979  22.982
14674DA     SC195356  48.689  72.910  23.285
14674DA     SC295357  48.562  72.958  23.494
14674DA     SC395358  48.779  72.896  23.616
14674DA     SC495359  48.833  72.869  23.342
14675DA     BB195360  48.450  73.029  22.746
14675DA     BB295361  48.244  73.192  23.002
14675DA     BB395362  48.324  73.383  23.051
14675DA     SC195363  48.503  73.276  23.281
14675DA     SC295364  48.512  73.289  23.530
14675DA     SC395365  48.758  73.222  23.505
14675DA     SC495366  48.654  73.235  23.245
14676DT     BB195367  48.208  73.523  23.005
14676DT     BB295368  48.100  73.604  23.339
14676DT     BB395369  48.202  73.771  23.408
14676DT     SC195370  48.421  73.631  23.446
14676DT     SC295371  48.458  73.613  23.657
14676DT     SC395372  48.670  73.549  23.420
14677DT     BB195373  47.969  73.896  23.385
14677DT     BB295374  48.065  73.940  23.729
14677DT     BB395375  48.196  74.100  23.747
14677DT     SC195376  48.393  73.960  23.645
14677DT     SC295377  48.538  73.920  23.798
14677DT     SC395378  48.583  73.884  23.479
14678DA     BB195379  47.886  74.149  24.026
14678DA     BB295380  48.205  74.206  24.198
14678DA     BB395381  48.290  74.392  24.137
14678DA     SC195382  48.453  74.268  23.902
14678DA     SC295383  48.692  74.223  23.847
14678DA     SC395384  48.612  74.210  23.604
14678DA     SC495385  48.383  74.264  23.757
14679DG     BB195386  48.267  74.468  24.438
14679DG     BB295387  48.628  74.486  24.416
14679DG     BB395388  48.683  74.662  24.341
14679DG     SC195389  48.677  74.567  24.050
14679DG     SC295390  48.914  74.539  23.870
14679DG     SC395391  48.661  74.503  23.720
14679DG     SC495392  48.540  74.578  23.968
14680DA     BB195393  48.895  74.707  24.616
14680DA     BB295394  49.185  74.732  24.392
14680DA     BB395395  49.192  74.925  24.301
14680DA     SC195396  49.023  74.841  24.054
14680DA     SC295397  49.059  74.806  23.810
14680DA     SC395398  48.805  74.834  23.789
14680DA     SC495399  48.864  74.864  24.061
14681DA     BB195400  49.499  74.940  24.424
14681DA     BB295401  49.620  74.968  24.079
14681DA     BB395402  49.592  75.167  24.007
14681DA     SC195403  49.309  75.111  23.890
14681DA     SC295404  49.202  75.093  23.666
14681DA     SC395405  48.982  75.136  23.790
14681DA     SC495406  49.183  75.141  23.985
14682DT     BB195407  49.756  75.283  23.965
14682DT     BB295408  49.733  75.259  23.606
14682DT     BB395409  49.662  75.437  23.527
14682DT     SC195410  49.418  75.386  23.609
14682DT     SC295411  49.293  75.348  23.439
14682DT     SC395412  49.191  75.409  23.741
14683DT     BB195413  49.909  75.489  23.428
14683DT     BB295414  49.691  75.493  23.140
14683DT     BB395415  49.610  75.682  23.116
14683DT     SC195416  49.446  75.646  23.318
14683DT     SC295417  49.244  75.630  23.244
14683DT     SC395418  49.330  75.679  23.553
14684DC     BB195419  49.765  75.701  22.901
14684DC     BB295420  49.429  75.749  22.779
14684DC     BB395421  49.372  75.946  22.804
14684DC     SC195422  49.340  75.913  23.062
14684DC     SC295423  49.131  75.924  23.110
14684DC     SC395424  49.375  75.941  23.322
14685DC     BB195425  49.386  75.950  22.542
14685DC     BB295426  49.048  76.050  22.622
14685DC     BB395427  49.044  76.251  22.672
14685DC     SC195428  49.151  76.203  22.906
14685DC     SC295429  49.004  76.237  23.060
14685DC     SC395430  49.324  76.206  23.105
14686DT     BB195431  48.916  76.269  22.445
14686DT     BB295432  48.695  76.414  22.690
14686DT     BB395433  48.753  76.608  22.732
14686DT     SC195434  48.958  76.525  22.873
14686DT     SC295435  48.924  76.569  23.081
14686DT     SC395436  49.207  76.484  22.949
14687DA     BB195437  48.341  76.604  22.647
14687DA     BB295438  48.394  76.808  22.947
14687DA     BB395439  48.492  76.991  22.896
14687DA     SC195440  48.779  76.877  22.936
14687DA     SC295441  48.968  76.906  23.097
14687DA     SC395442  49.114  76.806  22.911
14687DA     SC495443  48.853  76.815  22.808
14688DA     BB195444  48.238  77.145  23.050
14688DA     BB295445  48.483  77.300  23.273
14688DA     BB395446  48.585  77.459  23.173
14688DA     SC195447  48.814  77.277  23.066
14688DA     SC295448  49.058  77.245  23.107
14688DA     SC395449  49.061  77.133  22.876
14688DA     SC495450  48.796  77.213  22.920
14689DT     BB195451  48.571  77.700  23.206
14689DT     BB295452  48.894  77.742  23.361
14689DT     BB395453  49.020  77.847  23.235
14689DT     SC195454  49.052  77.637  23.080
14689DT     SC295455  49.253  77.564  23.100
14689DT     SC395456  49.044  77.483  22.866
14690DC     BB195457  49.030  78.145  23.336
14690DC     BB295458  49.380  78.055  23.326
14690DC     BB395459  49.466  78.126  23.152
14690DC     SC195460  49.350  77.939  23.009
14690DC     SC295461  49.498  77.800  22.939
14690DC     SC395462  49.194  77.824  22.829
14691DG     BB195463  49.710  78.378  23.390
14691DG     BB295464  49.917  78.171  23.178
14691DG     BB395465  49.952  78.264  23.006
14691DG     SC195466  49.706  78.149  22.865
14691DG     SC295467  49.708  77.957  22.637
14691DG     SC395468  49.435  78.057  22.687
14691DG     SC495469  49.567  78.227  22.876
14692DT     BB195470  50.178  78.345  22.905
14692DT     BB295471  50.231  78.066  22.683
14692DT     BB395472  50.222  78.129  22.486
14692DT     SC195473  49.961  78.151  22.497
14692DT     SC295474  49.872  77.998  22.374
14692DT     SC395475  49.721  78.259  22.493
14693DA     BB195476  50.563  77.902  22.565
14693DA     BB295477  50.387  77.753  22.280
14693DA     BB395478  50.409  77.876  22.107
14693DA     SC195479  50.153  78.043  22.162
14693DA     SC295480  49.926  78.071  22.063
14693DA     SC395481  49.921  78.295  22.189
14693DA     SC495482  50.170  78.179  22.247
14694DC     BB195483  50.490  77.772  22.002
14694DC     BB295484  50.207  77.702  21.788
14694DC     BB395485  50.206  77.833  21.628
14694DC     SC195486  50.122  78.030  21.780
14694DC     SC295487  49.919  78.079  21.727
14694DC     SC395488  50.118  78.261  21.907
14695DT     BB195489  50.253  77.606  21.517
14695DT     BB295490  49.952  77.733  21.363
14695DT     BB395491  50.000  77.881  21.226
14695DT     SC195492  50.049  78.053  21.418
14695DT     SC295493  49.897  78.205  21.418
14695DT     SC395494  50.181  78.221  21.573
14696DG     BB195495  49.772  77.582  21.065
14696DG     BB295496  49.637  77.910  20.994
14696DG     BB395497  49.750  78.002  20.859
14696DG     SC195498  49.936  78.131  21.065
14696DG     SC295499  49.958  78.423  21.122
14696DG     SC395500  50.171  78.272  21.262
14696DG     SC495501  50.065  78.050  21.114
14697DA     BB195502  49.450  78.056  20.692
14697DA     BB295503  49.513  78.417  20.697
14697DA     BB395504  49.667  78.467  20.558
14697DA     SC195505  49.897  78.436  20.765
14697DA     SC295506  50.058  78.584  20.886
14697DA     SC395507  50.196  78.370  20.921
14697DA     SC495508  49.969  78.293  20.775
14698DG     BB195509  49.454  78.646  20.411
14698DG     BB295510  49.677  78.915  20.504
14698DG     BB395511  49.824  78.930  20.370
14698DG     SC195512  50.010  78.736  20.517
14698DG     SC295513  50.269  78.805  20.649
14698DG     SC395514  50.230  78.512  20.641
14698DG     SC495515  50.000  78.579  20.485
14699DT     BB195516  49.864  79.115  20.227
14699DT     BB295517  50.152  79.264  20.386
14699DT     BB395518  50.321  79.229  20.273
14699DT     SC195519  50.331  78.979  20.351
14699DT     SC295520  50.500  78.950  20.480
14699DT     SC395521  50.327  78.715  20.340
14700DA     BB195522  50.316  79.645  20.326
14700DA     BB295523  50.650  79.527  20.418
14700DA     BB395524  50.763  79.480  20.243
14700DA     SC195525  50.673  79.183  20.234
14700DA     SC295526  50.775  78.958  20.271
14700DA     SC395527  50.577  78.868  20.135
14700DA     SC495528  50.544  79.146  20.146
14701DA     BB195529  50.976  79.687  20.381
14701DA     BB295530  51.211  79.406  20.397
14701DA     BB395531  51.296  79.369  20.205
14701DA     SC195532  51.076  79.165  20.120
14701DA     SC295533  51.058  78.920  20.078
14701DA     SC395534  50.847  78.979  19.944
14701DA     SC495535  50.949  79.223  20.040
14702DT     BB195536  51.476  79.398  20.207
14702DT     BB295537  51.575  79.051  20.200
14702DT     BB395538  51.623  78.995  20.007
14702DT     SC195539  51.370  78.989  19.937
14702DT     SC295540  51.311  78.785  19.903
14702DT     SC395541  51.146  79.049  19.813
14703DT     BB195542  51.866  78.984  20.104
14703DT     BB295543  51.796  78.653  19.977
14703DT     BB395544  51.825  78.649  19.772
14703DT     SC195545  51.602  78.780  19.730
14703DT     SC295546  51.458  78.649  19.638
14703DT     SC395547  51.437  78.972  19.655
14704DT     BB195548  52.024  78.498  19.844
14704DT     BB295549  51.822  78.297  19.622
14704DT     BB395550  51.860  78.350  19.425
14704DT     SC195551  51.722  78.572  19.450
14704DT     SC295552  51.542  78.558  19.334
14704DT     SC395553  51.667  78.830  19.458
14705DT     BB195554  51.966  78.113  19.422
14705DT     BB295555  51.716  78.111  19.162
14705DT     BB395556  51.788  78.206  18.993
14705DT     SC195557  51.761  78.442  19.105
14705DT     SC295558  51.602  78.549  19.007
14705DT     SC395559  51.823  78.678  19.206
14706DT     BB195560  51.783  77.964  18.896
14706DT     BB295561  51.582  78.162  18.672
14706DT     BB395562  51.703  78.270  18.544
14706DT     SC195563  51.769  78.438  18.734
14706DT     SC295564  51.681  78.630  18.693
14706DT     SC395565  51.916  78.571  18.908
14707DT     BB195566  51.619  78.106  18.353
14707DT     BB295567  51.543  78.437  18.231
14707DT     BB395568  51.712  78.520  18.145
14707DT     SC195569  51.820  78.564  18.379
14707DT     SC295570  51.825  78.776  18.418
14707DT     SC395571  51.990  78.549  18.581
14708DT     BB195572  51.601  78.489  17.901
14708DT     BB295573  51.680  78.840  17.919
14708DT     BB395574  51.878  78.870  17.865
14708DT     SC195575  51.964  78.775  18.093
14708DT     SC295576  52.049  78.935  18.210
14708DT     SC395577  52.086  78.618  18.267
14709DT     BB195578  51.811  78.979  17.619
14709DT     BB295579  52.017  79.232  17.774
14709DT     BB395580  52.217  79.196  17.731
14709DT     SC195581  52.225  78.996  17.901
14709DT     SC295582  52.347  79.051  18.070
14709DT     SC395583  52.251  78.751  17.995
14710DC     BB195584  52.242  79.405  17.546
14710DC     BB295585  52.498  79.474  17.791
14710DC     BB395586  52.674  79.380  17.738
14710DC     SC195587  52.580  79.146  17.810
14710DC     SC295588  52.684  79.078  17.986
14710DC     SC395589  52.497  78.896  17.794
14711DA     BB195590  52.792  79.781  17.785
14711DA     BB295591  53.022  79.575  17.983
14711DA     BB395592  53.163  79.478  17.856
14711DA     SC195593  52.989  79.223  17.815
14711DA     SC295594  52.994  78.983  17.883
14711DA     SC395595  52.832  78.946  17.687
14711DA     SC495596  52.890  79.220  17.689
14712DC     BB195597  53.377  79.523  17.859
14712DC     BB295598  53.475  79.228  18.041
14712DC     BB395599  53.577  79.099  17.916
14712DC     SC195600  53.356  79.027  17.795
14712DC     SC295601  53.310  78.823  17.846
14712DC     SC395602  53.177  78.993  17.604
14713DA     BB195603  53.816  79.157  18.254
14713DA     BB295604  53.783  78.795  18.201
14713DA     BB395605  53.904  78.733  18.037
14713DA     SC195606  53.680  78.773  17.825
14713DA     SC295607  53.537  78.630  17.679
14713DA     SC395608  53.503  78.842  17.539
14713DA     SC495609  53.673  78.915  17.750
14714DT     BB195610  54.047  78.613  18.085
14714DT     BB295611  53.893  78.313  17.957
14714DT     BB395612  53.979  78.261  17.777
14714DT     SC195613  53.853  78.454  17.652
14714DT     SC295614  53.704  78.370  17.521
14714DT     SC395615  53.812  78.675  17.514
14715DA     BB195616  53.961  77.937  18.041
14715DA     BB295617  53.823  77.832  17.717
14715DA     BB395618  53.979  77.816  17.572
14715DA     SC195619  53.952  78.110  17.475
14715DA     SC295620  53.874  78.230  17.271
14715DA     SC395621  54.012  78.428  17.359
14715DA     SC495622  54.045  78.221  17.545
14716DA     BB195623  53.811  77.538  17.564
14716DA     BB295624  53.746  77.619  17.212
14716DA     BB395625  53.926  77.603  17.098
14716DA     SC195626  54.008  77.900  17.140
14716DA     SC295627  54.025  78.107  17.002
14716DA     SC395628  54.181  78.192  17.187
14716DA     SC495629  54.103  77.934  17.264
14717DT     BB195630  53.900  77.475  16.982
14717DT     BB295631  53.876  77.682  16.688
14717DT     BB395632  54.061  77.695  16.595
14717DT     SC195633  54.151  77.859  16.779
14717DT     SC295634  54.177  78.054  16.694
14717DT     SC395635  54.297  77.953  16.977
14718DT     BB195636  53.938  77.554  16.415
14718DT     BB295637  54.063  77.843  16.240
14718DT     BB395638  54.264  77.819  16.198
14718DT     SC195639  54.330  77.864  16.449
14718DT     SC295640  54.431  78.053  16.463
14718DT     SC395641  54.424  77.823  16.692
14719DC     BB195642  54.190  77.792  15.946
14719DC     BB295643  54.436  78.055  15.941
14719DC     BB395644  54.627  77.974  15.937
14719DC     SC195645  54.612  77.908  16.190
14719DC     SC295646  54.746  78.031  16.304
14719DC     SC395647  54.604  77.759  16.408
14720DT     BB195648  54.656  78.045  15.676
14720DT     BB295649  54.946  78.186  15.838
14720DT     BB395650  55.097  78.045  15.848
14720DT     SC195651  54.975  77.916  16.041
14720DT     SC295652  55.085  77.940  16.224
14720DT     SC395653  54.850  77.724  16.171
14721DT     BB195654  55.262  78.147  15.637
14721DT     BB295655  55.493  78.121  15.913
14721DT     BB395656  55.586  77.936  15.910
14721DT     SC195657  55.369  77.817  15.998
14721DT     SC295658  55.403  77.748  16.199
14721DT     SC395659  55.159  77.657  16.005
14722DA     BB195660  55.934  78.179  15.902
14722DA     BB295661  55.988  77.929  16.165
14722DA     BB395662  56.045  77.742  16.079
14722DA     SC195663  55.753  77.636  16.054
14722DA     SC295664  55.611  77.461  16.160
14722DA     SC395665  55.464  77.482  15.951
14722DA     SC495666  55.676  77.663  15.916
14723DT     BB195667  56.258  77.627  16.089
14723DT     BB295668  56.153  77.379  16.329
14723DT     BB395669  56.151  77.192  16.241
14723DT     SC195670  55.931  77.248  16.109
14723DT     SC295671  55.768  77.131  16.188
14723DT     SC395672  55.767  77.293  15.907
14724DA     BB195673  56.399  77.130  16.575
14724DA     BB295674  56.139  76.871  16.583
14724DA     BB395675  56.185  76.717  16.443
14724DA     SC195676  56.028  76.849  16.209
14724DA     SC295677  55.820  76.806  16.078
14724DA     SC395678  55.923  76.961  15.901
14724DA     SC495679  56.110  76.947  16.110
14725DT     BB195680  56.230  76.523  16.509
14725DT     BB295681  55.910  76.380  16.426
14725DT     BB395682  55.929  76.255  16.262
14725DT     SC195683  55.950  76.460  16.099
14725DT     SC295684  55.773  76.472  15.977
14725DT     SC395685  56.052  76.628  15.924
14726DG     BB195686  55.772  76.045  16.572
14726DG     BB295687  55.563  76.024  16.277
14726DG     BB395688  55.642  75.896  16.147
14726DG     SC195689  55.812  76.107  16.004
14726DG     SC295690  55.775  76.201  15.723
14726DG     SC395691  56.025  76.308  15.838
14726DG     SC495692  55.959  76.138  16.058
14727DG     BB195693  55.354  75.752  16.173
14727DG     BB295694  55.316  75.827  15.821
14727DG     BB395695  55.417  75.695  15.712
14727DG     SC195696  55.677  75.856  15.711
14727DG     SC295697  55.803  75.985  15.473
14727DG     SC395698  55.983  75.997  15.706
14727DG     SC495699  55.782  75.834  15.830
14728DT     BB195700  55.302  75.587  15.583
14728DT     BB295701  55.389  75.732  15.265
14728DT     BB395702  55.531  75.614  15.170
14728DT     SC195703  55.720  75.699  15.331
14728DT     SC295704  55.857  75.823  15.221
14728DT     SC395705  55.910  75.696  15.515
14729DG     BB195706  55.206  75.665  14.930
14729DG     BB295707  55.513  75.750  14.760
14729DG     BB395708  55.611  75.584  14.710
14729DG     SC195709  55.769  75.569  14.972
14729DG     SC295710  56.064  75.604  15.002
14729DG     SC395711  55.943  75.511  15.255
14729DG     SC495712  55.705  75.491  15.097
14730DA     BB195713  55.622  75.728  14.396
14730DA     BB295714  55.988  75.712  14.403
14730DA     BB395715  56.054  75.511  14.375
14730DA     SC195716  56.058  75.444  14.679
14730DA     SC295717  56.227  75.399  14.856
14730DA     SC395718  56.034  75.289  14.984
14730DA     SC495719  55.925  75.380  14.742
14731DT     BB195720  56.153  75.475  14.210
14731DT     BB295721  56.479  75.440  14.359
14731DT     BB395722  56.530  75.239  14.373
14731DT     SC195723  56.365  75.204  14.575
14731DT     SC295724  56.479  75.169  14.754
14731DT     SC395725  56.162  75.114  14.716
14732DT     BB195726  56.710  75.274  14.174
14732DT     BB295727  56.902  75.139  14.449
14732DT     BB395728  56.891  74.932  14.448
14732DT     SC195729  56.646  74.937  14.540
14732DT     SC295730  56.644  74.862  14.742
14732DT     SC395731  56.384  74.902  14.552
14733DA     BB195732  57.302  75.020  14.456
14733DA     BB295733  57.237  74.772  14.718
14733DA     BB395734  57.205  74.579  14.631
14733DA     SC195735  56.897  74.615  14.604
14733DA     SC295736  56.691  74.521  14.708
14733DA     SC395737  56.571  74.606  14.498
14733DA     SC495738  56.841  74.674  14.466
14734DA     BB195739  57.448  74.480  14.832
14734DA     BB295740  57.203  74.258  14.992
14734DA     BB395741  57.173  74.083  14.873
14734DA     SC195742  56.938  74.206  14.710
14734DA     SC295743  56.692  74.174  14.689
14734DA     SC395744  56.716  74.292  14.462
14734DA     SC495745  56.974  74.279  14.571
14735DA     BB195746  57.250  73.931  15.153
14735DA     BB295747  56.912  73.789  15.146
14735DA     BB395748  56.902  73.628  15.006
14735DA     SC195749  56.818  73.809  14.767
14735DA     SC295750  56.615  73.847  14.627
14735DA     SC395751  56.777  73.950  14.457
14735DA     SC495752  56.934  73.868  14.674
14736DG     BB195753  56.824  73.475  15.261
14736DG     BB295754  56.508  73.445  15.088
14736DG     BB395755  56.517  73.295  14.957
14736DG     SC195756  56.617  73.471  14.727
14736DG     SC295757  56.467  73.536  14.478
14736DG     SC395758  56.747  73.629  14.459
14736DG     SC495759  56.775  73.492  14.709
14737DA     BB195760  56.227  73.229  15.124
14737DA     BB295761  56.048  73.249  14.804
14737DA     BB395762  56.095  73.081  14.682
14737DA     SC195763  56.336  73.221  14.542
14737DA     SC295764  56.391  73.310  14.316
14737DA     SC395765  56.636  73.292  14.391
14737DA     SC495766  56.481  73.201  14.607
14738DT     BB195767  55.946  73.011  14.665
14738DT     BB295768  55.893  73.094  14.318
14738DT     BB395769  55.967  72.943  14.197
14738DT     SC195770  56.214  73.018  14.241
14738DT     SC295771  56.297  73.102  14.061
14738DT     SC395772  56.465  73.010  14.323
14739DA     BB195773  55.581  73.087  14.093
14739DA     BB295774  55.783  73.053  13.789
14739DA     BB395775  55.828  72.847  13.753
14739DA     SC195776  56.094  72.853  13.915
14739DA     SC295777  56.339  72.840  13.868
14739DA     SC395778  56.362  72.775  14.115
14739DA     SC495779  56.088  72.813  14.070
14740DG     BB195780  55.683  72.924  13.489
14740DG     BB295781  55.996  72.819  13.341
14740DG     BB395782  56.009  72.621  13.345
14740DG     SC195783  56.145  72.611  13.619
14740DG     SC295784  56.424  72.522  13.674
14740DG     SC395785  56.275  72.561  13.926
14740DG     SC495786  56.053  72.604  13.750
14741DT     BB195787  56.010  72.475  13.158
14741DT     BB295788  56.348  72.349  13.154
14741DT     BB395789  56.353  72.156  13.228
14741DT     SC195790  56.321  72.241  13.474
14741DT     SC295791  56.503  72.208  13.585
14741DT     SC395792  56.213  72.278  13.712
14742DA     BB195793  56.523  72.052  12.849
14742DA     BB295794  56.731  71.886  13.101
14742DA     BB395795  56.636  71.707  13.169
14742DA     SC195796  56.485  71.846  13.402
14742DA     SC295797  56.493  71.849  13.651
14742DA     SC395798  56.253  71.940  13.638
14742DA     SC495799  56.336  71.900  13.373
14743DA     BB195800  56.888  71.475  13.086
14743DA     BB295801  56.930  71.401  13.442
14743DA     BB395802  56.796  71.245  13.502
14743DA     SC195803  56.566  71.439  13.581
14743DA     SC295804  56.454  71.515  13.790
14743DA     SC395805  56.261  71.586  13.636
14743DA     SC495806  56.457  71.474  13.469
14744DA     BB195807  57.046  71.042  13.616
14744DA     BB295808  56.910  71.083  13.954
14744DA     BB395809  56.757  70.939  13.990
14744DA     SC195810  56.527  71.122  13.888
14744DA     SC295811  56.332  71.245  13.984
14744DA     SC395812  56.239  71.244  13.745
14744DA     SC495813  56.485  71.109  13.733
14745DG     BB195814  56.934  70.824  14.224
14745DG     BB295815  56.669  70.960  14.430
14745DG     BB395816  56.524  70.825  14.452
14745DG     SC195817  56.368  70.915  14.204
14745DG     SC295818  56.099  71.043  14.204
14745DG     SC395819  56.183  70.974  13.929
14745DG     SC495820  56.404  70.850  14.062
14746DT     BB195821  56.478  70.757  14.650
14746DT     BB295822  56.175  70.942  14.715
14746DT     BB395823  56.011  70.817  14.697
14746DT     SC195824  56.029  70.817  14.435
14746DT     SC295825  55.863  70.926  14.352
14746DT     SC395826  56.063  70.729  14.189
14747DA     BB195827  56.009  71.047  15.048
14747DA     BB295828  55.684  71.081  14.883
14747DA     BB395829  55.575  70.898  14.894
14747DA     SC195830  55.686  70.787  14.626
14747DA     SC295831  55.600  70.738  14.397
14747DA     SC395832  55.805  70.584  14.375
14747DA     SC495833  55.818  70.695  14.633
14748DG     BB195834  55.400  71.115  15.022
14748DG     BB295835  55.184  71.028  14.745
14748DG     BB395836  55.099  70.852  14.779
14748DG     SC195837  55.322  70.691  14.645
14748DG     SC295838  55.298  70.532  14.393
14748DG     SC395839  55.558  70.482  14.525
14748DG     SC495840  55.447  70.644  14.734
14749DT     BB195841  54.901  70.863  14.783
14749DT     BB295842  54.804  70.701  14.475
14749DT     BB395843  54.760  70.502  14.511
14749DT     SC195844  55.015  70.442  14.536
14749DT     SC295845  55.077  70.322  14.368
14749DT     SC395846  55.242  70.362  14.644
14750DA     BB195847  54.444  70.674  14.294
14750DA     BB295848  54.529  70.354  14.137
14750DA     BB395849  54.469  70.192  14.262
14750DA     SC195850  54.740  70.176  14.414
14750DA     SC295851  54.934  70.021  14.429
14750DA     SC395852  54.985  70.138  14.651
14750DA     SC495853  54.754  70.261  14.550
14751DC     BB195854  54.318  70.067  14.201
14751DC     BB295855  54.522  69.779  14.127
14751DC     BB395856  54.501  69.637  14.277
14751DC     SC195857  54.649  69.778  14.442
14751DC     SC295858  54.836  69.676  14.474
14751DC     SC395859  54.719  69.920  14.652
14752DT     BB195860  54.341  69.463  14.125
14752DT     BB295861  54.616  69.255  14.232
14752DT     BB395862  54.570  69.165  14.414
14752DT     SC195863  54.609  69.391  14.543
14752DT     SC295864  54.786  69.374  14.664
14752DT     SC395865  54.559  69.604  14.690
14753DT     BB195866  54.518  68.902  14.314
14753DT     BB295867  54.775  68.850  14.562
14753DT     BB395868  54.689  68.807  14.745
14753DT     SC195869  54.620  69.058  14.779
14753DT     SC295870  54.737  69.144  14.938
14753DT     SC395871  54.468  69.272  14.811
14754DT     BB195872  54.750  68.531  14.744
14754DT     BB295873  54.905  68.654  15.046
14754DT     BB395874  54.774  68.636  15.205
14754DT     SC195875  54.631  68.840  15.121
14754DT     SC295876  54.657  69.005  15.255
14754DT     SC395877  54.427  68.978  15.029
14755DG     BB195878  55.105  68.422  15.307
14755DG     BB295879  55.025  68.669  15.558
14755DG     BB395880  54.878  68.603  15.675
14755DG     SC195881  54.654  68.718  15.501
14755DG     SC295882  54.469  68.939  15.578
14755DG     SC395883  54.384  68.814  15.323
14755DG     SC495884  54.596  68.630  15.381
14756DC     BB195885  54.923  68.584  15.877
14756DC     BB295886  54.753  68.870  16.015
14756DC     BB395887  54.575  68.811  16.102
14756DC     SC195888  54.462  68.779  15.867
14756DC     SC295889  54.312  68.931  15.838
14756DC     SC395890  54.346  68.661  15.662
14757DG     BB195891  54.815  69.021  16.354
14757DG     BB295892  54.482  69.161  16.335
14757DG     BB395893  54.354  69.045  16.435
14757DG     SC195894  54.286  68.870  16.194
14757DG     SC295895  54.022  68.856  16.056
14757DG     SC395896  54.204  68.645  15.956
14757DG     SC495897  54.376  68.740  16.164
14758DA     BB195898  54.280  69.360  16.553
14758DA     BB295899  53.932  69.308  16.451
14758DA     BB395900  53.841  69.157  16.572
14758DA     SC195901  53.919  68.923  16.383
14758DA     SC295902  53.805  68.765  16.228
14758DA     SC395903  54.015  68.620  16.253
14758DA     SC495904  54.057  68.847  16.413
14759DC     BB195905  53.706  69.228  16.671
14759DC     BB295906  53.429  69.073  16.499
14759DC     BB395907  53.370  68.902  16.601
14759DC     SC195908  53.579  68.769  16.515
14759DC     SC295909  53.515  68.619  16.375
14759DC     SC395910  53.805  68.634  16.518
14760DT     BB195911  53.148  69.032  16.683
14760DT     BB295912  53.022  68.731  16.529
14760DT     BB395913  53.023  68.575  16.666
14760DT     SC195914  53.284  68.551  16.647
14760DT     SC295915  53.331  68.366  16.548
14760DT     SC395916  53.539  68.550  16.716
14761DT     BB195917  52.743  68.572  16.717
14761DT     BB295918  52.814  68.229  16.629
14761DT     BB395919  52.859  68.120  16.799
14761DT     SC195920  53.096  68.230  16.816
14761DT     SC295921  53.247  68.083  16.771
14761DT     SC395922  53.298  68.371  16.911
14762DA     BB195923  52.539  67.884  16.653
14762DA     BB295924  52.812  67.652  16.731
14762DA     BB395925  52.820  67.615  16.941
14762DA     SC195926  53.018  67.848  16.999
14762DA     SC295927  53.256  67.875  17.069
14762DA     SC395928  53.186  68.112  17.140
14762DA     SC495929  52.955  67.990  17.039
14763DC     BB195930  52.769  67.410  17.065
14763DC     BB295931  53.111  67.320  17.134
14763DC     BB395932  53.148  67.333  17.337
14763DC     SC195933  53.153  67.595  17.328
14763DC     SC295934  53.354  67.664  17.362
14763DC     SC395935  53.086  67.846  17.373
14764DT     BB195936  53.151  67.047  17.407
14764DT     BB295937  53.473  67.163  17.520
14764DT     BB395938  53.465  67.212  17.721
14764DT     SC195939  53.334  67.433  17.669
14764DT     SC295940  53.461  67.602  17.709
14764DT     SC395941  53.140  67.612  17.666
14765DA     BB195942  53.782  66.938  17.707
14765DA     BB295943  53.905  67.236  17.881
14765DA     BB395944  53.836  67.238  18.083
14765DA     SC195945  53.576  67.397  18.018
14765DA     SC295946  53.484  67.624  18.062
14765DA     SC395947  53.255  67.519  18.012
14765DA     SC495948  53.443  67.312  17.986
14766DA     BB195949  54.154  67.266  18.148
14766DA     BB295950  54.077  67.596  18.289
14766DA     BB395951  53.996  67.575  18.486
14766DA     SC195952  53.701  67.560  18.389
14766DA     SC295953  53.496  67.702  18.399
14766DA     SC395954  53.368  67.485  18.352
14766DA     SC495955  53.639  67.414  18.361
14767DA     BB195956  54.239  67.783  18.527
14767DA     BB295957  53.984  68.024  18.631
14767DA     BB395958  53.913  67.978  18.827
14767DA     SC195959  53.682  67.795  18.727
14767DA     SC295960  53.433  67.801  18.718
14767DA     SC395961  53.449  67.546  18.692
14767DA     SC495962  53.713  67.638  18.714
14768DA     BB195963  53.997  68.290  18.816
14768DA     BB295964  53.646  68.357  18.901
14768DA     BB395965  53.606  68.297  19.101
14768DA     SC195966  53.519  68.009  19.023
14768DA     SC295967  53.309  67.875  19.017
14768DA     SC395968  53.464  67.670  19.015
14768DA     SC495969  53.632  67.894  19.024
14769DC     BB195970  53.563  68.442  19.162
14769DC     BB295971  53.210  68.375  19.198
14769DC     BB395972  53.173  68.292  19.384
14769DC     SC195973  53.273  68.061  19.311
14769DC     SC295974  53.115  67.916  19.297
14769DC     SC395975  53.432  67.851  19.303
14770DA     BB195976  52.910  68.597  19.251
14770DA     BB295977  52.715  68.323  19.397
14770DA     BB395978  52.756  68.306  19.606
14770DA     SC195979  52.989  68.104  19.568
14770DA     SC295980  53.033  67.863  19.614
14770DA     SC395981  53.281  67.926  19.598
14770DA     SC495982  53.137  68.163  19.556
14771DA     BB195983  52.427  68.307  19.565
14771DA     BB295984  52.431  67.996  19.759
14771DA     BB395985  52.498  68.034  19.958
14771DA     SC195986  52.798  67.983  19.894
14771DA     SC295987  52.971  67.811  19.945
14771DA     SC395988  53.141  67.993  19.883
14771DA     SC495989  52.887  68.109  19.852
14772DA     BB195990  52.214  67.874  20.028
14772DA     BB295991  52.416  67.642  20.227
14772DA     BB395992  52.488  67.738  20.403
14772DA     SC195993  52.752  67.837  20.272
14772DA     SC295994  52.996  67.788  20.289
14772DA     SC395995  53.029  68.019  20.182
14772DA     SC495996  52.752  67.984  20.206
14773DG     BB195997  52.329  67.536  20.600
14773DG     BB295998  52.658  67.447  20.718
14773DG     BB395999  52.715  67.571  20.863
14773DG     SC196000  52.845  67.773  20.673
14773DG     SC296001  53.137  67.835  20.656
14773DG     SC396002  52.979  68.024  20.493
14773DG     SC496003  52.756  67.890  20.611
14774DT     BB196004  52.757  67.534  21.119
14774DT     BB296005  53.118  67.545  21.125
14774DT     BB396006  53.182  67.715  21.223
14774DT     SC196007  53.119  67.866  21.018
14774DT     SC296008  53.299  67.941  20.926
14774DT     SC396009  52.999  68.052  20.874
14775DA     BB196010  53.381  67.416  21.442
14775DA     BB296011  53.633  67.665  21.347
14775DA     BB396012  53.621  67.835  21.475
14775DA     SC196013  53.420  67.988  21.294
14775DA     SC296014  53.420  68.189  21.147
14775DA     SC396015  53.165  68.184  21.174
14775DA     SC496016  53.263  67.968  21.324
14776DA     BB196017  53.938  67.769  21.519
14776DA     BB296018  54.008  68.096  21.370
14776DA     BB396019  53.973  68.252  21.512
14776DA     SC196020  53.676  68.292  21.430
14776DA     SC296021  53.537  68.465  21.316
14776DA     SC396022  53.337  68.351  21.430
14776DA     SC496023  53.564  68.208  21.511
14777DA     BB196024  54.275  68.312  21.406
14777DA     BB296025  54.144  68.634  21.290
14777DA     BB396026  54.106  68.763  21.455
14777DA     SC196027  53.812  68.670  21.491
14777DA     SC296028  53.583  68.765  21.459
14777DA     SC396029  53.506  68.580  21.619
14777DA     SC496030  53.784  68.550  21.594
14778DA     BB196031  54.290  68.942  21.253
14778DA     BB296032  54.011  69.180  21.248
14778DA     BB396033  53.995  69.278  21.437
14778DA     SC196034  53.798  69.069  21.556
14778DA     SC296035  53.558  69.058  21.623
14778DA     SC396036  53.628  68.855  21.765
14778DA     SC496037  53.862  68.946  21.639
14779DT     BB196038  54.031  69.466  21.433
14779DT     BB296039  53.693  69.583  21.484
14779DT     BB396040  53.667  69.638  21.682
14779DT     SC196041  53.657  69.387  21.758
14779DT     SC296042  53.457  69.338  21.821
14779DT     SC396043  53.723  69.161  21.878
14780DC     BB196044  53.672  69.915  21.634
14780DC     BB296045  53.364  69.869  21.816
14780DC     BB396046  53.399  69.886  22.020
14780DC     SC196047  53.512  69.649  22.028
14780DC     SC296048  53.385  69.513  22.136
14780DC     SC396049  53.696  69.463  22.060
14781DT     BB196050  53.297  70.161  22.081
14781DT     BB296051  53.118  69.957  22.318
14781DT     BB396052  53.218  69.956  22.500
14781DT     SC196053  53.403  69.795  22.406
14781DT     SC296054  53.384  69.602  22.500
14781DT     SC396055  53.639  69.706  22.330
14782DT     BB196056  53.052  70.140  22.665
14782DT     BB296057  53.055  69.836  22.859
14782DT     BB396058  53.204  69.845  23.002
14782DT     SC196059  53.390  69.805  22.822
14782DT     SC296060  53.477  69.610  22.850
14782DT     SC396061  53.601  69.848  22.669
14783DT     BB196062  53.037  69.888  23.232
14783DT     BB296063  53.216  69.585  23.311
14783DT     BB396064  53.387  69.630  23.419
14783DT     SC196065  53.508  69.720  23.204
14783DT     SC296066  53.666  69.585  23.149
14783DT     SC396067  53.626  69.886  23.036
14784DG     BB196068  53.174  69.382  23.662
14784DG     BB296069  53.508  69.256  23.608
14784DG     BB396070  53.636  69.349  23.727
14784DG     SC196071  53.696  69.574  23.528
14784DG     SC296072  53.957  69.622  23.391
14784DG     SC396073  53.770  69.846  23.342
14784DG     SC496074  53.604  69.705  23.528
14785DT     BB196075  53.752  69.238  23.881
14785DT     BB296076  54.077  69.224  23.724
14785DT     BB396077  54.205  69.359  23.815
14785DT     SC196078  54.087  69.562  23.698
14785DT     SC296079  54.221  69.647  23.552
14785DT     SC396080  53.951  69.786  23.666
14786DA     BB196081  54.394  68.985  23.806
14786DA     BB296082  54.627  69.234  23.672
14786DA     BB396083  54.704  69.356  23.830
14786DA     SC196084  54.480  69.570  23.805
14786DA     SC296085  54.459  69.807  23.730
14786DA     SC396086  54.243  69.810  23.868
14786DA     SC496087  54.350  69.553  23.897
14787DT     BB196088  54.900  69.342  23.871
14787DT     BB296089  54.995  69.656  23.720
14787DT     BB396090  55.033  69.796  23.867
14787DT     SC196091  54.776  69.826  23.915
14787DT     SC296092  54.713  70.020  23.849
14787DT     SC396093  54.546  69.823  24.044
14788DA     BB196094  55.359  69.786  23.605
14788DA     BB296095  55.254  70.135  23.643
14788DA     BB396096  55.310  70.208  23.835
14788DA     SC196097  55.043  70.126  23.972
14788DA     SC296098  54.842  70.239  24.067
14788DA     SC396099  54.803  70.018  24.192
14788DA     SC496100  55.036  69.981  24.041
14789DT     BB196101  55.437  70.348  23.828
14789DT     BB296102  55.207  70.616  23.904
14789DT     BB396103  55.228  70.673  24.101
14789DT     SC196104  55.103  70.458  24.185
14789DT     SC296105  54.912  70.513  24.266
14789DT     SC396106  55.059  70.227  24.305
14790DT     BB196107  55.320  70.885  23.985
14790DT     BB296108  55.038  70.993  24.182
14790DT     BB396109  55.094  71.014  24.380
14790DT     SC196110  55.097  70.754  24.414
14790DT     SC296111  54.934  70.696  24.543
14790DT     SC396112  55.188  70.511  24.463
14791DG     BB196113  54.904  71.330  24.204
14791DG     BB296114  54.750  71.231  24.516
14791DG     BB396115  54.868  71.279  24.668
14791DG     SC196116  55.019  71.013  24.667
14791DG     SC296117  55.010  70.805  24.881
14791DG     SC396118  55.218  70.741  24.681
14791DG     SC496119  55.149  70.997  24.574
14792DT     BB196120  54.768  71.392  24.778
14792DT     BB296121  54.712  71.193  25.074
14792DT     BB396122  54.866  71.222  25.209
14792DT     SC196123  55.030  71.076  25.066
14792DT     SC296124  55.072  70.893  25.170
14792DT     SC396125  55.237  71.009  24.917
14793DT     BB196126  54.688  71.355  25.354
14793DT     BB296127  54.824  71.109  25.580
14793DT     BB396128  55.002  71.178  25.661
14793DT     SC196129  55.130  71.134  25.436
14793DT     SC296130  55.267  70.970  25.463
14793DT     SC396131  55.267  71.180  25.216
14794DA     BB196132  54.776  71.078  26.002
14794DA     BB296133  55.111  70.938  26.050
14794DA     BB396134  55.249  71.092  26.101
14794DA     SC196135  55.329  71.150  25.806
14794DA     SC296136  55.529  71.120  25.659
14794DA     SC396137  55.422  71.300  25.511
14794DA     SC496138  55.248  71.265  25.728
14795DT     BB196139  55.354  71.125  26.306
14795DT     BB296140  55.682  71.013  26.204
14795DT     BB396141  55.813  71.174  26.200
14795DT     SC196142  55.706  71.265  25.978
14795DT     SC296143  55.847  71.241  25.816
14795DT     SC396144  55.580  71.425  25.811
14796DA     BB196145  56.015  70.908  26.455
14796DA     BB296146  56.257  71.016  26.201
14796DA     BB396147  56.330  71.211  26.247
14796DA     SC196148  56.111  71.359  26.084
14796DA     SC296149  56.095  71.494  25.875
14796DA     SC396150  55.875  71.583  25.972
14796DA     SC496151  55.977  71.404  26.162
14797DG     BB196152  56.612  71.079  26.265
14797DG     BB296153  56.679  71.285  25.976
14797DG     BB396154  56.736  71.467  26.033
14797DG     SC196155  56.452  71.581  26.040
14797DG     SC296156  56.344  71.791  25.858
14797DG     SC396157  56.153  71.732  26.077
14797DG     SC496158  56.366  71.568  26.174
14798DG     BB196159  57.005  71.411  25.861
14798DG     BB296160  56.901  71.690  25.655
14798DG     BB396161  56.955  71.861  25.741
14798DG     SC196162  56.695  71.891  25.900
14798DG     SC296163  56.488  72.103  25.859
14798DG     SC396164  56.432  71.946  26.104
14798DG     SC496165  56.685  71.825  26.045
14799DA     BB196166  57.075  71.912  25.423
14799DA     BB296167  56.871  72.216  25.399
14799DA     BB396168  56.951  72.369  25.524
14799DA     SC196169  56.781  72.289  25.772
14799DA     SC296170  56.590  72.382  25.903
14799DA     SC396171  56.668  72.225  26.090
14799DA     SC496172  56.846  72.186  25.877
14800DA     BB196173  56.920  72.519  25.234
14800DA     BB296174  56.708  72.764  25.407
14800DA     BB396175  56.826  72.885  25.537
14800DA     SC196176  56.791  72.698  25.784
14800DA     SC296177  56.674  72.704  26.004
14800DA     SC396178  56.838  72.518  26.072
14800DA     SC496179  56.902  72.585  25.807
14801DA     BB196180  56.686  73.138  25.372
14801DA     BB296181  56.561  73.261  25.694
14801DA     BB396182  56.719  73.350  25.806
14801DA     SC196183  56.798  73.087  25.951
14801DA     SC296184  56.787  72.992  26.182
14801DA     SC396185  56.970  72.830  26.103
14801DA     SC496186  56.913  72.996  25.884
14802DT     BB196187  56.737  73.566  25.850
14802DT     BB296188  56.659  73.550  26.202
14802DT     BB396189  56.830  73.582  26.313
14802DT     SC196190  56.921  73.342  26.259
14802DT     SC296191  56.915  73.221  26.437
14802DT     SC396192  57.075  73.150  26.165
14803DC     BB196193  56.779  73.853  26.397
14803DC     BB296194  56.836  73.681  26.709
14803DC     BB396195  57.036  73.694  26.762
14803DC     SC196196  57.104  73.517  26.579
14803DC     SC296197  57.166  73.336  26.676
14803DC     SC396198  57.216  73.413  26.365
14804DG     BB196199  56.864  73.884  27.084
14804DG     BB296200  57.083  73.618  27.195
14804DG     BB396201  57.271  73.682  27.200
14804DG     SC196202  57.332  73.602  26.911
14804DG     SC296203  57.522  73.388  26.825
14804DG     SC396204  57.426  73.544  26.592
14804DG     SC496205  57.302  73.706  26.793
14805DA     BB196206  57.306  73.582  27.535
14805DA     BB296207  57.570  73.346  27.440
14805DA     BB396208  57.757  73.448  27.419
14805DA     SC196209  57.717  73.507  27.116
14805DA     SC296210  57.816  73.433  26.899
14805DA     SC396211  57.717  73.650  26.803
14805DA     SC496212  57.649  73.647  27.075
14806DA     BB196213  57.858  73.222  27.634
14806DA     BB296214  58.086  73.103  27.372
14806DA     BB396215  58.255  73.232  27.357
14806DA     SC196216  58.125  73.416  27.142
14806DA     SC296217  58.155  73.467  26.900
14806DA     SC396218  58.027  73.684  26.951
14806DA     SC496219  58.045  73.546  27.194
14807DA     BB196220  58.412  72.947  27.397
14807DA     BB296221  58.556  73.002  27.064
14807DA     BB396222  58.710  73.149  27.074
14807DA     SC196223  58.520  73.388  27.018
14807DA     SC296224  58.477  73.551  26.833
14807DA     SC396225  58.366  73.695  27.014
14807DA     SC496226  58.456  73.464  27.144
14808DG     BB196227  58.884  72.915  26.968
14808DG     BB296228  58.912  73.130  26.678
14808DG     BB396229  59.053  73.267  26.709
14808DG     SC196230  58.861  73.471  26.832
14808DG     SC296231  58.785  73.734  26.713
14808DG     SC396232  58.684  73.710  26.990
14808DG     SC496233  58.835  73.467  26.990
14809DG     BB196234  59.202  73.153  26.441
14809DG     BB296235  59.144  73.480  26.299
14809DG     BB396236  59.285  73.606  26.360
14809DG     SC196237  59.132  73.695  26.610
14809DG     SC296238  59.020  73.968  26.660
14809DG     SC396239  59.001  73.800  26.903
14809DG     SC496240  59.151  73.613  26.746
14810DT     BB196241  59.417  73.699  26.215
14810DT     BB296242  59.284  74.035  26.203
14810DT     BB396243  59.406  74.163  26.310
14810DT     SC196244  59.318  74.069  26.539
14810DT     SC296245  59.199  74.219  26.636
14810DT     SC396246  59.316  73.950  26.774
14811DT     BB196247  59.483  74.270  26.076
14811DT     BB296248  59.346  74.546  26.264
14811DT     BB396249  59.492  74.627  26.387
14811DT     SC196250  59.476  74.424  26.553
14811DT     SC296251  59.388  74.490  26.738
14811DT     SC396252  59.545  74.211  26.691
14812DA     BB196253  59.315  74.935  26.167
14812DA     BB296254  59.321  75.037  26.519
14812DA     BB396255  59.520  75.087  26.578
14812DA     SC196256  59.591  74.799  26.672
14812DA     SC296257  59.634  74.680  26.887
14812DA     SC396258  59.750  74.503  26.743
14812DA     SC496259  59.659  74.700  26.565
14813DT     BB196260  59.553  75.276  26.625
14813DT     BB296261  59.578  75.229  26.982
14813DT     BB396262  59.776  75.238  27.041
14813DT     SC196263  59.824  74.999  26.943
14813DT     SC296264  59.858  74.861  27.105
14813DT     SC396265  59.926  74.808  26.792
14814DA     BB196266  59.560  75.502  27.282
14814DA     BB296267  59.769  75.296  27.501
14814DA     BB396268  59.974  75.356  27.487
14814DA     SC196269  60.041  75.157  27.256
14814DA     SC296270  60.175  74.950  27.225
14814DA     SC396271  60.168  75.007  26.975
14814DA     SC496272  60.026  75.211  27.106
14815DG     BB196273  59.937  75.409  27.789
14815DG     BB296274  60.185  75.148  27.819
14815DG     BB396275  60.367  75.223  27.792
14815DG     SC196276  60.367  75.178  27.489
14815DG     SC296277  60.542  74.988  27.340
14815DG     SC396278  60.393  75.162  27.153
14815DG     SC496279  60.308  75.292  27.393
14816DA     BB196280  60.440  75.064  28.088
14816DA     BB296281  60.704  74.872  27.920
14816DA     BB396282  60.874  74.995  27.884
14816DA     SC196283  60.778  75.087  27.602
14816DA     SC296284  60.844  75.051  27.365
14816DA     SC396285  60.711  75.266  27.317
14816DA     SC496286  60.692  75.222  27.594
14817DT     BB196287  61.030  74.943  27.981
14817DT     BB296288  61.217  74.809  27.702
14817DT     BB396289  61.359  74.946  27.641
14817DT     SC196290  61.177  75.096  27.526
14817DT     SC296291  61.200  75.087  27.313
14817DT     SC396292  61.024  75.305  27.475
14818DA     BB196293  61.544  74.574  27.695
14818DA     BB296294  61.657  74.710  27.374
14818DA     BB396295  61.791  74.874  27.406
14818DA     SC196296  61.566  75.089  27.405
14818DA     SC296297  61.490  75.275  27.257
14818DA     SC396298  61.371  75.365  27.466
14818DA     SC496299  61.501  75.129  27.546
14819DA     BB196300  61.986  74.696  27.207
14819DA     BB296301  61.996  74.986  26.983
14819DA     BB396302  62.121  75.138  27.065
14819DA     SC196303  61.890  75.280  27.218
14819DA     SC296304  61.763  75.494  27.204
14819DA     SC396305  61.701  75.450  27.449
14819DA     SC496306  61.864  75.235  27.371
14820DA     BB196307  62.298  75.135  26.779
14820DA     BB296308  62.219  75.490  26.735
14820DA     BB396309  62.344  75.610  26.860
14820DA     SC196310  62.148  75.608  27.101
14820DA     SC296311  62.000  75.769  27.220
14820DA     SC396312  62.010  75.603  27.416
14820DA     SC496313  62.168  75.493  27.212
14821DG     BB196314  62.502  75.774  26.619
14821DG     BB296315  62.349  76.069  26.761
14821DG     BB396316  62.469  76.150  26.897
14821DG     SC196317  62.356  75.987  27.130
14821DG     SC296318  62.202  76.097  27.362
14821DG     SC396319  62.270  75.812  27.405
14821DG     SC496320  62.420  75.844  27.163
14822DG     BB196321  62.527  76.463  26.756
14822DG     BB296322  62.357  76.604  27.043
14822DG     BB396323  62.488  76.645  27.186
14822DG     SC196324  62.468  76.370  27.318
14822DG     SC296325  62.355  76.313  27.589
14822DG     SC396326  62.485  76.072  27.476
14822DG     SC496327  62.564  76.252  27.268
14823DG     BB196328  62.432  76.981  27.203
14823DG     BB296329  62.304  76.921  27.536
14823DG     BB396330  62.452  76.936  27.669
14823DG     SC196331  62.530  76.641  27.654
14823DG     SC296332  62.500  76.440  27.873
14823DG     SC396333  62.655  76.328  27.647
14823DG     SC496334  62.637  76.594  27.544
14824DG     BB196335  62.294  77.180  27.828
14824DG     BB296336  62.266  76.947  28.104
14824DG     BB396337  62.429  76.957  28.218
14824DG     SC196338  62.581  76.743  28.062
14824DG     SC296339  62.659  76.473  28.164
14824DG     SC396340  62.784  76.526  27.902
14824DG     SC496341  62.670  76.786  27.936
14825DT     BB196342  62.402  77.014  28.419
14825DT     BB296343  62.434  76.694  28.584
14825DT     BB396344  62.621  76.677  28.669
14825DT     SC196345  62.733  76.638  28.435
14825DT     SC296346  62.801  76.434  28.421
14825DT     SC396347  62.885  76.676  28.223
14826DG     BB196348  62.318  76.615  28.934
14826DG     BB296349  62.553  76.340  28.928
14826DG     BB396350  62.722  76.393  29.019
14826DG     SC196351  62.854  76.502  28.766
14826DG     SC296352  63.093  76.386  28.629
14826DG     SC396353  63.021  76.649  28.512
14826DG     SC496354  62.831  76.655  28.726
14827DG     BB196355  62.644  76.127  29.183
14827DG     BB296356  62.958  75.997  29.060
14827DG     BB396357  63.110  76.079  29.159
14827DG     SC196358  63.140  76.315  28.967
14827DG     SC296359  63.373  76.367  28.788
14827DG     SC396360  63.188  76.598  28.789
14827DG     SC496361  63.054  76.448  28.993
14828DC     BB196362  63.218  75.943  29.251
14828DC     BB296363  63.522  75.939  29.056
14828DC     BB396364  63.662  76.066  29.141
14828DC     SC196365  63.535  76.278  29.054
14828DC     SC296366  63.651  76.373  28.900
14828DC     SC396367  63.400  76.505  29.056
14829DA     BB196368  63.836  75.690  29.067
14829DA     BB296369  64.064  75.950  28.943
14829DA     BB396370  64.151  76.056  29.107
14829DA     SC196371  63.927  76.273  29.116
14829DA     SC296372  63.904  76.516  29.065
14829DA     SC396373  63.696  76.506  29.216
14829DA     SC496374  63.803  76.247  29.214
14830DA     BB196375  64.428  75.971  28.949
14830DA     BB296376  64.498  76.330  28.920
14830DA     BB396377  64.557  76.409  29.109
14830DA     SC196378  64.268  76.485  29.196
14830DA     SC296379  64.135  76.692  29.233
14830DA     SC396380  63.980  76.543  29.374
14830DA     SC496381  64.185  76.376  29.281
14831DG     BB196382  64.832  76.486  28.976
14831DG     BB296383  64.725  76.824  29.047
14831DG     BB396384  64.771  76.872  29.234
14831DG     SC196385  64.508  76.771  29.352
14831DG     SC296386  64.295  76.939  29.477
14831DG     SC396387  64.239  76.652  29.517
14831DG     SC496388  64.496  76.618  29.397
14832DA     BB196389  64.936  77.160  29.121
14832DA     BB296390  64.708  77.371  29.315
14832DA     BB396391  64.765  77.373  29.521
14832DA     SC196392  64.587  77.130  29.598
14832DA     SC296393  64.380  77.088  29.731
14832DA     SC396394  64.460  76.844  29.739
14832DA     SC496395  64.654  76.984  29.593
14833DA     BB196396  64.764  77.699  29.476
14833DA     BB296397  64.499  77.715  29.729
14833DA     BB396398  64.582  77.694  29.925
14833DA     SC196399  64.551  77.384  29.930
14833DA     SC296400  64.412  77.214  30.048
14833DA     SC396401  64.596  77.048  29.981
14833DA     SC496402  64.676  77.296  29.879
14834DG     BB196403  64.459  77.975  29.969
14834DG     BB296404  64.253  77.798  30.207
14834DG     BB396405  64.351  77.777  30.379
14834DG     SC196406  64.478  77.509  30.301
14834DG     SC296407  64.420  77.245  30.427
14834DG     SC396408  64.650  77.225  30.242
14834DG     SC496409  64.618  77.510  30.224
14835DG     BB196410  64.104  77.935  30.524
14835DG     BB296411  64.050  77.630  30.712
14835DG     BB396412  64.176  77.623  30.866
14835DG     SC196413  64.397  77.479  30.710
14835DG     SC296414  64.493  77.200  30.758
14835DG     SC396415  64.668  77.340  30.564
14835DG     SC496416  64.505  77.566  30.630
14836DT     BB196417  64.100  77.620  31.072
14836DT     BB296418  64.157  77.277  31.168
14836DT     BB396419  64.324  77.265  31.289
14836DT     SC196420  64.485  77.299  31.085
14836DT     SC296421  64.590  77.116  31.045
14836DT     SC396422  64.666  77.408  30.927
14837DT     BB196423  64.172  77.220  31.515
14837DT     BB296424  64.398  76.939  31.504
14837DT     BB396425  64.574  76.985  31.603
14837DT     SC196426  64.654  77.137  31.405
14837DT     SC296427  64.821  77.044  31.306
14837DT     SC396428  64.728  77.352  31.271
14838DA     BB196429  64.451  76.631  31.793
14838DA     BB296430  64.804  76.589  31.702
14838DA     BB396431  64.928  76.697  31.837
14838DA     SC196432  64.928  76.957  31.666
14838DA     SC296433  65.089  77.087  31.527
14838DA     SC396434  64.927  77.284  31.560
14838DA     SC496435  64.816  77.068  31.699
14839DT     BB196436  65.071  76.605  31.987
14839DT     BB296437  65.372  76.678  31.801
14839DT     BB396438  65.482  76.823  31.900
14839DT     SC196439  65.316  77.012  31.825
14839DT     SC296440  65.413  77.140  31.682
14839DT     SC396441  65.137  77.205  31.841
14840DA     BB196442  65.750  76.507  31.841
14840DA     BB296443  65.909  76.811  31.712
14840DA     BB396444  65.981  76.931  31.873
14840DA     SC196445  65.718  77.094  31.902
14840DA     SC296446  65.640  77.328  31.860
14840DA     SC396447  65.449  77.271  32.022
14840DA     SC496448  65.608  77.041  32.006
14841DA     BB196449  66.246  76.901  31.690
14841DA     BB296450  66.228  77.264  31.645
14841DA     BB396451  66.296  77.364  31.821
14841DA     SC196452  66.013  77.379  31.950
14841DA     SC296453  65.844  77.553  32.004
14841DA     SC396454  65.749  77.382  32.170
14841DA     SC496455  65.970  77.259  32.049
14842DG     BB196456  66.476  77.462  31.596
14842DG     BB296457  66.311  77.775  31.672
14842DG     BB396458  66.387  77.853  31.839
14842DG     SC196459  66.188  77.711  32.024
14842DG     SC296460  65.976  77.843  32.188
14842DG     SC396461  66.000  77.556  32.258
14842DG     SC496462  66.224  77.565  32.079
14843DC     BB196463  66.463  78.031  31.806
14843DC     BB296464  66.222  78.248  31.963
14843DC     BB396465  66.283  78.296  32.155
14843DC     SC196466  66.219  78.057  32.243
14843DC     SC296467  66.048  78.073  32.373
14843DC     SC396468  66.243  77.816  32.346
14844DA     BB196469  66.171  78.639  31.938
14844DA     BB296470  66.013  78.652  32.269
14844DA     BB396471  66.159  78.685  32.420
14844DA     SC196472  66.212  78.383  32.471
14844DA     SC296473  66.170  78.216  32.651
14844DA     SC396474  66.356  78.079  32.539
14844DA     SC496475  66.331  78.314  32.388
14845DT     BB196476  66.144  78.854  32.513
14845DT     BB296477  66.022  78.726  32.826
14845DT     BB396478  66.175  78.719  32.965
14845DT     SC196479  66.281  78.509  32.849
14845DT     SC296480  66.258  78.337  32.976
14845DT     SC396481  66.455  78.357  32.720
14846DT     BB196482  66.063  78.927  33.095
14846DT     BB296483  66.091  78.668  33.345
14846DT     BB396484  66.278  78.674  33.432
14846DT     SC196485  66.389  78.567  33.220
14846DT     SC296486  66.455  78.368  33.266
14846DT     SC396487  66.542  78.541  33.006
14847DC     BB196488  66.169  78.773  33.660
14847DC     BB296489  66.343  78.475  33.765
14847DC     BB396490  66.541  78.519  33.807
14847DC     SC196491  66.598  78.538  33.551
14847DC     SC296492  66.724  78.373  33.494
14847DC     SC396493  66.673  78.641  33.321
14848DT     BB196494  66.488  78.487  34.069
14848DT     BB296495  66.757  78.256  34.001
14848DT     BB396496  66.939  78.352  34.018
14848DT     SC196497  66.904  78.476  33.789
14848DT     SC296498  67.042  78.397  33.644
14848DT     SC396499  66.870  78.671  33.615
14849DT     BB196500  66.978  78.212  34.241
14849DT     BB296501  67.262  78.134  34.032
14849DT     BB396502  67.407  78.279  34.054
14849DT     SC196503  67.270  78.450  33.911
14849DT     SC296504  67.370  78.483  33.723
14849DT     SC396505  67.132  78.666  33.846
14850DA     BB196506  67.586  77.903  34.106
14850DA     BB296507  67.797  78.097  33.878
14850DA     BB396508  67.898  78.252  33.984
14850DA     SC196509  67.675  78.463  33.939
14850DA     SC296510  67.643  78.674  33.809
14850DA     SC396511  67.452  78.723  33.973
14850DA     SC496512  67.561  78.476  34.052
14851DT     BB196513  68.099  78.241  34.001
14851DT     BB296514  68.183  78.509  33.775
14851DT     BB396515  68.238  78.678  33.883
14851DT     SC196516  67.988  78.727  33.948
14851DT     SC296517  67.922  78.904  33.847
14851DT     SC396518  67.773  78.761  34.097
14852DA     BB196519  68.557  78.615  33.615
14852DA     BB296520  68.467  78.970  33.598
14852DA     BB396521  68.534  79.072  33.773
14852DA     SC196522  68.270  79.025  33.931
14852DA     SC296523  68.078  79.160  34.015
14852DA     SC396524  68.037  78.965  34.176
14852DA     SC496525  68.262  78.894  34.025
14853DC     BB196526  68.697  79.225  33.778
14853DC     BB296527  68.483  79.513  33.823
14853DC     BB396528  68.505  79.588  34.015
14853DC     SC196529  68.366  79.390  34.117
14853DC     SC296530  68.177  79.465  34.188
14853DC     SC396531  68.305  79.176  34.259
14854DA     BB196532  68.584  79.926  33.778
14854DA     BB296533  68.335  80.025  34.029
14854DA     BB396534  68.429  80.055  34.218
14854DA     SC196535  68.389  79.761  34.311
14854DA     SC296536  68.252  79.638  34.480
14854DA     SC396537  68.426  79.450  34.453
14854DA     SC496538  68.508  79.657  34.282
14855DG     BB196539  68.336  80.356  34.209
14855DG     BB296540  68.130  80.256  34.489
14855DG     BB396541  68.233  80.273  34.658
14855DG     SC196542  68.345  79.988  34.647
14855DG     SC296543  68.280  79.767  34.837
14855DG     SC396544  68.502  79.690  34.657
14855DG     SC496545  68.482  79.962  34.570
14856DT     BB196546  68.172  80.415  34.826
14856DT     BB296547  68.028  80.181  35.060
14856DT     BB396548  68.155  80.153  35.220
14856DT     SC196549  68.317  80.006  35.076
14856DT     SC296550  68.307  79.802  35.144
14856DT     SC396551  68.535  79.927  34.950
14857DT     BB196552  67.978  80.288  35.368
14857DT     BB296553  68.006  79.964  35.525
14857DT     BB396554  68.166  79.963  35.656
14857DT     SC196555  68.338  79.951  35.457
14857DT     SC296556  68.432  79.757  35.456
14857DT     SC396557  68.533  80.019  35.294
14858DA     BB196558  67.815  79.812  35.829
14858DA     BB296559  68.088  79.575  35.891
14858DA     BB396560  68.228  79.658  36.030
14858DA     SC196561  68.406  79.788  35.810
14858DA     SC296562  68.633  79.754  35.714
14858DA     SC396563  68.612  79.996  35.631
14858DA     SC496564  68.374  79.940  35.769
14859DT     BB196565  68.225  79.555  36.171
14859DT     BB296566  68.546  79.399  36.120
14859DT     BB396567  68.691  79.499  36.228
14859DT     SC196568  68.691  79.698  36.057
14859DT     SC296569  68.877  79.699  35.948
14859DT     SC396570  68.663  79.942  35.960
14860DT     BB196571  68.689  79.278  36.365
14860DT     BB296572  69.030  79.321  36.257
14860DT     BB396573  69.126  79.457  36.379
14860DT     SC196574  69.000  79.658  36.266
14860DT     SC296575  69.139  79.774  36.151
14860DT     SC396576  68.841  79.867  36.238
14861DG     BB196577  69.335  79.107  36.377
14861DG     BB296578  69.549  79.390  36.309
14861DG     BB396579  69.584  79.490  36.477
14861DG     SC196580  69.342  79.675  36.445
14861DG     SC296581  69.351  79.970  36.395
14861DG     SC396582  69.075  79.881  36.452
14861DG     SC496583  69.201  79.629  36.505
14862DA     BB196584  69.925  79.466  36.404
14862DA     BB296585  69.954  79.831  36.410
14862DA     BB396586  69.950  79.903  36.611
14862DA     SC196587  69.641  79.939  36.617
14862DA     SC296588  69.477  80.128  36.624
14862DA     SC396589  69.310  79.953  36.710
14862DA     SC496590  69.552  79.816  36.671
14863DG     BB196591  70.241  80.021  36.571
14863DG     BB296592  70.077  80.338  36.624
14863DG     BB396593  70.063  80.376  36.819
14863DG     SC196594  69.792  80.238  36.852
14863DG     SC296595  69.534  80.372  36.919
14863DG     SC396596  69.505  80.078  36.928
14863DG     SC496597  69.788  80.081  36.885
14864DA     BB196598  70.218  80.690  36.782
14864DA     BB296599  69.919  80.859  36.910
14864DA     BB396600  69.915  80.850  37.123
14864DA     SC196601  69.754  80.584  37.133
14864DA     SC296602  69.526  80.508  37.198
14864DA     SC396603  69.630  80.275  37.217
14864DA     SC496604  69.838  80.447  37.141
14865DA     BB196605  69.889  81.178  37.106
14865DA     BB296606  69.561  81.144  37.268
14865DA     BB396607  69.585  81.114  37.478
14865DA     SC196608  69.594  80.804  37.457
14865DA     SC296609  69.449  80.610  37.519
14865DA     SC396610  69.664  80.470  37.502
14865DA     SC496611  69.738  80.734  37.442
14866DG     BB196612  69.420  81.376  37.497
14866DG     BB296613  69.175  81.157  37.648
14866DG     BB396614  69.218  81.130  37.840
14866DG     SC196615  69.396  80.886  37.793
14866DG     SC296616  69.337  80.607  37.880
14866DG     SC396617  69.614  80.629  37.776
14866DG     SC496618  69.552  80.909  37.765
14867DA     BB196619  68.888  81.219  37.886
14867DA     BB296620  68.825  80.895  38.046
14867DA     BB396621  68.907  80.893  38.243
14867DA     SC196622  69.183  80.781  38.154
14867DA     SC296623  69.312  80.569  38.177
14867DA     SC396624  69.518  80.713  38.121
14867DA     SC496625  69.299  80.888  38.119
14868DT     BB196626  68.776  80.878  38.376
14868DT     BB296627  68.842  80.536  38.468
14868DT     BB396628  68.957  80.530  38.640
14868DT     SC196629  69.172  80.603  38.509
14868DT     SC296630  69.310  80.437  38.501
14868DT     SC396631  69.380  80.746  38.433
14869DT     BB196632  68.739  80.441  38.767
14869DT     BB296633  68.991  80.191  38.831
14869DT     BB396634  69.108  80.247  38.992
14869DT     SC196635  69.234  80.427  38.849
14869DT     SC296636  69.437  80.365  38.818
14869DT     SC396637  69.320  80.662  38.765
14870DA     BB196638  68.976  79.857  39.074
14870DA     BB296639  69.337  79.868  39.138
14870DA     BB396640  69.376  79.976  39.318
14870DA     SC196641  69.405  80.251  39.176
14870DA     SC296642  69.586  80.414  39.124
14870DA     SC396643  69.397  80.585  39.095
14870DA     SC496644  69.273  80.343  39.164
14871DT     BB196645  69.455  79.883  39.499
14871DT     BB296646  69.789  80.016  39.476
14871DT     BB396647  69.818  80.160  39.621
14871DT     SC196648  69.673  80.334  39.488
14871DT     SC296649  69.800  80.490  39.412
14871DT     SC396650  69.476  80.500  39.430
14872DT     BB196651  69.981  80.001  39.787
14872DT     BB296652  70.184  80.292  39.723
14872DT     BB396653  70.151  80.435  39.869
14872DT     SC196654  69.918  80.498  39.766
14872DT     SC296655  69.928  80.695  39.680
14872DT     SC396656  69.657  80.529  39.743
14873DT     BB196657  70.397  80.395  40.003
14873DT     BB296658  70.399  80.747  39.923
14873DT     BB396659  70.317  80.856  40.079
14873DT     SC196660  70.074  80.779  40.015
14873DT     SC296661  69.965  80.947  39.938
14873DT     SC396662  69.838  80.665  40.033
14874DA     BB196663  70.691  81.037  40.020
14874DA     BB296664  70.441  81.305  40.029
14874DA     BB396665  70.380  81.343  40.230
14874DA     SC196666  70.145  81.140  40.223
14874DA     SC296667  69.896  81.146  40.223
14874DA     SC396668  69.910  80.903  40.302
14874DA     SC496669  70.175  80.990  40.273
14875DT     BB196670  70.426  81.532  40.341
14875DT     BB296671  70.093  81.671  40.320
14875DT     BB396672  70.005  81.670  40.507
14875DT     SC196673  69.965  81.411  40.496
14875DT     SC296674  69.754  81.373  40.478
14875DT     SC396675  69.981  81.155  40.556
14876DC     BB196676  70.029  81.949  40.548
14876DC     BB296677  69.675  81.886  40.580
14876DC     BB396678  69.628  81.848  40.778
14876DC     SC196679  69.733  81.608  40.766
14876DC     SC296680  69.576  81.461  40.777
14876DC     SC396681  69.893  81.404  40.815
14877DT     BB196682  69.503  82.095  40.814
14877DT     BB296683  69.248  81.853  40.894
14877DT     BB396684  69.253  81.809  41.096
14877DT     SC196685  69.469  81.663  41.065
14877DT     SC296686  69.420  81.456  41.096
14877DT     SC396687  69.719  81.581  41.089
14878DA     BB196688  68.862  81.912  40.994
14878DA     BB296689  68.852  81.592  41.171
14878DA     BB396690  68.884  81.622  41.380
14878DA     SC196691  69.193  81.587  41.361
14878DA     SC296692  69.365  81.421  41.432
14878DA     SC396693  69.533  81.613  41.405
14878DA     SC496694  69.281  81.720  41.340
14879DT     BB196695  68.736  81.573  41.477
14879DT     BB296696  68.869  81.263  41.604
14879DT     BB396697  68.932  81.288  41.799
14879DT     SC196698  69.146  81.420  41.722
14879DT     SC296699  69.321  81.300  41.758
14879DT     SC396700  69.318  81.617  41.690
14880DA     BB196701  68.702  80.946  41.715
14880DA     BB296702  68.998  80.848  41.908
14880DA     BB396703  68.987  80.927  42.106
14880DA     SC196704  69.136  81.190  42.035
14880DA     SC296705  69.356  81.297  42.083
14880DA     SC396706  69.242  81.517  42.017
14880DA     SC496707  69.047  81.317  41.991
14881DT     BB196708  68.989  80.786  42.183
14881DT     BB296709  69.316  80.816  42.333
14881DT     BB396710  69.302  80.918  42.512
14881DT     SC196711  69.269  81.147  42.389
14881DT     SC296712  69.444  81.269  42.418
14881DT     SC396713  69.156  81.371  42.308
14882DC     BB196714  69.370  80.680  42.581
14882DC     BB296715  69.614  80.903  42.728
14882DC     BB396716  69.531  81.002  42.889
14882DC     SC196717  69.391  81.158  42.731
14882DC     SC296718  69.469  81.359  42.742
14882DC     SC396719  69.183  81.272  42.615
14883DT     BB196720  69.682  80.850  43.050
14883DT     BB296721  69.756  81.189  43.150
14883DT     BB396722  69.613  81.255  43.284
14883DT     SC196723  69.436  81.284  43.093
14883DT     SC296724  69.398  81.494  43.062
14883DT     SC396725  69.217  81.249  42.950
14884DA     BB196726  69.971  81.323  43.496
14884DA     BB296727  69.770  81.629  43.522
14884DA     BB396728  69.611  81.602  43.662
14884DA     SC196729  69.408  81.501  43.449
14884DA     SC296730  69.200  81.583  43.339
14884DA     SC396731  69.157  81.337  43.283
14884DA     SC496732  69.399  81.343  43.425
14885DA     BB196733  69.725  81.870  43.827
14885DA     BB296734  69.405  82.034  43.753
14885DA     BB396735  69.255  81.969  43.891
14885DA     SC196736  69.161  81.732  43.713
14885DA     SC296737  68.960  81.671  43.578
14885DA     SC396738  69.045  81.430  43.598
14885DA     SC496739  69.229  81.588  43.738
14886DC     BB196740  69.172  82.103  44.029
14886DC     BB296741  68.858  82.145  43.856
14886DC     BB396742  68.707  82.048  43.959
14886DC     SC196743  68.792  81.813  43.877
14886DC     SC296744  68.650  81.730  43.738
14886DC     SC396745  68.890  81.568  43.884
14887DA     BB196746  68.595  82.441  43.871
14887DA     BB296747  68.325  82.218  43.765
14887DA     BB396748  68.223  82.138  43.935
14887DA     SC196749  68.406  81.887  43.956
14887DA     SC296750  68.387  81.641  43.920
14887DA     SC396751  68.595  81.623  44.068
14887DA     SC496752  68.535  81.896  44.052
14888DT     BB196753  68.058  82.195  43.929
14888DT     BB296754  67.903  81.883  43.836
14888DT     BB396755  67.833  81.786  44.005
14888DT     SC196756  68.077  81.716  44.074
14888DT     SC296757  68.100  81.503  44.051
14888DT     SC396758  68.300  81.699  44.214
14889DA     BB196759  67.542  81.801  43.700
14889DA     BB296760  67.553  81.460  43.835
14889DA     BB396761  67.479  81.457  44.036
14889DA     SC196762  67.758  81.505  44.165
14889DA     SC296763  67.922  81.377  44.302
14889DA     SC396764  68.016  81.606  44.367
14889DA     SC496765  67.801  81.657  44.195
14890DC     BB196766  67.314  81.361  44.063
14890DC     BB296767  67.447  81.081  44.248
14890DC     BB396768  67.413  81.108  44.450
14890DC     SC196769  67.604  81.288  44.465
14890DC     SC296770  67.769  81.208  44.578
14890DC     SC396771  67.723  81.520  44.503
14891DA     BB196772  67.233  80.729  44.392
14891DA     BB296773  67.442  80.702  44.693
14891DA     BB396774  67.346  80.797  44.858
14891DA     SC196775  67.477  81.074  44.807
14891DA     SC296776  67.647  81.221  44.916
14891DA     SC396777  67.540  81.411  44.780
14891DA     SC496778  67.396  81.179  44.716
14892DG     BB196779  67.312  80.526  45.043
14892DG     BB296780  67.536  80.695  45.271
14892DG     BB396781  67.432  80.802  45.403
14892DG     SC196782  67.428  81.055  45.231
14892DG     SC296783  67.564  81.312  45.295
14892DG     SC396784  67.387  81.343  45.061
14892DG     SC496785  67.309  81.075  45.125
14893DA     BB196786  67.579  80.652  45.691
14893DA     BB296787  67.716  80.975  45.799
14893DA     BB396788  67.568  81.086  45.905
14893DA     SC196789  67.459  81.230  45.652
14893DA     SC296790  67.458  81.461  45.556
14893DA     SC396791  67.259  81.380  45.416
14893DA     SC496792  67.335  81.162  45.575
14894DA     BB196793  67.789  81.103  46.152
14894DA     BB296794  67.789  81.467  46.108
14894DA     BB396795  67.619  81.554  46.203
14894DA     SC196796  67.437  81.535  45.952
14894DA     SC296797  67.332  81.691  45.788
14894DA     SC396798  67.172  81.497  45.736
14894DA     SC496799  67.346  81.403  45.935
14895DT     BB196800  67.639  81.680  46.373
14895DT     BB296801  67.571  81.990  46.201
14895DT     BB396802  67.384  82.061  46.255
14895DT     SC196803  67.264  81.880  46.107
14895DT     SC296804  67.171  81.976  45.938
14895DT     SC396805  67.115  81.673  46.040
14896DT     BB196806  67.484  82.267  46.416
14896DT     BB296807  67.273  82.438  46.178
14896DT     BB396808  67.080  82.452  46.252
14896DT     SC196809  67.035  82.198  46.204
14896DT     SC296810  66.893  82.180  46.043
14896DT     SC396811  66.981  81.943  46.246
14897DG     BB196812  67.183  82.847  46.204
14897DG     BB296813  66.871  82.774  46.036
14897DG     BB396814  66.721  82.779  46.167
14897DG     SC196815  66.743  82.482  46.239
14897DG     SC296816  66.540  82.271  46.179
14897DG     SC396817  66.752  82.166  46.357
14897DG     SC496818  66.841  82.438  46.358
14898DT     BB196819  66.520  82.939  46.183
14898DT     BB296820  66.264  82.723  46.047
14898DT     BB396821  66.129  82.672  46.195
14898DT     SC196822  66.300  82.506  46.305
14898DT     SC296823  66.231  82.304  46.275
14898DT     SC396824  66.463  82.398  46.482
14899DC     BB196825  65.904  82.840  46.113
14899DC     BB296826  65.775  82.504  46.100
14899DC     BB396827  65.677  82.459  46.277
14899DC     SC196828  65.905  82.433  46.405
14899DC     SC296829  65.935  82.226  46.455
14899DC     SC396830  66.098  82.477  46.579
14900DG     BB196831  65.424  82.417  45.966
14900DG     BB296832  65.474  82.107  46.148
14900DG     BB396833  65.361  82.106  46.311
14900DG     SC196834  65.573  82.236  46.489
14900DG     SC296835  65.714  82.105  46.717
14900DG     SC396836  65.775  82.394  46.708
14900DG     SC496837  65.580  82.395  46.498
14901DA     BB196838  65.384  81.839  46.111
14901DA     BB296839  65.515  81.662  46.404
14901DA     BB396840  65.368  81.656  46.559
14901DA     SC196841  65.461  81.921  46.692
14901DA     SC296842  65.574  81.992  46.903
14901DA     SC396843  65.475  82.223  46.854
14901DA     SC496844  65.389  82.057  46.645
14902DT     BB196845  65.456  81.537  46.508
14902DT     BB296846  65.612  81.487  46.830
14902DT     BB396847  65.467  81.471  46.977
14902DT     SC196848  65.420  81.728  46.970
14902DT     SC296849  65.489  81.819  47.153
14902DT     SC396850  65.291  81.956  46.937
14903DT     BB196851  65.638  81.282  46.938
14903DT     BB296852  65.647  81.374  47.287
14903DT     BB396853  65.464  81.336  47.375
14903DT     SC196854  65.357  81.546  47.258
14903DT     SC296855  65.314  81.696  47.406
14903DT     SC396856  65.200  81.690  47.103
14904DT     BB196857  65.610  81.157  47.491
14904DT     BB296858  65.442  81.332  47.757
14904DT     BB396859  65.247  81.266  47.773
14904DT     SC196860  65.176  81.399  47.558
14904DT     SC296861  65.048  81.562  47.614
14904DT     SC396862  65.090  81.447  47.313
14905DT     BB196863  65.298  81.118  48.003
14905DT     BB296864  65.011  81.316  48.095
14905DT     BB396865  64.837  81.216  48.046
14905DT     SC196866  64.869  81.269  47.791
14905DT     SC296867  64.719  81.409  47.728
14905DT     SC396868  64.908  81.232  47.533
14906DT     BB196869  64.756  81.119  48.311
14906DT     BB296870  64.458  81.286  48.195
14906DT     BB396871  64.330  81.150  48.106
14906DT     SC196872  64.481  81.136  47.892
14906DT     SC296873  64.379  81.229  47.727
14906DT     SC396874  64.640  81.038  47.706
14907DA     BB196875  64.062  81.299  48.398
14907DA     BB296876  63.880  81.307  48.080
14907DA     BB396877  63.803  81.113  48.034
14907DA     SC196878  64.055  81.024  47.874
14907DA     SC296879  64.115  80.976  47.637
14907DA     SC396880  64.313  80.844  47.735
14907DA     SC496881  64.170  80.946  47.955
14908DA     BB196882  63.496  81.245  48.012
14908DA     BB296883  63.491  81.147  47.658
14908DA     BB396884  63.433  80.943  47.638
14908DA     SC196885  63.724  80.833  47.652
14908DA     SC296886  63.888  80.726  47.498
14908DA     SC396887  64.004  80.645  47.711
14908DA     SC496888  63.781  80.791  47.796
14909DA     BB196889  63.201  81.059  47.437
14909DA     BB296890  63.355  80.864  47.168
14909DA     BB396891  63.294  80.660  47.180
14909DA     SC196892  63.532  80.575  47.362
14909DA     SC296893  63.738  80.436  47.343
14909DA     SC396894  63.731  80.426  47.600
14909DA     SC496895  63.509  80.579  47.521
14910DT     BB196896  63.180  80.587  47.031
14910DT     BB296897  63.437  80.389  46.872
14910DT     BB396898  63.405  80.188  46.911
14910DT     SC196899  63.490  80.214  47.158
14910DT     SC296900  63.679  80.112  47.180
14910DT     SC396901  63.489  80.215  47.422
14911DT     BB196902  63.332  80.157  46.652
14911DT     BB296903  63.599  79.918  46.698
14911DT     BB396904  63.523  79.740  46.769
14911DT     SC196905  63.488  79.841  47.009
14911DT     SC296906  63.628  79.751  47.145
14911DT     SC396907  63.368  79.925  47.228
14912DA     BB196908  63.768  79.661  46.438
14912DA     BB296909  63.857  79.425  46.703
14912DA     BB396910  63.702  79.280  46.729
14912DA     SC196911  63.549  79.445  46.944
14912DA     SC296912  63.502  79.431  47.188
14912DA     SC396913  63.308  79.591  47.139
14912DA     SC496914  63.433  79.543  46.893
14913DT     BB196915  63.739  79.085  46.680
14913DT     BB296916  63.750  78.951  47.015
14913DT     BB396917  63.576  78.847  47.055
14913DT     SC196918  63.439  79.069  47.082
14913DT     SC296919  63.384  79.095  47.288
14913DT     SC396920  63.260  79.256  47.036
14914DT     BB196921  63.698  78.596  47.036
14914DT     BB296922  63.542  78.588  47.361
14914DT     BB396923  63.349  78.515  47.344
14914DT     SC196924  63.263  78.740  47.240
14914DT     SC296925  63.135  78.839  47.380
14914DT     SC396926  63.162  78.909  47.065
14915DA     BB196927  63.514  78.258  47.635
14915DA     BB296928  63.190  78.371  47.765
14915DA     BB396929  63.031  78.265  47.670
14915DA     SC196930  62.998  78.473  47.440
14915DA     SC296931  62.830  78.643  47.368
14915DA     SC396932  62.943  78.627  47.139
14915DA     SC496933  63.080  78.448  47.305
14916DA     BB196934  62.921  78.169  47.971
14916DA     BB296935  62.609  78.350  47.904
14916DA     BB396936  62.479  78.231  47.783
14916DA     SC196937  62.587  78.341  47.514
14916DA     SC296938  62.507  78.487  47.328
14916DA     SC396939  62.692  78.377  47.189
14916DA     SC496940  62.707  78.261  47.443
14917DT     BB196941  62.281  78.140  47.852
14917DT     BB296942  62.068  78.371  47.675
14917DT     BB396943  61.970  78.273  47.521
14917DT     SC196944  62.188  78.267  47.376
14917DT     SC296945  62.166  78.398  47.207
14917DT     SC396946  62.394  78.171  47.242
14918DG     BB196947  61.660  78.411  47.751
14918DG     BB296948  61.619  78.513  47.406
14918DG     BB396949  61.537  78.366  47.301
14918DG     SC196950  61.806  78.240  47.224
14918DG     SC296951  61.921  78.227  46.948
14918DG     SC396952  62.080  78.065  47.137
14918DG     SC496953  61.871  78.131  47.321
14919DT     BB196954  61.324  78.373  47.195
14919DT     BB296955  61.422  78.415  46.850
14919DT     BB396956  61.386  78.241  46.744
14919DT     SC196957  61.593  78.123  46.854
14919DT     SC296958  61.746  78.094  46.705
14919DT     SC396959  61.735  77.951  46.996
14920DT     BB196960  61.169  78.351  46.611
14920DT     BB296961  61.391  78.245  46.347
14920DT     BB396962  61.349  78.050  46.293
14920DT     SC196963  61.463  77.957  46.510
14920DT     SC296964  61.644  77.854  46.458
14920DT     SC396965  61.492  77.836  46.743
14921DT     BB196966  61.233  78.127  46.054
14921DT     BB296967  61.494  77.900  45.954
14921DT     BB396968  61.421  77.707  45.948
14921DT     SC196969  61.421  77.690  46.210
14921DT     SC296970  61.573  77.552  46.273
14921DT     SC396971  61.331  77.665  46.457
14922DT     BB196972  61.442  77.722  45.682
14922DT     BB296973  61.646  77.440  45.776
14922DT     BB396974  61.528  77.271  45.795
14922DT     SC196975  61.430  77.355  46.023
14922DT     SC296976  61.505  77.231  46.183
14922DT     SC396977  61.256  77.438  46.203
14923DA     BB196978  61.857  77.186  45.548
14923DA     BB296979  61.833  76.922  45.801
14923DA     BB396980  61.664  76.797  45.762
14923DA     SC196981  61.468  76.965  45.936
14923DA     SC296982  61.345  76.941  46.151
14923DA     SC396983  61.193  77.128  46.062
14923DA     SC496984  61.385  77.081  45.862
14924DG     BB196985  61.888  76.585  45.748
14924DG     BB296986  61.715  76.452  46.037
14924DG     BB396987  61.555  76.349  45.979
14924DG     SC196988  61.367  76.591  45.985
14924DG     SC296989  61.138  76.629  46.174
14924DG     SC396990  61.137  76.837  45.963
14924DG     SC496991  61.353  76.682  45.855
14925DT     BB196992  61.544  76.140  46.024
14925DT     BB296993  61.300  76.135  46.289
14925DT     BB396994  61.116  76.074  46.215
14925DT     SC196995  61.077  76.306  46.099
14925DT     SC296996  60.919  76.411  46.200
14925DT     SC396997  61.041  76.486  45.909
14926DT     BB196998  61.150  75.843  46.347
14926DT     BB296999  60.838  75.976  46.470
14926DT     BB397000  60.683  75.922  46.344
14926DT     SC197001  60.759  76.098  46.164
14926DT     SC297002  60.614  76.256  46.154
14926DT     SC397003  60.847  76.198  45.937
14927DC     BB197004  60.598  75.755  46.534
14927DC     BB297005  60.317  75.971  46.469
14927DC     BB397006  60.209  75.900  46.307
14927DC     SC197007  60.392  75.983  46.138
14927DC     SC297008  60.314  76.147  46.024
14927DC     SC397009  60.581  75.977  45.954
14928DA     BB197010  59.942  75.966  46.624
14928DA     BB297011  59.802  76.122  46.323
14928DA     BB397012  59.732  75.973  46.188
14928DA     SC197013  60.003  75.949  46.036
14928DA     SC297014  60.094  76.007  45.811
14928DA     SC397015  60.277  75.836  45.863
14928DA     SC497016  60.107  75.838  46.087
14929DG     BB197017  59.461  76.118  46.229
14929DG     BB297018  59.498  76.189  45.877
14929DG     BB397019  59.441  76.032  45.769
14929DG     SC197020  59.719  75.903  45.765
14929DG     SC297021  59.892  75.868  45.524
14929DG     SC397022  60.005  75.725  45.757
14929DG     SC497023  59.761  75.804  45.884
14930DT     BB197024  59.271  76.045  45.631
14930DT     BB297025  59.436  76.049  45.311
14930DT     BB397026  59.421  75.863  45.221
14930DT     SC197027  59.601  75.762  45.383
14930DT     SC297028  59.781  75.719  45.272
14930DT     SC397029  59.711  75.611  45.569
14931DG     BB197030  59.251  76.128  44.961
14931DG     BB297031  59.502  75.925  44.797
14931DG     BB397032  59.428  75.745  44.756
14931DG     SC197033  59.513  75.622  45.023
14931DG     SC297034  59.719  75.409  45.060
14931DG     SC397035  59.574  75.461  45.313
14931DG     SC497036  59.414  75.632  45.148
14932DC     BB197037  59.406  75.670  44.546
14932DC     BB297038  59.677  75.433  44.528
14932DC     BB397039  59.603  75.240  44.541
14932DC     SC197040  59.560  75.265  44.798
14932DC     SC297041  59.699  75.141  44.906
14932DC     SC397042  59.432  75.279  45.029
14933DT     BB197043  59.652  75.197  44.276
14933DT     BB297044  59.836  74.937  44.446
14933DT     BB397045  59.714  74.773  44.478
14933DT     SC197046  59.586  74.896  44.671
14933DT     SC297047  59.635  74.803  44.859
14933DT     SC397048  59.390  75.008  44.806
14934DT     BB197049  59.854  74.639  44.290
14934DT     BB297050  59.885  74.440  44.589
14934DT     BB397051  59.722  74.313  44.607
14934DT     SC197052  59.565  74.510  44.679
14934DT     SC297053  59.512  74.487  44.887
14934DT     SC397054  59.368  74.685  44.675
14935DA     BB197055  60.078  74.095  44.650
14935DA     BB297056  59.855  74.010  44.929
14935DA     BB397057  59.693  73.890  44.860
14935DA     SC197058  59.507  74.133  44.802
14935DA     SC297059  59.298  74.232  44.896
14935DA     SC397060  59.275  74.348  44.668
14935DA     SC497061  59.509  74.194  44.653
14936DA     BB197062  59.820  73.727  45.113
14936DA     BB297063  59.489  73.762  45.267
14936DA     BB397064  59.347  73.640  45.166
14936DA     SC197065  59.263  73.863  44.965
14936DA     SC297066  59.063  74.006  44.921
14936DA     SC397067  59.164  74.038  44.687
14936DA     SC497068  59.341  73.869  44.825
14937DC     BB197069  59.286  73.514  45.278
14937DC     BB297070  58.956  73.650  45.328
14937DC     BB397071  58.821  73.558  45.200
14937DC     SC197072  58.913  73.692  44.994
14937DC     SC297073  58.765  73.833  44.929
14937DC     SC397074  59.026  73.741  44.761
14938DA     BB197075  58.671  73.557  45.594
14938DA     BB297076  58.404  73.669  45.369
14938DA     BB397077  58.336  73.507  45.248
14938DA     SC197078  58.537  73.562  45.017
14938DA     SC297079  58.530  73.644  44.782
14938DA     SC397080  58.760  73.532  44.757
14938DA     SC497081  58.678  73.485  45.021
14939DC     BB197082  58.152  73.444  45.277
14939DC     BB297083  58.007  73.571  44.972
14939DC     BB397084  57.985  73.417  44.835
14939DC     SC197085  58.243  73.414  44.785
14939DC     SC297086  58.278  73.488  44.586
14939DC     SC397087  58.492  73.328  44.770
14940DG     BB197088  57.601  73.552  44.885
14940DG     BB297089  57.687  73.535  44.534
14940DG     BB397090  57.672  73.347  44.470
14940DG     SC197091  57.962  73.275  44.537
14940DG     SC297092  58.177  73.210  44.340
14940DG     SC397093  58.267  73.156  44.617
14940DG     SC497094  57.996  73.219  44.683
14941DC     BB197095  57.514  73.249  44.302
14941DC     BB297096  57.734  73.207  44.020
14941DC     BB397097  57.772  73.006  43.989
14941DC     SC197098  57.934  72.997  44.196
14941DC     SC297099  58.136  72.970  44.127
14941DC     SC397100  58.031  72.930  44.431
14942DT     BB197101  57.606  72.968  43.757
14942DT     BB297102  57.933  72.864  43.646
14942DT     BB397103  57.956  72.660  43.674
14942DT     SC197104  57.985  72.691  43.933
14942DT     SC297105  58.189  72.646  43.987
14942DT     SC397106  57.939  72.673  44.192
14943DC     BB197107  57.933  72.588  43.400
14943DC     BB297108  58.256  72.459  43.498
14943DC     BB397109  58.237  72.264  43.563
14943DC     SC197110  58.130  72.341  43.789
14943DC     SC297111  58.268  72.303  43.950
14943DC     SC397112  57.953  72.371  43.982
14944DG     BB197113  58.499  72.248  43.250
14944DG     BB297114  58.640  72.099  43.547
14944DG     BB397115  58.572  71.913  43.569
14944DG     SC197116  58.329  71.996  43.736
14944DG     SC297117  58.283  71.930  44.023
14944DG     SC397118  58.042  72.053  43.903
14944DG     SC497119  58.193  72.034  43.660
14945DT     BB197120  58.712  71.745  43.566
14945DT     BB297121  58.729  71.665  43.917
14945DT     BB397122  58.619  71.494  43.956
14945DT     SC197123  58.393  71.626  43.933
14945DT     SC297124  58.300  71.641  44.127
14945DT     SC397125  58.157  71.700  43.841
14946DT     BB197126  58.853  71.375  43.998
14946DT     BB297127  58.671  71.337  44.307
14946DT     BB397128  58.546  71.173  44.295
14946DT     SC197129  58.378  71.301  44.140
14946DT     SC297130  58.196  71.339  44.247
14946DT     SC397131  58.236  71.364  43.927
14947DA     BB197132  58.776  71.173  44.647
14947DA     BB297133  58.425  71.113  44.736
14947DA     BB397134  58.364  70.920  44.670
14947DA     SC197135  58.264  71.018  44.393
14947DA     SC297136  58.046  71.047  44.275
14947DA     SC397137  58.186  71.046  44.060
14947DA     SC497138  58.368  71.014  44.271
14948DA     BB197139  58.282  70.940  44.985
14948DA     BB297140  57.938  70.881  44.872
14948DA     BB397141  57.917  70.681  44.801
14948DA     SC197142  57.989  70.751  44.507
14948DA     SC297143  57.873  70.764  44.286
14948DA     SC397144  58.108  70.747  44.185
14948DA     SC497145  58.143  70.738  44.463
14949DT     BB197146  57.801  70.589  44.906
14949DT     BB297147  57.527  70.573  44.672
14949DT     BB397148  57.528  70.390  44.574
14949DT     SC197149  57.732  70.462  44.426
14949DT     SC297150  57.667  70.487  44.222
14949DT     SC397151  57.974  70.465  44.322
14950DT     BB197152  57.311  70.343  44.715
14950DT     BB297153  57.212  70.295  44.372
14950DT     BB397154  57.267  70.106  44.309
14950DT     SC197155  57.519  70.177  44.291
14950DT     SC297156  57.577  70.183  44.084
14950DT     SC397157  57.779  70.185  44.338
14951DA     BB197158  56.861  70.159  44.216
14951DA     BB297159  57.027  70.019  43.920
14951DA     BB397160  57.078  69.814  43.954
14951DA     SC197161  57.361  69.878  44.068
14951DA     SC297162  57.598  69.850  43.998
14951DA     SC397163  57.654  69.878  44.247
14951DA     SC497164  57.374  69.896  44.227
14952DA     BB197165  56.909  69.766  43.673
14952DA     BB297166  57.217  69.625  43.532
14952DA     BB397167  57.251  69.429  43.610
14952DA     SC197168  57.421  69.528  43.851
14952DA     SC297169  57.659  69.519  43.925
14952DA     SC397170  57.567  69.567  44.159
14952DA     SC497171  57.344  69.556  43.989
14953DT     BB197172  57.239  69.253  43.488
14953DT     BB297173  57.594  69.189  43.470
14953DT     BB397174  57.642  69.025  43.586
14953DT     SC197175  57.615  69.164  43.807
14953DT     SC297176  57.808  69.192  43.898
14953DT     SC397177  57.522  69.243  44.041
14954DC     BB197178  57.682  68.857  43.368
14954DC     BB297179  57.994  68.841  43.549
14954DC     BB397180  57.987  68.689  43.689
14954DC     SC197181  57.831  68.829  43.846
14954DC     SC297182  57.939  68.886  44.023
14954DC     SC397183  57.618  68.901  43.985
14955DT     BB197184  58.159  68.536  43.540
14955DT     BB297185  58.322  68.569  43.861
14955DT     BB397186  58.258  68.419  43.988
14955DT     SC197187  58.026  68.536  44.024
14955DT     SC297188  58.015  68.610  44.225
14955DT     SC397189  57.766  68.577  44.020
14956DC     BB197190  58.502  68.308  43.964
14956DC     BB297191  58.460  68.363  44.318
14956DC     BB397192  58.359  68.203  44.403
14956DC     SC197193  58.131  68.284  44.300
14956DC     SC297194  58.002  68.354  44.458
14956DC     SC397195  57.911  68.285  44.155
14957DA     BB197196  58.706  68.279  44.625
14957DA     BB297197  58.425  68.248  44.859
14957DA     BB397198  58.361  68.045  44.872
14957DA     SC197199  58.152  68.071  44.643
14957DA     SC297200  57.904  68.072  44.619
14957DA     SC397201  57.948  68.015  44.373
14957DA     SC497202  58.200  68.035  44.494
14958DC     BB197203  58.388  67.956  45.044
14958DC     BB297204  58.042  67.947  45.147
14958DC     BB397205  57.965  67.757  45.118
14958DC     SC197206  57.951  67.794  44.858
14958DC     SC297207  57.745  67.808  44.799
14958DC     SC397208  57.998  67.764  44.601
14959DA     BB197209  57.879  67.844  45.521
14959DA     BB297210  57.571  67.715  45.369
14959DA     BB397211  57.585  67.504  45.340
14959DA     SC197212  57.704  67.526  45.053
14959DA     SC297213  57.631  67.479  44.820
14959DA     SC397214  57.881  67.476  44.764
14959DA     SC497215  57.864  67.527  45.039
14960DT     BB197216  57.466  67.343  45.453
14960DT     BB297217  57.245  67.259  45.181
14960DT     BB397218  57.289  67.069  45.110
14960DT     SC197219  57.505  67.156  44.990
14960DT     SC297220  57.476  67.148  44.777
14960DT     SC397221  57.760  67.186  44.928
14961DT     BB197222  57.066  66.919  45.226
14961DT     BB297223  57.039  66.850  44.873
14961DT     BB397224  57.138  66.674  44.827
14961DT     SC197225  57.372  66.790  44.850
14961DT     SC297226  57.463  66.806  44.656
14961DT     SC397227  57.613  66.847  44.940
14962DT     BB197228  56.905  66.514  44.788
14962DT     BB297229  57.080  66.492  44.473
14962DT     BB397230  57.205  66.327  44.473
14962DT     SC197231  57.377  66.448  44.631
14962DT     SC297232  57.556  66.492  44.521
14962DT     SC397233  57.524  66.500  44.844
14963DT     BB197234  57.042  66.194  44.297
14963DT     BB297235  57.360  66.214  44.129
14963DT     BB397236  57.476  66.050  44.179
14963DT     SC197237  57.526  66.148  44.417
14963DT     SC297238  57.733  66.206  44.429
14963DT     SC397239  57.531  66.172  44.680
14964DT     BB197240  57.439  65.962  43.928
14964DT     BB297241  57.797  65.991  43.964
14964DT     BB397242  57.874  65.819  44.048
14964DT     SC197243  57.782  65.884  44.285
14964DT     SC297244  57.947  65.933  44.415
14964DT     SC397245  57.642  65.874  44.509
14965DA     BB197246  58.088  65.923  43.703
14965DA     BB297247  58.328  65.855  43.972
14965DA     BB397248  58.333  65.646  44.016
14965DA     SC197249  58.111  65.661  44.233
14965DA     SC297250  58.094  65.638  44.481
14965DA     SC397251  57.844  65.596  44.439
14965DA     SC497252  57.960  65.636  44.187
14966DT     BB197253  58.501  65.556  43.975
14966DT     BB297254  58.613  65.512  44.315
14966DT     BB397255  58.581  65.316  44.376
14966DT     SC197256  58.323  65.358  44.400
14966DT     SC297257  58.269  65.353  44.608
14966DT     SC397258  58.063  65.337  44.358
14967DA     BB197259  58.984  65.399  44.457
14967DA     BB297260  58.839  65.246  44.757
14967DA     BB397261  58.810  65.037  44.727
14967DA     SC197262  58.520  65.067  44.618
14967DA     SC297263  58.288  65.015  44.692
14967DA     SC397264  58.226  65.032  44.444
14967DA     SC497265  58.502  65.081  44.458
14968DA     BB197266  58.989  65.008  45.003
14968DA     BB297267  58.698  64.846  45.156
14968DA     BB397268  58.682  64.644  45.089
14968DA     SC197269  58.501  64.713  44.846
14968DA     SC297270  58.264  64.678  44.776
14968DA     SC397271  58.348  64.721  44.538
14968DA     SC497272  58.573  64.741  44.705
14969DA     BB197273  58.679  64.582  45.412
14969DA     BB297274  58.344  64.442  45.364
14969DA     BB397275  58.357  64.247  45.278
14969DA     SC197276  58.342  64.349  44.984
14969DA     SC297277  58.181  64.343  44.795
14969DA     SC397278  58.384  64.393  44.647
14969DA     SC497279  58.481  64.379  44.909
14970DT     BB197280  58.296  64.094  45.390
14970DT     BB297281  57.984  64.037  45.216
14970DT     BB397282  57.999  63.869  45.097
14970DT     SC197283  58.146  63.997  44.921
14970DT     SC297284  58.033  64.025  44.740
14970DT     SC397285  58.353  64.063  44.772
14971DT     BB197286  57.834  63.752  45.270
14971DT     BB297287  57.668  63.728  44.951
14971DT     BB397288  57.735  63.562  44.848
14971DT     SC197289  57.963  63.680  44.791
14971DT     SC297290  57.970  63.722  44.580
14971DT     SC397291  58.221  63.730  44.784
14972DA     BB197292  57.316  63.582  44.855
14972DA     BB297293  57.424  63.517  44.511
14972DA     BB397294  57.504  63.320  44.494
14972DA     SC197295  57.796  63.406  44.557
14972DA     SC297296  58.013  63.426  44.436
14972DA     SC397297  58.121  63.421  44.669
14972DA     SC497298  57.844  63.400  44.711
14973DC     BB197299  57.402  63.210  44.383
14973DC     BB297300  57.631  63.199  44.104
14973DC     BB397301  57.738  63.022  44.108
14973DC     SC197302  57.887  63.108  44.307
14973DC     SC297303  58.087  63.143  44.237
14973DC     SC397304  57.995  63.124  44.547
14974DT     BB197305  57.596  62.952  43.896
14974DT     BB297306  57.940  62.927  43.790
14974DT     BB397307  58.019  62.744  43.848
14974DT     SC197308  58.036  62.822  44.098
14974DT     SC297309  58.243  62.845  44.152
14974DT     SC397310  57.993  62.834  44.358
14975DT     BB197311  58.015  62.675  43.591
14975DT     BB297312  58.357  62.629  43.693
14975DT     BB397313  58.381  62.443  43.781
14975DT     SC197314  58.261  62.523  44.000
14975DT     SC297315  58.404  62.534  44.160
14975DT     SC397316  58.082  62.539  44.193
14976DA     BB197317  58.676  62.484  43.486
14976DA     BB297318  58.837  62.359  43.791
14976DA     BB397319  58.784  62.155  43.824
14976DA     SC197320  58.535  62.224  43.998
14976DA     SC297321  58.467  62.205  44.238
14976DA     SC397322  58.227  62.226  44.149
14976DA     SC497323  58.394  62.236  43.924
14977DT     BB197324  58.928  62.017  43.810
14977DT     BB297325  58.958  61.941  44.161
14977DT     BB397326  58.865  61.761  44.203
14977DT     SC197327  58.627  61.871  44.184
14977DT     SC297328  58.536  61.880  44.379
14977DT     SC397329  58.384  61.923  44.096
14978DC     BB197330  59.105  61.632  44.234
14978DC     BB297331  58.930  61.564  44.542
14978DC     BB397332  58.812  61.395  44.521
14978DC     SC197333  58.636  61.526  44.377
14978DC     SC297334  58.455  61.549  44.490
14978DC     SC397335  58.488  61.597  44.171
14979DA     BB197336  59.043  61.294  44.860
14979DA     BB297337  58.694  61.217  44.942
14979DA     BB397338  58.634  61.036  44.847
14979DA     SC197339  58.530  61.177  44.590
14979DA     SC297340  58.310  61.222  44.480
14979DA     SC397341  58.448  61.258  44.266
14979DA     SC497342  58.632  61.193  44.467
14980DT     BB197343  58.583  60.818  44.945
14980DT     BB297344  58.225  60.839  44.904
14980DT     BB397345  58.162  60.699  44.765
14980DT     SC197346  58.255  60.843  44.567
14980DT     SC297347  58.091  60.922  44.453
14980DT     SC397348  58.401  60.914  44.358
14981DT     BB197349  58.043  60.481  44.936
14981DT     BB297350  57.771  60.568  44.715
14981DT     BB397351  57.766  60.437  44.555
14981DT     SC197352  57.975  60.551  44.445
14981DT     SC297353  57.914  60.655  44.267
14981DT     SC397354  58.219  60.583  44.350
14982DA     BB197355  57.376  60.402  44.707
14982DA     BB297356  57.347  60.479  44.349
14982DA     BB397357  57.382  60.304  44.232
14982DA     SC197358  57.688  60.353  44.206
14982DA     SC297359  57.850  60.417  44.028
14982DA     SC397360  58.029  60.317  44.183
14982DA     SC497361  57.784  60.285  44.316
14983DT     BB197362  57.228  60.224  44.119
14983DT     BB297363  57.346  60.352  43.803
14983DT     BB397364  57.422  60.198  43.688
14983DT     SC197365  57.639  60.184  43.835
14983DT     SC297366  57.807  60.253  43.720
14983DT     SC397367  57.822  60.088  43.999
14984DA     BB197368  57.151  60.435  43.474
14984DA     BB297369  57.459  60.402  43.277
14984DA     BB397370  57.477  60.203  43.201
14984DA     SC197371  57.637  60.098  43.446
14984DA     SC297372  57.869  60.022  43.496
14984DA     SC397373  57.766  59.906  43.700
14984DA     SC497374  57.553  60.032  43.566
14985DA     BB197375  57.516  60.406  42.949
14985DA     BB297376  57.847  60.253  42.913
14985DA     BB397377  57.829  60.052  42.845
14985DA     SC197378  57.818  59.931  43.132
14985DA     SC297379  57.963  59.792  43.279
14985DA     SC397380  57.748  59.740  43.408
14985DA     SC497381  57.673  59.910  43.198
14986DC     BB197382  57.904  60.036  42.682
14986DC     BB297383  58.196  59.850  42.783
14986DC     BB397384  58.166  59.648  42.752
14986DC     SC197385  58.007  59.633  42.961
14986DC     SC297386  58.104  59.520  43.116
14986DC     SC397387  57.789  59.596  43.105
14987DT     BB197388  58.340  59.667  42.552
14987DT     BB297389  58.473  59.410  42.768
14987DT     BB397390  58.384  59.228  42.725
14987DT     SC197391  58.162  59.301  42.844
14987DT     SC297392  58.137  59.186  43.025
14987DT     SC397393  57.908  59.363  42.879
14988DT     BB197394  58.613  59.141  42.609
14988DT     BB297395  58.541  58.894  42.862
14988DT     BB397396  58.412  58.751  42.785
14988DT     SC197397  58.208  58.915  42.798
14988DT     SC297398  58.073  58.848  42.952
14988DT     SC397399  58.007  59.067  42.722
14989DT     BB197400  58.613  58.564  42.774
14989DT     BB297401  58.359  58.409  42.977
14989DT     BB397402  58.224  58.308  42.857
14989DT     SC197403  58.113  58.533  42.779
14989DT     SC297404  57.915  58.547  42.862
14989DT     SC397405  58.034  58.729  42.622
14990DA     BB197406  58.353  58.035  43.147
14990DA     BB297407  57.987  58.026  43.139
14990DA     BB397408  57.919  57.924  42.965
14990DA     SC197409  57.904  58.181  42.791
14990DA     SC297410  57.728  58.324  42.687
14990DA     SC397411  57.915  58.408  42.533
14990DA     SC497412  58.034  58.220  42.704
14991DA     BB197413  57.758  57.756  43.194
14991DA     BB297414  57.449  57.870  43.033
14991DA     BB397415  57.416  57.762  42.851
14991DA     SC197416  57.570  57.966  42.674
14991DA     SC297417  57.517  58.134  42.498
14991DA     SC397418  57.765  58.115  42.433
14991DA     SC497419  57.727  57.939  42.648
14992DA     BB197420  57.134  57.724  43.010
14992DA     BB297421  56.978  57.895  42.726
14992DA     BB397422  56.974  57.767  42.555
14992DA     SC197423  57.250  57.863  42.447
14992DA     SC297424  57.336  57.996  42.254
14992DA     SC397425  57.561  57.881  42.302
14992DA     SC497426  57.380  57.780  42.491
14993DC     BB197427  56.800  57.720  42.500
14993DC     BB297428  56.789  57.929  42.206
14993DC     BB397429  56.823  57.815  42.037
14993DC     SC197430  57.079  57.797  42.091
14993DC     SC297431  57.191  57.911  41.947
14993DC     SC397432  57.313  57.692  42.152
14994DA     BB197433  56.482  58.054  41.990
14994DA     BB297434  56.693  58.093  41.692
14994DA     BB397435  56.690  57.914  41.576
14994DA     SC197436  56.936  57.788  41.720
14994DA     SC297437  57.173  57.734  41.665
14994DA     SC397438  57.161  57.573  41.865
14994DA     SC497439  56.908  57.693  41.846
14995DC     BB197440  56.614  57.944  41.413
14995DC     BB297441  56.916  57.926  41.216
14995DC     BB397442  56.935  57.738  41.132
14995DC     SC197443  57.005  57.634  41.363
14995DC     SC297444  57.212  57.577  41.355
14995DC     SC397445  56.998  57.484  41.580
14996DA     BB197446  56.988  58.033  40.838
14996DA     BB297447  57.257  57.786  40.803
14996DA     BB397448  57.179  57.602  40.729
14996DA     SC197449  57.123  57.484  41.011
14996DA     SC297450  57.214  57.303  41.157
14996DA     SC397451  56.989  57.317  41.280
14996DA     SC497452  56.977  57.507  41.074
14997DA     BB197453  57.423  57.654  40.513
14997DA     BB297454  57.558  57.329  40.618
14997DA     BB397455  57.436  57.171  40.543
14997DA     SC197456  57.251  57.161  40.793
14997DA     SC297457  57.207  57.007  40.984
14997DA     SC397458  56.984  57.132  41.006
14997DA     SC497459  57.117  57.250  40.790
14998DT     BB197460  57.509  57.040  40.399
14998DT     BB297461  57.544  56.748  40.607
14998DT     BB397462  57.391  56.615  40.568
14998DT     SC197463  57.217  56.763  40.698
14998DT     SC297464  57.159  56.663  40.879
14998DT     SC397465  57.008  56.916  40.745
14999DA     BB197466  57.722  56.359  40.498
14999DA     BB297467  57.490  56.172  40.711
14999DA     BB397468  57.328  56.096  40.596
14999DA     SC197469  57.147  56.346  40.639
14999DA     SC297470  56.938  56.403  40.761
14999DA     SC397471  56.923  56.603  40.601
14999DA     SC497472  57.155  56.463  40.529
15000DA     BB197473  57.377  55.761  40.676
15000DA     BB297474  57.048  55.759  40.839
15000DA     BB397475  56.895  55.718  40.696
15000DA     SC197476  56.846  56.017  40.626
15000DA     SC297477  56.667  56.188  40.661
15000DA     SC397478  56.778  56.313  40.467
15000DA     SC497479  56.928  56.080  40.503
15001DT     BB197480  56.733  55.509  40.654
15001DT     BB297481  56.443  55.669  40.799
15001DT     BB397482  56.296  55.692  40.655
15001DT     SC197483  56.426  55.890  40.542
15001DT     SC297484  56.320  56.074  40.576
15001DT     SC397485  56.559  56.029  40.361
15002DT     BB197486  56.111  55.484  40.740
15002DT     BB297487  55.917  55.787  40.761
15002DT     BB397488  55.810  55.815  40.586
15002DT     SC197489  56.026  55.887  40.455
15002DT     SC297490  56.014  56.097  40.409
15002DT     SC397491  56.222  55.885  40.279
15003DT     BB197492  55.574  55.756  40.713
15003DT     BB297493  55.534  56.094  40.593
15003DT     BB397494  55.457  56.092  40.401
15003DT     SC197495  55.687  56.018  40.300
15003DT     SC297496  55.771  56.180  40.186
15003DT     SC397497  55.869  55.871  40.178
15004DA     BB197498  55.247  56.351  40.655
15004DA     BB297499  55.341  56.535  40.352
15004DA     BB397500  55.226  56.468  40.185
15004DA     SC197501  55.431  56.249  40.101
15004DA     SC297502  55.591  56.208  39.915
15004DA     SC397503  55.581  55.962  39.987
15004DA     SC497504  55.410  56.101  40.161
15005DT     BB197505  55.131  56.605  40.131
15005DT     BB297506  55.322  56.675  39.833
15005DT     BB397507  55.233  56.586  39.669
15005DT     SC197508  55.317  56.348  39.743
15005DT     SC297509  55.467  56.280  39.605
15005DT     SC397510  55.312  56.097  39.822
15006DA     BB197511  55.336  56.989  39.607
15006DA     BB297512  55.456  56.791  39.323
15006DA     BB397513  55.291  56.718  39.209
15006DA     SC197514  55.266  56.452  39.369
15006DA     SC297515  55.306  56.209  39.331
15006DA     SC397516  55.150  56.172  39.531
15006DA     SC497517  55.165  56.450  39.494
15007DA     BB197518  55.491  56.861  38.994
15007DA     BB297519  55.504  56.535  38.828
15007DA     BB397520  55.316  56.489  38.739
15007DA     SC197521  55.204  56.344  38.990
15007DA     SC297522  55.146  56.111  39.058
15007DA     SC397523  55.003  56.221  39.239
15007DA     SC497524  55.120  56.431  39.095
15008DA     BB197525  55.531  56.445  38.495
15008DA     BB297526  55.407  56.100  38.481
15008DA     BB397527  55.208  56.095  38.403
15008DA     SC197528  55.072  56.120  38.682
15008DA     SC297529  54.937  55.977  38.835
15008DA     SC397530  54.862  56.197  38.942
15008DA     SC497531  55.036  56.268  38.734
15009DT     BB197532  55.193  56.007  38.236
15009DT     BB297533  55.026  55.710  38.354
15009DT     BB397534  54.823  55.724  38.316
15009DT     SC197535  54.789  55.896  38.512
15009DT     SC297536  54.678  55.803  38.671
15009DT     SC397537  54.732  56.121  38.637
15010DT     BB197538  54.858  55.537  38.129
15010DT     BB297539  54.604  55.402  38.347
15010DT     BB397540  54.418  55.476  38.293
15010DT     SC197541  54.471  55.710  38.398
15010DT     SC297542  54.350  55.740  38.573
15010DT     SC397543  54.516  55.970  38.416
15011DA     BB197544  54.383  55.058  38.313
15011DA     BB297545  54.099  55.203  38.495
15011DA     BB397546  53.959  55.287  38.358
15011DA     SC197547  54.090  55.570  38.361
15011DA     SC297548  54.034  55.798  38.445
15011DA     SC397549  54.209  55.880  38.277
15011DA     SC497550  54.201  55.601  38.249
15012DT     BB197551  53.775  55.203  38.339
15012DT     BB297552  53.589  55.461  38.509
15012DT     BB397553  53.487  55.577  38.372
15012DT     SC197554  53.709  55.698  38.299
15012DT     SC297555  53.703  55.903  38.366
15012DT     SC397556  53.909  55.779  38.149
15013DA     BB197557  53.192  55.454  38.644
15013DA     BB297558  53.158  55.816  38.600
15013DA     BB397559  53.069  55.860  38.411
15013DA     SC197560  53.341  55.880  38.261
15013DA     SC297561  53.481  56.057  38.155
15013DA     SC397562  53.592  55.864  38.028
15013DA     SC497563  53.397  55.747  38.191
15014DT     BB197564  52.876  55.946  38.397
15014DT     BB297565  52.986  56.278  38.307
15014DT     BB397566  52.945  56.314  38.107
15014DT     SC197567  53.144  56.160  38.031
15014DT     SC297568  53.299  56.281  37.945
15014DT     SC397569  53.274  55.959  37.919
15015DA     BB197570  52.783  56.633  38.324
15015DA     BB297571  52.986  56.773  38.053
15015DA     BB397572  52.886  56.749  37.866
15015DA     SC197573  53.016  56.473  37.804
15015DA     SC297574  53.183  56.379  37.644
15015DA     SC397575  53.077  56.152  37.700
15015DA     SC497576  52.936  56.341  37.851
15016DT     BB197577  52.831  56.914  37.777
15016DT     BB297578  53.085  56.911  37.521
15016DT     BB397579  53.004  56.849  37.341
15016DT     SC197580  52.996  56.599  37.423
15016DT     SC297581  53.140  56.484  37.313
15016DT     SC397582  52.899  56.365  37.494
15017DA     BB197583  53.217  57.206  37.284
15017DA     BB297584  53.322  56.966  37.027
15017DA     BB397585  53.166  56.938  36.884
15017DA     SC197586  53.037  56.699  37.036
15017DA     SC297587  53.012  56.453  37.006
15017DA     SC397588  52.818  56.473  37.173
15017DA     SC497589  52.920  56.732  37.141
15018DT     BB197590  53.209  56.999  36.708
15018DT     BB297591  53.251  56.675  36.556
15018DT     BB397592  53.081  56.625  36.448
15018DT     SC197593  52.948  56.573  36.668
15018DT     SC297594  52.912  56.361  36.681
15018DT     SC397595  52.765  56.590  36.857
15019DT     BB197596  53.219  56.664  36.220
15019DT     BB297597  53.095  56.327  36.194
15019DT     BB397598  52.903  56.328  36.117
15019DT     SC197599  52.804  56.412  36.345
15019DT     SC297600  52.689  56.255  36.435
15019DT     SC397601  52.684  56.568  36.521
15020DA     BB197602  53.117  56.062  35.871
15020DA     BB297603  52.806  55.896  35.969
15020DA     BB397604  52.640  55.979  35.863
15020DA     SC197605  52.579  56.195  36.079
15020DA     SC297606  52.402  56.242  36.248
15020DA     SC397607  52.491  56.483  36.244
15020DA     SC497608  52.648  56.339  36.062
15021DT     BB197609  52.526  55.869  35.713
15021DT     BB297610  52.233  55.814  35.917
15021DT     BB397611  52.077  55.932  35.849
15021DT     SC197612  52.184  56.148  35.952
15021DT     SC297613  52.066  56.214  36.119
15021DT     SC397614  52.295  56.387  35.968
15022DA     BB197615  51.921  55.542  35.858
15022DA     BB297616  51.686  55.760  36.037
15022DA     BB397617  51.574  55.878  35.899
15022DA     SC197618  51.776  56.115  35.900
15022DA     SC297619  51.784  56.350  35.982
15022DA     SC397620  51.975  56.381  35.814
15022DA     SC497621  51.892  56.114  35.789
15023DA     BB197622  51.320  55.746  36.059
15023DA     BB297623  51.232  56.087  36.160
15023DA     BB397624  51.139  56.191  35.999
15023DA     SC197625  51.405  56.306  35.887
15023DA     SC297626  51.517  56.528  35.869
15023DA     SC397627  51.658  56.419  35.684
15023DA     SC497628  51.481  56.221  35.774
15024DT     BB197629  50.948  56.242  36.022
15024DT     BB297630  51.007  56.594  36.079
15024DT     BB397631  50.956  56.702  35.910
15024DT     SC197632  51.173  56.622  35.785
15024DT     SC297633  51.307  56.789  35.762
15024DT     SC397634  51.327  56.505  35.606
15025DT     BB197635  50.749  56.794  36.050
15025DT     BB297636  50.934  57.088  35.952
15025DT     BB397637  50.879  57.145  35.761
15025DT     SC197638  51.015  56.948  35.654
15025DT     SC297639  51.185  57.027  35.549
15025DT     SC397640  51.067  56.726  35.521
15026DT     BB197641  50.763  57.353  35.878
15026DT     BB297642  50.998  57.496  35.645
15026DT     BB397643  50.914  57.504  35.456
15026DT     SC197644  50.944  57.245  35.423
15026DT     SC297645  51.094  57.209  35.274
15026DT     SC397646  50.883  56.991  35.388
15027DA     BB197647  51.076  57.877  35.558
15027DA     BB297648  51.193  57.788  35.222
15027DA     BB397649  51.032  57.800  35.082
15027DA     SC197650  50.947  57.503  35.119
15027DA     SC297651  50.951  57.292  34.986
15027DA     SC397652  50.770  57.210  35.147
15027DA     SC497653  50.834  57.471  35.229
15028DT     BB197654  51.050  57.936  34.948
15028DT     BB297655  51.123  57.718  34.670
15028DT     BB397656  50.954  57.693  34.553
15028DT     SC197657  50.845  57.533  34.731
15028DT     SC297658  50.839  57.333  34.653
15028DT     SC397659  50.676  57.441  34.911
15029DG     BB197660  51.250  57.839  34.314
15029DG     BB297661  51.100  57.542  34.173
15029DG     BB397662  50.924  57.587  34.092
15029DG     SC197663  50.765  57.536  34.349
15029DG     SC297664  50.566  57.318  34.392
15029DG     SC397665  50.563  57.509  34.617
15029DG     SC497666  50.745  57.657  34.452
15030DC     BB197667  50.889  57.561  33.876
15030DC     BB297668  50.678  57.268  33.871
15030DC     BB397669  50.481  57.324  33.838
15030DC     SC197670  50.458  57.413  34.084
15030DC     SC297671  50.326  57.283  34.194
15030DC     SC397672  50.421  57.579  34.285
15031DT     BB197673  50.491  57.225  33.584
15031DT     BB297674  50.214  57.052  33.737
15031DT     BB397675  50.040  57.163  33.716
15031DT     SC197676  50.118  57.332  33.902
15031DT     SC297677  49.994  57.309  34.076
15031DT     SC397678  50.193  57.558  34.016
15032DC     BB197679  49.946  56.988  33.531
15032DC     BB297680  49.691  56.996  33.787
15032DC     BB397681  49.558  57.150  33.749
15032DC     SC197682  49.732  57.330  33.830
15032DC     SC297683  49.666  57.416  34.015
15032DC     SC397684  49.899  57.534  33.824
15033DG     BB197685  49.333  56.810  33.757
15033DG     BB297686  49.198  57.061  33.979
15033DG     BB397687  49.096  57.196  33.874
15033DG     SC197688  49.338  57.378  33.828
15033DG     SC297689  49.375  57.653  33.939
15033DG     SC397690  49.584  57.591  33.740
15033DG     SC497691  49.430  57.353  33.699
15034DC     BB197692  48.874  57.229  33.901
15034DC     BB297693  48.869  57.541  34.082
15034DC     BB397694  48.813  57.695  33.955
15034DC     SC197695  49.048  57.695  33.839
15034DC     SC297696  49.154  57.875  33.891
15034DC     SC397697  49.232  57.671  33.651
15035DA     BB197698  48.553  57.723  34.284
15035DA     BB297699  48.687  58.058  34.221
15035DA     BB397700  48.596  58.143  34.048
15035DA     SC197701  48.810  58.034  33.851
15035DA     SC297702  48.994  58.124  33.709
15035DA     SC397703  48.973  57.904  33.578
15035DA     SC497704  48.781  57.891  33.781
15036DC     BB197705  48.466  58.313  34.061
15036DC     BB297706  48.698  58.554  33.927
15036DC     BB397707  48.641  58.609  33.735
15036DC     SC197708  48.725  58.380  33.637
15036DC     SC297709  48.899  58.415  33.515
15036DC     SC397710  48.720  58.144  33.519
15037DA     BB197711  48.679  58.973  33.940
15037DA     BB297712  48.867  59.003  33.627
15037DA     BB397713  48.734  59.030  33.463
15037DA     SC197714  48.707  58.725  33.404
15037DA     SC297715  48.778  58.565  33.226
15037DA     SC397716  48.593  58.413  33.318
15037DA     SC497717  48.586  58.646  33.474
15038DT     BB197718  48.727  59.212  33.353
15038DT     BB297719  48.903  59.088  33.063
15038DT     BB397720  48.771  59.066  32.904
15038DT     SC197721  48.666  58.850  33.011
15038DT     SC297722  48.721  58.679  32.892
15038DT     SC397723  48.488  58.688  33.118
15039DT     BB197724  48.881  59.282  32.777
15039DT     BB297725  48.920  59.010  32.544
15039DT     BB397726  48.752  58.994  32.425
15039DT     SC197727  48.613  58.889  32.620
15039DT     SC297728  48.573  58.682  32.576
15039DT     SC397729  48.426  58.859  32.804
15040DA     BB197730  49.099  59.000  32.191
15040DA     BB297731  48.895  58.714  32.087
15040DA     BB397732  48.722  58.781  31.981
15040DA     SC197733  48.544  58.801  32.235
15040DA     SC297734  48.347  58.682  32.333
15040DA     SC397735  48.312  58.895  32.471
15040DA     SC497736  48.538  58.943  32.310
15041DT     BB197737  48.727  58.721  31.809
15041DT     BB297738  48.473  58.468  31.842
15041DT     BB397739  48.292  58.539  31.770
15041DT     SC197740  48.258  58.689  31.982
15041DT     SC297741  48.096  58.611  32.100
15041DT     SC397742  48.229  58.905  32.132
15042DC     BB197743  48.338  58.362  31.583
15042DC     BB297744  48.018  58.273  31.723
15042DC     BB397745  47.870  58.393  31.643
15042DC     SC197746  47.946  58.598  31.787
15042DC     SC297747  47.797  58.641  31.936
15042DC     SC397748  48.040  58.837  31.850
15043DA     BB197749  47.751  57.992  31.610
15043DA     BB297750  47.468  58.184  31.743
15043DA     BB397751  47.384  58.307  31.591
15043DA     SC197752  47.565  58.552  31.656
15043DA     SC297753  47.539  58.780  31.754
15043DA     SC397754  47.762  58.833  31.637
15043DA     SC497755  47.703  58.566  31.575
15044DC     BB197756  47.193  58.269  31.518
15044DC     BB297757  47.028  58.550  31.673
15044DC     BB397758  46.986  58.695  31.532
15044DC     SC197759  47.238  58.769  31.522
15044DC     SC297760  47.258  58.964  31.609
15044DC     SC397761  47.480  58.813  31.427
15045DA     BB197762  46.614  58.623  31.712
15045DA     BB297763  46.663  58.986  31.705
15045DA     BB397764  46.630  59.062  31.508
15045DA     SC197765  46.927  59.032  31.420
15045DA     SC297766  47.120  59.181  31.367
15045DA     SC397767  47.217  58.977  31.244
15045DA     SC497768  46.970  58.894  31.348
15046DA     BB197769  46.411  59.264  31.649
15046DA     BB297770  46.618  59.544  31.537
15046DA     BB397771  46.582  59.585  31.330
15046DA     SC197772  46.806  59.394  31.228
15046DA     SC297773  47.029  59.413  31.118
15046DA     SC397774  46.992  59.169  31.049
15046DA     SC497775  46.764  59.243  31.194
15047DC     BB197776  46.496  59.763  31.279
15047DC     BB297777  46.795  59.919  31.154
15047DC     BB397778  46.789  59.928  30.947
15047DC     SC197779  46.840  59.672  30.926
15047DC     SC297780  47.038  59.644  30.846
15047DC     SC397781  46.808  59.416  30.869
15048DT     BB197782  46.758  60.191  30.977
15048DT     BB297783  47.056  60.154  30.776
15048DT     BB397784  47.005  60.134  30.577
15048DT     SC197785  46.924  59.887  30.614
15048DT     SC297786  47.060  59.752  30.516
15048DT     SC397787  46.764  59.678  30.627
15049DT     BB197788  47.115  60.370  30.561
15049DT     BB297789  47.297  60.164  30.327
15049DT     BB397790  47.191  60.149  30.150
15049DT     SC197791  47.019  59.983  30.258
15049DT     SC297792  47.046  59.787  30.173
15049DT     SC397793  46.791  59.885  30.347
15050DA     BB197794  47.593  60.249  30.079
15050DA     BB297795  47.498  59.983  29.845
15050DA     BB397796  47.360  60.057  29.701
15050DA     SC197797  47.108  59.985  29.868
15050DA     SC297798  46.919  59.821  29.857
15050DA     SC397799  46.798  59.982  30.016
15050DA     SC497800  47.048  60.098  29.965
15051DA     BB197801  47.582  59.928  29.493
15051DA     BB297802  47.311  59.724  29.355
15051DA     BB397803  47.180  59.844  29.237
15051DA     SC197804  46.991  59.914  29.474
15051DA     SC297805  46.758  59.861  29.547
15051DA     SC397806  46.778  60.071  29.692
15051DA     SC497807  47.022  60.048  29.557
15052DT     BB197808  47.168  59.820  29.032
15052DT     BB297809  46.840  59.670  29.020
15052DT     BB397810  46.701  59.809  28.954
15052DT     SC197811  46.704  59.933  29.185
15052DT     SC297812  46.516  59.902  29.285
15052DT     SC397813  46.739  60.124  29.363
15053DA     BB197814  46.642  59.488  28.686
15053DA     BB297815  46.311  59.590  28.807
15053DA     BB397816  46.251  59.772  28.713
15053DA     SC197817  46.374  59.955  28.932
15053DA     SC297818  46.294  60.108  29.112
15053DA     SC397819  46.528  60.211  29.101
15053DA     SC497820  46.525  60.007  28.909
15054DC     BB197821  46.084  59.788  28.569
15054DC     BB297822  45.851  59.951  28.792
15054DC     BB397823  45.826  60.149  28.736
15054DC     SC197824  46.061  60.214  28.832
15054DC     SC297825  46.035  60.337  29.007
15054DC     SC397826  46.311  60.298  28.841
15055DA     BB197827  45.433  59.999  28.748
15055DA     BB297828  45.438  60.311  28.940
15055DA     BB397829  45.444  60.479  28.809
15055DA     SC197830  45.755  60.493  28.802
15055DA     SC297831  45.935  60.644  28.886
15055DA     SC397832  46.083  60.532  28.708
15055DA     SC497833  45.830  60.413  28.685
15056DT     BB197834  45.280  60.621  28.787
15056DT     BB297835  45.433  60.890  28.973
15056DT     BB397836  45.489  61.042  28.844
15056DT     SC197837  45.693  60.902  28.756
15056DT     SC297838  45.876  60.993  28.824
15056DT     SC397839  45.850  60.769  28.591
15057DA     BB197840  45.252  61.237  29.131
15057DA     BB297841  45.565  61.426  29.099
15057DA     BB397842  45.564  61.541  28.919
15057DA     SC197843  45.696  61.318  28.747
15057DA     SC297844  45.914  61.277  28.634
15057DA     SC397845  45.785  61.105  28.493
15057DA     SC497846  45.598  61.217  28.669
15058DA     BB197847  45.623  61.802  29.116
15058DA     BB297848  45.944  61.838  28.942
15058DA     BB397849  45.916  61.934  28.754
15058DA     SC197850  45.875  61.669  28.596
15058DA     SC297851  45.997  61.534  28.426
15058DA     SC397852  45.769  61.428  28.376
15058DA     SC497853  45.724  61.617  28.579
15059DT     BB197854  45.995  62.133  28.711
15059DT     BB297855  46.271  62.017  28.509
15059DT     BB397856  46.239  62.064  28.311
15059DT     SC197857  46.059  61.874  28.286
15059DT     SC297858  46.137  61.719  28.159
15059DT     SC397859  45.827  61.756  28.246
15060DA     BB197860  46.617  62.204  28.419
15060DA     BB297861  46.653  61.997  28.118
15060DA     BB397862  46.581  62.102  27.947
15060DA     SC197863  46.290  61.993  27.973
15060DA     SC297864  46.140  61.837  27.850
15060DA     SC397865  45.949  61.957  27.971
15060DA     SC497866  46.185  62.081  28.057
15061DC     BB197867  46.717  62.131  27.830
15061DC     BB297868  46.620  61.872  27.598
15061DC     BB397869  46.521  61.955  27.436
15061DC     SC197870  46.305  61.994  27.579
15061DC     SC297871  46.150  61.861  27.512
15061DC     SC397872  46.109  62.120  27.703
15062DT     BB197873  46.738  61.868  27.326
15062DT     BB297874  46.468  61.697  27.160
15062DT     BB397875  46.381  61.822  27.019
15062DT     SC197876  46.261  61.962  27.206
15062DT     SC297877  46.049  61.926  27.197
15062DT     SC397878  46.194  62.167  27.358
15063DT     BB197879  46.489  61.638  26.875
15063DT     BB297880  46.139  61.640  26.789
15063DT     BB397881  46.098  61.799  26.663
15063DT     SC197882  46.114  61.970  26.862
15063DT     SC297883  45.918  62.048  26.904
15063DT     SC397884  46.199  62.171  27.010
15064DA     BB197885  45.936  61.439  26.517
15064DA     BB297886  45.682  61.702  26.486
15064DA     BB397887  45.739  61.843  26.337
15064DA     SC197888  45.890  62.029  26.535
15064DA     SC297889  45.861  62.256  26.634
15064DA     SC397890  46.113  62.245  26.682
15064DA     SC497891  46.048  62.003  26.555
15065DT     BB197892  45.630  61.852  26.169
15065DT     BB297893  45.474  62.173  26.227
15065DT     BB397894  45.565  62.317  26.110
15065DT     SC197895  45.776  62.322  26.266
15065DT     SC297896  45.782  62.508  26.373
15065DT     SC397897  46.026  62.296  26.346
15066DA     BB197898  45.161  62.362  26.002
15066DA     BB297899  45.290  62.699  26.066
15066DA     BB397900  45.409  62.765  25.902
15066DA     SC197901  45.675  62.653  26.018
15066DA     SC297902  45.887  62.744  26.114
15066DA     SC397903  45.986  62.513  26.058
15066DA     SC497904  45.719  62.505  25.975
15067DA     BB197905  45.214  63.037  25.872
15067DA     BB297906  45.509  63.244  25.942
15067DA     BB397907  45.625  63.270  25.765
15067DA     SC197908  45.803  63.020  25.816
15067DA     SC297909  46.040  62.971  25.877
15067DA     SC397910  45.995  62.737  25.782
15067DA     SC497911  45.756  62.880  25.751
15068DC     BB197912  45.654  63.467  25.647
15068DC     BB297913  45.992  63.529  25.758
15068DC     BB397914  46.123  63.509  25.599
15068DC     SC197915  46.103  63.248  25.605
15068DC     SC297916  46.289  63.163  25.673
15068DC     SC397917  46.048  63.001  25.529
15069DT     BB197918  46.169  63.786  25.572
15069DT     BB297919  46.498  63.648  25.623
15069DT     BB397920  46.585  63.603  25.440
15069DT     SC197921  46.433  63.391  25.411
15069DT     SC297922  46.554  63.214  25.428
15069DT     SC397923  46.252  63.228  25.310
15070DG     BB197924  46.833  63.862  25.632
15070DG     BB297925  47.010  63.565  25.525
15070DG     BB397926  47.053  63.578  25.331
15070DG     SC197927  46.792  63.446  25.240
15070DG     SC297928  46.767  63.180  25.106
15070DG     SC397929  46.508  63.323  25.105
15070DG     SC497930  46.663  63.538  25.215
15071DA     BB197931  47.375  63.503  25.426
15071DA     BB297932  47.373  63.206  25.211
15071DA     BB397933  47.394  63.263  25.006
15071DA     SC197934  47.088  63.288  24.955
15071DA     SC297935  46.912  63.167  24.827
15071DA     SC397936  46.778  63.385  24.846
15071DA     SC497937  47.021  63.433  24.976
15072DA     BB197938  47.627  63.036  25.049
15072DA     BB297939  47.457  62.848  24.784
15072DA     BB397940  47.484  62.944  24.596
15072DA     SC197941  47.228  63.119  24.620
15072DA     SC297942  47.004  63.133  24.512
15072DA     SC397943  46.998  63.373  24.603
15072DA     SC497944  47.244  63.265  24.684
15073DT     BB197945  47.587  62.844  24.469
15073DT     BB297946  47.314  62.752  24.252
15073DT     BB397947  47.313  62.873  24.085
15073DT     SC197948  47.217  63.075  24.222
15073DT     SC297949  47.015  63.114  24.161
15073DT     SC397950  47.201  63.312  24.336
15074DT     BB197951  47.393  62.660  23.947
15074DT     BB297952  47.090  62.768  23.784
15074DT     BB397953  47.131  62.919  23.649
15074DT     SC197954  47.163  63.093  23.843
15074DT     SC297955  47.000  63.235  23.839
15074DT     SC397956  47.278  63.268  24.003
15075DT     BB197957  47.081  62.743  23.456
15075DT     BB297958  46.856  63.017  23.392
15075DT     BB397959  46.953  63.165  23.285
15075DT     SC197960  47.086  63.242  23.497
15075DT     SC297961  47.015  63.436  23.559
15075DT     SC397962  47.288  63.292  23.659
15076DT     BB197963  46.803  63.093  23.077
15076DT     BB297964  46.739  63.445  23.120
15076DT     BB397965  46.887  63.556  23.026
15076DT     SC197966  47.059  63.501  23.216
15076DT     SC297967  47.101  63.679  23.329
15076DT     SC397968  47.274  63.405  23.336
15077DA     BB197969  46.516  63.703  22.891
15077DA     BB297970  46.724  63.990  22.985
15077DA     BB397971  46.880  64.019  22.843
15077DA     SC197972  47.084  63.837  22.993
15077DA     SC297973  47.296  63.865  23.121
15077DA     SC397974  47.334  63.616  23.073
15077DA     SC497975  47.090  63.682  22.951
15078DT     BB197976  46.882  64.186  22.720
15078DT     BB297977  47.157  64.357  22.880
15078DT     BB397978  47.327  64.343  22.763
15078DT     SC197979  47.362  64.092  22.831
15078DT     SC297980  47.536  64.075  22.957
15078DT     SC397981  47.383  63.829  22.811
15079DG     BB197982  47.276  64.751  22.777
15079DG     BB297983  47.614  64.662  22.870
15079DG     BB397984  47.723  64.631  22.706
15079DG     SC197985  47.657  64.332  22.689
15079DG     SC297986  47.850  64.107  22.729
15079DG     SC397987  47.590  64.007  22.629
15079DG     SC497988  47.527  64.286  22.608
15080DC     BB197989  47.925  64.761  22.613
15080DC     BB297990  48.191  64.535  22.703
15080DC     BB397991  48.270  64.447  22.533
15080DC     SC197992  48.061  64.290  22.507
15080DC     SC297993  48.119  64.087  22.549
15080DC     SC397994  47.844  64.180  22.405
15081DA     BB197995  48.619  64.615  22.701
15081DA     BB297996  48.692  64.262  22.633
15081DA     BB397997  48.735  64.234  22.426
15081DA     SC197998  48.439  64.175  22.348
15081DA     SC297999  48.304  63.980  22.272
15081DA     SC398000  48.137  64.155  22.186
15081DA     SC498001  48.349  64.299  22.300
15082DT     BB198002  48.932  64.174  22.352
15082DT     BB298003  48.843  63.830  22.293
15082DT     BB398004  48.838  63.792  22.089
15082DT     SC198005  48.610  63.920  22.064
15082DT     SC298006  48.454  63.780  22.019
15082DT     SC398007  48.435  64.101  21.986
15083DT     BB198008  49.060  63.645  22.122
15083DT     BB298009  48.815  63.417  21.987
15083DT     BB398010  48.815  63.428  21.780
15083DT     SC198011  48.689  63.658  21.785
15083DT     SC298012  48.489  63.631  21.711
15083DT     SC398013  48.640  63.915  21.752
15084DT     BB198014  48.915  63.188  21.803
15084DT     BB298015  48.614  63.149  21.607
15084DT     BB398016  48.652  63.198  21.410
15084DT     SC198017  48.657  63.454  21.466
15084DT     SC298018  48.484  63.550  21.380
15084DT     SC398019  48.747  63.701  21.495
15085DT     BB198020  48.617  62.942  21.376
15085DT     BB298021  48.380  63.100  21.155
15085DT     BB398022  48.474  63.160  20.981
15085DT     SC198023  48.588  63.362  21.104
15085DT     SC298024  48.502  63.546  21.034
15085DT     SC398025  48.777  63.517  21.204
15086DA     BB198026  48.132  62.939  20.874
15086DA     BB298027  48.140  63.243  20.668
15086DA     BB398028  48.297  63.230  20.524
15086DA     SC198029  48.510  63.364  20.707
15086DA     SC298030  48.636  63.579  20.718
15086DA     SC398031  48.800  63.452  20.868
15086DA     SC498032  48.601  63.267  20.798
15087DA     BB198033  48.065  63.287  20.288
15087DA     BB298034  48.254  63.586  20.192
15087DA     BB398035  48.424  63.532  20.074
15087DA     SC198036  48.615  63.505  20.318
15087DA     SC298037  48.811  63.626  20.414
15087DA     SC398038  48.860  63.407  20.538
15087DA     SC498039  48.629  63.359  20.385
15088DT     BB198040  48.473  63.566  19.831
15088DT     BB298041  48.718  63.827  19.875
15088DT     BB398042  48.904  63.760  19.816
15088DT     SC198043  48.929  63.614  20.033
15088DT     SC298044  49.081  63.699  20.159
15088DT     SC398045  48.955  63.402  20.188
15089DA     BB198046  48.889  64.092  19.549
15089DA     BB298047  49.208  64.119  19.729
15089DA     BB398048  49.355  63.993  19.638
15089DA     SC198049  49.288  63.746  19.816
15089DA     SC298050  49.396  63.617  20.000
15089DA     SC398051  49.234  63.429  19.936
15089DA     SC498052  49.180  63.641  19.761
15090DT     BB198053  49.559  64.057  19.518
15090DT     BB298054  49.773  63.990  19.800
15090DT     BB398055  49.903  63.834  19.755
15090DT     SC198056  49.711  63.657  19.779
15090DT     SC298057  49.746  63.538  19.955
15090DT     SC398058  49.538  63.468  19.716
15091DA     BB198059  50.113  64.161  19.899
15091DA     BB298060  50.197  63.869  20.105
15091DA     BB398061  50.328  63.739  19.998
15091DA     SC198062  50.099  63.570  19.874
15091DA     SC298063  50.006  63.339  19.896
15091DA     SC398064  49.903  63.380  19.665
15091DA     SC498065  50.044  63.614  19.729
15092DA     BB198066  50.412  63.818  20.302
15092DA     BB298067  50.383  63.458  20.364
15092DA     BB398068  50.530  63.352  20.252
15092DA     SC198069  50.348  63.311  20.004
15092DA     SC298070  50.230  63.123  19.890
15092DA     SC398071  50.224  63.278  19.685
15092DA     SC498072  50.355  63.422  19.887
15093DT     BB198073  50.595  63.291  20.382
15093DT     BB298074  50.480  62.953  20.331
15093DT     BB398075  50.610  62.852  20.205
15093DT     SC198076  50.519  62.981  19.995
15093DT     SC298077  50.410  62.845  19.870
15093DT     SC398078  50.514  63.140  19.785
15094DC     BB198079  50.630  62.735  20.431
15094DC     BB298080  50.534  62.482  20.193
15094DC     BB398081  50.695  62.432  20.073
15094DC     SC198082  50.674  62.656  19.938
15094DC     SC298083  50.607  62.613  19.738
15094DC     SC398084  50.735  62.894  19.840
15095DT     BB198085  50.664  62.215  20.207
15095DT     BB298086  50.646  62.121  19.860
15095DT     BB398087  50.836  62.115  19.778
15095DT     SC198088  50.849  62.377  19.771
15095DT     SC298089  50.843  62.443  19.566
15095DT     SC398090  50.930  62.623  19.822
15096DA     BB198091  50.623  61.764  19.686
15096DA     BB298092  50.785  61.886  19.381
15096DA     BB398093  50.996  61.862  19.395
15096DA     SC198094  51.044  62.144  19.518
15096DA     SC298095  51.146  62.361  19.448
15096DA     SC398096  51.161  62.411  19.700
15096DA     SC498097  51.046  62.156  19.678
15097DC     BB198098  51.069  61.738  19.272
15097DC     BB298099  51.236  61.974  19.056
15097DC     BB398100  51.437  61.982  19.101
15097DC     SC198101  51.391  62.120  19.320
15097DC     SC298102  51.465  62.320  19.295
15097DC     SC398103  51.379  62.183  19.575
15098DC     BB198104  51.484  61.854  18.872
15098DC     BB298105  51.688  62.151  18.853
15098DC     BB398106  51.868  62.120  18.950
15098DC     SC198107  51.753  62.138  19.185
15098DC     SC298108  51.816  62.319  19.282
15098DC     SC398109  51.666  62.071  19.425
15099DT     BB198110  51.998  62.108  18.712
15099DT     BB298111  52.177  62.361  18.897
15099DT     BB398112  52.322  62.272  19.016
15099DT     SC198113  52.142  62.186  19.186
15099DT     SC298114  52.161  62.294  19.371
15099DT     SC398115  51.993  62.020  19.327
15100DA     BB198116  52.542  62.558  18.797
15100DA     BB298117  52.644  62.589  19.148
15100DA     BB398118  52.771  62.427  19.203
15100DA     SC198119  52.538  62.245  19.299
15100DA     SC298120  52.451  62.154  19.515
15100DA     SC398121  52.333  61.978  19.370
15100DA     SC498122  52.474  62.143  19.192
15101DA     BB198123  53.027  62.633  19.303
15101DA     BB298124  52.999  62.494  19.641
15101DA     BB398125  53.107  62.310  19.655
15101DA     SC198126  52.863  62.134  19.575
15101DA     SC298127  52.711  61.969  19.684
15101DA     SC398128  52.659  61.890  19.445
15101DA     SC498129  52.845  62.098  19.419
15102DC     BB198130  53.327  62.240  19.777
15102DC     BB298131  53.165  62.055  20.041
15102DC     BB398132  53.215  61.854  20.027
15102DC     SC198133  53.057  61.820  19.821
15102DC     SC298134  52.889  61.699  19.879
15102DC     SC398135  52.978  61.768  19.575
15103DT     BB198136  53.419  61.816  20.248
15103DT     BB298137  53.165  61.573  20.330
15103DT     BB398138  53.220  61.387  20.258
15103DT     SC198139  53.163  61.456  20.012
15103DT     SC298140  52.988  61.349  19.946
15103DT     SC398141  53.195  61.511  19.756
15104DT     BB198142  53.291  61.267  20.510
15104DT     BB298143  53.029  61.054  20.383
15104DT     BB398144  53.111  60.896  20.278
15104DT     SC198145  53.170  61.050  20.074
15104DT     SC298146  53.044  61.000  19.907
15104DT     SC398147  53.313  61.181  19.895
15105DT     BB198148  53.042  60.720  20.477
15105DT     BB298149  52.871  60.598  20.184
15105DT     BB398150  52.992  60.466  20.081
15105DT     SC198151  53.140  60.663  19.989
15105DT     SC298152  53.108  60.684  19.777
15105DT     SC398153  53.351  60.816  19.947
15106DG     BB198154  52.637  60.293  20.176
15106DG     BB298155  52.706  60.274  19.821
15106DG     BB398156  52.841  60.133  19.786
15106DG     SC198157  53.081  60.320  19.815
15106DG     SC298158  53.269  60.400  19.596
15106DG     SC398159  53.368  60.492  19.860
15106DG     SC498160  53.146  60.341  19.960
15107DG     BB198161  52.607  60.026  19.592
15107DG     BB298162  52.844  60.078  19.324
15107DG     BB398163  52.976  59.929  19.319
15107DG     SC198164  53.173  60.064  19.510
15107DG     SC298165  53.446  60.163  19.439
15107DG     SC398166  53.402  60.174  19.732
15107DG     SC498167  53.157  60.041  19.668
15108DA     BB198168  52.883  59.937  18.988
15108DA     BB298169  53.234  59.988  18.896
15108DA     BB398170  53.346  59.809  18.928
15108DA     SC198171  53.425  59.883  19.220
15108DA     SC298172  53.631  59.948  19.345
15108DA     SC398173  53.502  59.874  19.554
15108DA     SC498174  53.329  59.830  19.338
15109DA     BB198175  53.418  59.888  18.619
15109DA     BB298176  53.768  59.900  18.727
15109DA     BB398177  53.839  59.703  18.767
15109DA     SC198178  53.759  59.708  19.068
15109DA     SC298179  53.873  59.716  19.289
15109DA     SC398180  53.651  59.626  19.383
15109DA     SC498181  53.614  59.650  19.107
15110DT     BB198182  53.980  59.634  18.648
15110DT     BB298183  54.254  59.651  18.882
15110DT     BB398184  54.297  59.462  18.955
15110DT     SC198185  54.084  59.465  19.109
15110DT     SC298186  54.144  59.478  19.315
15110DT     SC398187  53.849  59.398  19.208
15111DA     BB198188  54.660  59.617  18.815
15111DA     BB298189  54.721  59.477  19.149
15111DA     BB398190  54.721  59.264  19.141
15111DA     SC198191  54.416  59.237  19.198
15111DA     SC298192  54.269  59.157  19.383
15111DA     SC398193  54.088  59.137  19.203
15111DA     SC498194  54.317  59.230  19.071
15112DC     BB198195  54.891  59.173  19.179
15112DC     BB298196  54.802  59.047  19.505
15112DC     BB398197  54.756  58.845  19.493
15112DC     SC198198  54.524  58.898  19.382
15112DC     SC298199  54.366  58.850  19.520
15112DC     SC398200  54.331  58.904  19.202
15113DA     BB198201  55.041  58.887  19.799
15113DA     BB298202  54.765  58.683  19.928
15113DA     BB398203  54.770  58.488  19.841
15113DA     SC198204  54.585  58.565  19.603
15113DA     SC298205  54.353  58.515  19.525
15113DA     SC398206  54.436  58.591  19.295
15113DA     SC498207  54.656  58.614  19.467
15114DA     BB198208  54.766  58.403  20.159
15114DA     BB298209  54.449  58.232  20.088
15114DA     BB398210  54.484  58.052  19.979
15114DA     SC198211  54.461  58.187  19.700
15114DA     SC298212  54.302  58.186  19.507
15114DA     SC398213  54.500  58.276  19.371
15114DA     SC498214  54.596  58.241  19.632
15115DA     BB198215  54.307  57.925  20.226
15115DA     BB298216  54.065  57.819  19.973
15115DA     BB398217  54.139  57.650  19.865
15115DA     SC198218  54.277  57.821  19.645
15115DA     SC298219  54.245  57.870  19.402
15115DA     SC398220  54.491  57.943  19.405
15115DA     SC498221  54.432  57.860  19.667
15116DA     BB198222  53.849  57.525  19.958
15116DA     BB298223  53.771  57.494  19.601
15116DA     BB398224  53.879  57.330  19.516
15116DA     SC198225  54.124  57.503  19.434
15116DA     SC298226  54.229  57.588  19.225
15116DA     SC398227  54.441  57.618  19.367
15116DA     SC498228  54.246  57.513  19.539
15117DC     BB198229  53.778  57.163  19.447
15117DC     BB298230  53.814  57.232  19.095
15117DC     BB398231  53.956  57.106  19.012
15117DC     SC198232  54.152  57.240  19.123
15117DC     SC298233  54.263  57.343  18.970
15117DC     SC398234  54.360  57.295  19.276
15118DT     BB198235  53.765  56.956  18.880
15118DT     BB298236  53.986  57.071  18.619
15118DT     BB398237  54.142  56.937  18.594
15118DT     SC198238  54.258  57.020  18.814
15118DT     SC298239  54.438  57.126  18.764
15118DT     SC398240  54.357  57.017  19.059
15119DC     BB198241  54.040  56.844  18.356
15119DC     BB298242  54.370  56.963  18.273
15119DC     BB398243  54.509  56.812  18.301
15119DC     SC198244  54.497  56.838  18.562
15119DC     SC298245  54.682  56.921  18.634
15119DC     SC398246  54.453  56.780  18.815
15120DC     BB198247  54.538  56.788  18.032
15120DC     BB298248  54.868  56.868  18.155
15120DC     BB398249  54.967  56.695  18.211
15120DC     SC198250  54.822  56.673  18.429
15120DC     SC298251  54.946  56.712  18.601
15120DC     SC398252  54.652  56.576  18.605
15121DA     BB198253  55.208  56.923  17.957
15121DA     BB298254  55.402  56.838  18.256
15121DA     BB398255  55.454  56.631  18.254
15121DA     SC198256  55.200  56.541  18.408
15121DA     SC298257  55.144  56.450  18.634
15121DA     SC398258  54.926  56.369  18.524
15121DA     SC498259  55.072  56.498  18.322
15122DT     BB198260  55.641  56.602  18.241
15122DT     BB298261  55.692  56.504  18.585
15122DT     BB398262  55.710  56.298  18.598
15122DT     SC198263  55.452  56.265  18.561
15122DT     SC298264  55.362  56.195  18.743
15122DT     SC398265  55.225  56.191  18.450
15123DT     BB198266  55.964  56.347  18.656
15123DT     BB298267  55.838  56.160  18.937
15123DT     BB398268  55.845  55.957  18.896
15123DT     SC198269  55.639  55.974  18.735
15123DT     SC298270  55.471  55.874  18.824
15123DT     SC398271  55.495  55.965  18.514
15124DA     BB198272  56.019  56.039  19.268
15124DA     BB298273  55.786  55.758  19.309
15124DA     BB398274  55.864  55.583  19.217
15124DA     SC198275  55.731  55.638  18.941
15124DA     SC298276  55.548  55.541  18.801
15124DA     SC398277  55.661  55.662  18.606
15124DA     SC498278  55.817  55.720  18.832
15125DC     BB198279  55.904  55.444  19.339
15125DC     BB298280  55.630  55.225  19.253
15125DC     BB398281  55.698  55.072  19.131
15125DC     SC198282  55.716  55.234  18.925
15125DC     SC298283  55.565  55.182  18.780
15125DC     SC398284  55.822  55.373  18.728
15126DA     BB198285  55.474  54.914  19.448
15126DA     BB298286  55.359  54.758  19.137
15126DA     BB398287  55.506  54.622  19.063
15126DA     SC198288  55.649  54.836  18.888
15126DA     SC298289  55.679  54.886  18.646
15126DA     SC398290  55.881  55.025  18.720
15126DA     SC498291  55.772  54.916  18.954
15127DT     BB198292  55.452  54.441  19.064
15127DT     BB298293  55.413  54.399  18.708
15127DT     BB398294  55.577  54.301  18.630
15127DT     SC198295  55.725  54.517  18.651
15127DT     SC298296  55.769  54.592  18.455
15127DT     SC398297  55.918  54.679  18.729
15128DT     BB198298  55.423  54.083  18.595
15128DT     BB298299  55.564  54.145  18.269
15128DT     BB398300  55.750  54.055  18.254
15128DT     SC198301  55.859  54.240  18.405
15128DT     SC298302  55.990  54.361  18.285
15128DT     SC398303  55.983  54.353  18.608
15129DT     BB198304  55.651  53.858  18.090
15129DT     BB298305  55.930  53.992  17.905
15129DT     BB398306  56.104  53.894  17.959
15129DT     SC198307  56.115  54.022  18.188
15129DT     SC298308  56.280  54.160  18.185
15129DT     SC398309  56.115  54.067  18.448
15130DT     BB198310  56.127  53.734  17.725
15130DT     BB298311  56.449  53.894  17.744
15130DT     BB398312  56.580  53.776  17.852
15130DT     SC198313  56.465  53.841  18.079
15130DT     SC298314  56.598  53.965  18.193
15130DT     SC398315  56.332  53.818  18.305
15131DA     BB198316  56.812  53.800  17.496
15131DA     BB298317  57.042  53.874  17.772
15131DA     BB398318  57.107  53.693  17.865
15131DA     SC198319  56.877  53.690  18.074
15131DA     SC298320  56.850  53.721  18.320
15131DA     SC398321  56.628  53.597  18.292
15131DA     SC498322  56.743  53.609  18.036
15132DT     BB198323  57.330  53.581  17.866
15132DT     BB298324  57.415  53.674  18.204
15132DT     BB398325  57.426  53.505  18.323
15132DT     SC198326  57.165  53.482  18.329
15132DT     SC298327  57.094  53.526  18.527
15132DT     SC398328  56.924  53.381  18.292
15133DA     BB198329  57.805  53.676  18.387
15133DA     BB298330  57.659  53.613  18.718
15133DA     BB398331  57.679  53.407  18.769
15133DA     SC198332  57.405  53.324  18.646
15133DA     SC298333  57.182  53.248  18.726
15133DA     SC398334  57.150  53.158  18.488
15133DA     SC498335  57.405  53.274  18.493
15134DT     BB198336  57.802  53.346  18.931
15134DT     BB298337  57.530  53.286  19.161
15134DT     BB398338  57.509  53.083  19.194
15134DT     SC198339  57.400  53.048  18.958
15134DT     SC298340  57.192  52.999  18.983
15134DT     SC398341  57.365  52.964  18.711
15135DT     BB198342  57.600  53.133  19.439
15135DT     BB298343  57.273  52.989  19.487
15135DT     BB398344  57.286  52.782  19.486
15135DT     SC198345  57.318  52.778  19.225
15135DT     SC298346  57.143  52.694  19.133
15135DT     SC398347  57.430  52.739  18.990
15136DC     BB198348  57.222  52.825  19.733
15136DC     BB298349  56.963  52.612  19.599
15136DC     BB398350  57.029  52.416  19.592
15136DC     SC198351  57.182  52.466  19.385
15136DC     SC298352  57.102  52.367  19.212
15136DC     SC398353  57.399  52.493  19.238
15137DA     BB198354  56.641  52.468  19.753
15137DA     BB298355  56.636  52.189  19.515
15137DA     BB398356  56.752  52.026  19.590
15137DA     SC198357  57.016  52.120  19.454
15137DA     SC298358  57.164  52.046  19.269
15137DA     SC398359  57.344  52.190  19.381
15137DA     SC498360  57.114  52.214  19.540
15138DT     BB198361  56.646  51.883  19.623
15138DT     BB298362  56.765  51.665  19.360
15138DT     BB398363  56.909  51.537  19.435
15138DT     SC198364  57.088  51.729  19.442
15138DT     SC298365  57.238  51.693  19.292
15138DT     SC398366  57.261  51.903  19.537
15139DA     BB198367  56.633  51.273  19.255
15139DA     BB298368  56.968  51.160  19.158
15139DA     BB398369  57.064  51.065  19.323
15139DA     SC198370  57.196  51.327  19.428
15139DA     SC298371  57.425  51.424  19.444
15139DA     SC398372  57.325  51.577  19.625
15139DA     SC498373  57.116  51.411  19.539
15140DT     BB198374  57.122  50.820  19.374
15140DT     BB298375  57.479  50.847  19.332
15140DT     BB398376  57.574  50.819  19.514
15140DT     SC198377  57.503  51.057  19.597
15140DT     SC298378  57.677  51.183  19.610
15140DT     SC398379  57.387  51.246  19.740
15141DC     BB198380  57.690  50.509  19.547
15141DC     BB298381  57.984  50.704  19.621
15141DC     BB398382  58.015  50.710  19.825
15141DC     SC198383  57.818  50.881  19.858
15141DC     SC298384  57.898  51.072  19.914
15141DC     SC398385  57.588  50.982  19.938
15142DT     BB198386  58.250  50.503  19.910
15142DT     BB298387  58.374  50.818  20.035
15142DT     BB398388  58.344  50.830  20.240
15142DT     SC198389  58.087  50.872  20.207
15142DT     SC298390  58.041  51.075  20.263
15142DT     SC398391  57.826  50.836  20.218
15143DT     BB198392  58.619  50.789  20.336
15143DT     BB298393  58.529  51.116  20.461
15143DT     BB398394  58.461  51.101  20.656
15143DT     SC198395  58.232  51.000  20.576
15143DT     SC298396  58.075  51.143  20.610
15143DT     SC398397  58.034  50.829  20.544
15144DA     BB198398  58.758  51.392  20.636
15144DA     BB298399  58.464  51.542  20.796
15144DA     BB398400  58.444  51.470  20.996
15144DA     SC198401  58.264  51.229  20.917
15144DA     SC298402  58.026  51.159  20.946
15144DA     SC398403  58.112  50.921  20.898
15144DA     SC498404  58.337  51.089  20.887
15145DA     BB198405  58.431  51.793  21.011
15145DA     BB298406  58.095  51.747  21.151
15145DA     BB398407  58.107  51.668  21.349
15145DA     SC198408  58.097  51.371  21.257
15145DA     SC298409  57.937  51.180  21.269
15145DA     SC398410  58.143  51.032  21.226
15145DA     SC498411  58.237  51.297  21.231
15146DG     BB198412  57.954  51.931  21.391
15146DG     BB298413  57.693  51.704  21.497
15146DG     BB398414  57.731  51.639  21.682
15146DG     SC198415  57.894  51.397  21.589
15146DG     SC298416  57.816  51.111  21.622
15146DG     SC398417  58.095  51.134  21.524
15146DG     SC498418  58.052  51.414  21.566
15147DC     BB198419  57.592  51.685  21.840
15147DC     BB298420  57.434  51.366  21.898
15147DC     BB398421  57.515  51.277  22.067
15147DC     SC198422  57.735  51.215  21.939
15147DC     SC298423  57.745  51.002  21.913
15147DC     SC398424  57.991  51.210  21.873
15148DA     BB198425  57.100  51.276  22.132
15148DA     BB298426  57.224  50.939  22.207
15148DA     BB398427  57.325  50.937  22.395
15148DA     SC198428  57.604  51.000  22.273
15148DA     SC298429  57.821  50.881  22.237
15148DA     SC398430  57.922  51.116  22.215
15148DA     SC498431  57.648  51.154  22.263
15149DT     BB198432  57.248  50.832  22.570
15149DT     BB298433  57.483  50.558  22.558
15149DT     BB398434  57.618  50.574  22.714
15149DT     SC198435  57.745  50.770  22.596
15149DT     SC298436  57.939  50.701  22.533
15149DT     SC398437  57.843  51.010  22.550
15150DG     BB198438  57.436  50.212  22.763
15150DG     BB298439  57.796  50.178  22.756
15150DG     BB398440  57.872  50.224  22.933
15150DG     SC198441  57.906  50.521  22.869
15150DG     SC298442  58.166  50.666  22.842
15150DG     SC398443  57.939  50.856  22.840
15150DG     SC498444  57.785  50.622  22.898
15151DA     BB198445  58.029  49.923  22.899
15151DA     BB298446  58.354  50.091  22.919
15151DA     BB398447  58.397  50.147  23.120
15151DA     SC198448  58.266  50.428  23.096
15151DA     SC298449  58.339  50.666  23.092
15151DA     SC398450  58.097  50.721  23.156
15151DA     SC498451  58.111  50.442  23.137
15152DA     BB198452  58.655  49.986  23.006
15152DA     BB298453  58.843  50.293  23.078
15152DA     BB398454  58.858  50.322  23.289
15152DA     SC198455  58.598  50.492  23.308
15152DA     SC298456  58.535  50.729  23.353
15152DA     SC398457  58.303  50.635  23.409
15152DA     SC498458  58.461  50.414  23.341
15153DA     BB198459  59.166  50.346  23.180
15153DA     BB298460  59.165  50.683  23.326
15153DA     BB398461  59.165  50.671  23.539
15153DA     SC198462  58.855  50.674  23.563
15153DA     SC298463  58.678  50.829  23.644
15153DA     SC398464  58.530  50.620  23.659
15153DA     SC498465  58.780  50.532  23.567
15154DT     BB198466  59.326  50.737  23.630
15154DT     BB298467  59.184  51.040  23.766
15154DT     BB398468  59.143  51.014  23.967
15154DT     SC198469  58.934  50.865  23.914
15154DT     SC298470  58.755  50.972  23.967
15154DT     SC398471  58.775  50.655  23.904
15155DT     BB198472  59.355  51.175  24.041
15155DT     BB298473  59.070  51.325  24.203
15155DT     BB398474  59.040  51.239  24.389
15155DT     SC198475  58.942  51.021  24.281
15155DT     SC298476  58.732  51.009  24.324
15155DT     SC398477  58.917  50.767  24.212
15156DC     BB198478  59.134  51.462  24.524
15156DC     BB298479  58.803  51.410  24.658
15156DC     BB398480  58.812  51.283  24.821
15156DC     SC198481  58.849  51.075  24.666
15156DC     SC298482  58.674  50.950  24.671
15156DC     SC398483  58.965  50.865  24.556
15157DT     BB198484  58.762  51.490  24.994
15157DT     BB298485  58.498  51.253  25.060
15157DT     BB398486  58.560  51.116  25.203
15157DT     SC198487  58.714  50.992  25.031
15157DT     SC298488  58.631  50.798  24.988
15157DT     SC398489  58.931  50.897  24.916
15158DA     BB198490  58.188  51.275  25.310
15158DA     BB298491  58.168  50.910  25.335
15158DA     BB398492  58.278  50.841  25.505
15158DA     SC198493  58.543  50.803  25.347
15158DA     SC298494  58.686  50.615  25.269
15158DA     SC398495  58.873  50.790  25.252
15158DA     SC498496  58.646  50.927  25.345
15159DA     BB198497  57.983  50.705  25.533
15159DA     BB298498  58.159  50.383  25.525
15159DA     BB398499  58.269  50.354  25.706
15159DA     SC198500  58.529  50.485  25.597
15159DA     SC298501  58.759  50.412  25.531
15159DA     SC398502  58.823  50.659  25.562
15159DA     SC498503  58.550  50.642  25.623
15160DT     BB198504  58.202  50.213  25.795
15160DT     BB298505  58.476  49.985  25.744
15160DT     BB398506  58.603  49.988  25.907
15160DT     SC198507  58.702  50.221  25.836
15160DT     SC298508  58.905  50.195  25.771
15160DT     SC398509  58.763  50.477  25.843
15161DT     BB198510  58.511  49.745  25.975
15161DT     BB298511  58.869  49.704  25.965
15161DT     BB398512  58.952  49.761  26.147
15161DT     SC198513  58.916  50.015  26.092
15161DT     SC298514  59.108  50.109  26.059
15161DT     SC398515  58.827  50.263  26.109
15162DC     BB198516  59.000  49.501  26.222
15162DC     BB298517  59.321  49.664  26.258
15162DC     BB398518  59.336  49.749  26.446
15162DC     SC198519  59.174  49.945  26.379
15162DC     SC298520  59.285  50.128  26.367
15162DC     SC398521  58.962  50.102  26.377
15163DA     BB198522  59.680  49.506  26.437
15163DA     BB298523  59.786  49.838  26.550
15163DA     BB398524  59.732  49.868  26.754
15163DA     SC198525  59.454  49.992  26.688
15163DA     SC298526  59.344  50.215  26.701
15163DA     SC398527  59.123  50.084  26.689
15163DA     SC498528  59.328  49.893  26.680
15164DG     BB198529  60.038  49.899  26.832
15164DG     BB298530  59.941  50.239  26.910
15164DG     BB398531  59.874  50.249  27.097
15164DG     SC198532  59.583  50.190  27.023
15164DG     SC298533  59.354  50.380  27.046
15164DG     SC398534  59.259  50.108  26.980
15164DG     SC498535  59.534  50.038  27.017
15165DT     BB198536  59.976  50.374  27.256
15165DT     BB298537  59.750  50.655  27.274
15165DT     BB398538  59.637  50.644  27.447
15165DT     SC198539  59.489  50.451  27.348
15165DT     SC298540  59.291  50.526  27.311
15165DT     SC398541  59.379  50.214  27.317
15166DG     BB198542  59.835  50.999  27.434
15166DG     BB298543  59.479  51.045  27.482
15166DG     BB398544  59.430  51.003  27.670
15166DG     SC198545  59.377  50.706  27.616
15166DG     SC298546  59.112  50.569  27.631
15166DG     SC398547  59.331  50.373  27.597
15166DG     SC498548  59.499  50.602  27.628
15167DA     BB198549  59.276  51.309  27.637
15167DA     BB298550  58.956  51.151  27.721
15167DA     BB398551  58.951  51.097  27.927
15167DA     SC198552  59.066  50.812  27.881
15167DA     SC298553  58.986  50.576  27.893
15167DA     SC398554  59.234  50.513  27.909
15167DA     SC498555  59.226  50.793  27.891
15168DG     BB198556  58.707  51.286  27.908
15168DG     BB298557  58.529  50.986  28.003
15168DG     BB398558  58.553  50.951  28.197
15168DG     SC198559  58.805  50.782  28.163
15168DG     SC298560  58.829  50.490  28.220
15168DG     SC398561  59.094  50.608  28.163
15168DG     SC498562  58.948  50.855  28.161
15169DC     BB198563  58.381  50.953  28.331
15169DC     BB298564  58.340  50.603  28.409
15169DC     BB398565  58.420  50.563  28.596
15169DC     SC198566  58.665  50.578  28.503
15169DC     SC298567  58.753  50.382  28.504
15169DC     SC398568  58.912  50.662  28.468
15170DA     BB198569  58.026  50.415  28.632
15170DA     BB298570  58.251  50.155  28.758
15170DA     BB398571  58.324  50.207  28.952
15170DA     SC198572  58.575  50.356  28.844
15170DA     SC298573  58.822  50.322  28.840
15170DA     SC398574  58.836  50.574  28.797
15170DA     SC498575  58.563  50.514  28.819
15171DT     BB198576  58.275  50.104  29.165
15171DT     BB298577  58.592  49.935  29.198
15171DT     BB398578  58.700  50.017  29.354
15171DT     SC198579  58.758  50.230  29.213
15171DT     SC298580  58.968  50.229  29.165
15171DT     SC398581  58.767  50.483  29.136
15172DG     BB198582  58.661  49.631  29.492
15172DG     BB298583  59.009  49.728  29.484
15172DG     BB398584  59.056  49.827  29.650
15172DG     SC198585  58.983  50.102  29.536
15172DG     SC298586  59.174  50.325  29.481
15172DG     SC398587  58.895  50.416  29.450
15172DG     SC498588  58.833  50.155  29.550
15173DA     BB198589  59.320  49.607  29.702
15173DA     BB298590  59.558  49.884  29.671
15173DA     BB398591  59.570  49.993  29.854
15173DA     SC198592  59.345  50.194  29.777
15173DA     SC298593  59.326  50.435  29.719
15173DA     SC398594  59.078  50.410  29.780
15173DA     SC498595  59.195  50.158  29.821
15174DT     BB198596  59.745  49.988  29.955
15174DT     BB298597  59.851  50.321  29.864
15174DT     BB398598  59.831  50.448  30.026
15174DT     SC198599  59.570  50.456  29.997
15174DT     SC298600  59.511  50.652  29.929
15174DT     SC398601  59.313  50.426  30.050
15175DT     BB198602  60.098  50.452  30.039
15175DT     BB298603  60.002  50.797  29.995
15175DT     BB398604  59.957  50.882  30.178
15175DT     SC198605  59.727  50.754  30.189
15175DT     SC298606  59.566  50.895  30.168
15175DT     SC398607  59.539  50.590  30.272
15176DC     BB198608  60.182  51.022  30.151
15176DC     BB298609  59.921  51.269  30.190
15176DC     BB398610  59.882  51.299  30.391
15176DC     SC198611  59.754  51.071  30.409
15176DC     SC298612  59.545  51.109  30.438
15176DC     SC398613  59.695  50.825  30.483
15177DA     BB198614  59.946  51.671  30.207
15177DA     BB298615  59.638  51.693  30.405
15177DA     BB398616  59.684  51.696  30.613
15177DA     SC198617  59.669  51.387  30.647
15177DA     SC298618  59.520  51.220  30.757
15177DA     SC398619  59.721  51.062  30.743
15177DA     SC498620  59.806  51.304  30.630
15178DT     BB198621  59.640  51.862  30.710
15178DT     BB298622  59.352  51.736  30.887
15178DT     BB398623  59.402  51.698  31.084
15178DT     SC198624  59.534  51.481  31.017
15178DT     SC298625  59.427  51.308  31.088
15178DT     SC398626  59.734  51.313  30.984
15179DG     BB198627  59.091  51.960  31.079
15179DG     BB298628  59.019  51.673  31.287
15179DG     BB398629  59.113  51.691  31.462
15179DG     SC198630  59.368  51.550  31.367
15179DG     SC298631  59.468  51.286  31.464
15179DG     SC398632  59.669  51.418  31.292
15179DG     SC498633  59.484  51.636  31.299
15180DC     BB198634  58.993  51.697  31.632
15180DC     BB298635  59.047  51.370  31.774
15180DC     BB398636  59.183  51.382  31.930
15180DC     SC198637  59.383  51.412  31.763
15180DC     SC298638  59.506  51.235  31.768
15180DC     SC398639  59.589  51.521  31.639
15181DG     BB198640  58.835  51.208  32.050
15181DG     BB298641  59.124  51.008  32.136
15181DG     BB398642  59.219  51.089  32.291
15181DG     SC198643  59.401  51.264  32.118
15181DG     SC298644  59.697  51.235  32.091
15181DG     SC398645  59.603  51.483  31.961
15181DG     SC498646  59.352  51.410  32.076
15182DG     BB198647  59.171  50.797  32.424
15182DG     BB298648  59.531  50.776  32.444
15182DG     BB398649  59.597  50.885  32.597
15182DG     SC198650  59.628  51.141  32.433
15182DG     SC298651  59.885  51.277  32.367
15182DG     SC398652  59.655  51.445  32.288
15182DG     SC498653  59.503  51.241  32.419
15183DT     BB198654  59.699  50.787  32.757
15183DT     BB298655  60.040  50.893  32.707
15183DT     BB398656  60.087  51.046  32.838
15183DT     SC198657  59.947  51.219  32.698
15183DT     SC298658  60.080  51.359  32.604
15183DT     SC398659  59.760  51.394  32.635
15184DT     BB198660  60.242  50.878  32.985
15184DT     BB298661  60.462  51.152  32.902
15184DT     BB398662  60.443  51.302  33.043
15184DT     SC198663  60.212  51.377  32.944
15184DT     SC298664  60.233  51.568  32.849
15184DT     SC398665  59.953  51.425  32.928
15185DC     BB198666  60.688  51.243  33.153
15185DC     BB298667  60.712  51.593  33.069
15185DC     BB398668  60.642  51.708  33.226
15185DC     SC198669  60.393  51.648  33.168
15185DC     SC298670  60.293  51.822  33.092
15185DC     SC398671  60.149  51.550  33.193
15186DA     BB198672  61.024  51.862  33.147
15186DA     BB298673  60.794  52.147  33.165
15186DA     BB398674  60.742  52.187  33.368
15186DA     SC198675  60.493  52.001  33.367
15186DA     SC298676  60.245  52.025  33.375
15186DA     SC398677  60.244  51.780  33.451
15186DA     SC498678  60.513  51.848  33.414
15187DT     BB198679  60.804  52.364  33.466
15187DT     BB298680  60.483  52.529  33.465
15187DT     BB398681  60.404  52.530  33.656
15187DT     SC198682  60.343  52.275  33.641
15187DT     SC298683  60.129  52.253  33.631
15187DT     SC398684  60.342  52.017  33.693
15188DT     BB198685  60.452  52.800  33.689
15188DT     BB298686  60.098  52.767  33.747
15188DT     BB398687  60.062  52.726  33.947
15188DT     SC198688  60.145  52.478  33.919
15188DT     SC298689  59.977  52.345  33.939
15188DT     SC398690  60.289  52.260  33.950
15189DT     BB198691  59.965  52.981  33.998
15189DT     BB298692  59.697  52.762  34.102
15189DT     BB398693  59.722  52.710  34.301
15189DT     SC198694  59.917  52.545  34.242
15189DT     SC298695  59.852  52.343  34.273
15189DT     SC398696  60.159  52.439  34.233
15190DT     BB198697  59.514  52.873  34.391
15190DT     BB298698  59.424  52.545  34.510
15190DT     BB398699  59.504  52.514  34.698
15190DT     SC198700  59.745  52.480  34.599
15190DT     SC298701  59.803  52.274  34.621
15190DT     SC398702  60.001  52.521  34.549
15191DA     BB198703  59.095  52.432  34.744
15191DA     BB298704  59.280  52.150  34.888
15191DA     BB398705  59.361  52.204  35.079
15191DA     SC198706  59.631  52.306  34.963
15191DA     SC298707  59.870  52.236  34.963
15191DA     SC398708  59.920  52.480  34.902
15191DA     SC498709  59.642  52.463  34.927
15192DA     BB198710  59.199  51.933  35.172
15192DA     BB298711  59.525  51.794  35.266
15192DA     BB398712  59.592  51.880  35.450
15192DA     SC198713  59.745  52.114  35.314
15192DA     SC298714  59.981  52.185  35.279
15192DA     SC398715  59.884  52.418  35.237
15192DA     SC498716  59.665  52.252  35.292
15193DA     BB198717  59.616  51.562  35.531
15193DA     BB298718  59.975  51.621  35.575
15193DA     BB398719  60.011  51.725  35.758
15193DA     SC198720  59.994  52.007  35.628
15193DA     SC298721  60.148  52.196  35.575
15193DA     SC398722  59.936  52.340  35.566
15193DA     SC498723  59.850  52.080  35.629
15194DA     BB198724  60.213  51.471  35.808
15194DA     BB298725  60.487  51.714  35.818
15194DA     BB398726  60.488  51.817  36.004
15194DA     SC198727  60.303  52.047  35.905
15194DA     SC298728  60.323  52.290  35.853
15194DA     SC398729  60.068  52.296  35.881
15194DA     SC498730  60.145  52.031  35.928
15195DG     BB198731  60.772  51.694  36.035
15195DG     BB298732  60.874  52.041  36.017
15195DG     BB398733  60.857  52.126  36.196
15195DG     SC198734  60.568  52.216  36.154
15195DG     SC298735  60.474  52.499  36.132
15195DG     SC398736  60.245  52.313  36.150
15195DG     SC498737  60.449  52.117  36.193
15196DT     BB198738  61.036  52.206  36.298
15196DT     BB298739  60.989  52.560  36.249
15196DT     BB398740  60.924  52.648  36.425
15196DT     SC198741  60.683  52.549  36.394
15196DT     SC298742  60.546  52.708  36.350
15196DT     SC398743  60.465  52.408  36.439
15197DA     BB198744  61.250  52.856  36.264
15197DA     BB298745  60.984  53.096  36.339
15197DA     BB398746  60.963  53.121  36.550
15197DA     SC198747  60.751  52.896  36.580
15197DA     SC298748  60.508  52.877  36.631
15197DA     SC398749  60.560  52.633  36.692
15197DA     SC498750  60.804  52.748  36.614
15198DA     BB198751  60.989  53.416  36.417
15198DA     BB298752  60.658  53.480  36.562
15198DA     BB398753  60.671  53.490  36.774
15198DA     SC198754  60.618  53.186  36.816
15198DA     SC298755  60.436  53.042  36.907
15198DA     SC398756  60.618  52.863  36.931
15198DA     SC498757  60.746  53.089  36.825
15199DC     BB198758  60.622  53.647  36.805
15199DC     BB298759  60.301  53.567  36.951
15199DC     BB398760  60.320  53.546  37.156
15199DC     SC198761  60.436  53.312  37.129
15199DC     SC298762  60.304  53.158  37.200
15199DC     SC398763  60.620  53.124  37.141
15200DA     BB198764  59.991  53.782  37.031
15200DA     BB298765  59.881  53.551  37.293
15200DA     BB398766  59.975  53.599  37.479
15200DA     SC198767  60.218  53.411  37.433
15200DA     SC298768  60.307  53.198  37.526
15200DA     SC398769  60.531  53.270  37.425
15200DA     SC498770  60.349  53.474  37.363
15201DT     BB198771  59.852  53.653  37.600
15201DT     BB298772  59.868  53.373  37.826
15201DT     BB398773  59.998  53.415  37.981
15201DT     SC198774  60.207  53.383  37.827
15201DT     SC298775  60.313  53.204  37.885
15201DT     SC398776  60.427  53.438  37.692
15202DT     BB198777  59.789  53.445  38.151
15202DT     BB298778  60.005  53.210  38.319
15202DT     BB398779  60.150  53.311  38.426
15202DT     SC198780  60.281  53.371  38.207
15202DT     SC298781  60.466  53.261  38.203
15202DT     SC398782  60.391  53.514  38.015
15203DG     BB198783  59.963  53.113  38.736
15203DG     BB298784  60.321  53.065  38.755
15203DG     BB398785  60.406  53.222  38.843
15203DG     SC198786  60.447  53.376  38.581
15203DG     SC298787  60.710  53.442  38.456
15203DG     SC398788  60.490  53.581  38.317
15203DG     SC498789  60.330  53.472  38.528
15204DG     BB198790  60.548  53.071  39.121
15204DG     BB298791  60.871  53.168  38.989
15204DG     BB398792  60.922  53.347  39.059
15204DG     SC198793  60.790  53.501  38.831
15204DG     SC298794  60.932  53.663  38.623
15204DG     SC398795  60.640  53.704  38.607
15204DG     SC498796  60.636  53.543  38.844
15205DC     BB198797  61.116  53.419  39.217
15205DC     BB298798  61.340  53.564  38.974
15205DC     BB398799  61.351  53.769  39.002
15205DC     SC198800  61.113  53.804  38.897
15205DC     SC298801  61.134  53.903  38.707
15205DC     SC398802  60.859  53.869  38.875
15206DT     BB198803  61.611  53.773  39.117
15206DT     BB298804  61.640  53.985  38.827
15206DT     BB398805  61.602  54.182  38.879
15206DT     SC198806  61.344  54.135  38.896
15206DT     SC298807  61.243  54.235  38.735
15206DT     SC398808  61.103  54.111  38.999
15207DC     BB198809  61.868  54.252  38.854
15207DC     BB298810  61.695  54.465  38.620
15207DC     BB398811  61.635  54.640  38.714
15207DC     SC198812  61.441  54.515  38.839
15207DC     SC298813  61.252  54.580  38.760
15207DC     SC398814  61.297  54.416  39.036
15208DT     BB198815  61.821  54.765  38.568
15208DT     BB298816  61.508  54.921  38.478
15208DT     BB398817  61.462  55.070  38.613
15208DT     SC198818  61.393  54.894  38.795
15208DT     SC298819  61.181  54.902  38.826
15208DT     SC398820  61.395  54.756  39.020
15209DA     BB198821  61.430  55.202  38.216
15209DA     BB298822  61.123  55.292  38.395
15209DA     BB398823  61.161  55.448  38.535
15209DA     SC198824  61.226  55.253  38.770
15209DA     SC298825  61.122  55.184  38.985
15209DA     SC398826  61.358  55.104  39.049
15209DA     SC498827  61.380  55.211  38.791
15210DC     BB198828  61.068  55.591  38.486
15210DC     BB298829  60.818  55.572  38.746
15210DC     BB398830  60.870  55.697  38.903
15210DC     SC198831  61.057  55.533  38.984
15210DC     SC298832  60.998  55.445  39.171
15210DC     SC398833  61.296  55.439  39.044
15211DG     BB198834  60.495  55.768  38.759
15211DG     BB298835  60.497  55.723  39.118
15211DG     BB398836  60.575  55.883  39.206
15211DG     SC198837  60.863  55.778  39.198
15211DG     SC298838  61.028  55.702  39.435
15211DG     SC398839  61.191  55.703  39.188
15211DG     SC498840  60.953  55.808  39.069
15212DA     BB198841  60.289  55.870  39.399
15212DA     BB298842  60.495  55.851  39.703
15212DA     BB398843  60.583  56.041  39.745
15212DA     SC198844  60.841  55.985  39.581
15212DA     SC298845  61.083  55.945  39.626
15212DA     SC398846  61.119  56.012  39.381
15212DA     SC498847  60.843  56.031  39.427
15213DG     BB198848  60.425  56.023  40.014
15213DG     BB298849  60.756  56.032  40.161
15213DG     BB398850  60.819  56.220  40.173
15213DG     SC198851  60.950  56.220  39.896
15213DG     SC298852  61.243  56.240  39.841
15213DG     SC398853  61.087  56.261  39.591
15213DG     SC498854  60.862  56.261  39.769
15214DA     BB198855  60.887  56.186  40.517
15214DA     BB298856  61.239  56.276  40.466
15214DA     BB398857  61.259  56.487  40.447
15214DA     SC198858  61.226  56.487  40.137
15214DA     SC298859  61.368  56.529  39.936
15214DA     SC398860  61.147  56.565  39.812
15214DA     SC498861  61.078  56.507  40.078
15215DA     BB198862  61.480  56.485  40.699
15215DA     BB298863  61.731  56.624  40.470
15215DA     BB398864  61.705  56.835  40.450
15215DA     SC198865  61.512  56.813  40.207
15215DA     SC298866  61.516  56.865  39.963
15215DA     SC398867  61.260  56.862  39.979
15215DA     SC498868  61.355  56.809  40.238
15216DA     BB198869  62.025  56.886  40.546
15216DA     BB298870  62.090  57.041  40.220
15216DA     BB398871  62.028  57.245  40.222
15216DA     SC198872  61.739  57.183  40.122
15216DA     SC298873  61.604  57.219  39.915
15216DA     SC398874  61.400  57.184  40.067
15216DA     SC498875  61.626  57.160  40.233
15217DT     BB198876  62.165  57.438  40.213
15217DT     BB298877  62.092  57.524  39.870
15217DT     BB398878  61.985  57.701  39.863
15217DT     SC198879  61.766  57.582  39.945
15217DT     SC298880  61.624  57.575  39.784
15217DT     SC398881  61.560  57.520  40.097
15218DA     BB198882  62.310  57.792  39.611
15218DA     BB298883  62.006  57.885  39.428
15218DA     BB398884  61.933  58.074  39.497
15218DA     SC198885  61.749  57.950  39.715
15218DA     SC298886  61.505  57.922  39.756
15218DA     SC398887  61.571  57.888  40.002
15218DA     SC498888  61.810  57.933  39.863
15219DA     BB198889  61.950  58.173  39.181
15219DA     BB298890  61.586  58.219  39.190
15219DA     BB398891  61.537  58.406  39.281
15219DA     SC198892  61.518  58.288  39.569
15219DA     SC298893  61.340  58.243  39.738
15219DA     SC398894  61.531  58.240  39.908
15219DA     SC498895  61.650  58.292  39.660
15220DA     BB198896  61.370  58.463  39.004
15220DA     BB298897  61.065  58.479  39.208
15220DA     BB398898  61.049  58.670  39.301
15220DA     SC198899  61.202  58.584  39.558
15220DA     SC298900  61.150  58.543  39.799
15220DA     SC398901  61.402  58.575  39.837
15220DA     SC498902  61.361  58.609  39.562
15221DT     BB198903  60.893  58.802  39.247
15221DT     BB298904  60.693  58.755  39.543
15221DT     BB398905  60.702  58.924  39.662
15221DT     SC198906  60.945  58.865  39.742
15221DT     SC298907  60.941  58.809  39.949
15221DT     SC398908  61.205  58.885  39.778
15222DT     BB198909  60.449  58.959  39.591
15222DT     BB298910  60.445  58.939  39.951
15222DT     BB398911  60.492  59.124  40.033
15222DT     SC198912  60.746  59.094  39.972
15222DT     SC298913  60.860  59.068  40.152
15222DT     SC398914  60.981  59.136  39.860
15223DA     BB198915  60.141  58.977  40.210
15223DA     BB298916  60.366  59.089  40.476
15223DA     BB398917  60.379  59.302  40.478
15223DA     SC198918  60.623  59.313  40.285
15223DA     SC298919  60.865  59.371  40.296
15223DA     SC398920  60.849  59.400  40.041
15223DA     SC498921  60.592  59.328  40.127
15224DA     BB198922  60.299  59.244  40.791
15224DA     BB298923  60.616  59.407  40.880
15224DA     BB398924  60.601  59.618  40.850
15224DA     SC198925  60.703  59.608  40.556
15224DA     SC298926  60.905  59.677  40.428
15224DA     SC398927  60.754  59.664  40.221
15224DA     SC498928  60.592  59.595  40.440
15225DC     BB198929  60.609  59.742  41.012
15225DC     BB298930  60.942  59.867  40.955
15225DC     BB398931  60.933  60.060  40.881
15225DC     SC198932  60.858  59.975  40.644
15225DC     SC298933  61.017  60.007  40.503
15225DC     SC398934  60.709  59.937  40.430
15226DT     BB198935  61.022  60.161  41.119
15226DT     BB298936  61.260  60.280  40.875
15226DT     BB398937  61.194  60.458  40.793
15226DT     SC198938  61.014  60.334  40.648
15226DT     SC298939  61.070  60.344  40.440
15226DT     SC398940  60.779  60.259  40.555
15227DT     BB198941  61.386  60.594  40.929
15227DT     BB298942  61.448  60.672  40.582
15227DT     BB398943  61.333  60.834  40.525
15227DT     SC198944  61.115  60.689  40.518
15227DT     SC298945  61.051  60.666  40.314
15227DT     SC398946  60.874  60.601  40.578
15228DA     BB198947  61.733  60.895  40.415
15228DA     BB298948  61.522  60.961  40.123
15228DA     BB398949  61.415  61.144  40.149
15228DA     SC198950  61.168  61.008  40.281
15228DA     SC298951  60.930  60.961  40.223
15228DA     SC398952  60.895  60.936  40.476
15228DA     SC498953  61.166  60.998  40.442
15229DA     BB198954  61.560  61.169  39.859
15229DA     BB298955  61.222  61.204  39.721
15229DA     BB398956  61.138  61.392  39.777
15229DA     SC198957  61.008  61.285  40.038
15229DA     SC298958  60.778  61.240  40.125
15229DA     SC398959  60.887  61.250  40.358
15229DA     SC498960  61.093  61.296  40.174
15230DA     BB198961  61.101  61.362  39.453
15230DA     BB298962  60.742  61.400  39.518
15230DA     BB398963  60.700  61.598  39.585
15230DA     SC198964  60.735  61.529  39.887
15230DA     SC298965  60.591  61.507  40.089
15230DA     SC398966  60.808  61.538  40.222
15230DA     SC498967  60.880  61.551  39.951
15231DG     BB198968  60.522  61.576  39.334
15231DG     BB298969  60.258  61.627  39.576
15231DG     BB398970  60.251  61.818  39.629
15231DG     SC198971  60.447  61.785  39.862
15231DG     SC298972  60.382  61.814  40.152
15231DG     SC398973  60.674  61.789  40.111
15231DG     SC498974  60.604  61.801  39.834
15232DT     BB198975  60.076  61.928  39.587
15232DT     BB298976  59.930  61.973  39.914
15232DT     BB398977  59.976  62.161  39.988
15232DT     SC198978  60.223  62.089  40.039
15232DT     SC298979  60.252  62.079  40.252
15232DT     SC398980  60.487  62.080  40.028
15233DT     BB198981  59.721  62.248  39.946
15233DT     BB298982  59.783  62.319  40.295
15233DT     BB398983  59.874  62.504  40.314
15233DT     SC198984  60.103  62.410  40.228
15233DT     SC298985  60.244  62.406  40.391
15233DT     SC398986  60.315  62.374  40.076
15234DA     BB198987  59.540  62.538  40.569
15234DA     BB298988  59.832  62.657  40.756
15234DA     BB398989  59.889  62.852  40.689
15234DA     SC198990  60.085  62.746  40.473
15234DA     SC298991  60.332  62.740  40.434
15234DA     SC398992  60.272  62.702  40.188
15234DA     SC498993  60.028  62.724  40.324
15235DA     BB198994  59.861  62.962  41.006
15235DA     BB298995  60.218  63.042  40.996
15235DA     BB398996  60.250  63.228  40.896
15235DA     SC198997  60.284  63.099  40.615
15235DA     SC298998  60.466  63.062  40.449
15235DA     SC398999  60.278  63.032  40.278
15235DA     SC499000  60.152  63.085  40.523
15236DT     BB199001  60.324  63.419  40.993
15236DT     BB299002  60.659  63.402  40.861
15236DT     BB399003  60.687  63.551  40.720
15236DT     SC199004  60.544  63.421  40.543
15236DT     SC299005  60.672  63.350  40.385
15236DT     SC399006  60.348  63.365  40.375
15237DT     BB199007  60.850  63.718  40.882
15237DT     BB299008  61.054  63.650  40.593
15237DT     BB399009  61.025  63.796  40.450
15237DT     SC199010  60.791  63.698  40.384
15237DT     SC299011  60.802  63.611  40.188
15237DT     SC399012  60.530  63.679  40.350
15238DA     BB199013  61.439  63.778  40.512
15238DA     BB299014  61.379  63.749  40.151
15238DA     BB399015  61.328  63.940  40.069
15238DA     SC199016  61.022  63.903  40.111
15238DA     SC299017  60.819  63.870  39.970
15238DA     SC399018  60.688  63.953  40.175
15238DA     SC499019  60.959  63.959  40.248
15239DG     BB199020  61.581  63.880  39.904
15239DG     BB299021  61.340  63.863  39.635
15239DG     BB399022  61.297  64.046  39.571
15239DG     SC199023  61.064  64.086  39.766
15239DG     SC299024  60.776  64.110  39.693
15239DG     SC399025  60.817  64.171  39.980
15239DG     SC499026  61.094  64.146  39.912
15240DT     BB199027  61.340  64.076  39.376
15240DT     BB299028  61.011  64.066  39.228
15240DT     BB399029  60.942  64.259  39.197
15240DT     SC199030  60.894  64.293  39.452
15240DT     SC299031  60.682  64.301  39.485
15240DT     SC399032  60.910  64.390  39.697
15241DT     BB199033  60.972  64.177  38.954
15241DT     BB299034  60.624  64.266  38.986
15241DT     BB399035  60.602  64.472  38.975
15241DT     SC199036  60.698  64.504  39.217
15241DT     SC299037  60.540  64.569  39.348
15241DT     SC399038  60.857  64.580  39.413
15242DC     BB199039  60.486  64.392  38.759
15242DC     BB299040  60.239  64.583  38.941
15242DC     BB399041  60.277  64.785  38.920
15242DC     SC199042  60.480  64.772  39.086
15242DC     SC299043  60.431  64.876  39.268
15242DC     SC399044  60.728  64.784  39.176
15243DA     BB199045  59.872  64.694  38.845
15243DA     BB299046  59.888  64.989  39.064
15243DA     BB399047  59.966  65.156  38.957
15243DA     SC199048  60.262  65.098  39.034
15243DA     SC299049  60.439  65.199  39.178
15243DA     SC399050  60.604  65.065  39.035
15243DA     SC499051  60.349  65.007  38.933
15244DC     BB199052  59.844  65.309  38.922
15244DC     BB299053  59.994  65.546  39.150
15244DC     BB399054  60.110  65.681  39.045
15244DC     SC199055  60.299  65.502  39.009
15244DC     SC299056  60.472  65.555  39.125
15244DC     SC399057  60.464  65.337  38.886
15245DT     BB199058  59.929  65.896  39.065
15245DT     BB299059  60.237  66.033  39.195
15245DT     BB399060  60.347  66.119  39.043
15245DT     SC199061  60.417  65.883  38.951
15245DT     SC299062  60.628  65.853  38.985
15245DT     SC399063  60.441  65.677  38.787
15246DT     BB199064  60.295  66.397  39.101
15246DT     BB299065  60.655  66.377  39.101
15246DT     BB399066  60.728  66.424  38.913
15246DT     SC199067  60.653  66.191  38.817
15246DT     SC299068  60.827  66.072  38.775
15246DT     SC399069  60.526  66.012  38.672
15247DT     BB199070  60.827  66.685  38.975
15247DT     BB299071  61.117  66.510  38.851
15247DT     BB399072  61.137  66.541  38.647
15247DT     SC199073  60.938  66.377  38.595
15247DT     SC299074  61.015  66.200  38.500
15247DT     SC399075  60.704  66.291  38.510
15248DG     BB199076  61.482  66.678  38.814
15248DG     BB299077  61.548  66.430  38.559
15248DG     BB399078  61.538  66.514  38.379
15248DG     SC199079  61.239  66.461  38.343
15248DG     SC299080  61.116  66.275  38.143
15248DG     SC399081  60.909  66.436  38.279
15248DG     SC499082  61.134  66.569  38.396
15249DT     BB199083  61.712  66.505  38.265
15249DT     BB299084  61.628  66.246  38.028
15249DT     BB399085  61.576  66.331  37.847
15249DT     SC199086  61.343  66.407  37.940
15249DT     SC299087  61.188  66.291  37.847
15249DT     SC399088  61.146  66.564  38.016
15250DT     BB199089  61.796  66.211  37.787
15250DT     BB299090  61.545  66.070  37.570
15250DT     BB399091  61.504  66.201  37.414
15250DT     SC199092  61.368  66.360  37.572
15250DT     SC299093  61.160  66.351  37.521
15250DT     SC399094  61.299  66.576  37.707
15251DA     BB199095  61.559  65.797  37.302
15251DA     BB299096  61.264  65.930  37.130
15251DA     BB399097  61.321  66.081  36.990
15251DA     SC199098  61.294  66.315  37.194
15251DA     SC299099  61.143  66.510  37.231
15251DA     SC399100  61.336  66.605  37.372
15251DA     SC499101  61.425  66.357  37.276
15252DT     BB199102  61.286  66.029  36.817
15252DT     BB299103  61.017  66.259  36.746
15252DT     BB399104  61.090  66.423  36.644
15252DT     SC199105  61.198  66.521  36.862
15252DT     SC299106  61.092  66.697  36.922
15252DT     SC399107  61.382  66.604  37.032
15253DT     BB199108  60.980  66.339  36.405
15253DT     BB299109  60.860  66.677  36.437
15253DT     BB399110  60.996  66.809  36.354
15253DT     SC199111  61.160  66.782  36.557
15253DT     SC299112  61.164  66.965  36.670
15253DT     SC399113  61.376  66.721  36.695
15254DC     BB199114  60.855  66.866  36.107
15254DC     BB299115  60.922  67.196  36.237
15254DC     BB399116  61.099  67.268  36.159
15254DC     SC199117  61.241  67.111  36.314
15254DC     SC299118  61.344  67.229  36.461
15254DC     SC399119  61.407  66.920  36.387
15255DC     BB199120  60.999  67.459  35.955
15255DC     BB299121  61.222  67.664  36.150
15255DC     BB399122  61.409  67.671  36.061
15255DC     SC199123  61.464  67.427  36.140
15255DC     SC299124  61.617  67.433  36.290
15255DC     SC399125  61.520  67.169  36.129
15256DT     BB199126  61.404  67.941  35.938
15256DT     BB299127  61.703  67.950  36.140
15256DT     BB399128  61.868  67.903  36.025
15256DT     SC199129  61.803  67.649  36.020
15256DT     SC299130  61.946  67.537  36.136
15256DT     SC399131  61.731  67.413  35.927
15257DA     BB199132  61.983  68.275  36.185
15257DA     BB299133  62.261  68.044  36.244
15257DA     BB399134  62.377  68.019  36.067
15257DA     SC199135  62.213  67.776  35.964
15257DA     SC299136  62.246  67.531  35.931
15257DA     SC399137  62.049  67.546  35.769
15257DA     SC499138  62.089  67.806  35.865
15258DA     BB199139  62.637  68.111  36.250
15258DA     BB299140  62.781  67.780  36.188
15258DA     BB399141  62.875  67.775  35.996
15258DA     SC199142  62.620  67.679  35.847
15258DA     SC299143  62.540  67.472  35.732
15258DA     SC399144  62.372  67.626  35.616
15258DA     SC499145  62.524  67.791  35.784
15259DT     BB199146  63.086  67.753  35.978
15259DT     BB299147  63.083  67.408  35.874
15259DT     BB399148  63.135  67.394  35.674
15259DT     SC199149  62.900  67.484  35.599
15259DT     SC299150  62.790  67.325  35.505
15259DT     SC399151  62.718  67.641  35.491
15260DT     BB199152  63.380  67.288  35.740
15260DT     BB299153  63.231  67.041  35.523
15260DT     BB399154  63.278  67.082  35.326
15260DT     SC199155  63.107  67.282  35.319
15260DT     SC299156  62.942  67.230  35.192
15260DT     SC399157  63.014  67.527  35.298
15261DA     BB199158  63.380  66.683  35.395
15261DA     BB299159  63.184  66.694  35.086
15261DA     BB399160  63.302  66.773  34.926
15261DA     SC199161  63.218  67.068  34.976
15261DA     SC299162  63.080  67.243  34.863
15261DA     SC399163  63.211  67.410  35.007
15261DA     SC499164  63.311  67.156  35.073
15262DT     BB199165  63.338  66.648  34.784
15262DT     BB299166  63.114  66.791  34.540
15262DT     BB399167  63.221  66.903  34.403
15262DT     SC199168  63.257  67.097  34.576
15262DT     SC299169  63.142  67.269  34.516
15262DT     SC399170  63.378  67.266  34.737
15263DA     BB199171  62.971  66.638  34.197
15263DA     BB299172  62.928  66.971  34.050
15263DA     BB399173  63.101  67.024  33.937
15263DA     SC199174  63.246  67.161  34.176
15263DA     SC299175  63.310  67.392  34.245
15263DA     SC399176  63.479  67.277  34.400
15263DA     SC499177  63.346  67.071  34.264
15264DA     BB199178  62.864  67.074  33.717
15264DA     BB299179  62.977  67.422  33.704
15264DA     BB399180  63.162  67.437  33.599
15264DA     SC199181  63.337  67.402  33.854
15264DA     SC299182  63.489  67.542  33.994
15264DA     SC399183  63.584  67.318  34.077
15264DA     SC499184  63.384  67.253  33.892
15265DA     BB199185  62.984  67.658  33.436
15265DA     BB299186  63.236  67.905  33.535
15265DA     BB399187  63.416  67.877  33.424
15265DA     SC199188  63.542  67.682  33.631
15265DA     SC299189  63.731  67.683  33.794
15265DA     SC399190  63.715  67.427  33.783
15265DA     SC499191  63.518  67.524  33.609
15266DT     BB199192  63.470  68.020  33.295
15266DT     BB299193  63.748  68.151  33.483
15266DT     BB399194  63.926  68.087  33.401
15266DT     SC199195  63.893  67.846  33.498
15266DT     SC299196  64.038  67.811  33.654
15266DT     SC399197  63.858  67.584  33.508
15267DA     BB199198  63.963  68.505  33.426
15267DA     BB299199  64.271  68.359  33.561
15267DA     BB399200  64.394  68.284  33.403
15267DA     SC199201  64.270  67.999  33.410
15267DA     SC299202  64.340  67.769  33.476
15267DA     SC399203  64.146  67.689  33.328
15267DA     SC499204  64.146  67.969  33.312
15268DT     BB199205  64.583  68.372  33.349
15268DT     BB299206  64.794  68.112  33.484
15268DT     BB399207  64.877  68.002  33.330
15268DT     SC199208  64.650  67.880  33.282
15268DT     SC299209  64.666  67.673  33.340
15268DT     SC399210  64.432  67.801  33.156
15269DA     BB199211  65.219  68.119  33.546
15269DA     BB299212  65.249  67.759  33.487
15269DA     BB399213  65.310  67.721  33.286
15269DA     SC199214  65.020  67.703  33.175
15269DA     SC299215  64.868  67.528  33.084
15269DA     SC399216  64.738  67.723  32.981
15269DA     SC499217  64.954  67.838  33.118
15270DA     BB199218  65.573  67.546  33.400
15270DA     BB299219  65.433  67.250  33.236
15270DA     BB399220  65.485  67.248  33.029
15270DA     SC199221  65.231  67.404  32.939
15270DA     SC299222  65.022  67.357  32.811
15270DA     SC399223  65.010  67.611  32.779
15270DA     SC499224  65.242  67.564  32.928
15271DT     BB199225  65.626  67.098  32.928
15271DT     BB299226  65.366  66.906  32.768
15271DT     BB399227  65.375  66.932  32.563
15271DT     SC199228  65.272  67.173  32.581
15271DT     SC299229  65.073  67.172  32.499
15271DT     SC399230  65.251  67.435  32.566
15272DT     BB199231  65.471  66.677  32.527
15272DT     BB299232  65.164  66.688  32.337
15272DT     BB399233  65.202  66.755  32.145
15272DT     SC199234  65.232  67.002  32.228
15272DT     SC299235  65.068  67.121  32.158
15272DT     SC399236  65.346  67.234  32.280
15273DT     BB199237  65.153  66.505  32.059
15273DT     BB299238  64.914  66.712  31.886
15273DT     BB399239  64.998  66.789  31.713
15273DT     SC199240  65.141  66.961  31.850
15273DT     SC299241  65.067  67.159  31.815
15273DT     SC399242  65.351  67.084  31.951
15274DG     BB199243  64.651  66.588  31.641
15274DG     BB299244  64.646  66.923  31.504
15274DG     BB399245  64.760  66.931  31.341
15274DG     SC199246  65.016  67.005  31.492
15274DG     SC299247  65.161  67.264  31.474
15274DG     SC399248  65.318  67.066  31.628
15274DG     SC499249  65.109  66.887  31.549
15275DC     BB199250  64.659  66.984  31.177
15275DC     BB299251  64.776  67.320  31.117
15275DC     BB399252  64.927  67.318  30.976
15275DC     SC199253  65.099  67.222  31.150
15275DC     SC299254  65.245  67.373  31.197
15275DC     SC399255  65.269  67.057  31.266
15276DA     BB199256  64.638  67.606  30.878
15276DA     BB299257  64.969  67.759  30.844
15276DA     BB399258  65.072  67.677  30.677
15276DA     SC199259  65.207  67.449  30.840
15276DA     SC299260  65.436  67.389  30.918
15276DA     SC399261  65.342  67.151  30.944
15276DA     SC499262  65.130  67.308  30.848
15277DC     BB199263  65.107  67.799  30.529
15277DC     BB299264  65.463  67.831  30.575
15277DC     BB399265  65.563  67.713  30.437
15277DC     SC199266  65.503  67.495  30.570
15277DC     SC299267  65.682  67.414  30.659
15277DC     SC399268  65.399  67.259  30.626
15278DT     BB199269  65.642  67.929  30.282
15278DT     BB299270  65.952  67.759  30.355
15278DT     BB399271  65.989  67.615  30.211
15278DT     SC199272  65.806  67.456  30.311
15278DT     SC299273  65.900  67.285  30.401
15278DT     SC399274  65.585  67.312  30.330
15279DA     BB199275  66.344  67.842  30.201
15279DA     BB299276  66.443  67.489  30.221
15279DA     BB399277  66.419  67.395  30.031
15279DA     SC199278  66.127  67.304  30.084
15279DA     SC299279  66.004  67.090  30.124
15279DA     SC399280  65.795  67.221  30.055
15279DA     SC499281  66.009  67.402  30.037
15280DT     BB199282  66.588  67.319  29.898
15280DT     BB299283  66.538  66.969  29.967
15280DT     BB399284  66.465  66.873  29.799
15280DT     SC199285  66.227  66.978  29.833
15280DT     SC299286  66.088  66.824  29.891
15280DT     SC399287  66.010  67.121  29.788
15281DG     BB199288  66.817  66.674  29.866
15281DG     BB299289  66.539  66.442  29.845
15281DG     BB399290  66.498  66.402  29.655
15281DG     SC199291  66.299  66.632  29.623
15281DG     SC299292  66.005  66.605  29.579
15281DG     SC399293  66.091  66.887  29.548
15281DG     SC499294  66.353  66.776  29.578
15282DT     BB199295  66.517  66.193  29.567
15282DT     BB299296  66.169  66.098  29.551
15282DT     BB399297  66.104  66.101  29.355
15282DT     SC199298  66.096  66.363  29.353
15282DT     SC299299  65.892  66.429  29.345
15282DT     SC399300  66.153  66.613  29.289
15283DT     BB199301  66.094  65.835  29.372
15283DT     BB299302  65.758  65.937  29.288
15283DT     BB399303  65.740  65.961  29.083
15283DT     SC199304  65.873  66.187  29.091
15283DT     SC299305  65.740  66.350  29.047
15283DT     SC399306  66.063  66.364  29.047
15284DA     BB199307  65.430  65.725  29.240
15284DA     BB299308  65.283  65.981  29.021
15284DA     BB399309  65.330  65.939  28.817
15284DA     SC199310  65.592  66.107  28.818
15284DA     SC299311  65.675  66.320  28.718
15284DA     SC399312  65.909  66.226  28.763
15284DA     SC499313  65.729  66.031  28.853
15285DT     BB199314  65.179  65.901  28.720
15285DT     BB299315  65.166  66.205  28.526
15285DT     BB399316  65.248  66.173  28.339
15285DT     SC199317  65.491  66.172  28.437
15285DT     SC299318  65.595  66.349  28.372
15285DT     SC399319  65.731  66.086  28.505
15286DG     BB199320  64.867  66.306  28.280
15286DG     BB299321  65.104  66.493  28.080
15286DG     BB399322  65.158  66.386  27.922
15286DG     SC199323  65.394  66.252  28.063
15286DG     SC299324  65.683  66.293  27.999
15286DG     SC399325  65.648  66.072  28.193
15286DG     SC499326  65.370  66.116  28.143
15287DA     BB199327  65.073  66.647  27.697
15287DA     BB299328  65.416  66.659  27.569
15287DA     BB399329  65.449  66.501  27.430
15287DA     SC199330  65.549  66.300  27.645
15287DA     SC299331  65.763  66.190  27.709
15287DA     SC399332  65.616  66.018  27.830
15287DA     SC499333  65.440  66.203  27.713
15288DT     BB199334  65.480  66.513  27.192
15288DT     BB299335  65.834  66.443  27.195
15288DT     BB399336  65.871  66.259  27.108
15288DT     SC199337  65.781  66.133  27.320
15288DT     SC299338  65.944  66.035  27.420
15288DT     SC399339  65.629  65.978  27.471
15289DT     BB199340  65.976  66.340  26.844
15289DT     BB299341  66.239  66.133  26.978
15289DT     BB399342  66.218  65.939  26.909
15289DT     SC199343  66.016  65.895  27.070
15289DT     SC299344  66.075  65.755  27.223
15289DT     SC399345  65.771  65.841  27.152
15290DC     BB199346  66.435  65.939  26.719
15290DC     BB299347  66.518  65.671  26.945
15290DC     BB399348  66.447  65.491  26.870
15290DC     SC199349  66.200  65.552  26.934
15290DC     SC299350  66.135  65.426  27.096
15290DC     SC399351  65.944  65.609  26.908
15291DT     BB199352  66.703  65.411  26.814
15291DT     BB299353  66.577  65.166  27.047
15291DT     BB399354  66.483  65.013  26.945
15291DT     SC199355  66.274  65.164  26.895
15291DT     SC299356  66.106  65.093  27.008
15291DT     SC399357  66.094  65.302  26.761
15292DA     BB199358  66.757  64.886  27.237
15292DA     BB299359  66.439  64.712  27.289
15292DA     BB399360  66.403  64.574  27.130
15292DA     SC199361  66.249  64.778  26.953
15292DA     SC299362  66.015  64.815  26.876
15292DA     SC399363  66.120  64.959  26.691
15292DA     SC499364  66.334  64.862  26.846
15293DT     BB199365  66.401  64.416  27.204
15293DT     BB299366  66.045  64.362  27.179
15293DT     BB399367  66.001  64.253  27.009
15293DT     SC199368  66.043  64.462  26.855
15293DT     SC299369  65.856  64.528  26.772
15293DT     SC399370  66.151  64.617  26.671
15294DG     BB199371  65.850  64.085  27.348
15294DG     BB299372  65.598  64.125  27.092
15294DG     BB399373  65.626  63.991  26.948
15294DG     SC199374  65.812  64.169  26.783
15294DG     SC299375  65.752  64.284  26.514
15294DG     SC399376  66.035  64.330  26.587
15294DG     SC499377  65.969  64.166  26.813
15295DC     BB199378  65.470  63.866  26.922
15295DC     BB299379  65.331  63.979  26.609
15295DC     BB399380  65.401  63.862  26.454
15295DC     SC199381  65.636  63.978  26.462
15295DC     SC299382  65.663  64.098  26.286
15295DC     SC399383  65.896  64.009  26.493
15296DT     BB199384  65.154  63.770  26.443
15296DT     BB299385  65.222  63.896  26.112
15296DT     BB399386  65.326  63.755  26.003
15296DT     SC199387  65.547  63.804  26.134
15296DT     SC299388  65.688  63.901  26.004
15296DT     SC399389  65.756  63.767  26.291
15297DA     BB199390  64.997  63.893  25.781
15297DA     BB299391  65.292  63.896  25.564
15297DA     BB399392  65.351  63.697  25.515
15297DA     SC199393  65.544  63.669  25.757
15297DA     SC299394  65.790  63.654  25.796
15297DA     SC399395  65.727  63.552  26.023
15297DA     SC499396  65.485  63.606  25.892
15298DC     BB199397  65.333  63.659  25.334
15298DC     BB299398  65.683  63.650  25.250
15298DC     BB399399  65.750  63.454  25.244
15298DC     SC199400  65.748  63.437  25.506
15298DC     SC299401  65.950  63.426  25.578
15298DC     SC399402  65.684  63.358  25.749
15299DT     BB199403  65.764  63.478  24.978
15299DT     BB299404  66.093  63.368  25.077
15299DT     BB399405  66.096  63.162  25.096
15299DT     SC199406  65.964  63.173  25.322
15299DT     SC299407  66.094  63.116  25.484
15299DT     SC399408  65.771  63.139  25.499
15300DG     BB199409  66.383  63.240  24.814
15300DG     BB299410  66.511  63.019  25.069
15300DG     BB399411  66.446  62.833  25.037
15300DG     SC199412  66.192  62.867  25.204
15300DG     SC299413  66.131  62.727  25.461
15300DG     SC399414  65.894  62.876  25.363
15300DG     SC499415  66.060  62.923  25.134
15301DC     BB199416  66.573  62.624  24.972
15301DC     BB299417  66.565  62.436  25.279
15301DC     BB399418  66.437  62.274  25.260
15301DC     SC199419  66.226  62.430  25.276
15301DC     SC299420  66.125  62.393  25.463
15301DC     SC399421  66.003  62.554  25.209
15302DC     BB199422  66.623  62.040  25.218
15302DC     BB299423  66.420  61.929  25.495
15302DC     BB399424  66.264  61.812  25.426
15302DC     SC199425  66.135  62.022  25.335
15302DC     SC299426  65.960  62.055  25.454
15302DC     SC399427  66.022  62.189  25.166
15303DG     BB199428  66.444  61.510  25.651
15303DG     BB299429  66.095  61.538  25.742
15303DG     BB399430  65.984  61.426  25.620
15303DG     SC199431  65.941  61.648  25.414
15303DG     SC299432  65.681  61.780  25.351
15303DG     SC399433  65.890  61.862  25.158
15303DG     SC499434  66.047  61.666  25.296
15304DT     BB199435  65.840  61.216  25.671
15304DT     BB299436  65.513  61.368  25.667
15304DT     BB399437  65.405  61.299  25.504
15304DT     SC199438  65.544  61.448  25.339
15304DT     SC299439  65.419  61.605  25.262
15304DT     SC399440  65.707  61.515  25.143
15305DA     BB199441  65.153  61.220  25.830
15305DA     BB299442  64.955  61.402  25.582
15305DA     BB399443  64.897  61.272  25.423
15305DA     SC199444  65.148  61.332  25.249
15305DA     SC299445  65.201  61.450  25.036
15305DA     SC399446  65.417  61.311  25.036
15305DA     SC499447  65.276  61.236  25.267
15306DT     BB199448  64.692  61.219  25.391
15306DT     BB299449  64.643  61.432  25.104
15306DT     BB399450  64.626  61.318  24.932
15306DT     SC199451  64.884  61.270  24.930
15306DT     SC299452  64.975  61.373  24.765
15306DT     SC399453  65.112  61.138  24.940
15307DA     BB199454  64.293  61.570  24.940
15307DA     BB299455  64.448  61.601  24.610
15307DA     BB399456  64.406  61.429  24.492
15307DA     SC199457  64.660  61.274  24.583
15307DA     SC299458  64.876  61.199  24.484
15307DA     SC399459  64.883  61.031  24.678
15307DA     SC499460  64.645  61.176  24.710
15308DT     BB199461  64.289  61.450  24.325
15308DT     BB299462  64.557  61.426  24.085
15308DT     BB399463  64.550  61.242  23.989
15308DT     SC199464  64.645  61.119  24.201
15308DT     SC299465  64.844  61.050  24.160
15308DT     SC399466  64.658  60.957  24.409
15309DA     BB199467  64.570  61.544  23.701
15309DA     BB299468  64.829  61.296  23.624
15309DA     BB399469  64.740  61.119  23.544
15309DA     SC199470  64.707  60.981  23.821
15309DA     SC299471  64.807  60.788  23.944
15309DA     SC399472  64.595  60.798  24.089
15309DA     SC499473  64.568  61.002  23.899
15310DA     BB199474  64.967  61.197  23.327
15310DA     BB299475  65.119  60.873  23.404
15310DA     BB399476  65.003  60.715  23.320
15310DA     SC199477  64.825  60.678  23.573
15310DA     SC299478  64.793  60.509  23.753
15310DA     SC399479  64.566  60.621  23.791
15310DA     SC499480  64.688  60.761  23.580
15311DA     BB199481  65.308  60.666  23.225
15311DA     BB299482  65.283  60.343  23.397
15311DA     BB399483  65.152  60.213  23.291
15311DA     SC199484  64.898  60.302  23.447
15311DA     SC299485  64.741  60.205  23.615
15311DA     SC399486  64.578  60.388  23.538
15311DA     SC499487  64.811  60.422  23.384
15312DT     BB199488  65.248  60.076  23.237
15312DT     BB299489  65.114  59.831  23.464
15312DT     BB399490  64.961  59.725  23.372
15312DT     SC199491  64.796  59.928  23.395
15312DT     SC299492  64.643  59.880  23.539
15312DT     SC399493  64.636  60.126  23.328
15313DC     BB199494  65.132  59.524  23.376
15313DC     BB299495  64.839  59.402  23.547
15313DC     BB399496  64.698  59.337  23.410
15313DC     SC199497  64.635  59.584  23.346
15313DC     SC299498  64.437  59.627  23.418
15313DC     SC399499  64.604  59.803  23.203
15314DG     BB199500  64.786  59.035  23.668
15314DG     BB299501  64.429  59.089  23.641
15314DG     BB399502  64.362  59.014  23.469
15314DG     SC199503  64.406  59.272  23.311
15314DG     SC299504  64.192  59.444  23.193
15314DG     SC399505  64.460  59.532  23.102
15314DG     SC499506  64.548  59.297  23.241
15315DG     BB199507  64.160  58.834  23.652
15315DG     BB299508  63.891  59.003  23.478
15315DG     BB399509  63.864  58.920  23.299
15315DG     SC199510  64.062  59.103  23.155
15315DG     SC299511  63.994  59.308  22.949
15315DG     SC399512  64.287  59.273  22.970
15315DG     SC499513  64.216  59.060  23.148
15316DT     BB199514  63.676  58.828  23.257
15316DT     BB299515  63.525  59.059  23.024
15316DT     BB399516  63.546  58.989  22.831
15316DT     SC199517  63.801  59.053  22.827
15316DT     SC299518  63.831  59.218  22.691
15316DT     SC399519  64.063  59.028  22.814
15317DA     BB199520  63.139  59.079  22.882
15317DA     BB299521  63.245  59.220  22.560
15317DA     BB399522  63.274  59.064  22.417
15317DA     SC199523  63.575  59.025  22.485
15317DA     SC299524  63.796  59.067  22.377
15317DA     SC399525  63.888  58.896  22.544
15317DA     SC499526  63.613  58.915  22.596
15318DC     BB199527  63.147  59.038  22.249
15318DC     BB299528  63.379  59.143  21.993
15318DC     BB399529  63.447  58.978  21.888
15318DC     SC199530  63.603  58.907  22.087
15318DC     SC299531  63.809  58.936  22.031
15318DC     SC399532  63.703  58.764  22.284
15319DA     BB199533  63.292  59.188  21.550
15319DA     BB299534  63.625  59.072  21.451
15319DA     BB399535  63.619  58.866  21.397
15319DA     SC199536  63.681  58.763  21.684
15319DA     SC299537  63.869  58.651  21.803
15319DA     SC399538  63.693  58.584  21.977
15319DA     SC499539  63.556  58.730  21.780
15320DT     BB199540  63.631  58.696  21.151
15320DT     BB299541  63.964  58.570  21.213
15320DT     BB399542  63.958  58.365  21.237
15320DT     SC199543  63.855  58.387  21.477
15320DT     SC299544  64.000  58.326  21.624
15320DT     SC399545  63.682  58.367  21.676
15321DC     BB199546  64.044  58.160  20.953
15321DC     BB299547  64.271  58.037  21.205
15321DC     BB399548  64.209  57.851  21.271
15321DC     SC199549  64.014  57.957  21.411
15321DC     SC299550  64.056  57.936  21.621
15321DC     SC399551  63.770  58.015  21.492
15322DT     BB199552  64.391  57.606  21.142
15322DT     BB299553  64.445  57.573  21.497
15322DT     BB399554  64.335  57.413  21.571
15322DT     SC199555  64.112  57.549  21.554
15322DT     SC299556  64.041  57.594  21.752
15322DT     SC399557  63.869  57.620  21.479
15323DC     BB199558  64.559  57.243  21.615
15323DC     BB299559  64.419  57.300  21.943
15323DC     BB399560  64.286  57.149  21.990
15323DC     SC199561  64.105  57.248  21.828
15323DC     SC299562  63.941  57.327  21.943
15323DC     SC399563  63.938  57.266  21.624
15324DG     BB199564  64.580  57.201  22.265
15324DG     BB299565  64.250  57.233  22.410
15324DG     BB399566  64.167  57.053  22.431
15324DG     SC199567  64.037  57.054  22.153
15324DG     SC299568  63.744  57.062  22.097
15324DG     SC399569  63.898  57.013  21.849
15324DG     SC499570  64.121  56.998  22.028
15325DA     BB199571  64.121  57.206  22.733
15325DA     BB299572  63.760  57.156  22.692
15325DA     BB399573  63.712  56.948  22.706
15325DA     SC199574  63.741  56.896  22.401
15325DA     SC299575  63.593  56.843  22.208
15325DA     SC399576  63.806  56.758  22.093
15325DA     SC499577  63.885  56.847  22.347
15326DG     BB199578  63.547  57.087  22.924
15326DG     BB299579  63.274  56.959  22.724
15326DG     BB399580  63.256  56.763  22.752
15326DG     SC199581  63.447  56.689  22.525
15326DG     SC299582  63.373  56.550  22.271
15326DG     SC399583  63.666  56.572  22.297
15326DG     SC499584  63.603  56.676  22.556
15327DT     BB199585  63.075  56.692  22.834
15327DT     BB299586  62.918  56.534  22.551
15327DT     BB399587  62.946  56.329  22.559
15327DT     SC199588  63.197  56.353  22.486
15327DT     SC299589  63.221  56.273  22.287
15327DT     SC399590  63.460  56.342  22.495
15328DA     BB199591  62.533  56.388  22.511
15328DA     BB299592  62.639  56.134  22.269
15328DA     BB399593  62.678  55.949  22.368
15328DA     SC199594  62.979  56.011  22.416
15328DA     SC299595  63.199  55.929  22.333
15328DA     SC399596  63.296  56.034  22.547
15328DA     SC499597  63.019  56.081  22.555
15329DT     BB199598  62.556  55.781  22.336
15329DT     BB299599  62.790  55.596  22.132
15329DT     BB399600  62.868  55.438  22.241
15329DT     SC199601  63.021  55.599  22.381
15329DT     SC299602  63.227  55.568  22.326
15329DT     SC399603  63.122  55.729  22.587
15330DA     BB199604  62.723  55.276  21.883
15330DA     BB299605  63.065  55.153  21.931
15330DA     BB399606  63.069  55.003  22.083
15330DA     SC199607  63.123  55.205  22.314
15330DA     SC299608  63.310  55.264  22.468
15330DA     SC399609  63.129  55.370  22.614
15330DA     SC499610  62.996  55.264  22.392
15331DA     BB199611  63.217  54.844  21.840
15331DA     BB299612  63.510  54.821  22.059
15331DA     BB399613  63.478  54.674  22.211
15331DA     SC199614  63.357  54.876  22.414
15331DA     SC299615  63.422  54.981  22.631
15331DA     SC399616  63.171  55.027  22.660
15331DA     SC499617  63.197  54.895  22.414
15332DC     BB199618  63.595  54.526  22.198
15332DC     BB299619  63.804  54.609  22.479
15332DC     BB399620  63.752  54.494  22.643
15332DC     SC199621  63.535  54.637  22.683
15332DC     SC299622  63.557  54.752  22.863
15332DC     SC399623  63.279  54.699  22.704
15333DT     BB199624  63.982  54.364  22.608
15333DT     BB299625  63.996  54.487  22.947
15333DT     BB399626  63.900  54.355  23.074
15333DT     SC199627  63.664  54.433  22.989
15333DT     SC299628  63.564  54.541  23.146
15333DT     SC399629  63.425  54.424  22.877
15334DT     BB199630  64.141  54.291  23.170
15334DT     BB299631  63.953  54.396  23.459
15334DT     BB399632  63.843  54.237  23.533
15334DT     SC199633  63.670  54.254  23.337
15334DT     SC299634  63.482  54.325  23.414
15334DT     SC399635  63.530  54.190  23.123
15335DA     BB199636  64.059  54.409  23.849
15335DA     BB299637  63.713  54.361  23.961
15335DA     BB399638  63.673  54.154  23.994
15335DA     SC199639  63.574  54.102  23.703
15335DA     SC299640  63.358  54.050  23.589
15335DA     SC399641  63.505  53.965  23.396
15335DA     SC499642  63.682  54.053  23.595
15336DA     BB199643  63.577  54.276  24.282
15336DA     BB299644  63.247  54.132  24.212
15336DA     BB399645  63.252  53.920  24.235
15336DA     SC199646  63.326  53.866  23.938
15336DA     SC299647  63.217  53.769  23.735
15336DA     SC399648  63.456  53.739  23.646
15336DA     SC499649  63.482  53.855  23.901
15337DT     BB199650  63.147  53.837  24.385
15337DT     BB299651  62.887  53.686  24.186
15337DT     BB399652  62.920  53.482  24.170
15337DT     SC199653  63.115  53.519  23.999
15337DT     SC299654  63.054  53.450  23.805
15337DT     SC399655  63.358  53.518  23.895
15338DA     BB199656  62.525  53.505  24.314
15338DA     BB299657  62.525  53.264  24.038
15338DA     BB399658  62.611  53.079  24.101
15338DA     SC199659  62.900  53.158  24.016
15338DA     SC299660  63.066  53.092  23.841
15338DA     SC399661  63.241  53.197  23.997
15338DA     SC499662  62.994  53.227  24.127
15339DT     BB199663  62.503  52.874  24.134
15339DT     BB299664  62.635  52.706  23.843
15339DT     BB399665  62.766  52.557  23.901
15339DT     SC199666  62.952  52.733  23.960
15339DT     SC299667  63.113  52.718  23.818
15339DT     SC399668  63.124  52.875  24.102
15340DT     BB199669  62.603  52.309  23.866
15340DT     BB299670  62.897  52.236  23.671
15340DT     BB399671  63.032  52.127  23.783
15340DT     SC199672  63.100  52.340  23.922
15340DT     SC299673  63.301  52.397  23.871
15340DT     SC399674  63.133  52.503  24.127
15341DT     BB199675  63.000  51.846  23.678
15341DT     BB299676  63.353  51.908  23.635
15341DT     BB399677  63.459  51.828  23.793
15341DT     SC199678  63.381  52.022  23.953
15341DT     SC299679  63.548  52.148  23.999
15341DT     SC399680  63.264  52.145  24.154
15342DA     BB199681  63.644  51.654  23.460
15342DA     BB299682  63.907  51.808  23.663
15342DA     BB399683  63.951  51.686  23.833
15342DA     SC199684  63.743  51.826  24.017
15342DA     SC299685  63.744  51.976  24.216
15342DA     SC399686  63.504  51.895  24.253
15342DA     SC499687  63.595  51.762  24.024
15343DT     BB199688  64.138  51.595  23.850
15343DT     BB299689  64.267  51.825  24.097
15343DT     BB399690  64.277  51.733  24.281
15343DT     SC199691  64.017  51.748  24.312
15343DT     SC299692  63.972  51.890  24.468
15343DT     SC399693  63.766  51.674  24.341
15344DT     BB199694  64.544  51.735  24.257
15344DT     BB299695  64.476  51.923  24.557
15344DT     BB399696  64.457  51.794  24.718
15344DT     SC199697  64.219  51.716  24.638
15344DT     SC299698  64.070  51.791  24.774
15344DT     SC399699  64.026  51.560  24.551
15345DA     BB199700  64.725  52.104  24.808
15345DA     BB299701  64.479  52.081  25.079
15345DA     BB399702  64.512  51.904  25.195
15345DA     SC199703  64.323  51.727  25.024
15345DA     SC299704  64.102  51.614  25.050
15345DA     SC399705  64.176  51.467  24.853
15345DA     SC499706  64.388  51.645  24.901
15346DT     BB199707  64.561  51.945  25.369
15346DT     BB299708  64.245  51.857  25.521
15346DT     BB399709  64.258  51.669  25.605
15346DT     SC199710  64.247  51.554  25.369
15346DT     SC299711  64.058  51.452  25.348
15346DT     SC399712  64.318  51.413  25.159
15347DT     BB199713  64.243  51.801  25.832
15347DT     BB299714  63.962  51.575  25.833
15347DT     BB399715  64.023  51.386  25.892
15347DT     SC199716  64.138  51.341  25.661
15347DT     SC299717  64.027  51.191  25.554
15347DT     SC399718  64.326  51.294  25.482
15348DT     BB199719  63.879  51.446  26.101
15348DT     BB299720  63.735  51.144  25.966
15348DT     BB399721  63.847  50.980  26.026
15348DT     SC199722  64.038  51.038  25.856
15348DT     SC299723  64.042  50.891  25.700
15348DT     SC399724  64.276  51.106  25.764
15349DA     BB199725  63.430  50.935  26.075
15349DA     BB299726  63.564  50.636  25.911
15349DA     BB399727  63.689  50.528  26.045
15349DA     SC199728  63.950  50.676  25.961
15349DA     SC299729  64.160  50.624  25.837
15349DA     SC399730  64.256  50.830  25.956
15349DA     SC499731  63.992  50.806  26.045
15350DA     BB199732  63.473  50.323  25.905
15350DA     BB299733  63.768  50.137  25.793
15350DA     BB399734  63.873  50.056  25.961
15350DA     SC199735  64.057  50.304  25.996
15350DA     SC299736  64.298  50.360  25.965
15350DA     SC399737  64.251  50.557  26.123
15350DA     SC499738  64.009  50.419  26.097
15351DA     BB199739  63.831  49.806  25.749
15351DA     BB299740  64.196  49.769  25.763
15351DA     BB399741  64.256  49.706  25.958
15351DA     SC199742  64.293  49.995  26.067
15351DA     SC299743  64.481  50.143  26.136
15351DA     SC399744  64.303  50.276  26.264
15351DA     SC499745  64.168  50.063  26.141
15352DT     BB199746  64.330  49.538  25.957
15352DT     BB299747  64.671  49.631  26.028
15352DT     BB399748  64.709  49.613  26.231
15352DT     SC199749  64.573  49.831  26.284
15352DT     SC299750  64.708  49.986  26.347
15352DT     SC399751  64.385  49.989  26.381
15353DA     BB199752  65.016  49.388  26.048
15353DA     BB299753  65.171  49.601  26.303
15353DA     BB399754  65.126  49.528  26.498
15353DA     SC199755  64.868  49.698  26.530
15353DA     SC299756  64.791  49.893  26.665
15353DA     SC399757  64.554  49.813  26.609
15353DA     SC499758  64.729  49.631  26.485
15354DC     BB199759  65.274  49.439  26.634
15354DC     BB299760  65.293  49.717  26.864
15354DC     BB399761  65.199  49.668  27.042
15354DC     SC199762  64.962  49.694  26.933
15354DC     SC299763  64.864  49.867  27.015
15354DC     SC399764  64.721  49.632  26.844
15355DT     BB199765  65.435  49.635  27.189
15355DT     BB299766  65.251  49.882  27.376
15355DT     BB399767  65.129  49.789  27.516
15355DT     SC199768  64.960  49.713  27.330
15355DT     SC299769  64.776  49.822  27.351
15355DT     SC399770  64.819  49.556  27.172
15356DA     BB199771  65.352  50.067  27.739
15356DA     BB299772  64.998  50.115  27.823
15356DA     BB399773  64.930  49.958  27.950
15356DA     SC199774  64.838  49.776  27.715
15356DA     SC299775  64.623  49.693  27.620
15356DA     SC399776  64.765  49.509  27.512
15356DA     SC499777  64.943  49.668  27.658
15357DA     BB199778  64.840  50.207  28.146
15357DA     BB299779  64.494  50.091  28.101
15357DA     BB399780  64.458  49.919  28.221
15357DA     SC199781  64.542  49.717  28.000
15357DA     SC299782  64.432  49.548  27.853
15357DA     SC399783  64.666  49.447  27.828
15357DA     SC499784  64.695  49.668  27.998
15358DT     BB199785  64.324  49.932  28.376
15358DT     BB299786  64.058  49.751  28.213
15358DT     BB399787  64.042  49.561  28.293
15358DT     SC199788  64.257  49.481  28.167
15358DT     SC299789  64.202  49.341  28.013
15358DT     SC399790  64.502  49.391  28.125
15359DA     BB199791  63.661  49.738  28.305
15359DA     BB299792  63.630  49.408  28.147
15359DA     BB399793  63.650  49.254  28.294
15359DA     SC199794  63.958  49.228  28.259
15359DA     SC299795  64.120  49.062  28.167
15359DA     SC399796  64.295  49.184  28.310
15359DA     SC499797  64.052  49.316  28.355
15360DT     BB199798  63.491  49.143  28.326
15360DT     BB299799  63.609  48.852  28.148
15360DT     BB399800  63.673  48.708  28.282
15360DT     SC199801  63.892  48.842  28.334
15360DT     SC299802  64.061  48.736  28.253
15360DT     SC399803  64.073  48.978  28.468
15361DT     BB199804  63.457  48.565  28.213
15361DT     BB299805  63.740  48.354  28.135
15361DT     BB399806  63.799  48.250  28.303
15361DT     SC199807  63.908  48.465  28.407
15361DT     SC299808  64.122  48.443  28.408
15361DT     SC399809  63.954  48.665  28.573
15362DT     BB199810  63.703  48.029  28.186
15362DT     BB299811  64.051  47.957  28.249
15362DT     BB399812  64.074  47.886  28.442
15362DT     SC199813  64.041  48.126  28.543
15362DT     SC299814  64.228  48.195  28.625
15362DT     SC399815  63.936  48.325  28.680
15363DA     BB199816  64.264  47.624  28.175
15363DA     BB299817  64.499  47.701  28.445
15363DA     BB399818  64.440  47.603  28.625
15363DA     SC199819  64.265  47.840  28.726
15363DA     SC299820  64.273  48.011  28.907
15363DA     SC399821  64.021  48.035  28.868
15363DA     SC499822  64.109  47.840  28.687
15364DA     BB199823  64.748  47.496  28.605
15364DA     BB299824  64.806  47.662  28.927
15364DA     BB399825  64.719  47.549  29.086
15364DA     SC199826  64.445  47.696  29.073
15364DA     SC299827  64.314  47.855  29.213
15364DA     SC399828  64.111  47.774  29.079
15364DA     SC499829  64.331  47.631  28.980
15365DG     BB199830  65.011  47.537  29.188
15365DG     BB299831  64.875  47.729  29.462
15365DG     BB399832  64.788  47.608  29.594
15365DG     SC199833  64.513  47.618  29.460
15365DG     SC299834  64.266  47.740  29.574
15365DG     SC399835  64.204  47.589  29.327
15365DG     SC499836  64.480  47.512  29.344
15366DA     BB199837  64.983  47.773  29.824
15366DA     BB299838  64.681  47.880  30.002
15366DA     BB399839  64.599  47.718  30.114
15366DA     SC199840  64.415  47.620  29.883
15366DA     SC299841  64.170  47.613  29.833
15366DA     SC399842  64.231  47.430  29.663
15366DA     SC499843  64.472  47.507  29.784
15367DT     BB199844  64.605  47.751  30.295
15367DT     BB299845  64.253  47.815  30.339
15367DT     BB399846  64.160  47.647  30.417
15367DT     SC199847  64.172  47.524  30.186
15367DT     SC299848  63.974  47.505  30.104
15367DT     SC399849  64.237  47.345  30.003
15368DT     BB199850  64.138  47.811  30.615
15368DT     BB299851  63.802  47.711  30.533
15368DT     BB399852  63.763  47.523  30.611
15368DT     SC199853  63.908  47.408  30.425
15368DT     SC299854  63.780  47.299  30.291
15368DT     SC399855  64.102  47.269  30.312
15369DT     BB199856  63.608  47.674  30.747
15369DT     BB299857  63.396  47.421  30.601
15369DT     BB399858  63.418  47.242  30.704
15369DT     SC199859  63.652  47.199  30.593
15369DT     SC299860  63.637  47.033  30.456
15369DT     SC399861  63.912  47.163  30.568
15370DT     BB199862  63.177  47.302  30.773
15370DT     BB299863  63.159  46.963  30.648
15370DT     BB399864  63.230  46.832  30.791
15370DT     SC199865  63.478  46.902  30.743
15370DT     SC299866  63.582  46.740  30.648
15370DT     SC399867  63.720  47.001  30.781
15371DA     BB199868  62.849  46.668  30.704
15371DA     BB299869  63.082  46.386  30.730
15371DA     BB399870  63.134  46.352  30.934
15371DA     SC199871  63.382  46.540  30.928
15371DA     SC299872  63.630  46.519  30.937
15371DA     SC399873  63.629  46.766  31.007
15371DA     SC499874  63.360  46.693  30.972
15372DC     BB199875  63.072  46.173  31.096
15372DC     BB299876  63.394  46.012  31.117
15372DC     BB399877  63.476  46.042  31.305
15372DC     SC199878  63.535  46.291  31.249
15372DC     SC299879  63.748  46.313  31.234
15372DC     SC399880  63.534  46.555  31.259
15373DA     BB199881  63.485  45.615  31.336
15373DA     BB299882  63.818  45.729  31.437
15373DA     BB399883  63.817  45.792  31.641
15373DA     SC199884  63.748  46.088  31.574
15373DA     SC299885  63.862  46.310  31.582
15373DA     SC399886  63.625  46.409  31.578
15373DA     SC499887  63.593  46.130  31.572
15374DA     BB199888  64.063  45.574  31.728
15374DA     BB299889  64.276  45.862  31.805
15374DA     BB399890  64.239  45.931  32.004
15374DA     SC199891  64.018  46.133  31.919
15374DA     SC299892  63.989  46.380  31.906
15374DA     SC399893  63.737  46.330  31.904
15374DA     SC499894  63.866  46.081  31.920
15375DG     BB199895  64.540  45.866  32.076
15375DG     BB299896  64.565  46.225  32.110
15375DG     BB399897  64.514  46.279  32.295
15375DG     SC199898  64.217  46.313  32.229
15375DG     SC299899  64.066  46.571  32.229
15375DG     SC399900  63.882  46.341  32.197
15375DG     SC499901  64.119  46.187  32.242
15376DA     BB199902  64.815  46.450  32.303
15376DA     BB299903  64.634  46.766  32.353
15376DA     BB399904  64.567  46.782  32.555
15376DA     SC199905  64.292  46.647  32.500
15376DA     SC299906  64.052  46.714  32.492
15376DA     SC399907  64.003  46.464  32.524
15376DA     SC499908  64.282  46.488  32.522
15377DA     BB199909  64.729  47.066  32.524
15377DA     BB299910  64.409  47.231  32.593
15377DA     BB399911  64.359  47.214  32.799
15377DA     SC199912  64.201  46.949  32.765
15377DA     SC299913  63.964  46.872  32.777
15377DA     SC399914  64.062  46.637  32.809
15377DA     SC499915  64.282  46.811  32.785
15378DA     BB199916  64.334  47.542  32.776
15378DA     BB299917  63.983  47.504  32.872
15378DA     BB399918  63.966  47.466  33.081
15378DA     SC199919  63.979  47.157  33.050
15378DA     SC299920  63.825  46.962  33.077
15378DA     SC399921  64.039  46.822  33.094
15378DA     SC499922  64.123  47.087  33.060
15379DA     BB199923  63.764  47.729  33.086
15379DA     BB299924  63.499  47.502  33.199
15379DA     BB399925  63.521  47.461  33.407
15379DA     SC199926  63.700  47.210  33.363
15379DA     SC299927  63.681  46.963  33.391
15379DA     SC399928  63.938  46.964  33.391
15379DA     SC499929  63.859  47.232  33.363
15380DA     BB199930  63.209  47.569  33.439
15380DA     BB299931  63.120  47.231  33.549
15380DA     BB399932  63.171  47.204  33.754
15380DA     SC199933  63.457  47.096  33.694
15380DA     SC299934  63.580  46.880  33.710
15380DA     SC399935  63.792  47.023  33.704
15380DA     SC499936  63.577  47.203  33.690
15381DA     BB199937  62.856  47.121  33.780
15381DA     BB299938  62.973  46.785  33.872
15381DA     BB399939  63.034  46.781  34.076
15381DA     SC199940  63.330  46.854  34.015
15381DA     SC299941  63.553  46.742  34.022
15381DA     SC399942  63.649  46.980  34.026
15381DA     SC499943  63.370  47.010  34.018
15382DT     BB199944  62.926  46.665  34.193
15382DT     BB299945  63.166  46.397  34.211
15382DT     BB399946  63.260  46.397  34.396
15382DT     SC199947  63.405  46.606  34.331
15382DT     SC299948  63.610  46.547  34.310
15382DT     SC399949  63.502  46.851  34.334
15383DA     BB199950  63.119  46.022  34.275
15383DA     BB299951  63.469  45.988  34.382
15383DA     BB399952  63.484  46.013  34.593
15383DA     SC199953  63.531  46.320  34.579
15383DA     SC299954  63.717  46.481  34.620
15383DA     SC399955  63.533  46.658  34.640
15383DA     SC499956  63.402  46.415  34.589
15384DT     BB199957  63.543  45.862  34.645
15384DT     BB299958  63.877  45.970  34.729
15384DT     BB399959  63.887  46.021  34.930
15384DT     SC199960  63.758  46.245  34.887
15384DT     SC299961  63.893  46.411  34.915
15384DT     SC399962  63.569  46.429  34.899
15385DC     BB199963  64.034  45.807  34.930
15385DC     BB299964  64.240  46.068  35.071
15385DC     BB399965  64.189  46.099  35.270
15385DC     SC199966  63.969  46.224  35.202
15385DC     SC299967  63.987  46.433  35.250
15385DC     SC399968  63.712  46.278  35.177
15386DT     BB199969  64.423  45.989  35.320
15386DT     BB299970  64.430  46.305  35.495
15386DT     BB399971  64.333  46.287  35.677
15386DT     SC199972  64.098  46.285  35.560
15386DT     SC299973  63.994  46.468  35.606
15386DT     SC399974  63.861  46.201  35.479
15387DG     BB199975  64.711  46.409  35.771
15387DG     BB299976  64.465  46.611  35.942
15387DG     BB399977  64.395  46.512  36.100
15387DG     SC199978  64.167  46.378  35.946
15387DG     SC299979  63.875  46.428  35.985
15387DG     SC399980  63.919  46.198  35.804
15387DG     SC499981  64.194  46.237  35.874
15388DA     BB199982  64.469  46.777  36.326
15388DA     BB299983  64.117  46.802  36.427
15388DA     BB399984  64.070  46.649  36.569
15388DA     SC199985  63.981  46.443  36.354
15388DA     SC299986  63.770  46.335  36.277
15388DA     SC399987  63.922  46.156  36.174
15388DA     SC499988  64.093  46.341  36.298
15389DA     BB199989  63.964  46.876  36.799
15389DA     BB299990  63.632  46.721  36.788
15389DA     BB399991  63.625  46.551  36.916
15389DA     SC199992  63.712  46.351  36.694
15389DA     SC299993  63.609  46.165  36.562
15389DA     SC399994  63.851  46.090  36.518
15389DA     SC499995  63.869  46.319  36.679
15390DG     BB199996  63.398  46.672  37.117
15390DG     BB299997  63.193  46.401  36.992
15390DG     BB399998  63.215  46.241  37.107
15390DG     SC199999  63.450  46.127  36.948
15390DG     SC2    0  63.448  45.875  36.787
15390DG     SC3    1  63.722  45.983  36.810
15390DG     SC4    2  63.599  46.171  36.987
15391DA     BB1    3  62.866  46.199  37.177
15391DA     BB2    4  62.864  45.870  37.014
15391DA     BB3    5  62.926  45.719  37.151
15391DA     SC1    6  63.227  45.740  37.077
15391DA     SC2    7  63.399  45.602  36.961
15391DA     SC3    8  63.570  45.747  37.085
15391DA     SC4    9  63.318  45.840  37.164
15392DT     BB1   10  62.791  45.557  37.229
15392DT     BB2   11  62.927  45.294  37.023
15392DT     BB3   12  63.032  45.159  37.140
15392DT     SC1   13  63.232  45.326  37.168
15392DT     SC2   14  63.403  45.252  37.060
15392DT     SC3   15  63.407  45.488  37.282
15393DG     BB1   16  62.741  44.937  36.959
15393DG     BB2   17  63.069  44.796  36.900
15393DG     BB3   18  63.126  44.689  37.057
15393DG     SC1   19  63.261  44.923  37.200
15393DG     SC2   20  63.553  44.952  37.251
15393DG     SC3   21  63.400  45.161  37.393
15393DG     SC4   22  63.173  45.015  37.298
15394DT     BB1   23  63.164  44.467  37.040
15394DT     BB2   24  63.525  44.463  37.041
15394DT     BB3   25  63.594  44.394  37.224
15394DT     SC1   26  63.535  44.621  37.341
15394DT     SC2   27  63.716  44.724  37.394
15394DT     SC3   28  63.419  44.794  37.503
15395DT     BB1   29  63.671  44.170  37.097
15395DT     BB2   30  63.973  44.304  37.241
15395DT     BB3   31  63.993  44.239  37.437
15395DT     SC1   32  63.806  44.403  37.519
15395DT     SC2   33  63.895  44.558  37.640
15395DT     SC3   34  63.579  44.489  37.622
15396DA     BB1   35  64.342  44.185  37.213
15396DA     BB2   36  64.430  44.351  37.528
15396DA     BB3   37  64.410  44.215  37.691
15396DA     SC1   38  64.114  44.288  37.749
15396DA     SC2   39  63.984  44.406  37.927
15396DA     SC3   40  63.781  44.281  37.832
15396DA     SC4   41  64.000  44.200  37.677
15397DT     BB1   42  64.569  44.201  37.755
15397DT     BB2   43  64.513  44.387  38.059
15397DT     BB3   44  64.465  44.258  38.214
15397DT     SC1   45  64.223  44.222  38.118
15397DT     SC2   46  64.080  44.315  38.249
15397DT     SC3   47  64.013  44.101  38.015
15398DT     BB1   48  64.692  44.353  38.283
15398DT     BB2   49  64.467  44.425  38.555
15398DT     BB3   50  64.432  44.253  38.665
15398DT     SC1   51  64.274  44.157  38.478
15398DT     SC2   52  64.071  44.155  38.549
15398DT     SC3   53  64.182  43.998  38.289
15399DT     BB1   54  64.564  44.395  38.832
15399DT     BB2   55  64.263  44.299  39.005
15399DT     BB3   56  64.276  44.102  39.066
15399DT     SC1   57  64.238  44.015  38.821
15399DT     SC2   58  64.045  43.921  38.808
15399DT     SC3   59  64.284  43.897  38.590
15400DA     BB1   60  64.156  44.328  39.402
15400DA     BB2   61  63.961  44.017  39.400
15400DA     BB3   62  64.085  43.851  39.447
15400DA     SC1   63  64.159  43.792  39.151
15400DA     SC2   64  64.113  43.616  38.980
15400DA     SC3   65  64.321  43.704  38.861
15400DA     SC4   66  64.293  43.860  39.092
15401DA     BB1   67  63.893  43.748  39.716
15401DA     BB2   68  63.857  43.417  39.563
15401DA     BB3   69  64.032  43.300  39.597
15401DA     SC1   70  64.174  43.392  39.336
15401DA     SC2   71  64.240  43.293  39.117
15401DA     SC3   72  64.406  43.488  39.101
15401DA     SC4   73  64.272  43.520  39.346
15402DA     BB1   74  63.913  43.007  39.780
15402DA     BB2   75  64.031  42.786  39.513
15402DA     BB3   76  64.233  42.727  39.548
15402DA     SC1   77  64.355  42.965  39.389
15402DA     SC2   78  64.480  43.000  39.176
15402DA     SC3   79  64.554  43.223  39.280
15402DA     SC4   80  64.391  43.099  39.472
15403DT     BB1   81  64.388  42.484  39.632
15403DT     BB2   82  64.519  42.415  39.303
15403DT     BB3   83  64.726  42.423  39.307
15403DT     SC1   84  64.723  42.685  39.318
15403DT     SC2   85  64.796  42.766  39.133
15403DT     SC3   86  64.759  42.930  39.410
15404DC     BB1   87  64.835  42.126  39.311
15404DC     BB2   88  64.997  42.264  39.020
15404DC     BB3   89  65.192  42.316  39.065
15404DC     SC1   90  65.113  42.528  39.198
15404DC     SC2   91  65.169  42.705  39.090
15404DC     SC3   92  65.073  42.693  39.400
15405DA     BB1   93  65.256  42.058  38.739
15405DA     BB2   94  65.432  42.370  38.662
15405DA     BB3   95  65.620  42.376  38.763
15405DA     SC1   96  65.508  42.515  39.017
15405DA     SC2   97  65.524  42.738  39.128
15405DA     SC3   98  65.445  42.616  39.339
15405DA     SC4   99  65.459  42.421  39.138
15406DA     BB1  100  65.735  42.428  38.461
15406DA     BB2  101  65.843  42.757  38.578
15406DA     BB3  102  66.026  42.741  38.688
15406DA     SC1  103  65.886  42.703  38.963
15406DA     SC2  104  65.856  42.832  39.174
15406DA     SC3  105  65.803  42.605  39.281
15406DA     SC4  106  65.857  42.552  39.011
15407DT     BB1  107  66.188  42.829  38.608
15407DT     BB2  108  66.193  43.112  38.831
15407DT     BB3  109  66.348  43.091  38.967
15407DT     SC1  110  66.216  42.909  39.102
15407DT     SC2  111  66.157  42.989  39.292
15407DT     SC3  112  66.154  42.676  39.209
15408DT     BB1  113  66.466  43.292  38.837
15408DT     BB2  114  66.434  43.407  39.177
15408DT     BB3  115  66.594  43.340  39.290
15408DT     SC1  116  66.497  43.097  39.297
15408DT     SC2  117  66.432  43.052  39.498
15408DT     SC3  118  66.476  42.837  39.259
15409DG     BB1  119  66.562  43.745  39.310
15409DG     BB2  120  66.577  43.594  39.638
15409DG     BB3  121  66.764  43.540  39.680
15409DG     SC1  122  66.734  43.259  39.561
15409DG     SC2  123  66.741  43.003  39.713
15409DG     SC3  124  66.743  42.952  39.421
15409DG     SC4  125  66.765  43.237  39.405
15410DA     BB1  126  66.699  43.714  39.968
15410DA     BB2  127  66.776  43.413  40.164
15410DA     BB3  128  66.986  43.376  40.163
15410DA     SC1  129  66.977  43.195  39.910
15410DA     SC2  130  67.008  42.953  39.855
15410DA     SC3  131  67.048  43.034  39.615
15410DA     SC4  132  67.000  43.265  39.768
15411DG     BB1  133  66.938  43.404  40.466
15411DG     BB2  134  67.051  43.061  40.470
15411DG     BB3  135  67.250  43.055  40.458
15411DG     SC1  136  67.255  43.046  40.152
15411DG     SC2  137  67.347  42.816  39.985
15411DG     SC3  138  67.299  43.055  39.817
15411DG     SC4  139  67.257  43.183  40.070
15412DA     BB1  140  67.223  42.847  40.734
15412DA     BB2  141  67.403  42.585  40.552
15412DA     BB3  142  67.610  42.634  40.535
15412DA     SC1  143  67.576  42.783  40.263
15412DA     SC2  144  67.640  42.748  40.025
15412DA     SC3  145  67.604  43.001  39.999
15412DA     SC4  146  67.551  42.942  40.268
15413DT     BB1  147  67.748  42.522  40.633
15413DT     BB2  148  67.887  42.354  40.345
15413DT     BB3  149  68.071  42.435  40.298
15413DT     SC1  150  67.960  42.650  40.197
15413DT     SC2  151  67.987  42.651  39.984
15413DT     SC3  152  67.894  42.903  40.165
15414DA     BB1  153  68.148  42.023  40.332
15414DA     BB2  154  68.300  42.137  40.019
15414DA     BB3  155  68.480  42.245  40.058
15414DA     SC1  156  68.339  42.521  40.076
15414DA     SC2  157  68.328  42.732  39.943
15414DA     SC3  158  68.247  42.841  40.160
15414DA     SC4  159  68.291  42.571  40.221
15415DT     BB1  160  68.675  42.170  40.002
15415DT     BB2  161  68.725  42.394  39.723
15415DT     BB3  162  68.870  42.535  39.771
15415DT     SC1  163  68.703  42.665  39.926
15415DT     SC2  164  68.654  42.854  39.835
15415DT     SC3  165  68.596  42.770  40.143
15416DT     BB1  166  69.052  42.415  39.604
15416DT     BB2  167  69.029  42.755  39.484
15416DT     BB3  168  69.164  42.875  39.584
15416DT     SC1  169  69.016  42.876  39.800
15416DT     SC2  170  68.932  43.072  39.829
15416DT     SC3  171  68.940  42.834  40.049
15417DT     BB1  172  69.305  42.887  39.357
15417DT     BB2  173  69.232  43.230  39.438
15417DT     BB3  174  69.374  43.303  39.570
15417DT     SC1  175  69.270  43.169  39.769
15417DT     SC2  176  69.178  43.306  39.907
15417DT     SC3  177  69.246  42.994  39.966
15418DT     BB1  178  69.462  43.451  39.366
15418DT     BB2  179  69.387  43.688  39.627
15418DT     BB3  180  69.547  43.704  39.757
15418DT     SC1  181  69.491  43.472  39.866
15418DT     SC2  182  69.420  43.503  40.067
15418DT     SC3  183  69.515  43.220  39.941
15419DT     BB1  184  69.595  43.947  39.655
15419DT     BB2  185  69.564  44.003  40.010
15419DT     BB3  186  69.745  43.969  40.103
15419DT     SC1  187  69.717  43.709  40.079
15419DT     SC2  188  69.684  43.622  40.273
15419DT     SC3  189  69.762  43.460  40.003
15420DA     BB1  190  69.633  44.354  40.231
15420DA     BB2  191  69.740  44.167  40.527
15420DA     BB3  192  69.953  44.147  40.530
15420DA     SC1  193  69.953  43.877  40.375
15420DA     SC2  194  70.003  43.638  40.422
15420DA     SC3  195  70.030  43.615  40.168
15420DA     SC4  196  69.967  43.884  40.215
15421DG     BB1  197  69.982  44.314  40.804
15421DG     BB2  198  70.110  44.004  40.938
15421DG     BB3  199  70.307  43.993  40.908
15421DG     SC1  200  70.283  43.858  40.635
15421DG     SC2  201  70.369  43.579  40.569
15421DG     SC3  202  70.295  43.727  40.324
15421DG     SC4  203  70.271  43.949  40.504
15422DT     BB1  204  70.487  43.989  41.077
15422DT     BB2  205  70.579  43.641  41.066
15422DT     BB3  206  70.765  43.620  40.976
15422DT     SC1  207  70.663  43.664  40.738
15422DT     SC2  208  70.669  43.483  40.623
15422DT     SC3  209  70.617  43.781  40.506
15423DC     BB1  210  70.903  43.564  41.214
15423DC     BB2  211  70.973  43.279  41.004
15423DC     BB3  212  71.145  43.313  40.894
15423DC     SC1  213  71.019  43.478  40.734
15423DC     SC2  214  71.001  43.389  40.539
15423DC     SC3  215  70.953  43.702  40.610
15424DG     BB1  216  71.230  42.976  41.110
15424DG     BB2  217  71.287  42.922  40.757
15424DG     BB3  218  71.463  42.999  40.705
15424DG     SC1  219  71.351  43.275  40.637
15424DG     SC2  220  71.340  43.398  40.365
15424DG     SC3  221  71.265  43.595  40.573
15424DG     SC4  222  71.341  43.385  40.753
15425DA     BB1  223  71.547  42.690  40.565
15425DA     BB2  224  71.583  42.846  40.235
15425DA     BB3  225  71.769  42.949  40.221
15425DA     SC1  226  71.656  43.220  40.324
15425DA     SC2  227  71.608  43.446  40.233
15425DA     SC3  228  71.614  43.524  40.477
15425DA     SC4  229  71.665  43.249  40.482
15426DA     BB1  230  71.812  42.761  39.953
15426DA     BB2  231  71.820  43.072  39.759
15426DA     BB3  232  72.011  43.167  39.780
15426DA     SC1  233  71.927  43.337  40.026
15426DA     SC2  234  71.883  43.577  40.079
15426DA     SC3  235  71.921  43.509  40.323
15426DA     SC4  236  71.955  43.275  40.172
15427DG     BB1  237  72.043  43.132  39.469
15427DG     BB2  238  72.028  43.494  39.472
15427DG     BB3  239  72.209  43.569  39.505
15427DG     SC1  240  72.178  43.573  39.810
15427DG     SC2  241  72.164  43.816  39.982
15427DG     SC3  242  72.187  43.572  40.147
15427DG     SC4  243  72.220  43.443  39.894
15428DT     BB1  244  72.317  43.701  39.353
15428DT     BB2  245  72.265  44.025  39.503
15428DT     BB3  246  72.442  44.093  39.587
15428DT     SC1  247  72.419  43.927  39.789
15428DT     SC2  248  72.378  44.038  39.968
15428DT     SC3  249  72.473  43.729  39.954
15429DT     BB1  250  72.446  44.272  39.390
15429DT     BB2  251  72.435  44.464  39.696
15429DT     BB3  252  72.626  44.488  39.771
15429DT     SC1  253  72.634  44.239  39.854
15429DT     SC2  254  72.629  44.236  40.069
15429DT     SC3  255  72.709  43.988  39.876
15430DC     BB1  256  72.561  44.728  39.705
15430DC     BB2  257  72.621  44.732  40.061
15430DC     BB3  258  72.825  44.734  40.099
15430DC     SC1  259  72.847  44.480  40.035
15430DC     SC2  260  72.890  44.366  40.212
15430DC     SC3  261  72.921  44.262  39.906
15431DG     BB1  262  72.569  44.999  40.282
15431DG     BB2  263  72.781  44.822  40.515
15431DG     BB3  264  72.971  44.878  40.491
15431DG     SC1  265  73.033  44.664  40.282
15431DG     SC2  266  73.220  44.434  40.317
15431DG     SC3  267  73.131  44.454  40.036
15431DG     SC4  268  73.007  44.696  40.127
15432DA     BB1  269  72.884  44.861  40.831
15432DA     BB2  270  73.182  44.652  40.875
15432DA     BB3  271  73.357  44.759  40.818
15432DA     SC1  272  73.348  44.664  40.522
15432DA     SC2  273  73.480  44.514  40.372
15432DA     SC3  274  73.370  44.643  40.180
15432DA     SC4  275  73.271  44.757  40.416
15433DG     BB1  276  73.407  44.671  41.110
15433DG     BB2  277  73.690  44.506  40.958
15433DG     BB3  278  73.827  44.641  40.905
15433DG     SC1  279  73.711  44.684  40.625
15433DG     SC2  280  73.843  44.610  40.368
15433DG     SC3  281  73.600  44.772  40.319
15433DG     SC4  282  73.598  44.795  40.604
15434DA     BB1  283  74.063  44.450  41.081
15434DA     BB2  284  74.269  44.423  40.779
15434DA     BB3  285  74.366  44.609  40.739
15434DA     SC1  286  74.138  44.719  40.559
15434DA     SC2  287  74.101  44.770  40.318
15434DA     SC3  288  73.909  44.919  40.399
15434DA     SC4  289  74.023  44.807  40.630
15435DT     BB1  290  74.584  44.643  40.757
15435DT     BB2  291  74.656  44.663  40.404
15435DT     BB3  292  74.701  44.858  40.352
15435DT     SC1  293  74.448  44.928  40.368
15435DT     SC2  294  74.373  44.970  40.171
15435DT     SC3  295  74.229  45.049  40.450
15436DA     BB1  296  75.038  44.650  40.211
15436DA     BB2  297  74.921  44.865  39.938
15436DA     BB3  298  74.978  45.068  39.973
15436DA     SC1  299  74.717  45.140  40.126
15436DA     SC2  300  74.514  45.280  40.088
15436DA     SC3  301  74.486  45.272  40.343
15436DA     SC4  302  74.717  45.124  40.286
15437DA     BB1  303  75.119  45.050  39.675
15437DA     BB2  304  74.888  45.314  39.568
15437DA     BB3  305  74.956  45.504  39.636
15437DA     SC1  306  74.799  45.492  39.904
15437DA     SC2  307  74.603  45.606  40.009
15437DA     SC3  308  74.699  45.521  40.232
15437DA     SC4  309  74.875  45.431  40.033
15438DT     BB1  310  75.015  45.642  39.499
15438DT     BB2  311  74.724  45.854  39.523
15438DT     BB3  312  74.771  46.026  39.627
15438DT     SC1  313  74.774  45.898  39.856
15438DT     SC2  314  74.605  45.960  39.975
15438DT     SC3  315  74.863  45.794  40.081
15439DA     BB1  316  74.584  46.133  39.268
15439DA     BB2  317  74.422  46.318  39.540
15439DA     BB3  318  74.551  46.471  39.613
15439DA     SC1  319  74.682  46.291  39.830
15439DA     SC2  320  74.684  46.273  40.078
15439DA     SC3  321  74.902  46.141  40.047
15439DA     SC4  322  74.817  46.213  39.789
15440DC     BB1  323  74.492  46.657  39.584
15440DC     BB2  324  74.402  46.731  39.925
15440DC     BB3  325  74.550  46.846  40.014
15440DC     SC1  326  74.709  46.639  40.036
15440DC     SC2  327  74.729  46.586  40.243
15440DC     SC3  328  74.918  46.482  40.001
15441DT     BB1  329  74.393  47.073  40.006
15441DT     BB2  330  74.484  47.042  40.354
15441DT     BB3  331  74.664  47.138  40.389
15441DT     SC1  332  74.799  46.946  40.272
15441DT     SC2  333  74.912  46.838  40.419
15441DT     SC3  334  74.954  46.821  40.099
15442DT     BB1  335  74.543  47.348  40.521
15442DT     BB2  336  74.785  47.221  40.758
15442DT     BB3  337  74.967  47.314  40.729
15442DT     SC1  338  75.013  47.173  40.512
15442DT     SC2  339  75.173  47.034  40.549
15442DT     SC3  340  75.056  47.115  40.258
15443DA     BB1  341  74.882  47.366  41.136
15443DA     BB2  342  75.224  47.235  41.110
15443DA     BB3  343  75.356  47.388  41.044
15443DA     SC1  344  75.321  47.322  40.742
15443DA     SC2  345  75.457  47.224  40.557
15443DA     SC3  346  75.290  47.339  40.400
15443DA     SC4  347  75.207  47.401  40.661
15444DA     BB1  348  75.518  47.299  41.315
15444DA     BB2  349  75.797  47.206  41.096
15444DA     BB3  350  75.899  47.381  41.028
15444DA     SC1  351  75.725  47.413  40.773
15444DA     SC2  352  75.753  47.390  40.526
15444DA     SC3  353  75.544  47.538  40.509
15444DA     SC4  354  75.595  47.507  40.783
15445DG     BB1  355  76.138  47.245  41.172
15445DG     BB2  356  76.272  47.231  40.836
15445DG     BB3  357  76.351  47.407  40.788
15445DG     SC1  358  76.091  47.519  40.671
15445DG     SC2  359  76.041  47.585  40.384
15445DG     SC3  360  75.819  47.681  40.555
15445DG     SC4  361  75.989  47.595  40.769
15446DC     BB1  362  76.563  47.422  40.743
15446DC     BB2  363  76.561  47.463  40.385
15446DC     BB3  364  76.592  47.662  40.336
15446DC     SC1  365  76.347  47.725  40.407
15446DC     SC2  366  76.233  47.776  40.232
15446DC     SC3  367  76.149  47.838  40.539
15447DA     BB1  368  76.877  47.445  40.115
15447DA     BB2  369  76.712  47.678  39.885
15447DA     BB3  370  76.778  47.877  39.921
15447DA     SC1  371  76.554  47.941  40.127
15447DA     SC2  372  76.351  48.084  40.140
15447DA     SC3  373  76.374  48.059  40.395
15447DA     SC4  374  76.587  47.915  40.283
15448DT     BB1  375  76.901  47.993  39.779
15448DT     BB2  376  76.638  48.214  39.668
15448DT     BB3  377  76.669  48.404  39.742
15448DT     SC1  378  76.592  48.332  39.982
15448DT     SC2  379  76.403  48.424  40.028
15448DT     SC3  380  76.600  48.280  40.241
15449DA     BB1  381  76.639  48.475  39.328
15449DA     BB2  382  76.409  48.707  39.495
15449DA     BB3  383  76.518  48.870  39.581
15449DA     SC1  384  76.558  48.730  39.856
15449DA     SC2  385  76.476  48.757  40.090
15449DA     SC3  386  76.682  48.619  40.156
15449DA     SC4  387  76.692  48.645  39.877
15450DT     BB1  388  76.502  49.081  39.511
15450DT     BB2  389  76.292  49.190  39.783
15450DT     BB3  390  76.398  49.318  39.907
15450DT     SC1  391  76.534  49.118  40.010
15450DT     SC2  392  76.474  49.089  40.214
15450DT     SC3  393  76.738  48.964  40.074
15451DG     BB1  394  76.071  49.519  39.774
15451DG     BB2  395  76.085  49.510  40.135
15451DG     BB3  396  76.213  49.647  40.202
15451DG     SC1  397  76.455  49.460  40.195
15451DG     SC2  398  76.606  49.361  40.433
15451DG     SC3  399  76.745  49.288  40.182
15451DG     SC4  400  76.541  49.449  40.061
15452DT     BB1  401  76.120  49.767  40.321
15452DT     BB2  402  76.238  49.657  40.643
15452DT     BB3  403  76.399  49.773  40.702
15452DT     SC1  404  76.559  49.653  40.533
15452DT     SC2  405  76.701  49.532  40.641
15452DT     SC3  406  76.722  49.616  40.329
15453DT     BB1  407  76.215  49.830  40.871
15453DT     BB2  408  76.492  49.700  41.062
15453DT     BB3  409  76.643  49.841  41.074
15453DT     SC1  410  76.713  49.799  40.825
15453DT     SC2  411  76.906  49.702  40.821
15453DT     SC3  412  76.758  49.843  40.569
15454DT     BB1  413  76.563  49.829  41.319
15454DT     BB2  414  76.916  49.754  41.324
15454DT     BB3  415  77.026  49.928  41.301
15454DT     SC1  416  76.969  49.940  41.045
15454DT     SC2  417  77.146  49.901  40.931
15454DT     SC3  418  76.871  50.028  40.817
15455DG     BB1  419  77.138  49.735  41.643
15455DG     BB2  420  77.423  49.822  41.437
15455DG     BB3  421  77.458  50.017  41.449
15455DG     SC1  422  77.275  50.089  41.214
15455DG     SC2  423  77.362  50.200  40.951
15455DG     SC3  424  77.067  50.206  40.975
15455DG     SC4  425  77.120  50.118  41.243
15456DC     BB1  426  77.645  50.094  41.532
15456DC     BB2  427  77.815  50.211  41.236
15456DC     BB3  428  77.799  50.417  41.222
15456DC     SC1  429  77.548  50.400  41.147
15456DC     SC2  430  77.531  50.458  40.940
15456DC     SC3  431  77.285  50.426  41.150
15457DA     BB1  432  78.212  50.344  41.195
15457DA     BB2  433  78.121  50.567  40.919
15457DA     BB3  434  78.085  50.765  40.992
15457DA     SC1  435  77.781  50.719  41.040
15457DA     SC2  436  77.565  50.795  40.941
15457DA     SC3  437  77.461  50.723  41.164
15457DA     SC4  438  77.736  50.669  41.186
15458DG     BB1  439  78.322  50.856  40.807
15458DG     BB2  440  78.059  51.032  40.633
15458DG     BB3  441  78.025  51.207  40.722
15458DG     SC1  442  77.814  51.097  40.914
15458DG     SC2  443  77.523  51.165  40.913
15458DG     SC3  444  77.594  51.006  41.153
15458DG     SC4  445  77.861  51.038  41.055
15459DT     BB1  446  78.056  51.394  40.612
15459DT     BB2  447  77.714  51.486  40.539
15459DT     BB3  448  77.654  51.638  40.665
15459DT     SC1  449  77.632  51.473  40.867
15459DT     SC2  450  77.424  51.449  40.918
15459DT     SC3  451  77.676  51.361  41.102
15460DA     BB1  452  77.568  51.720  40.262
15460DA     BB2  453  77.264  51.774  40.461
15460DA     BB3  454  77.286  51.946  40.585
15460DA     SC1  455  77.402  51.789  40.826
15460DA     SC2  456  77.330  51.723  41.056
15460DA     SC3  457  77.580  51.690  41.103
15460DA     SC4  458  77.562  51.775  40.837
15461DA     BB1  459  77.004  51.967  40.421
15461DA     BB2  460  76.847  51.979  40.752
15461DA     BB3  461  76.899  52.160  40.852
15461DA     SC1  462  77.151  52.042  40.989
15461DA     SC2  463  77.224  51.979  41.219
15461DA     SC3  464  77.463  51.994  41.126
15461DA     SC4  465  77.292  52.057  40.913
15462DC     BB1  466  76.750  52.248  40.875
15462DC     BB2  467  76.724  52.203  41.232
15462DC     BB3  468  76.807  52.365  41.330
15462DC     SC1  469  77.050  52.282  41.275
15462DC     SC2  470  77.146  52.217  41.456
15462DC     SC3  471  77.294  52.278  41.174
15463DA     BB1  472  76.425  52.279  41.482
15463DA     BB2  473  76.655  52.326  41.764
15463DA     BB3  474  76.713  52.531  41.779
15463DA     SC1  475  76.963  52.498  41.596
15463DA     SC2  476  77.211  52.502  41.620
15463DA     SC3  477  77.214  52.546  41.368
15463DA     SC4  478  76.944  52.527  41.439
15464DA     BB1  479  76.608  52.470  42.084
15464DA     BB2  480  76.945  52.565  42.195
15464DA     BB3  481  76.973  52.776  42.174
15464DA     SC1  482  77.086  52.757  41.885
15464DA     SC2  483  77.305  52.790  41.770
15464DA     SC3  484  77.166  52.813  41.556
15464DA     SC4  485  76.982  52.770  41.763
15465DT     BB1  486  76.995  52.876  42.339
15465DT     BB2  487  77.347  52.948  42.305
15465DT     BB3  488  77.373  53.143  42.239
15465DT     SC1  489  77.299  53.080  41.996
15465DT     SC2  490  77.469  53.090  41.864
15465DT     SC3  491  77.159  53.074  41.773
15466DA     BB1  492  77.613  53.102  42.582
15466DA     BB2  493  77.816  53.262  42.322
15466DA     BB3  494  77.754  53.464  42.294
15466DA     SC1  495  77.547  53.395  42.072
15466DA     SC2  496  77.521  53.429  41.827
15466DA     SC3  497  77.272  53.386  41.867
15466DA     SC4  498  77.395  53.367  42.118
15467DA     BB1  499  78.074  53.539  42.349
15467DA     BB2  500  78.081  53.688  42.014
15467DA     BB3  501  77.985  53.879  42.015
15467DA     SC1  502  77.704  53.764  41.945
15467DA     SC2  503  77.546  53.767  41.752
15467DA     SC3  504  77.366  53.705  41.924
15467DA     SC4  505  77.606  53.727  42.067
15468DT     BB1  506  78.088  54.074  41.987
15468DT     BB2  507  77.968  54.140  41.654
15468DT     BB3  508  77.829  54.294  41.658
15468DT     SC1  509  77.646  54.137  41.760
15468DT     SC2  510  77.492  54.102  41.613
15468DT     SC3  511  77.470  54.039  41.930
15469DT     BB1  512  77.995  54.506  41.552
15469DT     BB2  513  77.710  54.505  41.331
15469DT     BB3  514  77.567  54.640  41.399
15469DT     SC1  515  77.496  54.478  41.593
15469DT     SC2  516  77.299  54.402  41.553
15469DT     SC3  517  77.456  54.385  41.836
15470DG     BB1  518  77.644  54.822  41.033
15470DG     BB2  519  77.290  54.762  41.071
15470DG     BB3  520  77.206  54.911  41.171
15470DG     SC1  521  77.249  54.784  41.446
15470DG     SC2  522  77.035  54.685  41.629
15470DG     SC3  523  77.298  54.682  41.764
15470DG     SC4  524  77.386  54.812  41.524
15471DC     BB1  525  77.026  55.091  41.097
15471DC     BB2  526  76.736  54.942  41.253
15471DC     BB3  527  76.668  55.064  41.406
15471DC     SC1  528  76.867  54.992  41.562
15471DC     SC2  529  76.790  54.872  41.723
15471DC     SC3  530  77.084  55.008  41.710
15472DT     BB1  531  76.442  55.148  41.265
15472DT     BB2  532  76.311  54.987  41.559
15472DT     BB3  533  76.287  55.125  41.711
15472DT     SC1  534  76.545  55.134  41.755
15472DT     SC2  535  76.589  55.043  41.945
15472DT     SC3  536  76.791  55.229  41.773
15473DA     BB1  537  75.944  54.894  41.653
15473DA     BB2  538  76.032  54.884  42.009
15473DA     BB3  539  75.992  55.072  42.101
15473DA     SC1  540  76.275  55.188  42.046
15473DA     SC2  541  76.478  55.250  42.177
15473DA     SC3  542  76.541  55.393  41.974
15473DA     SC4  543  76.296  55.272  41.911
15474DA     BB1  544  75.855  54.837  42.280
15474DA     BB2  545  76.069  54.959  42.552
15474DA     BB3  546  76.006  55.153  42.615
15474DA     SC1  547  76.191  55.305  42.417
15474DA     SC2  548  76.394  55.449  42.428
15474DA     SC3  549  76.324  55.531  42.196
15474DA     SC4  550  76.129  55.345  42.274
15475DT     BB1  551  75.954  55.136  42.781
15475DT     BB2  552  76.230  55.311  42.935
15475DT     BB3  553  76.179  55.510  42.965
15475DT     SC1  554  76.205  55.564  42.709
15475DT     SC2  555  76.378  55.689  42.680
15475DT     SC3  556  76.143  55.635  42.463
15476DT     BB1  557  76.171  55.451  43.224
15476DT     BB2  558  76.401  55.727  43.200
15476DT     BB3  559  76.297  55.906  43.197
15476DT     SC1  560  76.221  55.867  42.949
15476DT     SC2  561  76.320  56.008  42.820
15476DT     SC3  562  76.064  55.826  42.741
15477DA     BB1  563  76.582  55.949  43.503
15477DA     BB2  564  76.595  56.252  43.297
15477DA     BB3  565  76.424  56.374  43.334
15477DA     SC1  566  76.251  56.243  43.111
15477DA     SC2  567  76.158  56.307  42.888
15477DA     SC3  568  75.994  56.113  42.924
15477DA     SC4  569  76.157  56.120  43.152
15478DA     BB1  570  76.634  56.624  43.406
15478DA     BB2  571  76.487  56.811  43.127
15478DA     BB3  572  76.302  56.899  43.185
15478DA     SC1  573  76.130  56.656  43.097
15478DA     SC2  574  75.964  56.602  42.919
15478DA     SC3  575  75.891  56.410  43.073
15478DA     SC4  576  76.098  56.543  43.207
15479DG     BB1  577  76.421  57.190  43.132
15479DG     BB2  578  76.172  57.199  42.870
15479DG     BB3  579  76.000  57.266  42.943
15479DG     SC1  580  75.896  56.989  43.021
15479DG     SC2  581  75.664  56.847  42.898
15479DG     SC3  582  75.760  56.703  43.138
15479DG     SC4  583  75.931  56.931  43.166
15480DT     BB1  584  75.896  57.463  42.873
15480DT     BB2  585  75.635  57.328  42.664
15480DT     BB3  586  75.452  57.349  42.758
15480DT     SC1  587  75.506  57.153  42.924
15480DT     SC2  588  75.381  56.984  42.878
15480DT     SC3  589  75.554  57.025  43.150
15481DC     BB1  590  75.389  57.538  42.577
15481DC     BB2  591  75.135  57.284  42.539
15481DC     BB3  592  74.981  57.319  42.673
15481DC     SC1  593  75.125  57.232  42.874
15481DC     SC2  594  75.046  57.045  42.944
15481DC     SC3  595  75.259  57.231  43.101
15482DA     BB1  596  74.850  57.247  42.279
15482DA     BB2  597  74.660  57.033  42.508
15482DA     BB3  598  74.529  57.152  42.629
15482DA     SC1  599  74.737  57.191  42.857
15482DA     SC2  600  74.768  57.116  43.093
15482DA     SC3  601  74.927  57.317  43.114
15482DA     SC4  602  74.830  57.322  42.851
15483DA     BB1  603  74.349  56.913  42.497
15483DA     BB2  604  74.276  56.817  42.843
15483DA     BB3  605  74.154  56.964  42.938
15483DA     SC1  606  74.396  57.128  43.047
15483DA     SC2  607  74.500  57.178  43.268
15483DA     SC3  608  74.607  57.379  43.149
15483DA     SC4  609  74.451  57.248  42.956
15484DT     BB1  610  73.993  56.895  42.981
15484DT     BB2  611  74.043  56.878  43.338
15484DT     BB3  612  73.958  57.043  43.429
15484DT     SC1  613  74.152  57.199  43.346
15484DT     SC2  614  74.272  57.259  43.514
15484DT     SC3  615  74.278  57.393  43.219
15485DT     BB1  616  73.778  56.874  43.523
15485DT     BB2  617  73.917  57.034  43.814
15485DT     BB3  618  73.824  57.216  43.847
15485DT     SC1  619  73.954  57.326  43.647
15485DT     SC2  620  74.096  57.468  43.724
15485DT     SC3  621  74.000  57.444  43.416
15486DT     BB1  622  73.713  57.100  44.057
15486DT     BB2  623  73.885  57.389  44.188
15486DT     BB3  624  73.766  57.558  44.165
15486DT     SC1  625  73.817  57.567  43.908
15486DT     SC2  626  73.940  57.738  43.865
15486DT     SC3  627  73.777  57.562  43.647
15487DT     BB1  628  73.735  57.552  44.428
15487DT     BB2  629  73.868  57.880  44.358
15487DT     BB3  630  73.715  58.008  44.301
15487DT     SC1  631  73.698  57.895  44.065
15487DT     SC2  632  73.768  58.033  43.915
15487DT     SC3  633  73.598  57.762  43.860
15488DC     BB1  634  73.747  58.129  44.537
15488DC     BB2  635  73.785  58.391  44.291
15488DC     BB3  636  73.599  58.464  44.236
15488DC     SC1  637  73.550  58.250  44.091
15488DC     SC2  638  73.552  58.303  43.883
15488DC     SC3  639  73.436  58.027  44.008
15489DG     BB1  640  73.815  58.781  44.376
15489DG     BB2  641  73.670  58.852  44.053
15489DG     BB3  642  73.476  58.892  44.073
15489DG     SC1  643  73.389  58.600  44.039
15489DG     SC2  644  73.232  58.489  43.810
15489DG     SC3  645  73.259  58.289  44.026
15489DG     SC4  646  73.380  58.506  44.168
15490DA     BB1  647  73.519  59.194  43.897
15490DA     BB2  648  73.276  59.086  43.644
15490DA     BB3  649  73.078  59.107  43.719
15490DA     SC1  650  73.065  58.819  43.836
15490DA     SC2  651  72.947  58.605  43.787
15490DA     SC3  652  73.003  58.542  44.029
15490DA     SC4  653  73.109  58.799  43.989
15491DT     BB1  654  72.925  59.255  43.646
15491DT     BB2  655  72.716  59.020  43.469
15491DT     BB3  656  72.537  58.994  43.571
15491DT     SC1  657  72.654  58.848  43.755
15491DT     SC2  658  72.587  58.644  43.736
15491DT     SC3  659  72.743  58.771  43.991
15492DA     BB1  660  72.396  59.107  43.189
15492DA     BB2  661  72.215  58.803  43.285
15492DA     BB3  662  72.061  58.849  43.426
15492DA     SC1  663  72.242  58.806  43.675
15492DA     SC2  664  72.263  58.642  43.862
15492DA     SC3  665  72.393  58.828  43.983
15492DA     SC4  666  72.319  58.934  43.734
15493DA     BB1  667  71.848  58.705  43.216
15493DA     BB2  668  71.785  58.454  43.476
15493DA     BB3  669  71.647  58.530  43.620
15493DA     SC1  670  71.867  58.650  43.805
15493DA     SC2  671  71.963  58.604  44.030
15493DA     SC3  672  72.046  58.846  44.021
15493DA     SC4  673  71.908  58.803  43.781
15494DT     BB1  674  71.458  58.444  43.639
15494DT     BB2  675  71.530  58.263  43.943
15494DT     BB3  676  71.433  58.352  44.103
15494DT     SC1  677  71.604  58.551  44.106
15494DT     SC2  678  71.726  58.537  44.283
15494DT     SC3  679  71.701  58.796  44.089
15495DT     BB1  680  71.274  58.138  44.107
15495DT     BB2  681  71.427  58.148  44.433
15495DT     BB3  682  71.320  58.275  44.558
15495DT     SC1  683  71.417  58.487  44.437
15495DT     SC2  684  71.552  58.590  44.570
15495DT     SC3  685  71.427  58.710  44.296
15496DT     BB1  686  71.251  58.054  44.682
15496DT     BB2  687  71.412  58.257  44.933
15496DT     BB3  688  71.277  58.394  45.009
15496DT     SC1  689  71.291  58.541  44.792
15496DT     SC2  690  71.391  58.726  44.837
15496DT     SC3  691  71.217  58.664  44.571
15497DG     BB1  692  71.441  58.169  45.307
15497DG     BB2  693  71.469  58.524  45.374
15497DG     BB3  694  71.293  58.596  45.429
15497DG     SC1  695  71.204  58.665  45.144
15497DG     SC2  696  71.161  58.939  45.035
15497DG     SC3  697  71.067  58.734  44.844
15497DG     SC4  698  71.128  58.553  45.058
15498DG     BB1  699  71.442  58.695  45.703
15498DG     BB2  700  71.352  59.030  45.602
15498DG     BB3  701  71.162  59.067  45.648
15498DG     SC1  702  71.052  58.965  45.381
15498DG     SC2  703  70.919  59.130  45.172
15498DG     SC3  704  70.896  58.842  45.109
15498DG     SC4  705  71.016  58.809  45.367
15499DC     BB1  706  71.105  59.225  45.794
15499DC     BB2  707  70.970  59.480  45.577
15499DC     BB3  708  70.764  59.478  45.585
15499DC     SC1  709  70.751  59.260  45.440
15499DC     SC2  710  70.669  59.307  45.247
15499DC     SC3  711  70.703  59.010  45.372
15500DC     BB1  712  70.753  59.711  45.733
15500DC     BB2  713  70.550  59.781  45.443
15500DC     BB3  714  70.355  59.724  45.478
15500DC     SC1  715  70.416  59.470  45.451
15500DC     SC2  716  70.329  59.394  45.270
15500DC     SC3  717  70.452  59.216  45.511
15501DA     BB1  718  70.325  60.124  45.357
15501DA     BB2  719  70.087  59.931  45.156
15501DA     BB3  720  69.915  59.881  45.273
15501DA     SC1  721  70.032  59.610  45.373
15501DA     SC2  722  69.990  59.367  45.339
15501DA     SC3  723  70.117  59.335  45.560
15501DA     SC4  724  70.112  59.611  45.512
15502DT     BB1  725  69.734  59.961  45.223
15502DT     BB2  726  69.596  59.662  45.075
15502DT     BB3  727  69.455  59.579  45.202
15502DT     SC1  728  69.642  59.489  45.363
15502DT     SC2  729  69.649  59.274  45.350
15502DT     SC3  730  69.788  59.456  45.580
15503DC     BB1  731  69.265  59.657  45.029
15503DC     BB2  732  69.225  59.299  45.056
15503DC     BB3  733  69.105  59.254  45.219
15503DC     SC1  734  69.299  59.307  45.387
15503DC     SC2  735  69.366  59.125  45.479
15503DC     SC3  736  69.434  59.425  45.580
15504DA     BB1  737  68.960  59.054  44.880
15504DA     BB2  738  68.985  58.811  45.153
15504DA     BB3  739  68.833  58.847  45.298
15504DA     SC1  740  69.008  59.040  45.469
15504DA     SC2  741  69.119  59.039  45.693
15504DA     SC3  742  69.121  59.295  45.670
15504DA     SC4  743  68.998  59.197  45.437
15505DA     BB1  744  68.787  58.529  45.235
15505DA     BB2  745  68.855  58.470  45.590
15505DA     BB3  746  68.690  58.535  45.709
15505DA     SC1  747  68.801  58.824  45.748
15505DA     SC2  748  68.895  58.962  45.933
15505DA     SC3  749  68.835  59.163  45.786
15505DA     SC4  750  68.755  58.936  45.642
15506DA     BB1  751  68.713  58.227  45.823
15506DA     BB2  752  68.773  58.374  46.154
15506DA     BB3  753  68.592  58.450  46.235
15506DA     SC1  754  68.629  58.735  46.115
15506DA     SC2  755  68.677  58.965  46.198
15506DA     SC3  756  68.579  59.044  45.975
15506DA     SC4  757  68.563  58.764  45.972
15507DC     BB1  758  68.507  58.362  46.403
15507DC     BB2  759  68.593  58.623  46.637
15507DC     BB3  760  68.425  58.733  46.686
15507DC     SC1  761  68.427  58.855  46.453
15507DC     SC2  762  68.480  59.062  46.481
15507DC     SC3  763  68.351  58.933  46.213
15508DA     BB1  764  68.586  58.614  47.054
15508DA     BB2  765  68.524  58.975  47.072
15508DA     BB3  766  68.315  59.013  47.095
15508DA     SC1  767  68.261  59.031  46.789
15508DA     SC2  768  68.201  59.206  46.622
15508DA     SC3  769  68.122  59.011  46.475
15508DA     SC4  770  68.216  58.896  46.713
15509DT     BB1  771  68.241  59.097  47.271
15509DT     BB2  772  68.184  59.427  47.137
15509DT     BB3  773  67.981  59.460  47.113
15509DT     SC1  774  67.973  59.305  46.902
15509DT     SC2  775  67.938  59.425  46.726
15509DT     SC3  776  67.911  59.102  46.745
15510DT     BB1  777  67.989  59.633  47.320
15510DT     BB2  778  67.865  59.827  47.043
15510DT     BB3  779  67.660  59.806  47.028
15510DT     SC1  780  67.683  59.564  46.929
15510DT     SC2  781  67.624  59.566  46.723
15510DT     SC3  782  67.663  59.302  46.907
15511DT     BB1  783  67.647  60.059  47.110
15511DT     BB2  784  67.479  60.054  46.791
15511DT     BB3  785  67.282  59.996  46.816
15511DT     SC1  786  67.352  59.746  46.853
15511DT     SC2  787  67.288  59.629  46.684
15511DT     SC3  788  67.385  59.513  46.971
15512DC     BB1  789  67.231  60.246  46.753
15512DC     BB2  790  67.053  60.049  46.510
15512DC     BB3  791  66.873  59.983  46.590
15512DC     SC1  792  66.996  59.804  46.738
15512DC     SC2  793  66.951  59.607  46.664
15512DC     SC3  794  67.084  59.676  46.951
15513DT     BB1  795  66.753  60.154  46.425
15513DT     BB2  796  66.609  59.833  46.346
15513DT     BB3  797  66.455  59.791  46.477
15513DT     SC1  798  66.623  59.738  46.671
15513DT     SC2  799  66.619  59.527  46.714
15513DT     SC3  800  66.750  59.756  46.902
15514DA     BB1  801  66.305  59.739  46.088
15514DA     BB2  802  66.214  59.443  46.285
15514DA     BB3  803  66.059  59.490  46.423
15514DA     SC1  804  66.253  59.568  46.653
15514DA     SC2  805  66.323  59.478  46.875
15514DA     SC3  806  66.404  59.716  46.924
15514DA     SC4  807  66.296  59.723  46.665
15515DG     BB1  808  65.900  59.273  46.268
15515DG     BB2  809  65.915  59.100  46.585
15515DG     BB3  810  65.772  59.167  46.706
15515DG     SC1  811  65.943  59.390  46.827
15515DG     SC2  812  66.037  59.405  47.110
15515DG     SC3  813  66.095  59.657  46.966
15515DG     SC4  814  65.946  59.533  46.756
15516DA     BB1  815  65.696  58.833  46.743
15516DA     BB2  816  65.760  58.861  47.103
15516DA     BB3  817  65.598  58.961  47.199
15516DA     SC1  818  65.723  59.244  47.168
15516DA     SC2  819  65.824  59.419  47.315
15516DA     SC3  820  65.774  59.581  47.122
15516DA     SC4  821  65.683  59.329  47.037
15517DT     BB1  822  65.516  58.849  47.316
15517DT     BB2  823  65.645  58.998  47.618
15517DT     BB3  824  65.505  59.126  47.700
15517DT     SC1  825  65.551  59.307  47.516
15517DT     SC2  826  65.649  59.477  47.606
15517DT     SC3  827  65.512  59.470  47.312
15518DA     BB1  828  65.681  58.861  47.976
15518DA     BB2  829  65.684  59.200  48.116
15518DA     BB3  830  65.486  59.265  48.159
15518DA     SC1  831  65.442  59.394  47.879
15518DA     SC2  832  65.419  59.623  47.783
15518DA     SC3  833  65.309  59.506  47.583
15518DA     SC4  834  65.376  59.303  47.765
15519DT     BB1  835  65.487  59.287  48.326
15519DT     BB2  836  65.462  59.647  48.330
15519DT     BB3  837  65.263  59.704  48.335
15519DT     SC1  838  65.231  59.642  48.082
15519DT     SC2  839  65.204  59.822  47.967
15519DT     SC3  840  65.141  59.521  47.865
15520DC     BB1  841  65.323  59.779  48.578
15520DC     BB2  842  65.175  60.070  48.424
15520DC     BB3  843  64.968  60.052  48.424
15520DC     SC1  844  64.976  59.876  48.229
15520DC     SC2  845  64.895  59.964  48.051
15520DC     SC3  846  64.948  59.648  48.100
15521DA     BB1  847  65.021  60.427  48.614
15521DA     BB2  848  64.749  60.468  48.371
15521DA     BB3  849  64.571  60.374  48.443
15521DA     SC1  850  64.633  60.100  48.310
15521DA     SC2  851  64.544  59.961  48.122
15521DA     SC3  852  64.662  59.765  48.238
15521DA     SC4  853  64.712  59.990  48.397
15522DT     BB1  854  64.345  60.464  48.536
15522DT     BB2  855  64.140  60.373  48.253
15522DT     BB3  856  64.005  60.227  48.308
15522DT     SC1  857  64.192  60.043  48.311
15522DT     SC2  858  64.160  59.907  48.147
15522DT     SC3  859  64.356  59.857  48.401
15523DA     BB1  860  63.689  60.497  48.192
15523DA     BB2  861  63.608  60.179  48.029
15523DA     BB3  862  63.502  60.052  48.164
15523DA     SC1  863  63.759  59.916  48.275
15523DA     SC2  864  63.869  59.692  48.264
15523DA     SC3  865  63.995  59.766  48.475
15523DA     SC4  866  63.827  59.980  48.406
15524DT     BB1  867  63.250  59.964  48.175
15524DT     BB2  868  63.327  59.632  48.055
15524DT     BB3  869  63.282  59.492  48.200
15524DT     SC1  870  63.494  59.558  48.341
15524DT     SC2  871  63.637  59.398  48.335
15524DT     SC3  872  63.641  59.648  48.541
15525DT     BB1  873  63.036  59.378  48.087
15525DT     BB2  874  63.255  59.093  48.117
15525DT     BB3  875  63.218  58.994  48.295
15525DT     SC1  876  63.340  59.181  48.434
15525DT     SC2  877  63.524  59.103  48.514
15525DT     SC3  878  63.378  59.377  48.606
15526DT     BB1  879  63.091  58.775  48.173
15526DT     BB2  880  63.370  58.629  48.349
15526DT     BB3  881  63.312  58.572  48.539
15526DT     SC1  882  63.310  58.821  48.621
15526DT     SC2  883  63.471  58.852  48.760
15526DT     SC3  884  63.220  59.051  48.714
15527DC     BB1  885  63.329  58.312  48.462
15527DC     BB2  886  63.560  58.343  48.737
15527DC     BB3  887  63.462  58.311  48.917
15527DC     SC1  888  63.347  58.546  48.905
15527DC     SC2  889  63.429  58.673  49.058
15527DC     SC3  890  63.158  58.730  48.889
15528DA     BB1  891  63.811  58.083  48.889
15528DA     BB2  892  63.812  58.258  49.212
15528DA     BB3  893  63.667  58.172  49.343
15528DA     SC1  894  63.438  58.363  49.253
15528DA     SC2  895  63.306  58.551  49.350
15528DA     SC3  896  63.134  58.498  49.167
15528DA     SC4  897  63.342  58.313  49.134
15529DA     BB1  898  63.945  58.180  49.510
15529DA     BB2  899  63.764  58.390  49.751
15529DA     BB3  900  63.620  58.273  49.857
15529DA     SC1  901  63.390  58.328  49.655
15529DA     SC2  902  63.176  58.455  49.650
15529DA     SC3  903  63.114  58.303  49.453
15529DA     SC4  904  63.370  58.223  49.536
15530DT     BB1  905  63.666  58.271  50.030
15530DT     BB2  906  63.403  58.485  50.152
15530DT     BB3  907  63.247  58.370  50.225
15530DT     SC1  908  63.168  58.308  49.982
15530DT     SC2  909  62.981  58.405  49.941
15530DT     SC3  910  63.112  58.164  49.769
15531DA     BB1  911  63.354  58.662  50.506
15531DA     BB2  912  62.988  58.661  50.477
15531DA     BB3  913  62.907  58.484  50.565
15531DA     SC1  914  62.917  58.319  50.302
15531DA     SC2  915  62.755  58.224  50.137
15531DA     SC3  916  62.948  58.069  50.068
15531DA     SC4  917  63.049  58.231  50.274
15532DC     BB1  918  62.800  58.512  50.723
15532DC     BB2  919  62.478  58.434  50.579
15532DC     BB3  920  62.422  58.241  50.632
15532DC     SC1  921  62.593  58.137  50.463
15532DC     SC2  922  62.486  58.044  50.301
15532DC     SC3  923  62.799  58.001  50.370
15533DT     BB1  924  62.231  58.324  50.820
15533DT     BB2  925  62.046  58.102  50.605
15533DT     BB3  926  62.057  57.908  50.677
15533DT     SC1  927  62.304  57.883  50.594
15533DT     SC2  928  62.311  57.744  50.430
15533DT     SC3  929  62.566  57.849  50.600
15534DT     BB1  930  61.792  57.890  50.790
15534DT     BB2  931  61.807  57.604  50.570
15534DT     BB3  932  61.870  57.437  50.676
15534DT     SC1  933  62.117  57.525  50.681
15534DT     SC2  934  62.239  57.400  50.555
15534DT     SC3  935  62.347  57.612  50.775
15535DA     BB1  936  61.506  57.294  50.517
15535DA     BB2  937  61.761  57.042  50.441
15535DA     BB3  938  61.801  56.922  50.613
15535DA     SC1  939  62.030  57.105  50.717
15535DA     SC2  940  62.278  57.095  50.742
15535DA     SC3  941  62.249  57.284  50.913
15535DA     SC4  942  61.991  57.222  50.821
15536DG     BB1  943  61.701  56.663  50.460
15536DG     BB2  944  62.047  56.562  50.489
15536DG     BB3  945  62.075  56.464  50.660
15536DG     SC1  946  62.142  56.715  50.821
15536DG     SC2  947  62.408  56.781  50.941
15536DG     SC3  948  62.201  56.972  51.032
15536DG     SC4  949  62.024  56.797  50.890
15537DA     BB1  950  62.216  56.209  50.474
15537DA     BB2  951  62.534  56.253  50.652
15537DA     BB3  952  62.526  56.159  50.843
15537DA     SC1  953  62.422  56.413  50.990
15537DA     SC2  954  62.508  56.579  51.156
15537DA     SC3  955  62.262  56.632  51.201
15537DA     SC4  956  62.263  56.431  51.005
15538DT     BB1  957  62.647  56.009  50.866
15538DT     BB2  958  62.886  56.178  51.077
15538DT     BB3  959  62.861  56.119  51.274
15538DT     SC1  960  62.643  56.263  51.299
15538DT     SC2  961  62.682  56.429  51.431
15538DT     SC3  962  62.390  56.326  51.336
15539DC     BB1  963  63.093  55.995  51.241
15539DC     BB2  964  63.144  56.216  51.522
15539DC     BB3  965  63.075  56.127  51.696
15539DC     SC1  966  62.825  56.168  51.628
15539DC     SC2  967  62.740  56.317  51.758
15539DC     SC3  968  62.575  56.120  51.561
15540DA     BB1  969  63.464  56.272  51.757
15540DA     BB2  970  63.258  56.374  52.043
15540DA     BB3  971  63.211  56.205  52.165
15540DA     SC1  972  62.947  56.139  52.014
15540DA     SC2  973  62.702  56.147  52.058
15540DA     SC3  974  62.682  55.979  51.865
15540DA     SC4  975  62.956  56.034  51.892
15541DT     BB1  976  63.290  56.192  52.354
15541DT     BB2  977  62.986  56.255  52.538
15541DT     BB3  978  62.915  56.078  52.620
15541DT     SC1  979  62.830  55.995  52.386
15541DT     SC2  980  62.615  55.994  52.384
15541DT     SC3  981  62.807  55.848  52.168
15542DG     BB1  982  62.973  56.322  52.943
15542DG     BB2  983  62.641  56.179  52.946
15542DG     BB3  984  62.649  55.992  53.013
15542DG     SC1  985  62.692  55.868  52.736
15542DG     SC2  986  62.499  55.693  52.591
15542DG     SC3  987  62.759  55.701  52.451
15542DG     SC4  988  62.841  55.852  52.681
15543DA     BB1  989  62.405  56.058  53.259
15543DA     BB2  990  62.183  55.805  53.115
15543DA     BB3  991  62.243  55.610  53.177
15543DA     SC1  992  62.433  55.563  52.935
15543DA     SC2  993  62.441  55.421  52.731
15543DA     SC3  994  62.693  55.469  52.731
15543DA     SC4  995  62.588  55.604  52.954
15544DT     BB1  996  62.122  55.489  53.307
15544DT     BB2  997  62.006  55.260  53.053
15544DT     BB3  998  62.097  55.076  53.077
15544DT     SC1  999  62.324  55.165  52.982
15544DT     SC2 1000  62.361  55.075  52.790
15544DT     SC3 1001  62.578  55.235  52.970
15545DT     BB1 1002  61.862  54.969  53.166
15545DT     BB2 1003  61.952  54.767  52.881
15545DT     BB3 1004  62.076  54.612  52.941
15545DT     SC1 1005  62.280  54.776  52.967
15545DT     SC2 1006  62.424  54.735  52.813
15545DT     SC3 1007  62.475  54.913  53.080
15546DA     BB1 1008  61.760  54.451  52.717
15546DA     BB2 1009  62.074  54.316  52.584
15546DA     BB3 1010  62.157  54.174  52.719
15546DA     SC1 1011  62.327  54.383  52.874
15546DA     SC2 1012  62.568  54.442  52.902
15546DA     SC3 1013  62.493  54.562  53.116
15546DA     SC4 1014  62.261  54.451  53.004
15547DT     BB1 1015  62.164  53.992  52.653
15547DT     BB2 1016  62.521  53.978  52.597
15547DT     BB3 1017  62.612  53.874  52.751
15547DT     SC1 1018  62.583  54.075  52.916
15547DT     SC2 1019  62.776  54.161  52.959
15547DT     SC3 1020  62.503  54.216  53.124
15548DA     BB1 1021  62.742  53.711  52.386
15548DA     BB2 1022  63.037  53.770  52.595
15548DA     BB3 1023  63.044  53.628  52.755
15548DA     SC1 1024  62.883  53.807  52.952
15548DA     SC2 1025  62.926  53.935  53.162
15548DA     SC3 1026  62.672  53.923  53.197
15548DA     SC4 1027  62.723  53.787  52.957
15549DC     BB1 1028  63.194  53.487  52.760
15549DC     BB2 1029  63.382  53.631  53.032
15549DC     BB3 1030  63.354  53.521  53.204
15549DC     SC1 1031  63.113  53.620  53.237
15549DC     SC2 1032  63.111  53.750  53.408
15549DC     SC3 1033  62.850  53.631  53.257
15550DA     BB1 1034  63.772  53.534  53.163
15550DA     BB2 1035  63.693  53.629  53.509
15550DA     BB3 1036  63.640  53.456  53.622
15550DA     SC1 1037  63.336  53.479  53.559
15550DA     SC2 1038  63.126  53.534  53.681
15550DA     SC3 1039  63.006  53.412  53.490
15550DA     SC4 1040  63.280  53.398  53.432
15551DT     BB1 1041  63.762  53.373  53.789
15551DT     BB2 1042  63.550  53.491  54.056
15551DT     BB3 1043  63.453  53.332  54.145
15551DT     SC1 1044  63.289  53.308  53.942
15551DT     SC2 1045  63.091  53.367  54.002
15551DT     SC3 1046  63.167  53.203  53.732
15552DA     BB1 1047  63.639  53.547  54.453
15552DA     BB2 1048  63.287  53.499  54.545
15552DA     BB3 1049  63.253  53.297  54.604
15552DA     SC1 1050  63.179  53.200  54.318
15552DA     SC2 1051  62.975  53.122  54.197
15552DA     SC3 1052  63.140  53.018  54.030
15552DA     SC4 1053  63.297  53.141  54.227
15553DA     BB1 1054  63.134  53.459  54.861
15553DA     BB2 1055  62.810  53.308  54.778
15553DA     BB3 1056  62.809  53.102  54.833
15553DA     SC1 1057  62.912  53.003  54.556
15553DA     SC2 1058  62.823  52.877  54.360
15553DA     SC3 1059  63.069  52.832  54.303
15553DA     SC4 1060  63.071  52.985  54.539
15554DT     BB1 1061  62.684  53.064  54.967
15554DT     BB2 1062  62.441  52.900  54.757
15554DT     BB3 1063  62.459  52.694  54.776
15554DT     SC1 1064  62.678  52.692  54.631
15554DT     SC2 1065  62.638  52.598  54.442
15554DT     SC3 1066  62.931  52.660  54.565
15555DT     BB1 1067  62.227  52.709  54.901
15555DT     BB2 1068  62.172  52.483  54.625
15555DT     BB3 1069  62.237  52.293  54.675
15555DT     SC1 1070  62.488  52.364  54.649
15555DT     SC2 1071  62.572  52.267  54.475
15555DT     SC3 1072  62.740  52.414  54.710
15556DT     BB1 1073  61.980  52.228  54.680
15556DT     BB2 1074  62.131  52.003  54.441
15556DT     BB3 1075  62.218  51.843  54.540
15556DT     SC1 1076  62.418  51.991  54.620
15556DT     SC2 1077  62.598  51.930  54.518
15556DT     SC3 1078  62.584  52.119  54.781
15557DA     BB1 1079  61.967  51.688  54.240
15557DA     BB2 1080  62.292  51.520  54.215
15557DA     BB3 1081  62.318  51.384  54.377
15557DA     SC1 1082  62.454  51.593  54.563
15557DA     SC2 1083  62.681  51.636  54.658
15557DA     SC3 1084  62.558  51.779  54.832
15557DA     SC4 1085  62.360  51.677  54.663
15558DC     BB1 1086  62.326  51.186  54.338
15558DC     BB2 1087  62.680  51.145  54.390
15558DC     BB3 1088  62.715  51.052  54.572
15558DC     SC1 1089  62.657  51.272  54.704
15558DC     SC2 1090  62.837  51.350  54.793
15558DC     SC3 1091  62.533  51.438  54.866
15559DA     BB1 1092  62.926  50.835  54.282
15559DA     BB2 1093  63.155  50.907  54.558
15559DA     BB3 1094  63.108  50.785  54.727
15559DA     SC1 1095  62.912  50.992  54.852
15559DA     SC2 1096  62.905  51.143  55.050
15559DA     SC3 1097  62.651  51.145  55.014
15559DA     SC4 1098  62.757  50.979  54.814
15560DT     BB1 1099  63.243  50.652  54.781
15560DT     BB2 1100  63.362  50.829  55.072
15560DT     BB3 1101  63.286  50.742  55.244
15560DT     SC1 1102  63.049  50.846  55.201
15560DT     SC2 1103  63.009  50.997  55.348
15560DT     SC3 1104  62.790  50.862  55.151
15561DG     BB1 1105  63.693  50.748  55.264
15561DG     BB2 1106  63.541  50.899  55.555
15561DG     BB3 1107  63.471  50.758  55.676
15561DG     SC1 1108  63.194  50.750  55.546
15561DG     SC2 1109  62.938  50.834  55.674
15561DG     SC3 1110  62.887  50.700  55.415
15561DG     SC4 1111  63.170  50.652  55.422
15562DA     BB1 1112  63.652  50.940  55.906
15562DA     BB2 1113  63.344  50.993  56.098
15562DA     BB3 1114  63.284  50.811  56.193
15562DA     SC1 1115  63.106  50.718  55.956
15562DA     SC2 1116  62.863  50.688  55.908
15562DA     SC3 1117  62.940  50.533  55.719
15562DA     SC4 1118  63.174  50.624  55.844
15563DT     BB1 1119  63.291  50.822  56.379
15563DT     BB2 1120  62.935  50.836  56.435
15563DT     BB3 1121  62.864  50.648  56.488
15563DT     SC1 1122  62.884  50.563  56.240
15563DT     SC2 1123  62.688  50.533  56.159
15563DT     SC3 1124  62.965  50.422  56.033
15564DC     BB1 1125  62.829  50.742  56.736
15564DC     BB2 1126  62.504  50.623  56.634
15564DC     BB3 1127  62.489  50.419  56.669
15564DC     SC1 1128  62.643  50.365  56.463
15564DC     SC2 1129  62.525  50.273  56.308
15564DC     SC3 1130  62.848  50.279  56.322
15565DT     BB1 1131  62.321  50.470  56.872
15565DT     BB2 1132  62.136  50.252  56.651
15565DT     BB3 1133  62.181  50.055  56.693
15565DT     SC1 1134  62.416  50.076  56.578
15565DT     SC2 1135  62.417  49.960  56.397
15565DT     SC3 1136  62.678  50.079  56.548
15566DC     BB1 1137  61.935  50.028  56.797
15566DC     BB2 1138  61.954  49.780  56.536
15566DC     BB3 1139  62.041  49.607  56.609
15566DC     SC1 1140  62.279  49.717  56.607
15566DC     SC2 1141  62.399  49.625  56.454
15566DC     SC3 1142  62.509  49.813  56.694
15567DT     BB1 1143  61.800  49.499  56.588
15567DT     BB2 1144  62.015  49.294  56.383
15567DT     BB3 1145  62.114  49.155  56.501
15567DT     SC1 1146  62.275  49.338  56.596
15567DT     SC2 1147  62.474  49.305  56.520
15567DT     SC3 1148  62.395  49.498  56.768
15568DA     BB1 1149  61.935  48.975  56.165
15568DA     BB2 1150  62.283  48.861  56.188
15568DA     BB3 1151  62.308  48.732  56.356
15568DA     SC1 1152  62.382  48.962  56.552
15568DA     SC2 1153  62.584  49.041  56.675
15568DA     SC3 1154  62.418  49.164  56.827
15568DA     SC4 1155  62.263  49.030  56.636
15569DG     BB1 1156  62.396  48.560  56.117
15569DG     BB2 1157  62.712  48.571  56.293
15569DG     BB3 1158  62.706  48.450  56.451
15569DG     SC1 1159  62.601  48.665  56.642
15569DG     SC2 1160  62.749  48.782  56.873
15569DG     SC3 1161  62.466  48.870  56.873
15569DG     SC4 1162  62.443  48.686  56.655
15570DT     BB1 1163  62.843  48.299  56.450
15570DT     BB2 1164  63.077  48.403  56.704
15570DT     BB3 1165  63.033  48.310  56.883
15570DT     SC1 1166  62.826  48.466  56.922
15570DT     SC2 1167  62.867  48.599  57.086
15570DT     SC3 1168  62.576  48.543  56.955
15571DT     BB1 1169  63.253  48.161  56.849
15571DT     BB2 1170  63.295  48.314  57.173
15571DT     BB3 1171  63.196  48.204  57.317
15571DT     SC1 1172  62.963  48.294  57.236
15571DT     SC2 1173  62.881  48.425  57.386
15571DT     SC3 1174  62.719  48.296  57.137
15572DT     BB1 1175  63.429  48.096  57.425
15572DT     BB2 1176  63.266  48.245  57.710
15572DT     BB3 1177  63.138  48.108  57.798
15572DT     SC1 1178  62.963  48.134  57.605
15572DT     SC2 1179  62.788  48.234  57.680
15572DT     SC3 1180  62.809  48.074  57.399
15573DG     BB1 1181  63.396  48.183  58.110
15573DG     BB2 1182  63.053  48.221  58.218
15573DG     BB3 1183  62.976  48.043  58.264
15573DG     SC1 1184  62.873  47.989  57.980
15573DG     SC2 1185  62.586  47.971  57.898
15573DG     SC3 1186  62.765  47.887  57.678
15573DG     SC4 1187  62.970  47.917  57.875
15574DT     BB1 1188  62.897  47.951  58.489
15574DT     BB2 1189  62.540  47.970  58.445
15574DT     BB3 1190  62.460  47.780  58.430
15574DT     SC1 1191  62.551  47.753  58.185
15574DT     SC2 1192  62.386  47.753  58.048
15574DT     SC3 1193  62.689  47.660  57.981
15575DT     BB1 1194  62.341  47.760  58.694
15575DT     BB2 1195  62.063  47.701  58.472
15575DT     BB3 1196  62.039  47.497  58.441
15575DT     SC1 1197  62.248  47.489  58.283
15575DT     SC2 1198  62.183  47.453  58.081
15575DT     SC3 1199  62.487  47.427  58.190
15576DC     BB1 1200  61.806  47.463  58.604
15576DC     BB2 1201  61.702  47.348  58.278
15576DC     BB3 1202  61.730  47.144  58.263
15576DC     SC1 1203  61.990  47.173  58.239
15576DC     SC2 1204  62.049  47.122  58.038
15576DC     SC3 1205  62.247  47.157  58.292
15577DA     BB1 1206  61.332  47.215  58.158
15577DA     BB2 1207  61.485  47.017  57.890
15577DA     BB3 1208  61.504  46.813  57.950
15577DA     SC1 1209  61.790  46.850  58.069
15577DA     SC2 1210  62.023  46.781  58.014
15577DA     SC3 1211  62.074  46.831  58.260
15577DA     SC4 1212  61.801  46.886  58.225
15578DA     BB1 1213  61.349  46.800  57.668
15578DA     BB2 1214  61.641  46.616  57.545
15578DA     BB3 1215  61.643  46.417  57.624
15578DA     SC1 1216  61.811  46.493  57.875
15578DA     SC2 1217  62.041  46.451  57.962
15578DA     SC3 1218  61.943  46.513  58.191
15578DA     SC4 1219  61.731  46.533  58.008
15579DT     BB1 1220  61.630  46.316  57.486
15579DT     BB2 1221  61.973  46.203  57.484
15579DT     BB3 1222  61.988  46.022  57.582
15579DT     SC1 1223  61.962  46.137  57.816
15579DT     SC2 1224  62.149  46.127  57.922
15579DT     SC3 1225  61.861  46.202  58.051
15580DA     BB1 1226  62.193  46.078  57.215
15580DA     BB2 1227  62.419  45.923  57.459
15580DA     BB3 1228  62.348  45.729  57.513
15580DA     SC1 1229  62.177  45.830  57.752
15580DA     SC2 1230  62.182  45.817  58.001
15580DA     SC3 1231  61.932  45.875  57.988
15580DA     SC4 1232  62.023  45.865  57.723
15581DT     BB1 1233  62.478  45.653  57.463
15581DT     BB2 1234  62.598  45.542  57.785
15581DT     BB3 1235  62.502  45.367  57.839
15581DT     SC1 1236  62.282  45.497  57.897
15581DT     SC2 1237  62.251  45.494  58.110
15581DT     SC3 1238  62.030  45.575  57.887
15582DG     BB1 1239  62.912  45.341  57.854
15582DG     BB2 1240  62.754  45.208  58.151
15582DG     BB3 1241  62.661  45.038  58.108
15582DG     SC1 1242  62.396  45.172  58.036
15582DG     SC2 1243  62.140  45.147  58.187
15582DG     SC3 1244  62.097  45.288  57.931
15582DG     SC4 1245  62.372  45.221  57.885
15583DT     BB1 1246  62.723  44.845  58.195
15583DT     BB2 1247  62.451  44.766  58.419
15583DT     BB3 1248  62.324  44.628  58.331
15583DT     SC1 1249  62.223  44.810  58.171
15583DT     SC2 1250  62.019  44.849  58.228
15583DT     SC3 1251  62.160  44.938  57.949
15584DT     BB1 1252  62.409  44.399  58.478
15584DT     BB2 1253  62.051  44.399  58.525
15584DT     BB3 1254  61.961  44.285  58.377
15584DT     SC1 1255  62.000  44.474  58.198
15584DT     SC2 1256  61.811  44.561  58.144
15584DT     SC3 1257  62.090  44.596  57.983
15585DA     BB1 1258  61.807  44.085  58.716
15585DA     BB2 1259  61.521  44.156  58.497
15585DA     BB3 1260  61.513  44.015  58.337
15585DA     SC1 1261  61.687  44.186  58.145
15585DA     SC2 1262  61.657  44.317  57.935
15585DA     SC3 1263  61.911  44.294  57.907
15585DA     SC4 1264  61.846  44.160  58.145
15586DT     BB1 1265  61.352  43.855  58.307
15586DT     BB2 1266  61.180  44.027  58.040
15586DT     BB3 1267  61.206  43.924  57.862
15586DT     SC1 1268  61.454  44.008  57.840
15586DT     SC2 1269  61.468  44.147  57.677
15586DT     SC3 1270  61.717  44.003  57.826
15587DC     BB1 1271  60.945  43.836  57.861
15587DC     BB2 1272  60.979  44.020  57.553
15587DC     BB3 1273  61.045  43.894  57.402
15587DC     SC1 1274  61.288  43.892  57.500
15587DC     SC2 1275  61.420  43.999  57.368
15587DC     SC3 1276  61.512  43.802  57.608
15588DT     BB1 1277  60.801  43.913  57.295
15588DT     BB2 1278  61.025  44.033  57.039
15588DT     BB3 1279  61.099  43.873  56.929
15588DT     SC1 1280  61.259  43.803  57.125
15588DT     SC2 1281  61.463  43.841  57.068
15588DT     SC3 1282  61.367  43.659  57.318
15589DT     BB1 1283  60.949  43.968  56.734
15589DT     BB2 1284  61.285  43.963  56.602
15589DT     BB3 1285  61.331  43.774  56.533
15589DT     SC1 1286  61.359  43.682  56.777
15589DT     SC2 1287  61.566  43.639  56.814
15589DT     SC3 1288  61.316  43.540  56.995
15590DT     BB1 1289  61.320  43.880  56.290
15590DT     BB2 1290  61.650  43.736  56.313
15590DT     BB3 1291  61.641  43.533  56.269
15590DT     SC1 1292  61.533  43.480  56.503
15590DT     SC2 1293  61.675  43.372  56.624
15590DT     SC3 1294  61.357  43.400  56.682
15591DG     BB1 1295  61.904  43.699  56.004
15591DG     BB2 1296  62.048  43.412  56.171
15591DG     BB3 1297  61.978  43.244  56.091
15591DG     SC1 1298  61.739  43.225  56.281
15591DG     SC2 1299  61.696  43.015  56.488
15591DG     SC3 1300  61.455  43.184  56.458
15591DG     SC4 1301  61.602  43.298  56.241
15592DG     BB1 1302  62.286  43.151  56.016
15592DG     BB2 1303  62.230  42.870  56.237
15592DG     BB3 1304  62.133  42.726  56.140
15592DG     SC1 1305  61.854  42.830  56.214
15592DG     SC2 1306  61.658  42.693  56.392
15592DG     SC3 1307  61.535  42.927  56.258
15592DG     SC4 1308  61.784  42.937  56.118
15593DG     BB1 1309  62.381  42.519  56.205
15593DG     BB2 1310  62.141  42.326  56.393
15593DG     BB3 1311  62.038  42.207  56.271
15593DG     SC1 1312  61.818  42.414  56.216
15593DG     SC2 1313  61.533  42.392  56.301
15593DG     SC3 1314  61.572  42.622  56.118
15593DG     SC4 1315  61.837  42.517  56.096
15594DT     BB1 1316  62.047  41.988  56.290
15594DT     BB2 1317  61.727  41.913  56.437
15594DT     BB3 1318  61.599  41.838  56.293
15594DT     SC1 1319  61.565  42.075  56.187
15594DT     SC2 1320  61.364  42.142  56.224
15594DT     SC3 1321  61.570  42.271  56.011
15595DC     BB1 1322  61.619  41.593  56.406
15595DC     BB2 1323  61.265  41.662  56.405
15595DC     BB3 1324  61.183  41.607  56.223
15595DC     SC1 1325  61.288  41.815  56.103
15595DC     SC2 1326  61.131  41.953  56.049
15595DC     SC3 1327  61.436  41.958  55.938
15596DC     BB1 1328  61.060  41.392  56.339
15596DC     BB2 1329  60.791  41.576  56.184
15596DC     BB3 1330  60.770  41.518  55.986
15596DC     SC1 1331  60.985  41.652  55.916
15596DC     SC2 1332  60.928  41.820  55.796
15596DC     SC3 1333  61.228  41.701  55.826
15597DT     BB1 1334  60.538  41.375  56.034
15597DT     BB2 1335  60.445  41.608  55.776
15597DT     BB3 1336  60.483  41.527  55.589
15597DT     SC1 1337  60.741  41.564  55.617
15597DT     SC2 1338  60.805  41.718  55.481
15597DT     SC3 1339  60.998  41.512  55.640
15598DT     BB1 1340  60.212  41.471  55.522
15598DT     BB2 1341  60.327  41.680  55.251
15598DT     BB3 1342  60.403  41.562  55.099
15598DT     SC1 1343  60.622  41.512  55.236
15598DT     SC2 1344  60.788  41.611  55.142
15598DT     SC3 1345  60.807  41.378  55.367
15599DT     BB1 1346  60.185  41.593  54.918
15599DT     BB2 1347  60.471  41.712  54.732
15599DT     BB3 1348  60.553  41.556  54.622
15599DT     SC1 1349  60.659  41.450  54.838
15599DT     SC2 1350  60.873  41.471  54.830
15599DT     SC3 1351  60.708  41.277  55.031
15600DA     BB1 1352  60.483  41.863  54.347
15600DA     BB2 1353  60.834  41.762  54.315
15600DA     BB3 1354  60.848  41.577  54.210
15600DA     SC1 1355  60.833  41.401  54.467
15600DA     SC2 1356  60.985  41.254  54.599
15600DA     SC3 1357  60.770  41.153  54.695
15600DA     SC4 1358  60.688  41.350  54.513
15601DT     BB1 1359  60.940  41.589  54.041
15601DT     BB2 1360  61.249  41.445  54.159
15601DT     BB3 1361  61.267  41.250  54.092
15601DT     SC1 1362  61.089  41.167  54.267
15601DT     SC2 1363  61.186  41.047  54.416
15601DT     SC3 1364  60.867  41.064  54.365
15602DC     BB1 1365  61.458  41.363  53.959
15602DC     BB2 1366  61.614  41.111  54.164
15602DC     BB3 1367  61.590  40.924  54.078
15602DC     SC1 1368  61.338  40.915  54.149
15602DC     SC2 1369  61.312  40.766  54.302
15602DC     SC3 1370  61.075  40.905  54.131
15603DA     BB1 1371  61.979  41.016  54.213
15603DA     BB2 1372  61.885  40.683  54.335
15603DA     BB3 1373  61.868  40.546  54.172
15603DA     SC1 1374  61.566  40.602  54.124
15603DA     SC2 1375  61.350  40.481  54.152
15603DA     SC3 1376  61.256  40.651  53.984
15603DA     SC4 1377  61.527  40.715  54.017
15604DT     BB1 1378  61.989  40.428  54.203
15604DT     BB2 1379  61.768  40.158  54.293
15604DT     BB3 1380  61.725  40.043  54.126
15604DT     SC1 1381  61.563  40.227  54.032
15604DT     SC2 1382  61.360  40.155  54.042
15604DT     SC3 1383  61.463  40.411  53.872
15605DA     BB1 1384  61.842  39.804  54.452
15605DA     BB2 1385  61.540  39.659  54.302
15605DA     BB3 1386  61.585  39.578  54.110
15605DA     SC1 1387  61.519  39.841  53.957
15605DA     SC2 1388  61.344  39.925  53.801
15605DA     SC3 1389  61.516  40.103  53.736
15605DA     SC4 1390  61.641  39.943  53.929
15606DC     BB1 1391  61.565  39.392  54.102
15606DC     BB2 1392  61.266  39.383  53.901
15606DC     BB3 1393  61.314  39.345  53.703
15606DC     SC1 1394  61.404  39.589  53.670
15606DC     SC2 1395  61.271  39.697  53.540
15606DC     SC3 1396  61.571  39.788  53.623
15607DA     BB1 1397  61.015  39.074  53.817
15607DA     BB2 1398  60.920  39.218  53.494
15607DA     BB3 1399  61.045  39.142  53.339
15607DA     SC1 1400  61.257  39.368  53.364
15607DA     SC2 1401  61.334  39.564  53.231
15607DA     SC3 1402  61.548  39.550  53.373
15607DA     SC4 1403  61.382  39.342  53.462
15608DA     BB1 1404  60.751  39.072  53.207
15608DA     BB2 1405  60.849  39.283  52.924
15608DA     BB3 1406  60.993  39.183  52.803
15608DA     SC1 1407  61.238  39.298  52.958
15608DA     SC2 1408  61.423  39.460  52.916
15608DA     SC3 1409  61.542  39.343  53.111
15608DA     SC4 1410  61.296  39.211  53.080
15609DT     BB1 1411  60.943  39.127  52.615
15609DT     BB2 1412  61.139  39.373  52.438
15609DT     BB3 1413  61.308  39.284  52.358
15609DT     SC1 1414  61.422  39.272  52.594
15609DT     SC2 1415  61.587  39.410  52.601
15609DT     SC3 1416  61.530  39.172  52.813
15610DA     BB1 1417  61.129  39.476  52.029
15610DA     BB2 1418  61.485  39.563  52.026
15610DA     BB3 1419  61.601  39.397  51.959
15610DA     SC1 1420  61.644  39.281  52.245
15610DA     SC2 1421  61.832  39.255  52.407
15610DA     SC3 1422  61.685  39.075  52.516
15610DA     SC4 1423  61.539  39.172  52.298
15611DT     BB1 1424  61.714  39.384  51.763
15611DT     BB2 1425  62.045  39.419  51.901
15611DT     BB3 1426  62.147  39.239  51.886
15611DT     SC1 1427  62.009  39.136  52.084
15611DT     SC2 1428  62.136  39.110  52.255
15611DT     SC3 1429  61.844  38.977  52.215
15612DA     BB1 1430  62.412  39.504  51.692
15612DA     BB2 1431  62.608  39.315  51.938
15612DA     BB3 1432  62.647  39.118  51.867
15612DA     SC1 1433  62.391  38.996  51.995
15612DA     SC2 1434  62.334  38.839  52.180
15612DA     SC3 1435  62.109  38.810  52.060
15612DA     SC4 1436  62.258  38.990  51.904
15613DA     BB1 1437  62.970  39.183  51.913
15613DA     BB2 1438  62.972  38.915  52.163
15613DA     BB3 1439  62.985  38.724  52.067
15613DA     SC1 1440  62.677  38.686  52.046
15613DA     SC2 1441  62.502  38.541  52.149
15613DA     SC3 1442  62.360  38.604  51.945
15613DA     SC4 1443  62.605  38.736  51.912
15614DT     BB1 1444  63.156  38.603  52.090
15614DT     BB2 1445  63.005  38.370  52.321
15614DT     BB3 1446  62.970  38.189  52.226
15614DT     SC1 1447  62.765  38.289  52.096
15614DT     SC2 1448  62.583  38.201  52.171
15614DT     SC3 1449  62.614  38.370  51.895
15615DT     BB1 1450  63.171  38.074  52.368
15615DT     BB2 1451  62.878  37.881  52.450
15615DT     BB3 1452  62.851  37.730  52.311
15615DT     SC1 1453  62.765  37.901  52.132
15615DT     SC2 1454  62.555  37.869  52.098
15615DT     SC3 1455  62.752  38.043  51.910
15616DT     BB1 1456  62.923  37.556  52.501
15616DT     BB2 1457  62.592  37.455  52.401
15616DT     BB3 1458  62.603  37.332  52.234
15616DT     SC1 1459  62.656  37.536  52.078
15616DT     SC2 1460  62.488  37.572  51.949
15616DT     SC3 1461  62.786  37.693  51.911
15617DC     BB1 1462  62.529  37.135  52.397
15617DC     BB2 1463  62.277  37.145  52.139
15617DC     BB3 1464  62.340  37.038  51.973
15617DC     SC1 1465  62.507  37.229  51.905
15617DC     SC2 1466  62.437  37.324  51.725
15617DC     SC3 1467  62.734  37.354  51.853
15618DA     BB1 1468  61.953  36.922  52.087
15618DA     BB2 1469  61.953  36.992  51.727
15618DA     BB3 1470  62.062  36.841  51.622
15618DA     SC1 1471  62.334  36.991  51.639
15618DA     SC2 1472  62.490  37.108  51.484
15618DA     SC3 1473  62.667  37.071  51.666
15618DA     SC4 1474  62.430  36.957  51.764
15619DC     BB1 1475  61.952  36.747  51.510
15619DC     BB2 1476  62.072  36.891  51.202
15619DC     BB3 1477  62.208  36.764  51.113
15619DC     SC1 1478  62.394  36.828  51.287
15619DC     SC2 1479  62.547  36.943  51.189
15619DC     SC3 1480  62.570  36.805  51.482
15620DT     BB1 1481  62.018  36.733  50.937
15620DT     BB2 1482  62.303  36.852  50.751
15620DT     BB3 1483  62.432  36.695  50.711
15620DT     SC1 1484  62.517  36.692  50.960
15620DT     SC2 1485  62.720  36.761  50.967
15620DT     SC3 1486  62.564  36.607  51.205
15621DA     BB1 1487  62.351  36.919  50.365
15621DA     BB2 1488  62.713  36.868  50.389
15621DA     BB3 1489  62.762  36.664  50.355
15621DA     SC1 1490  62.743  36.583  50.655
15621DA     SC2 1491  62.897  36.513  50.837
15621DA     SC3 1492  62.688  36.417  50.950
15621DA     SC4 1493  62.601  36.528  50.708
15622DT     BB1 1494  62.862  36.645  50.203
15622DT     BB2 1495  63.176  36.568  50.363
15622DT     BB3 1496  63.205  36.363  50.366
15622DT     SC1 1497  63.028  36.333  50.558
15622DT     SC2 1498  63.129  36.276  50.740
15622DT     SC3 1499  62.810  36.256  50.685
15623DT     BB1 1500  63.395  36.401  50.183
15623DT     BB2 1501  63.559  36.228  50.454
15623DT     BB3 1502  63.529  36.024  50.437
15623DT     SC1 1503  63.281  36.047  50.519
15623DT     SC2 1504  63.262  35.959  50.715
15623DT     SC3 1505  63.017  36.039  50.518
15624DT     BB1 1506  63.786  36.000  50.367
15624DT     BB2 1507  63.747  35.783  50.653
15624DT     BB3 1508  63.675  35.598  50.592
15624DT     SC1 1509  63.435  35.695  50.554
15624DT     SC2 1510  63.301  35.615  50.703
15624DT     SC3 1511  63.213  35.768  50.431
15625DT     BB1 1512  63.917  35.499  50.647
15625DT     BB2 1513  63.689  35.303  50.846
15625DT     BB3 1514  63.610  35.150  50.733
15625DT     SC1 1515  63.453  35.315  50.603
15625DT     SC2 1516  63.249  35.279  50.660
15625DT     SC3 1517  63.347  35.453  50.405
15626DC     BB1 1518  63.759  34.981  50.877
15626DC     BB2 1519  63.420  34.862  50.916
15626DC     BB3 1520  63.370  34.739  50.756
15626DC     SC1 1521  63.345  34.946  50.596
15626DC     SC2 1522  63.137  34.973  50.546
15626DC     SC3 1523  63.389  35.110  50.394
15627DA     BB1 1524  63.278  34.535  51.112
15627DA     BB2 1525  62.989  34.510  50.888
15627DA     BB3 1526  63.032  34.379  50.726
15627DA     SC1 1527  63.140  34.605  50.541
15627DA     SC2 1528  63.070  34.722  50.332
15627DA     SC3 1529  63.317  34.788  50.310
15627DA     SC4 1530  63.298  34.634  50.544
15628DT     BB1 1531  62.931  34.205  50.713
15628DT     BB2 1532  62.721  34.293  50.433
15628DT     BB3 1533  62.791  34.203  50.261
15628DT     SC1 1534  62.991  34.372  50.244
15628DT     SC2 1535  62.960  34.502  50.075
15628DT     SC3 1536  63.238  34.465  50.238
15629DC     BB1 1537  62.586  34.016  50.254
15629DC     BB2 1538  62.569  34.176  49.931
15629DC     BB3 1539  62.693  34.078  49.797
15629DC     SC1 1540  62.907  34.183  49.907
15629DC     SC2 1541  62.994  34.325  49.771
15629DC     SC3 1542  63.137  34.201  50.034
15630DG     BB1 1543  62.327  34.028  49.613
15630DG     BB2 1544  62.568  34.169  49.383
15630DG     BB3 1545  62.681  34.025  49.305
15630DG     SC1 1546  62.893  34.040  49.525
15630DG     SC2 1547  63.176  34.129  49.490
15630DG     SC3 1548  63.135  34.015  49.759
15630DG     SC4 1549  62.875  33.951  49.657
15631DT     BB1 1550  62.696  33.945  49.066
15631DT     BB2 1551  63.010  34.098  48.973
15631DT     BB3 1552  63.155  33.952  48.948
15631DT     SC1 1553  63.177  33.918  49.207
15631DT     SC2 1554  63.368  33.992  49.273
15631DT     SC3 1555  63.169  33.803  49.444
15632DT     BB1 1556  63.159  33.969  48.668
15632DT     BB2 1557  63.498  34.042  48.768
15632DT     BB3 1558  63.609  33.868  48.775
15632DT     SC1 1559  63.493  33.794  48.999
15632DT     SC2 1560  63.635  33.804  49.160
15632DT     SC3 1561  63.348  33.653  49.169
15633DA     BB1 1562  63.820  34.139  48.537
15633DA     BB2 1563  64.049  34.012  48.793
15633DA     BB3 1564  64.107  33.812  48.749
15633DA     SC1 1565  63.874  33.683  48.909
15633DA     SC2 1566  63.845  33.550  49.118
15633DA     SC3 1567  63.620  33.479  49.018
15633DA     SC4 1568  63.738  33.649  48.829
15634DG     BB1 1569  64.382  33.949  48.749
15634DG     BB2 1570  64.429  33.740  49.040
15634DG     BB3 1571  64.477  33.555  48.983
15634DG     SC1 1572  64.187  33.458  48.970
15634DG     SC2 1573  64.062  33.254  49.149
15634DG     SC3 1574  63.881  33.323  48.926
15634DG     SC4 1575  64.106  33.475  48.833
15635DT     BB1 1576  64.656  33.495  49.053
15635DT     BB2 1577  64.557  33.269  49.316
15635DT     BB3 1578  64.565  33.073  49.248
15635DT     SC1 1579  64.345  33.105  49.108
15635DT     SC2 1580  64.187  32.990  49.196
15635DT     SC3 1581  64.184  33.120  48.900
15636DT     BB1 1582  64.758  33.071  49.420
15636DT     BB2 1583  64.524  32.819  49.529
15636DT     BB3 1584  64.547  32.647  49.416
15636DT     SC1 1585  64.428  32.757  49.210
15636DT     SC2 1586  64.237  32.663  49.179
15636DT     SC3 1587  64.392  32.854  48.967
15637DG     BB1 1588  64.554  32.605  49.824
15637DG     BB2 1589  64.320  32.380  49.664
15637DG     BB3 1590  64.419  32.241  49.562
15637DG     SC1 1591  64.429  32.403  49.302
15637DG     SC2 1592  64.290  32.335  49.048
15637DG     SC3 1593  64.477  32.561  49.008
15637DG     SC4 1594  64.552  32.503  49.279
15638DT     BB1 1595  64.360  32.082  49.632
15638DT     BB2 1596  64.167  31.938  49.362
15638DT     BB3 1597  64.291  31.828  49.238
15638DT     SC1 1598  64.392  32.046  49.133
15638DT     SC2 1599  64.326  32.064  48.929
15638DT     SC3 1600  64.568  32.231  49.066
15639DT     BB1 1601  64.149  31.641  49.343
15639DT     BB2 1602  64.120  31.597  48.986
15639DT     BB3 1603  64.292  31.512  48.911
15639DT     SC1 1604  64.424  31.737  48.936
15639DT     SC2 1605  64.467  31.816  48.740
15639DT     SC3 1606  64.604  31.912  49.018
15640DT     BB1 1607  64.151  31.290  48.876
15640DT     BB2 1608  64.306  31.348  48.556
15640DT     BB3 1609  64.500  31.277  48.558
15640DT     SC1 1610  64.582  31.479  48.704
15640DT     SC2 1611  64.708  31.607  48.585
15640DT     SC3 1612  64.680  31.614  48.908
15641DT     BB1 1613  64.462  31.031  48.411
15641DT     BB2 1614  64.743  31.179  48.240
15641DT     BB3 1615  64.920  31.113  48.325
15641DT     SC1 1616  64.886  31.268  48.534
15641DT     SC2 1617  65.032  31.425  48.530
15641DT     SC3 1618  64.849  31.342  48.784
15642DT     BB1 1619  65.041  30.876  48.147
15642DT     BB2 1620  65.327  31.093  48.178
15642DT     BB3 1621  65.454  31.023  48.326
15642DT     SC1 1622  65.292  31.107  48.515
15642DT     SC2 1623  65.382  31.272  48.618
15642DT     SC3 1624  65.126  31.102  48.720
15643DT     BB1 1625  65.701  30.865  48.194
15643DT     BB2 1626  65.870  31.108  48.400
15643DT     BB3 1627  65.934  31.019  48.576
15643DT     SC1 1628  65.691  31.014  48.672
15643DT     SC2 1629  65.676  31.154  48.835
15643DT     SC3 1630  65.462  30.920  48.765
15644DA     BB1 1631  66.315  31.157  48.446
15644DA     BB2 1632  66.272  31.279  48.789
15644DA     BB3 1633  66.324  31.127  48.930
15644DA     SC1 1634  66.035  31.011  48.947
15644DA     SC2 1635  65.851  31.001  49.115
15644DA     SC3 1636  65.762  30.805  48.975
15644DA     SC4 1637  65.997  30.891  48.848
15645DG     BB1 1638  66.558  31.308  49.045
15645DG     BB2 1639  66.348  31.318  49.339
15645DG     BB3 1640  66.394  31.168  49.460
15645DG     SC1 1641  66.195  30.973  49.334
15645DG     SC2 1642  65.951  30.861  49.466
15645DG     SC3 1643  66.001  30.727  49.207
15645DG     SC4 1644  66.242  30.883  49.210
15646DC     BB1 1645  66.475  31.202  49.671
15646DC     BB2 1646  66.179  31.133  49.865
15646DC     BB3 1647  66.198  30.951  49.962
15646DC     SC1 1648  66.158  30.819  49.738
15646DC     SC2 1649  65.967  30.720  49.747
15646DC     SC3 1650  66.202  30.661  49.532
15647DT     BB1 1651  66.222  31.086  50.193
15647DT     BB2 1652  65.937  30.870  50.240
15647DT     BB3 1653  65.999  30.684  50.307
15647DT     SC1 1654  66.087  30.620  50.068
15647DT     SC2 1655  65.962  30.466  49.985
15647DT     SC3 1656  66.254  30.554  49.875
15648DC     BB1 1657  65.892  30.747  50.545
15648DC     BB2 1658  65.725  30.443  50.445
15648DC     BB3 1659  65.837  30.279  50.502
15648DC     SC1 1660  66.010  30.321  50.309
15648DC     SC2 1661  65.992  30.165  50.162
15648DC     SC3 1662  66.238  30.375  50.187
15649DT     BB1 1663  65.649  30.230  50.686
15649DT     BB2 1664  65.665  29.929  50.487
15649DT     BB3 1665  65.815  29.805  50.558
15649DT     SC1 1666  66.001  29.959  50.454
15649DT     SC2 1667  66.095  29.856  50.290
15649DT     SC3 1668  66.208  30.121  50.438
15650DC     BB1 1669  65.623  29.641  50.649
15650DC     BB2 1670  65.822  29.436  50.430
15650DC     BB3 1671  65.983  29.358  50.534
15650DC     SC1 1672  66.107  29.589  50.532
15650DC     SC2 1673  66.279  29.577  50.403
15650DC     SC3 1674  66.220  29.811  50.620
15651DC     BB1 1675  65.861  29.120  50.518
15651DC     BB2 1676  66.184  29.068  50.366
15651DC     BB3 1677  66.324  29.024  50.512
15651DC     SC1 1678  66.333  29.274  50.591
15651DC     SC2 1679  66.523  29.359  50.538
15651DC     SC3 1680  66.308  29.486  50.745
15652DA     BB1 1681  66.341  28.748  50.194
15652DA     BB2 1682  66.681  28.862  50.268
15652DA     BB3 1683  66.746  28.785  50.457
15652DA     SC1 1684  66.642  29.030  50.619
15652DA     SC2 1685  66.738  29.221  50.746
15652DA     SC3 1686  66.509  29.235  50.860
15652DA     SC4 1687  66.493  29.021  50.679
15653DT     BB1 1688  66.890  28.665  50.443
15653DT     BB2 1689  67.145  28.883  50.577
15653DT     BB3 1690  67.180  28.836  50.776
15653DT     SC1 1691  66.956  28.950  50.851
15653DT     SC2 1692  67.000  29.129  50.961
15653DT     SC3 1693  66.713  28.978  50.950
15654DT     BB1 1694  67.416  28.733  50.700
15654DT     BB2 1695  67.499  28.981  50.949
15654DT     BB3 1696  67.485  28.899  51.138
15654DT     SC1 1697  67.222  28.905  51.129
15654DT     SC2 1698  67.150  29.053  51.268
15654DT     SC3 1699  66.972  28.822  51.126
15655DA     BB1 1700  67.860  29.084  51.105
15655DA     BB2 1701  67.707  29.192  51.420
15655DA     BB3 1702  67.707  29.033  51.562
15655DA     SC1 1703  67.428  28.925  51.477
15655DA     SC2 1704  67.198  28.913  51.573
15655DA     SC3 1705  67.158  28.726  51.402
15655DA     SC4 1706  67.423  28.810  51.365
15656DA     BB1 1707  67.852  29.267  51.740
15656DA     BB2 1708  67.574  29.232  51.976
15656DA     BB3 1709  67.594  29.050  52.087
15656DA     SC1 1710  67.428  28.880  51.885
15656DA     SC2 1711  67.207  28.767  51.878
15656DA     SC3 1712  67.306  28.629  51.686
15656DA     SC4 1713  67.509  28.804  51.769
15657DC     BB1 1714  67.626  29.068  52.280
15657DC     BB2 1715  67.299  28.966  52.392
15657DC     BB3 1716  67.306  28.771  52.461
15657DC     SC1 1717  67.320  28.676  52.217
15657DC     SC2 1718  67.137  28.575  52.169
15657DC     SC3 1719  67.414  28.554  52.003
15658DT     BB1 1720  67.280  28.862  52.714
15658DT     BB2 1721  67.008  28.627  52.674
15658DT     BB3 1722  67.074  28.435  52.715
15658DT     SC1 1723  67.202  28.422  52.487
15658DT     SC2 1724  67.103  28.281  52.357
15658DT     SC3 1725  67.401  28.402  52.314
15659DC     BB1 1726  66.940  28.429  52.955
15659DC     BB2 1727  66.819  28.138  52.780
15659DC     BB3 1728  66.943  27.977  52.816
15659DC     SC1 1729  67.128  28.073  52.657
15659DC     SC2 1730  67.142  27.949  52.481
15659DC     SC3 1731  67.359  28.171  52.575
15660DT     BB1 1732  66.766  27.845  52.992
15660DT     BB2 1733  66.836  27.597  52.740
15660DT     BB3 1734  67.001  27.484  52.795
15660DT     SC1 1735  67.165  27.680  52.736
15660DT     SC2 1736  67.280  27.628  52.562
15660DT     SC3 1737  67.344  27.871  52.766
15661DG     BB1 1738  66.715  27.187  52.779
15661DG     BB2 1739  67.003  27.097  52.579
15661DG     BB3 1740  67.144  27.016  52.695
15661DG     SC1 1741  67.280  27.284  52.757
15661DG     SC2 1742  67.553  27.366  52.669
15661DG     SC3 1743  67.441  27.560  52.862
15661DG     SC4 1744  67.229  27.369  52.882
15662DA     BB1 1745  67.162  26.730  52.493
15662DA     BB2 1746  67.512  26.805  52.412
15662DA     BB3 1747  67.640  26.739  52.570
15662DA     SC1 1748  67.630  27.009  52.724
15662DA     SC2 1749  67.784  27.198  52.776
15662DA     SC3 1750  67.622  27.252  52.966
15662DA     SC4 1751  67.518  27.026  52.838
15663DT     BB1 1752  67.775  26.584  52.536
15663DT     BB2 1753  68.069  26.793  52.516
15663DT     BB3 1754  68.184  26.770  52.687
15663DT     SC1 1755  68.016  26.913  52.829
15663DT     SC2 1756  68.108  27.100  52.881
15663DT     SC3 1757  67.839  26.977  53.014
15664DT     BB1 1758  68.365  26.637  52.538
15664DT     BB2 1759  68.547  26.915  52.680
15664DT     BB3 1760  68.617  26.865  52.868
15664DT     SC1 1761  68.377  26.888  52.972
15664DT     SC2 1762  68.371  27.060  53.101
15664DT     SC3 1763  68.151  26.823  53.091
15665DG     BB1 1764  68.933  26.976  52.636
15665DG     BB2 1765  68.924  27.160  52.948
15665DG     BB3 1766  68.990  27.045  53.096
15665DG     SC1 1767  68.714  26.932  53.164
15665DG     SC2 1768  68.561  26.981  53.415
15665DG     SC3 1769  68.429  26.773  53.252
15665DG     SC4 1770  68.663  26.800  53.088
15666DG     BB1 1771  69.221  27.271  53.156
15666DG     BB2 1772  69.066  27.310  53.480
15666DG     BB3 1773  69.131  27.167  53.603
15666DG     SC1 1774  68.910  26.969  53.530
15666DG     SC2 1775  68.691  26.875  53.711
15666DG     SC3 1776  68.694  26.720  53.458
15666DG     SC4 1777  68.933  26.869  53.407
15667DT     BB1 1778  69.252  27.210  53.792
15667DT     BB2 1779  69.004  27.154  54.048
15667DT     BB3 1780  69.040  26.973  54.143
15667DT     SC1 1781  68.949  26.838  53.937
15667DT     SC2 1782  68.762  26.745  53.990
15667DT     SC3 1783  68.943  26.675  53.730
15668DT     BB1 1784  69.135  27.093  54.375
15668DT     BB2 1785  68.862  26.886  54.487
15668DT     BB3 1786  68.931  26.696  54.533
15668DT     SC1 1787  68.955  26.635  54.279
15668DT     SC2 1788  68.807  26.488  54.227
15668DT     SC3 1789  69.066  26.569  54.049
15669DA     BB1 1790  68.723  26.826  54.872
15669DA     BB2 1791  68.596  26.494  54.783
15669DA     BB3 1792  68.736  26.343  54.839
15669DA     SC1 1793  68.885  26.346  54.566
15669DA     SC2 1794  68.912  26.196  54.369
15669DA     SC3 1795  69.122  26.335  54.317
15669DA     SC4 1796  69.012  26.444  54.552
15670DT     BB1 1797  68.678  26.217  54.979
15670DT     BB2 1798  68.614  25.940  54.757
15670DT     BB3 1799  68.766  25.799  54.774
15670DT     SC1 1800  68.932  25.951  54.638
15670DT     SC2 1801  68.970  25.861  54.447
15670DT     SC3 1802  69.141  26.100  54.582
15671DA     BB1 1803  68.381  25.635  54.796
15671DA     BB2 1804  68.577  25.446  54.550
15671DA     BB3 1805  68.728  25.332  54.647
15671DA     SC1 1806  68.943  25.556  54.628
15671DA     SC2 1807  69.156  25.598  54.505
15671DA     SC3 1808  69.205  25.770  54.689
15671DA     SC4 1809  68.956  25.658  54.752
15672DA     BB1 1810  68.559  25.144  54.440
15672DA     BB2 1811  68.883  25.083  54.280
15672DA     BB3 1812  69.011  24.973  54.411
15672DA     SC1 1813  69.137  25.226  54.541
15672DA     SC2 1814  69.357  25.343  54.542
15672DA     SC3 1815  69.274  25.453  54.759
15672DA     SC4 1816  69.068  25.283  54.675
15673DA     BB1 1817  69.012  24.818  54.122
15673DA     BB2 1818  69.376  24.867  54.129
15673DA     BB3 1819  69.463  24.750  54.284
15673DA     SC1 1820  69.441  24.974  54.499
15673DA     SC2 1821  69.595  25.125  54.625
15673DA     SC3 1822  69.400  25.150  54.791
15673DA     SC4 1823  69.309  24.976  54.591
15674DT     BB1 1824  69.578  24.612  54.222
15674DT     BB2 1825  69.891  24.757  54.326
15674DT     BB3 1826  69.954  24.670  54.503
15674DT     SC1 1827  69.775  24.804  54.641
15674DT     SC2 1828  69.874  24.950  54.763
15674DT     SC3 1829  69.567  24.853  54.795
15675DA     BB1 1830  70.281  24.633  54.241
15675DA     BB2 1831  70.409  24.761  54.560
15675DA     BB3 1832  70.412  24.606  54.706
15675DA     SC1 1833  70.126  24.665  54.811
15675DA     SC2 1834  70.020  24.757  55.018
15675DA     SC3 1835  69.807  24.639  54.937
15675DA     SC4 1836  70.004  24.584  54.745
15676DT     BB1 1837  70.595  24.526  54.785
15676DT     BB2 1838  70.574  24.681  55.110
15676DT     BB3 1839  70.528  24.538  55.253
15676DT     SC1 1840  70.278  24.527  55.173
15676DT     SC2 1841  70.151  24.613  55.324
15676DT     SC3 1842  70.053  24.431  55.074
15677DA     BB1 1843  70.874  24.723  55.401
15677DA     BB2 1844  70.628  24.716  55.673
15677DA     BB3 1845  70.615  24.520  55.756
15677DA     SC1 1846  70.387  24.429  55.565
15677DA     SC2 1847  70.144  24.374  55.580
15677DA     SC3 1848  70.180  24.249  55.359
15677DA     SC4 1849  70.430  24.356  55.428
15678DT     BB1 1850  70.677  24.486  55.950
15678DT     BB2 1851  70.348  24.457  56.096
15678DT     BB3 1852  70.308  24.259  56.141
15678DT     SC1 1853  70.269  24.201  55.888
15678DT     SC2 1854  70.061  24.160  55.855
15678DT     SC3 1855  70.302  24.091  55.651
15679DA     BB1 1856  70.231  24.493  56.480
15679DA     BB2 1857  69.941  24.276  56.423
15679DA     BB3 1858  69.988  24.074  56.474
15679DA     SC1 1859  70.085  24.000  56.188
15679DA     SC2 1860  70.008  23.857  55.998
15679DA     SC3 1861  70.251  23.867  55.919
15679DA     SC4 1862  70.241  24.016  56.156
15680DA     BB1 1863  69.715  24.123  56.648
15680DA     BB2 1864  69.569  23.847  56.457
15680DA     BB3 1865  69.651  23.660  56.521
15680DA     SC1 1866  69.883  23.664  56.314
15680DA     SC2 1867  69.949  23.540  56.108
15680DA     SC3 1868  70.185  23.630  56.154
15680DA     SC4 1869  70.023  23.729  56.360
15681DT     BB1 1870  69.529  23.534  56.611
15681DT     BB2 1871  69.502  23.295  56.342
15681DT     BB3 1872  69.618  23.128  56.384
15681DT     SC1 1873  69.839  23.259  56.329
15681DT     SC2 1874  69.924  23.182  56.147
15681DT     SC3 1875  70.074  23.373  56.361
15682DC     BB1 1876  69.393  22.986  56.429
15682DC     BB2 1877  69.569  22.800  56.175
15682DC     BB3 1878  69.707  22.673  56.263
15682DC     SC1 1879  69.868  22.874  56.316
15682DC     SC2 1880  70.044  22.859  56.192
15682DC     SC3 1881  70.011  23.048  56.453
15683DC     BB1 1882  69.556  22.449  56.212
15683DC     BB2 1883  69.875  22.376  56.060
15683DC     BB3 1884  70.001  22.288  56.198
15683DC     SC1 1885  70.040  22.517  56.320
15683DC     SC2 1886  70.243  22.582  56.286
15683DC     SC3 1887  70.040  22.702  56.508
15684DG     BB1 1888  69.974  22.010  55.899
15684DG     BB2 1889  70.319  22.085  55.976
15684DG     BB3 1890  70.376  21.986  56.138
15684DG     SC1 1891  70.292  22.207  56.333
15684DG     SC2 1892  70.476  22.371  56.502
15684DG     SC3 1893  70.193  22.420  56.575
15684DG     SC4 1894  70.142  22.208  56.389
15685DG     BB1 1895  70.618  21.831  55.972
15685DG     BB2 1896  70.848  22.005  56.190
15685DG     BB3 1897  70.873  21.902  56.359
15685DG     SC1 1898  70.641  22.040  56.505
15685DG     SC2 1899  70.667  22.222  56.741
15685DG     SC3 1900  70.383  22.155  56.688
15685DG     SC4 1901  70.494  21.978  56.492
15686DT     BB1 1902  71.072  21.818  56.420
15686DT     BB2 1903  71.168  22.051  56.678
15686DT     BB3 1904  71.146  21.964  56.864
15686DT     SC1 1905  70.885  21.988  56.853
15686DT     SC2 1906  70.820  22.135  56.995
15686DT     SC3 1907  70.629  21.922  56.843
15687DT     BB1 1908  71.413  21.956  56.882
15687DT     BB2 1909  71.306  22.151  57.166
15687DT     BB3 1910  71.257  22.026  57.324
15687DT     SC1 1911  71.032  21.955  57.208
15687DT     SC2 1912  70.866  22.037  57.318
15687DT     SC3 1913  70.849  21.804  57.093
15688DC     BB1 1914  71.475  22.121  57.438
15688DC     BB2 1915  71.206  22.197  57.666
15688DC     BB3 1916  71.165  22.032  57.785
15688DC     SC1 1917  71.045  21.910  57.586
15688DC     SC2 1918  70.834  21.899  57.626
15688DC     SC3 1919  70.994  21.730  57.400
15689DA     BB1 1920  71.208  22.381  58.016
15689DA     BB2 1921  70.901  22.209  58.120
15689DA     BB3 1922  70.949  22.028  58.222
15689DA     SC1 1923  70.945  21.853  57.965
15689DA     SC2 1924  70.803  21.674  57.865
15689DA     SC3 1925  71.009  21.617  57.724
15689DA     SC4 1926  71.085  21.832  57.887
15690DA     BB1 1927  70.745  22.180  58.429
15690DA     BB2 1928  70.530  21.885  58.397
15690DA     BB3 1929  70.618  21.718  58.496
15690DA     SC1 1930  70.772  21.618  58.244
15690DA     SC2 1931  70.761  21.426  58.086
15690DA     SC3 1932  71.004  21.486  58.029
15690DA     SC4 1933  70.922  21.671  58.224
15691DA     BB1 1934  70.319  21.719  58.633
15691DA     BB2 1935  70.280  21.380  58.500
15691DA     BB3 1936  70.400  21.243  58.610
15691DA     SC1 1937  70.648  21.273  58.425
15691DA     SC2 1938  70.772  21.135  58.258
15691DA     SC3 1939  70.966  21.297  58.299
15691DA     SC4 1940  70.758  21.384  58.465
15692DC     BB1 1941  70.306  21.106  58.717
15692DC     BB2 1942  70.380  20.823  58.506
15692DC     BB3 1943  70.532  20.711  58.590
15692DC     SC1 1944  70.712  20.888  58.522
15692DC     SC2 1945  70.838  20.807  58.367
15692DC     SC3 1946  70.901  21.071  58.543
15693DC     BB1 1947  70.355  20.516  58.656
15693DC     BB2 1948  70.604  20.347  58.458
15693DC     BB3 1949  70.761  20.286  58.578
15693DC     SC1 1950  70.852  20.531  58.597
15693DC     SC2 1951  71.038  20.547  58.490
15693DC     SC3 1952  70.923  20.762  58.703
15694DA     BB1 1953  70.639  19.945  58.366
15694DA     BB2 1954  71.004  19.969  58.338
15694DA     BB3 1955  71.097  19.915  58.522
15694DA     SC1 1956  71.098  20.205  58.635
15694DA     SC2 1957  71.266  20.382  58.687
15694DA     SC3 1958  71.084  20.481  58.838
15694DA     SC4 1959  70.972  20.250  58.725
15695DT     BB1 1960  71.210  19.746  58.530
15695DT     BB2 1961  71.532  19.909  58.545
15695DT     BB3 1962  71.607  19.899  58.737
15695DT     SC1 1963  71.440  20.084  58.821
15695DT     SC2 1964  71.549  20.263  58.866
15695DT     SC3 1965  71.244  20.199  58.954
15696DA     BB1 1966  71.911  19.748  58.489
15696DA     BB2 1967  72.063  19.996  58.712
15696DA     BB3 1968  72.080  19.917  58.910
15696DA     SC1 1969  71.802  20.021  59.003
15696DA     SC2 1970  71.713  20.194  59.159
15696DA     SC3 1971  71.495  20.058  59.152
15696DA     SC4 1972  71.677  19.922  58.987
15697DG     BB1 1973  72.392  19.955  58.882
15697DG     BB2 1974  72.344  20.193  59.150
15697DG     BB3 1975  72.345  20.099  59.325
15697DG     SC1 1976  72.043  20.048  59.327
15697DG     SC2 1977  71.846  20.168  59.516
15697DG     SC3 1978  71.720  19.957  59.352
15697DG     SC4 1979  71.987  19.914  59.258
15698DA     BB1 1980  72.595  20.315  59.445
15698DA     BB2 1981  72.372  20.432  59.711
15698DA     BB3 1982  72.366  20.291  59.871
15698DA     SC1 1983  72.125  20.132  59.754
15698DA     SC2 1984  71.885  20.094  59.810
15698DA     SC3 1985  71.905  19.885  59.662
15698DA     SC4 1986  72.158  20.006  59.660
15699DG     BB1 1987  72.483  20.515  60.061
15699DG     BB2 1988  72.159  20.487  60.220
15699DG     BB3 1989  72.163  20.341  60.356
15699DG     SC1 1990  72.077  20.123  60.160
15699DG     SC2 1991  71.819  19.973  60.166
15699DG     SC3 1992  72.004  19.855  59.968
15699DG     SC4 1993  72.189  20.044  60.077
15700DC     BB1 1994  72.131  20.377  60.582
15700DC     BB2 1995  71.791  20.259  60.616
15700DC     BB3 1996  71.789  20.077  60.714
15700DC     SC1 1997  71.877  19.952  60.500
15700DC     SC2 1998  71.720  19.828  60.420
15700DC     SC3 1999  72.034  19.812  60.342
15701DA     BB1 2000  71.522  20.336  60.903
15701DA     BB2 2001  71.345  20.024  60.829
15701DA     BB3 2002  71.410  19.869  60.961
15701DA     SC1 2003  71.638  19.771  60.773
15701DA     SC2 2004  71.687  19.571  60.632
15701DA     SC3 2005  71.931  19.648  60.645
15701DA     SC4 2006  71.784  19.834  60.794
15702DA     BB1 2007  71.086  19.874  60.978
15702DA     BB2 2008  71.102  19.530  60.851
15702DA     BB3 2009  71.179  19.399  61.001
15702DA     SC1 2010  71.475  19.432  60.912
15702DA     SC2 2011  71.652  19.294  60.804
15702DA     SC3 2012  71.817  19.463  60.904
15702DA     SC4 2013  71.562  19.547  60.984
15703DT     BB1 2014  71.051  19.283  61.041
15703DT     BB2 2015  71.197  18.998  60.875
15703DT     BB3 2016  71.302  18.882  61.011
15703DT     SC1 2017  71.498  19.056  61.020
15703DT     SC2 2018  71.672  18.972  60.927
15703DT     SC3 2019  71.666  19.236  61.115
15704DA     BB1 2020  71.044  18.659  60.764
15704DA     BB2 2021  71.372  18.495  60.773
15704DA     BB3 2022  71.409  18.413  60.966
15704DA     SC1 2023  71.548  18.670  61.074
15704DA     SC2 2024  71.778  18.742  61.140
15704DA     SC3 2025  71.660  18.928  61.271
15704DA     SC4 2026  71.456  18.778  61.150
15705DC     BB1 2027  71.421  18.240  60.948
15705DC     BB2 2028  71.776  18.208  61.005
15705DC     BB3 2029  71.812  18.164  61.204
15705DC     SC1 2030  71.759  18.411  61.276
15705DC     SC2 2031  71.941  18.507  61.340
15705DC     SC3 2032  71.640  18.616  61.391
15706DT     BB1 2033  71.880  17.926  61.116
15706DT     BB2 2034  72.165  18.039  61.306
15706DT     BB3 2035  72.133  18.005  61.508
15706DT     SC1 2036  71.964  18.205  61.524
15706DT     SC2 2037  72.051  18.363  61.640
15706DT     SC3 2038  71.738  18.337  61.560
15707DT     BB1 2039  72.314  17.805  61.499
15707DT     BB2 2040  72.430  18.018  61.767
15707DT     BB3 2041  72.333  17.968  61.943
15707DT     SC1 2042  72.111  18.083  61.863
15707DT     SC2 2043  72.077  18.260  61.981
15707DT     SC3 2044  71.860  18.113  61.790
15708DC     BB1 2045  72.554  17.838  62.055
15708DC     BB2 2046  72.460  18.077  62.308
15708DC     BB3 2047  72.322  17.993  62.437
15708DC     SC1 2048  72.131  18.015  62.258
15708DC     SC2 2049  71.990  18.164  62.321
15708DC     SC3 2050  71.943  17.946  62.086
15709DC     BB1 2051  72.492  17.939  62.667
15709DC     BB2 2052  72.224  18.132  62.811
15709DC     BB3 2053  72.077  18.006  62.883
15709DC     SC1 2054  71.992  17.952  62.641
15709DC     SC2 2055  71.798  18.041  62.612
15709DC     SC3 2056  71.934  17.816  62.422
15710DT     BB1 2057  72.124  18.009  63.181
15710DT     BB2 2058  71.777  18.106  63.153
15710DT     BB3 2059  71.655  17.940  63.178
15710DT     SC1 2060  71.714  17.851  62.939
15710DT     SC2 2061  71.541  17.867  62.812
15710DT     SC3 2062  71.808  17.694  62.748
15711DT     BB1 2063  71.549  17.973  63.459
15711DT     BB2 2064  71.250  17.956  63.259
15711DT     BB3 2065  71.175  17.763  63.261
15711DT     SC1 2066  71.363  17.680  63.099
15711DT     SC2 2067  71.276  17.632  62.907
15711DT     SC3 2068  71.572  17.546  63.009
15712DT     BB1 2069  70.950  17.810  63.434
15712DT     BB2 2070  70.802  17.690  63.128
15712DT     BB3 2071  70.774  17.485  63.138
15712DT     SC1 2072  71.030  17.441  63.105
15712DT     SC2 2073  71.063  17.352  62.912
15712DT     SC3 2074  71.277  17.361  63.156
15713DC     BB1 2075  70.505  17.524  63.155
15713DC     BB2 2076  70.553  17.330  62.855
15713DC     BB3 2077  70.552  17.128  62.900
15713DC     SC1 2078  70.792  17.142  63.005
15713DC     SC2 2079  70.931  17.037  62.878
15713DC     SC3 2080  70.986  17.132  63.183
15714DA     BB1 2081  70.306  17.231  62.577
15714DA     BB2 2082  70.521  16.951  62.478
15714DA     BB3 2083  70.462  16.773  62.580
15714DA     SC1 2084  70.655  16.819  62.820
15714DA     SC2 2085  70.863  16.717  62.912
15714DA     SC3 2086  70.798  16.832  63.132
15714DA     SC4 2087  70.597  16.897  62.948
15715DG     BB1 2088  70.449  16.718  62.280
15715DG     BB2 2089  70.708  16.481  62.366
15715DG     BB3 2090  70.628  16.325  62.461
15715DG     SC1 2091  70.658  16.449  62.740
15715DG     SC2 2092  70.838  16.350  62.957
15715DG     SC3 2093  70.658  16.562  63.058
15715DG     SC4 2094  70.540  16.541  62.797
15716DC     BB1 2095  70.662  16.159  62.365
15716DC     BB2 2096  70.902  15.991  62.576
15716DC     BB3 2097  70.805  15.861  62.704
15716DC     SC1 2098  70.719  16.059  62.853
15716DC     SC2 2099  70.820  16.054  63.043
15716DC     SC3 2100  70.554  16.225  62.973
15717DA     BB1 2101  71.122  15.661  62.512
15717DA     BB2 2102  71.135  15.581  62.870
15717DA     BB3 2103  70.972  15.454  62.923
15717DA     SC1 2104  70.781  15.688  62.995
15717DA     SC2 2105  70.677  15.785  63.200
15717DA     SC3 2106  70.507  15.891  63.039
15717DA     SC4 2107  70.684  15.743  62.879
15718DA     BB1 2108  71.215  15.264  63.044
15718DA     BB2 2109  71.052  15.292  63.371
15718DA     BB3 2110  70.877  15.170  63.377
15718DA     SC1 2111  70.687  15.394  63.277
15718DA     SC2 2112  70.502  15.535  63.368
15718DA     SC3 2113  70.436  15.572  63.123
15718DA     SC4 2114  70.660  15.404  63.118
15719DG     BB1 2115  71.007  15.004  63.614
15719DG     BB2 2116  70.727  15.130  63.805
15719DG     BB3 2117  70.569  15.013  63.779
15719DG     SC1 2118  70.463  15.166  63.536
15719DG     SC2 2119  70.211  15.325  63.525
15719DG     SC3 2120  70.330  15.298  63.256
15719DG     SC4 2121  70.514  15.125  63.390
15720DT     BB1 2122  70.458  14.877  63.947
15720DT     BB2 2123  70.158  15.071  64.004
15720DT     BB3 2124  69.995  14.974  63.922
15720DT     SC1 2125  70.067  15.040  63.679
15720DT     SC2 2126  69.928  15.183  63.600
15720DT     SC3 2127  70.145  15.016  63.428
15721DA     BB1 2128  69.877  15.035  64.321
15721DA     BB2 2129  69.602  15.153  64.108
15721DA     BB3 2130  69.490  14.988  64.033
15721DA     SC1 2131  69.662  14.958  63.775
15721DA     SC2 2132  69.634  14.994  63.530
15721DA     SC3 2133  69.834  14.836  63.504
15721DA     SC4 2134  69.786  14.856  63.780
15722DA     BB1 2135  69.240  15.152  64.166
15722DA     BB2 2136  69.103  15.181  63.827
15722DA     BB3 2137  69.014  14.996  63.767
15722DA     SC1 2138  69.274  14.884  63.640
15722DA     SC2 2139  69.361  14.832  63.412
15722DA     SC3 2140  69.530  14.681  63.532
15722DA     SC4 2141  69.370  14.794  63.733
15723DT     BB1 2142  68.817  14.995  63.738
15723DT     BB2 2143  68.828  14.989  63.378
15723DT     BB3 2144  68.782  14.799  63.309
15723DT     SC1 2145  69.016  14.707  63.381
15723DT     SC2 2146  69.132  14.662  63.205
15723DT     SC3 2147  69.199  14.564  63.506
15724DA     BB1 2148  68.553  15.088  63.110
15724DA     BB2 2149  68.703  14.867  62.859
15724DA     BB3 2150  68.609  14.675  62.864
15724DA     SC1 2151  68.809  14.556  63.071
15724DA     SC2 2152  68.992  14.386  63.075
15724DA     SC3 2153  68.955  14.382  63.328
15724DA     SC4 2154  68.770  14.567  63.227
15725DA     BB1 2155  68.598  14.766  62.551
15725DA     BB2 2156  68.791  14.463  62.482
15725DA     BB3 2157  68.670  14.289  62.511
15725DA     SC1 2158  68.748  14.256  62.810
15725DA     SC2 2159  68.881  14.098  62.950
15725DA     SC3 2160  68.747  14.192  63.148
15725DA     SC4 2161  68.654  14.326  62.920
15726DA     BB1 2162  68.792  14.245  62.210
15726DA     BB2 2163  68.935  13.933  62.340
15726DA     BB3 2164  68.780  13.790  62.375
15726DA     SC1 2165  68.733  13.876  62.670
15726DA     SC2 2166  68.771  13.783  62.898
15726DA     SC3 2167  68.595  13.953  62.975
15726DA     SC4 2168  68.620  13.988  62.697
15727DT     BB1 2169  68.782  13.631  62.262
15727DT     BB2 2170  68.890  13.394  62.512
15727DT     BB3 2171  68.728  13.284  62.580
15727DT     SC1 2172  68.639  13.488  62.720
15727DT     SC2 2173  68.662  13.445  62.930
15727DT     SC3 2174  68.481  13.682  62.803
15728DT     BB1 2175  68.804  13.056  62.443
15728DT     BB2 2176  68.770  12.945  62.785
15728DT     BB3 2177  68.574  12.885  62.820
15728DT     SC1 2178  68.491  13.134  62.827
15728DT     SC2 2179  68.435  13.185  63.028
15728DT     SC3 2180  68.362  13.354  62.762
15729DA     BB1 2181  68.787  12.539  62.936
15729DA     BB2 2182  68.551  12.615  63.206
15729DA     BB3 2183  68.354  12.553  63.151
15729DA     SC1 2184  68.277  12.827  63.024
15729DA     SC2 2185  68.125  13.017  63.075
15729DA     SC3 2186  68.147  13.075  62.826
15729DA     SC4 2187  68.303  12.845  62.866
15730DT     BB1 2188  68.231  12.380  63.245
15730DT     BB2 2189  68.009  12.592  63.435
15730DT     BB3 2190  67.818  12.581  63.358
15730DT     SC1 2191  67.884  12.729  63.152
15730DT     SC2 2192  67.787  12.921  63.168
15730DT     SC3 2193  67.930  12.801  62.903
15731DT     BB1 2194  67.706  12.421  63.566
15731DT     BB2 2195  67.502  12.719  63.565
15731DT     BB3 2196  67.337  12.691  63.443
15731DT     SC1 2197  67.484  12.715  63.227
15731DT     SC2 2198  67.434  12.899  63.127
15731DT     SC3 2199  67.603  12.654  62.999
15732DT     BB1 2200  67.173  12.679  63.661
15732DT     BB2 2201  67.050  12.957  63.467
15732DT     BB3 2202  66.912  12.891  63.328
15732DT     SC1 2203  67.101  12.789  63.178
15732DT     SC2 2204  67.118  12.905  62.997
15732DT     SC3 2205  67.247  12.612  63.048
15733DA     BB1 2206  66.756  13.212  63.546
15733DA     BB2 2207  66.714  13.284  63.189
15733DA     BB3 2208  66.562  13.159  63.106
15733DA     SC1 2209  66.758  12.931  63.025
15733DA     SC2 2210  66.851  12.833  62.815
15733DA     SC3 2211  66.903  12.627  62.959
15733DA     SC4 2212  66.781  12.813  63.131
15734DC     BB1 2213  66.420  13.260  63.046
15734DC     BB2 2214  66.490  13.230  62.694
15734DC     BB3 2215  66.369  13.085  62.610
15734DC     SC1 2216  66.510  12.892  62.719
15734DC     SC2 2217  66.618  12.787  62.565
15734DC     SC3 2218  66.573  12.685  62.869
15735DT     BB1 2219  66.261  13.292  62.493
15735DT     BB2 2220  66.373  13.077  62.226
15735DT     BB3 2221  66.235  12.926  62.195
15735DT     SC1 2222  66.312  12.800  62.412
15735DT     SC2 2223  66.413  12.618  62.357
15735DT     SC3 2224  66.303  12.693  62.653
15736DA     BB1 2225  66.352  13.117  61.839
15736DA     BB2 2226  66.371  12.754  61.790
15736DA     BB3 2227  66.176  12.669  61.788
15736DA     SC1 2228  66.170  12.615  62.095
15736DA     SC2 2229  66.175  12.418  62.248
15736DA     SC3 2230  66.076  12.577  62.423
15736DA     SC4 2231  66.107  12.729  62.189
15737DG     BB1 2232  66.297  12.588  61.518
15737DG     BB2 2233  66.252  12.257  61.655
15737DG     BB3 2234  66.059  12.207  61.649
15737DG     SC1 2235  65.996  12.322  61.926
15737DG     SC2 2236  65.918  12.164  62.168
15737DG     SC3 2237  65.888  12.455  62.216
15737DG     SC4 2238  65.953  12.475  61.938
15738DA     BB1 2239  66.189  11.921  61.503
15738DA     BB2 2240  66.027  11.719  61.762
15738DA     BB3 2241  65.815  11.717  61.734
15738DA     SC1 2242  65.765  11.966  61.914
15738DA     SC2 2243  65.661  12.016  62.135
15738DA     SC3 2244  65.644  12.258  62.050
15738DA     SC4 2245  65.762  12.110  61.842
15739DA     BB1 2246  65.879  11.395  61.753
15739DA     BB2 2247  65.646  11.387  62.035
15739DA     BB3 2248  65.445  11.412  61.967
15739DA     SC1 2249  65.449  11.722  61.995
15739DA     SC2 2250  65.345  11.896  62.140
15739DA     SC3 2251  65.402  12.059  61.951
15739DA     SC4 2252  65.492  11.808  61.866
15740DC     BB1 2253  65.314  11.258  61.982
15740DC     BB2 2254  65.109  11.393  62.246
15740DC     BB3 2255  64.931  11.464  62.168
15740DC     SC1 2256  65.051  11.675  62.068
15740DC     SC2 2257  64.988  11.850  62.177
15740DC     SC3 2258  65.142  11.848  61.892
15741DT     BB1 2259  64.772  11.251  62.261
15741DT     BB2 2260  64.603  11.542  62.389
15741DT     BB3 2261  64.463  11.608  62.251
15741DT     SC1 2262  64.650  11.708  62.097
15741DT     SC2 2263  64.639  11.923  62.101
15741DT     SC3 2264  64.804  11.745  61.886
15742DT     BB1 2265  64.214  11.511  62.375
15742DT     BB2 2266  64.148  11.863  62.329
15742DT     BB3 2267  64.048  11.893  62.150
15742DT     SC1 2268  64.268  11.853  62.012
15742DT     SC2 2269  64.331  12.038  61.923
15742DT     SC3 2270  64.438  11.743  61.844
15743DA     BB1 2271  63.768  12.076  62.410
15743DA     BB2 2272  63.833  12.317  62.141
15743DA     BB3 2273  63.719  12.267  61.967
15743DA     SC1 2274  63.941  12.087  61.844
15743DA     SC2 2275  64.098  12.095  61.650
15743DA     SC3 2276  64.115  11.841  61.680
15743DA     SC4 2277  63.937  11.930  61.878
15744DA     BB1 2278  63.583  12.572  61.973
15744DA     BB2 2279  63.748  12.637  61.652
15744DA     BB3 2280  63.630  12.561  61.491
15744DA     SC1 2281  63.767  12.282  61.491
15744DA     SC2 2282  63.920  12.151  61.343
15744DA     SC3 2283  63.833  11.945  61.469
15744DA     SC4 2284  63.699  12.166  61.580
15745DA     BB1 2285  63.658  12.868  61.384
15745DA     BB2 2286  63.842  12.732  61.098
15745DA     BB3 2287  63.707  12.650  60.955
15745DA     SC1 2288  63.712  12.364  61.079
15745DA     SC2 2289  63.800  12.138  61.018
15745DA     SC3 2290  63.631  12.050  61.190
15745DA     SC4 2291  63.600  12.329  61.188
15746DT     BB1 2292  63.708  12.741  60.787
15746DT     BB2 2293  63.895  12.492  60.606
15746DT     BB3 2294  63.768  12.382  60.485
15746DT     SC1 2295  63.673  12.251  60.691
15746DT     SC2 2296  63.739  12.046  60.681
15746DT     SC3 2297  63.503  12.161  60.871
15747DA     BB1 2298  64.115  12.519  60.292
15747DA     BB2 2299  64.073  12.162  60.219
15747DA     BB3 2300  63.904  12.132  60.092
15747DA     SC1 2301  63.703  12.096  60.327
15747DA     SC2 2302  63.569  11.912  60.428
15747DA     SC3 2303  63.426  12.099  60.530
15747DA     SC4 2304  63.626  12.226  60.380
15748DC     BB1 2305  63.969  12.065  59.949
15748DC     BB2 2306  63.841  11.730  59.987
15748DC     BB3 2307  63.660  11.713  59.889
15748DC     SC1 2308  63.536  11.848  60.076
15748DC     SC2 2309  63.405  11.717  60.185
15748DC     SC3 2310  63.398  12.041  60.193
15749DT     BB1 2311  63.799  11.561  59.726
15749DT     BB2 2312  63.520  11.357  59.826
15749DT     BB3 2313  63.353  11.405  59.714
15749DT     SC1 2314  63.318  11.628  59.848
15749DT     SC2 2315  63.140  11.612  59.968
15749DT     SC3 2316  63.299  11.886  59.899
15750DA     BB1 2317  63.393  10.987  59.683
15750DA     BB2 2318  63.039  11.060  59.743
15750DA     BB3 2319  62.950  11.144  59.568
15750DA     SC1 2320  63.011  11.438  59.649
15750DA     SC2 2321  62.883  11.639  59.722
15750DA     SC3 2322  63.090  11.772  59.648
15750DA     SC4 2323  63.148  11.502  59.596
15751DG     BB1 2324  62.738  10.899  59.526
15751DG     BB2 2325  62.484  11.152  59.571
15751DG     BB3 2326  62.441  11.236  59.396
15751DG     SC1 2327  62.653  11.455  59.420
15751DG     SC2 2328  62.601  11.748  59.450
15751DG     SC3 2329  62.889  11.696  59.404
15751DG     SC4 2330  62.801  11.426  59.366
15752DC     BB1 2331  62.222  11.234  59.239
15752DC     BB2 2332  62.097  11.568  59.296
15752DC     BB3 2333  62.117  11.681  59.124
15752DC     SC1 2334  62.376  11.705  59.160
15752DC     SC2 2335  62.423  11.908  59.212
15752DC     SC3 2336  62.635  11.682  59.118
15753DC     BB1 2337  61.838  11.688  59.017
15753DC     BB2 2338  61.921  12.038  59.043
15753DC     BB3 2339  61.989  12.108  58.860
15753DC     SC1 2340  62.220  11.986  58.891
15753DC     SC2 2341  62.374  12.133  58.921
15753DC     SC3 2342  62.421  11.821  58.848
15754DT     BB1 2343  61.755  12.260  58.770
15754DT     BB2 2344  62.019  12.505  58.766
15754DT     BB3 2345  62.100  12.518  58.576
15754DT     SC1 2346  62.227  12.290  58.606
15754DT     SC2 2347  62.439  12.328  58.620
15754DT     SC3 2348  62.300  12.039  58.569
15755DT     BB1 2349  61.983  12.769  58.503
15755DT     BB2 2350  62.338  12.826  58.469
15755DT     BB3 2351  62.397  12.789  58.274
15755DT     SC1 2352  62.379  12.530  58.310
15755DT     SC2 2353  62.577  12.444  58.308
15755DT     SC3 2354  62.298  12.281  58.282
15756DA     BB1 2355  62.536  13.174  58.365
15756DA     BB2 2356  62.819  12.982  58.232
15756DA     BB3 2357  62.802  12.962  58.020
15756DA     SC1 2358  62.643  12.695  58.034
15756DA     SC2 2359  62.681  12.455  57.980
15756DA     SC3 2360  62.425  12.436  57.976
15756DA     SC4 2361  62.482  12.704  58.034
15757DT     BB1 2362  62.942  13.053  57.903
15757DT     BB2 2363  63.124  12.753  57.820
15757DT     BB3 2364  63.085  12.700  57.623
15757DT     SC1 2365  62.846  12.612  57.686
15757DT     SC2 2366  62.842  12.398  57.668
15757DT     SC3 2367  62.583  12.591  57.694
15758DT     BB1 2368  63.337  12.774  57.559
15758DT     BB2 2369  63.316  12.427  57.464
15758DT     BB3 2370  63.241  12.411  57.272
15758DT     SC1 2371  62.998  12.467  57.354
15758DT     SC2 2372  62.874  12.292  57.338
15758DT     SC3 2373  62.769  12.595  57.382
15759DA     BB1 2374  63.592  12.187  57.311
15759DA     BB2 2375  63.335  11.973  57.160
15759DA     BB3 2376  63.297  12.032  56.959
15759DA     SC1 2377  63.071  12.232  57.034
15759DA     SC2 2378  62.823  12.248  57.008
15759DA     SC3 2379  62.856  12.499  57.048
15759DA     SC4 2380  63.112  12.385  57.060
15760DT     BB1 2381  63.344  11.899  56.844
15760DT     BB2 2382  63.010  11.795  56.759
15760DT     BB3 2383  62.954  11.878  56.578
15760DT     SC1 2384  62.919  12.114  56.687
15760DT     SC2 2385  62.710  12.161  56.689
15760DT     SC3 2386  62.952  12.370  56.740
15761DT     BB1 2387  62.971  11.629  56.496
15761DT     BB2 2388  62.634  11.732  56.420
15761DT     BB3 2389  62.630  11.838  56.242
15761DT     SC1 2390  62.735  12.049  56.357
15761DT     SC2 2391  62.587  12.205  56.368
15761DT     SC3 2392  62.906  12.242  56.414
15762DT     BB1 2393  62.503  11.624  56.169
15762DT     BB2 2394  62.281  11.900  56.100
15762DT     BB3 2395  62.340  11.996  55.926
15762DT     SC1 2396  62.543  12.109  56.048
15762DT     SC2 2397  62.507  12.321  56.065
15762DT     SC3 2398  62.792  12.172  56.110
15763DG     BB1 2399  61.952  11.877  55.883
15763DG     BB2 2400  61.994  12.227  55.801
15763DG     BB3 2401  62.079  12.245  55.623
15763DG     SC1 2402  62.365  12.244  55.732
15763DG     SC2 2403  62.556  12.473  55.726
15763DG     SC3 2404  62.691  12.225  55.815
15763DG     SC4 2405  62.440  12.104  55.750
15764DT     BB1 2406  61.976  12.342  55.446
15764DT     BB2 2407  62.150  12.658  55.426
15764DT     BB3 2408  62.284  12.654  55.269
15764DT     SC1 2409  62.449  12.501  55.402
15764DT     SC2 2410  62.625  12.613  55.453
15764DT     SC3 2411  62.595  12.291  55.468
15765DA     BB1 2412  62.050  12.998  55.208
15765DA     BB2 2413  62.402  13.096  55.184
15765DA     BB3 2414  62.485  13.030  54.998
15765DA     SC1 2415  62.582  12.757  55.111
15765DA     SC2 2416  62.799  12.646  55.164
15765DA     SC3 2417  62.665  12.427  55.153
15765DA     SC4 2418  62.482  12.632  55.098
15766DT     BB1 2419  62.542  13.169  54.864
15766DT     BB2 2420  62.897  13.136  54.921
15766DT     BB3 2421  62.984  13.034  54.764
15766DT     SC1 2422  62.886  12.805  54.847
15766DT     SC2 2423  63.046  12.681  54.920
15766DT     SC3 2424  62.745  12.582  54.850
15767DT     BB1 2425  63.093  13.266  54.712
15767DT     BB2 2426  63.369  13.040  54.766
15767DT     BB3 2427  63.407  12.932  54.594
15767DT     SC1 2428  63.195  12.782  54.632
15767DT     SC2 2429  63.257  12.582  54.682
15767DT     SC3 2430  62.959  12.671  54.592
15768DA     BB1 2431  63.744  13.098  54.786
15768DA     BB2 2432  63.811  12.746  54.707
15768DA     BB3 2433  63.821  12.718  54.496
15768DA     SC1 2434  63.518  12.655  54.465
15768DA     SC2 2435  63.375  12.458  54.411
15768DA     SC3 2436  63.195  12.630  54.353
15768DA     SC4 2437  63.420  12.778  54.433
15769DA     BB1 2438  64.075  12.576  54.656
15769DA     BB2 2439  63.967  12.271  54.484
15769DA     BB3 2440  63.983  12.295  54.273
15769DA     SC1 2441  63.694  12.402  54.238
15769DA     SC2 2442  63.478  12.324  54.140
15769DA     SC3 2443  63.413  12.573  54.136
15769DA     SC4 2444  63.672  12.562  54.243
15770DA     BB1 2445  64.136  12.007  54.341
15770DA     BB2 2446  63.910  11.859  54.092
15770DA     BB3 2447  63.953  11.937  53.898
15770DA     SC1 2448  63.752  12.174  53.922
15770DA     SC2 2449  63.534  12.242  53.822
15770DA     SC3 2450  63.595  12.478  53.901
15770DA     SC4 2451  63.809  12.314  53.978
15771DT     BB1 2452  64.039  11.821  53.744
15771DT     BB2 2453  63.757  11.805  53.520
15771DT     BB3 2454  63.786  11.934  53.361
15771DT     SC1 2455  63.734  12.143  53.512
15771DT     SC2 2456  63.546  12.229  53.452
15771DT     SC3 2457  63.768  12.370  53.641
15772DC     BB1 2458  63.876  11.756  53.137
15772DC     BB2 2459  63.609  11.941  52.981
15772DC     BB3 2460  63.687  12.104  52.879
15772DC     SC1 2461  63.730  12.234  53.104
15772DC     SC2 2462  63.594  12.400  53.117
15772DC     SC3 2463  63.858  12.355  53.299
15773DA     BB1 2464  63.500  11.935  52.534
15773DA     BB2 2465  63.400  12.287  52.539
15773DA     BB3 2466  63.554  12.409  52.456
15773DA     SC1 2467  63.696  12.458  52.728
15773DA     SC2 2468  63.732  12.648  52.886
15773DA     SC3 2469  63.927  12.509  52.977
15773DA     SC4 2470  63.814  12.357  52.770
15774DA     BB1 2471  63.347  12.542  52.220
15774DA     BB2 2472  63.392  12.870  52.377
15774DA     BB3 2473  63.569  12.964  52.304
15774DA     SC1 2474  63.754  12.845  52.525
15774DA     SC2 2475  63.880  12.927  52.723
15774DA     SC3 2476  64.017  12.712  52.700
15774DA     SC4 2477  63.828  12.706  52.493
15775DC     BB1 2478  63.576  13.152  52.174
15775DC     BB2 2479  63.678  13.375  52.439
15775DC     BB3 2480  63.872  13.439  52.406
15775DC     SC1 2481  63.970  13.207  52.479
15775DC     SC2 2482  64.073  13.229  52.667
15775DC     SC3 2483  64.095  12.975  52.466
15776DA     BB1 2484  63.649  13.791  52.456
15776DA     BB2 2485  63.938  13.811  52.680
15776DA     BB3 2486  64.115  13.856  52.570
15776DA     SC1 2487  64.189  13.558  52.520
15776DA     SC2 2488  64.364  13.396  52.594
15776DA     SC3 2489  64.299  13.262  52.386
15776DA     SC4 2490  64.136  13.489  52.385
15777DC     BB1 2491  64.218  14.041  52.594
15777DC     BB2 2492  64.492  13.908  52.789
15777DC     BB3 2493  64.664  13.905  52.675
15777DC     SC1 2494  64.580  13.698  52.538
15777DC     SC2 2495  64.698  13.526  52.588
15777DC     SC3 2496  64.499  13.552  52.333
15778DG     BB1 2497  64.757  14.140  52.996
15778DG     BB2 2498  64.995  13.871  52.959
15778DG     BB3 2499  65.128  13.917  52.819
15778DG     SC1 2500  64.966  13.796  52.589
15778DG     SC2 2501  65.042  13.556  52.429
15778DG     SC3 2502  64.806  13.691  52.312
15778DG     SC4 2503  64.859  13.887  52.514
15779DT     BB1 2504  65.354  13.941  52.862
15779DT     BB2 2505  65.476  13.628  52.731
15779DT     BB3 2506  65.577  13.660  52.554
15779DT     SC1 2507  65.353  13.699  52.423
15779DT     SC2 2508  65.319  13.534  52.289
15779DT     SC3 2509  65.165  13.819  52.283
15780DA     BB1 2510  65.811  13.433  52.814
15780DA     BB2 2511  65.791  13.258  52.493
15780DA     BB3 2512  65.910  13.358  52.347
15780DA     SC1 2513  65.678  13.540  52.248
15780DA     SC2 2514  65.537  13.564  52.044
15780DA     SC3 2515  65.490  13.801  52.129
15780DA     SC4 2516  65.662  13.684  52.317
15781DT     BB1 2517  66.034  13.244  52.299
15781DT     BB2 2518  65.889  13.158  51.981
15781DT     BB3 2519  65.978  13.268  51.830
15781DT     SC1 2520  65.849  13.485  51.900
15781DT     SC2 2521  65.704  13.534  51.749
15781DT     SC3 2522  65.804  13.730  51.987
15782DA     BB1 2523  65.897  12.850  51.782
15782DA     BB2 2524  65.781  13.035  51.488
15782DA     BB3 2525  65.945  13.126  51.388
15782DA     SC1 2526  65.925  13.393  51.547
15782DA     SC2 2527  65.861  13.630  51.504
15782DA     SC3 2528  65.994  13.683  51.717
15782DA     SC4 2529  66.014  13.406  51.681
15783DT     BB1 2530  65.921  13.049  51.252
15783DT     BB2 2531  65.815  13.332  51.055
15783DT     BB3 2532  65.980  13.435  50.984
15783DT     SC1 2533  66.029  13.538  51.220
15783DT     SC2 2534  65.988  13.749  51.216
15783DT     SC3 2535  66.152  13.592  51.447
15784DA     BB1 2536  65.689  13.362  50.685
15784DA     BB2 2537  65.804  13.709  50.658
15784DA     BB3 2538  66.008  13.715  50.596
15784DA     SC1 2539  66.121  13.713  50.886
15784DA     SC2 2540  66.239  13.870  51.039
15784DA     SC3 2541  66.311  13.659  51.167
15784DA     SC4 2542  66.157  13.570  50.951
15785DC     BB1 2543  66.042  13.790  50.421
15785DC     BB2 2544  66.199  14.097  50.527
15785DC     BB3 2545  66.405  14.080  50.510
15785DC     SC1 2546  66.418  13.927  50.722
15785DC     SC2 2547  66.514  14.035  50.882
15785DC     SC3 2548  66.461  13.715  50.873
15786DA     BB1 2549  66.314  14.430  50.294
15786DA     BB2 2550  66.596  14.508  50.516
15786DA     BB3 2551  66.776  14.421  50.441
15786DA     SC1 2552  66.741  14.154  50.598
15786DA     SC2 2553  66.850  14.037  50.789
15786DA     SC3 2554  66.740  13.825  50.696
15786DA     SC4 2555  66.665  14.034  50.524
15787DG     BB1 2556  66.898  14.711  50.414
15787DG     BB2 2557  67.128  14.592  50.666
15787DG     BB3 2558  67.280  14.496  50.580
15787DG     SC1 2559  67.142  14.223  50.587
15787DG     SC2 2560  67.228  13.987  50.749
15787DG     SC3 2561  67.013  13.912  50.560
15787DG     SC4 2562  67.049  14.180  50.464
15788DT     BB1 2563  67.499  14.566  50.591
15788DT     BB2 2564  67.632  14.331  50.830
15788DT     BB3 2565  67.751  14.191  50.733
15788DT     SC1 2566  67.541  14.068  50.635
15788DT     SC2 2567  67.520  13.876  50.730
15788DT     SC3 2568  67.368  13.973  50.460
15789DC     BB1 2569  67.968  14.306  50.844
15789DC     BB2 2570  67.980  13.962  50.952
15789DC     BB3 2571  68.075  13.846  50.808
15789DC     SC1 2572  67.865  13.855  50.652
15789DC     SC2 2573  67.774  13.660  50.643
15789DC     SC3 2574  67.714  13.906  50.442
15790DT     BB1 2575  68.275  13.827  50.981
15790DT     BB2 2576  68.178  13.487  50.912
15790DT     BB3 2577  68.269  13.421  50.738
15790DT     SC1 2578  68.106  13.564  50.590
15790DT     SC2 2579  67.973  13.432  50.483
15790DT     SC3 2580  68.020  13.747  50.421
15791DC     BB1 2581  68.422  13.265  50.891
15791DC     BB2 2582  68.264  13.039  50.658
15791DC     BB3 2583  68.371  13.034  50.481
15791DC     SC1 2584  68.280  13.270  50.410
15791DC     SC2 2585  68.146  13.247  50.244
15791DC     SC3 2586  68.277  13.525  50.346
15792DT     BB1 2587  68.461  12.785  50.542
15792DT     BB2 2588  68.307  12.748  50.218
15792DT     BB3 2589  68.443  12.795  50.069
15792DT     SC1 2590  68.422  13.051  50.119
15792DT     SC2 2591  68.322  13.148  49.955
15792DT     SC3 2592  68.488  13.297  50.190
15793DC     BB1 2593  68.481  12.529  49.993
15793DC     BB2 2594  68.386  12.692  49.686
15793DC     BB3 2595  68.554  12.764  49.589
15793DC     SC1 2596  68.578  12.962  49.760
15793DC     SC2 2597  68.533  13.147  49.661
15793DC     SC3 2598  68.680  13.116  49.948
15794DG     BB1 2599  68.404  12.503  49.309
15794DG     BB2 2600  68.463  12.828  49.162
15794DG     BB3 2601  68.655  12.846  49.112
15794DG     SC1 2602  68.739  12.962  49.383
15794DG     SC2 2603  68.838  13.240  49.432
15794DG     SC3 2604  68.869  13.072  49.674
15794DG     SC4 2605  68.781  12.862  49.500
15795DA     BB1 2606  68.582  12.930  48.776
15795DA     BB2 2607  68.741  13.258  48.818
15795DA     BB3 2608  68.953  13.242  48.795
15795DA     SC1 2609  69.005  13.191  49.098
15795DA     SC2 2610  69.108  13.312  49.290
15795DA     SC3 2611  69.128  13.081  49.399
15795DA     SC4 2612  69.010  13.039  49.148
15796DT     BB1 2613  69.069  13.331  48.626
15796DT     BB2 2614  69.203  13.606  48.817
15796DT     BB3 2615  69.407  13.581  48.844
15796DT     SC1 2616  69.368  13.394  49.024
15796DT     SC2 2617  69.426  13.468  49.218
15796DT     SC3 2618  69.371  13.158  49.141
15797DG     BB1 2619  69.359  13.937  48.653
15797DG     BB2 2620  69.548  13.976  48.959
15797DG     BB3 2621  69.737  13.922  48.930
15797DG     SC1 2622  69.691  13.629  49.003
15797DG     SC2 2623  69.802  13.488  49.242
15797DG     SC3 2624  69.672  13.296  49.058
15797DG     SC4 2625  69.647  13.526  48.889
15798DG     BB1 2626  69.797  14.220  49.033
15798DG     BB2 2627  69.962  14.060  49.312
15798DG     BB3 2628  70.145  14.003  49.259
15798DG     SC1 2629  70.059  13.727  49.161
15798DG     SC2 2630  70.132  13.465  49.285
15798DG     SC3 2631  69.996  13.424  49.025
15798DG     SC4 2632  70.013  13.710  49.008
15799DT     BB1 2633  70.271  14.087  49.377
15799DT     BB2 2634  70.378  13.813  49.585
15799DT     BB3 2635  70.551  13.730  49.508
15799DT     SC1 2636  70.419  13.613  49.314
15799DT     SC2 2637  70.419  13.400  49.346
15799DT     SC3 2638  70.339  13.551  49.071
15800DC     BB1 2639  70.620  13.832  49.732
15800DC     BB2 2640  70.707  13.482  49.749
15800DC     BB3 2641  70.876  13.445  49.635
15800DC     SC1 2642  70.739  13.465  49.411
15800DC     SC2 2643  70.725  13.271  49.319
15800DC     SC3 2644  70.659  13.554  49.177
15801DC     BB1 2645  70.961  13.404  49.873
15801DC     BB2 2646  71.039  13.104  49.687
15801DC     BB3 2647  71.203  13.137  49.566
15801DC     SC1 2648  71.061  13.279  49.398
15801DC     SC2 2649  71.039  13.171  49.213
15801DC     SC3 2650  70.976  13.486  49.257
15802DA     BB1 2651  71.281  12.786  49.783
15802DA     BB2 2652  71.383  12.726  49.436
15802DA     BB3 2653  71.562  12.834  49.391
15802DA     SC1 2654  71.412  13.088  49.291
15802DA     SC2 2655  71.374  13.206  49.075
15802DA     SC3 2656  71.318  13.410  49.220
15802DA     SC4 2657  71.383  13.204  49.398
15803DG     BB1 2658  71.726  12.564  49.332
15803DG     BB2 2659  71.770  12.701  49.000
15803DG     BB3 2660  71.931  12.819  48.996
15803DG     SC1 2661  71.778  13.072  49.073
15803DG     SC2 2662  71.735  13.311  48.898
15803DG     SC3 2663  71.646  13.365  49.175
15803DG     SC4 2664  71.759  13.108  49.228
15804DG     BB1 2665  72.126  12.652  48.762
15804DG     BB2 2666  72.115  12.950  48.556
15804DG     BB3 2667  72.269  13.068  48.599
15804DG     SC1 2668  72.121  13.222  48.818
15804DG     SC2 2669  72.044  13.510  48.807
15804DG     SC3 2670  71.996  13.399  49.077
15804DG     SC4 2671  72.125  13.167  48.968
15805DT     BB1 2672  72.490  13.143  48.460
15805DT     BB2 2673  72.404  13.483  48.378
15805DT     BB3 2674  72.530  13.614  48.478
15805DT     SC1 2675  72.407  13.571  48.706
15805DT     SC2 2676  72.299  13.749  48.763
15805DT     SC3 2677  72.366  13.497  48.955
15806DT     BB1 2678  72.720  13.700  48.260
15806DT     BB2 2679  72.597  14.016  48.384
15806DT     BB3 2680  72.731  14.095  48.521
15806DT     SC1 2681  72.657  13.922  48.705
15806DT     SC2 2682  72.551  14.026  48.861
15806DT     SC3 2683  72.669  13.725  48.879
15807DA     BB1 2684  72.720  14.422  48.252
15807DA     BB2 2685  72.668  14.564  48.586
15807DA     BB3 2686  72.855  14.589  48.686
15807DA     SC1 2687  72.850  14.307  48.818
15807DA     SC2 2688  72.824  14.211  49.047
15807DA     SC3 2689  72.934  14.001  48.949
15807DA     SC4 2690  72.921  14.187  48.739
15808DA     BB1 2691  72.796  14.918  48.732
15808DA     BB2 2692  72.798  14.860  49.094
15808DA     BB3 2693  72.998  14.866  49.169
15808DA     SC1 2694  73.047  14.561  49.132
15808DA     SC2 2695  73.076  14.360  49.276
15808DA     SC3 2696  73.185  14.253  49.070
15808DA     SC4 2697  73.113  14.513  48.993
15809DC     BB1 2698  73.095  15.032  49.313
15809DC     BB2 2699  73.087  14.828  49.611
15809DC     BB3 2700  73.280  14.786  49.673
15809DC     SC1 2701  73.313  14.612  49.479
15809DC     SC2 2702  73.322  14.414  49.562
15809DC     SC3 2703  73.409  14.498  49.261
15810DC     BB1 2704  73.286  14.965  49.900
15810DC     BB2 2705  73.357  14.642  50.044
15810DC     BB3 2706  73.562  14.614  50.058
15810DC     SC1 2707  73.582  14.573  49.800
15810DC     SC2 2708  73.631  14.367  49.764
15810DC     SC3 2709  73.652  14.607  49.548
15811DT     BB1 2710  73.564  14.645  50.337
15811DT     BB2 2711  73.703  14.317  50.284
15811DT     BB3 2712  73.909  14.328  50.270
15811DT     SC1 2713  73.895  14.430  50.028
15811DT     SC2 2714  73.968  14.286  49.886
15811DT     SC3 2715  73.919  14.601  49.829
15812DA     BB1 2716  73.766  14.028  50.528
15812DA     BB2 2717  74.010  13.881  50.297
15812DA     BB3 2718  74.206  13.956  50.339
15812DA     SC1 2719  74.183  14.196  50.143
15812DA     SC2 2720  74.282  14.267  49.925
15812DA     SC3 2721  74.206  14.503  49.990
15812DA     SC4 2722  74.129  14.336  50.202
15813DT     BB1 2723  74.291  13.817  50.382
15813DT     BB2 2724  74.492  13.792  50.083
15813DT     BB3 2725  74.671  13.892  50.110
15813DT     SC1 2726  74.553  14.125  50.086
15813DT     SC2 2727  74.614  14.218  49.902
15813DT     SC3 2728  74.465  14.366  50.148
15814DA     BB1 2729  74.714  13.505  49.945
15814DA     BB2 2730  74.918  13.741  49.752
15814DA     BB3 2731  75.079  13.815  49.871
15814DA     SC1 2732  74.919  14.059  49.979
15814DA     SC2 2733  74.922  14.307  49.953
15814DA     SC3 2734  74.791  14.311  50.174
15814DA     SC4 2735  74.840  14.041  50.118
15815DT     BB1 2736  75.241  13.762  49.805
15815DT     BB2 2737  75.352  14.083  49.684
15815DT     BB3 2738  75.476  14.172  49.824
15815DT     SC1 2739  75.272  14.231  49.978
15815DT     SC2 2740  75.241  14.444  49.977
15815DT     SC3 2741  75.111  14.234  50.187
15816DC     BB1 2742  75.691  14.124  49.667
15816DC     BB2 2743  75.702  14.480  49.727
15816DC     BB3 2744  75.800  14.518  49.906
15816DC     SC1 2745  75.593  14.437  50.045
15816DC     SC2 2746  75.503  14.607  50.144
15816DC     SC3 2747  75.446  14.295  50.212
15817DT     BB1 2748  76.033  14.611  49.784
15817DT     BB2 2749  75.935  14.881  50.003
15817DT     BB3 2750  76.020  14.854  50.191
15817DT     SC1 2751  75.850  14.662  50.248
15817DT     SC2 2752  75.714  14.731  50.400
15817DT     SC3 2753  75.756  14.423  50.308
15818DA     BB1 2754  76.146  15.242  50.088
15818DA     BB2 2755  76.001  15.260  50.424
15818DA     BB3 2756  76.137  15.181  50.568
15818DA     SC1 2757  76.026  14.890  50.549
15818DA     SC2 2758  75.897  14.732  50.692
15818DA     SC3 2759  75.992  14.549  50.540
15818DA     SC4 2760  76.097  14.791  50.444
15819DT     BB1 2761  76.230  15.303  50.719
15819DT     BB2 2762  76.022  15.189  50.992
15819DT     BB3 2763  76.133  15.069  51.119
15819DT     SC1 2764  76.127  14.870  50.949
15819DT     SC2 2765  76.003  14.712  51.028
15819DT     SC3 2766  76.210  14.685  50.780
15820DA     BB1 2767  75.942  15.366  51.344
15820DA     BB2 2768  75.867  15.041  51.496
15820DA     BB3 2769  76.040  14.964  51.596
15820DA     SC1 2770  76.145  14.810  51.347
15820DA     SC2 2771  76.171  14.573  51.274
15820DA     SC3 2772  76.342  14.665  51.106
15820DA     SC4 2773  76.249  14.887  51.250
15821DG     BB1 2774  75.835  14.980  51.822
15821DG     BB2 2775  75.873  14.621  51.813
15821DG     BB3 2776  76.041  14.568  51.906
15821DG     SC1 2777  76.214  14.586  51.654
15821DG     SC2 2778  76.347  14.356  51.516
15821DG     SC3 2779  76.437  14.614  51.402
15821DG     SC4 2780  76.282  14.725  51.616
15822DT     BB1 2781  76.006  14.447  52.058
15822DT     BB2 2782  76.122  14.130  51.932
15822DT     BB3 2783  76.317  14.095  51.995
15822DT     SC1 2784  76.411  14.269  51.822
15822DT     SC2 2785  76.521  14.165  51.669
15822DT     SC3 2786  76.531  14.484  51.726
15823DC     BB1 2787  76.204  13.910  52.144
15823DC     BB2 2788  76.453  13.737  51.948
15823DC     BB3 2789  76.640  13.760  52.035
15823DC     SC1 2790  76.657  14.008  51.952
15823DC     SC2 2791  76.808  14.022  51.799
15823DC     SC3 2792  76.675  14.271  51.957
15824DT     BB1 2793  76.623  13.503  52.103
15824DT     BB2 2794  76.932  13.530  51.919
15824DT     BB3 2795  77.084  13.594  52.044
15824DT     SC1 2796  76.991  13.839  52.045
15824DT     SC2 2797  77.126  13.967  51.937
15824DT     SC3 2798  76.887  14.065  52.133
15825DG     BB1 2799  77.215  13.234  51.900
15825DG     BB2 2800  77.468  13.489  51.860
15825DG     BB3 2801  77.561  13.520  52.033
15825DG     SC1 2802  77.367  13.737  52.127
15825DG     SC2 2803  77.432  14.026  52.165
15825DG     SC3 2804  77.163  13.964  52.270
15825DG     SC4 2805  77.236  13.694  52.208
15826DG     BB1 2806  77.869  13.437  51.920
15826DG     BB2 2807  77.968  13.777  51.993
15826DG     BB3 2808  78.028  13.791  52.182
15826DG     SC1 2809  77.750  13.856  52.292
15826DG     SC2 2810  77.665  14.115  52.413
15826DG     SC3 2811  77.456  13.909  52.448
15826DG     SC4 2812  77.653  13.736  52.334
15827DA     BB1 2813  78.341  13.933  52.094
15827DA     BB2 2814  78.260  14.239  52.279
15827DA     BB3 2815  78.300  14.213  52.487
15827DA     SC1 2816  78.014  14.111  52.554
15827DA     SC2 2817  77.813  14.193  52.678
15827DA     SC3 2818  77.743  13.946  52.687
15827DA     SC4 2819  77.989  13.952  52.551
15828DA     BB1 2820  78.491  14.481  52.458
15828DA     BB2 2821  78.262  14.649  52.690
15828DA     BB3 2822  78.306  14.592  52.891
15828DA     SC1 2823  78.110  14.350  52.892
15828DA     SC2 2824  77.894  14.289  52.999
15828DA     SC3 2825  77.959  14.047  52.945
15828DA     SC4 2826  78.170  14.207  52.851
15829DT     BB1 2827  78.373  14.735  53.015
15829DT     BB2 2828  78.064  14.779  53.194
15829DT     BB3 2829  78.079  14.694  53.382
15829DT     SC1 2830  78.059  14.452  53.283
15829DT     SC2 2831  77.870  14.366  53.340
15829DT     SC3 2832  78.123  14.204  53.218
15830DA     BB1 2833  77.928  15.084  53.395
15830DA     BB2 2834  77.706  14.866  53.589
15830DA     BB3 2835  77.802  14.804  53.770
15830DA     SC1 2836  77.925  14.547  53.645
15830DA     SC2 2837  77.894  14.300  53.663
15830DA     SC3 2838  78.129  14.284  53.563
15830DA     SC4 2839  78.073  14.558  53.583
15831DA     BB1 2840  77.506  14.921  53.840
15831DA     BB2 2841  77.442  14.590  53.985
15831DA     BB3 2842  77.562  14.561  54.159
15831DA     SC1 2843  77.800  14.433  54.003
15831DA     SC2 2844  77.907  14.209  53.981
15831DA     SC3 2845  78.111  14.338  53.894
15831DA     SC4 2846  77.917  14.532  53.953
15832DA     BB1 2847  77.256  14.486  54.247
15832DA     BB2 2848  77.390  14.158  54.341
15832DA     BB3 2849  77.516  14.175  54.512
15832DA     SC1 2850  77.775  14.220  54.346
15832DA     SC2 2851  77.985  14.095  54.294
15832DA     SC3 2852  78.082  14.324  54.232
15832DA     SC4 2853  77.818  14.371  54.314
15833DT     BB1 2854  77.451  14.089  54.673
15833DT     BB2 2855  77.687  13.817  54.684
15833DT     BB3 2856  77.834  13.856  54.825
15833DT     SC1 2857  77.949  14.032  54.668
15833DT     SC2 2858  78.138  13.955  54.601
15833DT     SC3 2859  78.040  14.263  54.579
15834DA     BB1 2860  77.686  13.475  54.916
15834DA     BB2 2861  78.052  13.456  54.928
15834DA     BB3 2862  78.126  13.553  55.103
15834DA     SC1 2863  78.156  13.831  54.967
15834DA     SC2 2864  78.340  13.982  54.895
15834DA     SC3 2865  78.163  14.168  54.900
15834DA     SC4 2866  78.031  13.933  54.978
15835DT     BB1 2867  78.219  13.445  55.266
15835DT     BB2 2868  78.558  13.555  55.209
15835DT     BB3 2869  78.615  13.689  55.356
15835DT     SC1 2870  78.469  13.879  55.251
15835DT     SC2 2871  78.598  14.030  55.167
15835DT     SC3 2872  78.280  14.062  55.225
15836DA     BB1 2873  78.920  13.400  55.373
15836DA     BB2 2874  79.084  13.727  55.371
15836DA     BB3 2875  79.070  13.819  55.563
15836DA     SC1 2876  78.803  13.966  55.500
15836DA     SC2 2877  78.726  14.200  55.464
15836DA     SC3 2878  78.492  14.109  55.519
15836DA     SC4 2879  78.666  13.891  55.539
15837DT     BB1 2880  79.243  13.854  55.706
15837DT     BB2 2881  79.266  14.212  55.661
15837DT     BB3 2882  79.204  14.308  55.834
15837DT     SC1 2883  78.952  14.255  55.782
15837DT     SC2 2884  78.849  14.437  55.731
15837DT     SC3 2885  78.709  14.155  55.808
15838DA     BB1 2886  79.587  14.477  55.786
15838DA     BB2 2887  79.358  14.756  55.846
15838DA     BB3 2888  79.313  14.772  56.054
15838DA     SC1 2889  79.063  14.587  56.038
15838DA     SC2 2890  78.816  14.608  56.057
15838DA     SC3 2891  78.817  14.356  56.103
15838DA     SC4 2892  79.085  14.430  56.067
15839DA     BB1 2893  79.421  15.093  56.062
15839DA     BB2 2894  79.082  15.196  56.155
15839DA     BB3 2895  79.053  15.175  56.365
15839DA     SC1 2896  78.946  14.884  56.347
15839DA     SC2 2897  78.729  14.764  56.379
15839DA     SC3 2898  78.873  14.553  56.404
15839DA     SC4 2899  79.052  14.764  56.361
15840DC     BB1 2900  79.026  15.350  56.535
15840DC     BB2 2901  78.671  15.304  56.579
15840DC     BB3 2902  78.632  15.233  56.769
15840DC     SC1 2903  78.718  14.993  56.706
15840DC     SC2 2904  78.552  14.856  56.701
15840DC     SC3 2905  78.866  14.774  56.706
15841DC     BB1 2906  78.528  15.478  56.897
15841DC     BB2 2907  78.260  15.241  56.943
15841DC     BB3 2908  78.274  15.153  57.130
15841DC     SC1 2909  78.477  15.005  57.054
15841DC     SC2 2910  78.415  14.799  57.044
15841DC     SC3 2911  78.721  14.906  57.041
15842DA     BB1 2912  77.885  15.301  57.098
15842DA     BB2 2913  77.863  14.949  57.199
15842DA     BB3 2914  77.915  14.928  57.405
15842DA     SC1 2915  78.217  14.881  57.350
15842DA     SC2 2916  78.381  14.693  57.365
15842DA     SC3 2917  78.560  14.877  57.366
15842DA     SC4 2918  78.314  15.010  57.351
15843DC     BB1 2919  77.770  14.867  57.521
15843DC     BB2 2920  77.889  14.529  57.561
15843DC     BB3 2921  77.976  14.506  57.747
15843DC     SC1 2922  78.190  14.639  57.673
15843DC     SC2 2923  78.357  14.504  57.660
15843DC     SC3 2924  78.374  14.828  57.663
15844DT     BB1 2925  77.765  14.356  57.800
15844DT     BB2 2926  78.050  14.142  57.855
15844DT     BB3 2927  78.128  14.174  58.044
15844DT     SC1 2928  78.234  14.402  57.970
15844DT     SC2 2929  78.449  14.383  57.966
15844DT     SC3 2930  78.283  14.661  57.958
15845DG     BB1 2931  78.034  13.780  58.004
15845DG     BB2 2932  78.374  13.825  58.120
15845DG     BB3 2933  78.374  13.873  58.313
15845DG     SC1 2934  78.358  14.175  58.263
15845DG     SC2 2935  78.571  14.374  58.326
15845DG     SC3 2936  78.321  14.510  58.246
15845DG     SC4 2937  78.214  14.244  58.249
15846DA     BB1 2938  78.600  13.613  58.355
15846DA     BB2 2939  78.846  13.849  58.493
15846DA     BB3 2940  78.794  13.902  58.692
15846DA     SC1 2941  78.623  14.148  58.608
15846DA     SC2 2942  78.637  14.397  58.623
15846DA     SC3 2943  78.384  14.393  58.585
15846DA     SC4 2944  78.465  14.125  58.585
15847DA     BB1 2945  79.101  13.802  58.759
15847DA     BB2 2946  79.169  14.143  58.875
15847DA     BB3 2947  79.084  14.174  59.068
15847DA     SC1 2948  78.812  14.278  58.958
15847DA     SC2 2949  78.687  14.494  58.949
15847DA     SC3 2950  78.479  14.348  58.910
15847DA     SC4 2951  78.694  14.170  58.936
15848DA     BB1 2952  79.390  14.263  59.150
15848DA     BB2 2953  79.254  14.595  59.228
15848DA     BB3 2954  79.156  14.592  59.417
15848DA     SC1 2955  78.877  14.519  59.299
15848DA     SC2 2956  78.656  14.629  59.267
15848DA     SC3 2957  78.563  14.391  59.245
15848DA     SC4 2958  78.839  14.363  59.289
15849DC     BB1 2959  79.235  14.701  59.569
15849DC     BB2 2960  78.990  14.966  59.559
15849DC     BB3 2961  78.861  14.949  59.720
15849DC     SC1 2962  78.737  14.746  59.608
15849DC     SC2 2963  78.539  14.807  59.550
15849DC     SC3 2964  78.646  14.502  59.570
15850DT     BB1 2965  78.979  15.167  59.815
15850DT     BB2 2966  78.630  15.254  59.785
15850DT     BB3 2967  78.527  15.191  59.953
15850DT     SC1 2968  78.536  14.941  59.874
15850DT     SC2 2969  78.338  14.876  59.819
15850DT     SC3 2970  78.593  14.683  59.871
15851DC     BB1 2971  78.508  15.448  59.999
15851DC     BB2 2972  78.168  15.328  59.987
15851DC     BB3 2973  78.116  15.245  60.170
15851DC     SC1 2974  78.259  15.031  60.122
15851DC     SC2 2975  78.128  14.863  60.091
15851DC     SC3 2976  78.447  14.847  60.146
15852DT     BB1 2977  77.963  15.456  60.181
15852DT     BB2 2978  77.742  15.174  60.222
15852DT     BB3 2979  77.749  15.106  60.417
15852DT     SC1 2980  77.984  14.996  60.379
15852DT     SC2 2981  77.963  14.782  60.383
15852DT     SC3 2982  78.242  14.947  60.403
15853DA     BB1 2983  77.348  15.158  60.299
15853DA     BB2 2984  77.378  14.833  60.467
15853DA     BB3 2985  77.410  14.861  60.676
15853DA     SC1 2986  77.720  14.863  60.652
15853DA     SC2 2987  77.911  14.715  60.716
15853DA     SC3 2988  78.056  14.926  60.693
15853DA     SC4 2989  77.793  15.005  60.634
15854DT     BB1 2990  77.267  14.802  60.800
15854DT     BB2 2991  77.434  14.515  60.939
15854DT     BB3 2992  77.507  14.560  61.127
15854DT     SC1 2993  77.703  14.702  61.026
15854DT     SC2 2994  77.890  14.600  61.058
15854DT     SC3 2995  77.855  14.910  60.969
15855DA     BB1 2996  77.277  14.214  61.197
15855DA     BB2 2997  77.599  14.165  61.366
15855DA     BB3 2998  77.607  14.281  61.545
15855DA     SC1 2999  77.731  14.530  61.408
15855DA     SC2 3000  77.949  14.651  61.407
15855DA     SC3 3001  77.815  14.850  61.315
15855DA     SC4 3002  77.630  14.643  61.353
15856DA     BB1 3003  77.672  14.003  61.728
15856DA     BB2 3004  77.991  14.154  61.827
15856DA     BB3 3005  77.962  14.290  61.988
15856DA     SC1 3006  77.917  14.537  61.804
15856DA     SC2 3007  78.037  14.747  61.744
15856DA     SC3 3008  77.807  14.831  61.666
15856DA     SC4 3009  77.765  14.572  61.762
15857DA     BB1 3010  78.186  14.124  62.182
15857DA     BB2 3011  78.394  14.426  62.183
15857DA     BB3 3012  78.326  14.562  62.333
15857DA     SC1 3013  78.130  14.712  62.144
15857DA     SC2 3014  78.113  14.937  62.037
15857DA     SC3 3015  77.864  14.883  62.011
15857DA     SC4 3016  77.978  14.661  62.138
15858DT     BB1 3017  78.438  14.626  62.535
15858DT     BB2 3018  78.541  14.950  62.416
15858DT     BB3 3019  78.443  15.099  62.522
15858DT     SC1 3020  78.219  15.054  62.393
15858DT     SC2 3021  78.177  15.220  62.264
15858DT     SC3 3022  77.968  14.987  62.347
15859DG     BB1 3023  78.837  15.177  62.603
15859DG     BB2 3024  78.672  15.468  62.465
15859DG     BB3 3025  78.576  15.567  62.608
15859DG     SC1 3026  78.315  15.411  62.573
15859DG     SC2 3027  78.056  15.523  62.473
15859DG     SC3 3028  78.020  15.247  62.575
15859DG     SC4 3029  78.293  15.275  62.655
15860DG     BB1 3030  78.756  15.827  62.535
15860DG     BB2 3031  78.446  15.979  62.429
15860DG     BB3 3032  78.353  16.061  62.586
15860DG     SC1 3033  78.197  15.807  62.657
15860DG     SC2 3034  77.901  15.773  62.638
15860DG     SC3 3035  78.025  15.542  62.775
15860DG     SC4 3036  78.263  15.700  62.755
15861DA     BB1 3037  78.346  16.320  62.367
15861DA     BB2 3038  77.979  16.316  62.384
15861DA     BB3 3039  77.913  16.395  62.570
15861DA     SC1 3040  77.910  16.120  62.714
15861DA     SC2 3041  77.741  15.960  62.804
15861DA     SC3 3042  77.934  15.865  62.943
15861DA     SC4 3043  78.043  16.076  62.793
15862DC     BB1 3044  77.825  16.528  62.519
15862DC     BB2 3045  77.498  16.393  62.590
15862DC     BB3 3046  77.440  16.444  62.782
15862DC     SC1 3047  77.603  16.267  62.886
15862DC     SC2 3048  77.489  16.107  62.973
15862DC     SC3 3049  77.804  16.166  63.024
15863DC     BB1 3050  77.273  16.583  62.642
15863DC     BB2 3051  77.073  16.375  62.859
15863DC     BB3 3052  77.069  16.454  63.050
15863DC     SC1 3053  77.315  16.373  63.096
15863DC     SC2 3054  77.312  16.214  63.241
15863DC     SC3 3055  77.573  16.382  63.147
15864DG     BB1 3056  76.690  16.404  62.909
15864DG     BB2 3057  76.731  16.260  63.239
15864DG     BB3 3058  76.739  16.404  63.375
15864DG     SC1 3059  77.043  16.438  63.359
15864DG     SC2 3060  77.238  16.372  63.575
15864DG     SC3 3061  77.371  16.514  63.353
15864DG     SC4 3062  77.104  16.539  63.252
15865DT     BB1 3063  76.586  16.419  63.530
15865DT     BB2 3064  76.766  16.313  63.825
15865DT     BB3 3065  76.820  16.478  63.938
15865DT     SC1 3066  77.010  16.541  63.769
15865DT     SC2 3067  77.202  16.507  63.861
15865DT     SC3 3068  77.148  16.677  63.590
15866DT     BB1 3069  76.629  16.427  64.132
15866DT     BB2 3070  76.938  16.444  64.317
15866DT     BB3 3071  76.976  16.640  64.373
15866DT     SC1 3072  77.046  16.706  64.129
15866DT     SC2 3073  77.258  16.744  64.123
15866DT     SC3 3074  77.043  16.825  63.894
15867DA     BB1 3075  76.998  16.423  64.733
15867DA     BB2 3076  77.298  16.634  64.713
15867DA     BB3 3077  77.248  16.837  64.756
15867DA     SC1 3078  77.191  16.912  64.460
15867DA     SC2 3079  77.295  17.052  64.281
15867DA     SC3 3080  77.063  17.046  64.170
15867DA     SC4 3081  77.039  16.898  64.407
15868DA     BB1 3082  77.486  16.809  64.982
15868DA     BB2 3083  77.665  17.073  64.801
15868DA     BB3 3084  77.581  17.264  64.846
15868DA     SC1 3085  77.379  17.256  64.610
15868DA     SC2 3086  77.345  17.373  64.392
15868DA     SC3 3087  77.102  17.291  64.409
15868DA     SC4 3088  77.232  17.197  64.640
15869DA     BB1 3089  77.894  17.326  64.920
15869DA     BB2 3090  77.885  17.580  64.656
15869DA     BB3 3091  77.778  17.753  64.722
15869DA     SC1 3092  77.503  17.652  64.618
15869DA     SC2 3093  77.341  17.711  64.437
15869DA     SC3 3094  77.169  17.582  64.577
15869DA     SC4 3095  77.410  17.569  64.720
15870DG     BB1 3096  78.050  17.886  64.663
15870DG     BB2 3097  77.857  18.062  64.413
15870DG     BB3 3098  77.756  18.211  64.498
15870DG     SC1 3099  77.509  18.042  64.560
15870DG     SC2 3100  77.239  18.074  64.436
15870DG     SC3 3101  77.230  17.881  64.660
15870DG     SC4 3102  77.502  17.962  64.698
15871DA     BB1 3103  77.897  18.408  64.249
15871DA     BB2 3104  77.561  18.501  64.134
15871DA     BB3 3105  77.473  18.642  64.268
15871DA     SC1 3106  77.338  18.424  64.445
15871DA     SC2 3107  77.108  18.343  64.494
15871DA     SC3 3108  77.210  18.243  64.707
15871DA     SC4 3109  77.420  18.371  64.573
15872DA     BB1 3110  77.437  18.810  63.988
15872DA     BB2 3111  77.076  18.802  64.052
15872DA     BB3 3112  77.026  18.939  64.208
15872DA     SC1 3113  77.058  18.728  64.435
15872DA     SC2 3114  76.911  18.605  64.594
15872DA     SC3 3115  77.125  18.568  64.731
15872DA     SC4 3116  77.201  18.718  64.506
15873DA     BB1 3117  76.814  19.057  63.984
15873DA     BB2 3118  76.544  18.973  64.218
15873DA     BB3 3119  76.536  19.116  64.376
15873DA     SC1 3120  76.730  18.959  64.562
15873DA     SC2 3121  76.718  18.830  64.775
15873DA     SC3 3122  76.971  18.869  64.789
15873DA     SC4 3123  76.887  18.995  64.553
15874DC     BB1 3124  76.372  19.249  64.397
15874DC     BB2 3125  76.223  19.088  64.684
15874DC     BB3 3126  76.253  19.203  64.853
15874DC     SC1 3127  76.505  19.130  64.866
15874DC     SC2 3128  76.534  19.003  65.037
15874DC     SC3 3129  76.768  19.147  64.865
15875DT     BB1 3130  75.989  19.290  64.865
15875DT     BB2 3131  76.046  19.140  65.188
15875DT     BB3 3132  76.118  19.282  65.320
15875DT     SC1 3133  76.355  19.277  65.208
15875DT     SC2 3134  76.496  19.186  65.342
15875DT     SC3 3135  76.569  19.358  65.077
15876DA     BB1 3136  75.785  19.118  65.517
15876DA     BB2 3137  76.065  19.115  65.754
15876DA     BB3 3138  76.101  19.311  65.830
15876DA     SC1 3139  76.305  19.386  65.608
15876DA     SC2 3140  76.551  19.427  65.589
15876DA     SC3 3141  76.493  19.550  65.372
15876DA     SC4 3142  76.249  19.459  65.476
15877DC     BB1 3143  76.066  19.362  66.036
15877DC     BB2 3144  76.413  19.372  66.134
15877DC     BB3 3145  76.472  19.567  66.167
15877DC     SC1 3146  76.479  19.617  65.909
15877DC     SC2 3147  76.683  19.644  65.847
15877DC     SC3 3148  76.420  19.724  65.675
15878DT     BB1 3149  76.480  19.530  66.440
15878DT     BB2 3150  76.813  19.640  66.355
15878DT     BB3 3151  76.823  19.847  66.361
15878DT     SC1 3152  76.691  19.867  66.135
15878DT     SC2 3153  76.823  19.939  65.981
15878DT     SC3 3154  76.500  19.929  65.963
15879DG     BB1 3155  77.103  19.707  66.621
15879DG     BB2 3156  77.248  19.937  66.382
15879DG     BB3 3157  77.207  20.124  66.435
15879DG     SC1 3158  76.945  20.137  66.278
15879DG     SC2 3159  76.892  20.308  66.039
15879DG     SC3 3160  76.643  20.180  66.133
15879DG     SC4 3161  76.809  20.090  66.349
15880DG     BB1 3162  77.529  20.172  66.439
15880DG     BB2 3163  77.471  20.410  66.172
15880DG     BB3 3164  77.413  20.584  66.248
15880DG     SC1 3165  77.115  20.515  66.242
15880DG     SC2 3166  76.909  20.645  66.069
15880DG     SC3 3167  76.782  20.466  66.267
15880DG     SC4 3168  77.049  20.442  66.368
15881DT     BB1 3169  77.536  20.756  66.214
15881DT     BB2 3170  77.343  20.936  65.967
15881DT     BB3 3171  77.243  21.093  66.057
15881DT     SC1 3172  77.068  20.930  66.165
15881DT     SC2 3173  76.877  20.958  66.072
15881DT     SC3 3174  76.931  20.801  66.349
15882DA     BB1 3175  77.451  21.237  65.723
15882DA     BB2 3176  77.107  21.364  65.706
15882DA     BB3 3177  77.077  21.515  65.852
15882DA     SC1 3178  76.980  21.318  66.072
15882DA     SC2 3179  76.768  21.263  66.191
15882DA     SC3 3180  76.918  21.157  66.370
15882DA     SC4 3181  77.091  21.259  66.173
15883DA     BB1 3182  76.977  21.671  65.583
15883DA     BB2 3183  76.651  21.704  65.747
15883DA     BB3 3184  76.660  21.853  65.900
15883DA     SC1 3185  76.738  21.652  66.125
15883DA     SC2 3186  76.634  21.553  66.328
15883DA     SC3 3187  76.875  21.502  66.401
15883DA     SC4 3188  76.895  21.630  66.153
15884DT     BB1 3189  76.552  22.014  65.871
15884DT     BB2 3190  76.295  21.944  66.114
15884DT     BB3 3191  76.323  22.060  66.282
15884DT     SC1 3192  76.525  21.912  66.361
15884DT     SC2 3193  76.469  21.802  66.537
15884DT     SC3 3194  76.771  21.842  66.426
15885DG     BB1 3195  75.949  22.123  66.135
15885DG     BB2 3196  75.942  22.046  66.489
15885DG     BB3 3197  75.999  22.205  66.594
15885DG     SC1 3198  76.296  22.131  66.592
15885DG     SC2 3199  76.458  22.052  66.829
15885DG     SC3 3200  76.631  22.092  66.592
15885DG     SC4 3201  76.387  22.182  66.471
15886DC     BB1 3202  75.859  22.290  66.729
15886DC     BB2 3203  75.992  22.198  67.051
15886DC     BB3 3204  76.094  22.358  67.134
15886DC     SC1 3205  76.297  22.324  66.971
15886DC     SC2 3206  76.467  22.253  67.082
15886DC     SC3 3207  76.473  22.371  66.780
15887DG     BB1 3208  75.804  22.257  67.403
15887DG     BB2 3209  76.126  22.291  67.566
15887DG     BB3 3210  76.168  22.483  67.592
15887DG     SC1 3211  76.310  22.515  67.323
15887DG     SC2 3212  76.601  22.568  67.283
15887DG     SC3 3213  76.453  22.590  67.027
15887DG     SC4 3214  76.223  22.554  67.194
15888DT     BB1 3215  76.189  22.598  67.802
15888DT     BB2 3216  76.544  22.658  67.823
15888DT     BB3 3217  76.584  22.858  67.787
15888DT     SC1 3218  76.542  22.827  67.530
15888DT     SC2 3219  76.728  22.846  67.424
15888DT     SC3 3220  76.433  22.855  67.291
15889DA     BB1 3221  76.766  22.851  68.175
15889DA     BB2 3222  77.005  23.023  67.957
15889DA     BB3 3223  76.949  23.227  67.931
15889DA     SC1 3224  76.776  23.173  67.678
15889DA     SC2 3225  76.786  23.221  67.433
15889DA     SC3 3226  76.533  23.178  67.435
15889DA     SC4 3227  76.619  23.144  67.700
15890DG     BB1 3228  77.203  23.421  68.082
15890DG     BB2 3229  77.271  23.541  67.748
15890DG     BB3 3230  77.184  23.718  67.720
15890DG     SC1 3231  76.922  23.600  67.617
15890DG     SC2 3232  76.815  23.627  67.339
15890DG     SC3 3233  76.613  23.505  67.518
15890DG     SC4 3234  76.806  23.563  67.721
15891DG     BB1 3235  77.444  23.984  67.662
15891DG     BB2 3236  77.318  24.009  67.324
15891DG     BB3 3237  77.200  24.168  67.307
15891DG     SC1 3238  76.945  24.018  67.383
15891DG     SC2 3239  76.713  23.963  67.202
15891DG     SC3 3240  76.649  23.888  67.481
15891DG     SC4 3241  76.904  24.007  67.537
15892DC     BB1 3242  77.220  24.402  67.161
15892DC     BB2 3243  77.002  24.303  66.891
15892DC     BB3 3244  76.836  24.426  66.886
15892DC     SC1 3245  76.732  24.308  67.096
15892DC     SC2 3246  76.559  24.195  67.036
15892DC     SC3 3247  76.639  24.272  67.340
15893DT     BB1 3248  76.928  24.542  66.657
15893DT     BB2 3249  76.613  24.391  66.566
15893DT     BB3 3250  76.459  24.525  66.598
15893DT     SC1 3251  76.471  24.490  66.857
15893DT     SC2 3252  76.296  24.386  66.924
15893DT     SC3 3253  76.507  24.543  67.113
15894DC     BB1 3254  76.453  24.513  66.338
15894DC     BB2 3255  76.128  24.402  66.449
15894DC     BB3 3256  76.009  24.565  66.494
15894DC     SC1 3257  76.139  24.609  66.717
15894DC     SC2 3258  76.012  24.564  66.885
15894DC     SC3 3259  76.290  24.730  66.897
15895DC     BB1 3260  75.888  24.470  66.286
15895DC     BB2 3261  75.640  24.477  66.548
15895DC     BB3 3262  75.568  24.670  66.572
15895DC     SC1 3263  75.789  24.746  66.693
15895DC     SC2 3264  75.747  24.783  66.900
15895DC     SC3 3265  76.014  24.875  66.740
15896DT     BB1 3266  75.350  24.567  66.470
15896DT     BB2 3267  75.246  24.717  66.781
15896DT     BB3 3268  75.220  24.921  66.756
15896DT     SC1 3269  75.479  24.962  66.750
15896DT     SC2 3270  75.538  25.067  66.928
15896DT     SC3 3271  75.717  25.030  66.661
15897DA     BB1 3272  74.858  24.789  66.927
15897DA     BB2 3273  74.959  25.093  67.105
15897DA     BB3 3274  74.925  25.265  66.984
15897DA     SC1 3275  75.209  25.261  66.856
15897DA     SC2 3276  75.417  25.397  66.865
15897DA     SC3 3277  75.477  25.284  66.642
15897DA     SC4 3278  75.227  25.180  66.718
15898DT     BB1 3279  74.760  25.441  67.008
15898DT     BB2 3280  74.987  25.700  67.114
15898DT     BB3 3281  75.002  25.846  66.968
15898DT     SC1 3282  75.151  25.691  66.818
15898DT     SC2 3283  75.351  25.769  66.811
15898DT     SC3 3284  75.228  25.544  66.612
15899DA     BB1 3285  74.870  26.110  67.276
15899DA     BB2 3286  75.167  26.267  67.129
15899DA     BB3 3287  75.115  26.373  66.951
15899DA     SC1 3288  75.164  26.130  66.763
15899DA     SC2 3289  75.327  26.063  66.587
15899DA     SC3 3290  75.146  25.898  66.510
15899DA     SC4 3291  75.038  26.036  66.729
15900DA     BB1 3292  75.238  26.668  67.068
15900DA     BB2 3293  75.494  26.650  66.807
15900DA     BB3 3294  75.423  26.738  66.626
15900DA     SC1 3295  75.306  26.472  66.514
15900DA     SC2 3296  75.357  26.312  66.329
15900DA     SC3 3297  75.114  26.235  66.357
15900DA     SC4 3298  75.152  26.439  66.545
15901DA     BB1 3299  75.691  26.917  66.656
15901DA     BB2 3300  75.811  26.752  66.352
15901DA     BB3 3301  75.727  26.844  66.179
15901DA     SC1 3302  75.479  26.656  66.169
15901DA     SC2 3303  75.392  26.473  66.024
15901DA     SC3 3304  75.164  26.525  66.130
15901DA     SC4 3305  75.346  26.705  66.245
15902DG     BB1 3306  76.029  26.855  66.163
15902DG     BB2 3307  75.965  26.627  65.889
15902DG     BB3 3308  75.895  26.727  65.732
15902DG     SC1 3309  75.601  26.699  65.814
15902DG     SC2 3310  75.392  26.543  65.669
15902DG     SC3 3311  75.271  26.706  65.884
15902DG     SC4 3312  75.537  26.810  65.910
15903DG     BB1 3313  76.146  26.558  65.627
15903DG     BB2 3314  75.904  26.400  65.409
15903DG     BB3 3315  75.849  26.527  65.266
15903DG     SC1 3316  75.617  26.645  65.426
15903DG     SC2 3317  75.327  26.617  65.361
15903DG     SC3 3318  75.367  26.812  65.580
15903DG     SC4 3319  75.644  26.771  65.522
15904DT     BB1 3320  75.890  26.449  65.096
15904DT     BB2 3321  75.565  26.371  64.961
15904DT     BB3 3322  75.497  26.528  64.845
15904DT     SC1 3323  75.443  26.673  65.057
15904DT     SC2 3324  75.230  26.693  65.078
15904DT     SC3 3325  75.454  26.869  65.233
15905DC     BB1 3326  75.539  26.368  64.637
15905DC     BB2 3327  75.193  26.469  64.608
15905DC     BB3 3328  75.182  26.654  64.515
15905DC     SC1 3329  75.265  26.777  64.732
15905DC     SC2 3330  75.103  26.891  64.816
15905DC     SC3 3331  75.416  26.921  64.893
15906DA     BB1 3332  74.925  26.407  64.293
15906DA     BB2 3333  74.744  26.717  64.365
15906DA     BB3 3334  74.816  26.875  64.242
15906DA     SC1 3335  75.031  26.968  64.446
15906DA     SC2 3336  75.072  27.164  64.596
15906DA     SC3 3337  75.317  27.087  64.596
15906DA     SC4 3338  75.179  26.906  64.433
15907DA     BB1 3339  74.501  26.911  64.149
15907DA     BB2 3340  74.513  27.249  64.291
15907DA     BB3 3341  74.612  27.382  64.157
15907DA     SC1 3342  74.895  27.333  64.278
15907DA     SC2 3343  75.062  27.460  64.413
15907DA     SC3 3344  75.232  27.289  64.326
15907DA     SC4 3345  74.985  27.218  64.213
15908DT     BB1 3346  74.506  27.534  64.068
15908DT     BB2 3347  74.640  27.800  64.272
15908DT     BB3 3348  74.772  27.914  64.161
15908DT     SC1 3349  74.956  27.728  64.173
15908DT     SC2 3350  75.118  27.795  64.297
15908DT     SC3 3351  75.127  27.542  64.095
15909DA     BB1 3352  74.493  28.150  64.363
15909DA     BB2 3353  74.828  28.284  64.429
15909DA     BB3 3354  74.907  28.376  64.253
15909DA     SC1 3355  75.044  28.117  64.150
15909DA     SC2 3356  75.276  28.030  64.120
15909DA     SC3 3357  75.171  27.864  63.955
15909DA     SC4 3358  74.960  28.023  64.049
15910DA     BB1 3359  74.938  28.576  64.509
15910DA     BB2 3360  75.297  28.572  64.431
15910DA     BB3 3361  75.333  28.666  64.243
15910DA     SC1 3362  75.306  28.403  64.078
15910DA     SC2 3363  75.454  28.251  63.948
15910DA     SC3 3364  75.239  28.169  63.836
15910DA     SC4 3365  75.161  28.367  64.019
15911DA     BB1 3366  75.541  28.793  64.464
15911DA     BB2 3367  75.806  28.693  64.229
15911DA     BB3 3368  75.790  28.806  64.049
15911DA     SC1 3369  75.604  28.599  63.908
15911DA     SC2 3370  75.619  28.436  63.720
15911DA     SC3 3371  75.363  28.447  63.717
15911DA     SC4 3372  75.446  28.621  63.921
15912DT     BB1 3373  75.934  28.908  64.031
15912DT     BB2 3374  76.083  28.739  63.749
15912DT     BB3 3375  76.022  28.829  63.573
15912DT     SC1 3376  75.784  28.721  63.591
15912DT     SC2 3377  75.761  28.573  63.437
15912DT     SC3 3378  75.522  28.701  63.614
15913DA     BB1 3379  76.443  28.829  63.545
15913DA     BB2 3380  76.311  28.708  63.225
15913DA     BB3 3381  76.228  28.870  63.114
15913DA     SC1 3382  75.942  28.835  63.231
15913DA     SC2 3383  75.718  28.760  63.152
15913DA     SC3 3384  75.626  28.887  63.355
15913DA     SC4 3385  75.904  28.921  63.362
15914DT     BB1 3386  76.312  28.953  62.925
15914DT     BB2 3387  76.063  28.812  62.705
15914DT     BB3 3388  75.940  28.962  62.633
15914DT     SC1 3389  75.815  28.980  62.863
15914DT     SC2 3390  75.614  28.905  62.842
15914DT     SC3 3391  75.726  29.081  63.090
15915DA     BB1 3392  76.078  28.767  62.288
15915DA     BB2 3393  75.713  28.788  62.264
15915DA     BB3 3394  75.653  28.987  62.215
15915DA     SC1 3395  75.627  29.078  62.511
15915DA     SC2 3396  75.445  29.140  62.670
15915DA     SC3 3397  75.630  29.258  62.804
15915DA     SC4 3398  75.756  29.146  62.579
15916DC     BB1 3399  75.565  29.012  62.040
15916DC     BB2 3400  75.230  29.048  62.169
15916DC     BB3 3401  75.174  29.247  62.165
15916DC     SC1 3402  75.326  29.303  62.372
15916DC     SC2 3403  75.202  29.348  62.542
15916DC     SC3 3404  75.519  29.409  62.516
15917DT     BB1 3405  75.010  29.167  61.977
15917DT     BB2 3406  74.800  29.311  62.232
15917DT     BB3 3407  74.797  29.517  62.213
15917DT     SC1 3408  75.039  29.538  62.313
15917DT     SC2 3409  75.028  29.629  62.507
15917DT     SC3 3410  75.297  29.591  62.330
15918DA     BB1 3411  74.411  29.351  62.255
15918DA     BB2 3412  74.443  29.635  62.484
15918DA     BB3 3413  74.457  29.818  62.375
15918DA     SC1 3414  74.767  29.813  62.357
15918DA     SC2 3415  74.960  29.940  62.451
15918DA     SC3 3416  75.093  29.843  62.255
15918DA     SC4 3417  74.833  29.744  62.227
15919DA     BB1 3418  74.214  29.878  62.591
15919DA     BB2 3419  74.421  30.158  62.707
15919DA     BB3 3420  74.428  30.311  62.558
15919DA     SC1 3421  74.682  30.197  62.419
15919DA     SC2 3422  74.922  30.261  62.392
15919DA     SC3 3423  74.920  30.101  62.190
15919DA     SC4 3424  74.660  30.095  62.296
15920DA     BB1 3425  74.321  30.515  62.801
15920DA     BB2 3426  74.627  30.711  62.749
15920DA     BB3 3427  74.611  30.828  62.571
15920DA     SC1 3428  74.734  30.609  62.387
15920DA     SC2 3429  74.945  30.574  62.258
15920DA     SC3 3430  74.810  30.401  62.125
15920DA     SC4 3431  74.633  30.507  62.315
15921DT     BB1 3432  74.590  31.066  62.547
15921DT     BB2 3433  74.926  31.125  62.429
15921DT     BB3 3434  74.922  31.183  62.230
15921DT     SC1 3435  74.870  30.938  62.151
15921DT     SC2 3436  75.041  30.858  62.048
15921DT     SC3 3437  74.742  30.733  62.045
15922DA     BB1 3438  75.126  31.528  62.374
15922DA     BB2 3439  75.324  31.402  62.093
15922DA     BB3 3440  75.241  31.467  61.908
15922DA     SC1 3441  75.057  31.219  61.874
15922DA     SC2 3442  75.042  31.019  61.726
15922DA     SC3 3443  74.797  31.006  61.801
15922DA     SC4 3444  74.907  31.229  61.932
15923DC     BB1 3445  75.334  31.623  61.746
15923DC     BB2 3446  75.440  31.368  61.515
15923DC     BB3 3447  75.333  31.382  61.339
15923DC     SC1 3448  75.119  31.280  61.451
15923DC     SC2 3449  75.083  31.083  61.371
15923DC     SC3 3450  74.873  31.259  61.544
15924DT     BB1 3451  75.548  31.483  61.193
15924DT     BB2 3452  75.460  31.177  61.024
15924DT     BB3 3453  75.321  31.216  60.876
15924DT     SC1 3454  75.129  31.247  61.053
15924DT     SC2 3455  74.991  31.083  61.037
15924DT     SC3 3456  74.939  31.362  61.195
15925DC     BB1 3457  75.514  31.164  60.696
15925DC     BB2 3458  75.255  30.922  60.629
15925DC     BB3 3459  75.113  31.004  60.501
15925DC     SC1 3460  75.013  31.151  60.694
15925DC     SC2 3461  74.817  31.077  60.745
15925DC     SC3 3462  74.941  31.364  60.832
15926DT     BB1 3463  75.214  30.828  60.335
15926DT     BB2 3464  74.864  30.745  60.366
15926DT     BB3 3465  74.751  30.867  60.243
15926DT     SC1 3466  74.781  31.071  60.406
15926DT     SC2 3467  74.593  31.116  60.500
15926DT     SC3 3468  74.853  31.308  60.496
15927DT     BB1 3469  74.717  30.641  60.120
15927DT     BB2 3470  74.386  30.756  60.208
15927DT     BB3 3471  74.323  30.900  60.073
15927DT     SC1 3472  74.482  31.080  60.179
15927DT     SC2 3473  74.364  31.229  60.280
15927DT     SC3 3474  74.677  31.256  60.202
15928DT     BB1 3475  74.158  30.709  60.007
15928DT     BB2 3476  73.951  30.991  60.094
15928DT     BB3 3477  73.942  31.125  59.936
15928DT     SC1 3478  74.186  31.209  59.984
15928DT     SC2 3479  74.178  31.411  60.058
15928DT     SC3 3480  74.443  31.259  59.950
15929DC     BB1 3481  73.694  31.043  59.919
15929DC     BB2 3482  73.673  31.401  59.954
15929DC     BB3 3483  73.706  31.492  59.771
15929DC     SC1 3484  73.964  31.443  59.784
15929DC     SC2 3485  74.070  31.628  59.812
15929DC     SC3 3486  74.201  31.344  59.724
15930DT     BB1 3487  73.448  31.553  59.773
15930DT     BB2 3488  73.616  31.869  59.729
15930DT     BB3 3489  73.663  31.896  59.529
15930DT     SC1 3490  73.859  31.723  59.542
15930DT     SC2 3491  74.047  31.826  59.524
15930DT     SC3 3492  74.002  31.506  59.496
15931DT     BB1 3493  73.467  32.085  59.506
15931DT     BB2 3494  73.765  32.252  59.389
15931DT     BB3 3495  73.792  32.215  59.187
15931DT     SC1 3496  73.873  31.970  59.235
15931DT     SC2 3497  74.083  31.954  59.191
15931DT     SC3 3498  73.880  31.706  59.236
15932DA     BB1 3499  73.797  32.635  59.198
15932DA     BB2 3500  74.085  32.531  58.995
15932DA     BB3 3501  74.021  32.473  58.800
15932DA     SC1 3502  73.981  32.174  58.877
15932DA     SC2 3503  74.090  31.955  58.827
15932DA     SC3 3504  73.868  31.851  58.902
15932DA     SC4 3505  73.835  32.128  58.926
15933DT     BB1 3506  74.062  32.584  58.599
15933DT     BB2 3507  74.309  32.353  58.474
15933DT     BB3 3508  74.234  32.252  58.310
15933DT     SC1 3509  74.080  32.103  58.461
15933DT     SC2 3510  74.153  31.900  58.460
15933DT     SC3 3511  73.862  31.997  58.566
15934DT     BB1 3512  74.387  32.391  58.111
15934DT     BB2 3513  74.472  32.044  58.057
15934DT     BB3 3514  74.348  31.962  57.913
15934DT     SC1 3515  74.147  31.951  58.082
15934DT     SC2 3516  74.106  31.745  58.130
15934DT     SC3 3517  73.912  31.998  58.192
15935DA     BB1 3518  74.738  31.882  57.788
15935DA     BB2 3519  74.551  31.567  57.776
15935DA     BB3 3520  74.421  31.564  57.607
15935DA     SC1 3521  74.179  31.687  57.759
15935DA     SC2 3522  73.955  31.614  57.840
15935DA     SC3 3523  73.898  31.864  57.846
15935DA     SC4 3524  74.163  31.847  57.754
15936DG     BB1 3525  74.591  31.316  57.540
15936DG     BB2 3526  74.276  31.144  57.581
15936DG     BB3 3527  74.168  31.160  57.415
15936DG     SC1 3528  74.029  31.419  57.500
15936DG     SC2 3529  73.739  31.451  57.561
15936DG     SC3 3530  73.874  31.714  57.551
15936DG     SC4 3531  74.098  31.559  57.464
15937DA     BB1 3532  74.141  30.818  57.451
15937DA     BB2 3533  73.775  30.848  57.457
15937DA     BB3 3534  73.702  30.890  57.261
15937DA     SC1 3535  73.715  31.199  57.296
15937DA     SC2 3536  73.555  31.389  57.318
15937DA     SC3 3537  73.753  31.536  57.247
15937DA     SC4 3538  73.849  31.273  57.249
15938DA     BB1 3539  73.517  30.628  57.336
15938DA     BB2 3540  73.224  30.842  57.282
15938DA     BB3 3541  73.196  30.879  57.074
15938DA     SC1 3542  73.370  31.137  57.071
15938DA     SC2 3543  73.336  31.382  57.044
15938DA     SC3 3544  73.585  31.390  56.985
15938DA     SC4 3545  73.526  31.121  57.036
15939DT     BB1 3546  73.029  30.798  56.960
15939DT     BB2 3547  72.849  31.107  56.912
15939DT     BB3 3548  72.865  31.169  56.715
15939DT     SC1 3549  73.113  31.247  56.752
15939DT     SC2 3550  73.122  31.461  56.742
15939DT     SC3 3551  73.375  31.259  56.727
15940DT     BB1 3552  72.599  31.092  56.614
15940DT     BB2 3553  72.621  31.440  56.521
15940DT     BB3 3554  72.691  31.457  56.327
15940DT     SC1 3555  72.935  31.397  56.402
15940DT     SC2 3556  73.060  31.572  56.384
15940DT     SC3 3557  73.163  31.267  56.422
15941DC     BB1 3558  72.440  31.519  56.169
15941DC     BB2 3559  72.659  31.791  56.079
15941DC     BB3 3560  72.753  31.750  55.899
15941DC     SC1 3561  72.913  31.577  56.014
15941DC     SC2 3562  73.114  31.656  56.016
15941DC     SC3 3563  73.030  31.348  56.073
15942DC     BB1 3564  72.602  31.929  55.729
15942DC     BB2 3565  72.944  32.035  55.683
15942DC     BB3 3566  73.026  31.939  55.519
15942DC     SC1 3567  73.049  31.714  55.653
15942DC     SC2 3568  73.257  31.673  55.689
15942DC     SC3 3569  73.013  31.463  55.723
15943DA     BB1 3570  73.091  32.346  55.439
15943DA     BB2 3571  73.413  32.175  55.400
15943DA     BB3 3572  73.419  32.069  55.215
15943DA     SC1 3573  73.306  31.805  55.333
15943DA     SC2 3574  73.389  31.575  55.383
15943DA     SC3 3575  73.141  31.508  55.382
15943DA     SC4 3576  73.147  31.783  55.327
15944DA     BB1 3577  73.693  32.245  55.171
15944DA     BB2 3578  73.875  31.927  55.168
15944DA     BB3 3579  73.853  31.831  54.979
15944DA     SC1 3580  73.599  31.671  55.062
15944DA     SC2 3581  73.536  31.434  55.108
15944DA     SC3 3582  73.295  31.511  55.067
15944DA     SC4 3583  73.456  31.738  55.032
15945DA     BB1 3584  74.178  31.833  55.000
15945DA     BB2 3585  74.160  31.467  54.999
15945DA     BB3 3586  74.123  31.395  54.801
15945DA     SC1 3587  73.813  31.398  54.833
15945DA     SC2 3588  73.628  31.232  54.850
15945DA     SC3 3589  73.475  31.426  54.781
15945DA     SC4 3590  73.735  31.531  54.787
15946DC     BB1 3591  74.267  31.289  54.720
15946DC     BB2 3592  74.106  30.969  54.761
15946DC     BB3 3593  74.031  30.903  54.580
15946DC     SC1 3594  73.833  31.074  54.591
15946DC     SC2 3595  73.648  30.967  54.622
15946DC     SC3 3596  73.675  31.276  54.529
15947DA     BB1 3597  74.258  30.610  54.774
15947DA     BB2 3598  73.937  30.464  54.676
15947DA     BB3 3599  73.928  30.440  54.464
15947DA     SC1 3600  73.802  30.720  54.413
15947DA     SC2 3601  73.583  30.813  54.339
15947DA     SC3 3602  73.716  31.025  54.282
15947DA     SC4 3603  73.903  30.842  54.383
15948DT     BB1 3604  73.913  30.271  54.441
15948DT     BB2 3605  73.566  30.270  54.344
15948DT     BB3 3606  73.550  30.275  54.138
15948DT     SC1 3607  73.615  30.529  54.131
15948DT     SC2 3608  73.444  30.646  54.074
15948DT     SC3 3609  73.751  30.749  54.079
15949DT     BB1 3610  73.456  30.051  54.211
15949DT     BB2 3611  73.193  30.218  54.030
15949DT     BB3 3612  73.234  30.216  53.827
15949DT     SC1 3613  73.418  30.401  53.854
15949DT     SC2 3614  73.349  30.583  53.763
15949DT     SC3 3615  73.654  30.518  53.853
15950DA     BB1 3616  72.834  30.133  53.958
15950DA     BB2 3617  72.827  30.357  53.667
15950DA     BB3 3618  72.910  30.260  53.497
15950DA     SC1 3619  73.200  30.360  53.551
15950DA     SC2 3620  73.363  30.519  53.449
15950DA     SC3 3621  73.541  30.388  53.578
15950DA     SC4 3622  73.296  30.265  53.638
15951DG     BB1 3623  72.626  30.358  53.419
15951DG     BB2 3624  72.812  30.527  53.159
15951DG     BB3 3625  72.884  30.394  53.030
15951DG     SC1 3626  73.147  30.353  53.181
15951DG     SC2 3627  73.419  30.432  53.085
15951DG     SC3 3628  73.437  30.270  53.332
15951DG     SC4 3629  73.154  30.242  53.296
15952DT     BB1 3630  72.818  30.392  52.825
15952DT     BB2 3631  73.111  30.492  52.640
15952DT     BB3 3632  73.208  30.325  52.565
15952DT     SC1 3633  73.303  30.264  52.802
15952DT     SC2 3634  73.515  30.296  52.804
15952DT     SC3 3635  73.346  30.131  53.025
15953DG     BB1 3636  73.116  30.507  52.204
15953DG     BB2 3637  73.464  30.408  52.208
15953DG     BB3 3638  73.481  30.216  52.160
15953DG     SC1 3639  73.457  30.117  52.449
15953DG     SC2 3640  73.672  29.983  52.607
15953DG     SC3 3641  73.414  29.972  52.751
15953DG     SC4 3642  73.311  30.087  52.509
15954DA     BB1 3643  73.710  30.250  51.882
15954DA     BB2 3644  73.964  30.046  52.052
15954DA     BB3 3645  73.927  29.839  52.019
15954DA     SC1 3646  73.748  29.806  52.271
15954DA     SC2 3647  73.761  29.693  52.493
15954DA     SC3 3648  73.505  29.712  52.496
15954DA     SC4 3649  73.589  29.825  52.253
15955DA     BB1 3650  74.236  29.808  51.896
15955DA     BB2 3651  74.311  29.580  52.173
15955DA     BB3 3652  74.240  29.383  52.128
15955DA     SC1 3653  73.960  29.429  52.257
15955DA     SC2 3654  73.834  29.350  52.457
15955DA     SC3 3655  73.625  29.426  52.329
15955DA     SC4 3656  73.842  29.481  52.161
15956DT     BB1 3657  74.374  29.222  52.099
15956DT     BB2 3658  74.315  29.061  52.417
15956DT     BB3 3659  74.205  28.888  52.389
15956DT     SC1 3660  73.985  29.024  52.346
15956DT     SC2 3661  73.850  28.995  52.511
15956DT     SC3 3662  73.773  29.121  52.223
15957DA     BB1 3663  74.542  28.786  52.617
15957DA     BB2 3664  74.248  28.645  52.783
15957DA     BB3 3665  74.174  28.477  52.675
15957DA     SC1 3666  73.980  28.644  52.499
15957DA     SC2 3667  73.734  28.675  52.474
15957DA     SC3 3668  73.789  28.767  52.241
15957DA     SC4 3669  74.035  28.697  52.357
15958DT     BB1 3670  74.186  28.293  52.760
15958DT     BB2 3671  73.835  28.255  52.834
15958DT     BB3 3672  73.748  28.124  52.699
15958DT     SC1 3673  73.752  28.304  52.509
15958DT     SC2 3674  73.551  28.367  52.465
15958DT     SC3 3675  73.812  28.424  52.281
15959DA     BB1 3676  73.643  27.957  53.072
15959DA     BB2 3677  73.338  27.970  52.870
15959DA     BB3 3678  73.338  27.815  52.723
15959DA     SC1 3679  73.476  27.989  52.505
15959DA     SC2 3680  73.415  28.094  52.287
15959DA     SC3 3681  73.667  28.101  52.243
15959DA     SC4 3682  73.636  27.983  52.495
15960DC     BB1 3683  73.200  27.618  52.712
15960DC     BB2 3684  72.991  27.736  52.442
15960DC     BB3 3685  73.024  27.623  52.272
15960DC     SC1 3686  73.254  27.742  52.229
15960DC     SC2 3687  73.239  27.866  52.054
15960DC     SC3 3688  73.514  27.777  52.199
15961DC     BB1 3689  72.782  27.447  52.264
15961DC     BB2 3690  72.773  27.616  51.945
15961DC     BB3 3691  72.859  27.497  51.800
15961DC     SC1 3692  73.100  27.547  51.890
15961DC     SC2 3693  73.205  27.670  51.748
15961DC     SC3 3694  73.339  27.508  51.995
15962DT     BB1 3695  72.617  27.425  51.669
15962DT     BB2 3696  72.809  27.593  51.415
15962DT     BB3 3697  72.920  27.455  51.307
15962DT     SC1 3698  73.090  27.425  51.505
15962DT     SC2 3699  73.280  27.510  51.449
15962DT     SC3 3700  73.227  27.312  51.699
15963DC     BB1 3701  72.757  27.494  51.093
15963DC     BB2 3702  73.086  27.588  50.979
15963DC     BB3 3703  73.186  27.421  50.907
15963DC     SC1 3704  73.228  27.331  51.150
15963DC     SC2 3705  73.437  27.345  51.196
15963DC     SC3 3706  73.217  27.174  51.361
15964DA     BB1 3707  73.202  27.742  50.638
15964DA     BB2 3708  73.542  27.617  50.691
15964DA     BB3 3709  73.567  27.427  50.597
15964DA     SC1 3710  73.481  27.265  50.848
15964DA     SC2 3711  73.588  27.114  51.016
15964DA     SC3 3712  73.350  27.031  51.063
15964DA     SC4 3713  73.326  27.225  50.862
15965DT     BB1 3714  73.690  27.441  50.466
15965DT     BB2 3715  73.956  27.269  50.640
15965DT     BB3 3716  73.964  27.072  50.578
15965DT     SC1 3717  73.750  27.010  50.716
15965DT     SC2 3718  73.805  26.884  50.881
15965DT     SC3 3719  73.504  26.933  50.771
15966DC     BB1 3720  74.189  27.150  50.468
15966DC     BB2 3721  74.278  26.880  50.691
15966DC     BB3 3722  74.242  26.698  50.599
15966DC     SC1 3723  73.983  26.724  50.633
15966DC     SC2 3724  73.915  26.580  50.779
15966DC     SC3 3725  73.726  26.749  50.577
15967DA     BB1 3726  74.626  26.715  50.768
15967DA     BB2 3727  74.466  26.402  50.872
15967DA     BB3 3728  74.447  26.269  50.706
15967DA     SC1 3729  74.165  26.372  50.624
15967DA     SC2 3730  73.931  26.288  50.624
15967DA     SC3 3731  73.886  26.471  50.450
15967DA     SC4 3732  74.158  26.491  50.516
15968DT     BB1 3733  74.546  26.124  50.736
15968DT     BB2 3734  74.274  25.895  50.798
15968DT     BB3 3735  74.229  25.790  50.626
15968DT     SC1 3736  74.112  25.999  50.519
15968DT     SC2 3737  73.900  25.963  50.507
15968DT     SC3 3738  74.063  26.198  50.353
15969DC     BB1 3739  74.327  25.593  50.765
15969DC     BB2 3740  73.995  25.489  50.671
15969DC     BB3 3741  73.995  25.419  50.476
15969DC     SC1 3742  74.013  25.663  50.381
15969DC     SC2 3743  73.828  25.715  50.284
15969DC     SC3 3744  74.109  25.874  50.255
15970DA     BB1 3745  73.797  25.156  50.739
15970DA     BB2 3746  73.591  25.199  50.438
15970DA     BB3 3747  73.686  25.109  50.270
15970DA     SC1 3748  73.839  25.367  50.188
15970DA     SC2 3749  73.833  25.535  50.003
15970DA     SC3 3750  74.073  25.592  50.074
15970DA     SC4 3751  73.988  25.388  50.246
15971DA     BB1 3752  73.385  24.975  50.257
15971DA     BB2 3753  73.362  25.111  49.917
15971DA     BB3 3754  73.493  25.006  49.786
15971DA     SC1 3755  73.734  25.197  49.833
15971DA     SC2 3756  73.862  25.368  49.705
15971DA     SC3 3757  74.048  25.330  49.878
15971DA     SC4 3758  73.838  25.158  49.950
15972DT     BB1 3759  73.414  24.893  49.642
15972DT     BB2 3760  73.506  25.097  49.360
15972DT     BB3 3761  73.671  25.016  49.264
15972DT     SC1 3762  73.832  25.097  49.455
15972DT     SC2 3763  73.958  25.254  49.380
15972DT     SC3 3764  74.004  25.088  49.655
15973DT     BB1 3765  73.528  24.915  49.045
15973DT     BB2 3766  73.786  25.116  48.893
15973DT     BB3 3767  73.955  25.000  48.859
15973DT     SC1 3768  74.016  25.003  49.114
15973DT     SC2 3769  74.194  25.121  49.144
15973DT     SC3 3770  74.064  24.916  49.359
15974DT     BB1 3771  73.925  24.972  48.577
15974DT     BB2 3772  74.255  25.112  48.614
15974DT     BB3 3773  74.396  24.960  48.626
15974DT     SC1 3774  74.325  24.904  48.873
15974DT     SC2 3775  74.482  24.961  49.007
15974DT     SC3 3776  74.231  24.770  49.079
15975DA     BB1 3777  74.539  25.199  48.312
15975DA     BB2 3778  74.817  25.146  48.545
15975DA     BB3 3779  74.897  24.950  48.522
15975DA     SC1 3780  74.710  24.822  48.735
15975DA     SC2 3781  74.730  24.725  48.964
15975DA     SC3 3782  74.506  24.611  48.913
15975DA     SC4 3783  74.571  24.759  48.684
15976DC     BB1 3784  75.088  24.928  48.452
15976DC     BB2 3785  75.238  24.845  48.769
15976DC     BB3 3786  75.282  24.643  48.776
15976DC     SC1 3787  75.029  24.581  48.809
15976DC     SC2 3788  74.999  24.507  49.009
15976DC     SC3 3789  74.790  24.479  48.762
15977DA     BB1 3790  75.622  24.862  48.885
15977DA     BB2 3791  75.566  24.604  49.139
15977DA     BB3 3792  75.614  24.411  49.061
15977DA     SC1 3793  75.326  24.355  48.957
15977DA     SC2 3794  75.136  24.204  49.013
15977DA     SC3 3795  75.054  24.251  48.775
15977DA     SC4 3796  75.293  24.396  48.805
15978DA     BB1 3797  75.790  24.420  49.337
15978DA     BB2 3798  75.595  24.128  49.443
15978DA     BB3 3799  75.655  23.955  49.334
15978DA     SC1 3800  75.446  23.997  49.106
15978DA     SC2 3801  75.238  23.887  49.025
15978DA     SC3 3802  75.284  24.010  48.804
15978DA     SC4 3803  75.493  24.081  48.977
15979DA     BB1 3804  75.685  23.845  49.641
15979DA     BB2 3805  75.436  23.591  49.552
15979DA     BB3 3806  75.523  23.443  49.425
15979DA     SC1 3807  75.449  23.592  49.161
15979DA     SC2 3808  75.293  23.560  48.969
15979DA     SC3 3809  75.447  23.722  48.843
15979DA     SC4 3810  75.558  23.692  49.100
15980DT     BB1 3811  75.544  23.253  49.494
15980DT     BB2 3812  75.279  23.106  49.299
15980DT     BB3 3813  75.359  22.997  49.142
15980DT     SC1 3814  75.419  23.215  49.010
15980DT     SC2 3815  75.293  23.231  48.837
15980DT     SC3 3816  75.563  23.401  48.891
15981DT     BB1 3817  75.297  22.754  49.261
15981DT     BB2 3818  75.133  22.741  48.939
15981DT     BB3 3819  75.263  22.663  48.797
15981DT     SC1 3820  75.399  22.887  48.788
15981DT     SC2 3821  75.365  22.983  48.599
15981DT     SC3 3822  75.600  23.057  48.810
15982DA     BB1 3823  74.911  22.435  48.773
15982DA     BB2 3824  74.997  22.546  48.434
15982DA     BB3 3825  75.164  22.436  48.360
15982DA     SC1 3826  75.376  22.637  48.467
15982DA     SC2 3827  75.536  22.803  48.373
15982DA     SC3 3828  75.657  22.783  48.598
15982DA     SC4 3829  75.437  22.610  48.613
15983DT     BB1 3830  75.134  22.314  48.202
15983DT     BB2 3831  75.293  22.525  47.957
15983DT     BB3 3832  75.479  22.449  47.907
15983DT     SC1 3833  75.581  22.530  48.135
15983DT     SC2 3834  75.719  22.691  48.098
15983DT     SC3 3835  75.694  22.522  48.373
15984DA     BB1 3836  75.262  22.523  47.556
15984DA     BB2 3837  75.593  22.678  47.522
15984DA     BB3 3838  75.742  22.529  47.496
15984DA     SC1 3839  75.801  22.499  47.800
15984DA     SC2 3840  75.985  22.552  47.959
15984DA     SC3 3841  75.876  22.379  48.113
15984DA     SC4 3842  75.719  22.386  47.881
15985DC     BB1 3843  75.827  22.538  47.328
15985DC     BB2 3844  76.138  22.678  47.445
15985DC     BB3 3845  76.281  22.529  47.459
15985DC     SC1 3846  76.171  22.434  47.677
15985DC     SC2 3847  76.300  22.472  47.845
15985DC     SC3 3848  76.049  22.266  47.841
15986DG     BB1 3849  76.412  22.830  47.218
15986DG     BB2 3850  76.648  22.756  47.482
15986DG     BB3 3851  76.745  22.587  47.440
15986DG     SC1 3852  76.542  22.407  47.582
15986DG     SC2 3853  76.592  22.247  47.829
15986DG     SC3 3854  76.330  22.179  47.710
15986DG     SC4 3855  76.416  22.352  47.499
15987DA     BB1 3856  77.015  22.789  47.511
15987DA     BB2 3857  77.113  22.556  47.776
15987DA     BB3 3858  77.188  22.375  47.692
15987DA     SC1 3859  76.911  22.234  47.687
15987DA     SC2 3860  76.798  22.046  47.805
15987DA     SC3 3861  76.638  22.043  47.604
15987DA     SC4 3862  76.824  22.247  47.552
15988DA     BB1 3863  77.421  22.468  47.902
15988DA     BB2 3864  77.363  22.146  48.069
15988DA     BB3 3865  77.434  21.986  47.948
15988DA     SC1 3866  77.164  21.944  47.800
15988DA     SC2 3867  76.983  21.774  47.791
15988DA     SC3 3868  76.921  21.880  47.566
15988DA     SC4 3869  77.142  22.024  47.661
15989DT     BB1 3870  77.577  21.894  48.026
15989DT     BB2 3871  77.397  21.593  48.111
15989DT     BB3 3872  77.433  21.446  47.969
15989DT     SC1 3873  77.277  21.565  47.796
15989DT     SC2 3874  77.100  21.446  47.766
15989DT     SC3 3875  77.198  21.691  47.577
15990DA     BB1 3876  77.503  21.284  48.351
15990DA     BB2 3877  77.293  21.049  48.163
15990DA     BB3 3878  77.406  20.955  48.009
15990DA     SC1 3879  77.338  21.170  47.794
15990DA     SC2 3880  77.203  21.186  47.585
15990DA     SC3 3881  77.348  21.390  47.531
15990DA     SC4 3882  77.440  21.294  47.778
15991DG     BB1 3883  77.334  20.691  48.158
15991DG     BB2 3884  77.161  20.616  47.849
15991DG     BB3 3885  77.290  20.546  47.714
15991DG     SC1 3886  77.358  20.823  47.601
15991DG     SC2 3887  77.292  20.921  47.327
15991DG     SC3 3888  77.470  21.111  47.466
15991DG     SC4 3889  77.477  20.907  47.667
15992DA     BB1 3890  77.083  20.268  47.667
15992DA     BB2 3891  77.046  20.353  47.312
15992DA     BB3 3892  77.221  20.297  47.203
15992DA     SC1 3893  77.362  20.571  47.242
15992DA     SC2 3894  77.427  20.767  47.102
15992DA     SC3 3895  77.593  20.821  47.290
15992DA     SC4 3896  77.460  20.587  47.369
15993DT     BB1 3897  77.224  20.137  47.055
15993DT     BB2 3898  77.243  20.349  46.764
15993DT     BB3 3899  77.432  20.338  46.680
15993DT     SC1 3900  77.535  20.485  46.871
15993DT     SC2 3901  77.591  20.677  46.791
15993DT     SC3 3902  77.683  20.556  47.078
15994DC     BB1 3903  77.357  20.179  46.458
15994DC     BB2 3904  77.510  20.469  46.308
15994DC     BB3 3905  77.713  20.436  46.281
15994DC     SC1 3906  77.761  20.466  46.537
15994DC     SC2 3907  77.870  20.648  46.569
15994DC     SC3 3908  77.833  20.409  46.784
15995DC     BB1 3909  77.699  20.403  46.000
15995DC     BB2 3910  77.932  20.674  46.044
15995DC     BB3 3911  78.125  20.600  46.057
15995DC     SC1 3912  78.084  20.513  46.301
15995DC     SC2 3913  78.199  20.632  46.439
15995DC     SC3 3914  78.058  20.347  46.505
15996DT     BB1 3915  78.195  20.691  45.804
15996DT     BB2 3916  78.430  20.851  46.026
15996DT     BB3 3917  78.597  20.732  46.050
15996DT     SC1 3918  78.467  20.567  46.206
15996DT     SC2 3919  78.542  20.584  46.407
15996DT     SC3 3920  78.354  20.345  46.295
15997DC     BB1 3921  78.739  20.909  45.903
15997DC     BB2 3922  78.905  20.898  46.223
15997DC     BB3 3923  79.044  20.744  46.226
15997DC     SC1 3924  78.855  20.564  46.247
15997DC     SC2 3925  78.863  20.475  46.443
15997DC     SC3 3926  78.699  20.359  46.189
15998DG     BB1 3927  79.207  21.104  46.319
15998DG     BB2 3928  79.270  20.855  46.574
15998DG     BB3 3929  79.411  20.728  46.511
15998DG     SC1 3930  79.212  20.534  46.381
15998DG     SC2 3931  79.155  20.256  46.471
15998DG     SC3 3932  79.025  20.311  46.211
15998DG     SC4 3933  79.170  20.558  46.229
15999DC     BB1 3934  79.549  20.734  46.637
15999DC     BB2 3935  79.515  20.418  46.807
15999DC     BB3 3936  79.635  20.276  46.717
15999DC     SC1 3937  79.471  20.255  46.513
15999DC     SC2 3938  79.374  20.063  46.519
15999DC     SC3 3939  79.379  20.266  46.266
16000DT     BB1 3940  79.734  20.308  46.949
16000DT     BB2 3941  79.656  19.957  46.920
16000DT     BB3 3942  79.794  19.864  46.797
16000DT     SC1 3943  79.686  19.970  46.583
16000DT     SC2 3944  79.590  19.816  46.468
16000DT     SC3 3945  79.660  20.114  46.364
16001DA     BB1 3946  79.720  19.654  47.157
16001DA     BB2 3947  79.722  19.416  46.878
16001DA     BB3 3948  79.918  19.401  46.795
16001DA     SC1 3949  79.873  19.627  46.586
16001DA     SC2 3950  79.848  19.647  46.338
16001DA     SC3 3951  79.910  19.894  46.373
16001DA     SC4 3952  79.914  19.777  46.628
16002DA     BB1 3953  79.849  19.083  46.850
16002DA     BB2 3954  79.912  19.030  46.493
16002DA     BB3 3955  80.120  19.053  46.450
16002DA     SC1 3956  80.099  19.358  46.390
16002DA     SC2 3957  80.116  19.508  46.192
16002DA     SC3 3958  80.158  19.695  46.362
16002DA     SC4 3959  80.124  19.459  46.511
16003DT     BB1 3960  80.244  18.890  46.391
16003DT     BB2 3961  80.284  18.985  46.046
16003DT     BB3 3962  80.475  19.060  46.015
16003DT     SC1 3963  80.414  19.286  46.135
16003DT     SC2 3964  80.408  19.444  45.989
16003DT     SC3 3965  80.416  19.482  46.311
16004DC     BB1 3966  80.583  18.833  45.881
16004DC     BB2 3967  80.640  19.104  45.650
16004DC     BB3 3968  80.827  19.188  45.684
16004DC     SC1 3969  80.742  19.308  45.901
16004DC     SC2 3970  80.735  19.521  45.866
16004DC     SC3 3971  80.719  19.374  46.155
16005DA     BB1 3972  80.834  19.092  45.275
16005DA     BB2 3973  80.937  19.443  45.308
16005DA     BB3 3974  81.138  19.455  45.378
16005DA     SC1 3975  81.059  19.462  45.679
16005DA     SC2 3976  81.061  19.626  45.866
16005DA     SC3 3977  81.048  19.421  46.020
16005DA     SC4 3978  81.052  19.322  45.757
16006DT     BB1 3979  81.272  19.532  45.254
16006DT     BB2 3980  81.298  19.852  45.419
16006DT     BB3 3981  81.475  19.862  45.526
16006DT     SC1 3982  81.382  19.703  45.712
16006DT     SC2 3983  81.353  19.815  45.893
16006DT     SC3 3984  81.356  19.492  45.868
16007DT     BB1 3985  81.531  20.038  45.342
16007DT     BB2 3986  81.554  20.213  45.657
16007DT     BB3 3987  81.737  20.174  45.747
16007DT     SC1 3988  81.659  19.932  45.815
16007DT     SC2 3989  81.636  19.923  46.029
16007DT     SC3 3990  81.649  19.669  45.828
16008DA     BB1 3991  81.628  20.582  45.741
16008DA     BB2 3992  81.744  20.493  46.077
16008DA     BB3 3993  81.953  20.447  46.074
16008DA     SC1 3994  81.909  20.144  46.022
16008DA     SC2 3995  81.938  19.929  46.146
16008DA     SC3 3996  81.937  19.819  45.915
16008DA     SC4 3997  81.908  20.094  45.869
16009DA     BB1 3998  81.912  20.666  46.319
16009DA     BB2 3999  82.067  20.413  46.534
16009DA     BB3 4000  82.271  20.385  46.480
16009DA     SC1 4001  82.211  20.157  46.276
16009DA     SC2 4002  82.248  19.911  46.258
16009DA     SC3 4003  82.214  19.945  46.006
16009DA     SC4 4004  82.189  20.199  46.123
16010DG     BB1 4005  82.339  20.476  46.775
16010DG     BB2 4006  82.488  20.147  46.799
16010DG     BB3 4007  82.668  20.147  46.715
16010DG     SC1 4008  82.566  20.073  46.436
16010DG     SC2 4009  82.620  19.817  46.292
16010DG     SC3 4010  82.486  20.012  46.114
16010DG     SC4 4011  82.522  20.190  46.336
16011DA     BB1 4012  82.876  20.027  46.996
16011DA     BB2 4013  82.992  19.737  46.803
16011DA     BB3 4014  83.157  19.792  46.680
16011DA     SC1 4015  82.980  19.869  46.435
16011DA     SC2 4016  82.933  19.780  46.207
16011DA     SC3 4017  82.849  20.017  46.155
16011DA     SC4 4018  82.934  20.022  46.422
16012DT     BB1 4019  83.429  19.742  46.677
16012DT     BB2 4020  83.419  19.510  46.401
16012DT     BB3 4021  83.527  19.586  46.241
16012DT     SC1 4022  83.337  19.758  46.184
16012DT     SC2 4023  83.242  19.702  45.999
16012DT     SC3 4024  83.213  19.988  46.149
16013DA     BB1 4025  83.748  19.224  46.278
16013DA     BB2 4026  83.646  19.246  45.927
16013DA     BB3 4027  83.779  19.373  45.819
16013DA     SC1 4028  83.615  19.632  45.871
16013DA     SC2 4029  83.474  19.790  45.739
16013DA     SC3 4030  83.516  19.955  45.932
16013DA     SC4 4031  83.654  19.720  45.999
16014DA     BB1 4032  83.834  19.120  45.607
16014DA     BB2 4033  83.676  19.324  45.346
16014DA     BB3 4034  83.818  19.460  45.263
16014DA     SC1 4035  83.752  19.689  45.464
16014DA     SC2 4036  83.643  19.913  45.459
16014DA     SC3 4037  83.769  19.957  45.678
16014DA     SC4 4038  83.840  19.697  45.598
16015DG     BB1 4039  83.766  19.313  44.993
16015DG     BB2 4040  83.620  19.631  44.900
16015DG     BB3 4041  83.762  19.754  44.833
16015DG     SC1 4042  83.825  19.871  45.109
16015DG     SC2 4043  83.775  20.152  45.195
16015DG     SC3 4044  83.934  20.007  45.398
16015DG     SC4 4045  83.935  19.799  45.200
16016DG     BB1 4046  83.596  19.776  44.552
16016DG     BB2 4047  83.553  20.125  44.634
16016DG     BB3 4048  83.713  20.229  44.576
16016DG     SC1 4049  83.863  20.192  44.840
16016DG     SC2 4050  83.929  20.409  45.035
16016DG     SC3 4051  84.063  20.156  45.109
16016DG     SC4 4052  83.956  20.064  44.860
16017DC     BB1 4053  83.694  20.388  44.424
16017DC     BB2 4054  83.717  20.683  44.631
16017DC     BB3 4055  83.904  20.769  44.610
16017DC     SC1 4056  84.015  20.582  44.756
16017DC     SC2 4057  84.079  20.666  44.944
16017DC     SC3 4058  84.169  20.378  44.824
16018DT     BB1 4059  83.790  20.972  44.472
16018DT     BB2 4060  83.952  21.130  44.753
16018DT     BB3 4061  84.150  21.169  44.707
16018DT     SC1 4062  84.215  20.916  44.732
16018DT     SC2 4063  84.337  20.891  44.907
16018DT     SC3 4064  84.298  20.674  44.670
16019DA     BB1 4065  83.969  21.516  44.855
16019DA     BB2 4066  84.282  21.462  45.039
16019DA     BB3 4067  84.450  21.506  44.915
16019DA     SC1 4068  84.477  21.216  44.807
16019DA     SC2 4069  84.636  21.025  44.829
16019DA     SC3 4070  84.531  20.939  44.611
16019DA     SC4 4071  84.400  21.180  44.670
16020DG     BB1 4072  84.482  21.695  45.152
16020DG     BB2 4073  84.776  21.491  45.207
16020DG     BB3 4074  84.920  21.545  45.080
16020DG     SC1 4075  84.834  21.350  44.861
16020DG     SC2 4076  84.990  21.113  44.766
16020DG     SC3 4077  84.757  21.162  44.591
16020DG     SC4 4078  84.726  21.397  44.753
16021DG     BB1 4079  85.064  21.570  45.365
16021DG     BB2 4080  85.289  21.317  45.238
16021DG     BB3 4081  85.415  21.397  45.106
16021DG     SC1 4082  85.234  21.347  44.865
16021DG     SC2 4083  85.290  21.160  44.639
16021DG     SC3 4084  85.052  21.327  44.581
16021DG     SC4 4085  85.125  21.458  44.825
16022DC     BB1 4086  85.578  21.357  45.176
16022DC     BB2 4087  85.708  21.114  44.943
16022DC     BB3 4088  85.805  21.210  44.787
16022DC     SC1 4089  85.577  21.283  44.680
16022DC     SC2 4090  85.546  21.175  44.497
16022DC     SC3 4091  85.382  21.438  44.592
16023DT     BB1 4092  86.012  21.103  44.902
16023DT     BB2 4093  86.023  20.992  44.559
16023DT     BB3 4094  86.097  21.142  44.438
16023DT     SC1 4095  85.872  21.277  44.453
16023DT     SC2 4096  85.774  21.273  44.261
16023DT     SC3 4097  85.702  21.470  44.508
16024DT     BB1 4098  86.325  21.002  44.411
16024DT     BB2 4099  86.219  21.066  44.073
16024DT     BB3 4100  86.285  21.253  44.012
16024DT     SC1 4101  86.103  21.373  44.158
16024DT     SC2 4102  85.957  21.464  44.029
16024DT     SC3 4103  85.995  21.524  44.345
16025DA     BB1 4104  86.433  20.999  43.710
16025DA     BB2 4105  86.269  21.282  43.544
16025DA     BB3 4106  86.392  21.456  43.557
16025DA     SC1 4107  86.266  21.555  43.824
16025DA     SC2 4108  86.119  21.742  43.901
16025DA     SC3 4109  86.213  21.691  44.134
16025DA     SC4 4110  86.337  21.509  43.961
16026DA     BB1 4111  86.379  21.477  43.223
16026DA     BB2 4112  86.209  21.800  43.264
16026DA     BB3 4113  86.351  21.954  43.304
16026DA     SC1 4114  86.337  21.921  43.613
16026DA     SC2 4115  86.251  22.049  43.809
16026DA     SC3 4116  86.410  21.904  43.949
16026DA     SC4 4117  86.442  21.821  43.682
16027DG     BB1 4118  86.256  22.093  43.039
16027DG     BB2 4119  86.135  22.346  43.267
16027DG     BB3 4120  86.280  22.475  43.308
16027DG     SC1 4121  86.385  22.319  43.549
16027DG     SC2 4122  86.374  22.408  43.834
16027DG     SC3 4123  86.539  22.164  43.806
16027DG     SC4 4124  86.496  22.206  43.526
16028DA     BB1 4125  86.042  22.706  43.219
16028DA     BB2 4126  86.060  22.849  43.557
16028DA     BB3 4127  86.239  22.964  43.579
16028DA     SC1 4128  86.408  22.725  43.684
16028DA     SC2 4129  86.514  22.654  43.898
16028DA     SC3 4130  86.661  22.503  43.752
16028DA     SC4 4131  86.491  22.639  43.576
16029DT     BB1 4132  86.192  23.132  43.609
16029DT     BB2 4133  86.273  23.139  43.960
16029DT     BB3 4134  86.461  23.220  43.988
16029DT     SC1 4135  86.577  23.001  43.902
16029DT     SC2 4136  86.675  22.903  44.067
16029DT     SC3 4137  86.720  22.838  43.752
16030DT     BB1 4138  86.314  23.404  44.094
16030DT     BB2 4139  86.543  23.300  44.352
16030DT     BB3 4140  86.729  23.385  44.320
16030DT     SC1 4141  86.779  23.220  44.123
16030DT     SC2 4142  86.934  23.083  44.182
16030DT     SC3 4143  86.830  23.132  43.879
16031DG     BB1 4144  86.587  23.466  44.695
16031DG     BB2 4145  86.926  23.340  44.702
16031DG     BB3 4146  87.052  23.480  44.637
16031DG     SC1 4147  87.034  23.393  44.343
16031DG     SC2 4148  87.255  23.273  44.182
16031DG     SC3 4149  87.022  23.338  44.011
16031DG     SC4 4150  86.919  23.456  44.251
16032DT     BB1 4151  87.201  23.557  44.768
16032DT     BB2 4152  87.506  23.417  44.634
16032DT     BB3 4153  87.603  23.558  44.518
16032DT     SC1 4154  87.430  23.528  44.323
16032DT     SC2 4155  87.526  23.432  44.156
16032DT     SC3 4156  87.240  23.585  44.149
16033DT     BB1 4157  87.797  23.600  44.708
16033DT     BB2 4158  87.984  23.521  44.410
16033DT     BB3 4159  88.020  23.693  44.301
16033DT     SC1 4160  87.771  23.701  44.218
16033DT     SC2 4161  87.765  23.657  44.008
16033DT     SC3 4162  87.524  23.786  44.182
16034DT     BB1 4163  88.289  23.708  44.371
16034DT     BB2 4164  88.294  23.712  44.010
16034DT     BB3 4165  88.282  23.907  43.942
16034DT     SC1 4166  88.026  23.920  44.000
16034DT     SC2 4167  87.911  23.926  43.819
16034DT     SC3 4168  87.801  23.996  44.116
16035DA     BB1 4169  88.625  23.759  43.750
16035DA     BB2 4170  88.419  23.921  43.494
16035DA     BB3 4171  88.434  24.133  43.510
16035DA     SC1 4172  88.192  24.160  43.704
16035DA     SC2 4173  87.960  24.250  43.698
16035DA     SC3 4174  87.977  24.255  43.954
16035DA     SC4 4175  88.223  24.157  43.862
16036DA     BB1 4176  88.525  24.130  43.190
16036DA     BB2 4177  88.228  24.332  43.118
16036DA     BB3 4178  88.263  24.536  43.170
16036DA     SC1 4179  88.157  24.506  43.461
16036DA     SC2 4180  87.961  24.581  43.594
16036DA     SC3 4181  88.107  24.531  43.799
16036DA     SC4 4182  88.264  24.470  43.575
16037DC     BB1 4183  88.279  24.705  43.023
16037DC     BB2 4184  87.956  24.851  43.093
16037DC     BB3 4185  87.980  25.031  43.192
16037DC     SC1 4186  88.043  24.909  43.415
16037DC     SC2 4187  87.885  24.936  43.558
16037DC     SC3 4188  88.184  24.830  43.624
16038DT     BB1 4189  87.918  25.203  42.972
16038DT     BB2 4190  87.683  25.303  43.227
16038DT     BB3 4191  87.762  25.458  43.339
16038DT     SC1 4192  87.925  25.296  43.464
16038DT     SC2 4193  87.863  25.277  43.670
16038DT     SC3 4194  88.149  25.185  43.548
16039DC     BB1 4195  87.602  25.671  43.229
16039DC     BB2 4196  87.533  25.685  43.583
16039DC     BB3 4197  87.662  25.818  43.675
16039DC     SC1 4198  87.862  25.649  43.657
16039DC     SC2 4199  87.913  25.578  43.854
16039DC     SC3 4200  88.095  25.546  43.587
16040DA     BB1 4201  87.282  25.954  43.789
16040DA     BB2 4202  87.480  25.912  44.095
16040DA     BB3 4203  87.616  26.075  44.118
16040DA     SC1 4204  87.848  25.937  43.963
16040DA     SC2 4205  88.071  25.839  44.015
16040DA     SC3 4206  88.119  25.870  43.764
16040DA     SC4 4207  87.859  25.966  43.806
16041DA     BB1 4208  87.464  26.086  44.404
16041DA     BB2 4209  87.788  26.002  44.554
16041DA     BB3 4210  87.914  26.174  44.560
16041DA     SC1 4211  88.042  26.121  44.282
16041DA     SC2 4212  88.264  26.052  44.191
16041DA     SC3 4213  88.182  26.153  43.970
16041DA     SC4 4214  87.973  26.190  44.154
16042DT     BB1 4215  87.954  26.225  44.737
16042DT     BB2 4216  88.291  26.096  44.738
16042DT     BB3 4217  88.426  26.251  44.714
16042DT     SC1 4218  88.369  26.274  44.459
16042DT     SC2 4219  88.537  26.208  44.342
16042DT     SC3 4220  88.283  26.377  44.232
16043DA     BB1 4221  88.523  25.995  45.031
16043DA     BB2 4222  88.822  26.042  44.823
16043DA     BB3 4223  88.897  26.241  44.846
16043DA     SC1 4224  88.730  26.357  44.611
16043DA     SC2 4225  88.771  26.446  44.381
16043DA     SC3 4226  88.541  26.558  44.406
16043DA     SC4 4227  88.586  26.420  44.646
16044DG     BB1 4228  89.131  26.063  44.929
16044DG     BB2 4229  89.285  26.217  44.640
16044DG     BB3 4230  89.342  26.402  44.685
16044DG     SC1 4231  89.077  26.531  44.604
16044DG     SC2 4232  89.035  26.717  44.373
16044DG     SC3 4233  88.793  26.703  44.543
16044DG     SC4 4234  88.960  26.544  44.713
16045DT     BB1 4235  89.543  26.436  44.666
16045DT     BB2 4236  89.559  26.639  44.369
16045DT     BB3 4237  89.575  26.839  44.420
16045DT     SC1 4238  89.322  26.850  44.489
16045DT     SC2 4239  89.215  26.971  44.347
16045DT     SC3 4240  89.106  26.878  44.638
16046DT     BB1 4241  89.823  26.820  44.329
16046DT     BB2 4242  89.674  27.088  44.139
16046DT     BB3 4243  89.685  27.265  44.246
16046DT     SC1 4244  89.492  27.188  44.408
16046DT     SC2 4245  89.317  27.308  44.371
16046DT     SC3 4246  89.367  27.118  44.629
16047DT     BB1 4247  89.860  27.334  44.063
16047DT     BB2 4248  89.609  27.592  44.054
16047DT     BB3 4249  89.646  27.731  44.204
16047DT     SC1 4250  89.559  27.567  44.389
16047DT     SC2 4251  89.373  27.640  44.468
16047DT     SC3 4252  89.558  27.410  44.601
16048DA     BB1 4253  89.582  27.924  43.836
16048DA     BB2 4254  89.387  28.099  44.092
16048DA     BB3 4255  89.516  28.204  44.225
16048DA     SC1 4256  89.544  27.968  44.425
16048DA     SC2 4257  89.471  27.912  44.657
16048DA     SC3 4258  89.660  27.739  44.653
16048DA     SC4 4259  89.668  27.867  44.404
16049DC     BB1 4260  89.497  28.390  44.216
16049DC     BB2 4261  89.344  28.446  44.538
16049DC     BB3 4262  89.487  28.508  44.674
16049DC     SC1 4263  89.585  28.265  44.693
16049DC     SC2 4264  89.540  28.185  44.888
16049DC     SC3 4265  89.755  28.064  44.677
16050DA     BB1 4266  89.186  28.803  44.704
16050DA     BB2 4267  89.288  28.718  45.046
16050DA     BB3 4268  89.480  28.801  45.089
16050DA     SC1 4269  89.637  28.550  44.993
16050DA     SC2 4270  89.774  28.368  45.094
16050DA     SC3 4271  89.869  28.336  44.859
16050DA     SC4 4272  89.685  28.547  44.840
16051DT     BB1 4273  89.547  28.990  45.234
16051DT     BB2 4274  89.712  28.799  45.493
16051DT     BB3 4275  89.916  28.837  45.489
16051DT     SC1 4276  89.947  28.690  45.274
16051DT     SC2 4277  90.055  28.511  45.324
16051DT     SC3 4278  90.002  28.623  45.025
16052DA     BB1 4279  89.871  28.968  45.894
16052DA     BB2 4280  90.158  28.741  45.894
16052DA     BB3 4281  90.334  28.843  45.829
16052DA     SC1 4282  90.293  28.772  45.529
16052DA     SC2 4283  90.401  28.627  45.357
16052DA     SC3 4284  90.282  28.776  45.185
16052DA     SC4 4285  90.211  28.876  45.438
16053DT     BB1 4286  90.542  28.911  45.952
16053DT     BB2 4287  90.750  28.651  45.814
16053DT     BB3 4288  90.898  28.734  45.696
16053DT     SC1 4289  90.726  28.785  45.504
16053DT     SC2 4290  90.767  28.656  45.336
16053DT     SC3 4291  90.579  28.920  45.332
16054DA     BB1 4292  91.116  28.499  45.967
16054DA     BB2 4293  91.227  28.407  45.629
16054DA     BB3 4294  91.359  28.556  45.552
16054DA     SC1 4295  91.133  28.723  45.419
16054DA     SC2 4296  91.055  28.778  45.189
16054DA     SC3 4297  90.937  28.978  45.298
16054DA     SC4 4298  91.069  28.843  45.506
16055DA     BB1 4299  91.545  28.290  45.511
16055DA     BB2 4300  91.530  28.359  45.152
16055DA     BB3 4301  91.659  28.522  45.102
16055DA     SC1 4302  91.439  28.739  45.141
16055DA     SC2 4303  91.306  28.895  44.999
16055DA     SC3 4304  91.266  29.027  45.215
16055DA     SC4 4305  91.427  28.808  45.286
16056DG     BB1 4306  91.789  28.306  44.923
16056DG     BB2 4307  91.675  28.524  44.658
16056DG     BB3 4308  91.802  28.675  44.635
16056DG     SC1 4309  91.659  28.857  44.835
16056DG     SC2 4310  91.515  29.111  44.771
16056DG     SC3 4311  91.540  29.076  45.063
16056DG     SC4 4312  91.701  28.850  44.990
16057DT     BB1 4313  91.913  28.703  44.446
16057DT     BB2 4314  91.741  28.985  44.301
16057DT     BB3 4315  91.853  29.157  44.326
16057DT     SC1 4316  91.791  29.170  44.580
16057DT     SC2 4317  91.662  29.339  44.614
16057DT     SC3 4318  91.819  29.172  44.843
16058DG     BB1 4319  91.814  29.127  43.918
16058DG     BB2 4320  91.713  29.454  44.034
16058DG     BB3 4321  91.874  29.568  44.065
16058DG     SC1 4322  91.909  29.483  44.357
16058DG     SC2 4323  91.874  29.659  44.596
16058DG     SC3 4324  91.989  29.398  44.673
16058DG     SC4 4325  91.997  29.354  44.390
16059DT     BB1 4326  91.940  29.775  43.945
16059DT     BB2 4327  91.848  30.021  44.193
16059DT     BB3 4328  92.019  30.105  44.275
16059DT     SC1 4329  92.067  29.889  44.416
16059DT     SC2 4330  92.034  29.932  44.625
16059DT     SC3 4331  92.188  29.673  44.505
16060DT     BB1 4332  92.000  30.358  44.142
16060DT     BB2 4333  91.993  30.440  44.494
16060DT     BB3 4334  92.185  30.479  44.561
16060DT     SC1 4335  92.247  30.224  44.558
16060DT     SC2 4336  92.270  30.154  44.760
16060DT     SC3 4337  92.367  29.998  44.493
16061DT     BB1 4338  92.124  30.743  44.583
16061DT     BB2 4339  92.207  30.636  44.917
16061DT     BB3 4340  92.411  30.655  44.949
16061DT     SC1 4341  92.462  30.444  44.801
16061DT     SC2 4342  92.532  30.285  44.927
16061DT     SC3 4343  92.555  30.296  44.604
16062DA     BB1 4344  92.156  30.804  45.249
16062DA     BB2 4345  92.404  30.581  45.401
16062DA     BB3 4346  92.599  30.668  45.389
16062DA     SC1 4347  92.667  30.537  45.115
16062DA     SC2 4348  92.820  30.361  45.028
16062DA     SC3 4349  92.785  30.473  44.799
16062DA     SC4 4350  92.634  30.622  44.982
16063DA     BB1 4351  92.521  30.554  45.688
16063DA     BB2 4352  92.820  30.346  45.648
16063DA     BB3 4353  92.995  30.469  45.635
16063DA     SC1 4354  92.985  30.493  45.325
16063DA     SC2 4355  93.117  30.412  45.130
16063DA     SC3 4356  93.005  30.604  45.001
16063DA     SC4 4357  92.906  30.618  45.263
16064DT     BB1 4358  93.087  30.425  45.772
16064DT     BB2 4359  93.352  30.253  45.599
16064DT     BB3 4360  93.506  30.385  45.556
16064DT     SC1 4361  93.368  30.497  45.363
16064DT     SC2 4362  93.457  30.447  45.174
16064DT     SC3 4363  93.236  30.679  45.225
16065DG     BB1 4364  93.660  30.075  45.773
16065DG     BB2 4365  93.854  30.139  45.475
16065DG     BB3 4366  93.966  30.301  45.500
16065DG     SC1 4367  93.754  30.494  45.394
16065DG     SC2 4368  93.772  30.654  45.143
16065DG     SC3 4369  93.537  30.736  45.302
16065DG     SC4 4370  93.646  30.555  45.496
16066DT     BB1 4371  94.197  30.302  45.503
16066DT     BB2 4372  94.272  30.452  45.184
16066DT     BB3 4373  94.334  30.648  45.210
16066DT     SC1 4374  94.088  30.727  45.260
16066DT     SC2 4375  94.018  30.849  45.098
16066DT     SC3 4376  93.881  30.825  45.390
16067DT     BB1 4377  94.607  30.599  45.159
16067DT     BB2 4378  94.518  30.854  44.920
16067DT     BB3 4379  94.551  31.041  45.001
16067DT     SC1 4380  94.338  31.022  45.153
16067DT     SC2 4381  94.188  31.160  45.084
16067DT     SC3 4382  94.189  31.008  45.370
16068DC     BB1 4383  94.774  31.087  44.843
16068DC     BB2 4384  94.547  31.357  44.762
16068DC     BB3 4385  94.580  31.517  44.889
16068DC     SC1 4386  94.461  31.394  45.087
16068DC     SC2 4387  94.275  31.492  45.131
16068DC     SC3 4388  94.425  31.277  45.321
16069DT     BB1 4389  94.678  31.641  44.676
16069DT     BB2 4390  94.400  31.843  44.785
16069DT     BB3 4391  94.460  31.972  44.935
16069DT     SC1 4392  94.468  31.776  45.110
16069DT     SC2 4393  94.309  31.802  45.253
16069DT     SC3 4394  94.563  31.603  45.285
16070DA     BB1 4395  94.221  32.128  44.624
16070DA     BB2 4396  94.083  32.231  44.948
16070DA     BB3 4397  94.218  32.362  45.048
16070DA     SC1 4398  94.367  32.133  45.197
16070DA     SC2 4399  94.389  32.050  45.431
16070DA     SC3 4400  94.603  31.935  45.348
16070DA     SC4 4401  94.498  32.071  45.127
16071DT     BB1 4402  94.111  32.474  45.053
16071DT     BB2 4403  94.060  32.474  45.410
16071DT     BB3 4404  94.210  32.582  45.503
16071DT     SC1 4405  94.383  32.388  45.466
16071DT     SC2 4406  94.432  32.299  45.655
16071DT     SC3 4407  94.595  32.259  45.378
16072DT     BB1 4408  94.001  32.724  45.544
16072DT     BB2 4409  94.150  32.670  45.868
16072DT     BB3 4410  94.319  32.789  45.888
16072DT     SC1 4411  94.458  32.632  45.729
16072DT     SC2 4412  94.607  32.528  45.844
16072DT     SC3 4413  94.598  32.552  45.521
16073DG     BB1 4414  94.070  32.888  46.198
16073DG     BB2 4415  94.409  32.833  46.314
16073DG     BB3 4416  94.522  32.990  46.268
16073DG     SC1 4417  94.606  32.881  45.994
16073DG     SC2 4418  94.882  32.796  45.916
16073DG     SC3 4419  94.702  32.800  45.681
16073DG     SC4 4420  94.515  32.912  45.867
16074DA     BB1 4421  94.636  33.044  46.603
16074DA     BB2 4422  94.986  33.006  46.500
16074DA     BB3 4423  95.057  33.187  46.411
16074DA     SC1 4424  94.976  33.105  46.122
16074DA     SC2 4425  95.090  33.041  45.909
16074DA     SC3 4426  94.868  33.104  45.796
16074DA     SC4 4427  94.831  33.150  46.070
16075DA     BB1 4428  95.313  33.209  46.633
16075DA     BB2 4429  95.547  33.183  46.352
16075DA     BB3 4430  95.574  33.373  46.260
16075DA     SC1 4431  95.343  33.334  46.055
16075DA     SC2 4432  95.319  33.299  45.810
16075DA     SC3 4433  95.077  33.380  45.843
16075DA     SC4 4434  95.198  33.387  46.097
16076DA     BB1 4435  95.905  33.346  46.311
16076DA     BB2 4436  95.949  33.351  45.947
16076DA     BB3 4437  95.945  33.551  45.874
16076DA     SC1 4438  95.638  33.553  45.825
16076DA     SC2 4439  95.482  33.557  45.630
16076DA     SC3 4440  95.307  33.643  45.797
16076DA     SC4 4441  95.544  33.607  45.944
16077DT     BB1 4442  96.119  33.647  45.788
16077DT     BB2 4443  96.010  33.624  45.444
16077DT     BB3 4444  95.959  33.812  45.374
16077DT     SC1 4445  95.735  33.811  45.510
16077DT     SC2 4446  95.569  33.797  45.374
16077DT     SC3 4447  95.552  33.880  45.687
16078DT     BB1 4448  96.184  33.819  45.218
16078DT     BB2 4449  95.911  33.864  44.986
16078DT     BB3 4450  95.864  34.064  44.970
16078DT     SC1 4451  95.746  34.063  45.205
16078DT     SC2 4452  95.534  34.087  45.178
16078DT     SC3 4453  95.695  34.119  45.457
16079DT     BB1 4454  95.972  34.068  44.722
16079DT     BB2 4455  95.633  34.182  44.675
16079DT     BB3 4456  95.622  34.387  44.706
16079DT     SC1 4457  95.642  34.357  44.966
16079DT     SC2 4458  95.455  34.408  45.058
16079DT     SC3 4459  95.739  34.373  45.211
16080DT     BB1 4460  95.590  34.430  44.437
16080DT     BB2 4461  95.304  34.589  44.588
16080DT     BB3 4462  95.350  34.784  44.640
16080DT     SC1 4463  95.492  34.703  44.846
16080DT     SC2 4464  95.390  34.757  45.027
16080DT     SC3 4465  95.699  34.662  45.003
16081DT     BB1 4466  95.202  34.894  44.431
16081DT     BB2 4467  95.066  35.051  44.727
16081DT     BB3 4468  95.171  35.225  44.769
16081DT     SC1 4469  95.376  35.088  44.859
16081DT     SC2 4470  95.391  35.115  45.072
16081DT     SC3 4471  95.621  34.992  44.879
16082DT     BB1 4472  94.962  35.384  44.686
16082DT     BB2 4473  95.025  35.488  45.026
16082DT     BB3 4474  95.168  35.637  45.029
16082DT     SC1 4475  95.360  35.464  44.981
16082DT     SC2 4476  95.483  35.443  45.156
16082DT     SC3 4477  95.558  35.340  44.858
16083DT     BB1 4478  94.980  35.824  45.091
16083DT     BB2 4479  95.221  35.848  45.358
16083DT     BB3 4480  95.373  35.978  45.305
16083DT     SC1 4481  95.478  35.802  45.142
16083DT     SC2 4482  95.666  35.734  45.222
16083DT     SC3 4483  95.562  35.690  44.918
16084DA     BB1 4484  95.231  36.100  45.680
16084DA     BB2 4485  95.596  36.083  45.699
16084DA     BB3 4486  95.684  36.246  45.593
16084DA     SC1 4487  95.702  36.091  45.323
16084DA     SC2 4488  95.880  35.995  45.177
16084DA     SC3 4489  95.704  36.003  44.991
16084DA     SC4 4490  95.579  36.106  45.221
16085DT     BB1 4491  95.787  36.388  45.696
16085DT     BB2 4492  96.118  36.288  45.594
16085DT     BB3 4493  96.191  36.421  45.453
16085DT     SC1 4494  96.036  36.322  45.267
16085DT     SC2 4495  96.156  36.217  45.122
16085DT     SC3 4496  95.847  36.306  45.083
16086DT     BB1 4497  96.368  36.536  45.632
16086DT     BB2 4498  96.578  36.428  45.359
16086DT     BB3 4499  96.590  36.578  45.217
16086DT     SC1 4500  96.347  36.528  45.132
16086DT     SC2 4501  96.356  36.441  44.935
16086DT     SC3 4502  96.091  36.563  45.077
16087DA     BB1 4503  96.994  36.497  45.303
16087DA     BB2 4504  96.957  36.491  44.938
16087DA     BB3 4505  96.944  36.689  44.861
16087DA     SC1 4506  96.634  36.702  44.880
16087DA     SC2 4507  96.439  36.707  44.724
16087DA     SC3 4508  96.308  36.803  44.923
16087DA     SC4 4509  96.570  36.762  45.015
16088DA     BB1 4510  97.203  36.615  44.665
16088DA     BB2 4511  96.980  36.664  44.378
16088DA     BB3 4512  96.962  36.872  44.333
16088DA     SC1 4513  96.715  36.915  44.517
16088DA     SC2 4514  96.471  36.963  44.491
16088DA     SC3 4515  96.482  37.044  44.734
16088DA     SC4 4516  96.742  36.963  44.668
16089DA     BB1 4517  97.058  36.778  44.034
16089DA     BB2 4518  96.729  36.885  43.915
16089DA     BB3 4519  96.724  37.097  43.891
16089DA     SC1 4520  96.624  37.152  44.180
16089DA     SC2 4521  96.416  37.233  44.291
16089DA     SC3 4522  96.567  37.286  44.491
16089DA     SC4 4523  96.735  37.179  44.293
16090DT     BB1 4524  96.699  37.151  43.710
16090DT     BB2 4525  96.350  37.237  43.748
16090DT     BB3 4526  96.328  37.442  43.759
16090DT     SC1 4527  96.421  37.448  44.004
16090DT     SC2 4528  96.261  37.498  44.140
16090DT     SC3 4529  96.578  37.502  44.209
16091DA     BB1 4530  96.068  37.231  43.505
16091DA     BB2 4531  95.873  37.453  43.722
16091DA     BB3 4532  95.911  37.657  43.673
16091DA     SC1 4533  96.146  37.687  43.875
16091DA     SC2 4534  96.191  37.806  44.089
16091DA     SC3 4535  96.439  37.773  44.032
16091DA     SC4 4536  96.294  37.658  43.821
16092DT     BB1 4537  95.760  37.685  43.639
16092DT     BB2 4538  95.688  37.895  43.923
16092DT     BB3 4539  95.747  38.090  43.884
16092DT     SC1 4540  96.000  38.028  43.914
16092DT     SC2 4541  96.074  38.120  44.094
16092DT     SC3 4542  96.255  37.990  43.858
16093DA     BB1 4543  95.361  38.051  44.054
16093DA     BB2 4544  95.541  38.320  44.225
16093DA     BB3 4545  95.574  38.483  44.092
16093DA     SC1 4546  95.850  38.378  43.993
16093DA     SC2 4547  96.090  38.442  44.014
16093DA     SC3 4548  96.126  38.298  43.805
16093DA     SC4 4549  95.851  38.285  43.861
16094DA     BB1 4550  95.435  38.633  44.349
16094DA     BB2 4551  95.736  38.841  44.363
16094DA     BB3 4552  95.741  38.976  44.198
16094DA     SC1 4553  95.898  38.782  44.012
16094DA     SC2 4554  96.126  38.767  43.912
16094DA     SC3 4555  96.019  38.606  43.744
16094DA     SC4 4556  95.813  38.686  43.916
16095DA     BB1 4557  95.776  39.207  44.433
16095DA     BB2 4558  96.094  39.298  44.274
16095DA     BB3 4559  96.058  39.410  44.096
16095DA     SC1 4560  96.051  39.160  43.911
16095DA     SC2 4561  96.193  39.058  43.733
16095DA     SC3 4562  95.980  38.933  43.664
16095DA     SC4 4563  95.908  39.092  43.883
16096DG     BB1 4564  96.215  39.649  44.229
16096DG     BB2 4565  96.448  39.593  43.957
16096DG     BB3 4566  96.387  39.690  43.795
16096DG     SC1 4567  96.218  39.459  43.688
16096DG     SC2 4568  96.272  39.301  43.440
16096DG     SC3 4569  96.007  39.233  43.553
16096DG     SC4 4570  96.065  39.446  43.735
16097DT     BB1 4571  96.506  39.862  43.696
16097DT     BB2 4572  96.637  39.695  43.404
16097DT     BB3 4573  96.536  39.758  43.235
16097DT     SC1 4574  96.326  39.614  43.299
16097DT     SC2 4575  96.306  39.451  43.160
16097DT     SC3 4576  96.078  39.554  43.367
16098DT     BB1 4577  96.755  39.896  43.158
16098DT     BB2 4578  96.687  39.672  42.883
16098DT     BB3 4579  96.551  39.759  42.754
16098DT     SC1 4580  96.353  39.715  42.920
16098DT     SC2 4581  96.223  39.564  42.839
16098DT     SC3 4582  96.153  39.761  43.086
16099DC     BB1 4583  96.751  39.787  42.579
16099DC     BB2 4584  96.502  39.597  42.401
16099DC     BB3 4585  96.363  39.725  42.316
16099DC     SC1 4586  96.251  39.772  42.549
16099DC     SC2 4587  96.056  39.682  42.553
16099DC     SC3 4588  96.169  39.902  42.763
16100DA     BB1 4589  96.499  39.459  42.021
16100DA     BB2 4590  96.133  39.473  42.002
16100DA     BB3 4591  96.070  39.660  41.922
16100DA     SC1 4592  96.048  39.799  42.200
16100DA     SC2 4593  95.869  39.885  42.350
16100DA     SC3 4594  96.055  40.024  42.459
16100DA     SC4 4595  96.178  39.878  42.253
16101DG     BB1 4596  95.937  39.497  41.687
16101DG     BB2 4597  95.630  39.640  41.815
16101DG     BB3 4598  95.604  39.823  41.741
16101DG     SC1 4599  95.755  39.962  41.968
16101DG     SC2 4600  95.635  40.146  42.171
16101DG     SC3 4601  95.931  40.146  42.190
16101DG     SC4 4602  95.913  39.982  41.956
16102DG     BB1 4603  95.313  39.740  41.602
16102DG     BB2 4604  95.164  39.989  41.818
16102DG     BB3 4605  95.180  40.169  41.735
16102DG     SC1 4606  95.451  40.230  41.864
16102DG     SC2 4607  95.503  40.440  42.070
16102DG     SC3 4608  95.757  40.323  41.972
16102DG     SC4 4609  95.585  40.186  41.788
16103DT     BB1 4610  95.001  40.297  41.671
16103DT     BB2 4611  94.995  40.546  41.932
16103DT     BB3 4612  95.069  40.725  41.860
16103DT     SC1 4613  95.315  40.635  41.865
16103DT     SC2 4614  95.425  40.737  42.019
16103DT     SC3 4615  95.554  40.559  41.781
16104DG     BB1 4616  94.691  40.802  41.994
16104DG     BB2 4617  94.932  41.029  42.140
16104DG     BB3 4618  94.981  41.171  42.008
16104DG     SC1 4619  95.213  41.013  41.887
16104DG     SC2 4620  95.503  41.085  41.906
16104DG     SC3 4621  95.462  40.860  41.718
16104DG     SC4 4622  95.184  40.913  41.765
16105DA     BB1 4623  94.904  41.397  42.260
16105DA     BB2 4624  95.247  41.528  42.245
16105DA     BB3 4625  95.272  41.650  42.072
16105DA     SC1 4626  95.366  41.415  41.891
16105DA     SC2 4627  95.577  41.341  41.780
16105DA     SC3 4628  95.424  41.202  41.628
16105DA     SC4 4629  95.254  41.337  41.806
16106DT     BB1 4630  95.305  41.847  42.097
16106DT     BB2 4631  95.654  41.846  42.009
16106DT     BB3 4632  95.680  41.922  41.818
16106DT     SC1 4633  95.588  41.701  41.710
16106DT     SC2 4634  95.749  41.598  41.611
16106DT     SC3 4635  95.432  41.537  41.574
16107DT     BB1 4636  95.784  42.163  41.907
16107DT     BB2 4637  96.037  42.035  41.683
16107DT     BB3 4638  95.997  42.098  41.489
16107DT     SC1 4639  95.800  41.926  41.466
16107DT     SC2 4640  95.856  41.772  41.326
16107DT     SC3 4641  95.556  41.831  41.434
16108DT     BB1 4642  96.200  42.301  41.469
16108DT     BB2 4643  96.270  42.083  41.190
16108DT     BB3 4644  96.171  42.150  41.021
16108DT     SC1 4645  95.940  42.063  41.112
16108DT     SC2 4646  95.875  41.896  40.993
16108DT     SC3 4647  95.692  42.065  41.200
16109DC     BB1 4648  96.394  42.267  40.875
16109DC     BB2 4649  96.261  42.020  40.648
16109DC     BB3 4650  96.125  42.109  40.519
16109DC     SC1 4651  95.944  42.123  40.709
16109DC     SC2 4652  95.784  41.986  40.665
16109DC     SC3 4653  95.774  42.226  40.883
16110DA     BB1 4654  96.399  41.922  40.263
16110DA     BB2 4655  96.063  41.802  40.176
16110DA     BB3 4656  95.959  41.949  40.062
16110DA     SC1 4657  95.832  42.087  40.310
16110DA     SC2 4658  95.606  42.111  40.412
16110DA     SC3 4659  95.705  42.314  40.535
16110DA     SC4 4660  95.912  42.210  40.376
16111DT     BB1 4661  95.915  41.896  39.879
16111DT     BB2 4662  95.571  41.819  39.954
16111DT     BB3 4663  95.447  41.966  39.878
16111DT     SC1 4664  95.516  42.133  40.069
16111DT     SC2 4665  95.349  42.164  40.200
16111DT     SC3 4666  95.618  42.346  40.188
16112DC     BB1 4667  95.379  41.766  39.728
16112DC     BB2 4668  95.082  41.860  39.909
16112DC     BB3 4669  94.992  42.023  39.818
16112DC     SC1 4670  95.176  42.186  39.910
16112DC     SC2 4671  95.088  42.315  40.059
16112DC     SC3 4672  95.375  42.359  39.914
16113DT     BB1 4673  94.829  41.828  39.794
16113DT     BB2 4674  94.654  42.086  39.975
16113DT     BB3 4675  94.598  42.237  39.845
16113DT     SC1 4676  94.844  42.327  39.831
16113DT     SC2 4677  94.856  42.518  39.930
16113DT     SC3 4678  95.078  42.393  39.730
16114DG     BB1 4679  94.306  42.081  40.085
16114DG     BB2 4680  94.314  42.443  40.094
16114DG     BB3 4681  94.248  42.516  39.922
16114DG     SC1 4682  94.524  42.521  39.790
16114DG     SC2 4683  94.677  42.765  39.710
16114DG     SC3 4684  94.808  42.520  39.608
16114DG     SC4 4685  94.575  42.390  39.712
16115DT     BB1 4686  94.090  42.629  39.947
16115DT     BB2 4687  94.208  42.961  39.871
16115DT     BB3 4688  94.172  43.005  39.671
16115DT     SC1 4689  94.368  42.850  39.594
16115DT     SC2 4690  94.528  42.971  39.515
16115DT     SC3 4691  94.496  42.650  39.477
16116DG     BB1 4692  93.982  43.296  39.887
16116DG     BB2 4693  94.177  43.440  39.619
16116DG     BB3 4694  94.081  43.418  39.446
16116DG     SC1 4695  94.207  43.147  39.382
16116DG     SC2 4696  94.397  43.090  39.158
16116DG     SC3 4697  94.311  42.839  39.290
16116DG     SC4 4698  94.136  43.013  39.435
16117DT     BB1 4699  93.981  43.592  39.300
16117DT     BB2 4700  94.206  43.592  39.018
16117DT     BB3 4701  94.114  43.504  38.854
16117DT     SC1 4702  94.143  43.264  38.956
16117DT     SC2 4703  94.287  43.154  38.841
16117DT     SC3 4704  94.081  43.028  39.057
16118DT     BB1 4705  94.029  43.740  38.683
16118DT     BB2 4706  94.210  43.538  38.445
16118DT     BB3 4707  94.078  43.421  38.337
16118DT     SC1 4708  94.041  43.260  38.541
16118DT     SC2 4709  94.130  43.069  38.498
16118DT     SC3 4710  93.920  43.131  38.737
16119DT     BB1 4711  94.039  43.559  38.056
16119DT     BB2 4712  94.137  43.225  37.963
16119DT     BB3 4713  93.969  43.113  37.913
16119DT     SC1 4714  93.900  43.090  38.165
16119DT     SC2 4715  93.927  42.885  38.227
16119DT     SC3 4716  93.760  43.113  38.387
16120DA     BB1 4717  94.157  43.061  37.530
16120DA     BB2 4718  94.072  42.724  37.649
16120DA     BB3 4719  93.871  42.676  37.599
16120DA     SC1 4720  93.753  42.787  37.865
16120DA     SC2 4721  93.647  42.696  38.072
16120DA     SC3 4722  93.555  42.933  38.105
16120DA     SC4 4723  93.704  42.940  37.867
16121DT     BB1 4724  93.781  42.504  37.437
16121DT     BB2 4725  93.702  42.267  37.698
16121DT     BB3 4726  93.498  42.232  37.702
16121DT     SC1 4727  93.452  42.465  37.814
16121DT     SC2 4728  93.387  42.436  38.016
16121DT     SC3 4729  93.362  42.711  37.847
16122DA     BB1 4730  93.718  41.879  37.693
16122DA     BB2 4731  93.494  41.869  37.982
16122DA     BB3 4732  93.292  41.838  37.919
16122DA     SC1 4733  93.228  42.142  37.895
16122DA     SC2 4734  93.088  42.311  38.014
16122DA     SC3 4735  93.107  42.448  37.798
16122DA     SC4 4736  93.250  42.211  37.752
16123DT     BB1 4737  93.257  41.693  37.994
16123DT     BB2 4738  93.049  41.832  38.255
16123DT     BB3 4739  92.851  41.829  38.196
16123DT     SC1 4740  92.887  42.030  38.032
16123DT     SC2 4741  92.785  42.203  38.107
16123DT     SC3 4742  92.902  42.167  37.807
16124DA     BB1 4743  92.952  41.706  38.591
16124DA     BB2 4744  92.668  41.938  38.603
16124DA     BB3 4745  92.498  41.852  38.507
16124DA     SC1 4746  92.567  41.969  38.227
16124DA     SC2 4747  92.476  42.142  38.072
16124DA     SC3 4748  92.608  42.019  37.889
16124DA     SC4 4749  92.655  41.878  38.127
16125DC     BB1 4750  92.390  41.844  38.633
16125DC     BB2 4751  92.162  42.098  38.517
16125DC     BB3 4752  92.016  42.013  38.397
16125DC     SC1 4753  92.186  41.987  38.198
16125DC     SC2 4754  92.132  42.123  38.040
16125DC     SC3 4755  92.337  41.873  38.015
16126DA     BB1 4756  91.834  42.255  38.689
16126DA     BB2 4757  91.679  42.328  38.365
16126DA     BB3 4758  91.559  42.163  38.302
16126DA     SC1 4759  91.790  42.025  38.146
16126DA     SC2 4760  91.851  41.979  37.908
16126DA     SC3 4761  92.004  41.797  38.004
16126DA     SC4 4762  91.878  41.916  38.224
16127DT     BB1 4763  91.359  42.185  38.292
16127DT     BB2 4764  91.328  42.190  37.932
16127DT     BB3 4765  91.256  42.008  37.865
16127DT     SC1 4766  91.488  41.892  37.907
16127DT     SC2 4767  91.578  41.842  37.718
16127DT     SC3 4768  91.670  41.729  38.007
16128DA     BB1 4769  90.990  42.286  37.696
16128DA     BB2 4770  91.094  42.058  37.429
16128DA     BB3 4771  90.994  41.870  37.449
16128DA     SC1 4772  91.217  41.744  37.626
16128DA     SC2 4773  91.391  41.567  37.605
16128DA     SC3 4774  91.391  41.564  37.861
16128DA     SC4 4775  91.201  41.756  37.785
16129DC     BB1 4776  90.848  41.800  37.307
16129DC     BB2 4777  91.059  41.554  37.148
16129DC     BB3 4778  90.997  41.363  37.201
16129DC     SC1 4779  91.101  41.388  37.441
16129DC     SC2 4780  91.271  41.258  37.459
16129DC     SC3 4781  91.117  41.405  37.704
16130DT     BB1 4782  90.897  41.322  36.951
16130DT     BB2 4783  91.135  41.055  36.999
16130DT     BB3 4784  91.043  40.894  37.091
16130DT     SC1 4785  91.042  41.018  37.323
16130DT     SC2 4786  91.180  40.921  37.456
16130DT     SC3 4787  90.951  41.134  37.541
16131DA     BB1 4788  91.242  40.755  36.750
16131DA     BB2 4789  91.335  40.539  37.031
16131DA     BB3 4790  91.172  40.412  37.085
16131DA     SC1 4791  91.054  40.611  37.293
16131DA     SC2 4792  91.028  40.626  37.540
16131DA     SC3 4793  90.845  40.798  37.491
16131DA     SC4 4794  90.942  40.714  37.241
16132DA     BB1 4795  91.415  40.197  37.045
16132DA     BB2 4796  91.361  40.105  37.396
16132DA     BB3 4797  91.180  39.995  37.417
16132DA     SC1 4798  91.004  40.247  37.468
16132DA     SC2 4799  90.878  40.349  37.657
16132DA     SC3 4800  90.749  40.477  37.476
16132DA     SC4 4801  90.934  40.316  37.340
16133DT     BB1 4802  91.194  39.804  37.472
16133DT     BB2 4803  91.074  39.847  37.810
16133DT     BB3 4804  90.879  39.779  37.825
16133DT     SC1 4805  90.788  39.991  37.699
16133DT     SC2 4806  90.678  40.114  37.838
16133DT     SC3 4807  90.672  40.140  37.515
16134DT     BB1 4808  90.960  39.559  37.965
16134DT     BB2 4809  90.718  39.719  38.180
16134DT     BB3 4810  90.527  39.652  38.134
16134DT     SC1 4811  90.521  39.796  37.915
16134DT     SC2 4812  90.379  39.956  37.939
16134DT     SC3 4813  90.509  39.858  37.659
16135DT     BB1 4814  90.519  39.508  38.365
16135DT     BB2 4815  90.233  39.726  38.385
16135DT     BB3 4816  90.070  39.638  38.292
16135DT     SC1 4817  90.170  39.687  38.054
16135DT     SC2 4818  90.050  39.837  37.956
16135DT     SC3 4819  90.269  39.645  37.813
16136DG     BB1 4820  89.962  39.717  38.676
16136DG     BB2 4821  89.726  39.857  38.441
16136DG     BB3 4822  89.605  39.713  38.373
16136DG     SC1 4823  89.786  39.640  38.136
16136DG     SC2 4824  89.722  39.680  37.848
16136DG     SC3 4825  89.968  39.520  37.880
16136DG     SC4 4826  89.900  39.530  38.158
16137DT     BB1 4827  89.401  39.735  38.411
16137DT     BB2 4828  89.274  39.829  38.087
16137DT     BB3 4829  89.188  39.665  37.994
16137DT     SC1 4830  89.424  39.562  37.941
16137DT     SC2 4831  89.459  39.571  37.729
16137DT     SC3 4832  89.627  39.395  37.943
16138DT     BB1 4833  88.961  39.792  38.036
16138DT     BB2 4834  88.974  39.736  37.680
16138DT     BB3 4835  88.909  39.544  37.636
16138DT     SC1 4836  89.133  39.440  37.724
16138DT     SC2 4837  89.245  39.360  37.558
16138DT     SC3 4838  89.300  39.298  37.871
16139DG     BB1 4839  88.691  39.819  37.427
16139DG     BB2 4840  88.820  39.558  37.212
16139DG     BB3 4841  88.716  39.390  37.239
16139DG     SC1 4842  88.896  39.285  37.463
16139DG     SC2 4843  89.072  39.044  37.447
16139DG     SC3 4844  89.060  39.149  37.724
16139DG     SC4 4845  88.864  39.326  37.614
16140DC     BB1 4846  88.602  39.307  37.076
16140DC     BB2 4847  88.792  39.013  36.989
16140DC     BB3 4848  88.703  38.844  37.070
16140DC     SC1 4849  88.789  38.905  37.310
16140DC     SC2 4850  88.940  38.764  37.370
16140DC     SC3 4851  88.786  38.971  37.565
16141DG     BB1 4852  88.693  38.760  36.668
16141DG     BB2 4853  88.830  38.481  36.853
16141DG     BB3 4854  88.683  38.373  36.932
16141DG     SC1 4855  88.674  38.533  37.193
16141DG     SC2 4856  88.748  38.430  37.464
16141DG     SC3 4857  88.624  38.698  37.483
16141DG     SC4 4858  88.581  38.662  37.202
16142DC     BB1 4859  88.602  38.132  36.883
16142DC     BB2 4860  88.726  37.960  37.175
16142DC     BB3 4861  88.568  37.902  37.295
16142DC     SC1 4862  88.532  38.148  37.379
16142DC     SC2 4863  88.588  38.162  37.586
16142DC     SC3 4864  88.416  38.381  37.421
16143DA     BB1 4865  88.753  37.527  37.238
16143DA     BB2 4866  88.700  37.563  37.599
16143DA     BB3 4867  88.498  37.518  37.649
16143DA     SC1 4868  88.400  37.812  37.618
16143DA     SC2 4869  88.320  37.997  37.765
16143DA     SC3 4870  88.217  38.095  37.551
16143DA     SC4 4871  88.343  37.856  37.474
16144DT     BB1 4872  88.431  37.340  37.771
16144DT     BB2 4873  88.366  37.523  38.075
16144DT     BB3 4874  88.163  37.527  38.113
16144DT     SC1 4875  88.123  37.705  37.924
16144DT     SC2 4876  88.069  37.893  38.013
16144DT     SC3 4877  88.035  37.814  37.700
16145DC     BB1 4878  88.189  37.350  38.322
16145DC     BB2 4879  88.037  37.642  38.471
16145DC     BB3 4880  87.831  37.629  38.458
16145DC     SC1 4881  87.836  37.684  38.201
16145DC     SC2 4882  87.751  37.880  38.169
16145DC     SC3 4883  87.806  37.657  37.941
16146DT     BB1 4884  87.821  37.585  38.725
16146DT     BB2 4885  87.615  37.877  38.672
16146DT     BB3 4886  87.421  37.820  38.627
16146DT     SC1 4887  87.490  37.748  38.385
16146DT     SC2 4888  87.404  37.884  38.242
16146DT     SC3 4889  87.534  37.595  38.174
16147DC     BB1 4890  87.345  37.907  38.871
16147DC     BB2 4891  87.136  38.090  38.641
16147DC     BB3 4892  86.968  37.978  38.595
16147DC     SC1 4893  87.107  37.818  38.439
16147DC     SC2 4894  87.051  37.852  38.234
16147DC     SC3 4895  87.219  37.599  38.347
16148DT     BB1 4896  86.814  38.146  38.745
16148DT     BB2 4897  86.659  38.150  38.419
16148DT     BB3 4898  86.523  37.995  38.403
16148DT     SC1 4899  86.716  37.818  38.378
16148DT     SC2 4900  86.715  37.741  38.177
16148DT     SC3 4901  86.872  37.613  38.430
16149DA     BB1 4902  86.300  38.336  38.300
16149DA     BB2 4903  86.236  38.082  38.043
16149DA     BB3 4904  86.102  37.933  38.118
16149DA     SC1 4905  86.330  37.749  38.226
16149DA     SC2 4906  86.430  37.528  38.170
16149DA     SC3 4907  86.519  37.531  38.410
16149DA     SC4 4908  86.375  37.769  38.379
16150DC     BB1 4909  85.894  37.903  38.046
16150DC     BB2 4910  85.959  37.602  37.858
16150DC     BB3 4911  85.872  37.440  37.952
16150DC     SC1 4912  86.056  37.438  38.138
16150DC     SC2 4913  86.180  37.263  38.115
16150DC     SC3 4914  86.169  37.454  38.376
16151DT     BB1 4915  85.659  37.410  37.767
16151DT     BB2 4916  85.821  37.088  37.763
16151DT     BB3 4917  85.732  36.962  37.901
16151DT     SC1 4918  85.846  37.087  38.101
16151DT     SC2 4919  85.994  36.959  38.191
16151DT     SC3 4920  85.874  37.230  38.321
16152DG     BB1 4921  85.711  36.784  37.535
16152DG     BB2 4922  85.868  36.569  37.780
16152DG     BB3 4923  85.730  36.488  37.897
16152DG     SC1 4924  85.736  36.714  38.103
16152DG     SC2 4925  85.831  36.692  38.385
16152DG     SC3 4926  85.702  36.954  38.338
16152DG     SC4 4927  85.640  36.841  38.082
16153DA     BB1 4928  85.894  36.199  37.812
16153DA     BB2 4929  85.967  36.141  38.167
16153DA     BB3 4930  85.791  36.078  38.269
16153DA     SC1 4931  85.703  36.366  38.347
16153DA     SC2 4932  85.686  36.504  38.554
16153DA     SC3 4933  85.523  36.649  38.419
16153DA     SC4 4934  85.603  36.443  38.247
16154DA     BB1 4935  86.021  35.859  38.342
16154DA     BB2 4936  85.967  35.959  38.691
16154DA     BB3 4937  85.777  35.892  38.759
16154DA     SC1 4938  85.628  36.152  38.673
16154DA     SC2 4939  85.518  36.347  38.784
16154DA     SC3 4940  85.397  36.379  38.560
16154DA     SC4 4941  85.562  36.155  38.527
16155DG     BB1 4942  85.973  35.762  38.956
16155DG     BB2 4943  85.796  35.972  39.191
16155DG     BB3 4944  85.618  35.893  39.232
16155DG     SC1 4945  85.474  36.039  39.005
16155DG     SC2 4946  85.266  36.252  39.036
16155DG     SC3 4947  85.289  36.168  38.754
16155DG     SC4 4948  85.468  35.971  38.860
16156DG     BB1 4949  85.723  35.905  39.540
16156DG     BB2 4950  85.442  36.125  39.598
16156DG     BB3 4951  85.274  36.019  39.612
16156DG     SC1 4952  85.212  36.031  39.313
16156DG     SC2 4953  84.981  36.174  39.187
16156DG     SC3 4954  85.123  36.007  38.988
16156DG     SC4 4955  85.272  35.918  39.217
16157DG     BB1 4956  85.237  36.154  39.908
16157DG     BB2 4957  84.929  36.294  39.778
16157DG     BB3 4958  84.786  36.156  39.781
16157DG     SC1 4959  84.848  36.050  39.501
16157DG     SC2 4960  84.671  36.073  39.262
16157DG     SC3 4961  84.901  35.896  39.205
16157DG     SC4 4962  84.956  35.933  39.484
16158DT     BB1 4963  84.604  36.181  39.904
16158DT     BB2 4964  84.355  36.255  39.655
16158DT     BB3 4965  84.239  36.087  39.619
16158DT     SC1 4966  84.432  35.974  39.482
16158DT     SC2 4967  84.377  35.965  39.274
16158DT     SC3 4968  84.620  35.801  39.413
16159DT     BB1 4969  84.024  36.192  39.752
16159DT     BB2 4970  83.895  36.114  39.424
16159DT     BB3 4971  83.829  35.918  39.419
16159DT     SC1 4972  84.075  35.826  39.413
16159DT     SC2 4973  84.114  35.740  39.220
16159DT     SC3 4974  84.294  35.700  39.487
16160DG     BB1 4975  83.495  36.135  39.324
16160DG     BB2 4976  83.558  35.878  39.077
16160DG     BB3 4977  83.491  35.703  39.144
16160DG     SC1 4978  83.754  35.626  39.280
16160DG     SC2 4979  83.935  35.403  39.198
16160DG     SC3 4980  84.021  35.519  39.456
16160DG     SC4 4981  83.780  35.671  39.431
16161DA     BB1 4982  83.308  35.667  38.849
16161DA     BB2 4983  83.497  35.363  38.767
16161DA     BB3 4984  83.423  35.197  38.879
16161DA     SC1 4985  83.619  35.241  39.117
16161DA     SC2 4986  83.818  35.126  39.216
16161DA     SC3 4987  83.764  35.260  39.428
16161DA     SC4 4988  83.568  35.331  39.239
16162DA     BB1 4989  83.400  35.069  38.578
16162DA     BB2 4990  83.641  34.817  38.689
16162DA     BB3 4991  83.546  34.674  38.816
16162DA     SC1 4992  83.607  34.830  39.078
16162DA     SC2 4993  83.752  34.803  39.279
16162DA     SC3 4994  83.592  34.970  39.392
16162DA     SC4 4995  83.496  34.933  39.131
16163DT     BB1 4996  83.534  34.487  38.749
16163DT     BB2 4997  83.791  34.348  38.961
16163DT     BB3 4998  83.704  34.240  39.114
16163DT     SC1 4999  83.632  34.458  39.239
16163DT     SC2 5000  83.748  34.480  39.419
16163DT     SC3 5001  83.478  34.643  39.348
16164DT     BB1 5002  83.794  34.018  38.993
16164DT     BB2 5003  83.936  34.007  39.324
16164DT     BB3 5004  83.801  33.923  39.457
16164DT     SC1 5005  83.656  34.142  39.459
16164DT     SC2 5006  83.673  34.237  39.651
16164DT     SC3 5007  83.451  34.304  39.425
16165DC     BB1 5008  83.956  33.703  39.468
16165DC     BB2 5009  83.929  33.814  39.810
16165DC     BB3 5010  83.757  33.737  39.896
16165DC     SC1 5011  83.607  33.907  39.764
16165DC     SC2 5012  83.523  34.050  39.901
16165DC     SC3 5013  83.426  34.000  39.596
16166DT     BB1 5014  83.905  33.565  40.046
16166DT     BB2 5015  83.712  33.752  40.286
16166DT     BB3 5016  83.527  33.663  40.314
16166DT     SC1 5017  83.441  33.752  40.082
16166DT     SC2 5018  83.291  33.903  40.115
16166DT     SC3 5019  83.351  33.752  39.835
16167DT     BB1 5020  83.598  33.570  40.563
16167DT     BB2 5021  83.302  33.768  40.622
16167DT     BB3 5022  83.133  33.650  40.600
16167DT     SC1 5023  83.157  33.651  40.338
16167DT     SC2 5024  82.998  33.767  40.252
16167DT     SC3 5025  83.192  33.563  40.092
16168DT     BB1 5026  83.092  33.654  40.869
16168DT     BB2 5027  82.789  33.791  40.728
16168DT     BB3 5028  82.657  33.638  40.682
16168DT     SC1 5029  82.798  33.569  40.472
16168DT     SC2 5030  82.688  33.617  40.293
16168DT     SC3 5031  82.948  33.424  40.310
16169DA     BB1 5032  82.461  33.929  40.910
16169DA     BB2 5033  82.257  33.859  40.613
16169DA     BB3 5034  82.166  33.666  40.630
16169DA     SC1 5035  82.400  33.516  40.490
16169DA     SC2 5036  82.441  33.397  40.275
16169DA     SC3 5037  82.637  33.286  40.397
16169DA     SC4 5038  82.517  33.456  40.584
16170DG     BB1 5039  81.927  33.854  40.599
16170DG     BB2 5040  81.886  33.669  40.291
16170DG     BB3 5041  81.806  33.491  40.329
16170DG     SC1 5042  82.075  33.351  40.370
16170DG     SC2 5043  82.191  33.139  40.194
16170DG     SC3 5044  82.350  33.170  40.441
16170DG     SC4 5045  82.140  33.349  40.516
16171DA     BB1 5046  81.604  33.600  40.074
16171DA     BB2 5047  81.695  33.300  39.883
16171DA     BB3 5048  81.606  33.127  39.970
16171DA     SC1 5049  81.848  33.067  40.156
16171DA     SC2 5050  82.028  32.895  40.175
16171DA     SC3 5051  82.050  32.974  40.418
16171DA     SC4 5052  81.846  33.129  40.304
16172DA     BB1 5053  81.519  33.109  39.655
16172DA     BB2 5054  81.688  32.784  39.651
16172DA     BB3 5055  81.577  32.641  39.765
16172DA     SC1 5056  81.725  32.702  40.032
16172DA     SC2 5057  81.887  32.587  40.183
16172DA     SC3 5058  81.806  32.753  40.362
16172DA     SC4 5059  81.660  32.812  40.129
16173DG     BB1 5060  81.564  32.487  39.494
16173DG     BB2 5061  81.748  32.236  39.679
16173DG     BB3 5062  81.623  32.128  39.790
16173DG     SC1 5063  81.642  32.311  40.034
16173DG     SC2 5064  81.764  32.241  40.297
16173DG     SC3 5065  81.624  32.501  40.312
16173DG     SC4 5066  81.542  32.435  40.046
16174DA     BB1 5067  81.744  31.827  39.652
16174DA     BB2 5068  81.845  31.708  39.984
16174DA     BB3 5069  81.676  31.633  40.090
16174DA     SC1 5070  81.606  31.906  40.222
16174DA     SC2 5071  81.612  32.008  40.449
16174DA     SC3 5072  81.444  32.178  40.355
16174DA     SC4 5073  81.501  32.001  40.145
16175DC     BB1 5074  81.643  31.418  40.143
16175DC     BB2 5075  81.720  31.452  40.494
16175DC     BB3 5076  81.548  31.428  40.607
16175DC     SC1 5077  81.462  31.667  40.539
16175DC     SC2 5078  81.468  31.796  40.710
16175DC     SC3 5079  81.310  31.855  40.434
16176DA     BB1 5080  81.815  31.151  40.771
16176DA     BB2 5081  81.679  31.349  41.048
16176DA     BB3 5082  81.481  31.285  41.095
16176DA     SC1 5083  81.344  31.485  40.901
16176DA     SC2 5084  81.204  31.690  40.916
16176DA     SC3 5085  81.135  31.637  40.674
16176DA     SC4 5086  81.313  31.434  40.751
16177DC     BB1 5087  81.452  31.201  41.275
16177DC     BB2 5088  81.290  31.486  41.425
16177DC     BB3 5089  81.087  31.451  41.443
16177DC     SC1 5090  81.050  31.488  41.185
16177DC     SC2 5091  80.942  31.670  41.154
16177DC     SC3 5092  80.989  31.437  40.934
16178DT     BB1 5093  81.143  31.444  41.698
16178DT     BB2 5094  80.900  31.708  41.660
16178DT     BB3 5095  80.709  31.628  41.653
16178DT     SC1 5096  80.746  31.541  41.408
16178DT     SC2 5097  80.623  31.655  41.273
16178DT     SC3 5098  80.771  31.374  41.205
16179DC     BB1 5099  80.702  31.755  41.877
16179DC     BB2 5100  80.431  31.889  41.680
16179DC     BB3 5101  80.271  31.759  41.683
16179DC     SC1 5102  80.392  31.594  41.518
16179DC     SC2 5103  80.292  31.597  41.328
16179DC     SC3 5104  80.507  31.375  41.426
16180DT     BB1 5105  80.173  31.956  41.817
16180DT     BB2 5106  79.938  31.897  41.550
16180DT     BB3 5107  79.822  31.732  41.594
16180DT     SC1 5108  80.019  31.567  41.541
16180DT     SC2 5109  79.975  31.458  41.361
16180DT     SC3 5110  80.206  31.385  41.576
16181DT     BB1 5111  79.615  31.898  41.639
16181DT     BB2 5112  79.482  31.656  41.407
16181DT     BB3 5113  79.416  31.489  41.510
16181DT     SC1 5114  79.661  31.407  41.552
16181DT     SC2 5115  79.698  31.229  41.436
16181DT     SC3 5116  79.882  31.339  41.679
16182DA     BB1 5117  79.066  31.590  41.295
16182DA     BB2 5118  79.110  31.228  41.261
16182DA     BB3 5119  79.053  31.129  41.441
16182DA     SC1 5120  79.338  31.140  41.566
16182DA     SC2 5121  79.521  30.980  41.622
16182DA     SC3 5122  79.605  31.164  41.780
16182DA     SC4 5123  79.374  31.266  41.659
16183DA     BB1 5124  78.819  30.929  41.289
16183DA     BB2 5125  79.011  30.635  41.393
16183DA     BB3 5126  78.961  30.581  41.593
16183DA     SC1 5127  79.183  30.757  41.722
16183DA     SC2 5128  79.398  30.723  41.844
16183DA     SC3 5129  79.364  30.963  41.929
16183DA     SC4 5130  79.143  30.907  41.765
16184DT     BB1 5131  78.841  30.386  41.675
16184DT     BB2 5132  79.132  30.215  41.803
16184DT     BB3 5133  79.122  30.203  42.009
16184DT     SC1 5134  79.183  30.457  42.034
16184DT     SC2 5135  79.381  30.475  42.118
16184DT     SC3 5136  79.162  30.713  42.095
16185DT     BB1 5137  79.056  29.926  42.026
16185DT     BB2 5138  79.359  29.954  42.220
16185DT     BB3 5139  79.313  29.987  42.419
16185DT     SC1 5140  79.247  30.236  42.371
16185DT     SC2 5141  79.392  30.367  42.459
16185DT     SC3 5142  79.100  30.454  42.350
16186DA     BB1 5143  79.573  29.658  42.414
16186DA     BB2 5144  79.704  29.900  42.657
16186DA     BB3 5145  79.587  29.895  42.836
16186DA     SC1 5146  79.390  30.116  42.741
16186DA     SC2 5147  79.336  30.353  42.799
16186DA     SC3 5148  79.111  30.309  42.683
16186DA     SC4 5149  79.255  30.069  42.667
16187DA     BB1 5150  79.886  29.850  42.961
16187DA     BB2 5151  79.835  30.164  43.143
16187DA     BB3 5152  79.701  30.134  43.307
16187DA     SC1 5153  79.446  30.202  43.142
16187DA     SC2 5154  79.277  30.385  43.132
16187DA     SC3 5155  79.128  30.212  43.013
16187DA     SC4 5156  79.369  30.080  43.071
16188DA     BB1 5157  79.953  30.271  43.465
16188DA     BB2 5158  79.722  30.540  43.559
16188DA     BB3 5159  79.589  30.473  43.712
16188DA     SC1 5160  79.372  30.373  43.512
16188DA     SC2 5161  79.142  30.438  43.442
16188DA     SC3 5162  79.122  30.197  43.356
16188DA     SC4 5163  79.379  30.219  43.467
16189DC     BB1 5164  79.603  30.558  43.895
16189DC     BB2 5165  79.303  30.758  43.872
16189DC     BB3 5166  79.153  30.674  43.986
16189DC     SC1 5167  79.114  30.484  43.809
16189DC     SC2 5168  78.924  30.513  43.714
16189DC     SC3 5169  79.103  30.243  43.702
16190DT     BB1 5170  79.174  30.871  44.177
16190DT     BB2 5171  78.829  30.884  44.072
16190DT     BB3 5172  78.716  30.754  44.186
16190DT     SC1 5173  78.812  30.546  44.057
16190DT     SC2 5174  78.657  30.459  43.936
16190DT     SC3 5175  78.940  30.320  44.011
16191DA     BB1 5176  78.523  31.125  44.213
16191DA     BB2 5177  78.271  30.875  44.121
16191DA     BB3 5178  78.220  30.756  44.291
16191DA     SC1 5179  78.436  30.540  44.235
16191DA     SC2 5180  78.445  30.301  44.161
16191DA     SC3 5181  78.680  30.299  44.264
16191DA     SC4 5182  78.580  30.558  44.306
16192DT     BB1 5183  78.031  30.770  44.364
16192DT     BB2 5184  77.913  30.455  44.234
16192DT     BB3 5185  77.898  30.316  44.388
16192DT     SC1 5186  78.158  30.286  44.397
16192DT     SC2 5187  78.210  30.090  44.325
16192DT     SC3 5188  78.405  30.290  44.490
16193DT     BB1 5189  77.628  30.334  44.371
16193DT     BB2 5190  77.700  29.984  44.318
16193DT     BB3 5191  77.711  29.886  44.500
16193DT     SC1 5192  77.946  29.991  44.552
16193DT     SC2 5193  78.096  29.838  44.543
16193DT     SC3 5194  78.134  30.133  44.671
16194DA     BB1 5195  77.449  29.675  44.251
16194DA     BB2 5196  77.686  29.435  44.396
16194DA     BB3 5197  77.642  29.403  44.602
16194DA     SC1 5198  77.829  29.630  44.703
16194DA     SC2 5199  78.045  29.651  44.827
16194DA     SC3 5200  77.970  29.891  44.876
16194DA     SC4 5201  77.764  29.776  44.724
16195DA     BB1 5202  77.645  29.094  44.494
16195DA     BB2 5203  77.919  29.034  44.730
16195DA     BB3 5204  77.844  29.025  44.930
16195DA     SC1 5205  77.880  29.329  44.983
16195DA     SC2 5206  78.026  29.476  45.122
16195DA     SC3 5207  77.843  29.653  45.090
16195DA     SC4 5208  77.755  29.425  44.953
16196DA     BB1 5209  78.007  28.741  44.920
16196DA     BB2 5210  78.212  28.871  45.195
16196DA     BB3 5211  78.102  28.866  45.378
16196DA     SC1 5212  77.986  29.152  45.345
16196DA     SC2 5213  78.012  29.376  45.453
16196DA     SC3 5214  77.784  29.431  45.348
16196DA     SC4 5215  77.843  29.167  45.273
16197DA     BB1 5216  78.370  28.702  45.472
16197DA     BB2 5217  78.421  28.967  45.721
16197DA     BB3 5218  78.284  28.944  45.883
16197DA     SC1 5219  78.065  29.124  45.754
16197DA     SC2 5220  77.963  29.348  45.795
16197DA     SC3 5221  77.768  29.262  45.652
16197DA     SC4 5222  77.953  29.052  45.664
16198DC     BB1 5223  78.363  28.901  46.055
16198DC     BB2 5224  78.316  29.224  46.208
16198DC     BB3 5225  78.156  29.218  46.339
16198DC     SC1 5226  77.984  29.217  46.141
16198DC     SC2 5227  77.879  29.405  46.137
16198DC     SC3 5228  77.793  29.136  45.978
16199DA     BB1 5229  78.486  29.384  46.536
16199DA     BB2 5230  78.196  29.600  46.599
16199DA     BB3 5231  78.061  29.505  46.733
16199DA     SC1 5232  77.895  29.368  46.508
16199DA     SC2 5233  77.667  29.388  46.408
16199DA     SC3 5234  77.707  29.150  46.322
16199DA     SC4 5235  77.938  29.219  46.465
16200DC     BB1 5236  78.041  29.592  46.904
16200DC     BB2 5237  77.709  29.724  46.853
16200DC     BB3 5238  77.570  29.607  46.952
16200DC     SC1 5239  77.590  29.418  46.771
16200DC     SC2 5240  77.408  29.409  46.657
16200DC     SC3 5241  77.640  29.183  46.661
16201DA     BB1 5242  77.499  30.002  47.073
16201DA     BB2 5243  77.176  29.854  46.986
16201DA     BB3 5244  77.115  29.715  47.136
16201DA     SC1 5245  77.251  29.470  47.000
16201DA     SC2 5246  77.180  29.262  46.882
16201DA     SC3 5247  77.416  29.176  46.936
16201DA     SC4 5248  77.401  29.435  47.044
16202DG     BB1 5249  76.863  29.898  47.181
16202DG     BB2 5250  76.681  29.604  47.073
16202DG     BB3 5251  76.654  29.480  47.226
16202DG     SC1 5252  76.915  29.327  47.180
16202DG     SC2 5253  76.939  29.042  47.095
16202DG     SC3 5254  77.203  29.151  47.171
16202DG     SC4 5255  77.050  29.380  47.250
16203DT     BB1 5256  76.443  29.416  47.332
16203DT     BB2 5257  76.405  29.079  47.209
16203DT     BB3 5258  76.437  28.944  47.362
16203DT     SC1 5259  76.696  28.984  47.354
16203DT     SC2 5260  76.793  28.808  47.278
16203DT     SC3 5261  76.939  29.054  47.429
16204DA     BB1 5262  76.056  28.828  47.226
16204DA     BB2 5263  76.259  28.524  47.245
16204DA     BB3 5264  76.275  28.458  47.448
16204DA     SC1 5265  76.535  28.621  47.505
16204DA     SC2 5266  76.776  28.574  47.546
16204DA     SC3 5267  76.783  28.809  47.649
16204DA     SC4 5268  76.518  28.768  47.566
16205DG     BB1 5269  76.128  28.187  47.373
16205DG     BB2 5270  76.448  28.039  47.455
16205DG     BB3 5271  76.456  27.998  47.649
16205DG     SC1 5272  76.571  28.271  47.728
16205DG     SC2 5273  76.843  28.321  47.838
16205DG     SC3 5274  76.677  28.566  47.851
16205DG     SC4 5275  76.470  28.391  47.760
16206DC     BB1 5276  76.477  27.781  47.739
16206DC     BB2 5277  76.824  27.783  47.835
16206DC     BB3 5278  76.841  27.792  48.041
16206DC     SC1 5279  76.774  28.046  48.044
16206DC     SC2 5280  76.946  28.164  48.098
16206DC     SC3 5281  76.638  28.266  48.092
16207DT     BB1 5282  76.925  27.535  48.043
16207DT     BB2 5283  77.193  27.720  48.199
16207DT     BB3 5284  77.157  27.739  48.402
16207DT     SC1 5285  76.972  27.920  48.360
16207DT     SC2 5286  77.042  28.111  48.430
16207DT     SC3 5287  76.736  28.037  48.356
16208DG     BB1 5288  77.518  27.562  48.344
16208DG     BB2 5289  77.544  27.850  48.562
16208DG     BB3 5290  77.479  27.803  48.744
16208DG     SC1 5291  77.188  27.881  48.687
16208DG     SC2 5292  77.040  28.109  48.811
16208DG     SC3 5293  76.858  27.938  48.653
16208DG     SC4 5294  77.089  27.772  48.626
16209DT     BB1 5295  77.617  27.821  48.896
16209DT     BB2 5296  77.504  28.117  49.068
16209DT     BB3 5297  77.395  28.064  49.237
16209DT     SC1 5298  77.189  27.994  49.091
16209DT     SC2 5299  77.029  28.134  49.122
16209DT     SC3 5300  77.002  27.844  48.981
16210DA     BB1 5301  77.687  28.346  49.343
16210DA     BB2 5302  77.369  28.450  49.492
16210DA     BB3 5303  77.316  28.320  49.653
16210DA     SC1 5304  77.154  28.124  49.474
16210DA     SC2 5305  76.916  28.059  49.440
16210DA     SC3 5306  77.011  27.846  49.334
16210DA     SC4 5307  77.233  27.998  49.413
16211DT     BB1 5308  77.315  28.397  49.838
16211DT     BB2 5309  76.957  28.403  49.885
16211DT     BB3 5310  76.900  28.247  50.009
16211DT     SC1 5311  76.934  28.071  49.817
16211DT     SC2 5312  76.743  27.995  49.755
16211DT     SC3 5313  77.031  27.866  49.683
16212DG     BB1 5314  76.770  28.589  50.190
16212DG     BB2 5315  76.504  28.347  50.162
16212DG     BB3 5316  76.524  28.206  50.302
16212DG     SC1 5317  76.699  28.024  50.128
16212DG     SC2 5318  76.622  27.755  50.025
16212DG     SC3 5319  76.908  27.810  49.974
16212DG     SC4 5320  76.857  28.045  50.129
16213DG     BB1 5321  76.225  28.275  50.428
16213DG     BB2 5322  76.133  27.937  50.341
16213DG     BB3 5323  76.190  27.812  50.485
16213DG     SC1 5324  76.466  27.760  50.364
16213DG     SC2 5325  76.563  27.501  50.251
16213DG     SC3 5326  76.784  27.696  50.270
16213DG     SC4 5327  76.588  27.857  50.403
16214DT     BB1 5328  76.046  27.684  50.618
16214DT     BB2 5329  76.094  27.355  50.478
16214DT     BB3 5330  76.206  27.239  50.607
16214DT     SC1 5331  76.426  27.366  50.543
16214DT     SC2 5332  76.555  27.235  50.431
16214DT     SC3 5333  76.642  27.516  50.566
16215DT     BB1 5334  75.989  27.085  50.686
16215DT     BB2 5335  76.227  26.843  50.563
16215DT     BB3 5336  76.352  26.783  50.716
16215DT     SC1 5337  76.484  27.009  50.709
16215DT     SC2 5338  76.682  26.974  50.633
16215DT     SC3 5339  76.582  27.242  50.785
16216DT     BB1 5340  76.232  26.532  50.741
16216DT     BB2 5341  76.580  26.458  50.680
16216DT     BB3 5342  76.682  26.447  50.860
16216DT     SC1 5343  76.678  26.708  50.887
16216DT     SC2 5344  76.878  26.786  50.862
16216DT     SC3 5345  76.625  26.947  50.986
16217DA     BB1 5346  76.770  26.086  50.665
16217DA     BB2 5347  77.088  26.232  50.775
16217DA     BB3 5348  77.112  26.206  50.986
16217DA     SC1 5349  76.977  26.477  51.059
16217DA     SC2 5350  77.044  26.698  51.151
16217DA     SC3 5351  76.796  26.726  51.210
16217DA     SC4 5352  76.819  26.475  51.089
16218DG     BB1 5353  77.368  26.040  50.915
16218DG     BB2 5354  77.537  26.314  51.081
16218DG     BB3 5355  77.540  26.283  51.277
16218DG     SC1 5356  77.274  26.426  51.329
16218DG     SC2 5357  77.238  26.681  51.480
16218DG     SC3 5358  76.976  26.557  51.418
16218DG     SC4 5359  77.138  26.341  51.320
16219DT     BB1 5360  77.732  26.258  51.392
16219DT     BB2 5361  77.757  26.580  51.553
16219DT     BB3 5362  77.710  26.563  51.753
16219DT     SC1 5363  77.454  26.539  51.700
16219DT     SC2 5364  77.350  26.715  51.767
16219DT     SC3 5365  77.213  26.434  51.683
16220DT     BB1 5366  77.970  26.603  51.811
16220DT     BB2 5367  77.794  26.868  51.983
16220DT     BB3 5368  77.731  26.802  52.168
16220DT     SC1 5369  77.539  26.658  52.061
16220DT     SC2 5370  77.349  26.746  52.110
16220DT     SC3 5371  77.396  26.448  51.991
16221DC     BB1 5372  77.915  26.966  52.267
16221DC     BB2 5373  77.602  27.076  52.409
16221DC     BB3 5374  77.558  26.964  52.577
16221DC     SC1 5375  77.490  26.757  52.431
16221DC     SC2 5376  77.277  26.727  52.444
16221DC     SC3 5377  77.492  26.515  52.327
16222DA     BB1 5378  77.522  27.374  52.653
16222DA     BB2 5379  77.220  27.207  52.777
16222DA     BB3 5380  77.266  27.091  52.951
16222DA     SC1 5381  77.329  26.832  52.790
16222DA     SC2 5382  77.228  26.607  52.756
16222DA     SC3 5383  77.462  26.535  52.679
16222DA     SC4 5384  77.482  26.807  52.747
16223DA     BB1 5385  77.013  27.274  53.045
16223DA     BB2 5386  76.839  26.958  53.112
16223DA     BB3 5387  76.922  26.863  53.283
16223DA     SC1 5388  77.131  26.699  53.121
16223DA     SC2 5389  77.172  26.461  53.059
16223DA     SC3 5390  77.414  26.535  53.015
16223DA     SC4 5391  77.277  26.764  53.101
16224DT     BB1 5392  76.805  26.848  53.439
16224DT     BB2 5393  76.743  26.493  53.419
16224DT     BB3 5394  76.856  26.393  53.561
16224DT     SC1 5395  77.075  26.426  53.420
16224DT     SC2 5396  77.139  26.236  53.342
16224DT     SC3 5397  77.317  26.507  53.352
16225DT     BB1 5398  76.633  26.345  53.709
16225DT     BB2 5399  76.775  26.018  53.653
16225DT     BB3 5400  76.915  25.976  53.800
16225DT     SC1 5401  77.089  26.139  53.692
16225DT     SC2 5402  77.252  26.025  53.609
16225DT     SC3 5403  77.252  26.344  53.663
16226DA     BB1 5404  76.652  25.649  53.799
16226DA     BB2 5405  76.993  25.516  53.796
16226DA     BB3 5406  77.083  25.537  53.988
16226DA     SC1 5407  77.205  25.817  53.928
16226DA     SC2 5408  77.431  25.916  53.892
16226DA     SC3 5409  77.319  26.140  53.950
16226DA     SC4 5410  77.118  25.946  53.968
16227DA     BB1 5411  77.136  25.212  53.959
16227DA     BB2 5412  77.495  25.283  53.983
16227DA     BB3 5413  77.549  25.322  54.186
16227DA     SC1 5414  77.502  25.629  54.166
16227DA     SC2 5415  77.639  25.837  54.166
16227DA     SC3 5416  77.421  25.956  54.229
16227DA     SC4 5417  77.356  25.684  54.206
16228DA     BB1 5418  77.770  25.084  54.130
16228DA     BB2 5419  78.031  25.331  54.202
16228DA     BB3 5420  78.046  25.364  54.412
16228DA     SC1 5421  77.840  25.598  54.415
16228DA     SC2 5422  77.842  25.845  54.450
16228DA     SC3 5423  77.591  25.819  54.499
16228DA     SC4 5424  77.686  25.561  54.443
16229DT     BB1 5425  78.216  25.306  54.514
16229DT     BB2 5426  78.353  25.635  54.566
16229DT     BB3 5427  78.330  25.691  54.764
16229DT     SC1 5428  78.073  25.735  54.729
16229DT     SC2 5429  78.035  25.947  54.742
16229DT     SC3 5430  77.812  25.712  54.755
16230DA     BB1 5431  78.738  25.746  54.684
16230DA     BB2 5432  78.618  26.050  54.848
16230DA     BB3 5433  78.590  26.016  55.057
16230DA     SC1 5434  78.293  25.929  55.029
16230DA     SC2 5435  78.068  26.018  55.088
16230DA     SC3 5436  77.988  25.775  55.064
16230DA     SC4 5437  78.263  25.772  55.011
16231DT     BB1 5438  78.714  26.110  55.209
16231DT     BB2 5439  78.467  26.345  55.328
16231DT     BB3 5440  78.401  26.289  55.515
16231DT     SC1 5441  78.257  26.094  55.415
16231DT     SC2 5442  78.048  26.140  55.436
16231DT     SC3 5443  78.171  25.849  55.364
16232DT     BB1 5444  78.539  26.492  55.643
16232DT     BB2 5445  78.196  26.542  55.745
16232DT     BB3 5446  78.158  26.433  55.917
16232DT     SC1 5447  78.150  26.208  55.782
16232DT     SC2 5448  77.948  26.134  55.778
16232DT     SC3 5449  78.214  25.966  55.700
16233DA     BB1 5450  78.039  26.825  56.008
16233DA     BB2 5451  77.764  26.602  56.105
16233DA     BB3 5452  77.812  26.499  56.286
16233DA     SC1 5453  77.943  26.256  56.142
16233DA     SC2 5454  77.892  26.015  56.104
16233DA     SC3 5455  78.143  25.991  56.055
16233DA     SC4 5456  78.102  26.261  56.116
16234DA     BB1 5457  77.524  26.625  56.381
16234DA     BB2 5458  77.408  26.280  56.425
16234DA     BB3 5459  77.489  26.197  56.604
16234DA     SC1 5460  77.742  26.081  56.465
16234DA     SC2 5461  77.833  25.857  56.406
16234DA     SC3 5462  78.060  25.976  56.390
16234DA     SC4 5463  77.874  26.173  56.462
16235DT     BB1 5464  77.363  26.151  56.761
16235DT     BB2 5465  77.371  25.793  56.721
16235DT     BB3 5466  77.487  25.708  56.870
16235DT     SC1 5467  77.709  25.788  56.755
16235DT     SC2 5468  77.815  25.618  56.678
16235DT     SC3 5469  77.936  25.916  56.717
16236DG     BB1 5470  77.118  25.537  56.907
16236DG     BB2 5471  77.376  25.285  56.888
16236DG     BB3 5472  77.466  25.267  57.065
16236DG     SC1 5473  77.679  25.479  57.007
16236DG     SC2 5474  77.971  25.430  56.976
16236DG     SC3 5475  77.914  25.720  56.985
16236DG     SC4 5476  77.647  25.632  57.042
16237DA     BB1 5477  77.405  24.922  57.058
16237DA     BB2 5478  77.765  24.854  57.076
16237DA     BB3 5479  77.835  24.877  57.276
16237DA     SC1 5480  77.906  25.178  57.243
16237DA     SC2 5481  78.111  25.320  57.232
16237DA     SC3 5482  77.955  25.514  57.293
16237DA     SC4 5483  77.793  25.286  57.282
16238DC     BB1 5484  77.907  24.710  57.396
16238DC     BB2 5485  78.258  24.791  57.375
16238DC     BB3 5486  78.325  24.860  57.558
16238DC     SC1 5487  78.206  25.092  57.523
16238DC     SC2 5488  78.354  25.245  57.493
16238DC     SC3 5489  78.041  25.294  57.561
16239DA     BB1 5490  78.589  24.548  57.463
16239DA     BB2 5491  78.793  24.839  57.552
16239DA     BB3 5492  78.795  24.866  57.764
16239DA     SC1 5493  78.547  25.054  57.767
16239DA     SC2 5494  78.498  25.295  57.810
16239DA     SC3 5495  78.256  25.218  57.848
16239DA     SC4 5496  78.402  24.986  57.788
16240DA     BB1 5497  79.118  24.857  57.717
16240DA     BB2 5498  79.127  25.201  57.843
16240DA     BB3 5499  79.110  25.203  58.055
16240DA     SC1 5500  78.800  25.223  58.055
16240DA     SC2 5501  78.626  25.393  58.113
16240DA     SC3 5502  78.466  25.193  58.129
16240DA     SC4 5503  78.716  25.086  58.061
16241DA     BB1 5504  79.379  25.379  58.012
16241DA     BB2 5505  79.199  25.656  58.169
16241DA     BB3 5506  79.186  25.626  58.380
16241DA     SC1 5507  78.915  25.473  58.367
16241DA     SC2 5508  78.678  25.513  58.432
16241DA     SC3 5509  78.654  25.257  58.421
16241DA     SC4 5510  78.921  25.313  58.356
16242DT     BB1 5511  79.278  25.758  58.474
16242DT     BB2 5512  78.990  25.939  58.592
16242DT     BB3 5513  78.950  25.888  58.789
16242DT     SC1 5514  78.853  25.655  58.718
16242DT     SC2 5515  78.640  25.653  58.752
16242DT     SC3 5516  78.826  25.394  58.695
16243DC     BB1 5517  79.031  26.134  58.842
16243DC     BB2 5518  78.697  26.113  58.977
16243DC     BB3 5519  78.702  26.027  59.164
16243DC     SC1 5520  78.742  25.789  59.062
16243DC     SC2 5521  78.567  25.667  59.092
16243DC     SC3 5522  78.861  25.560  59.006
16244DA     BB1 5523  78.480  26.382  59.177
16244DA     BB2 5524  78.287  26.122  59.348
16244DA     BB3 5525  78.378  26.073  59.535
16244DA     SC1 5526  78.557  25.847  59.417
16244DA     SC2 5527  78.571  25.598  59.428
16244DA     SC3 5528  78.813  25.629  59.348
16244DA     SC4 5529  78.705  25.887  59.368
16245DT     BB1 5530  78.275  26.118  59.694
16245DT     BB2 5531  78.183  25.782  59.788
16245DT     BB3 5532  78.300  25.717  59.945
16245DT     SC1 5533  78.507  25.683  59.787
16245DT     SC2 5534  78.547  25.473  59.766
16245DT     SC3 5535  78.747  25.713  59.681
16246DA     BB1 5536  77.901  25.652  60.055
16246DA     BB2 5537  78.089  25.346  60.128
16246DA     BB3 5538  78.213  25.374  60.299
16246DA     SC1 5539  78.459  25.471  60.134
16246DA     SC2 5540  78.685  25.386  60.074
16246DA     SC3 5541  78.742  25.632  60.025
16246DA     SC4 5542  78.475  25.629  60.111
16247DT     BB1 5543  78.173  25.271  60.471
16247DT     BB2 5544  78.450  25.040  60.452
16247DT     BB3 5545  78.595  25.094  60.589
16247DT     SC1 5546  78.673  25.295  60.440
16247DT     SC2 5547  78.868  25.254  60.360
16247DT     SC3 5548  78.721  25.543  60.364
16248DG     BB1 5549  78.492  24.713  60.696
16248DG     BB2 5550  78.850  24.744  60.662
16248DG     BB3 5551  78.927  24.827  60.825
16248DG     SC1 5552  78.900  25.114  60.722
16248DG     SC2 5553  79.125  25.298  60.654
16248DG     SC3 5554  78.867  25.441  60.649
16248DG     SC4 5555  78.764  25.193  60.749
16249DC     BB1 5556  79.076  24.722  60.975
16249DC     BB2 5557  79.387  24.886  60.894
16249DC     BB3 5558  79.438  25.018  61.045
16249DC     SC1 5559  79.255  25.190  60.967
16249DC     SC2 5560  79.351  25.363  60.883
16249DC     SC3 5561  79.040  25.342  60.972
16250DT     BB1 5562  79.644  24.858  61.153
16250DT     BB2 5563  79.808  25.172  61.084
16250DT     BB3 5564  79.798  25.295  61.250
16250DT     SC1 5565  79.545  25.346  61.206
16250DT     SC2 5566  79.523  25.551  61.145
16250DT     SC3 5567  79.283  25.356  61.242
16251DA     BB1 5568  80.212  25.285  61.175
16251DA     BB2 5569  80.119  25.638  61.216
16251DA     BB3 5570  80.094  25.684  61.423
16251DA     SC1 5571  79.790  25.616  61.426
16251DA     SC2 5572  79.574  25.739  61.447
16251DA     SC3 5573  79.475  25.512  61.513
16251DA     SC4 5574  79.748  25.467  61.466
16252DT     BB1 5575  80.225  25.817  61.526
16252DT     BB2 5576  79.997  26.096  61.537
16252DT     BB3 5577  79.927  26.122  61.730
16252DT     SC1 5578  79.769  25.914  61.709
16252DT     SC2 5579  79.564  25.980  61.704
16252DT     SC3 5580  79.664  25.676  61.753
16253DA     BB1 5581  80.077  26.493  61.606
16253DA     BB2 5582  79.738  26.546  61.736
16253DA     BB3 5583  79.737  26.532  61.949
16253DA     SC1 5584  79.678  26.227  61.953
16253DA     SC2 5585  79.490  26.076  62.016
16253DA     SC3 5586  79.668  25.893  62.031
16253DA     SC4 5587  79.804  26.127  61.959
16254DA     BB1 5588  79.594  26.821  61.900
16254DA     BB2 5589  79.299  26.676  62.062
16254DA     BB3 5590  79.331  26.659  62.272
16254DA     SC1 5591  79.448  26.372  62.256
16254DA     SC2 5592  79.380  26.141  62.321
16254DA     SC3 5593  79.630  26.085  62.306
16254DA     SC4 5594  79.607  26.357  62.243
16255DT     BB1 5595  79.214  26.767  62.371
16255DT     BB2 5596  79.000  26.502  62.489
16255DT     BB3 5597  79.050  26.453  62.684
16255DT     SC1 5598  79.266  26.327  62.605
16255DT     SC2 5599  79.241  26.116  62.636
16255DT     SC3 5600  79.521  26.267  62.576
16256DT     BB1 5601  78.817  26.561  62.735
16256DT     BB2 5602  78.798  26.224  62.862
16256DT     BB3 5603  78.890  26.212  63.047
16256DT     SC1 5604  79.128  26.224  62.938
16256DT     SC2 5605  79.226  26.034  62.960
16256DT     SC3 5606  79.369  26.313  62.876
16257DT     BB1 5607  78.645  26.180  63.138
16257DT     BB2 5608  78.828  25.891  63.252
16257DT     BB3 5609  78.935  25.938  63.423
16257DT     SC1 5610  79.112  26.073  63.285
16257DT     SC2 5611  79.300  25.967  63.286
16257DT     SC3 5612  79.256  26.276  63.197
16258DT     BB1 5613  78.761  25.784  63.551
16258DT     BB2 5614  79.085  25.645  63.629
16258DT     BB3 5615  79.172  25.751  63.785
16258DT     SC1 5616  79.227  25.953  63.627
16258DT     SC2 5617  79.440  25.965  63.598
16258DT     SC3 5618  79.225  26.196  63.525
16259DT     BB1 5619  79.128  25.541  63.949
16259DT     BB2 5620  79.483  25.603  63.972
16259DT     BB3 5621  79.520  25.749  64.114
16259DT     SC1 5622  79.435  25.938  63.953
16259DT     SC2 5623  79.601  26.059  63.892
16259DT     SC3 5624  79.288  26.135  63.858
16260DC     BB1 5625  79.620  25.565  64.291
16260DC     BB2 5626  79.885  25.806  64.254
16260DC     BB3 5627  79.859  25.961  64.388
16260DC     SC1 5628  79.663  26.062  64.246
16260DC     SC2 5629  79.727  26.248  64.158
16260DC     SC3 5630  79.421  26.143  64.180
16261DT     BB1 5631  80.068  25.877  64.551
16261DT     BB2 5632  80.154  26.216  64.465
16261DT     BB3 5633  80.072  26.348  64.602
16261DT     SC1 5634  79.832  26.317  64.499
16261DT     SC2 5635  79.773  26.499  64.401
16261DT     SC3 5636  79.578  26.252  64.479
16262DC     BB1 5637  80.316  26.401  64.720
16262DC     BB2 5638  80.195  26.724  64.616
16262DC     BB3 5639  80.079  26.808  64.766
16262DC     SC1 5640  79.879  26.647  64.713
16262DC     SC2 5641  79.718  26.759  64.627
16262DC     SC3 5642  79.698  26.458  64.744
16263DT     BB1 5643  80.274  26.994  64.833
16263DT     BB2 5644  79.985  27.193  64.750
16263DT     BB3 5645  79.870  27.224  64.919
16263DT     SC1 5646  79.779  26.977  64.911
16263DT     SC2 5647  79.571  26.979  64.858
16263DT     SC3 5648  79.733  26.728  64.982
16264DT     BB1 5649  79.947  27.485  64.928
16264DT     BB2 5650  79.587  27.496  64.902
16264DT     BB3 5651  79.502  27.486  65.090
16264DT     SC1 5652  79.555  27.230  65.110
16264DT     SC2 5653  79.372  27.118  65.102
16264DT     SC3 5654  79.660  27.004  65.198
16265DG     BB1 5655  79.374  27.823  64.901
16265DG     BB2 5656  79.098  27.621  65.018
16265DG     BB3 5657  79.074  27.645  65.214
16265DG     SC1 5658  79.264  27.416  65.289
16265DG     SC2 5659  79.186  27.160  65.421
16265DG     SC3 5660  79.480  27.186  65.408
16265DG     SC4 5661  79.420  27.447  65.307
16266DG     BB1 5662  78.778  27.727  65.120
16266DG     BB2 5663  78.670  27.440  65.311
16266DG     BB3 5664  78.668  27.484  65.505
16266DG     SC1 5665  78.957  27.398  65.553
16266DG     SC2 5666  79.046  27.166  65.719
16266DG     SC3 5667  79.277  27.331  65.637
16266DG     SC4 5668  79.075  27.505  65.533
16267DA     BB1 5669  78.363  27.337  65.451
16267DA     BB2 5670  78.447  27.091  65.710
16267DA     BB3 5671  78.453  27.185  65.902
16267DA     SC1 5672  78.756  27.253  65.885
16267DA     SC2 5673  78.968  27.179  65.994
16267DA     SC3 5674  79.064  27.402  65.912
16267DA     SC4 5675  78.797  27.397  65.826
16268DC     BB1 5676  78.330  27.107  65.988
16268DC     BB2 5677  78.539  26.920  66.215
16268DC     BB3 5678  78.572  27.029  66.388
16268DC     SC1 5679  78.740  27.188  66.265
16268DC     SC2 5680  78.939  27.152  66.339
16268DC     SC3 5681  78.845  27.408  66.163
16269DG     BB1 5682  78.424  26.655  66.463
16269DG     BB2 5683  78.712  26.732  66.668
16269DG     BB3 5684  78.663  26.866  66.806
16269DG     SC1 5685  78.731  27.108  66.632
16269DG     SC2 5686  78.954  27.302  66.680
16269DG     SC3 5687  78.777  27.395  66.461
16269DG     SC4 5688  78.618  27.169  66.536
16270DT     BB1 5689  78.673  26.815  67.015
16270DT     BB2 5690  78.951  27.011  67.137
16270DT     BB3 5691  78.881  27.182  67.230
16270DT     SC1 5692  78.822  27.293  66.999
16270DT     SC2 5693  78.957  27.457  66.962
16270DT     SC3 5694  78.681  27.399  66.803
16271DG     BB1 5695  79.072  27.011  67.555
16271DG     BB2 5696  79.166  27.359  67.526
16271DG     BB3 5697  79.027  27.474  67.609
16271DG     SC1 5698  78.864  27.504  67.352
16271DG     SC2 5699  78.825  27.757  67.197
16271DG     SC3 5700  78.650  27.542  67.093
16271DG     SC4 5701  78.751  27.396  67.318
16272DC     BB1 5702  79.018  27.633  67.828
16272DC     BB2 5703  79.030  27.957  67.672
16272DC     BB3 5704  78.848  28.054  67.696
16272DC     SC1 5705  78.734  27.902  67.515
16272DC     SC2 5706  78.690  28.020  67.341
16272DC     SC3 5707  78.571  27.725  67.406
16273DC     BB1 5708  78.907  28.252  67.911
16273DC     BB2 5709  78.784  28.458  67.642
16273DC     BB3 5710  78.581  28.494  67.668
16273DC     SC1 5711  78.521  28.250  67.592
16273DC     SC2 5712  78.423  28.257  67.400
16273DC     SC3 5713  78.430  28.002  67.601
16274DA     BB1 5714  78.741  28.880  67.634
16274DA     BB2 5715  78.469  28.853  67.390
16274DA     BB3 5716  78.280  28.869  67.488
16274DA     SC1 5717  78.252  28.563  67.537
16274DA     SC2 5718  78.110  28.375  67.453
16274DA     SC3 5719  78.181  28.253  67.668
16274DA     SC4 5720  78.306  28.504  67.676
16275DG     BB1 5721  78.249  29.114  67.302
16275DG     BB2 5722  77.992  28.907  67.154
16275DG     BB3 5723  77.823  28.924  67.258
16275DG     SC1 5724  77.889  28.693  67.448
16275DG     SC2 5725  77.744  28.432  67.463
16275DG     SC3 5726  77.937  28.459  67.686
16275DG     SC4 5727  77.971  28.724  67.582
16276DA     BB1 5728  77.697  28.983  66.945
16276DA     BB2 5729  77.478  28.692  66.983
16276DA     BB3 5730  77.320  28.735  67.119
16276DA     SC1 5731  77.475  28.636  67.370
16276DA     SC2 5732  77.464  28.446  67.531
16276DA     SC3 5733  77.603  28.596  67.686
16276DA     SC4 5734  77.561  28.745  67.452
16277DA     BB1 5735  77.173  28.618  66.852
16277DA     BB2 5736  77.043  28.354  67.071
16277DA     BB3 5737  76.898  28.434  67.205
16277DA     SC1 5738  77.105  28.501  67.428
16277DA     SC2 5739  77.163  28.419  67.656
16277DA     SC3 5740  77.278  28.647  67.686
16277DA     SC4 5741  77.169  28.649  67.428
16278DG     BB1 5742  76.729  28.220  67.060
16278DG     BB2 5743  76.715  28.077  67.392
16278DG     BB3 5744  76.582  28.175  67.503
16278DG     SC1 5745  76.785  28.380  67.607
16278DG     SC2 5746  76.877  28.406  67.890
16278DG     SC3 5747  76.975  28.632  67.726
16278DG     SC4 5748  76.810  28.514  67.523
16279DA     BB1 5749  76.446  27.863  67.572
16279DA     BB2 5750  76.505  27.919  67.930
16279DA     BB3 5751  76.362  28.057  68.008
16279DA     SC1 5752  76.537  28.307  67.953
16279DA     SC2 5753  76.665  28.477  68.085
16279DA     SC3 5754  76.650  28.622  67.874
16279DA     SC4 5755  76.517  28.383  67.812
16280DT     BB1 5756  76.223  27.992  68.145
16280DT     BB2 5757  76.374  28.149  68.433
16280DT     BB3 5758  76.265  28.315  68.489
16280DT     SC1 5759  76.358  28.454  68.287
16280DT     SC2 5760  76.489  28.607  68.361
16280DT     SC3 5761  76.363  28.592  68.062
16281DA     BB1 5762  76.307  28.078  68.832
16281DA     BB2 5763  76.408  28.419  68.918
16281DA     BB3 5764  76.236  28.545  68.934
16281DA     SC1 5765  76.241  28.632  68.635
16281DA     SC2 5766  76.290  28.838  68.503
16281DA     SC3 5767  76.157  28.725  68.315
16281DA     SC4 5768  76.154  28.546  68.531
16282DA     BB1 5769  76.374  28.603  69.224
16282DA     BB2 5770  76.405  28.953  69.117
16282DA     BB3 5771  76.216  29.051  69.129
16282DA     SC1 5772  76.135  28.982  68.836
16282DA     SC2 5773  76.103  29.102  68.620
16282DA     SC3 5774  75.963  28.899  68.551
16282DA     SC4 5775  76.051  28.847  68.813
16283DT     BB1 5776  76.209  29.193  69.258
16283DT     BB2 5777  76.215  29.467  69.024
16283DT     BB3 5778  76.024  29.545  69.002
16283DT     SC1 5779  75.948  29.341  68.856
16283DT     SC2 5780  75.918  29.405  68.653
16283DT     SC3 5781  75.817  29.125  68.781
16284DT     BB1 5782  76.113  29.759  69.136
16284DT     BB2 5783  75.988  29.891  68.825
16284DT     BB3 5784  75.784  29.924  68.839
16284DT     SC1 5785  75.734  29.667  68.821
16284DT     SC2 5786  75.640  29.625  68.632
16284DT     SC3 5787  75.652  29.425  68.887
16285DA     BB1 5788  75.961  30.276  68.695
16285DA     BB2 5789  75.670  30.203  68.485
16285DA     BB3 5790  75.489  30.242  68.591
16285DA     SC1 5791  75.465  29.953  68.705
16285DA     SC2 5792  75.318  29.754  68.673
16285DA     SC3 5793  75.406  29.678  68.902
16285DA     SC4 5794  75.531  29.924  68.849
16286DT     BB1 5795  75.363  30.399  68.535
16286DT     BB2 5796  75.098  30.198  68.396
16286DT     BB3 5797  74.935  30.197  68.524
16286DT     SC1 5798  75.057  30.033  68.689
16286DT     SC2 5799  74.960  29.841  68.683
16286DT     SC3 5800  75.171  29.941  68.908
16287DC     BB1 5801  74.772  30.375  68.373
16287DC     BB2 5802  74.561  30.085  68.416
16287DC     BB3 5803  74.445  30.106  68.586
16287DC     SC1 5804  74.651  30.057  68.742
16287DC     SC2 5805  74.625  29.866  68.837
16287DC     SC3 5806  74.839  30.094  68.923
16288DC     BB1 5807  74.192  30.168  68.459
16288DC     BB2 5808  74.114  29.883  68.666
16288DC     BB3 5809  74.042  29.946  68.850
16288DC     SC1 5810  74.283  30.015  68.928
16288DC     SC2 5811  74.349  29.881  69.083
16288DC     SC3 5812  74.484  30.166  69.008
16289DT     BB1 5813  73.766  29.883  68.805
16289DT     BB2 5814  73.851  29.696  69.102
16289DT     BB3 5815  73.806  29.807  69.271
16289DT     SC1 5816  74.014  29.962  69.234
16289DT     SC2 5817  74.160  29.924  69.388
16289DT     SC3 5818  74.157  30.178  69.187
16290DA     BB1 5819  73.612  29.441  69.324
16290DA     BB2 5820  73.808  29.507  69.627
16290DA     BB3 5821  73.710  29.653  69.748
16290DA     SC1 5822  73.855  29.895  69.616
16290DA     SC2 5823  74.027  30.064  69.679
16290DA     SC3 5824  73.933  30.202  69.484
16290DA     SC4 5825  73.782  29.966  69.492
16291DC     BB1 5826  73.647  29.590  69.924
16291DC     BB2 5827  73.906  29.747  70.119
16291DC     BB3 5828  73.830  29.913  70.217
16291DC     SC1 5829  73.827  30.052  69.994
16291DC     SC2 5830  73.976  30.206  70.004
16291DC     SC3 5831  73.735  30.190  69.789
16292DA     BB1 5832  74.046  29.661  70.472
16292DA     BB2 5833  74.164  30.005  70.519
16292DA     BB3 5834  74.015  30.121  70.617
16292DA     SC1 5835  73.881  30.217  70.353
16292DA     SC2 5836  73.858  30.429  70.224
16292DA     SC3 5837  73.658  30.315  70.111
16292DA     SC4 5838  73.759  30.129  70.296
16293DT     BB1 5839  74.078  30.174  70.777
16293DT     BB2 5840  74.128  30.522  70.696
16293DT     BB3 5841  73.967  30.634  70.761
16293DT     SC1 5842  73.816  30.545  70.565
16293DT     SC2 5843  73.777  30.705  70.427
16293DT     SC3 5844  73.619  30.423  70.439
16294DA     BB1 5845  74.331  30.805  70.880
16294DA     BB2 5846  74.119  31.069  70.740
16294DA     BB3 5847  73.955  31.110  70.871
16294DA     SC1 5848  73.765  30.903  70.737
16294DA     SC2 5849  73.559  30.906  70.597
16294DA     SC3 5850  73.527  30.664  70.675
16294DA     SC4 5851  73.762  30.755  70.798
16295DC     BB1 5852  73.961  31.282  70.944
16295DC     BB2 5853  73.685  31.425  70.761
16295DC     BB3 5854  73.515  31.426  70.879
16295DC     SC1 5855  73.483  31.168  70.848
16295DC     SC2 5856  73.309  31.132  70.727
16295DC     SC3 5857  73.464  30.911  70.907
16296DT     BB1 5858  73.539  31.694  70.902
16296DT     BB2 5859  73.203  31.646  70.781
16296DT     BB3 5860  73.075  31.611  70.940
16296DT     SC1 5861  73.166  31.367  70.970
16296DT     SC2 5862  73.013  31.226  70.912
16296DT     SC3 5863  73.282  31.157  71.079
16297DT     BB1 5864  72.962  31.863  70.923
16297DT     BB2 5865  72.677  31.642  70.911
16297DT     BB3 5866  72.611  31.601  71.103
16297DT     SC1 5867  72.813  31.440  71.146
16297DT     SC2 5868  72.741  31.237  71.158
16297DT     SC3 5869  73.034  31.341  71.252
16298DA     BB1 5870  72.254  31.749  70.931
16298DA     BB2 5871  72.165  31.441  71.109
16298DA     BB3 5872  72.153  31.477  71.319
16298DA     SC1 5873  72.451  31.407  71.373
16298DA     SC2 5874  72.581  31.227  71.485
16298DA     SC3 5875  72.772  31.398  71.493
16298DA     SC4 5876  72.557  31.528  71.369
16299DT     BB1 5877  71.956  31.483  71.471
16299DT     BB2 5878  72.021  31.168  71.635
16299DT     BB3 5879  72.069  31.201  71.834
16299DT     SC1 5880  72.308  31.289  71.771
16299DT     SC2 5881  72.456  31.147  71.835
16299DT     SC3 5882  72.513  31.453  71.745
16300DT     BB1 5883  71.814  31.125  71.982
16300DT     BB2 5884  72.063  30.917  72.139
16300DT     BB3 5885  72.129  31.005  72.314
16300DT     SC1 5886  72.271  31.181  72.180
16300DT     SC2 5887  72.480  31.140  72.208
16300DT     SC3 5888  72.355  31.413  72.087
16301DC     BB1 5889  71.989  30.845  72.528
16301DC     BB2 5890  72.339  30.808  72.612
16301DC     BB3 5891  72.391  30.943  72.759
16301DC     SC1 5892  72.389  31.142  72.587
16301DC     SC2 5893  72.590  31.211  72.555
16301DC     SC3 5894  72.320  31.368  72.470
16302DA     BB1 5895  72.510  30.571  72.907
16302DA     BB2 5896  72.801  30.794  72.922
16302DA     BB3 5897  72.783  30.928  73.088
16302DA     SC1 5898  72.636  31.149  72.924
16302DA     SC2 5899  72.685  31.378  72.838
16302DA     SC3 5900  72.431  31.405  72.823
16302DA     SC4 5901  72.476  31.147  72.924
16303DT     BB1 5902  72.918  30.907  73.227
16303DT     BB2 5903  73.113  31.196  73.137
16303DT     BB3 5904  73.078  31.349  73.272
16303DT     SC1 5905  72.843  31.399  73.168
16303DT     SC2 5906  72.848  31.588  73.066
16303DT     SC3 5907  72.581  31.422  73.146
16304DT     BB1 5908  73.326  31.303  73.351
16304DT     BB2 5909  73.322  31.649  73.249
16304DT     BB3 5910  73.251  31.767  73.404
16304DT     SC1 5911  73.005  31.687  73.362
16304DT     SC2 5912  72.889  31.850  73.282
16304DT     SC3 5913  72.770  31.574  73.403
16305DA     BB1 5914  73.612  31.926  73.259
16305DA     BB2 5915  73.368  32.198  73.282
16305DA     BB3 5916  73.331  32.247  73.487
16305DA     SC1 5917  73.094  32.048  73.517
16305DA     SC2 5918  72.846  32.059  73.546
16305DA     SC3 5919  72.866  31.820  73.635
16305DA     SC4 5920  73.127  31.901  73.571
16306DG     BB1 5921  73.437  32.529  73.405
16306DG     BB2 5922  73.101  32.632  73.489
16306DG     BB3 5923  73.085  32.658  73.686
16306DG     SC1 5924  73.003  32.368  73.742
16306DG     SC2 5925  72.737  32.278  73.843
16306DG     SC3 5926  72.930  32.054  73.842
16306DG     SC4 5927  73.117  32.259  73.768
16307DT     BB1 5928  73.039  32.861  73.787
16307DT     BB2 5929  72.695  32.814  73.882
16307DT     BB3 5930  72.681  32.786  74.087
16307DT     SC1 5931  72.774  32.542  74.067
16307DT     SC2 5932  72.617  32.402  74.112
16307DT     SC3 5933  72.933  32.334  74.098
16308DG     BB1 5934  72.452  33.113  74.006
16308DG     BB2 5935  72.264  32.863  74.187
16308DG     BB3 5936  72.308  32.873  74.381
16308DG     SC1 5937  72.541  32.675  74.364
16308DG     SC2 5938  72.550  32.404  74.487
16308DG     SC3 5939  72.814  32.478  74.378
16308DG     SC4 5940  72.687  32.731  74.331
16309DC     BB1 5941  72.150  32.919  74.520
16309DC     BB2 5942  72.088  32.593  74.662
16309DC     BB3 5943  72.172  32.581  74.851
16309DC     SC1 5944  72.414  32.561  74.751
16309DC     SC2 5945  72.489  32.362  74.786
16309DC     SC3 5946  72.665  32.618  74.695
16310DC     BB1 5947  71.921  32.575  74.916
16310DC     BB2 5948  72.064  32.269  75.044
16310DC     BB3 5949  72.161  32.306  75.223
16310DC     SC1 5950  72.362  32.421  75.099
16310DC     SC2 5951  72.537  32.297  75.115
16310DC     SC3 5952  72.532  32.608  75.023
16311DC     BB1 5953  71.965  32.155  75.286
16311DC     BB2 5954  72.263  31.985  75.397
16311DC     BB3 5955  72.336  32.075  75.569
16311DC     SC1 5956  72.429  32.279  75.432
16311DC     SC2 5957  72.644  32.273  75.432
16311DC     SC3 5958  72.460  32.526  75.346
16312DA     BB1 5959  72.319  31.649  75.576
16312DA     BB2 5960  72.640  31.761  75.711
16312DA     BB3 5961  72.611  31.870  75.892
16312DA     SC1 5962  72.588  32.146  75.750
16312DA     SC2 5963  72.722  32.356  75.731
16312DA     SC3 5964  72.501  32.466  75.660
16312DA     SC4 5965  72.441  32.197  75.709
16313DG     BB1 5966  72.794  31.643  75.995
16313DG     BB2 5967  73.014  31.920  76.073
16313DG     BB3 5968  72.950  32.012  76.237
16313DG     SC1 5969  72.769  32.208  76.086
16313DG     SC2 5970  72.808  32.503  76.066
16313DG     SC3 5971  72.545  32.423  75.955
16313DG     SC4 5972  72.618  32.165  76.055
16314DA     BB1 5973  73.274  31.977  76.363
16314DA     BB2 5974  73.300  32.340  76.400
16314DA     BB3 5975  73.186  32.406  76.569
16314DA     SC1 5976  72.926  32.454  76.404
16314DA     SC2 5977  72.789  32.648  76.328
16314DA     SC3 5978  72.600  32.477  76.300
16314DA     SC4 5979  72.821  32.333  76.395
16315DT     BB1 5980  73.282  32.484  76.730
16315DT     BB2 5981  73.191  32.828  76.674
16315DT     BB3 5982  73.044  32.885  76.807
16315DT     SC1 5983  72.861  32.751  76.675
16315DT     SC2 5984  72.726  32.888  76.581
16315DT     SC3 5985  72.676  32.570  76.621
16316DT     BB1 5986  73.227  33.035  76.932
16316DT     BB2 5987  72.964  33.266  76.841
16316DT     BB3 5988  72.815  33.264  76.985
16316DT     SC1 5989  72.726  33.032  76.900
16316DT     SC2 5990  72.534  33.058  76.807
16316DT     SC3 5991  72.663  32.776  76.899
16317DG     BB1 5992  72.955  33.643  76.933
16317DG     BB2 5993  72.594  33.627  76.905
16317DG     BB3 5994  72.513  33.607  77.085
16317DG     SC1 5995  72.520  33.301  77.081
16317DG     SC2 5996  72.282  33.120  77.073
16317DG     SC3 5997  72.530  32.966  77.118
16317DG     SC4 5998  72.650  33.225  77.134
16318DT     BB1 5999  72.387  33.757  77.144
16318DT     BB2 6000  72.062  33.601  77.127
16318DT     BB3 6001  72.005  33.535  77.315
16318DT     SC1 6002  72.172  33.333  77.304
16318DT     SC2 6003  72.062  33.150  77.287
16318DT     SC3 6004  72.376  33.176  77.362
16319DG     BB1 6005  71.712  33.790  77.188
16319DG     BB2 6006  71.572  33.480  77.309
16319DG     BB3 6007  71.575  33.477  77.508
16319DG     SC1 6008  71.853  33.351  77.527
16319DG     SC2 6009  71.916  33.078  77.631
16319DG     SC3 6010  72.164  33.232  77.585
16319DG     SC4 6011  71.982  33.447  77.529
16320DT     BB1 6012  71.385  33.477  77.663
16320DT     BB2 6013  71.393  33.139  77.788
16320DT     BB3 6014  71.464  33.137  77.983
16320DT     SC1 6015  71.710  33.179  77.902
16320DT     SC2 6016  71.827  33.002  77.936
16320DT     SC3 6017  71.943  33.297  77.868
16321DT     BB1 6018  71.215  33.108  78.158
16321DT     BB2 6019  71.423  32.838  78.275
16321DT     BB3 6020  71.527  32.897  78.443
16321DT     SC1 6021  71.691  33.044  78.300
16321DT     SC2 6022  71.887  32.954  78.301
16321DT     SC3 6023  71.816  33.256  78.207
16322DA     BB1 6024  71.335  32.565  78.632
16322DA     BB2 6025  71.694  32.528  78.699
16322DA     BB3 6026  71.751  32.648  78.865
16322DA     SC1 6027  71.822  32.897  78.692
16322DA     SC2 6028  72.026  33.023  78.624
16322DA     SC3 6029  71.866  33.216  78.573
16322DA     SC4 6030  71.706  33.006  78.668
16323DT     BB1 6031  71.824  32.571  79.071
16323DT     BB2 6032  72.173  32.634  79.004
16323DT     BB3 6033  72.243  32.785  79.127
16323DT     SC1 6034  72.118  32.968  78.987
16323DT     SC2 6035  72.263  33.088  78.882
16323DT     SC3 6036  71.950  33.162  78.925
16324DT     BB1 6037  72.385  32.598  79.257
16324DT     BB2 6038  72.629  32.831  79.127
16324DT     BB3 6039  72.654  32.988  79.260
16324DT     SC1 6040  72.424  33.093  79.191
16324DT     SC2 6041  72.459  33.276  79.082
16324DT     SC3 6042  72.176  33.181  79.208
16325DA     BB1 6043  73.011  32.816  79.118
16325DA     BB2 6044  73.031  33.180  79.081
16325DA     BB3 6045  73.041  33.274  79.272
16325DA     SC1 6046  72.733  33.306  79.301
16325DA     SC2 6047  72.565  33.491  79.300
16325DA     SC3 6048  72.411  33.324  79.420
16325DA     SC4 6049  72.653  33.188  79.376
16326DA     BB1 6050  73.278  33.392  79.078
16326DA     BB2 6051  73.127  33.719  79.143
16326DA     BB3 6052  73.149  33.771  79.348
16326DA     SC1 6053  72.879  33.643  79.435
16326DA     SC2 6054  72.655  33.720  79.514
16326DA     SC3 6055  72.628  33.481  79.605
16326DA     SC4 6056  72.882  33.491  79.485
16327DA     BB1 6057  73.265  34.036  79.190
16327DA     BB2 6058  73.012  34.228  79.375
16327DA     BB3 6059  73.062  34.236  79.582
16327DA     SC1 6060  72.904  33.979  79.656
16327DA     SC2 6061  72.698  33.919  79.783
16327DA     SC3 6062  72.798  33.684  79.795
16327DA     SC4 6063  72.984  33.839  79.654
16328DG     BB1 6064  73.078  34.552  79.555
16328DG     BB2 6065  72.809  34.547  79.796
16328DG     BB3 6066  72.883  34.529  79.980
16328DG     SC1 6067  72.878  34.222  79.979
16328DG     SC2 6068  72.705  34.049  80.149
16328DG     SC3 6069  72.905  33.887  80.004
16328DG     SC4 6070  73.005  34.143  79.923
16329DT     BB1 6071  72.887  34.693  80.185
16329DT     BB2 6072  72.639  34.539  80.397
16329DT     BB3 6073  72.729  34.456  80.564
16329DT     SC1 6074  72.823  34.256  80.422
16329DT     SC2 6075  72.721  34.075  80.479
16329DT     SC3 6076  72.995  34.093  80.306
16330DT     BB1 6077  72.673  34.653  80.792
16330DT     BB2 6078  72.540  34.343  80.918
16330DT     BB3 6079  72.679  34.252  81.043
16330DT     SC1 6080  72.825  34.178  80.838
16330DT     SC2 6081  72.815  33.964  80.816
16330DT     SC3 6082  73.031  34.159  80.674
16331DT     BB1 6083  72.566  34.304  81.317
16331DT     BB2 6084  72.577  33.944  81.292
16331DT     BB3 6085  72.749  33.872  81.384
16331DT     SC1 6086  72.899  33.953  81.184
16331DT     SC2 6087  72.973  33.782  81.077
16331DT     SC3 6088  73.083  34.085  81.050
16332DG     BB1 6089  72.437  33.697  81.578
16332DG     BB2 6090  72.659  33.451  81.433
16332DG     BB3 6091  72.814  33.419  81.554
16332DG     SC1 6092  72.987  33.638  81.429
16332DG     SC2 6093  73.239  33.594  81.275
16332DG     SC3 6094  73.197  33.882  81.329
16332DG     SC4 6095  72.977  33.787  81.486
16333DT     BB1 6096  72.832  33.223  81.620
16333DT     BB2 6097  73.102  33.107  81.410
16333DT     BB3 6098  73.278  33.101  81.518
16333DT     SC1 6099  73.301  33.362  81.510
16333DT     SC2 6100  73.467  33.416  81.383
16333DT     SC3 6101  73.315  33.613  81.591
16334DA     BB1 6102  73.193  32.760  81.290
16334DA     BB2 6103  73.538  32.864  81.222
16334DA     BB3 6104  73.660  32.831  81.394
16334DA     SC1 6105  73.610  33.114  81.514
16334DA     SC2 6106  73.740  33.323  81.552
16334DA     SC3 6107  73.559  33.380  81.725
16334DA     SC4 6108  73.489  33.130  81.618
16335DA     BB1 6109  73.807  32.701  81.134
16335DA     BB2 6110  74.087  32.923  81.216
16335DA     BB3 6111  74.179  32.861  81.399
16335DA     SC1 6112  74.000  33.041  81.579
16335DA     SC2 6113  74.026  33.245  81.719
16335DA     SC3 6114  73.810  33.169  81.834
16335DA     SC4 6115  73.866  32.976  81.638
16336DA     BB1 6116  74.425  32.887  81.186
16336DA     BB2 6117  74.572  33.128  81.420
16336DA     BB3 6118  74.640  33.028  81.595
16336DA     SC1 6119  74.372  33.061  81.749
16336DA     SC2 6120  74.285  33.190  81.944
16336DA     SC3 6121  74.097  33.016  81.950
16336DA     SC4 6122  74.264  32.942  81.737
16337DA     BB1 6123  74.906  33.196  81.507
16337DA     BB2 6124  74.892  33.355  81.837
16337DA     BB3 6125  74.951  33.217  81.988
16337DA     SC1 6126  74.663  33.111  82.040
16337DA     SC2 6127  74.492  33.123  82.221
16337DA     SC3 6128  74.389  32.916  82.109
16337DA     SC4 6129  74.615  32.982  81.957
16338DA     BB1 6130  75.150  33.468  82.058
16338DA     BB2 6131  74.999  33.472  82.392
16338DA     BB3 6132  75.069  33.306  82.507
16338DA     SC1 6133  74.839  33.117  82.418
16338DA     SC2 6134  74.638  33.010  82.521
16338DA     SC3 6135  74.651  32.845  82.324
16338DA     SC4 6136  74.865  33.023  82.290
16339DT     BB1 6137  75.183  33.346  82.664
16339DT     BB2 6138  74.944  33.264  82.921
16339DT     BB3 6139  74.989  33.080  83.004
16339DT     SC1 6140  74.898  32.954  82.792
16339DT     SC2 6141  74.717  32.850  82.844
16339DT     SC3 6142  74.895  32.803  82.576
16340DA     BB1 6143  74.955  33.342  83.330
16340DA     BB2 6144  74.770  33.038  83.416
16340DA     BB3 6145  74.905  32.879  83.462
16340DA     SC1 6146  74.919  32.773  83.170
16340DA     SC2 6147  74.843  32.573  83.042
16340DA     SC3 6148  75.022  32.640  82.871
16340DA     SC4 6149  75.037  32.830  83.076
16341DA     BB1 6150  74.745  32.847  83.755
16341DA     BB2 6151  74.669  32.500  83.666
16341DA     BB3 6152  74.840  32.376  83.698
16341DA     SC1 6153  74.951  32.413  83.410
16341DA     SC2 6154  74.981  32.275  83.204
16341DA     SC3 6155  75.154  32.451  83.135
16341DA     SC4 6156  75.056  32.532  83.385
16342DA     BB1 6157  74.660  32.175  83.902
16342DA     BB2 6158  74.729  31.897  83.673
16342DA     BB3 6159  74.924  31.819  83.708
16342DA     SC1 6160  75.064  32.006  83.503
16342DA     SC2 6161  75.176  31.986  83.281
16342DA     SC3 6162  75.285  32.211  83.339
16342DA     SC4 6163  75.123  32.145  83.558
16343DT     BB1 6164  74.988  31.605  83.803
16343DT     BB2 6165  75.096  31.455  83.493
16343DT     BB3 6166  75.300  31.424  83.497
16343DT     SC1 6167  75.347  31.680  83.461
16343DT     SC2 6168  75.429  31.711  83.265
16343DT     SC3 6169  75.430  31.926  83.507
16344DT     BB1 6170  75.306  31.137  83.539
16344DT     BB2 6171  75.496  31.180  83.235
16344DT     BB3 6172  75.697  31.194  83.280
16344DT     SC1 6173  75.669  31.438  83.371
16344DT     SC2 6174  75.765  31.576  83.236
16344DT     SC3 6175  75.668  31.642  83.539
16345DT     BB1 6176  75.762  30.937  83.183
16345DT     BB2 6177  75.971  31.159  82.990
16345DT     BB3 6178  76.153  31.184  83.083
16345DT     SC1 6179  76.048  31.341  83.265
16345DT     SC2 6180  76.118  31.542  83.235
16345DT     SC3 6181  75.969  31.430  83.500
16346DC     BB1 6182  76.275  31.034  82.891
16346DC     BB2 6183  76.443  31.352  82.877
16346DC     BB3 6184  76.601  31.354  83.011
16346DC     SC1 6185  76.439  31.379  83.215
16346DC     SC2 6186  76.460  31.575  83.301
16346DC     SC3 6187  76.312  31.322  83.440
16347DT     BB1 6188  76.761  31.350  82.797
16347DT     BB2 6189  76.854  31.649  82.977
16347DT     BB3 6190  76.990  31.603  83.125
16347DT     SC1 6191  76.803  31.495  83.275
16347DT     SC2 6192  76.770  31.620  83.447
16347DT     SC3 6193  76.667  31.315  83.411
16348DT     BB1 6194  77.167  31.731  82.974
16348DT     BB2 6195  77.175  31.900  83.293
16348DT     BB3 6196  77.300  31.799  83.423
16348DT     SC1 6197  77.123  31.609  83.459
16348DT     SC2 6198  77.044  31.621  83.659
16348DT     SC3 6199  77.011  31.370  83.456
16349DA     BB1 6200  77.410  32.204  83.421
16349DA     BB2 6201  77.385  32.096  83.771
16349DA     BB3 6202  77.548  31.967  83.821
16349DA     SC1 6203  77.399  31.706  83.741
16349DA     SC2 6204  77.302  31.507  83.855
16349DA     SC3 6205  77.318  31.393  83.626
16349DA     SC4 6206  77.418  31.653  83.590
16350DA     BB1 6207  77.590  32.184  84.066
16350DA     BB2 6208  77.538  31.906  84.299
16350DA     BB3 6209  77.713  31.783  84.308
16350DA     SC1 6210  77.621  31.593  84.079
16350DA     SC2 6211  77.546  31.357  84.054
16350DA     SC3 6212  77.610  31.383  83.807
16350DA     SC4 6213  77.668  31.629  83.929
16351DA     BB1 6214  77.699  31.837  84.634
16351DA     BB2 6215  77.660  31.475  84.677
16351DA     BB3 6216  77.848  31.377  84.657
16351DA     SC1 6217  77.819  31.332  84.350
16351DA     SC2 6218  77.785  31.140  84.194
16351DA     SC3 6219  77.878  31.297  84.013
16351DA     SC4 6220  77.880  31.444  84.252
16352DA     BB1 6221  77.775  31.251  84.953
16352DA     BB2 6222  77.784  30.919  84.796
16352DA     BB3 6223  77.985  30.856  84.766
16352DA     SC1 6224  78.008  30.979  84.482
16352DA     SC2 6225  78.025  30.898  84.246
16352DA     SC3 6226  78.119  31.131  84.194
16352DA     SC4 6227  78.065  31.129  84.469
16353DA     BB1 6228  77.892  30.588  84.936
16353DA     BB2 6229  77.969  30.392  84.636
16353DA     BB3 6230  78.180  30.362  84.619
16353DA     SC1 6231  78.227  30.618  84.449
16353DA     SC2 6232  78.290  30.674  84.214
16353DA     SC3 6233  78.356  30.903  84.309
16353DA     SC4 6234  78.264  30.753  84.527
16354DG     BB1 6235  78.120  30.055  84.640
16354DG     BB2 6236  78.245  30.052  84.300
16354DG     BB3 6237  78.443  30.038  84.301
16354DG     SC1 6238  78.490  30.340  84.308
16354DG     SC2 6239  78.612  30.504  84.090
16354DG     SC3 6240  78.577  30.665  84.337
16354DG     SC4 6241  78.497  30.414  84.450
16355DT     BB1 6242  78.553  29.861  84.211
16355DT     BB2 6243  78.674  30.007  83.904
16355DT     BB3 6244  78.878  30.042  83.918
16355DT     SC1 6245  78.839  30.249  84.075
16355DT     SC2 6246  78.890  30.429  83.969
16355DT     SC3 6247  78.847  30.403  84.289
16356DC     BB1 6248  78.917  29.840  83.744
16356DC     BB2 6249  79.066  30.129  83.587
16356DC     BB3 6250  79.261  30.152  83.652
16356DC     SC1 6251  79.181  30.242  83.885
16356DC     SC2 6252  79.228  30.451  83.901
16356DC     SC3 6253  79.143  30.257  84.145
16357DA     BB1 6254  79.234  30.169  83.234
16357DA     BB2 6255  79.428  30.458  83.350
16357DA     BB3 6256  79.619  30.395  83.421
16357DA     SC1 6257  79.525  30.356  83.715
16357DA     SC2 6258  79.560  30.465  83.936
16357DA     SC3 6259  79.479  30.243  84.036
16357DA     SC4 6260  79.474  30.209  83.758
16358DT     BB1 6261  79.739  30.469  83.317
16358DT     BB2 6262  79.861  30.714  83.552
16358DT     BB3 6263  80.030  30.642  83.647
16358DT     SC1 6264  79.888  30.479  83.795
16358DT     SC2 6265  79.891  30.546  84.000
16358DT     SC3 6266  79.793  30.254  83.897
16359DA     BB1 6267  80.071  31.036  83.504
16359DA     BB2 6268  80.198  31.021  83.848
16359DA     BB3 6269  80.376  30.904  83.857
16359DA     SC1 6270  80.227  30.637  83.912
16359DA     SC2 6271  80.200  30.476  84.101
16359DA     SC3 6272  80.129  30.307  83.922
16359DA     SC4 6273  80.187  30.546  83.786
16360DC     BB1 6274  80.509  31.009  83.906
16360DC     BB2 6275  80.564  30.873  84.235
16360DC     BB3 6276  80.713  30.729  84.228
16360DC     SC1 6277  80.552  30.556  84.115
16360DC     SC2 6278  80.508  30.398  84.254
16360DC     SC3 6279  80.451  30.391  83.935
16361DG     BB1 6280  80.838  31.009  84.499
16361DG     BB2 6281  80.873  30.675  84.633
16361DG     BB3 6282  81.033  30.587  84.554
16361DG     SC1 6283  80.882  30.468  84.316
16361DG     SC2 6284  80.833  30.178  84.266
16361DG     SC3 6285  80.752  30.340  84.032
16361DG     SC4 6286  80.867  30.555  84.182
16362DG     BB1 6287  81.203  30.535  84.846
16362DG     BB2 6288  81.189  30.181  84.775
16362DG     BB3 6289  81.344  30.129  84.662
16362DG     SC1 6290  81.200  30.180  84.397
16362DG     SC2 6291  81.123  29.973  84.196
16362DG     SC3 6292  81.079  30.245  84.089
16362DG     SC4 6293  81.206  30.327  84.332
16363DA     BB1 6294  81.479  29.868  84.875
16363DA     BB2 6295  81.429  29.614  84.615
16363DA     BB3 6296  81.595  29.612  84.481
16363DA     SC1 6297  81.470  29.820  84.285
16363DA     SC2 6298  81.377  29.823  84.054
16363DA     SC3 6299  81.420  30.076  84.062
16363DA     SC4 6300  81.506  29.975  84.309
16364DT     BB1 6301  81.761  29.441  84.451
16364DT     BB2 6302  81.626  29.314  84.141
16364DT     BB3 6303  81.759  29.351  83.987
16364DT     SC1 6304  81.695  29.606  83.982
16364DT     SC2 6305  81.587  29.649  83.802
16364DT     SC3 6306  81.719  29.868  84.001
16365DC     BB1 6307  81.840  29.084  83.963
16365DC     BB2 6308  81.711  29.166  83.636
16365DC     BB3 6309  81.863  29.236  83.516
16365DC     SC1 6310  81.867  29.467  83.641
16365DC     SC2 6311  81.792  29.620  83.510
16365DC     SC3 6312  81.953  29.669  83.787
16366DT     BB1 6313  81.844  29.007  83.378
16366DT     BB2 6314  81.783  29.267  83.135
16366DT     BB3 6315  81.963  29.335  83.058
16366DT     SC1 6316  82.016  29.467  83.278
16366DT     SC2 6317  82.004  29.678  83.239
16366DT     SC3 6318  82.138  29.540  83.500
16367DT     BB1 6319  81.877  29.217  82.841
16367DT     BB2 6320  81.934  29.560  82.746
16367DT     BB3 6321  82.135  29.589  82.705
16367DT     SC1 6322  82.195  29.585  82.961
16367DT     SC2 6323  82.255  29.781  83.024
16367DT     SC3 6324  82.301  29.507  83.189
16368DG     BB1 6325  81.907  29.703  82.387
16368DG     BB2 6326  82.145  29.959  82.480
16368DG     BB3 6327  82.328  29.907  82.420
16368DG     SC1 6328  82.397  29.760  82.679
16368DG     SC2 6329  82.604  29.842  82.878
16368DG     SC3 6330  82.499  29.573  82.941
16368DG     SC4 6331  82.360  29.605  82.692
16369DA     BB1 6332  82.354  30.220  82.263
16369DA     BB2 6333  82.658  30.295  82.454
16369DA     BB3 6334  82.824  30.186  82.376
16369DA     SC1 6335  82.782  29.940  82.562
16369DA     SC2 6336  82.897  29.834  82.756
16369DA     SC3 6337  82.763  29.624  82.694
16369DA     SC4 6338  82.691  29.820  82.507
16370DA     BB1 6339  83.000  30.473  82.329
16370DA     BB2 6340  83.257  30.343  82.555
16370DA     BB3 6341  83.386  30.208  82.451
16370DA     SC1 6342  83.217  29.956  82.519
16370DA     SC2 6343  83.238  29.752  82.660
16370DA     SC3 6344  83.056  29.653  82.509
16370DA     SC4 6345  83.104  29.912  82.413
16371DT     BB1 6346  83.632  30.227  82.376
16371DT     BB2 6347  83.765  30.003  82.625
16371DT     BB3 6348  83.844  29.835  82.534
16371DT     SC1 6349  83.604  29.739  82.487
16371DT     SC2 6350  83.570  29.567  82.611
16371DT     SC3 6351  83.392  29.654  82.355
16372DC     BB1 6352  84.131  29.890  82.555
16372DC     BB2 6353  84.095  29.571  82.720
16372DC     BB3 6354  84.133  29.418  82.586
16372DC     SC1 6355  83.901  29.453  82.469
16372DC     SC2 6356  83.773  29.286  82.512
16372DC     SC3 6357  83.723  29.509  82.282
16373DA     BB1 6358  84.396  29.336  82.903
16373DA     BB2 6359  84.207  29.028  82.836
16373DA     BB3 6360  84.283  28.931  82.662
16373DA     SC1 6361  84.091  29.078  82.466
16373DA     SC2 6362  83.894  29.022  82.323
16373DA     SC3 6363  83.951  29.237  82.196
16373DA     SC4 6364  84.143  29.215  82.399
16374DC     BB1 6365  84.377  28.744  82.676
16374DC     BB2 6366  84.102  28.552  82.546
16374DC     BB3 6367  84.146  28.485  82.355
16374DC     SC1 6368  84.108  28.725  82.254
16374DC     SC2 6369  83.930  28.724  82.133
16374DC     SC3 6370  84.157  28.955  82.135
16375DA     BB1 6371  84.029  28.148  82.574
16375DA     BB2 6372  83.836  28.151  82.263
16375DA     BB3 6373  83.959  28.093  82.099
16375DA     SC1 6374  84.049  28.383  82.032
16375DA     SC2 6375  84.012  28.551  81.851
16375DA     SC3 6376  84.226  28.662  81.938
16375DA     SC4 6377  84.184  28.437  82.100
16376DG     BB1 6378  83.757  27.858  82.065
16376DG     BB2 6379  83.682  28.026  81.754
16376DG     BB3 6380  83.812  27.971  81.614
16376DG     SC1 6381  84.013  28.193  81.678
16376DG     SC2 6382  84.083  28.422  81.499
16376DG     SC3 6383  84.263  28.412  81.734
16376DG     SC4 6384  84.125  28.167  81.789
16377DA     BB1 6385  83.538  27.895  81.419
16377DA     BB2 6386  83.645  28.144  81.173
16377DA     BB3 6387  83.805  28.068  81.054
16377DA     SC1 6388  84.029  28.174  81.242
16377DA     SC2 6389  84.206  28.349  81.237
16377DA     SC3 6390  84.317  28.214  81.425
16377DA     SC4 6391  84.082  28.076  81.357
16378DG     BB1 6392  83.601  28.118  80.830
16378DG     BB2 6393  83.845  28.368  80.733
16378DG     BB3 6394  83.990  28.283  80.627
16378DG     SC1 6395  84.164  28.219  80.872
16378DG     SC2 6396  84.429  28.341  80.935
16378DG     SC3 6397  84.369  28.116  81.118
16378DG     SC4 6398  84.142  28.080  80.948
16379DT     BB1 6399  84.004  28.364  80.449
16379DT     BB2 6400  84.298  28.570  80.489
16379DT     BB3 6401  84.463  28.472  80.412
16379DT     SC1 6402  84.473  28.310  80.618
16379DT     SC2 6403  84.646  28.356  80.737
16379DT     SC3 6404  84.466  28.088  80.760
16380DG     BB1 6405  84.372  28.861  80.316
16380DG     BB2 6406  84.709  28.820  80.440
16380DG     BB3 6407  84.817  28.716  80.309
16380DG     SC1 6408  84.748  28.444  80.431
16380DG     SC2 6409  84.938  28.260  80.569
16380DG     SC3 6410  84.676  28.128  80.526
16380DG     SC4 6411  84.617  28.367  80.379
16381DT     BB1 6412  84.920  28.841  80.339
16381DT     BB2 6413  85.209  28.675  80.477
16381DT     BB3 6414  85.296  28.555  80.333
16381DT     SC1 6415  85.105  28.376  80.354
16381DT     SC2 6416  85.184  28.198  80.445
16381DT     SC3 6417  84.901  28.222  80.290
16382DA     BB1 6418  85.541  28.788  80.607
16382DA     BB2 6419  85.690  28.458  80.549
16382DA     BB3 6420  85.734  28.432  80.342
16382DA     SC1 6421  85.458  28.306  80.274
16382DA     SC2 6422  85.368  28.083  80.208
16382DA     SC3 6423  85.165  28.213  80.121
16382DA     SC4 6424  85.341  28.405  80.224
16383DA     BB1 6425  86.021  28.352  80.488
16383DA     BB2 6426  86.001  28.038  80.299
16383DA     BB3 6427  86.025  28.075  80.091
16383DA     SC1 6428  85.721  28.112  80.038
16383DA     SC2 6429  85.537  27.990  79.921
16383DA     SC3 6430  85.415  28.215  79.921
16383DA     SC4 6431  85.661  28.261  80.046
16384DG     BB1 6432  86.286  27.894  80.089
16384DG     BB2 6433  86.100  27.693  79.852
16384DG     BB3 6434  86.119  27.770  79.670
16384DG     SC1 6435  85.876  27.953  79.694
16384DG     SC2 6436  85.621  27.929  79.539
16384DG     SC3 6437  85.627  28.181  79.694
16384DG     SC4 6438  85.895  28.100  79.754
16385DT     BB1 6439  86.232  27.673  79.469
16385DT     BB2 6440  85.948  27.580  79.267
16385DT     BB3 6441  85.933  27.706  79.104
16385DT     SC1 6442  85.842  27.902  79.253
16385DT     SC2 6443  85.635  27.937  79.206
16385DT     SC3 6444  85.828  28.135  79.375
16386DA     BB1 6445  85.938  27.326  78.924
16386DA     BB2 6446  85.656  27.510  78.778
16386DA     BB3 6447  85.726  27.651  78.634
16386DA     SC1 6448  85.755  27.883  78.839
16386DA     SC2 6449  85.644  28.100  78.889
16386DA     SC3 6450  85.860  28.160  79.013
16386DA     SC4 6451  85.899  27.902  78.910
16387DA     BB1 6452  85.513  27.498  78.434
16387DA     BB2 6453  85.338  27.819  78.401
16387DA     BB3 6454  85.443  27.947  78.267
16387DA     SC1 6455  85.616  28.079  78.490
16387DA     SC2 6456  85.635  28.300  78.602
16387DA     SC3 6457  85.870  28.223  78.670
16387DA     SC4 6458  85.760  28.013  78.521
16388DG     BB1 6459  85.179  27.939  78.102
16388DG     BB2 6460  85.172  28.293  78.177
16388DG     BB3 6461  85.288  28.392  78.049
16388DG     SC1 6462  85.540  28.368  78.221
16388DG     SC2 6463  85.683  28.593  78.356
16388DG     SC3 6464  85.839  28.343  78.374
16388DG     SC4 6465  85.634  28.239  78.203
16389DT     BB1 6466  85.209  28.547  77.900
16389DT     BB2 6467  85.323  28.856  78.046
16389DT     BB3 6468  85.485  28.929  77.939
16389DT     SC1 6469  85.645  28.749  78.041
16389DT     SC2 6470  85.784  28.845  78.175
16389DT     SC3 6471  85.810  28.543  78.057
16390DA     BB1 6472  85.221  29.259  77.934
16390DA     BB2 6473  85.550  29.388  78.029
16390DA     BB3 6474  85.677  29.401  77.858
16390DA     SC1 6475  85.793  29.115  77.891
16390DA     SC2 6476  86.010  29.009  77.953
16390DA     SC3 6477  85.919  28.800  77.836
16390DA     SC4 6478  85.719  28.995  77.812
16391DT     BB1 6479  85.764  29.601  77.736
16391DT     BB2 6480  86.103  29.576  77.857
16391DT     BB3 6481  86.231  29.532  77.701
16391DT     SC1 6482  86.149  29.283  77.694
16391DT     SC2 6483  86.307  29.154  77.763
16391DT     SC3 6484  86.040  29.060  77.605
16392DA     BB1 6485  86.414  29.885  77.843
16392DA     BB2 6486  86.677  29.630  77.822
16392DA     BB3 6487  86.742  29.608  77.620
16392DA     SC1 6488  86.537  29.384  77.552
16392DA     SC2 6489  86.539  29.140  77.503
16392DA     SC3 6490  86.309  29.179  77.396
16392DA     SC4 6491  86.396  29.430  77.489
16393DT     BB1 6492  86.945  29.663  77.549
16393DT     BB2 6493  87.070  29.325  77.532
16393DT     BB3 6494  87.097  29.270  77.335
16393DT     SC1 6495  86.838  29.242  77.299
16393DT     SC2 6496  86.791  29.034  77.275
16393DT     SC3 6497  86.595  29.282  77.205
16394DT     BB1 6498  87.366  29.281  77.367
16394DT     BB2 6499  87.300  28.942  77.265
16394DT     BB3 6500  87.298  28.929  77.058
16394DT     SC1 6501  87.062  29.044  77.047
16394DT     SC2 6502  86.915  28.900  76.984
16394DT     SC3 6503  86.875  29.222  76.991
16395DC     BB1 6504  87.530  28.796  77.073
16395DC     BB2 6505  87.305  28.572  76.902
16395DC     BB3 6506  87.303  28.615  76.699
16395DC     SC1 6507  87.158  28.830  76.739
16395DC     SC2 6508  86.961  28.799  76.659
16395DC     SC3 6509  87.088  29.084  76.745
16396DG     BB1 6510  87.410  28.224  76.744
16396DG     BB2 6511  87.132  28.260  76.516
16396DG     BB3 6512  87.197  28.325  76.339
16396DG     SC1 6513  87.169  28.621  76.409
16396DG     SC2 6514  86.976  28.813  76.286
16396DG     SC3 6515  87.170  28.955  76.459
16396DG     SC4 6516  87.292  28.697  76.478
16397DT     BB1 6517  87.175  28.202  76.152
16397DT     BB2 6518  86.906  28.375  75.986
16397DT     BB3 6519  86.980  28.489  75.830
16397DT     SC1 6520  87.077  28.668  75.996
16397DT     SC2 6521  86.964  28.850  75.977
16397DT     SC3 6522  87.251  28.818  76.125
16398DA     BB1 6523  86.676  28.252  75.664
16398DA     BB2 6524  86.614  28.600  75.565
16398DA     BB3 6525  86.751  28.659  75.413
16398DA     SC1 6526  86.965  28.766  75.612
16398DA     SC2 6527  87.059  28.987  75.681
16398DA     SC3 6528  87.258  28.851  75.770
16398DA     SC4 6529  87.080  28.664  75.660
16399DA     BB1 6530  86.471  28.733  75.265
16399DA     BB2 6531  86.585  29.082  75.272
16399DA     BB3 6532  86.732  29.115  75.121
16399DA     SC1 6533  86.972  29.045  75.306
16399DA     SC2 6534  87.162  29.164  75.415
16399DA     SC3 6535  87.271  28.933  75.433
16399DA     SC4 6536  87.024  28.893  75.307
16400DT     BB1 6537  86.669  29.235  75.002
16400DT     BB2 6538  86.866  29.513  75.121
16400DT     BB3 6539  87.032  29.539  75.001
16400DT     SC1 6540  87.151  29.330  75.104
16400DT     SC2 6541  87.319  29.394  75.223
16400DT     SC3 6542  87.261  29.091  75.123
16401DT     BB1 6543  86.889  29.747  74.969
16401DT     BB2 6544  87.206  29.859  75.100
16401DT     BB3 6545  87.350  29.852  74.952
16401DT     SC1 6546  87.365  29.590  74.967
16401DT     SC2 6547  87.555  29.535  75.051
16401DT     SC3 6548  87.350  29.336  74.897
16402DT     BB1 6549  87.315  30.093  75.024
16402DT     BB2 6550  87.665  30.018  75.075
16402DT     BB3 6551  87.761  30.003  74.892
16402DT     SC1 6552  87.653  29.769  74.845
16402DT     SC2 6553  87.805  29.617  74.855
16402DT     SC3 6554  87.508  29.580  74.731
16403DA     BB1 6555  87.964  30.235  75.183
16403DA     BB2 6556  88.204  30.014  75.015
16403DA     BB3 6557  88.225  30.070  74.810
16403DA     SC1 6558  88.000  29.881  74.710
16403DA     SC2 6559  87.980  29.671  74.576
16403DA     SC3 6560  87.736  29.740  74.542
16403DA     SC4 6561  87.851  29.941  74.699
16404DT     BB1 6562  88.395  30.133  74.773
16404DT     BB2 6563  88.508  29.857  74.570
16404DT     BB3 6564  88.486  29.903  74.369
16404DT     SC1 6565  88.226  29.867  74.382
16404DT     SC2 6566  88.173  29.691  74.272
16404DT     SC3 6567  87.968  29.920  74.374
16405DA     BB1 6568  88.886  29.782  74.410
16405DA     BB2 6569  88.750  29.612  74.116
16405DA     BB3 6570  88.728  29.750  73.954
16405DA     SC1 6571  88.436  29.829  74.029
16405DA     SC2 6572  88.207  29.796  73.936
16405DA     SC3 6573  88.142  29.997  74.082
16405DA     SC4 6574  88.416  29.956  74.125
16406DT     BB1 6575  88.848  29.743  73.773
16406DT     BB2 6576  88.591  29.622  73.551
16406DT     BB3 6577  88.531  29.773  73.423
16406DT     SC1 6578  88.397  29.893  73.614
16406DT     SC2 6579  88.186  29.876  73.575
16406DT     SC3 6580  88.324  30.076  73.789
16407DT     BB1 6581  88.662  29.668  73.199
16407DT     BB2 6582  88.320  29.703  73.089
16407DT     BB3 6583  88.292  29.891  73.006
16407DT     SC1 6584  88.293  30.005  73.242
16407DT     SC2 6585  88.095  30.077  73.288
16407DT     SC3 6586  88.368  30.158  73.443
16408DA     BB1 6587  88.157  29.629  72.706
16408DA     BB2 6588  87.898  29.886  72.750
16408DA     BB3 6589  87.959  30.069  72.658
16408DA     SC1 6590  88.096  30.180  72.914
16408DA     SC2 6591  88.057  30.362  73.080
16408DA     SC3 6592  88.306  30.337  73.135
16408DA     SC4 6593  88.253  30.151  72.933
16409DT     BB1 6594  87.862  30.154  72.480
16409DT     BB2 6595  87.689  30.422  72.650
16409DT     BB3 6596  87.776  30.603  72.602
16409DT     SC1 6597  87.983  30.555  72.756
16409DT     SC2 6598  87.977  30.687  72.926
16409DT     SC3 6599  88.232  30.510  72.830
16410DA     BB1 6600  87.370  30.663  72.508
16410DA     BB2 6601  87.477  30.949  72.712
16410DA     BB3 6602  87.593  31.084  72.595
16410DA     SC1 6603  87.865  30.949  72.663
16410DA     SC2 6604  88.069  31.002  72.795
16410DA     SC3 6605  88.184  30.822  72.653
16410DA     SC4 6606  87.918  30.834  72.564
16411DT     BB1 6607  87.530  31.295  72.532
16411DT     BB2 6608  87.744  31.471  72.763
16411DT     BB3 6609  87.894  31.569  72.659
16411DT     SC1 6610  88.022  31.344  72.615
16411DT     SC2 6611  88.204  31.342  72.730
16411DT     SC3 6612  88.130  31.141  72.486
16412DC     BB1 6613  87.782  31.819  72.700
16412DC     BB2 6614  88.112  31.846  72.841
16412DC     BB3 6615  88.247  31.907  72.696
16412DC     SC1 6616  88.246  31.669  72.584
16412DC     SC2 6617  88.436  31.575  72.616
16412DC     SC3 6618  88.210  31.480  72.404
16413DT     BB1 6619  88.264  32.150  72.814
16413DT     BB2 6620  88.602  32.025  72.812
16413DT     BB3 6621  88.694  32.073  72.632
16413DT     SC1 6622  88.559  31.888  72.505
16413DT     SC2 6623  88.692  31.730  72.446
16413DT     SC3 6624  88.391  31.776  72.334
16414DG     BB1 6625  88.916  32.224  72.939
16414DG     BB2 6626  89.116  32.019  72.718
16414DG     BB3 6627  89.158  32.120  72.552
16414DG     SC1 6628  88.908  32.025  72.402
16414DG     SC2 6629  88.904  31.847  72.162
16414DG     SC3 6630  88.635  31.958  72.215
16414DG     SC4 6631  88.773  32.110  72.415
16415DA     BB1 6632  89.482  32.026  72.622
16415DA     BB2 6633  89.501  31.856  72.298
16415DA     BB3 6634  89.517  31.998  72.140
16415DA     SC1 6635  89.210  32.021  72.097
16415DA     SC2 6636  89.043  31.956  71.923
16415DA     SC3 6637  88.892  32.133  72.032
16415DA     SC4 6638  89.132  32.136  72.178
16416DA     BB1 6639  89.776  31.808  72.072
16416DA     BB2 6640  89.616  31.742  71.749
16416DA     BB3 6641  89.631  31.913  71.622
16416DA     SC1 6642  89.362  32.036  71.717
16416DA     SC2 6643  89.135  32.077  71.623
16416DA     SC3 6644  89.111  32.251  71.810
16416DA     SC4 6645  89.367  32.141  71.839
16417DA     BB1 6646  89.765  31.695  71.413
16417DA     BB2 6647  89.489  31.773  71.185
16417DA     BB3 6648  89.521  31.962  71.091
16417DA     SC1 6649  89.370  32.123  71.310
16417DA     SC2 6650  89.157  32.252  71.331
16417DA     SC3 6651  89.267  32.363  71.533
16417DA     SC4 6652  89.456  32.182  71.432
16418DC     BB1 6653  89.559  31.980  70.882
16418DC     BB2 6654  89.234  32.107  70.791
16418DC     BB3 6655  89.247  32.308  70.743
16418DC     SC1 6656  89.272  32.374  70.996
16418DC     SC2 6657  89.094  32.477  71.060
16418DC     SC3 6658  89.377  32.469  71.218
16419DC     BB1 6659  89.214  32.261  70.472
16419DC     BB2 6660  88.945  32.485  70.559
16419DC     BB3 6661  89.007  32.682  70.539
16419DC     SC1 6662  89.150  32.668  70.758
16419DC     SC2 6663  89.059  32.790  70.910
16419DC     SC3 6664  89.359  32.668  70.919
16420DA     BB1 6665  88.650  32.634  70.327
16420DA     BB2 6666  88.613  32.924  70.549
16420DA     BB3 6667  88.726  33.089  70.474
16420DA     SC1 6668  88.984  33.016  70.631
16420DA     SC2 6669  89.115  33.107  70.823
16420DA     SC3 6670  89.309  32.967  70.730
16420DA     SC4 6671  89.093  32.923  70.557
16421DT     BB1 6672  88.614  33.227  70.429
16421DT     BB2 6673  88.691  33.435  70.713
16421DT     BB3 6674  88.827  33.582  70.659
16421DT     SC1 6675  89.024  33.408  70.654
16421DT     SC2 6676  89.158  33.448  70.817
16421DT     SC3 6677  89.221  33.258  70.562
16422DA     BB1 6678  88.495  33.717  70.881
16422DA     BB2 6679  88.802  33.853  71.028
16422DA     BB3 6680  88.893  33.993  70.895
16422DA     SC1 6681  89.069  33.779  70.754
16422DA     SC2 6682  89.311  33.719  70.740
16422DA     SC3 6683  89.247  33.595  70.525
16422DA     SC4 6684  89.010  33.709  70.622
16423DA     BB1 6685  88.870  34.140  71.186
16423DA     BB2 6686  89.234  34.177  71.165
16423DA     BB3 6687  89.285  34.315  71.011
16423DA     SC1 6688  89.307  34.096  70.790
16423DA     SC2 6689  89.486  33.989  70.654
16423DA     SC3 6690  89.297  33.921  70.495
16423DA     SC4 6691  89.176  34.065  70.703
16424DA     BB1 6692  89.449  34.429  71.272
16424DA     BB2 6693  89.752  34.388  71.070
16424DA     BB3 6694  89.757  34.532  70.913
16424DA     SC1 6695  89.610  34.349  70.708
16424DA     SC2 6696  89.665  34.226  70.498
16424DA     SC3 6697  89.412  34.226  70.456
16424DA     SC4 6698  89.450  34.361  70.699
16425DG     BB1 6699  90.021  34.621  71.051
16425DG     BB2 6700  90.167  34.521  70.735
16425DG     BB3 6701  90.143  34.665  70.601
16425DG     SC1 6702  89.873  34.559  70.501
16425DG     SC2 6703  89.818  34.447  70.230
16425DG     SC3 6704  89.567  34.484  70.382
16425DG     SC4 6705  89.739  34.608  70.574
16426DA     BB1 6706  90.487  34.657  70.536
16426DA     BB2 6707  90.422  34.575  70.184
16426DA     BB3 6708  90.362  34.750  70.078
16426DA     SC1 6709  90.058  34.709  70.131
16426DA     SC2 6710  89.855  34.648  70.000
16426DA     SC3 6711  89.724  34.753  70.194
16426DA     SC4 6712  89.995  34.780  70.260
16427DC     BB1 6713  90.484  34.834  69.928
16427DC     BB2 6714  90.286  34.725  69.646
16427DC     BB3 6715  90.185  34.886  69.565
16427DC     SC1 6716  90.014  34.890  69.763
16427DC     SC2 6717  89.821  34.827  69.692
16427DC     SC3 6718  89.880  34.974  69.974
16428DC     BB1 6719  90.350  34.891  69.345
16428DC     BB2 6720  90.019  34.855  69.207
16428DC     BB3 6721  89.934  35.041  69.177
16428DC     SC1 6722  89.891  35.072  69.434
16428DC     SC2 6723  89.680  35.063  69.473
16428DC     SC3 6724  89.906  35.171  69.678
16429DA     BB1 6725  89.900  34.827  68.818
16429DA     BB2 6726  89.571  34.967  68.897
16429DA     BB3 6727  89.569  35.178  68.863
16429DA     SC1 6728  89.657  35.249  69.153
16429DA     SC2 6729  89.556  35.355  69.355
16429DA     SC3 6730  89.798  35.395  69.430
16429DA     SC4 6731  89.814  35.266  69.181
16430DA     BB1 6732  89.310  35.089  68.685
16430DA     BB2 6733  89.111  35.305  68.904
16430DA     BB3 6734  89.146  35.510  68.858
16430DA     SC1 6735  89.380  35.541  69.060
16430DA     SC2 6736  89.423  35.657  69.277
16430DA     SC3 6737  89.672  35.629  69.219
16430DA     SC4 6738  89.529  35.515  69.006
16431DT     BB1 6739  88.994  35.614  68.783
16431DT     BB2 6740  88.923  35.809  69.078
16431DT     BB3 6741  88.995  36.002  69.055
16431DT     SC1 6742  89.242  35.922  69.091
16431DT     SC2 6743  89.314  35.997  69.280
16431DT     SC3 6744  89.497  35.872  69.042
16432DT     BB1 6745  88.741  36.089  69.031
16432DT     BB2 6746  88.878  36.280  69.304
16432DT     BB3 6747  88.978  36.446  69.232
16432DT     SC1 6748  89.180  36.300  69.151
16432DT     SC2 6749  89.352  36.341  69.274
16432DT     SC3 6750  89.354  36.184  68.991
16433DT     BB1 6751  88.779  36.615  69.317
16433DT     BB2 6752  89.077  36.744  69.474
16433DT     BB3 6753  89.171  36.878  69.347
16433DT     SC1 6754  89.260  36.683  69.194
16433DT     SC2 6755  89.473  36.667  69.216
16433DT     SC3 6756  89.295  36.531  68.982
16434DT     BB1 6757  89.095  37.102  69.494
16434DT     BB2 6758  89.455  37.126  69.479
16434DT     BB3 6759  89.512  37.233  69.311
16434DT     SC1 6760  89.456  37.030  69.154
16434DT     SC2 6761  89.639  36.949  69.075
16434DT     SC3 6762  89.340  36.886  68.966
16435DA     BB1 6763  89.704  37.430  69.628
16435DA     BB2 6764  89.956  37.362  69.371
16435DA     BB3 6765  89.935  37.498  69.208
16435DA     SC1 6766  89.741  37.314  69.049
16435DA     SC2 6767  89.745  37.178  68.840
16435DA     SC3 6768  89.489  37.191  68.850
16435DA     SC4 6769  89.583  37.335  69.072
16436DT     BB1 6770  90.084  37.641  69.166
16436DT     BB2 6771  90.221  37.469  68.881
16436DT     BB3 6772  90.170  37.569  68.707
16436DT     SC1 6773  89.923  37.481  68.719
16436DT     SC2 6774  89.890  37.340  68.561
16436DT     SC3 6775  89.660  37.482  68.740
16437DT     BB1 6776  90.427  37.646  68.683
16437DT     BB2 6777  90.357  37.459  68.382
16437DT     BB3 6778  90.275  37.583  68.239
16437DT     SC1 6779  90.044  37.588  68.365
16437DT     SC2 6780  89.898  37.481  68.250
16437DT     SC3 6781  89.836  37.681  68.497
16438DA     BB1 6782  90.589  37.346  68.096
16438DA     BB2 6783  90.303  37.313  67.870
16438DA     BB3 6784  90.271  37.495  67.763
16438DA     SC1 6785  90.075  37.613  67.974
16438DA     SC2 6786  89.832  37.665  67.991
16438DA     SC3 6787  89.900  37.821  68.183
16438DA     SC4 6788  90.137  37.705  68.090
16439DG     BB1 6789  90.308  37.261  67.570
16439DG     BB2 6790  89.968  37.352  67.484
16439DG     BB3 6791  89.967  37.525  67.386
16439DG     SC1 6792  89.942  37.697  67.639
16439DG     SC2 6793  89.706  37.863  67.715
16439DG     SC3 6794  89.935  37.916  67.895
16439DG     SC4 6795  90.075  37.743  67.714
16440DA     BB1 6796  89.760  37.310  67.211
16440DA     BB2 6797  89.497  37.564  67.234
16440DA     BB3 6798  89.554  37.740  67.128
16440DA     SC1 6799  89.689  37.874  67.374
16440DA     SC2 6800  89.647  38.068  67.525
16440DA     SC3 6801  89.897  38.053  67.581
16440DA     SC4 6802  89.847  37.850  67.394
16441DA     BB1 6803  89.248  37.662  67.029
16441DA     BB2 6804  89.159  38.005  67.125
16441DA     BB3 6805  89.260  38.145  66.999
16441DA     SC1 6806  89.508  38.170  67.185
16441DA     SC2 6807  89.610  38.341  67.335
16441DA     SC3 6808  89.826  38.205  67.310
16441DA     SC4 6809  89.633  38.072  67.156
16442DA     BB1 6810  88.951  38.261  66.953
16442DA     BB2 6811  89.075  38.586  67.070
16442DA     BB3 6812  89.199  38.676  66.922
16442DA     SC1 6813  89.462  38.551  67.031
16442DA     SC2 6814  89.669  38.628  67.147
16442DA     SC3 6815  89.773  38.408  67.063
16442DA     SC4 6816  89.509  38.410  66.969
16443DT     BB1 6817  89.148  38.857  66.800
16443DT     BB2 6818  89.379  39.086  66.958
16443DT     BB3 6819  89.535  39.130  66.829
16443DT     SC1 6820  89.644  38.894  66.869
16443DT     SC2 6821  89.826  38.918  66.980
16443DT     SC3 6822  89.734  38.651  66.821
16444DT     BB1 6823  89.455  39.395  66.745
16444DT     BB2 6824  89.791  39.446  66.866
16444DT     BB3 6825  89.926  39.430  66.709
16444DT     SC1 6826  89.900  39.169  66.703
16444DT     SC2 6827  90.083  39.078  66.771
16444DT     SC3 6828  89.842  38.927  66.614
16445DG     BB1 6829  89.996  39.817  66.829
16445DG     BB2 6830  90.306  39.630  66.817
16445DG     BB3 6831  90.376  39.627  66.631
16445DG     SC1 6832  90.227  39.372  66.552
16445DG     SC2 6833  90.352  39.109  66.487
16445DG     SC3 6834  90.063  39.106  66.425
16445DG     SC4 6835  90.079  39.384  66.493
16446DT     BB1 6836  90.581  39.724  66.561
16446DT     BB2 6837  90.785  39.428  66.526
16446DT     BB3 6838  90.818  39.388  66.325
16446DT     SC1 6839  90.573  39.299  66.295
16446DT     SC2 6840  90.578  39.086  66.262
16446DT     SC3 6841  90.324  39.281  66.209
16447DT     BB1 6842  91.078  39.467  66.347
16447DT     BB2 6843  91.097  39.128  66.225
16447DT     BB3 6844  91.088  39.127  66.018
16447DT     SC1 6845  90.830  39.177  66.022
16447DT     SC2 6846  90.722  39.004  65.954
16447DT     SC3 6847  90.602  39.303  65.984
16448DC     BB1 6848  91.352  39.062  66.005
16448DC     BB2 6849  91.185  38.798  65.824
16448DC     BB3 6850  91.159  38.853  65.626
16448DC     SC1 6851  90.965  39.019  65.688
16448DC     SC2 6852  90.779  38.941  65.614
16448DC     SC3 6853  90.831  39.243  65.719
16449DA     BB1 6854  91.348  38.478  65.616
16449DA     BB2 6855  91.062  38.465  65.386
16449DA     BB3 6856  91.105  38.574  65.208
16449DA     SC1 6857  90.991  38.843  65.315
16449DA     SC2 6858  90.796  38.991  65.271
16449DA     SC3 6859  90.934  39.174  65.385
16449DA     SC4 6860  91.094  38.944  65.387
16450DT     BB1 6861  91.128  38.478  65.017
16450DT     BB2 6862  90.811  38.583  64.880
16450DT     BB3 6863  90.841  38.727  64.734
16450DT     SC1 6864  90.895  38.910  64.915
16450DT     SC2 6865  90.736  39.054  64.921
16450DT     SC3 6866  91.029  39.090  65.054
16451DT     BB1 6867  90.784  38.557  64.517
16451DT     BB2 6868  90.550  38.829  64.479
16451DT     BB3 6869  90.632  38.976  64.360
16451DT     SC1 6870  90.789  39.057  64.554
16451DT     SC2 6871  90.725  39.251  64.622
16451DT     SC3 6872  91.010  39.110  64.688
16452DT     BB1 6873  90.464  38.911  64.155
16452DT     BB2 6874  90.393  39.258  64.223
16452DT     BB3 6875  90.521  39.379  64.113
16452DT     SC1 6876  90.722  39.324  64.272
16452DT     SC2 6877  90.773  39.499  64.386
16452DT     SC3 6878  90.956  39.234  64.355
16453DT     BB1 6879  90.307  39.445  63.969
16453DT     BB2 6880  90.430  39.756  64.103
16453DT     BB3 6881  90.581  39.831  63.982
16453DT     SC1 6882  90.752  39.652  64.072
16453DT     SC2 6883  90.901  39.751  64.192
16453DT     SC3 6884  90.919  39.449  64.075
16454DA     BB1 6885  90.292  40.122  64.072
16454DA     BB2 6886  90.625  40.264  64.132
16454DA     BB3 6887  90.728  40.294  63.947
16454DA     SC1 6888  90.861  40.013  63.948
16454DA     SC2 6889  91.089  39.917  63.976
16454DA     SC3 6890  90.994  39.709  63.859
16454DA     SC4 6891  90.783  39.893  63.873
16455DA     BB1 6892  90.750  40.584  64.097
16455DA     BB2 6893  91.114  40.543  64.071
16455DA     BB3 6894  91.176  40.561  63.868
16455DA     SC1 6895  91.149  40.257  63.806
16455DA     SC2 6896  91.299  40.064  63.759
16455DA     SC3 6897  91.092  39.953  63.658
16455DA     SC4 6898  91.008  40.206  63.747
16456DA     BB1 6899  91.379  40.784  64.003
16456DA     BB2 6900  91.656  40.585  63.869
16456DA     BB3 6901  91.670  40.610  63.658
16456DA     SC1 6902  91.483  40.371  63.592
16456DA     SC2 6903  91.503  40.143  63.493
16456DA     SC3 6904  91.250  40.161  63.452
16456DA     SC4 6905  91.326  40.402  63.574
16457DG     BB1 6906  91.963  40.734  63.692
16457DG     BB2 6907  92.064  40.445  63.499
16457DG     BB3 6908  92.046  40.483  63.305
16457DG     SC1 6909  91.757  40.383  63.287
16457DG     SC2 6910  91.663  40.143  63.138
16457DG     SC3 6911  91.434  40.302  63.236
16457DG     SC4 6912  91.638  40.486  63.316
16458DT     BB1 6913  92.225  40.506  63.116
16458DT     BB2 6914  92.177  40.192  62.945
16458DT     BB3 6915  92.094  40.226  62.758
16458DT     SC1 6916  91.859  40.276  62.863
16458DT     SC2 6917  91.723  40.117  62.813
16458DT     SC3 6918  91.640  40.407  62.931
16459DG     BB1 6919  92.450  40.055  62.633
16459DG     BB2 6920  92.168  39.879  62.490
16459DG     BB3 6921  92.109  39.970  62.323
16459DG     SC1 6922  91.911  40.156  62.466
16459DG     SC2 6923  91.614  40.150  62.439
16459DG     SC3 6924  91.701  40.388  62.592
16459DG     SC4 6925  91.963  40.297  62.521
16460DA     BB1 6926  92.136  39.675  62.138
16460DA     BB2 6927  91.774  39.676  62.080
16460DA     BB3 6928  91.726  39.801  61.914
16460DA     SC1 6929  91.687  40.056  62.087
16460DA     SC2 6930  91.498  40.203  62.160
16460DA     SC3 6931  91.680  40.378  62.206
16460DA     SC4 6932  91.814  40.152  62.108
16461DT     BB1 6933  91.648  39.709  61.758
16461DT     BB2 6934  91.309  39.810  61.826
16461DT     BB3 6935  91.251  39.958  61.693
16461DT     SC1 6936  91.395  40.138  61.818
16461DT     SC2 6937  91.265  40.279  61.916
16461DT     SC3 6938  91.583  40.318  61.863
16462DA     BB1 6939  90.982  39.639  61.758
16462DA     BB2 6940  90.805  39.957  61.800
16462DA     BB3 6941  90.792  40.060  61.614
16462DA     SC1 6942  91.058  40.216  61.654
16462DA     SC2 6943  91.129  40.451  61.695
16462DA     SC3 6944  91.358  40.376  61.608
16462DA     SC4 6945  91.193  40.150  61.595
16463DA     BB1 6946  90.503  40.042  61.766
16463DA     BB2 6947  90.512  40.408  61.753
16463DA     BB3 6948  90.503  40.476  61.551
16463DA     SC1 6949  90.812  40.479  61.513
16463DA     SC2 6950  90.993  40.648  61.485
16463DA     SC3 6951  91.130  40.455  61.387
16463DA     SC4 6952  90.881  40.346  61.454
16464DC     BB1 6953  90.358  40.564  61.545
16464DC     BB2 6954  90.506  40.892  61.520
16464DC     BB3 6955  90.529  40.945  61.321
16464DC     SC1 6956  90.733  40.782  61.293
16464DC     SC2 6957  90.913  40.898  61.267
16464DC     SC3 6958  90.880  40.581  61.207
16465DA     BB1 6959  90.348  41.250  61.549
16465DA     BB2 6960  90.615  41.397  61.345
16465DA     BB3 6961  90.562  41.391  61.138
16465DA     SC1 6962  90.692  41.113  61.087
16465DA     SC2 6963  90.889  41.021  60.964
16465DA     SC3 6964  90.765  40.797  60.975
16465DA     SC4 6965  90.599  40.983  61.103
16466DA     BB1 6966  90.647  41.702  61.193
16466DA     BB2 6967  90.900  41.652  60.933
16466DA     BB3 6968  90.807  41.632  60.742
16466DA     SC1 6969  90.781  41.323  60.760
16466DA     SC2 6970  90.882  41.123  60.650
16466DA     SC3 6971  90.675  40.997  60.735
16466DA     SC4 6972  90.645  41.263  60.819
16467DT     BB1 6973  90.854  41.770  60.632
16467DT     BB2 6974  91.070  41.584  60.411
16467DT     BB3 6975  90.966  41.529  60.241
16467DT     SC1 6976  90.836  41.342  60.371
16467DT     SC2 6977  90.902  41.149  60.305
16467DT     SC3 6978  90.636  41.209  60.479
16468DT     BB1 6979  91.119  41.705  60.119
16468DT     BB2 6980  91.171  41.397  59.940
16468DT     BB3 6981  91.017  41.368  59.804
16468DT     SC1 6982  90.850  41.301  59.995
16468DT     SC2 6983  90.805  41.091  59.979
16468DT     SC3 6984  90.642  41.309  60.156
16469DA     BB1 6985  91.385  41.319  59.604
16469DA     BB2 6986  91.166  41.042  59.508
16469DA     BB3 6987  91.007  41.112  59.384
16469DA     SC1 6988  90.813  41.168  59.620
16469DA     SC2 6989  90.601  41.074  59.712
16469DA     SC3 6990  90.575  41.300  59.829
16469DA     SC4 6991  90.814  41.316  59.684
16470DA     BB1 6992  91.111  40.874  59.174
16470DA     BB2 6993  90.774  40.732  59.192
16470DA     BB3 6994  90.637  40.850  59.079
16470DA     SC1 6995  90.560  41.033  59.319
16470DA     SC2 6996  90.361  41.072  59.465
16470DA     SC3 6997  90.471  41.298  59.519
16470DA     SC4 6998  90.643  41.169  59.339
16471DA     BB1 6999  90.544  40.581  58.892
16471DA     BB2 7000  90.201  40.627  59.012
16471DA     BB3 7001  90.103  40.782  58.902
16471DA     SC1 7002  90.189  41.008  59.097
16471DA     SC2 7003  90.081  41.159  59.264
16471DA     SC3 7004  90.289  41.306  59.235
16471DA     SC4 7005  90.326  41.087  59.064
16472DT     BB1 7006  89.923  40.768  58.742
16472DT     BB2 7007  89.668  40.902  58.959
16472DT     BB3 7008  89.608  41.088  58.892
16472DT     SC1 7009  89.829  41.199  58.980
16472DT     SC2 7010  89.783  41.326  59.147
16472DT     SC3 7011  90.060  41.326  58.979
16473DA     BB1 7012  89.235  40.890  58.899
16473DA     BB2 7013  89.193  41.204  59.084
16473DA     BB3 7014  89.173  41.368  58.949
16473DA     SC1 7015  89.478  41.428  58.938
16473DA     SC2 7016  89.634  41.607  59.016
16473DA     SC3 7017  89.795  41.515  58.839
16473DA     SC4 7018  89.563  41.358  58.821
16474DT     BB1 7019  88.989  41.485  58.928
16474DT     BB2 7020  89.107  41.769  59.116
16474DT     BB3 7021  89.139  41.929  58.990
16474DT     SC1 7022  89.359  41.821  58.896
16474DT     SC2 7023  89.529  41.935  58.963
16474DT     SC3 7024  89.530  41.714  58.726
16475DT     BB1 7025  88.921  42.056  59.091
16475DT     BB2 7026  89.197  42.280  59.155
16475DT     BB3 7027  89.228  42.402  58.991
16475DT     SC1 7028  89.337  42.206  58.855
16475DT     SC2 7029  89.547  42.245  58.831
16475DT     SC3 7030  89.374  42.025  58.667
16476DT     BB1 7031  89.135  42.600  59.143
16476DT     BB2 7032  89.469  42.699  59.049
16476DT     BB3 7033  89.466  42.788  58.862
16476DT     SC1 7034  89.435  42.555  58.744
16476DT     SC2 7035  89.615  42.505  58.637
16476DT     SC3 7036  89.327  42.361  58.602
16477DA     BB1 7037  89.672  43.030  59.137
16477DA     BB2 7038  89.881  42.988  58.839
16477DA     BB3 7039  89.798  43.095  58.674
16477DA     SC1 7040  89.627  42.856  58.573
16477DA     SC2 7041  89.624  42.700  58.379
16477DA     SC3 7042  89.379  42.658  58.441
16477DA     SC4 7043  89.476  42.844  58.627
16478DT     BB1 7044  89.909  43.234  58.616
16478DT     BB2 7045  90.024  43.072  58.315
16478DT     BB3 7046  89.918  43.143  58.152
16478DT     SC1 7047  89.706  43.004  58.219
16478DT     SC2 7048  89.675  42.846  58.077
16478DT     SC3 7049  89.459  42.949  58.295
16479DG     BB1 7050  90.317  43.198  58.092
16479DG     BB2 7051  90.164  43.018  57.819
16479DG     BB3 7052  90.060  43.144  57.705
16479DG     SC1 7053  89.800  43.111  57.863
16479DG     SC2 7054  89.549  42.984  57.764
16479DG     SC3 7055  89.504  43.114  58.026
16479DG     SC4 7056  89.773  43.206  57.989
16480DC     BB1 7057  90.121  43.155  57.510
16480DC     BB2 7058  89.861  42.970  57.342
16480DC     BB3 7059  89.723  43.100  57.261
16480DC     SC1 7060  89.620  43.151  57.496
16480DC     SC2 7061  89.423  43.066  57.508
16480DC     SC3 7062  89.548  43.285  57.712
16481DC     BB1 7063  89.825  43.011  57.039
16481DC     BB2 7064  89.474  42.932  57.024
16481DC     BB3 7065  89.366  43.100  56.968
16481DC     SC1 7066  89.395  43.208  57.206
16481DC     SC2 7067  89.205  43.210  57.307
16481DC     SC3 7068  89.470  43.376  57.394
16482DA     BB1 7069  89.263  42.752  56.753
16482DA     BB2 7070  88.957  42.915  56.871
16482DA     BB3 7071  88.928  43.101  56.770
16482DA     SC1 7072  89.083  43.267  56.983
16482DA     SC2 7073  89.032  43.436  57.158
16482DA     SC3 7074  89.281  43.497  57.144
16482DA     SC4 7075  89.241  43.290  56.958
16483DT     BB1 7076  88.779  43.091  56.674
16483DT     BB2 7077  88.576  43.309  56.877
16483DT     BB3 7078  88.580  43.501  56.801
16483DT     SC1 7079  88.824  43.540  56.891
16483DT     SC2 7080  88.818  43.683  57.052
16483DT     SC3 7081  89.083  43.587  56.893
16484DC     BB1 7082  88.329  43.457  56.731
16484DC     BB2 7083  88.319  43.755  56.934
16484DC     BB3 7084  88.369  43.920  56.819
16484DC     SC1 7085  88.623  43.854  56.819
16484DC     SC2 7086  88.734  43.995  56.937
16484DC     SC3 7087  88.860  43.781  56.730
16485DG     BB1 7088  87.998  43.991  56.976
16485DG     BB2 7089  88.224  44.267  57.039
16485DG     BB3 7090  88.245  44.376  56.874
16485DG     SC1 7091  88.484  44.215  56.769
16485DG     SC2 7092  88.764  44.314  56.741
16485DG     SC3 7093  88.733  44.048  56.615
16485DG     SC4 7094  88.456  44.086  56.678
16486DT     BB1 7095  88.181  44.590  56.863
16486DT     BB2 7096  88.498  44.761  56.872
16486DT     BB3 7097  88.548  44.827  56.683
16486DT     SC1 7098  88.611  44.585  56.606
16486DT     SC2 7099  88.824  44.571  56.577
16486DT     SC3 7100  88.604  44.357  56.472
16487DT     BB1 7101  88.497  45.085  56.754
16487DT     BB2 7102  88.839  45.090  56.639
16487DT     BB3 7103  88.844  45.117  56.434
16487DT     SC1 7104  88.767  44.870  56.391
16487DT     SC2 7105  88.930  44.759  56.306
16487DT     SC3 7106  88.619  44.667  56.312
16488DC     BB1 7107  88.937  45.369  56.471
16488DC     BB2 7108  89.186  45.209  56.265
16488DC     BB3 7109  89.133  45.224  56.065
16488DC     SC1 7110  88.948  45.041  56.092
16488DC     SC2 7111  89.008  44.863  55.987
16488DC     SC3 7112  88.710  44.927  56.097
16489DT     BB1 7113  89.333  45.401  56.032
16489DT     BB2 7114  89.404  45.138  55.796
16489DT     BB3 7115  89.300  45.170  55.620
16489DT     SC1 7116  89.074  45.096  55.731
16489DT     SC2 7117  89.011  44.908  55.647
16489DT     SC3 7118  88.827  45.108  55.823
16490DG     BB1 7119  89.697  45.146  55.530
16490DG     BB2 7120  89.499  44.919  55.328
16490DG     BB3 7121  89.406  45.020  55.184
16490DG     SC1 7122  89.156  45.077  55.351
16490DG     SC2 7123  88.883  44.968  55.301
16490DG     SC3 7124  88.877  45.175  55.512
16490DG     SC4 7125  89.152  45.209  55.442
16491DT     BB1 7126  89.450  44.978  54.975
16491DT     BB2 7127  89.154  44.799  54.873
16491DT     BB3 7128  89.029  44.924  54.765
16491DT     SC1 7129  88.954  45.050  54.983
16491DT     SC2 7130  88.748  45.004  55.025
16491DT     SC3 7131  88.919  45.245  55.157
16492DT     BB1 7132  89.090  44.797  54.529
16492DT     BB2 7133  88.731  44.775  54.550
16492DT     BB3 7134  88.645  44.943  54.463
16492DT     SC1 7135  88.710  45.092  54.669
16492DT     SC2 7136  88.532  45.147  54.777
16492DT     SC3 7137  88.825  45.282  54.811
16493DA     BB1 7138  88.461  44.614  54.279
16493DA     BB2 7139  88.196  44.845  54.384
16493DA     BB3 7140  88.189  45.014  54.255
16493DA     SC1 7141  88.387  45.183  54.426
16493DA     SC2 7142  88.379  45.385  54.571
16493DA     SC3 7143  88.632  45.398  54.532
16493DA     SC4 7144  88.543  45.175  54.388
16494DG     BB1 7145  87.896  44.927  54.184
16494DG     BB2 7146  87.809  45.242  54.337
16494DG     BB3 7147  87.825  45.389  54.203
16494DG     SC1 7148  88.118  45.448  54.267
16494DG     SC2 7149  88.224  45.698  54.392
16494DG     SC3 7150  88.445  45.526  54.296
16494DG     SC4 7151  88.232  45.368  54.188
16495DA     BB1 7152  87.497  45.490  54.276
16495DA     BB2 7153  87.616  45.821  54.378
16495DA     BB3 7154  87.657  45.942  54.207
16495DA     SC1 7155  87.955  45.854  54.185
16495DA     SC2 7156  88.180  45.956  54.220
16495DA     SC3 7157  88.266  45.764  54.072
16495DA     SC4 7158  87.989  45.728  54.091
16496DA     BB1 7159  87.449  46.165  54.338
16496DA     BB2 7160  87.730  46.400  54.352
16496DA     BB3 7161  87.764  46.487  54.160
16496DA     SC1 7162  87.966  46.268  54.070
16496DA     SC2 7163  88.210  46.250  54.024
16496DA     SC3 7164  88.149  46.041  53.889
16496DA     SC4 7165  87.907  46.142  53.989
16497DT     BB1 7166  87.729  46.703  54.109
16497DT     BB2 7167  88.077  46.799  54.101
16497DT     BB3 7168  88.134  46.840  53.906
16497DT     SC1 7169  88.138  46.585  53.845
16497DT     SC2 7170  88.342  46.523  53.813
16497DT     SC3 7171  88.076  46.357  53.727
16498DT     BB1 7172  88.144  47.123  53.937
16498DT     BB2 7173  88.476  47.037  53.825
16498DT     BB3 7174  88.486  47.049  53.619
16498DT     SC1 7175  88.351  46.826  53.591
16498DT     SC2 7176  88.482  46.673  53.514
16498DT     SC3 7177  88.158  46.660  53.523
16499DT     BB1 7178  88.638  47.281  53.626
16499DT     BB2 7179  88.842  47.046  53.443
16499DT     BB3 7180  88.799  47.059  53.240
16499DT     SC1 7181  88.571  46.932  53.272
16499DT     SC2 7182  88.585  46.738  53.182
16499DT     SC3 7183  88.312  46.886  53.275
16500DT     BB1 7184  89.041  47.173  53.205
16500DT     BB2 7185  89.046  46.877  52.998
16500DT     BB3 7186  88.966  46.919  52.812
16500DT     SC1 7187  88.722  46.923  52.909
16500DT     SC2 7188  88.614  46.753  52.836
16500DT     SC3 7189  88.484  47.013  52.979
16501DA     BB1 7190  89.333  46.722  52.783
16501DA     BB2 7191  89.092  46.551  52.565
16501DA     BB3 7192  89.048  46.672  52.395
16501DA     SC1 7193  88.806  46.815  52.530
16501DA     SC2 7194  88.558  46.819  52.507
16501DA     SC3 7195  88.571  47.044  52.630
16501DA     SC4 7196  88.835  46.954  52.606
16502DA     BB1 7197  89.127  46.374  52.287
16502DA     BB2 7198  88.794  46.371  52.136
16502DA     BB3 7199  88.783  46.512  51.976
16502DA     SC1 7200  88.685  46.745  52.158
16502DA     SC2 7201  88.476  46.877  52.192
16502DA     SC3 7202  88.629  47.052  52.302
16502DA     SC4 7203  88.797  46.842  52.221
16503DG     BB1 7204  88.715  46.251  51.828
16503DG     BB2 7205  88.401  46.422  51.772
16503DG     BB3 7206  88.421  46.556  51.627
16503DG     SC1 7207  88.503  46.784  51.815
16503DG     SC2 7208  88.345  47.030  51.872
16503DG     SC3 7209  88.616  47.050  51.989
16503DG     SC4 7210  88.658  46.803  51.851
16504DT     BB1 7211  88.307  46.537  51.442
16504DT     BB2 7212  88.063  46.801  51.478
16504DT     BB3 7213  88.116  46.963  51.362
16504DT     SC1 7214  88.306  47.031  51.530
16504DT     SC2 7215  88.251  47.213  51.629
16504DT     SC3 7216  88.546  47.080  51.626
16505DT     BB1 7217  87.916  46.908  51.185
16505DT     BB2 7218  87.854  47.249  51.288
16505DT     BB3 7219  87.960  47.379  51.168
16505DT     SC1 7220  88.186  47.318  51.287
16505DT     SC2 7221  88.253  47.487  51.403
16505DT     SC3 7222  88.431  47.228  51.323
16506DT     BB1 7223  87.728  47.456  51.051
16506DT     BB2 7224  87.871  47.762  51.179
16506DT     BB3 7225  88.002  47.842  51.041
16506DT     SC1 7226  88.183  47.661  51.095
16506DT     SC2 7227  88.349  47.754  51.196
16506DT     SC3 7228  88.349  47.459  51.064
16507DT     BB1 7229  87.821  48.035  51.002
16507DT     BB2 7230  88.122  48.209  51.098
16507DT     BB3 7231  88.242  48.239  50.932
16507DT     SC1 7232  88.314  47.987  50.929
16507DT     SC2 7233  88.522  47.972  50.985
16507DT     SC3 7234  88.344  47.738  50.846
16508DT     BB1 7235  88.176  48.492  50.962
16508DT     BB2 7236  88.537  48.487  50.972
16508DT     BB3 7237  88.613  48.484  50.779
16508DT     SC1 7238  88.548  48.232  50.749
16508DT     SC2 7239  88.726  48.112  50.742
16508DT     SC3 7240  88.430  48.016  50.655
16509DG     BB1 7241  88.769  48.802  50.982
16509DG     BB2 7242  89.027  48.608  50.818
16509DG     BB3 7243  89.026  48.645  50.623
16509DG     SC1 7244  88.827  48.422  50.557
16509DG     SC2 7245  88.887  48.175  50.399
16509DG     SC3 7246  88.596  48.200  50.451
16509DG     SC4 7247  88.671  48.454  50.561
16510DT     BB1 7248  89.198  48.740  50.521
16510DT     BB2 7249  89.337  48.470  50.326
16510DT     BB3 7250  89.278  48.489  50.128
16510DT     SC1 7251  89.035  48.407  50.184
16510DT     SC2 7252  89.004  48.213  50.098
16510DT     SC3 7253  88.773  48.410  50.212
16511DA     BB1 7254  89.699  48.479  50.070
16511DA     BB2 7255  89.556  48.251  49.821
16511DA     BB3 7256  89.474  48.361  49.658
16511DA     SC1 7257  89.190  48.383  49.784
16511DA     SC2 7258  88.962  48.292  49.742
16511DA     SC3 7259  88.879  48.489  49.883
16511DA     SC4 7260  89.158  48.513  49.873
16512DC     BB1 7261  89.547  48.391  49.414
16512DC     BB2 7262  89.289  48.185  49.270
16512DC     BB3 7263  89.162  48.301  49.154
16512DC     SC1 7264  89.048  48.402  49.368
16512DC     SC2 7265  88.847  48.328  49.383
16512DC     SC3 7266  88.970  48.580  49.547
16513DT     BB1 7267  89.249  48.238  48.873
16513DT     BB2 7268  88.896  48.160  48.868
16513DT     BB3 7269  88.790  48.321  48.793
16513DT     SC1 7270  88.820  48.455  49.016
16513DT     SC2 7271  88.630  48.471  49.116
16513DT     SC3 7272  88.896  48.645  49.183
16514DT     BB1 7273  88.730  48.212  48.533
16514DT     BB2 7274  88.405  48.285  48.671
16514DT     BB3 7275  88.344  48.474  48.613
16514DT     SC1 7276  88.511  48.588  48.780
16514DT     SC2 7277  88.399  48.682  48.939
16514DT     SC3 7278  88.712  48.733  48.871
16515DA     BB1 7279  88.031  48.218  48.507
16515DA     BB2 7280  87.886  48.496  48.698
16515DA     BB3 7281  87.876  48.671  48.577
16515DA     SC1 7282  88.157  48.775  48.661
16515DA     SC2 7283  88.252  48.962  48.796
16515DA     SC3 7284  88.469  48.918  48.667
16515DA     SC4 7285  88.282  48.733  48.569
16516DT     BB1 7286  87.692  48.746  48.526
16516DT     BB2 7287  87.697  49.027  48.752
16516DT     BB3 7288  87.728  49.202  48.646
16516DT     SC1 7289  87.982  49.146  48.611
16516DT     SC2 7290  88.102  49.282  48.727
16516DT     SC3 7291  88.209  49.088  48.490
16517DG     BB1 7292  87.374  49.249  48.844
16517DG     BB2 7293  87.599  49.525  48.910
16517DG     BB3 7294  87.597  49.652  48.758
16517DG     SC1 7295  87.823  49.513  48.606
16517DG     SC2 7296  88.095  49.626  48.554
16517DG     SC3 7297  88.055  49.375  48.403
16517DG     SC4 7298  87.787  49.395  48.504
16518DT     BB1 7299  87.525  49.868  48.778
16518DT     BB2 7300  87.839  50.046  48.771
16518DT     BB3 7301  87.863  50.140  48.588
16518DT     SC1 7302  87.919  49.912  48.470
16518DT     SC2 7303  88.126  49.910  48.413
16518DT     SC3 7304  87.898  49.705  48.308
16519DT     BB1 7305  87.815  50.394  48.692
16519DT     BB2 7306  88.142  50.421  48.541
16519DT     BB3 7307  88.123  50.479  48.343
16519DT     SC1 7308  88.041  50.240  48.272
16519DT     SC2 7309  88.193  50.145  48.153
16519DT     SC3 7310  87.885  50.049  48.180
16520DT     BB1 7311  88.218  50.731  48.400
16520DT     BB2 7312  88.446  50.602  48.152
16520DT     BB3 7313  88.376  50.647  47.962
16520DT     SC1 7314  88.190  50.463  47.978
16520DT     SC2 7315  88.237  50.303  47.842
16520DT     SC3 7316  87.951  50.352  47.987
16521DT     BB1 7317  88.578  50.824  47.939
16521DT     BB2 7318  88.625  50.593  47.666
16521DT     BB3 7319  88.515  50.654  47.502
16521DT     SC1 7320  88.291  50.573  47.614
16521DT     SC2 7321  88.216  50.401  47.508
16521DT     SC3 7322  88.050  50.581  47.720
16522DT     BB1 7323  88.752  50.700  47.404
16522DT     BB2 7324  88.598  50.464  47.179
16522DT     BB3 7325  88.471  50.563  47.049
16522DT     SC1 7326  88.291  50.595  47.238
16522DT     SC2 7327  88.120  50.473  47.195
16522DT     SC3 7328  88.131  50.715  47.410
16523DA     BB1 7329  88.730  50.305  46.841
16523DA     BB2 7330  88.388  50.248  46.721
16523DA     BB3 7331  88.321  50.415  46.607
16523DA     SC1 7332  88.197  50.564  46.851
16523DA     SC2 7333  87.970  50.623  46.936
16523DA     SC3 7334  88.091  50.801  47.076
16523DA     SC4 7335  88.291  50.669  46.929
16524DT     BB1 7336  88.290  50.378  46.422
16524DT     BB2 7337  87.929  50.387  46.434
16524DT     BB3 7338  87.861  50.569  46.361
16524DT     SC1 7339  87.934  50.693  46.580
16524DT     SC2 7340  87.758  50.755  46.688
16524DT     SC3 7341  88.060  50.860  46.740
16525DA     BB1 7342  87.656  50.269  46.152
16525DA     BB2 7343  87.409  50.512  46.271
16525DA     BB3 7344  87.420  50.691  46.156
16525DA     SC1 7345  87.627  50.828  46.343
16525DA     SC2 7346  87.632  51.018  46.505
16525DA     SC3 7347  87.887  51.012  46.472
16525DA     SC4 7348  87.783  50.809  46.308
16526DC     BB1 7349  87.263  50.739  46.040
16526DC     BB2 7350  87.137  51.006  46.248
16526DC     BB3 7351  87.182  51.189  46.162
16526DC     SC1 7352  87.434  51.169  46.232
16526DC     SC2 7353  87.477  51.313  46.386
16526DC     SC3 7354  87.696  51.149  46.213
16527DT     BB1 7355  86.922  51.210  46.112
16527DT     BB2 7356  87.003  51.499  46.313
16527DT     BB3 7357  87.077  51.650  46.193
16527DT     SC1 7358  87.307  51.526  46.166
16527DT     SC2 7359  87.460  51.635  46.271
16527DT     SC3 7360  87.510  51.402  46.052
16528DT     BB1 7361  86.852  51.762  46.258
16528DT     BB2 7362  87.109  51.991  46.367
16528DT     BB3 7363  87.176  52.103  46.206
16528DT     SC1 7364  87.311  51.900  46.110
16528DT     SC2 7365  87.521  51.937  46.130
16528DT     SC3 7366  87.386  51.707  45.946
16529DA     BB1 7367  87.093  52.328  46.554
16529DA     BB2 7368  87.416  52.435  46.417
16529DA     BB3 7369  87.389  52.532  46.230
16529DA     SC1 7370  87.418  52.271  46.063
16529DA     SC2 7371  87.583  52.170  45.905
16529DA     SC3 7372  87.387  52.023  45.827
16529DA     SC4 7373  87.284  52.190  46.027
16530DA     BB1 7374  87.580  52.731  46.411
16530DA     BB2 7375  87.817  52.713  46.132
16530DA     BB3 7376  87.735  52.807  45.958
16530DA     SC1 7377  87.605  52.546  45.849
16530DA     SC2 7378  87.639  52.389  45.659
16530DA     SC3 7379  87.397  52.317  45.702
16530DA     SC4 7380  87.453  52.516  45.891
16531DA     BB1 7381  88.020  52.982  45.960
16531DA     BB2 7382  88.077  52.866  45.617
16531DA     BB3 7383  87.946  52.966  45.482
16531DA     SC1 7384  87.721  52.751  45.504
16531DA     SC2 7385  87.619  52.576  45.360
16531DA     SC3 7386  87.420  52.588  45.522
16531DA     SC4 7387  87.607  52.775  45.615
16532DA     BB1 7388  88.202  53.084  45.288
16532DA     BB2 7389  88.059  52.908  45.001
16532DA     BB3 7390  87.899  53.021  44.917
16532DA     SC1 7391  87.679  52.888  45.092
16532DA     SC2 7392  87.488  52.731  45.061
16532DA     SC3 7393  87.402  52.824  45.284
16532DA     SC4 7394  87.642  52.959  45.231
16533DG     BB1 7395  88.029  53.085  44.615
16533DG     BB2 7396  87.753  52.887  44.489
16533DG     BB3 7397  87.599  53.005  44.446
16533DG     SC1 7398  87.475  52.987  44.725
16533DG     SC2 7399  87.215  52.857  44.794
16533DG     SC3 7400  87.322  53.007  45.025
16533DG     SC4 7401  87.520  53.092  44.837
16534DG     BB1 7402  87.560  52.953  44.101
16534DG     BB2 7403  87.237  52.808  44.174
16534DG     BB3 7404  87.096  52.947  44.161
16534DG     SC1 7405  87.117  53.031  44.455
16534DG     SC2 7406  86.907  52.993  44.664
16534DG     SC3 7407  87.127  53.162  44.766
16534DG     SC4 7408  87.222  53.145  44.496
16535DT     BB1 7409  86.896  52.970  43.997
16535DT     BB2 7410  86.628  52.862  44.212
16535DT     BB3 7411  86.503  53.021  44.255
16535DT     SC1 7412  86.678  53.125  44.420
16535DT     SC2 7413  86.604  53.108  44.622
16535DT     SC3 7414  86.851  53.295  44.524
16536DA     BB1 7415  86.245  52.726  44.106
16536DA     BB2 7416  86.107  52.841  44.425
16536DA     BB3 7417  86.011  53.030  44.401
16536DA     SC1 7418  86.268  53.194  44.466
16536DA     SC2 7419  86.351  53.341  44.650
16536DA     SC3 7420  86.516  53.431  44.475
16536DA     SC4 7421  86.361  53.238  44.343
16537DG     BB1 7422  85.749  52.887  44.493
16537DG     BB2 7423  85.783  53.106  44.779
16537DG     BB3 7424  85.701  53.282  44.739
16537DG     SC1 7425  85.957  53.404  44.625
16537DG     SC2 7426  86.114  53.627  44.746
16537DG     SC3 7427  86.214  53.563  44.475
16537DG     SC4 7428  85.988  53.387  44.469
16538DT     BB1 7429  85.525  53.359  44.858
16538DT     BB2 7430  85.688  53.604  45.067
16538DT     BB3 7431  85.644  53.795  45.000
16538DT     SC1 7432  85.807  53.769  44.795
16538DT     SC2 7433  85.977  53.898  44.823
16538DT     SC3 7434  85.892  53.753  44.546
16539DG     BB1 7435  85.527  53.766  45.388
16539DG     BB2 7436  85.749  54.047  45.336
16539DG     BB3 7437  85.649  54.198  45.254
16539DG     SC1 7438  85.705  54.110  44.966
16539DG     SC2 7439  85.873  54.256  44.768
16539DG     SC3 7440  85.729  54.032  44.639
16539DG     SC4 7441  85.604  54.008  44.895
16540DA     BB1 7442  85.792  54.370  45.513
16540DA     BB2 7443  85.959  54.588  45.270
16540DA     BB3 7444  85.819  54.724  45.184
16540DA     SC1 7445  85.746  54.537  44.947
16540DA     SC2 7446  85.780  54.530  44.700
16540DA     SC3 7447  85.583  54.366  44.698
16540DA     SC4 7448  85.621  54.438  44.966
16541DA     BB1 7449  86.066  54.906  45.290
16541DA     BB2 7450  86.105  55.010  44.941
16541DA     BB3 7451  85.944  55.138  44.883
16541DA     SC1 7452  85.765  54.905  44.781
16541DA     SC2 7453  85.680  54.820  44.562
16541DA     SC3 7454  85.501  54.700  44.701
16541DA     SC4 7455  85.661  54.840  44.884
16542DT     BB1 7456  86.021  55.285  44.846
16542DT     BB2 7457  85.980  55.269  44.488
16542DT     BB3 7458  85.805  55.365  44.432
16542DT     SC1 7459  85.658  55.166  44.521
16542DT     SC2 7460  85.569  55.064  44.354
16542DT     SC3 7461  85.483  55.031  44.665
16543DT     BB1 7462  85.973  55.536  44.331
16543DT     BB2 7463  85.761  55.436  44.056
16543DT     BB3 7464  85.581  55.538  44.065
16543DT     SC1 7465  85.498  55.391  44.265
16543DT     SC2 7466  85.338  55.263  44.199
16543DT     SC3 7467  85.416  55.324  44.507
16544DA     BB1 7468  85.736  55.580  43.676
16544DA     BB2 7469  85.381  55.491  43.648
16544DA     BB3 7470  85.259  55.656  43.707
16544DA     SC1 7471  85.245  55.569  44.006
16544DA     SC2 7472  85.074  55.480  44.164
16544DA     SC3 7473  85.231  55.564  44.349
16544DA     SC4 7474  85.355  55.630  44.106
16545DC     BB1 7475  85.138  55.759  43.569
16545DC     BB2 7476  84.820  55.633  43.681
16545DC     BB3 7477  84.718  55.780  43.786
16545DC     SC1 7478  84.874  55.750  43.995
16545DC     SC2 7479  84.762  55.662  44.156
16545DC     SC3 7480  85.051  55.806  44.182
16546DA     BB1 7481  84.439  55.668  43.491
16546DA     BB2 7482  84.263  55.666  43.814
16546DA     BB3 7483  84.220  55.866  43.875
16546DA     SC1 7484  84.485  55.901  44.034
16546DA     SC2 7485  84.557  55.920  44.272
16546DA     SC3 7486  84.772  56.025  44.177
16546DA     SC4 7487  84.611  55.964  43.955
16547DT     BB1 7488  84.016  55.950  43.889
16547DT     BB2 7489  83.993  55.937  44.248
16547DT     BB3 7490  83.999  56.129  44.326
16547DT     SC1 7491  84.256  56.148  44.281
16547DT     SC2 7492  84.362  56.148  44.468
16547DT     SC3 7493  84.485  56.233  44.181
16548DA     BB1 7494  83.657  55.949  44.488
16548DA     BB2 7495  83.850  56.091  44.765
16548DA     BB3 7496  83.828  56.304  44.769
16548DA     SC1 7497  84.074  56.357  44.586
16548DA     SC2 7498  84.303  56.454  44.609
16548DA     SC3 7499  84.293  56.484  44.354
16548DA     SC4 7500  84.048  56.369  44.428
16549DA     BB1 7501  83.750  56.216  45.072
16549DA     BB2 7502  84.037  56.417  45.179
16549DA     BB3 7503  83.993  56.625  45.160
16549DA     SC1 7504  84.100  56.648  44.869
16549DA     SC2 7505  84.293  56.753  44.752
16549DA     SC3 7506  84.150  56.731  44.540
16549DA     SC4 7507  83.995  56.626  44.749
16550DC     BB1 7508  83.995  56.702  45.324
16550DC     BB2 7509  84.307  56.880  45.286
16550DC     BB3 7510  84.270  57.076  45.233
16550DC     SC1 7511  84.207  57.008  44.988
16550DC     SC2 7512  84.359  57.078  44.853
16550DC     SC3 7513  84.065  56.973  44.769
16551DA     BB1 7514  84.545  57.044  45.550
16551DA     BB2 7515  84.678  57.279  45.303
16551DA     BB3 7516  84.562  57.458  45.300
16551DA     SC1 7517  84.366  57.357  45.081
16551DA     SC2 7518  84.315  57.407  44.842
16551DA     SC3 7519  84.090  57.293  44.888
16551DA     SC4 7520  84.232  57.284  45.129
16552DA     BB1 7521  84.869  57.570  45.336
16552DA     BB2 7522  84.811  57.759  45.027
16552DA     BB3 7523  84.672  57.917  45.062
16552DA     SC1 7524  84.422  57.746  44.990
16552DA     SC2 7525  84.252  57.735  44.808
16552DA     SC3 7526  84.108  57.608  44.978
16552DA     SC4 7527  84.347  57.670  45.111
16553DA     BB1 7528  84.913  58.102  44.930
16553DA     BB2 7529  84.672  58.202  44.672
16553DA     BB3 7530  84.532  58.342  44.752
16553DA     SC1 7531  84.328  58.124  44.841
16553DA     SC2 7532  84.101  58.045  44.774
16553DA     SC3 7533  84.091  57.941  45.008
16553DA     SC4 7534  84.340  58.068  44.991
16554DA     BB1 7535  84.619  58.548  44.504
16554DA     BB2 7536  84.271  58.538  44.390
16554DA     BB3 7537  84.150  58.667  44.510
16554DA     SC1 7538  84.077  58.445  44.716
16554DA     SC2 7539  83.875  58.314  44.782
16554DA     SC3 7540  84.000  58.271  45.002
16554DA     SC4 7541  84.170  58.431  44.846
16555DA     BB1 7542  84.053  58.827  44.232
16555DA     BB2 7543  83.710  58.720  44.305
16555DA     BB3 7544  83.621  58.849  44.450
16555DA     SC1 7545  83.713  58.678  44.693
16555DA     SC2 7546  83.609  58.531  44.866
16555DA     SC3 7547  83.824  58.571  45.000
16555DA     SC4 7548  83.853  58.716  44.762
16556DG     BB1 7549  83.397  58.938  44.241
16556DG     BB2 7550  83.174  58.768  44.469
16556DG     BB3 7551  83.112  58.893  44.610
16556DG     SC1 7552  83.343  58.832  44.802
16556DG     SC2 7553  83.319  58.696  45.066
16556DG     SC3 7554  83.592  58.805  45.027
16556DG     SC4 7555  83.478  58.917  44.790
16557DA     BB1 7556  82.785  58.807  44.531
16557DA     BB2 7557  82.737  58.674  44.870
16557DA     BB3 7558  82.699  58.834  45.007
16557DA     SC1 7559  82.999  58.875  45.079
16557DA     SC2 7560  83.149  58.839  45.275
16557DA     SC3 7561  83.305  59.009  45.162
16557DA     SC4 7562  83.082  58.984  44.993
16558DA     BB1 7563  82.447  58.637  45.063
16558DA     BB2 7564  82.578  58.603  45.404
16558DA     BB3 7565  82.538  58.780  45.517
16558DA     SC1 7566  82.807  58.917  45.440
16558DA     SC2 7567  83.020  58.981  45.553
16558DA     SC3 7568  83.051  59.144  45.357
16558DA     SC4 7569  82.807  59.013  45.311
16559DT     BB1 7570  82.428  58.740  45.654
16559DT     BB2 7571  82.675  58.758  45.916
16559DT     BB3 7572  82.665  58.943  46.009
16559DT     SC1 7573  82.781  59.061  45.806
16559DT     SC2 7574  82.979  59.125  45.864
16559DT     SC3 7575  82.817  59.221  45.599
16560DA     BB1 7576  82.675  58.620  46.279
16560DA     BB2 7577  82.919  58.871  46.387
16560DA     BB3 7578  82.819  59.047  46.457
16560DA     SC1 7579  82.817  59.186  46.178
16560DA     SC2 7580  82.928  59.380  46.069
16560DA     SC3 7581  82.734  59.369  45.900
16560DA     SC4 7582  82.688  59.163  46.085
16561DC     BB1 7583  82.852  59.070  46.632
16561DC     BB2 7584  83.068  59.358  46.605
16561DC     BB3 7585  82.958  59.531  46.636
16561DC     SC1 7586  82.848  59.513  46.398
16561DC     SC2 7587  82.923  59.671  46.272
16561DC     SC3 7588  82.664  59.487  46.212
16562DA     BB1 7589  83.286  59.554  46.895
16562DA     BB2 7590  83.255  59.880  46.731
16562DA     BB3 7591  83.089  59.987  46.811
16562DA     SC1 7592  82.886  59.876  46.603
16562DA     SC2 7593  82.755  59.962  46.408
16562DA     SC3 7594  82.606  59.756  46.444
16562DA     SC4 7595  82.804  59.743  46.642
16563DT     BB1 7596  83.109  60.167  46.932
16563DT     BB2 7597  82.989  60.405  46.689
16563DT     BB3 7598  82.802  60.474  46.744
16563DT     SC1 7599  82.689  60.249  46.671
16563DT     SC2 7600  82.569  60.283  46.496
16563DT     SC3 7601  82.558  60.020  46.686
16564DT     BB1 7602  82.882  60.734  46.841
16564DT     BB2 7603  82.623  60.814  46.604
16564DT     BB3 7604  82.441  60.829  46.700
16564DT     SC1 7605  82.423  60.569  46.725
16564DT     SC2 7606  82.266  60.495  46.597
16564DT     SC3 7607  82.410  60.330  46.837
16565DT     BB1 7608  82.413  61.120  46.706
16565DT     BB2 7609  82.104  61.015  46.553
16565DT     BB3 7610  81.956  60.997  46.697
16565DT     SC1 7611  82.060  60.773  46.787
16565DT     SC2 7612  81.930  60.609  46.738
16565DT     SC3 7613  82.174  60.601  46.951
16566DA     BB1 7614  81.759  61.270  46.440
16566DA     BB2 7615  81.516  61.006  46.511
16566DA     BB3 7616  81.425  61.038  46.702
16566DA     SC1 7617  81.635  60.870  46.858
16566DA     SC2 7618  81.644  60.653  46.981
16566DA     SC3 7619  81.853  60.749  47.094
16566DA     SC4 7620  81.762  60.948  46.919
16567DG     BB1 7621  81.119  61.080  46.589
16567DG     BB2 7622  81.046  60.776  46.771
16567DG     BB3 7623  80.981  60.821  46.954
16567DG     SC1 7624  81.260  60.820  47.079
16567DG     SC2 7625  81.362  60.624  47.281
16567DG     SC3 7626  81.553  60.847  47.245
16567DG     SC4 7627  81.346  60.955  47.079
16568DA     BB1 7628  80.671  60.640  46.935
16568DA     BB2 7629  80.773  60.418  47.209
16568DA     BB3 7630  80.724  60.505  47.397
16568DA     SC1 7631  80.997  60.649  47.429
16568DA     SC2 7632  81.200  60.631  47.573
16568DA     SC3 7633  81.247  60.873  47.502
16568DA     SC4 7634  81.008  60.800  47.375
16569DT     BB1 7635  80.558  60.430  47.554
16569DT     BB2 7636  80.795  60.284  47.785
16569DT     BB3 7637  80.792  60.388  47.964
16569DT     SC1 7638  80.924  60.589  47.858
16569DT     SC2 7639  81.123  60.596  47.941
16569DT     SC3 7640  80.979  60.832  47.772
16570DC     BB1 7641  80.655  60.187  48.111
16570DC     BB2 7642  80.965  60.230  48.290
16570DC     BB3 7643  80.941  60.368  48.442
16570DC     SC1 7644  80.938  60.568  48.272
16570DC     SC2 7645  81.118  60.684  48.295
16570DC     SC3 7646  80.852  60.776  48.134
16571DC     BB1 7647  80.954  60.170  48.634
16571DC     BB2 7648  81.224  60.394  48.717
16571DC     BB3 7649  81.157  60.539  48.849
16571DC     SC1 7650  81.029  60.665  48.658
16571DC     SC2 7651  81.127  60.852  48.618
16571DC     SC3 7652  80.830  60.767  48.519
16572DA     BB1 7653  81.518  60.356  48.964
16572DA     BB2 7654  81.558  60.720  48.984
16572DA     BB3 7655  81.442  60.799  49.145
16572DA     SC1 7656  81.190  60.849  48.969
16572DA     SC2 7657  81.064  61.044  48.878
16572DA     SC3 7658  80.868  60.880  48.852
16572DA     SC4 7659  81.080  60.732  48.962
16573DT     BB1 7660  81.551  60.871  49.268
16573DT     BB2 7661  81.476  61.218  49.202
16573DT     BB3 7662  81.335  61.287  49.336
16573DT     SC1 7663  81.143  61.157  49.214
16573DT     SC2 7664  81.012  61.298  49.117
16573DT     SC3 7665  80.948  60.984  49.171
16574DA     BB1 7666  81.658  61.555  49.333
16574DA     BB2 7667  81.349  61.750  49.309
16574DA     BB3 7668  81.246  61.749  49.496
16574DA     SC1 7669  81.077  61.496  49.429
16574DA     SC2 7670  80.839  61.440  49.381
16574DA     SC3 7671  80.903  61.200  49.445
16574DA     SC4 7672  81.137  61.353  49.474
16575DA     BB1 7673  81.257  62.077  49.463
16575DA     BB2 7674  80.891  62.074  49.469
16575DA     BB3 7675  80.820  62.047  49.669
16575DA     SC1 7676  80.810  61.736  49.648
16575DA     SC2 7677  80.637  61.558  49.640
16575DA     SC3 7678  80.825  61.400  49.713
16575DA     SC4 7679  80.941  61.655  49.695
16576DT     BB1 7680  80.715  62.202  49.781
16576DT     BB2 7681  80.387  62.053  49.756
16576DT     BB3 7682  80.328  61.980  49.940
16576DT     SC1 7683  80.491  61.775  49.919
16576DT     SC2 7684  80.376  61.595  49.894
16576DT     SC3 7685  80.690  61.610  49.970
16577DC     BB1 7686  80.144  62.183  49.978
16577DC     BB2 7687  79.949  61.880  50.000
16577DC     BB3 7688  79.945  61.813  50.196
16577DC     SC1 7689  80.192  61.727  50.181
16577DC     SC2 7690  80.193  61.512  50.185
16577DC     SC3 7691  80.450  61.704  50.229
16578DC     BB1 7692  79.687  61.886  50.203
16578DC     BB2 7693  79.687  61.533  50.278
16578DC     BB3 7694  79.717  61.504  50.481
16578DC     SC1 7695  79.972  61.563  50.459
16578DC     SC2 7696  80.089  61.386  50.491
16578DC     SC3 7697  80.201  61.690  50.491
16579DA     BB1 7698  79.398  61.283  50.324
16579DA     BB2 7699  79.608  61.060  50.524
16579DA     BB3 7700  79.593  61.109  50.731
16579DA     SC1 7701  79.830  61.310  50.727
16579DA     SC2 7702  80.063  61.322  50.816
16579DA     SC3 7703  80.040  61.576  50.782
16579DA     SC4 7704  79.796  61.464  50.699
16580DT     BB1 7705  79.529  60.969  50.795
16580DT     BB2 7706  79.820  60.860  50.978
16580DT     BB3 7707  79.816  60.936  51.170
16580DT     SC1 7708  79.882  61.175  51.085
16580DT     SC2 7709  80.082  61.222  51.150
16580DT     SC3 7710  79.867  61.433  51.032
16581DA     BB1 7711  79.899  60.523  51.175
16581DA     BB2 7712  80.124  60.689  51.411
16581DA     BB3 7713  80.015  60.763  51.579
16581DA     SC1 7714  79.962  61.042  51.452
16581DA     SC2 7715  80.034  61.278  51.487
16581DA     SC3 7716  79.824  61.341  51.355
16581DA     SC4 7717  79.825  61.061  51.369
16582DA     BB1 7718  80.246  60.589  51.740
16582DA     BB2 7719  80.330  60.901  51.914
16582DA     BB3 7720  80.176  60.954  52.051
16582DA     SC1 7721  80.018  61.125  51.844
16582DA     SC2 7722  79.966  61.366  51.805
16582DA     SC3 7723  79.773  61.280  51.661
16582DA     SC4 7724  79.903  61.052  51.760
16583DT     BB1 7725  80.204  60.949  52.259
16583DT     BB2 7726  80.209  61.306  52.314
16583DT     BB3 7727  80.030  61.366  52.400
16583DT     SC1 7728  79.903  61.341  52.172
16583DT     SC2 7729  79.848  61.535  52.099
16583DT     SC3 7730  79.731  61.252  51.993
16584DA     BB1 7731  80.319  61.519  52.667
16584DA     BB2 7732  80.085  61.791  52.592
16584DA     BB3 7733  79.901  61.762  52.696
16584DA     SC1 7734  79.768  61.600  52.465
16584DA     SC2 7735  79.585  61.633  52.299
16584DA     SC3 7736  79.585  61.377  52.280
16584DA     SC4 7737  79.783  61.440  52.468
16585DA     BB1 7738  79.952  62.067  52.816
16585DA     BB2 7739  79.641  62.167  52.650
16585DA     BB3 7740  79.472  62.100  52.762
16585DA     SC1 7741  79.450  61.828  52.614
16585DA     SC2 7742  79.295  61.718  52.453
16585DA     SC3 7743  79.401  61.498  52.532
16585DA     SC4 7744  79.527  61.702  52.677
16586DT     BB1 7745  79.345  62.237  52.855
16586DT     BB2 7746  79.070  62.203  52.623
16586DT     BB3 7747  78.917  62.095  52.711
16586DT     SC1 7748  79.049  61.870  52.683
16586DT     SC2 7749  78.952  61.748  52.535
16586DT     SC3 7750  79.177  61.649  52.746
16587DA     BB1 7751  78.737  62.449  52.572
16587DA     BB2 7752  78.533  62.168  52.455
16587DA     BB3 7753  78.421  62.085  52.617
16587DA     SC1 7754  78.640  61.879  52.695
16587DA     SC2 7755  78.672  61.631  52.687
16587DA     SC3 7756  78.852  61.669  52.866
16587DA     SC4 7757  78.747  61.922  52.807
16588DT     BB1 7758  78.205  62.098  52.629
16588DT     BB2 7759  78.140  61.753  52.543
16588DT     BB3 7760  78.076  61.650  52.711
16588DT     SC1 7761  78.319  61.644  52.809
16588DT     SC2 7762  78.394  61.442  52.803
16588DT     SC3 7763  78.522  61.688  52.972
16589DT     BB1 7764  77.802  61.633  52.638
16589DT     BB2 7765  77.900  61.290  52.685
16589DT     BB3 7766  77.866  61.232  52.880
16589DT     SC1 7767  78.073  61.368  52.965
16589DT     SC2 7768  78.227  61.232  53.030
16589DT     SC3 7769  78.216  61.549  53.094
16590DT     BB1 7770  77.633  61.069  52.834
16590DT     BB2 7771  77.870  60.844  52.988
16590DT     BB3 7772  77.841  60.841  53.193
16590DT     SC1 7773  77.953  61.077  53.220
16590DT     SC2 7774  78.143  61.055  53.320
16590DT     SC3 7775  77.983  61.333  53.275
16591DT     BB1 7776  77.726  60.585  53.197
16591DT     BB2 7777  78.022  60.558  53.401
16591DT     BB3 7778  77.976  60.597  53.598
16591DT     SC1 7779  77.958  60.855  53.550
16591DT     SC2 7780  78.122  60.957  53.645
16591DT     SC3 7781  77.854  61.096  53.527
16592DA     BB1 7782  78.190  60.241  53.556
16592DA     BB2 7783  78.363  60.453  53.800
16592DA     BB3 7784  78.252  60.461  53.983
16592DA     SC1 7785  78.088  60.712  53.900
16592DA     SC2 7786  78.073  60.952  53.965
16592DA     SC3 7787  77.841  60.946  53.855
16592DA     SC4 7788  77.946  60.687  53.828
16593DG     BB1 7789  78.531  60.356  54.045
16593DG     BB2 7790  78.548  60.669  54.225
16593DG     BB3 7791  78.441  60.657  54.393
16593DG     SC1 7792  78.181  60.754  54.262
16593DG     SC2 7793  78.042  61.011  54.321
16593DG     SC3 7794  77.875  60.838  54.148
16593DG     SC4 7795  78.083  60.647  54.195
16594DT     BB1 7796  78.555  60.691  54.544
16594DT     BB2 7797  78.449  61.019  54.649
16594DT     BB3 7798  78.305  61.003  54.797
16594DT     SC1 7799  78.122  60.931  54.623
16594DT     SC2 7800  77.977  61.089  54.602
16594DT     SC3 7801  77.942  60.784  54.499
16595DC     BB1 7802  78.496  61.099  54.949
16595DC     BB2 7803  78.220  61.329  54.985
16595DC     BB3 7804  78.083  61.254  55.121
16595DC     SC1 7805  77.995  61.078  54.948
16595DC     SC2 7806  77.795  61.130  54.887
16595DC     SC3 7807  77.940  60.845  54.837
16596DG     BB1 7808  78.204  61.623  55.245
16596DG     BB2 7809  77.844  61.598  55.232
16596DG     BB3 7810  77.777  61.494  55.388
16596DG     SC1 7811  77.794  61.223  55.246
16596DG     SC2 7812  77.563  61.050  55.171
16596DG     SC3 7813  77.819  60.908  55.129
16596DG     SC4 7814  77.931  61.140  55.253
16597DA     BB1 7815  77.567  61.763  55.434
16597DA     BB2 7816  77.277  61.541  55.401
16597DA     BB3 7817  77.254  61.423  55.577
16597DA     SC1 7818  77.431  61.189  55.475
16597DA     SC2 7819  77.400  60.953  55.401
16597DA     SC3 7820  77.650  60.926  55.449
16597DA     SC4 7821  77.587  61.192  55.512
16598DA     BB1 7822  76.959  61.556  55.535
16598DA     BB2 7823  76.835  61.213  55.508
16598DA     BB3 7824  76.838  61.117  55.699
16598DA     SC1 7825  77.125  61.003  55.664
16598DA     SC2 7826  77.233  60.780  55.631
16598DA     SC3 7827  77.447  60.894  55.714
16598DA     SC4 7828  77.248  61.091  55.718
16599DC     BB1 7829  76.671  61.078  55.747
16599DC     BB2 7830  76.691  60.721  55.698
16599DC     BB3 7831  76.730  60.627  55.878
16599DC     SC1 7832  76.981  60.705  55.873
16599DC     SC2 7833  77.108  60.534  55.840
16599DC     SC3 7834  77.204  60.826  55.942
16600DT     BB1 7835  76.489  60.545  55.836
16600DT     BB2 7836  76.688  60.247  55.874
16600DT     BB3 7837  76.727  60.213  56.075
16600DT     SC1 7838  76.904  60.407  56.081
16600DT     SC2 7839  77.101  60.323  56.105
16600DT     SC3 7840  77.020  60.635  56.147
16601DC     BB1 7841  76.565  60.010  56.040
16601DC     BB2 7842  76.866  59.867  56.177
16601DC     BB3 7843  76.870  59.893  56.383
16601DC     SC1 7844  76.929  60.147  56.357
16601DC     SC2 7845  77.131  60.181  56.423
16601DC     SC3 7846  76.907  60.410  56.371
16602DT     BB1 7847  76.818  59.630  56.417
16602DT     BB2 7848  77.112  59.688  56.617
16602DT     BB3 7849  77.058  59.755  56.805
16602DT     SC1 7850  76.999  59.993  56.711
16602DT     SC2 7851  77.144  60.136  56.782
16602DT     SC3 7852  76.858  60.206  56.645
16603DA     BB1 7853  77.303  59.425  56.894
16603DA     BB2 7854  77.410  59.700  57.112
16603DA     BB3 7855  77.270  59.728  57.270
16603DA     SC1 7856  77.098  59.935  57.113
16603DA     SC2 7857  77.049  60.179  57.123
16603DA     SC3 7858  76.841  60.122  56.985
16603DA     SC4 7859  76.974  59.879  57.028
16604DT     BB1 7860  77.304  59.684  57.493
16604DT     BB2 7861  77.326  60.026  57.605
16604DT     BB3 7862  77.160  60.075  57.718
16604DT     SC1 7863  77.009  60.089  57.503
16604DT     SC2 7864  76.954  60.294  57.468
16604DT     SC3 7865  76.818  60.035  57.330
16605DT     BB1 7866  77.279  60.067  57.981
16605DT     BB2 7867  77.132  60.396  57.969
16605DT     BB3 7868  76.941  60.391  58.049
16605DT     SC1 7869  76.846  60.273  57.835
16605DT     SC2 7870  76.719  60.409  57.728
16605DT     SC3 7871  76.735  60.089  57.681
16606DG     BB1 7872  77.111  60.655  58.319
16606DG     BB2 7873  76.807  60.796  58.183
16606DG     BB3 7874  76.650  60.730  58.285
16606DG     SC1 7875  76.607  60.484  58.107
16606DG     SC2 7876  76.373  60.436  57.928
16606DG     SC3 7877  76.543  60.195  57.947
16606DG     SC4 7878  76.684  60.348  58.143
16607DG     BB1 7879  76.524  61.030  58.409
16607DG     BB2 7880  76.231  60.971  58.206
16607DG     BB3 7881  76.092  60.876  58.312
16607DG     SC1 7882  76.191  60.596  58.236
16607DG     SC2 7883  76.044  60.397  58.069
16607DG     SC3 7884  76.285  60.276  58.190
16607DG     SC4 7885  76.304  60.527  58.326
16608DA     BB1 7886  75.828  61.114  58.261
16608DA     BB2 7887  75.631  60.866  58.077
16608DA     BB3 7888  75.515  60.749  58.212
16608DA     SC1 7889  75.733  60.530  58.250
16608DA     SC2 7890  75.767  60.291  58.188
16608DA     SC3 7891  75.941  60.288  58.376
16608DA     SC4 7892  75.836  60.548  58.372
16609DT     BB1 7893  75.280  60.749  58.229
16609DT     BB2 7894  75.241  60.440  58.046
16609DT     BB3 7895  75.166  60.293  58.171
16609DT     SC1 7896  75.398  60.265  58.291
16609DT     SC2 7897  75.483  60.075  58.239
16609DT     SC3 7898  75.580  60.267  58.481
16610DA     BB1 7899  74.935  60.318  57.827
16610DA     BB2 7900  75.049  59.972  57.864
16610DA     BB3 7901  74.939  59.874  58.019
16610DA     SC1 7902  75.139  59.952  58.244
16610DA     SC2 7903  75.306  59.838  58.391
16610DA     SC3 7904  75.283  60.044  58.542
16610DA     SC4 7905  75.110  60.087  58.325
16611DA     BB1 7906  74.953  59.712  57.744
16611DA     BB2 7907  75.132  59.459  57.940
16611DA     BB3 7908  75.000  59.368  58.081
16611DA     SC1 7909  75.063  59.572  58.308
16611DA     SC2 7910  75.180  59.573  58.528
16611DA     SC3 7911  75.044  59.784  58.577
16611DA     SC4 7912  74.968  59.701  58.320
16612DT     BB1 7913  75.043  59.242  58.011
16612DT     BB2 7914  75.239  59.110  58.283
16612DT     BB3 7915  75.115  59.031  58.428
16612DT     SC1 7916  75.047  59.270  58.511
16612DT     SC2 7917  75.130  59.304  58.707
16612DT     SC3 7918  74.898  59.481  58.566
16613DT     BB1 7919  75.267  58.856  58.324
16613DT     BB2 7920  75.324  58.850  58.680
16613DT     BB3 7921  75.158  58.776  58.778
16613DT     SC1 7922  75.026  58.999  58.740
16613DT     SC2 7923  75.000  59.099  58.928
16613DT     SC3 7924  74.841  59.167  58.654
16614DT     BB1 7925  75.338  58.598  58.817
16614DT     BB2 7926  75.210  58.686  59.143
16614DT     BB3 7927  75.023  58.602  59.171
16614DT     SC1 7928  74.912  58.777  59.011
16614DT     SC2 7929  74.788  58.910  59.126
16614DT     SC3 7930  74.783  58.877  58.804
16615DT     BB1 7931  75.142  58.437  59.342
16615DT     BB2 7932  74.865  58.575  59.527
16615DT     BB3 7933  74.691  58.471  59.482
16615DT     SC1 7934  74.673  58.587  59.247
16615DT     SC2 7935  74.505  58.721  59.247
16615DT     SC3 7936  74.666  58.617  58.985
16616DA     BB1 7937  74.701  58.444  59.903
16616DA     BB2 7938  74.357  58.533  59.810
16616DA     BB3 7939  74.255  58.362  59.732
16616DA     SC1 7940  74.337  58.418  59.437
16616DA     SC2 7941  74.226  58.491  59.226
16616DA     SC3 7942  74.431  58.389  59.108
16616DA     SC4 7943  74.471  58.348  59.383
16617DT     BB1 7944  74.076  58.234  59.829
16617DT     BB2 7945  73.815  58.351  59.610
16617DT     BB3 7946  73.751  58.197  59.488
16617DT     SC1 7947  73.967  58.214  59.340
16617DT     SC2 7948  73.915  58.291  59.146
16617DT     SC3 7949  74.195  58.147  59.225
16618DA     BB1 7950  73.374  58.290  59.661
16618DA     BB2 7951  73.320  58.278  59.299
16618DA     BB3 7952  73.300  58.076  59.233
16618DA     SC1 7953  73.603  58.038  59.177
16618DA     SC2 7954  73.752  58.011  58.979
16618DA     SC3 7955  73.921  57.912  59.145
16618DA     SC4 7956  73.694  57.978  59.295
16619DT     BB1 7957  73.102  57.960  59.146
16619DT     BB2 7958  73.207  57.968  58.801
16619DT     BB3 7959  73.243  57.775  58.734
16619DT     SC1 7960  73.468  57.761  58.868
16619DT     SC2 7961  73.633  57.761  58.729
16619DT     SC3 7962  73.648  57.682  59.044
16620DC     BB1 7963  73.008  57.751  58.571
16620DC     BB2 7964  73.280  57.697  58.341
16620DC     BB3 7965  73.320  57.495  58.325
16620DC     SC1 7966  73.437  57.492  58.560
16620DC     SC2 7967  73.648  57.461  58.534
16620DC     SC3 7968  73.484  57.433  58.812
16621DA     BB1 7969  73.269  57.645  57.939
16621DA     BB2 7970  73.587  57.462  57.947
16621DA     BB3 7971  73.552  57.252  57.948
16621DA     SC1 7972  73.545  57.230  58.258
16621DA     SC2 7973  73.686  57.133  58.439
16621DA     SC3 7974  73.473  57.142  58.582
16621DA     SC4 7975  73.401  57.242  58.330
16622DT     BB1 7976  73.619  57.175  57.796
16622DT     BB2 7977  73.908  57.024  57.950
16622DT     BB3 7978  73.872  56.823  57.985
16622DT     SC1 7979  73.715  56.879  58.188
16622DT     SC2 7980  73.811  56.818  58.371
16622DT     SC3 7981  73.498  56.895  58.336
16623DT     BB1 7982  74.052  56.795  57.798
16623DT     BB2 7983  74.183  56.620  58.085
16623DT     BB3 7984  74.097  56.432  58.098
16623DT     SC1 7985  73.871  56.533  58.185
16623DT     SC2 7986  73.844  56.479  58.391
16623DT     SC3 7987  73.616  56.598  58.194
16624DT     BB1 7988  74.337  56.345  58.030
16624DT     BB2 7989  74.261  56.179  58.341
16624DT     BB3 7990  74.143  56.013  58.306
16624DT     SC1 7991  73.932  56.163  58.262
16624DT     SC2 7992  73.792  56.137  58.423
16624DT     SC3 7993  73.729  56.275  58.137
16625DT     BB1 7994  74.355  55.854  58.361
16625DT     BB2 7995  74.096  55.741  58.586
16625DT     BB3 7996  73.976  55.601  58.491
16625DT     SC1 7997  73.858  55.788  58.349
16625DT     SC2 7998  73.654  55.809  58.415
16625DT     SC3 7999  73.779  55.928  58.140
16626DC     BB1 8000  74.083  55.388  58.633
16626DC     BB2 8001  73.728  55.365  58.695
16626DC     BB3 8002  73.638  55.249  58.549
16626DC     SC1 8003  73.658  55.442  58.372
16626DC     SC2 8004  73.462  55.519  58.327
16626DC     SC3 8005  73.732  55.574  58.155
16627DG     BB1 8006  73.551  55.047  58.894
16627DG     BB2 8007  73.250  55.114  58.704
16627DG     BB3 8008  73.229  54.978  58.560
16627DG     SC1 8009  73.388  55.138  58.352
16627DG     SC2 8010  73.277  55.260  58.103
16627DG     SC3 8011  73.572  55.277  58.106
16627DG     SC4 8012  73.546  55.119  58.344
16628DC     BB1 8013  73.054  54.837  58.553
16628DC     BB2 8014  72.858  54.987  58.289
16628DC     BB3 8015  72.872  54.874  58.117
16628DC     SC1 8016  73.116  54.960  58.071
16628DC     SC2 8017  73.114  55.089  57.898
16628DC     SC3 8018  73.377  54.959  58.036
16629DA     BB1 8019  72.475  54.962  58.211
16629DA     BB2 8020  72.532  55.047  57.859
16629DA     BB3 8021  72.554  54.869  57.743
16629DA     SC1 8022  72.863  54.856  57.777
16629DA     SC2 8023  73.066  54.887  57.636
16629DA     SC3 8024  73.188  54.752  57.817
16629DA     SC4 8025  72.921  54.769  57.900
16630DG     BB1 8026  72.327  55.034  57.625
16630DG     BB2 8027  72.551  55.042  57.341
16630DG     BB3 8028  72.554  54.863  57.253
16630DG     SC1 8029  72.785  54.756  57.423
16630DG     SC2 8030  73.058  54.688  57.325
16630DG     SC3 8031  73.021  54.598  57.604
16630DG     SC4 8032  72.751  54.683  57.562
16631DT     BB1 8033  72.500  54.886  57.072
16631DT     BB2 8034  72.802  54.823  56.885
16631DT     BB3 8035  72.813  54.623  56.835
16631DT     SC1 8036  72.878  54.557  57.080
16631DT     SC2 8037  73.083  54.492  57.085
16631DT     SC3 8038  72.865  54.448  57.320
16632DC     BB1 8039  72.766  54.707  56.590
16632DC     BB2 8040  73.064  54.506  56.562
16632DC     BB3 8041  73.014  54.305  56.553
16632DC     SC1 8042  72.959  54.299  56.809
16632DC     SC2 8043  73.107  54.182  56.912
16632DC     SC3 8044  72.821  54.274  57.033
16633DT     BB1 8045  73.069  54.289  56.282
16633DT     BB2 8046  73.262  54.019  56.424
16633DT     BB3 8047  73.146  53.847  56.434
16633DT     SC1 8048  73.011  53.941  56.638
16633DT     SC2 8049  73.061  53.829  56.815
16633DT     SC3 8050  72.808  54.029  56.783
16634DT     BB1 8051  73.261  53.707  56.211
16634DT     BB2 8052  73.288  53.467  56.479
16634DT     BB3 8053  73.121  53.344  56.480
16634DT     SC1 8054  72.972  53.535  56.582
16634DT     SC2 8055  72.920  53.484  56.784
16634DT     SC3 8056  72.780  53.715  56.604
16635DG     BB1 8057  73.411  53.058  56.413
16635DG     BB2 8058  73.202  52.960  56.691
16635DG     BB3 8059  73.038  52.870  56.625
16635DG     SC1 8060  72.875  53.128  56.603
16635DG     SC2 8061  72.637  53.200  56.768
16635DG     SC3 8062  72.674  53.394  56.548
16635DG     SC4 8063  72.881  53.212  56.467
16636DT     BB1 8064  72.963  52.630  56.655
16636DT     BB2 8065  72.705  52.675  56.904
16636DT     BB3 8066  72.519  52.637  56.821
16636DT     SC1 8067  72.522  52.866  56.693
16636DT     SC2 8068  72.376  52.998  56.779
16636DT     SC3 8069  72.524  53.039  56.493
16637DA     BB1 8070  72.529  52.384  57.156
16637DA     BB2 8071  72.215  52.572  57.171
16637DA     BB3 8072  72.074  52.492  57.033
16637DA     SC1 8073  72.160  52.679  56.799
16637DA     SC2 8074  72.065  52.871  56.673
16637DA     SC3 8075  72.236  52.810  56.492
16637DA     SC4 8076  72.272  52.624  56.698
16638DT     BB1 8077  71.893  52.394  57.098
16638DT     BB2 8078  71.669  52.664  57.017
16638DT     BB3 8079  71.553  52.613  56.853
16638DT     SC1 8080  71.755  52.649  56.690
16638DT     SC2 8081  71.719  52.823  56.568
16638DT     SC3 8082  71.944  52.596  56.513
16639DC     BB1 8083  71.328  52.581  57.010
16639DC     BB2 8084  71.232  52.829  56.766
16639DC     BB3 8085  71.155  52.736  56.598
16639DC     SC1 8086  71.393  52.661  56.519
16639DC     SC2 8087  71.448  52.770  56.342
16639DC     SC3 8088  71.595  52.504  56.454
16640DA     BB1 8089  70.876  53.024  56.719
16640DA     BB2 8090  70.934  53.069  56.360
16640DA     BB3 8091  70.838  52.914  56.249
16640DA     SC1 8092  71.085  52.725  56.253
16640DA     SC2 8093  71.253  52.637  56.091
16640DA     SC3 8094  71.293  52.452  56.264
16640DA     SC4 8095  71.094  52.618  56.372
16641DT     BB1 8096  70.679  52.961  56.124
16641DT     BB2 8097  70.858  52.927  55.813
16641DT     BB3 8098  70.799  52.754  55.716
16641DT     SC1 8099  70.936  52.605  55.883
16641DT     SC2 8100  71.103  52.518  55.780
16641DT     SC3 8101  70.989  52.426  56.069
16642DC     BB1 8102  70.687  52.919  55.545
16642DC     BB2 8103  70.919  52.722  55.351
16642DC     BB3 8104  70.834  52.539  55.305
16642DC     SC1 8105  70.868  52.452  55.550
16642DC     SC2 8106  71.019  52.298  55.551
16642DC     SC3 8107  70.811  52.363  55.792
16643DT     BB1 8108  70.823  52.629  55.056
16643DT     BB2 8109  71.020  52.326  55.040
16643DT     BB3 8110  70.895  52.161  55.032
16643DT     SC1 8111  70.836  52.184  55.287
16643DT     SC2 8112  70.924  52.020  55.395
16643DT     SC3 8113  70.695  52.220  55.507
16644DT     BB1 8114  70.975  52.135  54.781
16644DT     BB2 8115  71.061  51.824  54.942
16644DT     BB3 8116  70.896  51.699  54.947
16644DT     SC1 8117  70.786  51.839  55.139
16644DT     SC2 8118  70.787  51.725  55.321
16644DT     SC3 8119  70.614  51.994  55.266
16645DA     BB1 8120  71.231  51.496  54.794
16645DA     BB2 8121  71.080  51.291  55.058
16645DA     BB3 8122  70.893  51.213  54.993
16645DA     SC1 8123  70.728  51.453  55.102
16645DA     SC2 8124  70.564  51.496  55.285
16645DA     SC3 8125  70.496  51.702  55.147
16645DA     SC4 8126  70.698  51.575  55.001
16646DT     BB1 8127  70.900  51.032  54.984
16646DT     BB2 8128  70.703  50.967  55.279
16646DT     BB3 8129  70.507  50.927  55.225
16646DT     SC1 8130  70.461  51.181  55.175
16646DT     SC2 8131  70.327  51.260  55.323
16646DT     SC3 8132  70.404  51.401  55.041
16647DT     BB1 8133  70.573  50.692  55.309
16647DT     BB2 8134  70.292  50.793  55.511
16647DT     BB3 8135  70.116  50.767  55.405
16647DT     SC1 8136  70.165  50.978  55.257
16647DT     SC2 8137  70.026  51.134  55.307
16647DT     SC3 8138  70.216  51.126  55.045
16648DC     BB1 8139  70.085  50.585  55.586
16648DC     BB2 8140  69.799  50.803  55.616
16648DC     BB3 8141  69.663  50.761  55.466
16648DC     SC1 8142  69.812  50.879  55.286
16648DC     SC2 8143  69.716  51.061  55.221
16648DC     SC3 8144  69.964  50.913  55.073
16649DT     BB1 8145  69.528  50.678  55.671
16649DT     BB2 8146  69.319  50.923  55.508
16649DT     BB3 8147  69.231  50.840  55.340
16649DT     SC1 8148  69.456  50.852  55.206
16649DT     SC2 8149  69.439  51.000  55.051
16649DT     SC3 8150  69.670  50.774  55.073
16650DA     BB1 8151  68.935  51.029  55.576
16650DA     BB2 8152  68.886  51.127  55.226
16650DA     BB3 8153  68.818  50.961  55.111
16650DA     SC1 8154  69.104  50.868  55.032
16650DA     SC2 8155  69.245  50.859  54.827
16650DA     SC3 8156  69.382  50.683  54.953
16650DA     SC4 8157  69.176  50.759  55.126
16651DA     BB1 8158  68.566  51.162  55.022
16651DA     BB2 8159  68.674  51.117  54.675
16651DA     BB3 8160  68.617  50.924  54.604
16651DA     SC1 8161  68.883  50.788  54.691
16651DA     SC2 8162  69.084  50.689  54.582
16651DA     SC3 8163  69.120  50.567  54.805
16651DA     SC4 8164  68.887  50.720  54.837
16652DT     BB1 8165  68.453  50.868  54.442
16652DT     BB2 8166  68.681  50.778  54.177
16652DT     BB3 8167  68.671  50.574  54.143
16652DT     SC1 8168  68.806  50.522  54.362
16652DT     SC2 8169  69.001  50.447  54.309
16652DT     SC3 8170  68.863  50.430  54.602
16653DA     BB1 8171  68.583  50.709  53.751
16653DA     BB2 8172  68.848  50.458  53.717
16653DA     BB3 8173  68.766  50.262  53.728
16653DA     SC1 8174  68.800  50.238  54.036
16653DA     SC2 8175  68.941  50.110  54.197
16653DA     SC3 8176  68.759  50.166  54.370
16653DA     SC4 8177  68.676  50.283  54.129
16654DA     BB1 8178  68.902  50.190  53.429
16654DA     BB2 8179  69.107  49.937  53.597
16654DA     BB3 8180  68.996  49.756  53.621
16654DA     SC1 8181  68.885  49.833  53.901
16654DA     SC2 8182  68.915  49.762  54.138
16654DA     SC3 8183  68.689  49.875  54.180
16654DA     SC4 8184  68.743  49.908  53.907
16655DT     BB1 8185  69.043  49.563  53.516
16655DT     BB2 8186  69.192  49.399  53.801
16655DT     BB3 8187  69.069  49.246  53.866
16655DT     SC1 8188  68.900  49.415  53.973
16655DT     SC2 8189  68.909  49.400  54.188
16655DT     SC3 8190  68.677  49.548  54.018
16656DC     BB1 8191  69.239  49.049  53.769
16656DC     BB2 8192  69.212  48.977  54.121
16656DC     BB3 8193  69.053  48.849  54.155
16656DC     SC1 8194  68.880  49.043  54.118
16656DC     SC2 8195  68.785  49.091  54.305
16656DC     SC3 8196  68.683  49.182  54.011
16657DA     BB1 8197  69.389  48.680  54.340
16657DA     BB2 8198  69.117  48.687  54.586
16657DA     BB3 8199  68.973  48.536  54.541
16657DA     SC1 8200  68.799  48.720  54.362
16657DA     SC2 8201  68.574  48.829  54.372
16657DA     SC3 8202  68.595  48.847  54.116
16657DA     SC4 8203  68.830  48.721  54.204
16658DA     BB1 8204  69.039  48.463  54.852
16658DA     BB2 8205  68.686  48.534  54.922
16658DA     BB3 8206  68.563  48.373  54.853
16658DA     SC1 8207  68.520  48.496  54.571
16658DA     SC2 8208  68.333  48.598  54.441
16658DA     SC3 8209  68.474  48.543  54.234
16658DA     SC4 8210  68.622  48.452  54.454
16659DT     BB1 8211  68.467  48.272  54.992
16659DT     BB2 8212  68.141  48.411  54.928
16659DT     BB3 8213  68.024  48.274  54.826
16659DT     SC1 8214  68.155  48.317  54.603
16659DT     SC2 8215  68.027  48.419  54.463
16659DT     SC3 8216  68.307  48.273  54.392
16660DT     BB1 8217  67.885  48.251  55.051
16660DT     BB2 8218  67.645  48.354  54.802
16660DT     BB3 8219  67.575  48.189  54.699
16660DT     SC1 8220  67.800  48.168  54.565
16660DT     SC2 8221  67.765  48.219  54.359
16660DT     SC3 8222  68.027  48.069  54.475
16661DA     BB1 8223  67.260  48.430  54.832
16661DA     BB2 8224  67.205  48.353  54.478
16661DA     BB3 8225  67.152  48.148  54.454
16661DA     SC1 8226  67.446  48.051  54.417
16661DA     SC2 8227  67.588  47.960  54.234
16661DA     SC3 8228  67.738  47.871  54.423
16661DA     SC4 8229  67.525  48.003  54.549
16662DT     BB1 8230  66.985  48.136  54.389
16662DT     BB2 8231  67.071  48.028  54.055
16662DT     BB3 8232  67.054  47.823  54.041
16662DT     SC1 8233  67.276  47.787  54.177
16662DT     SC2 8234  67.428  47.710  54.046
16662DT     SC3 8235  67.439  47.712  54.370
16663DG     BB1 8236  66.827  48.004  53.756
16663DG     BB2 8237  67.040  47.749  53.615
16663DG     BB3 8238  66.967  47.568  53.657
16663DG     SC1 8239  67.121  47.541  53.920
16663DG     SC2 8240  67.340  47.345  53.975
16663DG     SC3 8241  67.259  47.485  54.223
16663DG     SC4 8242  67.055  47.596  54.055
16664DT     BB1 8243  66.907  47.443  53.496
16664DT     BB2 8244  67.164  47.189  53.493
16664DT     BB3 8245  67.094  47.018  53.586
16664DT     SC1 8246  67.119  47.127  53.823
16664DT     SC2 8247  67.279  47.032  53.930
16664DT     SC3 8248  67.053  47.225  54.059
16665DT     BB1 8249  67.074  46.892  53.345
16665DT     BB2 8250  67.278  46.669  53.543
16665DT     BB3 8251  67.157  46.541  53.652
16665DT     SC1 8252  67.093  46.733  53.820
16665DT     SC2 8253  67.182  46.692  54.012
16665DT     SC3 8254  66.947  46.907  53.953
16666DA     BB1 8255  67.413  46.276  53.449
16666DA     BB2 8256  67.401  46.167  53.799
16666DA     BB3 8257  67.216  46.068  53.840
16666DA     SC1 8258  67.070  46.328  53.928
16666DA     SC2 8259  66.980  46.427  54.139
16666DA     SC3 8260  66.837  46.574  53.985
16666DA     SC4 8261  66.988  46.409  53.816
16667DG     BB1 8262  67.352  45.779  53.911
16667DG     BB2 8263  67.214  45.834  54.241
16667DG     BB3 8264  67.030  45.759  54.250
16667DG     SC1 8265  66.893  46.017  54.159
16667DG     SC2 8266  66.714  46.189  54.324
16667DG     SC3 8267  66.712  46.276  54.042
16667DG     SC4 8268  66.872  46.042  54.002
16668DG     BB1 8269  67.057  45.509  54.500
16668DG     BB2 8270  66.826  45.701  54.699
16668DG     BB3 8271  66.640  45.637  54.669
16668DG     SC1 8272  66.586  45.828  54.436
16668DG     SC2 8273  66.391  46.054  54.436
16668DG     SC3 8274  66.499  46.008  54.164
16668DG     SC4 8275  66.623  45.781  54.287
16669DA     BB1 8276  66.543  45.557  55.013
16669DA     BB2 8277  66.284  45.817  55.009
16669DA     BB3 8278  66.101  45.738  54.934
16669DA     SC1 8279  66.162  45.812  54.638
16669DA     SC2 8280  66.078  45.973  54.467
16669DA     SC3 8281  66.186  45.815  54.295
16669DA     SC4 8282  66.234  45.700  54.547
16670DT     BB1 8283  65.883  45.698  55.052
16670DT     BB2 8284  65.726  45.993  54.917
16670DT     BB3 8285  65.566  45.940  54.797
16670DT     SC1 8286  65.726  45.861  54.605
16670DT     SC2 8287  65.711  45.997  54.438
16670DT     SC3 8288  65.848  45.703  54.432
16671DC     BB1 8289  65.372  46.028  54.980
16671DC     BB2 8290  65.319  46.229  54.686
16671DC     BB3 8291  65.178  46.139  54.563
16671DC     SC1 8292  65.351  45.958  54.484
16671DC     SC2 8293  65.402  45.992  54.278
16671DC     SC3 8294  65.465  45.723  54.447
16672DA     BB1 8295  65.115  46.545  54.637
16672DA     BB2 8296  65.112  46.489  54.275
16672DA     BB3 8297  64.936  46.381  54.219
16672DA     SC1 8298  65.069  46.102  54.249
16672DA     SC2 8299  65.144  45.916  54.100
16672DA     SC3 8300  65.133  45.770  54.311
16672DA     SC4 8301  65.055  46.027  54.391
16673DA     BB1 8302  64.995  46.646  54.038
16673DA     BB2 8303  65.002  46.411  53.757
16673DA     BB3 8304  64.810  46.322  53.729
16673DA     SC1 8305  64.867  46.081  53.917
16673DA     SC2 8306  64.904  45.835  53.896
16673DA     SC3 8307  64.843  45.825  54.145
16673DA     SC4 8308  64.826  46.095  54.072
16674DT     BB1 8309  64.779  46.375  53.578
16674DT     BB2 8310  64.805  46.058  53.409
16674DT     BB3 8311  64.621  45.962  53.410
16674DT     SC1 8312  64.647  45.899  53.664
16674DT     SC2 8313  64.675  45.687  53.682
16674DT     SC3 8314  64.599  45.890  53.923
16675DG     BB1 8315  64.771  45.998  53.032
16675DG     BB2 8316  64.658  45.662  53.101
16675DG     BB3 8317  64.459  45.656  53.102
16675DG     SC1 8318  64.435  45.717  53.401
16675DG     SC2 8319  64.334  45.530  53.611
16675DG     SC3 8320  64.372  45.802  53.721
16675DG     SC4 8321  64.429  45.870  53.449
16676DT     BB1 8322  64.347  45.538  52.955
16676DT     BB2 8323  64.215  45.267  53.152
16676DT     BB3 8324  64.016  45.302  53.197
16676DT     SC1 8325  64.080  45.484  53.375
16676DT     SC2 8326  64.035  45.409  53.572
16676DT     SC3 8327  64.100  45.717  53.496
16677DA     BB1 8328  63.981  44.922  53.014
16677DA     BB2 8329  63.781  44.909  53.321
16677DA     BB3 8330  63.595  45.009  53.293
16677DA     SC1 8331  63.701  45.285  53.389
16677DA     SC2 8332  63.670  45.437  53.584
16677DA     SC3 8333  63.762  45.620  53.430
16677DA     SC4 8334  63.759  45.385  53.277
16678DG     BB1 8335  63.399  44.746  53.335
16678DG     BB2 8336  63.280  44.924  53.627
16678DG     BB3 8337  63.122  45.034  53.579
16678DG     SC1 8338  63.287  45.282  53.504
16678DG     SC2 8339  63.288  45.542  53.650
16678DG     SC3 8340  63.436  45.563  53.395
16678DG     SC4 8341  63.339  45.297  53.354
16679DA     BB1 8342  62.894  44.900  53.824
16679DA     BB2 8343  62.867  45.226  53.990
16679DA     BB3 8344  62.716  45.344  53.896
16679DA     SC1 8345  62.912  45.477  53.693
16679DA     SC2 8346  63.011  45.702  53.653
16679DA     SC3 8347  63.054  45.617  53.414
16679DA     SC4 8348  62.929  45.406  53.550
16680DT     BB1 8349  62.513  45.410  53.991
16680DT     BB2 8350  62.620  45.747  54.061
16680DT     BB3 8351  62.513  45.881  53.944
16680DT     SC1 8352  62.649  45.815  53.730
16680DT     SC2 8353  62.775  45.980  53.672
16680DT     SC3 8354  62.704  45.722  53.489
16681DA     BB1 8355  62.493  46.000  54.342
16681DA     BB2 8356  62.607  46.286  54.142
16681DA     BB3 8357  62.444  46.369  54.032
16681DA     SC1 8358  62.491  46.191  53.781
16681DA     SC2 8359  62.570  46.219  53.547
16681DA     SC3 8360  62.453  45.996  53.501
16681DA     SC4 8361  62.411  46.052  53.773
16682DA     BB1 8362  62.594  46.605  54.192
16682DA     BB2 8363  62.660  46.750  53.862
16682DA     BB3 8364  62.478  46.822  53.775
16682DA     SC1 8365  62.412  46.554  53.632
16682DA     SC2 8366  62.404  46.466  53.398
16682DA     SC3 8367  62.254  46.282  53.494
16682DA     SC4 8368  62.319  46.448  53.710
16683DA     BB1 8369  62.710  47.051  53.759
16683DA     BB2 8370  62.653  47.040  53.396
16683DA     BB3 8371  62.458  47.114  53.350
16683DA     SC1 8372  62.322  46.835  53.367
16683DA     SC2 8373  62.217  46.670  53.212
16683DA     SC3 8374  62.102  46.576  53.421
16683DA     SC4 8375  62.259  46.792  53.509
16684DC     BB1 8376  62.477  47.261  53.253
16684DC     BB2 8377  62.362  47.129  52.937
16684DC     BB3 8378  62.162  47.172  52.912
16684DC     SC1 8379  62.092  46.988  53.085
16684DC     SC2 8380  61.994  46.826  52.982
16684DC     SC3 8381  61.991  46.877  53.302
16685DT     BB1 8382  62.230  47.355  52.724
16685DT     BB2 8383  61.992  47.140  52.557
16685DT     BB3 8384  61.799  47.206  52.595
16685DT     SC1 8385  61.807  47.111  52.840
16685DT     SC2 8386  61.674  46.943  52.856
16685DT     SC3 8387  61.806  47.104  53.104
16686DT     BB1 8388  61.765  47.311  52.340
16686DT     BB2 8389  61.484  47.089  52.379
16686DT     BB3 8390  61.324  47.190  52.464
16686DT     SC1 8391  61.438  47.188  52.700
16686DT     SC2 8392  61.329  47.057  52.831
16686DT     SC3 8393  61.550  47.275  52.922
16687DT     BB1 8394  61.168  47.214  52.226
16687DT     BB2 8395  60.943  47.054  52.457
16687DT     BB3 8396  60.830  47.196  52.556
16687DT     SC1 8397  61.034  47.265  52.706
16687DT     SC2 8398  60.999  47.202  52.909
16687DT     SC3 8399  61.226  47.412  52.812
16688DT     BB1 8400  60.589  47.146  52.416
16688DT     BB2 8401  60.498  47.099  52.762
16688DT     BB3 8402  60.427  47.277  52.841
16688DT     SC1 8403  60.669  47.377  52.854
16688DT     SC2 8404  60.728  47.394  53.060
16688DT     SC3 8405  60.875  47.535  52.807
16689DT     BB1 8406  60.170  47.181  52.844
16689DT     BB2 8407  60.237  47.270  53.187
16689DT     BB3 8408  60.187  47.468  53.220
16689DT     SC1 8409  60.400  47.551  53.091
16689DT     SC2 8410  60.538  47.640  53.231
16689DT     SC3 8411  60.550  47.668  52.908
16690DT     BB1 8412  59.981  47.379  53.365
16690DT     BB2 8413  60.168  47.590  53.590
16690DT     BB3 8414  60.110  47.787  53.568
16690DT     SC1 8415  60.240  47.808  53.341
16690DT     SC2 8416  60.409  47.938  53.367
16690DT     SC3 8417  60.286  47.842  53.083
16691DC     BB1 8418  59.998  47.762  53.808
16691DC     BB2 8419  60.222  48.042  53.840
16691DC     BB3 8420  60.130  48.215  53.774
16691DC     SC1 8421  60.157  48.143  53.523
16691DC     SC2 8422  60.300  48.271  53.427
16691DC     SC3 8423  60.094  48.071  53.277
16692DC     BB1 8424  60.132  48.279  54.028
16692DC     BB2 8425  60.301  48.550  53.860
16692DC     BB3 8426  60.162  48.679  53.777
16692DC     SC1 8427  60.108  48.510  53.584
16692DC     SC2 8428  60.182  48.587  53.397
16692DC     SC3 8429  59.973  48.342  53.431
16693DT     BB1 8430  60.227  48.858  53.966
16693DT     BB2 8431  60.277  49.032  53.654
16693DT     BB3 8432  60.098  49.112  53.588
16693DT     SC1 8433  60.011  48.875  53.514
16693DT     SC2 8434  60.001  48.867  53.299
16693DT     SC3 8435  59.863  48.657  53.503
16694DC     BB1 8436  60.179  49.363  53.652
16694DC     BB2 8437  60.093  49.383  53.302
16694DC     BB3 8438  59.890  49.423  53.282
16694DC     SC1 8439  59.828  49.177  53.347
16694DC     SC2 8440  59.750  49.074  53.175
16694DC     SC3 8441  59.726  48.974  53.482
16695DT     BB1 8442  59.939  49.681  53.203
16695DT     BB2 8443  59.744  49.540  52.934
16695DT     BB3 8444  59.542  49.562  52.973
16695DT     SC1 8445  59.548  49.371  53.152
16695DT     SC2 8446  59.440  49.200  53.079
16695DT     SC3 8447  59.532  49.248  53.385
16696DT     BB1 8448  59.521  49.755  52.782
16696DT     BB2 8449  59.281  49.503  52.684
16696DT     BB3 8450  59.100  49.537  52.779
16696DT     SC1 8451  59.194  49.449  53.007
16696DT     SC2 8452  59.100  49.262  53.056
16696DT     SC3 8453  59.271  49.446  53.260
16697DC     BB1 8454  58.995  49.616  52.543
16697DC     BB2 8455  58.785  49.343  52.652
16697DC     BB3 8456  58.637  49.414  52.778
16697DC     SC1 8457  58.808  49.443  52.975
16697DC     SC2 8458  58.766  49.298  53.128
16697DC     SC3 8459  58.955  49.559  53.160
16698DT     BB1 8460  58.462  49.368  52.581
16698DT     BB2 8461  58.341  49.175  52.861
16698DT     BB3 8462  58.227  49.294  52.985
16698DT     SC1 8463  58.441  49.414  53.080
16698DT     SC2 8464  58.470  49.356  53.285
16698DT     SC3 8465  58.614  49.605  53.135
16699DA     BB1 8466  58.007  48.948  52.896
16699DA     BB2 8467  57.997  48.999  53.259
16699DA     BB3 8468  57.873  49.165  53.307
16699DA     SC1 8469  58.104  49.373  53.296
16699DA     SC2 8470  58.231  49.516  53.456
16699DA     SC3 8471  58.293  49.656  53.250
16699DA     SC4 8472  58.130  49.448  53.156
16700DA     BB1 8473  57.734  48.938  53.500
16700DA     BB2 8474  57.823  49.153  53.783
16700DA     BB3 8475  57.693  49.323  53.791
16700DA     SC1 8476  57.876  49.501  53.613
16700DA     SC2 8477  58.022  49.702  53.641
16700DA     SC3 8478  57.998  49.729  53.387
16700DA     SC4 8479  57.849  49.501  53.455
16701DT     BB1 8480  57.562  49.344  53.948
16701DT     BB2 8481  57.740  49.608  54.118
16701DT     BB3 8482  57.643  49.788  54.090
16701DT     SC1 8483  57.728  49.805  53.842
16701DT     SC2 8484  57.871  49.965  53.827
16701DT     SC3 8485  57.724  49.817  53.579
16702DG     BB1 8486  57.657  49.732  54.494
16702DG     BB2 8487  57.792  50.054  54.401
16702DG     BB3 8488  57.644  50.182  54.365
16702DG     SC1 8489  57.625  50.113  54.067
16702DG     SC2 8490  57.691  50.295  53.840
16702DG     SC3 8491  57.562  50.047  53.743
16702DG     SC4 8492  57.529  49.993  54.022
16703DC     BB1 8493  57.613  50.369  54.488
16703DC     BB2 8494  57.735  50.621  54.261
16703DC     BB3 8495  57.576  50.725  54.178
16703DC     SC1 8496  57.517  50.523  54.021
16703DC     SC2 8497  57.562  50.576  53.817
16703DC     SC3 8498  57.382  50.324  53.912
16704DA     BB1 8499  57.841  51.008  54.336
16704DA     BB2 8500  57.762  51.106  53.991
16704DA     BB3 8501  57.563  51.183  53.980
16704DA     SC1 8502  57.434  50.907  53.919
16704DA     SC2 8503  57.323  50.794  53.726
16704DA     SC3 8504  57.223  50.637  53.902
16704DA     SC4 8505  57.381  50.821  54.043
16705DA     BB1 8506  57.728  51.430  53.842
16705DA     BB2 8507  57.532  51.365  53.540
16705DA     BB3 8508  57.332  51.436  53.564
16705DA     SC1 8509  57.224  51.168  53.678
16705DA     SC2 8510  57.071  50.984  53.605
16705DA     SC3 8511  57.053  50.928  53.855
16705DA     SC4 8512  57.224  51.149  53.838
16706DC     BB1 8513  57.283  51.581  53.447
16706DC     BB2 8514  57.073  51.388  53.226
16706DC     BB3 8515  56.874  51.422  53.270
16706DC     SC1 8516  56.889  51.274  53.486
16706DC     SC2 8517  56.775  51.094  53.457
16706DC     SC3 8518  56.885  51.206  53.741
16707DA     BB1 8519  56.939  51.472  52.859
16707DA     BB2 8520  56.649  51.252  52.904
16707DA     BB3 8521  56.482  51.363  52.977
16707DA     SC1 8522  56.550  51.315  53.277
16707DA     SC2 8523  56.457  51.187  53.469
16707DA     SC3 8524  56.593  51.347  53.616
16707DA     SC4 8525  56.641  51.425  53.351
16708DG     BB1 8526  56.366  51.252  52.714
16708DG     BB2 8527  56.143  51.080  52.942
16708DG     BB3 8528  56.002  51.205  53.006
16708DG     SC1 8529  56.163  51.303  53.247
16708DG     SC2 8530  56.096  51.254  53.534
16708DG     SC3 8531  56.319  51.447  53.510
16708DG     SC4 8532  56.262  51.428  53.230
16709DG     BB1 8533  55.797  50.984  52.886
16709DG     BB2 8534  55.678  50.950  53.226
16709DG     BB3 8535  55.555  51.100  53.270
16709DG     SC1 8536  55.777  51.284  53.374
16709DG     SC2 8537  55.812  51.374  53.656
16709DG     SC3 8538  55.996  51.518  53.476
16709DG     SC4 8539  55.852  51.380  53.271
16710DC     BB1 8540  55.355  51.053  53.320
16710DC     BB2 8541  55.350  51.111  53.676
16710DC     BB3 8542  55.265  51.295  53.716
16710DC     SC1 8543  55.481  51.421  53.636
16710DC     SC2 8544  55.578  51.511  53.805
16710DC     SC3 8545  55.638  51.578  53.494
16711DA     BB1 8546  55.069  51.010  53.954
16711DA     BB2 8547  55.160  51.293  54.169
16711DA     BB3 8548  55.036  51.461  54.125
16711DA     SC1 8549  55.228  51.578  53.910
16711DA     SC2 8550  55.379  51.775  53.885
16711DA     SC3 8551  55.361  51.731  53.633
16711DA     SC4 8552  55.203  51.535  53.757
16712DA     BB1 8553  54.993  51.437  54.451
16712DA     BB2 8554  55.133  51.775  54.471
16712DA     BB3 8555  54.993  51.918  54.398
16712DA     SC1 8556  55.096  51.906  54.105
16712DA     SC2 8557  55.219  52.054  53.946
16712DA     SC3 8558  55.122  51.904  53.762
16712DA     SC4 8559  55.025  51.802  54.005
16713DT     BB1 8560  54.922  52.046  54.528
16713DT     BB2 8561  55.109  52.333  54.414
16713DT     BB3 8562  54.987  52.456  54.301
16713DT     SC1 8563  54.994  52.291  54.097
16713DT     SC2 8564  55.108  52.381  53.937
16713DT     SC3 8565  54.914  52.122  53.911
16714DT     BB1 8566  54.996  52.629  54.504
16714DT     BB2 8567  55.121  52.811  54.219
16714DT     BB3 8568  54.964  52.888  54.109
16714DT     SC1 8569  54.906  52.651  54.011
16714DT     SC2 8570  54.954  52.647  53.801
16714DT     SC3 8571  54.773  52.430  53.959
16715DT     BB1 8572  55.045  53.122  54.198
16715DT     BB2 8573  55.056  53.147  53.838
16715DT     BB3 8574  54.867  53.190  53.764
16715DT     SC1 8575  54.786  52.944  53.807
16715DT     SC2 8576  54.757  52.845  53.618
16715DT     SC3 8577  54.650  52.741  53.906
16716DT     BB1 8578  54.974  53.422  53.708
16716DT     BB2 8579  54.851  53.294  53.394
16716DT     BB3 8580  54.647  53.327  53.379
16716DT     SC1 8581  54.595  53.134  53.549
16716DT     SC2 8582  54.502  52.970  53.446
16716DT     SC3 8583  54.511  53.012  53.767
16717DC     BB1 8584  54.713  53.503  53.194
16717DC     BB2 8585  54.485  53.276  53.032
16717DC     BB3 8586  54.289  53.326  53.078
16717DC     SC1 8587  54.313  53.228  53.320
16717DC     SC2 8588  54.193  53.050  53.337
16717DC     SC3 8589  54.322  53.217  53.583
16718DA     BB1 8590  54.315  53.294  52.658
16718DA     BB2 8591  54.020  53.107  52.769
16718DA     BB3 8592  53.867  53.241  52.834
16718DA     SC1 8593  53.962  53.244  53.130
16718DA     SC2 8594  53.880  53.161  53.351
16718DA     SC3 8595  54.039  53.335  53.452
16718DA     SC4 8596  54.065  53.359  53.174
16719DG     BB1 8597  53.682  53.124  52.605
16719DG     BB2 8598  53.480  53.013  52.883
16719DG     BB3 8599  53.361  53.160  52.944
16719DG     SC1 8600  53.562  53.273  53.145
16719DG     SC2 8601  53.533  53.273  53.442
16719DG     SC3 8602  53.766  53.436  53.359
16719DG     SC4 8603  53.668  53.383  53.095
16720DT     BB1 8604  53.115  53.170  52.937
16720DT     BB2 8605  53.039  53.113  53.285
16720DT     BB3 8606  52.970  53.288  53.372
16720DT     SC1 8607  53.213  53.389  53.377
16720DT     SC2 8608  53.281  53.401  53.581
16720DT     SC3 8609  53.415  53.550  53.326
16721DT     BB1 8610  52.695  53.215  53.388
16721DT     BB2 8611  52.788  53.285  53.729
16721DT     BB3 8612  52.751  53.484  53.773
16721DT     SC1 8613  52.960  53.562  53.635
16721DT     SC2 8614  53.110  53.637  53.769
16721DT     SC3 8615  53.104  53.680  53.448
16722DC     BB1 8616  52.535  53.422  53.933
16722DC     BB2 8617  52.764  53.594  54.152
16722DC     BB3 8618  52.729  53.798  54.144
16722DC     SC1 8619  52.842  53.817  53.908
16722DC     SC2 8620  53.028  53.924  53.926
16722DC     SC3 8621  52.871  53.861  53.650
16723DT     BB1 8622  52.634  53.777  54.392
16723DT     BB2 8623  52.910  54.008  54.416
16723DT     BB3 8624  52.846  54.199  54.368
16723DT     SC1 8625  52.836  54.140  54.112
16723DT     SC2 8626  52.992  54.245  54.009
16723DT     SC3 8627  52.739  54.098  53.871
16724DA     BB1 8628  53.062  54.193  54.729
16724DA     BB2 8629  53.200  54.456  54.513
16724DA     BB3 8630  53.062  54.617  54.496
16724DA     SC1 8631  52.921  54.501  54.244
16724DA     SC2 8632  52.903  54.555  54.001
16724DA     SC3 8633  52.692  54.410  54.004
16724DA     SC4 8634  52.792  54.408  54.267
16725DA     BB1 8635  53.340  54.763  54.587
16725DA     BB2 8636  53.317  54.948  54.271
16725DA     BB3 8637  53.158  55.090  54.280
16725DA     SC1 8638  52.945  54.894  54.167
16725DA     SC2 8639  52.812  54.867  53.957
16725DA     SC3 8640  52.655  54.722  54.100
16725DA     SC4 8641  52.859  54.809  54.272
16726DA     BB1 8642  53.410  55.278  54.188
16726DA     BB2 8643  53.217  55.348  53.885
16726DA     BB3 8644  53.053  55.478  53.929
16726DA     SC1 8645  52.854  55.246  53.988
16726DA     SC2 8646  52.652  55.146  53.883
16726DA     SC3 8647  52.604  55.049  54.115
16726DA     SC4 8648  52.841  55.196  54.140
16727DG     BB1 8649  53.198  55.659  53.724
16727DG     BB2 8650  52.896  55.601  53.533
16727DG     BB3 8651  52.751  55.721  53.597
16727DG     SC1 8652  52.647  55.525  53.808
16727DG     SC2 8653  52.382  55.387  53.804
16727DG     SC3 8654  52.520  55.343  54.062
16727DG     SC4 8655  52.711  55.528  53.955
16728DG     BB1 8656  52.740  55.826  53.290
16728DG     BB2 8657  52.404  55.690  53.286
16728DG     BB3 8658  52.278  55.817  53.372
16728DG     SC1 8659  52.314  55.702  53.653
16728DG     SC2 8660  52.105  55.559  53.811
16728DG     SC3 8661  52.344  55.614  53.977
16728DG     SC4 8662  52.431  55.759  53.746
16729DT     BB1 8663  52.132  55.878  53.249
16729DT     BB2 8664  51.850  55.693  53.376
16729DT     BB3 8665  51.738  55.812  53.503
16729DT     SC1 8666  51.917  55.791  53.694
16729DT     SC2 8667  51.837  55.672  53.854
16729DT     SC3 8668  52.102  55.858  53.870
16730DC     BB1 8669  51.579  55.777  53.305
16730DC     BB2 8670  51.409  55.649  53.596
16730DC     BB3 8671  51.336  55.805  53.710
16730DC     SC1 8672  51.576  55.863  53.799
16730DC     SC2 8673  51.588  55.814  54.008
16730DC     SC3 8674  51.799  55.998  53.843
16731DG     BB1 8675  51.072  55.508  53.611
16731DG     BB2 8676  51.070  55.584  53.964
16731DG     BB3 8677  50.991  55.763  53.995
16731DG     SC1 8678  51.257  55.912  53.971
16731DG     SC2 8679  51.397  56.057  54.192
16731DG     SC3 8680  51.528  56.109  53.932
16731DG     SC4 8681  51.306  55.961  53.827
16732DT     BB1 8682  50.840  55.745  54.108
16732DT     BB2 8683  50.947  55.901  54.415
16732DT     BB3 8684  50.899  56.103  54.412
16732DT     SC1 8685  51.094  56.155  54.245
16732DT     SC2 8686  51.246  56.268  54.346
16732DT     SC3 8687  51.219  56.230  54.025
16733DA     BB1 8688  50.754  55.941  54.773
16733DA     BB2 8689  50.925  56.256  54.850
16733DA     BB3 8690  50.811  56.421  54.778
16733DA     SC1 8691  50.949  56.428  54.499
16733DA     SC2 8692  51.107  56.576  54.375
16733DA     SC3 8693  51.019  56.458  54.165
16733DA     SC4 8694  50.881  56.344  54.381
16734DA     BB1 8695  50.830  56.533  55.090
16734DA     BB2 8696  51.000  56.830  54.957
16734DA     BB3 8697  50.859  56.961  54.865
16734DA     SC1 8698  50.886  56.833  54.583
16734DA     SC2 8699  50.979  56.896  54.360
16734DA     SC3 8700  50.828  56.711  54.268
16734DA     SC4 8701  50.784  56.715  54.545
16735DC     BB1 8702  50.811  57.154  54.946
16735DC     BB2 8703  50.989  57.348  54.699
16735DC     BB3 8704  50.854  57.441  54.572
16735DC     SC1 8705  50.803  57.215  54.448
16735DC     SC2 8706  50.884  57.223  54.249
16735DC     SC3 8707  50.670  57.006  54.359
16736DA     BB1 8708  51.105  57.746  54.713
16736DA     BB2 8709  51.089  57.775  54.348
16736DA     BB3 8710  50.900  57.855  54.289
16736DA     SC1 8711  50.763  57.577  54.261
16736DA     SC2 8712  50.677  57.431  54.077
16736DA     SC3 8713  50.540  57.316  54.261
16736DA     SC4 8714  50.685  57.519  54.389
16737DA     BB1 8715  51.100  58.064  54.134
16737DA     BB2 8716  50.949  57.946  53.822
16737DA     BB3 8717  50.753  58.026  53.800
16737DA     SC1 8718  50.612  57.789  53.943
16737DA     SC2 8719  50.463  57.599  53.883
16737DA     SC3 8720  50.403  57.593  54.132
16737DA     SC4 8721  50.588  57.802  54.102
16738DT     BB1 8722  50.726  58.150  53.651
16738DT     BB2 8723  50.537  57.927  53.439
16738DT     BB3 8724  50.336  57.975  53.448
16738DT     SC1 8725  50.313  57.868  53.687
16738DT     SC2 8726  50.195  57.689  53.674
16738DT     SC3 8727  50.271  57.848  53.946
16739DT     BB1 8728  50.351  58.075  53.197
16739DT     BB2 8729  50.090  57.827  53.180
16739DT     BB3 8730  49.909  57.910  53.238
16739DT     SC1 8731  49.980  57.908  53.491
16739DT     SC2 8732  49.863  57.763  53.597
16739DT     SC3 8733  50.043  57.996  53.731
16740DT     BB1 8734  49.811  57.916  52.979
16740DT     BB2 8735  49.562  57.730  53.162
16740DT     BB3 8736  49.422  57.860  53.243
16740DT     SC1 8737  49.590  57.938  53.429
16740DT     SC2 8738  49.524  57.866  53.620
16740DT     SC3 8739  49.747  58.095  53.571
16741DC     BB1 8740  49.210  57.804  53.059
16741DC     BB2 8741  49.062  57.739  53.382
16741DC     BB3 8742  48.971  57.911  53.453
16741DC     SC1 8743  49.202  58.020  53.512
16741DC     SC2 8744  49.224  58.031  53.726
16741DC     SC3 8745  49.406  58.187  53.508
16742DA     BB1 8746  48.652  57.635  53.469
16742DA     BB2 8747  48.672  57.795  53.799
16742DA     BB3 8748  48.584  57.990  53.792
16742DA     SC1 8749  48.850  58.134  53.719
16742DA     SC2 8750  49.011  58.290  53.828
16742DA     SC3 8751  49.088  58.346  53.589
16742DA     SC4 8752  48.883  58.156  53.563
16743DA     BB1 8753  48.395  57.884  54.041
16743DA     BB2 8754  48.554  58.139  54.249
16743DA     BB3 8755  48.466  58.330  54.213
16743DA     SC1 8756  48.666  58.407  53.987
16743DA     SC2 8757  48.853  58.568  53.953
16743DA     SC3 8758  48.812  58.531  53.703
16743DA     SC4 8759  48.624  58.372  53.836
16744DT     BB1 8760  48.360  58.423  54.365
16744DT     BB2 8761  48.617  58.661  54.450
16744DT     BB3 8762  48.563  58.850  54.384
16744DT     SC1 8763  48.616  58.788  54.135
16744DT     SC2 8764  48.790  58.896  54.070
16744DT     SC3 8765  48.580  58.741  53.878
16745DA     BB1 8766  48.677  58.864  54.786
16745DA     BB2 8767  48.861  59.124  54.606
16745DA     BB3 8768  48.731  59.285  54.553
16745DA     SC1 8769  48.654  59.164  54.277
16745DA     SC2 8770  48.694  59.215  54.036
16745DA     SC3 8771  48.488  59.068  53.992
16745DA     SC4 8772  48.523  59.071  54.270
16746DA     BB1 8773  48.984  59.422  54.704
16746DA     BB2 8774  49.038  59.603  54.390
16746DA     BB3 8775  48.885  59.749  54.361
16746DA     SC1 8776  48.698  59.557  54.203
16746DA     SC2 8777  48.615  59.531  53.970
16746DA     SC3 8778  48.426  59.392  54.074
16746DA     SC4 8779  48.588  59.476  54.287
16747DT     BB1 8780  48.960  59.912  54.362
16747DT     BB2 8781  48.931  59.979  54.009
16747DT     BB3 8782  48.762  60.093  53.973
16747DT     SC1 8783  48.605  59.886  54.010
16747DT     SC2 8784  48.516  59.829  53.822
16747DT     SC3 8785  48.419  59.732  54.116
16748DT     BB1 8786  48.939  60.277  53.916
16748DT     BB2 8787  48.735  60.246  53.620
16748DT     BB3 8788  48.559  60.353  53.644
16748DT     SC1 8789  48.461  60.171  53.806
16748DT     SC2 8790  48.299  60.068  53.709
16748DT     SC3 8791  48.367  60.059  54.025
16749DT     BB1 8792  48.661  60.519  53.465
16749DT     BB2 8793  48.342  60.419  53.329
16749DT     BB3 8794  48.191  60.533  53.411
16749DT     SC1 8795  48.205  60.403  53.638
16749DT     SC2 8796  48.028  60.283  53.663
16749DT     SC3 8797  48.243  60.355  53.895
16750DA     BB1 8798  48.148  60.543  52.993
16750DA     BB2 8799  47.819  60.475  53.139
16750DA     BB3 8800  47.742  60.650  53.234
16750DA     SC1 8801  47.866  60.583  53.511
16750DA     SC2 8802  47.785  60.513  53.737
16750DA     SC3 8803  48.012  60.599  53.821
16750DA     SC4 8804  48.011  60.642  53.544
16751DG     BB1 8805  47.504  60.629  53.030
16751DG     BB2 8806  47.307  60.583  53.330
16751DG     BB3 8807  47.264  60.760  53.410
16751DG     SC1 8808  47.515  60.768  53.586
16751DG     SC2 8809  47.520  60.755  53.884
16751DG     SC3 8810  47.788  60.819  53.776
16751DG     SC4 8811  47.649  60.831  53.526
16752DA     BB1 8812  46.922  60.680  53.412
16752DA     BB2 8813  46.910  60.720  53.777
16752DA     BB3 8814  46.902  60.927  53.828
16752DA     SC1 8815  47.211  60.960  53.847
16752DA     SC2 8816  47.382  60.997  54.024
16752DA     SC3 8817  47.533  61.078  53.833
16752DA     SC4 8818  47.288  61.008  53.715
16753DA     BB1 8819  46.630  60.847  53.998
16753DA     BB2 8820  46.803  60.959  54.301
16753DA     BB3 8821  46.799  61.171  54.315
16753DA     SC1 8822  47.067  61.210  54.162
16753DA     SC2 8823  47.300  61.284  54.213
16753DA     SC3 8824  47.320  61.327  53.961
16753DA     SC4 8825  47.059  61.232  54.002
16754DT     BB1 8826  46.692  61.263  54.466
16754DT     BB2 8827  46.976  61.362  54.666
16754DT     BB3 8828  47.005  61.567  54.650
16754DT     SC1 8829  47.105  61.542  54.408
16754DT     SC2 8830  47.315  61.586  54.413
16754DT     SC3 8831  47.131  61.566  54.147
16755DA     BB1 8832  46.997  61.464  55.056
16755DA     BB2 8833  47.291  61.676  54.999
16755DA     BB3 8834  47.231  61.878  54.966
16755DA     SC1 8835  47.209  61.847  54.658
16755DA     SC2 8836  47.330  61.927  54.455
16755DA     SC3 8837  47.114  61.871  54.328
16755DA     SC4 8838  47.065  61.808  54.597
16756DT     BB1 8839  47.286  62.006  55.103
16756DT     BB2 8840  47.540  62.176  54.911
16756DT     BB3 8841  47.468  62.358  54.842
16756DT     SC1 8842  47.321  62.239  54.660
16756DT     SC2 8843  47.401  62.281  54.465
16756DT     SC3 8844  47.108  62.158  54.527
16757DG     BB1 8845  47.799  62.449  55.063
16757DG     BB2 8846  47.811  62.610  54.739
16757DG     BB3 8847  47.693  62.770  54.739
16757DG     SC1 8848  47.444  62.618  54.646
16757DG     SC2 8849  47.306  62.650  54.383
16757DG     SC3 8850  47.148  62.479  54.565
16757DG     SC4 8851  47.349  62.551  54.756
16758DT     BB1 8852  47.754  63.013  54.719
16758DT     BB2 8853  47.644  63.088  54.384
16758DT     BB3 8854  47.475  63.208  54.391
16758DT     SC1 8855  47.324  63.006  54.462
16758DT     SC2 8856  47.192  62.956  54.301
16758DT     SC3 8857  47.164  62.855  54.608
16759DG     BB1 8858  47.710  63.504  54.202
16759DG     BB2 8859  47.400  63.462  54.020
16759DG     BB3 8860  47.260  63.579  54.096
16759DG     SC1 8861  47.161  63.371  54.298
16759DG     SC2 8862  46.893  63.238  54.296
16759DG     SC3 8863  47.040  63.175  54.545
16759DG     SC4 8864  47.230  63.364  54.442
16760DC     BB1 8865  47.097  63.830  54.016
16760DC     BB2 8866  46.790  63.658  53.935
16760DC     BB3 8867  46.638  63.721  54.060
16760DC     SC1 8868  46.735  63.584  54.261
16760DC     SC2 8869  46.604  63.420  54.306
16760DC     SC3 8870  46.842  63.529  54.496
16761DT     BB1 8871  46.461  63.911  53.888
16761DT     BB2 8872  46.235  63.648  53.986
16761DT     BB3 8873  46.119  63.710  54.146
16761DT     SC1 8874  46.320  63.685  54.312
16761DT     SC2 8875  46.282  63.519  54.445
16761DT     SC3 8876  46.508  63.748  54.486
16762DA     BB1 8877  45.883  63.555  53.838
16762DA     BB2 8878  45.812  63.369  54.145
16762DA     BB3 8879  45.697  63.488  54.280
16762DA     SC1 8880  45.946  63.607  54.424
16762DA     SC2 8881  46.056  63.590  54.647
16762DA     SC3 8882  46.168  63.812  54.587
16762DA     SC4 8883  46.005  63.746  54.369
16763DA     BB1 8884  45.567  63.195  54.233
16763DA     BB2 8885  45.626  63.149  54.592
16763DA     BB3 8886  45.502  63.280  54.705
16763DA     SC1 8887  45.710  63.512  54.712
16763DA     SC2 8888  45.856  63.623  54.881
16763DA     SC3 8889  45.864  63.818  54.714
16763DA     SC4 8890  45.702  63.622  54.596
16764DT     BB1 8891  45.417  63.168  54.789
16764DT     BB2 8892  45.575  63.225  55.108
16764DT     BB3 8893  45.474  63.373  55.211
16764DT     SC1 8894  45.576  63.560  55.057
16764DT     SC2 8895  45.716  63.678  55.171
16764DT     SC3 8896  45.591  63.757  54.883
16765DA     BB1 8897  45.556  63.028  55.442
16765DA     BB2 8898  45.655  63.326  55.631
16765DA     BB3 8899  45.484  63.440  55.685
16765DA     SC1 8900  45.491  63.616  55.428
16765DA     SC2 8901  45.540  63.853  55.368
16765DA     SC3 8902  45.408  63.805  55.154
16765DA     SC4 8903  45.404  63.567  55.302
16766DC     BB1 8904  45.465  63.444  55.865
16766DC     BB2 8905  45.566  63.787  55.913
16766DC     BB3 8906  45.399  63.909  55.924
16766DC     SC1 8907  45.360  63.891  55.665
16766DC     SC2 8908  45.401  64.082  55.574
16766DC     SC3 8909  45.244  63.835  55.435
16767DG     BB1 8910  45.624  63.956  56.261
16767DG     BB2 8911  45.554  64.272  56.099
16767DG     BB3 8912  45.366  64.326  56.134
16767DG     SC1 8913  45.253  64.183  55.888
16767DG     SC2 8914  45.132  64.315  55.649
16767DG     SC3 8915  45.094  64.022  55.638
16767DG     SC4 8916  45.209  64.030  55.900
16768DT     BB1 8917  45.340  64.504  56.234
16768DT     BB2 8918  45.230  64.721  55.968
16768DT     BB3 8919  45.024  64.740  55.973
16768DT     SC1 8920  44.991  64.499  55.874
16768DT     SC2 8921  44.914  64.514  55.674
16768DT     SC3 8922  44.919  64.246  55.857
16769DT     BB1 8923  45.095  64.979  56.038
16769DT     BB2 8924  44.898  65.011  55.737
16769DT     BB3 8925  44.697  64.994  55.783
16769DT     SC1 8926  44.718  64.734  55.816
16769DT     SC2 8927  44.615  64.633  55.657
16769DT     SC3 8928  44.716  64.498  55.933
16770DA     BB1 8929  44.810  65.309  55.522
16770DA     BB2 8930  44.521  65.131  55.382
16770DA     BB3 8931  44.351  65.156  55.508
16770DA     SC1 8932  44.410  64.902  55.678
16770DA     SC2 8933  44.312  64.675  55.711
16770DA     SC3 8934  44.442  64.673  55.932
16770DA     SC4 8935  44.497  64.920  55.811
16771DT     BB1 8936  44.257  65.228  55.400
16771DT     BB2 8937  44.017  64.962  55.358
16771DT     BB3 8938  43.873  64.972  55.506
16771DT     SC1 8939  44.040  64.877  55.685
16771DT     SC2 8940  43.978  64.679  55.742
16771DT     SC3 8941  44.192  64.864  55.900
16772DT     BB1 8942  43.728  65.039  55.303
16772DT     BB2 8943  43.556  64.764  55.460
16772DT     BB3 8944  43.458  64.830  55.630
16772DT     SC1 8945  43.683  64.846  55.764
16772DT     SC2 8946  43.688  64.694  55.915
16772DT     SC3 8947  43.885  64.950  55.898
16773DA     BB1 8948  43.163  64.629  55.405
16773DA     BB2 8949  43.135  64.515  55.753
16773DA     BB3 8950  43.051  64.669  55.875
16773DA     SC1 8951  43.326  64.794  55.950
16773DA     SC2 8952  43.471  64.813  56.152
16773DA     SC3 8953  43.583  65.008  56.029
16773DA     SC4 8954  43.382  64.913  55.858
16774DT     BB1 8955  42.858  64.654  55.963
16774DT     BB2 8956  42.969  64.601  56.303
16774DT     BB3 8957  42.938  64.772  56.415
16774DT     SC1 8958  43.141  64.894  56.301
16774DT     SC2 8959  43.299  64.918  56.445
16774DT     SC3 8960  43.277  65.069  56.159
16775DA     BB1 8961  42.749  64.468  56.634
16775DA     BB2 8962  42.964  64.654  56.865
16775DA     BB3 8963  42.877  64.842  56.913
16775DA     SC1 8964  43.017  64.994  56.680
16775DA     SC2 8965  43.195  65.166  56.653
16775DA     SC3 8966  43.092  65.206  56.421
16775DA     SC4 8967  42.938  65.005  56.541
16776DC     BB1 8968  42.819  64.872  57.101
16776DC     BB2 8969  43.090  65.092  57.193
16776DC     BB3 8970  43.023  65.288  57.199
16776DC     SC1 8971  43.018  65.302  56.937
16776DC     SC2 8972  43.173  65.435  56.869
16776DC     SC3 8973  42.925  65.327  56.691
16777DT     BB1 8974  43.048  65.273  57.463
16777DT     BB2 8975  43.256  65.551  57.365
16777DT     BB3 8976  43.140  65.722  57.345
16777DT     SC1 8977  43.039  65.637  57.118
16777DT     SC2 8978  43.114  65.758  56.957
16777DT     SC3 8979  42.863  65.554  56.941
16778DA     BB1 8980  43.472  65.809  57.589
16778DA     BB2 8981  43.444  66.072  57.336
16778DA     BB3 8982  43.273  66.194  57.375
16778DA     SC1 8983  43.080  66.023  57.201
16778DA     SC2 8984  42.956  66.046  56.986
16778DA     SC3 8985  42.808  65.856  57.075
16778DA     SC4 8986  42.998  65.906  57.275
16779DG     BB1 8987  43.477  66.433  57.402
16779DG     BB2 8988  43.297  66.562  57.116
16779DG     BB3 8989  43.130  66.653  57.175
16779DG     SC1 8990  42.958  66.400  57.160
16779DG     SC2 8991  42.734  66.351  56.969
16779DG     SC3 8992  42.746  66.139  57.174
16779DG     SC4 8993  42.949  66.304  57.288
16780DA     BB1 8994  43.202  66.964  57.012
16780DA     BB2 8995  42.899  66.933  56.807
16780DA     BB3 8996  42.728  66.997  56.918
16780DA     SC1 8997  42.666  66.714  57.031
16780DA     SC2 8998  42.492  66.537  57.003
16780DA     SC3 8999  42.573  66.449  57.230
16780DA     SC4 9000  42.730  66.675  57.174
16781DA     BB1 9001  42.631  67.243  56.694
16781DA     BB2 9002  42.326  67.049  56.630
16781DA     BB3 9003  42.175  67.099  56.773
16781DA     SC1 9004  42.258  66.878  56.975
16781DA     SC2 9005  42.167  66.663  57.062
16781DA     SC3 9006  42.327  66.698  57.259
16781DA     SC4 9007  42.364  66.918  57.090
16782DA     BB1 9008  41.953  67.190  56.532
16782DA     BB2 9009  41.748  66.902  56.631
16782DA     BB3 9010  41.618  66.956  56.791
16782DA     SC1 9011  41.819  66.874  57.014
16782DA     SC2 9012  41.840  66.696  57.187
16782DA     SC3 9013  42.004  66.856  57.303
16782DA     SC4 9014  41.917  66.988  57.071
16783DA     BB1 9015  41.384  66.847  56.590
16783DA     BB2 9016  41.327  66.579  56.833
16783DA     BB3 9017  41.206  66.650  56.994
16783DA     SC1 9018  41.448  66.739  57.168
16783DA     SC2 9019  41.560  66.668  57.379
16783DA     SC3 9020  41.658  66.905  57.383
16783DA     SC4 9021  41.498  66.892  57.154
16784DT     BB1 9022  41.035  66.563  57.007
16784DT     BB2 9023  41.122  66.351  57.286
16784DT     BB3 9024  41.038  66.425  57.460
16784DT     SC1 9025  41.214  66.619  57.472
16784DT     SC2 9026  41.346  66.584  57.638
16784DT     SC3 9027  41.316  66.862  57.474
16785DA     BB1 9028  40.975  66.014  57.401
16785DA     BB2 9029  41.103  66.067  57.741
16785DA     BB3 9030  40.957  66.165  57.861
16785DA     SC1 9031  41.056  66.451  57.792
16785DA     SC2 9032  41.171  66.640  57.907
16785DA     SC3 9033  41.076  66.786  57.719
16785DA     SC4 9034  40.986  66.526  57.667
16786DT     BB1 9035  40.914  66.053  57.991
16786DT     BB2 9036  41.082  66.228  58.258
16786DT     BB3 9037  40.948  66.351  58.358
16786DT     SC1 9038  40.948  66.524  58.161
16786DT     SC2 9039  41.047  66.704  58.224
16786DT     SC3 9040  40.861  66.672  57.960
16787DA     BB1 9041  41.173  66.115  58.624
16787DA     BB2 9042  41.176  66.461  58.743
16787DA     BB3 9043  40.982  66.517  58.814
16787DA     SC1 9044  40.886  66.625  58.538
16787DA     SC2 9045  40.832  66.846  58.435
16787DA     SC3 9046  40.701  66.710  58.262
16787DA     SC4 9047  40.809  66.523  58.441
16788DA     BB1 9048  41.172  66.596  59.068
16788DA     BB2 9049  41.047  66.939  59.026
16788DA     BB3 9050  40.843  66.951  59.089
16788DA     SC1 9051  40.727  66.887  58.808
16788DA     SC2 9052  40.603  67.007  58.628
16788DA     SC3 9053  40.535  66.773  58.547
16788DA     SC4 9054  40.695  66.733  58.774
16789DC     BB1 9055  40.811  67.061  59.245
16789DC     BB2 9056  40.653  67.337  59.075
16789DC     BB3 9057  40.448  67.327  59.099
16789DC     SC1 9058  40.429  67.130  58.927
16789DC     SC2 9059  40.331  67.199  58.749
16789DC     SC3 9060  40.382  66.889  58.829
16790DT     BB1 9061  40.459  67.538  59.267
16790DT     BB2 9062  40.225  67.639  59.012
16790DT     BB3 9063  40.035  67.572  59.059
16790DT     SC1 9064  40.097  67.326  58.993
16790DT     SC2 9065  39.992  67.271  58.814
16790DT     SC3 9066  40.142  67.067  59.015
16791DA     BB1 9067  40.002  67.983  58.981
16791DA     BB2 9068  39.737  67.812  58.794
16791DA     BB3 9069  39.583  67.746  58.927
16791DA     SC1 9070  39.712  67.467  58.976
16791DA     SC2 9071  39.664  67.229  58.919
16791DA     SC3 9072  39.821  67.172  59.114
16791DA     SC4 9073  39.811  67.452  59.102
16792DT     BB1 9074  39.399  67.830  58.914
16792DT     BB2 9075  39.231  67.550  58.762
16792DT     BB3 9076  39.114  67.453  58.902
16792DT     SC1 9077  39.324  67.345  59.015
16792DT     SC2 9078  39.325  67.133  58.978
16792DT     SC3 9079  39.506  67.288  59.198
16793DA     BB1 9080  38.857  67.535  58.580
16793DA     BB2 9081  38.813  67.182  58.670
16793DA     BB3 9082  38.701  67.165  58.850
16793DA     SC1 9083  38.952  67.169  59.035
16793DA     SC2 9084  39.075  67.009  59.182
16793DA     SC3 9085  39.172  67.219  59.293
16793DA     SC4 9086  39.000  67.311  59.092
16794DA     BB1 9087  38.506  66.971  58.669
16794DA     BB2 9088  38.590  66.699  58.901
16794DA     BB3 9089  38.479  66.719  59.082
16794DA     SC1 9090  38.696  66.891  59.224
16794DA     SC2 9091  38.858  66.865  59.412
16794DA     SC3 9092  38.863  67.122  59.416
16794DA     SC4 9093  38.684  67.051  59.212
16795DT     BB1 9094  38.338  66.578  59.129
16795DT     BB2 9095  38.530  66.413  59.387
16795DT     BB3 9096  38.454  66.462  59.573
16795DT     SC1 9097  38.560  66.702  59.562
16795DT     SC2 9098  38.720  66.716  59.704
16795DT     SC3 9099  38.578  66.965  59.553
16796DT     BB1 9100  38.361  66.211  59.591
16796DT     BB2 9101  38.576  66.251  59.878
16796DT     BB3 9102  38.471  66.337  60.034
16796DT     SC1 9103  38.477  66.573  59.918
16796DT     SC2 9104  38.606  66.704  60.030
16796DT     SC3 9105  38.394  66.795  59.802
16797DA     BB1 9106  38.667  65.994  60.171
16797DA     BB2 9107  38.737  66.267  60.406
16797DA     BB3 9108  38.563  66.313  60.520
16797DA     SC1 9109  38.460  66.528  60.320
16797DA     SC2 9110  38.432  66.775  60.312
16797DA     SC3 9111  38.264  66.731  60.123
16797DA     SC4 9112  38.358  66.479  60.205
16798DG     BB1 9113  38.758  66.239  60.748
16798DG     BB2 9114  38.706  66.585  60.840
16798DG     BB3 9115  38.531  66.605  60.934
16798DG     SC1 9116  38.371  66.657  60.679
16798DG     SC2 9117  38.236  66.913  60.605
16798DG     SC3 9118  38.162  66.697  60.418
16798DG     SC4 9119  38.311  66.532  60.599
16799DT     BB1 9120  38.526  66.673  61.141
16799DT     BB2 9121  38.399  67.009  61.107
16799DT     BB3 9122  38.199  67.014  61.158
16799DT     SC1 9123  38.131  66.899  60.931
16799DT     SC2 9124  38.028  67.041  60.807
16799DT     SC3 9125  38.036  66.720  60.762
16800DA     BB1 9126  38.377  67.313  61.393
16800DA     BB2 9127  38.078  67.458  61.238
16800DA     BB3 9128  37.902  67.384  61.333
16800DA     SC1 9129  37.870  67.142  61.139
16800DA     SC2 9130  37.715  67.070  60.958
16800DA     SC3 9131  37.806  66.834  61.001
16800DA     SC4 9132  37.938  67.003  61.182
16801DA     BB1 9133  37.816  67.702  61.388
16801DA     BB2 9134  37.518  67.643  61.183
16801DA     BB3 9135  37.369  67.542  61.297
16801DA     SC1 9136  37.465  67.257  61.216
16801DA     SC2 9137  37.384  67.067  61.076
16801DA     SC3 9138  37.547  66.924  61.212
16801DA     SC4 9139  37.572  67.185  61.312
16802DA     BB1 9140  37.174  67.794  61.209
16802DA     BB2 9141  36.964  67.548  61.035
16802DA     BB3 9142  36.843  67.442  61.175
16802DA     SC1 9143  37.051  67.215  61.220
16802DA     SC2 9144  37.074  66.973  61.166
16802DA     SC3 9145  37.248  66.969  61.355
16802DA     SC4 9146  37.155  67.233  61.341
16803DT     BB1 9147  36.639  67.466  61.170
16803DT     BB2 9148  36.565  67.148  61.018
16803DT     BB3 9149  36.486  67.018  61.159
16803DT     SC1 9150  36.722  66.981  61.268
16803DT     SC2 9151  36.788  66.780  61.229
16803DT     SC3 9152  36.915  66.983  61.448
16804DT     BB1 9153  36.247  67.043  61.038
16804DT     BB2 9154  36.320  66.689  61.030
16804DT     BB3 9155  36.260  66.601  61.208
16804DT     SC1 9156  36.464  66.703  61.337
16804DT     SC2 9157  36.600  66.546  61.391
16804DT     SC3 9158  36.600  66.847  61.511
16805DT     BB1 9159  36.065  66.485  61.067
16805DT     BB2 9160  36.248  66.212  61.217
16805DT     BB3 9161  36.181  66.180  61.410
16805DT     SC1 9162  36.306  66.394  61.497
16805DT     SC2 9163  36.470  66.334  61.623
16805DT     SC3 9164  36.346  66.633  61.601
16806DT     BB1 9165  36.067  65.953  61.324
16806DT     BB2 9166  36.287  65.850  61.591
16806DT     BB3 9167  36.192  65.872  61.773
16806DT     SC1 9168  36.221  66.132  61.767
16806DT     SC2 9169  36.363  66.192  61.917
16806DT     SC3 9170  36.159  66.389  61.758
16807DA     BB1 9171  36.338  65.478  61.759
16807DA     BB2 9172  36.439  65.624  62.079
16807DA     BB3 9173  36.271  65.641  62.210
16807DA     SC1 9174  36.196  65.928  62.116
16807DA     SC2 9175  36.200  66.159  62.209
16807DA     SC3 9176  36.029  66.214  62.025
16807DA     SC4 9177  36.090  65.942  61.996
16808DT     BB1 9178  36.261  65.527  62.383
16808DT     BB2 9179  36.334  65.795  62.613
16808DT     BB3 9180  36.161  65.851  62.713
16808DT     SC1 9181  36.070  65.975  62.501
16808DT     SC2 9182  36.071  66.188  62.536
16808DT     SC3 9183  35.914  66.035  62.296
16809DT     BB1 9184  36.245  65.735  62.949
16809DT     BB2 9185  36.189  66.082  63.033
16809DT     BB3 9186  35.992  66.110  63.090
16809DT     SC1 9187  35.910  66.092  62.841
16809DT     SC2 9188  35.841  66.285  62.775
16809DT     SC3 9189  35.786  66.003  62.626
16810DA     BB1 9190  36.237  66.271  63.388
16810DA     BB2 9191  35.991  66.525  63.292
16810DA     BB3 9192  35.799  66.475  63.368
16810DA     SC1 9193  35.714  66.315  63.115
16810DA     SC2 9194  35.553  66.339  62.927
16810DA     SC3 9195  35.579  66.086  62.898
16810DA     SC4 9196  35.743  66.156  63.114
16811DA     BB1 9197  35.846  66.779  63.471
16811DA     BB2 9198  35.552  66.866  63.270
16811DA     BB3 9199  35.375  66.793  63.363
16811DA     SC1 9200  35.381  66.519  63.214
16811DA     SC2 9201  35.249  66.403  63.037
16811DA     SC3 9202  35.354  66.188  63.129
16811DA     SC4 9203  35.455  66.397  63.287
16812DA     BB1 9204  35.328  67.108  63.296
16812DA     BB2 9205  35.048  66.994  63.089
16812DA     BB3 9206  34.891  66.916  63.212
16812DA     SC1 9207  34.999  66.624  63.207
16812DA     SC2 9208  34.932  66.405  63.110
16812DA     SC3 9209  35.086  66.302  63.287
16812DA     SC4 9210  35.098  66.580  63.325
16813DT     BB1 9211  34.746  67.019  63.193
16813DT     BB2 9212  34.548  66.785  63.002
16813DT     BB3 9213  34.421  66.682  63.128
16813DT     SC1 9214  34.618  66.535  63.220
16813DT     SC2 9215  34.595  66.333  63.151
16813DT     SC3 9216  34.792  66.431  63.389
16814DA     BB1 9217  34.196  66.837  62.808
16814DA     BB2 9218  34.102  66.485  62.854
16814DA     BB3 9219  33.989  66.462  63.033
16814DA     SC1 9220  34.237  66.406  63.212
16814DA     SC2 9221  34.336  66.214  63.336
16814DA     SC3 9222  34.463  66.392  63.470
16814DA     SC4 9223  34.306  66.532  63.285
16815DC     BB1 9224  33.785  66.410  63.029
16815DC     BB2 9225  33.821  66.071  63.146
16815DC     BB3 9226  33.757  66.057  63.343
16815DC     SC1 9227  33.973  66.177  63.431
16815DC     SC2 9228  34.094  66.035  63.538
16815DC     SC3 9229  34.128  66.357  63.544
16816DA     BB1 9230  33.522  65.759  63.156
16816DA     BB2 9231  33.672  65.607  63.455
16816DA     BB3 9232  33.569  65.671  63.630
16816DA     SC1 9233  33.753  65.918  63.678
16816DA     SC2 9234  33.926  65.989  63.842
16816DA     SC3 9235  33.878  66.227  63.759
16816DA     SC4 9236  33.707  66.058  63.614
16817DA     BB1 9237  33.508  65.351  63.712
16817DA     BB2 9238  33.716  65.402  64.010
16817DA     BB3 9239  33.601  65.492  64.166
16817DA     SC1 9240  33.671  65.783  64.082
16817DA     SC2 9241  33.805  65.973  64.171
16817DA     SC3 9242  33.662  66.120  64.017
16817DA     SC4 9243  33.570  65.857  63.981
16818DA     BB1 9244  33.695  65.233  64.346
16818DA     BB2 9245  33.879  65.471  64.556
16818DA     BB3 9246  33.747  65.565  64.694
16818DA     SC1 9247  33.679  65.803  64.506
16818DA     SC2 9248  33.724  66.048  64.494
16818DA     SC3 9249  33.522  66.057  64.336
16818DA     SC4 9250  33.550  65.788  64.411
16819DG     BB1 9251  33.947  65.430  64.878
16819DG     BB2 9252  34.037  65.774  64.946
16819DG     BB3 9253  33.909  65.853  65.077
16819DG     SC1 9254  33.714  65.953  64.863
16819DG     SC2 9255  33.655  66.239  64.799
16819DG     SC3 9256  33.469  66.059  64.657
16819DG     SC4 9257  33.597  65.855  64.812
16820DA     BB1 9258  34.231  65.924  65.158
16820DA     BB2 9259  34.139  66.279  65.140
16820DA     BB3 9260  33.997  66.327  65.292
16820DA     SC1 9261  33.749  66.266  65.114
16820DA     SC2 9262  33.565  66.393  65.004
16820DA     SC3 9263  33.442  66.168  64.996
16820DA     SC4 9264  33.688  66.117  65.120
16821DT     BB1 9265  34.104  66.426  65.318
16821DT     BB2 9266  33.912  66.718  65.232
16821DT     BB3 9267  33.766  66.751  65.376
16821DT     SC1 9268  33.621  66.553  65.285
16821DT     SC2 9269  33.443  66.631  65.192
16821DT     SC3 9270  33.493  66.322  65.276
16822DG     BB1 9271  34.011  67.060  65.234
16822DG     BB2 9272  33.661  67.149  65.250
16822DG     BB3 9273  33.600  67.147  65.439
16822DG     SC1 9274  33.517  66.852  65.435
16822DG     SC2 9275  33.238  66.748  65.457
16822DG     SC3 9276  33.435  66.527  65.472
16822DG     SC4 9277  33.626  66.741  65.472
16823DA     BB1 9278  33.473  67.459  65.343
16823DA     BB2 9279  33.144  67.355  65.467
16823DA     BB3 9280  33.148  67.334  65.679
16823DA     SC1 9281  33.226  67.033  65.671
16823DA     SC2 9282  33.120  66.813  65.724
16823DA     SC3 9283  33.360  66.723  65.736
16823DA     SC4 9284  33.382  66.996  65.676
16824DC     BB1 9285  33.044  67.464  65.804
16824DC     BB2 9286  32.789  67.235  65.917
16824DC     BB3 9287  32.830  67.173  66.110
16824DC     SC1 9288  33.023  67.016  66.027
16824DC     SC2 9289  32.963  66.811  66.053
16824DC     SC3 9290  33.264  66.915  65.995
16825DC     BB1 9291  32.633  67.332  66.239
16825DC     BB2 9292  32.561  66.998  66.355
16825DC     BB3 9293  32.665  66.959  66.530
16825DC     SC1 9294  32.891  66.932  66.398
16825DC     SC2 9295  32.952  66.726  66.403
16825DC     SC3 9296  33.138  66.977  66.317
16826DA     BB1 9297  32.269  66.875  66.642
16826DA     BB2 9298  32.474  66.589  66.745
16826DA     BB3 9299  32.583  66.636  66.922
16826DA     SC1 9300  32.832  66.744  66.768
16826DA     SC2 9301  33.068  66.674  66.728
16826DA     SC3 9302  33.109  66.921  66.669
16826DA     SC4 9303  32.837  66.901  66.737
16827DT     BB1 9304  32.543  66.538  67.103
16827DT     BB2 9305  32.834  66.325  67.099
16827DT     BB3 9306  32.971  66.390  67.240
16827DT     SC1 9307  33.041  66.594  67.090
16827DT     SC2 9308  33.241  66.564  67.017
16827DT     SC3 9309  33.077  66.843  67.010
16828DT     BB1 9310  32.912  66.173  67.387
16828DT     BB2 9311  33.268  66.151  67.329
16828DT     BB3 9312  33.369  66.261  67.472
16828DT     SC1 9313  33.302  66.487  67.358
16828DT     SC2 9314  33.476  66.578  67.271
16828DT     SC3 9315  33.191  66.724  67.323
16829DC     BB1 9316  33.449  66.026  67.567
16829DC     BB2 9317  33.753  66.206  67.496
16829DC     BB3 9318  33.799  66.333  67.653
16829DC     SC1 9319  33.610  66.501  67.584
16829DC     SC2 9320  33.699  66.682  67.509
16829DC     SC3 9321  33.389  66.644  67.595
16830DG     BB1 9322  34.119  66.085  67.599
16830DG     BB2 9323  34.221  66.432  67.608
16830DG     BB3 9324  34.222  66.497  67.795
16830DG     SC1 9325  33.931  66.591  67.791
16830DG     SC2 9326  33.837  66.874  67.808
16830DG     SC3 9327  33.609  66.686  67.827
16830DG     SC4 9328  33.815  66.487  67.831
16831DA     BB1 9329  34.554  66.609  67.755
16831DA     BB2 9330  34.453  66.952  67.836
16831DA     BB3 9331  34.426  66.973  68.047
16831DA     SC1 9332  34.124  66.899  68.041
16831DA     SC2 9333  33.905  67.013  68.075
16831DA     SC3 9334  33.811  66.777  68.114
16831DA     SC4 9335  34.085  66.744  68.064
16832DT     BB1 9336  34.555  67.095  68.175
16832DT     BB2 9337  34.322  67.366  68.226
16832DT     BB3 9338  34.251  67.362  68.420
16832DT     SC1 9339  34.096  67.156  68.367
16832DT     SC2 9340  33.891  67.218  68.371
16832DT     SC3 9341  33.996  66.912  68.375
16833DC     BB1 9342  34.400  67.582  68.505
16833DC     BB2 9343  34.059  67.674  68.580
16833DC     BB3 9344  34.009  67.612  68.771
16833DC     SC1 9345  33.990  67.362  68.693
16833DC     SC2 9346  33.784  67.301  68.698
16833DC     SC3 9347  34.040  67.104  68.673
16834DA     BB1 9348  33.915  68.021  68.766
16834DA     BB2 9349  33.623  67.842  68.897
16834DA     BB3 9350  33.658  67.780  69.098
16834DA     SC1 9351  33.776  67.504  69.017
16834DA     SC2 9352  33.710  67.263  69.032
16834DA     SC3 9353  33.960  67.214  69.000
16834DA     SC4 9354  33.936  67.493  68.998
16835DA     BB1 9355  33.378  67.943  69.163
16835DA     BB2 9356  33.237  67.622  69.271
16835DA     BB3 9357  33.307  67.572  69.466
16835DA     SC1 9358  33.554  67.414  69.363
16835DA     SC2 9359  33.632  67.177  69.354
16835DA     SC3 9360  33.866  67.276  69.323
16835DA     SC4 9361  33.692  67.495  69.347
16836DT     BB1 9362  33.176  67.566  69.634
16836DT     BB2 9363  33.159  67.206  69.658
16836DT     BB3 9364  33.266  67.141  69.822
16836DT     SC1 9365  33.495  67.184  69.701
16836DT     SC2 9366  33.589  66.996  69.657
16836DT     SC3 9367  33.731  67.288  69.647
16837DT     BB1 9368  33.038  67.078  69.972
16837DT     BB2 9369  33.222  66.768  69.955
16837DT     BB3 9370  33.352  66.755  70.115
16837DT     SC1 9371  33.516  66.929  70.007
16837DT     SC2 9372  33.696  66.830  69.946
16837DT     SC3 9373  33.656  67.150  69.972
16838DG     BB1 9374  33.109  66.429  70.153
16838DG     BB2 9375  33.458  66.333  70.144
16838DG     BB3 9376  33.540  66.359  70.323
16838DG     SC1 9377  33.626  66.648  70.270
16838DG     SC2 9378  33.907  66.746  70.248
16838DG     SC3 9379  33.716  66.972  70.253
16838DG     SC4 9380  33.523  66.766  70.302
16839DA     BB1 9381  33.641  66.034  70.285
16839DA     BB2 9382  33.990  66.145  70.297
16839DA     BB3 9383  34.048  66.187  70.498
16839DA     SC1 9384  33.965  66.487  70.485
16839DA     SC2 9385  34.078  66.710  70.483
16839DA     SC3 9386  33.850  66.803  70.556
16839DA     SC4 9387  33.816  66.525  70.531
16840DT     BB1 9388  34.176  66.075  70.538
16840DT     BB2 9389  34.445  66.314  70.511
16840DT     BB3 9390  34.494  66.386  70.699
16840DT     SC1 9391  34.279  66.536  70.707
16840DT     SC2 9392  34.335  66.743  70.694
16840DT     SC3 9393  34.045  66.630  70.785
16841DC     BB1 9394  34.696  66.257  70.614
16841DC     BB2 9395  34.805  66.597  70.668
16841DC     BB3 9396  34.825  66.633  70.871
16841DC     SC1 9397  34.565  66.646  70.902
16841DC     SC2 9398  34.508  66.848  70.946
16841DC     SC3 9399  34.321  66.586  70.985
16842DT     BB1 9400  35.050  66.653  70.754
16842DT     BB2 9401  34.986  66.968  70.918
16842DT     BB3 9402  34.999  66.945  71.123
16842DT     SC1 9403  34.767  66.823  71.132
16842DT     SC2 9404  34.623  66.950  71.229
16842DT     SC3 9405  34.588  66.633  71.169
16843DT     BB1 9406  35.198  67.096  71.066
16843DT     BB2 9407  35.004  67.273  71.314
16843DT     BB3 9408  35.033  67.187  71.500
16843DT     SC1 9409  34.882  66.982  71.439
16843DT     SC2 9410  34.700  66.990  71.552
16843DT     SC3 9411  34.811  66.733  71.389
16844DA     BB1 9412  35.084  67.605  71.523
16844DA     BB2 9413  34.875  67.498  71.804
16844DA     BB3 9414  34.990  67.386  71.944
16844DA     SC1 9415  34.930  67.111  71.811
16844DA     SC2 9416  34.800  66.905  71.863
16844DA     SC3 9417  34.950  66.791  71.689
16844DA     SC4 9418  35.034  67.058  71.700
16845DT     BB1 9419  35.019  67.466  72.121
16845DT     BB2 9420  34.803  67.246  72.309
16845DT     BB3 9421  34.916  67.105  72.410
16845DT     SC1 9422  34.963  66.972  72.189
16845DT     SC2 9423  34.858  66.784  72.195
16845DT     SC3 9424  35.094  66.864  71.987
16846DG     BB1 9425  34.701  67.302  72.696
16846DG     BB2 9426  34.663  66.944  72.727
16846DG     BB3 9427  34.824  66.866  72.814
16846DG     SC1 9428  34.975  66.820  72.552
16846DG     SC2 9429  35.046  66.555  72.434
16846DG     SC3 9430  35.177  66.774  72.286
16846DG     SC4 9431  35.067  66.937  72.494
16847DA     BB1 9432  34.606  66.712  73.037
16847DA     BB2 9433  34.735  66.383  72.938
16847DA     BB3 9434  34.927  66.349  73.025
16847DA     SC1 9435  35.084  66.470  72.786
16847DA     SC2 9436  35.234  66.389  72.603
16847DA     SC3 9437  35.313  66.632  72.588
16847DA     SC4 9438  35.121  66.626  72.792
16848DT     BB1 9439  34.942  66.205  73.161
16848DT     BB2 9440  35.122  65.968  72.956
16848DT     BB3 9441  35.322  65.967  73.009
16848DT     SC1 9442  35.364  66.197  72.890
16848DT     SC2 9443  35.486  66.165  72.715
16848DT     SC3 9444  35.424  66.451  72.855
16849DA     BB1 9445  35.198  65.565  73.022
16849DA     BB2 9446  35.513  65.578  72.835
16849DA     BB3 9447  35.677  65.613  72.967
16849DA     SC1 9448  35.663  65.922  72.942
16849DA     SC2 9449  35.800  66.106  72.843
16849DA     SC3 9450  35.672  66.260  73.003
16849DA     SC4 9451  35.574  66.002  73.050
16850DA     BB1 9452  35.813  65.335  72.839
16850DA     BB2 9453  36.095  65.542  72.728
16850DA     BB3 9454  36.225  65.584  72.891
16850DA     SC1 9455  36.079  65.847  72.971
16850DA     SC2 9456  36.125  66.093  72.966
16850DA     SC3 9457  35.940  66.110  73.143
16850DA     SC4 9458  35.963  65.837  73.081
16851DT     BB1 9459  36.444  65.504  72.926
16851DT     BB2 9460  36.613  65.813  72.847
16851DT     BB3 9461  36.699  65.892  73.019
16851DT     SC1 9462  36.465  65.971  73.108
16851DT     SC2 9463  36.455  66.186  73.103
16851DT     SC3 9464  36.252  65.990  73.263
16852DT     BB1 9465  36.978  65.826  72.970
16852DT     BB2 9466  36.984  66.184  73.016
16852DT     BB3 9467  37.026  66.229  73.214
16852DT     SC1 9468  36.783  66.161  73.288
16852DT     SC2 9469  36.675  66.337  73.347
16852DT     SC3 9470  36.588  66.031  73.408
16853DT     BB1 9471  37.291  66.315  73.168
16853DT     BB2 9472  37.132  66.600  73.322
16853DT     BB3 9473  37.157  66.592  73.527
16853DT     SC1 9474  36.978  66.402  73.550
16853DT     SC2 9475  36.803  66.480  73.648
16853DT     SC3 9476  36.872  66.167  73.602
16854DG     BB1 9477  37.318  66.945  73.402
16854DG     BB2 9478  37.075  66.997  73.664
16854DG     BB3 9479  37.156  66.956  73.841
16854DG     SC1 9480  37.077  66.661  73.837
16854DG     SC2 9481  36.880  66.529  74.018
16854DG     SC3 9482  37.024  66.328  73.856
16854DG     SC4 9483  37.176  66.555  73.769
16855DA     BB1 9484  37.039  67.268  73.935
16855DA     BB2 9485  36.840  67.114  74.202
16855DA     BB3 9486  36.965  67.057  74.364
16855DA     SC1 9487  37.018  66.770  74.255
16855DA     SC2 9488  36.957  66.536  74.314
16855DA     SC3 9489  37.159  66.469  74.170
16855DA     SC4 9490  37.148  66.749  74.163
16856DA     BB1 9491  36.749  67.238  74.536
16856DA     BB2 9492  36.672  66.935  74.727
16856DA     BB3 9493  36.829  66.893  74.866
16856DA     SC1 9494  36.989  66.714  74.668
16856DA     SC2 9495  37.046  66.472  74.643
16856DA     SC3 9496  37.237  66.554  74.492
16856DA     SC4 9497  37.103  66.784  74.579
16857DT     BB1 9498  36.806  66.908  75.084
16857DT     BB2 9499  36.800  66.553  75.150
16857DT     BB3 9500  36.976  66.495  75.243
16857DT     SC1 9501  37.110  66.514  75.018
16857DT     SC2 9502  37.166  66.318  74.952
16857DT     SC3 9503  37.286  66.598  74.841
16858DC     BB1 9504  36.876  66.462  75.514
16858DC     BB2 9505  37.022  66.141  75.438
16858DC     BB3 9506  37.218  66.135  75.504
16858DC     SC1 9507  37.298  66.288  75.307
16858DC     SC2 9508  37.418  66.172  75.171
16858DC     SC3 9509  37.398  66.495  75.178
16859DC     BB1 9510  37.182  65.965  75.738
16859DC     BB2 9511  37.421  65.786  75.536
16859DC     BB3 9512  37.613  65.832  75.597
16859DC     SC1 9513  37.600  66.068  75.483
16859DC     SC2 9514  37.732  66.073  75.312
16859DC     SC3 9515  37.597  66.331  75.455
16860DG     BB1 9516  37.575  65.431  75.639
16860DG     BB2 9517  37.849  65.516  75.419
16860DG     BB3 9518  38.010  65.563  75.527
16860DG     SC1 9519  37.940  65.861  75.544
16860DG     SC2 9520  38.093  66.084  75.418
16860DG     SC3 9521  37.885  66.189  75.600
16860DG     SC4 9522  37.848  65.912  75.664
16861DG     BB1 9523  38.114  65.333  75.339
16861DG     BB2 9524  38.325  65.590  75.197
16861DG     BB3 9525  38.479  65.625  75.317
16861DG     SC1 9526  38.336  65.842  75.479
16861DG     SC2 9527  38.406  66.132  75.484
16861DG     SC3 9528  38.203  66.069  75.690
16861DG     SC4 9529  38.250  65.799  75.607
16862DG     BB1 9530  38.569  65.570  75.013
16862DG     BB2 9531  38.706  65.904  75.036
16862DG     BB3 9532  38.859  65.906  75.163
16862DG     SC1 9533  38.688  65.968  75.408
16862DG     SC2 9534  38.693  66.220  75.568
16862DG     SC3 9535  38.528  66.015  75.702
16862DG     SC4 9536  38.624  65.846  75.491
16863DG     BB1 9537  38.948  66.043  74.883
16863DG     BB2 9538  39.023  66.329  75.090
16863DG     BB3 9539  39.178  66.288  75.209
16863DG     SC1 9540  39.007  66.178  75.437
16863DG     SC2 9541  38.973  66.301  75.706
16863DG     SC3 9542  38.851  66.031  75.697
16863DG     SC4 9543  38.969  66.022  75.437
16864DT     BB1 9544  39.305  66.417  75.169
16864DT     BB2 9545  39.322  66.615  75.471
16864DT     BB3 9546  39.458  66.531  75.602
16864DT     SC1 9547  39.292  66.338  75.664
16864DT     SC2 9548  39.225  66.364  75.867
16864DT     SC3 9549  39.192  66.095  75.689
16865DC     BB1 9550  39.611  66.740  75.544
16865DC     BB2 9551  39.591  66.738  75.904
16865DC     BB3 9552  39.728  66.603  75.982
16865DC     SC1 9553  39.580  66.399  75.911
16865DC     SC2 9554  39.499  66.305  76.086
16865DC     SC3 9555  39.504  66.178  75.788
16866DG     BB1 9556  39.845  66.958  76.151
16866DG     BB2 9557  39.820  66.699  76.402
16866DG     BB3 9558  39.982  66.584  76.397
16866DG     SC1 9559  39.865  66.387  76.193
16866DG     SC2 9560  39.796  66.102  76.245
16866DG     SC3 9561  39.776  66.164  75.957
16866DG     SC4 9562  39.884  66.417  76.037
16867DT     BB1 9563  40.171  66.552  76.567
16867DT     BB2 9564  40.092  66.224  76.696
16867DT     BB3 9565  40.233  66.087  76.630
16867DT     SC1 9566  40.130  66.085  76.389
16867DT     SC2 9567  40.036  65.895  76.352
16867DT     SC3 9568  40.109  66.117  76.128
16868DG     BB1 9569  40.313  66.047  77.036
16868DG     BB2 9570  40.254  65.722  76.890
16868DG     BB3 9571  40.423  65.651  76.811
16868DG     SC1 9572  40.375  65.776  76.536
16868DG     SC2 9573  40.323  65.626  76.283
16868DG     SC3 9574  40.365  65.914  76.228
16868DG     SC4 9575  40.428  65.924  76.508
16869DC     BB1 9576  40.575  65.443  76.876
16869DC     BB2 9577  40.473  65.216  76.614
16869DC     BB3 9578  40.631  65.183  76.484
16869DC     SC1 9579  40.603  65.420  76.376
16869DC     SC2 9580  40.529  65.398  76.175
16869DC     SC3 9581  40.657  65.667  76.302
16870DT     BB1 9582  40.695  64.915  76.570
16870DT     BB2 9583  40.618  64.880  76.219
16870DT     BB3 9584  40.792  64.892  76.107
16870DT     SC1 9585  40.804  65.152  76.142
16870DT     SC2 9586  40.764  65.251  75.955
16870DT     SC3 9587  40.893  65.388  76.218
16871DA     BB1 9588  40.596  64.541  75.996
16871DA     BB2 9589  40.664  64.733  75.692
16871DA     BB3 9590  40.871  64.718  75.639
16871DA     SC1 9591  40.955  64.969  75.802
16871DA     SC2 9592  41.036  65.201  75.756
16871DA     SC3 9593  41.124  65.197  75.997
16871DA     SC4 9594  41.004  64.947  75.954
16872DA     BB1 9595  40.695  64.643  75.379
16872DA     BB2 9596  40.854  64.934  75.223
16872DA     BB3 9597  41.060  64.895  75.185
16872DA     SC1 9598  41.157  65.004  75.459
16872DA     SC2 9599  41.285  65.200  75.545
16872DA     SC3 9600  41.324  65.057  75.755
16872DA     SC4 9601  41.171  64.899  75.581
16873DC     BB1 9602  41.077  64.903  75.013
16873DC     BB2 9603  41.252  65.218  75.001
16873DC     BB3 9604  41.456  65.185  74.993
16873DC     SC1 9605  41.463  65.120  75.247
16873DC     SC2 9606  41.567  65.273  75.357
16873DC     SC3 9607  41.496  64.976  75.466
16874DT     BB1 9608  41.423  65.279  74.752
16874DT     BB2 9609  41.670  65.492  74.906
16874DT     BB3 9610  41.856  65.401  74.900
16874DT     SC1 9611  41.788  65.235  75.092
16874DT     SC2 9612  41.899  65.283  75.270
16874DT     SC3 9613  41.734  65.010  75.218
16875DA     BB1 9614  41.894  65.791  74.749
16875DA     BB2 9615  42.165  65.735  74.988
16875DA     BB3 9616  42.309  65.600  74.907
16875DA     SC1 9617  42.171  65.346  75.023
16875DA     SC2 9618  42.217  65.175  75.198
16875DA     SC3 9619  42.048  65.029  75.072
16875DA     SC4 9620  42.064  65.270  74.929
16876DC     BB1 9621  42.500  65.665  74.860
16876DC     BB2 9622  42.672  65.503  75.133
16876DC     BB3 9623  42.777  65.340  75.063
16876DC     SC1 9624  42.557  65.199  75.037
16876DC     SC2 9625  42.554  65.042  75.183
16876DC     SC3 9626  42.362  65.063  74.923
16877DT     BB1 9627  43.024  65.466  75.089
16877DT     BB2 9628  43.057  65.165  75.286
16877DT     BB3 9629  43.127  65.011  75.168
16877DT     SC1 9630  42.893  64.983  75.052
16877DT     SC2 9631  42.805  64.797  75.114
16877DT     SC3 9632  42.708  64.980  74.864
16878DC     BB1 9633  43.372  65.021  75.288
16878DC     BB2 9634  43.260  64.683  75.341
16878DC     BB3 9635  43.317  64.564  75.182
16878DC     SC1 9636  43.131  64.667  75.028
16878DC     SC2 9637  42.980  64.519  74.989
16878DC     SC3 9638  43.019  64.798  74.829
16879DT     BB1 9639  43.487  64.451  75.351
16879DT     BB2 9640  43.280  64.181  75.232
16879DT     BB3 9641  43.352  64.109  75.052
16879DT     SC1 9642  43.261  64.319  74.923
16879DT     SC2 9643  43.098  64.260  74.797
16879DT     SC3 9644  43.258  64.541  74.780
16880DT     BB1 9645  43.408  63.902  75.199
16880DT     BB2 9646  43.198  63.778  74.933
16880DT     BB3 9647  43.310  63.749  74.762
16880DT     SC1 9648  43.322  64.007  74.716
16880DT     SC2 9649  43.204  64.054  74.542
16880DT     SC3 9650  43.422  64.249  74.683
16881DT     BB1 9651  43.261  63.499  74.817
16881DT     BB2 9652  43.145  63.546  74.478
16881DT     BB3 9653  43.305  63.539  74.347
16881DT     SC1 9654  43.385  63.779  74.420
16881DT     SC2 9655  43.353  63.917  74.258
16881DT     SC3 9656  43.536  63.970  74.520
16882DT     BB1 9657  43.219  63.298  74.264
16882DT     BB2 9658  43.251  63.491  73.961
16882DT     BB3 9659  43.446  63.482  73.891
16882DT     SC1 9660  43.528  63.647  74.079
16882DT     SC2 9661  43.583  63.835  73.989
16882DT     SC3 9662  43.657  63.738  74.290
16883DC     BB1 9663  43.389  63.305  73.681
16883DC     BB2 9664  43.556  63.581  73.517
16883DC     BB3 9665  43.760  63.547  73.512
16883DC     SC1 9666  43.784  63.603  73.767
16883DC     SC2 9667  43.889  63.789  73.790
16883DC     SC3 9668  43.833  63.572  74.024
16884DA     BB1 9669  43.674  63.612  73.105
16884DA     BB2 9670  43.963  63.822  73.188
16884DA     BB3 9671  44.140  63.704  73.196
16884DA     SC1 9672  44.114  63.642  73.500
16884DA     SC2 9673  44.231  63.703  73.711
16884DA     SC3 9674  44.120  63.493  73.809
16884DA     SC4 9675  44.037  63.508  73.542
16885DG     BB1 9676  44.259  63.877  72.960
16885DG     BB2 9677  44.499  63.981  73.209
16885DG     BB3 9678  44.651  63.853  73.215
16885DG     SC1 9679  44.522  63.671  73.425
16885DG     SC2 9680  44.619  63.630  73.704
16885DG     SC3 9681  44.402  63.439  73.639
16885DG     SC4 9682  44.427  63.552  73.377
16886DT     BB1 9683  44.862  63.915  73.164
16886DT     BB2 9684  45.012  63.927  73.492
16886DT     BB3 9685  45.136  63.764  73.519
16886DT     SC1 9686  44.931  63.603  73.551
16886DT     SC2 9687  44.923  63.538  73.756
16886DT     SC3 9688  44.761  63.406  73.508
16887DA     BB1 9689  45.344  64.114  73.619
16887DA     BB2 9690  45.395  63.871  73.889
16887DA     BB3 9691  45.525  63.714  73.824
16887DA     SC1 9692  45.295  63.532  73.720
16887DA     SC2 9693  45.187  63.317  73.784
16887DA     SC3 9694  45.103  63.311  73.542
16887DA     SC4 9695  45.253  63.546  73.565
16888DT     BB1 9696  45.698  63.705  73.914
16888DT     BB2 9697  45.638  63.407  74.107
16888DT     BB3 9698  45.732  63.245  74.019
16888DT     SC1 9699  45.551  63.233  73.829
16888DT     SC2 9700  45.432  63.056  73.855
16888DT     SC3 9701  45.442  63.241  73.589
16889DC     BB1 9702  45.934  63.236  74.210
16889DC     BB2 9703  45.806  62.899  74.208
16889DC     BB3 9704  45.907  62.786  74.067
16889DC     SC1 9705  45.779  62.902  73.870
16889DC     SC2 9706  45.644  62.760  73.779
16889DC     SC3 9707  45.734  63.045  73.653
16890DA     BB1 9708  45.991  62.538  74.404
16890DA     BB2 9709  45.882  62.312  74.137
16890DA     BB3 9710  46.042  62.275  74.001
16890DA     SC1 9711  45.968  62.512  73.813
16890DA     SC2 9712  45.876  62.545  73.584
16890DA     SC3 9713  45.977  62.780  73.598
16890DA     SC4 9714  46.039  62.654  73.841
16891DT     BB1 9715  46.208  62.060  73.941
16891DT     BB2 9716  46.048  61.979  73.629
16891DT     BB3 9717  46.182  62.002  73.473
16891DT     SC1 9718  46.164  62.263  73.485
16891DT     SC2 9719  46.062  62.337  73.311
16891DT     SC3 9720  46.234  62.515  73.520
16892DA     BB1 9721  46.094  61.593  73.396
16892DA     BB2 9722  46.040  61.771  73.080
16892DA     BB3 9723  46.225  61.799  72.978
16892DA     SC1 9724  46.284  62.074  73.110
16892DA     SC2 9725  46.294  62.314  73.041
16892DA     SC3 9726  46.435  62.348  73.252
16892DA     SC4 9727  46.372  62.075  73.245
16893DA     BB1 9728  46.083  61.646  72.722
16893DA     BB2 9729  46.110  61.963  72.540
16893DA     BB3 9730  46.306  61.985  72.459
16893DA     SC1 9731  46.419  62.133  72.709
16893DA     SC2 9732  46.496  62.363  72.768
16893DA     SC3 9733  46.618  62.249  72.963
16893DA     SC4 9734  46.488  62.044  72.823
16894DA     BB1 9735  46.122  62.028  72.195
16894DA     BB2 9736  46.257  62.369  72.185
16894DA     BB3 9737  46.457  62.367  72.111
16894DA     SC1 9738  46.586  62.338  72.393
16894DA     SC2 9739  46.722  62.477  72.550
16894DA     SC3 9740  46.787  62.254  72.659
16894DA     SC4 9741  46.616  62.189  72.446
16895DT     BB1 9742  46.473  62.458  71.949
16895DT     BB2 9743  46.635  62.752  72.081
16895DT     BB3 9744  46.839  62.743  72.044
16895DT     SC1 9745  46.872  62.564  72.233
16895DT     SC2 9746  46.980  62.653  72.397
16895DT     SC3 9747  46.931  62.336  72.351
16896DT     BB1 9748  46.792  62.939  71.874
16896DT     BB2 9749  47.036  63.070  72.104
16896DT     BB3 9750  47.226  63.009  72.049
16896DT     SC1 9751  47.181  62.766  72.137
16896DT     SC2 9752  47.301  62.731  72.312
16896DT     SC3 9753  47.149  62.504  72.137
16897DA     BB1 9754  47.227  63.425  72.107
16897DA     BB2 9755  47.513  63.283  72.288
16897DA     BB3 9756  47.662  63.218  72.150
16897DA     SC1 9757  47.549  62.929  72.127
16897DA     SC2 9758  47.616  62.699  72.195
16897DA     SC3 9759  47.452  62.620  72.014
16897DA     SC4 9760  47.445  62.900  72.008
16898DA     BB1 9761  47.846  63.412  72.341
16898DA     BB2 9762  48.044  63.114  72.420
16898DA     BB3 9763  48.168  63.062  72.255
16898DA     SC1 9764  47.958  62.873  72.124
16898DA     SC2 9765  47.928  62.629  72.085
16898DA     SC3 9766  47.761  62.699  71.903
16898DA     SC4 9767  47.859  62.937  72.015
16899DT     BB1 9768  48.370  63.077  72.276
16899DT     BB2 9769  48.435  62.723  72.302
16899DT     BB3 9770  48.519  62.653  72.126
16899DT     SC1 9771  48.288  62.665  72.002
16899DT     SC2 9772  48.219  62.465  71.961
16899DT     SC3 9773  48.103  62.738  71.829
16900DA     BB1 9774  48.756  62.530  72.448
16900DA     BB2 9775  48.687  62.237  72.238
16900DA     BB3 9776  48.798  62.249  72.056
16900DA     SC1 9777  48.575  62.398  71.900
16900DA     SC2 9778  48.416  62.350  71.714
16900DA     SC3 9779  48.400  62.605  71.689
16900DA     SC4 9780  48.580  62.559  71.899
16901DC     BB1 9781  48.918  62.112  72.046
16901DC     BB2 9782  48.743  61.917  71.799
16901DC     BB3 9783  48.825  61.950  71.612
16901DC     SC1 9784  48.713  62.187  71.596
16901DC     SC2 9785  48.558  62.183  71.446
16901DC     SC3 9786  48.687  62.449  71.578
16902DA     BB1 9787  48.777  61.541  71.695
16902DA     BB2 9788  48.644  61.609  71.360
16902DA     BB3 9789  48.802  61.654  71.225
16902DA     SC1 9790  48.792  61.961  71.277
16902DA     SC2 9791  48.725  62.167  71.154
16902DA     SC3 9792  48.871  62.291  71.325
16902DA     SC4 9793  48.888  62.020  71.392
16903DA     BB1 9794  48.640  61.418  71.068
16903DA     BB2 9795  48.597  61.658  70.795
16903DA     BB3 9796  48.783  61.691  70.694
16903DA     SC1 9797  48.867  61.929  70.875
16903DA     SC2 9798  48.896  62.176  70.854
16903DA     SC3 9799  49.043  62.156  71.063
16903DA     SC4 9800  48.956  61.896  71.005
16904DT     BB1 9801  48.797  61.628  70.506
16904DT     BB2 9802  48.795  61.951  70.347
16904DT     BB3 9803  48.987  62.002  70.288
16904DT     SC1 9804  49.057  62.055  70.535
16904DT     SC2 9805  49.087  62.267  70.556
16904DT     SC3 9806  49.184  62.039  70.766
16905DT     BB1 9807  48.931  61.957  70.021
16905DT     BB2 9808  49.057  62.295  70.026
16905DT     BB3 9809  49.263  62.294  70.005
16905DT     SC1 9810  49.295  62.211  70.252
16905DT     SC2 9811  49.382  62.369  70.369
16905DT     SC3 9812  49.363  62.058  70.455
16906DC     BB1 9813  49.258  62.385  69.740
16906DC     BB2 9814  49.471  62.623  69.909
16906DC     BB3 9815  49.668  62.560  69.901
16906DC     SC1 9816  49.625  62.376  70.083
16906DC     SC2 9817  49.726  62.429  70.264
16906DC     SC3 9818  49.603  62.138  70.195
16907DG     BB1 9819  49.679  62.923  69.712
16907DG     BB2 9820  49.928  62.907  69.975
16907DG     BB3 9821  50.090  62.811  69.909
16907DG     SC1 9822  49.991  62.534  69.995
16907DG     SC2 9823  50.111  62.365  70.210
16907DG     SC3 9824  49.906  62.214  70.059
16907DG     SC4 9825  49.902  62.448  69.894
16908DT     BB1 9826  50.303  62.907  69.886
16908DT     BB2 9827  50.474  62.763  70.168
16908DT     BB3 9828  50.610  62.621  70.104
16908DT     SC1 9829  50.417  62.449  70.054
16908DT     SC2 9830  50.427  62.288  70.196
16908DT     SC3 9831  50.256  62.289  69.921
16909DA     BB1 9832  50.829  62.881  70.347
16909DA     BB2 9833  50.903  62.539  70.457
16909DA     BB3 9834  51.034  62.444  70.318
16909DA     SC1 9835  50.805  62.326  70.145
16909DA     SC2 9836  50.707  62.101  70.096
16909DA     SC3 9837  50.609  62.212  69.886
16909DA     SC4 9838  50.753  62.412  70.020
16910DA     BB1 9839  51.216  62.392  70.587
16910DA     BB2 9840  51.179  62.033  70.524
16910DA     BB3 9841  51.308  61.972  70.365
16910DA     SC1 9842  51.098  62.021  70.142
16910DA     SC2 9843  50.960  61.885  69.985
16910DA     SC3 9844  50.939  62.101  69.848
16910DA     SC4 9845  51.097  62.165  70.071
16911DA     BB1 9846  51.418  61.751  70.585
16911DA     BB2 9847  51.307  61.489  70.354
16911DA     BB3 9848  51.447  61.467  70.194
16911DA     SC1 9849  51.305  61.673  70.009
16911DA     SC2 9850  51.173  61.671  69.797
16911DA     SC3 9851  51.234  61.919  69.781
16911DA     SC4 9852  51.354  61.826  70.016
16912DA     BB1 9853  51.442  61.152  70.292
16912DA     BB2 9854  51.317  61.069  69.957
16912DA     BB3 9855  51.476  61.078  69.815
16912DA     SC1 9856  51.430  61.377  69.744
16912DA     SC2 9857  51.346  61.511  69.551
16912DA     SC3 9858  51.469  61.708  69.660
16912DA     SC4 9859  51.514  61.487  69.827
16913DT     BB1 9860  51.538  60.905  69.722
16913DT     BB2 9861  51.389  60.972  69.401
16913DT     BB3 9862  51.535  61.025  69.265
16913DT     SC1 9863  51.560  61.263  69.372
16913DT     SC2 9864  51.483  61.411  69.236
16913DT     SC3 9865  51.668  61.469  69.496
16914DA     BB1 9866  51.310  60.716  69.092
16914DA     BB2 9867  51.336  60.987  68.847
16914DA     BB3 9868  51.533  60.994  68.765
16914DA     SC1 9869  51.641  61.193  68.978
16914DA     SC2 9870  51.716  61.431  68.987
16914DA     SC3 9871  51.837  61.363  69.203
16914DA     SC4 9872  51.711  61.131  69.109
16915DA     BB1 9873  51.355  60.979  68.490
16915DA     BB2 9874  51.501  61.304  68.403
16915DA     BB3 9875  51.704  61.280  68.342
16915DA     SC1 9876  51.820  61.319  68.628
16915DA     SC2 9877  51.953  61.490  68.752
16915DA     SC3 9878  52.007  61.299  68.915
16915DA     SC4 9879  51.843  61.187  68.717
16916DA     BB1 9880  51.582  61.447  68.088
16916DA     BB2 9881  51.827  61.708  68.169
16916DA     BB3 9882  52.023  61.645  68.112
16916DA     SC1 9883  52.088  61.516  68.388
16916DA     SC2 9884  52.238  61.561  68.582
16916DA     SC3 9885  52.204  61.313  68.640
16916DA     SC4 9886  52.056  61.359  68.406
16917DA     BB1 9887  52.007  61.935  67.959
16917DA     BB2 9888  52.296  62.034  68.161
16917DA     BB3 9889  52.473  61.938  68.090
16917DA     SC1 9890  52.443  61.691  68.277
16917DA     SC2 9891  52.559  61.595  68.476
16917DA     SC3 9892  52.444  61.375  68.411
16917DA     SC4 9893  52.364  61.563  68.219
16918DA     BB1 9894  52.578  62.249  68.082
16918DA     BB2 9895  52.839  62.147  68.319
16918DA     BB3 9896  52.989  62.034  68.219
16918DA     SC1 9897  52.851  61.760  68.271
16918DA     SC2 9898  52.892  61.556  68.409
16918DA     SC3 9899  52.732  61.438  68.246
16918DA     SC4 9900  52.751  61.704  68.158
16919DA     BB1 9901  53.191  62.259  68.352
16919DA     BB2 9902  53.355  61.982  68.528
16919DA     BB3 9903  53.480  61.873  68.395
16919DA     SC1 9904  53.258  61.672  68.311
16919DA     SC2 9905  53.206  61.430  68.344
16919DA     SC3 9906  53.055  61.456  68.139
16919DA     SC4 9907  53.170  61.708  68.182
16920DC     BB1 9908  53.689  61.874  68.417
16920DC     BB2 9909  53.720  61.539  68.548
16920DC     BB3 9910  53.800  61.414  68.403
16920DC     SC1 9911  53.573  61.409  68.272
16920DC     SC2 9912  53.485  61.213  68.288
16920DC     SC3 9913  53.398  61.443  68.077
16921DC     BB1 9914  54.051  61.398  68.525
16921DC     BB2 9915  53.944  61.054  68.498
16921DC     BB3 9916  54.008  60.975  68.318
16921DC     SC1 9917  53.825  61.107  68.185
16921DC     SC2 9918  53.678  60.969  68.110
16921DC     SC3 9919  53.715  61.278  68.017
16922DT     BB1 9920  54.211  60.816  68.432
16922DT     BB2 9921  54.006  60.579  68.253
16922DT     BB3 9922  54.078  60.555  68.061
16922DT     SC1 9923  53.981  60.788  67.988
16922DT     SC2 9924  53.817  60.758  67.852
16922DT     SC3 9925  53.973  61.037  67.903
16923DT     BB1 9926  54.184  60.301  68.111
16923DT     BB2 9927  53.957  60.248  67.836
16923DT     BB3 9928  54.057  60.270  67.656
16923DT     SC1 9929  54.063  60.531  67.683
16923DT     SC2 9930  53.933  60.621  67.537
16923DT     SC3 9931  54.157  60.776  67.711
16924DA     BB1 9932  53.862  59.901  67.641
16924DA     BB2 9933  53.781  60.083  67.333
16924DA     BB3 9934  53.948  60.082  67.200
16924DA     SC1 9935  54.068  60.347  67.311
16924DA     SC2 9936  54.100  60.581  67.233
16924DA     SC3 9937  54.279  60.596  67.416
16924DA     SC4 9938  54.176  60.336  67.429
16925DT     BB1 9939  53.929  59.981  67.027
16925DT     BB2 9940  53.897  60.270  66.813
16925DT     BB3 9941  54.072  60.300  66.707
16925DT     SC1 9942  54.195  60.393  66.919
16925DT     SC2 9943  54.231  60.603  66.894
16925DT     SC3 9944  54.368  60.412  67.118
16926DT     BB1 9945  53.939  60.220  66.488
16926DT     BB2 9946  54.063  60.549  66.407
16926DT     BB3 9947  54.256  60.536  66.333
16926DT     SC1 9948  54.352  60.491  66.574
16926DT     SC2 9949  54.467  60.662  66.637
16926DT     SC3 9950  54.470  60.368  66.775
16927DT     BB1 9951  54.156  60.599  66.093
16927DT     BB2 9952  54.408  60.849  66.155
16927DT     BB3 9953  54.594  60.778  66.096
16927DT     SC1 9954  54.609  60.621  66.306
16927DT     SC2 9955  54.761  60.695  66.439
16927DT     SC3 9956  54.624  60.402  66.451
16928DC     BB1 9957  54.583  60.950  65.890
16928DC     BB2 9958  54.891  61.031  66.059
16928DC     BB3 9959  55.043  60.908  65.991
16928DC     SC1 9960  54.950  60.704  66.127
16928DC     SC2 9961  55.085  60.657  66.288
16928DC     SC3 9962  54.846  60.467  66.178
16929DT     BB1 9963  55.152  61.118  65.857
16929DT     BB2 9964  55.422  60.996  66.063
16929DT     BB3 9965  55.523  60.845  65.965
16929DT     SC1 9966  55.328  60.674  66.010
16929DT     SC2 9967  55.395  60.527  66.152
16929DT     SC3 9968  55.130  60.506  65.965
16930DT     BB1 9969  55.743  61.005  65.908
16930DT     BB2 9970  55.888  60.720  66.074
16930DT     BB3 9971  55.936  60.574  65.935
16930DT     SC1 9972  55.684  60.507  65.907
16930DT     SC2 9973  55.651  60.312  65.991
16930DT     SC3 9974  55.448  60.471  65.794
16931DT     BB1 9975  56.218  60.617  65.936
16931DT     BB2 9976  56.189  60.264  66.006
16931DT     BB3 9977  56.197  60.156  65.829
16931DT     SC1 9978  55.952  60.227  65.766
16931DT     SC2 9979  55.822  60.056  65.778
16931DT     SC3 9980  55.752  60.338  65.634
16932DT     BB1 9981  56.457  60.060  65.868
16932DT     BB2 9982  56.261  59.761  65.821
16932DT     BB3 9983  56.254  59.711  65.621
16932DT     SC1 9984  56.085  59.905  65.570
16932DT     SC2 9985  55.893  59.821  65.521
16932DT     SC3 9986  55.985  60.127  65.469
16933DC     BB1 9987  56.429  59.494  65.645
16933DC     BB2 9988  56.131  59.351  65.502
16933DC     BB3 9989  56.141  59.357  65.295
16933DC     SC1 9990  56.093  59.615  65.293
16933DC     SC2 9991  55.898  59.651  65.211
16933DC     SC3 9992  56.128  59.874  65.256
16934DC     BB1 9993  56.181  59.086  65.280
16934DC     BB2 9994  55.883  59.145  65.085
16934DC     BB3 9995  55.935  59.188  64.889
16934DC     SC1 9996  56.015  59.429  64.954
16934DC     SC2 9997  55.879  59.574  64.872
16934DC     SC3 9998  56.175  59.636  64.991
16935DA     BB1 9999  55.645  58.886  64.893
16935DA     BB210000  55.537  59.145  64.657
16935DA     BB310001  55.657  59.139  64.480
16935DA     SC110002  55.867  59.342  64.588
16935DA     SC210003  55.938  59.576  64.541
16935DA     SC310004  56.157  59.512  64.660
16935DA     SC410005  55.996  59.282  64.663
16936DC     BB110006  55.559  59.093  64.327
16936DC     BB210007  55.551  59.421  64.177
16936DC     BB310008  55.694  59.434  64.028
16936DC     SC110009  55.888  59.451  64.205
16936DC     SC210010  55.972  59.649  64.200
16936DC     SC310011  56.105  59.389  64.342
16937DG     BB110012  55.327  59.526  63.876
16937DG     BB210013  55.573  59.781  63.799
16937DG     BB310014  55.693  59.717  63.654
16937DG     SC110015  55.896  59.590  63.845
16937DG     SC210016  56.177  59.682  63.889
16937DG     SC310017  56.128  59.423  64.024
16937DG     SC410018  55.875  59.438  63.891
16938DA     BB110019  55.618  60.016  63.493
16938DA     BB210020  55.975  60.102  63.487
16938DA     BB310021  56.076  59.987  63.339
16938DA     SC110022  56.148  59.755  63.534
16938DA     SC210023  56.352  59.662  63.643
16938DA     SC310024  56.213  59.449  63.676
16938DA     SC410025  56.046  59.632  63.544
16939DT     BB110026  56.157  60.077  63.168
16939DT     BB210027  56.504  60.052  63.262
16939DT     BB310028  56.597  59.903  63.152
16939DT     SC110029  56.480  59.715  63.293
16939DT     SC210030  56.628  59.615  63.414
16939DT     SC310031  56.327  59.509  63.354
16940DT     BB110032  56.739  60.079  62.985
16940DT     BB210033  56.996  59.871  63.129
16940DT     BB310034  57.029  59.706  63.010
16940DT     SC110035  56.805  59.594  63.090
16940DT     SC210036  56.851  59.423  63.213
16940DT     SC310037  56.562  59.492  63.083
16941DT     BB110038  57.276  59.794  62.903
16941DT     BB210039  57.354  59.475  63.053
16941DT     BB310040  57.334  59.324  62.913
16941DT     SC110041  57.072  59.336  62.927
16941DT     SC210042  56.997  59.158  63.022
16941DT     SC310043  56.821  59.373  62.855
16942DT     BB110044  57.605  59.292  62.899
16942DT     BB210045  57.479  58.970  63.002
16942DT     BB310046  57.430  58.857  62.835
16942DT     SC110047  57.213  58.998  62.794
16942DT     SC210048  57.040  58.877  62.836
16942DT     SC310049  57.040  59.159  62.677
16943DT     BB110050  57.643  58.702  62.889
16943DT     BB210051  57.359  58.479  62.898
16943DT     BB310052  57.316  58.413  62.707
16943DT     SC110053  57.211  58.644  62.641
16943DT     SC210054  56.998  58.622  62.618
16943DT     SC310055  57.175  58.874  62.518
16944DT     BB110056  57.404  58.178  62.792
16944DT     BB210057  57.063  58.120  62.687
16944DT     BB310058  57.057  58.089  62.483
16944DT     SC110059  57.094  58.345  62.435
16944DT     SC210060  56.913  58.429  62.354
16944DT     SC310061  57.206  58.568  62.350
16945DA     BB110062  56.844  57.798  62.700
16945DA     BB210063  56.630  57.925  62.430
16945DA     BB310064  56.706  57.862  62.240
16945DA     SC110065  56.884  58.114  62.200
16945DA     SC210066  56.889  58.315  62.054
16945DA     SC310067  57.137  58.331  62.118
16945DA     SC410068  57.037  58.105  62.251
16946DT     BB110069  56.585  57.756  62.164
16946DT     BB210070  56.472  57.988  61.912
16946DT     BB310071  56.572  57.952  61.734
16946DT     SC110072  56.792  58.062  61.826
16946DT     SC210073  56.827  58.248  61.723
16946DT     SC310074  57.042  58.089  61.906
16947DG     BB110075  56.168  57.938  61.681
16947DG     BB210076  56.328  58.158  61.443
16947DG     BB310077  56.424  58.051  61.305
16947DG     SC110078  56.687  58.040  61.461
16947DG     SC210079  56.944  58.170  61.381
16947DG     SC310080  56.984  57.991  61.613
16947DG     SC410081  56.710  57.921  61.566
16948DC     BB110082  56.361  58.073  61.108
16948DC     BB210083  56.631  58.261  60.960
16948DC     BB310084  56.759  58.133  60.859
16948DC     SC110085  56.861  58.044  61.084
16948DC     SC210086  57.064  58.113  61.103
16948DC     SC310087  56.926  57.878  61.278
16949DT     BB110088  56.666  58.231  60.626
16949DT     BB210089  57.023  58.278  60.608
16949DT     BB310090  57.114  58.106  60.539
16949DT     SC110091  57.079  57.986  60.770
16949DT     SC210092  57.269  57.959  60.866
16949DT     SC310093  56.992  57.812  60.948
16950DT     BB110094  57.165  58.221  60.297
16950DT     BB210095  57.488  58.110  60.413
16950DT     BB310096  57.519  57.913  60.358
16950DT     SC110097  57.354  57.827  60.543
16950DT     SC210098  57.465  57.725  60.696
16950DT     SC310099  57.144  57.714  60.655
16951DA     BB110100  57.858  58.111  60.207
16951DA     BB210101  57.977  57.818  60.391
16951DA     BB310102  57.943  57.640  60.277
16951DA     SC110103  57.661  57.587  60.399
16951DA     SC210104  57.554  57.423  60.552
16951DA     SC310105  57.333  57.500  60.448
16951DA     SC410106  57.534  57.648  60.321
16952DA     BB110107  58.267  57.587  60.318
16952DA     BB210108  58.177  57.283  60.502
16952DA     BB310109  58.122  57.128  60.366
16952DA     SC110110  57.820  57.202  60.364
16952DA     SC210111  57.606  57.105  60.447
16952DA     SC310112  57.493  57.259  60.275
16952DA     SC410113  57.769  57.304  60.251
16953DT     BB110114  58.240  56.958  60.350
16953DT     BB210115  58.019  56.740  60.534
16953DT     BB310116  57.924  56.610  60.404
16953DT     SC110117  57.765  56.800  60.318
16953DT     SC210118  57.565  56.762  60.386
16953DT     SC310119  57.650  56.972  60.154
16954DT     BB110120  58.074  56.414  60.508
16954DT     BB210121  57.733  56.312  60.567
16954DT     BB310122  57.658  56.215  60.400
16954DT     SC110123  57.634  56.442  60.270
16954DT     SC210124  57.425  56.488  60.246
16954DT     SC310125  57.670  56.628  60.087
16955DT     BB110126  57.667  56.004  60.555
16955DT     BB210127  57.322  56.035  60.455
16955DT     BB310128  57.296  55.954  60.267
16955DT     SC110129  57.412  56.160  60.153
16955DT     SC210130  57.266  56.274  60.044
16955DT     SC310131  57.588  56.301  60.015
16956DC     BB110132  57.162  55.776  60.402
16956DC     BB210133  56.929  55.909  60.160
16956DC     BB310134  56.962  55.821  59.975
16956DC     SC110135  57.179  55.963  59.937
16956DC     SC210136  57.144  56.106  59.780
16956DC     SC310137  57.434  56.022  59.900
16957DA     BB110138  56.553  55.811  60.078
16957DA     BB210139  56.584  55.929  59.733
16957DA     BB310140  56.649  55.771  59.605
16957DA     SC110141  56.952  55.835  59.641
16957DA     SC210142  57.139  55.926  59.504
16957DA     SC310143  57.293  55.815  59.676
16957DA     SC410144  57.030  55.758  59.758
16958DG     BB110145  56.379  55.830  59.461
16958DG     BB210146  56.598  55.914  59.185
16958DG     BB310147  56.660  55.748  59.095
16958DG     SC110148  56.907  55.715  59.271
16958DG     SC210149  57.191  55.739  59.181
16958DG     SC310150  57.177  55.637  59.459
16958DG     SC410151  56.895  55.632  59.408
16959DC     BB110152  56.609  55.691  58.877
16959DC     BB210153  56.924  55.749  58.712
16959DC     BB310154  57.017  55.569  58.671
16959DC     SC110155  57.084  55.538  58.923
16959DC     SC210156  57.297  55.559  58.944
16959DC     SC310157  57.096  55.436  59.166
16960DC     BB110158  56.964  55.567  58.393
16960DC     BB210159  57.323  55.534  58.412
16960DC     BB310160  57.376  55.334  58.419
16960DC     SC110161  57.298  55.313  58.668
16960DC     SC210162  57.470  55.286  58.795
16960DC     SC310163  57.161  55.235  58.880
16961DT     BB110164  57.472  55.315  58.151
16961DT     BB210165  57.753  55.211  58.353
16961DT     BB310166  57.749  55.006  58.379
16961DT     SC110167  57.552  55.023  58.551
16961DT     SC210168  57.624  54.972  58.747
16961DT     SC310169  57.313  54.993  58.658
16962DT     BB110170  57.964  54.953  58.204
16962DT     BB210171  58.072  54.815  58.519
16962DT     BB310172  58.016  54.616  58.532
16962DT     SC110173  57.765  54.681  58.574
16962DT     SC210174  57.712  54.632  58.777
16962DT     SC310175  57.505  54.702  58.538
16963DG     BB110176  58.422  54.619  58.572
16963DG     BB210177  58.264  54.450  58.850
16963DG     BB310178  58.217  54.263  58.798
16963DG     SC110179  57.938  54.336  58.693
16963DG     SC210180  57.678  54.252  58.813
16963DG     SC310181  57.636  54.384  58.552
16963DG     SC410182  57.922  54.380  58.540
16964DG     BB110183  58.402  54.168  59.047
16964DG     BB210184  58.096  54.037  59.189
16964DG     BB310185  58.058  53.857  59.114
16964DG     SC110186  57.894  53.964  58.878
16964DG     SC210187  57.601  53.924  58.836
16964DG     SC310188  57.726  54.048  58.598
16964DG     SC410189  57.969  54.003  58.742
16965DA     BB110190  58.028  53.779  59.445
16965DA     BB210191  57.681  53.675  59.385
16965DA     BB310192  57.676  53.487  59.283
16965DA     SC110193  57.674  53.614  58.999
16965DA     SC210194  57.515  53.639  58.809
16965DA     SC310195  57.723  53.682  58.666
16965DA     SC410196  57.816  53.637  58.927
16966DT     BB110197  57.599  53.363  59.389
16966DT     BB210198  57.286  53.341  59.210
16966DT     BB310199  57.288  53.178  59.084
16966DT     SC110200  57.447  53.300  58.915
16966DT     SC210201  57.339  53.346  58.735
16966DT     SC310202  57.661  53.355  58.771
16967DT     BB110203  57.110  53.095  59.254
16967DT     BB210204  56.947  53.088  58.933
16967DT     BB310205  57.002  52.918  58.829
16967DT     SC110206  57.239  53.018  58.776
16967DT     SC210207  57.253  53.062  58.566
16967DT     SC310208  57.501  53.047  58.773
16968DT     BB110209  56.753  52.859  58.874
16968DT     BB210210  56.794  52.840  58.516
16968DT     BB310211  56.882  52.660  58.464
16968DT     SC110212  57.117  52.742  58.549
16968DT     SC210213  57.248  52.771  58.381
16968DT     SC310214  57.338  52.756  58.692
16969DA     BB110215  56.541  52.731  58.228
16969DA     BB210216  56.812  52.616  58.009
16969DA     BB310217  56.855  52.410  58.046
16969DA     SC110218  57.071  52.469  58.262
16969DA     SC210219  57.319  52.450  58.286
16969DA     SC310220  57.275  52.459  58.539
16969DA     SC410221  57.023  52.475  58.416
16970DC     BB110222  56.815  52.285  57.902
16970DC     BB210223  57.152  52.199  57.807
16970DC     BB310224  57.204  52.016  57.889
16970DC     SC110225  57.231  52.121  58.128
16970DC     SC210226  57.439  52.121  58.182
16970DC     SC310227  57.190  52.170  58.384
16971DA     BB110228  57.284  51.946  57.479
16971DA     BB210229  57.570  51.814  57.666
16971DA     BB310230  57.520  51.628  57.757
16971DA     SC110231  57.422  51.756  58.023
16971DA     SC210232  57.496  51.769  58.260
16971DA     SC310233  57.253  51.830  58.312
16971DA     SC410234  57.265  51.791  58.035
16972DA     BB110235  57.775  51.456  57.604
16972DA     BB210236  57.913  51.379  57.935
16972DA     BB310237  57.815  51.209  58.019
16972DA     SC110238  57.595  51.375  58.162
16972DA     SC210239  57.532  51.435  58.396
16972DA     SC310240  57.301  51.488  58.299
16972DA     SC410241  57.458  51.401  58.083
16973DT     BB110242  57.900  50.982  58.060
16973DT     BB210243  57.930  51.017  58.418
16973DT     BB310244  57.795  50.892  58.513
16973DT     SC110245  57.594  51.050  58.452
16973DT     SC210246  57.520  51.144  58.630
16973DT     SC310247  57.369  51.134  58.344
16974DT     BB110248  57.982  50.693  58.602
16974DT     BB210249  57.822  50.803  58.907
16974DT     BB310250  57.661  50.681  58.950
16974DT     SC110251  57.517  50.792  58.761
16974DT     SC210252  57.359  50.908  58.850
16974DT     SC310253  57.377  50.819  58.539
16975DT     BB110254  57.789  50.552  59.161
16975DT     BB210255  57.492  50.691  59.311
16975DT     BB310256  57.337  50.555  59.300
16975DT     SC110257  57.304  50.599  59.044
16975DT     SC210258  57.118  50.702  59.013
16975DT     SC310259  57.296  50.557  58.784
16976DA     BB110260  57.365  50.677  59.700
16976DA     BB210261  57.014  50.706  59.599
16976DA     BB310262  56.924  50.513  59.586
16976DA     SC110263  56.995  50.473  59.285
16976DA     SC210264  56.875  50.463  59.067
16976DA     SC310265  57.084  50.343  58.981
16976DA     SC410266  57.133  50.399  59.251
16977DA     BB110267  56.705  50.650  59.789
16977DA     BB210268  56.452  50.588  59.531
16977DA     BB310269  56.397  50.382  59.529
16977DA     SC110270  56.613  50.302  59.320
16977DA     SC210271  56.621  50.227  59.082
16977DA     SC310272  56.854  50.137  59.139
16977DA     SC410273  56.755  50.251  59.375
16978DA     BB110274  56.090  50.499  59.564
16978DA     BB210275  56.011  50.342  59.243
16978DA     BB310276  55.984  50.131  59.268
16978DA     SC110277  56.282  50.062  59.214
16978DA     SC210278  56.417  49.950  59.037
16978DA     SC310279  56.596  49.922  59.218
16978DA     SC410280  56.380  50.053  59.341
16979DT     BB110281  55.788  50.026  59.243
16979DT     BB210282  55.865  49.877  58.923
16979DT     BB310283  55.888  49.672  58.945
16979DT     SC110284  56.123  49.702  59.057
16979DT     SC210285  56.276  49.631  58.923
16979DT     SC310286  56.314  49.695  59.239
16980DT     BB110287  55.643  49.608  58.822
16980DT     BB210288  55.890  49.437  58.623
16980DT     BB310289  55.920  49.246  58.696
16980DT     SC110290  56.057  49.337  58.901
16980DT     SC210291  56.264  49.281  58.878
16980DT     SC310292  56.125  49.392  59.149
16981DA     BB110293  55.839  49.211  58.289
16981DA     BB210294  56.148  49.027  58.358
16981DA     BB310295  56.104  48.842  58.455
16981DA     SC110296  56.125  48.960  58.742
16981DA     SC210297  56.278  48.942  58.938
16981DA     SC310298  56.080  49.031  59.075
16981DA     SC410299  55.989  49.014  58.810
16982DT     BB110300  56.159  48.715  58.347
16982DT     BB210301  56.454  48.627  58.534
16982DT     BB310302  56.415  48.466  58.657
16982DT     SC110303  56.278  48.616  58.823
16982DT     SC210304  56.388  48.636  59.008
16982DT     SC310305  56.076  48.712  58.963
16983DA     BB110306  56.771  48.435  58.432
16983DA     BB210307  56.843  48.356  58.783
16983DA     BB310308  56.748  48.173  58.839
16983DA     SC110309  56.486  48.311  58.936
16983DA     SC210310  56.369  48.353  59.153
16983DA     SC310311  56.159  48.387  59.009
16983DA     SC410312  56.367  48.327  58.830
16984DT     BB110313  56.876  48.065  58.879
16984DT     BB210314  56.825  48.064  59.236
16984DT     BB310315  56.702  47.906  59.289
16984DT     SC110316  56.490  48.029  59.196
16984DT     SC210317  56.363  48.087  59.360
16984DT     SC310318  56.278  48.082  59.047
16985DA     BB110319  57.047  47.919  59.530
16985DA     BB210320  56.754  47.878  59.746
16985DA     BB310321  56.669  47.684  59.720
16985DA     SC110322  56.474  47.774  59.494
16985DA     SC210323  56.229  47.807  59.464
16985DA     SC310324  56.278  47.791  59.213
16985DA     SC410325  56.525  47.760  59.342
16986DG     BB110326  56.733  47.672  60.022
16986DG     BB210327  56.374  47.644  60.048
16986DG     BB310328  56.317  47.459  60.005
16986DG     SC110329  56.283  47.512  59.706
16986DG     SC210330  56.026  47.510  59.555
16986DG     SC310331  56.256  47.531  59.370
16986DG     SC410332  56.409  47.494  59.609
16987DT     BB110333  56.219  47.347  60.155
16987DT     BB210334  55.878  47.346  60.037
16987DT     BB310335  55.836  47.167  59.944
16987DT     SC110336  55.975  47.236  59.732
16987DT     SC210337  55.841  47.269  59.566
16987DT     SC310338  56.163  47.233  59.547
16988DA     BB110339  55.537  47.248  60.228
16988DA     BB210340  55.375  47.157  59.912
16988DA     BB310341  55.400  46.949  59.872
16988DA     SC110342  55.664  46.988  59.711
16988DA     SC210343  55.741  46.968  59.475
16988DA     SC310344  55.977  46.951  59.574
16988DA     SC410345  55.802  46.977  59.792
16989DT     BB110346  55.239  46.850  59.873
16989DT     BB210347  55.215  46.797  59.517
16989DT     BB310348  55.280  46.607  59.469
16989DT     SC110349  55.531  46.676  59.505
16989DT     SC210350  55.632  46.679  59.315
16989DT     SC310351  55.774  46.683  59.606
16990DT     BB110352  55.027  46.553  59.417
16990DT     BB210353  55.203  46.474  59.113
16990DT     BB310354  55.286  46.285  59.126
16990DT     SC110355  55.475  46.371  59.287
16990DT     SC210356  55.664  46.367  59.184
16990DT     SC310357  55.622  46.399  59.504
16991DT     BB110358  55.102  46.197  58.951
16991DT     BB210359  55.418  46.106  58.803
16991DT     BB310360  55.483  45.925  58.880
16991DT     SC110361  55.551  46.038  59.107
16991DT     SC210362  55.765  46.038  59.125
16991DT     SC310363  55.555  46.094  59.365
16992DG     BB110364  55.455  45.854  58.477
16992DG     BB210365  55.779  45.754  58.604
16992DG     BB310366  55.765  45.577  58.692
16992DG     SC110367  55.701  45.692  58.969
16992DG     SC210368  55.876  45.677  59.210
16992DG     SC310369  55.609  45.783  59.280
16992DG     SC410370  55.548  45.720  59.007
16993DT     BB110371  55.871  45.372  58.622
16993DT     BB210372  56.134  45.343  58.867
16993DT     BB310373  56.090  45.191  59.000
16993DT     SC110374  55.909  45.338  59.121
16993DT     SC210375  55.978  45.390  59.318
16993DT     SC310376  55.674  45.419  59.210
16994DT     BB110377  56.279  45.012  58.896
16994DT     BB210378  56.368  45.039  59.245
16994DT     BB310379  56.268  44.895  59.354
16994DT     SC110380  56.042  45.027  59.338
16994DT     SC210381  55.991  45.105  59.532
16994DT     SC310382  55.792  45.084  59.276
16995DA     BB110383  56.673  44.845  59.453
16995DA     BB210384  56.484  44.862  59.767
16995DA     BB310385  56.381  44.679  59.801
16995DA     SC110386  56.122  44.770  59.655
16995DA     SC210387  55.887  44.830  59.714
16995DA     SC310388  55.834  44.783  59.468
16995DA     SC410389  56.108  44.735  59.498
16996DA     BB110390  56.541  44.691  60.088
16996DA     BB210391  56.212  44.707  60.250
16996DA     BB310392  56.122  44.513  60.253
16996DA     SC110393  55.976  44.551  59.980
16996DA     SC210394  55.742  44.579  59.899
16996DA     SC310395  55.834  44.503  59.671
16996DA     SC410396  56.052  44.501  59.848
16997DT     BB110397  56.093  44.422  60.432
16997DT     BB210398  55.736  44.474  60.448
16997DT     BB310399  55.637  44.296  60.410
16997DT     SC110400  55.691  44.312  60.154
16997DT     SC210401  55.509  44.351  60.045
16997DT     SC310402  55.790  44.253  59.917
16998DA     BB110403  55.484  44.450  60.768
16998DA     BB210404  55.200  44.363  60.553
16998DA     BB310405  55.176  44.151  60.544
16998DA     SC110406  55.360  44.117  60.295
16998DA     SC210407  55.335  44.057  60.054
16998DA     SC310408  55.586  44.001  60.064
16998DA     SC410409  55.516  44.086  60.322
16999DT     BB110410  55.009  44.072  60.624
16999DT     BB210411  54.843  43.997  60.312
16999DT     BB310412  54.852  43.794  60.275
16999DT     SC110413  55.105  43.809  60.208
16999DT     SC210414  55.125  43.774  59.997
16999DT     SC310415  55.366  43.771  60.214
17000DG     BB110416  54.459  43.902  60.279
17000DG     BB210417  54.545  43.725  59.976
17000DG     BB310418  54.555  43.530  60.012
17000DG     SC110419  54.853  43.534  60.084
17000DG     SC210420  55.073  43.407  59.928
17000DG     SC310421  55.172  43.506  60.189
17000DG     SC410422  54.895  43.562  60.236
17001DT     BB110423  54.418  43.391  59.911
17001DT     BB210424  54.638  43.238  59.668
17001DT     BB310425  54.690  43.048  59.730
17001DT     SC110426  54.854  43.144  59.911
17001DT     SC210427  55.057  43.101  59.853
17001DT     SC310428  54.960  43.198  60.147
17002DT     BB110429  54.536  42.957  59.532
17002DT     BB210430  54.862  42.818  59.468
17002DT     BB310431  54.888  42.645  59.579
17002DT     SC110432  54.922  42.782  59.800
17002DT     SC210433  55.126  42.765  59.864
17002DT     SC310434  54.880  42.875  60.044
17003DT     BB110435  54.869  42.505  59.350
17003DT     BB210436  55.188  42.411  59.490
17003DT     BB310437  55.163  42.257  59.626
17003DT     SC110438  55.063  42.420  59.805
17003DT     SC210439  55.203  42.442  59.967
17003DT     SC310440  54.891  42.531  59.971
17004DT     BB110441  55.279  42.090  59.449
17004DT     BB210442  55.481  42.063  59.747
17004DT     BB310443  55.398  41.923  59.876
17004DT     SC110444  55.206  42.089  59.945
17004DT     SC210445  55.235  42.150  60.149
17004DT     SC310446  54.965  42.190  59.975
17005DA     BB110447  55.802  41.824  59.823
17005DA     BB210448  55.731  41.825  60.183
17005DA     BB310449  55.614  41.654  60.236
17005DA     SC110450  55.341  41.797  60.194
17005DA     SC210451  55.152  41.879  60.335
17005DA     SC310452  55.015  41.872  60.118
17005DA     SC410453  55.272  41.785  60.049
17006DA     BB110454  55.862  41.625  60.448
17006DA     BB210455  55.611  41.656  60.713
17006DA     BB310456  55.498  41.476  60.730
17006DA     SC110457  55.279  41.566  60.528
17006DA     SC210458  55.038  41.632  60.534
17006DA     SC310459  55.038  41.577  60.284
17006DA     SC410460  55.298  41.526  60.374
17007DA     BB110461  55.599  41.524  61.036
17007DA     BB210462  55.243  41.541  61.126
17007DA     BB310463  55.155  41.347  61.117
17007DA     SC110464  55.069  41.373  60.819
17007DA     SC210465  54.857  41.396  60.690
17007DA     SC310466  54.995  41.314  60.490
17007DA     SC410467  55.171  41.319  60.707
17008DT     BB110468  55.098  41.287  61.284
17008DT     BB210469  54.744  41.325  61.227
17008DT     BB310470  54.660  41.142  61.179
17008DT     SC110471  54.763  41.149  60.937
17008DT     SC210472  54.605  41.176  60.793
17008DT     SC310473  54.909  41.084  60.728
17009DA     BB110474  54.437  41.326  61.483
17009DA     BB210475  54.204  41.206  61.227
17009DA     BB310476  54.195  40.992  61.229
17009DA     SC110477  54.424  40.956  61.022
17009DA     SC210478  54.448  40.879  60.786
17009DA     SC310479  54.695  40.843  60.845
17009DA     SC410480  54.573  40.938  61.078
17010DC     BB110481  54.025  40.917  61.282
17010DC     BB210482  53.922  40.796  60.958
17010DC     BB310483  53.956  40.593  60.945
17010DC     SC110484  54.214  40.629  60.918
17010DC     SC210485  54.274  40.577  60.718
17010DC     SC310486  54.473  40.619  60.971
17011DA     BB110487  53.552  40.641  60.837
17011DA     BB210488  53.706  40.421  60.588
17011DA     BB310489  53.738  40.226  60.670
17011DA     SC110490  54.024  40.291  60.773
17011DA     SC210491  54.259  40.226  60.718
17011DA     SC310492  54.315  40.307  60.955
17011DA     SC410493  54.039  40.344  60.924
17012DA     BB110494  53.561  40.103  60.415
17012DA     BB210495  53.859  39.914  60.315
17012DA     BB310496  53.880  39.740  60.436
17012DA     SC110497  54.056  39.880  60.651
17012DA     SC210498  54.293  39.874  60.729
17012DA     SC310499  54.203  39.980  60.945
17012DA     SC410500  53.981  39.944  60.778
17013DC     BB110501  53.857  39.529  60.362
17013DC     BB210502  54.208  39.446  60.362
17013DC     BB310503  54.248  39.309  60.512
17013DC     SC110504  54.228  39.494  60.697
17013DC     SC210505  54.422  39.531  60.782
17013DC     SC310506  54.138  39.626  60.907
17014DT     BB110507  54.281  39.100  60.333
17014DT     BB210508  54.592  39.109  60.517
17014DT     BB310509  54.578  38.988  60.684
17014DT     SC110510  54.428  39.164  60.808
17014DT     SC210511  54.538  39.251  60.971
17014DT     SC310512  54.218  39.271  60.927
17015DT     BB110513  54.743  38.802  60.570
17015DT     BB210514  54.906  38.887  60.881
17015DT     BB310515  54.836  38.766  61.033
17015DT     SC110516  54.609  38.898  61.044
17015DT     SC210517  54.600  39.009  61.228
17015DT     SC310518  54.351  38.949  61.029
17016DA     BB110519  55.254  38.741  61.043
17016DA     BB210520  55.138  38.802  61.386
17016DA     BB310521  55.050  38.625  61.467
17016DA     SC110522  54.763  38.695  61.370
17016DA     SC210523  54.545  38.763  61.471
17016DA     SC310524  54.441  38.683  61.251
17016DA     SC410525  54.717  38.639  61.226
17017DC     BB110526  55.141  38.522  61.626
17017DC     BB210527  54.907  38.618  61.883
17017DC     BB310528  54.785  38.457  61.932
17017DC     SC110529  54.648  38.484  61.710
17017DC     SC210530  54.450  38.554  61.757
17017DC     SC310531  54.545  38.429  61.473
17018DT     BB110532  54.910  38.395  62.181
17018DT     BB210533  54.563  38.437  62.269
17018DT     BB310534  54.465  38.255  62.260
17018DT     SC110535  54.463  38.261  61.998
17018DT     SC210536  54.261  38.290  61.928
17018DT     SC310537  54.512  38.193  61.748
17019DA     BB110538  54.376  38.359  62.661
17019DA     BB210539  54.058  38.265  62.505
17019DA     BB310540  54.039  38.053  62.496
17019DA     SC110541  54.171  38.027  62.216
17019DA     SC210542  54.101  37.969  61.984
17019DA     SC310543  54.350  37.923  61.942
17019DA     SC410544  54.330  38.002  62.210
17020DT     BB110545  53.884  37.904  62.620
17020DT     BB210546  53.665  37.848  62.338
17020DT     BB310547  53.671  37.649  62.282
17020DT     SC110548  53.907  37.680  62.172
17020DT     SC210549  53.889  37.663  61.958
17020DT     SC310550  54.165  37.651  62.126
17021DT     BB110551  53.414  37.578  62.384
17021DT     BB210552  53.393  37.506  62.031
17021DT     BB310553  53.441  37.308  61.997
17021DT     SC110554  53.696  37.355  62.035
17021DT     SC210555  53.801  37.337  61.848
17021DT     SC310556  53.937  37.345  62.143
17022DT     BB110557  53.183  37.273  61.937
17022DT     BB210558  53.364  37.189  61.636
17022DT     BB310559  53.424  36.991  61.642
17022DT     SC110560  53.613  37.046  61.815
17022DT     SC210561  53.805  37.025  61.721
17022DT     SC310562  53.752  37.046  62.040
17023DC     BB110563  53.250  36.979  61.450
17023DC     BB210564  53.563  36.874  61.306
17023DC     BB310565  53.600  36.676  61.355
17023DC     SC110566  53.663  36.740  61.601
17023DC     SC210567  53.874  36.709  61.631
17023DC     SC310568  53.654  36.752  61.864
17024DC     BB110569  53.564  36.665  61.100
17024DC     BB210570  53.894  36.531  61.160
17024DC     BB310571  53.879  36.337  61.231
17024DC     SC110572  53.803  36.421  61.467
17024DC     SC210573  53.959  36.384  61.610
17024DC     SC310574  53.651  36.460  61.680
17025DT     BB110575  53.985  36.298  60.999
17025DT     BB210576  54.209  36.145  61.237
17025DT     BB310577  54.132  35.963  61.299
17025DT     SC110578  53.953  36.081  61.450
17025DT     SC210579  54.001  36.048  61.657
17025DT     SC310580  53.718  36.157  61.542
17026DT     BB110581  54.330  35.860  61.158
17026DT     BB210582  54.366  35.717  61.488
17026DT     BB310583  54.238  35.556  61.509
17026DT     SC110584  54.030  35.714  61.533
17026DT     SC210585  53.956  35.706  61.734
17026DT     SC310586  53.799  35.830  61.480
17027DT     BB110587  54.448  35.384  61.495
17027DT     BB210588  54.281  35.292  61.801
17027DT     BB310589  54.130  35.156  61.760
17027DT     SC110590  53.977  35.345  61.661
17027DT     SC210591  53.811  35.379  61.793
17027DT     SC310592  53.835  35.483  61.487
17028DA     BB110593  54.354  34.952  62.053
17028DA     BB210594  54.002  34.925  62.151
17028DA     BB310595  53.902  34.781  62.029
17028DA     SC110596  53.814  34.988  61.814
17028DA     SC210597  53.602  35.094  61.735
17028DA     SC310598  53.732  35.147  61.520
17028DA     SC410599  53.911  35.010  61.688
17029DT     BB110600  53.820  34.571  62.094
17029DT     BB210601  53.470  34.659  62.089
17029DT     BB310602  53.374  34.561  61.934
17029DT     SC110603  53.481  34.722  61.756
17029DT     SC210604  53.328  34.848  61.673
17029DT     SC310605  53.626  34.805  61.552
17030DT     BB110606  53.235  34.356  62.086
17030DT     BB210607  52.969  34.520  61.904
17030DT     BB310608  52.933  34.420  61.727
17030DT     SC110609  53.151  34.516  61.618
17030DT     SC210610  53.099  34.656  61.463
17030DT     SC310611  53.391  34.524  61.508
17031DT     BB110612  52.685  34.289  61.801
17031DT     BB210613  52.596  34.478  61.507
17031DT     BB310614  52.612  34.358  61.338
17031DT     SC110615  52.874  34.373  61.345
17031DT     SC210616  52.943  34.490  61.178
17031DT     SC310617  53.127  34.298  61.364
17032DA     BB110618  52.223  34.512  61.321
17032DA     BB210619  52.381  34.576  60.996
17032DA     BB310620  52.386  34.397  60.880
17032DA     SC110621  52.666  34.308  60.984
17032DA     SC210622  52.897  34.287  60.895
17032DA     SC310623  52.937  34.128  61.092
17032DA     SC410624  52.670  34.211  61.112
17033DA     BB110625  52.236  34.590  60.663
17033DA     BB210626  52.524  34.537  60.442
17033DA     BB310627  52.512  34.345  60.350
17033DA     SC110628  52.673  34.200  60.574
17033DA     SC210629  52.896  34.092  60.601
17033DA     SC310630  52.791  33.973  60.803
17033DA     SC410631  52.589  34.134  60.695
17034DT     BB110632  52.486  34.338  60.150
17034DT     BB210633  52.822  34.238  60.065
17034DT     BB310634  52.825  34.038  60.010
17034DT     SC110635  52.799  33.962  60.260
17034DT     SC210636  52.982  33.870  60.326
17034DT     SC310637  52.695  33.852  60.476
17035DC     BB110638  52.864  34.107  59.748
17035DC     BB210639  53.142  33.890  59.825
17035DC     BB310640  53.089  33.693  59.792
17035DC     SC110641  52.942  33.686  60.009
17035DC     SC210642  53.037  33.559  60.155
17035DC     SC310643  52.731  33.666  60.166
17036DA     BB110644  53.442  33.748  59.573
17036DA     BB210645  53.482  33.440  59.768
17036DA     BB310646  53.371  33.281  59.680
17036DA     SC110647  53.112  33.338  59.844
17036DA     SC210648  52.983  33.229  60.027
17036DA     SC310649  52.787  33.375  59.948
17036DA     SC410650  53.003  33.435  59.779
17037DC     BB110651  53.466  33.109  59.589
17037DC     BB210652  53.391  32.877  59.855
17037DC     BB310653  53.248  32.741  59.792
17037DC     SC110654  53.058  32.921  59.811
17037DC     SC210655  52.927  32.870  59.974
17037DC     SC310656  52.864  33.086  59.741
17038DA     BB110657  53.566  32.514  59.939
17038DA     BB210658  53.259  32.390  60.097
17038DA     BB310659  53.147  32.272  59.959
17038DA     SC110660  52.981  32.511  59.851
17038DA     SC210661  52.745  32.592  59.861
17038DA     SC310662  52.804  32.730  59.653
17038DA     SC410663  53.037  32.589  59.721
17039DA     BB110664  53.173  32.075  60.215
17039DA     BB210665  52.807  32.085  60.232
17039DA     BB310666  52.722  31.966  60.077
17039DA     SC110667  52.706  32.200  59.873
17039DA     SC210668  52.530  32.339  59.764
17039DA     SC310669  52.709  32.393  59.588
17039DA     SC410670  52.831  32.221  59.773
17040DT     BB110671  52.634  31.839  60.156
17040DT     BB210672  52.302  31.962  60.087
17040DT     BB310673  52.226  31.868  59.919
17040DT     SC110674  52.379  32.011  59.761
17040DT     SC210675  52.257  32.149  59.649
17040DT     SC310676  52.565  32.072  59.584
17041DA     BB110677  51.962  31.886  60.246
17041DA     BB210678  51.781  31.983  59.942
17041DA     BB310679  51.760  31.815  59.812
17041DA     SC110680  52.024  31.871  59.658
17041DA     SC210681  52.092  31.947  59.430
17041DA     SC310682  52.320  31.842  59.486
17041DA     SC410683  52.158  31.799  59.710
17042DC     BB110684  51.596  31.802  59.808
17042DC     BB210685  51.549  31.898  59.463
17042DC     BB310686  51.568  31.732  59.341
17042DC     SC110687  51.829  31.732  59.369
17042DC     SC210688  51.922  31.789  59.184
17042DC     SC310689  52.071  31.652  59.436
17043DA     BB110690  51.205  31.922  59.239
17043DA     BB210691  51.382  31.841  58.929
17043DA     BB310692  51.381  31.631  58.895
17043DA     SC110693  51.648  31.580  59.046
17043DA     SC210694  51.882  31.513  58.990
17043DA     SC310695  51.900  31.447  59.237
17043DA     SC410696  51.639  31.543  59.202
17044DT     BB110697  51.272  31.541  58.735
17044DT     BB210698  51.556  31.456  58.530
17044DT     BB310699  51.591  31.252  58.538
17044DT     SC110700  51.692  31.270  58.780
17044DT     SC210701  51.903  31.231  58.772
17044DT     SC310702  51.721  31.237  59.040
17045DG     BB110703  51.523  31.317  58.139
17045DG     BB210704  51.835  31.141  58.191
17045DG     BB310705  51.800  30.948  58.220
17045DG     SC110706  51.772  30.973  58.524
17045DG     SC210707  51.958  30.858  58.727
17045DG     SC310708  51.715  30.968  58.856
17045DG     SC410709  51.628  31.006  58.586
17046DG     BB110710  51.987  30.872  57.960
17046DG     BB210711  52.206  30.708  58.196
17046DG     BB310712  52.141  30.523  58.231
17046DG     SC110713  51.961  30.604  58.465
17046DG     SC210714  52.000  30.527  58.751
17046DG     SC310715  51.739  30.659  58.712
17046DG     SC410716  51.810  30.648  58.435
17047DC     BB110717  52.271  30.365  58.182
17047DC     BB210718  52.387  30.263  58.508
17047DC     BB310719  52.285  30.094  58.570
17047DC     SC110720  52.069  30.233  58.621
17047DC     SC210721  52.037  30.240  58.834
17047DC     SC310722  51.820  30.320  58.607
17048DA     BB110723  52.701  30.055  58.615
17048DA     BB210724  52.539  29.953  58.928
17048DA     BB310725  52.433  29.770  58.900
17048DA     SC110726  52.166  29.909  58.820
17048DA     SC210727  51.939  29.941  58.917
17048DA     SC310728  51.865  29.989  58.677
17048DA     SC410729  52.139  29.934  58.664
17049DC     BB110730  52.507  29.644  59.003
17049DC     BB210731  52.241  29.619  59.246
17049DC     BB310732  52.114  29.464  59.196
17049DC     SC110733  52.007  29.604  59.002
17049DC     SC210734  51.805  29.655  59.054
17049DC     SC310735  51.936  29.677  58.758
17050DC     BB110736  52.215  29.335  59.405
17050DC     BB210737  51.859  29.337  59.462
17050DC     BB310738  51.770  29.184  59.356
17050DC     SC110739  51.797  29.313  59.129
17050DC     SC210740  51.604  29.375  59.058
17050DC     SC310741  51.878  29.371  58.885
17051DT     BB110742  51.726  29.030  59.582
17051DT     BB210743  51.399  29.056  59.431
17051DT     BB310744  51.372  28.904  59.294
17051DT     SC110745  51.530  29.021  59.120
17051DT     SC210746  51.414  29.092  58.954
17051DT     SC310747  51.736  29.063  58.961
17052DA     BB110748  51.035  28.829  59.539
17052DA     BB210749  50.913  28.830  59.193
17052DA     BB310750  50.955  28.643  59.099
17052DA     SC110751  51.232  28.733  58.989
17052DA     SC210752  51.334  28.785  58.768
17052DA     SC310753  51.559  28.747  58.885
17052DA     SC410754  51.361  28.704  59.080
17053DA     BB110755  50.629  28.596  59.027
17053DA     BB210756  50.716  28.608  58.671
17053DA     BB310757  50.780  28.416  58.603
17053DA     SC110758  51.080  28.468  58.666
17053DA     SC210759  51.292  28.502  58.539
17053DA     SC310760  51.410  28.436  58.757
17053DA     SC410761  51.135  28.422  58.810
17054DA     BB110762  50.545  28.444  58.374
17054DA     BB210763  50.810  28.440  58.121
17054DA     BB310764  50.871  28.239  58.081
17054DA     SC110765  51.094  28.238  58.297
17054DA     SC210766  51.344  28.236  58.306
17054DA     SC310767  51.314  28.150  58.546
17054DA     SC410768  51.055  28.185  58.444
17055DT     BB110769  50.835  28.166  57.896
17055DT     BB210770  51.174  28.188  57.776
17055DT     BB310771  51.258  27.999  57.765
17055DT     SC110772  51.285  27.988  58.026
17055DT     SC210773  51.494  27.997  58.076
17055DT     SC310774  51.254  27.908  58.275
17056DA     BB110775  51.316  28.222  57.416
17056DA     BB210776  51.637  28.076  57.515
17056DA     BB310777  51.636  27.865  57.484
17056DA     SC110778  51.531  27.799  57.769
17056DA     SC210779  51.619  27.694  57.978
17056DA     SC310780  51.372  27.660  58.040
17056DA     SC410781  51.372  27.786  57.789
17057DA     BB110782  51.907  27.980  57.343
17057DA     BB210783  52.088  27.745  57.559
17057DA     BB310784  52.049  27.544  57.499
17057DA     SC110785  51.804  27.510  57.688
17057DA     SC210786  51.747  27.383  57.895
17057DA     SC310787  51.503  27.423  57.828
17057DA     SC410788  51.659  27.544  57.629
17058DG     BB110789  52.357  27.553  57.472
17058DG     BB210790  52.342  27.283  57.713
17058DG     BB310791  52.286  27.115  57.623
17058DG     SC110792  51.987  27.161  57.666
17058DG     SC210793  51.807  26.999  57.841
17058DG     SC310794  51.651  27.190  57.678
17058DG     SC410795  51.904  27.244  57.556
17059DG     BB110796  52.566  26.936  57.701
17059DG     BB210797  52.352  26.693  57.864
17059DG     BB310798  52.283  26.564  57.730
17059DG     SC110799  52.034  26.728  57.663
17059DG     SC210800  51.752  26.650  57.723
17059DG     SC310801  51.761  26.891  57.551
17059DG     SC410802  52.042  26.838  57.548
17060DC     BB110803  52.321  26.266  57.640
17060DC     BB210804  52.007  26.125  57.746
17060DC     BB310805  51.897  26.064  57.582
17060DC     SC110806  51.836  26.311  57.521
17060DC     SC210807  51.626  26.344  57.556
17060DC     SC310808  51.823  26.538  57.386
17061DA     BB110809  51.885  25.604  57.647
17061DA     BB210810  51.535  25.689  57.579
17061DA     BB310811  51.493  25.667  57.371
17061DA     SC110812  51.565  25.962  57.301
17061DA     SC210813  51.447  26.169  57.229
17061DA     SC310814  51.677  26.248  57.147
17061DA     SC410815  51.717  25.992  57.255
17062DC     BB110816  51.320  25.481  57.151
17062DC     BB210817  51.056  25.726  57.136
17062DC     BB310818  51.027  25.787  56.940
17062DC     SC110819  51.246  25.931  56.944
17062DC     SC210820  51.194  26.140  56.938
17062DC     SC310821  51.489  26.016  56.884
17063DA     BB110822  50.637  25.656  57.030
17063DA     BB210823  50.611  26.005  56.921
17063DA     BB310824  50.609  26.016  56.708
17063DA     SC110825  50.918  26.044  56.683
17063DA     SC210826  51.082  26.220  56.618
17063DA     SC310827  51.245  26.025  56.580
17063DA     SC410828  51.003  25.909  56.663
17064DC     BB110829  50.439  26.087  56.617
17064DC     BB210830  50.570  26.417  56.554
17064DC     BB310831  50.607  26.440  56.351
17064DC     SC110832  50.822  26.290  56.366
17064DC     SC210833  50.997  26.412  56.337
17064DC     SC310834  50.987  26.088  56.324
17065DT     BB110835  50.404  26.609  56.361
17065DT     BB210836  50.685  26.804  56.248
17065DT     BB310837  50.710  26.781  56.044
17065DT     SC110838  50.810  26.540  56.076
17065DT     SC210839  51.020  26.543  56.026
17065DT     SC310840  50.836  26.278  56.061
17066DC     BB110841  50.629  27.032  56.031
17066DC     BB210842  50.954  27.029  55.875
17066DC     BB310843  50.937  26.969  55.678
17066DC     SC110844  50.900  26.719  55.749
17066DC     SC210845  51.072  26.602  55.693
17066DC     SC310846  50.783  26.485  55.781
17067DA     BB110847  51.157  27.326  55.692
17067DA     BB210848  51.340  27.088  55.481
17067DA     BB310849  51.240  27.061  55.295
17067DA     SC110850  51.066  26.823  55.393
17067DA     SC210851  51.050  26.577  55.353
17067DA     SC310852  50.813  26.598  55.447
17067DA     SC410853  50.921  26.856  55.453
17068DT     BB110854  51.333  27.126  55.128
17068DT     BB210855  51.424  26.801  55.001
17068DT     BB310856  51.301  26.750  54.843
17068DT     SC110857  51.101  26.699  55.005
17068DT     SC210858  51.062  26.488  55.007
17068DT     SC310859  50.864  26.718  55.121
17069DG     BB110860  51.684  26.740  54.705
17069DG     BB210861  51.511  26.429  54.638
17069DG     BB310862  51.392  26.451  54.480
17069DG     SC110863  51.150  26.541  54.644
17069DG     SC210864  50.895  26.390  54.678
17069DG     SC310865  50.871  26.663  54.790
17069DG     SC410866  51.132  26.697  54.675
17070DA     BB110867  51.556  26.167  54.382
17070DA     BB210868  51.234  25.991  54.369
17070DA     BB310869  51.122  26.055  54.199
17070DA     SC110870  50.976  26.285  54.350
17070DA     SC210871  50.746  26.336  54.430
17070DA     SC310872  50.825  26.580  54.436
17070DA     SC410873  51.044  26.431  54.345
17071DT     BB110874  51.100  25.915  54.092
17071DT     BB210875  50.750  25.859  54.159
17071DT     BB310876  50.635  25.947  54.011
17071DT     SC110877  50.680  26.187  54.108
17071DT     SC210878  50.498  26.264  54.193
17071DT     SC310879  50.764  26.436  54.125
17072DA     BB110880  50.525  25.551  54.111
17072DA     BB210881  50.224  25.759  54.095
17072DA     BB310882  50.189  25.824  53.895
17072DA     SC110883  50.354  26.086  53.925
17072DA     SC210884  50.310  26.331  53.935
17072DA     SC310885  50.558  26.357  53.872
17072DA     SC410886  50.509  26.081  53.884
17073DA     BB110887  49.899  25.695  53.982
17073DA     BB210888  49.755  26.022  53.901
17073DA     BB310889  49.759  26.055  53.691
17073DA     SC110890  50.038  26.192  53.694
17073DA     SC210891  50.132  26.421  53.658
17073DA     SC310892  50.355  26.301  53.617
17073DA     SC410893  50.167  26.099  53.670
17074DA     BB110894  49.433  26.111  53.725
17074DA     BB210895  49.491  26.445  53.585
17074DA     BB310896  49.520  26.433  53.374
17074DA     SC110897  49.829  26.401  53.394
17074DA     SC210898  50.032  26.536  53.342
17074DA     SC310899  50.157  26.312  53.345
17074DA     SC410900  49.888  26.252  53.400
17075DT     BB110901  49.378  26.509  53.213
17075DT     BB210902  49.575  26.794  53.112
17075DT     BB310903  49.653  26.763  52.923
17075DT     SC110904  49.831  26.594  53.017
17075DT     SC210905  50.027  26.682  53.003
17075DT     SC310906  49.963  26.369  53.058
17076DT     BB110907  49.477  26.935  52.767
17076DT     BB210908  49.806  27.057  52.686
17076DT     BB310909  49.875  26.966  52.513
17076DT     SC110910  49.922  26.742  52.642
17076DT     SC210911  50.134  26.710  52.655
17076DT     SC310912  49.906  26.488  52.713
17077DA     BB110913  49.910  27.374  52.424
17077DA     BB210914  50.234  27.218  52.353
17077DA     BB310915  50.227  27.113  52.168
17077DA     SC110916  50.139  26.844  52.296
17077DA     SC210917  50.238  26.618  52.336
17077DA     SC310918  49.995  26.539  52.360
17077DA     SC410919  49.982  26.814  52.305
17078DA     BB110920  50.484  27.305  52.119
17078DA     BB210921  50.682  26.997  52.096
17078DA     BB310922  50.650  26.902  51.907
17078DA     SC110923  50.412  26.728  52.007
17078DA     SC210924  50.366  26.487  52.053
17078DA     SC310925  50.119  26.551  52.033
17078DA     SC410926  50.264  26.787  51.989
17079DT     BB110927  50.806  26.899  51.818
17079DT     BB210928  50.875  26.548  51.864
17079DT     BB310929  50.819  26.442  51.695
17079DT     SC110930  50.565  26.464  51.756
17079DT     SC210931  50.489  26.271  51.813
17079DT     SC310932  50.311  26.531  51.740
17080DT     BB110933  51.074  26.418  51.696
17080DT     BB210934  50.942  26.083  51.702
17080DT     BB310935  50.875  26.030  51.513
17080DT     SC110936  50.662  26.181  51.539
17080DT     SC210937  50.487  26.056  51.555
17080DT     SC310938  50.488  26.375  51.495
17081DT     BB110939  51.078  25.872  51.534
17081DT     BB210940  50.798  25.658  51.459
17081DT     BB310941  50.754  25.668  51.257
17081DT     SC110942  50.646  25.906  51.284
17081DT     SC210943  50.433  25.891  51.254
17081DT     SC310944  50.606  26.165  51.257
17082DT     BB110945  50.849  25.423  51.246
17082DT     BB210946  50.522  25.402  51.098
17082DT     BB310947  50.530  25.463  50.900
17082DT     SC110948  50.549  25.715  50.971
17082DT     SC210949  50.368  25.818  50.918
17082DT     SC310950  50.649  25.957  51.000
17083DC     BB110951  50.504  25.206  50.809
17083DC     BB210952  50.240  25.385  50.641
17083DC     BB310953  50.311  25.468  50.466
17083DC     SC110954  50.439  25.656  50.598
17083DC     SC210955  50.343  25.845  50.562
17083DC     SC310956  50.637  25.802  50.693
17084DC     BB110957  50.185  25.283  50.300
17084DC     BB210958  50.071  25.602  50.176
17084DC     BB310959  50.201  25.672  50.031
17084DC     SC110960  50.380  25.737  50.212
17084DC     SC210961  50.396  25.951  50.224
17084DC     SC310962  50.606  25.738  50.348
17085DA     BB110963  49.826  25.684  49.843
17085DA     BB210964  49.986  26.009  49.789
17085DA     BB310965  50.139  25.993  49.641
17085DA     SC110966  50.364  25.930  49.846
17085DA     SC210967  50.566  26.043  49.938
17085DA     SC310968  50.642  25.807  50.005
17085DA     SC410969  50.394  25.776  49.878
17086DT     BB110970  50.120  26.088  49.454
17086DT     BB210971  50.357  26.353  49.516
17086DT     BB310972  50.531  26.318  49.410
17086DT     SC110973  50.605  26.129  49.575
17086DT     SC210974  50.775  26.195  49.689
17086DT     SC310975  50.670  25.889  49.666
17087DT     BB110976  50.473  26.520  49.234
17087DT     BB210977  50.798  26.607  49.365
17087DT     BB310978  50.946  26.517  49.252
17087DT     SC110979  50.896  26.283  49.360
17087DT     SC210980  51.061  26.226  49.486
17087DT     SC310981  50.825  26.030  49.382
17088DA     BB110982  51.047  26.925  49.261
17088DA     BB210983  51.348  26.734  49.348
17088DA     BB310984  51.430  26.641  49.175
17088DA     SC110985  51.267  26.378  49.210
17088DA     SC210986  51.312  26.140  49.270
17088DA     SC310987  51.086  26.091  49.157
17088DA     SC410988  51.125  26.368  49.134
17089DT     BB110989  51.623  26.697  49.085
17089DT     BB210990  51.807  26.408  49.199
17089DT     BB310991  51.848  26.284  49.039
17089DT     SC110992  51.600  26.199  49.030
17089DT     SC210993  51.592  25.994  49.093
17089DT     SC310994  51.356  26.155  48.940
17090DG     BB110995  52.229  26.377  49.166
17090DG     BB210996  52.185  26.018  49.146
17090DG     BB310997  52.212  25.957  48.959
17090DG     SC110998  51.919  25.990  48.879
17090DG     SC210999  51.730  25.769  48.808
17090DG     SC311000  51.610  26.033  48.751
17090DG     SC411001  51.869  26.131  48.822
17091DA     BB111002  52.455  25.722  49.057
17091DA     BB211003  52.242  25.448  48.941
17091DA     BB311004  52.264  25.421  48.730
17091DA     SC111005  52.033  25.616  48.657
17091DA     SC211006  51.803  25.602  48.561
17091DA     SC311007  51.833  25.851  48.506
17091DA     SC411008  52.071  25.770  48.630
17092DA     BB111009  52.331  25.117  48.826
17092DA     BB211010  52.029  25.016  48.644
17092DA     BB311011  52.067  25.009  48.434
17092DA     SC111012  51.984  25.304  48.384
17092DA     SC211013  51.799  25.427  48.271
17092DA     SC311014  51.961  25.627  48.268
17092DA     SC411015  52.100  25.416  48.390
17093DT     BB111016  52.051  24.836  48.366
17093DT     BB211017  51.733  24.886  48.203
17093DT     BB311018  51.760  24.914  48.000
17093DT     SC111019  51.851  25.157  48.037
17093DT     SC211020  51.708  25.299  47.962
17093DT     SC311021  52.016  25.363  48.039
17094DT     BB111022  51.641  24.683  47.994
17094DT     BB211023  51.436  24.903  47.796
17094DT     BB311024  51.517  24.923  47.606
17094DT     SC111025  51.708  25.080  47.696
17094DT     SC211026  51.675  25.280  47.624
17094DT     SC311027  51.949  25.168  47.757
17095DT     BB111028  51.304  24.788  47.541
17095DT     BB211029  51.291  25.089  47.343
17095DT     BB311030  51.415  25.071  47.178
17095DT     SC111031  51.629  25.104  47.327
17095DT     SC211032  51.719  25.294  47.282
17095DT     SC311033  51.858  25.053  47.447
17096DT     BB111034  51.193  25.056  47.034
17096DT     BB211035  51.381  25.325  46.885
17096DT     BB311036  51.521  25.248  46.753
17096DT     SC111037  51.674  25.168  46.951
17096DT     SC211038  51.853  25.288  46.956
17096DT     SC311039  51.808  25.008  47.112
17097DA     BB111040  51.311  25.527  46.516
17097DA     BB211041  51.669  25.583  46.458
17097DA     BB311042  51.749  25.430  46.333
17097DA     SC111043  51.829  25.245  46.570
17097DA     SC211044  52.039  25.165  46.679
17097DA     SC311045  51.893  24.976  46.773
17097DA     SC411046  51.722  25.135  46.618
17098DG     BB111047  51.829  25.632  46.090
17098DG     BB211048  52.168  25.532  46.167
17098DG     BB311049  52.217  25.371  46.061
17098DG     SC111050  52.119  25.172  46.271
17098DG     SC211051  52.289  24.985  46.429
17098DG     SC311052  52.002  24.926  46.470
17098DG     SC411053  51.966  25.124  46.267
17099DT     BB111054  52.396  25.332  45.865
17099DT     BB211055  52.651  25.161  46.054
17099DT     BB311056  52.666  24.964  45.990
17099DT     SC111057  52.444  24.899  46.112
17099DT     SC211058  52.489  24.770  46.279
17099DT     SC311059  52.196  24.817  46.149
17100DT     BB111060  52.915  24.985  45.840
17100DT     BB211061  52.983  24.734  46.090
17100DT     BB311062  52.949  24.546  46.012
17100DT     SC111063  52.689  24.578  46.027
17100DT     SC211064  52.609  24.449  46.180
17100DT     SC311065  52.437  24.604  45.953
17101DG     BB111066  53.335  24.557  46.135
17101DG     BB211067  53.153  24.288  46.294
17101DG     BB311068  53.139  24.133  46.170
17101DG     SC111069  52.876  24.227  46.043
17101DG     SC211070  52.612  24.091  46.068
17101DG     SC311071  52.600  24.309  45.868
17101DG     SC411072  52.882  24.324  45.916
17102DA     BB111073  53.247  24.000  46.462
17102DA     BB211074  52.946  23.791  46.467
17102DA     BB311075  52.956  23.643  46.314
17102DA     SC111076  52.816  23.819  46.099
17102DA     SC211077  52.598  23.825  45.978
17102DA     SC311078  52.720  23.971  45.807
17102DA     SC411079  52.910  23.908  46.003
17103DT     BB111080  52.951  23.505  46.406
17103DT     BB211081  52.616  23.404  46.319
17103DT     BB311082  52.620  23.281  46.153
17103DT     SC111083  52.667  23.484  45.993
17103DT     SC211084  52.494  23.520  45.871
17103DT     SC311085  52.791  23.640  45.821
17104DA     BB111086  52.378  23.142  46.471
17104DA     BB211087  52.193  23.109  46.156
17104DA     BB311088  52.284  22.963  46.031
17104DA     SC111089  52.470  23.167  45.887
17104DA     SC211090  52.492  23.268  45.660
17104DA     SC311091  52.733  23.321  45.730
17104DA     SC411092  52.617  23.189  45.948
17105DC     BB111093  52.173  22.821  46.006
17105DC     BB211094  52.094  22.880  45.659
17105DC     BB311095  52.216  22.765  45.538
17105DC     SC111096  52.422  22.921  45.582
17105DC     SC211097  52.470  23.028  45.402
17105DC     SC311098  52.659  23.002  45.664
17106DA     BB111099  51.822  22.686  45.413
17106DA     BB211100  52.025  22.745  45.113
17106DA     BB311101  52.153  22.579  45.076
17106DA     SC111102  52.389  22.693  45.244
17106DA     SC211103  52.617  22.785  45.202
17106DA     SC311104  52.662  22.730  45.449
17106DA     SC411105  52.398  22.650  45.398
17107DT     BB111106  52.130  22.446  44.906
17107DT     BB211107  52.416  22.563  44.719
17107DT     BB311108  52.566  22.421  44.724
17107DT     SC111109  52.626  22.481  44.972
17107DT     SC211110  52.818  22.579  44.978
17107DT     SC311111  52.659  22.456  45.232
17108DA     BB111112  52.513  22.488  44.312
17108DA     BB211113  52.872  22.513  44.381
17108DA     BB311114  52.957  22.319  44.407
17108DA     SC111115  52.910  22.314  44.715
17108DA     SC211116  53.048  22.323  44.923
17108DA     SC311117  52.843  22.220  45.038
17108DA     SC411118  52.773  22.249  44.768
17109DT     BB111119  53.099  22.233  44.268
17109DT     BB211120  53.390  22.279  44.476
17109DT     BB311121  53.456  22.096  44.547
17109DT     SC111122  53.258  22.083  44.719
17109DT     SC211123  53.335  22.105  44.919
17109DT     SC311124  53.040  21.998  44.840
17110DT     BB111125  53.671  22.108  44.382
17110DT     BB211126  53.811  22.079  44.713
17110DT     BB311127  53.827  21.879  44.765
17110DT     SC111128  53.568  21.860  44.805
17110DT     SC211129  53.530  21.836  45.016
17110DT     SC311130  53.318  21.784  44.777
17111DC     BB111131  54.093  21.904  44.740
17111DC     BB211132  54.042  21.792  45.080
17111DC     BB311133  54.029  21.586  45.085
17111DC     SC111134  53.787  21.591  44.984
17111DC     SC211135  53.646  21.530  45.134
17111DC     SC311136  53.587  21.552  44.816
17112DT     BB111137  54.264  21.598  45.205
17112DT     BB211138  54.049  21.421  45.434
17112DT     BB311139  54.037  21.221  45.381
17112DT     SC111140  53.880  21.276  45.178
17112DT     SC211141  53.683  21.201  45.218
17112DT     SC311142  53.794  21.298  44.930
17113DC     BB111143  54.182  21.172  45.598
17113DC     BB211144  53.884  20.972  45.637
17113DC     BB311145  53.905  20.793  45.535
17113DC     SC111146  53.870  20.912  45.304
17113DC     SC211147  53.680  20.853  45.221
17113DC     SC311148  53.920  21.002  45.061
17114DA     BB111149  53.784  20.704  45.928
17114DA     BB211150  53.573  20.512  45.697
17114DA     BB311151  53.685  20.353  45.608
17114DA     SC111152  53.777  20.523  45.364
17114DA     SC211153  53.732  20.532  45.119
17114DA     SC311154  53.954  20.661  45.104
17114DA     SC411155  53.917  20.600  45.376
17115DT     BB111156  53.640  20.157  45.653
17115DT     BB211157  53.488  20.072  45.337
17115DT     BB311158  53.616  19.955  45.225
17115DT     SC111159  53.768  20.161  45.168
17115DT     SC211160  53.748  20.208  44.959
17115DT     SC311161  53.979  20.318  45.158
17116DA     BB111162  53.259  19.734  45.236
17116DA     BB211163  53.370  19.746  44.887
17116DA     BB311164  53.534  19.613  44.856
17116DA     SC111165  53.751  19.827  44.920
17116DA     SC211166  53.926  19.955  44.797
17116DA     SC311167  54.032  19.992  45.027
17116DA     SC411168  53.802  19.838  45.072
17117DT     BB111169  53.520  19.436  44.734
17117DT     BB211170  53.706  19.564  44.453
17117DT     BB311171  53.891  19.473  44.443
17117DT     SC111172  53.980  19.613  44.646
17117DT     SC211173  54.128  19.753  44.577
17117DT     SC311174  54.075  19.671  44.886
17118DT     BB111175  53.820  19.322  44.223
17118DT     BB211176  54.110  19.506  44.115
17118DT     BB311177  54.282  19.399  44.159
17118DT     SC111178  54.263  19.458  44.414
17118DT     SC211179  54.421  19.593  44.468
17118DT     SC311180  54.234  19.427  44.674
17119DG     BB111181  54.284  19.463  43.757
17119DG     BB211182  54.591  19.576  43.910
17119DG     BB311183  54.710  19.421  43.945
17119DG     SC111184  54.599  19.368  44.225
17119DG     SC211185  54.748  19.401  44.482
17119DG     SC311186  54.487  19.269  44.527
17119DG     SC411187  54.473  19.271  44.241
17120DT     BB111188  54.901  19.414  43.848
17120DT     BB211189  55.123  19.498  44.119
17120DT     BB311190  55.215  19.327  44.191
17120DT     SC111191  54.995  19.250  44.312
17120DT     SC211192  55.021  19.265  44.525
17120DT     SC311193  54.783  19.106  44.374
17121DA     BB111194  55.506  19.618  44.114
17121DA     BB211195  55.566  19.483  44.450
17121DA     BB311196  55.643  19.285  44.437
17121DA     SC111197  55.364  19.149  44.445
17121DA     SC211198  55.231  19.009  44.604
17121DA     SC311199  55.095  18.940  44.397
17121DA     SC411200  55.292  19.117  44.305
17122DA     BB111201  55.862  19.432  44.630
17122DA     BB211202  55.772  19.184  44.884
17122DA     BB311203  55.850  18.993  44.832
17122DA     SC111204  55.597  18.905  44.674
17122DA     SC211205  55.411  18.741  44.699
17122DA     SC311206  55.380  18.768  44.446
17122DA     SC411207  55.595  18.934  44.516
17123DT     BB111208  55.987  18.921  44.951
17123DT     BB211209  55.783  18.669  45.109
17123DT     BB311210  55.828  18.483  45.031
17123DT     SC111211  55.700  18.536  44.809
17123DT     SC211212  55.522  18.416  44.798
17123DT     SC311213  55.656  18.579  44.552
17124DA     BB111214  55.839  18.465  45.450
17124DA     BB211215  55.640  18.183  45.329
17124DA     BB311216  55.766  18.037  45.237
17124DA     SC111217  55.741  18.161  44.952
17124DA     SC211218  55.636  18.102  44.734
17124DA     SC311219  55.801  18.270  44.632
17124DA     SC411220  55.852  18.268  44.908
17125DA     BB111221  55.596  17.860  45.453
17125DA     BB211222  55.478  17.665  45.165
17125DA     BB311223  55.636  17.544  45.088
17125DA     SC111224  55.734  17.760  44.886
17125DA     SC211225  55.737  17.794  44.639
17125DA     SC311226  55.924  17.963  44.685
17125DA     SC411227  55.850  17.860  44.935
17126DA     BB111228  55.401  17.319  45.130
17126DA     BB211229  55.431  17.250  44.771
17126DA     BB311230  55.613  17.146  44.730
17126DA     SC111231  55.778  17.405  44.682
17126DA     SC211232  55.887  17.521  44.490
17126DA     SC311233  56.026  17.642  44.668
17126DA     SC411234  55.856  17.468  44.808
17127DT     BB111235  55.599  16.959  44.666
17127DT     BB211236  55.703  17.014  44.325
17127DT     BB311237  55.899  16.955  44.300
17127DT     SC111238  55.988  17.167  44.427
17127DT     SC211239  56.087  17.297  44.288
17127DT     SC311240  56.106  17.315  44.611
17128DT     BB111241  55.838  16.718  44.162
17128DT     BB211242  56.074  16.882  43.944
17128DT     BB311243  56.266  16.825  43.992
17128DT     SC111244  56.266  16.975  44.207
17128DT     SC211245  56.401  17.140  44.180
17128DT     SC311246  56.273  17.044  44.462
17129DA     BB111247  56.286  16.696  43.584
17129DA     BB211248  56.593  16.888  43.644
17129DA     BB311249  56.737  16.766  43.744
17129DA     SC111250  56.645  16.849  44.029
17129DA     SC211251  56.733  16.983  44.220
17129DA     SC311252  56.564  16.853  44.363
17129DA     SC411253  56.535  16.756  44.101
17130DA     BB111254  57.016  16.768  43.512
17130DA     BB211255  57.217  16.948  43.762
17130DA     BB311256  57.325  16.810  43.883
17130DA     SC111257  57.101  16.787  44.098
17130DA     SC211258  57.064  16.855  44.335
17130DA     SC311259  56.882  16.674  44.338
17130DA     SC411260  56.993  16.669  44.080
17131DA     BB111261  57.667  16.909  43.825
17131DA     BB211262  57.680  17.028  44.172
17131DA     BB311263  57.759  16.877  44.299
17131DA     SC111264  57.481  16.753  44.365
17131DA     SC211265  57.329  16.736  44.562
17131DA     SC311266  57.223  16.538  44.437
17131DA     SC411267  57.430  16.632  44.273
17132DT     BB111268  57.976  16.874  44.431
17132DT     BB211269  57.812  16.971  44.737
17132DT     BB311270  57.834  16.822  44.879
17132DT     SC111271  57.656  16.671  44.759
17132DT     SC211272  57.478  16.659  44.880
17132DT     SC311273  57.550  16.467  44.629
17133DG     BB111274  57.985  17.169  45.023
17133DG     BB211275  57.720  17.040  45.233
17133DG     BB311276  57.790  16.894  45.349
17133DG     SC111277  57.729  16.672  45.148
17133DG     SC211278  57.528  16.454  45.183
17133DG     SC311279  57.695  16.405  44.944
17133DG     SC411280  57.840  16.634  45.038
17134DA     BB111281  57.625  17.097  45.564
17134DA     BB211282  57.407  16.815  45.650
17134DA     BB311283  57.514  16.670  45.765
17134DA     SC111284  57.609  16.507  45.517
17134DA     SC211285  57.564  16.285  45.414
17134DA     SC311286  57.788  16.317  45.294
17134DA     SC411287  57.751  16.545  45.453
17135DT     BB111288  57.434  16.665  45.919
17135DT     BB211289  57.275  16.344  45.875
17135DT     BB311290  57.391  16.195  45.961
17135DT     SC111291  57.564  16.206  45.764
17135DT     SC211292  57.551  16.026  45.647
17135DT     SC311293  57.791  16.243  45.635
17136DT     BB111294  57.192  16.186  46.131
17136DT     BB211295  57.219  15.852  45.997
17136DT     BB311296  57.370  15.750  46.095
17136DT     SC111297  57.555  15.883  45.966
17136DT     SC211298  57.655  15.752  45.828
17136DT     SC311299  57.759  16.045  45.921
17137DT     BB111300  57.175  15.608  46.204
17137DT     BB211301  57.387  15.365  46.043
17137DT     BB311302  57.546  15.317  46.166
17137DT     SC111303  57.664  15.546  46.116
17137DT     SC211304  57.841  15.511  45.999
17137DT     SC311305  57.768  15.786  46.155
17138DC     BB111306  57.432  15.078  46.205
17138DC     BB211307  57.762  15.002  46.082
17138DC     BB311308  57.897  15.000  46.239
17138DC     SC111309  57.895  15.262  46.255
17138DC     SC211310  58.085  15.340  46.189
17138DC     SC311311  57.858  15.505  46.352
17139DA     BB111312  57.943  14.646  46.019
17139DA     BB211313  58.276  14.789  46.074
17139DA     BB311314  58.334  14.766  46.279
17139DA     SC111315  58.215  15.039  46.368
17139DA     SC211316  58.299  15.261  46.445
17139DA     SC311317  58.064  15.294  46.543
17139DA     SC411318  58.064  15.040  46.423
17140DA     BB111319  58.592  14.636  46.125
17140DA     BB211320  58.795  14.892  46.292
17140DA     BB311321  58.816  14.846  46.500
17140DA     SC111322  58.564  15.007  46.586
17140DA     SC211323  58.512  15.216  46.712
17140DA     SC311324  58.277  15.116  46.741
17140DA     SC411325  58.424  14.927  46.594
17141DT     BB111326  58.996  14.801  46.561
17141DT     BB211327  59.062  15.104  46.747
17141DT     BB311328  59.040  15.068  46.950
17141DT     SC111329  58.778  15.064  46.929
17141DT     SC211330  58.696  15.238  47.025
17141DT     SC311331  58.531  14.974  46.935
17142DG     BB111332  59.423  15.202  46.903
17142DG     BB211333  59.252  15.386  47.163
17142DG     BB311334  59.248  15.278  47.330
17142DG     SC111335  58.982  15.140  47.263
17142DG     SC211336  58.724  15.177  47.409
17142DG     SC311337  58.705  14.956  47.213
17142DG     SC411338  58.985  15.004  47.179
17143DC     BB111339  59.355  15.333  47.536
17143DC     BB211340  59.074  15.434  47.738
17143DC     BB311341  59.032  15.289  47.879
17143DC     SC111342  58.926  15.132  47.699
17143DC     SC211343  58.713  15.119  47.731
17143DC     SC311344  58.889  14.922  47.543
17144DT     BB111345  59.137  15.433  48.101
17144DT     BB211346  58.797  15.361  48.199
17144DT     BB311347  58.790  15.183  48.304
17144DT     SC111348  58.822  15.043  48.084
17144DT     SC211349  58.640  14.938  48.039
17144DT     SC311350  58.930  14.879  47.907
17145DT     BB111351  58.746  15.311  48.546
17145DT     BB211352  58.464  15.089  48.511
17145DT     BB311353  58.508  14.905  48.595
17145DT     SC111354  58.663  14.841  48.393
17145DT     SC211355  58.571  14.683  48.279
17145DT     SC311356  58.880  14.777  48.258
17146DA     BB111357  58.142  15.044  48.741
17146DA     BB211358  58.096  14.698  48.628
17146DA     BB311359  58.191  14.563  48.763
17146DA     SC111360  58.463  14.563  48.611
17146DA     SC211361  58.597  14.405  48.473
17146DA     SC311362  58.796  14.558  48.529
17146DA     SC411363  58.574  14.670  48.659
17147DT     BB111364  58.066  14.457  48.841
17147DT     BB211365  58.146  14.152  48.665
17147DT     BB311366  58.267  14.032  48.783
17147DT     SC111367  58.475  14.186  48.738
17147DT     SC211368  58.616  14.080  48.614
17147DT     SC311369  58.676  14.351  48.782
17148DA     BB111370  57.945  13.814  48.623
17148DA     BB211371  58.251  13.617  48.580
17148DA     BB311372  58.322  13.548  48.769
17148DA     SC111373  58.503  13.796  48.818
17148DA     SC211374  58.747  13.848  48.827
17148DA     SC311375  58.677  14.057  48.959
17148DA     SC411376  58.440  13.920  48.900
17149DA     BB111377  58.315  13.253  48.616
17149DA     BB211378  58.671  13.219  48.698
17149DA     BB311379  58.696  13.179  48.906
17149DA     SC111380  58.718  13.479  48.986
17149DA     SC211381  58.894  13.635  49.070
17149DA     SC311382  58.698  13.781  49.148
17149DA     SC411383  58.583  13.555  49.029
17150DA     BB111384  58.871  12.887  48.853
17150DA     BB211385  59.153  13.027  49.041
17150DA     BB311386  59.120  13.005  49.251
17150DA     SC111387  58.979  13.280  49.282
17150DA     SC211388  59.026  13.502  49.387
17150DA     SC311389  58.772  13.538  49.378
17150DA     SC411390  58.818  13.283  49.269
17151DA     BB111391  59.403  12.804  49.362
17151DA     BB211392  59.516  13.080  49.576
17151DA     BB311393  59.431  13.063  49.770
17151DA     SC111394  59.180  13.234  49.702
17151DA     SC211395  59.088  13.459  49.760
17151DA     SC311396  58.863  13.364  49.682
17151DA     SC411397  59.049  13.157  49.650
17152DT     BB111398  59.518  12.998  50.045
17152DT     BB211399  59.514  13.341  50.156
17152DT     BB311400  59.380  13.362  50.313
17152DT     SC111401  59.175  13.347  50.150
17152DT     SC211402  59.078  13.539  50.138
17152DT     SC311403  58.954  13.257  50.037
17153DG     BB111404  59.718  13.468  50.533
17153DG     BB211405  59.471  13.731  50.551
17153DG     BB311406  59.347  13.698  50.703
17153DG     SC111407  59.149  13.533  50.539
17153DG     SC211408  58.869  13.612  50.471
17153DG     SC311409  58.921  13.331  50.393
17153DG     SC411410  59.171  13.375  50.526
17154DT     BB111411  59.320  13.841  50.897
17154DT     BB211412  59.014  14.007  50.802
17154DT     BB311413  58.859  13.946  50.925
17154DT     SC111414  58.844  13.714  50.804
17154DT     SC211415  58.661  13.703  50.692
17154DT     SC311416  58.853  13.453  50.766
17155DA     BB111417  58.876  14.362  50.904
17155DA     BB211418  58.532  14.258  50.830
17155DA     BB311419  58.435  14.191  51.008
17155DA     SC111420  58.521  13.894  50.973
17155DA     SC211421  58.412  13.676  50.919
17155DA     SC311422  58.621  13.570  51.025
17155DA     SC411423  58.657  13.847  51.044
17156DC     BB111424  58.294  14.301  51.048
17156DC     BB211425  58.032  14.073  50.950
17156DC     BB311426  57.953  13.980  51.117
17156DC     SC111427  58.164  13.826  51.140
17156DC     SC211428  58.110  13.623  51.093
17156DC     SC311429  58.382  13.717  51.241
17157DT     BB111430  57.740  14.127  51.064
17157DT     BB211431  57.622  13.786  51.065
17157DT     BB311432  57.584  13.725  51.259
17157DT     SC111433  57.841  13.702  51.310
17157DT     SC211434  57.891  13.493  51.332
17157DT     SC311435  58.077  13.744  51.419
17158DA     BB111436  57.250  13.639  51.021
17158DA     BB211437  57.327  13.341  51.220
17158DA     BB311438  57.276  13.373  51.425
17158DA     SC111439  57.556  13.483  51.503
17158DA     SC211440  57.752  13.410  51.639
17158DA     SC311441  57.816  13.658  51.643
17158DA     SC411442  57.579  13.642  51.495
17159DC     BB111443  57.125  13.266  51.504
17159DC     BB211444  57.326  13.049  51.711
17159DC     BB311445  57.311  13.107  51.909
17159DC     SC111446  57.467  13.314  51.868
17159DC     SC211447  57.655  13.283  51.967
17159DC     SC311448  57.547  13.565  51.849
17160DT     BB111449  57.152  12.891  51.974
17160DT     BB211450  57.429  12.867  52.204
17160DT     BB311451  57.387  12.976  52.375
17160DT     SC111452  57.430  13.203  52.251
17160DT     SC211453  57.610  13.293  52.326
17160DT     SC311454  57.384  13.441  52.146
17161DT     BB111455  57.343  12.749  52.531
17161DT     BB211456  57.599  12.928  52.711
17161DT     BB311457  57.513  13.059  52.846
17161DT     SC111458  57.444  13.224  52.655
17161DT     SC211459  57.562  13.404  52.670
17161DT     SC311460  57.293  13.368  52.493
17162DG     BB111461  57.755  12.809  53.061
17162DG     BB211462  57.828  13.157  53.129
17162DG     BB311463  57.692  13.232  53.253
17162DG     SC111464  57.504  13.324  53.030
17162DG     SC211465  57.439  13.607  52.960
17162DG     SC311466  57.265  13.419  52.811
17162DG     SC411467  57.393  13.222  52.974
17163DA     BB111468  57.961  13.337  53.445
17163DA     BB211469  57.851  13.685  53.408
17163DA     BB311470  57.683  13.723  53.533
17163DA     SC111471  57.473  13.646  53.316
17163DA     SC211472  57.303  13.762  53.175
17163DA     SC311473  57.197  13.529  53.149
17163DA     SC411474  57.422  13.494  53.313
17164DT     BB111475  57.708  13.852  53.682
17164DT     BB211476  57.525  14.125  53.534
17164DT     BB311477  57.340  14.143  53.623
17164DT     SC111478  57.250  13.932  53.496
17164DT     SC211479  57.103  13.993  53.350
17164DT     SC311480  57.154  13.690  53.453
17165DC     BB111481  57.427  14.368  53.741
17165DC     BB211482  57.134  14.468  53.555
17165DC     BB311483  56.964  14.434  53.668
17165DC     SC111484  56.978  14.175  53.626
17165DC     SC211485  56.817  14.114  53.498
17165DC     SC311486  57.004  13.917  53.674
17166DA     BB111487  56.956  14.829  53.526
17166DA     BB211488  56.631  14.675  53.455
17166DA     BB311489  56.519  14.650  53.635
17166DA     SC111490  56.629  14.364  53.692
17166DA     SC211491  56.542  14.130  53.692
17166DA     SC311492  56.744  14.077  53.841
17166DA     SC411493  56.759  14.352  53.785
17167DT     BB111494  56.358  14.755  53.648
17167DT     BB211495  56.124  14.485  53.599
17167DT     BB311496  56.043  14.428  53.781
17167DT     SC111497  56.265  14.306  53.850
17167DT     SC211498  56.232  14.093  53.853
17167DT     SC311499  56.485  14.248  53.984
17168DG     BB111500  55.734  14.532  53.536
17168DG     BB211501  55.684  14.204  53.681
17168DG     BB311502  55.625  14.222  53.870
17168DG     SC111503  55.909  14.221  53.985
17168DG     SC211504  56.028  14.008  54.156
17168DG     SC311505  56.206  14.245  54.143
17168DG     SC411506  55.987  14.360  53.999
17169DT     BB111507  55.426  14.148  53.937
17169DT     BB211508  55.517  13.851  54.121
17169DT     BB311509  55.506  13.888  54.324
17169DT     SC111510  55.728  14.028  54.318
17169DT     SC211511  55.884  13.920  54.421
17169DT     SC311512  55.893  14.233  54.338
17170DT     BB111513  55.281  13.736  54.346
17170DT     BB211514  55.512  13.587  54.579
17170DT     BB311515  55.499  13.682  54.762
17170DT     SC111516  55.628  13.891  54.672
17170DT     SC211517  55.823  13.900  54.764
17170DT     SC311518  55.679  14.140  54.600
17171DT     BB111519  55.370  13.467  54.876
17171DT     BB211520  55.661  13.517  55.083
17171DT     BB311521  55.618  13.652  55.234
17171DT     SC111522  55.627  13.854  55.066
17171DT     SC211523  55.800  13.974  55.107
17171DT     SC311524  55.549  14.061  54.922
17172DA     BB111525  55.779  13.313  55.421
17172DA     BB211526  55.958  13.606  55.548
17172DA     BB311527  55.834  13.716  55.683
17172DA     SC111528  55.714  13.900  55.462
17172DA     SC211529  55.727  14.139  55.394
17172DA     SC311530  55.507  14.095  55.270
17172DA     SC411531  55.577  13.853  55.392
17173DC     BB111532  55.884  13.727  55.883
17173DC     BB211533  56.001  14.068  55.879
17173DC     BB311534  55.863  14.191  55.971
17173DC     SC111535  55.701  14.178  55.764
17173DC     SC211536  55.696  14.369  55.666
17173DC     SC311537  55.487  14.126  55.619
17174DG     BB111538  56.210  14.240  56.180
17174DG     BB211539  56.077  14.558  56.071
17174DG     BB311540  55.930  14.615  56.192
17174DG     SC111541  55.710  14.476  56.030
17174DG     SC211542  55.491  14.612  55.878
17174DG     SC311543  55.447  14.319  55.888
17174DG     SC411544  55.674  14.323  56.063
17175DA     BB111545  56.100  14.915  56.223
17175DA     BB211546  55.812  15.093  56.084
17175DA     BB311547  55.659  15.113  56.231
17175DA     SC111548  55.516  14.847  56.153
17175DA     SC211549  55.303  14.777  56.045
17175DA     SC311550  55.345  14.550  56.157
17175DA     SC411551  55.559  14.714  56.232
17176DG     BB111552  55.706  15.414  56.180
17176DG     BB211553  55.368  15.397  56.053
17176DG     BB311554  55.238  15.406  56.204
17176DG     SC111555  55.229  15.103  56.247
17176DG     SC211556  54.994  14.926  56.199
17176DG     SC311557  55.211  14.778  56.335
17176DG     SC411558  55.336  15.036  56.346
17177DT     BB111559  55.102  15.569  56.209
17177DT     BB211560  54.795  15.409  56.108
17177DT     BB311561  54.676  15.374  56.273
17177DT     SC111562  54.827  15.175  56.351
17177DT     SC211563  54.720  14.990  56.327
17177DT     SC311564  54.991  15.031  56.499
17178DT     BB111565  54.523  15.561  56.168
17178DT     BB211566  54.312  15.270  56.197
17178DT     BB311567  54.237  15.255  56.389
17178DT     SC111568  54.469  15.173  56.481
17178DT     SC211569  54.454  14.967  56.539
17178DT     SC311570  54.694  15.169  56.619
17179DT     BB111571  54.013  15.313  56.269
17179DT     BB211572  53.954  15.000  56.437
17179DT     BB311573  53.914  15.033  56.638
17179DT     SC111574  54.166  15.084  56.688
17179DT     SC211575  54.249  14.926  56.807
17179DT     SC311576  54.383  15.216  56.758
17180DT     BB111577  53.674  14.956  56.568
17180DT     BB211578  53.772  14.736  56.838
17180DT     BB311579  53.743  14.831  57.020
17180DT     SC111580  53.955  14.982  56.983
17180DT     SC211581  54.109  14.924  57.121
17180DT     SC311582  54.103  15.197  56.948
17181DA     BB111583  53.558  14.454  57.039
17181DA     BB211584  53.751  14.501  57.347
17181DA     BB311585  53.658  14.647  57.472
17181DA     SC111586  53.815  14.886  57.351
17181DA     SC211587  53.993  15.046  57.423
17181DA     SC311588  53.909  15.194  57.231
17181DA     SC411589  53.747  14.965  57.228
17182DA     BB111590  53.660  14.415  57.712
17182DA     BB211591  53.860  14.645  57.916
17182DA     BB311592  53.736  14.796  58.001
17182DA     SC111593  53.772  14.994  57.763
17182DA     SC211594  53.884  15.212  57.721
17182DA     SC311595  53.725  15.232  57.520
17182DA     SC411596  53.664  14.988  57.645
17183DC     BB111597  53.680  14.822  58.225
17183DC     BB211598  53.887  15.111  58.288
17183DC     BB311599  53.768  15.277  58.320
17183DC     SC111600  53.711  15.296  58.065
17183DC     SC211601  53.806  15.471  57.983
17183DC     SC311602  53.571  15.298  57.841
17184DG     BB111603  53.965  15.258  58.681
17184DG     BB211604  53.997  15.588  58.538
17184DG     BB311605  53.837  15.698  58.583
17184DG     SC111606  53.679  15.613  58.334
17184DG     SC211607  53.602  15.791  58.107
17184DG     SC311608  53.471  15.527  58.084
17184DG     SC411609  53.588  15.482  58.341
17185DT     BB111610  53.833  15.898  58.719
17185DT     BB211611  53.798  16.150  58.463
17185DT     BB311612  53.609  16.233  58.471
17185DT     SC111613  53.502  16.019  58.363
17185DT     SC211614  53.434  16.066  58.164
17185DT     SC311615  53.354  15.803  58.335
17186DT     BB111616  53.713  16.465  58.571
17186DT     BB211617  53.541  16.566  58.270
17186DT     BB311618  53.343  16.608  58.313
17186DT     SC111619  53.286  16.353  58.334
17186DT     SC211620  53.161  16.293  58.169
17186DT     SC311621  53.210  16.123  58.441
17187DC     BB111622  53.399  16.869  58.275
17187DC     BB211623  53.132  16.798  58.042
17187DC     BB311624  52.949  16.820  58.136
17187DC     SC111625  52.980  16.594  58.266
17187DC     SC211626  52.841  16.448  58.190
17187DC     SC311627  53.009  16.424  58.466
17188DA     BB111628  52.943  17.040  57.780
17188DA     BB211629  52.634  16.844  57.796
17188DA     BB311630  52.502  16.925  57.943
17188DA     SC111631  52.613  16.748  58.174
17188DA     SC211632  52.534  16.557  58.314
17188DA     SC311633  52.718  16.628  58.478
17188DA     SC411634  52.732  16.808  58.264
17189DG     BB111635  52.300  16.968  57.707
17189DG     BB211636  52.094  16.737  57.895
17189DG     BB311637  51.995  16.835  58.037
17189DG     SC111638  52.214  16.799  58.248
17189DG     SC211639  52.193  16.636  58.497
17189DG     SC311640  52.442  16.796  58.497
17189DG     SC411641  52.331  16.908  58.258
17190DA     BB111642  51.678  16.714  57.932
17190DA     BB211643  51.618  16.559  58.259
17190DA     BB311644  51.550  16.705  58.399
17190DA     SC111645  51.836  16.778  58.499
17190DA     SC211646  51.972  16.749  58.705
17190DA     SC311647  52.114  16.942  58.614
17190DA     SC411648  51.911  16.900  58.426
17191DG     BB111649  51.256  16.569  58.449
17191DG     BB211650  51.375  16.519  58.787
17191DG     BB311651  51.324  16.675  58.900
17191DG     SC111652  51.580  16.833  58.841
17191DG     SC211653  51.794  16.899  59.038
17191DG     SC311654  51.838  17.042  58.783
17191DG     SC411655  51.583  16.930  58.714
17192DA     BB111656  51.157  16.481  59.148
17192DA     BB211657  51.397  16.588  59.404
17192DA     BB311658  51.339  16.776  59.486
17192DA     SC111659  51.503  16.943  59.280
17192DA     SC211660  51.706  17.087  59.279
17192DA     SC311661  51.612  17.183  59.060
17192DA     SC411662  51.427  16.990  59.146
17193DT     BB111663  51.270  16.808  59.698
17193DT     BB211664  51.578  16.954  59.814
17193DT     BB311665  51.550  17.155  59.857
17193DT     SC111666  51.544  17.216  59.602
17193DT     SC211667  51.721  17.328  59.552
17193DT     SC311668  51.454  17.302  59.369
17194DA     BB111669  51.723  16.982  60.195
17194DA     BB211670  51.921  17.278  60.107
17194DA     BB311671  51.817  17.456  60.163
17194DA     SC111672  51.672  17.486  59.890
17194DA     SC211673  51.679  17.639  59.693
17194DA     SC311674  51.444  17.550  59.641
17194DA     SC411675  51.526  17.419  59.875
17195DT     BB111676  51.902  17.564  60.305
17195DT     BB211677  52.024  17.825  60.088
17195DT     BB311678  51.907  17.995  60.108
17195DT     SC111679  51.712  17.886  59.970
17195DT     SC211680  51.693  17.986  59.781
17195DT     SC311681  51.474  17.787  59.912
17196DT     BB111682  52.121  18.097  60.224
17196DT     BB211683  52.049  18.316  59.946
17196DT     BB311684  51.903  18.453  59.999
17196DT     SC111685  51.715  18.270  59.985
17196DT     SC211686  51.588  18.312  59.816
17196DT     SC311687  51.522  18.107  60.059
17197DA     BB111688  52.232  18.643  59.821
17197DA     BB211689  51.926  18.770  59.665
17197DA     BB311690  51.819  18.894  59.801
17197DA     SC111691  51.648  18.661  59.917
17197DA     SC211692  51.410  18.587  59.912
17197DA     SC311693  51.469  18.452  60.122
17197DA     SC411694  51.704  18.586  60.048
17198DT     BB111695  51.810  19.071  59.744
17198DT     BB211696  51.461  19.077  59.655
17198DT     BB311697  51.350  19.164  59.807
17198DT     SC111698  51.373  18.950  59.956
17198DT     SC211699  51.181  18.853  59.972
17198DT     SC311700  51.439  18.794  60.159
17199DT     BB111701  51.316  19.378  59.648
17199DT     BB211702  50.981  19.279  59.738
17199DT     BB311703  50.929  19.364  59.920
17199DT     SC111704  51.081  19.195  60.051
17199DT     SC211705  50.958  19.059  60.163
17199DT     SC311706  51.276  19.104  60.204
17200DT     BB111707  50.760  19.537  59.794
17200DT     BB211708  50.552  19.375  60.040
17200DT     BB311709  50.564  19.475  60.220
17200DT     SC111710  50.803  19.377  60.267
17200DT     SC211711  50.792  19.237  60.430
17200DT     SC311712  51.063  19.367  60.309
17201DT     BB111713  50.311  19.593  60.199
17201DT     BB211714  50.299  19.425  60.518
17201DT     BB311715  50.363  19.553  60.668
17201DT     SC111716  50.613  19.527  60.593
17201DT     SC211717  50.721  19.417  60.743
17201DT     SC311718  50.853  19.590  60.503
17202DG     BB111719  49.981  19.458  60.782
17202DG     BB211720  50.215  19.401  61.052
17202DG     BB311721  50.258  19.573  61.142
17202DG     SC111722  50.495  19.638  60.960
17202DG     SC211723  50.782  19.649  61.042
17202DG     SC311724  50.748  19.751  60.766
17202DG     SC411725  50.469  19.719  60.824
17203DA     BB111726  50.172  19.435  61.453
17203DA     BB211727  50.513  19.490  61.576
17203DA     BB311728  50.539  19.694  61.633
17203DA     SC111729  50.638  19.785  61.353
17203DA     SC211730  50.851  19.863  61.248
17203DA     SC311731  50.701  19.961  61.065
17203DA     SC411732  50.528  19.840  61.249
17204DA     BB111733  50.634  19.559  61.917
17204DA     BB211734  50.963  19.710  61.857
17204DA     BB311735  50.959  19.918  61.902
17204DA     SC111736  50.879  20.004  61.613
17204DA     SC211737  50.985  20.122  61.421
17204DA     SC311738  50.744  20.162  61.340
17204DA     SC411739  50.723  20.019  61.581
17205DG     BB111740  51.177  19.833  62.102
17205DG     BB211741  51.384  20.039  61.890
17205DG     BB311742  51.362  20.231  61.939
17205DG     SC111743  51.129  20.278  61.745
17205DG     SC211744  51.136  20.453  61.503
17205DG     SC311745  50.860  20.360  61.559
17205DG     SC411746  50.980  20.250  61.795
17206DT     BB111747  51.533  20.326  62.001
17206DT     BB211748  51.611  20.531  61.714
17206DT     BB311749  51.546  20.725  61.746
17206DT     SC111750  51.296  20.655  61.706
17206DT     SC211751  51.227  20.741  61.521
17206DT     SC311752  51.040  20.612  61.752
17207DA     BB111753  51.945  20.714  61.613
17207DA     BB211754  51.761  20.961  61.413
17207DA     BB311755  51.711  21.131  61.532
17207DA     SC111756  51.436  21.017  61.622
17207DA     SC211757  51.194  21.065  61.583
17207DA     SC311758  51.154  20.934  61.800
17207DA     SC411759  51.432  20.934  61.760
17208DT     BB111760  51.796  21.281  61.471
17208DT     BB211761  51.507  21.446  61.332
17208DT     BB311762  51.433  21.585  61.466
17208DT     SC111763  51.330  21.396  61.617
17208DT     SC211764  51.115  21.404  61.604
17208DT     SC311765  51.287  21.241  61.826
17209DT     BB111766  51.526  21.778  61.305
17209DT     BB211767  51.176  21.854  61.345
17209DT     BB311768  51.146  21.962  61.519
17209DT     SC111769  51.181  21.749  61.667
17209DT     SC211770  50.994  21.693  61.757
17209DT     SC311771  51.286  21.584  61.844
17210DC     BB111772  51.101  22.195  61.379
17210DC     BB211773  50.808  22.158  61.587
17210DC     BB311774  50.841  22.245  61.772
17210DC     SC111775  50.995  22.046  61.846
17210DC     SC211776  50.896  21.932  62.000
17210DC     SC311777  51.211  21.914  61.922
17211DT     BB111778  50.682  22.475  61.728
17211DT     BB211779  50.545  22.333  62.030
17211DT     BB311780  50.640  22.413  62.195
17211DT     SC111781  50.855  22.270  62.151
17211DT     SC211782  50.874  22.121  62.305
17211DT     SC311783  51.106  22.209  62.096
17212DT     BB111784  50.427  22.584  62.278
17212DT     BB211785  50.491  22.380  62.569
17212DT     BB311786  50.628  22.474  62.692
17212DT     SC111787  50.826  22.414  62.530
17212DT     SC211788  50.953  22.268  62.623
17212DT     SC311789  51.027  22.445  62.362
17213DG     BB111790  50.302  22.444  62.940
17213DG     BB211791  50.594  22.299  63.096
17213DG     BB311792  50.704  22.442  63.180
17213DG     SC111793  50.872  22.496  62.931
17213DG     SC211794  51.164  22.441  62.901
17213DG     SC311795  51.062  22.595  62.670
17213DG     SC411796  50.820  22.603  62.823
17214DT     BB111797  50.749  22.465  63.416
17214DT     BB211798  51.088  22.343  63.426
17214DT     BB311799  51.219  22.500  63.463
17214DT     SC111800  51.192  22.589  63.218
17214DT     SC211801  51.376  22.559  63.110
17214DT     SC311802  51.131  22.750  63.017
17215DA     BB111803  51.303  22.203  63.745
17215DA     BB211804  51.618  22.297  63.583
17215DA     BB311805  51.685  22.486  63.656
17215DA     SC111806  51.538  22.650  63.436
17215DA     SC211807  51.598  22.787  63.236
17215DA     SC311808  51.364  22.890  63.262
17215DA     SC411809  51.390  22.703  63.470
17216DT     BB111810  51.854  22.484  63.757
17216DT     BB211811  52.059  22.622  63.494
17216DT     BB311812  52.104  22.820  63.535
17216DT     SC111813  51.861  22.895  63.471
17216DT     SC211814  51.868  23.009  63.288
17216DT     SC311815  51.617  22.995  63.493
17217DT     BB111816  52.346  22.725  63.570
17217DT     BB211817  52.374  22.970  63.306
17217DT     BB311818  52.389  23.160  63.388
17217DT     SC111819  52.133  23.162  63.448
17217DT     SC211820  52.031  23.304  63.322
17217DT     SC311821  51.912  23.169  63.591
17218DT     BB111822  52.622  23.130  63.284
17218DT     BB211823  52.481  23.423  63.128
17218DT     BB311824  52.495  23.585  63.257
17218DT     SC111825  52.299  23.493  63.406
17218DT     SC211826  52.127  23.620  63.383
17218DT     SC311827  52.170  23.398  63.615
17219DA     BB111828  52.613  23.659  62.858
17219DA     BB211829  52.396  23.932  62.972
17219DA     BB311830  52.492  24.043  63.126
17219DA     SC111831  52.376  23.871  63.357
17219DA     SC211832  52.210  23.897  63.542
17219DA     SC311833  52.329  23.696  63.649
17219DA     SC411834  52.464  23.746  63.408
17220DG     BB111835  52.421  24.246  62.905
17220DG     BB211836  52.232  24.396  63.174
17220DG     BB311837  52.356  24.481  63.304
17220DG     SC111838  52.387  24.230  63.476
17220DG     SC211839  52.289  24.196  63.756
17220DG     SC311840  52.459  23.967  63.675
17220DG     SC411841  52.502  24.125  63.440
17221DT     BB111842  52.346  24.691  63.334
17221DT     BB211843  52.211  24.724  63.667
17221DT     BB311844  52.365  24.758  63.802
17221DT     SC111845  52.442  24.507  63.790
17221DT     SC211846  52.398  24.410  63.977
17221DT     SC311847  52.593  24.296  63.745
17222DT     BB111848  52.295  25.020  63.829
17222DT     BB211849  52.305  24.897  64.168
17222DT     BB311850  52.498  24.909  64.242
17222DT     SC111851  52.574  24.703  64.099
17222DT     SC211852  52.614  24.537  64.229
17222DT     SC311853  52.704  24.561  63.919
17223DA     BB111854  52.275  25.119  64.532
17223DA     BB211855  52.491  24.882  64.710
17223DA     BB311856  52.693  24.952  64.712
17223DA     SC111857  52.771  24.806  64.448
17223DA     SC211858  52.915  24.615  64.379
17223DA     SC311859  52.908  24.721  64.145
17223DA     SC411860  52.756  24.888  64.311
17224DT     BB111861  52.792  25.014  64.891
17224DT     BB211862  53.003  24.724  64.925
17224DT     BB311863  53.199  24.772  64.877
17224DT     SC111864  53.144  24.780  64.621
17224DT     SC211865  53.239  24.614  64.523
17224DT     SC311866  53.111  24.874  64.377
17225DA     BB111867  53.212  24.588  65.254
17225DA     BB211868  53.463  24.426  65.041
17225DA     BB311869  53.631  24.556  65.014
17225DA     SC111870  53.516  24.689  64.757
17225DA     SC211871  53.566  24.692  64.512
17225DA     SC311872  53.431  24.909  64.508
17225DA     SC411873  53.430  24.823  64.775
17226DC     BB111874  53.805  24.499  65.091
17226DC     BB211875  53.965  24.407  64.781
17226DC     BB311876  54.099  24.554  64.724
17226DC     SC111877  53.905  24.714  64.649
17226DC     SC211878  53.906  24.733  64.435
17226DC     SC311879  53.745  24.924  64.642
17227DT     BB111880  54.309  24.393  64.789
17227DT     BB211881  54.366  24.481  64.443
17227DT     BB311882  54.468  24.661  64.433
17227DT     SC111883  54.253  24.797  64.496
17227DT     SC211884  54.186  24.909  64.325
17227DT     SC311885  54.089  24.953  64.631
17228DG     BB111886  54.727  24.403  64.243
17228DG     BB211887  54.662  24.694  64.038
17228DG     BB311888  54.775  24.847  64.099
17228DG     SC111889  54.568  24.951  64.299
17228DG     SC211890  54.421  25.210  64.281
17228DG     SC311891  54.374  25.081  64.543
17228DG     SC411892  54.570  24.894  64.449
17229DA     BB111893  54.932  24.914  63.781
17229DA     BB211894  54.782  25.248  63.770
17229DA     BB311895  54.900  25.387  63.881
17229DA     SC111896  54.748  25.340  64.149
17229DA     SC211897  54.593  25.466  64.297
17229DA     SC311898  54.664  25.299  64.479
17229DA     SC411899  54.806  25.227  64.248
17230DT     BB111900  55.045  25.588  63.807
17230DT     BB211901  54.798  25.832  63.906
17230DT     BB311902  54.873  25.950  64.059
17230DT     SC111903  54.843  25.756  64.234
17230DT     SC211904  54.685  25.808  64.371
17230DT     SC311905  54.902  25.571  64.412
17231DT     BB111906  54.923  26.198  63.911
17231DT     BB211907  54.676  26.285  64.159
17231DT     BB311908  54.769  26.366  64.326
17231DT     SC111909  54.853  26.129  64.403
17231DT     SC211910  54.748  26.070  64.581
17231DT     SC311911  55.017  25.933  64.465
17232DC     BB111912  54.657  26.599  64.255
17232DC     BB211913  54.510  26.512  64.573
17232DC     BB311914  54.629  26.580  64.727
17232DC     SC111915  54.804  26.388  64.686
17232DC     SC211916  54.798  26.249  64.850
17232DC     SC311917  55.031  26.269  64.625
17233DG     BB111918  54.234  26.684  64.732
17233DG     BB211919  54.338  26.514  65.035
17233DG     BB311920  54.453  26.634  65.143
17233DG     SC111921  54.714  26.543  65.012
17233DG     SC211922  54.934  26.390  65.145
17233DG     SC311923  55.016  26.481  64.876
17233DG     SC411924  54.765  26.618  64.880
17234DA     BB111925  54.222  26.506  65.362
17234DA     BB211926  54.500  26.379  65.564
17234DA     BB311927  54.609  26.541  65.651
17234DA     SC111928  54.808  26.566  65.414
17234DA     SC211929  55.050  26.523  65.371
17234DA     SC311930  55.023  26.683  65.172
17234DA     SC411931  54.771  26.669  65.296
17235DG     BB111932  54.517  26.371  65.890
17235DG     BB211933  54.874  26.335  65.934
17235DG     BB311934  54.951  26.502  66.008
17235DG     SC111935  55.005  26.628  65.734
17235DG     SC211936  55.274  26.686  65.618
17235DG     SC311937  55.059  26.804  65.452
17235DG     SC411938  54.890  26.715  65.665
17236DA     BB111939  55.094  26.291  66.242
17236DA     BB211940  55.426  26.410  66.143
17236DA     BB311941  55.460  26.607  66.218
17236DA     SC111942  55.348  26.748  65.965
17236DA     SC211943  55.436  26.884  65.775
17236DA     SC311944  55.194  26.964  65.747
17236DA     SC411945  55.192  26.787  65.965
17237DT     BB111946  55.601  26.625  66.353
17237DT     BB211947  55.845  26.782  66.139
17237DT     BB311948  55.853  26.985  66.178
17237DT     SC111949  55.625  27.027  66.054
17237DT     SC211950  55.662  27.136  65.872
17237DT     SC311951  55.373  27.093  66.013
17238DA     BB111952  56.238  26.823  66.184
17238DA     BB211953  56.242  27.122  65.971
17238DA     BB311954  56.225  27.298  66.090
17238DA     SC111955  55.914  27.306  66.076
17238DA     SC211956  55.738  27.448  65.971
17238DA     SC311957  55.580  27.346  66.146
17238DA     SC411958  55.832  27.233  66.193
17239DT     BB111959  56.373  27.390  66.069
17239DT     BB211960  56.234  27.653  65.865
17239DT     BB311961  56.185  27.816  65.984
17239DT     SC111962  55.973  27.693  66.078
17239DT     SC211963  55.796  27.787  66.003
17239DT     SC311964  55.809  27.578  66.250
17240DT     BB111965  56.376  27.903  65.839
17240DT     BB211966  56.098  28.126  65.783
17240DT     BB311967  56.075  28.252  65.946
17240DT     SC111968  55.971  28.059  66.090
17240DT     SC211969  55.762  28.098  66.123
17240DT     SC311970  55.943  27.881  66.284
17241DG     BB111971  56.101  28.450  65.589
17241DG     BB211972  55.825  28.569  65.791
17241DG     BB311973  55.895  28.672  65.946
17241DG     SC111974  55.915  28.428  66.130
17241DG     SC211975  55.751  28.379  66.375
17241DG     SC311976  55.969  28.180  66.353
17241DG     SC411977  56.050  28.342  66.131
17242DT     BB111978  55.853  28.885  65.969
17242DT     BB211979  55.633  28.899  66.255
17242DT     BB311980  55.740  28.952  66.424
17242DT     SC111981  55.848  28.714  66.440
17242DT     SC211982  55.770  28.611  66.612
17242DT     SC311983  56.032  28.524  66.442
17243DC     BB111984  55.663  29.234  66.448
17243DC     BB211985  55.598  29.109  66.780
17243DC     BB311986  55.764  29.139  66.900
17243DC     SC111987  55.894  28.943  66.785
17243DC     SC211988  55.915  28.780  66.923
17243DC     SC311989  56.078  28.816  66.645
17244DA     BB111990  55.503  29.368  67.154
17244DA     BB211991  55.683  29.141  67.378
17244DA     BB311992  55.875  29.222  67.427
17244DA     SC111993  56.021  29.084  67.190
17244DA     SC211994  56.187  28.901  67.157
17244DA     SC311995  56.230  29.009  66.928
17244DA     SC411996  56.034  29.166  67.053
17245DG     BB111997  55.840  29.269  67.760
17245DG     BB211998  56.090  29.009  67.788
17245DG     BB311999  56.270  29.091  67.809
17245DG     SC112000  56.327  29.103  67.509
17245DG     SC212001  56.535  28.946  67.363
17245DG     SC312002  56.414  29.150  67.186
17245DG     SC412003  56.281  29.232  67.426
17246DA     BB112004  56.347  28.918  68.109
17246DA     BB212005  56.621  28.740  67.943
17246DA     BB312006  56.800  28.857  67.948
17246DA     SC112007  56.744  29.000  67.678
17246DA     SC212008  56.838  29.001  67.447
17246DA     SC312009  56.721  29.228  67.422
17246DA     SC412010  56.666  29.140  67.683
17247DA     BB112011  56.914  28.584  68.081
17247DA     BB212012  57.132  28.556  67.788
17247DA     BB312013  57.300  28.687  67.807
17247DA     SC112014  57.160  28.927  67.666
17247DA     SC212015  57.181  29.051  67.451
17247DA     SC312016  57.054  29.239  67.571
17247DA     SC412017  57.082  29.032  67.758
17248DT     BB112018  57.456  28.590  67.815
17248DT     BB212019  57.567  28.663  67.480
17248DT     BB312020  57.711  28.811  67.484
17248DT     SC112021  57.532  28.996  67.531
17248DT     SC212022  57.512  29.122  67.358
17248DT     SC312023  57.400  29.188  67.655
17249DA     BB112024  57.800  28.476  67.244
17249DA     BB212025  57.869  28.781  67.053
17249DA     BB312026  58.036  28.885  67.137
17249DA     SC112027  57.863  29.059  67.328
17249DA     SC212028  57.796  29.298  67.350
17249DA     SC312029  57.744  29.240  67.595
17249DA     SC412030  57.838  29.003  67.477
17250DA     BB112031  58.080  28.855  66.813
17250DA     BB212032  58.113  29.221  66.812
17250DA     BB312033  58.289  29.279  66.918
17250DA     SC112034  58.144  29.305  67.193
17250DA     SC212035  58.077  29.486  67.350
17250DA     SC312036  58.064  29.301  67.526
17250DA     SC412037  58.143  29.176  67.288
17251DT     BB112038  58.421  29.359  66.809
17251DT     BB212039  58.398  29.696  66.936
17251DT     BB312040  58.550  29.731  67.073
17251DT     SC112041  58.428  29.587  67.256
17251DT     SC212042  58.357  29.716  67.413
17251DT     SC312043  58.381  29.394  67.429
17252DT     BB112044  58.676  29.886  66.893
17252DT     BB212045  58.650  30.093  67.187
17252DT     BB312046  58.807  30.052  67.316
17252DT     SC112047  58.697  29.826  67.390
17252DT     SC212048  58.630  29.842  67.594
17252DT     SC312049  58.663  29.567  67.426
17253DA     BB112050  58.852  30.470  67.268
17253DA     BB212051  58.870  30.402  67.627
17253DA     BB312052  59.060  30.319  67.678
17253DA     SC112053  58.969  30.024  67.638
17253DA     SC212054  58.926  29.823  67.780
17253DA     SC312055  58.955  29.689  67.563
17253DA     SC412056  58.992  29.958  67.493
17254DT     BB112057  59.234  30.417  67.804
17254DT     BB212058  59.180  30.222  68.102
17254DT     BB312059  59.339  30.092  68.131
17254DT     SC112060  59.256  29.935  67.938
17254DT     SC212061  59.185  29.750  68.022
17254DT     SC312062  59.252  29.803  67.710
17255DT     BB112063  59.460  30.233  68.347
17255DT     BB212064  59.393  29.905  68.482
17255DT     BB312065  59.557  29.782  68.453
17255DT     SC112066  59.503  29.756  68.198
17255DT     SC212067  59.438  29.555  68.158
17255DT     SC312068  59.529  29.772  67.936
17256DT     BB112069  59.620  29.788  68.720
17256DT     BB212070  59.565  29.439  68.646
17256DT     BB312071  59.741  29.351  68.582
17256DT     SC112072  59.723  29.468  68.348
17256DT     SC212073  59.681  29.320  68.198
17256DT     SC312074  59.782  29.624  68.143
17257DG     BB112075  59.589  29.152  68.903
17257DG     BB212076  59.643  28.933  68.620
17257DG     BB312077  59.837  28.893  68.602
17257DG     SC112078  59.894  29.132  68.418
17257DG     SC212079  59.974  29.117  68.131
17257DG     SC312080  59.996  29.394  68.232
17257DG     SC412081  59.932  29.273  68.484
17258DT     BB112082  59.869  28.701  68.613
17258DT     BB212083  59.940  28.615  68.270
17258DT     BB312084  60.145  28.614  68.238
17258DT     SC112085  60.155  28.876  68.240
17258DT     SC212086  60.199  28.948  68.042
17258DT     SC312087  60.216  29.122  68.315
17259DT     BB112088  60.088  28.364  68.212
17259DT     BB212089  60.243  28.465  67.902
17259DT     BB312090  60.448  28.480  67.927
17259DT     SC112091  60.423  28.705  68.061
17259DT     SC212092  60.501  28.867  67.942
17259DT     SC312093  60.434  28.878  68.259
17260DA     BB112094  60.349  28.256  67.583
17260DA     BB212095  60.610  28.499  67.495
17260DA     BB312096  60.794  28.448  67.590
17260DA     SC112097  60.739  28.617  67.845
17260DA     SC212098  60.827  28.826  67.950
17260DA     SC312099  60.721  28.736  68.166
17260DA     SC412100  60.668  28.544  67.969
17261DC     BB112101  60.937  28.395  67.471
17261DC     BB212102  61.142  28.689  67.509
17261DC     BB312103  61.297  28.651  67.640
17261DC     SC112104  61.136  28.661  67.847
17261DC     SC212105  61.179  28.837  67.963
17261DC     SC312106  61.000  28.585  68.060
17262DA     BB112107  61.494  28.796  67.298
17262DA     BB212108  61.632  28.974  67.587
17262DA     BB312109  61.765  28.847  67.696
17262DA     SC112110  61.543  28.738  67.885
17262DA     SC212111  61.480  28.757  68.125
17262DA     SC312112  61.347  28.541  68.086
17262DA     SC412113  61.468  28.603  67.841
17263DA     BB112114  62.000  29.081  67.658
17263DA     BB212115  62.009  29.112  68.023
17263DA     BB312116  62.126  28.955  68.108
17263DA     SC112117  61.884  28.762  68.143
17263DA     SC212118  61.751  28.666  68.330
17263DA     SC312119  61.681  28.486  68.160
17263DA     SC412120  61.854  28.659  68.023
17264DT     BB112121  62.317  28.988  68.208
17264DT     BB212122  62.195  28.942  68.544
17264DT     BB312123  62.266  28.763  68.622
17264DT     SC112124  62.099  28.624  68.475
17264DT     SC212125  61.950  28.535  68.602
17264DT     SC312126  62.009  28.455  68.294
17265DT     BB112127  62.441  28.893  68.790
17265DT     BB212128  62.237  28.693  69.010
17265DT     BB312129  62.321  28.505  69.032
17265DT     SC112130  62.242  28.433  68.792
17265DT     SC212131  62.087  28.286  68.810
17265DT     SC312132  62.252  28.356  68.540
17266DC     BB112133  62.393  28.568  69.286
17266DC     BB212134  62.188  28.273  69.320
17266DC     BB312135  62.304  28.104  69.299
17266DC     SC112136  62.320  28.138  69.039
17266DC     SC212137  62.208  27.984  68.940
17266DC     SC312138  62.424  28.181  68.801
17267DA     BB112139  62.084  28.065  69.654
17267DA     BB212140  62.046  27.754  69.464
17267DA     BB312141  62.226  27.640  69.470
17267DA     SC112142  62.346  27.769  69.213
17267DA     SC212143  62.396  27.700  68.979
17267DA     SC312144  62.555  27.902  68.976
17267DA     SC412145  62.440  27.898  69.231
17268DA     BB112146  62.016  27.410  69.575
17268DA     BB212147  62.117  27.213  69.282
17268DA     BB312148  62.312  27.130  69.312
17268DA     SC112149  62.461  27.372  69.186
17268DA     SC212150  62.593  27.420  68.980
17268DA     SC312151  62.686  27.620  69.111
17268DA     SC412152  62.508  27.490  69.284
17269DT     BB112153  62.339  26.923  69.332
17269DT     BB212154  62.485  26.867  69.008
17269DT     BB312155  62.688  26.831  69.027
17269DT     SC112156  62.737  27.085  69.073
17269DT     SC212157  62.842  27.169  68.906
17269DT     SC312158  62.812  27.304  69.199
17270DA     BB112159  62.547  26.502  68.806
17270DA     BB212160  62.839  26.635  68.630
17270DA     BB312161  63.019  26.579  68.730
17270DA     SC112162  63.027  26.833  68.910
17270DA     SC212163  63.165  27.039  68.932
17270DA     SC312164  63.068  27.055  69.169
17270DA     SC412165  62.957  26.824  69.054
17271DG     BB112166  63.105  26.423  68.470
17271DG     BB212167  63.367  26.672  68.459
17271DG     BB312168  63.522  26.612  68.569
17271DG     SC112169  63.420  26.742  68.827
17271DG     SC212170  63.546  26.972  68.970
17271DG     SC312171  63.328  26.855  69.132
17271DG     SC412172  63.323  26.658  68.923
17272DC     BB112173  63.724  26.574  68.479
17272DC     BB212174  63.903  26.868  68.587
17272DC     BB312175  64.033  26.820  68.741
17272DC     SC112176  63.835  26.802  68.912
17272DC     SC212177  63.846  26.964  69.052
17272DC     SC312178  63.665  26.698  69.085
17273DT     BB112179  64.246  26.849  68.573
17273DT     BB212180  64.312  27.078  68.844
17273DT     BB312181  64.411  26.980  68.997
17273DT     SC112182  64.191  26.858  69.072
17273DT     SC212183  64.127  26.935  69.262
17273DT     SC312184  64.021  26.663  69.122
17274DA     BB112185  64.636  27.323  68.906
17274DA     BB212186  64.588  27.313  69.269
17274DA     BB312187  64.711  27.163  69.357
17274DA     SC112188  64.495  26.939  69.335
17274DA     SC212189  64.350  26.807  69.488
17274DA     SC312190  64.330  26.641  69.294
17274DA     SC412191  64.496  26.848  69.202
17275DT     BB112192  64.870  27.214  69.484
17275DT     BB212193  64.710  27.115  69.792
17275DT     BB312194  64.796  26.940  69.863
17275DT     SC112195  64.673  26.797  69.680
17275DT     SC212196  64.523  26.675  69.774
17275DT     SC312197  64.636  26.639  69.472
17276DT     BB112198  64.927  27.071  70.068
17276DT     BB212199  64.725  26.823  70.235
17276DT     BB312200  64.830  26.646  70.253
17276DT     SC112201  64.798  26.592  69.998
17276DT     SC212202  64.665  26.424  69.977
17276DT     SC312203  64.856  26.545  69.745
17277DG     BB112204  64.727  26.761  70.629
17277DG     BB212205  64.615  26.425  70.558
17277DG     BB312206  64.767  26.298  70.576
17277DG     SC112207  64.856  26.322  70.284
17277DG     SC212208  64.843  26.106  70.078
17277DG     SC312209  64.993  26.340  69.977
17277DG     SC412210  64.960  26.437  70.245
17278DA     BB112211  64.535  26.140  70.768
17278DA     BB212212  64.555  25.850  70.545
17278DA     BB312213  64.738  25.744  70.577
17278DA     SC112214  64.896  25.905  70.362
17278DA     SC212215  64.996  25.865  70.138
17278DA     SC312216  65.138  26.073  70.186
17278DA     SC412217  64.976  26.036  70.412
17279DA     BB112218  64.479  25.549  70.578
17279DA     BB212219  64.646  25.379  70.299
17279DA     BB312220  64.827  25.287  70.366
17279DA     SC112221  65.004  25.535  70.306
17279DA     SC212222  65.183  25.600  70.145
17279DA     SC312223  65.244  25.781  70.315
17279DA     SC412224  65.027  25.641  70.425
17280DA     BB112225  64.627  25.105  70.173
17280DA     BB212226  64.927  25.067  69.965
17280DA     BB312227  65.082  24.972  70.076
17280DA     SC112228  65.204  25.238  70.181
17280DA     SC212229  65.411  25.373  70.146
17280DA     SC312230  65.353  25.482  70.371
17280DA     SC412231  65.152  25.293  70.323
17281DA     BB112232  65.038  24.846  69.769
17281DA     BB212233  65.399  24.901  69.735
17281DA     BB312234  65.506  24.789  69.882
17281DA     SC112235  65.503  25.018  70.093
17281DA     SC212236  65.666  25.174  70.198
17281DA     SC312237  65.491  25.201  70.383
17281DA     SC412238  65.381  25.020  70.198
17282DC     BB112239  65.604  24.665  69.802
17282DC     BB212240  65.932  24.791  69.884
17282DC     BB312241  65.999  24.704  70.059
17282DC     SC112242  65.838  24.850  70.205
17282DC     SC212243  65.953  24.992  70.318
17282DC     SC312244  65.643  24.916  70.370
17283DG     BB112245  66.289  24.589  69.791
17283DG     BB212246  66.440  24.716  70.093
17283DG     BB312247  66.437  24.576  70.235
17283DG     SC112248  66.164  24.659  70.345
17283DG     SC212249  66.113  24.778  70.615
17283DG     SC312250  65.859  24.710  70.479
17283DG     SC412251  66.032  24.594  70.282
17284DT     BB112252  66.627  24.442  70.349
17284DT     BB212253  66.633  24.594  70.676
17284DT     BB312254  66.561  24.460  70.817
17284DT     SC112255  66.314  24.496  70.736
17284DT     SC212256  66.203  24.602  70.888
17284DT     SC312257  66.076  24.444  70.635
17285DG     BB112258  66.943  24.500  70.972
17285DG     BB212259  66.698  24.557  71.232
17285DG     BB312260  66.642  24.384  71.311
17285DG     SC112261  66.412  24.341  71.114
17285DG     SC212262  66.121  24.342  71.181
17285DG     SC312263  66.164  24.252  70.902
17285DG     SC412264  66.441  24.266  70.976
17286DA     BB112265  66.719  24.476  71.646
17286DA     BB212266  66.368  24.439  71.746
17286DA     BB312267  66.324  24.235  71.789
17286DA     SC112268  66.237  24.167  71.498
17286DA     SC212269  66.026  24.111  71.377
17286DA     SC312270  66.180  24.013  71.197
17286DA     SC412271  66.349  24.110  71.398
17287DG     BB112272  66.254  24.314  72.088
17287DG     BB212273  65.920  24.212  71.993
17287DG     BB312274  65.898  24.017  72.023
17287DG     SC112275  65.994  23.938  71.743
17287DG     SC212276  65.827  23.814  71.529
17287DG     SC312277  66.112  23.815  71.452
17287DG     SC412278  66.150  23.914  71.718
17288DA     BB112279  65.612  24.082  72.213
17288DA     BB212280  65.408  23.890  71.976
17288DA     BB312281  65.428  23.681  72.013
17288DA     SC112282  65.667  23.645  71.817
17288DA     SC212283  65.710  23.536  71.597
17288DA     SC312284  65.958  23.545  71.664
17288DA     SC412285  65.815  23.658  71.878
17289DT     BB112286  65.264  23.568  72.083
17289DT     BB212287  65.192  23.404  71.770
17289DT     BB312288  65.249  23.205  71.780
17289DT     SC112289  65.503  23.269  71.759
17289DT     SC212290  65.578  23.204  71.568
17289DT     SC312291  65.758  23.295  71.822
17290DA     BB112292  64.850  23.205  71.653
17290DA     BB212293  65.040  22.993  71.422
17290DA     BB312294  65.086  22.806  71.514
17290DA     SC112295  65.358  22.902  71.630
17290DA     SC212296  65.600  22.860  71.591
17290DA     SC312297  65.634  22.954  71.828
17290DA     SC412298  65.358  22.962  71.779
17291DT     BB112299  65.001  22.633  71.439
17291DT     BB212300  65.298  22.512  71.274
17291DT     BB312301  65.377  22.352  71.378
17291DT     SC112302  65.470  22.509  71.566
17291DT     SC212303  65.685  22.513  71.556
17291DT     SC312304  65.504  22.619  71.803
17292DT     BB112305  65.297  22.195  71.175
17292DT     BB212306  65.653  22.144  71.198
17292DT     BB312307  65.695  21.997  71.338
17292DT     SC112308  65.643  22.162  71.536
17292DT     SC212309  65.826  22.209  71.639
17292DT     SC312310  65.527  22.266  71.748
17293DA     BB112311  65.895  21.912  70.980
17293DA     BB212312  66.135  21.882  71.255
17293DA     BB312313  66.095  21.707  71.371
17293DA     SC112314  65.904  21.852  71.569
17293DA     SC212315  65.905  21.921  71.809
17293DA     SC312316  65.650  21.933  71.785
17293DA     SC412317  65.747  21.852  71.535
17294DA     BB112318  66.413  21.662  71.304
17294DA     BB212319  66.469  21.659  71.666
17294DA     BB312320  66.397  21.477  71.750
17294DA     SC112321  66.112  21.586  71.807
17294DA     SC212322  65.973  21.647  72.006
17294DA     SC312323  65.772  21.622  71.848
17294DA     SC412324  66.000  21.564  71.694
17295DA     BB112325  66.703  21.449  71.875
17295DA     BB212326  66.552  21.448  72.209
17295DA     BB312327  66.467  21.257  72.251
17295DA     SC112328  66.187  21.329  72.138
17295DA     SC212329  65.957  21.370  72.226
17295DA     SC312330  65.879  21.322  71.986
17295DA     SC412331  66.158  21.295  71.983
17296DG     BB112332  66.666  21.214  72.499
17296DG     BB212333  66.363  21.221  72.695
17296DG     BB312334  66.285  21.038  72.707
17296DG     SC112335  66.114  21.067  72.454
17296DG     SC212336  65.816  21.074  72.445
17296DG     SC312337  65.930  21.057  72.172
17296DG     SC412338  66.178  21.028  72.313
17297DA     BB112339  66.275  21.040  73.061
17297DA     BB212340  65.910  21.008  73.056
17297DA     BB312341  65.853  20.804  73.033
17297DA     SC112342  65.844  20.816  72.722
17297DA     SC212343  65.671  20.809  72.543
17297DA     SC312344  65.865  20.745  72.387
17297DA     SC412345  65.977  20.776  72.642
17298DA     BB112346  65.682  20.856  73.308
17298DA     BB212347  65.380  20.794  73.109
17298DA     BB312348  65.349  20.584  73.083
17298DA     SC112349  65.512  20.569  72.818
17298DA     SC212350  65.467  20.532  72.576
17298DA     SC312351  65.716  20.471  72.560
17298DA     SC412352  65.669  20.533  72.829
17299DA     BB112353  65.067  20.685  73.201
17299DA     BB212354  64.920  20.574  72.884
17299DA     BB312355  64.908  20.361  72.879
17299DA     SC112356  65.188  20.323  72.749
17299DA     SC212357  65.282  20.250  72.530
17299DA     SC312358  65.499  20.207  72.659
17299DA     SC412359  65.313  20.301  72.848
17300DT     BB112360  64.739  20.328  72.867
17300DT     BB212361  64.738  20.227  72.520
17300DT     BB312362  64.753  20.021  72.507
17300DT     SC112363  65.008  20.027  72.569
17300DT     SC212364  65.124  19.973  72.397
17300DT     SC312365  65.232  19.986  72.702
17301DA     BB112366  64.461  20.205  72.262
17301DA     BB212367  64.650  19.961  72.063
17301DA     BB312368  64.611  19.763  72.131
17301DA     SC112369  64.847  19.761  72.335
17301DA     SC212370  65.068  19.649  72.360
17301DA     SC312371  65.048  19.710  72.608
17301DA     SC412372  64.815  19.807  72.485
17302DC     BB112373  64.534  19.683  72.000
17302DC     BB212374  64.802  19.456  71.915
17302DC     BB312375  64.776  19.276  72.015
17302DC     SC112376  64.854  19.382  72.242
17302DC     SC212377  65.045  19.301  72.297
17302DC     SC312378  64.846  19.467  72.492
17303DC     BB112379  64.712  19.171  71.779
17303DC     BB212380  64.974  18.957  71.905
17303DC     BB312381  64.894  18.816  72.033
17303DC     SC112382  64.863  18.994  72.223
17303DC     SC212383  65.001  18.953  72.383
17303DC     SC312384  64.745  19.151  72.399
17304DA     BB112385  65.106  18.579  71.756
17304DA     BB212386  65.187  18.451  72.090
17304DA     BB312387  65.023  18.338  72.168
17304DA     SC112388  64.890  18.582  72.307
17304DA     SC212389  64.850  18.663  72.540
17304DA     SC312390  64.666  18.808  72.436
17304DA     SC412391  64.779  18.664  72.224
17305DA     BB112392  65.217  18.061  72.214
17305DA     BB212393  65.142  18.076  72.572
17305DA     BB312394  64.953  17.986  72.612
17305DA     SC112395  64.793  18.250  72.580
17305DA     SC212396  64.666  18.409  72.726
17305DA     SC312397  64.553  18.486  72.509
17305DA     SC412398  64.733  18.284  72.434
17306DT     BB112399  64.887  17.765  72.731
17306DT     BB212400  64.764  17.919  73.033
17306DT     BB312401  64.560  17.886  73.052
17306DT     SC112402  64.506  18.063  72.865
17306DT     SC212403  64.412  18.234  72.955
17306DT     SC312404  64.420  18.165  72.638
17307DA     BB112405  64.666  17.705  73.424
17307DA     BB212406  64.400  17.945  73.500
17307DA     BB312407  64.209  17.859  73.461
17307DA     SC112408  64.197  17.958  73.166
17307DA     SC212409  64.069  18.124  73.032
17307DA     SC312410  64.142  17.987  72.828
17307DA     SC412411  64.252  17.858  73.052
17308DT     BB112412  64.021  17.792  73.621
17308DT     BB212413  63.823  18.085  73.549
17308DT     BB312414  63.643  18.029  73.462
17308DT     SC112415  63.761  17.977  73.234
17308DT     SC212416  63.702  18.123  73.088
17308DT     SC312417  63.849  17.841  73.026
17309DT     BB112418  63.483  18.086  73.690
17309DT     BB212419  63.360  18.307  73.433
17309DT     BB312420  63.201  18.219  73.334
17309DT     SC112421  63.361  18.056  73.205
17309DT     SC212422  63.364  18.110  72.997
17309DT     SC312423  63.473  17.832  73.123
17310DA     BB112424  63.151  18.611  73.461
17310DA     BB212425  63.080  18.591  73.102
17310DA     BB312426  62.898  18.486  73.068
17310DA     SC112427  63.033  18.207  73.045
17310DA     SC212428  63.079  18.038  72.867
17310DA     SC312429  63.107  17.872  73.061
17310DA     SC412430  63.046  18.119  73.179
17311DA     BB112431  62.996  18.766  72.919
17311DA     BB212432  62.948  18.568  72.615
17311DA     BB312433  62.748  18.496  72.604
17311DA     SC112434  62.809  18.230  72.753
17311DA     SC212435  62.822  17.987  72.699
17311DA     SC312436  62.793  17.950  72.951
17311DA     SC412437  62.789  18.228  72.912
17312DT     BB112438  62.798  18.566  72.479
17312DT     BB212439  62.759  18.276  72.267
17312DT     BB312440  62.563  18.212  72.271
17312DT     SC112441  62.592  18.110  72.511
17312DT     SC212442  62.584  17.895  72.498
17312DT     SC312443  62.559  18.071  72.770
17313DT     BB112444  62.628  18.289  72.037
17313DT     BB212445  62.488  17.958  72.006
17313DT     BB312446  62.285  17.963  72.045
17313DT     SC112447  62.327  17.988  72.302
17313DT     SC212448  62.267  17.808  72.403
17313DT     SC312449  62.327  18.093  72.544
17314DC     BB112450  62.250  17.925  71.783
17314DC     BB212451  62.044  17.673  71.939
17314DC     BB312452  61.862  17.754  71.993
17314DC     SC112453  61.969  17.880  72.196
17314DC     SC212454  61.901  17.791  72.380
17314DC     SC312455  62.050  18.078  72.351
17315DG     BB112456  61.730  17.467  71.727
17315DG     BB212457  61.538  17.449  72.033
17315DG     BB312458  61.393  17.585  72.030
17315DG     SC112459  61.562  17.806  72.157
17315DG     SC212460  61.519  17.926  72.427
17315DG     SC312461  61.725  18.076  72.276
17315DG     SC412462  61.650  17.901  72.063
17316DA     BB112463  61.111  17.364  72.087
17316DA     BB212464  61.024  17.537  72.398
17316DA     BB312465  60.901  17.706  72.356
17316DA     SC112466  61.141  17.903  72.329
17316DA     SC212467  61.237  18.095  72.455
17316DA     SC312468  61.352  18.157  72.234
17316DA     SC412469  61.202  17.926  72.182
17317DC     BB112470  60.670  17.739  72.410
17317DC     BB212471  60.727  17.965  72.684
17317DC     BB312472  60.655  18.154  72.637
17317DC     SC112473  60.857  18.199  72.476
17317DC     SC212474  60.984  18.350  72.561
17317DC     SC312475  60.992  18.247  72.254
17318DC     BB112476  60.437  18.133  72.809
17318DC     BB212477  60.613  18.426  72.925
17318DC     BB312478  60.541  18.594  72.828
17318DC     SC112479  60.665  18.530  72.606
17318DC     SC212480  60.826  18.669  72.572
17318DC     SC312481  60.704  18.461  72.355
17319DT     BB112482  60.432  18.664  73.062
17319DT     BB212483  60.649  18.939  72.975
17319DT     BB312484  60.549  19.072  72.851
17319DT     SC112485  60.570  18.908  72.647
17319DT     SC212486  60.706  18.992  72.502
17319DT     SC312487  60.500  18.747  72.450
17320DC     BB112488  60.561  19.229  73.061
17320DC     BB212489  60.719  19.415  72.795
17320DC     BB312490  60.575  19.508  72.679
17320DC     SC112491  60.510  19.281  72.565
17320DC     SC212492  60.572  19.283  72.359
17320DC     SC312493  60.365  19.072  72.492
17321DT     BB112494  60.663  19.733  72.787
17321DT     BB212495  60.685  19.789  72.431
17321DT     BB312496  60.501  19.849  72.358
17321DT     SC112497  60.405  19.605  72.377
17321DT     SC212498  60.375  19.525  72.180
17321DT     SC312499  60.255  19.403  72.455
17322DA     BB112500  60.778  20.135  72.221
17322DA     BB212501  60.562  20.045  71.939
17322DA     BB312502  60.367  20.128  71.965
17322DA     SC112503  60.255  19.880  72.114
17322DA     SC212504  60.091  19.697  72.071
17322DA     SC312505  60.085  19.670  72.326
17322DA     SC412506  60.263  19.880  72.275
17323DA     BB112507  60.397  20.279  71.665
17323DA     BB212508  60.101  20.092  71.554
17323DA     BB312509  59.923  20.185  71.627
17323DA     SC112510  59.915  20.018  71.889
17323DA     SC212511  59.775  19.837  71.989
17323DA     SC312512  59.874  19.912  72.213
17323DA     SC412513  59.987  20.080  72.019
17324DT     BB112514  59.753  20.303  71.505
17324DT     BB212515  59.502  20.045  71.524
17324DT     BB312516  59.345  20.109  71.644
17324DT     SC112517  59.487  20.074  71.862
17324DT     SC212518  59.408  19.907  71.973
17324DT     SC312519  59.617  20.128  72.085
17325DT     BB112520  59.147  20.168  71.439
17325DT     BB212521  58.978  19.930  71.651
17325DT     BB312522  58.865  20.030  71.793
17325DT     SC112523  59.080  20.094  71.930
17325DT     SC212524  59.082  19.984  72.115
17325DT     SC312525  59.267  20.241  72.044
17326DT     BB112526  58.611  19.977  71.676
17326DT     BB212527  58.585  19.838  72.008
17326DT     BB312528  58.506  19.979  72.138
17326DT     SC112529  58.733  20.111  72.143
17326DT     SC212530  58.823  20.090  72.338
17326DT     SC312531  58.907  20.306  72.112
17327DG     BB112532  58.255  19.659  72.151
17327DG     BB212533  58.371  19.748  72.481
17327DG     BB312534  58.268  19.904  72.550
17327DG     SC112535  58.457  20.114  72.434
17327DG     SC212536  58.630  20.300  72.591
17327DG     SC312537  58.633  20.371  72.304
17327DG     SC412538  58.433  20.167  72.285
17328DA     BB112539  58.226  19.701  72.824
17328DA     BB212540  58.391  19.953  73.033
17328DA     BB312541  58.260  20.117  73.069
17328DA     SC112542  58.354  20.279  72.820
17328DA     SC212543  58.484  20.487  72.773
17328DA     SC312544  58.371  20.481  72.543
17328DA     SC412545  58.273  20.259  72.683
17329DT     BB112546  58.216  20.133  73.249
17329DT     BB212547  58.417  20.425  73.319
17329DT     BB312548  58.299  20.594  73.319
17329DT     SC112549  58.282  20.592  73.057
17329DT     SC212550  58.392  20.758  72.976
17329DT     SC312551  58.178  20.576  72.815
17330DA     BB112552  58.529  20.586  73.669
17330DA     BB212553  58.558  20.920  73.522
17330DA     BB312554  58.375  21.027  73.545
17330DA     SC112555  58.255  20.932  73.275
17330DA     SC212556  58.199  21.030  73.052
17330DA     SC312557  58.046  20.827  73.024
17330DA     SC412558  58.164  20.799  73.276
17331DT     BB112559  58.377  21.187  73.664
17331DT     BB212560  58.355  21.438  73.406
17331DT     BB312561  58.163  21.514  73.398
17331DT     SC112562  58.073  21.297  73.281
17331DT     SC212563  58.020  21.342  73.078
17331DT     SC312564  57.935  21.076  73.242
17332DC     BB112565  58.251  21.747  73.507
17332DC     BB212566  58.093  21.846  73.198
17332DC     BB312567  57.890  21.874  73.228
17332DC     SC112568  57.848  21.615  73.238
17332DC     SC212569  57.739  21.553  73.064
17332DC     SC312570  57.782  21.378  73.333
17333DT     BB112571  57.920  22.144  73.208
17333DT     BB212572  57.674  22.062  72.957
17333DT     BB312573  57.485  22.061  73.041
17333DT     SC112574  57.531  21.832  73.160
17333DT     SC212575  57.410  21.679  73.068
17333DT     SC312576  57.565  21.655  73.352
17334DA     BB112577  57.461  22.314  72.706
17334DA     BB212578  57.179  22.080  72.690
17334DA     BB312579  57.031  22.133  72.834
17334DA     SC112580  57.150  21.953  73.058
17334DA     SC212581  57.089  21.744  73.179
17334DA     SC312582  57.254  21.824  73.359
17334DA     SC412583  57.256  22.021  73.159
17335DA     BB112584  56.830  22.132  72.572
17335DA     BB212585  56.641  21.866  72.738
17335DA     BB312586  56.519  21.947  72.893
17335DA     SC112587  56.736  21.914  73.114
17335DA     SC212588  56.773  21.773  73.316
17335DA     SC312589  56.940  21.956  73.387
17335DA     SC412590  56.834  22.039  73.141
17336DC     BB112591  56.309  21.945  72.879
17336DC     BB212592  56.253  21.682  73.120
17336DC     BB312593  56.176  21.762  73.294
17336DC     SC112594  56.410  21.859  73.362
17336DC     SC212595  56.486  21.751  73.532
17336DC     SC312596  56.599  22.034  73.422
17337DA     BB112597  55.906  21.458  73.188
17337DA     BB212598  55.992  21.411  73.541
17337DA     BB312599  55.892  21.555  73.662
17337DA     SC112600  56.123  21.763  73.646
17337DA     SC212601  56.294  21.861  73.799
17337DA     SC312602  56.309  22.052  73.629
17337DA     SC412603  56.116  21.873  73.529
17338DT     BB112604  55.740  21.500  73.801
17338DT     BB212605  55.940  21.540  74.098
17338DT     BB312606  55.880  21.709  74.202
17338DT     SC112607  55.995  21.867  74.028
17338DT     SC212608  56.165  21.962  74.119
17338DT     SC312609  56.025  22.051  73.841
17339DT     BB112610  55.760  21.559  74.401
17339DT     BB212611  56.001  21.763  74.575
17339DT     BB312612  55.915  21.944  74.629
17339DT     SC112613  55.925  22.032  74.382
17339DT     SC212614  56.071  22.190  74.369
17339DT     SC312615  55.846  22.120  74.147
17340DC     BB112616  55.912  21.866  74.891
17340DC     BB212617  56.106  22.170  74.887
17340DC     BB312618  55.981  22.334  74.907
17340DC     SC112619  55.898  22.311  74.659
17340DC     SC212620  55.974  22.475  74.543
17340DC     SC312621  55.737  22.272  74.454
17341DT     BB112622  56.080  22.368  75.155
17341DT     BB212623  56.150  22.678  74.984
17341DT     BB312624  55.987  22.805  74.997
17341DT     SC112625  55.854  22.664  74.819
17341DT     SC212626  55.835  22.778  74.638
17341DT     SC312627  55.667  22.512  74.713
17342DA     BB112628  56.343  23.000  75.105
17342DA     BB212629  56.164  23.209  74.863
17342DA     BB312630  55.989  23.292  74.951
17342DA     SC112631  55.805  23.056  74.865
17342DA     SC212632  55.618  23.016  74.705
17342DA     SC312633  55.563  22.813  74.851
17342DA     SC412634  55.786  22.935  74.969
17343DT     BB112635  55.997  23.477  74.963
17343DT     BB212636  55.762  23.550  74.699
17343DT     BB312637  55.577  23.594  74.780
17343DT     SC112638  55.532  23.342  74.835
17343DT     SC212639  55.376  23.267  74.707
17343DT     SC312640  55.487  23.122  74.975
17344DC     BB112641  55.623  23.844  74.703
17344DC     BB212642  55.313  23.752  74.543
17344DC     BB312643  55.155  23.779  74.673
17344DC     SC112644  55.220  23.565  74.810
17344DC     SC212645  55.072  23.412  74.778
17344DC     SC312646  55.298  23.412  75.010
17345DT     BB112647  55.083  23.985  74.521
17345DT     BB212648  54.795  23.768  74.526
17345DT     BB312649  54.682  23.805  74.695
17345DT     SC112650  54.856  23.681  74.848
17345DT     SC212651  54.770  23.497  74.919
17345DT     SC312652  55.036  23.640  75.035
17346DT     BB112653  54.500  23.914  74.533
17346DT     BB212654  54.323  23.653  74.709
17346DT     BB312655  54.257  23.724  74.892
17346DT     SC112656  54.499  23.714  74.992
17346DT     SC212657  54.508  23.557  75.139
17346DT     SC312658  54.727  23.792  75.098
17347DA     BB112659  53.942  23.538  74.686
17347DA     BB212660  53.948  23.409  75.029
17347DA     BB312661  53.884  23.561  75.166
17347DA     SC112662  54.171  23.671  75.215
17347DA     SC212663  54.338  23.676  75.401
17347DA     SC312664  54.443  23.872  75.273
17347DA     SC412665  54.221  23.792  75.122
17348DG     BB112666  53.675  23.342  75.224
17348DG     BB212667  53.828  23.349  75.552
17348DG     BB312668  53.762  23.507  75.654
17348DG     SC112669  53.982  23.695  75.555
17348DG     SC212670  54.199  23.815  75.721
17348DG     SC312671  54.197  23.933  75.450
17348DG     SC412672  53.959  23.776  75.419
17349DT     BB112673  53.652  23.475  75.835
17349DT     BB212674  53.888  23.578  76.088
17349DT     BB312675  53.843  23.769  76.153
17349DT     SC112676  53.939  23.875  75.933
17349DT     SC212677  54.120  23.982  75.978
17349DT     SC312678  53.948  24.006  75.704
17350DA     BB112679  53.866  23.537  76.504
17350DA     BB212680  54.059  23.844  76.561
17350DA     BB312681  53.928  24.010  76.588
17350DA     SC112682  53.922  24.085  76.286
17350DA     SC212683  54.007  24.268  76.139
17350DA     SC312684  53.829  24.188  75.972
17350DA     SC412685  53.805  24.021  76.196
17351DA     BB112686  54.076  24.073  76.884
17351DA     BB212687  54.174  24.401  76.753
17351DA     BB312688  54.009  24.537  76.763
17351DA     SC112689  53.904  24.469  76.479
17351DA     SC212690  53.888  24.580  76.256
17351DA     SC312691  53.706  24.406  76.205
17351DA     SC412692  53.793  24.353  76.467
17352DA     BB112693  54.193  24.753  76.947
17352DA     BB212694  54.158  24.996  76.674
17352DA     BB312695  53.971  25.097  76.688
17352DA     SC112696  53.820  24.893  76.509
17352DA     SC212697  53.717  24.887  76.282
17352DA     SC312698  53.585  24.685  76.369
17352DA     SC412699  53.746  24.770  76.582
17353DT     BB112700  53.941  25.318  76.738
17353DT     BB212701  53.865  25.422  76.401
17353DT     BB312702  53.666  25.479  76.388
17353DT     SC112703  53.586  25.229  76.396
17353DT     SC212704  53.507  25.173  76.204
17353DT     SC312705  53.469  25.008  76.480
17354DT     BB112706  53.730  25.746  76.369
17354DT     BB212707  53.542  25.677  76.069
17354DT     BB312708  53.340  25.706  76.103
17354DT     SC112709  53.323  25.483  76.240
17354DT     SC212710  53.208  25.339  76.129
17354DT     SC312711  53.286  25.318  76.443
17355DA     BB112712  53.453  25.916  75.759
17355DA     BB212713  53.155  25.717  75.679
17355DA     BB312714  52.983  25.802  75.772
17355DA     SC112715  53.011  25.633  76.032
17355DA     SC212716  52.891  25.446  76.145
17355DA     SC312717  53.011  25.524  76.358
17355DA     SC412718  53.094  25.698  76.154
17356DG     BB112719  52.894  25.817  75.477
17356DG     BB212720  52.641  25.585  75.591
17356DG     BB312721  52.495  25.684  75.684
17356DG     SC112722  52.625  25.666  75.960
17356DG     SC212723  52.521  25.511  76.193
17356DG     SC312724  52.749  25.681  76.273
17356DG     SC412725  52.728  25.780  76.005
17357DA     BB112726  52.282  25.512  75.470
17357DA     BB212727  52.109  25.369  75.760
17357DA     BB312728  51.985  25.516  75.852
17357DA     SC112729  52.205  25.614  76.048
17357DA     SC212730  52.252  25.605  76.293
17357DA     SC312731  52.409  25.803  76.250
17357DA     SC412732  52.297  25.737  76.001
17358DA     BB112733  51.748  25.288  75.809
17358DA     BB212734  51.707  25.287  76.174
17358DA     BB312735  51.600  25.460  76.237
17358DA     SC112736  51.856  25.633  76.278
17358DA     SC212737  51.984  25.731  76.469
17358DA     SC312738  52.084  25.889  76.293
17358DA     SC412739  51.906  25.723  76.154
17359DG     BB112740  51.370  25.274  76.351
17359DG     BB212741  51.474  25.411  76.670
17359DG     BB312742  51.379  25.582  76.704
17359DG     SC112743  51.591  25.756  76.568
17359DG     SC212744  51.769  25.953  76.704
17359DG     SC312745  51.794  25.974  76.410
17359DG     SC412746  51.580  25.784  76.411
17360DA     BB112747  51.265  25.466  77.015
17360DA     BB212748  51.449  25.734  77.186
17360DA     BB312749  51.338  25.916  77.179
17360DA     SC112750  51.468  26.013  76.913
17360DA     SC212751  51.626  26.191  76.839
17360DA     SC312752  51.527  26.153  76.606
17360DA     SC412753  51.393  25.975  76.776
17361DA     BB112754  51.376  25.904  77.504
17361DA     BB212755  51.572  26.213  77.473
17361DA     BB312756  51.442  26.380  77.450
17361DA     SC112757  51.437  26.367  77.140
17361DA     SC212758  51.524  26.500  76.948
17361DA     SC312759  51.346  26.378  76.809
17361DA     SC412760  51.320  26.281  77.071
17362DT     BB112761  51.449  26.507  77.596
17362DT     BB212762  51.643  26.756  77.421
17362DT     BB312763  51.520  26.912  77.362
17362DT     SC112764  51.416  26.768  77.169
17362DT     SC212765  51.482  26.845  76.979
17362DT     SC312766  51.238  26.636  77.026
17363DT     BB112767  51.656  27.045  77.543
17363DT     BB212768  51.711  27.220  77.233
17363DT     BB312769  51.552  27.347  77.194
17363DT     SC112770  51.399  27.145  77.125
17363DT     SC212771  51.361  27.153  76.913
17363DT     SC312772  51.200  26.972  77.128
17364DG     BB112773  51.914  27.532  77.189
17364DG     BB212774  51.724  27.596  76.888
17364DG     BB312775  51.575  27.722  76.928
17364DG     SC112776  51.375  27.502  76.999
17364DG     SC212777  51.129  27.431  76.844
17364DG     SC312778  51.136  27.288  77.103
17364DG     SC412779  51.367  27.450  77.150
17365DA     BB112780  51.714  27.865  76.647
17365DA     BB212781  51.387  27.846  76.483
17365DA     BB312782  51.251  27.983  76.574
17365DA     SC112783  51.145  27.777  76.782
17365DA     SC212784  50.934  27.651  76.826
17365DA     SC312785  51.024  27.624  77.065
17365DA     SC412786  51.217  27.772  76.925
17366DT     BB112787  51.201  28.112  76.456
17366DT     BB212788  50.861  28.005  76.404
17366DT     BB312789  50.733  28.115  76.525
17366DT     SC112790  50.808  27.982  76.738
17366DT     SC212791  50.646  27.857  76.806
17366DT     SC312792  50.912  27.931  76.975
17367DA     BB112793  50.583  28.129  76.133
17367DA     BB212794  50.303  28.056  76.358
17367DA     BB312795  50.253  28.229  76.473
17367DA     SC112796  50.445  28.159  76.707
17367DA     SC212797  50.427  28.085  76.945
17367DA     SC312798  50.667  28.171  76.969
17367DA     SC412799  50.594  28.219  76.702
17368DA     BB112800  49.945  28.183  76.355
17368DA     BB212801  49.832  28.152  76.702
17368DA     BB312802  49.822  28.345  76.794
17368DA     SC112803  50.114  28.335  76.902
17368DA     SC212804  50.229  28.316  77.122
17368DA     SC312805  50.433  28.414  77.001
17368DA     SC412806  50.229  28.398  76.809
17369DT     BB112807  49.634  28.448  76.855
17369DT     BB212808  49.671  28.406  77.211
17369DT     BB312809  49.716  28.587  77.299
17369DT     SC112810  49.963  28.578  77.210
17369DT     SC212811  50.098  28.548  77.375
17369DT     SC312812  50.181  28.644  77.077
17370DG     BB112813  49.359  28.508  77.491
17370DG     BB212814  49.616  28.585  77.733
17370DG     BB312815  49.633  28.782  77.753
17370DG     SC112816  49.843  28.811  77.533
17370DG     SC212817  50.128  28.892  77.571
17370DG     SC312818  50.059  28.883  77.284
17370DG     SC412819  49.794  28.834  77.382
17371DT     BB112820  49.583  28.936  77.957
17371DT     BB212821  49.920  29.001  78.067
17371DT     BB312822  49.968  29.200  78.034
17371DT     SC112823  49.994  29.159  77.776
17371DT     SC212824  50.202  29.176  77.722
17371DT     SC312825  49.950  29.176  77.517
17372DA     BB112826  50.050  29.141  78.441
17372DA     BB212827  50.348  29.291  78.289
17372DA     BB312828  50.318  29.500  78.256
17372DA     SC112829  50.205  29.462  77.968
17372DA     SC212830  50.276  29.510  77.734
17372DA     SC312831  50.027  29.491  77.676
17372DA     SC412832  50.045  29.448  77.952
17373DT     BB112833  50.432  29.629  78.360
17373DT     BB212834  50.652  29.715  78.087
17373DT     BB312835  50.607  29.905  78.018
17373DT     SC112836  50.390  29.819  77.898
17373DT     SC212837  50.419  29.827  77.685
17373DT     SC312838  50.135  29.789  77.838
17374DT     BB112839  50.840  29.967  78.123
17374DT     BB212840  50.867  30.052  77.774
17374DT     BB312841  50.784  30.238  77.739
17374DT     SC112842  50.541  30.142  77.761
17374DT     SC212843  50.445  30.145  77.569
17374DT     SC312844  50.297  30.102  77.854
17375DT     BB112845  51.033  30.294  77.695
17375DT     BB212846  50.859  30.382  77.392
17375DT     BB312847  50.765  30.565  77.415
17375DT     SC112848  50.578  30.459  77.566
17375DT     SC212849  50.391  30.460  77.460
17375DT     SC312850  50.428  30.410  77.778
17376DA     BB112851  50.985  30.550  77.057
17376DA     BB212852  50.655  30.692  76.984
17376DA     BB312853  50.637  30.886  77.072
17376DA     SC112854  50.520  30.781  77.340
17376DA     SC212855  50.302  30.786  77.461
17376DA     SC312856  50.440  30.733  77.671
17376DA     SC412857  50.623  30.749  77.459
17377DT     BB112858  50.623  31.037  76.949
17377DT     BB212859  50.277  31.121  77.008
17377DT     BB312860  50.265  31.284  77.135
17377DT     SC112861  50.330  31.137  77.343
17377DT     SC212862  50.159  31.117  77.472
17377DT     SC312863  50.466  31.047  77.550
17378DT     BB112864  50.196  31.476  76.937
17378DT     BB212865  49.938  31.518  77.184
17378DT     BB312866  49.995  31.661  77.323
17378DT     SC112867  50.163  31.494  77.437
17378DT     SC212868  50.090  31.441  77.632
17378DT     SC312869  50.390  31.389  77.521
17379DT     BB112870  49.841  31.907  77.241
17379DT     BB212871  49.751  31.871  77.589
17379DT     BB312872  49.873  31.991  77.706
17379DT     SC112873  50.076  31.827  77.676
17379DT     SC212874  50.117  31.730  77.864
17379DT     SC312875  50.314  31.737  77.606
17380DA     BB112876  49.509  32.175  77.838
17380DA     BB212877  49.690  32.078  78.141
17380DA     BB312878  49.834  32.227  78.192
17380DA     SC112879  50.064  32.097  78.028
17380DA     SC212880  50.279  31.979  78.072
17380DA     SC312881  50.339  32.041  77.831
17380DA     SC412882  50.084  32.147  77.876
17381DT     BB112883  49.841  32.382  78.391
17381DT     BB212884  50.082  32.179  78.566
17381DT     BB312885  50.258  32.285  78.593
17381DT     SC112886  50.324  32.256  78.341
17381DT     SC212887  50.493  32.123  78.326
17381DT     SC312888  50.381  32.316  78.091
17382DT     BB112889  50.202  32.296  78.857
17382DT     BB212890  50.507  32.105  78.831
17382DT     BB312891  50.670  32.233  78.831
17382DT     SC112892  50.622  32.308  78.584
17382DT     SC212893  50.776  32.231  78.455
17382DT     SC312894  50.562  32.462  78.379
17383DA     BB112895  50.690  31.898  79.085
17383DA     BB212896  50.993  31.911  78.879
17383DA     BB312897  51.112  32.079  78.934
17383DA     SC112898  50.979  32.272  78.729
17383DA     SC212899  51.042  32.388  78.518
17383DA     SC312900  50.845  32.544  78.569
17383DA     SC412901  50.854  32.359  78.779
17384DA     BB112902  51.286  31.802  78.919
17384DA     BB212903  51.486  31.980  78.669
17384DA     BB312904  51.587  32.145  78.759
17384DA     SC112905  51.358  32.348  78.703
17384DA     SC212906  51.319  32.546  78.556
17384DA     SC312907  51.131  32.605  78.721
17384DA     SC412908  51.247  32.368  78.817
17385DG     BB112909  51.806  31.970  78.634
17385DG     BB212910  51.859  32.269  78.437
17385DG     BB312911  51.947  32.408  78.548
17385DG     SC112912  51.686  32.530  78.650
17385DG     SC212913  51.582  32.802  78.585
17385DG     SC312914  51.419  32.675  78.796
17385DG     SC412915  51.619  32.470  78.783
17386DT     BB112916  52.135  32.473  78.484
17386DT     BB212917  52.063  32.803  78.358
17386DT     BB312918  52.112  32.945  78.500
17386DT     SC112919  51.900  32.886  78.644
17386DT     SC212920  51.761  33.050  78.636
17386DT     SC312921  51.753  32.803  78.847
17387DT     BB112922  52.321  33.017  78.347
17387DT     BB212923  52.131  33.320  78.392
17387DT     BB312924  52.186  33.412  78.569
17387DT     SC112925  52.053  33.235  78.711
17387DT     SC212926  51.882  33.329  78.800
17387DT     SC312927  52.005  33.040  78.882
17388DA     BB112928  52.210  33.697  78.263
17388DA     BB212929  52.018  33.843  78.540
17388DA     BB312930  52.148  33.890  78.702
17388DA     SC112931  52.114  33.614  78.841
17388DA     SC212932  52.007  33.522  79.047
17388DA     SC312933  52.164  33.322  79.015
17388DA     SC412934  52.220  33.499  78.805
17389DT     BB112935  52.157  34.073  78.737
17389DT     BB212936  51.959  34.072  79.038
17389DT     BB312937  52.083  34.079  79.204
17389DT     SC112938  52.151  33.827  79.173
17389DT     SC212939  52.067  33.710  79.333
17389DT     SC312940  52.300  33.614  79.130
17390DG     BB112941  51.806  34.377  79.206
17390DG     BB212942  51.807  34.190  79.516
17390DG     BB312943  51.967  34.238  79.623
17390DG     SC112944  52.144  34.021  79.500
17390DG     SC212945  52.254  33.783  79.643
17390DG     SC312946  52.372  33.807  79.373
17390DG     SC412947  52.227  34.054  79.367
17391DT     BB112948  51.919  34.314  79.799
17391DT     BB212949  52.014  34.053  80.029
17391DT     BB312950  52.205  34.088  80.101
17391DT     SC112951  52.313  34.012  79.874
17391DT     SC212952  52.416  33.826  79.903
17391DT     SC312953  52.448  34.023  79.648
17392DG     BB112954  51.948  34.057  80.417
17392DG     BB212955  52.240  33.848  80.461
17392DG     BB312956  52.397  33.960  80.509
17392DG     SC112957  52.483  34.008  80.220
17392DG     SC212958  52.734  33.906  80.092
17392DG     SC312959  52.595  34.097  79.914
17392DG     SC412960  52.422  34.132  80.140
17393DA     BB112961  52.454  33.755  80.788
17393DA     BB212962  52.791  33.678  80.667
17393DA     BB312963  52.923  33.842  80.704
17393DA     SC112964  52.869  33.979  80.430
17393DA     SC212965  52.993  34.023  80.218
17393DA     SC312966  52.818  34.206  80.178
17393DA     SC412967  52.752  34.089  80.424
17394DA     BB112968  53.111  33.617  80.859
17394DA     BB212969  53.375  33.694  80.616
17394DA     BB312970  53.470  33.878  80.666
17394DA     SC112971  53.278  34.052  80.494
17394DA     SC212972  53.289  34.187  80.284
17394DA     SC312973  53.078  34.303  80.372
17394DA     SC412974  53.149  34.113  80.566
17395DT     BB112975  53.669  33.881  80.727
17395DT     BB212976  53.807  34.016  80.423
17395DT     BB312977  53.861  34.213  80.451
17395DT     SC112978  53.611  34.291  80.446
17395DT     SC212979  53.575  34.404  80.266
17395DT     SC312980  53.380  34.392  80.525
17396DA     BB112981  54.192  34.016  80.287
17396DA     BB212982  54.139  34.323  80.095
17396DA     BB312983  54.198  34.493  80.209
17396DA     SC112984  53.917  34.538  80.335
17396DA     SC212985  53.732  34.704  80.319
17396DA     SC312986  53.657  34.611  80.546
17396DA     SC412987  53.887  34.467  80.477
17397DA     BB112988  54.372  34.547  79.935
17397DA     BB212989  54.189  34.864  79.904
17397DA     BB312990  54.260  35.004  80.048
17397DA     SC112991  54.054  34.921  80.266
17397DA     SC212992  53.853  35.018  80.377
17397DA     SC312993  53.898  34.847  80.563
17397DA     SC412994  54.100  34.808  80.372
17398DT     BB112995  54.357  35.169  79.983
17398DT     BB212996  54.097  35.409  80.053
17398DT     BB312997  54.143  35.516  80.224
17398DT     SC112998  54.082  35.312  80.377
17398DT     SC212999  53.903  35.357  80.487
17398DT     SC313000  54.109  35.115  80.550
17399DA     BB113001  54.084  35.828  79.945
17399DA     BB213002  53.896  35.918  80.247
17399DA     BB313003  54.028  35.989  80.399
17399DA     SC113004  54.073  35.708  80.525
17399DA     SC213005  54.013  35.588  80.735
17399DA     SC313006  54.207  35.431  80.677
17399DA     SC413007  54.199  35.622  80.472
17400DT     BB113008  54.061  36.218  80.494
17400DT     BB213009  53.896  36.152  80.808
17400DT     BB313010  54.033  36.160  80.963
17400DT     SC113011  54.135  35.928  80.896
17400DT     SC213012  54.085  35.782  81.046
17400DT     SC313013  54.309  35.747  80.814
17401DT     BB113014  53.988  36.433  81.099
17401DT     BB213015  53.946  36.200  81.371
17401DT     BB313016  54.122  36.187  81.480
17401DT     SC113017  54.238  36.044  81.293
17401DT     SC213018  54.266  35.843  81.363
17401DT     SC313019  54.407  35.975  81.103
17402DA     BB113020  53.847  36.289  81.783
17402DA     BB213021  54.020  35.985  81.892
17402DA     BB313022  54.212  36.033  81.972
17402DA     SC113023  54.359  36.004  81.700
17402DA     SC213024  54.523  35.849  81.594
17402DA     SC313025  54.571  36.042  81.433
17402DA     SC413026  54.376  36.137  81.610
17403DT     BB113027  54.255  36.000  82.179
17403DT     BB213028  54.445  35.698  82.125
17403DT     BB313029  54.646  35.733  82.161
17403DT     SC113030  54.672  35.864  81.935
17403DT     SC213031  54.792  35.749  81.799
17403DT     SC313032  54.716  36.062  81.766
17404DA     BB113033  54.512  35.395  82.367
17404DA     BB213034  54.812  35.304  82.177
17404DA     BB313035  54.985  35.391  82.265
17404DA     SC113036  54.971  35.651  82.095
17404DA     SC213037  55.100  35.759  81.911
17404DA     SC313038  54.985  35.976  81.985
17404DA     SC413039  54.890  35.776  82.157
17405DT     BB113040  55.099  35.261  82.328
17405DT     BB213041  55.345  35.293  82.065
17405DT     BB313042  55.505  35.406  82.132
17405DT     SC113043  55.366  35.628  82.114
17405DT     SC213044  55.443  35.747  81.952
17405DT     SC313045  55.241  35.849  82.185
17406DT     BB113046  55.633  35.176  82.119
17406DT     BB213047  55.813  35.400  81.900
17406DT     BB313048  55.942  35.518  82.011
17406DT     SC113049  55.744  35.665  82.101
17406DT     SC213050  55.757  35.861  82.014
17406DT     SC313051  55.574  35.777  82.268
17407DC     BB113052  56.125  35.374  81.890
17407DC     BB213053  56.199  35.717  81.804
17407DC     BB313054  56.304  35.807  81.958
17407DC     SC113055  56.087  35.825  82.106
17407DC     SC213056  56.030  36.032  82.123
17407DC     SC313057  55.919  35.788  82.306
17408DA     BB113058  56.479  35.871  81.581
17408DA     BB213059  56.457  36.191  81.757
17408DA     BB313060  56.591  36.194  81.923
17408DA     SC113061  56.383  36.083  82.125
17408DA     SC213062  56.253  36.166  82.322
17408DA     SC313063  56.226  35.918  82.382
17408DA     SC413064  56.377  35.924  82.147
17409DG     BB113065  56.677  36.434  81.752
17409DG     BB213066  56.581  36.616  82.050
17409DG     BB313067  56.720  36.594  82.190
17409DG     SC113068  56.593  36.343  82.311
17409DG     SC213069  56.470  36.322  82.583
17409DG     SC313070  56.492  36.056  82.457
17409DG     SC413071  56.633  36.200  82.253
17410DA     BB113072  56.679  36.937  82.196
17410DA     BB213073  56.605  36.916  82.555
17410DA     BB313074  56.781  36.862  82.664
17410DA     SC113075  56.727  36.556  82.647
17410DA     SC213076  56.662  36.372  82.802
17410DA     SC313077  56.757  36.215  82.622
17410DA     SC413078  56.792  36.476  82.524
17411DT     BB113079  56.838  36.997  82.777
17411DT     BB213080  56.757  36.840  83.091
17411DT     BB313081  56.926  36.751  83.171
17411DT     SC113082  56.912  36.554  82.999
17411DT     SC213083  56.858  36.373  83.101
17411DT     SC313084  56.978  36.392  82.801
17412DA     BB113085  56.776  36.996  83.479
17412DA     BB213086  56.858  36.671  83.627
17412DA     BB313087  57.070  36.647  83.641
17412DA     SC113088  57.098  36.514  83.361
17412DA     SC213089  57.153  36.289  83.268
17412DA     SC313090  57.208  36.414  83.051
17412DA     SC413091  57.129  36.610  83.236
17413DT     BB113092  57.188  36.644  83.831
17413DT     BB213093  57.266  36.291  83.831
17413DT     BB313094  57.467  36.263  83.790
17413DT     SC113095  57.431  36.319  83.536
17413DT     SC213096  57.458  36.141  83.419
17413DT     SC313097  57.450  36.444  83.304
17414DT     BB113098  57.551  36.199  84.055
17414DT     BB213099  57.667  35.918  83.861
17414DT     BB313100  57.861  35.951  83.797
17414DT     SC113101  57.781  36.123  83.616
17414DT     SC213102  57.809  36.039  83.420
17414DT     SC313103  57.750  36.351  83.486
17415DT     BB113104  57.979  35.770  83.977
17415DT     BB213105  58.091  35.655  83.654
17415DT     BB313106  58.270  35.746  83.604
17415DT     SC113107  58.150  35.973  83.551
17415DT     SC213108  58.157  36.010  83.339
17415DT     SC313109  58.080  36.227  83.568
17416DA     BB113110  58.342  35.335  83.561
17416DA     BB213111  58.460  35.500  83.256
17416DA     BB313112  58.645  35.601  83.293
17416DA     SC113113  58.510  35.870  83.371
17416DA     SC213114  58.487  36.100  83.277
17416DA     SC313115  58.431  36.171  83.517
17416DA     SC413116  58.479  35.894  83.527
17417DA     BB113117  58.751  35.421  83.037
17417DA     BB213118  58.818  35.738  82.863
17417DA     BB313119  58.997  35.826  82.938
17417DA     SC113120  58.853  35.992  83.158
17417DA     SC213121  58.801  36.231  83.206
17417DA     SC313122  58.770  36.155  83.449
17417DA     SC413123  58.839  35.925  83.304
17418DT     BB113124  59.171  35.845  82.816
17418DT     BB213125  59.147  36.200  82.759
17418DT     BB313126  59.292  36.299  82.868
17418DT     SC113127  59.160  36.263  83.092
17418DT     SC213128  59.084  36.452  83.161
17418DT     SC313129  59.102  36.179  83.335
17419DA     BB113130  59.361  36.438  82.477
17419DA     BB213131  59.346  36.733  82.695
17419DA     BB313132  59.528  36.753  82.804
17419DA     SC113133  59.430  36.584  83.046
17419DA     SC213134  59.368  36.622  83.285
17419DA     SC313135  59.409  36.371  83.314
17419DA     SC413136  59.463  36.427  83.045
17420DT     BB113137  59.683  36.921  82.777
17420DT     BB213138  59.594  37.101  83.076
17420DT     BB313139  59.747  37.088  83.215
17420DT     SC113140  59.685  36.840  83.272
17420DT     SC213141  59.603  36.830  83.470
17420DT     SC313142  59.705  36.578  83.295
17421DT     BB113143  59.841  37.355  83.184
17421DT     BB213144  59.755  37.332  83.534
17421DT     BB313145  59.921  37.276  83.644
17421DT     SC113146  59.904  37.028  83.559
17421DT     SC213147  59.846  36.901  83.722
17421DT     SC313148  59.968  36.803  83.438
17422DA     BB113149  59.758  37.619  83.819
17422DA     BB213150  59.798  37.366  84.081
17422DA     BB313151  60.003  37.345  84.134
17422DA     SC113152  60.060  37.121  83.926
17422DA     SC213153  60.111  36.877  83.927
17422DA     SC313154  60.203  36.916  83.690
17422DA     SC413155  60.113  37.166  83.781
17423DG     BB113156  59.886  37.428  84.406
17423DG     BB213157  59.988  37.093  84.495
17423DG     BB313158  60.182  37.089  84.536
17423DG     SC113159  60.267  37.030  84.248
17423DG     SC213160  60.394  36.778  84.151
17423DG     SC313161  60.396  36.985  83.940
17423DG     SC413162  60.293  37.152  84.148
17424DG     BB113163  60.088  36.972  84.823
17424DG     BB213164  60.271  36.674  84.730
17424DG     BB313165  60.465  36.700  84.765
17424DG     SC113166  60.525  36.814  84.487
17424DG     SC213167  60.691  36.684  84.276
17424DG     SC313168  60.622  36.962  84.200
17424DG     SC413169  60.510  36.972  84.464
17425DT     BB113170  60.551  36.569  84.901
17425DT     BB213171  60.741  36.352  84.684
17425DT     BB313172  60.940  36.408  84.685
17425DT     SC113173  60.890  36.618  84.535
17425DT     SC213174  60.975  36.588  84.340
17425DT     SC313175  60.868  36.870  84.459
17426DT     BB113176  60.978  36.183  84.816
17426DT     BB213177  61.186  36.158  84.523
17426DT     BB313178  61.366  36.256  84.556
17426DT     SC113179  61.251  36.491  84.531
17426DT     SC213180  61.318  36.584  84.349
17426DT     SC313181  61.163  36.732  84.592
17427DG     BB113182  61.421  35.869  84.442
17427DG     BB213183  61.610  36.100  84.237
17427DG     BB313184  61.767  36.168  84.338
17427DG     SC113185  61.618  36.407  84.457
17427DG     SC213186  61.671  36.695  84.396
17427DG     SC313187  61.480  36.668  84.621
17427DG     SC413188  61.540  36.389  84.595
17428DT     BB113189  61.933  36.124  84.246
17428DT     BB213190  62.042  36.444  84.121
17428DT     BB313191  62.175  36.530  84.255
17428DT     SC113192  61.981  36.591  84.421
17428DT     SC213193  61.954  36.805  84.424
17428DT     SC313194  61.833  36.595  84.639
17429DC     BB113195  62.337  36.481  84.059
17429DC     BB213196  62.370  36.834  84.125
17429DC     BB313197  62.490  36.864  84.291
17429DC     SC113198  62.299  36.788  84.454
17429DC     SC213199  62.229  36.958  84.566
17429DC     SC313200  62.168  36.647  84.634
17430DG     BB113201  62.633  37.073  83.970
17430DG     BB213202  62.617  37.279  84.267
17430DG     BB313203  62.761  37.227  84.394
17430DG     SC113204  62.594  37.016  84.539
17430DG     SC213205  62.501  37.031  84.822
17430DG     SC313206  62.446  36.764  84.707
17430DG     SC413207  62.593  36.866  84.483
17431DA     BB113208  62.868  37.565  84.415
17431DA     BB213209  62.835  37.560  84.780
17431DA     BB313210  62.996  37.451  84.868
17431DA     SC113211  62.847  37.178  84.863
17431DA     SC213212  62.747  37.019  85.027
17431DA     SC313213  62.766  36.845  84.839
17431DA     SC413214  62.869  37.084  84.734
17432DA     BB113215  63.099  37.712  85.067
17432DA     BB213216  63.043  37.503  85.363
17432DA     BB313217  63.210  37.374  85.396
17432DA     SC113218  63.095  37.142  85.224
17432DA     SC213219  63.004  36.913  85.261
17432DA     SC313220  63.056  36.874  85.013
17432DA     SC413221  63.136  37.137  85.069
17433DT     BB113222  63.398  37.368  85.576
17433DT     BB213223  63.272  37.081  85.754
17433DT     BB313224  63.404  36.923  85.738
17433DT     SC113225  63.333  36.879  85.489
17433DT     SC213226  63.225  36.693  85.478
17433DT     SC313227  63.347  36.856  85.227
17434DT     BB113228  63.545  36.917  86.006
17434DT     BB213229  63.412  36.583  85.978
17434DT     BB313230  63.558  36.455  85.907
17434DT     SC113231  63.536  36.551  85.664
17434DT     SC213232  63.447  36.403  85.536
17434DT     SC313233  63.599  36.671  85.438
17435DC     BB113234  63.622  36.314  86.154
17435DC     BB213235  63.520  36.051  85.929
17435DC     BB313236  63.686  35.968  85.837
17435DC     SC113237  63.712  36.177  85.680
17435DC     SC213238  63.664  36.121  85.478
17435DC     SC313239  63.817  36.392  85.569
17436DT     BB113240  63.666  35.735  85.984
17436DT     BB213241  63.639  35.628  85.641
17436DT     BB313242  63.826  35.587  85.564
17436DT     SC113243  63.883  35.843  85.546
17436DT     SC213244  63.891  35.899  85.338
17436DT     SC313245  64.002  36.074  85.587
17437DG     BB113246  63.591  35.258  85.527
17437DG     BB213247  63.735  35.357  85.210
17437DG     BB313248  63.925  35.299  85.200
17437DG     SC113249  64.036  35.557  85.323
17437DG     SC213250  64.204  35.759  85.182
17437DG     SC313251  64.190  35.817  85.472
17437DG     SC413252  64.050  35.567  85.482
17438DG     BB113253  63.821  35.150  84.934
17438DG     BB213254  64.055  35.363  84.758
17438DG     BB313255  64.239  35.291  84.776
17438DG     SC113256  64.301  35.447  85.032
17438DG     SC213257  64.501  35.667  85.060
17438DG     SC313258  64.396  35.587  85.324
17438DG     SC413259  64.265  35.381  85.174
17439DA     BB113260  64.230  35.336  84.435
17439DA     BB213261  64.522  35.556  84.461
17439DA     BB313262  64.697  35.442  84.505
17439DA     SC113263  64.665  35.469  84.814
17439DA     SC213264  64.781  35.584  85.002
17439DA     SC313265  64.663  35.413  85.153
17439DA     SC413266  64.584  35.353  84.890
17440DC     BB113267  64.824  35.445  84.367
17440DC     BB213268  65.066  35.657  84.530
17440DC     BB313269  65.219  35.542  84.610
17440DC     SC113270  65.065  35.461  84.806
17440DC     SC213271  65.134  35.548  84.991
17440DC     SC313272  64.926  35.300  84.963
17441DT     BB113273  65.385  35.632  84.416
17441DT     BB213274  65.555  35.712  84.724
17441DT     BB313275  65.668  35.550  84.786
17441DT     SC113276  65.453  35.422  84.866
17441DT     SC213277  65.452  35.410  85.080
17441DT     SC313278  65.266  35.237  84.880
17442DA     BB113279  65.934  35.875  84.781
17442DA     BB213280  65.978  35.702  85.101
17442DA     BB313281  66.085  35.519  85.073
17442DA     SC113282  65.828  35.348  85.029
17442DA     SC213283  65.702  35.171  85.151
17442DA     SC313284  65.600  35.116  84.922
17442DA     SC413285  65.777  35.328  84.878
17443DA     BB113286  66.299  35.632  85.301
17443DA     BB213287  66.215  35.340  85.507
17443DA     BB313288  66.318  35.167  85.436
17443DA     SC113289  66.091  35.081  85.242
17443DA     SC213290  65.923  34.898  85.225
17443DA     SC313291  65.910  34.960  84.976
17443DA     SC413292  66.099  35.134  85.090
17444DT     BB113293  66.485  35.060  85.545
17444DT     BB213294  66.292  34.771  85.644
17444DT     BB313295  66.356  34.604  85.539
17444DT     SC113296  66.238  34.686  85.320
17444DT     SC213297  66.070  34.558  85.277
17444DT     SC313298  66.205  34.770  85.072
17445DA     BB113299  66.393  34.473  85.937
17445DA     BB213300  66.209  34.212  85.756
17445DA     BB313301  66.344  34.093  85.641
17445DA     SC113302  66.320  34.271  85.386
17445DA     SC213303  66.222  34.253  85.157
17445DA     SC313304  66.382  34.445  85.096
17445DA     SC413305  66.427  34.389  85.368
17446DA     BB113306  66.224  33.826  85.799
17446DA     BB213307  66.103  33.704  85.475
17446DA     BB313308  66.261  33.609  85.368
17446DA     SC113309  66.352  33.868  85.223
17446DA     SC213310  66.349  33.961  84.991
17446DA     SC313311  66.534  34.118  85.073
17446DA     SC413312  66.467  33.956  85.292
17447DT     BB113313  66.265  33.392  85.325
17447DT     BB213314  66.176  33.422  84.976
17447DT     BB313315  66.338  33.372  84.858
17447DT     SC113316  66.457  33.599  84.911
17447DT     SC213317  66.460  33.722  84.734
17447DT     SC313318  66.637  33.770  85.001
17448DT     BB113319  66.218  33.136  84.784
17448DT     BB213320  66.276  33.310  84.473
17448DT     BB313321  66.464  33.262  84.399
17448DT     SC113322  66.581  33.415  84.578
17448DT     SC213323  66.667  33.586  84.481
17448DT     SC313324  66.731  33.487  84.782
17449DA     BB113325  66.176  33.210  84.101
17449DA     BB213326  66.449  33.411  83.962
17449DA     BB313327  66.621  33.290  83.929
17449DA     SC113328  66.743  33.341  84.210
17449DA     SC213329  66.938  33.463  84.308
17449DA     SC313330  66.903  33.312  84.512
17449DA     SC413331  66.706  33.237  84.327
17450DA     BB113332  66.571  33.442  83.647
17450DA     BB213333  66.908  33.581  83.689
17450DA     BB313334  67.055  33.429  83.658
17450DA     SC113335  67.065  33.346  83.958
17450DA     SC213336  67.225  33.361  84.149
17450DA     SC313337  67.089  33.171  84.252
17450DA     SC413338  66.968  33.226  84.005
17451DA     BB113339  67.149  33.674  83.464
17451DA     BB213340  67.464  33.672  83.651
17451DA     BB313341  67.577  33.497  83.604
17451DA     SC113342  67.454  33.326  83.833
17451DA     SC213343  67.528  33.227  84.049
17451DA     SC313344  67.326  33.071  84.024
17451DA     SC413345  67.324  33.237  83.798
17452DT     BB113346  67.735  33.538  83.517
17452DT     BB213347  67.961  33.458  83.787
17452DT     BB313348  68.040  33.269  83.760
17452DT     SC113349  67.814  33.156  83.832
17452DT     SC213350  67.840  33.060  84.023
17452DT     SC313351  67.592  33.014  83.819
17453DA     BB113352  68.363  33.528  83.823
17453DA     BB213353  68.413  33.234  84.036
17453DA     BB313354  68.468  33.065  83.917
17453DA     SC113355  68.175  32.969  83.873
17453DA     SC213356  68.030  32.780  83.945
17453DA     SC313357  67.885  32.841  83.743
17453DA     SC413358  68.099  33.022  83.742
17454DT     BB113359  68.658  32.982  83.933
17454DT     BB213360  68.563  32.681  84.108
17454DT     BB313361  68.571  32.519  83.980
17454DT     SC113362  68.350  32.594  83.860
17454DT     SC213363  68.192  32.455  83.907
17454DT     SC313364  68.186  32.676  83.670
17455DC     BB113365  68.802  32.417  84.094
17455DC     BB213366  68.568  32.144  84.115
17455DC     BB313367  68.579  32.028  83.944
17455DC     SC113368  68.451  32.209  83.804
17455DC     SC213369  68.256  32.134  83.752
17455DC     SC313370  68.402  32.392  83.620
17456DG     BB113371  68.666  31.769  84.247
17456DG     BB213372  68.404  31.638  84.036
17456DG     BB313373  68.482  31.557  83.872
17456DG     SC113374  68.472  31.817  83.711
17456DG     SC213375  68.300  31.868  83.472
17456DG     SC313376  68.494  32.088  83.511
17456DG     SC413377  68.596  31.918  83.718
17457DT     BB113378  68.465  31.335  83.821
17457DT     BB213379  68.221  31.342  83.556
17457DT     BB313380  68.313  31.311  83.373
17457DT     SC113381  68.412  31.554  83.373
17457DT     SC213382  68.314  31.671  83.220
17457DT     SC313383  68.587  31.751  83.375
17458DC     BB113384  68.212  31.055  83.352
17458DC     BB213385  68.102  31.218  83.050
17458DC     BB313386  68.245  31.198  82.902
17458DC     SC113387  68.400  31.377  83.016
17458DC     SC213388  68.405  31.554  82.894
17458DC     SC313389  68.608  31.484  83.137
17459DT     BB113390  68.098  31.010  82.758
17459DT     BB213391  68.162  31.270  82.517
17459DT     BB313392  68.341  31.233  82.419
17459DT     SC113393  68.481  31.306  82.628
17459DT     SC213394  68.581  31.491  82.586
17459DT     SC313395  68.646  31.292  82.833
17460DG     BB113396  68.070  31.235  82.111
17460DG     BB213397  68.345  31.460  82.041
17460DG     BB313398  68.499  31.357  81.969
17460DG     SC113399  68.623  31.304  82.244
17460DG     SC213400  68.882  31.413  82.344
17460DG     SC313401  68.775  31.209  82.530
17460DG     SC413402  68.577  31.173  82.325
17461DT     BB113403  68.599  31.374  81.744
17461DT     BB213404  68.898  31.560  81.821
17461DT     BB313405  69.064  31.438  81.802
17461DT     SC113406  69.009  31.314  82.026
17461DT     SC213407  69.156  31.366  82.175
17461DT     SC313408  68.945  31.121  82.194
17462DT     BB113409  69.148  31.560  81.566
17462DT     BB213410  69.428  31.598  81.791
17462DT     BB313411  69.555  31.436  81.774
17462DT     SC113412  69.388  31.283  81.908
17462DT     SC213413  69.473  31.236  82.100
17462DT     SC313414  69.221  31.087  81.963
17463DG     BB113415  69.784  31.760  81.682
17463DG     BB213416  69.937  31.562  81.944
17463DG     BB313417  70.030  31.406  81.865
17463DG     SC113418  69.786  31.222  81.879
17463DG     SC213419  69.757  30.980  82.052
17463DG     SC313420  69.532  31.000  81.860
17463DG     SC413421  69.683  31.220  81.756
17464DC     BB113422  70.254  31.376  81.882
17464DC     BB213423  70.270  31.116  82.132
17464DC     BB313424  70.318  30.935  82.043
17464DC     SC113425  70.077  30.911  81.943
17464DC     SC213426  69.974  30.750  82.042
17464DC     SC313427  69.882  30.892  81.766
17465DG     BB113428  70.608  31.004  82.321
17465DG     BB213429  70.457  30.679  82.366
17465DG     BB313430  70.533  30.550  82.235
17465DG     SC113431  70.325  30.608  82.019
17465DG     SC213432  70.117  30.419  81.920
17465DG     SC313433  70.125  30.663  81.753
17465DG     SC413434  70.352  30.727  81.915
17466DT     BB113435  70.652  30.367  82.299
17466DT     BB213436  70.408  30.107  82.244
17466DT     BB313437  70.456  29.998  82.075
17466DT     SC113438  70.377  30.193  81.918
17466DT     SC213439  70.198  30.132  81.815
17466DT     SC313440  70.384  30.386  81.738
17467DA     BB113441  70.396  29.730  82.389
17467DA     BB213442  70.196  29.617  82.103
17467DA     BB313443  70.322  29.532  81.953
17467DA     SC113444  70.364  29.801  81.802
17467DA     SC213445  70.298  29.903  81.585
17467DA     SC313446  70.494  30.063  81.623
17467DA     SC413447  70.492  29.889  81.843
17468DT     BB113448  70.290  29.349  81.926
17468DT     BB213449  70.115  29.383  81.613
17468DT     BB313450  70.241  29.335  81.456
17468DT     SC113451  70.371  29.562  81.480
17468DT     SC213452  70.328  29.687  81.311
17468DT     SC313453  70.568  29.732  81.524
17469DT     BB113454  70.076  29.136  81.439
17469DT     BB213455  70.061  29.302  81.120
17469DT     BB313456  70.223  29.245  81.003
17469DT     SC113457  70.387  29.394  81.143
17469DT     SC213458  70.452  29.560  81.022
17469DT     SC313459  70.586  29.463  81.301
17470DT     BB113460  70.022  29.146  80.879
17470DT     BB213461  70.190  29.359  80.642
17470DT     BB313462  70.361  29.266  80.572
17470DT     SC113463  70.488  29.312  80.798
17470DT     SC213464  70.642  29.457  80.764
17470DT     SC313465  70.613  29.267  81.025
17471DA     BB113466  70.124  29.437  80.267
17471DA     BB213467  70.476  29.519  80.204
17471DA     BB313468  70.586  29.342  80.156
17471DA     SC113469  70.665  29.281  80.450
17471DA     SC213470  70.871  29.283  80.590
17471DA     SC313471  70.742  29.128  80.748
17471DA     SC413472  70.568  29.184  80.535
17472DC     BB113473  70.647  29.346  79.984
17472DC     BB213474  71.000  29.378  80.054
17472DC     BB313475  71.090  29.192  80.048
17472DC     SC113476  70.986  29.125  80.280
17472DC     SC213477  71.142  29.115  80.428
17472DC     SC313478  70.842  28.997  80.460
17473DA     BB113479  71.321  29.427  79.788
17473DA     BB213480  71.554  29.240  80.001
17473DA     BB313481  71.559  29.035  79.942
17473DA     SC113482  71.331  28.948  80.135
17473DA     SC213483  71.307  28.812  80.342
17473DA     SC313484  71.059  28.796  80.279
17473DA     SC413485  71.181  28.948  80.077
17474DA     BB113486  71.891  29.067  79.910
17474DA     BB213487  71.930  28.804  80.162
17474DA     BB313488  71.897  28.612  80.075
17474DA     SC113489  71.592  28.610  80.136
17474DA     SC213490  71.435  28.487  80.286
17474DA     SC313491  71.252  28.563  80.123
17474DA     SC413492  71.493  28.665  80.022
17475DT     BB113493  72.054  28.454  80.043
17475DT     BB213494  71.947  28.230  80.304
17475DT     BB313495  71.863  28.059  80.222
17475DT     SC113496  71.644  28.188  80.156
17475DT     SC213497  71.482  28.119  80.278
17475DT     SC313498  71.454  28.296  80.008
17476DA     BB113499  72.159  27.895  80.473
17476DA     BB213500  71.848  27.713  80.541
17476DA     BB313501  71.810  27.571  80.386
17476DA     SC113502  71.642  27.769  80.214
17476DA     SC213503  71.404  27.798  80.146
17476DA     SC313504  71.497  27.942  79.955
17476DA     SC413505  71.720  27.853  80.101
17477DT     BB113506  71.817  27.342  80.406
17477DT     BB213507  71.460  27.290  80.402
17477DT     BB313508  71.405  27.196  80.226
17477DT     SC113509  71.436  27.417  80.089
17477DT     SC213510  71.244  27.489  80.024
17477DT     SC313511  71.532  27.588  79.912
17478DT     BB113512  71.358  26.929  80.330
17478DT     BB213513  71.045  27.013  80.172
17478DT     BB313514  71.043  26.942  79.977
17478DT     SC113515  71.206  27.133  79.899
17478DT     SC213516  71.099  27.270  79.772
17478DT     SC313517  71.421  27.253  79.804
17479DT     BB113518  70.866  26.712  80.010
17479DT     BB213519  70.703  26.909  79.755
17479DT     BB313520  70.759  26.842  79.567
17479DT     SC113521  70.996  26.953  79.590
17479DT     SC213522  71.010  27.120  79.454
17479DT     SC313523  71.258  26.978  79.607
17480DA     BB113524  70.340  26.819  79.548
17480DA     BB213525  70.452  27.013  79.258
17480DA     BB313526  70.526  26.884  79.105
17480DA     SC113527  70.820  26.890  79.208
17480DA     SC213528  71.039  26.982  79.133
17480DA     SC313529  71.142  26.809  79.293
17480DA     SC413530  70.865  26.775  79.311
17481DA     BB113531  70.306  27.042  78.925
17481DA     BB213532  70.588  27.174  78.733
17481DA     BB313533  70.657  27.029  78.592
17481DA     SC113534  70.864  26.903  78.787
17481DA     SC213535  71.112  26.891  78.810
17481DA     SC313536  71.068  26.688  78.959
17481DA     SC413537  70.816  26.778  78.876
17482DA     BB113538  70.604  27.308  78.439
17482DA     BB213539  70.964  27.302  78.368
17482DA     BB313540  71.009  27.148  78.228
17482DA     SC113541  71.060  26.931  78.445
17482DA     SC213542  71.254  26.804  78.536
17482DA     SC313543  71.079  26.638  78.622
17482DA     SC413544  70.936  26.839  78.489
17483DT     BB113545  71.071  27.240  78.107
17483DT     BB213546  71.416  27.146  78.153
17483DT     BB313547  71.459  26.979  78.038
17483DT     SC113548  71.329  26.821  78.203
17483DT     SC213549  71.469  26.695  78.307
17483DT     SC313550  71.148  26.652  78.294
17484DT     BB113551  71.600  27.165  77.933
17484DT     BB213552  71.831  26.905  78.027
17484DT     BB313553  71.818  26.747  77.894
17484DT     SC113554  71.590  26.668  77.998
17484DT     SC213555  71.620  26.482  78.102
17484DT     SC313556  71.334  26.610  78.018
17485DT     BB113557  72.055  26.833  77.831
17485DT     BB213558  72.097  26.485  77.915
17485DT     BB313559  72.037  26.366  77.756
17485DT     SC113560  71.784  26.412  77.808
17485DT     SC213561  71.692  26.232  77.881
17485DT     SC313562  71.536  26.496  77.778
17486DT     BB113563  72.295  26.310  77.714
17486DT     BB213564  72.135  25.988  77.747
17486DT     BB313565  72.053  25.931  77.566
17486DT     SC113566  71.856  26.101  77.592
17486DT     SC213567  71.672  25.994  77.625
17486DT     SC313568  71.697  26.307  77.545
17487DA     BB113569  72.294  25.605  77.678
17487DA     BB213570  71.968  25.471  77.576
17487DA     BB313571  71.948  25.479  77.364
17487DA     SC113572  71.819  25.762  77.362
17487DA     SC213573  71.596  25.863  77.314
17487DA     SC313574  71.725  26.082  77.283
17487DA     SC413575  71.917  25.888  77.345
17488DT     BB113576  71.940  25.302  77.238
17488DT     BB213577  71.587  25.317  77.167
17488DT     BB313578  71.557  25.374  76.970
17488DT     SC113579  71.620  25.623  77.025
17488DT     SC213580  71.444  25.746  77.010
17488DT     SC313581  71.750  25.852  77.022
17489DA     BB113582  71.338  25.018  77.012
17489DA     BB213583  71.116  25.268  76.862
17489DA     BB313584  71.165  25.298  76.656
17489DA     SC113585  71.367  25.528  76.712
17489DA     SC213586  71.380  25.774  76.675
17489DA     SC313587  71.633  25.744  76.704
17489DA     SC413588  71.521  25.489  76.732
17490DG     BB113589  70.874  25.202  76.609
17490DG     BB213590  70.831  25.541  76.490
17490DG     BB313591  70.892  25.554  76.301
17490DG     SC113592  71.181  25.624  76.373
17490DG     SC213593  71.317  25.885  76.321
17490DG     SC313594  71.511  25.682  76.416
17490DG     SC413595  71.286  25.505  76.396
17491DT     BB113596  70.749  25.611  76.155
17491DT     BB213597  70.847  25.952  76.088
17491DT     BB313598  70.953  25.962  75.911
17491DT     SC113599  71.166  25.858  76.025
17491DT     SC213600  71.320  26.008  76.040
17491DT     SC313601  71.361  25.689  76.078
17492DT     BB113602  70.740  26.085  75.817
17492DT     BB213603  71.013  26.316  75.767
17492DT     BB313604  71.115  26.267  75.594
17492DT     SC113605  71.229  26.061  75.710
17492DT     SC213606  71.439  26.100  75.736
17492DT     SC313607  71.295  25.811  75.763
17493DT     BB113608  71.011  26.487  75.488
17493DT     BB213609  71.368  26.527  75.453
17493DT     BB313610  71.434  26.429  75.283
17493DT     SC113611  71.408  26.195  75.399
17493DT     SC213612  71.603  26.111  75.434
17493DT     SC313613  71.322  25.951  75.449
17494DT     BB113614  71.474  26.668  75.164
17494DT     BB213615  71.794  26.503  75.147
17494DT     BB313616  71.802  26.382  74.979
17494DT     SC113617  71.646  26.203  75.091
17494DT     SC213618  71.760  26.026  75.134
17494DT     SC313619  71.437  26.049  75.134
17495DA     BB113620  72.143  26.627  74.964
17495DA     BB213621  72.251  26.281  74.911
17495DA     BB313622  72.196  26.215  74.715
17495DA     SC113623  71.920  26.102  74.804
17495DA     SC213624  71.812  25.879  74.830
17495DA     SC313625  71.590  26.009  74.820
17495DA     SC413626  71.793  26.200  74.794
17496DT     BB113627  72.343  26.175  74.582
17496DT     BB213628  72.315  25.815  74.596
17496DT     BB313629  72.221  25.745  74.426
17496DT     SC113630  71.987  25.829  74.510
17496DT     SC213631  71.864  25.660  74.559
17496DT     SC313632  71.762  25.965  74.520
17497DT     BB113633  72.458  25.644  74.351
17497DT     BB213634  72.235  25.361  74.363
17497DT     BB313635  72.131  25.345  74.184
17497DT     SC113636  71.977  25.547  74.246
17497DT     SC213637  71.777  25.476  74.284
17497DT     SC313638  71.863  25.785  74.236
17498DG     BB113639  72.330  24.999  74.268
17498DG     BB213640  71.979  24.941  74.202
17498DG     BB313641  71.943  24.955  74.007
17498DG     SC113642  71.884  25.255  74.014
17498DG     SC213643  71.620  25.384  73.961
17498DG     SC313644  71.834  25.587  73.982
17498DG     SC413645  72.005  25.359  73.996
17499DA     BB113646  71.788  24.655  74.076
17499DA     BB213647  71.475  24.793  73.944
17499DA     BB313648  71.487  24.816  73.733
17499DA     SC113649  71.596  25.108  73.746
17499DA     SC213650  71.515  25.337  73.693
17499DA     SC313651  71.763  25.402  73.688
17499DA     SC413652  71.755  25.128  73.746
17500DG     BB113653  71.244  24.629  73.764
17500DG     BB213654  71.072  24.907  73.608
17500DG     BB313655  71.113  24.912  73.413
17500DG     SC113656  71.360  25.090  73.443
17500DG     SC213657  71.386  25.370  73.344
17500DG     SC313658  71.646  25.268  73.441
17500DG     SC413659  71.502  25.022  73.469
17501DA     BB113660  70.767  24.926  73.363
17501DA     BB213661  70.807  25.238  73.175
17501DA     BB313662  70.888  25.199  72.982
17501DA     SC113663  71.184  25.231  73.073
17501DA     SC213664  71.371  25.392  73.039
17501DA     SC313665  71.523  25.199  73.114
17501DA     SC413666  71.262  25.098  73.121
17502DT     BB113667  70.775  25.229  72.815
17502DT     BB213668  70.945  25.525  72.697
17502DT     BB313669  71.067  25.476  72.537
17502DT     SC113670  71.243  25.363  72.695
17502DT     SC213671  71.421  25.482  72.700
17502DT     SC313672  71.394  25.177  72.805
17503DA     BB113673  70.829  25.792  72.394
17503DA     BB213674  71.178  25.871  72.312
17503DA     BB313675  71.245  25.750  72.149
17503DA     SC113676  71.351  25.521  72.331
17503DA     SC213677  71.572  25.425  72.397
17503DA     SC313678  71.439  25.216  72.463
17503DA     SC413679  71.251  25.400  72.364
17504DC     BB113680  71.290  25.836  71.966
17504DC     BB213681  71.649  25.808  71.993
17504DC     BB313682  71.718  25.656  71.870
17504DC     SC113683  71.628  25.472  72.034
17504DC     SC213684  71.795  25.372  72.127
17504DC     SC313685  71.488  25.269  72.126
17505DT     BB113686  71.824  25.839  71.700
17505DT     BB213687  72.103  25.629  71.793
17505DT     BB313688  72.111  25.464  71.669
17505DT     SC113689  71.906  25.353  71.790
17505DT     SC213690  71.973  25.181  71.901
17505DT     SC313691  71.666  25.252  71.829
17506DA     BB113692  72.494  25.637  71.659
17506DA     BB213693  72.535  25.278  71.722
17506DA     BB313694  72.496  25.166  71.544
17506DA     SC113695  72.193  25.130  71.604
17506DA     SC213696  72.038  24.945  71.667
17506DA     SC313697  71.852  25.099  71.580
17506DA     SC413698  72.092  25.240  71.544
17507DT     BB113699  72.649  25.061  71.446
17507DT     BB213700  72.544  24.730  71.547
17507DT     BB313701  72.458  24.632  71.386
17507DT     SC113702  72.239  24.775  71.406
17507DT     SC213703  72.078  24.650  71.474
17507DT     SC313704  72.047  24.944  71.343
17508DA     BB113705  72.758  24.364  71.513
17508DA     BB213706  72.447  24.173  71.483
17508DA     BB313707  72.403  24.134  71.278
17508DA     SC113708  72.234  24.393  71.240
17508DA     SC213709  71.994  24.454  71.205
17508DA     SC313710  72.085  24.677  71.116
17508DA     SC413711  72.310  24.524  71.187
17509DA     BB113712  72.393  23.810  71.355
17509DA     BB213713  72.038  23.815  71.263
17509DA     BB313714  72.016  23.801  71.051
17509DA     SC113715  72.020  24.109  71.005
17509DA     SC213716  71.860  24.287  70.937
17509DA     SC313717  72.069  24.424  70.880
17509DA     SC413718  72.162  24.177  70.975
17510DT     BB113719  71.926  23.628  70.953
17510DT     BB213720  71.609  23.790  70.890
17510DT     BB313721  71.587  23.826  70.688
17510DT     SC113722  71.758  24.025  70.697
17510DT     SC213723  71.653  24.210  70.666
17510DT     SC313724  71.974  24.169  70.650
17511DT     BB113725  71.397  23.634  70.679
17511DT     BB213726  71.231  23.938  70.579
17511DT     BB313727  71.252  23.966  70.375
17511DT     SC113728  71.503  24.039  70.404
17511DT     SC213729  71.521  24.249  70.361
17511DT     SC313730  71.765  24.037  70.383
17512DG     BB113731  70.868  23.971  70.509
17512DG     BB213732  70.955  24.272  70.328
17512DG     BB313733  70.964  24.234  70.133
17512DG     SC113734  71.261  24.159  70.137
17512DG     SC213735  71.482  24.312  70.007
17512DG     SC313736  71.580  24.052  70.108
17512DG     SC413737  71.303  24.008  70.166
17513DT     BB113738  70.844  24.352  70.056
17513DT     BB213739  71.059  24.590  69.892
17513DT     BB313740  71.096  24.530  69.698
17513DT     SC113741  71.260  24.342  69.778
17513DT     SC213742  71.461  24.394  69.722
17513DT     SC313743  71.362  24.102  69.820
17514DA     BB113744  70.995  24.938  69.750
17514DA     BB213745  71.285  24.913  69.526
17514DA     BB313746  71.228  24.819  69.343
17514DA     SC113747  71.295  24.531  69.442
17514DA     SC213748  71.465  24.355  69.396
17514DA     SC313749  71.296  24.193  69.500
17514DA     SC413750  71.176  24.446  69.509
17515DT     BB113751  71.250  24.936  69.214
17515DT     BB213752  71.532  24.783  69.051
17515DT     BB313753  71.468  24.661  68.897
17515DT     SC113754  71.386  24.477  69.065
17515DT     SC213755  71.513  24.305  69.050
17515DT     SC313756  71.225  24.316  69.197
17516DC     BB113757  71.562  24.844  68.724
17516DC     BB213758  71.717  24.534  68.621
17516DC     BB313759  71.589  24.430  68.497
17516DC     SC113760  71.437  24.359  68.699
17516DC     SC213761  71.458  24.147  68.733
17516DC     SC313762  71.226  24.338  68.855
17517DC     BB113763  71.731  24.489  68.263
17517DC     BB213764  71.705  24.129  68.257
17517DC     BB313765  71.532  24.072  68.159
17517DC     SC113766  71.384  24.141  68.364
17517DC     SC213767  71.302  23.965  68.456
17517DC     SC313768  71.204  24.269  68.509
17518DA     BB113769  71.817  23.858  67.932
17518DA     BB213770  71.551  23.621  68.016
17518DA     BB313771  71.382  23.651  67.890
17518DA     SC113772  71.245  23.855  68.081
17518DA     SC213773  71.044  23.863  68.229
17518DA     SC313774  71.068  24.118  68.214
17518DA     SC413775  71.275  24.011  68.058
17519DT     BB113776  71.296  23.508  67.717
17519DT     BB213777  71.011  23.389  67.904
17519DT     BB313778  70.836  23.459  67.818
17519DT     SC113779  70.877  23.700  67.914
17519DT     SC213780  70.732  23.742  68.067
17519DT     SC313781  70.921  23.960  67.920
17520DA     BB113782  70.769  23.044  67.824
17520DA     BB213783  70.477  23.203  67.979
17520DA     BB313784  70.348  23.283  67.829
17520DA     SC113785  70.485  23.563  67.828
17520DA     SC213786  70.429  23.796  67.898
17520DA     SC313787  70.616  23.867  67.738
17520DA     SC413788  70.604  23.587  67.723
17521DA     BB113789  70.117  23.099  67.972
17521DA     BB213790  69.945  23.411  68.058
17521DA     BB313791  69.836  23.484  67.889
17521DA     SC113792  70.071  23.657  67.782
17521DA     SC213793  70.126  23.899  67.759
17521DA     SC313794  70.296  23.823  67.582
17521DA     SC413795  70.169  23.590  67.674
17522DC     BB113796  69.641  23.488  67.910
17522DC     BB213797  69.614  23.844  67.959
17522DC     BB313798  69.542  23.934  67.787
17522DC     SC113799  69.773  23.906  67.666
17522DC     SC213800  69.864  24.099  67.641
17522DC     SC313801  69.953  23.825  67.492
17523DA     BB113802  69.329  24.058  68.127
17523DA     BB213803  69.429  24.356  67.937
17523DA     BB313804  69.318  24.369  67.756
17523DA     SC113805  69.523  24.208  67.588
17523DA     SC213806  69.687  24.251  67.405
17523DA     SC313807  69.675  23.999  67.362
17523DA     SC413808  69.501  24.049  67.576
17524DT     BB113809  69.207  24.520  67.752
17524DT     BB213810  69.399  24.712  67.515
17524DT     BB313811  69.313  24.698  67.327
17524DT     SC113812  69.402  24.453  67.296
17524DT     SC213813  69.556  24.451  67.145
17524DT     SC313814  69.402  24.191  67.263
17525DA     BB113815  69.381  25.101  67.420
17525DA     BB213816  69.509  25.038  67.082
17525DA     BB313817  69.348  25.010  66.946
17525DA     SC113818  69.336  24.702  66.986
17525DA     SC213819  69.388  24.496  66.854
17525DA     SC313820  69.234  24.376  67.020
17525DA     SC413821  69.236  24.645  67.098
17526DC     BB113822  69.325  25.147  66.805
17526DC     BB213823  69.444  24.948  66.529
17526DC     BB313824  69.284  24.881  66.415
17526DC     SC113825  69.220  24.703  66.597
17526DC     SC213826  69.260  24.506  66.521
17526DC     SC313827  69.080  24.576  66.781
17527DA     BB113828  69.552  25.064  66.150
17527DA     BB213829  69.461  24.738  66.010
17527DA     BB313830  69.262  24.743  65.932
17527DA     SC113831  69.130  24.652  66.199
17527DA     SC213832  69.012  24.451  66.287
17527DA     SC313833  68.919  24.609  66.466
17527DA     SC413834  69.081  24.767  66.301
17528DA     BB113835  69.422  24.631  65.670
17528DA     BB213836  69.212  24.332  65.695
17528DA     BB313837  69.014  24.374  65.628
17528DA     SC113838  68.910  24.456  65.909
17528DA     SC213839  68.754  24.366  66.081
17528DA     SC313840  68.746  24.607  66.171
17528DA     SC413841  68.917  24.612  65.948
17529DA     BB113842  69.092  24.111  65.451
17529DA     BB213843  68.807  23.946  65.610
17529DA     BB313844  68.624  24.022  65.532
17529DA     SC113845  68.598  24.247  65.746
17529DA     SC213846  68.452  24.300  65.942
17529DA     SC313847  68.535  24.541  65.912
17529DA     SC413848  68.660  24.391  65.711
17530DA     BB113849  68.590  23.699  65.499
17530DA     BB213850  68.294  23.731  65.713
17530DA     BB313851  68.136  23.827  65.607
17530DA     SC113852  68.217  24.113  65.697
17530DA     SC213853  68.127  24.292  65.846
17530DA     SC313854  68.278  24.451  65.712
17530DA     SC413855  68.316  24.196  65.601
17531DT     BB113856  67.986  23.716  65.576
17531DT     BB213857  67.760  23.873  65.809
17531DT     BB313858  67.631  24.000  65.708
17531DT     SC113859  67.820  24.178  65.675
17531DT     SC213860  67.777  24.351  65.796
17531DT     SC313861  67.994  24.337  65.555
17532DA     BB113862  67.403  23.747  65.955
17532DA     BB213863  67.284  24.091  66.002
17532DA     BB313864  67.180  24.158  65.829
17532DA     SC113865  67.433  24.276  65.692
17532DA     SC213866  67.523  24.502  65.635
17532DA     SC313867  67.671  24.377  65.466
17532DA     SC413868  67.515  24.181  65.592
17533DA     BB113869  66.946  24.223  66.052
17533DA     BB213870  66.969  24.573  65.945
17533DA     BB313871  66.876  24.599  65.755
17533DA     SC113872  67.136  24.545  65.594
17533DA     SC213873  67.296  24.675  65.452
17533DA     SC313874  67.366  24.447  65.358
17533DA     SC413875  67.165  24.394  65.547
17534DA     BB113876  66.703  24.834  65.911
17534DA     BB213877  66.842  25.073  65.671
17534DA     BB313878  66.744  25.054  65.482
17534DA     SC113879  66.946  24.844  65.372
17534DA     SC213880  67.124  24.834  65.198
17534DA     SC313881  67.093  24.579  65.210
17534DA     SC413882  66.910  24.689  65.393
17535DC     BB113883  66.622  25.207  65.407
17535DC     BB213884  66.849  25.324  65.152
17535DC     BB313885  66.782  25.264  64.965
17535DC     SC113886  66.859  25.017  65.009
17535DC     SC213887  67.027  24.971  64.882
17535DC     SC313888  66.848  24.756  65.044
17536DT     BB113889  66.696  25.518  64.893
17536DT     BB213890  66.924  25.425  64.629
17536DT     BB313891  66.822  25.325  64.480
17536DT     SC113892  66.805  25.108  64.626
17536DT     SC213893  66.930  24.954  64.542
17536DT     SC313894  66.699  24.910  64.765
17537DC     BB113895  66.822  25.538  64.293
17537DC     BB213896  66.977  25.267  64.113
17537DC     BB313897  66.833  25.159  64.010
17537DC     SC113898  66.748  25.046  64.231
17537DC     SC213899  66.800  24.837  64.229
17537DC     SC313900  66.589  24.979  64.430
17538DT     BB113901  66.894  25.257  63.749
17538DT     BB213902  66.927  24.899  63.717
17538DT     BB313903  66.747  24.817  63.656
17538DT     SC113904  66.642  24.849  63.895
17538DT     SC213905  66.615  24.656  63.987
17538DT     SC313906  66.484  24.935  64.087
17539DT     BB113907  66.824  24.763  63.388
17539DT     BB213908  66.728  24.441  63.519
17539DT     BB313909  66.528  24.406  63.480
17539DT     SC113910  66.454  24.573  63.668
17539DT     SC213911  66.366  24.464  63.831
17539DT     SC313912  66.346  24.784  63.784
17540DG     BB113913  66.726  24.100  63.297
17540DG     BB213914  66.480  23.976  63.532
17540DG     BB313915  66.300  23.979  63.449
17540DG     SC113916  66.234  24.263  63.541
17540DG     SC213917  66.024  24.339  63.739
17540DG     SC313918  66.137  24.579  63.607
17540DG     SC413919  66.275  24.386  63.447
17541DT     BB113920  66.199  23.793  63.430
17541DT     BB213921  65.964  23.820  63.703
17541DT     BB313922  65.776  23.863  63.631
17541DT     SC113923  65.844  24.112  63.582
17541DT     SC213924  65.741  24.242  63.719
17541DT     SC313925  65.894  24.334  63.449
17542DT     BB113926  65.745  23.626  63.726
17542DT     BB213927  65.520  23.839  63.910
17542DT     BB313928  65.352  23.881  63.796
17542DT     SC113929  65.487  24.049  63.645
17542DT     SC213930  65.420  24.249  63.684
17542DT     SC313931  65.600  24.154  63.432
17543DA     BB113932  65.286  23.770  64.199
17543DA     BB213933  65.090  24.070  64.122
17543DA     BB313934  64.938  24.024  63.979
17543DA     SC113935  65.116  24.092  63.733
17543DA     SC213936  65.128  24.268  63.557
17543DA     SC313937  65.266  24.097  63.424
17543DA     SC413938  65.199  23.972  63.666
17544DT     BB113939  64.795  24.055  64.063
17544DT     BB213940  64.698  24.352  63.884
17544DT     BB313941  64.577  24.302  63.723
17544DT     SC113942  64.782  24.211  63.587
17544DT     SC213943  64.822  24.343  63.421
17544DT     SC313944  64.941  24.044  63.460
17545DT     BB113945  64.389  24.416  63.866
17545DT     BB213946  64.385  24.587  63.548
17545DT     BB313947  64.279  24.475  63.409
17545DT     SC113948  64.477  24.304  63.385
17545DT     SC213949  64.566  24.325  63.191
17545DT     SC313950  64.611  24.078  63.395
17546DC     BB113951  64.082  24.657  63.424
17546DC     BB213952  64.164  24.639  63.073
17546DC     BB313953  64.062  24.482  62.984
17546DC     SC113954  64.222  24.306  63.094
17546DC     SC213955  64.344  24.215  62.942
17546DC     SC313956  64.304  24.105  63.244
17547DT     BB113957  63.894  24.655  62.856
17547DT     BB213958  64.034  24.455  62.591
17547DT     BB313959  63.921  24.283  62.565
17547DT     SC113960  64.021  24.176  62.783
17547DT     SC213961  64.149  24.012  62.729
17547DT     SC313962  64.034  24.074  63.026
17548DC     BB113963  63.813  24.377  62.331
17548DC     BB213964  63.962  24.061  62.240
17548DC     BB313965  63.827  23.908  62.271
17548DC     SC113966  63.860  23.919  62.531
17548DC     SC213967  63.964  23.743  62.598
17548DC     SC313968  63.806  23.954  62.786
17549DT     BB113969  63.791  23.878  62.002
17549DT     BB213970  63.896  23.552  62.116
17549DT     BB313971  63.732  23.442  62.178
17549DT     SC113972  63.713  23.582  62.399
17549DT     SC213973  63.766  23.458  62.566
17549DT     SC313974  63.614  23.744  62.582
17550DT     BB113975  63.749  23.283  61.957
17550DT     BB213976  63.767  23.053  62.234
17550DT     BB313977  63.576  22.999  62.293
17550DT     SC113978  63.536  23.231  62.408
17550DT     SC213979  63.529  23.206  62.621
17550DT     SC313980  63.432  23.468  62.458
17551DT     BB113981  63.609  22.749  62.187
17551DT     BB213982  63.525  22.689  62.533
17551DT     BB313983  63.319  22.681  62.555
17551DT     SC113984  63.299  22.942  62.531
17551DT     SC213985  63.243  23.027  62.720
17551DT     SC313986  63.232  23.177  62.433
17552DT     BB113987  63.338  22.416  62.595
17552DT     BB213988  63.174  22.542  62.890
17552DT     BB313989  62.970  22.558  62.857
17552DT     SC113990  63.004  22.772  62.708
17552DT     SC213991  62.925  22.944  62.811
17552DT     SC313992  63.003  22.930  62.496
17553DC     BB113993  62.933  22.349  63.021
17553DC     BB213994  62.737  22.616  63.164
17553DC     BB313995  62.551  22.623  63.074
17553DC     SC113996  62.652  22.730  62.857
17553DC     SC213997  62.586  22.935  62.840
17553DC     SC313998  62.723  22.760  62.604
17554DA     BB113999  62.497  22.616  63.490
17554DA     BB214000  62.295  22.890  63.353
17554DA     BB314001  62.127  22.812  63.246
17554DA     SC114002  62.275  22.800  62.973
17554DA     SC214003  62.267  22.919  62.754
17554DA     SC314004  62.388  22.712  62.661
17554DA     SC414005  62.349  22.663  62.934
17555DT     BB114006  61.953  22.852  63.322
17555DT     BB214007  61.854  23.098  63.078
17555DT     BB314008  61.721  23.015  62.943
17555DT     SC114009  61.914  22.883  62.824
17555DT     SC214010  61.946  22.966  62.628
17555DT     SC314011  62.058  22.681  62.734
17556DA     BB114012  61.554  23.371  63.090
17556DA     BB214013  61.529  23.375  62.724
17556DA     BB314014  61.382  23.236  62.658
17556DA     SC114015  61.583  23.000  62.630
17556DA     SC214016  61.686  22.867  62.447
17556DA     SC314017  61.733  22.691  62.628
17556DA     SC414018  61.602  22.903  62.757
17557DG     BB114019  61.249  23.490  62.539
17557DG     BB214020  61.318  23.322  62.226
17557DG     BB314021  61.178  23.185  62.190
17557DG     SC114022  61.327  22.960  62.336
17557DG     SC214023  61.443  22.717  62.209
17557DG     SC314024  61.452  22.696  62.504
17557DG     SC414025  61.303  22.940  62.493
17558DC     BB114026  61.044  23.198  62.013
17558DC     BB214027  61.183  22.942  61.800
17558DC     BB314028  61.063  22.773  61.805
17558DC     SC114029  61.150  22.709  62.044
17558DC     SC214030  61.271  22.532  62.031
17558DC     SC314031  61.149  22.659  62.303
17559DA     BB114032  61.119  22.872  61.401
17559DA     BB214033  61.195  22.516  61.442
17559DA     BB314034  61.016  22.404  61.471
17559DA     SC114035  61.021  22.429  61.781
17559DA     SC214036  61.059  22.280  61.978
17559DA     SC314037  60.937  22.461  62.112
17559DA     SC414038  60.942  22.552  61.847
17560DA     BB114039  61.145  22.238  61.220
17560DA     BB214040  61.156  21.949  61.445
17560DA     BB314041  60.961  21.868  61.473
17560DA     SC114042  60.896  22.044  61.721
17560DA     SC214043  60.864  22.013  61.966
17560DA     SC314044  60.741  22.238  61.958
17560DA     SC414045  60.822  22.185  61.695
17561DT     BB114046  60.936  21.689  61.404
17561DT     BB214047  60.938  21.522  61.723
17561DT     BB314048  60.745  21.473  61.779
17561DT     SC114049  60.691  21.723  61.840
17561DT     SC214050  60.669  21.741  62.053
17561DT     SC314051  60.578  21.961  61.833
17562DA     BB114052  60.994  21.138  61.812
17562DA     BB214053  60.806  21.174  62.125
17562DA     BB314054  60.601  21.123  62.094
17562DA     SC114055  60.514  21.413  62.023
17562DA     SC214056  60.378  21.595  62.126
17562DA     SC314057  60.363  21.689  61.888
17562DA     SC414058  60.515  21.455  61.868
17563DT     BB114059  60.549  20.970  62.191
17563DT     BB214060  60.353  21.140  62.441
17563DT     BB314061  60.151  21.126  62.395
17563DT     SC114062  60.174  21.303  62.203
17563DT     SC214063  60.072  21.484  62.260
17563DT     SC314064  60.173  21.408  61.961
17564DA     BB114065  60.215  21.013  62.794
17564DA     BB214066  59.935  21.249  62.785
17564DA     BB314067  59.763  21.157  62.698
17564DA     SC114068  59.832  21.246  62.408
17564DA     SC214069  59.743  21.405  62.237
17564DA     SC314070  59.873  21.264  62.067
17564DA     SC414071  59.918  21.145  62.317
17565DA     BB114072  59.641  21.271  62.979
17565DA     BB214073  59.408  21.466  62.774
17565DA     BB314074  59.261  21.338  62.687
17565DA     SC114075  59.426  21.285  62.428
17565DA     SC214076  59.413  21.344  62.186
17565DA     SC314077  59.570  21.144  62.150
17565DA     SC414078  59.522  21.157  62.426
17566DA     BB114079  59.062  21.558  62.829
17566DA     BB214080  58.930  21.627  62.494
17566DA     BB314081  58.805  21.468  62.428
17566DA     SC114082  59.036  21.309  62.292
17566DA     SC214083  59.107  21.251  62.061
17566DA     SC314084  59.243  21.063  62.172
17566DA     SC414085  59.112  21.198  62.380
17567DG     BB114086  58.579  21.684  62.414
17567DG     BB214087  58.585  21.605  62.061
17567DG     BB314088  58.476  21.443  62.026
17567DG     SC114089  58.708  21.247  62.066
17567DG     SC214090  58.831  21.076  61.855
17567DG     SC314091  58.934  21.004  62.123
17567DG     SC414092  58.738  21.192  62.213
17568DG     BB114093  58.279  21.609  61.817
17568DG     BB214094  58.394  21.382  61.560
17568DG     BB314095  58.286  21.215  61.564
17568DG     SC114096  58.469  21.072  61.763
17568DG     SC214097  58.637  20.832  61.705
17568DG     SC314098  58.636  20.892  61.994
17568DG     SC414099  58.442  21.089  61.919
17569DC     BB114100  58.147  21.142  61.390
17569DC     BB214101  58.343  20.872  61.253
17569DC     BB314102  58.260  20.690  61.305
17569DC     SC114103  58.348  20.712  61.552
17569DC     SC214104  58.503  20.567  61.585
17569DC     SC314105  58.347  20.734  61.814
17570DT     BB114106  58.161  20.641  61.050
17570DT     BB214107  58.368  20.353  61.121
17570DT     BB314108  58.255  20.206  61.213
17570DT     SC114109  58.253  20.339  61.440
17570DT     SC214110  58.372  20.235  61.585
17570DT     SC314111  58.162  20.473  61.648
17571DT     BB114112  58.248  20.043  60.987
17571DT     BB214113  58.391  19.833  61.243
17571DT     BB314114  58.241  19.731  61.343
17571DT     SC114115  58.169  19.947  61.473
17571DT     SC214116  58.221  19.925  61.681
17571DT     SC314117  58.022  20.149  61.556
17572DT     BB114118  58.307  19.490  61.222
17572DT     BB214119  58.333  19.423  61.576
17572DT     BB314120  58.150  19.359  61.649
17572DT     SC114121  58.052  19.602  61.639
17572DT     SC214122  58.023  19.675  61.839
17572DT     SC314123  57.899  19.805  61.570
17573DG     BB114124  58.418  19.064  61.731
17573DG     BB214125  58.241  19.166  62.029
17573DG     BB314126  58.061  19.082  62.033
17573DG     SC114127  57.923  19.309  61.882
17573DG     SC214128  57.718  19.496  61.994
17573DG     SC314129  57.744  19.531  61.701
17573DG     SC414130  57.919  19.305  61.722
17574DT     BB114131  58.013  18.948  62.195
17574DT     BB214132  57.792  19.153  62.394
17574DT     BB314133  57.596  19.094  62.364
17574DT     SC114134  57.590  19.208  62.128
17574DT     SC214135  57.460  19.380  62.134
17574DT     SC314136  57.572  19.236  61.866
17575DA     BB114137  57.679  19.118  62.773
17575DA     BB214138  57.364  19.295  62.711
17575DA     BB314139  57.208  19.156  62.665
17575DA     SC114140  57.259  19.161  62.358
17575DA     SC214141  57.144  19.246  62.154
17575DA     SC314142  57.293  19.080  62.027
17575DA     SC414143  57.359  19.051  62.298
17576DC     BB114144  57.073  19.153  62.795
17576DC     BB214145  56.817  19.317  62.600
17576DC     BB314146  56.686  19.176  62.523
17576DC     SC114147  56.861  19.099  62.344
17576DC     SC214148  56.794  19.159  62.148
17576DC     SC314149  57.029  18.945  62.211
17577DA     BB114150  56.459  19.474  62.713
17577DA     BB214151  56.305  19.406  62.387
17577DA     BB314152  56.208  19.217  62.389
17577DA     SC114153  56.458  19.060  62.290
17577DA     SC214154  56.530  18.939  62.084
17577DA     SC314155  56.701  18.823  62.237
17577DA     SC414156  56.555  18.998  62.401
17578DT     BB114157  56.000  19.203  62.377
17578DT     BB214158  55.978  19.072  62.041
17578DT     BB314159  55.930  18.871  62.046
17578DT     SC114160  56.173  18.807  62.122
17578DT     SC214161  56.273  18.703  61.963
17578DT     SC314162  56.370  18.715  62.272
17579DT     BB114163  55.655  18.895  61.969
17579DT     BB214164  55.785  18.656  61.732
17579DT     BB314165  55.757  18.464  61.803
17579DT     SC114166  55.952  18.491  61.977
17579DT     SC214167  56.117  18.367  61.919
17579DT     SC314168  56.078  18.508  62.208
17580DA     BB114169  55.551  18.419  61.434
17580DA     BB214170  55.779  18.133  61.460
17580DA     BB314171  55.696  17.983  61.586
17580DA     SC114172  55.826  18.094  61.846
17580DA     SC214173  56.005  18.027  62.006
17580DA     SC314174  55.891  18.189  62.169
17580DA     SC414175  55.740  18.199  61.933
17581DA     BB114176  55.713  17.744  61.344
17581DA     BB214177  55.951  17.560  61.554
17581DA     BB314178  55.847  17.436  61.693
17581DA     SC114179  55.837  17.653  61.916
17581DA     SC214180  55.939  17.694  62.139
17581DA     SC314181  55.744  17.855  62.178
17581DA     SC414182  55.707  17.748  61.921
17582DA     BB114183  56.021  17.181  61.570
17582DA     BB214184  56.177  17.148  61.900
17582DA     BB314185  56.049  17.040  62.032
17582DA     SC114186  55.905  17.293  62.139
17582DA     SC214187  55.893  17.423  62.352
17582DA     SC314188  55.674  17.517  62.259
17582DA     SC414189  55.770  17.339  62.065
17583DT     BB114190  56.105  16.848  62.105
17583DT     BB214191  56.197  16.960  62.435
17583DT     BB314192  56.057  16.896  62.573
17583DT     SC114193  55.884  17.076  62.493
17583DT     SC214194  55.859  17.225  62.646
17583DT     SC314195  55.665  17.182  62.390
17584DG     BB114196  56.418  16.749  62.690
17584DG     BB214197  56.260  16.937  62.955
17584DG     BB314198  56.120  16.826  63.044
17584DG     SC114199  55.895  16.915  62.856
17584DG     SC214200  55.658  17.080  62.932
17584DG     SC314201  55.630  16.976  62.657
17584DG     SC414202  55.871  16.834  62.720
17585DT     BB114203  56.142  16.781  63.253
17585DT     BB214204  55.899  17.003  63.398
17585DT     BB314205  55.729  16.897  63.451
17585DT     SC114206  55.653  16.878  63.201
17585DT     SC214207  55.478  16.999  63.169
17585DT     SC314208  55.590  16.770  62.968
17586DT     BB114209  55.802  16.938  63.705
17586DT     BB214210  55.473  17.084  63.677
17586DT     BB314211  55.329  16.939  63.704
17586DT     SC114212  55.373  16.839  63.465
17586DT     SC214213  55.204  16.878  63.339
17586DT     SC314214  55.442  16.667  63.277
17587DG     BB114215  55.280  17.249  63.962
17587DG     BB214216  54.978  17.178  63.776
17587DG     BB314217  54.891  17.014  63.847
17587DG     SC114218  55.042  16.823  63.661
17587DG     SC214219  54.921  16.660  63.442
17587DG     SC314220  55.204  16.584  63.487
17587DG     SC414221  55.184  16.765  63.708
17588DT     BB114222  54.708  17.049  63.913
17588DT     BB214223  54.504  16.894  63.659
17588DT     BB314224  54.449  16.704  63.719
17588DT     SC114225  54.689  16.611  63.671
17588DT     SC214226  54.682  16.479  63.501
17588DT     SC314227  54.926  16.503  63.712
17589DT     BB114228  54.221  16.825  63.724
17589DT     BB214229  54.179  16.544  63.501
17589DT     BB314230  54.155  16.370  63.610
17589DT     SC114231  54.410  16.364  63.671
17589DT     SC214232  54.504  16.200  63.568
17589DT     SC314233  54.632  16.368  63.814
17590DG     BB114234  53.857  16.432  63.339
17590DG     BB214235  53.993  16.098  63.318
17590DG     BB314236  53.935  15.991  63.475
17590DG     SC114237  54.174  16.070  63.649
17590DG     SC214238  54.391  15.887  63.742
17590DG     SC314239  54.413  16.152  63.873
17590DG     SC414240  54.165  16.202  63.738
17591DA     BB114241  53.844  15.756  63.234
17591DA     BB214242  54.046  15.503  63.404
17591DA     BB314243  53.955  15.447  63.589
17591DA     SC114244  54.104  15.662  63.757
17591DA     SC214245  54.283  15.668  63.931
17591DA     SC314246  54.191  15.901  63.987
17591DA     SC414247  54.032  15.804  63.777
17592DC     BB114248  53.870  15.256  63.619
17592DC     BB214249  54.112  15.127  63.853
17592DC     BB314250  54.032  15.126  64.044
17592DC     SC114251  54.059  15.386  64.065
17592DC     SC214252  54.212  15.432  64.209
17592DC     SC314253  53.995  15.641  64.090
17593DT     BB114254  53.967  14.841  64.076
17593DT     BB214255  54.162  14.909  64.372
17593DT     BB314256  54.037  14.957  64.529
17593DT     SC114257  53.990  15.195  64.430
17593DT     SC214258  54.083  15.344  64.554
17593DT     SC314259  53.859  15.400  64.326
17594DA     BB114260  54.230  14.629  64.720
17594DA     BB214261  54.242  14.906  64.959
17594DA     BB314262  54.056  14.922  65.063
17594DA     SC114263  53.931  15.120  64.858
17594DA     SC214264  53.864  15.361  64.851
17594DA     SC314265  53.717  15.292  64.652
17594DA     SC414266  53.845  15.058  64.738
17595DA     BB114267  54.206  14.891  65.366
17595DA     BB214268  54.097  15.232  65.444
17595DA     BB314269  53.898  15.231  65.522
17595DA     SC114270  53.763  15.264  65.243
17595DA     SC214271  53.636  15.440  65.120
17595DA     SC314272  53.552  15.247  64.973
17595DA     SC414273  53.721  15.131  65.164
17596DC     BB114274  53.841  15.285  65.735
17596DC     BB214275  53.711  15.612  65.655
17596DC     BB314276  53.506  15.616  65.683
17596DC     SC114277  53.466  15.477  65.464
17596DC     SC214278  53.373  15.603  65.316
17596DC     SC314279  53.392  15.279  65.305
17597DT     BB114280  53.534  15.773  65.907
17597DT     BB214281  53.326  15.967  65.685
17597DT     BB314282  53.127  15.921  65.716
17597DT     SC114283  53.153  15.691  65.591
17597DT     SC214284  53.046  15.698  65.405
17597DT     SC314285  53.158  15.431  65.549
17598DA     BB114286  53.183  16.335  65.724
17598DA     BB214287  52.905  16.262  65.498
17598DA     BB314288  52.733  16.201  65.608
17598DA     SC114289  52.804  15.898  65.599
17598DA     SC214290  52.717  15.691  65.490
17598DA     SC314291  52.846  15.565  65.673
17598DA     SC414292  52.890  15.838  65.721
17599DA     BB114293  52.624  16.439  65.415
17599DA     BB214294  52.394  16.190  65.277
17599DA     BB314295  52.242  16.142  65.419
17599DA     SC114296  52.401  15.907  65.547
17599DA     SC214297  52.386  15.659  65.557
17599DA     SC314298  52.536  15.678  65.763
17599DA     SC414299  52.493  15.940  65.674
17600DT     BB114300  52.067  16.195  65.366
17600DT     BB214301  51.937  15.865  65.296
17600DT     BB314302  51.819  15.801  65.453
17600DT     SC114303  52.030  15.755  65.603
17600DT     SC214304  52.053  15.543  65.630
17600DT     SC314305  52.202  15.774  65.802
17601DT     BB114306  51.597  15.836  65.300
17601DT     BB214307  51.577  15.492  65.409
17601DT     BB314308  51.483  15.482  65.593
17601DT     SC114309  51.695  15.573  65.716
17601DT     SC214310  51.782  15.416  65.834
17601DT     SC314311  51.851  15.732  65.858
17602DT     BB114312  51.256  15.378  65.479
17602DT     BB214313  51.345  15.138  65.733
17602DT     BB314314  51.260  15.192  65.914
17602DT     SC114315  51.435  15.385  65.947
17602DT     SC214316  51.568  15.334  66.109
17602DT     SC314317  51.534  15.628  65.975
17603DA     BB114318  51.132  14.795  65.860
17603DA     BB214319  51.263  14.821  66.201
17603DA     BB314320  51.123  14.922  66.327
17603DA     SC114321  51.242  15.204  66.272
17603DA     SC214322  51.370  15.378  66.398
17603DA     SC314323  51.286  15.541  66.218
17603DA     SC414324  51.179  15.290  66.152
17604DA     BB114325  51.131  14.657  66.529
17604DA     BB214326  51.263  14.877  66.792
17604DA     BB314327  51.104  14.986  66.883
17604DA     SC114328  51.124  15.227  66.688
17604DA     SC214329  51.196  15.466  66.696
17604DA     SC314330  51.057  15.494  66.482
17604DA     SC414331  51.032  15.225  66.556
17605DT     BB114332  51.038  14.957  67.093
17605DT     BB214333  51.188  15.258  67.223
17605DT     BB314334  51.041  15.394  67.273
17605DT     SC114335  50.996  15.451  67.021
17605DT     SC214336  51.064  15.651  66.980
17605DT     SC314337  50.871  15.473  66.790
17606DT     BB114338  51.074  15.358  67.548
17606DT     BB214339  51.130  15.711  67.498
17606DT     BB314340  50.951  15.814  67.518
17606DT     SC114341  50.869  15.730  67.283
17606DT     SC214342  50.864  15.896  67.146
17606DT     SC314343  50.723  15.608  67.100
17607DT     BB114344  51.038  15.915  67.754
17607DT     BB214345  50.969  16.204  67.549
17607DT     BB314346  50.770  16.258  67.567
17607DT     SC114347  50.694  16.056  67.417
17607DT     SC214348  50.621  16.131  67.229
17607DT     SC314349  50.577  15.831  67.345
17608DA     BB114350  51.017  16.590  67.626
17608DA     BB214351  50.757  16.682  67.384
17608DA     BB314352  50.568  16.701  67.481
17608DA     SC114353  50.488  16.404  67.437
17608DA     SC214354  50.323  16.275  67.301
17608DA     SC314355  50.361  16.086  67.471
17608DA     SC414356  50.524  16.299  67.554
17609DC     BB114357  50.506  16.874  67.473
17609DC     BB214358  50.245  16.818  67.230
17609DC     BB314359  50.062  16.801  67.326
17609DC     SC114360  50.121  16.559  67.410
17609DC     SC214361  49.998  16.416  67.308
17609DC     SC314362  50.173  16.360  67.575
17610DA     BB114363  50.035  17.075  67.009
17610DA     BB214364  49.749  16.847  66.988
17610DA     BB314365  49.612  16.885  67.147
17610DA     SC114366  49.744  16.682  67.342
17610DA     SC214367  49.688  16.461  67.445
17610DA     SC314368  49.866  16.521  67.620
17610DA     SC414369  49.857  16.738  67.442
17611DA     BB114370  49.406  16.903  66.890
17611DA     BB214371  49.216  16.631  67.047
17611DA     BB314372  49.109  16.704  67.217
17611DA     SC114373  49.338  16.645  67.419
17611DA     SC214374  49.382  16.487  67.606
17611DA     SC314375  49.560  16.656  67.680
17611DA     SC414376  49.443  16.763  67.449
17612DA     BB114377  48.851  16.568  67.060
17612DA     BB214378  48.805  16.358  67.357
17612DA     BB314379  48.719  16.471  67.516
17612DA     SC114380  48.994  16.557  67.635
17612DA     SC214381  49.129  16.510  67.838
17612DA     SC314382  49.251  16.729  67.783
17612DA     SC414383  49.056  16.696  67.584
17613DA     BB114384  48.478  16.241  67.527
17613DA     BB214385  48.581  16.170  67.872
17613DA     BB314386  48.503  16.318  68.005
17613DA     SC114387  48.752  16.504  67.982
17613DA     SC214388  48.941  16.578  68.126
17613DA     SC314389  48.962  16.774  67.962
17613DA     SC414390  48.748  16.619  67.869
17614DA     BB114391  48.362  16.071  68.180
17614DA     BB214392  48.571  16.171  68.464
17614DA     BB314393  48.485  16.338  68.564
17614DA     SC114394  48.637  16.549  68.394
17614DA     SC214395  48.820  16.716  68.426
17614DA     SC314396  48.728  16.828  68.215
17614DA     SC414397  48.564  16.605  68.262
17615DC     BB114398  48.402  16.329  68.768
17615DC     BB214399  48.678  16.498  68.927
17615DC     BB314400  48.620  16.686  68.990
17615DC     SC114401  48.624  16.778  68.744
17615DC     SC214402  48.787  16.917  68.723
17615DC     SC314403  48.541  16.880  68.515
17616DT     BB114404  48.620  16.610  69.254
17616DT     BB214405  48.853  16.885  69.239
17616DT     BB314406  48.753  17.064  69.269
17616DT     SC114407  48.650  17.056  69.027
17616DT     SC214408  48.739  17.210  68.907
17616DT     SC314409  48.471  17.042  68.834
17617DA     BB114410  49.085  17.040  69.522
17617DA     BB214411  49.096  17.362  69.347
17617DA     BB314412  48.945  17.492  69.422
17617DA     SC114413  48.730  17.402  69.216
17617DA     SC214414  48.612  17.497  69.018
17617DA     SC314415  48.437  17.314  69.059
17617DA     SC414416  48.632  17.282  69.259
17618DT     BB114417  49.022  17.637  69.501
17618DT     BB214418  48.943  17.876  69.242
17618DT     BB314419  48.774  17.983  69.294
17618DT     SC114420  48.617  17.780  69.241
17618DT     SC214421  48.501  17.823  69.065
17618DT     SC314422  48.445  17.583  69.276
17619DA     BB114423  49.089  18.230  69.164
17619DA     BB214424  48.781  18.334  68.994
17619DA     BB314425  48.646  18.423  69.133
17619DA     SC114426  48.503  18.156  69.204
17619DA     SC214427  48.280  18.051  69.167
17619DA     SC314428  48.342  17.899  69.365
17619DA     SC414429  48.559  18.073  69.330
17620DT     BB114430  48.619  18.599  69.094
17620DT     BB214431  48.279  18.572  68.975
17620DT     BB314432  48.147  18.621  69.127
17620DT     SC114433  48.189  18.392  69.248
17620DT     SC214434  48.013  18.270  69.235
17620DT     SC314435  48.263  18.219  69.434
17621DT     BB114436  48.091  18.855  69.002
17621DT     BB214437  47.768  18.702  69.051
17621DT     BB314438  47.696  18.749  69.239
17621DT     SC114439  47.862  18.582  69.354
17621DT     SC214440  47.751  18.416  69.434
17621DT     SC314441  48.058  18.493  69.505
17622DT     BB114442  47.510  18.927  69.138
17622DT     BB214443  47.314  18.699  69.338
17622DT     BB314444  47.307  18.765  69.534
17622DT     SC114445  47.554  18.688  69.577
17622DT     SC214446  47.554  18.520  69.711
17622DT     SC314447  47.811  18.701  69.632
17623DA     BB114448  46.899  18.723  69.437
17623DA     BB214449  46.952  18.553  69.758
17623DA     BB314450  46.970  18.696  69.915
17623DA     SC114451  47.279  18.721  69.891
17623DA     SC214452  47.481  18.658  70.024
17623DA     SC314453  47.603  18.835  69.885
17623DA     SC414454  47.337  18.837  69.795
17624DG     BB114455  46.713  18.570  70.050
17624DG     BB214456  46.947  18.477  70.310
17624DG     BB314457  46.967  18.626  70.440
17624DG     SC114458  47.198  18.760  70.290
17624DG     SC214459  47.479  18.783  70.386
17624DG     SC314460  47.438  18.943  70.141
17624DG     SC414461  47.165  18.867  70.175
17625DG     BB114462  46.866  18.429  70.684
17625DG     BB214463  47.197  18.474  70.825
17625DG     BB314464  47.202  18.641  70.933
17625DG     SC114465  47.285  18.819  70.698
17625DG     SC214466  47.548  18.959  70.669
17625DG     SC314467  47.357  19.047  70.461
17625DG     SC414468  47.172  18.886  70.607
17626DA     BB114469  47.332  18.438  71.180
17626DA     BB214470  47.637  18.643  71.185
17626DA     BB314471  47.600  18.827  71.285
17626DA     SC114472  47.517  18.979  71.027
17626DA     SC214473  47.609  19.160  70.881
17626DA     SC314474  47.368  19.188  70.798
17626DA     SC414475  47.361  18.982  70.989
17627DG     BB114476  47.826  18.717  71.465
17627DG     BB214477  48.003  19.006  71.340
17627DG     BB314478  47.946  19.169  71.440
17627DG     SC114479  47.717  19.235  71.248
17627DG     SC214480  47.702  19.473  71.068
17627DG     SC314481  47.445  19.327  71.070
17627DG     SC414482  47.572  19.172  71.275
17628DA     BB114483  48.286  19.219  71.485
17628DA     BB214484  48.258  19.545  71.318
17628DA     BB314485  48.163  19.686  71.447
17628DA     SC114486  47.876  19.623  71.345
17628DA     SC214487  47.699  19.735  71.210
17628DA     SC314488  47.538  19.568  71.319
17628DA     SC414489  47.792  19.511  71.424
17629DG     BB114490  48.430  19.847  71.421
17629DG     BB214491  48.215  20.092  71.263
17629DG     BB314492  48.124  20.201  71.402
17629DG     SC114493  47.882  20.015  71.424
17629DG     SC214494  47.602  20.080  71.343
17629DG     SC314495  47.612  19.823  71.489
17629DG     SC414496  47.887  19.893  71.528
17630DT     BB114497  48.154  20.432  71.433
17630DT     BB214498  47.846  20.561  71.295
17630DT     BB314499  47.721  20.624  71.448
17630DT     SC114500  47.662  20.377  71.514
17630DT     SC214501  47.457  20.337  71.463
17630DT     SC314502  47.643  20.156  71.656
17631DT     BB114503  47.761  20.899  71.400
17631DT     BB214504  47.404  20.857  71.375
17631DT     BB314505  47.316  20.886  71.560
17631DT     SC114506  47.400  20.653  71.646
17631DT     SC214507  47.232  20.521  71.669
17631DT     SC314508  47.529  20.473  71.789
17632DT     BB114509  47.211  21.127  71.482
17632DT     BB214510  46.924  20.931  71.579
17632DT     BB314511  46.889  20.953  71.782
17632DT     SC114512  47.093  20.799  71.842
17632DT     SC214513  47.021  20.614  71.925
17632DT     SC314514  47.326  20.723  71.939
17633DA     BB114515  46.530  21.032  71.582
17633DA     BB214516  46.460  20.788  71.847
17633DA     BB314517  46.464  20.882  72.038
17633DA     SC114518  46.767  20.830  72.085
17633DA     SC214519  46.908  20.688  72.234
17633DA     SC314520  47.096  20.854  72.178
17633DA     SC414521  46.870  20.944  72.040
17634DT     BB114522  46.294  20.886  72.133
17634DT     BB214523  46.375  20.629  72.373
17634DT     BB314524  46.420  20.715  72.556
17634DT     SC114525  46.654  20.796  72.469
17634DT     SC214526  46.809  20.684  72.567
17634DT     SC314527  46.851  20.958  72.399
17635DG     BB114528  46.117  20.448  72.603
17635DG     BB214529  46.390  20.383  72.831
17635DG     BB314530  46.387  20.513  72.980
17635DG     SC114531  46.564  20.719  72.838
17635DG     SC214532  46.840  20.798  72.919
17635DG     SC314533  46.739  20.974  72.704
17635DG     SC414534  46.495  20.828  72.744
17636DA     BB114535  46.407  20.228  73.171
17636DA     BB214536  46.719  20.352  73.317
17636DA     BB314537  46.680  20.510  73.454
17636DA     SC114538  46.704  20.734  73.240
17636DA     SC214539  46.862  20.920  73.185
17636DA     SC314540  46.665  21.020  73.054
17636DA     SC414541  46.570  20.781  73.166
17637DG     BB114542  46.821  20.307  73.636
17637DG     BB214543  47.068  20.571  73.655
17637DG     BB314544  47.006  20.712  73.781
17637DG     SC114545  46.860  20.874  73.567
17637DG     SC214546  46.936  21.146  73.471
17637DG     SC314547  46.672  21.066  73.362
17637DG     SC414548  46.707  20.840  73.535
17638DT     BB114549  47.128  20.744  73.943
17638DT     BB214550  47.282  21.060  73.860
17638DT     BB314551  47.185  21.214  73.958
17638DT     SC114552  46.980  21.199  73.794
17638DT     SC214553  46.976  21.375  73.669
17638DT     SC314554  46.734  21.162  73.707
17639DT     BB114555  47.406  21.229  74.099
17639DT     BB214556  47.361  21.558  73.957
17639DT     BB314557  47.227  21.667  74.071
17639DT     SC114558  47.024  21.529  73.977
17639DT     SC214559  46.905  21.656  73.850
17639DT     SC314560  46.815  21.369  73.970
17640DG     BB114561  47.579  21.869  74.034
17640DG     BB214562  47.295  22.075  73.947
17640DG     BB314563  47.198  22.130  74.112
17640DG     SC114564  47.011  21.887  74.113
17640DG     SC214565  46.716  21.892  74.068
17640DG     SC314566  46.805  21.624  74.156
17640DG     SC414567  47.058  21.754  74.188
17641DA     BB114568  47.224  22.452  73.983
17641DA     BB214569  46.859  22.486  73.995
17641DA     BB314570  46.793  22.510  74.196
17641DA     SC114571  46.754  22.206  74.245
17641DA     SC214572  46.565  22.047  74.279
17641DA     SC314573  46.740  21.892  74.383
17641DA     SC414574  46.878  22.124  74.308
17642DA     BB114575  46.646  22.778  74.069
17642DA     BB214576  46.328  22.634  74.179
17642DA     BB314577  46.308  22.652  74.391
17642DA     SC114578  46.440  22.377  74.451
17642DA     SC214579  46.369  22.153  74.537
17642DA     SC314580  46.618  22.118  74.590
17642DA     SC414581  46.598  22.374  74.478
17643DG     BB114582  46.050  22.829  74.342
17643DG     BB214583  45.881  22.558  74.512
17643DG     BB314584  45.893  22.583  74.709
17643DG     SC114585  46.156  22.428  74.738
17643DG     SC214586  46.191  22.168  74.879
17643DG     SC314587  46.452  22.282  74.803
17643DG     SC414588  46.294  22.507  74.722
17644DT     BB114589  45.711  22.623  74.858
17644DT     BB214590  45.684  22.301  75.020
17644DT     BB314591  45.755  22.314  75.214
17644DT     SC114592  46.004  22.321  75.131
17644DT     SC214593  46.103  22.138  75.185
17644DT     SC314594  46.248  22.410  75.087
17645DA     BB114595  45.369  22.156  75.269
17645DA     BB214596  45.600  21.944  75.459
17645DA     BB314597  45.658  22.041  75.640
17645DA     SC114598  45.907  22.180  75.515
17645DA     SC214599  46.155  22.163  75.530
17645DA     SC314600  46.157  22.400  75.433
17645DA     SC414601  45.887  22.328  75.455
17646DA     BB114602  45.549  21.769  75.798
17646DA     BB214603  45.894  21.716  75.911
17646DA     BB314604  45.937  21.841  76.078
17646DA     SC114605  46.043  22.077  75.905
17646DA     SC214606  46.262  22.188  75.858
17646DA     SC314607  46.121  22.387  75.779
17646DA     SC414608  45.938  22.191  75.862
17647DT     BB114609  45.975  21.762  76.277
17647DT     BB214610  46.333  21.810  76.268
17647DT     BB314611  46.387  21.963  76.396
17647DT     SC114612  46.296  22.145  76.230
17647DT     SC214613  46.461  22.254  76.147
17647DT     SC314614  46.149  22.341  76.133
17648DC     BB114615  46.497  21.783  76.569
17648DC     BB214616  46.769  22.003  76.478
17648DC     BB314617  46.773  22.166  76.604
17648DC     SC114618  46.564  22.273  76.486
17648DC     SC214619  46.625  22.448  76.377
17648DC     SC314620  46.320  22.367  76.450
17649DA     BB114621  47.150  21.989  76.576
17649DA     BB214622  47.186  22.348  76.512
17649DA     BB314623  47.159  22.459  76.693
17649DA     SC114624  46.852  22.494  76.654
17649DA     SC214625  46.693  22.679  76.604
17649DA     SC314626  46.513  22.524  76.703
17649DA     SC414627  46.756  22.384  76.721
17650DA     BB114628  47.434  22.554  76.550
17650DA     BB214629  47.277  22.885  76.538
17650DA     BB314630  47.258  22.966  76.735
17650DA     SC114631  46.974  22.847  76.781
17650DA     SC214632  46.740  22.930  76.803
17650DA     SC314633  46.692  22.706  76.918
17650DA     SC414634  46.965  22.702  76.852
17651DA     BB114635  47.396  23.186  76.537
17651DA     BB214636  47.113  23.400  76.628
17651DA     BB314637  47.123  23.453  76.835
17651DA     SC114638  46.954  23.210  76.931
17651DA     SC214639  46.728  23.169  77.028
17651DA     SC314640  46.825  22.945  77.107
17651DA     SC414641  47.034  23.076  76.973
17652DC     BB114642  47.140  23.621  76.830
17652DC     BB214643  46.813  23.705  76.957
17652DC     BB314644  46.820  23.721  77.163
17652DC     SC114645  46.832  23.461  77.192
17652DC     SC214646  46.648  23.389  77.277
17652DC     SC314647  46.925  23.222  77.256
17653DA     BB114648  46.631  24.059  76.998
17653DA     BB214649  46.429  23.941  77.280
17653DA     BB314650  46.531  23.978  77.464
17653DA     SC114651  46.676  23.703  77.468
17653DA     SC214652  46.667  23.491  77.600
17653DA     SC314653  46.903  23.449  77.509
17653DA     SC414654  46.822  23.695  77.403
17654DA     BB114655  46.243  24.123  77.535
17654DA     BB214656  46.216  23.890  77.816
17654DA     BB314657  46.351  23.946  77.972
17654DA     SC114658  46.584  23.770  77.865
17654DA     SC214659  46.706  23.563  77.933
17654DA     SC314660  46.892  23.646  77.778
17654DA     SC414661  46.689  23.839  77.765
17655DA     BB114662  46.077  23.939  78.157
17655DA     BB214663  46.241  23.680  78.358
17655DA     BB314664  46.389  23.767  78.485
17655DA     SC114665  46.619  23.735  78.279
17655DA     SC214666  46.826  23.598  78.253
17655DA     SC314667  46.901  23.779  78.087
17655DA     SC414668  46.648  23.858  78.180
17656DG     BB114669  46.220  23.653  78.723
17656DG     BB214670  46.516  23.455  78.783
17656DG     BB314671  46.648  23.560  78.888
17656DG     SC114672  46.786  23.679  78.641
17656DG     SC214673  47.066  23.622  78.553
17656DG     SC314674  46.948  23.843  78.395
17656DG     SC414675  46.730  23.815  78.580
17657DG     BB114676  46.644  23.329  79.123
17657DG     BB214677  46.995  23.279  79.050
17657DG     BB314678  47.104  23.414  79.147
17657DG     SC114679  47.094  23.621  78.922
17657DG     SC214680  47.326  23.713  78.757
17657DG     SC314681  47.087  23.879  78.705
17657DG     SC414682  46.973  23.726  78.919
17658DT     BB114683  47.253  23.354  79.302
17658DT     BB214684  47.565  23.407  79.129
17658DT     BB314685  47.654  23.582  79.195
17658DT     SC114686  47.483  23.729  79.062
17658DT     SC214687  47.585  23.827  78.899
17658DT     SC314688  47.291  23.903  79.013
17659DA     BB114689  47.949  23.284  79.232
17659DA     BB214690  48.102  23.571  79.063
17659DA     BB314691  48.137  23.729  79.203
17659DA     SC114692  47.860  23.864  79.156
17659DA     SC214693  47.772  24.073  79.052
17659DA     SC314694  47.562  24.031  79.193
17659DA     SC414695  47.739  23.821  79.252
17660DT     BB114696  48.335  23.792  79.261
17660DT     BB214697  48.338  24.102  79.077
17660DT     BB314698  48.321  24.262  79.207
17660DT     SC114699  48.066  24.215  79.244
17660DT     SC214700  47.950  24.372  79.153
17660DT     SC314701  47.840  24.154  79.366
17661DG     BB114702  48.686  24.341  79.034
17661DG     BB214703  48.470  24.630  79.012
17661DG     BB314704  48.476  24.733  79.182
17661DG     SC114705  48.245  24.579  79.311
17661DG     SC214706  47.977  24.691  79.380
17661DG     SC314707  48.009  24.418  79.491
17661DG     SC414708  48.277  24.446  79.394
17662DA     BB114709  48.559  25.031  79.014
17662DA     BB214710  48.250  25.190  79.133
17662DA     BB314711  48.275  25.260  79.333
17662DA     SC114712  48.176  24.996  79.464
17662DA     SC214713  47.978  24.917  79.594
17662DA     SC314714  48.130  24.725  79.671
17662DA     SC414715  48.286  24.885  79.502
17663DA     BB114716  48.177  25.547  79.205
17663DA     BB214717  47.887  25.529  79.430
17663DA     BB314718  47.944  25.584  79.628
17663DA     SC114719  48.014  25.294  79.715
17663DA     SC214720  47.923  25.119  79.868
17663DA     SC314721  48.158  25.017  79.858
17663DA     SC414722  48.167  25.246  79.697
17664DA     BB114723  47.695  25.797  79.595
17664DA     BB214724  47.534  25.627  79.876
17664DA     BB314725  47.624  25.686  80.061
17664DA     SC114726  47.835  25.457  80.059
17664DA     SC214727  47.882  25.249  80.187
17664DA     SC314728  48.120  25.270  80.094
17664DA     SC414729  47.978  25.489  79.992
17665DT     BB114730  47.516  25.798  80.202
17665DT     BB214731  47.462  25.529  80.437
17665DT     BB314732  47.582  25.556  80.603
17665DT     SC114733  47.796  25.481  80.471
17665DT     SC214734  47.862  25.290  80.545
17665DT     SC314735  48.033  25.491  80.357
17666DC     BB114736  47.371  25.635  80.770
17666DC     BB214737  47.516  25.353  80.941
17666DC     BB314738  47.664  25.417  81.071
17666DC     SC114739  47.830  25.462  80.873
17666DC     SC214740  47.990  25.318  80.880
17666DC     SC314741  47.987  25.591  80.705
17667DA     BB114742  47.409  25.189  81.314
17667DA     BB214743  47.751  25.068  81.370
17667DA     BB314744  47.858  25.204  81.495
17667DA     SC114745  47.969  25.373  81.258
17667DA     SC214746  48.189  25.414  81.148
17667DA     SC314747  48.080  25.627  81.056
17667DA     SC414748  47.884  25.501  81.212
17668DA     BB114749  47.908  24.937  81.677
17668DA     BB214750  48.265  24.976  81.603
17668DA     BB314751  48.350  25.127  81.727
17668DA     SC114752  48.295  25.358  81.526
17668DA     SC214753  48.427  25.508  81.377
17668DA     SC314754  48.220  25.660  81.381
17668DA     SC414755  48.157  25.439  81.542
17669DA     BB114756  48.541  24.872  81.774
17669DA     BB214757  48.807  25.076  81.626
17669DA     BB314758  48.873  25.224  81.764
17669DA     SC114759  48.671  25.440  81.668
17669DA     SC214760  48.677  25.657  81.545
17669DA     SC314761  48.447  25.699  81.650
17669DA     SC414762  48.529  25.448  81.744
17670DA     BB114763  49.107  25.052  81.624
17670DA     BB214764  49.222  25.377  81.497
17670DA     BB314765  49.286  25.501  81.659
17670DA     SC114766  49.006  25.630  81.703
17670DA     SC214767  48.899  25.852  81.670
17670DA     SC314768  48.723  25.770  81.839
17670DA     SC414769  48.908  25.561  81.810
17671DA     BB114770  49.457  25.472  81.371
17671DA     BB214771  49.429  25.837  81.370
17671DA     BB314772  49.513  25.919  81.548
17671DA     SC114773  49.246  25.911  81.707
17671DA     SC214774  49.080  26.074  81.797
17671DA     SC314775  49.007  25.883  81.951
17671DA     SC414776  49.216  25.780  81.795
17672DA     BB114777  49.577  26.063  81.244
17672DA     BB214778  49.472  26.367  81.419
17672DA     BB314779  49.590  26.397  81.594
17672DA     SC114780  49.397  26.238  81.780
17672DA     SC214781  49.239  26.287  81.967
17672DA     SC314782  49.263  26.038  82.025
17672DA     SC414783  49.427  26.081  81.801
17673DC     BB114784  49.668  26.541  81.561
17673DC     BB214785  49.510  26.744  81.815
17673DC     BB314786  49.617  26.731  81.992
17673DC     SC114787  49.524  26.490  82.039
17673DC     SC214788  49.389  26.497  82.206
17673DC     SC314789  49.519  26.229  82.078
17674DT     BB114790  49.703  26.980  81.949
17674DT     BB214791  49.567  26.989  82.283
17674DT     BB314792  49.709  26.922  82.419
17674DT     SC114793  49.675  26.673  82.344
17674DT     SC214794  49.579  26.563  82.503
17674DT     SC314795  49.728  26.435  82.245
17675DC     BB114796  49.763  27.177  82.518
17675DC     BB214797  49.685  26.986  82.814
17675DC     BB314798  49.857  26.898  82.888
17675DC     SC114799  49.858  26.718  82.697
17675DC     SC214800  49.811  26.525  82.780
17675DC     SC314801  49.936  26.581  82.486
17676DA     BB114802  49.711  27.107  83.223
17676DA     BB214803  49.791  26.767  83.335
17676DA     BB314804  50.001  26.744  83.357
17676DA     SC114805  50.045  26.645  83.065
17676DA     SC214806  50.107  26.433  82.950
17676DA     SC314807  50.171  26.583  82.752
17676DA     SC414808  50.081  26.755  82.954
17677DT     BB114809  50.100  26.716  83.549
17677DT     BB214810  50.174  26.365  83.509
17677DT     BB314811  50.377  26.339  83.480
17677DT     SC114812  50.361  26.427  83.233
17677DT     SC214813  50.395  26.265  83.097
17677DT     SC314814  50.399  26.580  83.022
17678DG     BB114815  50.297  26.120  83.817
17678DG     BB214816  50.472  25.920  83.571
17678DG     BB314817  50.666  25.959  83.578
17678DG     SC114818  50.652  26.186  83.372
17678DG     SC214819  50.773  26.182  83.099
17678DG     SC314820  50.671  26.452  83.165
17678DG     SC414821  50.623  26.335  83.423
17679DT     BB114822  50.832  25.805  83.638
17679DT     BB214823  50.978  25.731  83.316
17679DT     BB314824  51.164  25.822  83.300
17679DT     SC114825  51.054  26.058  83.266
17679DT     SC214826  51.087  26.123  83.063
17679DT     SC314827  50.987  26.309  83.309
17680DG     BB114828  51.257  25.425  83.255
17680DG     BB214829  51.394  25.620  82.984
17680DG     BB314830  51.565  25.705  83.041
17680DG     SC114831  51.431  25.959  83.146
17680DG     SC214832  51.460  26.233  83.031
17680DG     SC314833  51.317  26.242  83.289
17680DG     SC414834  51.381  25.964  83.298
17681DA     BB114835  51.747  25.569  82.769
17681DA     BB214836  51.824  25.906  82.645
17681DA     BB314837  51.991  25.987  82.752
17681DA     SC114838  51.816  26.121  82.972
17681DA     SC214839  51.752  26.352  83.042
17681DA     SC314840  51.694  26.245  83.268
17681DA     SC414841  51.787  26.036  83.105
17682DT     BB114842  52.183  26.027  82.658
17682DT     BB214843  52.142  26.385  82.638
17682DT     BB314844  52.269  26.478  82.773
17682DT     SC114845  52.117  26.409  82.975
17682DT     SC214846  52.021  26.585  83.056
17682DT     SC314847  52.039  26.295  83.200
17683DA     BB114848  52.327  26.652  82.397
17683DA     BB214849  52.270  26.922  82.640
17683DA     BB314850  52.442  26.947  82.764
17683DA     SC114851  52.344  26.747  82.981
17683DA     SC214852  52.263  26.756  83.217
17683DA     SC314853  52.325  26.507  83.226
17683DA     SC414854  52.391  26.594  82.968
17684DA     BB114855  52.381  27.246  82.651
17684DA     BB214856  52.338  27.343  83.001
17684DA     BB314857  52.526  27.346  83.102
17684DA     SC114858  52.508  27.050  83.194
17684DA     SC214859  52.478  26.925  83.408
17684DA     SC314860  52.579  26.725  83.282
17684DA     SC414861  52.574  26.938  83.099
17685DA     BB114862  52.394  27.638  83.167
17685DA     BB214863  52.421  27.544  83.520
17685DA     BB314864  52.625  27.542  83.581
17685DA     SC114865  52.668  27.242  83.510
17685DA     SC214866  52.705  27.027  83.631
17685DA     SC314867  52.798  26.941  83.408
17685DA     SC414868  52.723  27.207  83.363
17686DA     BB114869  52.498  27.738  83.813
17686DA     BB214870  52.621  27.495  84.058
17686DA     BB314871  52.833  27.507  84.074
17686DA     SC114872  52.886  27.294  83.854
17686DA     SC214873  52.974  27.060  83.840
17686DA     SC314874  53.016  27.112  83.593
17686DA     SC414875  52.906  27.346  83.703
17687DG     BB114876  52.797  27.585  84.380
17687DG     BB214877  52.976  27.276  84.438
17687DG     BB314878  53.172  27.308  84.425
17687DG     SC114879  53.186  27.250  84.125
17687DG     SC214880  53.325  27.019  83.997
17687DG     SC314881  53.234  27.213  83.793
17687DG     SC414882  53.162  27.370  84.021
17688DG     BB114883  53.269  27.220  84.746
17688DG     BB214884  53.461  26.952  84.598
17688DG     BB314885  53.646  27.015  84.559
17688DG     SC114886  53.578  27.112  84.277
17688DG     SC214887  53.680  26.995  84.022
17688DG     SC314888  53.536  27.248  83.971
17688DG     SC414889  53.526  27.262  84.257
17689DA     BB114890  53.828  26.763  84.746
17689DA     BB214891  53.977  26.632  84.438
17689DA     BB314892  54.154  26.740  84.389
17689DA     SC114893  54.007  26.952  84.215
17689DA     SC214894  53.991  27.013  83.973
17689DA     SC314895  53.907  27.241  84.058
17689DA     SC414896  53.958  27.087  84.287
17690DC     BB114897  54.380  26.659  84.389
17690DC     BB214898  54.391  26.618  84.031
17690DC     BB314899  54.530  26.748  83.949
17690DC     SC114900  54.370  26.953  83.984
17690DC     SC214901  54.301  27.023  83.792
17690DC     SC314902  54.277  27.184  84.073
17691DG     BB114903  54.617  26.366  83.850
17691DG     BB214904  54.563  26.574  83.559
17691DG     BB314905  54.725  26.684  83.523
17691DG     SC114906  54.635  26.918  83.698
17691DG     SC214907  54.562  27.192  83.602
17691DG     SC314908  54.578  27.184  83.898
17691DG     SC414909  54.673  26.918  83.854
17692DA     BB114910  54.614  26.539  83.236
17692DA     BB214911  54.579  26.877  83.097
17692DA     BB314912  54.771  26.968  83.075
17692DA     SC114913  54.770  27.098  83.358
17692DA     SC214914  54.753  27.326  83.456
17692DA     SC314915  54.857  27.221  83.666
17692DA     SC414916  54.836  27.014  83.478
17693DC     BB114917  54.756  26.987  82.918
17693DC     BB214918  54.723  27.346  82.918
17693DC     BB314919  54.910  27.434  82.920
17693DC     SC114920  54.944  27.375  83.174
17693DC     SC214921  54.939  27.555  83.291
17693DC     SC314922  55.046  27.266  83.391
17694DT     BB114923  54.829  27.501  82.683
17694DT     BB214924  54.915  27.810  82.847
17694DT     BB314925  55.121  27.835  82.847
17694DT     SC114926  55.151  27.655  83.035
17694DT     SC214927  55.213  27.752  83.217
17694DT     SC314928  55.226  27.433  83.156
17695DA     BB114929  54.950  28.189  82.695
17695DA     BB214930  55.205  28.283  82.941
17695DA     BB314931  55.401  28.246  82.863
17695DA     SC114932  55.417  27.956  82.975
17695DA     SC214933  55.543  27.834  83.151
17695DA     SC314934  55.480  27.622  83.020
17695DA     SC414935  55.369  27.837  82.879
17696DA     BB114936  55.464  28.566  82.930
17696DA     BB214937  55.730  28.452  83.155
17696DA     BB314938  55.902  28.395  83.043
17696DA     SC114939  55.816  28.098  83.014
17696DA     SC214940  55.888  27.875  83.100
17696DA     SC314941  55.760  27.779  82.900
17696DA     SC414942  55.732  28.058  82.883
17697DT     BB114943  56.096  28.505  83.047
17697DT     BB214944  56.274  28.265  83.249
17697DT     BB314945  56.415  28.167  83.135
17697DT     SC114946  56.231  28.023  83.015
17697DT     SC214947  56.248  27.818  83.079
17697DT     SC314948  56.078  27.925  82.824
17698DA     BB114949  56.620  28.315  83.467
17698DA     BB214950  56.703  27.960  83.435
17698DA     BB314951  56.841  27.930  83.275
17698DA     SC114952  56.620  27.885  83.061
17698DA     SC214953  56.532  27.697  82.923
17698DA     SC314954  56.436  27.880  82.771
17698DA     SC414955  56.570  28.014  82.978
17699DA     BB114956  56.983  27.782  83.526
17699DA     BB214957  56.958  27.474  83.329
17699DA     BB314958  57.100  27.477  83.170
17699DA     SC114959  56.905  27.608  82.966
17699DA     SC214960  56.782  27.542  82.759
17699DA     SC314961  56.766  27.794  82.713
17699DA     SC414962  56.906  27.768  82.955
17700DT     BB114963  57.203  27.344  83.202
17700DT     BB214964  57.087  27.127  82.938
17700DT     BB314965  57.206  27.151  82.770
17700DT     SC114966  57.095  27.382  82.714
17700DT     SC214967  56.975  27.362  82.537
17700DT     SC314968  57.068  27.641  82.673
17701DA     BB114969  57.135  26.748  82.874
17701DA     BB214970  57.089  26.787  82.512
17701DA     BB314971  57.275  26.831  82.418
17701DA     SC114972  57.243  27.139  82.443
17701DA     SC214973  57.204  27.334  82.292
17701DA     SC314974  57.298  27.476  82.484
17701DA     SC414975  57.306  27.210  82.573
17702DT     BB114976  57.315  26.698  82.310
17702DT     BB214977  57.271  26.871  81.997
17702DT     BB314978  57.452  26.949  81.933
17702DT     SC114979  57.441  27.141  82.112
17702DT     SC214980  57.409  27.329  82.013
17702DT     SC314981  57.504  27.290  82.321
17703DA     BB114982  57.304  26.727  81.607
17703DA     BB214983  57.418  27.052  81.480
17703DA     BB314984  57.631  27.061  81.480
17703DA     SC114985  57.649  27.181  81.767
17703DA     SC214986  57.712  27.397  81.873
17703DA     SC314987  57.744  27.260  82.087
17703DA     SC414988  57.665  27.078  81.889
17704DT     BB114989  57.746  27.068  81.301
17704DT     BB214990  57.842  27.415  81.322
17704DT     BB314991  58.042  27.430  81.375
17704DT     SC114992  57.989  27.364  81.624
17704DT     SC214993  58.019  27.535  81.750
17704DT     SC314994  57.989  27.228  81.850
17705DC     BB114995  58.118  27.508  81.122
17705DC     BB214996  58.235  27.774  81.336
17705DC     BB314997  58.425  27.730  81.405
17705DC     SC114998  58.332  27.552  81.573
17705DC     SC214999  58.355  27.624  81.774
17705DC     SC315000  58.289  27.319  81.688
17706DA     BB115001  58.435  28.115  81.240
17706DA     BB215002  58.589  28.130  81.573
17706DA     BB315003  58.781  28.039  81.570
17706DA     SC115004  58.675  27.756  81.645
17706DA     SC215005  58.684  27.601  81.840
17706DA     SC315006  58.623  27.418  81.671
17706DA     SC415007  58.638  27.656  81.524
17707DA     BB115008  58.844  28.331  81.702
17707DA     BB215009  58.962  28.148  81.996
17707DA     BB315010  59.148  28.052  81.954
17707DA     SC115011  59.018  27.787  81.856
17707DA     SC215012  58.998  27.551  81.934
17707DA     SC315013  58.944  27.496  81.690
17707DA     SC415014  58.988  27.773  81.698
17708DC     BB115015  59.291  28.119  82.056
17708DC     BB215016  59.331  27.836  82.275
17708DC     BB315017  59.487  27.717  82.209
17708DC     SC115018  59.342  27.622  82.011
17708DC     SC215019  59.298  27.415  82.048
17708DC     SC315020  59.261  27.570  81.766
17709DC     BB115021  59.640  27.801  82.416
17709DC     BB215022  59.644  27.441  82.443
17709DC     BB315023  59.793  27.363  82.321
17709DC     SC115024  59.650  27.408  82.105
17709DC     SC215025  59.586  27.220  82.022
17709DC     SC315026  59.578  27.507  81.872
17710DT     BB115027  59.983  27.301  82.527
17710DT     BB215028  59.945  26.988  82.352
17710DT     BB315029  60.085  26.974  82.200
17710DT     SC115030  59.953  27.145  82.051
17710DT     SC215031  59.869  27.042  81.882
17710DT     SC315032  59.897  27.363  81.914
17711DA     BB115033  60.202  26.617  82.404
17711DA     BB215034  60.159  26.525  82.052
17711DA     BB315035  60.331  26.580  81.939
17711DA     SC115036  60.225  26.863  81.866
17711DA     SC215037  60.145  26.983  81.663
17711DA     SC315038  60.196  27.197  81.794
17711DA     SC415039  60.265  26.984  81.963
17712DT     BB115040  60.502  26.437  81.827
17712DT     BB215041  60.367  26.484  81.496
17712DT     BB315042  60.503  26.587  81.378
17712DT     SC115043  60.449  26.813  81.501
17712DT     SC215044  60.345  26.944  81.366
17712DT     SC315045  60.483  27.031  81.646
17713DG     BB115046  60.448  26.234  81.180
17713DG     BB215047  60.373  26.517  80.968
17713DG     BB315048  60.541  26.592  80.892
17713DG     SC115049  60.587  26.787  81.123
17713DG     SC215050  60.576  27.085  81.106
17713DG     SC315051  60.680  26.998  81.369
17713DG     SC415052  60.670  26.738  81.251
17714DA     BB115053  60.371  26.560  80.597
17714DA     BB215054  60.393  26.923  80.550
17714DA     BB315055  60.590  26.978  80.489
17714DA     SC115056  60.693  27.021  80.780
17714DA     SC215057  60.763  27.213  80.924
17714DA     SC315058  60.884  27.036  81.065
17714DA     SC415059  60.763  26.897  80.853
17715DT     BB115060  60.586  27.050  80.322
17715DT     BB215061  60.634  27.393  80.423
17715DT     BB315062  60.833  27.446  80.400
17715DT     SC115063  60.902  27.309  80.613
17715DT     SC215064  60.961  27.444  80.769
17715DT     SC315065  61.018  27.125  80.762
17716DT     BB115066  60.741  27.597  80.205
17716DT     BB215067  60.909  27.823  80.430
17716DT     BB315068  61.113  27.821  80.395
17716DT     SC115069  61.138  27.587  80.511
17716DT     SC215070  61.245  27.611  80.696
17716DT     SC315071  61.189  27.330  80.544
17717DG     BB115072  60.974  28.203  80.360
17717DG     BB215073  61.255  28.182  80.587
17717DG     BB315074  61.424  28.162  80.484
17717DG     SC115075  61.414  27.856  80.479
17717DG     SC215076  61.605  27.673  80.618
17717DG     SC315077  61.425  27.522  80.438
17717DG     SC415078  61.336  27.783  80.360
17718DC     BB115079  61.574  28.314  80.501
17718DC     BB215080  61.821  28.150  80.707
17718DC     BB315081  61.977  28.083  80.589
17718DC     SC115082  61.832  27.885  80.496
17718DC     SC215083  61.907  27.699  80.573
17718DC     SC315084  61.701  27.732  80.326
17719DA     BB115085  62.135  28.305  80.908
17719DA     BB215086  62.316  27.986  80.889
17719DA     BB315087  62.445  27.984  80.720
17719DA     SC115088  62.233  27.861  80.529
17719DA     SC215089  62.194  27.645  80.411
17719DA     SC315090  62.039  27.780  80.257
17719DA     SC415091  62.142  27.962  80.443
17720DT     BB115092  62.628  27.976  80.765
17720DT     BB215093  62.679  27.631  80.674
17720DT     BB315094  62.772  27.619  80.489
17720DT     SC115095  62.550  27.684  80.365
17720DT     SC215096  62.476  27.514  80.256
17720DT     SC315097  62.378  27.820  80.218
17721DC     BB115098  62.975  27.533  80.630
17721DC     BB215099  62.904  27.271  80.392
17721DC     BB315100  62.989  27.316  80.209
17721DC     SC115101  62.806  27.497  80.159
17721DC     SC215102  62.679  27.428  80.000
17721DC     SC315103  62.694  27.731  80.112
17722DT     BB115104  63.143  27.115  80.273
17722DT     BB215105  62.994  27.029  79.955
17722DT     BB315106  63.094  27.126  79.802
17722DT     SC115107  62.981  27.355  79.863
17722DT     SC215108  62.842  27.410  79.708
17722DT     SC315109  62.955  27.606  79.940
17723DT     BB115110  63.191  26.887  79.735
17723DT     BB215111  63.027  27.008  79.437
17723DT     BB315112  63.154  27.134  79.332
17723DT     SC115113  63.119  27.327  79.506
17723DT     SC215114  63.007  27.486  79.414
17723DT     SC315115  63.172  27.507  79.692
17724DT     BB115116  63.183  26.942  79.145
17724DT     BB215117  63.065  27.231  78.964
17724DT     BB315118  63.225  27.352  78.912
17724DT     SC115119  63.249  27.439  79.158
17724DT     SC215120  63.190  27.646  79.167
17724DT     SC315121  63.353  27.484  79.396
17725DC     BB115122  63.193  27.275  78.656
17725DC     BB215123  63.165  27.635  78.649
17725DC     BB315124  63.353  27.720  78.636
17725DC     SC115125  63.404  27.667  78.887
17725DC     SC215126  63.410  27.850  79.000
17725DC     SC315127  63.520  27.562  79.100
17726DA     BB115128  63.100  27.883  78.343
17726DA     BB215129  63.266  28.159  78.520
17726DA     BB315130  63.472  28.167  78.467
17726DA     SC115131  63.564  27.980  78.698
17726DA     SC215132  63.692  27.999  78.912
17726DA     SC315133  63.724  27.745  78.891
17726DA     SC415134  63.574  27.823  78.667
17727DA     BB115135  63.359  28.470  78.420
17727DA     BB215136  63.609  28.574  78.668
17727DA     BB315137  63.806  28.555  78.587
17727DA     SC115138  63.846  28.263  78.687
17727DA     SC215139  63.983  28.144  78.857
17727DA     SC315140  63.935  27.933  78.719
17727DA     SC415141  63.806  28.144  78.587
17728DT     BB115142  63.875  28.716  78.581
17728DT     BB215143  64.115  28.677  78.847
17728DT     BB315144  64.298  28.622  78.769
17728DT     SC115145  64.214  28.377  78.725
17728DT     SC215146  64.314  28.242  78.860
17728DT     SC315147  64.146  28.158  78.596
17729DA     BB115148  64.347  28.946  79.035
17729DA     BB215149  64.605  28.696  79.108
17729DA     BB315150  64.747  28.687  78.949
17729DA     SC115151  64.594  28.466  78.793
17729DA     SC215152  64.625  28.225  78.737
17729DA     SC315153  64.456  28.268  78.548
17729DA     SC415154  64.489  28.513  78.681
17730DA     BB115155  64.975  28.739  79.188
17730DA     BB215156  65.133  28.424  79.085
17730DA     BB315157  65.238  28.451  78.901
17730DA     SC115158  64.995  28.373  78.723
17730DA     SC215159  64.929  28.185  78.574
17730DA     SC315160  64.762  28.352  78.472
17730DA     SC415161  64.900  28.492  78.672
17731DA     BB115162  65.543  28.346  79.027
17731DA     BB215163  65.545  28.075  78.781
17731DA     BB315164  65.617  28.146  78.593
17731DA     SC115165  65.334  28.223  78.487
17731DA     SC215166  65.174  28.144  78.314
17731DA     SC315167  65.069  28.377  78.332
17731DA     SC415168  65.285  28.374  78.512
17732DT     BB115169  65.848  28.113  78.442
17732DT     BB215170  65.698  27.895  78.196
17732DT     BB315171  65.704  27.984  78.009
17732DT     SC115172  65.510  28.149  78.073
17732DT     SC215173  65.333  28.097  77.961
17732DT     SC315174  65.382  28.374  78.124
17733DA     BB115175  65.918  27.634  77.900
17733DA     BB215176  65.647  27.668  77.655
17733DA     BB315177  65.703  27.805  77.501
17733DA     SC115178  65.588  28.055  77.646
17733DA     SC215179  65.398  28.214  77.617
17733DA     SC315180  65.533  28.371  77.768
17733DA     SC415181  65.688  28.138  77.740
17734DA     BB115182  65.638  27.562  77.287
17734DA     BB215183  65.367  27.770  77.154
17734DA     BB315184  65.444  27.911  77.014
17734DA     SC115185  65.494  28.133  77.227
17734DA     SC215186  65.399  28.355  77.288
17734DA     SC315187  65.621  28.394  77.410
17734DA     SC415188  65.639  28.138  77.295
17735DC     BB115189  65.386  27.893  76.821
17735DC     BB215190  65.154  28.170  76.822
17735DC     BB315191  65.234  28.329  76.717
17735DC     SC115192  65.399  28.386  76.912
17735DC     SC215193  65.340  28.571  77.004
17735DC     SC315194  65.625  28.421  77.044
17736DT     BB115195  65.049  28.276  76.532
17736DT     BB215196  64.990  28.620  76.626
17736DT     BB315197  65.114  28.745  76.517
17736DT     SC115198  65.323  28.676  76.661
17736DT     SC215199  65.384  28.842  76.782
17736DT     SC315200  65.558  28.575  76.724
17737DT     BB115201  64.898  28.826  76.379
17737DT     BB215202  65.040  29.131  76.510
17737DT     BB315203  65.187  29.201  76.381
17737DT     SC115204  65.355  29.015  76.459
17737DT     SC215205  65.514  29.105  76.572
17737DT     SC315206  65.514  28.805  76.450
17738DT     BB115207  65.027  29.408  76.290
17738DT     BB215208  65.327  29.574  76.402
17738DT     BB315209  65.464  29.585  76.247
17738DT     SC115210  65.522  29.330  76.271
17738DT     SC215211  65.722  29.309  76.348
17738DT     SC315212  65.545  29.074  76.211
17739DT     BB115213  65.431  29.865  76.180
17739DT     BB215214  65.786  29.836  76.237
17739DT     BB315215  65.884  29.799  76.058
17739DT     SC115216  65.801  29.550  76.055
17739DT     SC215217  65.968  29.419  76.088
17739DT     SC315218  65.677  29.331  75.977
17740DT     BB115219  66.001  30.067  76.002
17740DT     BB215220  66.288  29.849  75.997
17740DT     BB315221  66.330  29.793  75.802
17740DT     SC115222  66.127  29.627  75.797
17740DT     SC215223  66.199  29.425  75.793
17740DT     SC315224  65.896  29.519  75.727
17741DT     BB115225  66.565  29.959  75.758
17741DT     BB215226  66.685  29.625  75.699
17741DT     BB315227  66.677  29.581  75.497
17741DT     SC115228  66.417  29.553  75.505
17741DT     SC215229  66.366  29.346  75.476
17741DT     SC315230  66.161  29.596  75.457
17742DG     BB115231  67.061  29.534  75.621
17742DG     BB215232  66.934  29.234  75.463
17742DG     BB315233  66.939  29.254  75.266
17742DG     SC115234  66.659  29.375  75.246
17742DG     SC215235  66.422  29.246  75.118
17742DG     SC315236  66.363  29.527  75.190
17742DG     SC415237  66.641  29.533  75.259
17743DT     BB115238  67.056  29.116  75.168
17743DT     BB215239  66.806  28.899  75.024
17743DT     BB315240  66.779  28.945  74.825
17743DT     SC115241  66.645  29.163  74.885
17743DT     SC215242  66.438  29.136  74.831
17743DT     SC315243  66.581  29.418  74.904
17744DG     BB115244  66.870  28.552  74.878
17744DG     BB215245  66.571  28.595  74.679
17744DG     BB315246  66.620  28.654  74.495
17744DG     SC115247  66.610  28.953  74.562
17744DG     SC215248  66.412  29.150  74.455
17744DG     SC315249  66.628  29.287  74.604
17744DG     SC415250  66.742  29.025  74.617
17745DT     BB115251  66.565  28.527  74.340
17745DT     BB215252  66.293  28.706  74.185
17745DT     BB315253  66.361  28.806  74.017
17745DT     SC115254  66.480  28.989  74.164
17745DT     SC215255  66.376  29.176  74.143
17745DT     SC315256  66.671  29.135  74.271
17746DA     BB115257  66.027  28.583  73.899
17746DA     BB215258  65.987  28.922  73.767
17746DA     BB315259  66.120  28.955  73.603
17746DA     SC115260  66.350  29.064  73.782
17746DA     SC215261  66.464  29.282  73.823
17746DA     SC315262  66.656  29.141  73.918
17746DA     SC415263  66.460  28.959  73.835
17747DT     BB115264  66.049  28.981  73.406
17747DT     BB215265  66.112  29.336  73.383
17747DT     BB315266  66.274  29.371  73.259
17747DT     SC115267  66.442  29.289  73.443
17747DT     SC215268  66.555  29.457  73.516
17747DT     SC315269  66.627  29.145  73.564
17748DT     BB115270  66.115  29.467  73.052
17748DT     BB215271  66.348  29.735  73.117
17748DT     BB315272  66.517  29.712  73.001
17748DT     SC115273  66.604  29.516  73.153
17748DT     SC215274  66.777  29.582  73.262
17748DT     SC315275  66.679  29.275  73.228
17749DG     BB115276  66.362  30.076  72.908
17749DG     BB215277  66.711  30.101  73.000
17749DG     BB315278  66.826  30.046  72.847
17749DG     SC115279  66.833  29.751  72.926
17749DG     SC215280  67.074  29.600  73.019
17749DG     SC315281  66.846  29.417  72.973
17749DG     SC415282  66.719  29.653  72.872
17750DC     BB115283  66.961  30.190  72.762
17750DC     BB215284  67.279  30.074  72.887
17750DC     BB315285  67.381  29.974  72.737
17750DC     SC115286  67.225  29.764  72.760
17750DC     SC215287  67.337  29.600  72.844
17750DC     SC315288  67.048  29.578  72.698
17751DT     BB115289  67.544  30.182  72.738
17751DT     BB215290  67.758  29.898  72.799
17751DT     BB315291  67.809  29.808  72.619
17751DT     SC115292  67.570  29.703  72.595
17751DT     SC215293  67.583  29.490  72.620
17751DT     SC315294  67.330  29.651  72.497
17752DC     BB115295  68.050  29.904  72.666
17752DC     BB215296  68.098  29.550  72.621
17752DC     BB315297  68.108  29.505  72.419
17752DC     SC115298  67.849  29.537  72.391
17752DC     SC215299  67.758  29.346  72.353
17752DC     SC315300  67.619  29.635  72.309
17753DT     BB115301  68.373  29.459  72.447
17753DT     BB215302  68.245  29.156  72.299
17753DT     BB315303  68.238  29.175  72.093
17753DT     SC115304  68.027  29.331  72.108
17753DT     SC215305  67.855  29.226  72.031
17753DT     SC315306  67.874  29.545  72.086
17754DT     BB115307  68.456  29.010  72.055
17754DT     BB215308  68.199  28.862  71.850
17754DT     BB315309  68.202  28.946  71.661
17754DT     SC115310  68.091  29.167  71.749
17754DT     SC215311  67.891  29.182  71.672
17754DT     SC315312  68.060  29.422  71.810
17755DT     BB115313  68.320  28.724  71.533
17755DT     BB215314  68.019  28.781  71.342
17755DT     BB315315  68.058  28.911  71.186
17755DT     SC115316  68.068  29.117  71.349
17755DT     SC215317  67.898  29.243  71.314
17755DT     SC315318  68.164  29.323  71.482
17756DA     BB115319  67.894  28.583  70.977
17756DA     BB215320  67.720  28.883  70.858
17756DA     BB315321  67.842  28.989  70.719
17756DA     SC115322  67.976  29.168  70.935
17756DA     SC215323  67.973  29.408  71.005
17756DA     SC315324  68.196  29.356  71.121
17756DA     SC415325  68.114  29.116  71.000
17757DC     BB115326  67.803  29.014  70.491
17757DC     BB215327  67.693  29.357  70.509
17757DC     BB315328  67.832  29.481  70.418
17757DC     SC115329  67.997  29.458  70.621
17757DC     SC215330  68.008  29.645  70.726
17757DC     SC315331  68.213  29.396  70.759
17758DA     BB115332  67.474  29.577  70.223
17758DA     BB215333  67.624  29.892  70.337
17758DA     BB315334  67.784  29.948  70.207
17758DA     SC115335  68.002  29.799  70.372
17758DA     SC215336  68.195  29.857  70.518
17758DA     SC315337  68.277  29.618  70.472
17758DA     SC415338  68.036  29.647  70.330
17759DA     BB115339  67.612  30.225  70.189
17759DA     BB215340  67.899  30.392  70.344
17759DA     BB315341  68.053  30.424  70.200
17759DA     SC115342  68.196  30.153  70.256
17759DA     SC215343  68.409  30.075  70.358
17759DA     SC315344  68.368  29.858  70.228
17759DA     SC415345  68.153  30.027  70.165
17760DT     BB115346  68.091  30.611  70.161
17760DT     BB215347  68.400  30.628  70.347
17760DT     BB315348  68.561  30.624  70.217
17760DT     SC115349  68.530  30.368  70.173
17760DT     SC215350  68.693  30.259  70.261
17760DT     SC315351  68.482  30.142  70.044
17761DT     BB115352  68.593  30.876  70.290
17761DT     BB215353  68.903  30.713  70.375
17761DT     BB315354  69.026  30.703  70.208
17761DT     SC115355  68.881  30.511  70.103
17761DT     SC215356  68.994  30.328  70.105
17761DT     SC315357  68.723  30.383  69.935
17762DT     BB115358  69.155  30.865  70.361
17762DT     BB215359  69.378  30.589  70.295
17762DT     BB315360  69.455  30.605  70.104
17762DT     SC115361  69.228  30.528  69.997
17762DT     SC215362  69.252  30.333  69.911
17762DT     SC315363  69.005  30.535  69.856
17763DG     BB115364  69.745  30.572  70.390
17763DG     BB215365  69.786  30.331  70.124
17763DG     BB315366  69.849  30.422  69.959
17763DG     SC115367  69.568  30.480  69.853
17763DG     SC215368  69.445  30.360  69.608
17763DG     SC315369  69.275  30.577  69.717
17763DG     SC415370  69.495  30.615  69.896
17764DG     BB115371  70.091  30.206  69.982
17764DG     BB215372  69.976  30.087  69.660
17764DG     BB315373  70.036  30.211  69.517
17764DG     SC115374  69.787  30.388  69.532
17764DG     SC215375  69.580  30.417  69.319
17764DG     SC315376  69.538  30.615  69.535
17764DG     SC415377  69.786  30.511  69.634
17765DT     BB115378  70.159  30.129  69.375
17765DT     BB215379  69.941  30.108  69.088
17765DT     BB315380  69.971  30.271  68.964
17765DT     SC115381  69.843  30.430  69.128
17765DT     SC215382  69.657  30.490  69.038
17765DT     SC315383  69.797  30.628  69.296
17766DA     BB115384  69.986  29.914  68.740
17766DA     BB215385  69.766  30.152  68.567
17766DA     BB315386  69.880  30.313  68.486
17766DA     SC115387  69.855  30.492  68.739
17766DA     SC215388  69.740  30.703  68.805
17766DA     SC315389  69.911  30.713  68.995
17766DA     SC415390  69.971  30.481  68.850
17767DT     BB115391  69.879  30.320  68.297
17767DT     BB215392  69.667  30.609  68.263
17767DT     BB315393  69.782  30.778  68.227
17767DT     SC115394  69.860  30.787  68.478
17767DT     SC215395  69.771  30.958  68.574
17767DT     SC315396  70.017  30.782  68.689
17768DG     BB115397  69.516  30.741  67.919
17768DG     BB215398  69.508  31.073  68.064
17768DG     BB315399  69.667  31.177  68.004
17768DG     SC115400  69.844  31.087  68.237
17768DG     SC215401  69.948  31.262  68.456
17768DG     SC315402  70.071  30.993  68.468
17768DG     SC415403  69.929  30.953  68.223
17769DA     BB115404  69.446  31.430  67.904
17769DA     BB215405  69.614  31.665  68.130
17769DA     BB315406  69.801  31.725  68.048
17769DA     SC115407  69.962  31.497  68.186
17769DA     SC215408  70.131  31.475  68.369
17769DA     SC315409  70.186  31.248  68.261
17769DA     SC415410  69.983  31.361  68.104
17770DA     BB115411  69.693  32.040  68.080
17770DA     BB215412  69.974  32.097  68.308
17770DA     BB315413  70.155  32.123  68.198
17770DA     SC115414  70.229  31.820  68.203
17770DA     SC215415  70.400  31.674  68.310
17770DA     SC315416  70.342  31.506  68.124
17770DA     SC415417  70.180  31.730  68.079
17771DT     BB115418  70.278  32.316  68.178
17771DT     BB215419  70.543  32.217  68.402
17771DT     BB315420  70.717  32.184  68.295
17771DT     SC115421  70.626  31.956  68.201
17771DT     SC215422  70.736  31.794  68.289
17771DT     SC315423  70.542  31.774  68.030
17772DT     BB115424  70.854  32.420  68.374
17772DT     BB215425  71.074  32.153  68.477
17772DT     BB315426  71.210  32.111  68.327
17772DT     SC115427  71.026  31.989  68.185
17772DT     SC215428  71.067  31.778  68.180
17772DT     SC315429  70.861  31.935  67.986
17773DG     BB115430  71.438  32.214  68.649
17773DG     BB215431  71.529  31.888  68.521
17773DG     BB315432  71.647  31.908  68.363
17773DG     SC115433  71.416  31.914  68.161
17773DG     SC215434  71.357  31.706  67.956
17773DG     SC315435  71.188  31.945  67.915
17773DG     SC415436  71.349  32.055  68.125
17774DT     BB115437  71.847  31.826  68.370
17774DT     BB215438  71.807  31.529  68.169
17774DT     BB315439  71.888  31.559  67.981
17774DT     SC115440  71.686  31.710  67.910
17774DT     SC215441  71.568  31.607  67.762
17774DT     SC315442  71.550  31.923  67.833
17775DT     BB115443  72.070  31.387  68.062
17775DT     BB215444  71.921  31.241  67.767
17775DT     BB315445  72.007  31.321  67.597
17775DT     SC115446  71.875  31.546  67.628
17775DT     SC215447  71.727  31.564  67.473
17775DT     SC315448  71.828  31.802  67.668
17776DG     BB115449  72.036  30.915  67.599
17776DG     BB215450  71.887  31.039  67.294
17776DG     BB315451  72.026  31.120  67.178
17776DG     SC115452  71.998  31.401  67.298
17776DG     SC215453  71.894  31.642  67.156
17776DG     SC315454  72.007  31.715  67.420
17776DG     SC415455  72.085  31.440  67.426
17777DT     BB115456  72.055  31.034  66.991
17777DT     BB215457  71.906  31.278  66.771
17777DT     BB315458  72.054  31.397  66.687
17777DT     SC115459  72.088  31.528  66.912
17777DT     SC215460  72.016  31.729  66.889
17777DT     SC315461  72.203  31.621  67.131
17778DA     BB115462  71.806  31.251  66.381
17778DA     BB215463  71.846  31.613  66.334
17778DA     BB315464  72.044  31.657  66.268
17778DA     SC115465  72.158  31.694  66.555
17778DA     SC215466  72.243  31.880  66.698
17778DA     SC315467  72.359  31.696  66.834
17778DA     SC415468  72.224  31.565  66.626
17779DG     BB115469  71.888  31.775  66.028
17779DG     BB215470  72.030  32.085  66.147
17779DG     BB315471  72.219  32.101  66.086
17779DG     SC115472  72.337  31.960  66.331
17779DG     SC215473  72.509  32.087  66.540
17779DG     SC315474  72.498  31.793  66.576
17779DG     SC415475  72.353  31.801  66.329
17780DC     BB115476  72.271  32.264  65.959
17780DC     BB215477  72.452  32.478  66.187
17780DC     BB315478  72.655  32.457  66.157
17780DC     SC115479  72.657  32.223  66.276
17780DC     SC215480  72.761  32.240  66.464
17780DC     SC315481  72.684  31.963  66.313
17781DA     BB115482  72.552  32.863  66.154
17781DA     BB215483  72.839  32.818  66.379
17781DA     BB315484  73.015  32.775  66.267
17781DA     SC115485  72.974  32.466  66.275
17781DA     SC215486  73.083  32.269  66.383
17781DA     SC315487  72.965  32.131  66.201
17781DA     SC415488  72.894  32.398  66.154
17782DA     BB115489  73.108  33.025  66.455
17782DA     BB215490  73.361  32.798  66.591
17782DA     BB315491  73.514  32.762  66.447
17782DA     SC115492  73.373  32.513  66.325
17782DA     SC215493  73.409  32.266  66.317
17782DA     SC315494  73.254  32.271  66.113
17782DA     SC415495  73.276  32.536  66.199
17783DA     BB115496  73.689  32.856  66.707
17783DA     BB215497  73.850  32.527  66.690
17783DA     BB315498  73.983  32.518  66.523
17783DA     SC115499  73.768  32.410  66.327
17783DA     SC215500  73.718  32.197  66.206
17783DA     SC315501  73.575  32.342  66.050
17783DA     SC415502  73.685  32.517  66.240
17784DA     BB115503  74.180  32.425  66.767
17784DA     BB215504  74.221  32.110  66.584
17784DA     BB315505  74.345  32.139  66.412
17784DA     SC115506  74.107  32.205  66.222
17784DA     SC215507  73.990  32.098  66.030
17784DA     SC315508  73.905  32.334  65.977
17784DA     SC415509  74.065  32.359  66.205
17785DA     BB115510  74.491  31.888  66.561
17785DA     BB215511  74.427  31.698  66.254
17785DA     BB315512  74.555  31.766  66.097
17785DA     SC115513  74.354  31.980  65.993
17785DA     SC215514  74.210  32.015  65.792
17785DA     SC315515  74.208  32.262  65.862
17785DA     SC415516  74.366  32.129  66.052
17786DT     BB115517  74.681  31.637  66.037
17786DT     BB215518  74.525  31.563  65.720
17786DT     BB315519  74.624  31.663  65.568
17786DT     SC115520  74.517  31.892  65.638
17786DT     SC215521  74.376  31.954  65.487
17786DT     SC315522  74.497  32.140  65.723
17787DA     BB115523  74.589  31.258  65.461
17787DA     BB215524  74.486  31.460  65.174
17787DA     BB315525  74.655  31.556  65.086
17787DA     SC115526  74.632  31.812  65.260
17787DA     SC215527  74.572  32.052  65.228
17787DA     SC315528  74.697  32.092  65.448
17787DA     SC415529  74.715  31.817  65.397
17788DT     BB115530  74.711  31.500  64.901
17788DT     BB215531  74.604  31.797  64.727
17788DT     BB315532  74.768  31.916  64.682
17788DT     SC115533  74.790  31.994  64.932
17788DT     SC215534  74.736  32.202  64.946
17788DT     SC315535  74.890  32.029  65.173
17789DA     BB115536  74.579  31.866  64.309
17789DA     BB215537  74.653  32.223  64.347
17789DA     BB315538  74.861  32.259  64.318
17789DA     SC115539  74.934  32.224  64.619
17789DA     SC215540  75.010  32.368  64.808
17789DA     SC315541  75.090  32.148  64.915
17789DA     SC415542  74.978  32.078  64.668
17790DC     BB115543  74.960  32.371  64.141
17790DC     BB215544  75.042  32.672  64.323
17790DC     BB315545  75.247  32.686  64.347
17790DC     SC115546  75.246  32.500  64.532
17790DC     SC215547  75.291  32.589  64.723
17790DC     SC315548  75.295  32.272  64.655
17791DT     BB115549  75.312  32.891  64.147
17791DT     BB215550  75.445  33.029  64.453
17791DT     BB315551  75.646  32.981  64.470
17791DT     SC115552  75.589  32.733  64.534
17791DT     SC215553  75.638  32.699  64.740
17791DT     SC315554  75.575  32.470  64.520
17792DT     BB115555  75.746  33.239  64.411
17792DT     BB215556  75.877  33.167  64.739
17792DT     BB315557  76.063  33.077  64.723
17792DT     SC115558  75.955  32.849  64.648
17792DT     SC215559  75.980  32.704  64.804
17792DT     SC315560  75.894  32.641  64.498
17793DA     BB115561  76.097  33.401  64.985
17793DA     BB215562  76.236  33.105  65.151
17793DA     BB315563  76.425  33.054  65.066
17793DA     SC115564  76.304  32.863  64.852
17793DA     SC215565  76.299  32.618  64.805
17793DA     SC315566  76.238  32.685  64.565
17793DA     SC415567  76.269  32.925  64.708
17794DT     BB115568  76.568  33.071  65.188
17794DT     BB215569  76.615  32.718  65.245
17794DT     BB315570  76.777  32.649  65.136
17794DT     SC115571  76.640  32.658  64.912
17794DT     SC215572  76.603  32.457  64.843
17794DT     SC315573  76.566  32.728  64.669
17795DG     BB115574  76.818  32.564  65.533
17795DG     BB215575  76.859  32.270  65.326
17795DG     BB315576  77.035  32.275  65.234
17795DG     SC115577  76.931  32.425  64.988
17795DG     SC215578  76.913  32.316  64.711
17795DG     SC315579  76.856  32.606  64.714
17795DG     SC415580  76.930  32.585  64.990
17796DC     BB115581  77.169  32.120  65.277
17796DC     BB215582  77.159  31.926  64.973
17796DC     BB315583  77.322  31.972  64.855
17796DC     SC115584  77.216  32.201  64.785
17796DC     SC215585  77.160  32.194  64.577
17796DC     SC315586  77.183  32.462  64.758
17797DA     BB115587  77.314  31.553  64.896
17797DA     BB215588  77.354  31.632  64.540
17797DA     BB315589  77.551  31.704  64.502
17797DA     SC115590  77.477  32.003  64.546
17797DA     SC215591  77.453  32.209  64.409
17797DA     SC315592  77.478  32.335  64.631
17797DA     SC415593  77.496  32.063  64.694
17798DA     BB115594  77.558  31.461  64.278
17798DA     BB215595  77.601  31.721  64.023
17798DA     BB315596  77.802  31.792  64.024
17798DA     SC115597  77.747  32.020  64.229
17798DA     SC215598  77.735  32.269  64.230
17798DA     SC315599  77.769  32.249  64.484
17798DA     SC415600  77.770  31.987  64.385
17799DA     BB115601  77.790  31.713  63.705
17799DA     BB215602  77.843  32.069  63.634
17799DA     BB315603  78.048  32.121  63.662
17799DA     SC115604  78.013  32.198  63.962
17799DA     SC215605  78.017  32.405  64.101
17799DA     SC315606  78.057  32.247  64.298
17799DA     SC415607  78.038  32.083  64.071
17800DA     BB115608  77.995  32.229  63.360
17800DA     BB215609  78.069  32.563  63.492
17800DA     BB315610  78.278  32.585  63.525
17800DA     SC115611  78.267  32.485  63.819
17800DA     SC215612  78.294  32.580  64.048
17800DA     SC315613  78.334  32.338  64.122
17800DA     SC415614  78.290  32.328  63.846
17801DT     BB115615  78.341  32.713  63.417
17801DT     BB215616  78.379  32.966  63.672
17801DT     BB315617  78.576  32.973  63.736
17801DT     SC115618  78.548  32.750  63.872
17801DT     SC215619  78.556  32.795  64.083
17801DT     SC315620  78.582  32.500  63.949
17802DT     BB115621  78.565  33.203  63.615
17802DT     BB215622  78.661  33.276  63.955
17802DT     BB315623  78.864  33.242  63.980
17802DT     SC115624  78.828  32.982  63.980
17802DT     SC215625  78.866  32.905  64.177
17802DT     SC315626  78.843  32.730  63.906
17803DG     BB115627  78.764  33.622  64.090
17803DG     BB215628  78.957  33.454  64.346
17803DG     BB315629  79.148  33.444  64.292
17803DG     SC115630  79.119  33.176  64.147
17803DG     SC215631  79.243  32.917  64.231
17803DG     SC315632  79.119  32.893  63.964
17803DG     SC415633  79.078  33.175  63.993
17804DT     BB115634  79.302  33.546  64.409
17804DT     BB215635  79.472  33.271  64.569
17804DT     BB315636  79.651  33.232  64.471
17804DT     SC115637  79.526  33.119  64.270
17804DT     SC215638  79.565  32.908  64.270
17804DT     SC315639  79.437  33.076  64.025
17805DG     BB115640  79.767  33.318  64.854
17805DG     BB215641  79.914  33.007  64.742
17805DG     BB315642  80.073  33.044  64.628
17805DG     SC115643  79.914  33.055  64.367
17805DG     SC215644  79.934  32.860  64.141
17805DG     SC315645  79.769  33.093  64.065
17805DG     SC415646  79.851  33.194  64.320
17806DT     BB115647  80.304  32.987  64.677
17806DT     BB215648  80.354  32.709  64.453
17806DT     BB315649  80.479  32.765  64.297
17806DT     SC115650  80.286  32.902  64.183
17806DT     SC215651  80.226  32.804  64.002
17806DT     SC315652  80.152  33.108  64.086
17807DT     BB115653  80.701  32.623  64.392
17807DT     BB215654  80.650  32.492  64.060
17807DT     BB315655  80.761  32.601  63.923
17807DT     SC115656  80.594  32.803  63.937
17807DT     SC215657  80.486  32.819  63.751
17807DT     SC315658  80.501  33.045  63.983
17808DC     BB115659  80.935  32.392  63.892
17808DC     BB215660  80.809  32.456  63.560
17808DC     BB315661  80.926  32.599  63.466
17808DC     SC115662  80.820  32.791  63.611
17808DC     SC215663  80.698  32.916  63.485
17808DC     SC315664  80.800  32.989  63.784
17809DA     BB115665  80.880  32.267  63.216
17809DA     BB215666  80.805  32.569  63.021
17809DA     BB315667  80.984  32.677  62.980
17809DA     SC115668  80.965  32.853  63.236
17809DA     SC215669  80.920  33.091  63.293
17809DA     SC315670  81.034  33.038  63.517
17809DA     SC415671  81.040  32.800  63.368
17810DT     BB115672  81.023  32.683  62.798
17810DT     BB215673  80.943  33.030  62.742
17810DT     BB315674  81.116  33.143  62.739
17810DT     SC115675  81.140  33.127  63.000
17810DT     SC215676  81.102  33.320  63.087
17810DT     SC315677  81.239  33.067  63.237
17811DT     BB115678  81.083  33.171  62.474
17811DT     BB215679  81.109  33.509  62.597
17811DT     BB315680  81.308  33.564  62.611
17811DT     SC115681  81.341  33.417  62.826
17811DT     SC215682  81.369  33.545  62.997
17811DT     SC315683  81.431  33.227  62.986
17812DC     BB115684  81.273  33.724  62.399
17812DC     BB215685  81.407  33.941  62.655
17812DC     BB315686  81.613  33.929  62.658
17812DC     SC115687  81.606  33.693  62.773
17812DC     SC215688  81.678  33.710  62.975
17812DC     SC315689  81.638  33.434  62.810
17813DT     BB115690  81.639  34.177  62.544
17813DT     BB215691  81.836  34.198  62.846
17813DT     BB315692  82.029  34.133  62.809
17813DT     SC115693  81.951  33.882  62.803
17813DT     SC215694  82.028  33.780  62.976
17813DT     SC315695  81.902  33.640  62.712
17814DT     BB115696  82.133  34.388  62.816
17814DT     BB215697  82.328  34.208  63.061
17814DT     BB315698  82.491  34.119  62.970
17814DT     SC115699  82.339  33.934  62.861
17814DT     SC215700  82.381  33.744  62.954
17814DT     SC315701  82.218  33.789  62.678
17815DC     BB115702  82.679  34.300  63.072
17815DC     BB215703  82.804  33.978  63.177
17815DC     BB315704  82.931  33.901  63.033
17815DC     SC115705  82.730  33.841  62.876
17815DC     SC215706  82.708  33.628  62.865
17815DC     SC315707  82.569  33.842  62.666
17816DC     BB115708  83.172  33.950  63.174
17816DC     BB215709  83.183  33.596  63.105
17816DC     BB315710  83.280  33.562  62.924
17816DC     SC115711  83.071  33.645  62.789
17816DC     SC215712  82.981  33.478  62.687
17816DC     SC315713  82.922  33.792  62.627
17817DT     BB115714  83.527  33.464  63.031
17817DT     BB215715  83.416  33.198  62.814
17817DT     BB315716  83.497  33.223  62.625
17817DT     SC115717  83.331  33.419  62.572
17817DT     SC215718  83.190  33.355  62.423
17817DT     SC315719  83.243  33.661  62.515
17818DA     BB115720  83.617  32.832  62.724
17818DA     BB215721  83.456  32.817  62.395
17818DA     BB315722  83.589  32.888  62.244
17818DA     SC115723  83.493  33.184  62.264
17818DA     SC215724  83.364  33.346  62.125
17818DA     SC315725  83.474  33.526  62.270
17818DA     SC415726  83.572  33.281  62.364
17819DG     BB115727  83.574  32.603  62.113
17819DG     BB215728  83.401  32.782  61.851
17819DG     BB315729  83.533  32.855  61.721
17819DG     SC115730  83.569  33.121  61.868
17819DG     SC215731  83.486  33.389  61.768
17819DG     SC315732  83.648  33.414  62.014
17819DG     SC415733  83.681  33.131  61.982
17820DT     BB115734  83.527  32.790  61.509
17820DT     BB215735  83.367  33.077  61.360
17820DT     BB315736  83.506  33.188  61.255
17820DT     SC115737  83.609  33.283  61.476
17820DT     SC215738  83.563  33.493  61.493
17820DT     SC315739  83.785  33.333  61.667
17821DA     BB115740  83.153  33.106  61.045
17821DA     BB215741  83.218  33.466  61.031
17821DA     BB315742  83.388  33.506  60.908
17821DA     SC115743  83.592  33.491  61.142
17821DA     SC215744  83.739  33.647  61.269
17821DA     SC315745  83.870  33.437  61.336
17821DA     SC415746  83.661  33.349  61.171
17822DC     BB115747  83.315  33.598  60.793
17822DC     BB215748  83.457  33.914  60.895
17822DC     BB315749  83.635  33.947  60.795
17822DC     SC115750  83.760  33.772  60.946
17822DC     SC215751  83.899  33.874  61.075
17822DC     SC315752  83.894  33.555  61.016
17823DA     BB115753  83.370  34.275  60.805
17823DA     BB215754  83.707  34.392  60.888
17823DA     BB315755  83.835  34.374  60.718
17823DA     SC115756  83.930  34.086  60.789
17823DA     SC215757  84.139  33.975  60.867
17823DA     SC315758  84.033  33.759  60.777
17823DA     SC415759  83.848  33.963  60.726
17824DT     BB115760  83.887  34.537  60.668
17824DT     BB215761  84.235  34.512  60.763
17824DT     BB315762  84.349  34.456  60.600
17824DT     SC115763  84.262  34.208  60.616
17824DT     SC215764  84.423  34.080  60.680
17824DT     SC315765  84.143  33.982  60.550
17825DA     BB115766  84.535  34.801  60.752
17825DA     BB215767  84.798  34.554  60.685
17825DA     BB315768  84.829  34.535  60.475
17825DA     SC115769  84.622  34.305  60.441
17825DA     SC215770  84.624  34.061  60.390
17825DA     SC315771  84.378  34.094  60.323
17825DA     SC415772  84.471  34.347  60.402
17826DA     BB115773  85.156  34.608  60.518
17826DA     BB215774  85.238  34.280  60.376
17826DA     BB315775  85.228  34.287  60.163
17826DA     SC115776  84.928  34.204  60.150
17826DA     SC215777  84.794  34.006  60.078
17826DA     SC315778  84.597  34.170  60.066
17826DA     SC415779  84.819  34.321  60.148
17827DT     BB115780  85.408  34.274  59.999
17827DT     BB215781  85.337  33.937  59.890
17827DT     BB315782  85.271  33.939  59.694
17827DT     SC115783  85.036  34.031  59.765
17827DT     SC215784  84.888  33.879  59.736
17827DT     SC315785  84.829  34.193  59.786
17828DA     BB115786  85.597  33.673  59.663
17828DA     BB215787  85.309  33.507  59.508
17828DA     BB315788  85.277  33.581  59.311
17828DA     SC115789  85.083  33.807  59.402
17828DA     SC215790  84.840  33.860  59.383
17828DA     SC315791  84.909  34.102  59.435
17828DA     SC415792  85.146  33.951  59.434
17829DA     BB115793  85.297  33.266  59.219
17829DA     BB215794  84.948  33.292  59.111
17829DA     BB315795  84.936  33.385  58.920
17829DA     SC115796  84.909  33.673  59.034
17829DA     SC215797  84.734  33.850  59.051
17829DA     SC315798  84.930  34.012  59.088
17829DA     SC415799  85.044  33.758  59.054
17830DC     BB115800  84.867  33.273  58.773
17830DC     BB215801  84.539  33.422  58.760
17830DC     BB315802  84.524  33.545  58.594
17830DC     SC115803  84.671  33.729  58.707
17830DC     SC215804  84.549  33.900  58.753
17830DC     SC315805  84.873  33.894  58.751
17831DT     BB115806  84.359  33.358  58.512
17831DT     BB215807  84.165  33.663  58.517
17831DT     BB315808  84.199  33.771  58.343
17831DT     SC115809  84.436  33.846  58.427
17831DT     SC215810  84.433  34.057  58.470
17831DT     SC315811  84.698  33.873  58.439
17832DG     BB115812  83.806  33.697  58.426
17832DG     BB215813  83.871  34.047  58.362
17832DG     BB315814  83.907  34.075  58.169
17832DG     SC115815  84.209  34.032  58.194
17832DG     SC215816  84.420  34.238  58.152
17832DG     SC315817  84.540  33.970  58.182
17832DG     SC415818  84.267  33.883  58.181
17833DT     BB115819  83.778  34.199  58.084
17833DT     BB215820  83.976  34.495  58.025
17833DT     BB315821  84.050  34.493  57.832
17833DT     SC115822  84.228  34.310  57.893
17833DT     SC215823  84.424  34.397  57.889
17833DT     SC315824  84.357  34.080  57.894
17834DT     BB115825  83.878  34.690  57.781
17834DT     BB215826  84.200  34.821  57.685
17834DT     BB315827  84.248  34.760  57.493
17834DT     SC115828  84.302  34.517  57.575
17834DT     SC215829  84.513  34.481  57.560
17834DT     SC315830  84.285  34.255  57.604
17835DC     BB115831  84.205  35.011  57.406
17835DC     BB215832  84.541  34.934  57.298
17835DC     BB315833  84.535  34.835  57.116
17835DC     SC115834  84.454  34.613  57.230
17835DC     SC215835  84.611  34.467  57.222
17835DC     SC315836  84.300  34.408  57.292
17836DA     BB115837  84.801  35.156  57.068
17836DA     BB215838  84.964  34.856  56.936
17836DA     BB315839  84.877  34.800  56.749
17836DA     SC115840  84.664  34.613  56.877
17836DA     SC215841  84.616  34.369  56.889
17836DA     SC315842  84.377  34.439  56.949
17836DA     SC415843  84.520  34.677  56.911
17837DT     BB115844  84.991  34.813  56.586
17837DT     BB215845  85.043  34.459  56.537
17837DT     BB315846  84.924  34.391  56.382
17837DT     SC115847  84.708  34.402  56.532
17837DT     SC215848  84.640  34.203  56.574
17837DT     SC315849  84.470  34.475  56.619
17838DA     BB115850  85.315  34.263  56.300
17838DA     BB215851  85.092  33.976  56.256
17838DA     BB315852  84.978  33.997  56.077
17838DA     SC115853  84.741  34.144  56.216
17838DA     SC215854  84.504  34.096  56.276
17838DA     SC315855  84.478  34.351  56.291
17838DA     SC415856  84.745  34.304  56.220
17839DT     BB115857  85.009  33.869  55.920
17839DT     BB215858  84.705  33.679  55.953
17839DT     BB315859  84.571  33.733  55.805
17839DT     SC115860  84.516  33.959  55.926
17839DT     SC215861  84.315  33.953  56.002
17839DT     SC315862  84.498  34.218  55.971
17840DT     BB115863  84.608  33.499  55.660
17840DT     BB215864  84.251  33.511  55.714
17840DT     BB315865  84.160  33.616  55.561
17840DT     SC115866  84.246  33.845  55.656
17840DT     SC215867  84.079  33.957  55.733
17840DT     SC315868  84.375  34.075  55.673
17841DT     BB115869  84.049  33.392  55.421
17841DT     BB215870  83.763  33.603  55.480
17841DT     BB315871  83.733  33.730  55.319
17841DT     SC115872  83.937  33.879  55.390
17841DT     SC215873  83.864  34.070  55.459
17841DT     SC315874  84.171  34.000  55.382
17842DC     BB115875  83.505  33.597  55.197
17842DC     BB215876  83.387  33.934  55.252
17842DC     BB315877  83.416  34.048  55.081
17842DC     SC115878  83.674  34.064  55.127
17842DC     SC215879  83.724  34.266  55.181
17842DC     SC315880  83.934  34.035  55.094
17843DT     BB115881  83.143  34.055  55.004
17843DT     BB215882  83.234  34.403  55.035
17843DT     BB315883  83.297  34.476  54.852
17843DT     SC115884  83.526  34.350  54.872
17843DT     SC215885  83.684  34.494  54.901
17843DT     SC315886  83.723  34.182  54.820
17844DA     BB115887  83.003  34.733  54.999
17844DA     BB215888  83.291  34.937  54.900
17844DA     BB315889  83.303  34.952  54.688
17844DA     SC115890  83.484  34.701  54.656
17844DA     SC215891  83.720  34.651  54.592
17844DA     SC315892  83.636  34.414  54.544
17844DA     SC415893  83.412  34.560  54.631
17845DA     BB115894  83.316  35.260  54.790
17845DA     BB215895  83.642  35.277  54.623
17845DA     BB315896  83.617  35.279  54.411
17845DA     SC115897  83.632  34.969  54.383
17845DA     SC215898  83.790  34.800  54.290
17845DA     SC315899  83.588  34.643  54.286
17845DA     SC415900  83.494  34.887  54.387
17846DA     BB115901  83.811  35.535  54.470
17846DA     BB215902  84.052  35.377  54.244
17846DA     BB315903  83.982  35.385  54.043
17846DA     SC115904  83.833  35.112  54.057
17846DA     SC215905  83.859  34.883  53.961
17846DA     SC315906  83.610  34.854  54.019
17846DA     SC415907  83.678  35.114  54.099
17847DT     BB115908  84.084  35.497  53.919
17847DT     BB215909  84.229  35.235  53.718
17847DT     BB315910  84.127  35.218  53.539
17847DT     SC115911  83.924  35.101  53.658
17847DT     SC215912  83.916  34.894  53.597
17847DT     SC315913  83.680  35.058  53.747
17848DT     BB115914  84.322  35.346  53.375
17848DT     BB215915  84.263  35.035  53.200
17848DT     BB315916  84.112  35.061  53.061
17848DT     SC115917  83.928  35.063  53.248
17848DT     SC215918  83.810  34.884  53.234
17848DT     SC315919  83.733  35.149  53.404
17849DC     BB115920  84.252  35.094  52.783
17849DC     BB215921  84.014  34.833  52.712
17849DC     BB315922  83.846  34.913  52.622
17849DC     SC115923  83.762  35.013  52.849
17849DC     SC215924  83.586  34.907  52.914
17849DC     SC315925  83.691  35.191  53.031
17850DT     BB115926  83.848  34.872  52.289
17850DT     BB215927  83.531  34.726  52.380
17850DT     BB315928  83.377  34.857  52.334
17850DT     SC115929  83.436  35.010  52.539
17850DT     SC215930  83.281  34.995  52.687
17850DT     SC315931  83.512  35.222  52.677
17851DG     BB115932  83.231  34.579  52.045
17851DG     BB215933  82.973  34.653  52.288
17851DG     BB315934  82.858  34.802  52.222
17851DG     SC115935  83.030  35.022  52.349
17851DG     SC215936  82.947  35.202  52.572
17851DG     SC315937  83.205  35.289  52.457
17851DG     SC415938  83.152  35.082  52.265
17852DT     BB115939  82.611  34.793  52.172
17852DT     BB215940  82.497  34.931  52.486
17852DT     BB315941  82.406  35.114  52.454
17852DT     SC115942  82.638  35.231  52.415
17852DT     SC215943  82.680  35.363  52.579
17852DT     SC315944  82.834  35.360  52.294
17853DA     BB115945  82.194  34.847  52.693
17853DA     BB215946  82.230  35.164  52.873
17853DA     BB315947  82.108  35.314  52.784
17853DA     SC115948  82.330  35.413  52.590
17853DA     SC215949  82.473  35.615  52.562
17853DA     SC315950  82.504  35.534  52.320
17853DA     SC415951  82.336  35.347  52.444
17854DA     BB115952  82.084  35.287  53.108
17854DA     BB215953  82.190  35.638  53.110
17854DA     BB315954  82.043  35.761  53.015
17854DA     SC115955  82.169  35.737  52.732
17854DA     SC215956  82.289  35.883  52.570
17854DA     SC315957  82.220  35.711  52.393
17854DA     SC415958  82.115  35.619  52.637
17855DA     BB115959  82.136  35.884  53.304
17855DA     BB215960  82.219  36.186  53.113
17855DA     BB315961  82.043  36.273  53.031
17855DA     SC115962  82.059  36.114  52.764
17855DA     SC215963  82.106  36.161  52.524
17855DA     SC315964  81.986  35.939  52.478
17855DA     SC415965  81.980  35.974  52.756
17856DT     BB115966  82.019  36.433  53.105
17856DT     BB215967  82.092  36.634  52.815
17856DT     BB315968  81.917  36.685  52.718
17856DT     SC115969  81.892  36.442  52.620
17856DT     SC215970  81.924  36.447  52.408
17856DT     SC315971  81.793  36.202  52.575
17857DT     BB115972  81.942  36.939  52.807
17857DT     BB215973  81.904  36.975  52.450
17857DT     BB315974  81.703  36.980  52.401
17857DT     SC115975  81.679  36.722  52.440
17857DT     SC215976  81.647  36.623  52.251
17857DT     SC315977  81.598  36.493  52.544
17858DC     BB115978  81.694  37.258  52.350
17858DC     BB215979  81.560  37.115  52.048
17858DC     BB315980  81.354  37.097  52.063
17858DC     SC115981  81.377  36.891  52.225
17858DC     SC215982  81.311  36.713  52.123
17858DC     SC315983  81.358  36.743  52.442
17859DC     BB115984  81.281  37.318  51.894
17859DC     BB215985  81.103  37.041  51.747
17859DC     BB315986  80.912  37.029  51.826
17859DC     SC115987  81.003  36.932  52.052
17859DC     SC215988  80.944  36.726  52.071
17859DC     SC315989  81.059  36.913  52.309
17860DG     BB115990  80.824  37.088  51.429
17860DG     BB215991  80.650  36.797  51.554
17860DG     BB315992  80.481  36.853  51.644
17860DG     SC115993  80.609  36.886  51.920
17860DG     SC215994  80.554  36.718  52.161
17860DG     SC315995  80.721  36.952  52.231
17860DG     SC415996  80.673  37.027  51.959
17861DA     BB115997  80.294  36.633  51.445
17861DA     BB215998  80.186  36.448  51.742
17861DA     BB315999  80.022  36.547  51.836
17861DA     SC116000  80.201  36.718  52.023
17861DA     SC216001  80.254  36.732  52.267
17861DA     SC316002  80.334  36.970  52.215
17861DA     SC416003  80.244  36.864  51.972
17862DT     BB116004  79.846  36.452  51.837
17862DT     BB216005  79.855  36.353  52.184
17862DT     BB316006  79.726  36.472  52.294
17862DT     SC116007  79.891  36.676  52.283
17862DT     SC216008  79.973  36.712  52.478
17862DT     SC316009  79.986  36.915  52.226
17863DG     BB116010  79.631  36.079  52.343
17863DG     BB216011  79.682  36.246  52.660
17863DG     BB316012  79.524  36.358  52.704
17863DG     SC116013  79.631  36.608  52.564
17863DG     SC216014  79.711  36.863  52.696
17863DG     SC316015  79.708  36.894  52.402
17863DG     SC416016  79.599  36.629  52.408
17864DT     BB116017  79.422  36.309  52.879
17864DT     BB216018  79.520  36.577  53.099
17864DT     BB316019  79.369  36.719  53.109
17864DT     SC116020  79.429  36.810  52.870
17864DT     SC216021  79.514  37.007  52.888
17864DT     SC316022  79.405  36.872  52.615
17865DT     BB116023  79.336  36.631  53.355
17865DT     BB216024  79.398  36.984  53.389
17865DT     BB316025  79.223  37.090  53.357
17865DT     SC116026  79.237  37.049  53.098
17865DT     SC216027  79.281  37.235  52.999
17865DT     SC316028  79.174  36.964  52.857
17866DT     BB116029  79.222  37.143  53.619
17866DT     BB216030  79.210  37.467  53.460
17866DT     BB316031  79.015  37.515  53.413
17866DT     SC116032  79.014  37.347  53.211
17866DT     SC216033  79.009  37.457  53.026
17866DT     SC316034  78.950  37.140  53.060
17867DA     BB116035  79.176  37.839  53.626
17867DA     BB216036  79.008  37.972  53.328
17867DA     BB316037  78.796  37.958  53.350
17867DA     SC116038  78.776  37.676  53.220
17867DA     SC216039  78.688  37.575  53.010
17867DA     SC316040  78.689  37.354  53.140
17867DA     SC416041  78.783  37.549  53.318
17868DC     BB116042  78.682  38.130  53.366
17868DC     BB216043  78.534  38.118  53.037
17868DC     BB316044  78.336  38.058  53.051
17868DC     SC116045  78.406  37.810  53.097
17868DC     SC216046  78.354  37.688  52.927
17868DC     SC316047  78.434  37.579  53.222
17869DT     BB116048  78.242  38.312  52.996
17869DT     BB216049  78.086  38.105  52.745
17869DT     BB316050  77.907  38.030  52.817
17869DT     SC116051  78.032  37.858  52.971
17869DT     SC216052  78.000  37.659  52.895
17869DT     SC316053  78.116  37.735  53.189
17870DC     BB116054  77.754  38.198  52.658
17870DC     BB216055  77.639  37.868  52.571
17870DC     BB316056  77.484  37.812  52.696
17870DC     SC116057  77.649  37.770  52.896
17870DC     SC216058  77.660  37.559  52.936
17870DC     SC316059  77.766  37.795  53.131
17871DG     BB116060  77.326  37.795  52.320
17871DG     BB216061  77.273  37.484  52.498
17871DG     BB316062  77.118  37.502  52.621
17871DG     SC116063  77.286  37.600  52.857
17871DG     SC216064  77.333  37.452  53.113
17871DG     SC316065  77.437  37.729  53.130
17871DG     SC416066  77.314  37.757  52.873
17872DT     BB116067  76.937  37.378  52.596
17872DT     BB216068  76.975  37.142  52.866
17872DT     BB316069  76.847  37.191  53.022
17872DT     SC116070  77.000  37.393  53.093
17872DT     SC216071  77.093  37.348  53.282
17872DT     SC316072  77.077  37.640  53.142
17873DT     BB116073  76.703  36.975  52.958
17873DT     BB216074  76.793  36.927  53.304
17873DT     BB316075  76.658  37.025  53.426
17873DT     SC116076  76.762  37.258  53.367
17873DT     SC216077  76.864  37.337  53.540
17873DT     SC316078  76.784  37.504  53.274
17874DA     BB116079  76.694  36.629  53.560
17874DA     BB216080  76.726  36.850  53.851
17874DA     BB316081  76.537  36.936  53.900
17874DA     SC116082  76.576  37.186  53.720
17874DA     SC216083  76.613  37.431  53.750
17874DA     SC316084  76.530  37.453  53.508
17874DA     SC416085  76.521  37.179  53.569
17875DC     BB116086  76.452  36.884  54.074
17875DC     BB216087  76.508  37.195  54.248
17875DC     BB316088  76.332  37.303  54.258
17875DC     SC116089  76.350  37.369  54.005
17875DC     SC216090  76.392  37.580  53.989
17875DC     SC316091  76.291  37.388  53.748
17876DT     BB116092  76.297  37.250  54.527
17876DT     BB216093  76.289  37.610  54.507
17876DT     BB316094  76.095  37.674  54.471
17876DT     SC116095  76.108  37.599  54.220
17876DT     SC216096  76.111  37.772  54.093
17876DT     SC316097  76.056  37.468  53.997
17877DC     BB116098  76.043  37.769  54.734
17877DC     BB216099  75.977  38.056  54.525
17877DC     BB316100  75.778  38.059  54.470
17877DC     SC116101  75.814  37.864  54.298
17877DC     SC216102  75.794  37.941  54.098
17877DC     SC316103  75.793  37.628  54.183
17878DA     BB116104  75.820  38.440  54.646
17878DA     BB216105  75.664  38.489  54.318
17878DA     BB316106  75.456  38.441  54.327
17878DA     SC116107  75.498  38.143  54.248
17878DA     SC216108  75.450  37.995  54.054
17878DA     SC316109  75.474  37.801  54.220
17878DA     SC416110  75.515  38.037  54.368
17879DA     BB116111  75.404  38.746  54.212
17879DA     BB216112  75.266  38.590  53.909
17879DA     BB316113  75.064  38.531  53.942
17879DA     SC116114  75.139  38.245  54.041
17879DA     SC216115  75.118  38.010  53.960
17879DA     SC316116  75.150  37.944  54.206
17879DA     SC416117  75.158  38.224  54.199
17880DT     BB116118  74.922  38.623  53.834
17880DT     BB216119  74.875  38.351  53.601
17880DT     BB316120  74.695  38.256  53.640
17880DT     SC116121  74.794  38.139  53.853
17880DT     SC216122  74.814  37.928  53.816
17880DT     SC316123  74.830  38.072  54.106
17881DT     BB116124  74.637  38.362  53.410
17881DT     BB216125  74.609  38.005  53.365
17881DT     BB316126  74.426  37.939  53.437
17881DT     SC116127  74.505  37.964  53.686
17881DT     SC216128  74.527  37.769  53.774
17881DT     SC316129  74.517  38.051  53.935
17882DT     BB116130  74.426  37.898  53.185
17882DT     BB216131  74.381  37.576  53.342
17882DT     BB316132  74.189  37.562  53.418
17882DT     SC116133  74.247  37.721  53.618
17882DT     SC216134  74.249  37.608  53.801
17882DT     SC316135  74.243  37.931  53.778
17883DA     BB116136  74.334  37.227  53.200
17883DA     BB216137  74.177  37.112  53.511
17883DA     BB316138  73.967  37.153  53.508
17883DA     SC116139  73.996  37.433  53.640
17883DA     SC216140  73.940  37.541  53.858
17883DA     SC316141  73.958  37.762  53.731
17883DA     SC416142  74.011  37.560  53.543
17884DT     BB116143  73.887  36.999  53.512
17884DT     BB216144  73.755  37.022  53.847
17884DT     BB316145  73.563  37.099  53.842
17884DT     SC116146  73.652  37.341  53.794
17884DT     SC216147  73.618  37.465  53.966
17884DT     SC316148  73.696  37.569  53.669
17885DC     BB116149  73.483  36.855  53.907
17885DC     BB216150  73.341  37.070  54.159
17885DC     BB316151  73.165  37.154  54.089
17885DC     SC116152  73.297  37.319  53.934
17885DC     SC216153  73.276  37.520  54.009
17885DC     SC316154  73.385  37.438  53.715
17886DA     BB116155  73.080  36.982  54.463
17886DA     BB216156  72.937  37.320  54.459
17886DA     BB316157  72.766  37.327  54.332
17886DA     SC116158  72.928  37.405  54.077
17886DA     SC216159  72.955  37.604  53.930
17886DA     SC316160  73.045  37.438  53.756
17886DA     SC416161  72.979  37.285  53.983
17887DT     BB116162  72.582  37.359  54.413
17887DT     BB216163  72.538  37.698  54.296
17887DT     BB316164  72.405  37.701  54.138
17887DT     SC116165  72.585  37.602  53.974
17887DT     SC216166  72.643  37.753  53.833
17887DT     SC316167  72.704  37.435  53.808
17888DT     BB116168  72.212  37.813  54.295
17888DT     BB216169  72.245  38.042  54.017
17888DT     BB316170  72.122  37.982  53.862
17888DT     SC116171  72.284  37.785  53.800
17888DT     SC216172  72.379  37.827  53.611
17888DT     SC316173  72.373  37.540  53.761
17889DT     BB116174  71.949  38.188  53.909
17889DT     BB216175  72.041  38.227  53.563
17889DT     BB316176  71.916  38.113  53.443
17889DT     SC116177  72.037  37.891  53.514
17889DT     SC216178  72.147  37.813  53.347
17889DT     SC316179  72.075  37.653  53.619
17890DA     BB116180  71.891  38.500  53.278
17890DA     BB216181  71.951  38.266  53.002
17890DA     BB316182  71.773  38.157  52.957
17890DA     SC116183  71.838  37.924  53.152
17890DA     SC216184  71.901  37.683  53.137
17890DA     SC316185  71.818  37.667  53.379
17890DA     SC416186  71.780  37.934  53.302
17891DA     BB116187  71.799  38.265  52.640
17891DA     BB216188  71.831  37.915  52.537
17891DA     BB316189  71.640  37.822  52.528
17891DA     SC116190  71.648  37.723  52.823
17891DA     SC216191  71.667  37.506  52.945
17891DA     SC316192  71.567  37.633  53.145
17891DA     SC416193  71.584  37.819  52.936
17892DA     BB116194  71.695  37.739  52.208
17892DA     BB216195  71.676  37.387  52.308
17892DA     BB316196  71.473  37.324  52.320
17892DA     SC116197  71.441  37.399  52.620
17892DA     SC216198  71.414  37.280  52.838
17892DA     SC316199  71.322  37.504  52.924
17892DA     SC416200  71.386  37.546  52.654
17893DT     BB116201  71.373  37.173  52.181
17893DT     BB216202  71.373  36.901  52.417
17893DT     BB316203  71.179  36.857  52.475
17893DT     SC116204  71.168  37.071  52.627
17893DT     SC216205  71.165  37.012  52.834
17893DT     SC316206  71.093  37.307  52.719
17894DA     BB116207  71.345  36.496  52.347
17894DA     BB216208  71.200  36.440  52.679
17894DA     BB316209  70.988  36.428  52.666
17894DA     SC116210  70.943  36.732  52.711
17894DA     SC216211  70.851  36.881  52.889
17894DA     SC316212  70.826  37.055  52.702
17894DA     SC416213  70.934  36.826  52.581
17895DC     BB116214  70.907  36.253  52.711
17895DC     BB216215  70.782  36.350  53.035
17895DC     BB316216  70.577  36.376  53.027
17895DC     SC116217  70.604  36.605  52.900
17895DC     SC216218  70.546  36.766  53.030
17895DC     SC316219  70.588  36.786  52.709
17896DG     BB116220  70.678  36.108  53.314
17896DG     BB216221  70.469  36.372  53.445
17896DG     BB316222  70.280  36.343  53.388
17896DG     SC116223  70.307  36.503  53.129
17896DG     SC216224  70.171  36.761  53.067
17896DG     SC316225  70.307  36.654  52.827
17896DG     SC416226  70.355  36.427  52.996
17897DA     BB116227  70.234  36.395  53.725
17897DA     BB216228  70.009  36.673  53.647
17897DA     BB316229  69.825  36.599  53.567
17897DA     SC116230  69.921  36.610  53.271
17897DA     SC216231  69.873  36.744  53.066
17897DA     SC316232  69.977  36.548  52.938
17897DA     SC416233  69.988  36.478  53.210
17898DT     BB116234  69.683  36.636  53.678
17898DT     BB216235  69.526  36.890  53.475
17898DT     BB316236  69.370  36.807  53.367
17898DT     SC116237  69.537  36.690  53.202
17898DT     SC216238  69.524  36.784  53.009
17898DT     SC316239  69.665  36.499  53.072
17899DT     BB116240  69.197  36.937  53.528
17899DT     BB216241  69.103  37.039  53.195
17899DT     BB316242  68.973  36.900  53.113
17899DT     SC116243  69.168  36.730  53.073
17899DT     SC216244  69.204  36.711  52.861
17899DT     SC316245  69.314  36.511  53.091
17900DA     BB116246  68.773  37.268  53.071
17900DA     BB216247  68.751  37.095  52.749
17900DA     BB316248  68.609  36.935  52.760
17900DA     SC116249  68.819  36.723  52.847
17900DA     SC216250  68.929  36.521  52.749
17900DA     SC316251  68.981  36.457  52.992
17900DA     SC416252  68.841  36.699  53.005
17901DA     BB116253  68.446  37.070  52.500
17901DA     BB216254  68.510  36.761  52.313
17901DA     BB316255  68.369  36.610  52.369
17901DA     SC116256  68.546  36.495  52.597
17901DA     SC216257  68.676  36.287  52.643
17901DA     SC316258  68.660  36.356  52.890
17901DA     SC416259  68.524  36.554  52.745
17902DA     BB116260  68.296  36.587  52.045
17902DA     BB216261  68.413  36.240  52.058
17902DA     BB316262  68.264  36.115  52.144
17902DA     SC116263  68.367  36.148  52.435
17902DA     SC216264  68.480  36.008  52.608
17902DA     SC316265  68.393  36.182  52.776
17902DA     SC416266  68.303  36.266  52.524
17903DT     BB116267  68.164  35.964  52.030
17903DT     BB216268  68.339  35.683  52.172
17903DT     BB316269  68.213  35.577  52.297
17903DT     SC116270  68.230  35.761  52.483
17903DT     SC216271  68.341  35.684  52.650
17903DT     SC316272  68.159  35.952  52.651
17904DA     BB116273  68.380  35.303  52.028
17904DA     BB216274  68.425  35.170  52.367
17904DA     BB316275  68.239  35.099  52.444
17904DA     SC116276  68.161  35.370  52.573
17904DA     SC216277  68.136  35.465  52.803
17904DA     SC316278  67.990  35.644  52.691
17904DA     SC416279  68.072  35.472  52.486
17905DT     BB116280  68.229  34.906  52.476
17905DT     BB216281  68.251  34.923  52.836
17905DT     BB316282  68.064  34.894  52.919
17905DT     SC116283  67.988  35.136  52.851
17905DT     SC216284  67.967  35.257  53.027
17905DT     SC316285  67.853  35.329  52.732
17906DA     BB116286  68.337  34.635  53.104
17906DA     BB216287  68.148  34.808  53.366
17906DA     BB316288  67.948  34.735  53.373
17906DA     SC116289  67.838  34.946  53.172
17906DA     SC216290  67.689  35.146  53.177
17906DA     SC316291  67.665  35.109  52.924
17906DA     SC416292  67.835  34.906  53.017
17907DC     BB116293  67.896  34.639  53.536
17907DC     BB216294  67.688  34.898  53.677
17907DC     BB316295  67.488  34.853  53.647
17907DC     SC116296  67.503  34.916  53.393
17907DC     SC216297  67.391  35.096  53.358
17907DC     SC316298  67.498  34.892  53.130
17908DG     BB116299  67.541  34.893  54.050
17908DG     BB216300  67.269  35.099  53.931
17908DG     BB316301  67.107  34.987  53.901
17908DG     SC116302  67.176  34.922  53.609
17908DG     SC216303  67.024  35.013  53.369
17908DG     SC316304  67.231  34.815  53.295
17908DG     SC416305  67.267  34.795  53.578
17909DA     BB116306  66.930  35.210  54.101
17909DA     BB216307  66.706  35.286  53.821
17909DA     BB316308  66.564  35.129  53.794
17909DA     SC116309  66.741  34.970  53.594
17909DA     SC216310  66.740  34.913  53.351
17909DA     SC316311  66.899  34.723  53.416
17909DA     SC416312  66.838  34.857  53.654
17910DA     BB116313  66.352  35.379  53.819
17910DA     BB216314  66.248  35.298  53.477
17910DA     BB316315  66.123  35.125  53.476
17910DA     SC116316  66.359  34.925  53.439
17910DA     SC216317  66.446  34.773  53.261
17910DA     SC316318  66.567  34.652  53.452
17910DA     SC416319  66.425  34.863  53.571
17911DT     BB116320  65.934  35.150  53.420
17911DT     BB216321  65.968  35.002  53.093
17911DT     BB316322  65.884  34.813  53.092
17911DT     SC116323  66.086  34.713  53.226
17911DT     SC216324  66.200  34.583  53.098
17911DT     SC316325  66.222  34.599  53.421
17912DT     BB116326  65.697  34.920  52.938
17912DT     BB216327  65.837  34.651  52.743
17912DT     BB316328  65.749  34.472  52.795
17912DT     SC116329  65.884  34.462  53.020
17912DT     SC216330  66.028  34.303  53.010
17912DT     SC316331  65.935  34.458  53.279
17913DT     BB116332  65.635  34.483  52.557
17913DT     BB216333  65.815  34.170  52.561
17913DT     BB316334  65.701  34.025  52.654
17913DT     SC116335  65.750  34.128  52.891
17913DT     SC216336  65.877  33.995  53.001
17913DT     SC316337  65.709  34.243  53.125
17914DG     BB116338  65.796  33.895  52.279
17914DG     BB216339  65.879  33.649  52.531
17914DG     BB316340  65.714  33.556  52.593
17914DG     SC116341  65.657  33.756  52.818
17914DG     SC216342  65.669  33.698  53.110
17914DG     SC316343  65.554  33.966  53.060
17914DG     SC416344  65.570  33.886  52.786
17915DA     BB116345  65.876  33.255  52.524
17915DA     BB216346  65.835  33.153  52.874
17915DA     BB316347  65.634  33.092  52.911
17915DA     SC116348  65.538  33.375  52.996
17915DA     SC216349  65.465  33.491  53.204
17915DA     SC316350  65.356  33.662  53.047
17915DA     SC416351  65.477  33.470  52.881
17916DA     BB116352  65.770  32.810  53.021
17916DA     BB216353  65.620  32.884  53.347
17916DA     BB316354  65.412  32.837  53.346
17916DA     SC116355  65.324  33.121  53.254
17916DA     SC216356  65.204  33.317  53.352
17916DA     SC316357  65.163  33.386  53.108
17916DA     SC416358  65.307  33.146  53.097
17917DA     BB116359  65.482  32.648  53.608
17917DA     BB216360  65.257  32.863  53.802
17917DA     BB316361  65.053  32.810  53.764
17917DA     SC116362  65.020  33.009  53.528
17917DA     SC216363  64.897  33.221  53.480
17917DA     SC316364  64.931  33.162  53.233
17917DA     SC416365  65.050  32.954  53.379
17918DA     BB116366  65.044  32.784  54.091
17918DA     BB216367  64.797  33.055  54.087
17918DA     BB316368  64.606  32.980  54.028
17918DA     SC116369  64.652  33.034  53.725
17918DA     SC216370  64.564  33.188  53.550
17918DA     SC316371  64.654  33.015  53.382
17918DA     SC416372  64.713  32.914  53.637
17919DT     BB116373  64.467  32.989  54.165
17919DT     BB216374  64.288  33.269  54.023
17919DT     BB316375  64.116  33.202  53.929
17919DT     SC116376  64.254  33.108  53.726
17919DT     SC216377  64.216  33.227  53.552
17919DT     SC316378  64.358  32.936  53.555
17920DA     BB116379  64.042  33.524  54.187
17920DA     BB216380  63.886  33.596  53.863
17920DA     BB316381  63.718  33.467  53.832
17920DA     SC116382  63.884  33.246  53.689
17920DA     SC216383  63.907  33.152  53.459
17920DA     SC316384  64.008  32.947  53.576
17920DA     SC416385  63.943  33.127  53.780
17921DT     BB116386  63.574  33.569  53.823
17921DT     BB216387  63.513  33.536  53.469
17921DT     BB316388  63.375  33.386  53.434
17921DT     SC116389  63.552  33.199  53.485
17921DT     SC216390  63.600  33.095  53.303
17921DT     SC316391  63.672  32.996  53.603
17922DA     BB116392  63.277  33.738  53.225
17922DA     BB216393  63.248  33.454  52.996
17922DA     BB316394  63.082  33.331  53.052
17922DA     SC116395  63.249  33.147  53.239
17922DA     SC216396  63.331  32.912  53.241
17922DA     SC316397  63.357  32.945  53.495
17922DA     SC416398  63.257  33.187  53.394
17923DT     BB116399  62.941  33.327  52.924
17923DT     BB216400  62.995  32.991  52.804
17923DT     BB316401  62.859  32.861  52.893
17923DT     SC116402  62.990  32.868  53.120
17923DT     SC216403  63.082  32.677  53.155
17923DT     SC316404  63.042  32.911  53.375
17924DA     BB116405  62.840  32.801  52.478
17924DA     BB216406  62.866  32.472  52.639
17924DA     BB316407  62.683  32.423  52.737
17924DA     SC116408  62.765  32.550  53.009
17924DA     SC216409  62.823  32.472  53.238
17924DA     SC316410  62.767  32.711  53.311
17924DA     SC416411  62.724  32.703  53.034
17925DT     BB116412  62.582  32.270  52.664
17925DT     BB216413  62.654  32.037  52.931
17925DT     BB316414  62.490  32.020  53.055
17925DT     SC116415  62.536  32.254  53.163
17925DT     SC216416  62.601  32.228  53.367
17925DT     SC316417  62.503  32.506  53.233
17926DA     BB116418  62.613  31.634  52.944
17926DA     BB216419  62.565  31.638  53.308
17926DA     BB316420  62.357  31.647  53.355
17926DA     SC116421  62.348  31.958  53.363
17926DA     SC216422  62.321  32.138  53.533
17926DA     SC316423  62.256  32.288  53.336
17926DA     SC416424  62.309  32.035  53.227
17927DA     BB116425  62.442  31.385  53.534
17927DA     BB216426  62.325  31.572  53.827
17927DA     BB316427  62.112  31.581  53.829
17927DA     SC116428  62.098  31.847  53.669
17927DA     SC216429  62.036  32.085  53.711
17927DA     SC316430  62.009  32.102  53.457
17927DA     SC416431  62.085  31.837  53.509
17928DA     BB116432  62.145  31.455  54.134
17928DA     BB216433  61.973  31.754  54.259
17928DA     BB316434  61.764  31.741  54.219
17928DA     SC116435  61.784  31.883  53.943
17928DA     SC216436  61.716  32.100  53.842
17928DA     SC316437  61.740  31.980  53.616
17928DA     SC416438  61.803  31.790  53.813
17929DA     BB116439  61.708  31.787  54.547
17929DA     BB216440  61.523  32.091  54.461
17929DA     BB316441  61.327  32.041  54.392
17929DA     SC116442  61.410  32.021  54.093
17929DA     SC216443  61.372  32.149  53.882
17929DA     SC316444  61.441  31.932  53.763
17929DA     SC416445  61.454  31.877  54.038
17930DT     BB116446  61.108  32.077  54.498
17930DT     BB216447  61.004  32.347  54.283
17930DT     BB316448  60.845  32.287  54.165
17930DT     SC116449  61.003  32.142  54.012
17930DT     SC216450  61.017  32.233  53.818
17930DT     SC316451  61.109  31.932  53.894
17931DT     BB116452  60.600  32.415  54.295
17931DT     BB216453  60.585  32.537  53.956
17931DT     BB316454  60.455  32.421  53.845
17931DT     SC116455  60.628  32.224  53.832
17931DT     SC216456  60.700  32.205  53.631
17931DT     SC316457  60.736  31.986  53.867
17932DG     BB116458  60.267  32.786  53.815
17932DG     BB216459  60.339  32.651  53.487
17932DG     BB316460  60.194  32.527  53.431
17932DG     SC116461  60.327  32.279  53.554
17932DG     SC216462  60.436  32.046  53.403
17932DG     SC316463  60.434  31.992  53.694
17932DG     SC416464  60.296  32.243  53.707
17933DC     BB116465  60.069  32.566  53.249
17933DC     BB216466  60.224  32.338  53.017
17933DC     BB316467  60.100  32.175  52.984
17933DC     SC116468  60.159  32.074  53.219
17933DC     SC216469  60.277  31.896  53.193
17933DC     SC316470  60.128  31.987  53.466
17934DC     BB116471  60.073  32.278  52.743
17934DC     BB216472  60.212  31.949  52.692
17934DC     BB316473  60.061  31.808  52.694
17934DC     SC116474  60.038  31.825  52.955
17934DC     SC216475  60.110  31.644  53.046
17934DC     SC316476  59.933  31.873  53.192
17935DT     BB116477  60.126  31.791  52.442
17935DT     BB216478  60.173  31.460  52.576
17935DT     BB316479  59.990  31.362  52.589
17935DT     SC116480  59.920  31.505  52.798
17935DT     SC216481  59.916  31.379  52.973
17935DT     SC316482  59.786  31.675  52.949
17936DA     BB116483  60.279  31.121  52.401
17936DA     BB216484  60.108  30.921  52.656
17936DA     BB316485  59.907  30.882  52.597
17936DA     SC116486  59.791  31.135  52.735
17936DA     SC216487  59.646  31.188  52.931
17936DA     SC316488  59.608  31.414  52.816
17936DA     SC416489  59.779  31.269  52.647
17937DC     BB116490  59.865  30.696  52.560
17937DC     BB216491  59.665  30.635  52.855
17937DC     BB316492  59.464  30.641  52.806
17937DC     SC116493  59.468  30.902  52.787
17937DC     SC216494  59.355  30.988  52.949
17937DC     SC316495  59.451  31.144  52.681
17938DA     BB116496  59.523  30.276  53.006
17938DA     BB216497  59.231  30.440  53.156
17938DA     BB316498  59.064  30.427  53.025
17938DA     SC116499  59.125  30.696  52.881
17938DA     SC216500  59.027  30.925  52.868
17938DA     SC316501  59.162  30.948  52.650
17938DA     SC416502  59.215  30.690  52.748
17939DT     BB116503  58.895  30.313  53.076
17939DT     BB216504  58.680  30.591  53.157
17939DT     BB316505  58.538  30.616  53.008
17939DT     SC116506  58.715  30.720  52.845
17939DT     SC216507  58.673  30.930  52.819
17939DT     SC316508  58.872  30.751  52.635
17940DC     BB116509  58.343  30.521  53.173
17940DC     BB216510  58.231  30.851  53.080
17940DC     BB316511  58.123  30.842  52.904
17940DC     SC116512  58.341  30.808  52.762
17940DC     SC216513  58.378  30.984  52.644
17940DC     SC316514  58.519  30.695  52.603
17941DG     BB116515  57.900  31.014  53.196
17941DG     BB216516  57.918  31.222  52.901
17941DG     BB316517  57.798  31.150  52.760
17941DG     SC116518  58.011  30.968  52.636
17941DG     SC216519  58.132  30.999  52.365
17941DG     SC316520  58.214  30.743  52.489
17941DG     SC416521  58.029  30.820  52.693
17942DA     BB116522  57.709  31.482  52.765
17942DA     BB216523  57.798  31.502  52.409
17942DA     BB316524  57.657  31.393  52.292
17942DA     SC116525  57.817  31.126  52.304
17942DA     SC216526  57.949  30.983  52.148
17942DA     SC316527  57.910  30.796  52.320
17942DA     SC416528  57.781  31.023  52.422
17943DT     BB116529  57.572  31.507  52.184
17943DT     BB216530  57.729  31.407  51.875
17943DT     BB316531  57.610  31.270  51.776
17943DT     SC116532  57.675  31.079  51.944
17943DT     SC216533  57.797  30.934  51.843
17943DT     SC316534  57.651  30.893  52.129
17944DT     BB116535  57.572  31.467  51.605
17944DT     BB216536  57.700  31.193  51.408
17944DT     BB316537  57.548  31.062  51.361
17944DT     SC116538  57.544  30.966  51.606
17944DT     SC216539  57.618  30.764  51.604
17944DT     SC316540  57.457  30.906  51.847
17945DG     BB116541  57.724  31.189  51.016
17945DG     BB216542  57.703  30.828  51.031
17945DG     BB316543  57.516  30.770  50.994
17945DG     SC116544  57.429  30.779  51.287
17945DG     SC216545  57.353  30.545  51.455
17945DG     SC316546  57.294  30.799  51.596
17945DG     SC416547  57.371  30.917  51.347
17946DT     BB116548  57.478  30.648  50.824
17946DT     BB216549  57.413  30.326  50.973
17946DT     BB316550  57.209  30.292  50.981
17946DT     SC116551  57.181  30.460  51.180
17946DT     SC216552  57.131  30.351  51.359
17946DT     SC316553  57.102  30.671  51.318
17947DT     BB116554  57.237  30.109  50.786
17947DT     BB216555  57.077  29.930  51.055
17947DT     BB316556  56.872  29.958  51.046
17947DT     SC116557  56.894  30.203  51.138
17947DT     SC216558  56.812  30.212  51.337
17947DT     SC316559  56.881  30.466  51.149
17948DC     BB116560  56.839  29.702  50.962
17948DC     BB216561  56.632  29.726  51.256
17948DC     BB316562  56.445  29.800  51.205
17948DC     SC116563  56.540  30.043  51.176
17948DC     SC216564  56.465  30.168  51.334
17948DC     SC316565  56.608  30.270  51.061
17949DA     BB116566  56.371  29.445  51.418
17949DA     BB216567  56.155  29.707  51.558
17949DA     BB316568  55.994  29.749  51.425
17949DA     SC116569  56.148  29.974  51.273
17949DA     SC216570  56.136  30.222  51.251
17949DA     SC316571  56.271  30.188  51.035
17949DA     SC416572  56.230  29.932  51.142
17950DT     BB116573  55.793  29.703  51.473
17950DT     BB216574  55.686  30.042  51.538
17950DT     BB316575  55.566  30.109  51.384
17950DT     SC116576  55.773  30.139  51.226
17950DT     SC216577  55.808  30.348  51.192
17950DT     SC316578  55.936  30.105  51.021
17951DT     BB116579  55.325  30.091  51.528
17951DT     BB216580  55.336  30.435  51.419
17951DT     BB316581  55.243  30.454  51.235
17951DT     SC116582  55.447  30.344  51.112
17951DT     SC216583  55.548  30.492  50.994
17951DT     SC316584  55.587  30.172  50.970
17952DA     BB116585  55.036  30.737  51.467
17952DA     BB216586  55.140  30.907  51.160
17952DA     BB316587  55.010  30.856  50.998
17952DA     SC116588  55.181  30.612  50.907
17952DA     SC216589  55.326  30.551  50.713
17952DA     SC316590  55.287  30.308  50.787
17952DA     SC416591  55.143  30.468  50.968
17953DG     BB116592  54.934  31.159  50.978
17953DG     BB216593  55.098  31.137  50.656
17953DG     BB316594  54.967  31.078  50.518
17953DG     SC116595  55.021  30.779  50.559
17953DG     SC216596  55.148  30.596  50.360
17953DG     SC316597  55.041  30.444  50.591
17953DG     SC416598  54.937  30.699  50.668
17954DA     BB116599  55.078  31.351  50.343
17954DA     BB216600  55.187  31.133  50.069
17954DA     BB316601  55.019  31.070  49.954
17954DA     SC116602  54.969  30.813  50.122
17954DA     SC216603  54.990  30.566  50.093
17954DA     SC316604  54.827  30.550  50.290
17954DA     SC416605  54.866  30.824  50.245
17955DA     BB116606  55.223  31.189  49.731
17955DA     BB216607  55.216  30.856  49.577
17955DA     BB316608  55.029  30.823  49.481
17955DA     SC116609  54.895  30.696  49.732
17955DA     SC216610  54.815  30.472  49.805
17955DA     SC316611  54.674  30.600  49.976
17955DA     SC416612  54.814  30.794  49.830
17956DT     BB116613  55.045  30.806  49.295
17956DT     BB216614  54.978  30.452  49.270
17956DT     BB316615  54.782  30.421  49.212
17956DT     SC116616  54.693  30.485  49.450
17956DT     SC216617  54.614  30.309  49.546
17956DT     SC316618  54.566  30.615  49.641
17957DC     BB116619  54.866  30.346  48.964
17957DC     BB216620  54.655  30.073  49.069
17957DC     BB316621  54.458  30.113  49.019
17957DC     SC116622  54.435  30.287  49.213
17957DC     SC216623  54.304  30.209  49.365
17957DC     SC316624  54.400  30.517  49.338
17958DA     BB116625  54.507  29.738  48.828
17958DA     BB216626  54.184  29.723  49.002
17958DA     BB316627  54.036  29.830  48.892
17958DA     SC116628  54.088  30.100  49.037
17958DA     SC216629  53.970  30.248  49.199
17958DA     SC316630  54.128  30.432  49.115
17958DA     SC416631  54.194  30.201  48.970
17959DT     BB116632  53.820  29.760  48.741
17959DT     BB216633  53.568  29.868  48.975
17959DT     BB316634  53.458  30.023  48.894
17959DT     SC116635  53.654  30.193  48.930
17959DT     SC216636  53.599  30.334  49.084
17959DT     SC316637  53.846  30.365  48.876
17960DT     BB116638  53.163  29.918  48.768
17960DT     BB216639  53.058  30.182  48.990
17960DT     BB316640  53.011  30.352  48.881
17960DT     SC116641  53.265  30.404  48.839
17960DT     SC216642  53.321  30.580  48.949
17960DT     SC316643  53.492  30.442  48.711
17961DA     BB116644  52.606  30.335  49.037
17961DA     BB216645  52.727  30.672  49.115
17961DA     BB316646  52.686  30.805  48.953
17961DA     SC116647  52.957  30.753  48.809
17961DA     SC216648  53.168  30.878  48.762
17961DA     SC316649  53.204  30.705  48.576
17961DA     SC416650  52.961  30.637  48.698
17962DA     BB116651  52.529  30.987  49.176
17962DA     BB216652  52.799  31.232  49.135
17962DA     BB316653  52.760  31.359  48.968
17962DA     SC116654  52.909  31.177  48.764
17962DA     SC216655  53.119  31.186  48.629
17962DA     SC316656  53.008  31.005  48.484
17962DA     SC416657  52.823  31.067  48.686
17963DC     BB116658  52.739  31.534  49.023
17963DC     BB216659  53.069  31.640  48.922
17963DC     BB316660  53.058  31.746  48.744
17963DC     SC116661  53.018  31.526  48.606
17963DC     SC216662  53.190  31.485  48.485
17963DC     SC316663  52.899  31.348  48.452
17964DA     BB116664  53.294  31.909  49.052
17964DA     BB216665  53.488  31.905  48.741
17964DA     BB316666  53.405  32.042  48.600
17964DA     SC116667  53.216  31.832  48.471
17964DA     SC216668  53.196  31.710  48.254
17964DA     SC316669  52.951  31.672  48.322
17964DA     SC416670  53.067  31.820  48.530
17965DA     BB116671  53.730  32.078  48.633
17965DA     BB216672  53.740  32.014  48.272
17965DA     BB316673  53.641  32.170  48.166
17965DA     SC116674  53.362  32.031  48.171
17965DA     SC216675  53.208  31.922  48.009
17965DA     SC316676  53.026  31.963  48.186
17965DA     SC416677  53.264  32.066  48.293
17966DC     BB116678  53.761  32.251  48.065
17966DC     BB216679  53.644  32.133  47.745
17966DC     BB316680  53.517  32.272  47.660
17966DC     SC116681  53.323  32.208  47.824
17966DC     SC216682  53.167  32.108  47.715
17966DC     SC316683  53.142  32.230  48.015
17967DA     BB116684  53.809  32.167  47.376
17967DA     BB216685  53.482  32.158  47.212
17967DA     BB316686  53.407  32.356  47.184
17967DA     SC116687  53.256  32.363  47.457
17967DA     SC216688  53.020  32.363  47.537
17967DA     SC316689  53.116  32.457  47.755
17967DA     SC416690  53.335  32.422  47.584
17968DT     BB116691  53.388  32.431  46.996
17968DT     BB216692  53.028  32.417  46.976
17968DT     BB316693  52.949  32.607  46.997
17968DT     SC116694  52.997  32.608  47.255
17968DT     SC216695  52.811  32.599  47.362
17968DT     SC316696  53.099  32.677  47.488
17969DT     BB116697  52.884  32.624  46.729
17969DT     BB216698  52.572  32.685  46.899
17969DT     BB316699  52.551  32.887  46.938
17969DT     SC116700  52.727  32.875  47.133
17969DT     SC216701  52.626  32.904  47.321
17969DT     SC316702  52.946  32.919  47.272
17970DC     BB116703  52.359  32.910  46.746
17970DC     BB216704  52.200  33.030  47.046
17970DC     BB316705  52.238  33.232  47.070
17970DC     SC116706  52.485  33.185  47.145
17970DC     SC216707  52.505  33.232  47.354
17970DC     SC316708  52.748  33.184  47.145
17971DA     BB116709  51.823  33.183  47.099
17971DA     BB216710  51.931  33.387  47.383
17971DA     BB316711  51.979  33.585  47.318
17971DA     SC116712  52.279  33.521  47.266
17971DA     SC216713  52.500  33.579  47.366
17971DA     SC316714  52.598  33.509  47.140
17971DA     SC416715  52.320  33.475  47.118
17972DT     BB116716  51.864  33.722  47.387
17972DT     BB216717  52.098  33.862  47.623
17972DT     BB316718  52.181  34.035  47.545
17972DT     SC116719  52.333  33.898  47.381
17972DT     SC216720  52.538  33.915  47.443
17972DT     SC316721  52.434  33.805  47.156
17973DA     BB116722  52.035  34.123  47.928
17973DA     BB216723  52.378  34.250  47.906
17973DA     BB316724  52.385  34.423  47.781
17973DA     SC116725  52.440  34.262  47.520
17973DA     SC216726  52.629  34.229  47.360
17973DA     SC316727  52.448  34.150  47.196
17973DA     SC416728  52.313  34.218  47.432
17974DC     BB116729  52.434  34.591  47.869
17974DC     BB216730  52.768  34.614  47.736
17974DC     BB316731  52.774  34.753  47.582
17974DC     SC116732  52.653  34.588  47.418
17974DC     SC216733  52.792  34.524  47.266
17974DC     SC316734  52.470  34.488  47.257
17975DT     BB116735  52.912  34.910  47.747
17975DT     BB216736  53.125  34.867  47.459
17975DT     BB316737  53.072  35.003  47.312
17975DT     SC116738  52.857  34.867  47.251
17975DT     SC216739  52.881  34.778  47.057
17975DT     SC316740  52.602  34.807  47.219
17976DG     BB116741  53.467  35.043  47.405
17976DG     BB216742  53.416  35.001  47.049
17976DG     BB316743  53.347  35.170  46.970
17976DG     SC116744  53.052  35.098  47.013
17976DG     SC216745  52.851  35.044  46.799
17976DG     SC316746  52.721  35.062  47.064
17976DG     SC416747  52.982  35.138  47.152
17977DA     BB116748  53.605  35.113  46.748
17977DA     BB216749  53.363  35.114  46.473
17977DA     BB316750  53.291  35.312  46.438
17977DA     SC116751  53.050  35.285  46.633
17977DA     SC216752  52.801  35.271  46.619
17977DA     SC316753  52.804  35.343  46.865
17977DA     SC416754  53.072  35.332  46.786
17978DT     BB116755  53.340  35.380  46.271
17978DT     BB216756  53.015  35.366  46.115
17978DT     BB316757  52.925  35.552  46.120
17978DT     SC116758  52.873  35.529  46.376
17978DT     SC216759  52.660  35.508  46.403
17978DT     SC316760  52.876  35.576  46.635
17979DA     BB116761  52.907  35.422  45.720
17979DA     BB216762  52.576  35.549  45.812
17979DA     BB316763  52.579  35.761  45.827
17979DA     SC116764  52.650  35.763  46.130
17979DA     SC216765  52.539  35.821  46.346
17979DA     SC316766  52.777  35.837  46.440
17979DA     SC416767  52.806  35.769  46.170
17980DT     BB116768  52.476  35.893  45.690
17980DT     BB216769  52.212  35.995  45.914
17980DT     BB316770  52.243  36.191  45.974
17980DT     SC116771  52.437  36.119  46.136
17980DT     SC216772  52.374  36.143  46.340
17980DT     SC316773  52.679  36.099  46.240
17981DC     BB116774  52.043  36.321  45.811
17981DC     BB216775  51.959  36.427  46.146
17981DC     BB316776  52.052  36.607  46.188
17981DC     SC116777  52.285  36.489  46.217
17981DC     SC216778  52.343  36.494  46.424
17981DC     SC316779  52.537  36.423  46.174
17982DA     BB116780  51.651  36.711  46.265
17982DA     BB216781  51.845  36.814  46.559
17982DA     BB316782  51.947  36.997  46.520
17982DA     SC116783  52.204  36.860  46.412
17982DA     SC216784  52.441  36.829  46.485
17982DA     SC316785  52.489  36.781  46.238
17982DA     SC416786  52.214  36.834  46.254
17983DT     BB116787  51.900  37.191  46.622
17983DT     BB216788  52.186  37.183  46.843
17983DT     BB316789  52.321  37.331  46.789
17983DT     SC116790  52.400  37.194  46.580
17983DT     SC216791  52.601  37.126  46.612
17983DT     SC316792  52.444  37.129  46.328
17984DA     BB116793  52.243  37.372  47.198
17984DA     BB216794  52.606  37.364  47.153
17984DA     BB316795  52.675  37.548  47.071
17984DA     SC116796  52.648  37.456  46.775
17984DA     SC216797  52.800  37.400  46.585
17984DA     SC316798  52.594  37.441  46.436
17984DA     SC416799  52.510  37.488  46.700
17985DA     BB116800  52.862  37.508  47.334
17985DA     BB216801  53.146  37.503  47.102
17985DA     BB316802  53.184  37.700  47.027
17985DA     SC116803  52.997  37.668  46.780
17985DA     SC216804  53.020  37.648  46.533
17985DA     SC316805  52.775  37.721  46.524
17985DA     SC416806  52.845  37.716  46.796
17986DT     BB116807  53.350  37.763  47.081
17986DT     BB216808  53.516  37.731  46.762
17986DT     BB316809  53.523  37.915  46.668
17986DT     SC116810  53.269  37.902  46.606
17986DT     SC216811  53.247  37.877  46.394
17986DT     SC316812  53.012  37.962  46.599
17987DG     BB116813  53.900  37.763  46.705
17987DG     BB216814  53.828  37.862  46.364
17987DG     BB316815  53.836  38.060  46.348
17987DG     SC116816  53.540  38.103  46.415
17987DG     SC216817  53.331  38.205  46.228
17987DG     SC316818  53.226  38.187  46.504
17987DG     SC416819  53.497  38.120  46.568
17988DC     BB116820  53.983  38.149  46.218
17988DC     BB216821  53.780  38.262  45.942
17988DC     BB316822  53.747  38.466  45.958
17988DC     SC116823  53.574  38.432  46.152
17988DC     SC216824  53.377  38.480  46.081
17988DC     SC316825  53.464  38.444  46.391
17989DT     BB116826  53.917  38.514  45.750
17989DT     BB216827  53.608  38.670  45.649
17989DT     BB316828  53.600  38.864  45.722
17989DT     SC116829  53.551  38.779  45.965
17989DT     SC216830  53.348  38.829  46.018
17989DT     SC316831  53.580  38.734  46.223
17990DT     BB116832  53.643  38.970  45.472
17990DT     BB216833  53.334  39.122  45.580
17990DT     BB316834  53.374  39.295  45.687
17990DT     SC116835  53.453  39.157  45.896
17990DT     SC216836  53.309  39.180  46.055
17990DT     SC316837  53.609  39.061  46.086
17991DA     BB116838  53.101  39.408  45.390
17991DA     BB216839  52.977  39.538  45.709
17991DA     BB316840  53.091  39.708  45.769
17991DA     SC116841  53.298  39.541  45.932
17991DA     SC216842  53.359  39.506  46.171
17991DA     SC316843  53.583  39.420  46.079
17991DA     SC416844  53.431  39.493  45.855
17992DG     BB116845  52.823  39.868  45.754
17992DG     BB216846  52.873  39.903  46.111
17992DG     BB316847  52.994  40.057  46.147
17992DG     SC116848  53.251  39.891  46.134
17992DG     SC216849  53.434  39.834  46.363
17992DG     SC316850  53.553  39.744  46.107
17992DG     SC416851  53.323  39.871  45.993
17993DA     BB116852  52.757  40.188  46.368
17993DA     BB216853  52.997  40.170  46.644
17993DA     BB316854  53.132  40.334  46.636
17993DA     SC116855  53.341  40.185  46.460
17993DA     SC216856  53.571  40.091  46.486
17993DA     SC316857  53.582  40.102  46.230
17993DA     SC416858  53.329  40.201  46.301
17994DA     BB116859  53.033  40.389  46.945
17994DA     BB216860  53.380  40.332  47.049
17994DA     BB316861  53.499  40.506  47.010
17994DA     SC116862  53.582  40.414  46.724
17994DA     SC216863  53.788  40.337  46.608
17994DA     SC316864  53.667  40.403  46.392
17994DA     SC416865  53.490  40.463  46.601
17995DT     BB116866  53.583  40.623  47.169
17995DT     BB216867  53.922  40.506  47.130
17995DT     BB316868  54.040  40.657  47.051
17995DT     SC116869  53.935  40.625  46.812
17995DT     SC216870  54.083  40.541  46.680
17995DT     SC316871  53.803  40.677  46.590
17996DG     BB116872  54.207  40.549  47.406
17996DG     BB216873  54.447  40.533  47.136
17996DG     BB316874  54.515  40.716  47.095
17996DG     SC116875  54.298  40.776  46.888
17996DG     SC216876  54.341  40.812  46.594
17996DG     SC316877  54.064  40.883  46.670
17996DG     SC416878  54.160  40.841  46.936
17997DT     BB116879  54.722  40.751  47.119
17997DT     BB216880  54.835  40.757  46.777
17997DT     BB316881  54.865  40.953  46.716
17997DT     SC116882  54.607  40.995  46.697
17997DT     SC216883  54.553  41.017  46.490
17997DT     SC316884  54.368  41.096  46.744
17998DC     BB116885  55.118  40.881  46.718
17998DC     BB216886  55.053  40.995  46.382
17998DC     BB316887  55.066  41.201  46.373
17998DC     SC116888  54.835  41.229  46.493
17998DC     SC216889  54.691  41.306  46.353
17998DC     SC316890  54.656  41.295  46.675
17999DG     BB116891  55.303  41.012  46.101
17999DG     BB216892  55.099  41.269  45.948
17999DG     BB316893  55.169  41.449  45.997
17999DG     SC116894  54.999  41.474  46.250
17999DG     SC216895  54.777  41.668  46.294
17999DG     SC316896  54.842  41.525  46.544
17999DG     SC416897  55.056  41.417  46.388
18000DA     BB116898  55.140  41.492  45.655
18000DA     BB216899  54.933  41.790  45.713
18000DA     BB316900  55.051  41.947  45.795
18000DA     SC116901  54.999  41.867  46.091
18000DA     SC216902  54.874  41.957  46.287
18000DA     SC316903  55.027  41.806  46.428
18000DA     SC416904  55.104  41.767  46.161
18001DT     BB116905  55.085  42.113  45.683
18001DT     BB216906  54.886  42.348  45.871
18001DT     BB316907  55.009  42.467  45.987
18001DT     SC116908  55.052  42.272  46.157
18001DT     SC216909  54.956  42.318  46.344
18001DT     SC316910  55.180  42.089  46.297
18002DA     BB116911  54.792  42.760  45.772
18002DA     BB216912  54.795  42.866  46.123
18002DA     BB316913  54.985  42.947  46.175
18002DA     SC116914  55.103  42.675  46.269
18002DA     SC216915  55.172  42.568  46.483
18002DA     SC316916  55.309  42.409  46.336
18002DA     SC416917  55.183  42.587  46.160
18003DG     BB116918  54.879  43.251  46.241
18003DG     BB216919  54.988  43.179  46.578
18003DG     BB316920  55.177  43.235  46.601
18003DG     SC116921  55.294  42.966  46.513
18003DG     SC216922  55.443  42.775  46.687
18003DG     SC316923  55.456  42.692  46.403
18003DG     SC416924  55.323  42.941  46.358
18004DT     BB116925  55.289  43.423  46.752
18004DT     BB216926  55.424  43.216  47.014
18004DT     BB316927  55.631  43.219  47.007
18004DT     SC116928  55.635  43.063  46.796
18004DT     SC216929  55.713  42.871  46.851
18004DT     SC316930  55.675  42.981  46.549
18005DT     BB116931  55.669  43.384  47.235
18005DT     BB216932  55.849  43.082  47.315
18005DT     BB316933  56.047  43.100  47.256
18005DT     SC116934  55.983  43.070  47.004
18005DT     SC216935  56.057  42.880  46.933
18005DT     SC316936  55.953  43.124  46.747
18006DT     BB116937  56.122  43.115  47.517
18006DT     BB216938  56.295  42.826  47.388
18006DT     BB316939  56.476  42.883  47.305
18006DT     SC116940  56.357  42.984  47.094
18006DT     SC216941  56.401  42.862  46.923
18006DT     SC316942  56.275  43.161  46.917
18007DA     BB116943  56.515  42.560  47.569
18007DA     BB216944  56.685  42.476  47.255
18007DA     BB316945  56.863  42.592  47.234
18007DA     SC116946  56.722  42.824  47.081
18007DA     SC216947  56.720  42.919  46.851
18007DA     SC316948  56.627  43.131  46.960
18007DA     SC416949  56.666  42.947  47.168
18008DA     BB116950  56.939  42.279  47.184
18008DA     BB216951  57.055  42.389  46.854
18008DA     BB316952  57.229  42.511  46.874
18008DA     SC116953  57.069  42.777  46.892
18008DA     SC216954  57.032  42.980  46.752
18008DA     SC316955  56.960  43.093  46.971
18008DA     SC416956  57.030  42.830  47.039
18009DT     BB116957  57.360  42.426  46.795
18009DT     BB216958  57.395  42.644  46.509
18009DT     BB316959  57.541  42.786  46.547
18009DT     SC116960  57.382  42.919  46.707
18009DT     SC216961  57.327  43.106  46.615
18009DT     SC316962  57.286  43.029  46.927
18010DG     BB116963  57.647  42.586  46.207
18010DG     BB216964  57.664  42.945  46.159
18010DG     BB316965  57.827  43.017  46.247
18010DG     SC116966  57.691  43.066  46.516
18010DG     SC216967  57.639  43.333  46.640
18010DG     SC316968  57.579  43.115  46.831
18010DG     SC416969  57.689  42.948  46.625
18011DA     BB116970  57.934  43.178  45.949
18011DA     BB216971  57.936  43.504  46.116
18011DA     BB316972  58.112  43.524  46.236
18011DA     SC116973  57.980  43.407  46.492
18011DA     SC216974  57.907  43.489  46.716
18011DA     SC316975  57.919  43.242  46.788
18011DA     SC416976  57.996  43.249  46.518
18012DC     BB116977  58.292  43.666  46.199
18012DC     BB216978  58.217  43.901  46.463
18012DC     BB316979  58.357  43.885  46.614
18012DC     SC116980  58.253  43.660  46.699
18012DC     SC216981  58.159  43.692  46.890
18012DC     SC316982  58.230  43.404  46.759
18013DA     BB116983  58.391  44.297  46.525
18013DA     BB216984  58.350  44.270  46.888
18013DA     BB316985  58.535  44.214  46.980
18013DA     SC116986  58.479  43.908  46.963
18013DA     SC216987  58.428  43.721  47.119
18013DA     SC316988  58.506  43.568  46.929
18013DA     SC416989  58.532  43.830  46.833
18014DA     BB116990  58.509  44.486  47.169
18014DA     BB216991  58.485  44.264  47.460
18014DA     BB316992  58.679  44.200  47.521
18014DA     SC116993  58.679  43.946  47.342
18014DA     SC216994  58.669  43.699  47.372
18014DA     SC316995  58.768  43.686  47.136
18014DA     SC416996  58.742  43.959  47.195
18015DT     BB116997  58.756  44.260  47.706
18015DT     BB216998  58.704  43.944  47.873
18015DT     BB316999  58.885  43.849  47.903
18015DT     SC117000  58.902  43.784  47.649
18015DT     SC217001  58.878  43.571  47.628
18015DT     SC317002  58.991  43.772  47.401
18016DT     BB117003  58.859  43.901  48.165
18016DT     BB217004  58.885  43.542  48.143
18016DT     BB317005  59.084  43.485  48.141
18016DT     SC117006  59.112  43.565  47.892
18016DT     SC217007  59.138  43.393  47.765
18016DT     SC317008  59.198  43.702  47.684
18017DG     BB117009  58.889  43.299  48.445
18017DG     BB217010  59.064  43.063  48.235
18017DG     BB317011  59.259  43.069  48.274
18017DG     SC117012  59.319  43.287  48.068
18017DG     SC217013  59.481  43.253  47.819
18017DG     SC317014  59.417  43.539  47.866
18017DG     SC417015  59.308  43.441  48.112
18018DA     BB117016  59.220  42.728  48.300
18018DA     BB217017  59.470  42.681  48.036
18018DA     BB317018  59.665  42.723  48.110
18018DA     SC117019  59.657  43.025  48.033
18018DA     SC217020  59.766  43.176  47.868
18018DA     SC317021  59.695  43.366  48.025
18018DA     SC417022  59.605  43.128  48.144
18019DT     BB117023  59.786  42.572  48.116
18019DT     BB217024  59.995  42.669  47.839
18019DT     BB317025  60.172  42.750  47.910
18019DT     SC117026  60.052  42.973  47.977
18019DT     SC217027  60.117  43.131  47.847
18019DT     SC317028  59.958  43.169  48.127
18020DT     BB117029  60.308  42.527  47.833
18020DT     BB217030  60.477  42.797  47.664
18020DT     BB317031  60.623  42.877  47.788
18020DT     SC117032  60.443  42.998  47.935
18020DT     SC217033  60.457  43.211  47.904
18020DT     SC317034  60.296  43.064  48.144
18021DT     BB117035  60.822  42.764  47.638
18021DT     BB217036  60.900  43.116  47.639
18021DT     BB317037  61.016  43.162  47.804
18021DT     SC117038  60.809  43.144  47.964
18021DT     SC217039  60.758  43.340  48.038
18021DT     SC317040  60.653  43.058  48.158
18022DA     BB117041  61.215  43.314  47.467
18022DA     BB217042  61.198  43.581  47.718
18022DA     BB317043  61.335  43.542  47.877
18022DA     SC117044  61.129  43.385  48.049
18022DA     SC217045  61.003  43.417  48.262
18022DA     SC317046  60.975  43.162  48.259
18022DA     SC417047  61.123  43.225  48.030
18023DT     BB117048  61.494  43.667  47.903
18023DT     BB217049  61.368  43.837  48.195
18023DT     BB317050  61.469  43.772  48.364
18023DT     SC117051  61.339  43.544  48.363
18023DT     SC217052  61.206  43.538  48.532
18023DT     SC317053  61.294  43.285  48.349
18024DA     BB117054  61.481  44.191  48.359
18024DA     BB217055  61.372  44.084  48.693
18024DA     BB317056  61.537  44.003  48.802
18024DA     SC117057  61.487  43.711  48.706
18024DA     SC217058  61.409  43.495  48.803
18024DA     SC317059  61.523  43.386  48.601
18024DA     SC417060  61.565  43.662  48.574
18025DC     BB117061  61.593  44.103  48.959
18025DC     BB217062  61.461  43.876  49.207
18025DC     BB317063  61.614  43.764  49.289
18025DC     SC117064  61.631  43.616  49.072
18025DC     SC217065  61.561  43.418  49.115
18025DC     SC317066  61.731  43.507  48.854
18026DT     BB117067  61.584  43.905  49.515
18026DT     BB217068  61.542  43.561  49.615
18026DT     BB317069  61.726  43.475  49.652
18026DT     SC117070  61.779  43.459  49.396
18026DT     SC217071  61.778  43.252  49.335
18026DT     SC317072  61.898  43.500  49.164
18027DG     BB117073  61.504  43.438  49.992
18027DG     BB217074  61.645  43.120  49.891
18027DG     BB317075  61.837  43.112  49.941
18027DG     SC117076  61.936  43.232  49.677
18027DG     SC217077  62.097  43.090  49.469
18027DG     SC317078  62.078  43.379  49.409
18027DG     SC417079  61.949  43.391  49.664
18028DA     BB117080  61.768  42.809  50.098
18028DA     BB217081  62.013  42.640  49.884
18028DA     BB317082  62.211  42.683  49.950
18028DA     SC117083  62.243  42.933  49.768
18028DA     SC217084  62.374  42.999  49.566
18028DA     SC317085  62.325  43.241  49.638
18028DA     SC417086  62.204  43.076  49.830
18029DA     BB117087  62.245  42.354  49.960
18029DA     BB217088  62.512  42.389  49.711
18029DA     BB317089  62.691  42.458  49.805
18029DA     SC117090  62.627  42.759  49.761
18029DA     SC217091  62.713  42.948  49.622
18029DA     SC317092  62.597  43.100  49.793
18029DA     SC417093  62.550  42.837  49.878
18030DC     BB117094  62.870  42.336  49.823
18030DC     BB217095  63.063  42.505  49.569
18030DC     BB317096  63.214  42.616  49.658
18030DC     SC117097  63.043  42.798  49.738
18030DC     SC217098  63.075  42.980  49.627
18030DC     SC317099  62.901  42.952  49.899
18031DT     BB117100  63.421  42.441  49.582
18031DT     BB217101  63.522  42.759  49.444
18031DT     BB317102  63.639  42.861  49.581
18031DT     SC117103  63.429  42.921  49.727
18031DT     SC217104  63.390  43.132  49.714
18031DT     SC317105  63.265  42.929  49.934
18032DA     BB117106  63.844  42.851  49.215
18032DA     BB217107  63.837  43.198  49.333
18032DA     BB317108  63.969  43.223  49.499
18032DA     SC117109  63.751  43.159  49.712
18032DA     SC217110  63.624  43.281  49.888
18032DA     SC317111  63.582  43.049  49.990
18032DA     SC417112  63.737  43.006  49.760
18033DA     BB117113  64.074  43.460  49.300
18033DA     BB217114  63.980  43.694  49.566
18033DA     BB317115  64.119  43.683  49.728
18033DA     SC117116  63.962  43.464  49.881
18033DA     SC217117  63.829  43.445  50.091
18033DA     SC317118  63.872  43.193  50.072
18033DA     SC417119  64.001  43.310  49.852
18034DT     BB117120  64.218  43.843  49.754
18034DT     BB217121  64.047  43.950  50.053
18034DT     BB317122  64.161  43.904  50.220
18034DT     SC117123  64.099  43.650  50.201
18034DT     SC217124  63.970  43.595  50.364
18034DT     SC317125  64.126  43.389  50.169
18035DC     BB117126  64.212  44.166  50.249
18035DC     BB217127  64.062  44.066  50.561
18035DC     BB317128  64.206  43.987  50.687
18035DC     SC117129  64.217  43.765  50.549
18035DC     SC217130  64.133  43.604  50.666
18035DC     SC317131  64.311  43.571  50.398
18036DT     BB117132  64.189  44.209  50.840
18036DT     BB217133  64.116  43.936  51.065
18036DT     BB317134  64.292  43.857  51.139
18036DT     SC117135  64.345  43.738  50.911
18036DT     SC217136  64.325  43.525  50.936
18036DT     SC317137  64.468  43.675  50.687
18037DC     BB117138  64.238  43.965  51.381
18037DC     BB217139  64.271  43.612  51.444
18037DC     BB317140  64.470  43.564  51.474
18037DC     SC117141  64.523  43.587  51.218
18037DC     SC217142  64.565  43.392  51.136
18037DC     SC317143  64.628  43.676  50.994
18038DT     BB117144  64.415  43.524  51.735
18038DT     BB217145  64.548  43.210  51.618
18038DT     BB317146  64.755  43.213  51.627
18038DT     SC117147  64.770  43.369  51.417
18038DT     SC217148  64.853  43.258  51.252
18038DT     SC317149  64.821  43.580  51.268
18039DG     BB117150  64.609  42.899  51.841
18039DG     BB217151  64.852  42.794  51.593
18039DG     BB317152  65.035  42.838  51.655
18039DG     SC117153  65.037  43.117  51.529
18039DG     SC217154  65.210  43.205  51.302
18039DG     SC317155  65.066  43.435  51.420
18039DG     SC417156  64.981  43.241  51.613
18040DC     BB117157  65.147  42.678  51.669
18040DC     BB217158  65.363  42.714  51.382
18040DC     BB317159  65.542  42.801  51.439
18040DC     SC117160  65.428  43.037  51.461
18040DC     SC217161  65.500  43.165  51.304
18040DC     SC317162  65.339  43.260  51.569
18041DA     BB117163  65.579  42.460  51.192
18041DA     BB217164  65.793  42.727  51.061
18041DA     BB317165  65.952  42.768  51.197
18041DA     SC117166  65.795  42.987  51.353
18041DA     SC217167  65.803  43.234  51.383
18041DA     SC317168  65.667  43.193  51.596
18041DA     SC417169  65.712  42.941  51.483
18042DC     BB117170  66.112  42.727  51.121
18042DC     BB217171  66.234  43.063  51.075
18042DC     BB317172  66.361  43.114  51.231
18042DC     SC117173  66.160  43.143  51.397
18042DC     SC217174  66.137  43.351  51.445
18042DC     SC317175  66.001  43.103  51.603
18043DT     BB117176  66.566  43.096  51.057
18043DT     BB217177  66.597  43.426  51.200
18043DT     BB317178  66.703  43.417  51.377
18043DT     SC117179  66.497  43.314  51.504
18043DT     SC217180  66.420  43.458  51.643
18043DT     SC317181  66.350  43.141  51.638
18044DA     BB117182  66.904  43.708  51.152
18044DA     BB217183  66.858  43.845  51.489
18044DA     BB317184  66.994  43.754  51.625
18044DA     SC117185  66.800  43.525  51.704
18044DA     SC217186  66.667  43.456  51.904
18044DA     SC317187  66.662  43.224  51.796
18044DA     SC417188  66.809  43.387  51.621
18045DA     BB117189  67.098  44.061  51.703
18045DA     BB217190  66.992  43.998  52.048
18045DA     BB317191  67.139  43.881  52.150
18045DA     SC117192  67.011  43.608  52.073
18045DA     SC217193  66.890  43.423  52.188
18045DA     SC317194  66.957  43.281  51.984
18045DA     SC417195  67.064  43.536  51.939
18046DA     BB117196  67.147  44.122  52.379
18046DA     BB217197  67.036  43.875  52.626
18046DA     BB317198  67.201  43.756  52.691
18046DA     SC117199  67.162  43.538  52.473
18046DA     SC217200  67.089  43.300  52.461
18046DA     SC317201  67.209  43.295  52.235
18046DA     SC417202  67.243  43.555  52.335
18047DT     BB117203  67.281  43.765  52.894
18047DT     BB217204  67.147  43.449  53.006
18047DT     BB317205  67.301  43.311  53.029
18047DT     SC117206  67.322  43.281  52.769
18047DT     SC217207  67.253  43.085  52.714
18047DT     SC317208  67.424  43.285  52.526
18048DC     BB117209  67.294  43.322  53.307
18048DC     BB217210  67.249  42.971  53.233
18048DC     BB317211  67.432  42.877  53.225
18048DC     SC117212  67.485  42.983  52.991
18048DC     SC217213  67.482  42.830  52.840
18048DC     SC317214  67.605  43.128  52.805
18049DA     BB117215  67.211  42.648  53.498
18049DA     BB217216  67.362  42.414  53.260
18049DA     BB317217  67.570  42.389  53.303
18049DA     SC117218  67.661  42.620  53.116
18049DA     SC217219  67.784  42.645  52.900
18049DA     SC317220  67.825  42.887  52.974
18049DA     SC417221  67.678  42.767  53.181
18050DA     BB117222  67.504  42.064  53.318
18050DA     BB217223  67.738  42.017  53.039
18050DA     BB317224  67.939  42.021  53.110
18050DA     SC117225  67.973  42.327  53.071
18050DA     SC217226  68.100  42.481  52.921
18050DA     SC317227  68.061  42.658  53.103
18050DA     SC417228  67.939  42.422  53.196
18051DA     BB117229  67.984  41.720  52.970
18051DA     BB217230  68.241  41.870  52.755
18051DA     BB317231  68.426  41.885  52.860
18051DA     SC117232  68.369  42.170  52.971
18051DA     SC217233  68.455  42.401  52.937
18051DA     SC317234  68.352  42.451  53.167
18051DA     SC417235  68.300  42.180  53.116
18052DA     BB117236  68.555  41.715  52.607
18052DA     BB217237  68.767  42.006  52.538
18052DA     BB317238  68.934  42.009  52.671
18052DA     SC117239  68.790  42.180  52.887
18052DA     SC217240  68.804  42.411  52.980
18052DA     SC317241  68.679  42.316  53.182
18052DA     SC417242  68.712  42.102  53.005
18053DT     BB117243  69.130  41.981  52.599
18053DT     BB217244  69.233  42.326  52.625
18053DT     BB317245  69.366  42.348  52.781
18053DT     SC117246  69.174  42.327  52.959
18053DT     SC217247  69.144  42.517  53.055
18053DT     SC317248  69.030  42.232  53.158
18054DA     BB117249  69.534  42.521  52.440
18054DA     BB217250  69.563  42.763  52.714
18054DA     BB317251  69.714  42.702  52.851
18054DA     SC117252  69.519  42.539  53.031
18054DA     SC217253  69.421  42.556  53.260
18054DA     SC317254  69.376  42.305  53.237
18054DA     SC417255  69.501  42.383  52.999
18055DA     BB117256  69.807  43.008  52.785
18055DA     BB217257  69.769  43.075  53.143
18055DA     BB317258  69.929  42.985  53.253
18055DA     SC117259  69.778  42.717  53.300
18055DA     SC217260  69.675  42.595  53.491
18055DA     SC317261  69.695  42.387  53.342
18055DA     SC417262  69.801  42.600  53.193
18056DT     BB117263  70.057  43.107  53.344
18056DT     BB217264  69.949  43.047  53.682
18056DT     BB317265  70.084  42.924  53.779
18056DT     SC117266  69.997  42.714  53.648
18056DT     SC217267  69.893  42.583  53.783
18056DT     SC317268  69.995  42.506  53.485
18057DA     BB117269  70.045  43.256  54.032
18057DA     BB217270  70.015  42.957  54.241
18057DA     BB317271  70.206  42.867  54.269
18057DA     SC117272  70.183  42.681  54.020
18057DA     SC217273  70.156  42.438  53.974
18057DA     SC317274  70.246  42.493  53.740
18057DA     SC417275  70.242  42.736  53.881
18058DT     BB117276  70.318  42.860  54.464
18058DT     BB217277  70.267  42.509  54.531
18058DT     BB317278  70.445  42.406  54.510
18058DT     SC117279  70.431  42.422  54.248
18058DT     SC217280  70.394  42.226  54.167
18058DT     SC317281  70.493  42.485  54.000
18059DC     BB117282  70.508  42.366  54.791
18059DC     BB217283  70.513  42.031  54.656
18059DC     BB317284  70.705  41.979  54.601
18059DC     SC117285  70.694  42.132  54.388
18059DC     SC217286  70.690  42.008  54.212
18059DC     SC317287  70.750  42.327  54.219
18060DT     BB117288  70.766  41.800  54.821
18060DT     BB217289  70.817  41.596  54.528
18060DT     BB317290  71.017  41.601  54.473
18060DT     SC117291  70.992  41.843  54.376
18060DT     SC217292  71.008  41.836  54.161
18060DT     SC317293  71.026  42.103  54.345
18061DC     BB117294  71.073  41.339  54.561
18061DC     BB217295  71.157  41.333  54.210
18061DC     BB317296  71.358  41.380  54.185
18061DC     SC117297  71.313  41.634  54.234
18061DC     SC217298  71.340  41.747  54.053
18061DC     SC317299  71.323  41.869  54.354
18062DT     BB117300  71.392  41.124  54.115
18062DT     BB217301  71.498  41.316  53.828
18062DT     BB317302  71.696  41.374  53.851
18062DT     SC117303  71.630  41.557  54.028
18062DT     SC217304  71.659  41.752  53.942
18062DT     SC317305  71.615  41.687  54.257
18063DG     BB117306  71.641  41.169  53.504
18063DG     BB217307  71.799  41.490  53.449
18063DG     BB317308  71.989  41.482  53.504
18063DG     SC117309  71.935  41.567  53.793
18063DG     SC217310  72.021  41.823  53.920
18063DG     SC317311  71.909  41.638  54.122
18063DG     SC417312  71.901  41.455  53.902
18064DG     BB117313  72.041  41.577  53.199
18064DG     BB217314  72.188  41.873  53.346
18064DG     BB317315  72.372  41.833  53.408
18064DG     SC117316  72.285  41.747  53.688
18064DG     SC217317  72.347  41.890  53.943
18064DG     SC317318  72.224  41.627  53.998
18064DG     SC417319  72.247  41.594  53.714
18065DA     BB117320  72.439  42.118  53.226
18065DA     BB217321  72.577  42.273  53.528
18065DA     BB317322  72.765  42.185  53.578
18065DA     SC117323  72.642  41.966  53.761
18065DA     SC217324  72.634  41.912  54.005
18065DA     SC317325  72.573  41.675  53.929
18065DA     SC417326  72.606  41.825  53.694
18066DT     BB117327  72.906  42.306  53.565
18066DT     BB217328  72.963  42.349  53.918
18066DT     BB317329  73.123  42.233  53.979
18066DT     SC117330  72.980  42.014  53.965
18066DT     SC217331  72.945  41.938  54.163
18066DT     SC317332  72.897  41.775  53.887
18067DT     BB117333  73.254  42.462  54.008
18067DT     BB217334  73.272  42.302  54.331
18067DT     BB317335  73.428  42.166  54.334
18067DT     SC117336  73.293  41.996  54.188
18067DT     SC217337  73.240  41.825  54.308
18067DT     SC317338  73.226  41.842  53.984
18068DT     BB117339  73.544  42.339  54.497
18068DT     BB217340  73.535  42.027  54.679
18068DT     BB317341  73.694  41.908  54.622
18068DT     SC117342  73.578  41.849  54.394
18068DT     SC217343  73.519  41.642  54.395
18068DT     SC317344  73.535  41.834  54.134
18069DT     BB117345  73.794  41.958  54.862
18069DT     BB217346  73.780  41.598  54.842
18069DT     BB317347  73.947  41.526  54.742
18069DT     SC117348  73.852  41.606  54.510
18069DT     SC217349  73.798  41.434  54.392
18069DT     SC317350  73.831  41.737  54.283
18070DT     BB117351  74.037  41.433  54.976
18070DT     BB217352  74.038  41.145  54.758
18070DT     BB317353  74.213  41.141  54.648
18070DT     SC117354  74.129  41.335  54.493
18070DT     SC217355  74.089  41.258  54.296
18070DT     SC317356  74.116  41.571  54.375
18071DT     BB117357  74.322  40.933  54.795
18071DT     BB217358  74.342  40.815  54.455
18071DT     BB317359  74.521  40.876  54.369
18071DT     SC117360  74.433  41.122  54.345
18071DT     SC217361  74.403  41.167  54.136
18071DT     SC317362  74.414  41.383  54.377
18072DA     BB117363  74.539  40.459  54.307
18072DA     BB217364  74.622  40.619  53.987
18072DA     BB317365  74.822  40.694  53.991
18072DA     SC117366  74.740  40.975  54.097
18072DA     SC217367  74.731  41.209  54.011
18072DA     SC317368  74.728  41.278  54.259
18072DA     SC417369  74.740  40.998  54.256
18073DA     BB117370  74.892  40.513  53.718
18073DA     BB217371  74.959  40.827  53.541
18073DA     BB317372  75.156  40.896  53.584
18073DA     SC117373  75.069  41.067  53.829
18073DA     SC217374  75.050  41.308  53.888
18073DA     SC317375  75.052  41.228  54.132
18073DA     SC417376  75.074  40.997  53.974
18074DA     BB117377  75.202  40.898  53.256
18074DA     BB217378  75.253  41.261  53.281
18074DA     BB317379  75.451  41.303  53.349
18074DA     SC117380  75.373  41.306  53.650
18074DA     SC217381  75.352  41.473  53.834
18074DA     SC317382  75.370  41.271  53.992
18074DA     SC417383  75.387  41.168  53.732
18075DT     BB117384  75.583  41.398  53.222
18075DT     BB217385  75.570  41.721  53.381
18075DT     BB317386  75.744  41.755  53.488
18075DT     SC117387  75.670  41.589  53.677
18075DT     SC217388  75.626  41.701  53.856
18075DT     SC317389  75.668  41.380  53.838
18076DC     BB117390  75.825  41.938  53.303
18076DC     BB217391  75.826  42.120  53.615
18076DC     BB317392  76.008  42.096  53.710
18076DC     SC117393  75.947  41.851  53.781
18076DC     SC217394  75.918  41.843  53.994
18076DC     SC317395  75.958  41.588  53.799
18077DT     BB117396  76.077  42.353  53.651
18077DT     BB217397  76.105  42.333  54.010
18077DT     BB317398  76.293  42.266  54.063
18077DT     SC117399  76.234  42.021  53.991
18077DT     SC217400  76.222  41.896  54.166
18077DT     SC317401  76.241  41.792  53.860
18078DC     BB117402  76.378  42.516  54.151
18078DC     BB217403  76.431  42.302  54.436
18078DC     BB317404  76.620  42.219  54.428
18078DC     SC117405  76.549  42.053  54.238
18078DC     SC217406  76.545  41.853  54.316
18078DC     SC317407  76.540  41.935  54.002
18079DT     BB117408  76.730  42.380  54.633
18079DT     BB217409  76.788  42.043  54.748
18079DT     BB317410  76.973  41.977  54.682
18079DT     SC117411  76.884  41.945  54.438
18079DT     SC217412  76.875  41.735  54.392
18079DT     SC317413  76.856  41.977  54.177
18080DA     BB117414  76.986  41.917  55.097
18080DA     BB217415  77.085  41.602  54.937
18080DA     BB317416  77.286  41.614  54.866
18080DA     SC117417  77.205  41.719  54.584
18080DA     SC217418  77.205  41.635  54.349
18080DA     SC317419  77.193  41.882  54.282
18080DA     SC417420  77.200  41.878  54.562
18081DG     BB117421  77.339  41.380  55.061
18081DG     BB217422  77.394  41.198  54.753
18081DG     BB317423  77.581  41.222  54.692
18081DG     SC117424  77.521  41.472  54.526
18081DG     SC217425  77.537  41.492  54.228
18081DG     SC317426  77.494  41.759  54.350
18081DG     SC417427  77.528  41.616  54.596
18082DT     BB117428  77.700  41.048  54.676
18082DT     BB217429  77.706  41.001  54.319
18082DT     BB317430  77.888  41.064  54.242
18082DT     SC117431  77.820  41.316  54.270
18082DT     SC217432  77.791  41.404  54.076
18082DT     SC317433  77.823  41.566  54.355
18083DT     BB117434  77.922  40.808  54.200
18083DT     BB217435  77.953  40.963  53.876
18083DT     BB317436  78.145  41.039  53.852
18083DT     SC117437  78.093  41.240  54.013
18083DT     SC217438  78.086  41.422  53.898
18083DT     SC317439  78.107  41.401  54.221
18084DT     BB117440  78.173  40.843  53.677
18084DT     BB217441  78.251  41.143  53.494
18084DT     BB317442  78.448  41.198  53.529
18084DT     SC117443  78.389  41.285  53.769
18084DT     SC217444  78.407  41.500  53.774
18084DT     SC317445  78.388  41.305  54.032
18085DC     BB117446  78.507  41.121  53.277
18085DC     BB217447  78.624  41.461  53.296
18085DC     BB317448  78.816  41.466  53.374
18085DC     SC117449  78.726  41.418  53.616
18085DC     SC217450  78.751  41.593  53.738
18085DC     SC317451  78.686  41.295  53.846
18086DG     BB117452  78.866  41.638  53.005
18086DG     BB217453  79.013  41.845  53.263
18086DG     BB317454  79.193  41.776  53.312
18086DG     SC117455  79.089  41.589  53.531
18086DG     SC217456  79.140  41.617  53.824
18086DG     SC317457  79.008  41.359  53.764
18086DG     SC417458  79.045  41.440  53.492
18087DT     BB117459  79.416  41.883  53.279
18087DT     BB217460  79.490  41.984  53.617
18087DT     BB317461  79.644  41.868  53.694
18087DT     SC117462  79.484  41.662  53.724
18087DT     SC217463  79.453  41.627  53.934
18087DT     SC317464  79.382  41.421  53.693
18088DT     BB117465  79.850  42.067  53.678
18088DT     BB217466  79.848  41.972  54.026
18088DT     BB317467  79.986  41.821  54.059
18088DT     SC117468  79.829  41.643  53.946
18088DT     SC217469  79.755  41.507  54.095
18088DT     SC317470  79.742  41.462  53.775
18089DT     BB117471  80.165  41.988  54.192
18089DT     BB217472  80.091  41.729  54.432
18089DT     BB317473  80.227  41.574  54.412
18089DT     SC117474  80.111  41.490  54.192
18089DT     SC217475  80.013  41.302  54.230
18089DT     SC317476  80.075  41.428  53.938
18090DA     BB117477  80.198  41.695  54.810
18090DA     BB217478  80.158  41.331  54.798
18090DA     BB317479  80.345  41.237  54.755
18090DA     SC117480  80.304  41.240  54.447
18090DA     SC217481  80.263  41.075  54.265
18090DA     SC317482  80.349  41.258  54.107
18090DA     SC417483  80.362  41.366  54.365
18091DG     BB117484  80.257  41.116  55.021
18091DG     BB217485  80.251  40.813  54.824
18091DG     BB317486  80.436  40.747  54.796
18091DG     SC117487  80.480  40.905  54.538
18091DG     SC217488  80.514  40.789  54.265
18091DG     SC317489  80.569  41.079  54.263
18091DG     SC417490  80.538  41.054  54.547
18092DA     BB117491  80.262  40.467  54.898
18092DA     BB217492  80.373  40.299  54.592
18092DA     BB317493  80.584  40.270  54.596
18092DA     SC117494  80.650  40.540  54.458
18092DA     SC217495  80.738  40.619  54.238
18092DA     SC317496  80.793  40.837  54.361
18092DA     SC417497  80.677  40.667  54.552
18093DA     BB117498  80.463  39.973  54.525
18093DA     BB217499  80.667  39.989  54.221
18093DA     BB317500  80.875  39.975  54.270
18093DA     SC117501  80.913  40.283  54.299
18093DA     SC217502  81.029  40.466  54.176
18093DA     SC317503  81.013  40.597  54.396
18093DA     SC417504  80.895  40.347  54.445
18094DT     BB117505  80.963  39.818  54.207
18094DT     BB217506  81.161  39.973  53.949
18094DT     BB317507  81.355  40.001  54.015
18094DT     SC117508  81.282  40.202  54.167
18094DT     SC217509  81.362  40.385  54.087
18094DT     SC317510  81.238  40.346  54.384
18095DT     BB117511  81.441  39.801  53.853
18095DT     BB217512  81.643  40.085  53.760
18095DT     BB317513  81.808  40.098  53.884
18095DT     SC117514  81.663  40.188  54.083
18095DT     SC217515  81.712  40.394  54.120
18095DT     SC317516  81.545  40.200  54.319
18096DT     BB117517  81.974  40.014  53.683
18096DT     BB217518  82.114  40.329  53.788
18096DT     BB317519  82.246  40.299  53.945
18096DT     SC117520  82.048  40.261  54.114
18096DT     SC217521  82.037  40.426  54.251
18096DT     SC317522  81.889  40.140  54.286
18097DG     BB117523  82.465  40.479  53.651
18097DG     BB217524  82.498  40.655  53.966
18097DG     BB317525  82.625  40.559  54.084
18097DG     SC117526  82.410  40.383  54.214
18097DG     SC217527  82.322  40.394  54.499
18097DG     SC317528  82.203  40.161  54.361
18097DG     SC417529  82.372  40.243  54.145
18098DA     BB117530  82.798  40.859  54.123
18098DA     BB217531  82.741  40.847  54.485
18098DA     BB317532  82.873  40.707  54.577
18098DA     SC117533  82.677  40.467  54.550
18098DA     SC217534  82.538  40.324  54.701
18098DA     SC317535  82.536  40.157  54.506
18098DA     SC417536  82.688  40.375  54.418
18099DG     BB117537  82.984  40.951  54.739
18099DG     BB217538  82.851  40.768  55.021
18099DG     BB317539  82.981  40.629  55.080
18099DG     SC117540  82.871  40.411  54.896
18099DG     SC217541  82.733  40.161  54.983
18099DG     SC317542  82.789  40.155  54.692
18099DG     SC417543  82.929  40.399  54.747
18100DA     BB117544  82.967  40.754  55.408
18100DA     BB217545  82.846  40.430  55.529
18100DA     BB317546  83.008  40.292  55.547
18100DA     SC117547  82.977  40.182  55.258
18100DA     SC217548  82.905  39.970  55.148
18100DA     SC317549  83.035  40.056  54.944
18100DA     SC417550  83.064  40.252  55.142
18101DT     BB117551  83.084  40.213  55.740
18101DT     BB217552  82.940  39.884  55.707
18101DT     BB317553  83.090  39.745  55.673
18101DT     SC117554  83.119  39.825  55.425
18101DT     SC217555  83.048  39.671  55.292
18101DT     SC317556  83.231  39.926  55.209
18102DT     BB117557  83.075  39.636  55.930
18102DT     BB217558  83.014  39.356  55.710
18102DT     BB317559  83.193  39.264  55.662
18102DT     SC117560  83.258  39.458  55.498
18102DT     SC217561  83.251  39.386  55.295
18102DT     SC317562  83.389  39.662  55.394
18103DA     BB117563  82.940  38.963  55.805
18103DA     BB217564  83.077  38.851  55.484
18103DA     BB317565  83.281  38.792  55.507
18103DA     SC117566  83.395  39.074  55.443
18103DA     SC217567  83.523  39.184  55.260
18103DA     SC317568  83.583  39.361  55.435
18103DA     SC417569  83.422  39.173  55.567
18104DA     BB117570  83.151  38.528  55.365
18104DA     BB217571  83.383  38.591  55.088
18104DA     BB317572  83.582  38.537  55.144
18104DA     SC117573  83.654  38.820  55.253
18104DA     SC217574  83.802  39.010  55.189
18104DA     SC317575  83.780  39.083  55.434
18104DA     SC417576  83.629  38.848  55.410
18105DT     BB117577  83.652  38.393  55.044
18105DT     BB217578  83.879  38.587  54.841
18105DT     BB317579  84.072  38.569  54.915
18105DT     SC117580  84.018  38.728  55.117
18105DT     SC217581  84.123  38.914  55.091
18105DT     SC317582  83.982  38.812  55.364
18106DG     BB117583  84.067  38.454  54.524
18106DG     BB217584  84.321  38.703  54.587
18106DG     BB317585  84.477  38.620  54.679
18106DG     SC117586  84.369  38.670  54.960
18106DG     SC217587  84.487  38.855  55.163
18106DG     SC317588  84.271  38.691  55.283
18106DG     SC417589  84.274  38.561  55.028
18107DA     BB117590  84.666  38.767  54.429
18107DA     BB217591  84.857  38.951  54.682
18107DA     BB317592  84.993  38.819  54.782
18107DA     SC117593  84.792  38.742  55.006
18107DA     SC217594  84.765  38.781  55.251
18107DA     SC317595  84.612  38.575  55.246
18107DA     SC417596  84.702  38.611  54.983
18108DA     BB117597  85.209  39.050  54.690
18108DA     BB217598  85.279  39.100  55.046
18108DA     BB317599  85.399  38.940  55.121
18108DA     SC117600  85.156  38.765  55.206
18108DA     SC217601  85.049  38.688  55.417
18108DA     SC317602  84.943  38.505  55.273
18108DA     SC417603  85.101  38.658  55.099
18109DC     BB117604  85.590  38.979  55.182
18109DC     BB217605  85.527  38.955  55.536
18109DC     BB317606  85.603  38.777  55.610
18109DC     SC117607  85.407  38.640  55.502
18109DC     SC217608  85.279  38.564  55.658
18109DC     SC317609  85.280  38.467  55.349
18110DT     BB117610  85.806  38.909  55.735
18110DT     BB217611  85.639  38.728  55.999
18110DT     BB317612  85.719  38.538  56.015
18110DT     SC117613  85.595  38.459  55.798
18110DT     SC217614  85.440  38.319  55.851
18110DT     SC317615  85.556  38.371  55.552
18111DT     BB117616  85.836  38.611  56.247
18111DT     BB217617  85.631  38.327  56.334
18111DT     BB317618  85.735  38.151  56.300
18111DT     SC117619  85.705  38.173  56.041
18111DT     SC217620  85.571  38.020  55.971
18111DT     SC317621  85.765  38.201  55.785
18112DA     BB117622  85.570  38.150  56.686
18112DA     BB217623  85.486  37.832  56.523
18112DA     BB317624  85.660  37.710  56.504
18112DA     SC117625  85.737  37.820  56.224
18112DA     SC217626  85.743  37.737  55.989
18112DA     SC317627  85.907  37.930  55.947
18112DA     SC417628  85.839  37.945  56.218
18113DA     BB117629  85.443  37.513  56.649
18113DA     BB217630  85.483  37.295  56.357
18113DA     BB317631  85.675  37.201  56.360
18113DA     SC117632  85.815  37.425  56.197
18113DA     SC217633  85.914  37.454  55.970
18113DA     SC317634  86.040  37.653  56.072
18113DA     SC417635  85.885  37.544  56.280
18114DA     BB117636  85.471  36.947  56.323
18114DA     BB217637  85.650  36.879  56.010
18114DA     BB317638  85.845  36.803  56.052
18114DA     SC117639  85.980  37.083  56.054
18114DA     SC217640  86.140  37.212  55.912
18114DA     SC317641  86.180  37.355  56.122
18114DA     SC417642  85.992  37.159  56.195
18115DT     BB117643  85.872  36.625  55.995
18115DT     BB217644  86.087  36.696  55.715
18115DT     BB317645  86.285  36.663  55.767
18115DT     SC117646  86.292  36.884  55.909
18115DT     SC217647  86.419  37.027  55.811
18115DT     SC317648  86.313  37.044  56.117
18116DA     BB117649  86.214  36.451  55.411
18116DA     BB217650  86.526  36.640  55.370
18116DA     BB317651  86.681  36.551  55.487
18116DA     SC117652  86.624  36.725  55.739
18116DA     SC217653  86.734  36.910  55.864
18116DA     SC317654  86.584  36.839  56.060
18116DA     SC417655  86.523  36.665  55.849
18117DA     BB117656  86.843  36.547  55.198
18117DA     BB217657  87.095  36.761  55.355
18117DA     BB317658  87.219  36.646  55.486
18117DA     SC117659  87.040  36.694  55.736
18117DA     SC217660  87.053  36.819  55.952
18117DA     SC317661  86.867  36.661  56.031
18117DA     SC417662  86.925  36.585  55.768
18118DA     BB117663  87.473  36.767  55.310
18118DA     BB217664  87.594  36.922  55.619
18118DA     BB317665  87.689  36.777  55.743
18118DA     SC117666  87.429  36.701  55.896
18118DA     SC217667  87.336  36.729  56.126
18118DA     SC317668  87.180  36.535  56.064
18118DA     SC417669  87.342  36.579  55.839
18119DA     BB117670  87.954  36.978  55.740
18119DA     BB217671  87.915  37.010  56.103
18119DA     BB317672  87.995  36.839  56.202
18119DA     SC117673  87.728  36.681  56.199
18119DA     SC217674  87.556  36.605  56.364
18119DA     SC317675  87.488  36.435  56.183
18119DA     SC417676  87.701  36.582  56.075
18120DA     BB117677  88.176  37.059  56.371
18120DA     BB217678  88.003  36.943  56.673
18120DA     BB317679  88.086  36.759  56.741
18120DA     SC117680  87.890  36.582  56.575
18120DA     SC217681  87.699  36.428  56.619
18120DA     SC317682  87.749  36.334  56.385
18120DA     SC417683  87.938  36.536  56.428
18121DG     BB117684  88.155  36.915  57.001
18121DG     BB217685  87.914  36.689  57.147
18121DG     BB317686  88.002  36.517  57.194
18121DG     SC117687  87.950  36.386  56.923
18121DG     SC217688  87.770  36.154  56.871
18121DG     SC317689  87.928  36.219  56.630
18121DG     SC417690  88.057  36.405  56.805
18122DT     BB117691  88.007  36.451  57.404
18122DT     BB217692  87.754  36.194  57.400
18122DT     BB317693  87.843  36.007  57.402
18122DT     SC117694  87.912  36.029  57.150
18122DT     SC217695  87.797  35.891  57.032
18122DT     SC317696  88.064  36.047  56.935
18123DT     BB117697  87.754  35.981  57.654
18123DT     BB217698  87.610  35.703  57.475
18123DT     BB317699  87.745  35.545  57.469
18123DT     SC117700  87.891  35.666  57.288
18123DT     SC217701  87.874  35.562  57.101
18123DT     SC317702  88.098  35.784  57.175
18124DA     BB117703  87.369  35.414  57.600
18124DA     BB217704  87.484  35.189  57.334
18124DA     BB317705  87.645  35.067  57.405
18124DA     SC117706  87.866  35.267  57.315
18124DA     SC217707  88.046  35.278  57.143
18124DA     SC317708  88.151  35.457  57.293
18124DA     SC417709  87.916  35.375  57.423
18125DA     BB117710  87.436  34.849  57.283
18125DA     BB217711  87.706  34.752  57.054
18125DA     BB317712  87.858  34.645  57.160
18125DA     SC117713  88.023  34.900  57.228
18125DA     SC217714  88.241  35.001  57.162
18125DA     SC317715  88.221  35.135  57.380
18125DA     SC417716  87.993  34.973  57.368
18126DT     BB117717  87.873  34.468  57.103
18126DT     BB217718  88.184  34.505  56.924
18126DT     BB317719  88.341  34.437  57.040
18126DT     SC117720  88.332  34.651  57.192
18126DT     SC217721  88.506  34.771  57.157
18126DT     SC317722  88.301  34.802  57.406
18127DA     BB117723  88.361  34.264  56.658
18127DA     BB217724  88.694  34.392  56.744
18127DA     BB317725  88.782  34.271  56.896
18127DA     SC117726  88.670  34.442  57.130
18127DA     SC217727  88.758  34.597  57.304
18127DA     SC317728  88.540  34.548  57.430
18127DA     SC417729  88.529  34.397  57.194
18128DT     BB117730  88.937  34.178  56.838
18128DT     BB217731  89.181  34.373  57.019
18128DT     BB317732  89.238  34.273  57.191
18128DT     SC117733  89.011  34.332  57.310
18128DT     SC217734  89.048  34.473  57.468
18128DT     SC317735  88.777  34.300  57.426
18129DA     BB117736  89.585  34.386  56.983
18129DA     BB217737  89.629  34.476  57.336
18129DA     BB317738  89.657  34.301  57.454
18129DA     SC117739  89.354  34.264  57.514
18129DA     SC217740  89.201  34.284  57.710
18129DA     SC317741  89.042  34.135  57.575
18129DA     SC417742  89.270  34.170  57.415
18130DA     BB117743  89.929  34.463  57.554
18130DA     BB217744  89.796  34.443  57.895
18130DA     BB317745  89.817  34.245  57.971
18130DA     SC117746  89.539  34.149  57.870
18130DA     SC217747  89.319  34.085  57.968
18130DA     SC317748  89.277  33.966  57.745
18130DA     SC417749  89.532  34.080  57.725
18131DG     BB117750  90.005  34.354  58.204
18131DG     BB217751  89.743  34.233  58.422
18131DG     BB317752  89.771  34.040  58.461
18131DG     SC117753  89.607  33.942  58.222
18131DG     SC217754  89.348  33.795  58.235
18131DG     SC317755  89.452  33.800  57.958
18131DG     SC417756  89.681  33.921  58.081
18132DC     BB117757  89.820  33.940  58.676
18132DC     BB217758  89.502  33.790  58.755
18132DC     BB317759  89.513  33.584  58.735
18132DC     SC117760  89.511  33.601  58.474
18132DC     SC217761  89.324  33.524  58.399
18132DC     SC317762  89.590  33.582  58.223
18133DT     BB117763  89.514  33.532  59.011
18133DT     BB217764  89.231  33.345  58.887
18133DT     BB317765  89.291  33.154  58.833
18133DT     SC117766  89.407  33.243  58.616
18133DT     SC217767  89.297  33.177  58.443
18133DT     SC317768  89.597  33.299  58.441
18134DT     BB117769  89.165  33.042  59.051
18134DT     BB217770  89.015  32.880  58.766
18134DT     BB317771  89.124  32.712  58.714
18134DT     SC117772  89.314  32.859  58.609
18134DT     SC217773  89.314  32.834  58.395
18134DT     SC317774  89.552  32.967  58.570
18135DA     BB117775  88.719  32.612  58.749
18135DA     BB217776  88.841  32.486  58.427
18135DA     BB317777  88.970  32.319  58.457
18135DA     SC117778  89.229  32.491  58.475
18135DA     SC217779  89.433  32.531  58.338
18135DA     SC317780  89.538  32.617  58.556
18135DA     SC417781  89.277  32.539  58.621
18136DA     BB117782  88.750  32.218  58.239
18136DA     BB217783  89.036  32.166  58.014
18136DA     BB317784  89.152  32.000  58.080
18136DA     SC117785  89.340  32.172  58.259
18136DA     SC217786  89.578  32.246  58.259
18136DA     SC317787  89.544  32.288  58.510
18136DA     SC417788  89.300  32.190  58.413
18137DT     BB117789  89.148  31.869  57.956
18137DT     BB217790  89.486  31.907  57.835
18137DT     BB317791  89.610  31.770  57.928
18137DT     SC117792  89.608  31.908  58.151
18137DT     SC217793  89.802  31.996  58.183
18137DT     SC317794  89.566  31.971  58.404
18138DC     BB117795  89.622  31.642  57.695
18138DC     BB217796  89.966  31.709  57.781
18138DC     BB317797  90.036  31.563  57.909
18138DC     SC117798  89.901  31.664  58.111
18138DC     SC217799  90.038  31.750  58.252
18138DC     SC317800  89.725  31.684  58.306
18139DA     BB117801  90.315  31.579  57.595
18139DA     BB217802  90.502  31.585  57.910
18139DA     BB317803  90.500  31.392  58.001
18139DA     SC117804  90.242  31.447  58.167
18139DA     SC217805  90.180  31.481  58.406
18139DA     SC317806  89.942  31.420  58.332
18139DA     SC417807  90.101  31.405  58.102
18140DA     BB117808  90.834  31.405  58.003
18140DA     BB217809  90.818  31.387  58.369
18140DA     BB317810  90.786  31.186  58.432
18140DA     SC117811  90.476  31.210  58.432
18140DA     SC217812  90.291  31.215  58.599
18140DA     SC317813  90.139  31.150  58.403
18140DA     SC417814  90.398  31.168  58.298
18141DA     BB117815  91.062  31.213  58.617
18141DA     BB217816  90.851  31.165  58.913
18141DA     BB317817  90.810  30.957  58.942
18141DA     SC117818  90.550  30.960  58.771
18141DA     SC217819  90.304  30.939  58.809
18141DA     SC317820  90.291  30.880  58.560
18141DA     SC417821  90.563  30.924  58.615
18142DA     BB117822  90.935  30.999  59.245
18142DA     BB217823  90.602  30.917  59.376
18142DA     BB317824  90.574  30.705  59.377
18142DA     SC117825  90.451  30.695  59.092
18142DA     SC217826  90.228  30.651  58.988
18142DA     SC317827  90.360  30.605  58.773
18142DA     SC417828  90.551  30.669  58.969
18143DC     BB117829  90.554  30.598  59.561
18143DC     BB217830  90.197  30.551  59.540
18143DC     BB317831  90.154  30.353  59.501
18143DC     SC117832  90.228  30.377  59.251
18143DC     SC217833  90.056  30.363  59.123
18143DC     SC317834  90.365  30.342  59.028
18144DC     BB117835  90.061  30.329  59.754
18144DC     BB217836  89.781  30.241  59.544
18144DC     BB317837  89.788  30.040  59.498
18144DC     SC117838  89.984  30.078  59.327
18144DC     SC217839  89.912  30.046  59.127
18144DC     SC317840  90.223  30.063  59.217
18145DA     BB117841  89.410  30.150  59.638
18145DA     BB217842  89.367  29.961  59.327
18145DA     BB317843  89.411  29.755  59.358
18145DA     SC117844  89.713  29.783  59.286
18145DA     SC217845  89.866  29.712  59.102
18145DA     SC317846  90.054  29.751  59.271
18145DA     SC417847  89.816  29.811  59.406
18146DG     BB117848  89.124  29.753  59.256
18146DG     BB217849  89.275  29.572  58.982
18146DG     BB317850  89.311  29.384  59.037
18146DG     SC117851  89.592  29.443  59.144
18146DG     SC217852  89.848  29.343  59.028
18146DG     SC317853  89.895  29.476  59.288
18146DG     SC417854  89.609  29.488  59.297
18147DG     BB117855  89.131  29.321  58.777
18147DG     BB217856  89.424  29.150  58.650
18147DG     BB317857  89.441  28.972  58.737
18147DG     SC117858  89.611  29.075  58.969
18147DG     SC217859  89.898  29.007  59.021
18147DG     SC317860  89.782  29.157  59.248
18147DG     SC417861  89.538  29.129  59.101
18148DA     BB117862  89.474  28.870  58.408
18148DA     BB217863  89.796  28.716  58.491
18148DA     BB317864  89.767  28.541  58.610
18148DA     SC117865  89.784  28.694  58.881
18148DA     SC217866  89.941  28.710  59.074
18148DA     SC317867  89.739  28.801  59.204
18148DA     SC417868  89.646  28.747  58.945
18149DT     BB117869  89.817  28.376  58.527
18149DT     BB217870  90.110  28.305  58.724
18149DT     BB317871  90.065  28.165  58.870
18149DT     SC117872  89.936  28.343  59.012
18149DT     SC217873  90.047  28.385  59.192
18149DT     SC317874  89.738  28.466  59.136
18150DG     BB117875  90.365  27.990  58.653
18150DG     BB217876  90.436  27.972  59.007
18150DG     BB317877  90.332  27.825  59.090
18150DG     SC117878  90.088  27.999  59.155
18150DG     SC217879  89.993  28.073  59.428
18150DG     SC317880  89.797  28.156  59.222
18150DG     SC417881  89.973  28.015  59.045
18151DT     BB117882  90.413  27.610  59.193
18151DT     BB217883  90.358  27.674  59.544
18151DT     BB317884  90.201  27.559  59.613
18151DT     SC117885  90.025  27.714  59.494
18151DT     SC217886  89.914  27.823  59.642
18151DT     SC317887  89.834  27.791  59.329
18152DT     BB117888  90.352  27.361  59.756
18152DT     BB217889  90.123  27.486  60.005
18152DT     BB317890  89.951  27.371  60.007
18152DT     SC117891  89.866  27.480  59.784
18152DT     SC217892  89.695  27.603  59.826
18152DT     SC317893  89.789  27.503  59.533
18153DA     BB117894  90.070  27.345  60.411
18153DA     BB217895  89.716  27.442  60.410
18153DA     BB317896  89.593  27.272  60.371
18153DA     SC117897  89.592  27.311  60.063
18153DA     SC217898  89.430  27.378  59.885
18153DA     SC317899  89.593  27.264  59.722
18153DA     SC417900  89.705  27.234  59.978
18154DA     BB117901  89.440  27.353  60.653
18154DA     BB217902  89.138  27.411  60.453
18154DA     BB317903  89.043  27.226  60.408
18154DA     SC117904  89.197  27.185  60.140
18154DA     SC217905  89.147  27.187  59.896
18154DA     SC317906  89.363  27.052  59.871
18154DA     SC417907  89.334  27.100  60.146
18155DG     BB117908  88.801  27.344  60.564
18155DG     BB217909  88.644  27.334  60.239
18155DG     BB317910  88.569  27.153  60.205
18155DG     SC117911  88.825  27.045  60.076
18155DG     SC217912  88.858  26.966  59.790
18155DG     SC317913  89.095  26.888  59.949
18155DG     SC417914  88.937  26.978  60.170
18156DG     BB117915  88.280  27.299  60.165
18156DG     BB217916  88.296  27.180  59.824
18156DG     BB317917  88.235  26.991  59.816
18156DG     SC117918  88.514  26.873  59.861
18156DG     SC217919  88.673  26.717  59.663
18156DG     SC317920  88.802  26.711  59.929
18156DG     SC417921  88.564  26.848  60.011
18157DG     BB117922  88.013  27.097  59.603
18157DG     BB217923  88.177  26.881  59.364
18157DG     BB317924  88.115  26.694  59.388
18157DG     SC117925  88.332  26.622  59.591
18157DG     SC217926  88.555  26.427  59.548
18157DG     SC317927  88.544  26.515  59.830
18157DG     SC417928  88.305  26.648  59.746
18158DG     BB117929  88.022  26.706  59.075
18158DG     BB217930  88.263  26.442  59.020
18158DG     BB317931  88.185  26.267  59.071
18158DG     SC117932  88.279  26.282  59.362
18158DG     SC217933  88.482  26.105  59.490
18158DG     SC317934  88.348  26.275  59.692
18158DG     SC417935  88.184  26.353  59.470
18159DA     BB117936  88.286  26.165  58.757
18159DA     BB217937  88.495  25.905  58.910
18159DA     BB317938  88.374  25.744  58.981
18159DA     SC117939  88.336  25.865  59.265
18159DA     SC217940  88.409  25.815  59.498
18159DA     SC317941  88.211  25.961  59.570
18159DA     SC417942  88.207  25.958  59.290
18160DA     BB117943  88.588  25.581  58.795
18160DA     BB217944  88.686  25.405  59.101
18160DA     BB317945  88.536  25.263  59.156
18160DA     SC117946  88.380  25.463  59.336
18160DA     SC217947  88.335  25.496  59.579
18160DA     SC317948  88.135  25.638  59.502
18160DA     SC417949  88.260  25.546  59.268
18161DT     BB117950  88.590  25.076  59.148
18161DT     BB217951  88.617  25.023  59.504
18161DT     BB317952  88.453  24.919  59.573
18161DT     SC117953  88.300  25.132  59.553
18161DT     SC217954  88.247  25.200  59.750
18161DT     SC317955  88.106  25.291  59.473
18162DA     BB117956  88.806  24.739  59.708
18162DA     BB217957  88.581  24.781  59.994
18162DA     BB317958  88.416  24.645  59.980
18162DA     SC117959  88.235  24.844  59.823
18162DA     SC217960  88.028  24.977  59.864
18162DA     SC317961  88.009  24.987  59.608
18162DA     SC417962  88.240  24.838  59.662
18163DG     BB117963  88.536  24.556  60.249
18163DG     BB217964  88.216  24.672  60.374
18163DG     BB317965  88.077  24.534  60.340
18163DG     SC117966  88.000  24.644  60.065
18163DG     SC217967  87.740  24.770  59.992
18163DG     SC317968  87.906  24.725  59.751
18163DG     SC417969  88.080  24.591  59.936
18164DA     BB117970  88.011  24.583  60.675
18164DA     BB217971  87.666  24.675  60.591
18164DA     BB317972  87.556  24.503  60.533
18164DA     SC117973  87.624  24.531  60.231
18164DA     SC217974  87.505  24.590  60.019
18164DA     SC317975  87.700  24.472  59.901
18164DA     SC417976  87.753  24.453  60.176
18165DC     BB117977  87.414  24.457  60.651
18165DC     BB217978  87.140  24.558  60.439
18165DC     BB317979  87.057  24.393  60.347
18165DC     SC117980  87.260  24.372  60.182
18165DC     SC217981  87.195  24.423  59.983
18165DC     SC317982  87.472  24.273  60.060
18166DT     BB117983  86.844  24.423  60.507
18166DT     BB217984  86.708  24.426  60.172
18166DT     BB317985  86.677  24.232  60.107
18166DT     SC117986  86.934  24.194  60.070
18166DT     SC217987  86.974  24.180  59.859
18166DT     SC317988  87.177  24.095  60.097
18167DT     BB117989  86.406  24.261  60.133
18167DT     BB217990  86.451  24.156  59.791
18167DT     BB317991  86.455  23.949  59.781
18167DT     SC117992  86.698  23.941  59.880
18167DT     SC217993  86.835  23.878  59.727
18167DT     SC317994  86.897  23.889  60.045
18168DA     BB117995  86.157  24.057  59.504
18168DA     BB217996  86.378  23.816  59.338
18168DA     BB317997  86.341  23.619  59.410
18168DA     SC117998  86.551  23.637  59.639
18168DA     SC217999  86.773  23.536  59.694
18168DA     SC318000  86.721  23.606  59.936
18168DA     SC418001  86.500  23.687  59.783
18169DC     BB118002  86.250  23.453  59.291
18169DC     BB218003  86.553  23.263  59.244
18169DC     BB318004  86.546  23.089  59.356
18169DC     SC118005  86.588  23.221  59.579
18169DC     SC218006  86.784  23.174  59.654
18169DC     SC318007  86.548  23.322  59.820
18170DA     BB118008  86.623  22.937  58.971
18170DA     BB218009  86.868  22.785  59.198
18170DA     BB318010  86.777  22.628  59.310
18170DA     SC118011  86.692  22.812  59.546
18170DA     SC218012  86.755  22.848  59.784
18170DA     SC318013  86.526  22.961  59.807
18170DA     SC418014  86.545  22.877  59.540
18171DT     BB118015  86.826  22.405  59.291
18171DT     BB218016  87.021  22.384  59.593
18171DT     BB318017  86.922  22.270  59.734
18171DT     SC118018  86.752  22.464  59.783
18171DT     SC218019  86.788  22.543  59.980
18171DT     SC318020  86.524  22.596  59.799
18172DA     BB118021  87.305  22.106  59.701
18172DA     BB218022  87.241  22.166  60.057
18172DA     BB318023  87.107  22.018  60.134
18172DA     SC118024  86.850  22.184  60.072
18172DA     SC218025  86.674  22.305  60.199
18172DA     SC318026  86.533  22.283  59.985
18172DA     SC418027  86.778  22.159  59.930
18173DC     BB118028  87.180  21.895  60.271
18173DC     BB218029  87.014  22.045  60.554
18173DC     BB318030  86.856  21.926  60.614
18173DC     SC118031  86.710  22.003  60.409
18173DC     SC218032  86.549  22.126  60.479
18173DC     SC318033  86.572  21.992  60.185
18174DA     BB118034  87.093  22.010  60.949
18174DA     BB218035  86.744  22.079  61.037
18174DA     BB318036  86.636  21.896  61.060
18174DA     SC118037  86.545  21.884  60.762
18174DA     SC218038  86.334  21.908  60.633
18174DA     SC318039  86.457  21.781  60.447
18174DA     SC418040  86.639  21.802  60.660
18175DA     BB118041  86.563  22.030  61.352
18175DA     BB218042  86.211  22.014  61.251
18175DA     BB318043  86.139  21.813  61.265
18175DA     SC118044  86.213  21.740  60.972
18175DA     SC218045  86.094  21.691  60.759
18175DA     SC318046  86.314  21.579  60.686
18175DA     SC418047  86.358  21.675  60.946
18176DT     BB118048  85.992  21.756  61.409
18176DT     BB218049  85.717  21.725  61.178
18176DT     BB318050  85.670  21.525  61.150
18176DT     SC118051  85.882  21.489  61.000
18176DT     SC218052  85.820  21.456  60.796
18176DT     SC318053  86.115  21.397  60.917
18177DG     BB118054  85.322  21.682  61.298
18177DG     BB218055  85.263  21.506  60.988
18177DG     BB318056  85.248  21.310  61.022
18177DG     SC118057  85.547  21.257  60.987
18177DG     SC218058  85.673  21.098  60.768
18177DG     SC318059  85.872  21.165  60.976
18177DG     SC418060  85.644  21.269  61.114
18178DA     BB118061  84.945  21.313  60.855
18178DA     BB218062  85.081  21.084  60.603
18178DA     BB318063  85.078  20.884  60.676
18178DA     SC118064  85.364  20.899  60.798
18178DA     SC218065  85.589  20.802  60.753
18178DA     SC318066  85.641  20.862  60.997
18178DA     SC418067  85.376  20.943  60.953
18179DA     BB118068  84.926  20.864  60.393
18179DA     BB218069  85.199  20.643  60.289
18179DA     BB318070  85.178  20.451  60.381
18179DA     SC118071  85.350  20.526  60.630
18179DA     SC218072  85.573  20.467  60.724
18179DA     SC318073  85.479  20.555  60.946
18179DA     SC418074  85.273  20.584  60.758
18180DC     BB118075  85.159  20.350  60.249
18180DC     BB218076  85.487  20.199  60.263
18180DC     BB318077  85.480  20.025  60.373
18180DC     SC118078  85.464  20.158  60.598
18180DC     SC218079  85.646  20.134  60.709
18180DC     SC318080  85.367  20.250  60.826
18181DA     BB118081  85.698  20.030  60.008
18181DA     BB218082  85.897  19.865  60.268
18181DA     BB318083  85.801  19.685  60.332
18181DA     SC118084  85.640  19.824  60.560
18181DA     SC218085  85.639  19.827  60.809
18181DA     SC318086  85.400  19.916  60.786
18181DA     SC418087  85.492  19.877  60.525
18182DA     BB118088  86.119  19.625  60.267
18182DA     BB218089  86.130  19.487  60.606
18182DA     BB318090  86.005  19.315  60.621
18182DA     SC118091  85.753  19.477  60.707
18182DA     SC218092  85.614  19.505  60.912
18182DA     SC318093  85.433  19.592  60.753
18182DA     SC418094  85.653  19.526  60.592
18183DA     BB118095  86.284  19.181  60.740
18183DA     BB218096  86.092  19.090  61.039
18183DA     BB318097  85.958  18.930  60.995
18183DA     SC118098  85.722  19.118  60.916
18183DA     SC218099  85.500  19.183  61.008
18183DA     SC318100  85.446  19.259  60.768
18183DA     SC418101  85.708  19.158  60.761
18184DC     BB118102  85.971  18.710  61.067
18184DC     BB218103  85.692  18.716  61.296
18184DC     BB318104  85.537  18.602  61.220
18184DC     SC118105  85.477  18.787  61.044
18184DC     SC218106  85.288  18.876  61.096
18184DC     SC318107  85.440  18.905  60.811
18185DT     BB118108  85.554  18.343  61.377
18185DT     BB218109  85.210  18.439  61.427
18185DT     BB318110  85.089  18.340  61.291
18185DT     SC118111  85.169  18.494  61.095
18185DT     SC218112  85.007  18.621  61.034
18185DT     SC318113  85.280  18.569  60.868
18186DT     BB118114  84.961  18.122  61.458
18186DT     BB218115  84.676  18.295  61.320
18186DT     BB318116  84.608  18.195  61.152
18186DT     SC118117  84.809  18.282  61.008
18186DT     SC218118  84.737  18.423  60.863
18186DT     SC318119  85.028  18.280  60.861
18187DT     BB118120  84.369  18.075  61.267
18187DT     BB218121  84.243  18.271  60.991
18187DT     BB318122  84.223  18.152  60.823
18187DT     SC118123  84.483  18.151  60.784
18187DT     SC218124  84.530  18.265  60.608
18187DT     SC318125  84.730  18.061  60.761
18188DA     BB118126  83.859  18.345  60.884
18188DA     BB218127  83.960  18.403  60.536
18188DA     BB318128  83.928  18.227  60.419
18188DA     SC118129  84.213  18.113  60.469
18188DA     SC218130  84.421  18.073  60.339
18188DA     SC318131  84.482  17.907  60.525
18188DA     SC418132  84.231  18.012  60.594
18189DT     BB118133  83.802  18.260  60.290
18189DT     BB218134  84.030  18.276  60.011
18189DT     BB318135  84.028  18.097  59.907
18189DT     SC118136  84.168  17.978  60.095
18189DT     SC218137  84.365  17.934  60.020
18189DT     SC318138  84.231  17.810  60.288
18190DA     BB118139  83.998  18.437  59.663
18190DA     BB218140  84.248  18.211  59.519
18190DA     BB318141  84.155  18.034  59.444
18190DA     SC118142  84.183  17.876  59.711
18190DA     SC218143  84.313  17.682  59.797
18190DA     SC318144  84.133  17.669  59.979
18190DA     SC418145  84.060  17.883  59.814
18191DT     BB118146  84.176  18.026  59.265
18191DT     BB218147  84.407  17.749  59.251
18191DT     BB318148  84.304  17.573  59.214
18191DT     SC118149  84.211  17.566  59.459
18191DT     SC218150  84.304  17.402  59.565
18191DT     SC318151  84.041  17.566  59.660
18192DT     BB118152  84.420  17.586  58.979
18192DT     BB218153  84.502  17.259  59.107
18192DT     BB318154  84.344  17.129  59.076
18192DT     SC118155  84.206  17.239  59.271
18192DT     SC218156  84.192  17.101  59.435
18192DT     SC318157  84.013  17.368  59.396
18193DA     BB118158  84.678  16.932  58.911
18193DA     BB218159  84.496  16.688  59.115
18193DA     BB318160  84.315  16.629  59.018
18193DA     SC118161  84.142  16.851  59.150
18193DA     SC218162  83.960  16.867  59.320
18193DA     SC318163  83.910  17.096  59.216
18193DA     SC418164  84.126  16.990  59.071
18194DT     BB118165  84.278  16.429  58.934
18194DT     BB218166  84.042  16.318  59.183
18194DT     BB318167  83.852  16.312  59.103
18194DT     SC118168  83.832  16.574  59.111
18194DT     SC218169  83.687  16.630  59.260
18194DT     SC318170  83.808  16.823  59.029
18195DA     BB118171  83.887  15.915  59.243
18195DA     BB218172  83.564  16.042  59.362
18195DA     BB318173  83.420  16.040  59.204
18195DA     SC118174  83.485  16.329  59.109
18195DA     SC218175  83.374  16.552  59.109
18195DA     SC318176  83.540  16.612  58.923
18195DA     SC418177  83.596  16.346  58.994
18196DC     BB118178  83.232  15.903  59.185
18196DC     BB218179  82.990  16.158  59.266
18196DC     BB318180  82.877  16.205  59.099
18196DC     SC118181  83.075  16.339  58.992
18196DC     SC218182  83.028  16.548  58.991
18196DC     SC318183  83.266  16.407  58.823
18197DA     BB118184  82.577  16.106  59.378
18197DA     BB218185  82.487  16.431  59.234
18197DA     BB318186  82.402  16.405  59.040
18197DA     SC118187  82.675  16.428  58.892
18197DA     SC218188  82.789  16.590  58.740
18197DA     SC318189  82.937  16.391  58.673
18197DA     SC418190  82.755  16.292  58.862
18198DT     BB118191  82.186  16.448  58.985
18198DT     BB218192  82.255  16.759  58.816
18198DT     BB318193  82.222  16.738  58.613
18198DT     SC118194  82.443  16.601  58.583
18198DT     SC218195  82.586  16.718  58.472
18198DT     SC318196  82.605  16.400  58.529
18199DT     BB118197  81.989  16.891  58.618
18199DT     BB218198  82.207  17.065  58.390
18199DT     BB318199  82.179  16.995  58.197
18199DT     SC118200  82.309  16.773  58.251
18199DT     SC218201  82.496  16.773  58.144
18199DT     SC318202  82.358  16.517  58.286
18200DA     BB118203  82.150  17.411  58.200
18200DA     BB218204  82.394  17.314  57.944
18200DA     BB318205  82.294  17.230  57.775
18200DA     SC118206  82.307  16.938  57.881
18200DA     SC218207  82.425  16.726  57.824
18200DA     SC318208  82.239  16.610  57.957
18200DA     SC418209  82.182  16.885  57.966
18201DG     BB118210  82.450  17.468  57.668
18201DG     BB218211  82.631  17.204  57.499
18201DG     BB318212  82.526  17.138  57.344
18201DG     SC118213  82.377  16.924  57.504
18201DG     SC218214  82.406  16.629  57.470
18201DG     SC318215  82.181  16.693  57.652
18201DG     SC418216  82.240  16.963  57.577
18202DA     BB118217  82.847  17.190  57.238
18202DA     BB218218  82.855  16.839  57.134
18202DA     BB318219  82.719  16.805  56.974
18202DA     SC118220  82.480  16.733  57.160
18202DA     SC218221  82.347  16.530  57.220
18202DA     SC318222  82.169  16.696  57.302
18202DA     SC418223  82.381  16.852  57.205
18203DC     BB118224  82.824  16.756  56.858
18203DC     BB218225  82.724  16.410  56.849
18203DC     BB318226  82.569  16.384  56.715
18203DC     SC118227  82.397  16.493  56.881
18203DC     SC218228  82.262  16.343  56.954
18203DC     SC318229  82.221  16.663  56.980
18204DA     BB118230  82.877  16.100  56.660
18204DA     BB218231  82.554  15.927  56.657
18204DA     BB318232  82.442  15.980  56.483
18204DA     SC118233  82.299  16.220  56.619
18204DA     SC218234  82.068  16.278  56.695
18204DA     SC318235  82.149  16.522  56.686
18204DA     SC418236  82.367  16.365  56.606
18205DA     BB118237  82.435  15.651  56.463
18205DA     BB218238  82.069  15.681  56.473
18205DA     BB318239  81.996  15.761  56.289
18205DA     SC118240  82.011  16.057  56.383
18205DA     SC218241  81.852  16.240  56.441
18205DA     SC318242  82.051  16.398  56.400
18205DA     SC418243  82.146  16.138  56.351
18206DA     BB118244  81.808  15.490  56.298
18206DA     BB218245  81.518  15.714  56.298
18206DA     BB318246  81.488  15.796  56.103
18206DA     SC118247  81.666  16.046  56.155
18206DA     SC218248  81.635  16.292  56.185
18206DA     SC318249  81.884  16.310  56.125
18206DA     SC418250  81.821  16.037  56.115
18207DT     BB118251  81.322  15.745  56.001
18207DT     BB218252  81.148  16.058  56.041
18207DT     BB318253  81.155  16.166  55.865
18207DT     SC118254  81.406  16.230  55.904
18207DT     SC218255  81.421  16.440  55.947
18207DT     SC318256  81.667  16.245  55.868
18208DA     BB118257  80.754  16.146  55.988
18208DA     BB218258  80.832  16.496  55.910
18208DA     BB318259  80.850  16.523  55.699
18208DA     SC118260  81.156  16.466  55.694
18208DA     SC218261  81.366  16.594  55.655
18208DA     SC318262  81.473  16.365  55.608
18208DA     SC418263  81.203  16.315  55.667
18209DC     BB118264  80.716  16.636  55.618
18209DC     BB218265  80.928  16.922  55.560
18209DC     BB318266  80.984  16.929  55.361
18209DC     SC118267  81.153  16.732  55.393
18209DC     SC218268  81.354  16.807  55.376
18209DC     SC318269  81.267  16.495  55.367
18210DT     BB118270  80.823  17.140  55.340
18210DT     BB218271  81.146  17.257  55.229
18210DT     BB318272  81.175  17.208  55.030
18210DT     SC118273  81.217  16.956  55.090
18210DT     SC218274  81.424  16.909  55.056
18210DT     SC318275  81.185  16.695  55.101
18211DT     BB118276  81.144  17.468  54.964
18211DT     BB218277  81.465  17.378  54.827
18211DT     BB318278  81.440  17.293  54.639
18211DT     SC118279  81.352  17.069  54.744
18211DT     SC218280  81.498  16.914  54.713
18211DT     SC318281  81.189  16.870  54.803
18212DA     BB118282  81.724  17.600  54.593
18212DA     BB218283  81.856  17.299  54.431
18212DA     BB318284  81.751  17.260  54.249
18212DA     SC118285  81.537  17.079  54.383
18212DA     SC218286  81.475  16.837  54.385
18212DA     SC318287  81.246  16.918  54.469
18212DA     SC418288  81.401  17.149  54.433
18213DT     BB118289  81.850  17.276  54.072
18213DT     BB218290  81.875  16.923  54.003
18213DT     BB318291  81.739  16.870  53.856
18213DT     SC118292  81.539  16.886  54.025
18213DT     SC218293  81.463  16.689  54.064
18213DT     SC318294  81.314  16.968  54.136
18214DT     BB118295  81.942  16.839  53.678
18214DT     BB218296  81.773  16.520  53.678
18214DT     BB318297  81.615  16.524  53.545
18214DT     SC118298  81.470  16.671  53.707
18214DT     SC218299  81.307  16.554  53.783
18214DT     SC318300  81.334  16.876  53.801
18215DT     BB118301  81.751  16.363  53.373
18215DT     BB218302  81.442  16.188  53.433
18215DT     BB318303  81.296  16.254  53.301
18215DT     SC118304  81.267  16.479  53.434
18215DT     SC218305  81.075  16.480  53.531
18215DT     SC318306  81.268  16.737  53.489
18216DC     BB118307  81.307  16.023  53.152
18216DC     BB218308  80.959  16.051  53.246
18216DC     BB318309  80.858  16.166  53.107
18216DC     SC118310  80.965  16.387  53.198
18216DC     SC218311  80.814  16.504  53.296
18216DC     SC318312  81.107  16.609  53.206
18217DT     BB118313  80.722  15.951  52.982
18217DT     BB218314  80.456  16.173  53.081
18217DT     BB318315  80.415  16.307  52.928
18217DT     SC118316  80.633  16.444  52.980
18217DT     SC218317  80.580  16.635  53.062
18217DT     SC318318  80.871  16.553  52.947
18218DA     BB118319  80.030  16.140  52.982
18218DA     BB218320  79.991  16.504  52.993
18218DA     BB318321  79.993  16.585  52.795
18218DA     SC118322  80.300  16.630  52.791
18218DA     SC218323  80.459  16.823  52.792
18218DA     SC318324  80.630  16.657  52.698
18218DA     SC418325  80.392  16.512  52.731
18219DA     BB118326  79.693  16.724  52.851
18219DA     BB218327  79.858  17.050  52.825
18219DA     BB318328  79.875  17.109  52.621
18219DA     SC118329  80.154  16.978  52.581
18219DA     SC218330  80.390  17.052  52.546
18219DA     SC318331  80.429  16.816  52.454
18219DA     SC418332  80.158  16.827  52.526
18220DA     BB118333  79.719  17.372  52.729
18220DA     BB218334  80.028  17.556  52.658
18220DA     BB318335  80.041  17.601  52.450
18220DA     SC118336  80.193  17.340  52.377
18220DA     SC218337  80.422  17.275  52.302
18220DA     SC318338  80.311  17.058  52.221
18220DA     SC418339  80.106  17.213  52.332
18221DA     BB118340  80.084  17.863  52.626
18221DA     BB218341  80.423  17.862  52.487
18221DA     BB318342  80.419  17.915  52.280
18221DA     SC118343  80.389  17.621  52.180
18221DA     SC218344  80.528  17.453  52.060
18221DA     SC318345  80.305  17.337  52.008
18221DA     SC418346  80.241  17.565  52.158
18222DA     BB118347  80.635  18.051  52.488
18222DA     BB218348  80.882  17.906  52.259
18222DA     BB318349  80.858  17.987  52.063
18222DA     SC118350  80.660  17.767  51.970
18222DA     SC218351  80.660  17.574  51.811
18222DA     SC318352  80.404  17.593  51.821
18222DA     SC418353  80.503  17.795  51.988
18223DA     BB118354  81.164  17.962  52.197
18223DA     BB218355  81.236  17.773  51.892
18223DA     BB318356  81.200  17.894  51.720
18223DA     SC118357  80.903  17.807  51.689
18223DA     SC218358  80.766  17.670  51.532
18223DA     SC318359  80.565  17.796  51.629
18223DA     SC418360  80.791  17.897  51.762
18224DA     BB118361  81.490  17.731  51.714
18224DA     BB218362  81.370  17.605  51.392
18224DA     BB318363  81.340  17.766  51.255
18224DA     SC118364  81.043  17.810  51.335
18224DA     SC218365  80.817  17.777  51.233
18224DA     SC318366  80.736  17.945  51.409
18224DA     SC418367  81.012  17.917  51.451
18225DT     BB118368  81.453  17.744  51.124
18225DT     BB218369  81.215  17.662  50.865
18225DT     BB318370  81.159  17.833  50.763
18225DT     SC118371  81.009  17.913  50.962
18225DT     SC218372  80.802  17.901  50.905
18225DT     SC318373  80.919  18.061  51.161
18226DC     BB118374  81.303  17.744  50.556
18226DC     BB218375  80.976  17.810  50.418
18226DC     BB318376  80.959  18.010  50.369
18226DC     SC118377  80.935  18.077  50.622
18226DC     SC218378  80.734  18.145  50.658
18226DC     SC318379  80.988  18.188  50.855
18227DC     BB118380  80.979  17.963  50.097
18227DC     BB218381  80.674  18.152  50.129
18227DC     BB318382  80.715  18.355  50.120
18227DC     SC118383  80.813  18.354  50.363
18227DC     SC218384  80.680  18.462  50.494
18227DC     SC318385  80.986  18.376  50.562
18228DA     BB118386  80.426  18.313  49.816
18228DA     BB218387  80.325  18.599  50.022
18228DA     BB318388  80.445  18.769  49.976
18228DA     SC118389  80.659  18.705  50.192
18228DA     SC218390  80.736  18.800  50.410
18228DA     SC318391  80.953  18.669  50.368
18228DA     SC418392  80.787  18.618  50.147
18229DT     BB118393  80.373  18.957  49.874
18229DT     BB218394  80.372  19.166  50.168
18229DT     BB318395  80.524  19.306  50.156
18229DT     SC118396  80.706  19.124  50.210
18229DT     SC218397  80.788  19.160  50.405
18229DT     SC318398  80.914  18.965  50.180
18230DG     BB118399  80.194  19.549  50.178
18230DG     BB218400  80.436  19.639  50.432
18230DG     BB318401  80.576  19.756  50.353
18230DG     SC118402  80.758  19.525  50.271
18230DG     SC218403  81.028  19.465  50.386
18230DG     SC318404  80.974  19.295  50.150
18230DG     SC418405  80.738  19.457  50.127
18231DA     BB118406  80.523  20.002  50.599
18231DA     BB218407  80.867  19.962  50.719
18231DA     BB318408  81.002  20.072  50.596
18231DA     SC118409  81.055  19.836  50.400
18231DA     SC218410  81.243  19.683  50.343
18231DA     SC318411  81.117  19.643  50.123
18231DA     SC418412  80.962  19.826  50.270
18232DT     BB118413  81.107  20.237  50.673
18232DT     BB218414  81.424  20.067  50.706
18232DT     BB318415  81.555  20.135  50.561
18232DT     SC118416  81.431  20.000  50.373
18232DT     SC218417  81.557  19.839  50.307
18232DT     SC318418  81.293  19.949  50.155
18233DG     BB118419  81.723  20.195  50.927
18233DG     BB218420  81.941  20.005  50.709
18233DG     BB318421  82.030  20.126  50.580
18233DG     SC118422  81.810  20.103  50.368
18233DG     SC218423  81.838  19.974  50.100
18233DG     SC318424  81.579  20.116  50.123
18233DG     SC418425  81.687  20.204  50.373
18234DA     BB118426  82.307  19.959  50.695
18234DA     BB218427  82.377  19.849  50.352
18234DA     BB318428  82.450  20.011  50.235
18234DA     SC118429  82.168  20.098  50.136
18234DA     SC218430  82.039  20.097  49.923
18234DA     SC318431  81.893  20.276  50.034
18234DA     SC418432  82.090  20.209  50.222
18235DA     BB118433  82.673  19.777  50.190
18235DA     BB218434  82.590  19.800  49.833
18235DA     BB318435  82.664  19.983  49.752
18235DA     SC118436  82.403  20.143  49.811
18235DA     SC218437  82.216  20.245  49.681
18235DA     SC318438  82.175  20.387  49.891
18235DA     SC418439  82.395  20.222  49.950
18236DG     BB118440  82.816  19.784  49.570
18236DG     BB218441  82.619  19.942  49.311
18236DG     BB318442  82.700  20.117  49.261
18236DG     SC118443  82.543  20.277  49.469
18236DG     SC218444  82.333  20.481  49.411
18236DG     SC318445  82.402  20.480  49.699
18236DG     SC418446  82.603  20.294  49.617
18237DC     BB118447  82.781  20.158  49.056
18237DC     BB218448  82.528  20.377  48.921
18237DC     BB318449  82.597  20.572  48.920
18237DC     SC118450  82.564  20.592  49.180
18237DC     SC218451  82.401  20.727  49.221
18237DC     SC318452  82.621  20.623  49.436
18238DT     BB118453  82.630  20.572  48.647
18238DT     BB218454  82.409  20.850  48.710
18238DT     BB318455  82.520  21.021  48.747
18238DT     SC118456  82.584  20.937  48.987
18238DT     SC218457  82.484  21.059  49.134
18238DT     SC318458  82.731  20.856  49.191
18239DC     BB118459  82.453  21.127  48.503
18239DC     BB218460  82.340  21.373  48.743
18239DC     BB318461  82.493  21.505  48.786
18239DC     SC118462  82.616  21.327  48.933
18239DC     SC218463  82.607  21.385  49.140
18239DC     SC318464  82.802  21.159  49.016
18240DA     BB118465  82.154  21.727  48.682
18240DA     BB218466  82.285  21.861  48.997
18240DA     BB318467  82.464  21.971  48.962
18240DA     SC118468  82.652  21.726  49.002
18240DA     SC218469  82.819  21.647  49.169
18240DA     SC318470  82.907  21.497  48.981
18240DA     SC418471  82.692  21.642  48.872
18241DG     BB118472  82.287  22.187  49.089
18241DG     BB218473  82.538  22.171  49.349
18241DG     BB318474  82.699  22.273  49.294
18241DG     SC118475  82.835  22.035  49.158
18241DG     SC218476  83.085  21.900  49.250
18241DG     SC318477  83.003  21.800  48.984
18241DG     SC418478  82.804  22.005  49.004
18242DG     BB118479  82.648  22.437  49.569
18242DG     BB218480  82.973  22.314  49.671
18242DG     BB318481  83.116  22.424  49.587
18242DG     SC118482  83.137  22.249  49.337
18242DG     SC218483  83.371  22.080  49.260
18242DG     SC318484  83.172  22.091  49.041
18242DG     SC418485  83.043  22.281  49.211
18243DA     BB118486  83.232  22.444  49.910
18243DA     BB218487  83.551  22.297  49.804
18243DA     BB318488  83.665  22.439  49.693
18243DA     SC118489  83.548  22.356  49.417
18243DA     SC218490  83.627  22.241  49.210
18243DA     SC318491  83.426  22.354  49.096
18243DA     SC418492  83.419  22.436  49.364
18244DT     BB118493  83.825  22.489  49.779
18244DT     BB218494  84.053  22.314  49.561
18244DT     BB318495  84.137  22.447  49.426
18244DT     SC118496  83.915  22.459  49.287
18244DT     SC218497  83.944  22.363  49.097
18244DT     SC318498  83.697  22.557  49.175
18245DT     BB118499  84.363  22.415  49.562
18245DT     BB218500  84.449  22.333  49.222
18245DT     BB318501  84.492  22.505  49.116
18245DT     SC118502  84.238  22.569  49.102
18245DT     SC218503  84.170  22.550  48.899
18245DT     SC318504  84.013  22.703  49.137
18246DG     BB118505  84.818  22.262  49.090
18246DG     BB218506  84.719  22.384  48.764
18246DG     BB318507  84.778  22.572  48.741
18246DG     SC118508  84.521  22.693  48.856
18246DG     SC218509  84.319  22.852  48.705
18246DG     SC318510  84.262  22.858  48.995
18246DG     SC418511  84.511  22.718  49.014
18247DT     BB118512  84.931  22.640  48.585
18247DT     BB218513  84.728  22.817  48.346
18247DT     BB318514  84.753  23.021  48.370
18247DT     SC118515  84.607  23.022  48.588
18247DT     SC218516  84.421  23.124  48.550
18247DT     SC318517  84.540  23.049  48.842
18248DT     BB118518  84.923  23.070  48.142
18248DT     BB218519  84.659  23.311  48.096
18248DT     BB318520  84.711  23.491  48.183
18248DT     SC118521  84.666  23.396  48.424
18248DT     SC218522  84.492  23.490  48.507
18248DT     SC318523  84.710  23.317  48.671
18249DA     BB118524  84.657  23.658  47.792
18249DA     BB218525  84.473  23.879  48.019
18249DA     BB318526  84.607  24.017  48.112
18249DA     SC118527  84.665  23.834  48.357
18249DA     SC218528  84.615  23.831  48.601
18249DA     SC318529  84.813  23.669  48.619
18249DA     SC418530  84.792  23.736  48.347
18250DA     BB118531  84.464  24.326  48.007
18250DA     BB218532  84.382  24.401  48.356
18250DA     BB318533  84.542  24.509  48.449
18250DA     SC118534  84.687  24.253  48.550
18250DA     SC218535  84.734  24.142  48.768
18250DA     SC318536  84.922  24.021  48.643
18250DA     SC418537  84.800  24.190  48.455
18251DA     BB118538  84.360  24.792  48.541
18251DA     BB218539  84.406  24.694  48.891
18251DA     BB318540  84.582  24.784  48.971
18251DA     SC118541  84.768  24.546  48.892
18251DA     SC218542  84.895  24.366  49.008
18251DA     SC318543  85.032  24.352  48.791
18251DA     SC418544  84.842  24.554  48.750
18252DT     BB118545  84.590  24.945  49.141
18252DT     BB218546  84.678  24.708  49.399
18252DT     BB318547  84.867  24.750  49.471
18252DT     SC118548  84.980  24.652  49.255
18252DT     SC218549  85.081  24.468  49.305
18252DT     SC318550  85.119  24.639  49.032
18253DA     BB118551  84.596  24.711  49.784
18253DA     BB218552  84.881  24.492  49.854
18253DA     BB318553  85.050  24.607  49.914
18253DA     SC118554  85.162  24.640  49.626
18253DA     SC218555  85.356  24.558  49.493
18253DA     SC318556  85.308  24.758  49.339
18253DA     SC418557  85.117  24.770  49.543
18254DT     BB118558  85.093  24.564  50.085
18254DT     BB218559  85.391  24.374  50.012
18254DT     BB318560  85.559  24.492  50.040
18254DT     SC118561  85.513  24.625  49.819
18254DT     SC218562  85.664  24.575  49.673
18254DT     SC318563  85.459  24.825  49.656
18255DA     BB118564  85.609  24.129  50.244
18255DA     BB218565  85.917  24.197  50.058
18255DA     BB318566  86.026  24.357  50.150
18255DA     SC118567  85.889  24.579  49.981
18255DA     SC218568  85.952  24.738  49.799
18255DA     SC318569  85.745  24.872  49.872
18255DA     SC418570  85.757  24.649  50.042
18256DA     BB118571  86.278  24.141  50.155
18256DA     BB218572  86.468  24.380  49.952
18256DA     BB318573  86.540  24.540  50.073
18256DA     SC118574  86.290  24.719  50.028
18256DA     SC218575  86.234  24.932  49.910
18256DA     SC318576  86.030  24.941  50.066
18256DA     SC418577  86.170  24.708  50.135
18257DA     BB118578  86.857  24.476  49.975
18257DA     BB218579  86.871  24.813  49.831
18257DA     BB318580  86.917  24.956  49.982
18257DA     SC118581  86.620  25.013  50.054
18257DA     SC218582  86.456  25.199  50.029
18257DA     SC318583  86.326  25.083  50.218
18257DA     SC418584  86.555  24.926  50.173
18258DT     BB118585  87.123  25.090  50.012
18258DT     BB218586  86.981  25.399  49.891
18258DT     BB318587  86.973  25.538  50.044
18258DT     SC118588  86.770  25.416  50.156
18258DT     SC218589  86.594  25.538  50.137
18258DT     SC318590  86.628  25.283  50.335
18259DC     BB118591  87.188  25.699  49.948
18259DC     BB218592  86.905  25.923  49.959
18259DC     BB318593  86.902  26.024  50.139
18259DC     SC118594  86.817  25.811  50.266
18259DC     SC218595  86.613  25.842  50.330
18259DC     SC318596  86.812  25.608  50.434
18260DG     BB118597  86.902  26.271  49.821
18260DG     BB218598  86.620  26.330  50.039
18260DG     BB318599  86.678  26.432  50.200
18260DG     SC118600  86.744  26.183  50.365
18260DG     SC218601  86.600  26.092  50.610
18260DG     SC318602  86.845  25.932  50.566
18260DG     SC418603  86.891  26.120  50.355
18261DT     BB118604  86.566  26.567  50.188
18261DT     BB218605  86.341  26.511  50.464
18261DT     BB318606  86.417  26.598  50.636
18261DT     SC118607  86.597  26.409  50.663
18261DT     SC218608  86.548  26.288  50.834
18261DT     SC318609  86.832  26.290  50.677
18262DA     BB118610  85.992  26.597  50.527
18262DA     BB218611  86.035  26.529  50.885
18262DA     BB318612  86.137  26.690  50.980
18262DA     SC118613  86.421  26.570  50.934
18262DA     SC218614  86.603  26.471  51.072
18262DA     SC318615  86.756  26.526  50.873
18262DA     SC418616  86.499  26.614  50.801
18263DA     BB118617  85.867  26.605  51.156
18263DA     BB218618  86.101  26.580  51.438
18263DA     BB318619  86.189  26.769  51.478
18263DA     SC118620  86.432  26.724  51.289
18263DA     SC218621  86.677  26.687  51.309
18263DA     SC318622  86.689  26.763  51.064
18263DA     SC418623  86.418  26.775  51.137
18264DG     BB118624  86.058  26.732  51.760
18264DG     BB218625  86.400  26.757  51.875
18264DG     BB318626  86.458  26.947  51.875
18264DG     SC118627  86.562  26.942  51.587
18264DG     SC218628  86.847  26.969  51.504
18264DG     SC318629  86.667  26.978  51.269
18264DG     SC418630  86.461  26.976  51.468
18265DA     BB118631  86.561  26.950  52.219
18265DA     BB218632  86.902  27.046  52.125
18265DA     BB318633  86.912  27.256  52.086
18265DA     SC118634  86.849  27.227  51.783
18265DA     SC218635  86.970  27.255  51.566
18265DA     SC318636  86.736  27.273  51.462
18265DA     SC418637  86.695  27.237  51.737
18266DA     BB118638  87.156  27.309  52.320
18266DA     BB218639  87.378  27.419  52.049
18266DA     BB318640  87.344  27.624  52.003
18266DA     SC118641  87.128  27.565  51.787
18266DA     SC218642  87.106  27.582  51.539
18266DA     SC318643  86.853  27.576  51.581
18266DA     SC418644  86.975  27.562  51.834
18267DG     BB118645  87.643  27.716  52.087
18267DG     BB218646  87.677  27.787  51.734
18267DG     BB318647  87.623  27.975  51.697
18267DG     SC118648  87.329  27.908  51.648
18267DG     SC218649  87.185  27.932  51.387
18267DG     SC318650  86.996  27.874  51.607
18267DG     SC418651  87.228  27.907  51.772
18268DG     BB118652  87.922  28.046  51.575
18268DG     BB218653  87.754  28.092  51.258
18268DG     BB318654  87.688  28.279  51.242
18268DG     SC118655  87.416  28.218  51.370
18268DG     SC218656  87.152  28.229  51.231
18268DG     SC318657  87.117  28.192  51.523
18268DG     SC418658  87.401  28.229  51.529
18269DT     BB118659  87.763  28.397  51.083
18269DT     BB218660  87.483  28.391  50.856
18269DT     BB318661  87.380  28.570  50.866
18269DT     SC118662  87.274  28.505  51.097
18269DT     SC218663  87.063  28.470  51.072
18269DT     SC318664  87.216  28.512  51.355
18270DT     BB118665  87.477  28.591  50.627
18270DT     BB218666  87.118  28.609  50.590
18270DT     BB318667  87.052  28.799  50.637
18270DT     SC118668  87.086  28.756  50.894
18270DT     SC218669  86.894  28.745  50.990
18270DT     SC318670  87.180  28.780  51.139
18271DC     BB118671  87.003  28.794  50.383
18271DC     BB218672  86.688  28.867  50.542
18271DC     BB318673  86.680  29.066  50.597
18271DC     SC118674  86.843  29.024  50.799
18271DC     SC218675  86.735  29.045  50.984
18271DC     SC318676  87.057  29.038  50.952
18272DA     BB118677  86.332  28.957  50.388
18272DA     BB218678  86.234  29.149  50.685
18272DA     BB318679  86.291  29.353  50.663
18272DA     SC118680  86.570  29.315  50.795
18272DA     SC218681  86.685  29.381  51.006
18272DA     SC318682  86.903  29.334  50.878
18272DA     SC418683  86.694  29.282  50.698
18273DG     BB118684  85.985  29.412  50.691
18273DG     BB218685  86.090  29.594  50.986
18273DG     BB318686  86.156  29.775  50.934
18273DG     SC118687  86.446  29.686  50.895
18273DG     SC218688  86.679  29.769  51.062
18273DG     SC318689  86.768  29.619  50.824
18273DG     SC418690  86.491  29.631  50.752
18274DT     BB118691  86.055  29.975  50.997
18274DT     BB218692  86.288  30.100  51.243
18274DT     BB318693  86.397  30.257  51.164
18274DT     SC118694  86.542  30.092  51.019
18274DT     SC218695  86.743  30.088  51.096
18274DT     SC318696  86.647  29.975  50.807
18275DA     BB118697  86.238  30.413  51.519
18275DA     BB218698  86.596  30.494  51.515
18275DA     BB318699  86.634  30.654  51.380
18275DA     SC118700  86.686  30.468  51.136
18275DA     SC218701  86.880  30.399  50.995
18275DA     SC318702  86.703  30.331  50.822
18275DA     SC418703  86.561  30.434  51.041
18276DG     BB118704  86.740  30.810  51.629
18276DG     BB218705  87.055  30.797  51.452
18276DG     BB318706  87.065  30.946  51.320
18276DG     SC118707  86.938  30.786  51.092
18276DG     SC218708  87.074  30.700  50.841
18276DG     SC318709  86.783  30.647  50.827
18276DG     SC418710  86.778  30.786  51.077
18277DG     BB118711  87.339  31.052  51.468
18277DG     BB218712  87.507  30.991  51.153
18277DG     BB318713  87.481  31.146  51.031
18277DG     SC118714  87.224  31.036  50.907
18277DG     SC218715  87.190  30.947  50.624
18277DG     SC318716  86.929  30.956  50.764
18277DG     SC418717  87.083  31.071  50.976
18278DT     BB118718  87.652  31.272  50.959
18278DT     BB218719  87.682  31.170  50.615
18278DT     BB318720  87.602  31.315  50.491
18278DT     SC118721  87.357  31.246  50.555
18278DT     SC218722  87.262  31.154  50.386
18278DT     SC318723  87.112  31.262  50.652
18279DT     BB118724  87.851  31.411  50.402
18279DT     BB218725  87.675  31.337  50.095
18279DT     BB318726  87.570  31.504  50.032
18279DT     SC118727  87.388  31.469  50.218
18279DT     SC218728  87.203  31.409  50.126
18279DT     SC318729  87.239  31.514  50.430
18280DA     BB118730  87.801  31.443  49.680
18280DA     BB218731  87.456  31.491  49.569
18280DA     BB318732  87.406  31.698  49.568
18280DA     SC118733  87.299  31.698  49.860
18280DA     SC218734  87.079  31.720  49.976
18280DA     SC318735  87.217  31.781  50.183
18280DA     SC418736  87.402  31.735  49.977
18281DA     BB118737  87.319  31.724  49.230
18281DA     BB218738  86.976  31.806  49.330
18281DA     BB318739  86.955  32.016  49.359
18281DA     SC118740  87.027  32.006  49.661
18281DA     SC218741  86.912  32.038  49.880
18281DA     SC318742  87.147  32.075  49.976
18281DA     SC418743  87.182  32.027  49.701
18282DC     BB118744  86.826  32.181  49.228
18282DC     BB218745  86.555  32.203  49.465
18282DC     BB318746  86.549  32.393  49.548
18282DC     SC118747  86.758  32.343  49.698
18282DC     SC218748  86.698  32.332  49.904
18282DC     SC318749  87.002  32.360  49.797
18283DA     BB118750  86.162  32.326  49.400
18283DA     BB218751  86.131  32.428  49.751
18283DA     BB318752  86.161  32.639  49.770
18283DA     SC118753  86.467  32.616  49.817
18283DA     SC218754  86.629  32.650  50.004
18283DA     SC318755  86.807  32.668  49.820
18283DA     SC418756  86.563  32.626  49.688
18284DA     BB118757  85.873  32.604  49.919
18284DA     BB218758  86.040  32.724  50.222
18284DA     BB318759  86.071  32.935  50.212
18284DA     SC118760  86.352  32.911  50.081
18284DA     SC218761  86.589  32.953  50.145
18284DA     SC318762  86.635  32.960  49.893
18284DA     SC418763  86.360  32.913  49.920
18285DA     BB118764  85.918  32.899  50.498
18285DA     BB218765  86.220  33.041  50.650
18285DA     BB318766  86.232  33.250  50.610
18285DA     SC118767  86.395  33.216  50.348
18285DA     SC218768  86.626  33.261  50.267
18285DA     SC318769  86.525  33.249  50.032
18285DA     SC418770  86.313  33.206  50.210
18286DT     BB118771  86.217  33.368  50.767
18286DT     BB218772  86.565  33.461  50.783
18286DT     BB318773  86.591  33.652  50.708
18286DT     SC118774  86.561  33.567  50.461
18286DT     SC218775  86.749  33.580  50.358
18286DT     SC318776  86.460  33.536  50.220
18287DA     BB118777  86.773  33.636  51.085
18287DA     BB218778  87.013  33.781  50.849
18287DA     BB318779  86.955  33.980  50.797
18287DA     SC118780  86.785  33.893  50.552
18287DA     SC218781  86.798  33.909  50.303
18287DA     SC318782  86.545  33.865  50.308
18287DA     SC418783  86.629  33.866  50.576
18288DT     BB118784  87.075  34.129  50.855
18288DT     BB218785  87.218  34.196  50.531
18288DT     BB318786  87.136  34.369  50.452
18288DT     SC118787  86.910  34.247  50.397
18288DT     SC218788  86.889  34.228  50.184
18288DT     SC318789  86.654  34.185  50.402
18289DG     BB118790  87.540  34.407  50.468
18289DG     BB218791  87.413  34.471  50.136
18289DG     BB318792  87.332  34.653  50.128
18289DG     SC118793  87.052  34.558  50.209
18289DG     SC218794  86.809  34.561  50.036
18289DG     SC318795  86.739  34.493  50.316
18289DG     SC418796  87.015  34.551  50.365
18290DA     BB118797  87.535  34.661  49.854
18290DA     BB218798  87.241  34.726  49.646
18290DA     BB318799  87.169  34.924  49.679
18290DA     SC118800  86.974  34.842  49.906
18290DA     SC218801  86.728  34.825  49.941
18290DA     SC318802  86.783  34.831  50.192
18290DA     SC418803  87.029  34.849  50.057
18291DG     BB118804  87.229  34.894  49.381
18291DG     BB218805  86.873  34.954  49.358
18291DG     BB318806  86.833  35.145  49.397
18291DG     SC118807  86.800  35.103  49.698
18291DG     SC218808  86.547  35.133  49.853
18291DG     SC318809  86.777  35.098  50.035
18291DG     SC418810  86.929  35.114  49.793
18292DA     BB118811  86.654  35.084  49.107
18292DA     BB218812  86.353  35.201  49.281
18292DA     BB318813  86.369  35.410  49.324
18292DA     SC118814  86.499  35.368  49.603
18292DA     SC218815  86.436  35.397  49.843
18292DA     SC318816  86.689  35.396  49.888
18292DA     SC418817  86.660  35.366  49.610
18293DC     BB118818  86.243  35.515  49.232
18293DC     BB218819  86.035  35.603  49.513
18293DC     BB318820  86.085  35.792  49.582
18293DC     SC118821  86.305  35.702  49.693
18293DC     SC218822  86.286  35.710  49.907
18293DC     SC318823  86.562  35.668  49.743
18294DT     BB118824  85.857  35.906  49.477
18294DT     BB218825  85.849  35.999  49.825
18294DT     BB318826  85.953  36.175  49.854
18294DT     SC118827  86.184  36.052  49.828
18294DT     SC218828  86.284  36.047  50.018
18294DT     SC318829  86.419  35.983  49.731
18295DT     BB118830  85.728  36.344  49.887
18295DT     BB218831  85.920  36.399  50.187
18295DT     BB318832  86.050  36.558  50.160
18295DT     SC118833  86.209  36.412  50.010
18295DT     SC218834  86.393  36.375  50.115
18295DT     SC318835  86.342  36.327  49.799
18296DA     BB118836  85.839  36.664  50.506
18296DA     BB218837  86.196  36.695  50.582
18296DA     BB318838  86.275  36.873  50.494
18296DA     SC118839  86.356  36.736  50.227
18296DA     SC218840  86.566  36.671  50.109
18296DA     SC318841  86.420  36.664  49.898
18296DA     SC418842  86.249  36.738  50.107
18297DA     BB118843  86.367  36.914  50.804
18297DA     BB218844  86.712  36.898  50.680
18297DA     BB318845  86.765  37.081  50.584
18297DA     SC118846  86.672  36.989  50.302
18297DA     SC218847  86.777  36.929  50.084
18297DA     SC318848  86.545  36.974  49.983
18297DA     SC418849  86.522  37.023  50.258
18298DT     BB118850  86.898  37.152  50.676
18298DT     BB218851  87.160  37.073  50.441
18298DT     BB318852  87.199  37.236  50.321
18298DT     SC118853  86.978  37.197  50.184
18298DT     SC218854  87.028  37.132  49.985
18298DT     SC318855  86.738  37.239  50.082
18299DT     BB118856  87.412  37.206  50.458
18299DT     BB218857  87.510  37.182  50.111
18299DT     BB318858  87.511  37.370  50.025
18299DT     SC118859  87.249  37.377  50.016
18299DT     SC218860  87.185  37.364  49.811
18299DT     SC318861  87.001  37.452  50.062
18300DA     BB118862  87.845  37.119  49.940
18300DA     BB218863  87.732  37.283  49.631
18300DA     BB318864  87.759  37.494  49.645
18300DA     SC118865  87.476  37.547  49.763
18300DA     SC218866  87.263  37.653  49.689
18300DA     SC318867  87.208  37.670  49.939
18300DA     SC418868  87.461  37.550  49.923
18301DA     BB118869  87.903  37.418  49.356
18301DA     BB218870  87.683  37.671  49.207
18301DA     BB318871  87.736  37.865  49.276
18301DA     SC118872  87.543  37.858  49.520
18301DA     SC218873  87.332  37.970  49.592
18301DA     SC318874  87.398  37.897  49.829
18301DA     SC418875  87.603  37.805  49.660
18302DT     BB118876  87.827  38.018  49.152
18302DT     BB218877  87.549  38.247  49.136
18302DT     BB318878  87.585  38.411  49.256
18302DT     SC118879  87.539  38.272  49.474
18302DT     SC218880  87.355  38.339  49.564
18302DT     SC318881  87.579  38.153  49.706
18303DA     BB118882  87.527  38.628  48.895
18303DA     BB218883  87.325  38.798  49.150
18303DA     BB318884  87.449  38.924  49.270
18303DA     SC118885  87.508  38.704  49.482
18303DA     SC218886  87.451  38.656  49.720
18303DA     SC318887  87.656  38.502  49.717
18303DA     SC418888  87.640  38.614  49.460
18304DT     BB118889  87.460  39.170  49.284
18304DT     BB218890  87.288  39.196  49.601
18304DT     BB318891  87.418  39.267  49.746
18304DT     SC118892  87.541  39.036  49.761
18304DT     SC218893  87.496  38.943  49.950
18304DT     SC318894  87.732  38.855  49.746
18305DA     BB118895  87.097  39.536  49.768
18305DA     BB218896  87.161  39.415  50.108
18305DA     BB318897  87.331  39.512  50.191
18305DA     SC118898  87.533  39.298  50.089
18305DA     SC218899  87.678  39.120  50.187
18305DA     SC318900  87.809  39.135  49.967
18305DA     SC418901  87.602  39.323  49.947
18306DA     BB118902  87.115  39.576  50.427
18306DA     BB218903  87.330  39.379  50.650
18306DA     BB318904  87.502  39.493  50.706
18306DA     SC118905  87.676  39.392  50.469
18306DA     SC218906  87.874  39.245  50.435
18306DA     SC318907  87.901  39.366  50.211
18306DA     SC418908  87.676  39.480  50.334
18307DG     BB118909  87.379  39.437  50.982
18307DG     BB218910  87.685  39.251  51.028
18307DG     BB318911  87.834  39.375  51.071
18307DG     SC118912  87.914  39.421  50.779
18307DG     SC218913  88.169  39.334  50.651
18307DG     SC318914  88.015  39.510  50.470
18307DG     SC418915  87.843  39.539  50.697
18308DC     BB118916  87.929  39.349  51.256
18308DC     BB218917  88.246  39.204  51.161
18308DC     BB318918  88.392  39.350  51.160
18308DC     SC118919  88.301  39.452  50.936
18308DC     SC218920  88.441  39.414  50.778
18308DC     SC318921  88.195  39.625  50.767
18309DT     BB118922  88.501  39.245  51.387
18309DT     BB218923  88.774  39.250  51.151
18309DT     BB318924  88.869  39.435  51.157
18309DT     SC118925  88.672  39.548  51.026
18309DT     SC218926  88.739  39.602  50.829
18309DT     SC318927  88.469  39.708  50.973
18310DT     BB118928  89.094  39.341  51.295
18310DT     BB218929  89.232  39.496  51.000
18310DT     BB318930  89.270  39.696  51.036
18310DT     SC118931  89.015  39.755  51.023
18310DT     SC218932  88.977  39.870  50.846
18310DT     SC318933  88.775  39.836  51.097
18311DT     BB118934  89.560  39.684  51.063
18311DT     BB218935  89.511  39.928  50.802
18311DT     BB318936  89.507  40.119  50.883
18311DT     SC118937  89.265  40.081  50.979
18311DT     SC218938  89.125  40.203  50.871
18311DT     SC318939  89.069  40.054  51.153
18312DT     BB118940  89.764  40.200  50.793
18312DT     BB218941  89.541  40.445  50.650
18312DT     BB318942  89.524  40.608  50.777
18312DT     SC118943  89.371  40.473  50.942
18312DT     SC218944  89.171  40.551  50.935
18312DT     SC318945  89.288  40.352  51.162
18313DT     BB118946  89.673  40.766  50.609
18313DT     BB218947  89.357  40.938  50.639
18313DT     BB318948  89.362  41.067  50.801
18313DT     SC118949  89.341  40.868  50.971
18313DT     SC218950  89.148  40.875  51.065
18313DT     SC318951  89.402  40.699  51.164
18314DT     BB118952  89.367  41.272  50.627
18314DT     BB218953  89.075  41.331  50.830
18314DT     BB318954  89.127  41.434  51.001
18314DT     SC118955  89.235  41.220  51.107
18314DT     SC218956  89.114  41.154  51.273
18314DT     SC318957  89.417  41.056  51.207
18315DA     BB118958  88.806  41.632  50.819
18315DA     BB218959  88.727  41.592  51.175
18315DA     BB318960  88.847  41.724  51.292
18315DA     SC118961  89.077  41.520  51.333
18315DA     SC218962  89.173  41.384  51.519
18315DA     SC318963  89.383  41.368  51.372
18315DA     SC418964  89.198  41.522  51.227
18316DT     BB118965  88.755  41.877  51.393
18316DT     BB218966  88.786  41.737  51.724
18316DT     BB318967  88.934  41.836  51.829
18316DT     SC118968  89.122  41.713  51.692
18316DT     SC218969  89.225  41.575  51.821
18316DT     SC318970  89.327  41.676  51.530
18317DT     BB118971  88.756  41.977  51.993
18317DT     BB218972  88.969  41.803  52.226
18317DT     BB318973  89.132  41.921  52.275
18317DT     SC118974  89.244  41.875  52.042
18317DT     SC218975  89.418  41.751  52.070
18317DT     SC318976  89.345  41.918  51.802
18318DT     BB118977  89.041  41.987  52.533
18318DT     BB218978  89.364  41.836  52.590
18318DT     BB318979  89.511  41.981  52.589
18318DT     SC118980  89.498  42.005  52.328
18318DT     SC218981  89.678  41.926  52.241
18318DT     SC318982  89.459  42.112  52.090
18319DA     BB118983  89.559  41.769  52.946
18319DA     BB218984  89.885  41.781  52.779
18319DA     BB318985  89.973  41.974  52.800
18319DA     SC118986  89.848  42.087  52.539
18319DA     SC218987  89.925  42.157  52.313
18319DA     SC318988  89.705  42.288  52.300
18319DA     SC418989  89.706  42.163  52.551
18320DA     BB118990  90.203  41.772  52.903
18320DA     BB218991  90.405  41.900  52.626
18320DA     BB318992  90.474  42.097  52.668
18320DA     SC118993  90.228  42.237  52.538
18320DA     SC218994  90.180  42.375  52.336
18320DA     SC318995  89.970  42.449  52.462
18320DA     SC418996  90.103  42.272  52.633
18321DT     BB118997  90.646  42.086  52.673
18321DT     BB218998  90.710  42.251  52.359
18321DT     BB318999  90.750  42.451  52.391
18321DT     SC119000  90.497  42.503  52.437
18321DT     SC219001  90.417  42.620  52.276
18321DT     SC319002  90.278  42.575  52.565
18322DA     BB119003  91.019  42.256  52.130
18322DA     BB219004  90.919  42.576  51.981
18322DA     BB319005  90.997  42.739  52.095
18322DA     SC119006  90.748  42.761  52.280
18322DA     SC219007  90.560  42.920  52.318
18322DA     SC319008  90.537  42.806  52.546
18322DA     SC419009  90.751  42.678  52.418
18323DA     BB119010  91.096  42.813  51.790
18323DA     BB219011  90.918  43.131  51.833
18323DA     BB319012  91.022  43.256  51.971
18323DA     SC119013  90.868  43.150  52.220
18323DA     SC219014  90.698  43.235  52.382
18323DA     SC319015  90.778  43.045  52.534
18323DA     SC419016  90.932  43.027  52.300
18324DG     BB119017  91.056  43.467  51.738
18324DG     BB219018  90.862  43.681  51.956
18324DG     BB319019  90.981  43.769  52.089
18324DG     SC119020  90.954  43.546  52.296
18324DG     SC219021  90.821  43.569  52.563
18324DG     SC319022  90.963  43.311  52.538
18324DG     SC419023  91.056  43.422  52.291
18325DT     BB119024  91.046  44.016  52.118
18325DT     BB219025  90.856  44.101  52.413
18325DT     BB319026  90.984  44.132  52.573
18325DT     SC119027  91.027  43.874  52.599
18325DT     SC219028  90.935  43.805  52.780
18325DT     SC319029  91.154  43.643  52.603
18326DT     BB119030  90.985  44.429  52.592
18326DT     BB219031  90.886  44.327  52.924
18326DT     BB319032  91.051  44.322  53.048
18326DT     SC119033  91.137  44.100  52.938
18326DT     SC219034  91.118  43.938  53.079
18326DT     SC319035  91.292  43.932  52.806
18327DT     BB119036  90.998  44.564  53.201
18327DT     BB219037  91.015  44.305  53.452
18327DT     BB319038  91.206  44.295  53.531
18327DT     SC119039  91.297  44.178  53.315
18327DT     SC219040  91.348  43.974  53.360
18327DT     SC319041  91.437  44.137  53.095
18328DT     BB119042  91.122  44.405  53.769
18328DT     BB219043  91.256  44.083  53.859
18328DT     BB319044  91.458  44.099  53.901
18328DT     SC119045  91.518  44.122  53.647
18328DT     SC219046  91.621  43.945  53.581
18328DT     SC319047  91.605  44.226  53.421
18329DT     BB119048  91.371  44.045  54.140
18329DT     BB219049  91.602  43.780  54.057
18329DT     BB319050  91.796  43.842  54.092
18329DT     SC119051  91.795  43.993  53.877
18329DT     SC219052  91.926  43.908  53.729
18329DT     SC319053  91.803  44.208  53.724
18330DA     BB119054  91.677  43.454  54.214
18330DA     BB219055  92.002  43.435  54.045
18330DA     BB319056  92.150  43.540  54.157
18330DA     SC119057  92.104  43.811  54.011
18330DA     SC219058  92.226  43.957  53.851
18330DA     SC319059  92.070  44.143  53.933
18330DA     SC419060  91.998  43.913  54.077
18331DA     BB119061  92.255  43.240  54.060
18331DA     BB219062  92.545  43.421  53.926
18331DA     BB319063  92.651  43.517  54.083
18331DA     SC119064  92.491  43.783  54.062
18331DA     SC219065  92.532  44.018  53.988
18331DA     SC319066  92.325  44.076  54.128
18331DA     SC419067  92.361  43.799  54.155
18332DT     BB119068  92.817  43.445  54.107
18332DT     BB219069  93.018  43.728  54.007
18332DT     BB319070  93.074  43.838  54.173
18332DT     SC119071  92.832  43.938  54.198
18332DT     SC219072  92.837  44.148  54.150
18332DT     SC319073  92.596  43.992  54.301
18333DT     BB119074  93.345  43.746  54.190
18333DT     BB219075  93.383  44.105  54.207
18333DT     BB319076  93.381  44.167  54.404
18333DT     SC119077  93.121  44.131  54.421
18333DT     SC219078  93.024  44.322  54.437
18333DT     SC319079  92.889  44.034  54.499
18334DA     BB119080  93.764  44.331  54.315
18334DA     BB219081  93.581  44.596  54.490
18334DA     BB319082  93.589  44.565  54.700
18334DA     SC119083  93.328  44.396  54.710
18334DA     SC219084  93.095  44.420  54.796
18334DA     SC319085  93.086  44.164  54.785
18334DA     SC419086  93.343  44.236  54.697
18335DA     BB119087  93.731  44.870  54.770
18335DA     BB219088  93.430  44.960  54.960
18335DA     BB319089  93.446  44.891  55.161
18335DA     SC119090  93.313  44.616  55.104
18335DA     SC219091  93.100  44.499  55.158
18335DA     SC319092  93.227  44.284  55.103
18335DA     SC419093  93.410  44.493  55.066
18336DA     BB119094  93.394  45.204  55.267
18336DA     BB219095  93.085  45.088  55.425
18336DA     BB319096  93.127  45.002  55.616
18336DA     SC119097  93.165  44.714  55.507
18336DA     SC219098  93.045  44.495  55.516
18336DA     SC319099  93.271  44.392  55.450
18336DA     SC419100  93.314  44.669  55.466
18337DA     BB119101  92.903  45.219  55.718
18337DA     BB219102  92.699  44.934  55.826
18337DA     BB319103  92.772  44.857  56.011
18337DA     SC119104  92.966  44.653  55.879
18337DA     SC219105  92.983  44.406  55.852
18337DA     SC319106  93.231  44.449  55.803
18337DA     SC419107  93.117  44.700  55.852
18338DT     BB119108  92.654  44.874  56.174
18338DT     BB219109  92.555  44.528  56.195
18338DT     BB319110  92.654  44.436  56.352
18338DT     SC119111  92.879  44.429  56.218
18338DT     SC219112  92.925  44.225  56.166
18338DT     SC319113  93.129  44.476  56.150
18339DT     BB119114  92.421  44.429  56.494
18339DT     BB219115  92.529  44.085  56.485
18339DT     BB319116  92.658  44.047  56.643
18339DT     SC119117  92.853  44.177  56.525
18339DT     SC219118  93.005  44.037  56.465
18339DT     SC319119  93.038  44.359  56.481
18340DA     BB119120  92.363  43.749  56.680
18340DA     BB219121  92.689  43.583  56.713
18340DA     BB319122  92.772  43.621  56.905
18340DA     SC119123  92.925  43.877  56.815
18340DA     SC219124  93.162  43.947  56.779
18340DA     SC319125  93.072  44.187  56.800
18340DA     SC419126  92.850  44.018  56.833
18341DT     BB119127  92.803  43.467  57.084
18341DT     BB219128  93.161  43.437  57.053
18341DT     BB319129  93.253  43.521  57.218
18341DT     SC119130  93.204  43.764  57.132
18341DT     SC219131  93.388  43.858  57.073
18341DT     SC319132  93.106  44.008  57.122
18342DA     BB119133  93.416  43.133  57.219
18342DA     BB219134  93.697  43.367  57.244
18342DA     BB319135  93.713  43.442  57.443
18342DA     SC119136  93.528  43.688  57.391
18342DA     SC219137  93.551  43.935  57.373
18342DA     SC319138  93.299  43.941  57.419
18342DA     SC419139  93.372  43.671  57.422
18343DG     BB119140  93.999  43.312  57.460
18343DG     BB219141  94.107  43.657  57.476
18343DG     BB319142  94.105  43.720  57.664
18343DG     SC119143  93.815  43.819  57.653
18343DG     SC219144  93.726  44.104  57.671
18343DG     SC319145  93.495  43.920  57.682
18343DG     SC419146  93.697  43.717  57.688
18344DA     BB119147  94.429  43.819  57.606
18344DA     BB219148  94.334  44.167  57.673
18344DA     BB319149  94.314  44.198  57.883
18344DA     SC119150  94.011  44.127  57.889
18344DA     SC219151  93.794  44.245  57.924
18344DA     SC319152  93.699  44.013  57.976
18344DA     SC419153  93.971  43.974  57.920
18345DA     BB119154  94.516  44.434  57.789
18345DA     BB219155  94.261  44.669  57.910
18345DA     BB319156  94.255  44.669  58.123
18345DA     SC119157  94.041  44.444  58.142
18345DA     SC219158  93.801  44.423  58.208
18345DA     SC319159  93.852  44.173  58.236
18345DA     SC419160  94.093  44.293  58.155
18346DT     BB119161  94.305  44.833  58.193
18346DT     BB219162  93.977  44.940  58.299
18346DT     BB319163  93.954  44.907  58.502
18346DT     SC119164  93.926  44.648  58.464
18346DT     SC219165  93.723  44.591  58.507
18346DT     SC319166  93.975  44.389  58.476
18347DT     BB119167  93.963  45.170  58.524
18347DT     BB219168  93.650  45.074  58.677
18347DT     BB319169  93.683  45.014  58.872
18347DT     SC119170  93.786  44.786  58.793
18347DT     SC219171  93.651  44.625  58.843
18347DT     SC319172  93.961  44.593  58.754
18348DA     BB119173  93.378  45.302  58.885
18348DA     BB219174  93.270  45.016  59.087
18348DA     BB319175  93.378  45.010  59.270
18348DA     SC119176  93.605  44.829  59.158
18348DA     SC219177  93.685  44.594  59.186
18348DA     SC319178  93.907  44.680  59.088
18348DA     SC419179  93.735  44.901  59.096
18349DG     BB119180  93.103  45.043  59.420
18349DG     BB219181  93.180  44.714  59.548
18349DG     BB319182  93.298  44.729  59.708
18349DG     SC119183  93.558  44.719  59.547
18349DG     SC219184  93.761  44.500  59.553
18349DG     SC319185  93.862  44.732  59.400
18349DG     SC419186  93.620  44.856  59.491
18350DC     BB119187  93.242  44.663  59.928
18350DC     BB219188  93.432  44.358  59.958
18350DC     BB319189  93.594  44.387  60.083
18350DC     SC119190  93.722  44.523  59.898
18350DC     SC219191  93.890  44.408  59.829
18350DC     SC319192  93.841  44.723  59.775
18351DT     BB119193  93.483  44.242  60.295
18351DT     BB219194  93.797  44.077  60.229
18351DT     BB319195  93.947  44.162  60.344
18351DT     SC119196  93.956  44.374  60.191
18351DT     SC219197  94.141  44.376  60.081
18351DT     SC319198  93.938  44.626  60.114
18352DC     BB119199  93.956  43.939  60.502
18352DC     BB219200  94.291  43.972  60.372
18352DC     BB319201  94.403  44.094  60.495
18352DC     SC119202  94.281  44.309  60.406
18352DC     SC219203  94.418  44.425  60.288
18352DC     SC319204  94.132  44.527  60.403
18353DT     BB119205  94.536  43.875  60.568
18353DT     BB219206  94.788  44.098  60.437
18353DT     BB319207  94.851  44.228  60.585
18353DT     SC119208  94.630  44.367  60.568
18353DT     SC219209  94.673  44.560  60.482
18353DT     SC319210  94.400  44.477  60.636
18354DT     BB119211  95.076  44.090  60.573
18354DT     BB219212  95.171  44.432  60.509
18354DT     BB319213  95.192  44.535  60.688
18354DT     SC119214  94.932  44.548  60.720
18354DT     SC219215  94.867  44.751  60.696
18354DT     SC319216  94.692  44.510  60.824
18355DA     BB119217  95.534  44.597  60.452
18355DA     BB219218  95.425  44.922  60.584
18355DA     BB319219  95.464  44.933  60.793
18355DA     SC119220  95.186  44.820  60.876
18355DA     SC219221  94.977  44.904  60.983
18355DA     SC319222  94.928  44.657  61.033
18355DA     SC419223  95.174  44.662  60.898
18356DT     BB119224  95.604  45.064  60.862
18356DT     BB219225  95.380  45.301  61.016
18356DT     BB319226  95.383  45.278  61.221
18356DT     SC119227  95.240  45.058  61.207
18356DT     SC219228  95.044  45.095  61.288
18356DT     SC319229  95.174  44.804  61.227
18357DA     BB119230  95.476  45.689  61.187
18357DA     BB219231  95.216  45.662  61.444
18357DA     BB319232  95.299  45.592  61.627
18357DA     SC119233  95.252  45.292  61.564
18357DA     SC219234  95.105  45.107  61.645
18357DA     SC319235  95.278  44.950  61.538
18357DA     SC419236  95.371  45.211  61.492
18358DA     BB119237  95.191  45.864  61.808
18358DA     BB219238  94.986  45.638  62.010
18358DA     BB319239  95.101  45.554  62.169
18358DA     SC119240  95.191  45.305  62.004
18358DA     SC219241  95.148  45.060  62.003
18358DA     SC319242  95.367  45.043  61.869
18358DA     SC419243  95.330  45.316  61.923
18359DT     BB119244  95.092  45.589  62.421
18359DT     BB219245  94.926  45.276  62.489
18359DT     BB319246  95.050  45.153  62.602
18359DT     SC119247  95.200  45.100  62.393
18359DT     SC219248  95.171  44.895  62.335
18359DT     SC319249  95.411  45.089  62.235
18360DA     BB119250  94.707  45.168  62.844
18360DA     BB219251  94.783  44.814  62.786
18360DA     BB319252  94.939  44.750  62.916
18360DA     SC119253  95.168  44.819  62.717
18360DA     SC219254  95.334  44.697  62.577
18360DA     SC319255  95.464  44.918  62.575
18360DA     SC419256  95.235  44.965  62.729
18361DT     BB119257  94.893  44.608  63.054
18361DT     BB219258  95.040  44.336  62.870
18361DT     BB319259  95.214  44.273  62.963
18361DT     SC119260  95.345  44.484  62.878
18361DT     SC219261  95.490  44.424  62.730
18361DT     SC319262  95.481  44.710  62.881
18362DT     BB119263  95.057  44.072  62.990
18362DT     BB219264  95.337  43.957  62.793
18362DT     BB319265  95.500  43.923  62.915
18362DT     SC119266  95.544  44.180  62.942
18362DT     SC219267  95.725  44.233  62.839
18362DT     SC319268  95.569  44.417  63.056
18363DA     BB119269  95.400  43.641  62.612
18363DA     BB219270  95.759  43.715  62.599
18363DA     BB319271  95.855  43.649  62.777
18363DA     SC119272  95.817  43.919  62.927
18363DA     SC219273  95.960  44.107  63.007
18363DA     SC319274  95.765  44.161  63.164
18363DA     SC419275  95.686  43.935  63.018
18364DT     BB119276  95.955  43.544  62.707
18364DT     BB219277  96.261  43.726  62.766
18364DT     BB319278  96.336  43.680  62.953
18364DT     SC119279  96.153  43.826  63.071
18364DT     SC219280  96.246  44.000  63.158
18364DT     SC319281  95.947  43.892  63.222
18365DT     BB119282  96.515  43.570  62.803
18365DT     BB219283  96.695  43.793  63.023
18365DT     BB319284  96.714  43.707  63.210
18365DT     SC119285  96.461  43.755  63.266
18365DT     SC219286  96.449  43.907  63.418
18365DT     SC319287  96.208  43.712  63.324
18366DT     BB119288  96.971  43.677  63.153
18366DT     BB219289  96.968  43.854  63.467
18366DT     BB319290  96.945  43.720  63.624
18366DT     SC119291  96.690  43.687  63.568
18366DT     SC219292  96.571  43.776  63.724
18366DT     SC319293  96.465  43.571  63.497
18367DA     BB119294  97.287  43.943  63.726
18367DA     BB219295  97.074  43.925  64.024
18367DA     BB319296  97.082  43.730  64.109
18367DA     SC119297  96.841  43.621  63.945
18367DA     SC219298  96.606  43.550  63.988
18367DA     SC319299  96.625  43.425  63.765
18367DA     SC419300  96.873  43.549  63.805
18368DT     BB119301  97.176  43.682  64.303
18368DT     BB219302  96.872  43.625  64.488
18368DT     BB319303  96.849  43.423  64.527
18368DT     SC119304  96.781  43.374  64.279
18368DT     SC219305  96.573  43.320  64.271
18368DT     SC319306  96.790  43.277  64.034
18369DG     BB119307  96.864  43.572  64.911
18369DG     BB219308  96.573  43.361  64.868
18369DG     BB319309  96.624  43.170  64.891
18369DG     SC119310  96.690  43.127  64.595
18369DG     SC219311  96.539  42.952  64.406
18369DG     SC319312  96.789  43.051  64.282
18369DG     SC419313  96.838  43.158  64.543
18370DG     BB119314  96.420  43.108  65.154
18370DG     BB219315  96.245  42.876  64.939
18370DG     BB319316  96.329  42.695  64.951
18370DG     SC119317  96.528  42.745  64.724
18370DG     SC219318  96.529  42.608  64.459
18370DG     SC319319  96.772  42.773  64.493
18370DG     SC419320  96.670  42.811  64.758
18371DA     BB119321  96.022  42.542  65.032
18371DA     BB219322  96.037  42.340  64.726
18371DA     BB319323  96.162  42.169  64.756
18371DA     SC119324  96.422  42.311  64.661
18371DA     SC219325  96.578  42.300  64.467
18371DA     SC319326  96.746  42.417  64.622
18371DA     SC419327  96.512  42.383  64.773
18372DA     BB119328  95.897  42.003  64.655
18372DA     BB219329  96.097  41.891  64.369
18372DA     BB319330  96.227  41.733  64.428
18372DA     SC119331  96.463  41.921  64.504
18372DA     SC219332  96.690  41.977  64.417
18372DA     SC319333  96.736  42.066  64.653
18372DA     SC419334  96.472  41.970  64.657
18373DA     BB119335  96.078  41.595  64.173
18373DA     BB219336  96.408  41.575  64.015
18373DA     BB319337  96.523  41.418  64.103
18373DA     SC119338  96.651  41.599  64.321
18373DA     SC219339  96.875  41.694  64.374
18373DA     SC319340  96.784  41.724  64.611
18373DA     SC419341  96.576  41.609  64.463
18374DT     BB119342  96.567  41.267  63.985
18374DT     BB219343  96.915  41.347  63.938
18374DT     BB319344  97.033  41.221  64.053
18374DT     SC119345  96.969  41.348  64.273
18374DT     SC219346  97.140  41.455  64.347
18374DT     SC319347  96.869  41.395  64.512
18375DA     BB119348  97.179  41.213  63.660
18375DA     BB219349  97.464  41.265  63.885
18375DA     BB319350  97.509  41.084  63.990
18375DA     SC119351  97.323  41.148  64.230
18375DA     SC219352  97.346  41.208  64.471
18375DA     SC319353  97.103  41.129  64.494
18375DA     SC419354  97.172  41.093  64.224
18376DC     BB119355  97.688  40.985  63.953
18376DC     BB219356  97.852  41.075  64.261
18376DC     BB319357  97.859  40.911  64.388
18376DC     SC119358  97.604  40.934  64.445
18376DC     SC219359  97.582  40.998  64.649
18376DC     SC319360  97.348  40.876  64.461
18377DA     BB119361  98.257  41.042  64.362
18377DA     BB219362  98.178  41.000  64.717
18377DA     BB319363  98.176  40.793  64.769
18377DA     SC119364  97.873  40.756  64.710
18377DA     SC219365  97.663  40.716  64.839
18377DA     SC319366  97.566  40.634  64.616
18377DA     SC419367  97.832  40.708  64.562
18378DT     BB119368  98.322  40.709  64.901
18378DT     BB219369  98.104  40.682  65.187
18378DT     BB319370  98.058  40.483  65.223
18378DT     SC119371  97.894  40.477  65.018
18378DT     SC219372  97.692  40.459  65.090
18378DT     SC319373  97.790  40.409  64.785
18379DT     BB119374  98.215  40.487  65.444
18379DT     BB219375  97.888  40.395  65.565
18379DT     BB319376  97.864  40.189  65.554
18379DT     SC119377  97.834  40.199  65.293
18379DT     SC219378  97.630  40.152  65.243
18379DT     SC319379  97.880  40.160  65.036
18380DT     BB119380  97.871  40.208  65.814
18380DT     BB219381  97.551  40.060  65.735
18380DT     BB319382  97.573  39.857  65.704
18380DT     SC119383  97.683  39.897  65.469
18380DT     SC219384  97.548  39.832  65.315
18380DT     SC319385  97.862  39.899  65.276
18381DG     BB119386  97.290  39.961  65.977
18381DG     BB219387  97.162  39.736  65.724
18381DG     BB319388  97.234  39.553  65.754
18381DG     SC119389  97.482  39.596  65.579
18381DG     SC219390  97.539  39.460  65.320
18381DG     SC319391  97.773  39.616  65.411
18381DG     SC419392  97.614  39.657  65.645
18382DT     BB119393  97.087  39.441  65.776
18382DT     BB219394  97.091  39.239  65.477
18382DT     BB319395  97.206  39.070  65.507
18382DT     SC119396  97.428  39.209  65.491
18382DT     SC219397  97.532  39.157  65.310
18382DT     SC319398  97.657  39.320  65.561
18383DT     BB119399  96.976  38.939  65.503
18383DT     BB219400  97.181  38.776  65.255
18383DT     BB319401  97.308  38.640  65.346
18383DT     SC119402  97.462  38.832  65.436
18383DT     SC219403  97.650  38.827  65.332
18383DT     SC319404  97.587  38.991  65.605
18384DA     BB119405  97.111  38.415  65.049
18384DA     BB219406  97.469  38.338  65.026
18384DA     BB319407  97.529  38.212  65.188
18384DA     SC119408  97.603  38.449  65.376
18384DA     SC219409  97.810  38.549  65.474
18384DA     SC319410  97.653  38.653  65.648
18384DA     SC419411  97.489  38.503  65.476
18385DA     BB119412  97.646  37.993  64.964
18385DA     BB219413  97.979  38.040  65.110
18385DA     BB319414  97.999  37.924  65.288
18385DA     SC119415  97.898  38.151  65.476
18385DA     SC219416  97.992  38.303  65.650
18385DA     SC319417  97.749  38.332  65.727
18385DA     SC419418  97.740  38.156  65.509
18386DA     BB119419  98.267  37.784  65.150
18386DA     BB219420  98.465  37.928  65.424
18386DA     BB319421  98.448  37.808  65.599
18386DA     SC119422  98.202  37.964  65.711
18386DA     SC219423  98.152  38.119  65.900
18386DA     SC319424  97.907  38.053  65.862
18386DA     SC419425  98.056  37.909  65.672
18387DT     BB119426  98.614  37.700  65.679
18387DT     BB219427  98.676  37.922  65.956
18387DT     BB319428  98.621  37.831  66.134
18387DT     SC119429  98.366  37.867  66.082
18387DT     SC219430  98.285  38.013  66.217
18387DT     SC319431  98.113  37.812  66.030
18388DG     BB119432  99.013  37.938  66.159
18388DG     BB219433  98.820  38.070  66.436
18388DG     BB319434  98.785  37.926  66.569
18388DG     SC119435  98.523  37.836  66.439
18388DG     SC219436  98.250  37.862  66.558
18388DG     SC319437  98.243  37.697  66.312
18388DG     SC419438  98.528  37.724  66.324
18389DG     BB119439  98.930  38.129  66.776
18389DG     BB219440  98.614  38.133  66.952
18389DG     BB319441  98.597  37.970  67.064
18389DG     SC119442  98.464  37.804  66.844
18389DG     SC219443  98.183  37.703  66.846
18389DG     SC319444  98.334  37.587  66.621
18389DG     SC419445  98.556  37.721  66.743
18390DC     BB119446  98.579  38.001  67.268
18390DC     BB219447  98.232  37.922  67.328
18390DC     BB319448  98.214  37.729  67.401
18390DC     SC119449  98.261  37.627  67.164
18390DC     SC219450  98.081  37.536  67.089
18390DC     SC319451  98.380  37.492  66.971
18391DT     BB119452  98.153  37.832  67.643
18391DT     BB219453  97.878  37.611  67.567
18391DT     BB319454  97.925  37.418  67.625
18391DT     SC119455  98.087  37.388  67.420
18391DT     SC219456  98.001  37.247  67.282
18391DT     SC319457  98.309  37.350  67.283
18392DC     BB119458  97.755  37.428  67.841
18392DC     BB219459  97.646  37.136  67.660
18392DC     BB319460  97.753  36.970  67.723
18392DC     SC119461  97.967  37.048  67.592
18392DC     SC219462  98.001  36.916  67.426
18392DC     SC319463  98.213  37.130  67.546
18393DC     BB119464  97.538  36.864  67.864
18393DC     BB219465  97.634  36.598  67.640
18393DC     BB319466  97.777  36.478  67.730
18393DC     SC119467  97.963  36.659  67.693
18393DC     SC219468  98.103  36.589  67.546
18393DC     SC319469  98.148  36.839  67.747
18394DT     BB119470  97.600  36.267  67.777
18394DT     BB219471  97.868  36.113  67.591
18394DT     BB319472  98.013  36.043  67.721
18394DT     SC119473  98.101  36.286  67.767
18394DT     SC219474  98.296  36.309  67.679
18394DT     SC319475  98.160  36.508  67.896
18395DA     BB119476  97.919  35.707  67.487
18395DA     BB219477  98.284  35.734  67.495
18395DA     BB319478  98.360  35.668  67.684
18395DA     SC119479  98.348  35.950  67.815
18395DA     SC219480  98.508  36.124  67.894
18395DA     SC319481  98.312  36.213  68.033
18395DA     SC419482  98.214  35.989  67.895
18396DA     BB119483  98.554  35.451  67.519
18396DA     BB219484  98.846  35.621  67.662
18396DA     BB319485  98.880  35.555  67.862
18396DA     SC119486  98.703  35.776  67.991
18396DA     SC219487  98.735  35.980  68.130
18396DA     SC319488  98.487  35.952  68.191
18396DA     SC419489  98.548  35.741  68.018
18397DA     BB119490  99.196  35.462  67.783
18397DA     BB219491  99.318  35.709  68.025
18397DA     BB319492  99.314  35.628  68.222
18397DA     SC119493  99.026  35.728  68.284
18397DA     SC219494  98.917  35.898  68.430
18397DA     SC319495  98.703  35.759  68.398
18397DA     SC419496  98.904  35.627  68.253
18398DA     BB119497  99.646  35.685  68.267
18398DA     BB219498  99.559  35.920  68.534
18398DA     BB319499  99.532  35.817  68.719
18398DA     SC119500  99.227  35.771  68.676
18398DA     SC219501  99.012  35.852  68.774
18398DA     SC319502  98.909  35.641  68.670
18398DA     SC419503  99.181  35.634  68.605
18399DG     BB119504  99.778  35.965  68.869
18399DG     BB219505  99.514  36.116  69.065
18399DG     BB319506  99.481  36.008  69.229
18399DG     SC119507  99.272  35.827  69.098
18399DG     SC219508  98.981  35.818  69.166
18399DG     SC319509  99.053  35.598  68.982
18399DG     SC419510  99.320  35.694  69.024
18400DC     BB119511  99.512  36.085  69.458
18400DC     BB219512  99.166  36.156  69.534
18400DC     BB319513  99.096  36.022  69.676
18400DC     SC119514  99.082  35.830  69.498
18400DC     SC219515  98.876  35.783  69.459
18400DC     SC319516  99.131  35.601  69.375
18401DA     BB119517  99.017  36.422  69.756
18401DA     BB219518  98.703  36.234  69.766
18401DA     BB319519  98.695  36.111  69.940
18401DA     SC119520  98.824  35.864  69.800
18401DA     SC219521  98.753  35.637  69.724
18401DA     SC319522  99.003  35.581  69.727
18401DA     SC419523  98.983  35.849  69.809
18402DT     BB119524  98.566  36.183  69.986
18402DT     BB219525  98.340  35.911  69.915
18402DT     BB319526  98.337  35.778  70.073
18402DT     SC119527  98.572  35.682  70.008
18402DT     SC219528  98.549  35.481  69.935
18402DT     SC319529  98.828  35.621  70.024
18403DA     BB119530  97.974  35.893  69.876
18403DA     BB219531  97.979  35.530  69.928
18403DA     BB319532  97.981  35.485  70.137
18403DA     SC119533  98.291  35.480  70.158
18403DA     SC219534  98.471  35.311  70.195
18403DA     SC319535  98.616  35.511  70.264
18403DA     SC419536  98.365  35.617  70.199
18404DT     BB119537  97.836  35.402  70.156
18404DT     BB219538  97.973  35.076  70.227
18404DT     BB319539  98.002  35.055  70.431
18404DT     SC119540  98.213  35.211  70.425
18404DT     SC219541  98.390  35.094  70.462
18404DT     SC319542  98.370  35.417  70.473
18405DT     BB119543  97.797  34.886  70.426
18405DT     BB219544  98.063  34.701  70.585
18405DT     BB319545  98.070  34.747  70.786
18405DT     SC119546  98.179  34.981  70.736
18405DT     SC219547  98.383  34.981  70.804
18405DT     SC319548  98.209  35.243  70.723
18406DT     BB119549  97.960  34.505  70.862
18406DT     BB219550  98.265  34.524  71.055
18406DT     BB319551  98.229  34.621  71.234
18406DT     SC119552  98.216  34.854  71.115
18406DT     SC219553  98.387  34.972  71.170
18406DT     SC319554  98.118  35.083  71.027
18407DT     BB119555  98.234  34.389  71.398
18407DT     BB219556  98.477  34.606  71.553
18407DT     BB319557  98.387  34.720  71.699
18407DT     SC119558  98.272  34.873  71.519
18407DT     SC219559  98.361  35.069  71.525
18407DT     SC319560  98.084  34.991  71.377
18408DA     BB119561  98.703  34.539  71.908
18408DA     BB219562  98.715  34.897  71.985
18408DA     BB319563  98.564  34.948  72.127
18408DA     SC119564  98.349  35.013  71.912
18408DA     SC219565  98.231  35.215  71.825
18408DA     SC319566  98.056  35.049  71.737
18408DA     SC419567  98.250  34.895  71.867
18409DA     BB119568  98.813  35.073  72.305
18409DA     BB219569  98.649  35.400  72.275
18409DA     BB319570  98.488  35.415  72.414
18409DA     SC119571  98.275  35.305  72.216
18409DA     SC219572  98.078  35.391  72.090
18409DA     SC319573  98.007  35.145  72.074
18409DA     SC419574  98.247  35.147  72.218
18410DT     BB119575  98.499  35.550  72.572
18410DT     BB219576  98.266  35.791  72.438
18410DT     BB319577  98.087  35.782  72.543
18410DT     SC119578  98.020  35.558  72.424
18410DT     SC219579  97.855  35.594  72.291
18410DT     SC319580  97.958  35.304  72.390
18411DA     BB119581  98.203  36.185  72.549
18411DA     BB219582  97.850  36.173  72.447
18411DA     BB319583  97.726  36.131  72.615
18411DA     SC119584  97.735  35.823  72.576
18411DA     SC219585  97.579  35.641  72.508
18411DA     SC319586  97.744  35.483  72.625
18411DA     SC419587  97.849  35.741  72.655
18412DG     BB119588  97.599  36.407  72.546
18412DG     BB219589  97.306  36.205  72.483
18412DG     BB319590  97.212  36.166  72.654
18412DG     SC119591  97.368  35.908  72.709
18412DG     SC219592  97.255  35.632  72.711
18412DG     SC319593  97.534  35.633  72.811
18412DG     SC419594  97.506  35.917  72.790
18413DT     BB119595  97.007  36.238  72.689
18413DT     BB219596  96.817  35.933  72.656
18413DT     BB319597  96.762  35.864  72.843
18413DT     SC119598  97.006  35.779  72.892
18413DT     SC219599  97.008  35.564  72.893
18413DT     SC319600  97.243  35.757  73.005
18414DT     BB119601  96.507  35.936  72.791
18414DT     BB219602  96.487  35.585  72.870
18414DT     BB319603  96.470  35.559  73.074
18414DT     SC119604  96.724  35.616  73.110
18414DT     SC219605  96.829  35.438  73.170
18414DT     SC319606  96.941  35.741  73.191
18415DA     BB119607  96.161  35.340  72.893
18415DA     BB219608  96.325  35.122  73.138
18415DA     BB319609  96.274  35.182  73.336
18415DA     SC119610  96.515  35.376  73.366
18415DA     SC219611  96.728  35.387  73.495
18415DA     SC319612  96.722  35.639  73.445
18415DA     SC419613  96.493  35.530  73.325
18416DC     BB119614  96.162  35.058  73.449
18416DC     BB219615  96.422  34.951  73.674
18416DC     BB319616  96.401  35.045  73.857
18416DC     SC119617  96.492  35.271  73.760
18416DC     SC219618  96.686  35.312  73.844
18416DC     SC319619  96.500  35.524  73.684
18417DT     BB119620  96.304  34.817  73.986
18417DT     BB219621  96.585  34.918  74.189
18417DT     BB319622  96.523  35.050  74.336
18417DT     SC119623  96.500  35.245  74.161
18417DT     SC219624  96.653  35.391  74.197
18417DT     SC319625  96.390  35.432  74.012
18418DT     BB119626  96.533  34.869  74.556
18418DT     BB219627  96.741  35.142  74.665
18418DT     BB319628  96.628  35.280  74.770
18418DT     SC119629  96.518  35.370  74.549
18418DT     SC219630  96.589  35.569  74.509
18418DT     SC319631  96.334  35.426  74.369
18419DA     BB119632  96.925  35.198  75.059
18419DA     BB219633  96.905  35.562  75.030
18419DA     BB319634  96.737  35.637  75.139
18419DA     SC119635  96.542  35.619  74.898
18419DA     SC219636  96.420  35.775  74.746
18419DA     SC319637  96.266  35.576  74.697
18419DA     SC419638  96.456  35.483  74.881
18420DA     BB119639  96.941  35.837  75.315
18420DA     BB219640  96.771  36.123  75.161
18420DA     BB319641  96.593  36.170  75.269
18420DA     SC119642  96.411  35.985  75.097
18420DA     SC219643  96.229  36.010  74.928
18420DA     SC319644  96.169  35.768  74.987
18420DA     SC419645  96.389  35.834  75.148
18421DC     BB119646  96.566  36.358  75.382
18421DC     BB219647  96.360  36.516  75.131
18421DC     BB319648  96.166  36.536  75.202
18421DC     SC119649  96.119  36.280  75.169
18421DC     SC219650  95.979  36.253  75.008
18421DC     SC319651  96.063  36.029  75.227
18422DG     BB119652  96.320  36.894  75.088
18422DG     BB219653  96.011  36.818  74.916
18422DG     BB319654  95.856  36.849  75.037
18422DG     SC119655  95.855  36.564  75.149
18422DG     SC219656  95.642  36.360  75.107
18422DG     SC319657  95.838  36.267  75.308
18422DG     SC419658  95.946  36.531  75.277
18423DA     BB119659  95.764  37.015  74.754
18423DA     BB219660  95.467  36.801  74.734
18423DA     BB319661  95.329  36.851  74.889
18423DA     SC119662  95.447  36.648  75.093
18423DA     SC219663  95.378  36.435  75.202
18423DA     SC319664  95.556  36.490  75.378
18423DA     SC419665  95.561  36.701  75.193
18424DA     BB119666  95.168  36.847  74.606
18424DA     BB219667  94.959  36.589  74.762
18424DA     BB319668  94.842  36.674  74.919
18424DA     SC119669  95.054  36.619  75.140
18424DA     SC219670  95.080  36.469  75.338
18424DA     SC319671  95.258  36.637  75.416
18424DA     SC419672  95.161  36.735  75.172
18425DG     BB119673  94.630  36.556  74.731
18425DG     BB219674  94.559  36.351  75.021
18425DG     BB319675  94.457  36.456  75.155
18425DG     SC119676  94.707  36.561  75.299
18425DG     SC219677  94.791  36.492  75.577
18425DG     SC319678  94.958  36.710  75.467
18425DG     SC419679  94.775  36.697  75.248
18426DA     BB119680  94.245  36.184  75.149
18426DA     BB219681  94.294  36.140  75.509
18426DA     BB319682  94.190  36.292  75.618
18426DA     SC119683  94.432  36.487  75.621
18426DA     SC219684  94.593  36.579  75.788
18426DA     SC319685  94.634  36.765  75.617
18426DA     SC419686  94.443  36.595  75.502
18427DA     BB119687  94.072  36.024  75.765
18427DA     BB219688  94.212  36.158  76.076
18427DA     BB319689  94.095  36.322  76.145
18427DA     SC119690  94.262  36.536  75.993
18427DA     SC219691  94.421  36.720  76.048
18427DA     SC319692  94.364  36.812  75.815
18427DA     SC419693  94.212  36.578  75.845
18428DA     BB119694  94.097  36.136  76.415
18428DA     BB219695  94.258  36.418  76.585
18428DA     BB319696  94.117  36.574  76.620
18428DA     SC119697  94.172  36.719  76.351
18428DA     SC219698  94.278  36.932  76.275
18428DA     SC319699  94.145  36.897  76.058
18428DA     SC419700  94.081  36.680  76.225
18429DT     BB119701  94.075  36.611  76.807
18429DT     BB219702  94.252  36.925  76.833
18429DT     BB319703  94.118  37.082  76.824
18429DT     SC119704  94.085  37.050  76.566
18429DT     SC219705  94.173  37.216  76.462
18429DT     SC319706  93.967  37.000  76.335
18430DA     BB119707  94.358  37.140  77.164
18430DA     BB219708  94.344  37.457  76.980
18430DA     BB319709  94.152  37.547  77.002
18430DA     SC119710  94.032  37.410  76.750
18430DA     SC219711  93.956  37.477  76.522
18430DA     SC319712  93.824  37.257  76.524
18430DA     SC419713  93.956  37.270  76.771
18431DT     BB119714  94.131  37.725  77.108
18431DT     BB219715  94.070  37.941  76.826
18431DT     BB319716  93.870  37.993  76.819
18431DT     SC119717  93.803  37.756  76.730
18431DT     SC219718  93.739  37.771  76.525
18431DT     SC319719  93.692  37.517  76.720
18432DG     BB119720  94.065  38.352  76.850
18432DG     BB219721  93.833  38.354  76.572
18432DG     BB319722  93.648  38.385  76.639
18432DG     SC119723  93.586  38.088  76.679
18432DG     SC219724  93.386  37.928  76.525
18432DG     SC319725  93.490  37.774  76.754
18432DG     SC419726  93.621  38.020  76.819
18433DC     BB119727  93.519  38.571  76.585
18433DC     BB219728  93.287  38.427  76.349
18433DC     BB319729  93.101  38.407  76.436
18433DC     SC119730  93.181  38.201  76.578
18433DC     SC219731  93.085  38.023  76.505
18433DC     SC319732  93.242  38.052  76.787
18434DA     BB119733  93.046  38.613  76.076
18434DA     BB219734  92.806  38.336  76.085
18434DA     BB319735  92.647  38.379  76.222
18434DA     SC119736  92.789  38.248  76.465
18434DA     SC219737  92.761  38.046  76.609
18434DA     SC319738  92.906  38.172  76.779
18434DA     SC419739  92.880  38.343  76.559
18435DA     BB119740  92.488  38.302  75.948
18435DA     BB219741  92.338  38.029  76.140
18435DA     BB319742  92.194  38.105  76.278
18435DA     SC119743  92.399  38.139  76.510
18435DA     SC219744  92.447  38.033  76.731
18435DA     SC319745  92.574  38.249  76.784
18435DA     SC419746  92.472  38.281  76.525
18436DG     BB119747  92.030  37.910  76.107
18436DG     BB219748  91.994  37.740  76.425
18436DG     BB319749  91.861  37.836  76.538
18436DG     SC119750  92.068  38.020  76.668
18436DG     SC219751  92.149  38.017  76.956
18436DG     SC319752  92.264  38.251  76.816
18436DG     SC419753  92.104  38.159  76.598
18437DT     BB119754  91.700  37.725  76.590
18437DT     BB219755  91.750  37.665  76.942
18437DT     BB319756  91.644  37.804  77.053
18437DT     SC119757  91.817  37.993  76.997
18437DT     SC219758  91.927  38.045  77.174
18437DT     SC319759  91.917  38.218  76.900
18438DA     BB119760  91.536  37.427  77.206
18438DA     BB219761  91.601  37.648  77.492
18438DA     BB319762  91.444  37.791  77.512
18438DA     SC119763  91.582  38.003  77.331
18438DA     SC219764  91.691  38.226  77.358
18438DA     SC319765  91.648  38.254  77.106
18438DA     SC419766  91.546  38.002  77.174
18439DA     BB119767  91.369  37.701  77.837
18439DA     BB219768  91.444  38.044  77.943
18439DA     BB319769  91.276  38.171  77.908
18439DA     SC119770  91.367  38.253  77.622
18439DA     SC219771  91.452  38.457  77.507
18439DA     SC319772  91.377  38.341  77.290
18439DA     SC419773  91.312  38.165  77.499
18440DA     BB119774  91.177  38.306  78.241
18440DA     BB219775  91.258  38.645  78.127
18440DA     BB319776  91.085  38.739  78.045
18440DA     SC119777  91.138  38.642  77.755
18440DA     SC219778  91.206  38.741  77.536
18440DA     SC319779  91.106  38.529  77.432
18440DA     SC419780  91.070  38.503  77.709
18441DC     BB119781  90.862  38.981  78.105
18441DC     BB219782  91.025  39.206  77.875
18441DC     BB319783  90.891  39.267  77.729
18441DC     SC119784  90.905  39.034  77.608
18441DC     SC219785  91.007  39.057  77.420
18441DC     SC319786  90.832  38.800  77.511
18442DT     BB119787  90.805  39.563  77.793
18442DT     BB219788  90.967  39.587  77.472
18442DT     BB319789  90.825  39.599  77.322
18442DT     SC119790  90.769  39.344  77.344
18442DT     SC219791  90.839  39.240  77.169
18442DT     SC319792  90.633  39.123  77.390
18443DA     BB119793  91.100  39.910  77.283
18443DA     BB219794  91.093  39.722  76.968
18443DA     BB319795  90.915  39.766  76.859
18443DA     SC119796  90.750  39.535  76.986
18443DA     SC219797  90.653  39.317  76.915
18443DA     SC319798  90.501  39.341  77.121
18443DA     SC419799  90.664  39.569  77.118
18444DT     BB119800  90.973  39.836  76.712
18444DT     BB219801  90.913  39.548  76.503
18444DT     BB319802  90.730  39.566  76.409
18444DT     SC119803  90.602  39.509  76.632
18444DT     SC219804  90.510  39.315  76.613
18444DT     SC319805  90.444  39.536  76.841
18445DC     BB119806  90.892  39.585  76.209
18445DC     BB219807  90.679  39.302  76.139
18445DC     BB319808  90.494  39.368  76.072
18445DC     SC119809  90.424  39.440  76.314
18445DC     SC219810  90.269  39.308  76.386
18445DC     SC319811  90.352  39.593  76.517
18446DA     BB119812  90.652  39.072  75.818
18446DA     BB219813  90.303  38.989  75.892
18446DA     BB319814  90.172  39.128  75.797
18446DA     SC119815  90.164  39.323  76.039
18446DA     SC219816  90.000  39.397  76.211
18446DA     SC319817  90.153  39.601  76.240
18446DA     SC419818  90.271  39.443  76.041
18447DT     BB119819  90.056  39.058  75.653
18447DT     BB219820  89.746  39.068  75.837
18447DT     BB319821  89.634  39.232  75.777
18447DT     SC119822  89.789  39.396  75.910
18447DT     SC219823  89.682  39.476  76.078
18447DT     SC319824  89.961  39.591  75.959
18448DG     BB119825  89.397  38.907  75.701
18448DG     BB219826  89.223  39.153  75.902
18448DG     BB319827  89.157  39.301  75.786
18448DG     SC119828  89.412  39.469  75.814
18448DG     SC219829  89.434  39.733  75.952
18448DG     SC319830  89.683  39.669  75.807
18448DG     SC419831  89.532  39.445  75.711
18449DT     BB119832  88.935  39.350  75.758
18449DT     BB219833  88.906  39.645  75.964
18449DT     BB319834  88.889  39.813  75.844
18449DT     SC119835  89.145  39.805  75.784
18449DT     SC219836  89.245  39.971  75.876
18449DT     SC319837  89.365  39.783  75.641
18450DT     BB119838  88.637  39.827  75.926
18450DT     BB219839  88.788  40.138  76.029
18450DT     BB319840  88.784  40.274  75.872
18450DT     SC119841  88.978  40.148  75.748
18450DT     SC219842  89.155  40.270  75.752
18450DT     SC319843  89.107  40.010  75.564
18451DT     BB119844  88.616  40.389  76.032
18451DT     BB219845  88.882  40.627  75.979
18451DT     BB319846  88.855  40.723  75.797
18451DT     SC119847  88.934  40.511  75.664
18451DT     SC219848  89.125  40.551  75.573
18451DT     SC319849  88.928  40.303  75.502
18452DA     BB119850  88.948  40.972  76.125
18452DA     BB219851  89.158  41.065  75.840
18452DA     BB319852  89.039  41.149  75.684
18452DA     SC119853  88.990  40.876  75.543
18452DA     SC219854  89.057  40.762  75.331
18452DA     SC319855  88.853  40.612  75.371
18452DA     SC419856  88.858  40.793  75.584
18453DC     BB119857  89.093  41.311  75.667
18453DC     BB219858  89.253  41.278  75.345
18453DC     BB319859  89.119  41.327  75.194
18453DC     SC119860  88.991  41.100  75.223
18453DC     SC219861  89.025  40.976  75.051
18453DC     SC319862  88.796  40.930  75.276
18454DG     BB119863  89.451  41.562  75.158
18454DG     BB219864  89.359  41.412  74.842
18454DG     BB319865  89.201  41.505  74.766
18454DG     SC119866  88.997  41.323  74.903
18454DG     SC219867  88.813  41.131  74.766
18454DG     SC319868  88.746  41.155  75.054
18454DG     SC419869  88.945  41.361  75.050
18455DA     BB119870  89.374  41.553  74.463
18455DA     BB219871  89.110  41.380  74.277
18455DA     BB319872  88.940  41.507  74.255
18455DA     SC119873  88.802  41.412  74.517
18455DA     SC219874  88.602  41.278  74.582
18455DA     SC319875  88.625  41.393  74.810
18455DA     SC419876  88.832  41.495  74.651
18456DA     BB119877  88.952  41.470  73.918
18456DA     BB219878  88.614  41.328  73.930
18456DA     BB319879  88.469  41.483  73.942
18456DA     SC119880  88.464  41.489  74.253
18456DA     SC219881  88.307  41.428  74.436
18456DA     SC319882  88.448  41.585  74.582
18456DA     SC419883  88.563  41.592  74.327
18457DC     BB119884  88.307  41.559  73.775
18457DC     BB219885  88.016  41.418  73.935
18457DC     BB319886  87.892  41.570  74.003
18457DC     SC119887  88.053  41.623  74.203
18457DC     SC219888  87.959  41.564  74.387
18457DC     SC319889  88.220  41.754  74.359
18458DC     BB119890  87.675  41.567  73.798
18458DC     BB219891  87.495  41.525  74.108
18458DC     BB319892  87.425  41.709  74.175
18458DC     SC119893  87.666  41.780  74.252
18458DC     SC219894  87.673  41.787  74.467
18458DC     SC319895  87.893  41.914  74.266
18459DG     BB119896  87.065  41.515  74.126
18459DG     BB219897  87.093  41.645  74.462
18459DG     BB319898  87.035  41.836  74.466
18459DG     SC119899  87.314  41.947  74.407
18459DG     SC219900  87.482  42.108  74.594
18459DG     SC319901  87.602  42.103  74.324
18459DG     SC419902  87.359  41.967  74.254
18460DT     BB119903  86.844  41.928  74.587
18460DT     BB219904  87.018  42.076  74.867
18460DT     BB319905  87.009  42.282  74.855
18460DT     SC119906  87.186  42.287  74.661
18460DT     SC219907  87.369  42.373  74.734
18460DT     SC319908  87.292  42.325  74.423
18461DA     BB119909  86.881  42.168  75.234
18461DA     BB219910  87.141  42.423  75.275
18461DA     BB319911  87.063  42.616  75.227
18461DA     SC119912  87.143  42.600  74.927
18461DA     SC219913  87.307  42.708  74.774
18461DA     SC319914  87.153  42.628  74.585
18461DA     SC419915  87.033  42.543  74.824
18462DA     BB119916  87.206  42.633  75.518
18462DA     BB219917  87.429  42.878  75.362
18462DA     BB319918  87.323  43.058  75.318
18462DA     SC119919  87.240  42.969  75.032
18462DA     SC219920  87.294  43.031  74.797
18462DA     SC319921  87.072  42.917  74.737
18462DA     SC419922  87.098  42.895  75.016
18463DT     BB119923  87.400  43.180  75.414
18463DT     BB219924  87.568  43.349  75.144
18463DT     BB319925  87.453  43.507  75.077
18463DT     SC119926  87.287  43.345  74.954
18463DT     SC219927  87.310  43.367  74.741
18463DT     SC319928  87.065  43.217  74.892
18464DA     BB119929  87.855  43.613  75.144
18464DA     BB219930  87.752  43.743  74.817
18464DA     BB319931  87.608  43.899  74.842
18464DA     SC119932  87.363  43.708  74.830
18464DA     SC219933  87.175  43.659  74.674
18464DA     SC319934  87.059  43.556  74.879
18464DA     SC419935  87.307  43.650  74.969
18465DG     BB119936  87.831  44.045  74.687
18465DG     BB219937  87.570  44.080  74.439
18465DG     BB319938  87.443  44.223  74.495
18465DG     SC119939  87.260  44.035  74.651
18465DG     SC219940  86.978  43.965  74.580
18465DG     SC319941  87.048  43.861  74.848
18465DG     SC419942  87.291  44.007  74.806
18466DG     BB119943  87.510  44.374  74.210
18466DG     BB219944  87.158  44.336  74.135
18466DG     BB319945  87.053  44.479  74.226
18466DG     SC119946  87.009  44.316  74.482
18466DG     SC219947  86.746  44.213  74.580
18466DG     SC319948  86.958  44.175  74.784
18466DG     SC419949  87.117  44.325  74.599
18467DA     BB119950  86.910  44.555  73.917
18467DA     BB219951  86.576  44.487  74.053
18467DA     BB319952  86.512  44.648  74.177
18467DA     SC119953  86.630  44.528  74.438
18467DA     SC219954  86.545  44.428  74.650
18467DA     SC319955  86.777  44.482  74.745
18467DA     SC419956  86.780  44.571  74.479
18468DT     BB119957  86.350  44.772  74.121
18468DT     BB219958  86.112  44.641  74.358
18468DT     BB319959  86.081  44.778  74.510
18468DT     SC119960  86.313  44.722  74.619
18468DT     SC219961  86.282  44.619  74.805
18468DT     SC319962  86.560  44.753  74.706
18469DC     BB119963  85.831  44.843  74.416
18469DC     BB219964  85.773  44.737  74.756
18469DC     BB319965  85.792  44.898  74.884
18469DC     SC119966  86.054  44.894  74.862
18469DC     SC219967  86.140  44.830  75.048
18469DC     SC319968  86.299  44.972  74.804
18470DA     BB119969  85.421  44.722  74.968
18470DA     BB219970  85.598  44.767  75.286
18470DA     BB319971  85.600  44.973  75.342
18470DA     SC119972  85.868  45.035  75.197
18470DA     SC219973  86.103  45.092  75.259
18470DA     SC319974  86.123  45.183  75.020
18470DA     SC419975  85.860  45.088  75.045
18471DA     BB119976  85.473  44.851  75.619
18471DA     BB219977  85.767  44.986  75.791
18471DA     BB319978  85.750  45.197  75.814
18471DA     SC119979  85.892  45.262  75.546
18471DA     SC219980  86.109  45.361  75.471
18471DA     SC319981  85.989  45.402  75.247
18471DA     SC419982  85.800  45.280  75.415
18472DA     BB119983  85.806  45.114  76.127
18472DA     BB219984  86.108  45.321  76.106
18472DA     BB319985  86.057  45.528  76.111
18472DA     SC119986  86.032  45.554  75.802
18472DA     SC219987  86.156  45.664  75.615
18472DA     SC319988  85.938  45.640  75.483
18472DA     SC419989  85.887  45.531  75.737
18473DA     BB119990  86.274  45.524  76.357
18473DA     BB219991  86.471  45.763  76.161
18473DA     BB319992  86.382  45.957  76.169
18473DA     SC119993  86.207  45.913  75.916
18473DA     SC219994  86.196  45.997  75.681
18473DA     SC319995  85.954  45.914  75.683
18473DA     SC419996  86.058  45.855  75.937
18474DA     BB119997  86.684  46.042  76.268
18474DA     BB219998  86.700  46.260  75.974
18474DA     BB319999  86.582  46.435  76.005
18474DA     SC120000  86.323  46.310  75.884
18474DA     SC220001  86.182  46.339  75.680
18474DA     SC320002  85.998  46.223  75.815
18474DA     SC420003  86.221  46.237  75.985
18475DA     BB120004  86.861  46.596  75.930
18475DA     BB220005  86.682  46.741  75.645
18475DA     BB320006  86.552  46.898  75.711
18475DA     SC120007  86.307  46.710  75.754
18475DA     SC220008  86.085  46.670  75.648
18475DA     SC320009  86.022  46.560  75.871
18475DA     SC420010  86.287  46.647  75.900
18476DT     BB120011  86.585  47.105  75.660
18476DT     BB220012  86.319  47.129  75.416
18476DT     BB320013  86.164  47.243  75.492
18476DT     SC120014  86.087  47.048  75.649
18476DT     SC220015  85.898  46.971  75.579
18476DT     SC320016  86.032  46.913  75.869
18477DG     BB120017  86.278  47.446  75.156
18477DG     BB220018  85.924  47.375  75.151
18477DG     BB320019  85.826  47.508  75.261
18477DG     SC120020  85.848  47.346  75.520
18477DG     SC220021  85.621  47.219  75.667
18477DG     SC320022  85.870  47.204  75.825
18477DG     SC420023  85.976  47.366  75.614
18478DC     BB120024  85.669  47.654  75.176
18478DC     BB220025  85.365  47.496  75.287
18478DC     BB320026  85.281  47.605  75.442
18478DC     SC120027  85.462  47.518  75.611
18478DC     SC220028  85.369  47.386  75.753
18478DC     SC320029  85.663  47.520  75.782
18479DT     BB120030  85.088  47.676  75.271
18479DT     BB220031  84.918  47.507  75.541
18479DT     BB320032  84.879  47.641  75.695
18479DT     SC120033  85.131  47.641  75.769
18479DT     SC220034  85.149  47.541  75.959
18479DT     SC320035  85.375  47.727  75.820
18480DT     BB120036  84.631  47.606  75.619
18480DT     BB220037  84.643  47.504  75.965
18480DT     BB320038  84.630  47.671  76.088
18480DT     SC120039  84.878  47.739  76.035
18480DT     SC220040  84.999  47.710  76.210
18480DT     SC320041  85.083  47.878  75.947
18481DG     BB120042  84.355  47.381  76.168
18481DG     BB220043  84.539  47.481  76.463
18481DG     BB320044  84.480  47.661  76.522
18481DG     SC120045  84.685  47.811  76.352
18481DG     SC220046  84.914  47.973  76.455
18481DG     SC320047  84.883  48.008  76.163
18481DG     SC420048  84.647  47.851  76.201
18482DC     BB120049  84.406  47.658  76.705
18482DC     BB220050  84.660  47.829  76.896
18482DC     BB320051  84.612  48.029  76.915
18482DC     SC120052  84.679  48.077  76.665
18482DC     SC220053  84.858  48.196  76.661
18482DC     SC320054  84.658  48.145  76.411
18483DG     BB120055  84.661  47.869  77.286
18483DG     BB220056  84.853  48.173  77.246
18483DG     BB320057  84.733  48.331  77.257
18483DG     SC120058  84.673  48.338  76.957
18483DG     SC220059  84.757  48.551  76.766
18483DG     SC320060  84.570  48.362  76.636
18483DG     SC420061  84.551  48.252  76.900
18484DT     BB120062  84.756  48.480  77.418
18484DT     BB220063  84.897  48.761  77.241
18484DT     BB320064  84.751  48.905  77.208
18484DT     SC120065  84.641  48.761  77.018
18484DT     SC220066  84.674  48.856  76.828
18484DT     SC320067  84.463  48.617  76.887
18485DT     BB120068  84.863  49.066  77.397
18485DT     BB220069  84.851  49.271  77.100
18485DT     BB320070  84.668  49.367  77.088
18485DT     SC120071  84.547  49.146  77.016
18485DT     SC220072  84.486  49.162  76.810
18485DT     SC320073  84.384  48.939  77.022
18486DT     BB120074  84.790  49.600  77.150
18486DT     BB220075  84.621  49.667  76.838
18486DT     BB320076  84.426  49.725  76.875
18486DT     SC120077  84.356  49.478  76.931
18486DT     SC220078  84.228  49.403  76.776
18486DT     SC320079  84.270  49.270  77.068
18487DT     BB120080  84.487  49.980  76.807
18487DT     BB220081  84.211  49.896  76.591
18487DT     BB320082  84.032  49.935  76.687
18487DT     SC120083  84.059  49.722  76.839
18487DT     SC220084  83.912  49.575  76.783
18487DT     SC320085  84.088  49.574  77.055
18488DT     BB120086  83.984  50.156  76.532
18488DT     BB220087  83.686  49.958  76.491
18488DT     BB320088  83.550  50.003  76.640
18488DT     SC120089  83.689  49.870  76.819
18488DT     SC220090  83.581  49.693  76.876
18488DT     SC320091  83.835  49.820  77.032
18489DT     BB120092  83.372  50.159  76.480
18489DT     BB220093  83.152  49.916  76.630
18489DT     BB320094  83.075  49.989  76.807
18489DT     SC120095  83.304  49.952  76.931
18489DT     SC220096  83.282  49.792  77.074
18489DT     SC320097  83.527  50.004  77.062
18490DA     BB120098  82.698  49.919  76.619
18490DA     BB220099  82.673  49.773  76.955
18490DA     BB320100  82.632  49.924  77.099
18490DA     SC120101  82.931  49.982  77.160
18490DA     SC220102  83.091  49.949  77.348
18490DA     SC320103  83.231  50.131  77.235
18490DA     SC420104  83.003  50.098  77.075
18491DT     BB120105  82.412  49.995  77.255
18491DT     BB220106  82.548  49.862  77.561
18491DT     BB320107  82.573  50.014  77.699
18491DT     SC120108  82.784  50.105  77.572
18491DT     SC220109  82.960  50.069  77.690
18491DT     SC320110  82.940  50.268  77.435
18492DG     BB120111  82.291  49.806  77.927
18492DG     BB220112  82.593  49.856  78.120
18492DG     BB320113  82.584  50.030  78.216
18492DG     SC120114  82.711  50.191  77.989
18492DG     SC220115  82.977  50.325  77.997
18492DG     SC320116  82.828  50.402  77.753
18492DG     SC420117  82.616  50.252  77.875
18493DG     BB120118  82.610  49.896  78.524
18493DG     BB220119  82.932  50.060  78.543
18493DG     BB320120  82.911  50.240  78.624
18493DG     SC120121  82.863  50.382  78.357
18493DG     SC220122  83.046  50.580  78.229
18493DG     SC320123  82.788  50.566  78.085
18493DG     SC420124  82.714  50.393  78.301
18494DA     BB120125  83.160  50.137  78.836
18494DA     BB220126  83.376  50.406  78.711
18494DA     BB320127  83.321  50.592  78.800
18494DA     SC120128  83.119  50.667  78.575
18494DA     SC220129  83.102  50.833  78.390
18494DA     SC320130  82.850  50.785  78.397
18494DA     SC420131  82.965  50.625  78.596
18495DA     BB120132  83.639  50.568  78.853
18495DA     BB220133  83.672  50.874  78.654
18495DA     BB320134  83.601  51.042  78.765
18495DA     SC120135  83.309  51.020  78.660
18495DA     SC220136  83.157  51.147  78.509
18495DA     SC320137  82.967  51.022  78.628
18495DA     SC420138  83.205  50.933  78.747
18496DT     BB120139  83.738  51.163  78.801
18496DT     BB220140  83.636  51.418  78.566
18496DT     BB320141  83.536  51.569  78.665
18496DT     SC120142  83.321  51.420  78.691
18496DT     SC220143  83.164  51.497  78.566
18496DT     SC320144  83.128  51.281  78.805
18497DA     BB120145  83.836  51.734  78.424
18497DA     BB220146  83.526  51.920  78.363
18497DA     BB320147  83.479  52.043  78.531
18497DA     SC120148  83.307  51.826  78.672
18497DA     SC220149  83.066  51.787  78.726
18497DA     SC320150  83.153  51.623  78.903
18497DA     SC420151  83.380  51.729  78.778
18498DT     BB120152  83.486  52.237  78.501
18498DT     BB220153  83.131  52.297  78.504
18498DT     BB320154  83.074  52.381  78.684
18498DT     SC120155  83.099  52.151  78.808
18498DT     SC220156  82.905  52.079  78.865
18498DT     SC320157  83.188  51.967  78.975
18499DA     BB120158  82.920  52.622  78.379
18499DA     BB220159  82.650  52.558  78.618
18499DA     BB320160  82.681  52.670  78.797
18499DA     SC120161  82.843  52.446  78.939
18499DA     SC220162  82.813  52.288  79.130
18499DA     SC320163  83.069  52.270  79.129
18499DA     SC420164  83.003  52.449  78.923
18500DC     BB120165  82.549  52.813  78.837
18500DC     BB220166  82.381  52.645  79.108
18500DC     BB320167  82.440  52.726  79.289
18500DC     SC120168  82.672  52.605  79.277
18500DC     SC220169  82.681  52.451  79.427
18500DC     SC320170  82.933  52.569  79.261
18501DG     BB120171  82.035  52.759  79.265
18501DG     BB220172  82.136  52.606  79.577
18501DG     BB320173  82.201  52.745  79.703
18501DG     SC120174  82.492  52.729  79.609
18501DG     SC220175  82.723  52.629  79.771
18501DG     SC320176  82.816  52.751  79.518
18501DG     SC420177  82.540  52.821  79.487
18502DT     BB120178  82.097  52.773  79.886
18502DT     BB220179  82.325  52.632  80.127
18502DT     BB320180  82.431  52.783  80.221
18502DT     SC120181  82.580  52.822  80.009
18502DT     SC220182  82.781  52.756  80.050
18502DT     SC320183  82.689  52.941  79.800
18503DA     BB120184  82.266  52.549  80.528
18503DA     BB220185  82.621  52.602  80.606
18503DA     BB320186  82.653  52.802  80.673
18503DA     SC120187  82.711  52.913  80.388
18503DA     SC220188  82.907  53.001  80.261
18503DA     SC320189  82.732  53.108  80.106
18503DA     SC420190  82.588  52.973  80.304
18504DG     BB120191  82.753  52.679  80.944
18504DG     BB220192  83.068  52.829  80.847
18504DG     BB320193  83.072  53.020  80.902
18504DG     SC120194  82.950  53.123  80.641
18504DG     SC220195  83.089  53.292  80.437
18504DG     SC320196  82.801  53.270  80.376
18504DG     SC420197  82.791  53.133  80.628
18505DC     BB120198  83.221  53.103  81.053
18505DC     BB220199  83.448  53.280  80.836
18505DC     BB320200  83.418  53.484  80.853
18505DC     SC120201  83.196  53.470  80.713
18505DC     SC220202  83.226  53.564  80.522
18505DC     SC320203  82.940  53.484  80.651
18506DC     BB120204  83.652  53.507  80.986
18506DC     BB220205  83.687  53.726  80.702
18506DC     BB320206  83.610  53.913  80.747
18506DC     SC120207  83.363  53.824  80.728
18506DC     SC220208  83.270  53.910  80.554
18506DC     SC320209  83.117  53.759  80.796
18507DT     BB120210  83.861  54.000  80.747
18507DT     BB220211  83.692  54.204  80.502
18507DT     BB320212  83.597  54.362  80.595
18507DT     SC120213  83.408  54.206  80.687
18507DT     SC220214  83.223  54.250  80.587
18507DT     SC320215  83.254  54.076  80.858
18508DA     BB120216  83.827  54.503  80.274
18508DA     BB220217  83.494  54.655  80.252
18508DA     BB320218  83.468  54.799  80.407
18508DA     SC120219  83.349  54.595  80.610
18508DA     SC220220  83.128  54.549  80.716
18508DA     SC320221  83.263  54.421  80.893
18508DA     SC420222  83.450  54.522  80.710
18509DA     BB120223  83.389  54.984  80.147
18509DA     BB220224  83.063  55.035  80.306
18509DA     BB320225  83.081  55.167  80.472
18509DA     SC120226  83.133  54.941  80.678
18509DA     SC220227  83.013  54.834  80.870
18509DA     SC320228  83.246  54.753  80.943
18509DA     SC420229  83.286  54.901  80.708
18510DG     BB120230  82.881  55.358  80.319
18510DG     BB220231  82.669  55.296  80.606
18510DG     BB320232  82.719  55.418  80.755
18510DG     SC120233  82.925  55.225  80.875
18510DG     SC220234  82.903  55.088  81.139
18510DG     SC320235  83.171  55.048  81.021
18510DG     SC420236  83.076  55.231  80.823
18511DA     BB120237  82.390  55.550  80.797
18511DA     BB220238  82.377  55.429  81.143
18511DA     BB320239  82.478  55.565  81.273
18511DA     SC120240  82.754  55.423  81.246
18511DA     SC220241  82.906  55.287  81.389
18511DA     SC320242  83.089  55.352  81.222
18511DA     SC420243  82.854  55.476  81.132
18512DG     BB120244  82.212  55.635  81.442
18512DG     BB220245  82.389  55.474  81.714
18512DG     BB320246  82.497  55.609  81.813
18512DG     SC120247  82.746  55.572  81.639
18512DG     SC220248  83.007  55.457  81.728
18512DG     SC320249  83.030  55.572  81.456
18512DG     SC420250  82.762  55.661  81.506
18513DA     BB120251  82.352  55.524  82.123
18513DA     BB220252  82.678  55.417  82.252
18513DA     BB320253  82.789  55.585  82.321
18513DA     SC120254  82.928  55.636  82.047
18513DA     SC220255  83.156  55.617  81.949
18513DA     SC320256  83.072  55.779  81.770
18513DA     SC420257  82.857  55.739  81.946
18514DT     BB120258  82.837  55.612  82.529
18514DT     BB220259  83.183  55.513  82.500
18514DT     BB320260  83.306  55.678  82.522
18514DT     SC120261  83.246  55.765  82.282
18514DT     SC220262  83.418  55.746  82.155
18514DT     SC320263  83.152  55.920  82.090
18515DT     BB120264  83.384  55.587  82.766
18515DT     BB220265  83.689  55.612  82.575
18515DT     BB320266  83.767  55.803  82.592
18515DT     SC120267  83.584  55.900  82.430
18515DT     SC220268  83.676  55.958  82.245
18515DT     SC320269  83.380  56.043  82.344
18516DT     BB120270  83.961  55.695  82.740
18516DT     BB220271  84.131  55.853  82.463
18516DT     BB320272  84.162  56.053  82.505
18516DT     SC120273  83.909  56.110  82.463
18516DT     SC220274  83.891  56.226  82.283
18516DT     SC320275  83.662  56.188  82.509
18517DT     BB120276  84.416  55.984  82.521
18517DT     BB220277  84.403  56.239  82.265
18517DT     BB320278  84.405  56.426  82.353
18517DT     SC120279  84.155  56.402  82.429
18517DT     SC220280  84.032  56.537  82.315
18517DT     SC320281  83.944  56.383  82.586
18518DT     BB120282  84.647  56.445  82.251
18518DT     BB220283  84.467  56.727  82.116
18518DT     BB320284  84.466  56.882  82.253
18518DT     SC120285  84.288  56.760  82.402
18518DT     SC220286  84.101  56.866  82.391
18518DT     SC320287  84.179  56.639  82.610
18519DG     BB120288  84.623  57.012  81.900
18519DG     BB220289  84.360  57.230  82.018
18519DG     BB320290  84.427  57.343  82.167
18519DG     SC120291  84.349  57.143  82.385
18519DG     SC220292  84.138  57.184  82.593
18519DG     SC320293  84.295  56.939  82.648
18519DG     SC420294  84.453  57.030  82.428
18520DT     BB120295  84.431  57.556  82.143
18520DT     BB220296  84.160  57.663  82.356
18520DT     BB320297  84.235  57.733  82.535
18520DT     SC120298  84.287  57.490  82.618
18520DT     SC220299  84.152  57.439  82.779
18520DT     SC320300  84.423  57.279  82.699
18521DC     BB120301  84.177  57.991  82.464
18521DC     BB220302  84.008  57.947  82.780
18521DC     BB320303  84.137  57.991  82.936
18521DC     SC120304  84.267  57.765  82.903
18521DC     SC220305  84.228  57.635  83.070
18521DC     SC320306  84.464  57.597  82.851
18522DA     BB120307  83.794  58.223  83.005
18522DA     BB220308  83.878  58.054  83.319
18522DA     BB320309  84.050  58.144  83.407
18522DA     SC120310  84.253  57.955  83.265
18522DA     SC220311  84.408  57.770  83.327
18522DA     SC320312  84.527  57.823  83.106
18522DA     SC420313  84.314  58.004  83.125
18523DA     BB120314  83.856  58.177  83.673
18523DA     BB220315  84.094  57.962  83.852
18523DA     BB320316  84.267  58.073  83.907
18523DA     SC120317  84.422  58.006  83.646
18523DA     SC220318  84.620  57.870  83.578
18523DA     SC320319  84.624  58.018  83.368
18523DA     SC420320  84.409  58.109  83.523
18524DA     BB120321  84.197  57.965  84.211
18524DA     BB220322  84.520  57.793  84.205
18524DA     BB320323  84.679  57.931  84.241
18524DA     SC120324  84.722  57.996  83.940
18524DA     SC220325  84.895  57.955  83.765
18524DA     SC320326  84.787  58.151  83.640
18524DA     SC420327  84.642  58.121  83.879
18525DA     BB120328  84.747  57.711  84.473
18525DA     BB220329  85.066  57.657  84.300
18525DA     BB320330  85.199  57.819  84.337
18525DA     SC120331  85.106  57.985  84.091
18525DA     SC220332  85.199  58.055  83.870
18525DA     SC320333  85.018  58.237  83.875
18525DA     SC420334  84.988  58.092  84.113
18526DG     BB120335  85.370  57.589  84.452
18526DG     BB220336  85.589  57.679  84.179
18526DG     BB320337  85.698  57.838  84.229
18526DG     SC120338  85.495  58.042  84.123
18526DG     SC220339  85.534  58.224  83.890
18526DG     SC320340  85.286  58.292  84.036
18526DG     SC420341  85.379  58.093  84.221
18527DT     BB120342  85.904  57.812  84.231
18527DT     BB220343  86.005  57.988  83.933
18527DT     BB320344  86.076  58.176  83.983
18527DT     SC120345  85.833  58.264  84.028
18527DT     SC220346  85.779  58.406  83.875
18527DT     SC320347  85.624  58.361  84.156
18528DA     BB120348  86.352  57.982  83.733
18528DA     BB220349  86.297  58.321  83.603
18528DA     BB320350  86.386  58.465  83.733
18528DA     SC120351  86.130  58.503  83.906
18528DA     SC220352  85.959  58.680  83.946
18528DA     SC320353  85.909  58.553  84.164
18528DA     SC420354  86.115  58.411  84.037
18529DA     BB120355  86.523  58.554  83.448
18529DA     BB220356  86.365  58.881  83.498
18529DA     BB320357  86.467  58.990  83.651
18529DA     SC120358  86.287  58.882  83.881
18529DA     SC220359  86.112  58.970  84.035
18529DA     SC320360  86.167  58.766  84.181
18529DA     SC420361  86.337  58.750  83.958
18530DA     BB120362  86.487  59.223  83.417
18530DA     BB220363  86.297  59.441  83.642
18530DA     BB320364  86.423  59.513  83.799
18530DA     SC120365  86.357  59.278  83.991
18530DA     SC220366  86.233  59.243  84.205
18530DA     SC320367  86.372  59.029  84.227
18530DA     SC420368  86.454  59.149  83.988
18531DT     BB120369  86.480  59.720  83.817
18531DT     BB220370  86.267  59.798  84.098
18531DT     BB320371  86.381  59.822  84.269
18531DT     SC120372  86.418  59.563  84.289
18531DT     SC220373  86.310  59.488  84.460
18531DT     SC320374  86.540  59.329  84.296
18532DA     BB120375  86.157  60.177  84.248
18532DA     BB220376  86.121  60.044  84.588
18532DA     BB320377  86.299  60.081  84.701
18532DA     SC120378  86.433  59.811  84.623
18532DA     SC220379  86.493  59.596  84.734
18532DA     SC320380  86.656  59.564  84.539
18532DA     SC420381  86.529  59.810  84.494
18533DT     BB120382  86.304  60.217  84.870
18533DT     BB220383  86.316  59.963  85.126
18533DT     BB320384  86.504  59.959  85.212
18533DT     SC120385  86.606  59.839  85.002
18533DT     SC220386  86.658  59.637  85.053
18533DT     SC320387  86.755  59.797  84.789
18534DA     BB120388  86.241  60.002  85.537
18534DA     BB220389  86.468  59.724  85.615
18534DA     BB320390  86.660  59.798  85.671
18534DA     SC120391  86.773  59.794  85.381
18534DA     SC220392  86.942  59.664  85.251
18534DA     SC320393  86.941  59.864  85.090
18534DA     SC420394  86.759  59.928  85.294
18535DA     BB120395  86.614  59.619  85.944
18535DA     BB220396  86.907  59.422  85.843
18535DA     BB320397  87.087  59.527  85.891
18535DA     SC120398  87.104  59.672  85.617
18535DA     SC220399  87.249  59.665  85.413
18535DA     SC320400  87.157  59.900  85.365
18535DA     SC420401  87.037  59.817  85.605
18536DA     BB120402  87.155  59.247  86.047
18536DA     BB220403  87.438  59.210  85.816
18536DA     BB320404  87.598  59.337  85.875
18536DA     SC120405  87.504  59.578  85.701
18536DA     SC220406  87.579  59.698  85.497
18536DA     SC320407  87.431  59.891  85.580
18536DA     SC420408  87.408  59.686  85.771
18537DC     BB120409  87.765  59.248  85.934
18537DC     BB220410  87.952  59.312  85.632
18537DC     BB320411  88.090  59.463  85.666
18537DC     SC120412  87.902  59.646  85.662
18537DC     SC220413  87.923  59.767  85.485
18537DC     SC320414  87.742  59.839  85.744
18538DG     BB120415  88.266  59.126  85.525
18538DG     BB220416  88.346  59.415  85.324
18538DG     BB320417  88.480  59.528  85.418
18538DG     SC120418  88.271  59.697  85.564
18538DG     SC220419  88.218  59.988  85.520
18538DG     SC320420  88.070  59.888  85.755
18538DG     SC420421  88.217  59.647  85.706
18539DA     BB120422  88.601  59.495  85.100
18539DA     BB220423  88.601  59.860  85.072
18539DA     BB320424  88.748  59.945  85.201
18539DA     SC120425  88.554  59.975  85.443
18539DA     SC220426  88.443  60.159  85.569
18539DA     SC320427  88.415  59.987  85.757
18539DA     SC420428  88.547  59.854  85.548
18540DA     BB120429  88.761  60.067  84.897
18540DA     BB220430  88.720  60.392  85.061
18540DA     BB320431  88.888  60.433  85.188
18540DA     SC120432  88.760  60.303  85.440
18540DA     SC220433  88.669  60.377  85.660
18540DA     SC320434  88.706  60.134  85.734
18540DA     SC420435  88.792  60.148  85.467
18541DC     BB120436  88.952  60.570  85.118
18541DC     BB220437  88.877  60.805  85.382
18541DC     BB320438  89.032  60.810  85.518
18541DC     SC120439  88.962  60.578  85.619
18541DC     SC220440  88.884  60.607  85.817
18541DC     SC320441  88.973  60.323  85.688
18542DT     BB120442  89.072  61.047  85.417
18542DT     BB220443  89.049  61.098  85.774
18542DT     BB320444  89.229  61.048  85.864
18542DT     SC120445  89.180  60.791  85.834
18542DT     SC220446  89.143  60.703  86.027
18542DT     SC320447  89.205  60.542  85.753
18543DC     BB120448  89.297  61.311  85.907
18543DC     BB220449  89.330  61.160  86.233
18543DC     BB320450  89.519  61.080  86.255
18543DC     SC120451  89.461  60.877  86.098
18543DC     SC220452  89.452  60.697  86.215
18543DC     SC320453  89.468  60.713  85.892
18544DA     BB120454  89.501  61.333  86.592
18544DA     BB220455  89.624  61.009  86.709
18544DA     BB320456  89.830  60.984  86.657
18544DA     SC120457  89.770  60.849  86.384
18544DA     SC220458  89.792  60.623  86.281
18544DA     SC320459  89.777  60.746  86.056
18544DA     SC420460  89.760  60.943  86.254
18545DA     BB120461  89.897  60.931  86.981
18545DA     BB220462  90.011  60.595  86.888
18545DA     BB320463  90.210  60.602  86.811
18545DA     SC120464  90.120  60.640  86.516
18545DA     SC220465  90.120  60.508  86.304
18545DA     SC320466  90.095  60.734  86.187
18545DA     SC420467  90.105  60.791  86.461
18546DA     BB120468  90.279  60.378  87.045
18546DA     BB220469  90.365  60.146  86.774
18546DA     BB320470  90.559  60.191  86.697
18546DA     SC120471  90.455  60.387  86.480
18546DA     SC220472  90.435  60.394  86.231
18546DA     SC320473  90.418  60.649  86.260
18546DA     SC420474  90.447  60.543  86.518
18547DA     BB120475  90.610  59.872  86.763
18547DA     BB220476  90.668  59.826  86.404
18547DA     BB320477  90.862  59.898  86.350
18547DA     SC120478  90.763  60.186  86.285
18547DA     SC220479  90.733  60.330  86.084
18547DA     SC320480  90.735  60.526  86.249
18547DA     SC420481  90.768  60.295  86.404
18548DA     BB120482  90.889  59.595  86.227
18548DA     BB220483  90.932  59.753  85.899
18548DA     BB320484  91.128  59.835  85.881
18548DA     SC120485  91.048  60.114  85.992
18548DA     SC220486  91.022  60.346  85.905
18548DA     SC320487  91.043  60.419  86.150
18548DA     SC420488  91.064  60.139  86.150
18549DT     BB120489  91.258  59.753  85.746
18549DT     BB220490  91.241  60.021  85.504
18549DT     BB320491  91.413  60.135  85.513
18549DT     SC120492  91.337  60.248  85.737
18549DT     SC220493  91.290  60.455  85.700
18549DT     SC320494  91.335  60.319  85.991
18550DA     BB120495  91.374  60.027  85.109
18550DA     BB220496  91.430  60.389  85.121
18550DA     BB320497  91.634  60.431  85.165
18550DA     SC120498  91.593  60.439  85.473
18550DA     SC220499  91.595  60.609  85.655
18550DA     SC320500  91.630  60.410  85.813
18550DA     SC420501  91.615  60.302  85.555
18551DT     BB120502  91.765  60.524  85.022
18551DT     BB220503  91.767  60.849  85.177
18551DT     BB320504  91.951  60.884  85.265
18551DT     SC120505  91.896  60.721  85.463
18551DT     SC220506  91.871  60.835  85.644
18551DT     SC320507  91.911  60.514  85.625
18552DG     BB120508  91.900  61.185  84.995
18552DG     BB220509  91.971  61.316  85.324
18552DG     BB320510  92.167  61.307  85.360
18552DG     SC120511  92.158  61.026  85.481
18552DG     SC220512  92.214  60.956  85.766
18552DG     SC320513  92.187  60.712  85.601
18552DG     SC420514  92.172  60.899  85.384
18553DA     BB120515  92.132  61.639  85.443
18553DA     BB220516  92.255  61.567  85.781
18553DA     BB320517  92.466  61.538  85.778
18553DA     SC120518  92.449  61.231  85.732
18553DA     SC220519  92.495  61.022  85.860
18553DA     SC320520  92.504  60.908  85.631
18553DA     SC420521  92.451  61.179  85.580
18554DG     BB120522  92.452  61.777  85.974
18554DG     BB220523  92.588  61.535  86.206
18554DG     BB320524  92.784  61.517  86.179
18554DG     SC120525  92.760  61.294  85.971
18554DG     SC220526  92.850  61.011  86.007
18554DG     SC320527  92.770  61.062  85.726
18554DG     SC420528  92.745  61.333  85.817
18555DT     BB120529  92.924  61.571  86.339
18555DT     BB220530  93.040  61.248  86.450
18555DT     BB320531  93.229  61.211  86.375
18555DT     SC120532  93.133  61.164  86.136
18555DT     SC220533  93.154  60.954  86.090
18555DT     SC320534  93.087  61.189  85.877
18556DA     BB120535  93.270  61.152  86.789
18556DA     BB220536  93.425  60.864  86.622
18556DA     BB320537  93.614  60.920  86.540
18556DA     SC120538  93.498  61.002  86.264
18556DA     SC220539  93.502  60.918  86.029
18556DA     SC320540  93.434  61.156  85.964
18556DA     SC420541  93.457  61.156  86.243
18557DC     BB120542  93.816  60.846  86.614
18557DC     BB220543  93.880  60.621  86.339
18557DC     BB320544  94.034  60.695  86.222
18557DC     SC120545  93.877  60.878  86.117
18557DC     SC220546  93.841  60.831  85.910
18557DC     SC320547  93.780  61.115  86.055
18558DA     BB120548  94.173  60.310  86.316
18558DA     BB220549  94.201  60.348  85.953
18558DA     BB320550  94.373  60.465  85.903
18558DA     SC120551  94.220  60.736  85.908
18558DA     SC220552  94.146  60.909  85.744
18558DA     SC320553  94.131  61.065  85.947
18558DA     SC420554  94.219  60.818  86.046
18559DA     BB120555  94.452  60.207  85.717
18559DA     BB220556  94.419  60.428  85.427
18559DA     BB320557  94.594  60.548  85.404
18559DA     SC120558  94.487  60.781  85.580
18559DA     SC220559  94.410  61.016  85.547
18559DA     SC320560  94.455  61.044  85.798
18559DA     SC420561  94.522  60.779  85.736
18560DT     BB120562  94.697  60.514  85.242
18560DT     BB220563  94.589  60.810  85.067
18560DT     BB320564  94.740  60.951  85.065
18560DT     SC120565  94.699  61.010  85.318
18560DT     SC220566  94.615  61.208  85.332
18560DT     SC320567  94.741  61.036  85.577
18561DA     BB120568  94.560  60.885  84.693
18561DA     BB220569  94.574  61.246  84.755
18561DA     BB320570  94.776  61.315  84.747
18561DA     SC120571  94.828  61.273  85.051
18561DA     SC220572  94.864  61.414  85.253
18561DA     SC320573  94.968  61.204  85.356
18561DA     SC420574  94.890  61.132  85.097
18562DC     BB120575  94.763  61.420  84.622
18562DC     BB220576  94.799  61.724  84.812
18562DC     BB320577  94.999  61.774  84.829
18562DC     SC120578  95.039  61.585  85.006
18562DC     SC220579  95.076  61.674  85.198
18562DC     SC320580  95.133  61.365  85.118
18563DT     BB120581  94.926  61.968  84.671
18563DT     BB220582  95.081  62.128  84.955
18563DT     BB320583  95.287  62.120  84.938
18563DT     SC120584  95.290  61.865  85.000
18563DT     SC220585  95.379  61.841  85.195
18563DT     SC320586  95.326  61.605  84.979
18564DT     BB120587  95.290  62.385  84.883
18564DT     BB220588  95.520  62.348  85.158
18564DT     BB320589  95.707  62.298  85.087
18564DT     SC120590  95.631  62.052  85.038
18564DT     SC220591  95.727  61.917  85.175
18564DT     SC320592  95.573  61.832  84.904
18565DC     BB120593  95.826  62.552  85.125
18565DC     BB220594  96.048  62.330  85.302
18565DC     BB320595  96.197  62.264  85.174
18565DC     SC120596  96.032  62.101  85.052
18565DC     SC220597  96.084  61.898  85.099
18565DC     SC320598  95.887  61.993  84.860
18566DC     BB120599  96.418  62.427  85.271
18566DC     BB220600  96.545  62.090  85.298
18566DC     BB320601  96.651  62.041  85.127
18566DC     SC120602  96.429  62.012  84.989
18566DC     SC220603  96.400  61.804  84.943
18566DC     SC320604  96.244  62.053  84.806
18567DC     BB120605  96.913  62.058  85.239
18567DC     BB220606  96.894  61.720  85.115
18567DC     BB320607  96.967  61.711  84.922
18567DC     SC120608  96.750  61.825  84.826
18567DC     SC220609  96.639  61.681  84.712
18567DC     SC320610  96.595  62.002  84.709
18568DA     BB120611  97.170  61.420  85.142
18568DA     BB220612  97.032  61.259  84.843
18568DA     BB320613  97.147  61.311  84.671
18568DA     SC120614  96.975  61.561  84.601
18568DA     SC220615  96.813  61.630  84.424
18568DA     SC320616  96.865  61.870  84.499
18568DA     SC420617  97.021  61.703  84.661
18569DA     BB120618  97.124  60.990  84.676
18569DA     BB220619  96.949  61.025  84.355
18569DA     BB320620  97.086  61.083  84.202
18569DA     SC120621  97.042  61.388  84.246
18569DA     SC220622  96.937  61.579  84.124
18569DA     SC320623  97.082  61.728  84.274
18569DA     SC420624  97.141  61.464  84.347
18570DC     BB120625  97.072  60.955  84.101
18570DC     BB220626  96.889  61.122  83.839
18570DC     BB320627  97.021  61.204  83.702
18570DC     SC120628  97.085  61.398  83.867
18570DC     SC220629  97.007  61.584  83.792
18570DC     SC320630  97.229  61.551  84.026
18571DG     BB120631  96.722  60.968  83.551
18571DG     BB220632  96.749  61.285  83.379
18571DG     BB320633  96.917  61.289  83.271
18571DG     SC120634  97.088  61.405  83.497
18571DG     SC220635  97.212  61.677  83.501
18571DG     SC320636  97.309  61.513  83.728
18571DG     SC420637  97.159  61.305  83.599
18572DG     BB120638  96.703  61.358  83.036
18572DG     BB220639  96.897  61.660  82.988
18572DG     BB320640  97.069  61.617  82.898
18572DG     SC120641  97.221  61.569  83.159
18572DG     SC220642  97.444  61.737  83.265
18572DG     SC320643  97.413  61.490  83.425
18572DG     SC420644  97.221  61.422  83.224
18573DT     BB120645  97.114  61.695  82.701
18573DT     BB220646  97.375  61.936  82.767
18573DT     BB320647  97.559  61.854  82.721
18573DT     SC120648  97.556  61.706  82.938
18573DT     SC220649  97.704  61.777  83.076
18573DT     SC320650  97.552  61.492  83.092
18574DT     BB120651  97.591  62.000  82.486
18574DT     BB220652  97.894  62.069  82.669
18574DT     BB320653  98.038  61.928  82.624
18574DT     SC120654  97.917  61.747  82.771
18574DT     SC220655  98.036  61.705  82.945
18574DT     SC320656  97.788  61.526  82.836
18575DT     BB120657  98.199  62.090  82.453
18575DT     BB220658  98.435  61.970  82.697
18575DT     BB320659  98.523  61.795  82.630
18575DT     SC120660  98.305  61.657  82.681
18575DT     SC220661  98.341  61.525  82.847
18575DT     SC320662  98.091  61.509  82.642
18576DA     BB120663  98.863  62.032  82.707
18576DA     BB220664  98.920  61.708  82.869
18576DA     BB320665  98.976  61.561  82.724
18576DA     SC120666  98.684  61.469  82.670
18576DA     SC220667  98.543  61.267  82.712
18576DA     SC320668  98.393  61.358  82.524
18576DA     SC420669  98.604  61.540  82.550
18577DA     BB120670  99.253  61.503  82.903
18577DA     BB220671  99.133  61.160  82.954
18577DA     BB320672  99.177  61.040  82.783
18577DA     SC120673  98.907  61.101  82.641
18577DA     SC220674  98.697  60.978  82.583
18577DA     SC320675  98.661  61.164  82.410
18577DA     SC420676  98.903  61.224  82.539
18578DA     BB120677  99.337  60.830  82.988
18578DA     BB220678  99.090  60.574  82.896
18578DA     BB320679  99.142  60.485  82.709
18578DA     SC120680  98.977  60.688  82.540
18578DA     SC220681  98.770  60.686  82.401
18578DA     SC320682  98.864  60.900  82.295
18578DA     SC420683  99.053  60.819  82.486
18579DA     BB120684  99.134  60.193  82.866
18579DA     BB220685  98.856  60.098  82.646
18579DA     BB320686  98.930  60.034  82.456
18579DA     SC120687  98.919  60.318  82.329
18579DA     SC220688  98.786  60.437  82.155
18579DA     SC320689  98.982  60.602  82.147
18579DA     SC420690  99.052  60.409  82.338
18580DT     BB120691  98.913  59.828  82.386
18580DT     BB220692  98.643  59.893  82.155
18580DT     BB320693  98.712  59.878  81.960
18580DT     SC120694  98.835  60.109  81.977
18580DT     SC220695  98.735  60.253  81.853
18580DT     SC320696  99.030  60.286  81.982
18581DA     BB120697  98.378  59.627  81.987
18581DA     BB220698  98.329  59.848  81.698
18581DA     BB320699  98.451  59.784  81.535
18581DA     SC120700  98.693  59.963  81.615
18581DA     SC220701  98.810  60.166  81.528
18581DA     SC320702  99.008  60.088  81.672
18581DA     SC420703  98.806  59.897  81.709
18582DA     BB120704  98.153  59.805  81.408
18582DA     BB220705  98.291  60.063  81.188
18582DA     BB320706  98.418  59.975  81.041
18582DA     SC120707  98.676  60.000  81.213
18582DA     SC220708  98.887  60.133  81.210
18582DA     SC320709  98.981  59.949  81.363
18582DA     SC420710  98.716  59.875  81.306
18583DA     BB120711  98.210  60.159  80.871
18583DA     BB220712  98.506  60.342  80.754
18583DA     BB320713  98.618  60.222  80.618
18583DA     SC120714  98.798  60.096  80.839
18583DA     SC220715  99.036  60.108  80.913
18583DA     SC320716  98.990  59.885  81.030
18583DA     SC420717  98.750  59.957  80.904
18584DC     BB120718  98.622  60.294  80.446
18584DC     BB220719  98.965  60.406  80.452
18584DC     BB320720  99.086  60.271  80.353
18584DC     SC120721  99.073  60.101  80.553
18584DC     SC220722  99.265  60.090  80.649
18584DC     SC320723  99.019  59.882  80.689
18585DA     BB120724  99.163  60.652  80.196
18585DA     BB220725  99.484  60.494  80.274
18585DA     BB320726  99.527  60.339  80.134
18585DA     SC120727  99.390  60.116  80.302
18585DA     SC220728  99.458  59.916  80.434
18585DA     SC320729  99.215  59.839  80.406
18585DA     SC420730  99.235  60.085  80.273
18586DA     BB120731  99.806  60.508  80.097
18586DA     BB220732  99.982  60.209  80.214
18586DA     BB320733  99.990  60.062  80.059
18586DA     SC120734  99.724  59.924  80.141
18586DA     SC220735  99.652  59.707  80.242
18586DA     SC320736  99.421  59.761  80.143
18586DA     SC420737  99.589  59.975  80.071
18587DT     BB120738 100.170  60.016  79.984
18587DT     BB220739 100.200  59.696  80.148
18587DT     BB320740 100.168  59.543  80.012
18587DT     SC120741  99.909  59.588  80.010
18587DT     SC220742  99.808  59.425  80.106
18587DT     SC320743  99.669  59.653  79.922
18588DT     BB120744 100.427  59.492  80.035
18588DT     BB220745 100.261  59.187  80.133
18588DT     BB320746 100.215  59.075  79.965
18588DT     SC120747 100.018  59.236  79.901
18588DT     SC220748  99.831  59.134  79.930
18588DT     SC320749  99.874  59.410  79.765
18589DT     BB120750 100.395  58.922  80.071
18589DT     BB220751 100.097  58.721  80.047
18589DT     BB320752 100.075  58.650  79.854
18589DT     SC120753  99.998  58.886  79.768
18589DT     SC220754  99.789  58.878  79.717
18589DT     SC320755  99.996  59.114  79.635
18590DA     BB120756 100.016  58.368  80.165
18590DA     BB220757  99.745  58.337  79.920
18590DA     BB320758  99.821  58.268  79.733
18590DA     SC120759  99.873  58.554  79.621
18590DA     SC220760  99.779  58.703  79.445
18590DA     SC320761 100.002  58.829  79.460
18590DA     SC420762 100.019  58.618  79.645
18591DA     BB120763  99.560  58.082  79.811
18591DA     BB220764  99.428  58.180  79.483
18591DA     BB320765  99.550  58.101  79.327
18591DA     SC120766  99.736  58.350  79.314
18591DA     SC220767  99.782  58.538  79.156
18591DA     SC320768 100.004  58.562  79.282
18591DA     SC420769  99.869  58.349  79.404
18592DT     BB120770  99.466  57.972  79.221
18592DT     BB220771  99.439  58.163  78.916
18592DT     BB320772  99.594  58.112  78.788
18592DT     SC120773  99.767  58.247  78.931
18592DT     SC220774  99.831  58.421  78.821
18592DT     SC320775  99.976  58.299  79.084
18593DC     BB120776  99.428  57.968  78.622
18593DC     BB220777  99.592  58.199  78.399
18593DC     BB320778  99.770  58.118  78.331
18593DC     SC120779  99.886  58.161  78.562
18593DC     SC220780 100.034  58.316  78.540
18593DC     SC320781 100.007  58.114  78.792
18594DT     BB120782  99.673  58.063  78.075
18594DT     BB220783  99.968  58.262  78.014
18594DT     BB320784 100.134  58.140  77.999
18594DT     SC120785 100.139  58.100  78.259
18594DT     SC220786 100.310  58.199  78.343
18594DT     SC320787 100.127  57.976  78.491
18595DA     BB120788 100.146  58.366  77.645
18595DA     BB220789 100.481  58.379  77.794
18595DA     BB320790 100.583  58.195  77.762
18595DA     SC120791 100.484  58.066  78.028
18595DA     SC220792 100.580  57.998  78.247
18595DA     SC320793 100.373  57.849  78.269
18595DA     SC420794 100.349  57.979  78.022
18596DT     BB120795 100.754  58.181  77.636
18596DT     BB220796 101.000  58.146  77.898
18596DT     BB320797 101.070  57.952  77.904
18596DT     SC120798 100.848  57.867  78.015
18596DT     SC220799 100.888  57.809  78.219
18596DT     SC320800 100.622  57.736  78.049
18597DA     BB120801 101.419  58.184  77.875
18597DA     BB220802 101.471  57.944  78.147
18597DA     BB320803 101.509  57.750  78.068
18597DA     SC120804 101.209  57.666  78.067
18597DA     SC220805 101.061  57.507  78.190
18597DA     SC320806 100.903  57.530  77.989
18597DA     SC420807 101.125  57.692  77.932
18598DA     BB120808 101.794  57.744  78.244
18598DA     BB220809 101.662  57.454  78.425
18598DA     BB320810 101.687  57.276  78.309
18598DA     SC120811 101.410  57.300  78.170
18598DA     SC220812 101.191  57.181  78.173
18598DA     SC320813 101.150  57.293  77.946
18598DA     SC420814 101.403  57.378  78.029
18599DA     BB120815 101.864  57.125  78.557
18599DA     BB220816 101.596  56.875  78.580
18599DA     BB320817 101.624  56.723  78.433
18599DA     SC120818 101.453  56.868  78.217
18599DA     SC220819 101.233  56.836  78.103
18599DA     SC320820 101.327  56.992  77.922
18599DA     SC420821 101.530  56.965  78.114
18600DA     BB120822 101.634  56.469  78.662
18600DA     BB220823 101.322  56.341  78.517
18600DA     BB320824 101.364  56.213  78.352
18600DA     SC120825 101.355  56.441  78.141
18600DA     SC220826 101.208  56.513  77.953
18600DA     SC320827 101.412  56.644  77.869
18600DA     SC420828 101.494  56.514  78.104
18601DA     BB120829 101.194  55.968  78.502
18601DA     BB220830 100.948  55.997  78.232
18601DA     BB320831 101.007  55.880  78.064
18601DA     SC120832 101.166  56.110  77.928
18601DA     SC220833 101.144  56.256  77.727
18601DA     SC320834 101.396  56.296  77.754
18601DA     SC420835 101.323  56.122  77.961
18602DC     BB120836 100.888  55.724  78.013
18602DC     BB220837 100.728  55.897  77.739
18602DC     BB320838 100.796  55.821  77.559
18602DC     SC120839 101.026  55.944  77.584
18602DC     SC220840 101.039  56.102  77.438
18602DC     SC320841 101.286  55.982  77.611
18603DT     BB120842 100.549  55.732  77.542
18603DT     BB220843 100.592  55.952  77.260
18603DT     BB320844 100.686  55.851  77.105
18603DT     SC120845 100.918  55.862  77.228
18603DT     SC220846 101.048  55.996  77.122
18603DT     SC320847 101.138  55.784  77.350
18604DT     BB120848 100.451  55.883  76.999
18604DT     BB220849 100.683  56.045  76.775
18604DT     BB320850 100.776  55.904  76.656
18604DT     SC120851 100.927  55.824  76.854
18604DT     SC220852 101.131  55.882  76.818
18604DT     SC320853 101.032  55.667  77.039
18605DT     BB120854 100.633  56.018  76.468
18605DT     BB220855 100.976  56.047  76.359
18605DT     BB320856 101.037  55.869  76.272
18605DT     SC120857 101.056  55.752  76.506
18605DT     SC220858 101.263  55.716  76.551
18605DT     SC320859 101.010  55.584  76.704
18606DT     BB120860 101.033  55.999  76.039
18606DT     BB220861 101.370  55.873  76.069
18606DT     BB320862 101.378  55.677  76.002
18606DT     SC120863 101.259  55.590  76.219
18606DT     SC220864 101.400  55.478  76.338
18606DT     SC320865 101.078  55.479  76.376
18607DT     BB120866 101.513  55.766  75.789
18607DT     BB220867 101.730  55.520  75.940
18607DT     BB320868 101.680  55.331  75.873
18607DT     SC120869 101.465  55.325  76.023
18607DT     SC220870 101.491  55.182  76.181
18607DT     SC320871 101.210  55.316  76.092
18608DT     BB120872 101.909  55.338  75.740
18608DT     BB220873 101.931  55.047  75.952
18608DT     BB320874 101.838  54.886  75.860
18608DT     SC120875 101.601  54.983  75.913
18608DT     SC220876 101.505  54.860  76.061
18608DT     SC320877 101.359  55.082  75.876
18609DC     BB120878 102.084  54.801  75.845
18609DC     BB220879 101.904  54.547  76.028
18609DC     BB320880 101.800  54.426  75.897
18609DC     SC120881 101.620  54.612  75.855
18609DC     SC220882 101.433  54.551  75.943
18609DC     SC320883 101.473  54.792  75.730
18610DA     BB120884 102.018  54.216  76.191
18610DA     BB220885 101.682  54.072  76.167
18610DA     BB320886 101.656  53.976  75.979
18610DA     SC120887 101.544  54.229  75.837
18610DA     SC220888 101.326  54.308  75.745
18610DA     SC320889 101.467  54.475  75.610
18610DA     SC420890 101.649  54.324  75.761
18611DT     BB120891 101.631  53.808  76.013
18611DT     BB220892 101.284  53.783  75.916
18611DT     BB320893 101.270  53.726  75.718
18611DT     SC120894 101.341  53.965  75.636
18611DT     SC220895 101.172  54.061  75.543
18611DT     SC320896 101.481  54.156  75.521
18612DA     BB120897 101.022  53.467  75.940
18612DA     BB220898 100.839  53.570  75.640
18612DA     BB320899 100.923  53.479  75.466
18612DA     SC120900 101.121  53.713  75.411
18612DA     SC220901 101.151  53.894  75.241
18612DA     SC320902 101.394  53.903  75.323
18612DA     SC420903 101.269  53.702  75.474
18613DA     BB120904 100.619  53.358  75.397
18613DA     BB220905 100.632  53.538  75.077
18613DA     BB320906 100.755  53.433  74.938
18613DA     SC120907 101.016  53.581  75.019
18613DA     SC220908 101.172  53.748  74.919
18613DA     SC320909 101.342  53.663  75.092
18613DA     SC420910 101.108  53.514  75.133
18614DT     BB120911 100.683  53.327  74.751
18614DT     BB220912 100.811  53.566  74.513
18614DT     BB320913 100.971  53.483  74.409
18614DT     SC120914 101.129  53.511  74.616
18614DT     SC220915 101.276  53.663  74.574
18614DT     SC320916 101.289  53.448  74.817
18615DA     BB120917 100.716  53.602  74.096
18615DA     BB220918 101.051  53.728  74.015
18615DA     BB320919 101.174  53.570  73.942
18615DA     SC120920 101.284  53.493  74.223
18615DA     SC220921 101.500  53.507  74.347
18615DA     SC320922 101.401  53.324  74.498
18615DA     SC420923 101.205  53.379  74.305
18616DT     BB120924 101.246  53.558  73.736
18616DT     BB220925 101.588  53.650  73.805
18616DT     BB320926 101.711  53.486  73.783
18616DT     SC120927 101.627  53.383  74.010
18616DT     SC220928 101.786  53.391  74.154
18616DT     SC320929 101.514  53.217  74.180
18617DA     BB120930 101.888  53.774  73.534
18617DA     BB220931 102.154  53.634  73.743
18617DA     BB320932 102.209  53.440  73.673
18617DA     SC120933 102.004  53.291  73.854
18617DA     SC220934 102.009  53.141  74.053
18617DA     SC320935 101.773  53.071  73.981
18617DA     SC420936 101.859  53.259  73.792
18618DG     BB120937 102.508  53.538  73.611
18618DG     BB220938 102.598  53.302  73.870
18618DG     BB320939 102.625  53.122  73.791
18618DG     SC120940 102.334  53.036  73.825
18618DG     SC220941 102.234  52.821  74.007
18618DG     SC320942 102.018  52.916  73.828
18618DG     SC420943 102.229  53.068  73.708
18619DT     BB120944 102.839  52.981  73.774
18619DT     BB220945 102.774  52.741  74.036
18619DT     BB320946 102.740  52.554  73.953
18619DT     SC120947 102.500  52.624  73.873
18619DT     SC220948 102.353  52.519  73.988
18619DT     SC320949 102.299  52.679  73.712
18620DA     BB120950 103.059  52.461  74.215
18620DA     BB220951 102.789  52.223  74.286
18620DA     BB320952 102.789  52.065  74.142
18620DA     SC120953 102.593  52.211  73.949
18620DA     SC220954 102.358  52.185  73.870
18620DA     SC320955 102.429  52.331  73.672
18620DA     SC420956 102.657  52.301  73.832
18621DA     BB120957 102.815  51.856  74.396
18621DA     BB220958 102.480  51.736  74.309
18621DA     BB320959 102.491  51.591  74.153
18621DA     SC120960 102.463  51.799  73.924
18621DA     SC220961 102.294  51.864  73.752
18621DA     SC320962 102.491  51.973  73.629
18621DA     SC420963 102.599  51.860  73.861
18622DA     BB120964 102.321  51.448  74.386
18622DA     BB220965 102.042  51.450  74.147
18622DA     BB320966 102.073  51.303  73.996
18622DA     SC120967 102.224  51.496  73.804
18622DA     SC220968 102.183  51.607  73.584
18622DA     SC320969 102.438  51.633  73.573
18622DA     SC420970 102.384  51.501  73.815
18623DT     BB120971 101.941  51.190  74.012
18623DT     BB220972 101.756  51.301  73.723
18623DT     BB320973 101.800  51.180  73.560
18623DT     SC120974 102.036  51.292  73.531
18623DT     SC220975 102.037  51.409  73.350
18623DT     SC320976 102.298  51.320  73.521
18624DA     BB120977 101.389  51.255  73.622
18624DA     BB220978 101.470  51.313  73.269
18624DA     BB320979 101.521  51.129  73.174
18624DA     SC120980 101.825  51.154  73.235
18624DA     SC220981 102.036  51.195  73.109
18624DA     SC320982 102.154  51.092  73.312
18624DA     SC420983 101.880  51.086  73.370
18625DA     BB120984 101.293  51.267  72.984
18625DA     BB220985 101.544  51.254  72.718
18625DA     BB320986 101.581  51.052  72.660
18625DA     SC120987 101.812  51.009  72.864
18625DA     SC220988 102.059  50.978  72.859
18625DA     SC320989 102.031  50.878  73.093
18625DA     SC420990 101.773  50.949  73.008
18626DT     BB120991 101.527  51.008  72.481
18626DT     BB220992 101.858  50.984  72.339
18626DT     BB320993 101.913  50.785  72.321
18626DT     SC120994 101.955  50.766  72.580
18626DT     SC220995 102.166  50.745  72.616
18626DT     SC320996 101.929  50.688  72.830
18627DA     BB120997 101.973  50.964  71.946
18627DA     BB220998 102.276  50.777  72.032
18627DA     BB320999 102.241  50.567  72.015
18627DA     SC121000 102.151  50.533  72.311
18627DA     SC221001 102.238  50.427  72.519
18627DA     SC321002 101.995  50.435  72.600
18627DA     SC421003 101.994  50.545  72.342
18628DC     BB121004 102.340  50.465  71.872
18628DC     BB221005 102.574  50.299  72.091
18628DC     BB321006 102.520  50.101  72.114
18628DC     SC121007 102.321  50.164  72.272
18628DC     SC221008 102.365  50.099  72.473
18628DC     SC321009 102.075  50.191  72.363
18629DA     BB121010 102.926  50.130  72.012
18629DA     BB221011 102.895  49.908  72.303
18629DA     BB321012 102.808  49.723  72.245
18629DA     SC121013 102.516  49.815  72.301
18629DA     SC221014 102.335  49.767  72.466
18629DA     SC321015 102.176  49.866  72.290
18629DA     SC421016 102.433  49.879  72.179
18630DG     BB121017 103.077  49.641  72.366
18630DG     BB221018 102.863  49.476  72.606
18630DG     BB321019 102.787  49.310  72.526
18630DG     SC121020 102.540  49.449  72.412
18630DG     SC221021 102.258  49.405  72.499
18630DG     SC321022 102.267  49.572  72.255
18630DG     SC421023 102.547  49.512  72.265
18631DA     BB121024 102.903  49.186  72.827
18631DA     BB221025 102.565  49.063  72.900
18631DA     BB321026 102.516  48.901  72.771
18631DA     SC121027 102.390  49.082  72.551
18631DA     SC221028 102.163  49.129  72.459
18631DA     SC321029 102.288  49.220  72.254
18631DA     SC421030 102.486  49.132  72.433
18632DT     BB121031 102.495  48.740  72.862
18632DT     BB221032 102.137  48.709  72.825
18632DT     BB321033 102.093  48.583  72.667
18632DT     SC121034 102.158  48.767  72.491
18632DT     SC221035 101.980  48.835  72.390
18632DT     SC321036 102.286  48.890  72.296
18633DA     BB121037 101.877  48.428  72.992
18633DA     BB221038 101.649  48.443  72.705
18633DA     BB321039 101.697  48.289  72.565
18633DA     SC121040 101.895  48.465  72.402
18633DA     SC221041 101.904  48.573  72.177
18633DA     SC321042 102.158  48.581  72.214
18633DA     SC421043 102.050  48.460  72.443
18634DT     BB121044 101.568  48.117  72.523
18634DT     BB221045 101.454  48.225  72.198
18634DT     BB321046 101.540  48.109  72.051
18634DT     SC121047 101.772  48.229  72.079
18634DT     SC221048 101.811  48.349  71.905
18634DT     SC321049 102.027  48.266  72.132
18635DT     BB121050 101.306  47.966  71.995
18635DT     BB221051 101.400  48.108  71.677
18635DT     BB321052 101.524  47.978  71.575
18635DT     SC121053 101.727  48.037  71.731
18635DT     SC221054 101.873  48.147  71.620
18635DT     SC321055 101.920  48.008  71.908
18636DA     BB121056 101.214  48.069  71.309
18636DA     BB221057 101.531  48.120  71.132
18636DA     BB321058 101.618  47.932  71.081
18636DA     SC121059 101.783  47.909  71.344
18636DA     SC221060 102.022  47.919  71.414
18636DA     SC321061 101.944  47.795  71.625
18636DA     SC421062 101.715  47.831  71.467
18637DA     BB121063 101.616  48.078  70.788
18637DA     BB221064 101.982  48.046  70.793
18637DA     BB321065 102.039  47.844  70.757
18637DA     SC121066 102.040  47.765  71.058
18637DA     SC221067 102.207  47.705  71.233
18637DA     SC321068 102.010  47.599  71.357
18637DA     SC421069 101.904  47.704  71.119
18638DT     BB121070 102.136  47.813  70.592
18638DT     BB221071 102.461  47.762  70.741
18638DT     BB321072 102.506  47.560  70.746
18638DT     SC121073 102.339  47.520  70.945
18638DT     SC221074 102.451  47.474  71.123
18638DT     SC321075 102.133  47.430  71.081
18639DA     BB121076 102.830  47.758  70.568
18639DA     BB221077 102.962  47.532  70.825
18639DA     BB321078 102.947  47.329  70.760
18639DA     SC121079 102.665  47.286  70.884
18639DA     SC221080 102.564  47.157  71.072
18639DA     SC321081 102.342  47.186  70.946
18639DA     SC421082 102.537  47.314  70.790
18640DG     BB121083 103.259  47.324  70.787
18640DG     BB221084 103.188  47.078  71.043
18640DG     BB321085 103.160  46.900  70.959
18640DG     SC121086 102.858  46.938  70.923
18640DG     SC221087 102.644  46.785  71.064
18640DG     SC321088 102.529  46.954  70.850
18640DG     SC421089 102.804  47.007  70.789
18641DT     BB121090 103.297  46.706  70.989
18641DT     BB221091 103.088  46.508  71.206
18641DT     BB321092 103.008  46.348  71.101
18641DT     SC121093 102.838  46.505  70.977
18641DT     SC221094 102.639  46.463  71.047
18641DT     SC321095 102.715  46.633  70.782
18642DA     BB121096 103.191  46.175  71.437
18642DA     BB221097 102.850  46.043  71.416
18642DA     BB321098 102.835  45.899  71.259
18642DA     SC121099 102.755  46.107  71.042
18642DA     SC221100 102.553  46.166  70.909
18642DA     SC321101 102.717  46.283  70.750
18642DA     SC421102 102.873  46.173  70.955
18643DC     BB121103 102.798  45.706  71.308
18643DC     BB221104 102.452  45.706  71.205
18643DC     BB321105 102.432  45.603  71.026
18643DC     SC121106 102.537  45.802  70.891
18643DC     SC221107 102.385  45.894  70.770
18643DC     SC321108 102.704  45.937  70.739
18644DA     BB121109 102.154  45.455  71.302
18644DA     BB221110 101.976  45.531  70.991
18644DA     BB321111 102.026  45.388  70.840
18644DA     SC121112 102.266  45.552  70.730
18644DA     SC221113 102.323  45.680  70.523
18644DA     SC321114 102.567  45.650  70.596
18644DA     SC421115 102.412  45.521  70.791
18645DA     BB121116 101.700  45.383  70.841
18645DA     BB221117 101.721  45.489  70.491
18645DA     BB321118 101.790  45.328  70.369
18645DA     SC121119 102.091  45.403  70.397
18645DA     SC221120 102.273  45.494  70.253
18645DA     SC321121 102.432  45.395  70.427
18645DA     SC421122 102.173  45.333  70.516
18646DT     BB121123 101.662  45.271  70.245
18646DT     BB221124 101.817  45.410  69.951
18646DT     BB321125 101.921  45.263  69.849
18646DT     SC121126 102.113  45.264  70.028
18646DT     SC221127 102.291  45.347  69.940
18646DT     SC321128 102.276  45.182  70.218
18647DT     BB121129 101.732  45.272  69.660
18647DT     BB221130 102.041  45.334  69.485
18647DT     BB321131 102.132  45.155  69.436
18647DT     SC121132 102.208  45.117  69.684
18647DT     SC221133 102.422  45.138  69.698
18647DT     SC321134 102.229  45.009  69.924
18648DA     BB121135 102.110  45.375  69.079
18648DA     BB221136 102.452  45.250  69.112
18648DA     BB321137 102.459  45.040  69.073
18648DA     SC121138 102.413  44.959  69.370
18648DA     SC221139 102.544  44.855  69.555
18648DA     SC321140 102.316  44.802  69.660
18648DA     SC421141 102.262  44.934  69.418
18649DA     BB121142 102.689  45.124  68.851
18649DA     BB221143 102.924  44.919  69.044
18649DA     BB321144 102.891  44.712  69.004
18649DA     SC121145 102.687  44.675  69.236
18649DA     SC221146 102.678  44.559  69.457
18649DA     SC321147 102.423  44.577  69.433
18649DA     SC421148 102.531  44.694  69.202
18650DT     BB121149 103.036  44.600  68.905
18650DT     BB221150 103.154  44.423  69.196
18650DT     BB321151 103.088  44.227  69.191
18650DT     SC121152 102.844  44.298  69.257
18650DT     SC221153 102.801  44.230  69.456
18650DT     SC321154 102.584  44.336  69.240
18651DT     BB121155 103.341  44.142  69.137
18651DT     BB221156 103.251  43.972  69.442
18651DT     BB321157 103.153  43.795  69.398
18651DT     SC121158 102.934  43.924  69.331
18651DT     SC221159 102.781  43.886  69.478
18651DT     SC321160 102.735  44.016  69.185
18652DC     BB121161 103.371  43.667  69.484
18652DC     BB221162 103.103  43.545  69.693
18652DC     BB321163 103.006  43.388  69.599
18652DC     SC121164 102.886  43.552  69.432
18652DC     SC221165 102.676  43.558  69.477
18652DC     SC321166 102.815  43.668  69.206
18653DT     BB121167 103.117  43.237  69.786
18653DT     BB221168 102.761  43.182  69.818
18653DT     BB321169 102.700  43.039  69.681
18653DT     SC121170 102.719  43.209  69.482
18653DT     SC221171 102.522  43.257  69.410
18653DT     SC321172 102.800  43.320  69.257
18654DA     BB121173 102.557  42.941  70.063
18654DA     BB221174 102.278  42.913  69.826
18654DA     BB321175 102.305  42.742  69.701
18654DA     SC121176 102.461  42.898  69.481
18654DA     SC221177 102.422  42.974  69.246
18654DA     SC321178 102.678  42.991  69.232
18654DA     SC421179 102.621  42.901  69.491
18655DA     BB121180 102.001  42.685  69.812
18655DA     BB221181 101.893  42.692  69.462
18655DA     BB321182 101.955  42.514  69.362
18655DA     SC121183 102.226  42.634  69.267
18655DA     SC221184 102.332  42.705  69.053
18655DA     SC321185 102.554  42.681  69.178
18655DA     SC421186 102.354  42.612  69.362
18656DT     BB121187 101.815  42.375  69.296
18656DT     BB221188 101.841  42.445  68.944
18656DT     BB321189 101.944  42.293  68.848
18656DT     SC121190 102.173  42.377  68.946
18656DT     SC221191 102.293  42.458  68.786
18656DT     SC321192 102.398  42.380  69.083
18657DC     BB121193 101.716  42.188  68.729
18657DC     BB221194 101.937  42.251  68.451
18657DC     BB321195 102.055  42.085  68.416
18657DC     SC121196 102.204  42.135  68.626
18657DC     SC221197 102.400  42.197  68.563
18657DC     SC321198 102.317  42.106  68.863
18658DA     BB121199 101.879  42.169  68.045
18658DA     BB221200 102.239  42.129  67.988
18658DA     BB321201 102.292  41.922  67.995
18658DA     SC121202 102.352  41.922  68.300
18658DA     SC221203 102.551  41.904  68.449
18658DA     SC321204 102.383  41.839  68.632
18658DA     SC421205 102.232  41.883  68.400
18659DT     BB121206 102.361  41.823  67.823
18659DT     BB221207 102.708  41.810  67.918
18659DT     BB321208 102.761  41.617  67.969
18659DT     SC121209 102.634  41.636  68.199
18659DT     SC221210 102.777  41.639  68.359
18659DT     SC321211 102.459  41.589  68.390
18660DT     BB121212 102.905  41.594  67.740
18660DT     BB221213 103.142  41.529  68.004
18660DT     BB321214 103.139  41.328  68.054
18660DT     SC121215 102.911  41.355  68.181
18660DT     SC221216 102.943  41.331  68.392
18660DT     SC321217 102.656  41.325  68.242
18661DA     BB121218 103.535  41.441  67.984
18661DA     BB221219 103.525  41.259  68.302
18661DA     BB321220 103.496  41.051  68.267
18661DA     SC121221 103.185  41.067  68.280
18661DA     SC221222 103.002  40.994  68.433
18661DA     SC321223 102.849  41.022  68.230
18661DA     SC421224 103.106  41.090  68.142
18662DG     BB121225 103.763  41.053  68.421
18662DG     BB221226 103.566  40.872  68.664
18662DG     BB321227 103.542  40.683  68.606
18662DG     SC121228 103.285  40.738  68.449
18662DG     SC221229 103.013  40.637  68.518
18662DG     SC321230 103.013  40.766  68.252
18662DG     SC421231 103.295  40.782  68.296
18663DC     BB121232 103.621  40.525  68.728
18663DC     BB221233 103.321  40.387  68.874
18663DC     BB321234 103.268  40.214  68.776
18663DC     SC121235 103.180  40.349  68.569
18663DC     SC221236 102.965  40.333  68.559
18663DC     SC321237 103.159  40.439  68.322
18664DA     BB121238 103.278  40.127  69.186
18664DA     BB221239 102.961  40.001  69.052
18664DA     BB321240 102.995  39.828  68.933
18664DA     SC121241 103.030  39.986  68.668
18664DA     SC221242 102.906  40.019  68.454
18664DA     SC321243 103.131  40.096  68.358
18664DA     SC421244 103.180  40.029  68.626
18665DC     BB121245 102.921  39.652  68.998
18665DC     BB221246 102.648  39.632  68.762
18665DC     BB321247 102.693  39.493  68.615
18665DC     SC121248 102.862  39.658  68.500
18665DC     SC221249 102.781  39.723  68.312
18665DC     SC321250 103.089  39.757  68.409
18666DC     BB121251 102.507  39.332  68.723
18666DC     BB221252 102.401  39.381  68.382
18666DC     BB321253 102.497  39.246  68.258
18666DC     SC121254 102.722  39.380  68.272
18666DC     SC221255 102.764  39.471  68.082
18666DC     SC321256 102.974  39.436  68.326
18667DT     BB121257 102.259  39.137  68.235
18667DT     BB221258 102.357  39.223  67.899
18667DT     BB321259 102.481  39.076  67.822
18667DT     SC121260 102.683  39.158  67.968
18667DT     SC221261 102.832  39.248  67.842
18667DT     SC321262 102.874  39.158  68.150
18668DA     BB121263 102.171  39.179  67.557
18668DA     BB221264 102.488  39.179  67.373
18668DA     BB321265 102.563  38.980  67.353
18668DA     SC121266 102.729  38.991  67.616
18668DA     SC221267 102.970  38.997  67.682
18668DA     SC321268 102.888  38.915  67.911
18668DA     SC421269 102.659  38.939  67.751
18669DG     BB121270 102.536  39.082  67.064
18669DG     BB221271 102.894  39.029  67.067
18669DG     BB321272 102.934  38.834  67.059
18669DG     SC121273 102.932  38.796  67.363
18669DG     SC221274 103.168  38.726  67.532
18669DG     SC321275 102.918  38.714  67.690
18669DG     SC421276 102.794  38.762  67.436
18670DA     BB121277 103.146  38.931  66.801
18670DA     BB221278 103.427  38.774  66.977
18670DA     BB321279 103.409  38.561  66.971
18670DA     SC121280 103.248  38.543  67.237
18670DA     SC221281 103.284  38.460  67.469
18670DA     SC321282 103.028  38.455  67.485
18670DA     SC421283 103.087  38.546  67.227
18671DA     BB121284 103.717  38.568  66.844
18671DA     BB221285 103.822  38.359  67.126
18671DA     BB321286 103.757  38.158  67.098
18671DA     SC121287 103.486  38.199  67.245
18671DA     SC221288 103.379  38.127  67.458
18671DA     SC321289 103.157  38.186  67.343
18671DA     SC421290 103.359  38.240  67.156
18672DT     BB121291 103.890  37.983  67.058
18672DT     BB221292 103.859  37.827  67.382
18672DT     BB321293 103.745  37.655  67.367
18672DT     SC121294 103.524  37.795  67.344
18672DT     SC221295 103.405  37.770  67.521
18672DT     SC321296 103.303  37.893  67.240
18673DT     BB121297 103.958  37.466  67.387
18673DT     BB221298 103.733  37.369  67.653
18673DT     BB321299 103.599  37.228  67.584
18673DT     SC121300 103.464  37.410  67.451
18673DT     SC221301 103.272  37.439  67.545
18673DT     SC321302 103.356  37.541  67.249
18674DG     BB121303 103.787  37.022  67.885
18674DG     BB221304 103.428  37.015  67.930
18674DG     BB321305 103.349  36.873  67.816
18674DG     SC121306 103.307  37.055  67.574
18674DG     SC221307 103.044  37.140  67.461
18674DG     SC321308 103.266  37.221  67.283
18674DG     SC421309 103.426  37.070  67.467
18675DA     BB121310 103.190  36.743  68.099
18675DA     BB221311 102.863  36.806  67.946
18675DA     BB321312 102.817  36.654  67.803
18675DA     SC121313 102.945  36.806  67.564
18675DA     SC221314 102.869  36.922  67.357
18675DA     SC321315 103.109  36.890  67.274
18675DA     SC421316 103.099  36.775  67.530
18676DT     BB121317 102.660  36.525  67.838
18676DT     BB221318 102.432  36.675  67.603
18676DT     BB321319 102.413  36.554  67.436
18676DT     SC121320 102.649  36.626  67.347
18676DT     SC221321 102.626  36.747  67.171
18676DT     SC321322 102.901  36.609  67.272
18677DA     BB121323 102.026  36.637  67.574
18677DA     BB221324 102.035  36.710  67.215
18677DA     BB321325 102.039  36.529  67.102
18677DA     SC121326 102.350  36.512  67.095
18677DA     SC221327 102.532  36.535  66.926
18677DA     SC321328 102.675  36.403  67.093
18677DA     SC421329 102.422  36.427  67.211
18678DA     BB121330 101.783  36.679  66.964
18678DA     BB221331 101.977  36.674  66.652
18678DA     BB321332 101.980  36.477  66.570
18678DA     SC121333 102.239  36.392  66.719
18678DA     SC221334 102.476  36.340  66.662
18678DA     SC321335 102.483  36.218  66.887
18678DA     SC421336 102.223  36.320  66.862
18679DA     BB121337 101.873  36.651  66.315
18679DA     BB221338 102.176  36.540  66.142
18679DA     BB321339 102.159  36.335  66.085
18679DA     SC121340 102.284  36.227  66.348
18679DA     SC221341 102.494  36.113  66.419
18679DA     SC321342 102.361  36.040  66.626
18679DA     SC421343 102.184  36.190  66.469
18680DA     BB121344 102.239  36.482  65.806
18680DA     BB221345 102.540  36.273  65.811
18680DA     BB321346 102.491  36.071  65.765
18680DA     SC121347 102.444  35.989  66.062
18680DA     SC221348 102.554  35.846  66.234
18680DA     SC321349 102.326  35.847  66.351
18680DA     SC421350 102.294  36.000  66.119
18681DT     BB121351 102.571  36.019  65.609
18681DT     BB221352 102.825  35.810  65.757
18681DT     BB321353 102.768  35.612  65.747
18681DT     SC121354 102.593  35.644  65.941
18681DT     SC221355 102.661  35.540  66.116
18681DT     SC321356 102.362  35.655  66.067
18682DG     BB121357 103.132  35.671  65.577
18682DG     BB221358 103.140  35.406  65.822
18682DG     BB321359 103.054  35.243  65.748
18682DG     SC121360 102.774  35.316  65.847
18682DG     SC221361 102.618  35.171  66.056
18682DG     SC321362 102.450  35.374  65.923
18682DG     SC421363 102.679  35.405  65.753
18683DA     BB121364 103.345  35.091  65.855
18683DA     BB221365 103.148  34.861  66.062
18683DA     BB321366 103.048  34.718  65.938
18683DA     SC121367 102.791  34.890  65.905
18683DA     SC221368 102.553  34.883  65.980
18683DA     SC321369 102.508  35.043  65.785
18683DA     SC421370 102.783  34.988  65.778
18684DA     BB121371 103.198  34.501  66.137
18684DA     BB221372 102.864  34.377  66.227
18684DA     BB321373 102.785  34.257  66.069
18684DA     SC121374 102.645  34.495  65.926
18684DA     SC221375 102.412  34.575  65.885
18684DA     SC321376 102.514  34.712  65.694
18684DA     SC421377 102.727  34.572  65.811
18685DA     BB121378 102.746  34.017  66.297
18685DA     BB221379 102.386  34.028  66.229
18685DA     BB321380 102.342  33.922  66.049
18685DA     SC121381 102.372  34.172  65.866
18685DA     SC221382 102.225  34.319  65.729
18685DA     SC321383 102.440  34.385  65.605
18685DA     SC421384 102.516  34.199  65.800
18686DA     BB121385 102.126  33.735  66.223
18686DA     BB221386 101.858  33.867  66.010
18686DA     BB321387 101.851  33.760  65.825
18686DA     SC121388 102.046  33.953  65.679
18686DA     SC221389 102.035  34.124  65.497
18686DA     SC321390 102.289  34.089  65.477
18686DA     SC421391 102.203  33.917  65.681
18687DA     BB121392 101.535  33.703  65.901
18687DA     BB221393 101.446  33.896  65.602
18687DA     BB321394 101.465  33.775  65.427
18687DA     SC121395 101.761  33.855  65.375
18687DA     SC221396 101.890  33.989  65.209
18687DA     SC321397 102.094  33.857  65.291
18687DA     SC421398 101.876  33.762  65.439
18688DT     BB121399 101.297  33.730  65.323
18688DT     BB221400 101.356  33.962  65.052
18688DT     BB321401 101.413  33.858  64.882
18688DT     SC121402 101.653  33.814  64.980
18688DT     SC221403 101.797  33.929  64.869
18688DT     SC321404 101.863  33.684  65.071
18689DA     BB121405 101.110  34.137  64.810
18689DA     BB221406 101.374  34.186  64.561
18689DA     BB321407 101.378  34.022  64.423
18689DA     SC121408 101.581  33.855  64.589
18689DA     SC221409 101.818  33.781  64.570
18689DA     SC321410 101.755  33.601  64.741
18689DA     SC421411 101.521  33.750  64.695
18690DT     BB121412 101.344  34.098  64.278
18690DT     BB221413 101.672  34.068  64.130
18690DT     BB321414 101.683  33.893  64.020
18690DT     SC121415 101.700  33.748  64.238
18690DT     SC221416 101.898  33.664  64.253
18690DT     SC321417 101.638  33.570  64.423
18691DT     BB121418 101.693  34.067  63.828
18691DT     BB221419 101.985  33.859  63.783
18691DT     BB321420 101.931  33.680  63.693
18691DT     SC121421 101.824  33.591  63.916
18691DT     SC221422 101.945  33.430  63.994
18691DT     SC321423 101.643  33.504  64.087
18692DA     BB121424 102.257  33.843  63.482
18692DA     BB221425 102.319  33.485  63.529
18692DA     BB321426 102.185  33.370  63.409
18692DA     SC121427 101.966  33.349  63.629
18692DA     SC221428 101.869  33.173  63.776
18692DA     SC321429 101.669  33.332  63.800
18692DA     SC421430 101.851  33.461  63.630
18693DT     BB121431 102.250  33.257  63.242
18693DT     BB221432 102.204  32.928  63.384
18693DT     BB321433 102.037  32.838  63.301
18693DT     SC121434 101.875  32.990  63.441
18693DT     SC221435 101.775  32.870  63.589
18693DT     SC321436 101.691  33.169  63.498
18694DG     BB121437 102.330  32.571  63.188
18694DG     BB221438 102.055  32.397  63.346
18694DG     BB321439 101.909  32.367  63.214
18694DG     SC121440 101.766  32.631  63.273
18694DG     SC221441 101.497  32.660  63.399
18694DG     SC321442 101.595  32.920  63.298
18694DG     SC421443 101.809  32.762  63.192
18695DT     BB121444 101.826  32.152  63.127
18695DT     BB221445 101.514  32.124  63.306
18695DT     BB321446 101.355  32.152  63.176
18695DT     SC121447 101.398  32.411  63.167
18695DT     SC221448 101.239  32.514  63.268
18695DT     SC321449 101.458  32.649  63.071
18696DG     BB121450 101.287  31.774  63.318
18696DG     BB221451 100.993  31.981  63.360
18696DG     BB321452 100.891  31.989  63.190
18696DG     SC121453 101.040  32.234  63.083
18696DG     SC221454 100.922  32.505  63.039
18696DG     SC321455 101.195  32.489  62.926
18696DG     SC421456 101.174  32.213  62.998
18697DT     BB121457 100.675  31.907  63.164
18697DT     BB221458 100.485  32.214  63.159
18697DT     BB321459 100.420  32.254  62.966
18697DT     SC121460 100.661  32.328  62.892
18697DT     SC221461 100.662  32.540  62.857
18697DT     SC321462 100.891  32.331  62.764
18698DG     BB121463 100.082  32.232  63.194
18698DG     BB221464 100.093  32.540  63.005
18698DG     BB321465 100.038  32.506  62.817
18698DG     SC121466 100.321  32.444  62.718
18698DG     SC221467 100.480  32.609  62.527
18698DG     SC321468 100.615  32.352  62.581
18698DG     SC421469 100.375  32.294  62.727
18699DT     BB121470  99.849  32.598  62.718
18699DT     BB221471  99.997  32.850  62.506
18699DT     BB321472  99.989  32.789  62.308
18699DT     SC121473 100.183  32.616  62.344
18699DT     SC221474 100.359  32.683  62.240
18699DT     SC321475 100.311  32.386  62.360
18700DA     BB121476  99.809  33.169  62.304
18700DA     BB221477 100.060  33.164  62.037
18700DA     BB321478  99.988  33.054  61.869
18700DA     SC121479 100.105  32.783  61.967
18700DA     SC221480 100.287  32.625  61.900
18700DA     SC321481 100.158  32.451  62.037
18700DA     SC421482 100.010  32.688  62.055
18701DA     BB121483 100.052  33.328  61.694
18701DA     BB221484 100.297  33.131  61.505
18701DA     BB321485 100.198  33.012  61.358
18701DA     SC121486 100.163  32.766  61.544
18701DA     SC221487 100.254  32.535  61.564
18701DA     SC321488 100.045  32.486  61.705
18701DA     SC421489 100.026  32.755  61.628
18702DA     BB121490 100.413  33.165  61.164
18702DA     BB221491 100.553  32.835  61.091
18702DA     BB321492 100.427  32.729  60.955
18702DA     SC121493 100.257  32.595  61.178
18702DA     SC221494 100.224  32.366  61.272
18702DA     SC321495 100.003  32.458  61.364
18702DA     SC421496 100.123  32.670  61.225
18703DT     BB121497 100.506  32.693  60.783
18703DT     BB221498 100.564  32.341  60.834
18703DT     BB321499 100.419  32.230  60.735
18703DT     SC121500 100.238  32.291  60.915
18703DT     SC221501 100.189  32.115  61.029
18703DT     SC321502 100.019  32.391  61.023
18704DC     BB121503 100.613  32.158  60.567
18704DC     BB221504 100.482  31.848  60.696
18704DC     BB321505 100.314  31.792  60.588
18704DC     SC121506 100.168  31.975  60.706
18704DC     SC221507 100.025  31.880  60.836
18704DC     SC321508 100.017  32.189  60.739
18705DT     BB121509 100.457  31.594  60.473
18705DT     BB221510 100.174  31.426  60.621
18705DT     BB321511 100.014  31.430  60.491
18705DT     SC121512  99.969  31.684  60.540
18705DT     SC221513  99.785  31.703  60.650
18705DT     SC321514  99.944  31.943  60.502
18706DT     BB121515 100.037  31.160  60.423
18706DT     BB221516  99.696  31.191  60.537
18706DT     BB321517  99.573  31.240  60.378
18706DT     SC121518  99.660  31.488  60.376
18706DT     SC221519  99.504  31.620  60.442
18706DT     SC321520  99.777  31.709  60.292
18707DC     BB121521  99.451  30.984  60.346
18707DC     BB221522  99.171  31.205  60.394
18707DC     BB321523  99.102  31.273  60.210
18707DC     SC121524  99.306  31.435  60.185
18707DC     SC221525  99.238  31.639  60.202
18707DC     SC321526  99.526  31.544  60.088
18708DG     BB121527  98.769  31.078  60.354
18708DG     BB221528  98.690  31.420  60.264
18708DG     BB321529  98.654  31.432  60.069
18708DG     SC121530  98.945  31.487  59.993
18708DG     SC221531  99.051  31.742  59.879
18708DG     SC321532  99.257  31.529  59.872
18708DG     SC421533  99.043  31.364  59.964
18709DA     BB121534  98.358  31.585  60.154
18709DA     BB221535  98.470  31.891  59.987
18709DA     BB321536  98.442  31.875  59.776
18709DA     SC121537  98.726  31.757  59.724
18709DA     SC221538  98.939  31.830  59.617
18709DA     SC321539  98.994  31.580  59.603
18709DA     SC421540  98.741  31.597  59.723
18710DA     BB121541  98.311  32.146  59.884
18710DA     BB221542  98.557  32.314  59.670
18710DA     BB321543  98.509  32.284  59.465
18710DA     SC121544  98.680  32.025  59.437
18710DA     SC221545  98.890  31.954  59.323
18710DA     SC321546  98.799  31.715  59.351
18710DA     SC421547  98.606  31.885  59.462
18711DA     BB121548  98.586  32.586  59.569
18711DA     BB221549  98.850  32.565  59.315
18711DA     BB321550  98.764  32.542  59.121
18711DA     SC121551  98.765  32.231  59.131
18711DA     SC221552  98.886  32.043  59.020
18711DA     SC321553  98.688  31.898  59.095
18711DA     SC421554  98.632  32.158  59.185
18712DT     BB121555  98.843  32.667  59.092
18712DT     BB221556  99.073  32.515  58.859
18712DT     BB321557  98.976  32.476  58.680
18712DT     SC121558  98.849  32.272  58.783
18712DT     SC221559  98.924  32.089  58.697
18712DT     SC321560  98.651  32.120  58.868
18713DG     BB121561  99.329  32.686  58.652
18713DG     BB221562  99.313  32.409  58.420
18713DG     BB321563  99.179  32.447  58.278
18713DG     SC121564  98.945  32.323  58.432
18713DG     SC221565  98.795  32.076  58.354
18713DG     SC321566  98.662  32.213  58.580
18713DG     SC421567  98.860  32.415  58.532
18714DA     BB121568  99.440  32.357  58.067
18714DA     BB221569  99.223  32.104  57.914
18714DA     BB321570  99.071  32.197  57.797
18714DA     SC121571  98.867  32.212  58.031
18714DA     SC221572  98.651  32.106  58.095
18714DA     SC321573  98.619  32.308  58.249
18714DA     SC421574  98.865  32.347  58.119
18715DT     BB121575  99.074  32.173  57.598
18715DT     BB221576  98.789  31.953  57.571
18715DT     BB321577  98.625  32.059  57.502
18715DT     SC121578  98.592  32.175  57.735
18715DT     SC221579  98.413  32.100  57.827
18715DT     SC321580  98.577  32.364  57.917
18716DC     BB121581  98.640  31.942  57.254
18716DC     BB221582  98.303  31.873  57.363
18716DC     BB321583  98.178  32.029  57.309
18716DC     SC121584  98.275  32.182  57.499
18716DC     SC221585  98.125  32.212  57.650
18716DC     SC321586  98.397  32.384  57.616
18717DC     BB121587  98.062  31.876  57.115
18717DC     BB221588  97.786  31.983  57.321
18717DC     BB321589  97.717  32.167  57.257
18717DC     SC121590  97.923  32.290  57.361
18717DC     SC221591  97.859  32.408  57.530
18717DC     SC321592  98.145  32.433  57.378
18718DT     BB121593  97.494  32.050  57.155
18718DT     BB221594  97.368  32.301  57.382
18718DT     BB321595  97.352  32.483  57.285
18718DT     SC121596  97.612  32.518  57.291
18718DT     SC221597  97.659  32.678  57.427
18718DT     SC321598  97.860  32.549  57.208
18719DT     BB121599  97.081  32.461  57.283
18719DT     BB221600  97.144  32.777  57.445
18719DT     BB321601  97.163  32.927  57.303
18719DT     SC121602  97.403  32.843  57.236
18719DT     SC221603  97.549  32.986  57.300
18719DT     SC321604  97.599  32.745  57.090
18720DT     BB121605  96.914  33.039  57.357
18720DT     BB221606  97.142  33.316  57.395
18720DT     BB321607  97.168  33.412  57.213
18720DT     SC121608  97.320  33.218  57.124
18720DT     SC221609  97.522  33.288  57.107
18720DT     SC321610  97.404  33.016  56.976
18721DA     BB121611  97.042  33.738  57.452
18721DA     BB221612  97.343  33.848  57.272
18721DA     BB321613  97.295  33.897  57.070
18721DA     SC121614  97.349  33.610  56.962
18721DA     SC221615  97.517  33.496  56.818
18721DA     SC321616  97.339  33.315  56.788
18721DA     SC421617  97.224  33.509  56.955
18722DT     BB121618  97.297  34.110  56.969
18722DT     BB221619  97.604  34.059  56.786
18722DT     BB321620  97.564  34.051  56.583
18722DT     SC121621  97.464  33.809  56.604
18722DT     SC221622  97.596  33.668  56.509
18722DT     SC321623  97.290  33.611  56.598
18723DA     BB121624  97.857  34.349  56.616
18723DA     BB221625  97.972  34.110  56.362
18723DA     BB321626  97.867  34.140  56.179
18723DA     SC121627  97.639  33.940  56.248
18723DA     SC221628  97.560  33.716  56.171
18723DA     SC321629  97.336  33.780  56.279
18723DA     SC421630  97.507  33.999  56.320
18724DA     BB121631  98.175  34.156  56.076
18724DA     BB221632  98.100  33.859  55.874
18724DA     BB321633  97.982  33.912  55.704
18724DA     SC121634  97.710  33.869  55.849
18724DA     SC221635  97.520  33.708  55.839
18724DA     SC321636  97.385  33.892  55.957
18724DA     SC421637  97.643  33.996  55.921
18725DA     BB121638  98.232  33.744  55.583
18725DA     BB221639  97.980  33.508  55.460
18725DA     BB321640  97.870  33.594  55.298
18725DA     SC121641  97.650  33.716  55.481
18725DA     SC221642  97.408  33.677  55.529
18725DA     SC321643  97.410  33.917  55.621
18725DA     SC421644  97.671  33.867  55.532
18726DG     BB121645  97.989  33.340  55.171
18726DG     BB221646  97.640  33.252  55.142
18726DG     BB321647  97.557  33.351  54.991
18726DG     SC121648  97.474  33.591  55.161
18726DG     SC221649  97.194  33.673  55.225
18726DG     SC321650  97.387  33.879  55.315
18726DG     SC421651  97.578  33.712  55.181
18727DG     BB121652  97.478  33.058  54.871
18727DG     BB221653  97.134  33.166  54.900
18727DG     BB321654  97.087  33.284  54.747
18727DG     SC121655  97.173  33.542  54.887
18727DG     SC221656  96.992  33.764  54.972
18727DG     SC321657  97.276  33.842  55.002
18727DG     SC421658  97.325  33.591  54.873
18728DA     BB121659  96.810  33.078  54.690
18728DA     BB221660  96.586  33.365  54.733
18728DA     BB321661  96.589  33.488  54.560
18728DA     SC121662  96.820  33.669  54.663
18728DA     SC221663  96.849  33.904  54.742
18728DA     SC321664  97.098  33.869  54.689
18728DA     SC421665  96.970  33.628  54.623
18729DT     BB121666  96.419  33.511  54.428
18729DT     BB221667  96.327  33.843  54.534
18729DT     BB321668  96.373  33.980  54.386
18729DT     SC121669  96.629  33.965  54.442
18729DT     SC221670  96.694  34.150  54.531
18729DT     SC321671  96.887  33.918  54.414
18730DA     BB121672  95.967  34.050  54.466
18730DA     BB221673  96.140  34.373  54.482
18730DA     BB321674  96.184  34.443  54.286
18730DA     SC121675  96.464  34.308  54.274
18730DA     SC221676  96.703  34.378  54.274
18730DA     SC321677  96.750  34.147  54.173
18730DA     SC421678  96.473  34.160  54.210
18731DG     BB121679  96.004  34.684  54.363
18731DG     BB221680  96.317  34.865  54.339
18731DG     BB321681  96.351  34.916  54.150
18731DG     SC121682  96.503  34.659  54.082
18731DG     SC221683  96.793  34.640  54.014
18731DG     SC321684  96.656  34.382  53.967
18731DG     SC421685  96.421  34.532  54.029
18732DG     BB121686  96.363  35.216  54.269
18732DG     BB221687  96.709  35.214  54.163
18732DG     BB321688  96.720  35.253  53.969
18732DG     SC121689  96.700  34.960  53.883
18732DG     SC221690  96.915  34.800  53.752
18732DG     SC321691  96.659  34.652  53.752
18732DG     SC421692  96.555  34.897  53.858
18733DA     BB121693  96.950  35.472  54.096
18733DA     BB221694  97.206  35.314  53.887
18733DA     BB321695  97.175  35.363  53.682
18733DA     SC121696  96.994  35.116  53.625
18733DA     SC221697  97.007  34.903  53.496
18733DA     SC321698  96.751  34.904  53.508
18733DA     SC421699  96.835  35.135  53.642
18734DA     BB121700  97.486  35.424  53.757
18734DA     BB221701  97.567  35.185  53.490
18734DA     BB321702  97.512  35.264  53.300
18734DA     SC121703  97.225  35.144  53.305
18734DA     SC221704  97.098  34.966  53.186
18734DA     SC321705  96.888  35.089  53.268
18734DA     SC421706  97.107  35.235  53.365
18735DT     BB121707  97.660  35.283  53.207
18735DT     BB221708  97.603  35.017  52.970
18735DT     BB321709  97.515  35.092  52.799
18735DT     SC121710  97.284  35.119  52.919
18735DT     SC221711  97.144  34.976  52.838
18735DT     SC321712  97.069  35.233  53.021
18736DA     BB121713  97.845  34.848  52.701
18736DA     BB221714  97.565  34.759  52.481
18736DA     BB321715  97.526  34.916  52.343
18736DA     SC121716  97.320  35.060  52.527
18736DA     SC221717  97.074  35.101  52.532
18736DA     SC321718  97.130  35.292  52.693
18736DA     SC421719  97.375  35.175  52.625
18737DA     BB121720  97.556  34.670  52.124
18737DA     BB221721  97.217  34.750  52.012
18737DA     BB321722  97.217  34.931  51.899
18737DA     SC121723  97.165  35.114  52.146
18737DA     SC221724  96.981  35.255  52.236
18737DA     SC321725  97.164  35.371  52.373
18737DA     SC421726  97.294  35.174  52.222
18738DA     BB121727  97.069  34.761  51.650
18738DA     BB221728  96.787  34.995  51.673
18738DA     BB321729  96.835  35.179  51.578
18738DA     SC121730  96.950  35.311  51.835
18738DA     SC221731  96.887  35.493  51.993
18738DA     SC321732  97.135  35.494  52.060
18738DA     SC421733  97.108  35.297  51.862
18739DA     BB121734  96.566  35.158  51.371
18739DA     BB221735  96.439  35.468  51.518
18739DA     BB321736  96.531  35.637  51.426
18739DA     SC121737  96.766  35.651  51.630
18739DA     SC221738  96.842  35.801  51.814
18739DA     SC321739  97.071  35.691  51.781
18739DA     SC421740  96.901  35.571  51.594
18740DA     BB121741  96.233  35.775  51.330
18740DA     BB221742  96.304  36.060  51.549
18740DA     BB321743  96.426  36.203  51.448
18740DA     SC121744  96.694  36.078  51.543
18740DA     SC221745  96.881  36.137  51.698
18740DA     SC321746  97.018  35.965  51.565
18740DA     SC421747  96.763  35.968  51.448
18741DA     BB121748  96.197  36.445  51.502
18741DA     BB221749  96.445  36.615  51.712
18741DA     BB321750  96.575  36.734  51.592
18741DA     SC121751  96.784  36.507  51.550
18741DA     SC221752  97.017  36.455  51.622
18741DA     SC321753  97.022  36.295  51.421
18741DA     SC421754  96.768  36.414  51.420
18742DA     BB121755  96.478  36.970  51.796
18742DA     BB221756  96.826  36.987  51.910
18742DA     BB321757  96.945  37.095  51.770
18742DA     SC121758  97.024  36.844  51.604
18742DA     SC221759  97.228  36.708  51.561
18742DA     SC321760  97.105  36.625  51.352
18742DA     SC421761  96.931  36.806  51.479
18743DA     BB121762  97.005  37.239  52.054
18743DA     BB221763  97.353  37.134  52.006
18743DA     BB321764  97.445  37.252  51.853
18743DA     SC121765  97.367  37.058  51.623
18743DA     SC221766  97.482  36.900  51.468
18743DA     SC321767  97.273  36.923  51.322
18743DA     SC421768  97.230  37.087  51.545
18744DG     BB121769  97.616  37.289  52.105
18744DG     BB221770  97.863  37.126  51.896
18744DG     BB321771  97.931  37.253  51.760
18744DG     SC121772  97.719  37.182  51.551
18744DG     SC221773  97.768  37.046  51.290
18744DG     SC321774  97.489  37.143  51.307
18744DG     SC421775  97.580  37.262  51.552
18745DA     BB121776  98.229  37.131  51.884
18745DA     BB221777  98.322  37.029  51.544
18745DA     BB321778  98.361  37.200  51.424
18745DA     SC121779  98.067  37.226  51.323
18745DA     SC221780  97.942  37.195  51.110
18745DA     SC321781  97.763  37.344  51.217
18745DA     SC421782  97.968  37.322  51.406
18746DT     BB121783  98.543  37.221  51.365
18746DT     BB221784  98.492  37.142  51.016
18746DT     BB321785  98.484  37.317  50.905
18746DT     SC121786  98.243  37.371  50.992
18746DT     SC221787  98.102  37.348  50.831
18746DT     SC321788  98.045  37.496  51.114
18747DT     BB121789  98.740  37.288  50.793
18747DT     BB221790  98.526  37.328  50.505
18747DT     BB321791  98.508  37.529  50.458
18747DT     SC121792  98.348  37.571  50.661
18747DT     SC221793  98.150  37.612  50.588
18747DT     SC321794  98.256  37.665  50.889
18748DT     BB121795  98.684  37.543  50.224
18748DT     BB221796  98.371  37.673  50.100
18748DT     BB321797  98.369  37.879  50.117
18748DT     SC121798  98.332  37.866  50.376
18748DT     SC221799  98.134  37.934  50.424
18748DT     SC321800  98.377  37.893  50.635
18749DA     BB121801  98.294  37.842  49.703
18749DA     BB221802  98.030  38.055  49.841
18749DA     BB321803  98.101  38.255  49.866
18749DA     SC121804  98.200  38.209  50.157
18749DA     SC221805  98.136  38.281  50.387
18749DA     SC321806  98.375  38.216  50.452
18749DA     SC421807  98.353  38.164  50.178
18750DA     BB121808  97.844  38.328  49.680
18750DA     BB221809  97.707  38.495  49.976
18750DA     BB321810  97.792  38.689  49.998
18750DA     SC121811  98.028  38.593  50.177
18750DA     SC221812  98.100  38.614  50.414
18750DA     SC321813  98.333  38.550  50.328
18750DA     SC421814  98.165  38.553  50.103
18751DT     BB121815  97.659  38.801  49.984
18751DT     BB221816  97.632  38.865  50.338
18751DT     BB321817  97.728  39.042  50.386
18751DT     SC121818  97.964  38.930  50.361
18751DT     SC221819  98.056  38.913  50.554
18751DT     SC321820  98.206  38.878  50.269
18752DT     BB121821  97.479  39.046  50.435
18752DT     BB221822  97.651  39.095  50.748
18752DT     BB321823  97.744  39.280  50.750
18752DT     SC121824  97.933  39.195  50.588
18752DT     SC221825  98.119  39.183  50.695
18752DT     SC321826  98.084  39.174  50.373
18753DG     BB121827  97.508  39.160  51.068
18753DG     BB221828  97.832  39.283  51.170
18753DG     BB321829  97.845  39.478  51.132
18753DG     SC121830  97.957  39.440  50.850
18753DG     SC221831  98.231  39.515  50.758
18753DG     SC321832  98.062  39.436  50.529
18753DG     SC421833  97.855  39.426  50.727
18754DT     BB121834  97.879  39.568  51.296
18754DT     BB221835  98.218  39.686  51.256
18754DT     BB321836  98.217  39.875  51.172
18754DT     SC121837  98.158  39.778  50.936
18754DT     SC221838  98.327  39.800  50.805
18754DT     SC321839  98.024  39.730  50.714
18755DA     BB121840  98.457  39.893  51.517
18755DA     BB221841  98.637  40.062  51.245
18755DA     BB321842  98.544  40.248  51.199
18755DA     SC121843  98.354  40.128  50.984
18755DA     SC221844  98.328  40.137  50.736
18755DA     SC321845  98.087  40.058  50.779
18755DA     SC421846  98.208  40.080  51.031
18756DT     BB121847  98.639  40.431  51.238
18756DT     BB221848  98.716  40.515  50.895
18756DT     BB321849  98.591  40.665  50.829
18756DT     SC121850  98.389  40.499  50.809
18756DT     SC221851  98.341  40.469  50.601
18756DT     SC321852  98.154  40.387  50.853
18757DT     BB121853  98.789  40.859  50.837
18757DT     BB221854  98.671  40.868  50.496
18757DT     BB321855  98.514  41.002  50.479
18757DT     SC121856  98.349  40.836  50.599
18757DT     SC221857  98.205  40.763  50.456
18757DT     SC321858  98.183  40.737  50.778
18758DT     BB121859  98.675  41.170  50.343
18758DT     BB221860  98.399  41.106  50.120
18758DT     BB321861  98.244  41.238  50.159
18758DT     SC121862  98.179  41.108  50.377
18758DT     SC221863  97.990  41.009  50.348
18758DT     SC321864  98.137  41.057  50.633
18759DT     BB121865  98.308  41.344  49.926
18759DT     BB221866  97.961  41.248  49.896
18759DT     BB321867  97.840  41.394  49.979
18759DT     SC121868  97.904  41.321  50.222
18759DT     SC221869  97.733  41.230  50.316
18759DT     SC321870  98.001  41.331  50.467
18760DT     BB121871  97.774  41.430  49.729
18760DT     BB221872  97.464  41.363  49.901
18760DT     BB321873  97.398  41.535  49.997
18760DT     SC121874  97.580  41.510  50.184
18760DT     SC221875  97.484  41.459  50.370
18760DT     SC321876  97.789  41.564  50.336
18761DC     BB121877  97.209  41.535  49.813
18761DC     BB221878  97.033  41.545  50.127
18761DC     BB321879  97.027  41.739  50.199
18761DC     SC121880  97.279  41.729  50.270
18761DC     SC221881  97.293  41.729  50.484
18761DC     SC321882  97.537  41.784  50.278
18762DG     BB121883  96.639  41.614  50.167
18762DG     BB221884  96.705  41.759  50.492
18762DG     BB321885  96.714  41.957  50.477
18762DG     SC121886  97.014  41.965  50.420
18762DG     SC221887  97.224  42.079  50.600
18762DG     SC321888  97.338  42.010  50.336
18762DG     SC421889  97.065  41.954  50.268
18763DT     BB121890  96.567  42.100  50.578
18763DT     BB221891  96.769  42.239  50.843
18763DT     BB321892  96.829  42.431  50.793
18763DT     SC121893  97.005  42.340  50.621
18763DT     SC221894  97.203  42.377  50.695
18763DT     SC321895  97.127  42.294  50.392
18764DT     BB121896  96.653  42.556  50.970
18764DT     BB221897  96.977  42.686  51.062
18764DT     BB321898  97.019  42.856  50.952
18764DT     SC121899  97.068  42.713  50.737
18764DT     SC221900  97.279  42.722  50.692
18764DT     SC321901  97.046  42.617  50.492
18765DG     BB121902  97.030  42.995  51.337
18765DG     BB221903  97.333  43.082  51.160
18765DG     BB321904  97.302  43.242  51.046
18765DG     SC121905  97.213  43.081  50.801
18765DG     SC221906  97.359  43.061  50.542
18765DG     SC321907  97.091  42.937  50.521
18765DG     SC421908  97.058  43.043  50.786
18766DA     BB121909  97.577  43.406  51.192
18766DA     BB221910  97.742  43.425  50.865
18766DA     BB321911  97.660  43.585  50.750
18766DA     SC121912  97.441  43.410  50.615
18766DA     SC221913  97.391  43.319  50.389
18766DA     SC321914  97.150  43.293  50.475
18766DA     SC421915  97.297  43.403  50.687
18767DT     BB121916  97.774  43.760  50.698
18767DT     BB221917  97.828  43.671  50.352
18767DT     BB321918  97.713  43.791  50.229
18767DT     SC121919  97.494  43.662  50.294
18767DT     SC221920  97.425  43.549  50.124
18767DT     SC321921  97.254  43.614  50.392
18768DA     BB121922  98.105  43.827  50.082
18768DA     BB221923  97.886  43.743  49.800
18768DA     BB321924  97.772  43.913  49.742
18768DA     SC121925  97.533  43.847  49.930
18768DA     SC221926  97.297  43.772  49.909
18768DA     SC321927  97.267  43.866  50.146
18768DA     SC421928  97.535  43.913  50.077
18769DC     BB121929  97.801  44.003  49.554
18769DC     BB221930  97.505  43.865  49.401
18769DC     BB321931  97.363  44.014  49.377
18769DC     SC121932  97.307  44.012  49.634
18769DC     SC221933  97.110  43.930  49.663
18769DC     SC321934  97.282  44.095  49.883
18770DT     BB121935  97.405  44.008  49.110
18770DT     BB221936  97.057  43.923  49.153
18770DT     BB321937  96.942  44.095  49.162
18770DT     SC121938  97.025  44.147  49.405
18770DT     SC221939  96.861  44.120  49.543
18770DT     SC321940  97.141  44.271  49.607
18771DA     BB121941  96.792  43.813  48.892
18771DA     BB221942  96.523  43.915  49.120
18771DA     BB321943  96.463  44.115  49.078
18771DA     SC121944  96.664  44.242  49.279
18771DA     SC221945  96.656  44.362  49.497
18771DA     SC321946  96.890  44.448  49.436
18771DA     SC421947  96.808  44.286  49.222
18772DG     BB121948  96.217  43.938  49.051
18772DG     BB221949  96.111  44.135  49.335
18772DG     BB321950  96.058  44.317  49.276
18772DG     SC121951  96.338  44.435  49.308
18772DG     SC221952  96.420  44.642  49.507
18772DG     SC321953  96.637  44.593  49.312
18772DG     SC421954  96.440  44.428  49.185
18773DC     BB121955  95.875  44.349  49.325
18773DC     BB221956  95.907  44.585  49.596
18773DC     BB321957  95.891  44.778  49.523
18773DC     SC121958  96.132  44.769  49.420
18773DC     SC221959  96.262  44.900  49.530
18773DC     SC321960  96.325  44.768  49.241
18774DA     BB121961  95.649  44.711  49.861
18774DA     BB221962  95.830  45.026  49.907
18774DA     BB321963  95.759  45.174  49.771
18774DA     SC121964  95.963  45.102  49.548
18774DA     SC221965  96.164  45.206  49.441
18774DA     SC321966  96.119  45.044  49.248
18774DA     SC421967  95.918  44.995  49.437
18775DA     BB121968  95.741  45.326  50.060
18775DA     BB221969  95.965  45.578  49.916
18775DA     BB321970  95.861  45.695  49.770
18775DA     SC121971  95.936  45.508  49.532
18775DA     SC221972  96.082  45.517  49.330
18775DA     SC321973  95.936  45.325  49.242
18775DA     SC421974  95.834  45.391  49.494
18776DG     BB121975  95.942  45.923  49.962
18776DG     BB221976  96.128  46.038  49.674
18776DG     BB321977  96.006  46.131  49.547
18776DG     SC121978  95.936  45.877  49.391
18776DG     SC221979  96.010  45.820  49.108
18776DG     SC321980  95.821  45.616  49.211
18776DG     SC421981  95.812  45.788  49.440
18777DA     BB121982  96.235  46.391  49.557
18777DA     BB221983  96.279  46.366  49.194
18777DA     BB321984  96.110  46.449  49.093
18777DA     SC121985  95.955  46.180  49.080
18777DA     SC221986  95.886  46.014  48.907
18777DA     SC321987  95.712  45.937  49.079
18777DA     SC421988  95.853  46.147  49.200
18778DA     BB121989  96.351  46.618  48.945
18778DA     BB221990  96.232  46.474  48.630
18778DA     BB321991  96.049  46.565  48.571
18778DA     SC121992  95.870  46.358  48.719
18778DA     SC221993  95.713  46.174  48.659
18778DA     SC321994  95.620  46.203  48.896
18778DA     SC421995  95.825  46.393  48.869
18779DT     BB121996  96.045  46.681  48.404
18779DT     BB221997  95.861  46.454  48.191
18779DT     BB321998  95.666  46.519  48.171
18779DT     SC121999  95.606  46.440  48.414
18779DT     SC222000  95.473  46.271  48.403
18779DT     SC322001  95.532  46.450  48.667
18780DC     BB122002  95.706  46.606  47.911
18780DC     BB222003  95.423  46.384  47.884
18780DC     BB322004  95.247  46.489  47.916
18780DC     SC122005  95.292  46.502  48.174
18780DC     SC222006  95.150  46.378  48.277
18780DC     SC322007  95.339  46.603  48.413
18781DA     BB122008  95.168  46.315  47.539
18781DA     BB222009  94.872  46.255  47.747
18781DA     BB322010  94.754  46.432  47.761
18781DA     SC122011  94.898  46.536  48.017
18781DA     SC222012  94.845  46.569  48.258
18781DA     SC322013  95.043  46.732  48.259
18781DA     SC422014  95.024  46.635  47.997
18782DA     BB122015  94.481  46.272  47.641
18782DA     BB222016  94.313  46.339  47.960
18782DA     BB322017  94.231  46.536  47.961
18782DA     SC122018  94.486  46.668  48.081
18782DA     SC222019  94.555  46.774  48.296
18782DA     SC322020  94.743  46.882  48.158
18782DA     SC422021  94.595  46.726  47.978
18783DA     BB122022  93.928  46.408  48.030
18783DA     BB222023  93.937  46.589  48.349
18783DA     BB322024  93.877  46.792  48.321
18783DA     SC122025  94.165  46.896  48.268
18783DA     SC222026  94.334  47.039  48.383
18783DA     SC322027  94.440  47.066  48.150
18783DA     SC422028  94.215  46.902  48.115
18784DA     BB122029  93.651  46.732  48.555
18784DA     BB222030  93.818  46.985  48.760
18784DA     BB322031  93.759  47.181  48.700
18784DA     SC122032  93.990  47.213  48.493
18784DA     SC222033  94.198  47.348  48.469
18784DA     SC322034  94.180  47.293  48.219
18784DA     SC422035  93.960  47.170  48.341
18785DA     BB122036  93.679  47.216  49.017
18785DA     BB222037  93.930  47.482  49.034
18785DA     BB322038  93.853  47.662  48.949
18785DA     SC122039  93.956  47.600  48.662
18785DA     SC222040  94.129  47.687  48.506
18785DA     SC322041  93.991  47.573  48.322
18785DA     SC422042  93.855  47.524  48.562
18786DG     BB122043  93.900  47.782  49.233
18786DG     BB222044  94.142  47.986  49.058
18786DG     BB322045  94.052  48.143  48.975
18786DG     SC122046  93.992  48.000  48.711
18786DG     SC222047  94.110  48.066  48.445
18786DG     SC322048  93.892  47.868  48.417
18786DG     SC422049  93.855  47.917  48.697
18787DA     BB122050  94.288  48.342  49.134
18787DA     BB222051  94.403  48.467  48.809
18787DA     BB322052  94.268  48.614  48.733
18787DA     SC122053  94.093  48.408  48.579
18787DA     SC222054  94.045  48.348  48.341
18787DA     SC322055  93.833  48.237  48.433
18787DA     SC422056  93.966  48.347  48.655
18788DG     BB122057  94.514  48.804  48.745
18788DG     BB222058  94.473  48.805  48.385
18788DG     BB322059  94.335  48.938  48.333
18788DG     SC122060  94.102  48.741  48.352
18788DG     SC222061  93.936  48.643  48.124
18788DG     SC322062  93.820  48.558  48.383
18788DG     SC422063  94.027  48.723  48.493
18789DC     BB122064  94.386  49.114  48.205
18789DC     BB222065  94.244  49.011  47.890
18789DC     BB322066  94.069  49.116  47.853
18789DC     SC122067  93.938  48.973  48.030
18789DC     SC222068  93.797  48.846  47.929
18789DC     SC322069  93.800  48.911  48.246
18790DA     BB122070  94.320  49.142  47.520
18790DA     BB222071  93.987  49.038  47.406
18790DA     BB322072  93.851  49.201  47.416
18790DA     SC122073  93.758  49.138  47.706
18790DA     SC222074  93.552  49.054  47.820
18790DA     SC322075  93.652  49.158  48.032
18790DA     SC422076  93.836  49.210  47.826
18791DC     BB122077  93.789  49.252  47.247
18791DC     BB222078  93.456  49.116  47.279
18791DC     BB322079  93.322  49.267  47.323
18791DC     SC122080  93.407  49.281  47.571
18791DC     SC222081  93.255  49.207  47.703
18791DC     SC322082  93.516  49.378  47.791
18792DA     BB122083  93.195  49.014  47.010
18792DA     BB222084  92.920  49.055  47.250
18792DA     BB322085  92.847  49.255  47.245
18792DA     SC122086  93.040  49.357  47.467
18792DA     SC222087  93.024  49.434  47.704
18792DA     SC322088  93.252  49.544  47.661
18792DA     SC422089  93.180  49.419  47.421
18793DA     BB122090  92.575  49.076  47.206
18793DA     BB222091  92.453  49.238  47.511
18793DA     BB322092  92.407  49.443  47.473
18793DA     SC122093  92.692  49.546  47.547
18793DA     SC222094  92.798  49.679  47.728
18793DA     SC322095  92.989  49.718  47.561
18793DA     SC422096  92.799  49.559  47.428
18794DT     BB122097  92.218  49.496  47.486
18794DT     BB222098  92.244  49.678  47.796
18794DT     BB322099  92.244  49.881  47.759
18794DT     SC122100  92.491  49.873  47.671
18794DT     SC222101  92.620  49.973  47.811
18794DT     SC322102  92.697  49.891  47.508
18795DA     BB122103  91.950  49.806  48.048
18795DA     BB222104  92.158  50.083  48.168
18795DA     BB322105  92.117  50.260  48.056
18795DA     SC122106  92.334  50.205  47.841
18795DA     SC222107  92.554  50.301  47.772
18795DA     SC322108  92.513  50.182  47.548
18795DA     SC422109  92.290  50.125  47.709
18796DA     BB122110  92.076  50.370  48.361
18796DA     BB222111  92.350  50.603  48.291
18796DA     BB322112  92.283  50.760  48.163
18796DA     SC122113  92.359  50.611  47.900
18796DA     SC222114  92.528  50.632  47.718
18796DA     SC322115  92.367  50.487  47.580
18796DA     SC422116  92.245  50.521  47.831
18797DA     BB122117  92.423  50.913  48.414
18797DA     BB222118  92.653  51.056  48.166
18797DA     BB322119  92.551  51.199  48.045
18797DA     SC122120  92.467  50.991  47.829
18797DA     SC222121  92.524  50.938  47.592
18797DA     SC322122  92.299  50.813  47.587
18797DA     SC422123  92.324  50.920  47.846
18798DT     BB122124  92.625  51.356  48.073
18798DT     BB222125  92.796  51.386  47.756
18798DT     BB322126  92.680  51.495  47.624
18798DT     SC122127  92.516  51.293  47.587
18798DT     SC222128  92.541  51.216  47.388
18798DT     SC322129  92.295  51.150  47.588
18799DT     BB122130  92.872  51.667  47.659
18799DT     BB222131  92.854  51.614  47.302
18799DT     BB322132  92.697  51.722  47.222
18799DT     SC122133  92.521  51.553  47.319
18799DT     SC222134  92.431  51.444  47.157
18799DT     SC322135  92.320  51.458  47.462
18800DA     BB122136  93.041  51.807  46.994
18800DA     BB222137  92.763  51.749  46.762
18800DA     BB322138  92.623  51.910  46.772
18800DA     SC122139  92.450  51.778  46.995
18800DA     SC222140  92.224  51.676  47.016
18800DA     SC322141  92.250  51.719  47.268
18800DA     SC422142  92.485  51.814  47.147
18801DT     BB122143  92.588  52.060  46.612
18801DT     BB222144  92.260  51.950  46.510
18801DT     BB322145  92.117  52.084  46.575
18801DT     SC122146  92.137  51.998  46.822
18801DT     SC222147  91.957  51.893  46.876
18801DT     SC322148  92.186  51.997  47.081
18802DT     BB122149  92.054  52.237  46.328
18802DT     BB222150  91.727  52.129  46.438
18802DT     BB322151  91.639  52.277  46.553
18802DT     SC122152  91.794  52.223  46.757
18802DT     SC222153  91.677  52.135  46.914
18802DT     SC322154  91.977  52.254  46.945
18803DA     BB122155  91.332  52.246  46.261
18803DA     BB222156  91.166  52.225  46.587
18803DA     BB322157  91.141  52.420  46.670
18803DA     SC122158  91.413  52.418  46.821
18803DA     SC222159  91.492  52.408  47.057
18803DA     SC322160  91.712  52.505  46.966
18803DA     SC422161  91.541  52.480  46.745
18804DA     BB122162  90.811  52.364  46.695
18804DA     BB222163  90.848  52.389  47.058
18804DA     BB322164  90.846  52.594  47.119
18804DA     SC122165  91.155  52.628  47.098
18804DA     SC222166  91.348  52.659  47.253
18804DA     SC322167  91.472  52.748  47.047
18804DA     SC422168  91.214  52.681  46.959
18805DG     BB122169  90.588  52.530  47.288
18805DG     BB222170  90.806  52.599  47.568
18805DG     BB322171  90.807  52.794  47.606
18805DG     SC122172  91.041  52.855  47.418
18805DG     SC222173  91.312  52.948  47.500
18805DG     SC322174  91.281  52.961  47.207
18805DG     SC422175  91.010  52.888  47.265
18806DT     BB122176  90.733  52.881  47.804
18806DT     BB222177  91.047  52.958  47.965
18806DT     BB322178  91.079  53.162  47.963
18806DT     SC122179  91.139  53.158  47.707
18806DT     SC222180  91.349  53.199  47.683
18806DT     SC322181  91.126  53.206  47.448
18807DT     BB122182  91.031  53.175  48.231
18807DT     BB222183  91.364  53.309  48.191
18807DT     BB322184  91.354  53.512  48.153
18807DT     SC122185  91.275  53.469  47.906
18807DT     SC222186  91.432  53.525  47.770
18807DT     SC322187  91.122  53.469  47.691
18808DT     BB122188  91.449  53.567  48.403
18808DT     BB222189  91.685  53.723  48.179
18808DT     BB322190  91.622  53.914  48.132
18808DT     SC122191  91.436  53.821  47.971
18808DT     SC222192  91.488  53.868  47.768
18808DT     SC322193  91.198  53.769  47.872
18809DC     BB122194  91.821  54.016  48.285
18809DC     BB222195  91.879  54.152  47.955
18809DC     BB322196  91.769  54.326  47.930
18809DC     SC122197  91.546  54.191  47.904
18809DC     SC222198  91.477  54.206  47.701
18809DC     SC322199  91.303  54.102  47.953
18810DG     BB122200  92.164  54.399  47.864
18810DG     BB222201  91.958  54.501  47.585
18810DG     BB322202  91.867  54.673  47.627
18810DG     SC122203  91.620  54.539  47.749
18810DG     SC222204  91.343  54.544  47.637
18810DG     SC322205  91.345  54.426  47.908
18810DG     SC422206  91.620  54.503  47.906
18811DT     BB122207  91.913  54.822  47.500
18811DT     BB222208  91.612  54.844  47.301
18811DT     BB322209  91.493  54.999  47.370
18811DT     SC122210  91.419  54.860  47.580
18811DT     SC222211  91.212  54.807  47.560
18811DT     SC322212  91.388  54.787  47.831
18812DT     BB122213  91.565  55.086  47.138
18812DT     BB222214  91.204  55.076  47.135
18812DT     BB322215  91.128  55.237  47.239
18812DT     SC122216  91.191  55.129  47.469
18812DT     SC222217  91.011  55.072  47.572
18812DT     SC322218  91.307  55.094  47.703
18813DT     BB122219  91.054  55.304  46.998
18813DT     BB222220  90.751  55.297  47.194
18813DT     BB322221  90.735  55.471  47.305
18813DT     SC122222  90.920  55.390  47.474
18813DT     SC222223  90.829  55.347  47.664
18813DT     SC322224  91.146  55.382  47.608
18814DT     BB122225  90.538  55.527  47.140
18814DT     BB222226  90.393  55.547  47.470
18814DT     BB322227  90.436  55.731  47.555
18814DT     SC122228  90.685  55.661  47.600
18814DT     SC222229  90.715  55.639  47.812
18814DT     SC322230  90.948  55.659  47.588
18815DC     BB122231  90.178  55.797  47.520
18815DC     BB222232  90.239  55.848  47.872
18815DC     BB322233  90.320  56.036  47.903
18815DC     SC122234  90.553  55.960  47.810
18815DC     SC222235  90.695  55.953  47.972
18815DC     SC322236  90.766  55.946  47.655
18816DT     BB122237  90.085  56.124  48.010
18816DT     BB222238  90.331  56.194  48.265
18816DT     BB322239  90.417  56.379  48.231
18816DT     SC122240  90.560  56.285  48.032
18816DT     SC222241  90.767  56.281  48.088
18816DT     SC322242  90.651  56.250  47.787
18817DT     BB122243  90.282  56.491  48.442
18817DT     BB222244  90.629  56.561  48.513
18817DT     BB322245  90.685  56.738  48.423
18817DT     SC122246  90.692  56.625  48.186
18817DT     SC222247  90.896  56.612  48.119
18817DT     SC322248  90.632  56.572  47.935
18818DA     BB122249  90.795  56.778  48.826
18818DA     BB222250  91.083  56.878  48.623
18818DA     BB322251  91.050  57.070  48.536
18818DA     SC122252  90.921  56.957  48.276
18818DA     SC222253  90.979  56.938  48.034
18818DA     SC322254  90.727  56.907  47.997
18818DA     SC422255  90.761  56.941  48.273
18819DT     BB122256  91.165  57.232  48.594
18819DT     BB222257  91.366  57.255  48.295
18819DT     BB322258  91.305  57.417  48.182
18819DT     SC122259  91.089  57.290  48.102
18819DT     SC222260  91.107  57.244  47.893
18819DT     SC322261  90.834  57.231  48.068
18820DA     BB122262  91.718  57.473  48.230
18820DA     BB222263  91.643  57.517  47.874
18820DA     BB322264  91.549  57.705  47.840
18820DA     SC122265  91.260  57.595  47.876
18820DA     SC222266  91.060  57.552  47.733
18820DA     SC322267  90.928  57.554  47.953
18820DA     SC422268  91.195  57.601  48.023
18821DG     BB122269  91.791  57.792  47.654
18821DG     BB222270  91.539  57.796  47.395
18821DG     BB322271  91.448  57.973  47.392
18821DG     SC122272  91.231  57.892  47.592
18821DG     SC222273  90.940  57.864  47.532
18821DG     SC322274  90.990  57.845  47.823
18821DG     SC422275  91.258  57.912  47.748
18822DA     BB122276  91.516  58.014  47.049
18822DA     BB222277  91.157  58.028  46.974
18822DA     BB322278  91.080  58.223  47.015
18822DA     SC122279  91.005  58.158  47.309
18822DA     SC222280  90.797  58.128  47.444
18822DA     SC322281  90.947  58.173  47.648
18822DA     SC422282  91.114  58.190  47.423
18823DC     BB122283  91.008  58.356  46.859
18823DC     BB222284  90.657  58.314  46.929
18823DC     BB322285  90.580  58.487  47.013
18823DC     SC122286  90.696  58.436  47.243
18823DC     SC222287  90.546  58.386  47.389
18823DC     SC322288  90.855  58.461  47.452
18824DA     BB122289  90.330  58.398  46.688
18824DA     BB222290  90.116  58.458  46.980
18824DA     BB322291  90.106  58.667  47.023
18824DA     SC122292  90.349  58.664  47.217
18824DA     SC222293  90.390  58.689  47.462
18824DA     SC322294  90.632  58.742  47.395
18824DA     SC422295  90.494  58.695  47.156
18825DC     BB122296  89.926  58.772  46.999
18825DC     BB222297  89.849  58.804  47.350
18825DC     BB322298  89.879  59.000  47.411
18825DC     SC122299  90.139  58.970  47.407
18825DC     SC222300  90.215  58.973  47.609
18825DC     SC322301  90.392  59.003  47.339
18826DT     BB122302  89.608  59.045  47.430
18826DT     BB222303  89.734  59.124  47.759
18826DT     BB322304  89.790  59.323  47.767
18826DT     SC122305  90.007  59.275  47.628
18826DT     SC222306  90.180  59.297  47.754
18826DT     SC322307  90.182  59.282  47.430
18827DT     BB122308  89.571  59.394  47.922
18827DT     BB222309  89.856  59.500  48.117
18827DT     BB322310  89.908  59.694  48.067
18827DT     SC122311  90.014  59.616  47.840
18827DT     SC222312  90.227  59.639  47.850
18827DT     SC322313  90.053  59.588  47.581
18828DG     BB122314  89.826  59.709  48.467
18828DG     BB222315  90.153  59.847  48.396
18828DG     BB322316  90.135  60.034  48.331
18828DG     SC122317  90.112  59.956  48.036
18828DG     SC222318  90.311  60.016  47.822
18828DG     SC322319  90.063  59.905  47.706
18828DG     SC422320  89.967  59.924  47.975
18829DA     BB122321  90.364  60.119  48.575
18829DA     BB222322  90.594  60.241  48.318
18829DA     BB322323  90.533  60.434  48.248
18829DA     SC122324  90.355  60.321  48.019
18829DA     SC222325  90.359  60.313  47.770
18829DA     SC322326  90.107  60.268  47.788
18829DA     SC422327  90.200  60.296  48.051
18830DT     BB122328  90.655  60.583  48.288
18830DT     BB222329  90.786  60.619  47.953
18830DT     BB322330  90.703  60.785  47.863
18830DT     SC122331  90.474  60.662  47.827
18830DT     SC222332  90.445  60.625  47.617
18830DT     SC322333  90.217  60.604  47.847
18831DC     BB122334  90.946  60.886  47.885
18831DC     BB222335  90.872  60.896  47.533
18831DC     BB322336  90.761  61.065  47.488
18831DC     SC122337  90.545  60.961  47.594
18831DC     SC222338  90.403  60.918  47.439
18831DC     SC322339  90.339  60.928  47.756
18832DC     BB122340  90.982  61.132  47.368
18832DC     BB222341  90.726  61.145  47.114
18832DC     BB322342  90.621  61.323  47.128
18832DC     SC122343  90.493  61.239  47.342
18832DC     SC222344  90.286  61.206  47.293
18832DC     SC322345  90.410  61.225  47.592
18833DT     BB122346  90.743  61.388  46.902
18833DT     BB222347  90.391  61.425  46.832
18833DT     BB322348  90.325  61.610  46.898
18833DT     SC122349  90.330  61.531  47.149
18833DT     SC222350  90.129  61.515  47.223
18833DT     SC322351  90.399  61.518  47.403
18834DA     BB122352  90.202  61.573  46.498
18834DA     BB222353  89.915  61.695  46.692
18834DA     BB322354  89.944  61.899  46.747
18834DA     SC122355  90.083  61.832  47.017
18834DA     SC222356  90.032  61.849  47.261
18834DA     SC322357  90.286  61.831  47.295
18834DA     SC422358  90.244  61.821  47.018
18835DT     BB122359  89.826  62.060  46.667
18835DT     BB222360  89.633  62.127  46.964
18835DT     BB322361  89.695  62.306  47.050
18835DT     SC122362  89.914  62.195  47.142
18835DT     SC222363  89.903  62.181  47.356
18835DT     SC322364  90.170  62.144  47.177
18836DC     BB122365  89.471  62.458  46.967
18836DC     BB222366  89.478  62.505  47.325
18836DC     BB322367  89.591  62.673  47.372
18836DC     SC122368  89.815  62.546  47.321
18836DC     SC222369  89.922  62.514  47.505
18836DC     SC322370  90.044  62.483  47.206
18837DG     BB122371  89.224  62.771  47.527
18837DG     BB222372  89.482  62.808  47.777
18837DG     BB322373  89.573  62.984  47.755
18837DG     SC122374  89.786  62.878  47.562
18837DG     SC222375  90.078  62.857  47.618
18837DG     SC322376  90.021  62.801  47.333
18837DG     SC422377  89.755  62.878  47.405
18838DT     BB122378  89.571  63.159  47.915
18838DT     BB222379  89.904  63.128  48.051
18838DT     BB322380  90.021  63.286  47.986
18838DT     SC122381  90.042  63.182  47.746
18838DT     SC222382  90.244  63.115  47.715
18838DT     SC322383  90.019  63.154  47.485
18839DT     BB122384  90.017  63.400  48.236
18839DT     BB222385  90.368  63.353  48.164
18839DT     BB322386  90.442  63.519  48.065
18839DT     SC122387  90.323  63.448  47.842
18839DT     SC222388  90.472  63.388  47.698
18839DT     SC322389  90.161  63.456  47.634
18840DA     BB122390  90.691  63.435  48.391
18840DA     BB222391  90.903  63.477  48.094
18840DA     BB322392  90.913  63.683  48.039
18840DA     SC122393  90.668  63.668  47.848
18840DA     SC222394  90.625  63.680  47.602
18840DA     SC322395  90.384  63.736  47.668
18840DA     SC422396  90.524  63.703  47.909
18841DG     BB122397  91.214  63.635  48.088
18841DG     BB222398  91.236  63.709  47.734
18841DG     BB322399  91.233  63.906  47.706
18841DG     SC122400  90.928  63.922  47.683
18841DG     SC222401  90.774  63.994  47.437
18841DG     SC322402  90.596  63.979  47.673
18841DG     SC422403  90.841  63.942  47.816
18842DA     BB122404  91.516  63.851  47.516
18842DA     BB222405  91.350  64.000  47.225
18842DA     BB322406  91.340  64.212  47.247
18842DA     SC122407  91.063  64.209  47.388
18842DA     SC222408  90.829  64.276  47.336
18842DA     SC322409  90.793  64.275  47.590
18842DA     SC422410  91.062  64.204  47.549
18843DT     BB122411  91.445  64.319  47.119
18843DT     BB222412  91.169  64.445  46.924
18843DT     BB322413  91.129  64.641  46.975
18843DT     SC122414  91.017  64.568  47.201
18843DT     SC222415  90.806  64.605  47.191
18843DT     SC322416  90.975  64.541  47.460
18844DT     BB122417  91.235  64.730  46.739
18844DT     BB222418  90.903  64.871  46.745
18844DT     BB322419  90.906  65.053  46.844
18844DT     SC122420  90.927  64.934  47.077
18844DT     SC222421  90.743  64.960  47.187
18844DT     SC322422  91.026  64.859  47.310
18845DA     BB122423  90.727  65.147  46.475
18845DA     BB222424  90.519  65.297  46.737
18845DA     BB322425  90.613  65.472  46.815
18845DA     SC122426  90.765  65.320  47.040
18845DA     SC222427  90.757  65.302  47.288
18845DA     SC322428  90.997  65.214  47.269
18845DA     SC422429  90.914  65.269  47.007
18846DA     BB122430  90.336  65.647  46.739
18846DA     BB222431  90.300  65.723  47.096
18846DA     BB322432  90.429  65.883  47.152
18846DA     SC122433  90.668  65.699  47.227
18846DA     SC222434  90.788  65.627  47.434
18846DA     SC322435  90.979  65.563  47.276
18846DA     SC422436  90.776  65.666  47.113
18847DA     BB122437  90.167  66.061  47.270
18847DA     BB222438  90.320  66.046  47.603
18847DA     BB322439  90.467  66.200  47.624
18847DA     SC122440  90.701  66.022  47.522
18847DA     SC222441  90.905  65.914  47.615
18847DA     SC322442  90.987  65.905  47.372
18847DA     SC422443  90.735  66.027  47.364
18848DA     BB122444  90.308  66.319  47.895
18848DA     BB222445  90.604  66.231  48.093
18848DA     BB322446  90.750  66.386  48.081
18848DA     SC122447  90.894  66.264  47.833
18848DA     SC222448  91.112  66.154  47.782
18848DA     SC322449  91.063  66.217  47.538
18848DA     SC422450  90.846  66.313  47.688
18849DT     BB122451  90.814  66.518  48.254
18849DT     BB222452  91.126  66.346  48.313
18849DT     BB322453  91.285  66.469  48.265
18849DT     SC122454  91.243  66.435  48.008
18849DT     SC222455  91.403  66.318  47.924
18849DT     SC322456  91.185  66.490  47.756
18850DC     BB122457  91.346  66.496  48.529
18850DC     BB222458  91.639  66.347  48.380
18850DC     BB322459  91.766  66.496  48.311
18850DC     SC122460  91.610  66.545  48.106
18850DC     SC222461  91.708  66.480  47.925
18850DC     SC322462  91.448  66.673  47.942
18851DG     BB122463  91.947  66.240  48.568
18851DG     BB222464  92.124  66.264  48.253
18851DG     BB322465  92.225  66.435  48.245
18851DG     SC122466  91.995  66.594  48.120
18851DG     SC222467  91.991  66.710  47.845
18851DG     SC322468  91.758  66.803  48.002
18851DG     SC422469  91.888  66.665  48.216
18852DG     BB122470  92.436  66.200  48.182
18852DG     BB222471  92.474  66.369  47.865
18852DG     BB322472  92.571  66.541  47.890
18852DG     SC122473  92.318  66.705  47.939
18852DG     SC222474  92.210  66.919  47.760
18852DG     SC322475  92.063  66.912  48.017
18852DG     SC422476  92.261  66.718  48.088
18853DT     BB122477  92.731  66.539  47.784
18853DT     BB222478  92.656  66.777  47.523
18853DT     BB322479  92.723  66.965  47.578
18853DT     SC122480  92.525  66.995  47.748
18853DT     SC222481  92.390  67.145  47.674
18853DT     SC322482  92.396  67.026  47.975
18854DA     BB122483  92.860  66.873  47.190
18854DA     BB222484  92.721  67.212  47.187
18854DA     BB322485  92.848  67.345  47.297
18854DA     SC122486  92.701  67.301  47.567
18854DA     SC222487  92.554  67.431  47.721
18854DA     SC322488  92.624  67.260  47.899
18854DA     SC422489  92.757  67.186  47.664
18855DC     BB122490  92.947  67.492  47.197
18855DC     BB222491  92.749  67.769  47.316
18855DC     BB322492  92.853  67.874  47.461
18855DC     SC122493  92.810  67.686  47.639
18855DC     SC222494  92.675  67.759  47.789
18855DC     SC322495  92.858  67.493  47.812
18856DA     BB122496  92.740  68.163  47.179
18856DA     BB222497  92.646  68.289  47.510
18856DA     BB322498  92.819  68.355  47.616
18856DA     SC122499  92.872  68.078  47.749
18856DA     SC222500  92.860  67.978  47.977
18856DA     SC322501  93.018  67.798  47.884
18856DA     SC422502  92.972  67.977  47.673
18857DC     BB122503  92.837  68.551  47.659
18857DC     BB222504  92.756  68.523  48.010
18857DC     BB322505  92.928  68.543  48.124
18857DC     SC122506  93.008  68.302  48.059
18857DC     SC222507  92.997  68.174  48.232
18857DC     SC322508  93.155  68.108  47.957
18858DA     BB122509  92.628  68.798  48.266
18858DA     BB222510  92.762  68.608  48.549
18858DA     BB322511  92.959  68.676  48.597
18858DA     SC122512  93.101  68.472  48.409
18858DA     SC222513  93.244  68.269  48.431
18858DA     SC322514  93.315  68.317  48.189
18858DA     SC422515  93.133  68.520  48.259
18859DC     BB122516  92.948  68.738  48.757
18859DC     BB222517  93.125  68.471  48.923
18859DC     BB322518  93.325  68.519  48.941
18859DC     SC122519  93.367  68.473  48.686
18859DC     SC222520  93.488  68.296  48.665
18859DC     SC322521  93.429  68.514  48.433
18860DA     BB122522  93.151  68.370  49.296
18860DA     BB222523  93.473  68.203  49.242
18860DA     BB322524  93.633  68.343  49.262
18860DA     SC122525  93.636  68.420  48.961
18860DA     SC222526  93.785  68.388  48.763
18860DA     SC322527  93.659  68.587  48.662
18860DA     SC422528  93.547  68.546  48.915
18861DA     BB122529  93.726  68.097  49.463
18861DA     BB222530  94.034  68.083  49.265
18861DA     BB322531  94.153  68.257  49.299
18861DA     SC122532  94.025  68.419  49.066
18861DA     SC222533  94.093  68.505  48.842
18861DA     SC322534  93.895  68.667  48.866
18861DA     SC422535  93.898  68.512  49.100
18862DT     BB122536  94.328  68.239  49.394
18862DT     BB222537  94.545  68.304  49.114
18862DT     BB322538  94.617  68.498  49.123
18862DT     SC122539  94.386  68.595  49.046
18862DT     SC222540  94.405  68.677  48.848
18862DT     SC322541  94.159  68.730  49.052
18863DT     BB122542  94.876  68.429  49.207
18863DT     BB222543  94.933  68.631  48.914
18863DT     BB322544  94.949  68.830  48.968
18863DT     SC122545  94.690  68.849  49.007
18863DT     SC222546  94.604  68.974  48.854
18863DT     SC322547  94.460  68.884  49.130
18864DG     BB122548  95.316  68.761  48.796
18864DG     BB222549  95.157  69.050  48.648
18864DG     BB322550  95.183  69.210  48.764
18864DG     SC122551  94.930  69.163  48.928
18864DG     SC222552  94.688  69.338  48.931
18864DG     SC322553  94.670  69.131  49.141
18864DG     SC422554  94.937  69.070  49.058
18865DA     BB122555  95.314  69.389  48.492
18865DA     BB222556  95.042  69.634  48.520
18865DA     BB322557  95.083  69.771  48.678
18865DA     SC122558  94.937  69.602  48.895
18865DA     SC222559  94.729  69.618  49.032
18865DA     SC322560  94.843  69.448  49.187
18865DA     SC422561  95.025  69.498  48.979
18866DT     BB122562  95.119  69.972  48.637
18866DT     BB222563  94.798  70.095  48.748
18866DT     BB322564  94.819  70.194  48.929
18866DT     SC122565  94.847  69.967  49.058
18866DT     SC222566  94.673  69.933  49.180
18866DT     SC322567  94.956  69.776  49.203
18867DC     BB122568  94.779  70.433  48.806
18867DC     BB222569  94.522  70.416  49.059
18867DC     BB322570  94.595  70.486  49.239
18867DC     SC122571  94.735  70.268  49.277
18867DC     SC222572  94.650  70.156  49.440
18867DC     SC322573  94.943  70.108  49.310
18868DT     BB122574  94.445  70.711  49.214
18868DT     BB222575  94.342  70.566  49.529
18868DT     BB322576  94.468  70.630  49.680
18868DT     SC122577  94.660  70.472  49.598
18868DT     SC222578  94.688  70.314  49.742
18868DT     SC322579  94.893  70.393  49.504
18869DT     BB122580  94.274  70.795  49.785
18869DT     BB222581  94.362  70.574  50.057
18869DT     BB322582  94.522  70.653  50.163
18869DT     SC122583  94.690  70.587  49.972
18869DT     SC222584  94.818  70.428  50.041
18869DT     SC322585  94.868  70.612  49.778
18870DT     BB122586  94.363  70.721  50.377
18870DT     BB222587  94.613  70.500  50.515
18870DT     BB322588  94.779  70.608  50.573
18870DT     SC122589  94.855  70.641  50.324
18870DT     SC222590  95.034  70.527  50.289
18870DT     SC322591  94.916  70.760  50.097
18871DA     BB122592  94.662  70.375  50.900
18871DA     BB222593  95.019  70.316  50.841
18871DA     BB322594  95.134  70.484  50.906
18871DA     SC122595  95.124  70.629  50.631
18871DA     SC222596  95.282  70.686  50.447
18871DA     SC322597  95.109  70.863  50.381
18871DA     SC422598  95.005  70.734  50.607
18872DT     BB122599  95.248  70.441  51.048
18872DT     BB222600  95.551  70.434  50.852
18872DT     BB322601  95.657  70.609  50.880
18872DT     SC122602  95.490  70.744  50.730
18872DT     SC222603  95.587  70.801  50.547
18872DT     SC322604  95.308  70.922  50.659
18873DA     BB122605  95.891  70.262  50.917
18873DA     BB222606  96.061  70.495  50.690
18873DA     BB322607  96.132  70.665  50.798
18873DA     SC122608  95.872  70.831  50.756
18873DA     SC222609  95.801  71.033  50.628
18873DA     SC322610  95.605  71.044  50.793
18873DA     SC422611  95.758  70.821  50.869
18874DT     BB122612  96.302  70.659  50.780
18874DT     BB222613  96.334  70.939  50.555
18874DT     BB322614  96.371  71.112  50.662
18874DT     SC122615  96.121  71.125  50.741
18874DT     SC222616  96.024  71.292  50.646
18874DT     SC322617  95.911  71.127  50.901
18875DA     BB122618  96.639  71.066  50.340
18875DA     BB222619  96.512  71.410  50.339
18875DA     BB322620  96.587  71.517  50.508
18875DA     SC122621  96.348  71.442  50.692
18875DA     SC222622  96.153  71.557  50.798
18875DA     SC322623  96.150  71.358  50.960
18875DA     SC422624  96.363  71.311  50.784
18876DT     BB122625  96.704  71.661  50.464
18876DT     BB222626  96.482  71.933  50.548
18876DT     BB322627  96.529  72.008  50.735
18876DT     SC122628  96.421  71.800  50.854
18876DT     SC222629  96.242  71.862  50.955
18876DT     SC322630  96.398  71.582  50.999
18877DT     BB122631  96.641  72.234  50.627
18877DT     BB222632  96.395  72.359  50.859
18877DT     BB322633  96.478  72.376  51.048
18877DT     SC122634  96.470  72.117  51.084
18877DT     SC222635  96.323  72.069  51.233
18877DT     SC322636  96.552  71.869  51.122
18878DA     BB122637  96.325  72.763  50.980
18878DA     BB222638  96.212  72.659  51.313
18878DA     BB322639  96.373  72.673  51.453
18878DA     SC122640  96.469  72.380  51.408
18878DA     SC222641  96.473  72.165  51.535
18878DA     SC322642  96.658  72.096  51.371
18878DA     SC422643  96.584  72.356  51.297
18879DA     BB122644  96.174  72.868  51.635
18879DA     BB222645  96.190  72.614  51.899
18879DA     BB322646  96.372  72.632  52.008
18879DA     SC122647  96.529  72.435  51.826
18879DA     SC222648  96.627  72.206  51.842
18879DA     SC322649  96.771  72.275  51.641
18879DA     SC422650  96.611  72.497  51.702
18880DT     BB122651  96.380  72.693  52.217
18880DT     BB222652  96.444  72.364  52.350
18880DT     BB322653  96.638  72.353  52.421
18880DT     SC122654  96.734  72.340  52.176
18880DT     SC222655  96.814  72.144  52.141
18880DT     SC322656  96.867  72.406  51.958
18881DG     BB122657  96.396  72.264  52.735
18881DG     BB222658  96.641  72.004  52.680
18881DG     BB322659  96.816  72.059  52.756
18881DG     SC122660  96.913  72.194  52.499
18881DG     SC222661  97.139  72.103  52.327
18881DG     SC322662  97.042  72.369  52.241
18881DG     SC422663  96.878  72.349  52.475
18882DA     BB122664  96.805  71.753  52.912
18882DA     BB222665  97.115  71.655  52.743
18882DA     BB322666  97.282  71.751  52.833
18882DA     SC122667  97.272  71.999  52.647
18882DA     SC222668  97.409  72.097  52.462
18882DA     SC322669  97.287  72.317  52.516
18882DA     SC422670  97.187  72.126  52.696
18883DT     BB122671  97.411  71.632  52.924
18883DT     BB222672  97.672  71.654  52.676
18883DT     BB322673  97.823  71.779  52.742
18883DT     SC122674  97.677  71.992  52.697
18883DT     SC222675  97.760  72.102  52.532
18883DT     SC322676  97.539  72.213  52.742
18884DA     BB122677  98.000  71.418  52.622
18884DA     BB222678  98.188  71.693  52.468
18884DA     BB322679  98.307  71.793  52.615
18884DA     SC122680  98.087  72.000  52.688
18884DA     SC222681  98.047  72.245  52.660
18884DA     SC322682  97.880  72.219  52.853
18884DA     SC422683  97.988  71.964  52.810
18885DA     BB122684  98.547  71.727  52.401
18885DA     BB222685  98.598  72.089  52.373
18885DA     BB322686  98.702  72.163  52.544
18885DA     SC122687  98.444  72.223  52.707
18885DA     SC222688  98.319  72.424  52.788
18885DA     SC322689  98.211  72.263  52.956
18885DA     SC422690  98.389  72.108  52.804
18886DC     BB122691  98.891  72.237  52.520
18886DC     BB222692  98.803  72.586  52.556
18886DC     BB322693  98.865  72.656  52.740
18886DC     SC122694  98.671  72.530  52.863
18886DC     SC222695  98.529  72.673  52.938
18886DC     SC322696  98.546  72.360  53.022
18887DT     BB122697  99.060  72.800  52.617
18887DT     BB222698  98.868  73.044  52.800
18887DT     BB322699  98.940  73.061  52.994
18887DT     SC122700  98.831  72.832  53.062
18887DT     SC222701  98.669  72.868  53.198
18887DT     SC322702  98.810  72.582  53.143
18888DA     BB122703  98.899  73.437  52.815
18888DA     BB222704  98.741  73.448  53.145
18888DA     BB322705  98.889  73.443  53.299
18888DA     SC122706  98.889  73.133  53.322
18888DA     SC222707  98.816  72.960  53.487
18888DA     SC322708  98.977  72.803  53.363
18888DA     SC422709  98.994  73.051  53.233
18889DA     BB122710  98.696  73.696  53.367
18889DA     BB222711  98.633  73.529  53.687
18889DA     BB322712  98.809  73.533  53.809
18889DA     SC122713  98.919  73.262  53.703
18889DA     SC222714  98.953  73.031  53.789
18889DA     SC322715  99.120  73.005  53.595
18889DA     SC422716  99.019  73.267  53.577
18890DT     BB122717  98.775  73.630  53.954
18890DT     BB222718  98.773  73.362  54.195
18890DT     BB322719  98.959  73.346  54.285
18890DT     SC122720  99.062  73.235  54.070
18890DT     SC222721  99.107  73.029  54.110
18890DT     SC322722  99.214  73.201  53.857
18891DT     BB122723  98.847  73.445  54.506
18891DT     BB222724  99.006  73.140  54.616
18891DT     BB322725  99.206  73.175  54.657
18891DT     SC122726  99.264  73.186  54.401
18891DT     SC222727  99.381  73.014  54.346
18891DT     SC322728  99.343  73.283  54.169
18892DA     BB122729  99.061  72.995  55.008
18892DA     BB222730  99.377  72.830  54.923
18892DA     BB322731  99.542  72.959  54.967
18892DA     SC122732  99.547  73.089  54.685
18892DA     SC222733  99.696  73.089  54.485
18892DA     SC322734  99.576  73.307  54.421
18892DA     SC422735  99.463  73.224  54.664
18893DA     BB122736  99.668  72.715  55.158
18893DA     BB222737  99.962  72.711  54.939
18893DA     BB322738 100.094  72.871  54.989
18893DA     SC122739  99.964  73.073  54.791
18893DA     SC222740 100.024  73.187  54.578
18893DA     SC322741  99.839  73.355  54.640
18893DA     SC422742  99.846  73.167  54.848
18894DT     BB122743 100.292  72.842  55.077
18894DT     BB222744 100.482  72.920  54.780
18894DT     BB322745 100.577  73.103  54.803
18894DT     SC122746 100.352  73.233  54.769
18894DT     SC222747 100.357  73.337  54.581
18894DT     SC322748 100.144  73.388  54.820
18895DT     BB122749 100.823  72.984  54.832
18895DT     BB222750 100.868  73.211  54.555
18895DT     BB322751 100.925  73.397  54.625
18895DT     SC122752 100.682  73.449  54.710
18895DT     SC222753 100.595  73.603  54.587
18895DT     SC322754 100.482  73.501  54.874
18896DC     BB122755 101.179  73.359  54.532
18896DC     BB222756 101.072  73.666  54.375
18896DC     BB322757 101.114  73.827  54.499
18896DC     SC122758 100.915  73.766  54.659
18896DC     SC222759 100.761  73.915  54.641
18896DC     SC322760 100.784  73.694  54.876
18897DA     BB122761 101.285  73.924  54.128
18897DA     BB222762 101.095  74.217  54.242
18897DA     BB322763 101.199  74.315  54.400
18897DA     SC122764 101.060  74.152  54.626
18897DA     SC222765 100.894  74.192  54.807
18897DA     SC322766 100.989  73.978  54.914
18897DA     SC422767 101.133  74.018  54.676
18898DT     BB122768 101.295  74.518  54.386
18898DT     BB222769 101.054  74.696  54.586
18898DT     BB322770 101.138  74.749  54.768
18898DT     SC122771 101.121  74.502  54.856
18898DT     SC222772 100.972  74.492  55.011
18898DT     SC322773 101.194  74.265  54.945
18899DT     BB122774 101.196  75.040  54.730
18899DT     BB222775 100.997  75.038  55.031
18899DT     BB322776 101.121  75.037  55.197
18899DT     SC122777 101.181  74.784  55.161
18899DT     SC222778 101.092  74.666  55.317
18899DT     SC322779 101.323  74.567  55.113
18900DA     BB122780 100.920  75.400  55.305
18900DA     BB222781 100.900  75.181  55.598
18900DA     BB322782 101.079  75.196  55.714
18900DA     SC122783 101.222  74.963  55.565
18900DA     SC222784 101.296  74.730  55.614
18900DA     SC322785 101.454  74.759  55.414
18900DA     SC422786 101.314  75.001  55.439
18901DG     BB122787 100.945  75.323  55.989
18901DG     BB222788 101.021  74.996  56.125
18901DG     BB322789 101.194  75.002  56.223
18901DG     SC122790 101.363  74.931  55.977
18901DG     SC222791 101.518  74.679  55.938
18901DG     SC322792 101.580  74.875  55.726
18901DG     SC422793 101.415  75.049  55.883
18902DA     BB122794 101.020  74.867  56.482
18902DA     BB222795 101.219  74.561  56.452
18902DA     BB322796 101.408  74.585  56.550
18902DA     SC122797 101.553  74.690  56.295
18902DA     SC222798 101.727  74.610  56.136
18902DA     SC322799 101.757  74.857  56.075
18902DA     SC422800 101.557  74.849  56.272
18903DA     BB122801 101.262  74.317  56.648
18903DA     BB222802 101.550  74.143  56.502
18903DA     BB322803 101.726  74.179  56.618
18903DA     SC122804 101.811  74.431  56.456
18903DA     SC222805 101.991  74.495  56.297
18903DA     SC322806 101.932  74.737  56.359
18903DA     SC422807 101.760  74.574  56.509
18904DA     BB122808 101.672  73.866  56.542
18904DA     BB222809 102.003  73.883  56.385
18904DA     BB322810 102.153  73.920  56.533
18904DA     SC122811 102.137  74.229  56.507
18904DA     SC222812 102.280  74.415  56.421
18904DA     SC322813 102.136  74.567  56.569
18904DA     SC422814 102.037  74.307  56.606
18905DA     BB122815 102.235  73.671  56.334
18905DA     BB222816 102.539  73.866  56.270
18905DA     BB322817 102.655  73.883  56.448
18905DA     SC122818 102.519  74.148  56.539
18905DA     SC222819 102.581  74.389  56.561
18905DA     SC322820 102.381  74.404  56.721
18905DA     SC422821 102.392  74.137  56.636
18906DA     BB122822 102.867  73.776  56.221
18906DA     BB222823 103.068  74.072  56.304
18906DA     BB322824 103.149  74.053  56.501
18906DA     SC122825 102.907  74.193  56.639
18906DA     SC222826 102.861  74.408  56.757
18906DA     SC322827 102.659  74.286  56.858
18906DA     SC422828 102.788  74.099  56.692
18907DT     BB122829 103.347  74.033  56.522
18907DT     BB222830 103.419  74.356  56.664
18907DT     BB322831 103.449  74.339  56.868
18907DT     SC122832 103.193  74.307  56.912
18907DT     SC222833 103.115  74.481  57.013
18907DT     SC322834 102.965  74.195  56.984
18908DG     BB122835 103.814  74.490  56.751
18908DG     BB222836 103.684  74.681  57.029
18908DG     BB322837 103.724  74.588  57.200
18908DG     SC122838 103.465  74.424  57.200
18908DG     SC222839 103.240  74.452  57.395
18908DG     SC322840 103.202  74.215  57.222
18908DG     SC422841 103.463  74.282  57.127
18909DA     BB122842 103.894  74.863  57.359
18909DA     BB222843 103.646  74.872  57.629
18909DA     BB322844 103.694  74.729  57.779
18909DA     SC122845 103.527  74.500  57.650
18909DA     SC222846 103.318  74.374  57.700
18909DA     SC322847 103.411  74.197  57.539
18909DA     SC422848 103.603  74.402  57.548
18910DC     BB122849 103.770  74.768  58.005
18910DC     BB222850 103.455  74.686  58.162
18910DC     BB322851 103.475  74.514  58.275
18910DC     SC122852 103.477  74.364  58.059
18910DC     SC222853 103.296  74.249  58.050
18910DC     SC322854 103.563  74.197  57.874
18911DT     BB122855 103.474  74.638  58.533
18911DT     BB222856 103.197  74.407  58.547
18911DT     BB322857 103.260  74.227  58.628
18911DT     SC122858 103.384  74.162  58.406
18911DT     SC222859 103.279  73.999  58.311
18911DT     SC322860 103.579  74.101  58.239
18912DA     BB122861 102.921  74.356  58.836
18912DA     BB222862 102.864  74.010  58.727
18912DA     BB322863 102.979  73.875  58.845
18912DA     SC122864 103.225  73.881  58.655
18912DA     SC222865 103.340  73.726  58.497
18912DA     SC322866 103.543  73.881  58.524
18912DA     SC422867 103.341  73.989  58.686
18913DA     BB122868 102.675  73.762  58.857
18913DA     BB222869 102.809  73.459  58.701
18913DA     BB322870 102.928  73.350  58.840
18913DA     SC122871 103.194  73.493  58.762
18913DA     SC222872 103.407  73.435  58.646
18913DA     SC322873 103.503  73.641  58.765
18913DA     SC422874 103.235  73.623  58.846
18914DT     BB122875 102.850  73.192  58.868
18914DT     BB222876 103.087  72.990  58.687
18914DT     BB322877 103.226  72.909  58.817
18914DT     SC122878 103.348  73.140  58.842
18914DT     SC222879 103.541  73.130  58.747
18914DT     SC322880 103.443  73.360  58.952
18915DA     BB122881 103.068  72.611  58.567
18915DA     BB222882 103.433  72.574  58.574
18915DA     BB322883 103.497  72.504  58.766
18915DA     SC122884 103.535  72.789  58.885
18915DA     SC222885 103.723  72.936  58.957
18915DA     SC322886 103.546  73.063  59.092
18915DA     SC422887 103.410  72.854  58.963
18916DA     BB122888 103.645  72.274  58.581
18916DA     BB222889 103.962  72.385  58.728
18916DA     BB322890 103.979  72.317  58.929
18916DA     SC122891 103.846  72.570  59.052
18916DA     SC222892 103.916  72.765  59.190
18916DA     SC322893 103.666  72.788  59.247
18916DA     SC422894 103.688  72.566  59.076
18917DG     BB122895 104.238  72.150  58.849
18917DG     BB222896 104.404  72.371  59.082
18917DG     BB322897 104.388  72.300  59.267
18917DG     SC122898 104.126  72.445  59.327
18917DG     SC222899 104.089  72.664  59.526
18917DG     SC322900 103.828  72.573  59.421
18917DG     SC422901 103.987  72.373  59.291
18918DC     BB122902 104.569  72.217  59.417
18918DC     BB222903 104.593  72.494  59.647
18918DC     BB322904 104.519  72.439  59.832
18918DC     SC122905 104.272  72.451  59.746
18918DC     SC222906 104.172  72.618  59.838
18918DC     SC322907 104.028  72.375  59.679
18919DT     BB122908 104.771  72.419  59.961
18919DT     BB222909 104.590  72.661  60.159
18919DT     BB322910 104.491  72.565  60.314
18919DT     SC122911 104.309  72.471  60.149
18919DT     SC222912 104.121  72.569  60.187
18919DT     SC322913 104.163  72.299  60.013
18920DC     BB122914 104.666  72.667  60.499
18920DC     BB222915 104.343  72.787  60.603
18920DC     BB322916 104.254  72.650  60.730
18920DC     SC122917 104.198  72.489  60.530
18920DC     SC222918 103.986  72.486  60.497
18920DC     SC322919 104.200  72.275  60.376
18921DT     BB122920 104.295  72.830  60.920
18921DT     BB222921 103.938  72.777  60.915
18921DT     BB322922 103.890  72.611  61.030
18921DT     SC122923 103.979  72.448  60.846
18921DT     SC222924 103.814  72.343  60.757
18921DT     SC322925 104.127  72.263  60.728
18922DA     BB122926 103.653  72.949  61.111
18922DA     BB222927 103.434  72.659  61.065
18922DA     BB322928 103.457  72.522  61.227
18922DA     SC122929 103.683  72.359  61.088
18922DA     SC222930 103.712  72.132  60.988
18922DA     SC322931 103.963  72.172  61.020
18922DA     SC422932 103.835  72.402  61.117
18923DT     BB122933 103.303  72.513  61.313
18923DT     BB222934 103.208  72.182  61.205
18923DT     BB322935 103.263  72.042  61.348
18923DT     SC122936 103.516  72.060  61.280
18923DT     SC222937 103.577  71.877  61.185
18923DT     SC322938 103.774  72.108  61.297
18924DT     BB122939 103.004  72.024  61.381
18924DT     BB222940 103.115  71.689  61.308
18924DT     BB322941 103.193  71.601  61.478
18924DT     SC122942 103.412  71.744  61.461
18924DT     SC222943 103.577  71.616  61.410
18924DT     SC322944 103.600  71.918  61.523
18925DA     BB122945 102.913  71.341  61.303
18925DA     BB222946 103.213  71.147  61.387
18925DA     BB322947 103.229  71.124  61.599
18925DA     SC122948 103.400  71.382  61.638
18925DA     SC222949 103.634  71.440  61.699
18925DA     SC322950 103.540  71.671  61.757
18925DA     SC422951 103.322  71.518  61.670
18926DT     BB122952 103.210  70.943  61.668
18926DT     BB222953 103.554  70.888  61.761
18926DT     BB322954 103.577  70.912  61.965
18926DT     SC122955 103.559  71.173  61.945
18926DT     SC222956 103.751  71.261  61.987
18926DT     SC322957 103.468  71.419  61.974
18927DA     BB122958 103.742  70.533  61.887
18927DA     BB222959 103.978  70.712  62.103
18927DA     BB322960 103.904  70.720  62.303
18927DA     SC122961 103.755  70.990  62.263
18927DA     SC222962 103.777  71.227  62.339
18927DA     SC322963 103.529  71.249  62.275
18927DA     SC422964 103.600  70.984  62.219
18928DG     BB122965 104.156  70.554  62.412
18928DG     BB222966 104.228  70.855  62.599
18928DG     BB322967 104.129  70.852  62.771
18928DG     SC122968 103.880  70.991  62.659
18928DG     SC222969 103.783  71.263  62.732
18928DG     SC322970 103.584  71.122  62.564
18928DG     SC422971 103.764  70.901  62.594
18929DT     BB122972 104.214  70.838  63.014
18929DT     BB222973 104.163  71.179  63.121
18929DT     BB322974 104.009  71.187  63.260
18929DT     SC122975 103.828  71.152  63.072
18929DT     SC222976 103.716  71.334  63.047
18929DT     SC322977 103.633  71.043  62.932
18930DT     BB122978 104.155  71.218  63.519
18930DT     BB222979 103.931  71.501  63.518
18930DT     BB322980 103.760  71.455  63.625
18930DT     SC122981 103.670  71.304  63.430
18930DT     SC222982 103.499  71.399  63.339
18930DT     SC322983 103.588  71.090  63.300
18931DA     BB122984 103.878  71.799  63.842
18931DA     BB222985 103.529  71.851  63.745
18931DA     BB322986 103.398  71.749  63.880
18931DA     SC122987 103.393  71.486  63.713
18931DA     SC222988 103.229  71.360  63.573
18931DA     SC322989 103.384  71.159  63.611
18931DA     SC422990 103.501  71.373  63.749
18932DC     BB122991 103.260  71.853  64.014
18932DC     BB222992 102.968  71.792  63.811
18932DC     BB322993 102.842  71.658  63.907
18932DC     SC122994 103.001  71.457  63.849
18932DC     SC222995 102.906  71.330  63.704
18932DC     SC322996 103.166  71.253  63.882
18933DA     BB122997 102.632  71.997  63.783
18933DA     BB222998 102.458  71.700  63.656
18933DA     BB322999 102.361  71.598  63.816
18933DA     SC123000 102.604  71.414  63.878
18933DA     SC223001 102.664  71.173  63.856
18933DA     SC323002 102.843  71.222  64.033
18933DA     SC423003 102.709  71.464  63.990
18934DT     BB123004 102.188  71.602  63.783
18934DT     BB223005 102.155  71.258  63.681
18934DT     BB323006 102.090  71.143  63.840
18934DT     SC123007 102.326  71.152  63.954
18934DT     SC223008 102.417  70.957  63.946
18934DT     SC323009 102.514  71.205  64.131
18935DT     BB123010 101.883  71.131  63.685
18935DT     BB223011 101.987  70.789  63.738
18935DT     BB323012 101.924  70.724  63.924
18935DT     SC123013 102.108  70.865  64.046
18935DT     SC223014 102.254  70.733  64.131
18935DT     SC323015 102.219  71.047  64.201
18936DA     BB123016 101.834  70.450  63.616
18936DA     BB223017 101.984  70.268  63.897
18936DA     BB323018 101.851  70.267  64.064
18936DA     SC123019 101.966  70.528  64.188
18936DA     SC223020 102.100  70.595  64.387
18936DA     SC323021 102.006  70.830  64.347
18936DA     SC423022 101.896  70.667  64.147
18937DG     BB123023 101.881  69.962  64.019
18937DG     BB223024 102.024  69.975  64.351
18937DG     BB323025 101.879  69.988  64.487
18937DG     SC123026 101.873  70.294  64.486
18937DG     SC223027 101.952  70.472  64.712
18937DG     SC323028 101.825  70.628  64.496
18937DG     SC423029 101.778  70.370  64.381
18938DC     BB123030 101.851  69.830  64.634
18938DC     BB223031 101.974  69.986  64.936
18938DC     BB323032 101.815  70.049  65.052
18938DC     SC123033 101.768  70.252  64.892
18938DC     SC223034 101.819  70.435  64.993
18938DC     SC323035 101.643  70.409  64.721
18939DA     BB123036 102.056  69.816  65.304
18939DA     BB223037 101.980  70.129  65.480
18939DA     BB323038 101.778  70.128  65.547
18939DA     SC123039 101.666  70.261  65.289
18939DA     SC223040 101.568  70.480  65.221
18939DA     SC323041 101.473  70.352  65.020
18939DA     SC423042 101.616  70.164  65.171
18940DA     BB123043 101.920  70.193  65.837
18940DA     BB223044 101.734  70.509  65.837
18940DA     BB323045 101.529  70.474  65.885
18940DA     SC123046 101.440  70.436  65.589
18940DA     SC223047 101.304  70.558  65.420
18940DA     SC323048 101.287  70.332  65.300
18940DA     SC423049 101.440  70.286  65.531
18941DT     BB123050 101.453  70.547  66.060
18941DT     BB223051 101.262  70.817  65.915
18941DT     BB323052 101.061  70.770  65.919
18941DT     SC123053 101.089  70.600  65.720
18941DT     SC223054 100.993  70.679  65.545
18941DT     SC323055 101.091  70.373  65.587
18942DT     BB123056 101.018  70.953  66.117
18942DT     BB223057 100.795  71.054  65.852
18942DT     BB323058 100.615  70.953  65.869
18942DT     SC123059 100.722  70.731  65.779
18942DT     SC223060 100.643  70.688  65.583
18942DT     SC323061 100.806  70.481  65.772
18943DG     BB123062 100.520  71.350  65.888
18943DG     BB223063 100.323  71.180  65.636
18943DG     BB323064 100.173  71.083  65.721
18943DG     SC123065 100.331  70.824  65.762
18943DG     SC223066 100.279  70.563  65.626
18943DG     SC323067 100.480  70.531  65.840
18943DG     SC423068 100.416  70.805  65.896
18944DT     BB123069  99.951  71.132  65.683
18944DT     BB223070  99.854  70.857  65.470
18944DT     BB323071  99.737  70.724  65.576
18944DT     SC123072  99.945  70.631  65.706
18944DT     SC223073  99.986  70.430  65.642
18944DT     SC323074 100.107  70.573  65.906
18945DT     BB123075  99.514  70.803  65.439
18945DT     BB223076  99.534  70.448  65.379
18945DT     BB323077  99.436  70.346  65.530
18945DT     SC123078  99.630  70.391  65.700
18945DT     SC223079  99.733  70.207  65.742
18945DT     SC323080  99.759  70.482  65.911
18946DT     BB123081  99.235  70.283  65.357
18946DT     BB223082  99.354  69.964  65.477
18946DT     BB323083  99.255  69.913  65.652
18946DT     SC123084  99.393  70.088  65.791
18946DT     SC223085  99.527  69.984  65.923
18946DT     SC323086  99.449  70.298  65.940
18947DA     BB123087  99.236  69.592  65.384
18947DA     BB223088  99.347  69.463  65.709
18947DA     BB323089  99.185  69.462  65.848
18947DA     SC123090  99.242  69.748  65.955
18947DA     SC223091  99.326  69.853  66.165
18947DA     SC323092  99.215  70.067  66.078
18947DA     SC423093  99.166  69.871  65.884
18948DA     BB123094  99.297  69.156  65.865
18948DA     BB223095  99.357  69.222  66.221
18948DA     BB323096  99.172  69.230  66.327
18948DA     SC123097  99.135  69.536  66.289
18948DA     SC223098  99.140  69.742  66.430
18948DA     SC323099  99.005  69.851  66.241
18948DA     SC423100  99.050  69.585  66.161
18949DT     BB123101  99.152  69.091  66.454
18949DT     BB223102  99.194  69.290  66.752
18949DT     BB323103  99.009  69.332  66.836
18949DT     SC123104  98.956  69.509  66.649
18949DT     SC223105  98.957  69.706  66.736
18949DT     SC323106  98.836  69.626  66.445
18950DA     BB123107  99.257  69.178  67.137
18950DA     BB223108  99.091  69.477  67.270
18950DA     BB323109  98.884  69.437  67.306
18950DA     SC123110  98.793  69.526  67.022
18950DA     SC223111  98.664  69.714  66.920
18950DA     SC323112  98.632  69.557  66.720
18950DA     SC423113  98.783  69.413  66.908
18951DC     BB123114  98.810  69.433  67.499
18951DC     BB223115  98.624  69.741  67.486
18951DC     BB323116  98.421  69.701  67.472
18951DC     SC123117  98.444  69.631  67.220
18951DC     SC223118  98.348  69.779  67.097
18951DC     SC323119  98.440  69.483  67.003
18952DT     BB123120  98.371  69.773  67.735
18952DT     BB223121  98.143  69.978  67.544
18952DT     BB323122  97.965  69.877  67.515
18952DT     SC123123  98.074  69.720  67.335
18952DT     SC223124  97.994  69.768  67.141
18952DT     SC323125  98.163  69.501  67.217
18953DG     BB123126  97.844  70.212  67.717
18953DG     BB223127  97.651  70.169  67.414
18953DG     BB323128  97.506  70.036  67.444
18953DG     SC123129  97.676  69.795  67.362
18953DG     SC223130  97.633  69.624  67.121
18953DG     SC323131  97.839  69.507  67.298
18953DG     SC423132  97.764  69.720  67.473
18954DT     BB123133  97.275  70.082  67.434
18954DT     BB223134  97.191  69.934  67.116
18954DT     BB323135  97.083  69.759  67.146
18954DT     SC123136  97.299  69.629  67.220
18954DT     SC223137  97.350  69.485  67.069
18954DT     SC323138  97.467  69.495  67.371
18955DC     BB123139  96.853  69.879  67.059
18955DC     BB223140  96.894  69.595  66.840
18955DC     BB323141  96.805  69.428  66.924
18955DC     SC123142  97.000  69.401  67.097
18955DC     SC223143  97.115  69.226  67.049
18955DC     SC323144  97.127  69.391  67.328
18956DT     BB123145  96.608  69.442  66.738
18956DT     BB223146  96.748  69.112  66.697
18956DT     BB323147  96.657  68.980  66.827
18956DT     SC123148  96.788  69.078  67.032
18956DT     SC223149  96.930  68.933  67.102
18956DT     SC323150  96.835  69.197  67.262
18957DA     BB123151  96.641  68.813  66.443
18957DA     BB223152  96.766  68.556  66.672
18957DA     BB323153  96.608  68.483  66.796
18957DA     SC123154  96.657  68.692  67.022
18957DA     SC223155  96.742  68.693  67.256
18957DA     SC323156  96.620  68.918  67.277
18957DA     SC423157  96.574  68.829  67.015
18958DT     BB123158  96.547  68.291  66.774
18958DT     BB223159  96.694  68.163  67.078
18958DT     BB323160  96.546  68.133  67.220
18958DT     SC123161  96.525  68.391  67.265
18958DT     SC223162  96.602  68.435  67.461
18958DT     SC323163  96.421  68.632  67.278
18959DC     BB123164  96.561  67.859  67.192
18959DC     BB223165  96.620  67.916  67.543
18959DC     BB323166  96.440  67.920  67.646
18959DC     SC123167  96.383  68.159  67.553
18959DC     SC223168  96.393  68.302  67.713
18959DC     SC323169  96.259  68.351  67.423
18960DA     BB123170  96.673  67.635  67.849
18960DA     BB223171  96.536  67.866  68.099
18960DA     BB323172  96.329  67.826  68.132
18960DA     SC123173  96.230  68.023  67.914
18960DA     SC223174  96.111  68.242  67.903
18960DA     SC323175  96.057  68.178  67.660
18960DA     SC423176  96.206  67.965  67.766
18961DT     BB123177  96.257  67.749  68.319
18961DT     BB223178  96.112  68.058  68.436
18961DT     BB323179  95.906  68.046  68.430
18961DT     SC123180  95.903  68.071  68.169
18961DT     SC223181  95.820  68.262  68.116
18961DT     SC323182  95.865  68.012  67.915
18962DA     BB123183  96.019  68.174  68.813
18962DA     BB223184  95.763  68.405  68.687
18962DA     BB323185  95.572  68.311  68.689
18962DA     SC123186  95.596  68.199  68.400
18962DA     SC223187  95.492  68.240  68.177
18962DA     SC323188  95.576  68.005  68.117
18962DA     SC423189  95.655  68.050  68.383
18963DT     BB123190  95.442  68.390  68.811
18963DT     BB223191  95.245  68.556  68.558
18963DT     BB323192  95.070  68.451  68.525
18963DT     SC123193  95.198  68.265  68.391
18963DT     SC223194  95.144  68.276  68.183
18963DT     SC323195  95.297  68.028  68.327
18964DA     BB123196  94.995  68.858  68.587
18964DA     BB223197  94.819  68.752  68.283
18964DA     BB323198  94.655  68.626  68.333
18964DA     SC123199  94.820  68.363  68.315
18964DA     SC223200  94.834  68.163  68.166
18964DA     SC323201  94.949  68.048  68.364
18964DA     SC423202  94.888  68.308  68.450
18965DT     BB123203  94.507  68.708  68.283
18965DT     BB223204  94.433  68.498  67.999
18965DT     BB323205  94.298  68.350  68.053
18965DT     SC123206  94.483  68.217  68.182
18965DT     SC223207  94.527  68.035  68.077
18965DT     SC323208  94.614  68.104  68.381
18966DA     BB123209  94.196  68.549  67.695
18966DA     BB223210  94.165  68.187  67.643
18966DA     BB323211  94.003  68.109  67.758
18966DA     SC123212  94.178  68.047  68.008
18966DA     SC223213  94.264  67.845  68.127
18966DA     SC323214  94.296  68.002  68.327
18966DA     SC423215  94.189  68.160  68.121
18967DG     BB123216  93.931  68.029  67.470
18967DG     BB223217  93.953  67.696  67.609
18967DG     BB323218  93.793  67.659  67.721
18967DG     SC123219  93.918  67.767  67.979
18967DG     SC223220  93.989  67.606  68.220
18967DG     SC323221  94.016  67.896  68.275
18967DG     SC423222  93.902  67.923  68.013
18968DT     BB123223  93.666  67.501  67.663
18968DT     BB223224  93.725  67.251  67.916
18968DT     BB323225  93.577  67.260  68.061
18968DT     SC123226  93.679  67.478  68.164
18968DT     SC223227  93.762  67.433  68.357
18968DT     SC323228  93.702  67.730  68.240
18969DT     BB123229  93.447  67.030  67.972
18969DT     BB223230  93.497  66.967  68.324
18969DT     BB323231  93.337  67.041  68.432
18969DT     SC123232  93.421  67.288  68.401
18969DT     SC223233  93.489  67.365  68.590
18969DT     SC323234  93.425  67.541  68.325
18970DA     BB123235  93.307  66.638  68.569
18970DA     BB223236  93.286  66.850  68.868
18970DA     BB323237  93.090  66.931  68.888
18970DA     SC123238  93.154  67.189  68.725
18970DA     SC223239  93.181  67.433  68.769
18970DA     SC323240  93.139  67.461  68.517
18970DA     SC423241  93.124  67.186  68.567
18971DC     BB123242  92.881  66.890  69.057
18971DC     BB223243  92.928  67.196  69.243
18971DC     BB323244  92.764  67.319  69.219
18971DC     SC123245  92.837  67.382  68.975
18971DC     SC223246  92.900  67.588  68.970
18971DC     SC323247  92.833  67.404  68.712
18972DT     BB123248  92.610  67.292  69.479
18972DT     BB223249  92.675  67.646  69.458
18972DT     BB323250  92.510  67.744  69.380
18972DT     SC123251  92.563  67.656  69.138
18972DT     SC223252  92.627  67.821  69.015
18972DT     SC323253  92.537  67.528  68.909
18973DT     BB123254  92.417  67.865  69.623
18973DT     BB223255  92.479  68.144  69.404
18973DT     BB323256  92.306  68.196  69.304
18973DT     SC123257  92.325  67.988  69.145
18973DT     SC223258  92.372  68.053  68.946
18973DT     SC323259  92.268  67.758  69.029
18974DT     BB123260  92.279  68.426  69.452
18974DT     BB223261  92.303  68.540  69.111
18974DT     BB323262  92.115  68.547  69.025
18974DT     SC123263  92.107  68.285  69.003
18974DT     SC223264  92.119  68.231  68.795
18974DT     SC323265  92.029  68.036  69.038
18975DG     BB123266  92.288  68.914  68.999
18975DG     BB223267  92.182  68.793  68.676
18975DG     BB323268  91.985  68.814  68.657
18975DG     SC123269  91.919  68.539  68.773
18975DG     SC223270  91.799  68.310  68.624
18975DG     SC323271  91.810  68.253  68.914
18975DG     SC423272  91.900  68.524  68.931
18976DG     BB123273  92.058  68.990  68.394
18976DG     BB223274  91.884  68.734  68.208
18976DG     BB323275  91.688  68.766  68.216
18976DG     SC123276  91.647  68.598  68.469
18976DG     SC223277  91.497  68.341  68.487
18976DG     SC323278  91.570  68.440  68.757
18976DG     SC423279  91.662  68.669  68.612
18977DA     BB123280  91.714  68.734  67.875
18977DA     BB223281  91.483  68.450  67.888
18977DA     BB323282  91.284  68.518  67.923
18977DA     SC123283  91.306  68.498  68.233
18977DA     SC223284  91.212  68.357  68.416
18977DA     SC323285  91.277  68.551  68.571
18977DA     SC423286  91.352  68.630  68.312
18978DT     BB123287  91.170  68.482  67.779
18978DT     BB223288  90.991  68.210  67.933
18978DT     BB323289  90.808  68.276  68.003
18978DT     SC123290  90.922  68.398  68.206
18978DT     SC223291  90.871  68.296  68.388
18978DT     SC323292  91.000  68.593  68.366
18979DA     BB123293  90.777  67.925  67.776
18979DA     BB223294  90.593  67.879  68.090
18979DA     BB323295  90.418  68.000  68.092
18979DA     SC123296  90.559  68.245  68.224
18979DA     SC223297  90.555  68.363  68.443
18979DA     SC323298  90.658  68.560  68.315
18979DA     SC423299  90.621  68.356  68.126
18980DG     BB123300  90.331  67.711  68.134
18980DG     BB223301  90.221  67.848  68.451
18980DG     BB323302  90.058  67.959  68.423
18980DG     SC123303  90.214  68.218  68.374
18980DG     SC223304  90.216  68.458  68.551
18980DG     SC323305  90.352  68.515  68.295
18980DG     SC423306  90.260  68.254  68.225
18981DT     BB123307  89.926  67.886  68.532
18981DT     BB223308  89.882  68.134  68.790
18981DT     BB323309  89.737  68.271  68.733
18981DT     SC123310  89.901  68.386  68.563
18981DT     SC223311  89.953  68.582  68.635
18981DT     SC323312  90.003  68.470  68.335
18982DT     BB123313  89.616  68.152  68.927
18982DT     BB223314  89.608  68.504  69.006
18982DT     BB323315  89.463  68.599  68.893
18982DT     SC123316  89.613  68.587  68.678
18982DT     SC223317  89.679  68.785  68.625
18982DT     SC323318  89.693  68.523  68.435
18983DA     BB123319  89.407  68.706  69.296
18983DA     BB223320  89.381  69.010  69.093
18983DA     BB323321  89.201  69.007  68.977
18983DA     SC123322  89.333  68.868  68.732
18983DA     SC223323  89.396  68.927  68.498
18983DA     SC323324  89.396  68.674  68.456
18983DA     SC423325  89.326  68.707  68.725
18984DG     BB123326  89.115  69.270  69.129
18984DG     BB223327  89.122  69.416  68.798
18984DG     BB323328  88.951  69.377  68.703
18984DG     SC123329  89.051  69.114  68.582
18984DG     SC223330  89.097  69.061  68.292
18984DG     SC323331  89.119  68.811  68.449
18984DG     SC423332  89.032  68.978  68.665
18985DT     BB123333  88.778  69.534  68.631
18985DT     BB223334  88.830  69.539  68.274
18985DT     BB323335  88.677  69.437  68.179
18985DT     SC123336  88.775  69.205  68.253
18985DT     SC223337  88.851  69.101  68.081
18985DT     SC323338  88.793  68.970  68.371
18986DC     BB123339  88.528  69.663  68.078
18986DC     BB223340  88.590  69.466  67.782
18986DC     BB323341  88.431  69.337  67.748
18986DC     SC123342  88.507  69.180  67.944
18986DC     SC223343  88.580  68.994  67.863
18986DC     SC323344  88.503  69.050  68.173
18987DA     BB123345  88.439  69.539  67.377
18987DA     BB223346  88.436  69.180  67.302
18987DA     BB323347  88.239  69.101  67.323
18987DA     SC123348  88.273  69.027  67.623
18987DA     SC223349  88.291  68.820  67.761
18987DA     SC323350  88.223  68.969  67.958
18987DA     SC423351  88.229  69.136  67.732
18988DA     BB123352  88.254  68.990  67.007
18988DA     BB223353  88.232  68.649  67.141
18988DA     BB323354  88.029  68.597  67.179
18988DA     SC123355  88.032  68.700  67.473
18988DA     SC223356  88.023  68.603  67.703
18988DA     SC323357  87.950  68.837  67.777
18988DA     SC423358  87.986  68.852  67.499
18989DT     BB123359  87.918  68.439  67.067
18989DT     BB223360  87.941  68.191  67.328
18989DT     BB323361  87.754  68.158  67.410
18989DT     SC123362  87.761  68.386  67.540
18989DT     SC223363  87.779  68.347  67.751
18989DT     SC323364  87.698  68.630  67.616
18990DT     BB123365  87.745  67.913  67.292
18990DT     BB223366  87.722  67.847  67.646
18990DT     BB323367  87.525  67.854  67.707
18990DT     SC123368  87.521  68.116  67.692
18990DT     SC223369  87.507  68.199  67.890
18990DT     SC323370  87.455  68.359  67.613
18991DT     BB123371  87.555  67.595  67.741
18991DT     BB223372  87.473  67.726  68.066
18991DT     BB323373  87.267  67.747  68.084
18991DT     SC123374  87.267  67.958  67.929
18991DT     SC223375  87.220  68.133  68.047
18991DT     SC323376  87.216  68.115  67.723
18992DG     BB123377  87.457  67.536  68.378
18992DG     BB223378  87.255  67.807  68.509
18992DG     BB323379  87.062  67.762  68.490
18992DG     SC123380  87.035  67.886  68.211
18992DG     SC223381  86.875  68.128  68.142
18992DG     SC323382  86.975  67.995  67.898
18992DG     SC423383  87.066  67.796  68.083
18993DT     BB123384  86.985  67.767  68.663
18993DT     BB223385  86.783  68.065  68.653
18993DT     BB323386  86.590  68.018  68.594
18993DT     SC123387  86.665  67.985  68.345
18993DT     SC223388  86.584  68.144  68.224
18993DT     SC323389  86.714  67.868  68.113
18994DC     BB123390  86.542  68.083  68.841
18994DC     BB223391  86.329  68.296  68.641
18994DC     BB323392  86.162  68.190  68.580
18994DC     SC123393  86.301  68.057  68.402
18994DC     SC223394  86.244  68.120  68.204
18994DC     SC323395  86.416  67.855  68.277
18995DT     BB123396  86.028  68.343  68.750
18995DT     BB223397  85.862  68.389  68.433
18995DT     BB323398  85.727  68.236  68.400
18995DT     SC123399  85.921  68.067  68.345
18995DT     SC223400  85.915  68.018  68.136
18995DT     SC323401  86.082  67.859  68.364
18996DA     BB123402  85.525  68.599  68.340
18996DA     BB223403  85.447  68.378  68.058
18996DA     BB323404  85.317  68.221  68.121
18996DA     SC123405  85.548  68.026  68.195
18996DA     SC223406  85.645  67.813  68.108
18996DA     SC323407  85.746  67.787  68.342
18996DA     SC423408  85.601  68.027  68.346
18997DT     BB123409  85.129  68.215  68.048
18997DT     BB223410  85.173  67.934  67.827
18997DT     BB323411  85.084  67.765  67.909
18997DT     SC123412  85.279  67.738  68.083
18997DT     SC223413  85.394  67.564  68.034
18997DT     SC323414  85.405  67.726  68.314
18998DA     BB123415  84.934  67.802  67.519
18998DA     BB223416  85.041  67.454  67.565
18998DA     BB323417  84.904  67.351  67.692
18998DA     SC123418  85.056  67.420  67.954
18998DA     SC223419  85.192  67.300  68.126
18998DA     SC323420  85.140  67.501  68.277
18998DA     SC423421  85.011  67.553  68.033
18999DA     BB123422  84.897  67.140  67.438
18999DA     BB223423  85.018  66.884  67.671
18999DA     BB323424  84.860  66.820  67.799
18999DA     SC123425  84.921  67.031  68.020
18999DA     SC223426  85.011  67.035  68.252
18999DA     SC323427  84.897  67.264  68.271
18999DA     SC423428  84.842  67.171  68.012
19000DC     BB123429  84.787  66.628  67.785
19000DC     BB223430  84.931  66.500  68.090
19000DC     BB323431  84.784  66.482  68.235
19000DC     SC123432  84.779  66.742  68.273
19000DC     SC223433  84.861  66.787  68.467
19000DC     SC323434  84.689  66.989  68.281
19001DT     BB123435  84.766  66.201  68.221
19001DT     BB223436  84.830  66.263  68.571
19001DT     BB323437  84.651  66.284  68.673
19001DT     SC123438  84.614  66.524  68.573
19001DT     SC223439  84.636  66.671  68.729
19001DT     SC323440  84.506  66.723  68.437
19002DG     BB123441  84.813  65.959  68.865
19002DG     BB223442  84.717  66.214  69.103
19002DG     BB323443  84.522  66.201  69.142
19002DG     SC123444  84.440  66.391  68.916
19002DG     SC223445  84.318  66.661  68.951
19002DG     SC323446  84.313  66.579  68.667
19002DG     SC423447  84.412  66.331  68.770
19003DG     BB123448  84.565  66.146  69.470
19003DG     BB223449  84.398  66.462  69.523
19003DG     BB323450  84.201  66.435  69.533
19003DG     SC123451  84.156  66.469  69.232
19003DG     SC223452  84.008  66.693  69.102
19003DG     SC323453  84.073  66.482  68.905
19003DG     SC423454  84.167  66.341  69.136
19004DC     BB123455  84.080  66.482  69.719
19004DC     BB223456  83.924  66.791  69.619
19004DC     BB323457  83.723  66.759  69.578
19004DC     SC123458  83.780  66.642  69.351
19004DC     SC223459  83.718  66.768  69.188
19004DC     SC323460  83.799  66.455  69.166
19005DT     BB123461  83.671  66.897  69.801
19005DT     BB223462  83.503  67.077  69.538
19005DT     BB323463  83.316  66.994  69.503
19005DT     SC123464  83.423  66.788  69.379
19005DT     SC223465  83.375  66.799  69.170
19005DT     SC323466  83.491  66.540  69.325
19006DT     BB123467  83.233  67.219  69.607
19006DT     BB223468  83.084  67.203  69.280
19006DT     BB323469  82.915  67.083  69.284
19006DT     SC123470  83.062  66.865  69.296
19006DT     SC223471  83.044  66.757  69.111
19006DT     SC323472  83.167  66.642  69.388
19007DG     BB123473  82.826  67.453  69.138
19007DG     BB223474  82.706  67.189  68.921
19007DG     BB323475  82.545  67.103  69.001
19007DG     SC123476  82.705  66.893  69.156
19007DG     SC223477  82.703  66.599  69.106
19007DG     SC323478  82.849  66.662  69.355
19007DG     SC423479  82.757  66.928  69.304
19008DC     BB123480  82.358  67.113  68.898
19008DC     BB223481  82.314  66.775  68.781
19008DC     BB323482  82.183  66.673  68.905
19008DC     SC123483  82.366  66.651  69.092
19008DC     SC223484  82.426  66.445  69.110
19008DC     SC323485  82.489  66.680  69.324
19009DT     BB123486  81.971  66.681  68.724
19009DT     BB223487  82.003  66.330  68.803
19009DT     BB323488  81.887  66.284  68.968
19009DT     SC123489  82.057  66.400  69.131
19009DT     SC223490  82.155  66.251  69.250
19009DT     SC323491  82.155  66.570  69.307
19010DA     BB123492  81.730  66.005  68.691
19010DA     BB223493  81.803  65.819  68.998
19010DA     BB323494  81.650  65.852  69.143
19010DA     SC123495  81.792  66.097  69.272
19010DA     SC223496  81.906  66.152  69.487
19010DA     SC323497  81.862  66.397  69.424
19010DA     SC423498  81.754  66.243  69.216
19011DA     BB123499  81.585  65.520  69.171
19011DA     BB223500  81.697  65.538  69.519
19011DA     BB323501  81.537  65.601  69.646
19011DA     SC123502  81.605  65.904  69.621
19011DA     SC223503  81.695  66.085  69.766
19011DA     SC323504  81.589  66.246  69.597
19011DA     SC423505  81.531  65.987  69.505
19012DG     BB123506  81.550  65.325  69.802
19012DG     BB223507  81.666  65.535  70.073
19012DG     BB323508  81.511  65.601  70.179
19012DG     SC123509  81.472  65.853  70.011
19012DG     SC223510  81.514  66.134  70.103
19012DG     SC323511  81.387  66.129  69.835
19012DG     SC423512  81.377  65.846  69.881
19013DT     BB123513  81.487  65.548  70.397
19013DT     BB223514  81.593  65.858  70.549
19013DT     BB323515  81.429  65.959  70.625
19013DT     SC123516  81.353  66.031  70.385
19013DT     SC223517  81.381  66.243  70.362
19013DT     SC323518  81.205  66.053  70.167
19014DA     BB123519  81.740  65.928  70.903
19014DA     BB223520  81.634  66.279  70.886
19014DA     BB323521  81.441  66.302  70.976
19014DA     SC123522  81.285  66.254  70.711
19014DA     SC223523  81.147  66.387  70.551
19014DA     SC323524  81.054  66.161  70.475
19014DA     SC423525  81.239  66.104  70.678
19015DT     BB123526  81.464  66.408  71.113
19015DT     BB223527  81.305  66.700  70.973
19015DT     BB323528  81.107  66.709  71.033
19015DT     SC123529  81.040  66.516  70.868
19015DT     SC223530  80.919  66.597  70.709
19015DT     SC323531  80.954  66.283  70.781
19016DC     BB123532  81.197  66.913  71.166
19016DC     BB223533  80.926  67.041  70.966
19016DC     BB323534  80.745  66.996  71.055
19016DC     SC123535  80.763  66.744  70.983
19016DC     SC223536  80.615  66.703  70.832
19016DC     SC323537  80.782  66.482  71.000
19017DA     BB123538  80.749  67.406  70.964
19017DA     BB223539  80.426  67.269  70.856
19017DA     BB323540  80.305  67.223  71.026
19017DA     SC123541  80.408  66.930  71.049
19017DA     SC223542  80.319  66.700  71.014
19017DA     SC323543  80.512  66.624  71.164
19017DA     SC423544  80.533  66.903  71.146
19018DC     BB123545  80.130  67.331  71.068
19018DC     BB223546  79.892  67.075  70.981
19018DC     BB323547  79.810  66.993  71.153
19018DC     SC123548  80.029  66.859  71.203
19018DC     SC223549  79.993  66.649  71.175
19018DC     SC323550  80.248  66.778  71.327
19019DC     BB123551  79.555  67.123  71.137
19019DC     BB223552  79.468  66.773  71.162
19019DC     BB323553  79.442  66.721  71.361
19019DC     SC123554  79.700  66.724  71.405
19019DC     SC223555  79.770  66.524  71.438
19019DC     SC323556  79.934  66.795  71.504
19020DT     BB123557  79.150  66.708  71.369
19020DT     BB223558  79.252  66.382  71.487
19020DT     BB323559  79.261  66.381  71.693
19020DT     SC123560  79.485  66.519  71.692
19020DT     SC223561  79.647  66.393  71.757
19020DT     SC323562  79.655  66.716  71.732
19021DT     BB123563  79.020  66.231  71.748
19021DT     BB223564  79.278  66.038  71.910
19021DT     BB323565  79.293  66.093  72.109
19021DT     SC123566  79.413  66.318  72.046
19021DT     SC223567  79.618  66.309  72.110
19021DT     SC323568  79.458  66.576  72.020
19022DT     BB123569  79.182  65.857  72.188
19022DT     BB223570  79.507  65.863  72.344
19022DT     BB323571  79.496  65.959  72.527
19022DT     SC123572  79.478  66.194  72.411
19022DT     SC223573  79.659  66.305  72.446
19022DT     SC323574  79.380  66.427  72.335
19023DA     BB123575  79.689  65.589  72.563
19023DA     BB223576  79.900  65.847  72.716
19023DA     BB323577  79.813  65.915  72.899
19023DA     SC123578  79.652  66.145  72.764
19023DA     SC223579  79.656  66.394  72.757
19023DA     SC323580  79.412  66.376  72.679
19023DA     SC423581  79.501  66.113  72.718
19024DA     BB123582  80.121  65.835  72.963
19024DA     BB223583  80.163  66.186  73.059
19024DA     BB323584  80.057  66.227  73.240
19024DA     SC123585  79.794  66.310  73.095
19024DA     SC223586  79.663  66.519  73.056
19024DA     SC323587  79.466  66.361  73.007
19024DA     SC423588  79.684  66.196  73.069
19025DA     BB123589  80.363  66.336  73.270
19025DA     BB223590  80.209  66.664  73.324
19025DA     BB323591  80.102  66.666  73.509
19025DA     SC123592  79.833  66.574  73.382
19025DA     SC223593  79.608  66.671  73.335
19025DA     SC323594  79.528  66.428  73.322
19025DA     SC423595  79.802  66.416  73.380
19026DA     BB123596  80.298  66.928  73.504
19026DA     BB223597  79.991  67.123  73.544
19026DA     BB323598  79.905  67.089  73.737
19026DA     SC123599  79.728  66.851  73.642
19026DA     SC223600  79.485  66.805  73.607
19026DA     SC323601  79.552  66.557  73.621
19026DA     SC423602  79.789  66.703  73.655
19027DT     BB123603  79.909  67.241  73.826
19027DT     BB223604  79.554  67.308  73.819
19027DT     BB323605  79.465  67.237  73.992
19027DT     SC123606  79.483  66.989  73.909
19027DT     SC223607  79.286  66.914  73.866
19027DT     SC323608  79.555  66.735  73.899
19028DT     BB123609  79.437  67.492  74.054
19028DT     BB223610  79.104  67.352  74.073
19028DT     BB323611  79.078  67.257  74.255
19028DT     SC123612  79.226  67.055  74.179
19028DT     SC223613  79.102  66.881  74.154
19028DT     SC323614  79.425  66.882  74.173
19029DT     BB123615  78.915  67.458  74.327
19029DT     BB223616  78.718  67.159  74.373
19029DT     BB323617  78.759  67.075  74.558
19029DT     SC123618  78.990  66.984  74.473
19029DT     SC223619  78.982  66.770  74.460
19029DT     SC323620  79.251  66.950  74.453
19030DC     BB123621  78.518  67.156  74.664
19030DC     BB223622  78.522  66.800  74.721
19030DC     BB323623  78.616  66.759  74.901
19030DC     SC123624  78.853  66.808  74.798
19030DC     SC223625  78.963  66.624  74.782
19030DC     SC323626  79.086  66.923  74.756
19031DC     BB123627  78.381  66.698  75.045
19031DC     BB223628  78.586  66.404  75.088
19031DC     BB323629  78.703  66.424  75.258
19031DC     SC123630  78.863  66.594  75.137
19031DC     SC223631  79.055  66.502  75.106
19031DC     SC323632  78.990  66.818  75.081
19032DT     BB123633  78.555  66.244  75.413
19032DT     BB223634  78.891  66.112  75.421
19032DT     BB323635  78.995  66.192  75.581
19032DT     SC123636  79.022  66.422  75.457
19032DT     SC223637  79.228  66.451  75.403
19032DT     SC323638  78.999  66.679  75.403
19033DA     BB123639  79.036  65.777  75.631
19033DA     BB223640  79.371  65.925  75.651
19033DA     BB323641  79.399  66.022  75.839
19033DA     SC123642  79.296  66.298  75.740
19033DA     SC223643  79.390  66.524  75.692
19033DA     SC323644  79.149  66.607  75.714
19033DA     SC423645  79.140  66.330  75.759
19034DT     BB123646  79.539  65.949  75.981
19034DT     BB223647  79.788  66.203  75.922
19034DT     BB323648  79.794  66.335  76.082
19034DT     SC123649  79.570  66.449  76.007
19034DT     SC223650  79.611  66.648  75.937
19034DT     SC323651  79.319  66.529  76.012
19035DC     BB123652  80.033  66.232  76.158
19035DC     BB223653  80.097  66.583  76.101
19035DC     BB323654  80.055  66.691  76.273
19035DC     SC123655  79.796  66.667  76.234
19035DC     SC223656  79.714  66.859  76.182
19035DC     SC323657  79.545  66.598  76.274
19036DT     BB123658  80.319  66.729  76.299
19036DT     BB223659  80.176  67.060  76.276
19036DT     BB323660  80.112  67.123  76.462
19036DT     SC123661  79.903  66.964  76.452
19036DT     SC223662  79.724  67.083  76.432
19036DT     SC323663  79.736  66.769  76.512
19037DA     BB123664  80.352  67.414  76.278
19037DA     BB223665  80.042  67.573  76.393
19037DA     BB323666  80.039  67.585  76.606
19037DA     SC123667  79.898  67.311  76.645
19037DA     SC223668  79.676  67.226  76.720
19037DA     SC323669  79.797  67.004  76.761
19037DA     SC423670  79.992  67.181  76.665
19038DT     BB123671  80.037  67.757  76.651
19038DT     BB223672  79.692  67.770  76.753
19038DT     BB323673  79.678  67.748  76.959
19038DT     SC123674  79.728  67.491  76.943
19038DT     SC223675  79.551  67.381  76.993
19038DT     SC323676  79.851  67.260  76.974
19039DA     BB123677  79.451  68.066  76.798
19039DA     BB223678  79.240  67.869  77.023
19039DA     BB323679  79.307  67.890  77.225
19039DA     SC123680  79.499  67.645  77.211
19039DA     SC223681  79.512  67.415  77.307
19039DA     SC323682  79.762  67.428  77.250
19039DA     SC423683  79.652  67.673  77.169
19040DT     BB123684  79.176  67.962  77.303
19040DT     BB223685  79.072  67.675  77.496
19040DT     BB323686  79.165  67.678  77.681
19040DT     SC123687  79.394  67.602  77.576
19040DT     SC223688  79.438  67.401  77.638
19040DT     SC323689  79.647  67.608  77.501
19041DA     BB123690  78.750  67.604  77.705
19041DA     BB223691  78.925  67.366  77.920
19041DA     BB323692  79.016  67.467  78.085
19041DA     SC123693  79.286  67.515  77.938
19041DA     SC223694  79.521  67.433  77.952
19041DA     SC323695  79.582  67.645  77.822
19041DA     SC423696  79.304  67.653  77.858
19042DG     BB123697  78.831  67.268  78.236
19042DG     BB223698  79.147  67.149  78.366
19042DG     BB323699  79.215  67.274  78.504
19042DG     SC123700  79.371  67.448  78.306
19042DG     SC223701  79.668  67.474  78.292
19042DG     SC323702  79.536  67.671  78.114
19042DG     SC423703  79.296  67.571  78.235
19043DA     BB123704  79.249  67.004  78.726
19043DA     BB223705  79.607  67.076  78.763
19043DA     BB323706  79.636  67.245  78.889
19043DA     SC123707  79.631  67.451  78.656
19043DA     SC223708  79.792  67.601  78.539
19043DA     SC323709  79.584  67.729  78.460
19043DA     SC423710  79.490  67.517  78.618
19044DG     BB123711  79.796  67.061  79.093
19044DG     BB223712  80.073  67.276  79.004
19044DG     BB323713  80.071  67.439  79.117
19044DG     SC123714  79.895  67.600  78.925
19044DG     SC223715  79.980  67.840  78.770
19044DG     SC323716  79.688  67.798  78.747
19044DG     SC423717  79.736  67.591  78.940
19045DA     BB123718  80.404  67.382  79.214
19045DA     BB223719  80.505  67.701  79.064
19045DA     BB323720  80.457  67.863  79.195
19045DA     SC123721  80.175  67.909  79.073
19045DA     SC223722  80.059  68.082  78.935
19045DA     SC323723  79.842  67.979  79.025
19045DA     SC423724  80.051  67.832  79.141
19046DT     BB123725  80.608  67.974  79.281
19046DT     BB223726  80.570  68.264  79.070
19046DT     BB323727  80.481  68.418  79.177
19046DT     SC123728  80.246  68.301  79.165
19046DT     SC223729  80.116  68.414  79.036
19046DT     SC323730  80.024  68.182  79.243
19047DT     BB123731  80.717  68.542  79.171
19047DT     BB223732  80.487  68.771  79.013
19047DT     BB323733  80.389  68.883  79.157
19047DT     SC123734  80.238  68.680  79.225
19047DT     SC223735  80.035  68.718  79.164
19047DT     SC323736  80.132  68.488  79.372
19048DA     BB123737  80.547  69.132  78.857
19048DA     BB223738  80.196  69.225  78.912
19048DA     BB323739  80.174  69.320  79.102
19048DA     SC123740  80.116  69.057  79.256
19048DA     SC223741  79.923  68.948  79.370
19048DA     SC323742  80.100  68.808  79.492
19048DA     SC423743  80.241  68.980  79.322
19049DT     BB123744  80.121  69.500  79.088
19049DT     BB223745  79.781  69.456  79.201
19049DT     BB323746  79.766  69.510  79.400
19049DT     SC123747  79.885  69.290  79.477
19049DT     SC223748  79.743  69.163  79.576
19049DT     SC323749  80.066  69.130  79.584
19050DA     BB123750  79.466  69.719  79.192
19050DA     BB223751  79.312  69.566  79.487
19050DA     BB323752  79.374  69.668  79.664
19050DA     SC123753  79.621  69.486  79.713
19050DA     SC223754  79.693  69.312  79.876
19050DA     SC323755  79.931  69.363  79.796
19050DA     SC423756  79.762  69.533  79.651
19051DA     BB123757  79.049  69.702  79.723
19051DA     BB223758  79.101  69.510  80.031
19051DA     BB323759  79.189  69.632  80.181
19051DA     SC123760  79.481  69.562  80.102
19051DA     SC223761  79.673  69.433  80.197
19051DA     SC323762  79.818  69.571  80.037
19051DA     SC423763  79.555  69.658  79.996
19052DC     BB123764  79.086  69.690  80.362
19052DC     BB223765  79.263  69.468  80.584
19052DC     BB323766  79.393  69.576  80.704
19052DC     SC123767  79.560  69.612  80.504
19052DC     SC223768  79.739  69.499  80.540
19052DC     SC323769  79.704  69.735  80.320
19053DA     BB123770  79.163  69.349  80.971
19053DA     BB223771  79.516  69.297  81.056
19053DA     BB323772  79.594  69.468  81.156
19053DA     SC123773  79.690  69.608  80.895
19053DA     SC223774  79.906  69.665  80.785
19053DA     SC323775  79.770  69.837  80.653
19053DA     SC423776  79.588  69.710  80.824
19054DA     BB123777  79.675  69.239  81.377
19054DA     BB223778  80.024  69.329  81.311
19054DA     BB323779  80.073  69.513  81.407
19054DA     SC123780  79.994  69.689  81.162
19054DA     SC223781  80.109  69.831  80.993
19054DA     SC323782  79.880  69.940  80.958
19054DA     SC423783  79.844  69.745  81.156
19055DT     BB123784  80.205  69.501  81.548
19055DT     BB223785  80.478  69.644  81.360
19055DT     BB323786  80.509  69.841  81.418
19055DT     SC123787  80.295  69.921  81.289
19055DT     SC223788  80.354  70.039  81.120
19055DT     SC323789  80.056  70.022  81.244
19056DG     BB123790  80.851  69.623  81.458
19056DG     BB223791  80.901  69.920  81.258
19056DG     BB323792  80.907  70.081  81.376
19056DG     SC123793  80.605  70.132  81.362
19056DG     SC223794  80.473  70.366  81.233
19056DG     SC323795  80.277  70.205  81.385
19056DG     SC423796  80.510  70.060  81.469
19057DG     BB123797  81.197  70.126  81.239
19057DG     BB223798  81.057  70.435  81.112
19057DG     BB323799  81.057  70.573  81.255
19057DG     SC123800  80.779  70.499  81.361
19057DG     SC223801  80.535  70.670  81.346
19057DG     SC323802  80.487  70.431  81.514
19057DG     SC423803  80.767  70.386  81.473
19058DA     BB123804  81.206  70.757  81.005
19058DA     BB223805  80.937  71.004  81.033
19058DA     BB323806  80.956  71.115  81.215
19058DA     SC123807  80.779  70.920  81.380
19058DA     SC223808  80.554  70.922  81.488
19058DA     SC323809  80.642  70.726  81.628
19058DA     SC423810  80.852  70.800  81.458
19059DA     BB123811  80.935  71.352  80.990
19059DA     BB223812  80.636  71.465  81.171
19059DA     BB323813  80.691  71.552  81.358
19059DA     SC123814  80.673  71.285  81.516
19059DA     SC223815  80.525  71.184  81.690
19059DA     SC323816  80.723  71.026  81.736
19059DA     SC423817  80.807  71.198  81.531
19060DC     BB123818  80.655  71.743  81.377
19060DC     BB223819  80.376  71.714  81.604
19060DC     BB323820  80.438  71.757  81.797
19060DC     SC123821  80.559  71.525  81.818
19060DC     SC223822  80.452  71.401  81.958
19060DC     SC323823  80.752  71.347  81.846
19061DT     BB123824  80.304  71.991  81.785
19061DT     BB223825  80.168  71.824  82.074
19061DT     BB323826  80.286  71.862  82.240
19061DT     SC123827  80.473  71.698  82.155
19061DT     SC223828  80.479  71.524  82.282
19061DT     SC323829  80.706  71.611  82.068
19062DG     BB123830  79.913  71.996  82.339
19062DG     BB223831  80.043  71.772  82.592
19062DG     BB323832  80.172  71.868  82.708
19062DG     SC123833  80.415  71.801  82.534
19062DG     SC223834  80.643  71.625  82.612
19062DG     SC323835  80.700  71.764  82.357
19062DG     SC423836  80.454  71.900  82.414
19063DG     BB123837  79.993  71.808  82.983
19063DG     BB223838  80.278  71.620  83.102
19063DG     BB323839  80.408  71.742  83.190
19063DG     SC123840  80.564  71.801  82.934
19063DG     SC223841  80.846  71.720  82.877
19063DG     SC323842  80.745  71.904  82.668
19063DG     SC423843  80.517  71.923  82.841
19064DC     BB123844  80.473  71.743  83.424
19064DC     BB223845  80.800  71.593  83.403
19064DC     BB323846  80.946  71.736  83.439
19064DC     SC123847  80.910  71.843  83.201
19064DC     SC223848  81.083  71.804  83.079
19064DC     SC323849  80.849  72.019  83.015
19065DG     BB123850  81.016  71.466  83.739
19065DG     BB223851  81.317  71.529  83.549
19065DG     BB323852  81.404  71.696  83.614
19065DG     SC123853  81.253  71.879  83.420
19065DG     SC223854  81.373  72.033  83.194
19065DG     SC323855  81.090  72.110  83.236
19065DG     SC423856  81.111  71.938  83.465
19066DA     BB123857  81.702  71.521  83.659
19066DA     BB223858  81.866  71.733  83.409
19066DA     BB323859  81.924  71.919  83.496
19066DA     SC123860  81.658  72.063  83.425
19066DA     SC223861  81.580  72.243  83.271
19066DA     SC323862  81.378  72.263  83.428
19066DA     SC423863  81.541  72.061  83.536
19067DG     BB123864  82.206  71.824  83.414
19067DG     BB223865  82.181  72.105  83.186
19067DG     BB323866  82.232  72.273  83.280
19067DG     SC123867  81.948  72.335  83.376
19067DG     SC223868  81.779  72.564  83.287
19067DG     SC323869  81.653  72.423  83.514
19067DG     SC423870  81.898  72.275  83.516
19068DG     BB123871  82.436  72.281  83.035
19068DG     BB223872  82.259  72.580  82.937
19068DG     BB323873  82.318  72.734  83.048
19068DG     SC123874  82.108  72.689  83.266
19068DG     SC223875  81.880  72.871  83.331
19068DG     SC323876  81.904  72.657  83.533
19068DG     SC423877  82.142  72.591  83.388
19069DA     BB123878  82.317  72.835  82.722
19069DA     BB223879  82.090  73.106  82.821
19069DA     BB323880  82.189  73.242  82.951
19069DA     SC123881  82.106  73.094  83.211
19069DA     SC223882  81.955  73.132  83.405
19069DA     SC323883  82.097  72.956  83.525
19069DA     SC423884  82.207  72.983  83.269
19070DA     BB123885  82.017  73.382  82.704
19070DA     BB223886  81.851  73.567  82.973
19070DA     BB323887  81.992  73.686  83.080
19070DA     SC123888  82.058  73.465  83.289
19070DA     SC223889  82.020  73.423  83.531
19070DA     SC323890  82.214  73.256  83.513
19070DA     SC423891  82.182  73.367  83.257
19071DC     BB123892  81.933  73.837  83.051
19071DC     BB223893  81.831  73.919  83.387
19071DC     BB323894  81.989  74.001  83.491
19071DC     SC123895  82.105  73.767  83.517
19071DC     SC223896  82.097  73.706  83.723
19071DC     SC323897  82.283  73.574  83.492
19072DC     BB123898  81.857  74.229  83.472
19072DC     BB223899  81.932  74.195  83.823
19072DC     BB323900  82.126  74.257  83.861
19072DC     SC123901  82.224  74.038  83.754
19072DC     SC223902  82.311  73.916  83.909
19072DC     SC323903  82.357  73.879  83.590
19073DA     BB123904  81.911  74.499  84.133
19073DA     BB223905  82.196  74.358  84.316
19073DA     BB323906  82.376  74.458  84.262
19073DA     SC123907  82.444  74.262  84.030
19073DA     SC223908  82.613  74.086  83.981
19073DA     SC323909  82.550  74.122  83.735
19073DA     SC423910  82.392  74.300  83.883
19074DG     BB123911  82.442  74.584  84.559
19074DG     BB223912  82.733  74.369  84.546
19074DG     BB323913  82.886  74.468  84.467
19074DG     SC123914  82.822  74.385  84.179
19074DG     SC223915  82.988  74.207  84.006
19074DG     SC323916  82.770  74.331  83.850
19074DG     SC423917  82.723  74.476  84.093
19075DG     BB123918  83.100  74.452  84.734
19075DG     BB223919  83.311  74.245  84.527
19075DG     BB323920  83.442  74.358  84.429
19075DG     SC123921  83.260  74.402  84.187
19075DG     SC223922  83.308  74.299  83.910
19075DG     SC323923  83.080  74.487  83.915
19075DG     SC423924  83.158  74.525  84.187
19076DT     BB123925  83.677  74.347  84.455
19076DT     BB223926  83.761  74.161  84.157
19076DT     BB323927  83.857  74.284  84.021
19076DT     SC123928  83.631  74.403  83.959
19076DT     SC223929  83.575  74.348  83.758
19076DT     SC323930  83.449  74.592  83.931
19077DG     BB123931  84.078  73.956  84.110
19077DG     BB223932  84.019  73.988  83.755
19077DG     BB323933  84.134  74.131  83.680
19077DG     SC123934  83.931  74.355  83.727
19077DG     SC223935  83.789  74.510  83.515
19077DG     SC323936  83.740  74.627  83.782
19077DG     SC423937  83.931  74.432  83.867
19078DT     BB123938  84.235  74.050  83.545
19078DT     BB223939  84.086  74.183  83.245
19078DT     BB323940  84.186  74.355  83.187
19078DT     SC123941  84.074  74.495  83.379
19078DT     SC223942  83.935  74.635  83.293
19078DT     SC323943  84.049  74.641  83.597
19079DG     BB123944  84.132  74.063  82.903
19079DG     BB223945  84.030  74.390  82.788
19079DG     BB323946  84.190  74.506  82.764
19079DG     SC123947  84.186  74.614  83.050
19079DG     SC223948  84.128  74.895  83.130
19079DG     SC323949  84.223  74.737  83.362
19079DG     SC423950  84.264  74.534  83.164
19080DT     BB123951  84.195  74.563  82.583
19080DT     BB223952  84.133  74.918  82.602
19080DT     BB323953  84.312  75.020  82.626
19080DT     SC123954  84.329  74.946  82.878
19080DT     SC223955  84.299  75.117  83.004
19080DT     SC323956  84.419  74.831  83.097
19081DC     BB123957  84.307  75.107  82.367
19081DC     BB223958  84.364  75.409  82.556
19081DC     BB323959  84.566  75.432  82.592
19081DC     SC123960  84.564  75.244  82.775
19081DC     SC223961  84.594  75.332  82.969
19081DC     SC323962  84.617  75.017  82.898
19082DA     BB123963  84.515  75.806  82.393
19082DA     BB223964  84.712  75.878  82.694
19082DA     BB323965  84.916  75.824  82.663
19082DA     SC123966  84.881  75.534  82.770
19082DA     SC223967  84.951  75.401  82.969
19082DA     SC323968  84.902  75.195  82.823
19082DA     SC423969  84.846  75.419  82.663
19083DA     BB123970  85.063  76.137  82.724
19083DA     BB223971  85.237  75.994  83.013
19083DA     BB323972  85.423  75.908  82.953
19083DA     SC123973  85.302  75.626  82.901
19083DA     SC223974  85.313  75.398  83.004
19083DA     SC323975  85.230  75.314  82.776
19083DA     SC423976  85.252  75.592  82.752
19084DT     BB123977  85.656  75.978  83.000
19084DT     BB223978  85.717  75.724  83.249
19084DT     BB323979  85.862  75.593  83.182
19084DT     SC123980  85.694  75.479  83.016
19084DT     SC223981  85.650  75.279  83.085
19084DT     SC323982  85.584  75.398  82.791
19085DG     BB123983  86.026  75.744  83.525
19085DG     BB223984  86.014  75.383  83.535
19085DG     BB323985  86.169  75.307  83.436
19085DG     SC123986  86.023  75.297  83.167
19085DG     SC223987  85.946  75.049  83.019
19085DG     SC323988  85.900  75.290  82.853
19085DG     SC423989  86.028  75.425  83.071
19086DA     BB123990  86.227  75.124  83.723
19086DA     BB223991  86.179  74.814  83.533
19086DA     BB323992  86.351  74.772  83.415
19086DA     SC123993  86.249  74.927  83.165
19086DA     SC223994  86.168  74.873  82.935
19086DA     SC323995  86.223  75.118  82.881
19086DA     SC423996  86.291  75.081  83.151
19087DT     BB123997  86.448  74.611  83.464
19087DT     BB223998  86.339  74.409  83.186
19087DT     BB323999  86.490  74.395  83.045
19087DT     SC124000  86.447  74.641  82.964
19087DT     SC224001  86.362  74.637  82.766
19087DT     SC324002  86.488  74.897  82.914
19088DA     BB124003  86.361  74.005  83.133
19088DA     BB224004  86.369  74.043  82.768
19088DA     BB324005  86.570  74.045  82.698
19088DA     SC124006  86.599  74.354  82.718
19088DA     SC224007  86.619  74.549  82.563
19088DA     SC324008  86.716  74.674  82.765
19088DA     SC424009  86.658  74.415  82.855
19089DT     BB124010  86.640  73.890  82.581
19089DT     BB224011  86.640  74.071  82.269
19089DT     BB324012  86.834  74.118  82.215
19089DT     SC124013  86.847  74.308  82.396
19089DT     SC224014  86.852  74.499  82.299
19089DT     SC324015  86.925  74.442  82.610
19090DT     BB124016  86.837  73.931  82.012
19090DT     BB224017  86.910  74.243  81.847
19090DT     BB324018  87.114  74.278  81.847
19090DT     SC124019  87.110  74.341  82.102
19090DT     SC224020  87.148  74.552  82.123
19090DT     SC324021  87.159  74.332  82.361
19091DT     BB124022  87.127  74.226  81.580
19091DT     BB224023  87.251  74.563  81.615
19091DT     BB324024  87.455  74.560  81.652
19091DT     SC124025  87.417  74.481  81.900
19091DT     SC224026  87.470  74.640  82.034
19091DT     SC324027  87.424  74.330  82.116
19092DC     BB124028  87.473  74.662  81.411
19092DC     BB224029  87.623  74.905  81.630
19092DC     BB324030  87.819  74.852  81.671
19092DC     SC124031  87.742  74.661  81.834
19092DC     SC224032  87.792  74.715  82.036
19092DC     SC324033  87.705  74.420  81.933
19093DT     BB124034  87.872  75.063  81.526
19093DT     BB224035  88.026  75.125  81.846
19093DT     BB324036  88.208  75.026  81.857
19093DT     SC124037  88.089  74.794  81.889
19093DT     SC224038  88.122  74.724  82.090
19093DT     SC324039  88.012  74.547  81.842
19094DC     BB124040  88.311  75.269  81.847
19094DC     BB224041  88.440  75.124  82.151
19094DC     BB324042  88.603  75.004  82.109
19094DC     SC124043  88.448  74.815  82.011
19094DC     SC224044  88.450  74.646  82.143
19094DC     SC324045  88.340  74.648  81.838
19095DT     BB124046  88.754  75.191  82.224
19095DT     BB224047  88.827  74.887  82.405
19095DT     BB324048  88.970  74.777  82.304
19095DT     SC124049  88.796  74.702  82.123
19095DT     SC224050  88.757  74.491  82.145
19095DT     SC324051  88.678  74.673  81.889
19096DG     BB124052  89.124  74.850  82.675
19096DG     BB224053  89.134  74.497  82.594
19096DG     BB324054  89.287  74.460  82.472
19096DG     SC124055  89.125  74.507  82.216
19096DG     SC224056  89.053  74.299  82.014
19096DG     SC324057  88.983  74.570  81.917
19096DG     SC424058  89.116  74.655  82.156
19097DC     BB124059  89.459  74.326  82.530
19097DC     BB224060  89.380  74.030  82.340
19097DC     BB324061  89.507  74.016  82.176
19097DC     SC124062  89.378  74.206  82.050
19097DC     SC224063  89.272  74.122  81.883
19097DC     SC324064  89.329  74.437  81.933
19098DA     BB124065  89.513  73.653  82.385
19098DA     BB224066  89.450  73.581  82.031
19098DA     BB324067  89.628  73.611  81.916
19098DA     SC124068  89.566  73.909  81.854
19098DA     SC224069  89.503  74.047  81.656
19098DA     SC324070  89.589  74.246  81.793
19098DA     SC424071  89.626  74.020  81.954
19099DT     BB124072  89.681  73.454  81.844
19099DT     BB224073  89.579  73.526  81.505
19099DT     BB324074  89.742  73.590  81.395
19099DT     SC124075  89.739  73.825  81.512
19099DT     SC224076  89.677  73.975  81.371
19099DT     SC324077  89.818  74.031  81.658
19100DC     BB124078  89.687  73.365  81.285
19100DC     BB224079  89.667  73.612  81.023
19100DC     BB324080  89.857  73.667  80.962
19100DC     SC124081  89.893  73.810  81.179
19100DC     SC224082  89.896  74.019  81.128
19100DC     SC324083  89.995  73.891  81.409
19101DA     BB124084  89.590  73.583  80.644
19101DA     BB224085  89.772  73.893  80.570
19101DA     BB324086  89.979  73.852  80.539
19101DA     SC124087  90.056  73.893  80.838
19101DA     SC224088  90.184  74.057  80.975
19101DA     SC324089  90.200  73.869  81.149
19101DA     SC424090  90.057  73.763  80.933
19102DC     BB124091  90.032  73.887  80.366
19102DC     BB224092  90.236  74.177  80.432
19102DC     BB324093  90.435  74.122  80.445
19102DC     SC124094  90.399  74.016  80.682
19102DC     SC224095  90.499  74.137  80.830
19102DC     SC324096  90.386  73.836  80.874
19103DG     BB124097  90.426  74.395  80.140
19103DG     BB224098  90.686  74.475  80.378
19103DG     BB324099  90.845  74.359  80.348
19103DG     SC124100  90.750  74.138  80.536
19103DG     SC224101  90.880  74.060  80.794
19103DG     SC324102  90.668  73.867  80.720
19103DG     SC424103  90.657  74.021  80.479
19104DT     BB124104  91.061  74.431  80.277
19104DT     BB224105  91.249  74.399  80.583
19104DT     BB324106  91.376  74.235  80.572
19104DT     SC124107  91.176  74.068  80.603
19104DT     SC224108  91.192  73.974  80.796
19104DT     SC324109  91.002  73.877  80.552
19105DT     BB124110  91.605  74.390  80.542
19105DT     BB224111  91.675  74.186  80.831
19105DT     BB324112  91.765  74.009  80.772
19105DT     SC124113  91.537  73.914  80.682
19105DT     SC224114  91.472  73.753  80.809
19105DT     SC324115  91.355  73.822  80.515
19106DT     BB124116  92.006  74.091  80.871
19106DT     BB224117  91.939  73.780  81.042
19106DT     BB324118  92.010  73.621  80.930
19106DT     SC124119  91.812  73.642  80.760
19106DT     SC224120  91.681  73.472  80.781
19106DT     SC324121  91.682  73.681  80.534
19107DT     BB124122  92.208  73.587  81.111
19107DT     BB224123  92.040  73.268  81.099
19107DT     BB324124  92.118  73.152  80.946
19107DT     SC124125  91.993  73.295  80.765
19107DT     SC224126  91.837  73.177  80.676
19107DT     SC324127  91.953  73.456  80.559
19108DA     BB124128  92.126  72.918  81.294
19108DA     BB224129  91.980  72.715  81.026
19108DA     BB324130  92.131  72.656  80.887
19108DA     SC124131  92.093  72.904  80.703
19108DA     SC224132  92.005  72.953  80.475
19108DA     SC324133  92.143  73.169  80.491
19108DA     SC424134  92.186  73.032  80.732
19109DA     BB124135  92.018  72.350  80.950
19109DA     BB224136  91.938  72.324  80.593
19109DA     BB324137  92.115  72.291  80.479
19109DA     SC124138  92.171  72.594  80.432
19109DA     SC224139  92.167  72.755  80.242
19109DA     SC324140  92.319  72.900  80.389
19109DA     SC424141  92.266  72.669  80.538
19110DG     BB124142  92.009  72.006  80.375
19110DG     BB224143  92.017  72.164  80.050
19110DG     BB324144  92.198  72.143  79.969
19110DG     SC124145  92.309  72.402  80.089
19110DG     SC224146  92.388  72.646  79.937
19110DG     SC324147  92.469  72.668  80.221
19110DG     SC424148  92.376  72.397  80.234
19111DA     BB124149  92.088  71.990  79.663
19111DA     BB224150  92.219  72.270  79.466
19111DA     BB324151  92.427  72.241  79.426
19111DA     SC124152  92.521  72.392  79.681
19111DA     SC224153  92.635  72.607  79.737
19111DA     SC324154  92.690  72.496  79.962
19111DA     SC424155  92.546  72.306  79.814
19112DT     BB124156  92.519  72.202  79.221
19112DT     BB224157  92.647  72.536  79.176
19112DT     BB324158  92.854  72.534  79.184
19112DT     SC124159  92.852  72.503  79.444
19112DT     SC224160  92.924  72.683  79.538
19112DT     SC324161  92.890  72.394  79.682
19113DT     BB124162  92.877  72.578  78.912
19113DT     BB224163  93.053  72.855  79.063
19113DT     BB324164  93.251  72.804  79.093
19113DT     SC124165  93.190  72.651  79.297
19113DT     SC224166  93.261  72.742  79.479
19113DT     SC324167  93.162  72.435  79.446
19114DA     BB124168  93.241  73.169  78.887
19114DA     BB224169  93.464  73.209  79.176
19114DA     BB324170  93.648  73.106  79.142
19114DA     SC124171  93.550  72.839  79.269
19114DA     SC224172  93.597  72.704  79.473
19114DA     SC324173  93.495  72.509  79.343
19114DA     SC424174  93.485  72.730  79.171
19115DT     BB124175  93.813  73.217  79.126
19115DT     BB224176  93.948  73.136  79.451
19115DT     BB324177  94.105  73.002  79.431
19115DT     SC124178  93.939  72.805  79.382
19115DT     SC224179  93.940  72.668  79.548
19115DT     SC324180  93.817  72.609  79.253
19116DT     BB124181  94.283  73.198  79.494
19116DT     BB224182  94.340  72.940  79.740
19116DT     BB324183  94.475  72.802  79.667
19116DT     SC124184  94.294  72.697  79.508
19116DT     SC224185  94.242  72.500  79.578
19116DT     SC324186  94.171  72.623  79.287
19117DG     BB124187  94.638  72.949  80.010
19117DG     BB224188  94.619  72.588  80.018
19117DG     BB324189  94.768  72.510  79.913
19117DG     SC124190  94.614  72.505  79.648
19117DG     SC224191  94.527  72.261  79.500
19117DG     SC324192  94.481  72.505  79.339
19117DG     SC424193  94.618  72.634  79.554
19118DA     BB124194  94.823  72.326  80.197
19118DA     BB224195  94.764  72.019  80.006
19118DA     BB324196  94.933  71.973  79.885
19118DA     SC124197  94.829  72.132  79.638
19118DA     SC224198  94.742  72.082  79.409
19118DA     SC324199  94.803  72.325  79.356
19118DA     SC424200  94.875  72.285  79.624
19119DT     BB124201  95.006  71.816  79.938
19119DT     BB224202  94.882  71.619  79.662
19119DT     BB324203  95.031  71.594  79.521
19119DT     SC124204  95.003  71.841  79.437
19119DT     SC224205  94.917  71.840  79.240
19119DT     SC324206  95.061  72.093  79.384
19120DA     BB124207  94.806  71.254  79.632
19120DA     BB224208  94.822  71.275  79.266
19120DA     BB324209  95.023  71.246  79.199
19120DA     SC124210  95.096  71.548  79.208
19120DA     SC224211  95.145  71.731  79.046
19120DA     SC324212  95.257  71.849  79.244
19120DA     SC424213  95.161  71.605  79.343
19121DT     BB124214  94.982  71.122  79.114
19121DT     BB224215  95.036  71.270  78.789
19121DT     BB324216  95.237  71.262  78.740
19121DT     SC124217  95.294  71.457  78.908
19121DT     SC224218  95.350  71.632  78.797
19121DT     SC324219  95.398  71.584  79.114
19122DT     BB124220  95.121  71.110  78.573
19122DT     BB224221  95.313  71.346  78.379
19122DT     BB324222  95.514  71.301  78.392
19122DT     SC124223  95.527  71.395  78.637
19122DT     SC224224  95.643  71.577  78.637
19122DT     SC324225  95.561  71.403  78.898
19123DT     BB124226  95.491  71.225  78.141
19123DT     BB224227  95.768  71.456  78.141
19123DT     BB324228  95.940  71.360  78.201
19123DT     SC124229  95.861  71.357  78.452
19123DT     SC224230  95.984  71.491  78.567
19123DT     SC324231  95.785  71.265  78.687
19124DG     BB124232  96.034  71.499  77.827
19124DG     BB224233  96.294  71.582  78.064
19124DG     BB324234  96.409  71.423  78.097
19124DG     SC124235  96.241  71.319  78.330
19124DG     SC224236  96.327  71.304  78.616
19124DG     SC324237  96.068  71.166  78.577
19124DG     SC424238  96.118  71.221  78.300
19125DA     BB124239  96.717  71.587  78.015
19125DA     BB224240  96.853  71.519  78.348
19125DA     BB324241  96.927  71.319  78.359
19125DA     SC124242  96.658  71.198  78.457
19125DA     SC224243  96.566  71.097  78.666
19125DA     SC324244  96.387  70.995  78.514
19125DA     SC424245  96.556  71.142  78.346
19126DC     BB124246  97.154  71.244  78.375
19126DC     BB224247  97.139  71.144  78.722
19126DC     BB324248  97.155  70.938  78.736
19126DC     SC124249  96.908  70.905  78.652
19126DC     SC224250  96.786  70.834  78.814
19126DC     SC324251  96.706  70.832  78.500
19127DC     BB124252  97.431  70.914  78.829
19127DC     BB224253  97.244  70.737  79.082
19127DC     BB324254  97.239  70.535  79.037
19127DC     SC124255  97.063  70.574  78.845
19127DC     SC224256  96.874  70.491  78.904
19127DC     SC324257  96.956  70.582  78.604
19128DG     BB124258  97.432  70.523  79.400
19128DG     BB224259  97.143  70.305  79.403
19128DG     BB324260  97.190  70.129  79.324
19128DG     SC124261  97.117  70.210  79.038
19128DG     SC224262  96.891  70.099  78.877
19128DG     SC324263  97.066  70.271  78.711
19128DG     SC424264  97.229  70.278  78.946
19129DC     BB124265  97.190  69.912  79.438
19129DC     BB224266  96.883  69.775  79.309
19129DC     BB324267  96.924  69.619  79.179
19129DC     SC124268  97.001  69.786  78.992
19129DC     SC224269  96.858  69.784  78.831
19129DC     SC324270  97.157  69.909  78.818
19130DA     BB124271  96.651  69.472  79.460
19130DA     BB224272  96.519  69.399  79.126
19130DA     BB324273  96.625  69.236  79.038
19130DA     SC124274  96.837  69.417  78.901
19130DA     SC224275  96.899  69.487  78.669
19130DA     SC324276  97.127  69.547  78.770
19130DA     SC424277  96.973  69.447  78.982
19131DA     BB124278  96.317  69.138  79.013
19131DA     BB224279  96.368  69.146  78.650
19131DA     BB324280  96.486  68.979  78.588
19131DA     SC124281  96.757  69.128  78.617
19131DA     SC224282  96.936  69.217  78.468
19131DA     SC324283  97.085  69.210  78.677
19131DA     SC424284  96.834  69.115  78.758
19132DA     BB124285  96.219  68.990  78.403
19132DA     BB224286  96.451  69.030  78.121
19132DA     BB324287  96.559  68.849  78.088
19132DA     SC124288  96.794  68.926  78.277
19132DA     SC224289  97.035  68.989  78.256
19132DA     SC324290  97.052  68.923  78.504
19132DA     SC424291  96.785  68.879  78.430
19133DA     BB124292  96.433  68.944  77.803
19133DA     BB224293  96.780  68.952  77.684
19133DA     BB324294  96.859  68.754  77.674
19133DA     SC124295  96.971  68.758  77.964
19133DA     SC224296  97.194  68.763  78.076
19133DA     SC324297  97.070  68.673  78.282
19133DA     SC424298  96.876  68.701  78.081
19134DT     BB124299  96.897  68.715  77.503
19134DT     BB224300  97.256  68.727  77.529
19134DT     BB324301  97.331  68.536  77.556
19134DT     SC124302  97.251  68.532  77.806
19134DT     SC224303  97.422  68.539  77.936
19134DT     SC324304  97.120  68.461  78.024
19135DA     BB124305  97.540  68.720  77.241
19135DA     BB224306  97.785  68.567  77.467
19135DA     BB324307  97.777  68.354  77.450
19135DA     SC124308  97.566  68.320  77.676
19135DA     SC224309  97.557  68.230  77.909
19135DA     SC324310  97.304  68.215  77.872
19135DA     SC424311  97.411  68.317  77.633
19136DA     BB124312  98.100  68.391  77.394
19136DA     BB224313  98.158  68.182  77.690
19136DA     BB324314  98.118  67.978  77.645
19136DA     SC124315  97.818  67.992  77.728
19136DA     SC224316  97.673  67.905  77.911
19136DA     SC324317  97.478  67.951  77.751
19136DA     SC424318  97.711  68.027  77.614
19137DC     BB124319  98.272  67.841  77.644
19137DC     BB224320  98.185  67.675  77.953
19137DC     BB324321  98.101  67.490  77.913
19137DC     SC124322  97.875  67.601  77.836
19137DC     SC224323  97.722  67.557  77.980
19137DC     SC324324  97.675  67.672  77.681
19138DA     BB124325  98.411  67.425  78.187
19138DA     BB224326  98.112  67.253  78.312
19138DA     BB324327  98.074  67.077  78.197
19138DA     SC124328  97.890  67.222  77.992
19138DA     SC224329  97.648  67.226  77.931
19138DA     SC324330  97.727  67.324  77.707
19138DA     SC424331  97.959  67.281  77.859
19139DA     BB124332  98.076  66.949  78.498
19139DA     BB224333  97.730  66.847  78.435
19139DA     BB324334  97.724  66.681  78.301
19139DA     SC124335  97.706  66.857  78.045
19139DA     SC224336  97.537  66.911  77.869
19139DA     SC324337  97.738  66.985  77.728
19139DA     SC424338  97.844  66.897  77.972
19140DA     BB124339  97.543  66.567  78.549
19140DA     BB224340  97.269  66.535  78.307
19140DA     BB324341  97.305  66.371  78.175
19140DA     SC124342  97.456  66.542  77.964
19140DA     SC224343  97.418  66.624  77.732
19140DA     SC324344  97.673  66.654  77.722
19140DA     SC424345  97.616  66.551  77.977
19141DT     BB124346  97.181  66.220  78.188
19141DT     BB224347  97.005  66.276  77.879
19141DT     BB324348  97.070  66.144  77.734
19141DT     SC124349  97.295  66.276  77.703
19141DT     SC224350  97.295  66.372  77.511
19141DT     SC324351  97.553  66.331  77.703
19142DC     BB124352  96.837  66.006  77.752
19142DC     BB224353  96.864  66.092  77.403
19142DC     BB324354  96.976  65.949  77.303
19142DC     SC124355  97.199  66.040  77.407
19142DC     SC224356  97.317  66.133  77.253
19142DC     SC324357  97.423  66.047  77.548
19143DC     BB124358  96.753  65.847  77.179
19143DC     BB224359  96.975  65.932  76.907
19143DC     BB324360  97.101  65.773  76.866
19143DC     SC124361  97.244  65.820  77.080
19143DC     SC224362  97.438  65.892  77.022
19143DC     SC324363  97.356  65.785  77.317
19144DT     BB124364  96.966  65.719  76.634
19144DT     BB224365  97.308  65.769  76.530
19144DT     BB324366  97.412  65.590  76.541
19144DT     SC124367  97.424  65.604  76.803
19144DT     SC224368  97.627  65.641  76.863
19144DT     SC324369  97.387  65.543  77.056
19145DT     BB124370  97.415  65.579  76.271
19145DT     BB224371  97.763  65.566  76.366
19145DT     BB324372  97.818  65.370  76.405
19145DT     SC124373  97.691  65.372  76.635
19145DT     SC224374  97.834  65.367  76.795
19145DT     SC324375  97.516  65.310  76.822
19146DG     BB124376  98.063  65.516  76.115
19146DG     BB224377  98.251  65.372  76.388
19146DG     BB324378  98.248  65.174  76.375
19146DG     SC124379  97.994  65.143  76.544
19146DG     SC224380  97.977  65.017  76.814
19146DG     SC324381  97.707  65.074  76.707
19146DG     SC424382  97.852  65.147  76.471
19147DA     BB124383  98.594  65.191  76.403
19147DA     BB224384  98.582  64.980  76.702
19147DA     BB324385  98.544  64.777  76.648
19147DA     SC124386  98.234  64.804  76.669
19147DA     SC224387  98.052  64.722  76.818
19147DA     SC324388  97.895  64.776  76.622
19147DA     SC424389  98.154  64.843  76.535
19148DT     BB124390  98.689  64.633  76.676
19148DT     BB224391  98.536  64.465  76.955
19148DT     BB324392  98.454  64.285  76.893
19148DT     SC124393  98.253  64.408  76.777
19148DT     SC224394  98.072  64.368  76.886
19148DT     SC324395  98.090  64.493  76.587
19149DG     BB124396  98.727  64.159  77.173
19149DG     BB224397  98.401  64.016  77.240
19149DG     BB324398  98.371  63.857  77.124
19149DG     SC124399  98.247  64.017  76.895
19149DG     SC224400  97.963  64.001  76.803
19149DG     SC324401  98.124  64.164  76.616
19149DG     SC424402  98.342  64.079  76.782
19150DT     BB124403  98.346  63.611  77.186
19150DT     BB224404  97.990  63.572  77.143
19150DT     BB324405  97.951  63.453  76.978
19150DT     SC124406  98.013  63.647  76.813
19150DT     SC224407  97.835  63.715  76.713
19150DT     SC324408  98.140  63.782  76.625
19151DC     BB124409  97.874  63.205  77.114
19151DC     BB224410  97.587  63.283  76.908
19151DC     BB324411  97.600  63.182  76.728
19151DC     SC124412  97.786  63.346  76.641
19151DC     SC224413  97.704  63.468  76.483
19151DC     SC324414  98.019  63.434  76.555
19152DT     BB124415  97.399  63.002  76.793
19152DT     BB224416  97.280  63.167  76.496
19152DT     BB324417  97.342  63.064  76.327
19152DT     SC124418  97.587  63.153  76.354
19152DT     SC224419  97.631  63.291  76.195
19152DT     SC324420  97.848  63.153  76.391
19153DC     BB124421  97.086  62.994  76.294
19153DC     BB224422  97.175  63.173  75.994
19153DC     BB324423  97.264  63.045  75.858
19153DC     SC124424  97.487  63.042  75.997
19153DC     SC224425  97.641  63.145  75.888
19153DC     SC324426  97.687  62.951  76.143
19154DA     BB124427  96.960  63.275  75.684
19154DA     BB224428  97.258  63.295  75.471
19154DA     BB324429  97.294  63.108  75.375
19154DA     SC124430  97.477  62.999  75.602
19154DA     SC224431  97.718  62.946  75.634
19154DA     SC324432  97.639  62.800  75.830
19154DA     SC424433  97.408  62.913  75.719
19155DG     BB124434  97.264  63.302  75.138
19155DG     BB224435  97.607  63.204  75.080
19155DG     BB324436  97.613  63.022  74.999
19155DG     SC124437  97.624  62.875  75.267
19155DG     SC224438  97.855  62.717  75.371
19155DG     SC324439  97.617  62.682  75.543
19155DG     SC424440  97.487  62.836  75.340
19156DT     BB124441  97.697  63.000  74.804
19156DT     BB224442  98.011  62.836  74.873
19156DT     BB324443  97.994  62.633  74.836
19156DT     SC124444  97.855  62.596  75.055
19156DT     SC224445  97.973  62.485  75.196
19156DT     SC324446  97.653  62.534  75.213
19157DG     BB124447  98.296  62.759  74.589
19157DG     BB224448  98.399  62.473  74.785
19157DG     BB324449  98.326  62.306  74.705
19157DG     SC124450  98.066  62.313  74.866
19157DG     SC224451  97.984  62.118  75.076
19157DG     SC324452  97.761  62.300  75.010
19157DG     SC424453  97.940  62.393  74.807
19158DT     BB124454  98.453  62.126  74.609
19158DT     BB224455  98.424  61.878  74.869
19158DT     BB324456  98.298  61.725  74.808
19158DT     SC124457  98.086  61.877  74.842
19158DT     SC224458  97.972  61.804  75.010
19158DT     SC324459  97.868  62.015  74.787
19159DA     BB124460  98.649  61.527  74.923
19159DA     BB224461  98.369  61.363  75.093
19159DA     BB324462  98.262  61.238  74.957
19159DA     SC124463  98.063  61.461  74.870
19159DA     SC224464  97.821  61.514  74.899
19159DA     SC324465  97.851  61.666  74.694
19159DA     SC424466  98.101  61.550  74.742
19160DT     BB124467  98.263  61.035  74.986
19160DT     BB224468  97.929  61.014  75.119
19160DT     BB324469  97.802  60.928  74.979
19160DT     SC124470  97.798  61.149  74.836
19160DT     SC224471  97.603  61.238  74.849
19160DT     SC324472  97.834  61.314  74.634
19161DG     BB124473  97.794  60.725  75.330
19161DG     BB224474  97.463  60.826  75.224
19161DG     BB324475  97.401  60.709  75.076
19161DG     SC124476  97.517  60.884  74.854
19161DG     SC224477  97.361  61.038  74.652
19161DG     SC324478  97.650  61.042  74.587
19161DG     SC424479  97.668  60.859  74.807
19162DC     BB124480  97.238  60.625  75.130
19162DC     BB224481  96.992  60.797  74.929
19162DC     BB324482  96.959  60.692  74.754
19162DC     SC124483  97.188  60.772  74.654
19162DC     SC224484  97.151  60.910  74.492
19162DC     SC324485  97.433  60.763  74.556
19163DA     BB124486  96.599  60.798  74.947
19163DA     BB224487  96.573  60.886  74.592
19163DA     BB324488  96.565  60.709  74.472
19163DA     SC124489  96.873  60.693  74.433
19163DA     SC224490  97.037  60.723  74.248
19163DA     SC324491  97.197  60.585  74.394
19163DA     SC424492  96.956  60.604  74.538
19164DT     BB124493  96.400  60.685  74.381
19164DT     BB224494  96.519  60.762  74.049
19164DT     BB324495  96.554  60.587  73.944
19164DT     SC124496  96.774  60.539  74.080
19164DT     SC224497  96.944  60.564  73.950
19164DT     SC324498  96.945  60.420  74.241
19165DA     BB124499  96.309  60.830  73.705
19165DA     BB224500  96.586  60.710  73.498
19165DA     BB324501  96.561  60.502  73.453
19165DA     SC124502  96.720  60.405  73.702
19165DA     SC224503  96.938  60.293  73.749
19165DA     SC324504  96.834  60.230  73.975
19165DA     SC424505  96.637  60.374  73.836
19166DT     BB124506  96.529  60.453  73.264
19166DT     BB224507  96.857  60.317  73.199
19166DT     BB324508  96.848  60.110  73.198
19166DT     SC124509  96.828  60.101  73.459
19166DT     SC224510  97.009  60.020  73.542
19166DT     SC324511  96.727  60.056  73.699
19167DA     BB124512  97.043  60.248  72.853
19167DA     BB224513  97.250  59.987  73.007
19167DA     BB324514  97.159  59.796  72.982
19167DA     SC124515  97.000  59.810  73.249
19167DA     SC224516  97.003  59.698  73.472
19167DA     SC324517  96.761  59.781  73.494
19167DA     SC424518  96.850  59.869  73.243
19168DG     BB124519  97.433  59.761  72.848
19168DG     BB224520  97.477  59.521  73.115
19168DG     BB324521  97.377  59.354  73.073
19168DG     SC124522  97.118  59.447  73.209
19168DG     SC224523  96.997  59.328  73.455
19168DG     SC324524  96.813  59.523  73.330
19168DG     SC424525  97.011  59.529  73.123
19169DT     BB124526  97.496  59.199  73.065
19169DT     BB224527  97.411  59.017  73.365
19169DT     BB324528  97.269  58.873  73.322
19169DT     SC124529  97.080  59.053  73.303
19169DT     SC224530  96.944  59.031  73.469
19169DT     SC324531  96.889  59.203  73.199
19170DA     BB124532  97.588  58.708  73.544
19170DA     BB224533  97.272  58.591  73.689
19170DA     BB324534  97.174  58.457  73.555
19170DA     SC124535  97.012  58.681  73.412
19170DA     SC224536  96.775  58.755  73.396
19170DA     SC324537  96.848  58.875  73.182
19170DA     SC424538  97.077  58.747  73.281
19171DC     BB124539  97.156  58.262  73.605
19171DC     BB224540  96.800  58.257  73.665
19171DC     BB324541  96.703  58.170  73.504
19171DC     SC124542  96.738  58.385  73.357
19171DC     SC224543  96.548  58.482  73.326
19171DC     SC324544  96.822  58.541  73.162
19172DC     BB124545  96.647  57.914  73.620
19172DC     BB224546  96.323  58.022  73.505
19172DC     BB324547  96.290  57.953  73.313
19172DC     SC124548  96.454  58.130  73.211
19172DC     SC224549  96.342  58.276  73.099
19172DC     SC324550  96.663  58.232  73.087
19173DT     BB124551  96.104  57.735  73.369
19173DT     BB224552  95.924  57.937  73.130
19173DT     BB324553  95.956  57.865  72.939
19173DT     SC124554  96.199  57.965  72.934
19173DT     SC224555  96.206  58.129  72.794
19173DT     SC324556  96.462  57.977  72.922
19174DA     BB124557  95.537  57.865  72.964
19174DA     BB224558  95.626  58.041  72.655
19174DA     BB324559  95.680  57.901  72.503
19174DA     SC124560  95.982  57.900  72.576
19174DA     SC224561  96.196  57.980  72.476
19174DA     SC324562  96.309  57.812  72.634
19174DA     SC424563  96.034  57.789  72.680
19175DT     BB124564  95.561  57.881  72.334
19175DT     BB224565  95.781  58.058  72.109
19175DT     BB324566  95.873  57.925  71.981
19175DT     SC124567  96.033  57.840  72.171
19175DT     SC224568  96.234  57.905  72.129
19175DT     SC324569  96.148  57.678  72.344
19176DA     BB124570  95.703  58.235  71.757
19176DA     BB224571  96.050  58.191  71.646
19176DA     BB324572  96.069  58.012  71.532
19176DA     SC124573  96.139  57.834  71.778
19176DA     SC224574  96.337  57.713  71.868
19176DA     SC324575  96.167  57.577  72.004
19176DA     SC424576  96.017  57.760  71.853
19177DT     BB124577  96.115  58.039  71.348
19177DT     BB224578  96.458  57.927  71.368
19177DT     BB324579  96.473  57.734  71.295
19177DT     SC124580  96.362  57.634  71.511
19177DT     SC224581  96.510  57.525  71.623
19177DT     SC324582  96.189  57.510  71.666
19178DC     BB124583  96.599  57.827  71.072
19178DC     BB224584  96.827  57.581  71.206
19178DC     BB324585  96.778  57.393  71.135
19178DC     SC124586  96.570  57.379  71.294
19178DC     SC224587  96.606  57.231  71.447
19178DC     SC324588  96.319  57.362  71.374
19179DT     BB124589  96.992  57.376  70.953
19179DT     BB224590  97.028  57.079  71.155
19179DT     BB324591  96.923  56.922  71.069
19179DT     SC124592  96.694  57.023  71.147
19179DT     SC224593  96.609  56.898  71.301
19179DT     SC324594  96.452  57.129  71.135
19180DC     BB124595  97.146  56.773  70.959
19180DC     BB224596  96.978  56.531  71.168
19180DC     BB324597  96.842  56.423  71.055
19180DC     SC124598  96.675  56.625  71.048
19180DC     SC224599  96.502  56.579  71.167
19180DC     SC324600  96.526  56.821  70.952
19181DA     BB124601  97.076  56.112  71.217
19181DA     BB224602  96.726  56.032  71.290
19181DA     BB324603  96.632  55.948  71.118
19181DA     SC124604  96.533  56.222  71.008
19181DA     SC224605  96.317  56.342  70.978
19181DA     SC324606  96.443  56.485  70.807
19181DA     SC424607  96.629  56.299  70.904
19182DT     BB124608  96.566  55.749  71.121
19182DT     BB224609  96.218  55.829  71.168
19182DT     BB324610  96.112  55.791  70.994
19182DT     SC124611  96.210  56.005  70.878
19182DT     SC224612  96.054  56.150  70.853
19182DT     SC324613  96.343  56.155  70.707
19183DA     BB124614  95.926  55.613  71.324
19183DA     BB224615  95.676  55.810  71.142
19183DA     BB324616  95.625  55.714  70.958
19183DA     SC124617  95.844  55.861  70.793
19183DA     SC224618  95.854  56.035  70.615
19183DA     SC324619  96.089  55.944  70.567
19183DA     SC424620  95.987  55.789  70.778
19184DT     BB124621  95.451  55.668  70.963
19184DT     BB224622  95.333  55.923  70.738
19184DT     BB324623  95.311  55.845  70.548
19184DT     SC124624  95.571  55.846  70.510
19184DT     SC224625  95.622  55.995  70.364
19184DT     SC324626  95.816  55.757  70.468
19185DA     BB124627  94.973  56.061  70.674
19185DA     BB224628  95.065  56.173  70.337
19185DA     BB324629  95.027  56.019  70.194
19185DA     SC124630  95.311  55.894  70.218
19185DA     SC224631  95.516  55.873  70.077
19185DA     SC324632  95.578  55.678  70.231
19185DA     SC424633  95.331  55.774  70.324
19186DT     BB124634  94.897  56.070  70.076
19186DT     BB224635  95.112  56.119  69.790
19186DT     BB324636  95.107  55.952  69.668
19186DT     SC124637  95.255  55.815  69.835
19186DT     SC224638  95.449  55.781  69.747
19186DT     SC324639  95.328  55.628  70.006
19187DC     BB124640  94.970  56.101  69.494
19187DC     BB224641  95.256  55.981  69.309
19187DC     BB324642  95.217  55.792  69.234
19187DC     SC124643  95.247  55.684  69.472
19187DC     SC224644  95.427  55.566  69.474
19187DC     SC324645  95.189  55.556  69.695
19188DC     BB124646  95.202  55.901  68.990
19188DC     BB224647  95.455  55.646  68.961
19188DC     BB324648  95.367  55.463  68.923
19188DC     SC124649  95.286  55.441  69.171
19188DC     SC224650  95.396  55.285  69.269
19188DC     SC324651  95.123  55.422  69.378
19189DT     BB124652  95.464  55.478  68.673
19189DT     BB224653  95.594  55.168  68.803
19189DT     BB324654  95.456  55.017  68.777
19189DT     SC124655  95.307  55.109  68.973
19189DT     SC224656  95.315  54.972  69.139
19189DT     SC324657  95.100  55.212  69.101
19190DG     BB124658  95.803  54.906  68.596
19190DG     BB224659  95.683  54.650  68.821
19190DG     BB324660  95.532  54.552  68.738
19190DG     SC124661  95.317  54.740  68.849
19190DG     SC224662  95.109  54.669  69.052
19190DG     SC324663  95.058  54.937  68.937
19190DG     SC424664  95.276  54.870  68.765
19191DA     BB124665  95.710  54.265  68.817
19191DA     BB224666  95.427  54.143  69.016
19191DA     BB324667  95.270  54.075  68.888
19191DA     SC124668  95.127  54.351  68.876
19191DA     SC224669  94.916  54.453  68.959
19191DA     SC324670  94.952  54.630  68.777
19191DA     SC424671  95.167  54.450  68.755
19192DA     BB124672  95.302  53.803  69.071
19192DA     BB224673  94.951  53.849  69.168
19192DA     BB324674  94.822  53.795  69.007
19192DA     SC124675  94.814  54.081  68.885
19192DA     SC224676  94.649  54.266  68.859
19192DA     SC324677  94.803  54.350  68.672
19192DA     SC424678  94.922  54.116  68.771
19193DT     BB124679  94.694  53.625  69.017
19193DT     BB224680  94.385  53.806  69.058
19193DT     BB324681  94.275  53.799  68.883
19193DT     SC124682  94.433  53.972  68.766
19193DT     SC224683  94.328  54.157  68.737
19193DT     SC324684  94.607  54.073  68.596
19194DA     BB124685  94.003  53.655  69.170
19194DA     BB224686  93.830  53.915  68.977
19194DA     BB324687  93.772  53.840  68.787
19194DA     SC124688  94.035  53.926  68.644
19194DA     SC224689  94.106  54.094  68.475
19194DA     SC324690  94.311  53.943  68.442
19194DA     SC424691  94.154  53.818  68.637
19195DC     BB124692  93.563  53.811  68.728
19195DC     BB224693  93.544  54.100  68.513
19195DC     BB324694  93.533  54.041  68.315
19195DC     SC124695  93.788  53.977  68.312
19195DC     SC224696  93.895  54.116  68.187
19195DC     SC324697  94.007  53.831  68.294
19196DA     BB124698  93.216  54.304  68.383
19196DA     BB224699  93.398  54.420  68.087
19196DA     BB324700  93.355  54.295  67.920
19196DA     SC124701  93.592  54.100  67.974
19196DA     SC224702  93.811  54.042  67.869
19196DA     SC324703  93.794  53.824  68.004
19196DA     SC424704  93.563  53.971  68.064
19197DG     BB124705  93.263  54.568  67.821
19197DG     BB224706  93.538  54.521  67.591
19197DG     BB324707  93.484  54.399  67.444
19197DG     SC124708  93.570  54.144  67.589
19197DG     SC224709  93.794  53.964  67.508
19197DG     SC324710  93.636  53.843  67.727
19197DG     SC424711  93.466  54.070  67.685
19198DG     BB124712  93.587  54.657  67.284
19198DG     BB224713  93.834  54.432  67.146
19198DG     BB324714  93.750  54.315  67.009
19198DG     SC124715  93.674  54.096  67.208
19198DG     SC224716  93.787  53.820  67.218
19198DG     SC324717  93.557  53.845  67.402
19198DG     SC424718  93.532  54.105  67.283
19199DA     BB124719  94.040  54.433  66.864
19199DA     BB224720  94.139  54.085  66.805
19199DA     BB324721  94.007  53.993  66.665
19199DA     SC124722  93.810  53.888  66.882
19199DA     SC224723  93.743  53.668  66.979
19199DA     SC324724  93.531  53.791  67.058
19199DA     SC424725  93.685  53.982  66.921
19200DT     BB124726  94.107  53.955  66.534
19200DT     BB224727  94.100  53.595  66.567
19200DT     BB324728  93.943  53.517  66.456
19200DT     SC124729  93.767  53.599  66.632
19200DT     SC224730  93.683  53.429  66.733
19200DT     SC324731  93.564  53.730  66.738
19201DT     BB124732  94.127  53.425  66.287
19201DT     BB224733  93.927  53.136  66.368
19201DT     BB324734  93.757  53.133  66.250
19201DT     SC124735  93.646  53.326  66.388
19201DT     SC224736  93.480  53.248  66.500
19201DT     SC324737  93.543  53.561  66.447
19202DA     BB124738  93.921  52.750  66.174
19202DA     BB224739  93.562  52.704  66.235
19202DA     BB324740  93.449  52.768  66.066
19202DA     SC124741  93.417  53.060  66.167
19202DA     SC224742  93.234  53.206  66.253
19202DA     SC324743  93.388  53.401  66.191
19202DA     SC424744  93.526  53.168  66.121
19203DG     BB124745  93.320  52.474  65.992
19203DG     BB224746  93.005  52.632  66.071
19203DG     BB324747  92.927  52.713  65.908
19203DG     SC124748  93.064  52.984  65.947
19203DG     SC224749  92.927  53.242  66.009
19203DG     SC324750  93.213  53.286  65.948
19203DG     SC424751  93.209  53.007  65.885
19204DA     BB124752  92.608  52.544  65.918
19204DA     BB224753  92.432  52.862  65.961
19204DA     BB324754  92.394  52.952  65.771
19204DA     SC124755  92.660  53.114  65.768
19204DA     SC224756  92.732  53.352  65.786
19204DA     SC324757  92.950  53.274  65.676
19204DA     SC424758  92.788  53.046  65.698
19205DA     BB124759  92.075  52.957  65.858
19205DA     BB224760  92.097  53.323  65.853
19205DA     BB324761  92.078  53.396  65.653
19205DA     SC124762  92.384  53.389  65.596
19205DA     SC224763  92.569  53.553  65.561
19205DA     SC324764  92.693  53.357  65.451
19205DA     SC424765  92.444  53.255  65.530
19206DA     BB124766  91.848  53.566  65.805
19206DA     BB224767  92.045  53.863  65.721
19206DA     BB324768  92.022  53.912  65.514
19206DA     SC124769  92.264  53.740  65.422
19206DA     SC224770  92.493  53.777  65.330
19206DA     SC324771  92.478  53.535  65.248
19206DA     SC424772  92.235  53.588  65.378
19207DC     BB124773  91.944  54.072  65.503
19207DC     BB224774  92.240  54.254  65.406
19207DC     BB324775  92.243  54.280  65.201
19207DC     SC124776  92.310  54.029  65.163
19207DC     SC224777  92.512  54.019  65.091
19207DC     SC324778  92.296  53.778  65.084
19208DT     BB124779  92.210  54.522  65.282
19208DT     BB224780  92.513  54.523  65.086
19208DT     BB324781  92.467  54.521  64.884
19208DT     SC124782  92.400  54.268  64.894
19208DT     SC224783  92.545  54.151  64.786
19208DT     SC324784  92.253  54.049  64.881
19209DT     BB124785  92.569  54.757  64.908
19209DT     BB224786  92.761  54.592  64.652
19209DT     BB324787  92.655  54.590  64.474
19209DT     SC124788  92.496  54.402  64.562
19209DT     SC224789  92.535  54.219  64.456
19209DT     SC324790  92.275  54.279  64.640
19210DA     BB124791  93.045  54.734  64.402
19210DA     BB224792  92.963  54.488  64.142
19210DA     BB324793  92.814  54.566  64.011
19210DA     SC124794  92.575  54.454  64.176
19210DA     SC224795  92.401  54.277  64.152
19210DA     SC324796  92.273  54.407  64.332
19210DA     SC424797  92.511  54.549  64.288
19211DT     BB124798  92.855  54.615  63.808
19211DT     BB224799  92.673  54.345  63.654
19211DT     BB324800  92.497  54.416  63.571
19211DT     SC124801  92.385  54.440  63.808
19211DT     SC224802  92.230  54.293  63.828
19211DT     SC324803  92.274  54.550  64.020
19212DC     BB124804  92.577  54.413  63.295
19212DC     BB224805  92.271  54.221  63.294
19212DC     BB324806  92.110  54.344  63.255
19212DC     SC124807  92.119  54.445  63.498
19212DC     SC224808  91.948  54.378  63.609
19212DC     SC324809  92.147  54.620  63.693
19213DA     BB124810  92.055  54.064  62.943
19213DA     BB224811  91.730  54.100  63.109
19213DA     BB324812  91.633  54.278  63.044
19213DA     SC124813  91.754  54.456  63.269
19213DA     SC224814  91.674  54.574  63.474
19213DA     SC324815  91.888  54.714  63.451
19213DA     SC424816  91.891  54.533  63.237
19214DG     BB124817  91.384  54.118  62.915
19214DG     BB224818  91.192  54.282  63.174
19214DG     BB324819  91.124  54.457  63.108
19214DG     SC124820  91.370  54.615  63.199
19214DG     SC224821  91.375  54.822  63.414
19214DG     SC324822  91.633  54.815  63.268
19214DG     SC424823  91.495  54.629  63.100
19215DG     BB124824  90.794  54.388  63.144
19215DG     BB224825  90.786  54.651  63.393
19215DG     BB324826  90.744  54.825  63.306
19215DG     SC124827  91.037  54.896  63.251
19215DG     SC224828  91.190  55.119  63.376
19215DG     SC324829  91.345  54.996  63.156
19215DG     SC424830  91.104  54.847  63.114
19216DT     BB124831  90.543  54.969  63.340
19216DT     BB224832  90.687  55.224  63.551
19216DT     BB324833  90.698  55.403  63.447
19216DT     SC124834  90.902  55.316  63.306
19216DT     SC224835  91.080  55.423  63.365
19216DT     SC324836  91.047  55.241  63.099
19217DG     BB124837  90.460  55.493  63.767
19217DG     BB224838  90.744  55.717  63.749
19217DG     BB324839  90.708  55.862  63.618
19217DG     SC124840  90.822  55.709  63.379
19217DG     SC224841  91.067  55.782  63.225
19217DG     SC324842  90.920  55.563  63.091
19217DG     SC424843  90.725  55.613  63.295
19218DT     BB124844  90.698  56.084  63.679
19218DT     BB224845  91.020  56.194  63.560
19218DT     BB324846  90.997  56.312  63.391
19218DT     SC124847  90.945  56.102  63.243
19218DT     SC224848  91.108  56.068  63.107
19218DT     SC324849  90.813  55.935  63.086
19219DG     BB124850  91.201  56.510  63.681
19219DG     BB224851  91.385  56.496  63.370
19219DG     BB324852  91.311  56.628  63.241
19219DG     SC124853  91.108  56.433  63.121
19219DG     SC224854  91.111  56.327  62.842
19219DG     SC324855  90.860  56.253  62.980
19219DG     SC424856  90.963  56.421  63.188
19220DA     BB124857  91.646  56.677  63.236
19220DA     BB224858  91.642  56.605  62.877
19220DA     BB324859  91.544  56.762  62.771
19220DA     SC124860  91.262  56.632  62.788
19220DA     SC224861  91.099  56.525  62.634
19220DA     SC324862  90.925  56.576  62.815
19220DA     SC424863  91.169  56.674  62.912
19221DT     BB124864  91.670  56.801  62.681
19221DT     BB224865  91.542  56.675  62.368
19221DT     BB324866  91.428  56.820  62.274
19221DT     SC124867  91.229  56.783  62.442
19221DT     SC224868  91.065  56.691  62.339
19221DT     SC324869  91.051  56.831  62.631
19222DA     BB124870  91.706  56.608  62.031
19222DA     BB224871  91.384  56.633  61.857
19222DA     BB324872  91.340  56.837  61.811
19222DA     SC124873  91.186  56.889  62.077
19222DA     SC224874  90.951  56.930  62.149
19222DA     SC324875  91.055  57.027  62.362
19222DA     SC424876  91.270  56.946  62.201
19223DA     BB124877  91.303  56.690  61.519
19223DA     BB224878  90.962  56.826  61.519
19223DA     BB324879  90.967  57.038  61.493
19223DA     SC124880  90.979  57.100  61.797
19223DA     SC224881  90.831  57.199  61.972
19223DA     SC324882  91.046  57.237  62.105
19223DA     SC424883  91.125  57.117  61.864
19224DG     BB124884  90.801  56.996  61.228
19224DG     BB224885  90.551  57.193  61.401
19224DG     BB324886  90.590  57.387  61.379
19224DG     SC124887  90.767  57.405  61.628
19224DG     SC224888  90.704  57.558  61.876
19224DG     SC324889  90.982  57.457  61.882
19224DG     SC424890  90.924  57.375  61.614
19225DT     BB124891  90.456  57.551  61.262
19225DT     BB224892  90.313  57.732  61.540
19225DT     BB324893  90.399  57.920  61.553
19225DT     SC124894  90.621  57.820  61.651
19225DT     SC224895  90.641  57.878  61.857
19225DT     SC324896  90.876  57.755  61.671
19226DT     BB124897  90.173  58.051  61.458
19226DT     BB224898  90.233  58.202  61.779
19226DT     BB324899  90.358  58.366  61.758
19226DT     SC124900  90.567  58.212  61.721
19226DT     SC224901  90.698  58.228  61.891
19226DT     SC324902  90.774  58.099  61.604
19227DT     BB124903  90.147  58.525  61.811
19227DT     BB224904  90.391  58.608  62.063
19227DT     BB324905  90.521  58.753  61.992
19227DT     SC124906  90.645  58.579  61.840
19227DT     SC224907  90.843  58.546  61.917
19227DT     SC324908  90.736  58.459  61.623
19228DT     BB124909  90.398  58.896  62.171
19228DT     BB224910  90.748  58.911  62.258
19228DT     BB324911  90.844  59.051  62.140
19228DT     SC124912  90.839  58.891  61.932
19228DT     SC224913  91.039  58.824  61.888
19228DT     SC324914  90.782  58.798  61.692
19229DA     BB124915  90.937  59.083  62.551
19229DA     BB224916  91.247  59.109  62.357
19229DA     BB324917  91.249  59.289  62.243
19229DA     SC124918  91.117  59.160  61.992
19229DA     SC224919  91.184  59.099  61.760
19229DA     SC324920  90.932  59.100  61.710
19229DA     SC424921  90.957  59.168  61.981
19230DT     BB124922  91.380  59.408  62.298
19230DT     BB224923  91.595  59.397  62.008
19230DT     BB324924  91.551  59.555  61.882
19230DT     SC124925  91.330  59.440  61.800
19230DT     SC224926  91.353  59.378  61.595
19230DT     SC324927  91.073  59.397  61.758
19231DA     BB124928  91.967  59.641  61.933
19231DA     BB224929  91.898  59.689  61.577
19231DA     BB324930  91.799  59.876  61.545
19231DA     SC124931  91.513  59.756  61.571
19231DA     SC224932  91.317  59.710  61.423
19231DA     SC324933  91.180  59.704  61.640
19231DA     SC424934  91.445  59.758  61.717
19232DT     BB124935  91.862  60.128  61.442
19232DT     BB224936  91.669  60.099  61.139
19232DT     BB324937  91.516  60.239  61.138
19232DT     SC124938  91.378  60.101  61.313
19232DT     SC224939  91.203  60.019  61.218
19232DT     SC324940  91.255  60.037  61.538
19233DT     BB124941  91.603  60.480  60.955
19233DT     BB224942  91.286  60.386  60.811
19233DT     BB324943  91.137  60.513  60.880
19233DT     SC124944  91.136  60.397  61.115
19233DT     SC224945  90.952  60.287  61.140
19233DT     SC324946  91.161  60.363  61.376
19234DT     BB124947  91.090  60.687  60.643
19234DT     BB224948  90.766  60.542  60.706
19234DT     BB324949  90.651  60.672  60.820
19234DT     SC124950  90.788  60.614  61.037
19234DT     SC224951  90.663  60.503  61.172
19234DT     SC324952  90.945  60.645  61.246
19235DT     BB124953  90.485  60.741  60.607
19235DT     BB224954  90.261  60.603  60.854
19235DT     BB324955  90.192  60.753  60.979
19235DT     SC124956  90.422  60.766  61.104
19235DT     SC224957  90.399  60.691  61.304
19235DT     SC324958  90.651  60.862  61.194
19236DC     BB124959  89.951  60.727  60.863
19236DC     BB224960  89.893  60.663  61.213
19236DC     BB324961  89.861  60.842  61.313
19236DC     SC124962  90.116  60.902  61.303
19236DC     SC224963  90.200  60.891  61.500
19236DC     SC324964  90.339  61.030  61.242
19237DT     BB124965  89.606  60.766  61.337
19237DT     BB224966  89.719  60.819  61.675
19237DT     BB324967  89.704  61.020  61.724
19237DT     SC124968  89.913  61.080  61.578
19237DT     SC224969  90.076  61.137  61.707
19237DT     SC324970  90.060  61.187  61.387
19238DA     BB124971  89.510  60.803  62.027
19238DA     BB224972  89.735  61.043  62.188
19238DA     BB324973  89.657  61.241  62.171
19238DA     SC124974  89.802  61.303  61.903
19238DA     SC224975  89.988  61.448  61.823
19238DA     SC324976  89.885  61.417  61.590
19238DA     SC424977  89.722  61.272  61.767
19239DA     BB124978  89.689  61.247  62.501
19239DA     BB224979  89.923  61.525  62.457
19239DA     BB324980  89.817  61.706  62.419
19239DA     SC124981  89.820  61.671  62.109
19239DA     SC224982  89.929  61.778  61.912
19239DA     SC324983  89.741  61.670  61.775
19239DA     SC424984  89.695  61.597  62.042
19240DA     BB124985  89.983  61.827  62.678
19240DA     BB224986  90.138  62.065  62.446
19240DA     BB324987  90.004  62.227  62.405
19240DA     SC124988  89.875  62.089  62.158
19240DA     SC224989  89.872  62.119  61.910
19240DA     SC324990  89.658  61.978  61.916
19240DA     SC424991  89.743  62.001  62.183
19241DA     BB124992  90.259  62.405  62.505
19241DA     BB224993  90.269  62.544  62.166
19241DA     BB324994  90.117  62.692  62.142
19241DA     SC124995  89.903  62.491  62.040
19241DA     SC224996  89.785  62.439  61.826
19241DA     SC324997  89.611  62.323  61.974
19241DA     SC424998  89.805  62.425  62.149
19242DT     BB124999  90.190  62.861  62.110
19242DT     BB225000  90.118  62.869  61.756
19242DT     BB325001  89.949  62.984  61.721
19242DT     SC125002  89.791  62.795  61.813
19242DT     SC225003  89.678  62.712  61.650
19242DT     SC325004  89.616  62.671  61.965
19243DT     BB125005  90.126  63.142  61.611
19243DT     BB225006  89.890  63.062  61.350
19243DT     BB325007  89.722  63.181  61.367
19243DT     SC125008  89.636  63.043  61.573
19243DT     SC225009  89.461  62.932  61.516
19243DT     SC325010  89.562  62.985  61.819
19244DG     BB125011  89.894  63.200  60.998
19244DG     BB225012  89.540  63.126  60.980
19244DG     BB325013  89.434  63.289  61.023
19244DG     SC125014  89.424  63.234  61.324
19244DG     SC225015  89.179  63.168  61.481
19244DG     SC325016  89.410  63.216  61.660
19244DG     SC425017  89.542  63.290  61.417
19245DT     BB125018  89.312  63.352  60.873
19245DT     BB225019  88.985  63.268  60.999
19245DT     BB325020  88.898  63.434  61.086
19245DT     SC125021  89.052  63.414  61.297
19245DT     SC225022  88.934  63.354  61.467
19245DT     SC325023  89.235  63.473  61.478
19246DT     BB125024  88.731  63.444  60.877
19246DT     BB225025  88.515  63.428  61.166
19246DT     BB325026  88.488  63.617  61.244
19246DT     SC125027  88.729  63.619  61.347
19246DT     SC225028  88.715  63.609  61.561
19246DT     SC325029  88.979  63.689  61.391
19247DA     BB125030  88.104  63.457  61.188
19247DA     BB225031  88.118  63.598  61.526
19247DA     BB325032  88.114  63.811  61.518
19247DA     SC125033  88.423  63.841  61.506
19247DA     SC225034  88.607  63.923  61.653
19247DA     SC325035  88.743  63.944  61.437
19247DA     SC425036  88.491  63.848  61.360
19248DC     BB125037  87.952  63.910  61.593
19248DC     BB225038  88.111  64.034  61.892
19248DC     BB325039  88.152  64.236  61.872
19248DC     SC125040  88.352  64.188  61.710
19248DC     SC225041  88.537  64.236  61.809
19248DC     SC325042  88.500  64.186  61.491
19249DA     BB125043  87.945  64.185  62.233
19249DA     BB225044  88.241  64.390  62.301
19249DA     BB325045  88.215  64.587  62.223
19249DA     SC125046  88.339  64.520  61.946
19249DA     SC225047  88.546  64.576  61.818
19249DA     SC325048  88.413  64.504  61.611
19249DA     SC425049  88.239  64.473  61.829
19250DG     BB125050  88.255  64.661  62.520
19250DG     BB225051  88.550  64.825  62.391
19250DG     BB325052  88.501  65.001  62.312
19250DG     SC125053  88.450  64.889  62.032
19250DG     SC225054  88.611  64.947  61.787
19250DG     SC325055  88.365  64.796  61.719
19250DG     SC425056  88.304  64.834  61.996
19251DA     BB125057  88.754  65.127  62.512
19251DA     BB225058  88.924  65.258  62.214
19251DA     BB325059  88.823  65.430  62.141
19251DA     SC125060  88.637  65.270  61.949
19251DA     SC225061  88.609  65.238  61.704
19251DA     SC325062  88.372  65.157  61.762
19251DA     SC425063  88.494  65.224  62.006
19252DT     BB125064  88.919  65.604  62.151
19252DT     BB225065  88.989  65.639  61.798
19252DT     BB325066  88.860  65.776  61.714
19252DT     SC125067  88.661  65.605  61.721
19252DT     SC225068  88.611  65.546  61.520
19252DT     SC325069  88.429  65.497  61.784
19253DA     BB125070  89.246  65.899  61.606
19253DA     BB225071  89.040  65.903  61.303
19253DA     BB325072  88.906  66.069  61.306
19253DA     SC125073  88.677  65.913  61.446
19253DA     SC225074  88.451  65.825  61.387
19253DA     SC325075  88.409  65.820  61.640
19253DA     SC425076  88.670  65.918  61.606
19254DT     BB125077  88.929  66.222  61.170
19254DT     BB225078  88.644  66.142  60.963
19254DT     BB325079  88.491  66.277  60.998
19254DT     SC125080  88.435  66.165  61.229
19254DT     SC225081  88.244  66.066  61.215
19254DT     SC325082  88.403  66.135  61.489
19255DA     BB125083  88.547  66.284  60.582
19255DA     BB225084  88.187  66.247  60.644
19255DA     BB325085  88.104  66.433  60.709
19255DA     SC125086  88.150  66.377  61.011
19255DA     SC225087  88.012  66.328  61.213
19255DA     SC325088  88.217  66.404  61.347
19255DA     SC425089  88.287  66.429  61.077
19256DG     BB125090  87.919  66.428  60.453
19256DG     BB225091  87.652  66.405  60.697
19256DG     BB325092  87.601  66.587  60.758
19256DG     SC125093  87.802  66.592  60.989
19256DG     SC225094  87.735  66.594  61.280
19256DG     SC325095  88.024  66.640  61.239
19256DG     SC425096  87.950  66.646  60.962
19257DT     BB125097  87.389  66.694  60.724
19257DT     BB225098  87.246  66.668  61.055
19257DT     BB325099  87.244  66.854  61.146
19257DT     SC125100  87.503  66.844  61.189
19257DT     SC225101  87.540  66.823  61.400
19257DT     SC325102  87.759  66.906  61.176
19258DA     BB125103  86.844  66.728  61.174
19258DA     BB225104  86.947  66.838  61.508
19258DA     BB325105  86.951  67.051  61.519
19258DA     SC125106  87.249  67.074  61.432
19258DA     SC225107  87.467  67.138  61.536
19258DA     SC325108  87.547  67.176  61.295
19258DA     SC425109  87.279  67.093  61.275
19259DA     BB125110  86.748  67.014  61.777
19259DA     BB225111  87.009  67.167  61.984
19259DA     BB325112  87.007  67.379  61.961
19259DA     SC125113  87.209  67.381  61.725
19259DA     SC225114  87.445  67.452  61.685
19259DA     SC325115  87.381  67.452  61.436
19259DA     SC425116  87.150  67.376  61.576
19260DG     BB125117  86.947  67.385  62.267
19260DG     BB225118  87.274  67.539  62.282
19260DG     BB325119  87.259  67.734  62.249
19260DG     SC125120  87.291  67.711  61.945
19260DG     SC225121  87.522  67.813  61.785
19260DG     SC325122  87.303  67.721  61.609
19260DG     SC425123  87.161  67.689  61.855
19261DA     BB125124  87.440  67.762  62.539
19261DA     BB225125  87.706  67.934  62.355
19261DA     BB325126  87.651  68.136  62.315
19261DA     SC125127  87.520  68.071  62.040
19261DA     SC225128  87.566  68.112  61.799
19261DA     SC325129  87.317  68.064  61.763
19261DA     SC425130  87.362  68.039  62.039
19262DA     BB125131  87.944  68.153  62.454
19262DA     BB225132  88.055  68.311  62.142
19262DA     BB325133  87.973  68.507  62.125
19262DA     SC125134  87.717  68.415  61.974
19262DA     SC225135  87.621  68.435  61.745
19262DA     SC325136  87.397  68.380  61.856
19262DA     SC425137  87.587  68.381  62.062
19263DA     BB125138  88.293  68.548  62.077
19263DA     BB225139  88.202  68.684  61.749
19263DA     BB325140  88.109  68.875  61.772
19263DA     SC125141  87.821  68.760  61.791
19263DA     SC225142  87.613  68.757  61.652
19263DA     SC325143  87.492  68.702  61.872
19263DA     SC425144  87.763  68.728  61.938
19264DA     BB125145  88.345  68.944  61.555
19264DA     BB225146  88.077  69.048  61.328
19264DA     BB325147  87.993  69.234  61.392
19264DA     SC125148  87.775  69.103  61.570
19264DA     SC225149  87.527  69.075  61.569
19264DA     SC325150  87.551  69.030  61.820
19264DA     SC425151  87.810  69.078  61.725
19265DA     BB125152  88.064  69.317  61.081
19265DA     BB225153  87.706  69.380  61.036
19265DA     BB325154  87.650  69.563  61.132
19265DA     SC125155  87.580  69.428  61.403
19265DA     SC225156  87.376  69.380  61.539
19265DA     SC325157  87.538  69.357  61.737
19265DA     SC425158  87.697  69.419  61.514
19266DG     BB125159  87.565  69.660  60.847
19266DG     BB225160  87.235  69.665  60.995
19266DG     BB325161  87.208  69.836  61.093
19266DG     SC125162  87.317  69.731  61.358
19266DG     SC225163  87.160  69.690  61.609
19266DG     SC325164  87.450  69.656  61.659
19266DG     SC425165  87.474  69.743  61.388
19267DT     BB125166  87.049  69.987  61.033
19267DT     BB225167  86.803  69.932  61.291
19267DT     BB325168  86.807  70.089  61.427
19267DT     SC125169  87.030  70.000  61.534
19267DT     SC225170  86.990  69.926  61.732
19267DT     SC325171  87.283  69.991  61.609
19268DG     BB125172  86.431  70.057  61.276
19268DG     BB225173  86.430  70.051  61.638
19268DG     BB325174  86.455  70.235  61.709
19268DG     SC125175  86.760  70.219  61.716
19268DG     SC225176  86.930  70.219  61.962
19268DG     SC325177  87.097  70.242  61.718
19268DG     SC425178  86.844  70.261  61.586
19269DA     BB125179  86.181  70.138  61.891
19269DA     BB225180  86.371  70.201  62.199
19269DA     BB325181  86.397  70.411  62.229
19269DA     SC125182  86.666  70.424  62.074
19269DA     SC225183  86.907  70.461  62.126
19269DA     SC325184  86.931  70.520  61.878
19269DA     SC425185  86.660  70.458  61.917
19270DG     BB125186  86.253  70.317  62.483
19270DG     BB225187  86.558  70.435  62.638
19270DG     BB325188  86.559  70.633  62.644
19270DG     SC125189  86.694  70.666  62.372
19270DG     SC225190  86.967  70.775  62.323
19270DG     SC325191  86.822  70.738  62.068
19270DG     SC425192  86.602  70.673  62.240
19271DA     BB125193  86.639  70.580  62.978
19271DA     BB225194  86.940  70.785  62.937
19271DA     BB325195  86.888  70.990  62.915
19271DA     SC125196  86.868  70.978  62.605
19271DA     SC225197  86.995  71.065  62.409
19271DA     SC325198  86.779  71.023  62.277
19271DA     SC425199  86.724  70.946  62.541
19272DT     BB125200  86.937  71.124  63.062
19272DT     BB225201  87.195  71.302  62.884
19272DT     BB325202  87.123  71.485  62.820
19272DT     SC125203  86.983  71.372  62.629
19272DT     SC225204  87.068  71.422  62.438
19272DT     SC325205  86.775  71.293  62.487
19273DA     BB125206  87.463  71.607  63.037
19273DA     BB225207  87.474  71.784  62.716
19273DA     BB325208  87.336  71.947  62.717
19273DA     SC125209  87.100  71.779  62.603
19273DA     SC225210  86.969  71.765  62.391
19273DA     SC325211  86.791  71.647  62.533
19273DA     SC425212  87.000  71.710  62.709
19274DA     BB125213  87.582  72.166  62.643
19274DA     BB225214  87.407  72.242  62.330
19274DA     BB325215  87.253  72.386  62.364
19274DA     SC125216  87.034  72.173  62.421
19274DA     SC225217  86.828  72.086  62.310
19274DA     SC325218  86.763  72.001  62.543
19274DA     SC425219  87.011  72.129  62.574
19275DA     BB125220  87.395  72.577  62.130
19275DA     BB225221  87.088  72.540  61.933
19275DA     BB325222  86.939  72.677  62.002
19275DA     SC125223  86.816  72.479  62.208
19275DA     SC225224  86.605  72.349  62.236
19275DA     SC325225  86.670  72.337  62.484
19275DA     SC425226  86.873  72.484  62.358
19276DA     BB125227  86.932  72.773  61.687
19276DA     BB225228  86.583  72.659  61.677
19276DA     BB325229  86.456  72.804  61.768
19276DA     SC125230  86.475  72.680  62.052
19276DA     SC225231  86.327  72.558  62.211
19276DA     SC325232  86.494  72.631  62.392
19276DA     SC425233  86.590  72.737  62.150
19277DC     BB125234  86.322  72.897  61.650
19277DC     BB225235  86.031  72.719  61.766
19277DC     BB325236  85.918  72.841  61.889
19277DC     SC125237  86.089  72.816  62.086
19277DC     SC225238  86.001  72.700  62.244
19277DC     SC325239  86.269  72.880  62.268
19278DT     BB125240  85.739  72.847  61.692
19278DT     BB225241  85.559  72.719  61.977
19278DT     BB325242  85.490  72.876  62.093
19278DT     SC125243  85.730  72.922  62.187
19278DT     SC225244  85.737  72.868  62.395
19278DT     SC325245  85.957  73.047  62.238
19279DA     BB125246  85.171  72.614  62.015
19279DA     BB225247  85.172  72.688  62.374
19279DA     BB325248  85.106  72.888  62.409
19279DA     SC125249  85.392  73.011  62.395
19279DA     SC225250  85.555  73.115  62.552
19279DA     SC325251  85.662  73.215  62.341
19279DA     SC425252  85.443  73.064  62.253
19280DT     BB125253  84.933  72.912  62.504
19280DT     BB225254  85.069  73.027  62.818
19280DT     BB325255  85.045  73.232  62.835
19280DT     SC125256  85.238  73.277  62.663
19280DT     SC225257  85.407  73.363  62.766
19280DT     SC325258  85.363  73.358  62.445
19281DT     BB125259  84.841  73.209  63.023
19281DT     BB225260  85.083  73.421  63.185
19281DT     BB325261  85.045  73.620  63.140
19281DT     SC125262  85.140  73.591  62.897
19281DT     SC225263  85.325  73.699  62.879
19281DT     SC325264  85.150  73.582  62.633
19282DA     BB125265  85.058  73.612  63.559
19282DA     BB225266  85.273  73.888  63.448
19282DA     BB325267  85.154  74.054  63.386
19282DA     SC125268  85.139  73.962  63.089
19282DA     SC225269  85.228  74.036  62.868
19282DA     SC325270  85.038  73.896  62.767
19282DA     SC425271  85.014  73.871  63.046
19283DT     BB125272  85.151  74.242  63.493
19283DT     BB225273  85.352  74.426  63.257
19283DT     BB325274  85.234  74.563  63.156
19283DT     SC125275  85.126  74.373  63.010
19283DT     SC225276  85.194  74.392  62.807
19283DT     SC325277  84.944  74.212  62.908
19284DA     BB125278  85.558  74.777  63.311
19284DA     BB225279  85.531  74.859  62.954
19284DA     BB325280  85.366  74.991  62.921
19284DA     SC125281  85.161  74.763  62.872
19284DA     SC225282  85.031  74.670  62.681
19284DA     SC325283  84.878  74.568  62.861
19284DA     SC425284  85.078  74.709  62.999
19285DA     BB125285  85.611  75.150  62.778
19285DA     BB225286  85.420  75.119  62.467
19285DA     BB325287  85.255  75.254  62.467
19285DA     SC125288  85.057  75.049  62.594
19285DA     SC225289  84.857  74.919  62.524
19285DA     SC325290  84.808  74.899  62.775
19285DA     SC425291  85.043  75.049  62.754
19286DT     BB125292  85.277  75.373  62.335
19286DT     BB225293  85.023  75.244  62.113
19286DT     BB325294  84.848  75.352  62.135
19286DT     SC125295  84.796  75.235  62.364
19286DT     SC225296  84.626  75.105  62.341
19286DT     SC325297  84.752  75.204  62.623
19287DC     BB125298  84.911  75.432  61.896
19287DC     BB225299  84.579  75.294  61.866
19287DC     BB325300  84.439  75.433  61.930
19287DC     SC125301  84.501  75.391  62.181
19287DC     SC225302  84.338  75.291  62.279
19287DC     SC325303  84.588  75.437  62.426
19288DG     BB125304  84.353  75.310  61.550
19288DG     BB225305  84.062  75.296  61.764
19288DG     BB325306  83.993  75.480  61.797
19288DG     SC125307  84.165  75.525  62.047
19288DG     SC225308  84.064  75.554  62.326
19288DG     SC325309  84.353  75.616  62.311
19288DG     SC425310  84.312  75.586  62.029
19289DT     BB125311  83.790  75.554  61.727
19289DT     BB225312  83.603  75.582  62.034
19289DT     BB325313  83.590  75.781  62.091
19289DT     SC125314  83.841  75.782  62.170
19289DT     SC225315  83.848  75.798  62.385
19289DT     SC325316  84.097  75.844  62.182
19290DG     BB125317  83.180  75.725  62.039
19290DG     BB225318  83.240  75.885  62.358
19290DG     BB325319  83.257  76.082  62.333
19290DG     SC125320  83.559  76.076  62.287
19290DG     SC225321  83.767  76.191  62.469
19290DG     SC325322  83.887  76.103  62.213
19290DG     SC425323  83.615  76.055  62.139
19291DC     BB125324  83.101  76.330  62.400
19291DC     BB225325  83.306  76.454  62.670
19291DC     BB325326  83.391  76.635  62.617
19291DC     SC125327  83.563  76.517  62.457
19291DC     SC225328  83.760  76.532  62.541
19291DC     SC325329  83.689  76.447  62.237
19292DG     BB125330  83.168  76.803  62.930
19292DG     BB225331  83.518  76.883  62.972
19292DG     BB325332  83.562  77.051  62.874
19292DG     SC125333  83.632  76.909  62.612
19292DG     SC225334  83.903  76.896  62.488
19292DG     SC325335  83.698  76.789  62.304
19292DG     SC425336  83.516  76.881  62.506
19293DG     BB125337  83.664  77.231  63.144
19293DG     BB225338  83.994  77.220  62.997
19293DG     BB325339  84.022  77.379  62.881
19293DG     SC125340  83.913  77.246  62.628
19293DG     SC225341  84.071  77.177  62.384
19293DG     SC325342  83.782  77.138  62.337
19293DG     SC425343  83.756  77.255  62.597
19294DA     BB125344  84.309  77.428  63.063
19294DA     BB225345  84.508  77.379  62.759
19294DA     BB325346  84.505  77.556  62.639
19294DA     SC125347  84.255  77.470  62.475
19294DA     SC225348  84.202  77.399  62.242
19294DA     SC325349  83.961  77.465  62.298
19294DA     SC425350  84.111  77.518  62.529
19295DA     BB125351  84.820  77.485  62.674
19295DA     BB225352  84.825  77.446  62.310
19295DA     BB325353  84.811  77.637  62.214
19295DA     SC125354  84.500  77.632  62.198
19295DA     SC225355  84.325  77.612  62.022
19295DA     SC325356  84.167  77.717  62.196
19295DA     SC425357  84.419  77.700  62.319
19296DA     BB125358  85.070  77.490  62.082
19296DA     BB225359  84.890  77.519  61.764
19296DA     BB325360  84.883  77.723  61.701
19296DA     SC125361  84.613  77.783  61.845
19296DA     SC225362  84.377  77.831  61.781
19296DA     SC325363  84.355  77.930  62.017
19296DA     SC425364  84.620  77.841  61.995
19297DT     BB125365  84.976  77.749  61.544
19297DT     BB225366  84.690  77.791  61.328
19297DT     BB325367  84.655  77.992  61.294
19297DT     SC125368  84.556  78.023  61.536
19297DT     SC225369  84.345  78.060  61.522
19297DT     SC325370  84.530  78.109  61.784
19298DT     BB125371  84.739  77.947  61.046
19298DT     BB225372  84.407  78.084  61.010
19298DT     BB325373  84.414  78.291  61.018
19298DT     SC125374  84.452  78.287  61.277
19298DT     SC225375  84.277  78.364  61.376
19298DT     SC325376  84.569  78.322  61.512
19299DA     BB125377  84.197  78.170  60.680
19299DA     BB225378  84.002  78.425  60.858
19299DA     BB325379  84.093  78.617  60.835
19299DA     SC125380  84.269  78.590  61.091
19299DA     SC225381  84.281  78.692  61.318
19299DA     SC325382  84.523  78.607  61.321
19299DA     SC425383  84.417  78.531  61.073
19300DC     BB125384  83.987  78.741  60.739
19300DC     BB225385  83.888  78.944  61.020
19300DC     BB325386  84.002  79.116  61.026
19300DC     SC125387  84.211  78.984  61.115
19300DC     SC225388  84.248  79.040  61.320
19300DC     SC325389  84.453  78.881  61.125
19301DA     BB125390  83.593  79.204  61.059
19301DA     BB225391  83.772  79.385  61.323
19301DA     BB325392  83.889  79.542  61.239
19301DA     SC125393  84.144  79.367  61.203
19301DA     SC225394  84.372  79.349  61.303
19301DA     SC325395  84.434  79.224  61.088
19301DA     SC425396  84.163  79.292  61.061
19302DT     BB125397  83.831  79.712  61.291
19302DT     BB225398  84.105  79.789  61.513
19302DT     BB325399  84.241  79.912  61.418
19302DT     SC125400  84.332  79.713  61.274
19302DT     SC225401  84.532  79.664  61.337
19302DT     SC325402  84.390  79.564  61.063
19303DA     BB125403  84.145  80.089  61.786
19303DA     BB225404  84.510  80.094  61.750
19303DA     BB325405  84.568  80.238  61.604
19303DA     SC125406  84.560  80.037  61.367
19303DA     SC225407  84.722  79.925  61.214
19303DA     SC325408  84.520  79.889  61.060
19303DA     SC425409  84.422  80.026  61.284
19304DA     BB125410  84.758  80.349  61.850
19304DA     BB225411  85.047  80.285  61.633
19304DA     BB325412  85.062  80.436  61.483
19304DA     SC125413  84.888  80.282  61.276
19304DA     SC225414  84.921  80.165  61.059
19304DA     SC325415  84.668  80.196  61.027
19304DA     SC425416  84.730  80.312  61.275
19305DA     BB125417  85.370  80.475  61.597
19305DA     BB225418  85.489  80.384  61.263
19305DA     BB325419  85.469  80.549  61.129
19305DA     SC125420  85.183  80.469  61.036
19305DA     SC225421  85.074  80.382  60.829
19305DA     SC325422  84.856  80.471  60.931
19305DA     SC425423  85.058  80.532  61.115
19306DT     BB125424  85.637  80.647  61.049
19306DT     BB225425  85.611  80.513  60.715
19306DT     BB325426  85.546  80.660  60.585
19306DT     SC125427  85.301  80.645  60.678
19306DT     SC225428  85.173  80.558  60.528
19306DT     SC325429  85.075  80.714  60.794
19307DC     BB125430  85.795  80.684  60.469
19307DC     BB225431  85.576  80.609  60.192
19307DC     BB325432  85.499  80.785  60.114
19307DC     SC125433  85.335  80.813  60.317
19307DC     SC225434  85.133  80.781  60.250
19307DC     SC325435  85.221  80.915  60.531
19308DA     BB125436  85.663  80.571  59.793
19308DA     BB225437  85.326  80.676  59.696
19308DA     BB325438  85.323  80.885  59.654
19308DA     SC125439  85.251  80.968  59.945
19308DA     SC225440  85.056  81.063  60.067
19308DA     SC325441  85.227  81.129  60.247
19308DA     SC425442  85.373  81.001  60.045
19309DA     BB125443  85.193  80.782  59.370
19309DA     BB225444  84.895  80.978  59.453
19309DA     BB325445  84.932  81.186  59.421
19309DA     SC125446  85.033  81.239  59.710
19309DA     SC225447  84.955  81.359  59.914
19309DA     SC325448  85.201  81.354  59.986
19309DA     SC425449  85.192  81.227  59.737
19310DA     BB125450  84.661  81.167  59.233
19310DA     BB225451  84.508  81.414  59.457
19310DA     BB325452  84.583  81.609  59.414
19310DA     SC125453  84.818  81.589  59.616
19310DA     SC225454  84.883  81.692  59.834
19310DA     SC325455  85.121  81.616  59.775
19310DA     SC425456  84.959  81.536  59.561
19311DA     BB125457  84.264  81.697  59.379
19311DA     BB225458  84.313  81.932  59.655
19311DA     BB325459  84.412  82.108  59.587
19311DA     SC125460  84.697  81.999  59.646
19311DA     SC225461  84.883  82.045  59.806
19311DA     SC325462  85.033  81.925  59.635
19311DA     SC425463  84.774  81.923  59.526
19312DA     BB125464  84.153  82.262  59.721
19312DA     BB225465  84.390  82.426  59.947
19312DA     BB325466  84.493  82.583  59.845
19312DA     SC125467  84.727  82.401  59.751
19312DA     SC225468  84.970  82.372  59.801
19312DA     SC325469  84.981  82.253  59.574
19312DA     SC425470  84.714  82.332  59.607
19313DT     BB125471  84.462  82.779  59.901
19313DT     BB225472  84.777  82.822  60.072
19313DT     BB325473  84.904  82.939  59.958
19313DT     SC125474  84.950  82.741  59.792
19313DT     SC225475  85.153  82.673  59.816
19313DT     SC325476  84.956  82.600  59.569
19314DC     BB125477  84.874  83.147  60.131
19314DC     BB225478  85.229  83.083  60.126
19314DC     BB325479  85.318  83.189  59.972
19314DC     SC125480  85.222  83.022  59.793
19314DC     SC225481  85.384  82.908  59.709
19314DC     SC325482  85.084  82.931  59.588
19315DA     BB125483  85.527  83.266  60.327
19315DA     BB225484  85.770  83.172  60.069
19315DA     BB325485  85.792  83.329  59.926
19315DA     SC125486  85.568  83.222  59.738
19315DA     SC225487  85.551  83.118  59.512
19315DA     SC325488  85.306  83.193  59.518
19315DA     SC425489  85.419  83.278  59.760
19316DT     BB125490  85.965  83.407  59.925
19316DT     BB225491  86.076  83.257  59.616
19316DT     BB325492  86.063  83.395  59.462
19316DT     SC125493  85.802  83.371  59.452
19316DT     SC225494  85.746  83.271  59.269
19316DT     SC325495  85.546  83.434  59.466
19317DC     BB125496  86.327  83.394  59.468
19317DC     BB225497  86.240  83.299  59.131
19317DC     BB325498  86.201  83.468  59.018
19317DC     SC125499  85.969  83.502  59.135
19317DC     SC225500  85.811  83.461  58.994
19317DC     SC325501  85.777  83.612  59.279
19318DT     BB125502  86.426  83.407  58.895
19318DT     BB225503  86.176  83.416  58.636
19318DT     BB325504  86.143  83.611  58.576
19318DT     SC125505  86.008  83.664  58.795
19318DT     SC225506  85.800  83.691  58.745
19318DT     SC325507  85.941  83.773  59.025
19319DT     BB125508  86.265  83.544  58.350
19319DT     BB225509  85.942  83.669  58.248
19319DT     BB325510  85.947  83.876  58.237
19319DT     SC125511  85.942  83.898  58.498
19319DT     SC225512  85.752  83.979  58.560
19319DT     SC325513  86.018  83.957  58.744
19320DA     BB125514  85.789  83.727  57.877
19320DA     BB225515  85.570  83.996  57.994
19320DA     BB325516  85.666  84.186  57.972
19320DA     SC125517  85.794  84.182  58.255
19320DA     SC225518  85.768  84.303  58.471
19320DA     SC325519  86.004  84.219  58.524
19320DA     SC425520  85.943  84.121  58.269
19321DT     BB125521  85.591  84.319  57.838
19321DT     BB225522  85.449  84.548  58.078
19321DT     BB325523  85.569  84.717  58.093
19321DT     SC125524  85.749  84.587  58.231
19321DT     SC225525  85.750  84.659  58.434
19321DT     SC325526  85.980  84.476  58.297
19322DG     BB125527  85.201  84.854  57.981
19322DG     BB225528  85.323  85.030  58.272
19322DG     BB325529  85.456  85.167  58.218
19322DG     SC125530  85.696  84.979  58.240
19322DG     SC225531  85.918  85.000  58.439
19322DG     SC325532  85.978  84.795  58.235
19322DG     SC425533  85.738  84.891  58.113
19323DT     BB125534  85.423  85.388  58.250
19323DT     BB225535  85.646  85.454  58.526
19323DT     BB325536  85.815  85.551  58.459
19323DT     SC125537  85.910  85.330  58.354
19323DT     SC225538  86.082  85.265  58.466
19323DT     SC325539  85.995  85.157  58.173
19324DA     BB125540  85.666  85.783  58.774
19324DA     BB225541  86.024  85.733  58.833
19324DA     BB325542  86.139  85.852  58.699
19324DA     SC125543  86.156  85.633  58.480
19324DA     SC225544  86.330  85.484  58.381
19324DA     SC325545  86.170  85.463  58.182
19324DA     SC425546  86.043  85.633  58.365
19325DA     BB125547  86.277  85.958  58.980
19325DA     BB225548  86.594  85.826  58.852
19325DA     BB325549  86.673  85.956  58.702
19325DA     SC125550  86.532  85.811  58.466
19325DA     SC225551  86.597  85.668  58.272
19325DA     SC325552  86.370  85.736  58.173
19325DA     SC425553  86.388  85.866  58.421
19326DT     BB125554  86.849  86.061  58.738
19326DT     BB225555  87.061  85.862  58.523
19326DT     BB325556  87.105  85.967  58.351
19326DT     SC125557  86.864  85.926  58.255
19326DT     SC225558  86.875  85.791  58.088
19326DT     SC325559  86.621  85.976  58.166
19327DA     BB125560  87.478  85.849  58.505
19327DA     BB225561  87.470  85.756  58.150
19327DA     BB325562  87.493  85.929  58.028
19327DA     SC125563  87.188  85.986  58.007
19327DA     SC225564  87.009  85.976  57.833
19327DA     SC325565  86.879  86.134  57.987
19327DA     SC425566  87.123  86.085  58.116
19328DC     BB125567  87.668  85.962  57.905
19328DC     BB225568  87.509  85.883  57.590
19328DC     BB325569  87.484  86.056  57.479
19328DC     SC125570  87.284  86.133  57.631
19328DC     SC225571  87.101  86.122  57.519
19328DC     SC325572  87.143  86.278  57.800
19329DT     BB125573  87.684  85.987  57.301
19329DT     BB225574  87.390  86.025  57.096
19329DT     BB325575  87.372  86.222  57.033
19329DT     SC125576  87.292  86.299  57.271
19329DT     SC225577  87.085  86.354  57.262
19329DT     SC325578  87.289  86.422  57.504
19330DA     BB125579  87.347  85.973  56.698
19330DA     BB225580  87.059  86.200  56.694
19330DA     BB325581  87.121  86.397  56.639
19330DA     SC125582  87.174  86.488  56.932
19330DA     SC225583  87.072  86.645  57.097
19330DA     SC325584  87.300  86.635  57.216
19330DA     SC425585  87.323  86.470  56.990
19331DA     BB125586  86.877  86.324  56.441
19331DA     BB225587  86.703  86.609  56.592
19331DA     BB325588  86.791  86.792  56.528
19331DA     SC125589  86.995  86.806  56.763
19331DA     SC225590  87.032  86.945  56.967
19331DA     SC325591  87.273  86.857  56.958
19331DA     SC425592  87.140  86.741  56.739
19332DC     BB125593  86.667  86.879  56.438
19332DC     BB225594  86.600  87.130  56.688
19332DC     BB325595  86.708  87.302  56.647
19332DC     SC125596  86.931  87.190  56.730
19332DC     SC225597  86.993  87.283  56.913
19332DC     SC325598  87.175  87.092  56.726
19333DA     BB125599  86.304  87.390  56.719
19333DA     BB225600  86.510  87.622  56.914
19333DA     BB325601  86.608  87.761  56.785
19333DA     SC125602  86.862  87.585  56.748
19333DA     SC225603  87.102  87.591  56.816
19333DA     SC325604  87.139  87.425  56.623
19333DA     SC425605  86.865  87.484  56.623
19334DC     BB125606  86.553  87.944  56.805
19334DC     BB225607  86.851  88.067  56.965
19334DC     BB325608  86.969  88.168  56.828
19334DC     SC125609  87.046  87.943  56.717
19334DC     SC225610  87.254  87.910  56.761
19334DC     SC325611  87.080  87.754  56.536
19335DT     BB125612  86.904  88.410  56.939
19335DT     BB225613  87.264  88.403  56.948
19335DT     BB325614  87.341  88.477  56.770
19335DT     SC125615  87.278  88.257  56.642
19335DT     SC225616  87.457  88.150  56.590
19335DT     SC325617  87.161  88.095  56.469
19336DA     BB125618  87.530  88.699  57.072
19336DA     BB225619  87.790  88.580  56.843
19336DA     BB325620  87.788  88.693  56.662
19336DA     SC125621  87.590  88.503  56.517
19336DA     SC225622  87.596  88.339  56.328
19336DA     SC325623  87.341  88.370  56.320
19336DA     SC425624  87.433  88.537  56.526
19337DT     BB125625  87.947  88.812  56.620
19337DT     BB225626  88.088  88.602  56.363
19337DT     BB325627  88.054  88.686  56.176
19337DT     SC125628  87.801  88.614  56.183
19337DT     SC225629  87.767  88.459  56.038
19337DT     SC325630  87.538  88.633  56.188
19338DC     BB125631  88.315  88.741  56.166
19338DC     BB225632  88.251  88.539  55.874
19338DC     BB325633  88.185  88.659  55.718
19338DC     SC125634  87.948  88.684  55.829
19338DC     SC225635  87.802  88.578  55.712
19338DC     SC325636  87.738  88.797  55.942
19339DG     BB125637  88.512  88.447  55.604
19339DG     BB225638  88.240  88.409  55.369
19339DG     BB325639  88.223  88.573  55.258
19339DG     SC125640  88.029  88.713  55.449
19339DG     SC225641  87.743  88.777  55.393
19339DG     SC325642  87.832  88.903  55.646
19339DG     SC425643  88.088  88.803  55.568
19340DA     BB125644  88.224  88.345  54.997
19340DA     BB225645  87.902  88.478  54.881
19340DA     BB325646  87.929  88.671  54.795
19340DA     SC125647  87.882  88.824  55.061
19340DA     SC225648  87.708  88.973  55.161
19340DA     SC325649  87.894  89.049  55.321
19340DA     SC425650  88.011  88.859  55.150
19341DA     BB125651  87.770  88.529  54.541
19341DA     BB225652  87.517  88.792  54.573
19341DA     BB325653  87.592  88.977  54.498
19341DA     SC125654  87.706  89.070  54.773
19341DA     SC225655  87.655  89.244  54.944
19341DA     SC325656  87.897  89.208  55.022
19341DA     SC425657  87.859  89.034  54.805
19342DG     BB125658  87.359  88.975  54.284
19342DG     BB225659  87.254  89.277  54.453
19342DG     BB325660  87.355  89.433  54.382
19342DG     SC125661  87.584  89.409  54.583
19342DG     SC225662  87.649  89.604  54.799
19342DG     SC325663  87.861  89.399  54.776
19342DG     SC425664  87.709  89.315  54.548
19343DA     BB125665  87.057  89.607  54.313
19343DA     BB225666  87.157  89.880  54.536
19343DA     BB325667  87.297  90.008  54.438
19343DA     SC125668  87.547  89.852  54.536
19343DA     SC225669  87.737  89.887  54.694
19343DA     SC325670  87.855  89.701  54.562
19343DA     SC425671  87.604  89.735  54.441
19344DC     BB125672  87.250  90.212  54.384
19344DC     BB225673  87.448  90.372  54.639
19344DC     BB325674  87.615  90.460  54.555
19344DC     SC125675  87.732  90.227  54.523
19344DC     SC225676  87.899  90.212  54.657
19344DC     SC325677  87.841  90.018  54.404
19345DC     BB125678  87.513  90.713  54.588
19345DC     BB225679  87.831  90.725  54.758
19345DC     BB325680  87.980  90.777  54.624
19345DC     SC125681  87.977  90.539  54.514
19345DC     SC225682  88.159  90.435  54.563
19345DC     SC325683  87.948  90.350  54.333
19346DA     BB125684  88.024  91.054  54.938
19346DA     BB225685  88.357  90.919  54.866
19346DA     BB325686  88.435  91.004  54.687
19346DA     SC125687  88.318  90.783  54.502
19346DA     SC225688  88.404  90.594  54.363
19346DA     SC325689  88.179  90.609  54.241
19346DA     SC425690  88.173  90.808  54.438
19347DA     BB125691  88.704  91.102  54.862
19347DA     BB225692  88.908  90.891  54.642
19347DA     BB325693  88.946  90.991  54.458
19347DA     SC125694  88.695  90.875  54.315
19347DA     SC225695  88.645  90.713  54.133
19347DA     SC325696  88.417  90.830  54.119
19347DA     SC425697  88.560  90.962  54.321
19348DA     BB125698  89.284  90.965  54.496
19348DA     BB225699  89.292  90.757  54.194
19348DA     BB325700  89.299  90.880  54.020
19348DA     SC125701  88.989  90.892  53.988
19348DA     SC225702  88.816  90.804  53.831
19348DA     SC325703  88.666  90.990  53.925
19348DA     SC425704  88.912  91.015  54.058
19349DT     BB125705  89.484  90.919  53.848
19349DT     BB225706  89.334  90.709  53.596
19349DT     BB325707  89.281  90.822  53.432
19349DT     SC125708  89.075  90.924  53.558
19349DT     SC225709  88.893  90.847  53.472
19349DT     SC325710  88.916  91.101  53.673
19350DA     BB125711  89.530  90.537  53.249
19350DA     BB225712  89.208  90.527  53.075
19350DA     BB325713  89.196  90.684  52.931
19350DA     SC125714  89.070  90.889  53.129
19350DA     SC225715  88.850  91.001  53.162
19350DA     SC325716  88.982  91.173  53.300
19350DA     SC425717  89.170  90.985  53.210
19351DT     BB125718  89.183  90.634  52.730
19351DT     BB225719  88.826  90.682  52.719
19351DT     BB325720  88.780  90.848  52.604
19351DT     SC125721  88.859  91.010  52.795
19351DT     SC225722  88.688  91.111  52.878
19351DT     SC325723  88.998  91.194  52.923
19352DC     BB125724  88.683  90.650  52.474
19352DC     BB225725  88.403  90.855  52.574
19352DC     BB325726  88.389  91.020  52.451
19352DC     SC125727  88.595  91.134  52.568
19352DC     SC225728  88.527  91.304  52.681
19352DC     SC325729  88.835  91.238  52.601
19353DG     BB125730  88.062  90.782  52.529
19353DG     BB225731  88.002  91.132  52.596
19353DG     BB325732  87.998  91.234  52.425
19353DG     SC125733  88.299  91.294  52.426
19353DG     SC225734  88.424  91.563  52.458
19353DG     SC325735  88.627  91.360  52.385
19353DG     SC425736  88.399  91.189  52.359
19354DT     BB125737  87.834  91.314  52.428
19354DT     BB225738  87.913  91.663  52.474
19354DT     BB325739  87.943  91.753  52.290
19354DT     SC125740  88.178  91.639  52.264
19354DT     SC225741  88.332  91.788  52.279
19354DT     SC325742  88.371  91.486  52.167
19355DT     BB125743  87.719  91.871  52.352
19355DT     BB225744  87.953  92.138  52.285
19355DT     BB325745  87.970  92.167  52.081
19355DT     SC125746  88.114  91.949  52.054
19355DT     SC225747  88.317  92.003  52.005
19355DT     SC325748  88.187  91.708  51.977
19356DT     BB125749  87.836  92.395  52.116
19356DT     BB225750  88.140  92.493  51.948
19356DT     BB325751  88.119  92.469  51.744
19356DT     SC125752  88.140  92.208  51.764
19356DT     SC225753  88.327  92.144  51.678
19356DT     SC325754  88.077  91.952  51.753
19357DT     BB125755  88.108  92.738  51.714
19357DT     BB225756  88.377  92.635  51.496
19357DT     BB325757  88.301  92.582  51.311
19357DT     SC125758  88.207  92.356  51.405
19357DT     SC225759  88.321  92.192  51.323
19357DT     SC325760  88.036  92.169  51.476
19358DC     BB125761  88.405  92.809  51.204
19358DC     BB225762  88.543  92.544  51.002
19358DC     BB325763  88.412  92.497  50.848
19358DC     SC125764  88.251  92.372  51.013
19358DC     SC225765  88.257  92.161  50.973
19358DC     SC325766  88.034  92.313  51.151
19359DT     BB125767  88.583  92.613  50.675
19359DT     BB225768  88.537  92.279  50.546
19359DT     BB325769  88.369  92.272  50.425
19359DT     SC125770  88.210  92.280  50.634
19359DT     SC225771  88.111  92.090  50.656
19359DT     SC325772  88.027  92.367  50.803
19360DT     BB125773  88.525  92.253  50.202
19360DT     BB225774  88.304  91.969  50.178
19360DT     BB325775  88.128  92.023  50.084
19360DT     SC125776  88.043  92.150  50.297
19360DT     SC225777  87.878  92.042  50.383
19360DT     SC325778  87.964  92.346  50.454
19361DG     BB125779  88.274  91.728  49.839
19361DG     BB225780  87.927  91.666  49.920
19361DG     BB325781  87.809  91.777  49.804
19361DG     SC125782  87.804  92.015  49.996
19361DG     SC225783  87.566  92.114  50.146
19361DG     SC325784  87.793  92.302  50.174
19361DG     SC425785  87.918  92.127  49.984
19362DT     BB125786  87.649  91.705  49.629
19362DT     BB225787  87.334  91.763  49.794
19362DT     BB325788  87.239  91.926  49.710
19362DT     SC125789  87.403  92.093  49.828
19362DT     SC225790  87.297  92.203  49.980
19362DT     SC325791  87.588  92.278  49.861
19363DG     BB125792  86.958  91.635  49.628
19363DG     BB225793  86.803  91.916  49.795
19363DG     BB325794  86.758  92.058  49.663
19363DG     SC125795  87.027  92.201  49.688
19363DG     SC225796  87.071  92.474  49.801
19363DG     SC325797  87.318  92.371  49.675
19363DG     SC425798  87.149  92.155  49.594
19364DC     BB125799  86.534  92.139  49.600
19364DC     BB225800  86.530  92.453  49.778
19364DC     BB325801  86.540  92.611  49.643
19364DC     SC125802  86.795  92.567  49.600
19364DC     SC225803  86.910  92.728  49.685
19364DC     SC325804  87.019  92.507  49.474
19365DA     BB125805  86.207  92.687  49.885
19365DA     BB225806  86.412  92.991  49.880
19365DA     BB325807  86.390  93.093  49.694
19365DA     SC125808  86.627  92.945  49.556
19365DA     SC225809  86.856  92.999  49.476
19365DA     SC325810  86.834  92.787  49.332
19365DA     SC425811  86.593  92.811  49.474
19366DT     BB125812  86.304  93.272  49.699
19366DT     BB225813  86.603  93.465  49.647
19366DT     BB325814  86.609  93.536  49.453
19366DT     SC125815  86.672  93.299  49.360
19366DT     SC225816  86.875  93.302  49.289
19366DT     SC325817  86.655  93.073  49.226
19367DT     BB125818  86.560  93.783  49.549
19367DT     BB225819  86.868  93.817  49.365
19367DT     BB325820  86.828  93.851  49.165
19367DT     SC125821  86.760  93.600  49.127
19367DT     SC225822  86.908  93.504  49.005
19367DT     SC325823  86.613  93.388  49.072
19368DA     BB125824  87.090  94.156  49.284
19368DA     BB225825  87.218  94.015  48.970
19368DA     BB325826  87.098  94.079  48.806
19368DA     SC125827  86.904  93.837  48.821
19368DA     SC225828  86.851  93.634  48.687
19368DA     SC325829  86.628  93.632  48.814
19368DA     SC425830  86.771  93.854  48.910
19369DA     BB125831  87.382  94.190  48.673
19369DA     BB225832  87.326  93.958  48.395
19369DA     BB325833  87.181  94.038  48.260
19369DA     SC125834  86.938  93.906  48.403
19369DA     SC225835  86.773  93.725  48.358
19369DA     SC325836  86.629  93.839  48.537
19369DA     SC425837  86.863  93.993  48.516
19370DG     BB125838  87.398  94.043  48.025
19370DG     BB225839  87.181  93.794  47.875
19370DG     BB325840  87.041  93.883  47.766
19370DG     SC125841  86.842  93.907  47.997
19370DG     SC225842  86.580  93.765  48.019
19370DG     SC325843  86.607  93.968  48.232
19370DG     SC425844  86.847  94.037  48.091
19371DT     BB125845  87.013  93.864  47.527
19371DT     BB225846  86.732  93.638  47.517
19371DT     BB325847  86.563  93.738  47.453
19371DT     SC125848  86.536  93.859  47.684
19371DT     SC225849  86.363  93.783  47.785
19371DT     SC325850  86.525  94.053  47.863
19372DG     BB125851  86.632  93.420  47.208
19372DG     BB225852  86.298  93.412  47.347
19372DG     BB325853  86.182  93.542  47.251
19372DG     SC125854  86.246  93.776  47.438
19372DG     SC225855  86.055  93.908  47.625
19372DG     SC325856  86.310  94.058  47.612
19372DG     SC425857  86.372  93.869  47.406
19373DT     BB125858  86.022  93.458  47.160
19373DT     BB225859  85.752  93.558  47.378
19373DT     BB325860  85.655  93.723  47.299
19373DT     SC125861  85.853  93.881  47.369
19373DT     SC225862  85.788  94.010  47.528
19373DT     SC325863  86.056  94.049  47.349
19374DA     BB125864  85.381  93.424  47.408
19374DA     BB225865  85.264  93.744  47.543
19374DA     BB325866  85.198  93.872  47.385
19374DA     SC125867  85.477  94.004  47.344
19374DA     SC225868  85.583  94.227  47.383
19374DA     SC325869  85.758  94.150  47.212
19374DA     SC425870  85.575  93.939  47.235
19375DT     BB125871  85.011  93.912  47.386
19375DT     BB225872  85.037  94.255  47.492
19375DT     BB325873  85.017  94.381  47.329
19375DT     SC125874  85.259  94.324  47.246
19375DT     SC225875  85.386  94.496  47.270
19375DT     SC325876  85.454  94.234  47.092
19376DT     BB125877  84.764  94.459  47.405
19376DT     BB225878  84.946  94.769  47.376
19376DT     BB325879  84.936  94.838  47.181
19376DT     SC125880  85.108  94.658  47.099
19376DT     SC225881  85.293  94.754  47.046
19376DT     SC325882  85.207  94.450  46.970
19377DC     BB125883  84.752  95.045  47.235
19377DC     BB225884  85.033  95.215  47.084
19377DC     BB325885  85.007  95.225  46.879
19377DC     SC125886  85.067  94.970  46.851
19377DC     SC225887  85.257  94.952  46.753
19377DC     SC325888  85.040  94.714  46.795
19378DT     BB125889  84.945  95.499  46.873
19378DT     BB225890  85.233  95.469  46.657
19378DT     BB325891  85.172  95.436  46.462
19378DT     SC125892  85.108  95.187  46.516
19378DT     SC225893  85.246  95.055  46.417
19378DT     SC325894  84.962  94.970  46.548
19379DT     BB125895  85.249  95.687  46.394
19379DT     BB225896  85.444  95.469  46.183
19379DT     BB325897  85.339  95.426  46.010
19379DT     SC125898  85.180  95.262  46.139
19379DT     SC225899  85.220  95.060  46.077
19379DT     SC325900  84.960  95.159  46.242
19380DC     BB125901  85.524  95.573  45.897
19380DC     BB225902  85.550  95.248  45.743
19380DC     BB325903  85.410  95.230  45.592
19380DC     SC125904  85.215  95.200  45.766
19380DC     SC225905  85.142  94.998  45.758
19380DC     SC325906  84.994  95.248  45.901
19381DA     BB125907  85.802  95.104  45.500
19381DA     BB225908  85.565  94.845  45.396
19381DA     BB325909  85.443  94.915  45.235
19381DA     SC125910  85.220  95.028  45.421
19381DA     SC225911  84.984  94.973  45.480
19381DA     SC325912  84.970  95.216  45.562
19381DA     SC425913  85.231  95.182  45.465
19382DA     BB125914  85.568  94.619  45.166
19382DA     BB225915  85.219  94.517  45.121
19382DA     BB325916  85.133  94.621  44.955
19382DA     SC125917  85.029  94.858  45.127
19382DA     SC225918  84.809  94.948  45.204
19382DA     SC325919  84.935  95.168  45.241
19382DA     SC425920  85.124  94.987  45.142
19383DA     BB125921  85.066  94.303  44.903
19383DA     BB225922  84.714  94.405  44.890
19383DA     BB325923  84.677  94.523  44.716
19383DA     SC125924  84.738  94.794  44.858
19383DA     SC225925  84.612  94.996  44.933
19383DA     SC325926  84.840  95.113  44.932
19383DA     SC425927  84.889  94.849  44.850
19384DT     BB125928  84.561  94.446  44.580
19384DT     BB225929  84.276  94.663  44.624
19384DT     BB325930  84.274  94.808  44.477
19384DT     SC125931  84.470  94.939  44.592
19384DT     SC225932  84.395  95.124  44.672
19384DT     SC325933  84.707  95.048  44.629
19385DT     BB125934  84.065  94.693  44.324
19385DT     BB225935  83.952  95.032  44.374
19385DT     BB325936  84.019  95.152  44.220
19385DT     SC125937  84.263  95.153  44.316
19385DT     SC225938  84.310  95.349  44.391
19385DT     SC325939  84.523  95.112  44.333
19386DT     BB125940  83.774  95.182  44.056
19386DT     BB225941  83.873  95.524  44.111
19386DT     BB325942  83.988  95.591  43.952
19386DT     SC125943  84.195  95.453  44.034
19386DT     SC225944  84.347  95.587  44.105
19386DT     SC325945  84.388  95.273  44.036
19387DT     BB125946  83.797  95.764  43.789
19387DT     BB225947  84.072  95.988  43.855
19387DT     BB325948  84.201  95.991  43.693
19387DT     SC125949  84.297  95.756  43.756
19387DT     SC225950  84.500  95.777  43.824
19387DT     SC325951  84.357  95.499  43.738
19388DT     BB125952  84.136  96.254  43.560
19388DT     BB225953  84.488  96.281  43.634
19388DT     BB325954  84.600  96.230  43.467
19388DT     SC125955  84.549  95.975  43.500
19388DT     SC225956  84.729  95.873  43.560
19388DT     SC325957  84.457  95.732  43.454
19389DA     BB125958  84.740  96.610  43.572
19389DA     BB225959  85.029  96.385  43.556
19389DA     BB325960  85.087  96.353  43.353
19389DA     SC125961  84.906  96.103  43.315
19389DA     SC225962  84.934  95.857  43.286
19389DA     SC325963  84.697  95.861  43.190
19389DA     SC425964  84.758  96.127  43.257
19390DA     BB125965  85.350  96.448  43.507
19390DA     BB225966  85.481  96.114  43.432
19390DA     BB325967  85.534  96.100  43.226
19390DA     SC125968  85.255  95.997  43.136
19390DA     SC225969  85.155  95.785  43.050
19390DA     SC325970  84.964  95.934  42.964
19390DA     SC425971  85.147  96.106  43.089
19391DC     BB125972  85.686  96.066  43.255
19391DC     BB225973  85.668  95.716  43.170
19391DC     BB325974  85.702  95.691  42.967
19391DC     SC125975  85.464  95.782  42.907
19391DC     SC225976  85.343  95.621  42.832
19391DC     SC325977  85.275  95.937  42.807
19392DA     BB125978  85.869  95.429  43.263
19392DA     BB225979  85.729  95.233  42.987
19392DA     BB325980  85.833  95.276  42.806
19392DA     SC125981  85.642  95.507  42.722
19392DA     SC225982  85.469  95.550  42.548
19392DA     SC325983  85.509  95.799  42.598
19392DA     SC425984  85.682  95.656  42.767
19393DT     BB125985  85.880  95.127  42.785
19393DT     BB225986  85.686  95.054  42.490
19393DT     BB325987  85.785  95.123  42.321
19393DT     SC125988  85.723  95.372  42.377
19393DT     SC225989  85.581  95.444  42.233
19393DT     SC325990  85.750  95.627  42.440
19394DT     BB125991  85.807  94.868  42.282
19394DT     BB225992  85.665  95.000  41.978
19394DT     BB325993  85.813  95.086  41.862
19394DT     SC125994  85.826  95.295  42.020
19394DT     SC225995  85.748  95.467  41.918
19394DT     SC325996  85.922  95.472  42.191
19395DT     BB125997  85.800  94.877  41.691
19395DT     BB225998  85.768  95.166  41.476
19395DT     BB325999  85.956  95.236  41.424
19395DT     SC126000  85.992  95.339  41.662
19395DT     SC226001  85.989  95.554  41.648
19395DT     SC326002  86.096  95.381  41.901
19396DA     BB126003  85.782  95.182  41.043
19396DA     BB226004  85.948  95.509  41.037
19396DA     BB326005  86.159  95.484  41.017
19396DA     SC126006  86.212  95.477  41.323
19396DA     SC226007  86.318  95.622  41.496
19396DA     SC326008  86.333  95.408  41.637
19396DA     SC426009  86.213  95.333  41.395
19397DC     BB126010  86.308  95.532  40.826
19397DC     BB226011  86.471  95.822  40.967
19397DC     BB326012  86.670  95.780  41.004
19397DC     SC126013  86.609  95.635  41.214
19397DC     SC226014  86.673  95.737  41.392
19397DC     SC326015  86.584  95.426  41.373
19398DA     BB126016  86.746  96.112  40.746
19398DA     BB226017  86.954  96.167  41.043
19398DA     BB326018  87.135  96.055  41.029
19398DA     SC126019  87.018  95.804  41.172
19398DA     SC226020  87.047  95.686  41.390
19398DA     SC326021  86.943  95.484  41.271
19398DA     SC426022  86.953  95.690  41.080
19399DA     BB126023  87.348  96.326  41.057
19399DA     BB226024  87.472  96.187  41.373
19399DA     BB326025  87.633  96.051  41.336
19399DA     SC126026  87.449  95.801  41.312
19399DA     SC226027  87.401  95.594  41.443
19399DA     SC326028  87.307  95.502  41.223
19399DA     SC426029  87.397  95.761  41.165
19400DG     BB126030  87.871  96.220  41.493
19400DG     BB226031  87.864  95.941  41.724
19400DG     BB326032  88.004  95.809  41.674
19400DG     SC126033  87.821  95.649  41.487
19400DG     SC226034  87.726  95.370  41.531
19400DG     SC326035  87.655  95.464  41.260
19400DG     SC426036  87.811  95.692  41.333
19401DA     BB126037  88.155  95.810  41.993
19401DA     BB226038  88.063  95.459  42.045
19401DA     BB326039  88.212  95.331  41.961
19401DA     SC126040  88.075  95.313  41.682
19401DA     SC226041  87.955  95.142  41.546
19401DA     SC326042  88.011  95.293  41.346
19401DA     SC426043  88.121  95.419  41.570
19402DC     BB126044  88.308  95.219  42.090
19402DC     BB226045  88.126  94.916  42.016
19402DC     BB326046  88.244  94.788  41.904
19402DC     SC126047  88.213  94.934  41.688
19402DC     SC226048  88.092  94.827  41.546
19402DC     SC326049  88.271  95.090  41.483
19403DA     BB126050  88.048  94.612  42.231
19403DA     BB226051  87.984  94.411  41.931
19403DA     BB326052  88.164  94.314  41.867
19403DA     SC126053  88.250  94.546  41.679
19403DA     SC226054  88.271  94.587  41.434
19403DA     SC326055  88.429  94.778  41.499
19403DA     SC426056  88.347  94.660  41.740
19404DA     BB126057  87.915  94.102  41.886
19404DA     BB226058  87.982  94.042  41.530
19404DA     BB326059  88.173  93.951  41.505
19404DA     SC126060  88.325  94.221  41.476
19404DA     SC226061  88.443  94.348  41.296
19404DA     SC326062  88.558  94.474  41.489
19404DA     SC426063  88.387  94.287  41.609
19405DT     BB126064  88.144  93.794  41.436
19405DT     BB226065  88.272  93.861  41.106
19405DT     BB326066  88.471  93.804  41.095
19405DT     SC126067  88.547  94.013  41.234
19405DT     SC226068  88.655  94.148  41.107
19405DT     SC326069  88.649  94.156  41.431
19406DA     BB126070  88.260  93.639  40.770
19406DA     BB226071  88.570  93.788  40.642
19406DA     BB326072  88.739  93.672  40.704
19406DA     SC126073  88.784  93.833  40.967
19406DA     SC226074  88.952  93.992  41.059
19406DA     SC326075  88.857  93.928  41.288
19406DA     SC426076  88.712  93.778  41.100
19407DA     BB126077  88.805  93.669  40.380
19407DA     BB226078  89.122  93.833  40.461
19407DA     BB326079  89.259  93.693  40.545
19407DA     SC126080  89.171  93.746  40.838
19407DA     SC226081  89.266  93.851  41.044
19407DA     SC326082  89.090  93.715  41.171
19407DA     SC426083  89.055  93.652  40.899
19408DT     BB126084  89.435  93.634  40.443
19408DT     BB226085  89.667  93.819  40.648
19408DT     BB326086  89.772  93.690  40.770
19408DT     SC126087  89.564  93.656  40.927
19408DT     SC226088  89.602  93.749  41.117
19408DT     SC326089  89.365  93.538  41.053
19409DC     BB126090  90.005  93.718  40.624
19409DC     BB226091  90.099  93.813  40.958
19409DC     BB326092  90.161  93.647  41.064
19409DC     SC126093  89.914  93.562  41.091
19409DC     SC226094  89.855  93.579  41.297
19409DC     SC326095  89.701  93.409  41.069
19410DA     BB126096  90.455  93.943  41.100
19410DA     BB226097  90.378  93.818  41.436
19410DA     BB326098  90.459  93.623  41.463
19410DA     SC126099  90.203  93.476  41.363
19410DA     SC226100  90.022  93.335  41.460
19410DA     SC326101  89.982  93.257  41.219
19410DA     SC426102  90.195  93.439  41.207
19411DA     BB126103  90.573  93.786  41.721
19411DA     BB226104  90.394  93.541  41.927
19411DA     BB326105  90.493  93.352  41.920
19411DA     SC126106  90.329  93.249  41.676
19411DA     SC226107  90.154  93.077  41.631
19411DA     SC326108  90.228  93.096  41.386
19411DA     SC426109  90.391  93.273  41.530
19412DA     BB126110  90.459  93.412  42.240
19412DA     BB226111  90.267  93.100  42.253
19412DA     BB326112  90.396  92.932  42.224
19412DA     SC126113  90.361  92.928  41.915
19412DA     SC226114  90.253  92.782  41.744
19412DA     SC326115  90.409  92.897  41.576
19412DA     SC426116  90.467  93.010  41.827
19413DA     BB126117  90.245  92.847  42.503
19413DA     BB226118  90.127  92.550  42.323
19413DA     BB326119  90.288  92.413  42.293
19413DA     SC126120  90.370  92.532  42.017
19413DA     SC226121  90.363  92.465  41.777
19413DA     SC326122  90.544  92.643  41.743
19413DA     SC426123  90.482  92.647  42.017
19414DT     BB126124  90.285  92.233  42.388
19414DT     BB226125  90.208  92.030  42.099
19414DT     BB326126  90.378  91.929  42.037
19414DT     SC126127  90.480  92.148  41.934
19414DT     SC226128  90.481  92.132  41.719
19414DT     SC326129  90.644  92.350  41.895
19415DA     BB126130  90.082  91.634  42.082
19415DA     BB226131  90.238  91.586  41.754
19415DA     BB326132  90.433  91.501  41.776
19415DA     SC126133  90.578  91.776  41.791
19415DA     SC226134  90.733  91.911  41.650
19415DA     SC326135  90.791  92.034  41.867
19415DA     SC426136  90.602  91.839  41.937
19416DT     BB126137  90.474  91.307  41.708
19416DT     BB226138  90.663  91.404  41.417
19416DT     BB326139  90.864  91.367  41.447
19416DT     SC126140  90.886  91.573  41.608
19416DT     SC226141  91.005  91.725  41.513
19416DT     SC326142  90.928  91.714  41.827
19417DA     BB126143  90.760  91.186  41.084
19417DA     BB226144  91.060  91.388  41.027
19417DA     BB326145  91.231  91.294  41.113
19417DA     SC126146  91.202  91.436  41.388
19417DA     SC226147  91.323  91.610  41.520
19417DA     SC326148  91.200  91.513  41.723
19417DA     SC426149  91.117  91.361  41.502
19418DA     BB126150  91.334  91.341  40.807
19418DA     BB226151  91.598  91.551  40.952
19418DA     BB326152  91.746  91.429  41.045
19418DA     SC126153  91.608  91.432  41.324
19418DA     SC226154  91.649  91.530  41.550
19418DA     SC326155  91.487  91.351  41.635
19418DA     SC426156  91.505  91.313  41.358
19419DG     BB126157  91.916  91.579  40.837
19419DG     BB226158  92.072  91.714  41.133
19419DG     BB326159  92.199  91.581  41.210
19419DG     SC126160  91.990  91.448  41.390
19419DG     SC226161  91.986  91.453  41.688
19419DG     SC326162  91.782  91.266  41.584
19419DG     SC426163  91.903  91.327  41.331
19420DG     BB126164  92.418  91.819  41.176
19420DG     BB226165  92.454  91.800  41.535
19420DG     BB326166  92.569  91.645  41.584
19420DG     SC126167  92.336  91.447  41.605
19420DG     SC226168  92.240  91.315  41.854
19420DG     SC326169  92.107  91.200  41.616
19420DG     SC426170  92.289  91.368  41.473
19421DA     BB126171  92.749  91.874  41.772
19421DA     BB226172  92.688  91.675  42.074
19421DA     BB326173  92.809  91.499  42.072
19421DA     SC126174  92.595  91.324  41.928
19421DA     SC226175  92.446  91.133  41.983
19421DA     SC326176  92.433  91.095  41.730
19421DA     SC426177  92.602  91.316  41.767
19422DA     BB126178  92.894  91.618  42.367
19422DA     BB226179  92.765  91.306  42.508
19422DA     BB326180  92.899  91.145  42.466
19422DA     SC126181  92.761  91.067  42.198
19422DA     SC226182  92.623  90.879  42.109
19422DA     SC326183  92.694  90.963  41.878
19422DA     SC426184  92.817  91.134  42.063
19423DA     BB126185  92.887  91.102  42.793
19423DA     BB226186  92.750  90.769  42.727
19423DA     BB326187  92.904  90.636  42.663
19423DA     SC126188  92.866  90.699  42.361
19423DA     SC226189  92.782  90.582  42.157
19423DA     SC326190  92.915  90.758  42.026
19423DA     SC426191  92.956  90.816  42.297
19424DA     BB126192  92.790  90.453  42.912
19424DA     BB226193  92.710  90.197  42.662
19424DA     BB326194  92.887  90.096  42.599
19424DA     SC126195  92.944  90.292  42.363
19424DA     SC226196  92.940  90.287  42.114
19424DA     SC326197  93.094  90.492  42.128
19424DA     SC426198  93.040  90.418  42.393
19425DA     BB126199  92.708  89.835  42.685
19425DA     BB226200  92.734  89.727  42.336
19425DA     BB326201  92.929  89.650  42.296
19425DA     SC126202  93.046  89.924  42.207
19425DA     SC226203  93.125  90.032  41.997
19425DA     SC326204  93.249  90.195  42.151
19425DA     SC426205  93.117  90.015  42.320
19426DA     BB126206  92.744  89.401  42.192
19426DA     BB226207  92.893  89.457  41.862
19426DA     BB326208  93.094  89.387  41.859
19426DA     SC126209  93.216  89.660  41.946
19426DA     SC226210  93.354  89.841  41.845
19426DA     SC326211  93.408  89.907  42.087
19426DA     SC426212  93.239  89.684  42.104
19427DG     BB126213  92.980  89.208  41.634
19427DG     BB226214  93.212  89.396  41.431
19427DG     BB326215  93.396  89.323  41.452
19427DG     SC126216  93.467  89.505  41.689
19427DG     SC226217  93.671  89.722  41.688
19427DG     SC326218  93.571  89.673  41.961
19427DG     SC426219  93.433  89.455  41.837
19428DT     BB126220  93.496  89.243  41.281
19428DT     BB226221  93.739  89.500  41.209
19428DT     BB326222  93.924  89.444  41.281
19428DT     SC126223  93.853  89.493  41.528
19428DT     SC226224  93.959  89.666  41.600
19428DT     SC326225  93.796  89.454  41.783
19429DA     BB126226  93.976  89.551  40.878
19429DA     BB226227  94.234  89.723  41.074
19429DA     BB326228  94.382  89.584  41.139
19429DA     SC126229  94.240  89.517  41.407
19429DA     SC226230  94.276  89.557  41.650
19429DA     SC326231  94.115  89.361  41.686
19429DA     SC426232  94.139  89.392  41.408
19430DA     BB126233  94.588  89.797  40.992
19430DA     BB226234  94.743  89.845  41.321
19430DA     BB326235  94.868  89.679  41.369
19430DA     SC126236  94.642  89.519  41.512
19430DA     SC226237  94.584  89.450  41.744
19430DA     SC326238  94.436  89.273  41.633
19430DA     SC426239  94.557  89.415  41.424
19431DA     BB126240  95.098  89.911  41.411
19431DA     BB226241  95.116  89.804  41.761
19431DA     BB326242  95.227  89.623  41.778
19431DA     SC126243  94.978  89.439  41.747
19431DA     SC226244  94.844  89.285  41.890
19431DA     SC326245  94.762  89.183  41.668
19431DA     SC426246  94.940  89.389  41.599
19432DT     BB126247  95.412  89.619  41.877
19432DT     BB226248  95.294  89.457  42.177
19432DT     BB326249  95.361  89.261  42.182
19432DT     SC126250  95.187  89.188  41.999
19432DT     SC226251  95.038  89.062  42.089
19432DT     SC326252  95.090  89.098  41.771
19433DG     BB126253  95.497  89.443  42.520
19433DG     BB226254  95.314  89.141  42.597
19433DG     BB326255  95.429  88.981  42.565
19433DG     SC126256  95.345  88.949  42.273
19433DG     SC226257  95.187  88.722  42.159
19433DG     SC326258  95.290  88.896  41.944
19433DG     SC426259  95.426  89.027  42.159
19434DG     BB126260  95.377  88.904  42.877
19434DG     BB226261  95.213  88.608  42.751
19434DG     BB326262  95.348  88.469  42.708
19434DG     SC126263  95.388  88.561  42.419
19434DG     SC226264  95.312  88.408  42.174
19434DG     SC326265  95.471  88.648  42.104
19434DG     SC426266  95.498  88.674  42.388
19435DA     BB126267  95.142  88.272  42.900
19435DA     BB226268  95.095  88.047  42.615
19435DA     BB326269  95.270  87.930  42.583
19435DA     SC126270  95.399  88.133  42.386
19435DA     SC226271  95.452  88.146  42.142
19435DA     SC326272  95.618  88.330  42.209
19435DA     SC426273  95.498  88.244  42.447
19436DT     BB126274  95.238  87.750  42.611
19436DT     BB226275  95.246  87.648  42.265
19436DT     BB326276  95.431  87.567  42.219
19436DT     SC126277  95.543  87.805  42.216
19436DT     SC226278  95.597  87.856  42.015
19436DT     SC326279  95.700  88.005  42.283
19437DG     BB126280  95.137  87.299  42.131
19437DG     BB226281  95.361  87.350  41.851
19437DG     BB326282  95.532  87.254  41.884
19437DG     SC126283  95.666  87.491  42.024
19437DG     SC226284  95.899  87.648  41.921
19437DG     SC326285  95.836  87.724  42.200
19437DG     SC426286  95.648  87.508  42.182
19438DA     BB126287  95.480  87.120  41.568
19438DA     BB226288  95.802  87.255  41.458
19438DA     BB326289  95.963  87.142  41.541
19438DA     SC126290  95.989  87.320  41.795
19438DA     SC226291  96.151  87.484  41.889
19438DA     SC326292  96.036  87.437  42.114
19438DA     SC426293  95.905  87.277  41.925
19439DT     BB126294  96.078  87.034  41.417
19439DT     BB226295  96.373  87.241  41.433
19439DT     BB326296  96.515  87.152  41.554
19439DT     SC126297  96.382  87.216  41.771
19439DT     SC226298  96.491  87.367  41.879
19439DT     SC326299  96.245  87.190  41.995
19440DT     BB126300  96.675  87.077  41.340
19440DT     BB226301  96.898  87.266  41.552
19440DT     BB326302  96.988  87.140  41.690
19440DT     SC126303  96.767  87.124  41.830
19440DT     SC226304  96.794  87.227  42.017
19440DT     SC326305  96.554  87.020  41.947
19441DT     BB126306  97.240  87.138  41.564
19441DT     BB226307  97.314  87.246  41.900
19441DT     BB326308  97.355  87.082  42.020
19441DT     SC126309  97.101  87.016  42.030
19441DT     SC226310  97.027  87.049  42.229
19441DT     SC326311  96.880  86.876  41.998
19442DA     BB126312  97.693  87.326  42.075
19442DA     BB226313  97.574  87.229  42.408
19442DA     BB326314  97.630  87.028  42.452
19442DA     SC126315  97.369  86.904  42.336
19442DA     SC226316  97.165  86.789  42.421
19442DA     SC326317  97.139  86.701  42.182
19442DA     SC426318  97.371  86.859  42.181
19443DT     BB126319  97.775  86.975  42.607
19443DT     BB226320  97.534  86.854  42.847
19443DT     BB326321  97.549  86.648  42.865
19443DT     SC126322  97.431  86.611  42.633
19443DT     SC226323  97.237  86.525  42.665
19443DT     SC326324  97.394  86.539  42.382
19444DG     BB126325  97.611  86.799  43.238
19444DG     BB226326  97.351  86.548  43.240
19444DG     BB326327  97.432  86.366  43.238
19444DG     SC126328  97.440  86.345  42.933
19444DG     SC226329  97.280  86.156  42.766
19444DG     SC326330  97.482  86.297  42.602
19444DG     SC426331  97.568  86.400  42.855
19445DT     BB126332  97.400  86.227  43.407
19445DT     BB226333  97.165  85.994  43.263
19445DT     BB326334  97.262  85.817  43.215
19445DT     SC126335  97.375  85.928  43.006
19445DT     SC226336  97.291  85.845  42.826
19445DT     SC326337  97.563  86.019  42.845
19446DT     BB126338  97.137  85.694  43.422
19446DT     BB226339  97.048  85.497  43.133
19446DT     BB326340  97.193  85.354  43.098
19446DT     SC126341  97.358  85.533  43.002
19446DT     SC226342  97.382  85.503  42.790
19446DT     SC326343  97.571  85.687  42.978
19447DT     BB126344  97.027  85.154  43.187
19447DT     BB226345  97.120  85.050  42.854
19447DT     BB326346  97.296  84.940  42.861
19447DT     SC126347  97.438  85.157  42.901
19447DT     SC226348  97.557  85.197  42.726
19447DT     SC326349  97.598  85.331  43.018
19448DA     BB126350  97.026  84.693  42.654
19448DA     BB226351  97.337  84.704  42.459
19448DA     BB326352  97.486  84.583  42.551
19448DA     SC126353  97.602  84.814  42.725
19448DA     SC226354  97.810  84.951  42.736
19448DA     SC326355  97.740  85.001  42.977
19448DA     SC426356  97.542  84.832  42.873
19449DT     BB126357  97.561  84.401  42.460
19449DT     BB226358  97.880  84.535  42.358
19449DT     BB326359  98.031  84.455  42.475
19449DT     SC126360  97.963  84.606  42.679
19449DT     SC226361  98.115  84.754  42.713
19449DT     SC326362  97.878  84.676  42.919
19450DT     BB126363  98.128  84.290  42.273
19450DT     BB226364  98.413  84.491  42.365
19450DT     BB326365  98.520  84.397  42.515
19450DT     SC126366  98.339  84.459  42.695
19450DT     SC226367  98.420  84.606  42.830
19450DT     SC326368  98.151  84.431  42.877
19451DA     BB126369  98.790  84.493  42.211
19451DA     BB226370  98.930  84.614  42.528
19451DA     BB326371  99.005  84.452  42.643
19451DA     SC126372  98.737  84.404  42.794
19451DA     SC226373  98.648  84.432  43.025
19451DA     SC326374  98.467  84.264  42.954
19451DA     SC426375  98.634  84.297  42.731
19452DA     BB126376  99.258  84.656  42.632
19452DA     BB226377  99.232  84.671  42.998
19452DA     BB326378  99.301  84.489  43.085
19452DA     SC126379  99.021  84.353  43.082
19452DA     SC226380  98.849  84.282  43.248
19452DA     SC326381  98.761  84.129  43.061
19452DA     SC426382  98.983  84.264  42.954
19453DG     BB126383  99.496  84.687  43.218
19453DG     BB226384  99.326  84.577  43.518
19453DG     BB326385  99.399  84.402  43.577
19453DG     SC126386  99.201  84.237  43.413
19453DG     SC226387  98.986  84.061  43.524
19453DG     SC326388  99.012  84.025  43.231
19453DG     SC426389  99.237  84.198  43.262
19454DA     BB126390  99.434  84.559  43.882
19454DA     BB226391  99.217  84.307  44.035
19454DA     BB326392  99.322  84.122  44.058
19454DA     SC126393  99.235  84.011  43.781
19454DA     SC226394  99.087  83.831  43.692
19454DA     SC326395  99.224  83.852  43.476
19454DA     SC426396  99.333  84.038  43.656
19455DT     BB126397  99.353  84.066  44.241
19455DT     BB226398  99.109  83.800  44.248
19455DT     BB326399  99.204  83.617  44.230
19455DT     SC126400  99.247  83.655  43.974
19455DT     SC226401  99.125  83.520  43.860
19455DT     SC326402  99.377  83.691  43.747
19456DA     BB126403  98.943  83.609  44.558
19456DA     BB226404  98.883  83.308  44.356
19456DA     BB326405  99.046  83.172  44.376
19456DA     SC126406  99.205  83.287  44.135
19456DA     SC226407  99.269  83.216  43.905
19456DA     SC326408  99.452  83.395  43.922
19456DA     SC426409  99.313  83.402  44.166
19457DA     BB126410  98.785  82.987  44.442
19457DA     BB226411  98.889  82.778  44.160
19457DA     BB326412  99.064  82.667  44.210
19457DA     SC126413  99.261  82.884  44.107
19457DA     SC226414  99.422  82.913  43.918
19457DA     SC326415  99.529  83.095  44.063
19457DA     SC426416  99.314  82.993  44.212
19458DA     BB126417  98.858  82.439  44.098
19458DA     BB226418  99.115  82.363  43.847
19458DA     BB326419  99.282  82.268  43.939
19458DA     SC126420  99.433  82.534  43.996
19458DA     SC226421  99.637  82.651  43.914
19458DA     SC326422  99.625  82.782  44.134
19458DA     SC426423  99.409  82.604  44.139
19459DA     BB126424  99.214  82.058  43.695
19459DA     BB226425  99.557  82.114  43.579
19459DA     BB326426  99.697  82.020  43.711
19459DA     SC126427  99.730  82.271  43.892
19459DA     SC226428  99.906  82.440  43.943
19459DA     SC326429  99.773  82.484  44.158
19459DA     SC426430  99.634  82.283  44.021
19460DA     BB126431  99.806  81.880  43.431
19460DA     BB226432 100.133  82.028  43.503
19460DA     BB326433 100.230  81.922  43.661
19460DA     SC126434 100.112  82.103  43.886
19460DA     SC226435 100.195  82.273  44.047
19460DA     SC326436  99.981  82.222  44.179
19460DA     SC426437  99.974  82.056  43.954
19461DA     BB126438 100.499  81.867  43.463
19461DA     BB226439 100.705  82.047  43.707
19461DA     BB326440 100.755  81.920  43.871
19461DA     SC126441 100.506  82.000  44.040
19461DA     SC226442 100.458  82.128  44.248
19461DA     SC326443 100.235  82.001  44.251
19461DA     SC426444 100.374  81.910  44.024
19462DA     BB126445 101.099  81.949  43.839
19462DA     BB226446 101.114  82.098  44.173
19462DA     BB326447 101.127  81.945  44.322
19462DA     SC126448 100.819  81.922  44.360
19462DA     SC226449 100.650  81.976  44.535
19462DA     SC326450 100.500  81.808  44.413
19462DA     SC426451 100.742  81.813  44.271
19463DA     BB126452 101.424  82.055  44.462
19463DA     BB226453 101.246  82.118  44.777
19463DA     BB326454 101.244  81.942  44.897
19463DA     SC126455 100.975  81.837  44.781
19463DA     SC226456 100.740  81.805  44.858
19463DA     SC326457 100.719  81.640  44.663
19463DA     SC426458 100.983  81.737  44.655
19464DA     BB126459 101.394  82.096  45.161
19464DA     BB226460 101.089  82.041  45.358
19464DA     BB326461 101.094  81.849  45.450
19464DA     SC126462 100.953  81.705  45.213
19464DA     SC226463 100.733  81.597  45.167
19464DA     SC326464 100.854  81.478  44.975
19464DA     SC426465 101.046  81.640  45.099
19465DA     BB126466 101.050  81.996  45.746
19465DA     BB226467 100.729  81.822  45.774
19465DA     BB326468 100.758  81.624  45.849
19465DA     SC126469 100.791  81.495  45.568
19465DA     SC226470 100.662  81.341  45.420
19465DA     SC326471 100.887  81.300  45.303
19465DA     SC426472 100.940  81.482  45.510
19466DA     BB126473 100.540  81.712  46.080
19466DA     BB226474 100.319  81.450  45.950
19466DA     BB326475 100.376  81.260  46.027
19466DA     SC126476 100.569  81.196  45.792
19466DA     SC226477 100.579  81.039  45.598
19466DA     SC326478 100.831  81.086  45.599
19466DA     SC426479 100.724  81.237  45.810
19467DG     BB126480 100.091  81.255  46.150
19467DG     BB226481 100.044  80.979  45.921
19467DG     BB326482 100.108  80.810  46.005
19467DG     SC126483 100.394  80.838  45.901
19467DG     SC226484 100.526  80.660  45.700
19467DG     SC326485 100.722  80.847  45.820
19467DG     SC426486 100.501  80.919  45.988
19468DA     BB126487  99.800  80.686  45.919
19468DA     BB226488  99.959  80.428  45.713
19468DA     BB326489 100.036  80.272  45.836
19468DA     SC126490 100.316  80.402  45.868
19468DA     SC226491 100.550  80.359  45.792
19468DA     SC326492 100.620  80.511  45.986
19468DA     SC426493 100.340  80.499  45.995
19469DG     BB126494  99.841  80.110  45.663
19469DG     BB226495 100.145  79.949  45.552
19469DG     BB326496 100.201  79.812  45.684
19469DG     SC126497 100.372  80.004  45.849
19469DG     SC226498 100.669  79.995  45.877
19469DG     SC326499 100.552  80.192  46.064
19469DG     SC426500 100.304  80.086  45.968
19470DG     BB126501 100.187  79.612  45.430
19470DG     BB226502 100.540  79.555  45.486
19470DG     BB326503 100.565  79.424  45.634
19470DG     SC126504 100.572  79.637  45.854
19470DG     SC226505 100.808  79.707  46.022
19470DG     SC326506 100.564  79.842  46.122
19470DG     SC426507 100.434  79.683  45.922
19471DC     BB126508 100.661  79.240  45.590
19471DC     BB226509 100.983  79.278  45.749
19471DC     BB326510 100.986  79.175  45.928
19471DC     SC126511 100.837  79.356  46.045
19471DC     SC226512 100.954  79.463  46.190
19471DC     SC326513 100.631  79.466  46.168
19472DG     BB126514 101.294  79.064  45.683
19472DG     BB226515 101.408  79.148  46.016
19472DG     BB326516 101.356  79.004  46.143
19472DG     SC126517 101.085  79.129  46.212
19472DG     SC226518 101.006  79.242  46.477
19472DG     SC326519 100.773  79.227  46.295
19472DG     SC426520 100.958  79.092  46.123
19473DG     BB126521 101.675  78.978  46.214
19473DG     BB226522 101.581  79.068  46.552
19473DG     BB326523 101.507  78.910  46.646
19473DG     SC126524 101.218  78.963  46.559
19473DG     SC226525 100.992  79.040  46.739
19473DG     SC326526 100.894  78.980  46.466
19473DG     SC426527 101.166  78.902  46.421
19474DA     BB126528 101.735  78.971  46.903
19474DA     BB226529 101.459  79.007  47.141
19474DA     BB326530 101.379  78.816  47.192
19474DA     SC126531 101.167  78.818  46.964
19474DA     SC226532 100.919  78.835  46.942
19474DA     SC326533 100.953  78.730  46.710
19474DA     SC426534 101.208  78.751  46.824
19475DT     BB126535 101.399  78.743  47.383
19475DT     BB226536 101.056  78.794  47.484
19475DT     BB326537 100.957  78.612  47.489
19475DT     SC126538 100.944  78.603  47.227
19475DT     SC226539 100.739  78.630  47.165
19475DT     SC326540 100.982  78.522  46.979
19476DC     BB126541 100.954  78.619  47.760
19476DC     BB226542 100.607  78.593  47.666
19476DC     BB326543 100.555  78.395  47.640
19476DC     SC126544 100.682  78.383  47.411
19476DC     SC226545 100.540  78.365  47.251
19476DC     SC326546 100.859  78.312  47.228
19477DG     BB126547 100.307  78.554  47.921
19477DG     BB226548 100.122  78.396  47.654
19477DG     BB326549 100.126  78.199  47.676
19477DG     SC126550 100.381  78.161  47.511
19477DG     SC226551 100.401  78.022  47.248
19477DG     SC326552 100.670  78.085  47.354
19477DG     SC426553 100.523  78.170  47.585
19478DC     BB126554  99.942  78.099  47.703
19478DC     BB226555  99.895  77.941  47.382
19478DC     BB326556  99.949  77.742  47.393
19478DC     SC126557 100.205  77.803  47.396
19478DC     SC226558 100.295  77.741  47.211
19478DC     SC326559 100.453  77.825  47.480
19479DA     BB126560  99.567  77.771  47.221
19479DA     BB226561  99.771  77.550  47.011
19479DA     BB326562  99.806  77.364  47.110
19479DA     SC126563 100.069  77.458  47.247
19479DA     SC226564 100.313  77.411  47.229
19479DA     SC326565 100.328  77.510  47.466
19479DA     SC426566 100.058  77.522  47.394
19480DG     BB126567  99.660  77.246  46.861
19480DG     BB226568  99.981  77.090  46.805
19480DG     BB326569  99.999  76.928  46.920
19480DG     SC126570 100.122  77.080  47.156
19480DG     SC226571 100.401  77.049  47.257
19480DG     SC326572 100.240  77.217  47.440
19480DG     SC426573 100.025  77.144  47.266
19481DT     BB126574 100.019  76.715  46.838
19481DT     BB226575 100.369  76.650  46.897
19481DT     BB326576 100.391  76.523  47.059
19481DT     SC126577 100.334  76.715  47.228
19481DT     SC226578 100.510  76.767  47.340
19481DT     SC326579 100.206  76.852  47.414
19482DC     BB126580 100.461  76.308  46.900
19482DC     BB226581 100.738  76.345  47.128
19482DC     BB326582 100.703  76.235  47.300
19482DC     SC126583 100.528  76.410  47.386
19482DC     SC226584 100.609  76.513  47.557
19482DC     SC326585 100.298  76.515  47.463
19483DT     BB126586 100.891  76.049  47.229
19483DT     BB226587 101.001  76.171  47.550
19483DT     BB326588 100.913  76.061  47.701
19483DT     SC126589 100.682  76.181  47.665
19483DT     SC226590 100.641  76.308  47.833
19483DT     SC326591 100.427  76.216  47.607
19484DC     BB126592 101.153  75.950  47.750
19484DC     BB226593 101.057  76.107  48.061
19484DC     BB326594 100.938  75.978  48.171
19484DC     SC126595 100.732  76.021  48.014
19484DC     SC226596 100.583  76.133  48.121
19484DC     SC326597 100.538  75.977  47.840
19485DA     BB126598 101.250  76.130  48.407
19485DA     BB226599 100.935  76.172  48.589
19485DA     BB326600 100.861  75.983  48.655
19485DA     SC126601 100.692  75.932  48.399
19485DA     SC226602 100.451  75.921  48.337
19485DA     SC326603 100.531  75.789  48.132
19485DA     SC426604 100.762  75.850  48.279
19486DA     BB126605 100.862  76.171  48.923
19486DA     BB226606 100.501  76.106  48.937
19486DA     BB326607 100.465  75.902  48.990
19486DA     SC126608 100.459  75.801  48.696
19486DA     SC226609 100.290  75.714  48.534
19486DA     SC326610 100.492  75.617  48.408
19486DA     SC426611 100.597  75.748  48.633
19487DT     BB126612 100.379  75.884  49.156
19487DT     BB226613 100.055  75.786  49.032
19487DT     BB326614 100.034  75.580  49.044
19487DT     SC126615 100.193  75.544  48.838
19487DT     SC226616 100.078  75.472  48.671
19487DT     SC326617 100.401  75.466  48.696
19488DC     BB126618  99.861  75.614  49.247
19488DC     BB226619  99.679  75.418  49.004
19488DC     BB326620  99.722  75.217  49.030
19488DC     SC126621  99.959  75.247  48.921
19488DC     SC226622  99.963  75.148  48.730
19488DC     SC326623 100.222  75.251  48.895
19489DT     BB126624  99.475  75.165  49.140
19489DT     BB226625  99.498  74.935  48.863
19489DT     BB326626  99.590  74.760  48.923
19489DT     SC126627  99.826  74.876  48.928
19489DT     SC226628  99.947  74.797  48.768
19489DT     SC326629 100.053  74.971  49.020
19490DT     BB126630  99.355  74.608  48.925
19490DT     BB226631  99.574  74.427  48.704
19490DT     BB326632  99.685  74.289  48.811
19490DT     SC126633  99.838  74.477  48.910
19490DT     SC226634 100.036  74.460  48.826
19490DT     SC326635  99.954  74.636  49.086
19491DT     BB126636  99.542  74.064  48.720
19491DT     BB226637  99.884  73.996  48.627
19491DT     BB326638  99.979  73.892  48.779
19491DT     SC126639  99.997  74.109  48.926
19491DT     SC226640 100.203  74.170  48.938
19491DT     SC326641  99.962  74.277  49.126
19492DG     BB126642 100.005  73.657  48.447
19492DG     BB226643 100.331  73.719  48.591
19492DG     BB326644 100.359  73.601  48.748
19492DG     SC126645 100.241  73.799  48.950
19492DG     SC226646 100.391  73.940  49.166
19492DG     SC326647 100.100  73.983  49.194
19492DG     SC426648 100.084  73.795  48.979
19493DA     BB126649 100.653  73.525  48.586
19493DA     BB226650 100.841  73.648  48.875
19493DA     BB326651 100.831  73.509  49.036
19493DA     SC126652 100.577  73.637  49.162
19493DA     SC226653 100.517  73.767  49.367
19493DA     SC326654 100.277  73.692  49.320
19493DA     SC426655 100.434  73.579  49.117
19494DC     BB126656 100.997  73.435  49.079
19494DC     BB226657 101.049  73.616  49.387
19494DC     BB326658 101.002  73.496  49.548
19494DC     SC126659 100.744  73.522  49.503
19494DC     SC226660 100.656  73.641  49.659
19494DC     SC326661 100.495  73.460  49.444
19495DA     BB126662 101.383  73.660  49.610
19495DA     BB226663 101.187  73.707  49.917
19495DA     BB326664 101.160  73.521  50.017
19495DA     SC126665 100.894  73.453  49.872
19495DA     SC226666 100.652  73.435  49.929
19495DA     SC326667 100.633  73.293  49.716
19495DA     SC426668 100.903  73.366  49.737
19496DA     BB126669 101.287  73.692  50.269
19496DA     BB226670 100.974  73.625  50.447
19496DA     BB326671 100.968  73.423  50.514
19496DA     SC126672 100.830  73.316  50.256
19496DA     SC226673 100.608  73.224  50.191
19496DA     SC326674 100.732  73.125  49.988
19496DA     SC426675 100.925  73.262  50.138
19497DA     BB126676 100.913  73.555  50.813
19497DA     BB226677 100.591  73.380  50.813
19497DA     BB326678 100.619  73.173  50.859
19497DA     SC126679 100.652  73.087  50.562
19497DA     SC226680 100.524  72.957  50.392
19497DA     SC326681 100.749  72.933  50.270
19497DA     SC426682 100.802  73.082  50.502
19498DC     BB126683 100.546  73.085  51.041
19498DC     BB226684 100.267  72.912  50.890
19498DC     BB326685 100.304  72.709  50.886
19498DC     SC126686 100.474  72.735  50.689
19498DC     SC226687 100.391  72.649  50.510
19498DC     SC326688 100.701  72.730  50.555
19499DA     BB126689  99.930  72.765  51.066
19499DA     BB226690  99.891  72.518  50.798
19499DA     BB326691  99.975  72.331  50.857
19499DA     SC126692 100.257  72.394  50.742
19499DA     SC226693 100.401  72.316  50.553
19499DA     SC326694 100.596  72.416  50.687
19499DA     SC426695 100.365  72.461  50.841
19500DA     BB126696  99.675  72.258  50.762
19500DA     BB226697  99.834  72.052  50.504
19500DA     BB326698  99.919  71.876  50.591
19500DA     SC126699 100.197  72.007  50.641
19500DA     SC226700 100.429  71.987  50.552
19500DA     SC326701 100.501  72.099  50.772
19500DA     SC426702 100.222  72.076  50.784
19501DG     BB126703  99.722  71.785  50.378
19501DG     BB226704 100.025  71.658  50.228
19501DG     BB326705 100.087  71.496  50.326
19501DG     SC126706 100.259  71.652  50.526
19501DG     SC226707 100.557  71.643  50.545
19501DG     SC326708 100.441  71.792  50.772
19501DG     SC426709 100.192  71.705  50.661
19502DG     BB126710 100.069  71.388  50.023
19502DG     BB226711 100.423  71.321  50.060
19502DG     BB326712 100.450  71.162  50.176
19502DG     SC126713 100.460  71.322  50.436
19502DG     SC226714 100.699  71.355  50.612
19502DG     SC326715 100.457  71.464  50.742
19502DG     SC426716 100.324  71.352  50.514
19503DC     BB126717 100.546  71.004  50.087
19503DC     BB226718 100.870  71.009  50.247
19503DC     BB326719 100.874  70.870  50.401
19503DC     SC126720 100.727  71.025  50.554
19503DC     SC226721 100.847  71.099  50.716
19503DC     SC326722 100.523  71.109  50.699
19504DA     BB126723 101.209  70.799  50.158
19504DA     BB226724 101.321  70.804  50.507
19504DA     BB326725 101.257  70.627  50.608
19504DA     SC126726 100.989  70.752  50.705
19504DA     SC226727 100.887  70.825  50.921
19504DA     SC326728 100.662  70.805  50.798
19504DA     SC426729 100.859  70.732  50.612
19505DA     BB126730 101.577  70.601  50.679
19505DA     BB226731 101.483  70.620  51.032
19505DA     BB326732 101.400  70.434  51.097
19505DA     SC126733 101.107  70.512  51.027
19505DA     SC226734 100.896  70.565  51.149
19505DA     SC326735 100.778  70.511  50.928
19505DA     SC426736 101.052  70.473  50.881
19506DA     BB126737 101.632  70.467  51.326
19506DA     BB226738 101.362  70.467  51.574
19506DA     BB326739 101.286  70.270  51.602
19506DA     SC126740 101.068  70.296  51.381
19506DA     SC226741 100.820  70.311  51.368
19506DA     SC326742 100.848  70.237  51.124
19506DA     SC426743 101.107  70.248  51.233
19507DA     BB126744 101.352  70.357  51.909
19507DA     BB226745 100.996  70.307  51.978
19507DA     BB326746 100.949  70.099  51.982
19507DA     SC126747 100.881  70.084  51.679
19507DA     SC226748 100.678  70.051  51.537
19507DA     SC326749 100.844  69.984  51.352
19507DA     SC426750 100.999  70.044  51.578
19508DA     BB126751 100.826  70.208  52.264
19508DA     BB226752 100.502  70.084  52.144
19508DA     BB326753 100.500  69.871  52.146
19508DA     SC126754 100.604  69.844  51.854
19508DA     SC226755 100.516  69.771  51.632
19508DA     SC326756 100.763  69.741  51.567
19508DA     SC426757 100.763  69.830  51.833
19509DA     BB126758 100.226  69.937  52.316
19509DA     BB226759 100.045  69.745  52.062
19509DA     BB326760 100.086  69.537  52.083
19509DA     SC126761 100.330  69.540  51.889
19509DA     SC226762 100.386  69.454  51.662
19509DA     SC326763 100.631  69.483  51.734
19509DA     SC426764 100.475  69.564  51.953
19510DT     BB126765  99.938  69.407  52.143
19510DT     BB226766  99.889  69.236  51.830
19510DT     BB326767  99.977  69.048  51.837
19510DT     SC126768 100.217  69.152  51.814
19510DT     SC226769 100.299  69.101  51.622
19510DT     SC326770 100.466  69.219  51.874
19511DG     BB126771  99.585  68.925  51.779
19511DG     BB226772  99.803  68.757  51.544
19511DG     BB326773  99.886  68.598  51.630
19511DG     SC126774 100.129  68.751  51.735
19511DG     SC226775 100.412  68.713  51.646
19511DG     SC326776 100.399  68.891  51.883
19511DG     SC426777 100.121  68.821  51.879
19512DG     BB126778  99.766  68.324  51.438
19512DG     BB226779 100.109  68.259  51.341
19512DG     BB326780 100.189  68.124  51.464
19512DG     SC126781 100.293  68.332  51.663
19512DG     SC226782 100.580  68.393  51.719
19512DG     SC326783 100.403  68.530  51.912
19512DG     SC426784 100.197  68.379  51.782
19513DC     BB126785 100.276  67.869  51.428
19513DC     BB226786 100.632  67.928  51.425
19513DC     BB326787 100.719  67.840  51.590
19513DC     SC126788 100.627  68.027  51.749
19513DC     SC226789 100.790  68.149  51.818
19513DC     SC326790 100.490  68.144  51.942
19514DG     BB126791 100.912  67.638  51.288
19514DG     BB226792 101.152  67.787  51.514
19514DG     BB326793 101.182  67.667  51.670
19514DG     SC126794 100.958  67.789  51.839
19514DG     SC226795 100.994  67.945  52.091
19514DG     SC326796 100.708  67.886  52.043
19514DG     SC426797 100.810  67.731  51.825
19515DT     BB126798 101.390  67.558  51.727
19515DT     BB226799 101.497  67.765  52.002
19515DT     BB326800 101.481  67.660  52.180
19515DT     SC126801 101.219  67.686  52.181
19515DT     SC226802 101.161  67.820  52.339
19515DT     SC326803 100.964  67.622  52.175
19516DA     BB126804 101.876  67.800  52.172
19516DA     BB226805 101.735  67.890  52.498
19516DA     BB326806 101.726  67.719  52.625
19516DA     SC126807 101.439  67.638  52.537
19516DA     SC226808 101.210  67.633  52.636
19516DA     SC326809 101.155  67.465  52.450
19516DA     SC426810 101.425  67.534  52.415
19517DT     BB126811 101.847  67.704  52.801
19517DT     BB226812 101.582  67.768  53.037
19517DT     BB326813 101.535  67.594  53.139
19517DT     SC126814 101.409  67.497  52.930
19517DT     SC226815 101.198  67.490  52.971
19517DT     SC326816 101.350  67.338  52.728
19518DT     BB126817 101.656  67.679  53.377
19518DT     BB226818 101.314  67.610  53.471
19518DT     BB326819 101.296  67.413  53.532
19518DT     SC126820 101.311  67.326  53.285
19518DT     SC226821 101.120  67.248  53.225
19518DT     SC326822 101.401  67.202  53.070
19519DC     BB126823 101.268  67.487  53.797
19519DC     BB226824 100.967  67.302  53.723
19519DC     BB326825 100.996  67.101  53.763
19519DC     SC126826 101.143  67.071  53.547
19519DC     SC226827 101.035  66.951  53.404
19519DC     SC326828 101.352  67.022  53.393
19520DT     BB126829 100.831  67.132  53.971
19520DT     BB226830 100.676  66.880  53.763
19520DT     BB326831 100.751  66.693  53.810
19520DT     SC126832 100.977  66.745  53.688
19520DT     SC226833 100.991  66.624  53.510
19520DT     SC326834 101.235  66.786  53.649
19521DT     BB126835 100.508  66.660  53.901
19521DT     BB226836 100.555  66.404  53.651
19521DT     BB326837 100.657  66.243  53.732
19521DT     SC126838 100.884  66.375  53.730
19521DT     SC226839 101.015  66.288  53.583
19521DT     SC326840 101.102  66.495  53.817
19522DA     BB126841 100.317  66.156  53.493
19522DA     BB226842 100.595  65.938  53.395
19522DA     BB326843 100.644  65.805  53.553
19522DA     SC126844 100.855  65.995  53.680
19522DA     SC226845 101.103  66.005  53.708
19522DA     SC326846 101.055  66.170  53.898
19522DA     SC426847 100.805  66.096  53.796
19523DT     BB126848 100.612  65.647  53.493
19523DT     BB226849 100.953  65.533  53.466
19523DT     BB326850 101.009  65.435  53.640
19523DT     SC126851 101.029  65.661  53.771
19523DT     SC226852 101.236  65.700  53.814
19523DT     SC326853 100.982  65.850  53.949
19524DT     BB126854 101.001  65.208  53.498
19524DT     BB226855 101.331  65.213  53.645
19524DT     BB326856 101.324  65.139  53.838
19524DT     SC126857 101.213  65.359  53.927
19524DT     SC226858 101.353  65.464  54.052
19524DT     SC326859 101.035  65.522  54.034
19525DC     BB126860 101.444  64.901  53.766
19525DC     BB226861 101.650  65.023  54.035
19525DC     BB326862 101.575  64.958  54.217
19525DC     SC126863 101.378  65.130  54.207
19525DC     SC226864 101.407  65.281  54.357
19525DC     SC326865 101.132  65.225  54.194
19526DA     BB126866 101.975  64.825  54.232
19526DA     BB226867 101.906  64.996  54.549
19526DA     BB326868 101.790  64.871  54.677
19526DA     SC126869 101.516  64.977  54.574
19526DA     SC226870 101.328  65.116  54.660
19526DA     SC326871 101.190  65.008  54.473
19526DA     SC426872 101.447  64.898  54.453
19527DA     BB126873 102.030  64.914  54.902
19527DA     BB226874 101.780  65.075  55.116
19527DA     BB326875 101.660  64.928  55.215
19527DA     SC126876 101.445  64.918  54.991
19527DA     SC226877 101.207  64.986  54.960
19527DA     SC326878 101.205  64.819  54.766
19527DA     SC426879 101.463  64.809  54.874
19528DA     BB126880 101.755  65.090  55.484
19528DA     BB226881 101.401  65.167  55.540
19528DA     BB326882 101.300  64.997  55.621
19528DA     SC126883 101.219  64.883  55.343
19528DA     SC226884 101.010  64.853  55.210
19528DA     SC326885 101.143  64.678  55.078
19528DA     SC426886 101.318  64.777  55.274
19529DT     BB126887 101.231  65.016  55.804
19529DT     BB226888 100.883  65.048  55.715
19529DT     BB326889 100.783  64.871  55.755
19529DT     SC126890 100.890  64.755  55.545
19529DT     SC226891 100.738  64.722  55.396
19529DT     SC326892 101.033  64.587  55.400
19530DA     BB126893 100.575  65.194  55.923
19530DA     BB226894 100.336  64.988  55.737
19530DA     BB326895 100.302  64.803  55.838
19530DA     SC126896 100.529  64.652  55.690
19530DA     SC226897 100.550  64.470  55.520
19530DA     SC326898 100.790  64.444  55.608
19530DA     SC426899 100.674  64.650  55.759
19531DC     BB126900 100.123  64.779  55.905
19531DC     BB226901 100.015  64.531  55.667
19531DC     BB326902 100.021  64.343  55.753
19531DC     SC126903 100.283  64.335  55.736
19531DC     SC226904 100.341  64.189  55.589
19531DC     SC326905 100.536  64.325  55.809
19532DA     BB126906  99.636  64.387  55.590
19532DA     BB226907  99.766  64.060  55.486
19532DA     BB326908  99.766  63.925  55.650
19532DA     SC126909 100.055  63.997  55.740
19532DA     SC226910 100.280  63.888  55.744
19532DA     SC326911 100.338  64.063  55.922
19532DA     SC426912 100.072  64.113  55.850
19533DT     BB126913  99.638  63.756  55.657
19533DT     BB226914  99.891  63.506  55.593
19533DT     BB326915  99.931  63.401  55.767
19533DT     SC126916 100.066  63.602  55.867
19533DT     SC226917 100.275  63.551  55.875
19533DT     SC326918 100.134  63.800  56.028
19534DG     BB126919  99.805  63.111  55.507
19534DG     BB226920 100.124  63.024  55.653
19534DG     BB326921 100.097  62.946  55.834
19534DG     SC126922 100.113  63.216  55.979
19534DG     SC226923 100.328  63.301  56.167
19534DG     SC326924 100.105  63.495  56.167
19534DG     SC426925  99.979  63.301  55.998
19535DT     BB126926 100.154  62.730  55.890
19535DT     BB226927 100.454  62.787  56.081
19535DT     BB326928 100.417  62.757  56.282
19535DT     SC126929 100.288  62.985  56.300
19535DT     SC226930 100.404  63.124  56.417
19535DT     SC326931 100.091  63.157  56.337
19536DC     BB126932 100.563  62.532  56.268
19536DC     BB226933 100.725  62.733  56.520
19536DC     BB326934 100.635  62.702  56.704
19536DC     SC126935 100.427  62.846  56.635
19536DC     SC226936 100.426  63.029  56.748
19536DC     SC326937 100.178  62.910  56.577
19537DG     BB126938 101.033  62.623  56.729
19537DG     BB226939 100.927  62.857  56.983
19537DG     BB326940 100.831  62.761  57.128
19537DG     SC126941 100.555  62.789  56.997
19537DG     SC226942 100.327  62.951  57.102
19537DG     SC326943 100.242  62.784  56.873
19537DG     SC426944 100.507  62.677  56.894
19538DT     BB126945 100.915  62.775  57.315
19538DT     BB226946 100.689  62.996  57.487
19538DT     BB326947 100.557  62.886  57.603
19538DT     SC126948 100.421  62.811  57.391
19538DT     SC226949 100.228  62.907  57.392
19538DT     SC326950 100.315  62.656  57.206
19539DT     BB126951 100.688  62.977  57.818
19539DT     BB226952 100.344  63.069  57.875
19539DT     BB326953 100.241  62.910  57.959
19539DT     SC126954 100.234  62.783  57.729
19539DT     SC226955 100.032  62.780  57.656
19539DT     SC326956 100.277  62.598  57.547
19540DT     BB126957 100.234  63.032  58.205
19540DT     BB226958  99.888  62.958  58.135
19540DT     BB326959  99.842  62.767  58.200
19540DT     SC126960  99.971  62.658  57.999
19540DT     SC226961  99.830  62.567  57.864
19540DT     SC326962 100.151  62.519  57.865
19541DG     BB126963  99.582  62.993  58.423
19541DG     BB226964  99.406  62.725  58.255
19541DG     BB326965  99.425  62.556  58.358
19541DG     SC126966  99.681  62.469  58.215
19541DG     SC226967  99.708  62.233  58.034
19541DG     SC326968  99.972  62.352  58.092
19541DG     SC426969  99.822  62.517  58.272
19542DC     BB126970  99.249  62.437  58.461
19542DC     BB226971  99.213  62.160  58.233
19542DC     BB326972  99.289  61.988  58.318
19542DC     SC126973  99.536  62.068  58.280
19542DC     SC226974  99.628  61.946  58.129
19542DC     SC326975  99.782  62.145  58.332
19543DT     BB126976  99.038  61.887  58.353
19543DT     BB226977  99.207  61.640  58.152
19543DT     BB326978  99.307  61.507  58.275
19543DT     SC126979  99.495  61.683  58.327
19543DT     SC226980  99.678  61.622  58.233
19543DT     SC326981  99.648  61.849  58.462
19544DT     BB126982  99.125  61.319  58.211
19544DT     BB226983  99.442  61.176  58.115
19544DT     BB326984  99.531  61.084  58.278
19544DT     SC126985  99.596  61.315  58.383
19544DT     SC226986  99.810  61.340  58.374
19544DT     SC326987  99.605  61.517  58.553
19545DA     BB126988  99.527  60.807  57.962
19545DA     BB226989  99.866  60.814  58.103
19545DA     BB326990  99.869  60.718  58.294
19545DA     SC126991  99.810  60.979  58.453
19545DA     SC226992  99.931  61.132  58.609
19545DA     SC326993  99.698  61.210  58.681
19545DA     SC426994  99.656  61.014  58.485
19546DG     BB126995 100.073  60.521  58.163
19546DG     BB226996 100.299  60.662  58.408
19546DG     BB326997 100.273  60.572  58.583
19546DG     SC126998 100.058  60.767  58.679
19546DG     SC226999 100.084  60.960  58.906
19546DG     SC327000  99.805  60.950  58.808
19546DG     SC427001  99.904  60.737  58.645
19547DA     BB127002 100.617  60.496  58.606
19547DA     BB227003 100.645  60.694  58.913
19547DA     BB327004 100.573  60.582  59.080
19547DA     SC127005 100.281  60.685  59.054
19547DA     SC227006 100.126  60.835  59.180
19547DA     SC327007  99.938  60.714  59.053
19547DA     SC427008 100.178  60.598  58.966
19548DT     BB127009 100.700  60.504  59.253
19548DT     BB227010 100.593  60.754  59.490
19548DT     BB327011 100.475  60.667  59.637
19548DT     SC127012 100.272  60.646  59.472
19548DT     SC227013 100.117  60.782  59.533
19548DT     SC327014 100.084  60.537  59.323
19549DG     BB127015 100.788  60.823  59.850
19549DG     BB227016 100.471  60.951  59.968
19549DG     BB327017 100.387  60.821  60.093
19549DG     SC127018 100.237  60.670  59.874
19549DG     SC227019  99.940  60.660  59.839
19549DG     SC327020 100.073  60.469  59.657
19549DG     SC427021 100.309  60.548  59.799
19550DT     BB127022 100.349  60.883  60.296
19550DT     BB227023  99.995  60.952  60.268
19550DT     BB327024  99.887  60.801  60.360
19550DT     SC127025  99.934  60.635  60.163
19550DT     SC227026  99.751  60.600  60.055
19550DT     SC327027 100.023  60.425  60.031
19551DA     BB127028  99.793  61.208  60.421
19551DA     BB227029  99.493  61.026  60.316
19551DA     BB327030  99.436  60.884  60.466
19551DA     SC127031  99.605  60.652  60.345
19551DA     SC227032  99.564  60.436  60.228
19551DA     SC327033  99.803  60.376  60.299
19551DA     SC427034  99.755  60.633  60.399
19552DG     BB127035  99.237  61.093  60.348
19552DG     BB227036  99.078  60.784  60.247
19552DG     BB327037  99.022  60.681  60.408
19552DG     SC127038  99.287  60.528  60.431
19552DG     SC227039  99.324  60.235  60.389
19552DG     SC327040  99.570  60.358  60.497
19552DG     SC427041  99.406  60.592  60.516
19553DT     BB127042  98.859  60.667  60.356
19553DT     BB227043  98.822  60.312  60.300
19553DT     BB327044  98.795  60.214  60.480
19553DT     SC127045  99.049  60.241  60.541
19553DT     SC227046  99.144  60.049  60.535
19553DT     SC327047  99.266  60.317  60.669
19554DG     BB127048  98.512  60.132  60.195
19554DG     BB227049  98.641  59.833  60.352
19554DG     BB327050  98.575  59.821  60.539
19554DG     SC127051  98.810  59.976  60.659
19554DG     SC227052  99.019  59.865  60.841
19554DG     SC327053  99.043  60.159  60.820
19554DG     SC427054  98.801  60.136  60.669
19555DC     BB127055  98.457  59.658  60.586
19555DC     BB227056  98.667  59.461  60.804
19555DC     BB327057  98.620  59.500  61.001
19555DC     SC127058  98.741  59.733  60.992
19555DC     SC227059  98.919  59.726  61.113
19555DC     SC327060  98.777  59.994  60.999
19556DA     BB127061  98.598  59.082  60.970
19556DA     BB227062  98.786  59.158  61.275
19556DA     BB327063  98.655  59.228  61.428
19556DA     SC127064  98.684  59.527  61.349
19556DA     SC227065  98.787  59.734  61.444
19556DA     SC327066  98.628  59.860  61.287
19556DA     SC427067  98.577  59.588  61.246
19557DT     BB127068  98.608  59.116  61.610
19557DT     BB227069  98.795  59.322  61.841
19557DT     BB327070  98.665  59.432  61.958
19557DT     SC127071  98.611  59.595  61.759
19557DT     SC227072  98.696  59.788  61.800
19557DT     SC327073  98.476  59.722  61.572
19558DT     BB127074  98.691  59.279  62.199
19558DT     BB227075  98.767  59.615  62.306
19558DT     BB327076  98.595  59.708  62.374
19558DT     SC127077  98.507  59.740  62.129
19558DT     SC227078  98.511  59.949  62.078
19558DT     SC327079  98.353  59.717  61.916
19559DT     BB127080  98.652  59.693  62.655
19559DT     BB227081  98.594  60.045  62.601
19559DT     BB327082  98.395  60.091  62.634
19559DT     SC127083  98.324  59.980  62.407
19559DT     SC227084  98.259  60.134  62.271
19559DT     SC327085  98.208  59.815  62.237
19560DA     BB127086  98.582  60.362  62.898
19560DA     BB227087  98.339  60.555  62.702
19560DA     BB327088  98.142  60.525  62.778
19560DA     SC127089  98.082  60.283  62.592
19560DA     SC227090  97.936  60.233  62.396
19560DA     SC327091  97.969  59.987  62.460
19560DA     SC427092  98.113  60.136  62.648
19561DA     BB127093  98.107  60.857  62.820
19561DA     BB227094  97.836  60.849  62.573
19561DA     BB327095  97.653  60.791  62.666
19561DA     SC127096  97.694  60.487  62.614
19561DA     SC227097  97.593  60.309  62.471
19561DA     SC327098  97.698  60.145  62.637
19561DA     SC427099  97.766  60.401  62.729
19562DA     BB127100  97.523  61.072  62.547
19562DA     BB227101  97.296  60.866  62.346
19562DA     BB327102  97.130  60.802  62.464
19562DA     SC127103  97.267  60.539  62.558
19562DA     SC227104  97.241  60.294  62.519
19562DA     SC327105  97.373  60.266  62.738
19562DA     SC427106  97.349  60.543  62.696
19563DT     BB127107  96.935  60.871  62.420
19563DT     BB227108  96.818  60.565  62.268
19563DT     BB327109  96.683  60.471  62.392
19563DT     SC127110  96.874  60.391  62.553
19563DT     SC227111  96.896  60.178  62.537
19563DT     SC327112  97.021  60.364  62.771
19564DT     BB127113  96.486  60.539  62.220
19564DT     BB227114  96.466  60.180  62.243
19564DT     BB327115  96.346  60.126  62.403
19564DT     SC127116  96.534  60.189  62.575
19564DT     SC227117  96.611  60.009  62.666
19564DT     SC327118  96.659  60.312  62.772
19565DA     BB127119  96.208  59.920  62.066
19565DA     BB227120  96.238  59.678  62.339
19565DA     BB327121  96.081  59.706  62.481
19565DA     SC127122  96.243  59.905  62.656
19565DA     SC227123  96.349  59.909  62.882
19565DA     SC327124  96.340  60.164  62.860
19565DA     SC427125  96.227  60.062  62.624
19566DG     BB127126  95.995  59.412  62.413
19566DG     BB227127  96.075  59.351  62.760
19566DG     BB327128  95.920  59.400  62.875
19566DG     SC127129  96.008  59.691  62.913
19566DG     SC227130  96.097  59.815  63.169
19566DG     SC327131  96.063  60.020  62.959
19566DG     SC427132  95.960  59.801  62.807
19567DA     BB127133  95.911  59.082  63.031
19567DA     BB227134  95.967  59.234  63.360
19567DA     BB327135  95.783  59.310  63.439
19567DA     SC127136  95.819  59.593  63.316
19567DA     SC227137  95.865  59.825  63.396
19567DA     SC327138  95.768  59.900  63.171
19567DA     SC427139  95.755  59.620  63.171
19568DG     BB127140  95.789  59.109  63.692
19568DG     BB227141  95.827  59.414  63.884
19568DG     BB327142  95.648  59.484  63.935
19568DG     SC127143  95.614  59.655  63.684
19568DG     SC227144  95.608  59.953  63.675
19568DG     SC327145  95.536  59.838  63.412
19568DG     SC427146  95.548  59.590  63.554
19569DT     BB127147  95.554  59.507  64.165
19569DT     BB227148  95.595  59.863  64.209
19569DT     BB327149  95.410  59.955  64.213
19569DT     SC127150  95.383  59.928  63.953
19569DT     SC227151  95.396  60.121  63.859
19569DT     SC327152  95.286  59.849  63.721
19570DT     BB127153  95.438  60.002  64.480
19570DT     BB227154  95.404  60.329  64.331
19570DT     BB327155  95.203  60.380  64.320
19570DT     SC127156  95.165  60.217  64.119
19570DT     SC227157  95.128  60.330  63.940
19570DT     SC327158  95.071  60.014  63.978
19571DG     BB127159  95.430  60.654  64.514
19571DG     BB227160  95.241  60.802  64.243
19571DG     BB327161  95.050  60.820  64.296
19571DG     SC127162  94.969  60.544  64.193
19571DG     SC227163  94.786  60.490  63.963
19571DG     SC327164  94.849  60.240  64.109
19571DG     SC427165  94.981  60.418  64.291
19572DG     BB127166  95.145  61.111  64.196
19572DG     BB227167  94.881  61.074  63.952
19572DG     BB327168  94.704  61.089  64.040
19572DG     SC127169  94.681  60.790  64.099
19572DG     SC227170  94.483  60.602  63.978
19572DG     SC327171  94.632  60.471  64.198
19572DG     SC427172  94.741  60.733  64.236
19573DA     BB127173  94.660  61.308  63.776
19573DA     BB227174  94.362  61.119  63.676
19573DA     BB327175  94.206  61.146  63.819
19573DA     SC127176  94.288  60.901  63.992
19573DA     SC227177  94.198  60.675  64.046
19573DA     SC327178  94.351  60.686  64.251
19573DA     SC427179  94.389  60.928  64.115
19574DA     BB127180  94.041  61.229  63.545
19574DA     BB227181  93.804  60.962  63.629
19574DA     BB327182  93.683  61.020  63.795
19574DA     SC127183  93.875  60.900  64.008
19574DA     SC227184  93.877  60.710  64.169
19574DA     SC327185  94.060  60.841  64.291
19574DA     SC427186  93.987  60.998  64.070
19575DT     BB127187  93.466  61.064  63.783
19575DT     BB227188  93.350  60.766  63.951
19575DT     BB327189  93.278  60.815  64.139
19575DT     SC127190  93.521  60.848  64.232
19575DT     SC227191  93.566  60.690  64.371
19575DT     SC327192  93.733  60.966  64.335
19576DA     BB127193  92.942  60.617  63.977
19576DA     BB227194  93.002  60.470  64.307
19576DA     BB327195  92.929  60.599  64.460
19576DA     SC127196  93.196  60.753  64.494
19576DA     SC227197  93.377  60.775  64.664
19576DA     SC327198  93.436  60.994  64.545
19576DA     SC427199  93.216  60.887  64.407
19577DT     BB127200  92.751  60.555  64.598
19577DT     BB227201  92.949  60.477  64.889
19577DT     BB327202  92.923  60.623  65.033
19577DT     SC127203  93.072  60.792  64.900
19577DT     SC227204  93.256  60.824  65.007
19577DT     SC327205  93.144  61.006  64.764
19578DG     BB127206  92.811  60.271  65.205
19578DG     BB227207  93.065  60.439  65.400
19578DG     BB327208  92.982  60.583  65.510
19578DG     SC127209  93.014  60.799  65.296
19578DG     SC227210  93.192  61.038  65.314
19578DG     SC327211  93.016  61.055  65.077
19578DG     SC427212  92.899  60.818  65.187
19579DT     BB127213  93.003  60.563  65.715
19579DT     BB227214  93.254  60.812  65.786
19579DT     BB327215  93.165  60.982  65.863
19579DT     SC127216  93.074  61.051  65.627
19579DT     SC227217  93.179  61.226  65.558
19579DT     SC327218  92.904  61.108  65.433
19580DT     BB127219  93.295  60.900  66.071
19580DT     BB227220  93.414  61.235  66.008
19580DT     BB327221  93.277  61.373  66.079
19580DT     SC127222  93.113  61.327  65.880
19580DT     SC227223  93.108  61.498  65.750
19580DT     SC327224  92.897  61.252  65.749
19581DA     BB127225  93.673  61.460  66.195
19581DA     BB227226  93.515  61.769  66.079
19581DA     BB327227  93.362  61.830  66.214
19581DA     SC127228  93.136  61.673  66.068
19581DA     SC227229  92.934  61.725  65.932
19581DA     SC327230  92.857  61.488  65.993
19581DA     SC427231  93.105  61.524  66.119
19582DT     BB127232  93.403  61.988  66.296
19582DT     BB227233  93.156  62.195  66.134
19582DT     BB327234  92.989  62.214  66.255
19582DT     SC127235  92.912  61.969  66.199
19582DT     SC227236  92.734  61.976  66.079
19582DT     SC327237  92.849  61.715  66.232
19583DA     BB127238  93.098  62.608  66.156
19583DA     BB227239  92.736  62.578  66.109
19583DA     BB327240  92.637  62.570  66.298
19583DA     SC127241  92.648  62.260  66.317
19583DA     SC227242  92.488  62.069  66.307
19583DA     SC327243  92.671  61.935  66.427
19583DA     SC427244  92.773  62.194  66.393
19584DA     BB127245  92.456  62.828  66.191
19584DA     BB227246  92.158  62.619  66.232
19584DA     BB327247  92.103  62.607  66.438
19584DA     SC127248  92.274  62.354  66.494
19584DA     SC227249  92.236  62.113  66.546
19584DA     SC327250  92.476  62.115  66.637
19584DA     SC427251  92.424  62.376  66.547
19585DT     BB127252  91.921  62.696  66.521
19585DT     BB227253  91.739  62.389  66.569
19585DT     BB327254  91.727  62.345  66.771
19585DT     SC127255  91.978  62.270  66.778
19585DT     SC227256  91.989  62.057  66.808
19585DT     SC327257  92.234  62.266  66.842
19586DT     BB127258  91.456  62.414  66.796
19586DT     BB227259  91.469  62.074  66.917
19586DT     BB327260  91.504  62.073  67.121
19586DT     SC127261  91.756  62.136  67.085
19586DT     SC227262  91.879  61.967  67.138
19586DT     SC327263  91.982  62.272  67.095
19587DT     BB127264  91.241  62.003  67.194
19587DT     BB227265  91.443  61.747  67.348
19587DT     BB327266  91.496  61.804  67.539
19587DT     SC127267  91.672  61.976  67.447
19587DT     SC227268  91.871  61.905  67.492
19587DT     SC327269  91.792  62.205  67.396
19588DT     BB127270  91.319  61.630  67.674
19588DT     BB227271  91.642  61.544  67.809
19588DT     BB327272  91.680  61.658  67.978
19588DT     SC127273  91.728  61.871  67.834
19588DT     SC227274  91.937  61.920  67.844
19588DT     SC327275  91.703  62.114  67.735
19589DA     BB127276  91.733  61.264  68.120
19589DA     BB227277  92.030  61.456  68.219
19589DA     BB327278  91.986  61.580  68.387
19589DA     SC127279  91.899  61.824  68.215
19589DA     SC227280  91.986  62.052  68.162
19589DA     SC327281  91.744  62.106  68.093
19589DA     SC427282  91.743  61.838  68.179
19590DT     BB127283  92.072  61.554  68.598
19590DT     BB227284  92.307  61.827  68.572
19590DT     BB327285  92.251  61.980  68.698
19590DT     SC127286  92.055  62.051  68.539
19590DT     SC227287  92.101  62.241  68.449
19590DT     SC327288  91.810  62.098  68.451
19591DA     BB127289  92.648  61.895  68.795
19591DA     BB227290  92.624  62.255  68.729
19591DA     BB327291  92.534  62.355  68.895
19591DA     SC127292  92.244  62.328  68.786
19591DA     SC227293  92.067  62.477  68.694
19591DA     SC327294  91.905  62.287  68.754
19591DA     SC427295  92.159  62.199  68.832
19592DT     BB127296  92.652  62.476  68.976
19592DT     BB227297  92.503  62.773  68.835
19592DT     BB327298  92.384  62.866  68.976
19592DT     SC127299  92.197  62.685  68.950
19592DT     SC227300  92.025  62.772  68.854
19592DT     SC327301  92.032  62.488  69.010
19593DA     BB127302  92.649  63.120  68.770
19593DA     BB227303  92.312  63.266  68.761
19593DA     BB327304  92.254  63.329  68.956
19593DA     SC127305  92.122  63.058  69.031
19593DA     SC227306  91.892  62.969  69.070
19593DA     SC327307  92.009  62.778  69.196
19593DA     SC427308  92.213  62.949  69.106
19594DG     BB127309  92.236  63.571  68.768
19594DG     BB227310  91.887  63.547  68.860
19594DG     BB327311  91.862  63.607  69.048
19594DG     SC127312  91.905  63.329  69.169
19594DG     SC227313  91.699  63.165  69.309
19594DG     SC327314  91.968  63.043  69.336
19594DG     SC427315  92.054  63.283  69.206
19595DT     BB127316  91.739  63.762  69.062
19595DT     BB227317  91.445  63.617  69.213
19595DT     BB327318  91.450  63.643  69.418
19595DT     SC127319  91.632  63.455  69.444
19595DT     SC227320  91.545  63.285  69.542
19595DT     SC327321  91.862  63.338  69.500
19596DT     BB127322  91.255  63.825  69.393
19596DT     BB227323  91.127  63.586  69.630
19596DT     BB327324  91.195  63.632  69.821
19596DT     SC127325  91.435  63.541  69.765
19596DT     SC227326  91.470  63.361  69.876
19596DT     SC327327  91.695  63.537  69.724
19597DT     BB127328  90.948  63.726  69.899
19597DT     BB227329  91.029  63.473  70.144
19597DT     BB327330  91.139  63.556  70.298
19597DT     SC127331  91.354  63.569  70.149
19597DT     SC227332  91.500  63.428  70.220
19597DT     SC327333  91.557  63.671  70.014
19598DA     BB127334  90.818  63.368  70.494
19598DA     BB227335  91.127  63.263  70.662
19598DA     BB327336  91.201  63.420  70.786
19598DA     SC127337  91.379  63.544  70.563
19598DA     SC227338  91.622  63.567  70.512
19598DA     SC327339  91.551  63.758  70.357
19598DA     SC427340  91.315  63.661  70.473
19599DA     BB127341  91.191  63.190  71.021
19599DA     BB227342  91.555  63.226  71.047
19599DA     BB327343  91.604  63.402  71.157
19599DA     SC127344  91.617  63.584  70.905
19599DA     SC227345  91.790  63.706  70.773
19599DA     SC327346  91.595  63.847  70.685
19599DA     SC427347  91.482  63.662  70.863
19600DG     BB127348  91.740  63.195  71.341
19600DG     BB227349  92.040  63.364  71.230
19600DG     BB327350  92.067  63.531  71.335
19600DG     SC127351  91.905  63.707  71.144
19600DG     SC227352  92.014  63.926  70.973
19600DG     SC327353  91.718  63.925  70.967
19600DG     SC427354  91.748  63.721  71.167
19601DT     BB127355  92.242  63.539  71.442
19601DT     BB227356  92.437  63.771  71.246
19601DT     BB327357  92.430  63.960  71.332
19601DT     SC127358  92.184  63.997  71.247
19601DT     SC227359  92.184  64.148  71.093
19601DT     SC327360  91.923  64.037  71.251
19602DT     BB127361  92.683  63.916  71.391
19602DT     BB227362  92.683  64.220  71.198
19602DT     BB327363  92.639  64.382  71.319
19602DT     SC127364  92.386  64.315  71.330
19602DT     SC227365  92.269  64.460  71.222
19602DT     SC327366  92.153  64.239  71.429
19603DA     BB127367  92.981  64.458  71.088
19603DA     BB227368  92.760  64.750  71.067
19603DA     BB327369  92.757  64.854  71.254
19603DA     SC127370  92.515  64.694  71.367
19603DA     SC227371  92.276  64.736  71.422
19603DA     SC327372  92.294  64.527  71.570
19603DA     SC427373  92.547  64.563  71.454
19604DG     BB127374  92.859  65.082  71.071
19604DG     BB227375  92.552  65.242  71.175
19604DG     BB327376  92.574  65.319  71.358
19604DG     SC127377  92.482  65.065  71.502
19604DG     SC227378  92.232  65.036  71.663
19604DG     SC327379  92.406  64.798  71.694
19604DG     SC427380  92.590  64.953  71.539
19605DT     BB127381  92.559  65.535  71.391
19605DT     BB227382  92.244  65.567  71.564
19605DT     BB327383  92.276  65.593  71.767
19605DT     SC127384  92.339  65.340  71.797
19605DT     SC227385  92.185  65.242  71.910
19605DT     SC327386  92.481  65.124  71.851
19606DA     BB127387  92.030  65.920  71.668
19606DA     BB227388  91.894  65.772  71.974
19606DA     BB327389  92.014  65.825  72.142
19606DA     SC127390  92.199  65.575  72.118
19606DA     SC227391  92.242  65.365  72.245
19606DA     SC327392  92.466  65.359  72.120
19606DA     SC427393  92.333  65.590  72.031
19607DG     BB127394  91.776  65.987  72.291
19607DG     BB227395  91.811  65.735  72.548
19607DG     BB327396  91.948  65.792  72.680
19607DG     SC127397  92.182  65.663  72.531
19607DG     SC227398  92.344  65.431  72.627
19607DG     SC327399  92.464  65.550  72.384
19607DG     SC427400  92.259  65.747  72.419
19608DA     BB127401  91.747  65.772  72.984
19608DA     BB227402  91.967  65.516  73.127
19608DA     BB327403  92.132  65.608  73.227
19608DA     SC127404  92.315  65.608  72.976
19608DA     SC227405  92.521  65.491  72.897
19608DA     SC327406  92.545  65.687  72.734
19608DA     SC427407  92.313  65.739  72.882
19609DG     BB127408  92.068  65.506  73.540
19609DG     BB227409  92.373  65.314  73.501
19609DG     BB327410  92.527  65.416  73.575
19609DG     SC127411  92.592  65.558  73.312
19609DG     SC227412  92.837  65.519  73.147
19609DG     SC327413  92.678  65.747  73.046
19609DG     SC427414  92.519  65.697  73.279
19610DA     BB127415  92.639  65.163  73.804
19610DA     BB227416  92.952  65.125  73.617
19610DA     BB327417  93.098  65.264  73.688
19610DA     SC127418  93.019  65.487  73.486
19610DA     SC227419  93.117  65.598  73.285
19610DA     SC327420  92.952  65.788  73.334
19610DA     SC427421  92.910  65.595  73.534
19611DT     BB127422  93.285  65.201  73.791
19611DT     BB227423  93.494  65.245  73.500
19611DT     BB327424  93.625  65.402  73.530
19611DT     SC127425  93.434  65.578  73.496
19611DT     SC227426  93.465  65.683  73.311
19611DT     SC327427  93.263  65.772  73.548
19612DT     BB127428  93.801  65.208  73.531
19612DT     BB227429  93.885  65.419  73.250
19612DT     BB327430  93.996  65.582  73.315
19612DT     SC127431  93.782  65.696  73.416
19612DT     SC227432  93.732  65.869  73.299
19612DT     SC327433  93.616  65.798  73.593
19613DT     BB127434  94.164  65.450  73.172
19613DT     BB227435  94.131  65.775  73.017
19613DT     BB327436  94.238  65.916  73.125
19613DT     SC127437  94.057  65.919  73.315
19613DT     SC227438  93.953  66.107  73.312
19613DT     SC327439  93.946  65.890  73.553
19614DA     BB127440  94.284  65.922  72.704
19614DA     BB227441  94.223  66.263  72.825
19614DA     BB327442  94.386  66.329  72.945
19614DA     SC127443  94.264  66.225  73.212
19614DA     SC227444  94.166  66.322  73.420
19614DA     SC327445  94.216  66.093  73.525
19614DA     SC427446  94.304  66.077  73.259
19615DA     BB127447  94.318  66.559  72.720
19615DA     BB227448  94.272  66.782  73.007
19615DA     BB327449  94.458  66.812  73.108
19615DA     SC127450  94.418  66.573  73.304
19615DA     SC227451  94.374  66.539  73.547
19615DA     SC327452  94.464  66.302  73.509
19615DA     SC427453  94.478  66.431  73.260
19616DT     BB127454  94.504  66.984  73.095
19616DT     BB227455  94.447  67.076  73.440
19616DT     BB327456  94.624  67.065  73.546
19616DT     SC127457  94.615  66.802  73.549
19616DT     SC227458  94.576  66.735  73.750
19616DT     SC327459  94.682  66.551  73.505
19617DA     BB127460  94.448  67.440  73.618
19617DA     BB227461  94.552  67.299  73.940
19617DA     BB327462  94.765  67.301  73.956
19617DA     SC127463  94.801  67.017  73.834
19617DA     SC227464  94.870  66.790  73.911
19617DA     SC327465  94.916  66.742  73.663
19617DA     SC427466  94.825  67.007  73.675
19618DT     BB127467  94.843  67.418  74.092
19618DT     BB227468  94.948  67.161  74.323
19618DT     BB327469  95.152  67.130  74.306
19618DT     SC127470  95.120  67.001  74.079
19618DT     SC227471  95.165  66.792  74.109
19618DT     SC327472  95.137  66.942  73.823
19619DT     BB127473  95.197  67.253  74.544
19619DT     BB227474  95.351  66.929  74.582
19619DT     BB327475  95.545  66.934  74.510
19619DT     SC127476  95.461  66.934  74.261
19619DT     SC227477  95.510  66.746  74.169
19619DT     SC327478  95.417  67.015  74.014
19620DA     BB127479  95.583  66.782  74.900
19620DA     BB227480  95.776  66.564  74.678
19620DA     BB327481  95.957  66.660  74.618
19620DA     SC127482  95.834  66.790  74.364
19620DA     SC227483  95.852  66.765  74.117
19620DA     SC327484  95.754  67.001  74.106
19620DA     SC427485  95.773  66.938  74.378
19621DA     BB127486  96.120  66.393  74.736
19621DA     BB227487  96.247  66.336  74.397
19621DA     BB327488  96.410  66.468  74.356
19621DA     SC127489  96.230  66.693  74.239
19621DA     SC227490  96.186  66.797  74.016
19621DA     SC327491  96.094  66.995  74.150
19621DA     SC427492  96.179  66.807  74.340
19622DT     BB127493  96.625  66.405  74.329
19622DT     BB227494  96.634  66.448  73.971
19622DT     BB327495  96.754  66.610  73.922
19622DT     SC127496  96.570  66.779  74.000
19622DT     SC227497  96.489  66.881  73.829
19622DT     SC327498  96.450  66.970  74.138
19623DC     BB127499  96.961  66.451  73.826
19623DC     BB227500  96.876  66.664  73.547
19623DC     BB327501  96.988  66.838  73.554
19623DC     SC127502  96.843  66.933  73.751
19623DC     SC227503  96.726  67.098  73.680
19623DC     SC327504  96.778  67.021  73.991
19624DT     BB127505  97.137  66.754  73.341
19624DT     BB227506  96.999  67.070  73.236
19624DT     BB327507  97.123  67.225  73.294
19624DT     SC127508  97.046  67.203  73.544
19624DT     SC227509  96.929  67.376  73.597
19624DT     SC327510  97.055  67.161  73.804
19625DT     BB127511  97.188  67.256  73.036
19625DT     BB227512  97.062  67.578  73.138
19625DT     BB327513  97.214  67.689  73.225
19625DT     SC127514  97.203  67.546  73.445
19625DT     SC227515  97.124  67.666  73.605
19625DT     SC327516  97.277  67.382  73.638
19626DT     BB127517  97.215  67.846  73.006
19626DT     BB227518  97.162  68.074  73.280
19626DT     BB327519  97.344  68.130  73.362
19626DT     SC127520  97.371  67.897  73.480
19626DT     SC227521  97.352  67.922  73.693
19626DT     SC327522  97.470  67.661  73.542
19627DC     BB127523  97.330  68.383  73.252
19627DC     BB227524  97.379  68.445  73.604
19627DC     BB327525  97.581  68.450  73.647
19627DC     SC127526  97.600  68.189  73.627
19627DC     SC227527  97.635  68.104  73.822
19627DC     SC327528  97.673  67.951  73.539
19628DT     BB127529  97.609  68.735  73.676
19628DT     BB227530  97.739  68.607  73.988
19628DT     BB327531  97.944  68.580  73.973
19628DT     SC127532  97.913  68.365  73.826
19628DT     SC227533  97.973  68.192  73.939
19628DT     SC327534  97.925  68.203  73.618
19629DT     BB127535  98.042  68.813  74.125
19629DT     BB227536  98.197  68.533  74.293
19629DT     BB327537  98.387  68.502  74.217
19629DT     SC127538  98.291  68.397  73.997
19629DT     SC227539  98.334  68.187  73.993
19629DT     SC327540  98.235  68.365  73.741
19630DT     BB127541  98.549  68.610  74.438
19630DT     BB227542  98.661  68.268  74.407
19630DT     BB327543  98.830  68.260  74.288
19630DT     SC127544  98.688  68.298  74.070
19630DT     SC227545  98.686  68.118  73.953
19630DT     SC327546  98.597  68.412  73.851
19631DT     BB127547  98.998  68.205  74.503
19631DT     BB227548  99.031  67.920  74.285
19631DT     BB327549  99.187  67.951  74.151
19631DT     SC127550  99.043  68.120  74.011
19631DT     SC227551  98.995  68.032  73.821
19631DT     SC327552  98.965  68.345  73.898
19632DT     BB127553  99.300  67.758  74.290
19632DT     BB227554  99.271  67.633  73.953
19632DT     BB327555  99.428  67.702  73.838
19632DT     SC127556  99.322  67.942  73.824
19632DT     SC227557  99.255  67.979  73.623
19632DT     SC327558  99.292  68.202  73.855
19633DG     BB127559  99.371  67.298  73.838
19633DG     BB227560  99.377  67.437  73.505
19633DG     BB327561  99.562  67.490  73.456
19633DG     SC127562  99.537  67.775  73.566
19633DG     SC227563  99.540  68.026  73.405
19633DG     SC327564  99.550  68.086  73.695
19633DG     SC427565  99.572  67.802  73.720
19634DT     BB127566  99.608  67.395  73.300
19634DT     BB227567  99.608  67.653  73.048
19634DT     BB327568  99.798  67.732  73.027
19634DT     SC127569  99.775  67.865  73.252
19634DT     SC227570  99.762  68.076  73.209
19634DT     SC327571  99.820  67.944  73.500
19635DT     BB127572  99.770  67.612  72.801
19635DT     BB227573  99.842  67.957  72.722
19635DT     BB327574 100.044  67.994  72.746
19635DT     SC127575 100.023  67.993  73.007
19635DT     SC227576 100.053  68.192  73.082
19635DT     SC327577 100.055  67.921  73.259
19636DA     BB127578  99.901  68.139  72.377
19636DA     BB227579 100.109  68.398  72.532
19636DA     BB327580 100.314  68.338  72.533
19636DA     SC127581 100.297  68.201  72.812
19636DA     SC227582 100.383  68.242  73.043
19636DA     SC327583 100.337  67.992  73.082
19636DA     SC427584 100.263  68.044  72.816
19637DC     BB127585 100.421  68.445  72.426
19637DC     BB227586 100.603  68.613  72.689
19637DC     BB327587 100.787  68.522  72.717
19637DC     SC127588 100.677  68.317  72.838
19637DC     SC227589 100.730  68.321  73.047
19637DC     SC327590 100.601  68.070  72.888
19638DG     BB127591 100.864  68.914  72.632
19638DG     BB227592 101.044  68.807  72.926
19638DG     BB327593 101.202  68.698  72.874
19638DG     SC127594 101.052  68.432  72.877
19638DG     SC227595 101.098  68.207  73.068
19638DG     SC327596 100.913  68.125  72.852
19638DG     SC427597 100.977  68.383  72.744
19639DA     BB127598 101.418  68.903  73.064
19639DA     BB227599 101.530  68.614  73.261
19639DA     BB327600 101.671  68.499  73.150
19639DA     SC127601 101.455  68.314  73.022
19639DA     SC227602 101.383  68.076  73.039
19639DA     SC327603 101.274  68.114  72.810
19639DA     SC427604 101.395  68.358  72.879
19640DG     BB127605 101.910  68.549  73.362
19640DG     BB227606 101.895  68.191  73.409
19640DG     BB327607 102.013  68.100  73.277
19640DG     SC127608 101.795  68.074  73.064
19640DG     SC227609 101.674  67.818  72.967
19640DG     SC327610 101.587  68.046  72.800
19640DG     SC427611 101.774  68.193  72.959
19641DT     BB127612 102.242  67.957  73.301
19641DT     BB227613 102.113  67.625  73.247
19641DT     BB327614 102.184  67.549  73.068
19641DT     SC127615 102.022  67.702  72.930
19641DT     SC227616 101.871  67.580  72.836
19641DT     SC327617 101.938  67.888  72.763
19642DT     BB127618 102.392  67.360  73.161
19642DT     BB227619 102.174  67.153  72.962
19642DT     BB327620 102.248  67.137  72.769
19642DT     SC127621 102.171  67.382  72.712
19642DT     SC227622 102.008  67.374  72.571
19642DT     SC327623 102.183  67.637  72.645
19643DT     BB127624 102.339  66.871  72.793
19643DT     BB227625 102.103  66.860  72.521
19643DT     BB327626 102.202  66.890  72.341
19643DT     SC127627 102.229  67.146  72.389
19643DT     SC227628 102.103  67.258  72.255
19643DT     SC327629 102.343  67.379  72.436
19644DA     BB127630 101.967  66.545  72.312
19644DA     BB227631 101.889  66.760  72.026
19644DA     BB327632 102.049  66.757  71.885
19644DA     SC127633 102.198  66.999  72.011
19644DA     SC227634 102.247  67.237  71.952
19644DA     SC327635 102.435  67.219  72.126
19644DA     SC427636 102.310  66.968  72.122
19645DG     BB127637 101.810  66.659  71.721
19645DG     BB227638 101.872  66.967  71.541
19645DG     BB327639 102.027  66.944  71.419
19645DG     SC127640 102.234  67.032  71.627
19645DG     SC227641 102.400  67.280  71.615
19645DG     SC327642 102.490  67.104  71.835
19645DG     SC427643 102.298  66.922  71.724
19646DT     BB127644 101.983  66.973  71.225
19646DT     BB227645 102.140  67.290  71.155
19646DT     BB327646 102.325  67.260  71.068
19646DT     SC127647 102.430  67.188  71.298
19646DT     SC227648 102.567  67.340  71.364
19646DT     SC327649 102.544  67.039  71.483
19647DA     BB127650 102.112  67.531  70.828
19647DA     BB227651 102.449  67.666  70.880
19647DA     BB327652 102.591  67.553  70.769
19647DA     SC127653 102.649  67.354  71.000
19647DA     SC227654 102.837  67.301  71.156
19647DA     SC327655 102.721  67.074  71.186
19647DA     SC427656 102.563  67.218  71.005
19648DA     BB127657 102.680  67.845  70.636
19648DA     BB227658 103.015  67.790  70.774
19648DA     BB327659 103.122  67.649  70.655
19648DA     SC127660 103.027  67.401  70.817
19648DA     SC227661 103.126  67.234  70.973
19648DA     SC327662 102.923  67.089  70.913
19648DA     SC427663 102.895  67.326  70.766
19649DT     BB127664 103.304  67.695  70.525
19649DT     BB227665 103.548  67.541  70.742
19649DT     BB327666 103.622  67.370  70.653
19649DT     SC127667 103.401  67.238  70.705
19649DT     SC227668 103.440  67.089  70.855
19649DT     SC327669 103.178  67.104  70.666
19650DA     BB127670 103.972  67.588  70.735
19650DA     BB227671 104.018  67.252  70.874
19650DA     BB327672 104.066  67.114  70.719
19650DA     SC127673 103.770  67.037  70.664
19650DA     SC227674 103.621  66.839  70.696
19650DA     SC327675 103.472  66.947  70.517
19650DA     SC427676 103.691  67.119  70.550
19651DA     BB127677 104.323  67.054  70.911
19651DA     BB227678 104.189  66.715  70.952
19651DA     BB327679 104.234  66.596  70.780
19651DA     SC127680 103.972  66.669  70.630
19651DA     SC227681 103.760  66.556  70.562
19651DA     SC327682 103.737  66.745  70.391
19651DA     SC427683 103.976  66.795  70.530
19652DA     BB127684 104.331  66.432  71.042
19652DA     BB227685 104.086  66.179  70.939
19652DA     BB327686 104.152  66.080  70.762
19652DA     SC127687 104.010  66.279  70.569
19652DA     SC227688 103.818  66.277  70.411
19652DA     SC327689 103.929  66.483  70.305
19652DA     SC427690 104.096  66.405  70.516
19653DA     BB127691 104.071  65.854  70.982
19653DA     BB227692 103.827  65.740  70.732
19653DA     BB327693 103.927  65.655  70.564
19653DA     SC127694 103.944  65.923  70.408
19653DA     SC227695 103.843  66.025  70.204
19653DA     SC327696 104.043  66.185  70.208
19653DA     SC427697 104.077  66.012  70.427
19654DT     BB127698 103.882  65.485  70.556
19654DT     BB227699 103.669  65.507  70.265
19654DT     BB327700 103.777  65.460  70.095
19654DT     SC127701 103.901  65.692  70.100
19654DT     SC227702 103.833  65.812  69.934
19654DT     SC327703 104.095  65.869  70.117
19655DC     BB127704 103.638  65.232  70.085
19655DC     BB227705 103.584  65.387  69.764
19655DC     BB327706 103.741  65.342  69.637
19655DC     SC127707 103.901  65.510  69.761
19655DC     SC227708 103.942  65.677  69.632
19655DC     SC327709 104.104  65.600  69.902
19656DG     BB127710 103.406  65.202  69.449
19656DG     BB227711 103.601  65.414  69.229
19656DG     BB327712 103.756  65.313  69.157
19656DG     SC127713 103.944  65.389  69.386
19656DG     SC227714 104.186  65.562  69.363
19656DG     SC327715 104.171  65.436  69.631
19656DG     SC427716 103.948  65.297  69.517
19657DA     BB127717 103.659  65.401  68.833
19657DA     BB227718 103.978  65.574  68.782
19657DA     BB327719 104.133  65.433  68.740
19657DA     SC127720 104.214  65.397  69.038
19657DA     SC227721 104.406  65.454  69.186
19657DA     SC327722 104.317  65.270  69.340
19657DA     SC427723 104.143  65.277  69.120
19658DT     BB127724 104.223  65.432  68.554
19658DT     BB227725 104.530  65.590  68.658
19658DT     BB327726 104.683  65.451  68.663
19658DT     SC127727 104.590  65.344  68.884
19658DT     SC227728 104.724  65.388  69.046
19658DT     SC327729 104.487  65.167  69.050
19659DT     BB127730 104.782  65.578  68.451
19659DT     BB227731 105.040  65.596  68.703
19659DT     BB327732 105.154  65.424  68.700
19659DT     SC127733 104.963  65.287  68.817
19659DT     SC227734 105.024  65.236  69.017
19659DT     SC327735 104.775  65.105  68.855
19660DT     BB127736 105.328  65.594  68.615
19660DT     BB227737 105.468  65.450  68.915
19660DT     BB327738 105.548  65.263  68.873
19660DT     SC127739 105.308  65.156  68.859
19660DT     SC227740 105.279  65.025  69.026
19660DT     SC327741 105.096  65.036  68.759
19661DT     BB127742 105.758  65.400  68.929
19661DT     BB227743 105.758  65.120  69.156
19661DT     BB327744 105.819  64.949  69.057
19661DT     SC127745 105.589  64.928  68.934
19661DT     SC227746 105.482  64.757  69.010
19661DT     SC327747 105.411  64.920  68.739
19662DT     BB127748 106.031  64.977  69.208
19662DT     BB227749 105.914  64.642  69.272
19662DT     BB327750 105.976  64.515  69.121
19662DT     SC127751 105.798  64.613  68.955
19662DT     SC227752 105.647  64.465  68.916
19662DT     SC327753 105.695  64.735  68.745
19663DG     BB127754 106.131  64.355  69.464
19663DG     BB227755 105.961  64.103  69.268
19663DG     BB327756 106.077  64.044  69.118
19663DG     SC127757 105.973  64.255  68.922
19663DG     SC227758 105.813  64.202  68.676
19663DG     SC327759 105.896  64.486  68.688
19663DG     SC427760 106.044  64.398  68.917
19664DA     BB127761 106.049  63.703  69.209
19664DA     BB227762 105.904  63.620  68.882
19664DA     BB327763 106.058  63.604  68.735
19664DA     SC127764 106.044  63.904  68.652
19664DA     SC227765 105.970  64.037  68.455
19664DA     SC327766 106.118  64.223  68.551
19664DA     SC427767 106.142  64.006  68.727
19665DA     BB127768 105.944  63.297  68.669
19665DA     BB227769 105.868  63.412  68.330
19665DA     BB327770 106.045  63.412  68.210
19665DA     SC127771 106.122  63.705  68.279
19665DA     SC227772 106.132  63.926  68.163
19665DA     SC327773 106.291  63.995  68.351
19665DA     SC427774 106.220  63.729  68.404
19666DT     BB127775 106.073  63.277  68.042
19666DT     BB227776 106.018  63.522  67.784
19666DT     BB327777 106.197  63.564  67.687
19666DT     SC127778 106.283  63.706  67.890
19666DT     SC227779 106.290  63.913  67.835
19666DT     SC327780 106.431  63.781  68.095
19667DT     BB127781 106.106  63.431  67.469
19667DT     BB227782 106.182  63.764  67.350
19667DT     BB327783 106.381  63.776  67.295
19667DT     SC127784 106.457  63.781  67.546
19667DT     SC227785 106.535  63.976  67.593
19667DT     SC327786 106.573  63.709  67.772
19668DA     BB127787 106.137  63.925  66.989
19668DA     BB227788 106.405  64.167  67.050
19668DA     BB327789 106.592  64.091  66.979
19668DA     SC127790 106.667  63.957  67.250
19668DA     SC227791 106.833  63.991  67.433
19668DA     SC327792 106.786  63.746  67.493
19668DA     SC427793 106.625  63.803  67.271
19669DA     BB127794 106.579  64.384  66.834
19669DA     BB227795 106.894  64.460  67.007
19669DA     BB327796 107.055  64.350  66.919
19669DA     SC127797 107.023  64.106  67.109
19669DA     SC227798 107.149  64.000  67.297
19669DA     SC327799 107.012  63.790  67.244
19669DA     SC427800 106.929  63.985  67.060
19670DT     BB127801 107.199  64.451  66.821
19670DT     BB227802 107.464  64.407  67.062
19670DT     BB327803 107.597  64.263  66.995
19670DT     SC127804 107.428  64.070  67.052
19670DT     SC227805 107.503  63.957  67.219
19670DT     SC327806 107.264  63.866  67.020
19671DC     BB127807 107.804  64.441  66.917
19671DC     BB227808 107.973  64.211  67.138
19671DC     BB327809 108.051  64.053  67.030
19671DC     SC127810 107.814  63.947  66.998
19671DC     SC227811 107.801  63.765  67.113
19671DC     SC327812 107.595  63.858  66.880
19672DA     BB127813 108.395  64.192  67.232
19672DA     BB227814 108.379  63.829  67.282
19672DA     BB327815 108.443  63.727  67.105
19672DA     SC127816 108.157  63.711  66.983
19672DA     SC227817 107.987  63.535  66.935
19672DA     SC327818 107.888  63.704  66.770
19672DA     SC427819 108.112  63.829  66.884
19673DT     BB127820 108.630  63.605  67.087
19673DT     BB227821 108.466  63.284  67.098
19673DT     BB327822 108.476  63.193  66.913
19673DT     SC127823 108.291  63.353  66.816
19673DT     SC227824 108.111  63.241  66.780
19673DT     SC327825 108.177  63.538  66.667
19674DG     BB127826 108.667  62.929  67.159
19674DG     BB227827 108.398  62.768  66.979
19674DG     BB327828 108.458  62.721  66.795
19674DG     SC127829 108.371  62.988  66.672
19674DG     SC227830 108.152  63.027  66.473
19674DG     SC327831 108.307  63.276  66.509
19674DG     SC427832 108.474  63.110  66.672
19675DA     BB127833 108.345  62.403  66.867
19675DA     BB227834 108.102  62.429  66.594
19675DA     BB327835 108.199  62.402  66.405
19675DA     SC127836 108.259  62.705  66.365
19675DA     SC227837 108.182  62.890  66.217
19675DA     SC327838 108.401  63.007  66.283
19675DA     SC427839 108.401  62.760  66.417
19676DT     BB127840 108.142  62.247  66.310
19676DT     BB227841 107.938  62.420  66.068
19676DT     BB327842 108.040  62.434  65.888
19676DT     SC127843 108.197  62.621  65.982
19676DT     SC227844 108.151  62.808  65.886
19676DT     SC327845 108.416  62.745  66.060
19677DT     BB127846 107.858  62.263  65.805
19677DT     BB227847 107.824  62.553  65.592
19677DT     BB327848 107.966  62.547  65.441
19677DT     SC127849 108.157  62.614  65.608
19677DT     SC227850 108.224  62.813  65.563
19677DT     SC327851 108.378  62.599  65.752
19678DT     BB127852 107.756  62.506  65.291
19678DT     BB227853 107.913  62.804  65.161
19678DT     BB327854 108.073  62.753  65.040
19678DT     SC127855 108.220  62.690  65.248
19678DT     SC227856 108.378  62.835  65.269
19678DT     SC327857 108.364  62.546  65.416
19679DA     BB127858 107.818  63.032  64.855
19679DA     BB227859 108.164  63.149  64.822
19679DA     BB327860 108.273  63.023  64.689
19679DA     SC127861 108.371  62.830  64.912
19679DA     SC227862 108.586  62.773  65.025
19679DA     SC327863 108.469  62.555  65.093
19679DA     SC427864 108.282  62.700  64.943
19680DA     BB127865 108.324  63.327  64.579
19680DA     BB227866 108.680  63.259  64.635
19680DA     BB327867 108.751  63.115  64.494
19680DA     SC127868 108.688  62.870  64.676
19680DA     SC227869 108.814  62.699  64.805
19680DA     SC327870 108.598  62.561  64.796
19680DA     SC427871 108.544  62.800  64.658
19681DC     BB127872 108.878  63.185  64.379
19681DC     BB227873 109.165  63.016  64.517
19681DC     BB327874 109.211  62.850  64.403
19681DC     SC127875 109.007  62.717  64.502
19681DC     SC227876 109.079  62.559  64.628
19681DC     SC327877 108.778  62.587  64.513
19682DA     BB127878 109.562  63.076  64.451
19682DA     BB227879 109.641  62.726  64.524
19682DA     BB327880 109.641  62.610  64.345
19682DA     SC127881 109.340  62.534  64.366
19682DA     SC227882 109.204  62.330  64.411
19682DA     SC327883 109.012  62.457  64.298
19682DA     SC427884 109.234  62.629  64.291
19683DG     BB127885 109.940  62.551  64.414
19683DG     BB227886 109.822  62.210  64.438
19683DG     BB327887 109.813  62.129  64.257
19683DG     SC127888 109.524  62.217  64.206
19683DG     SC227889 109.288  62.036  64.180
19683DG     SC327890 109.217  62.314  64.107
19683DG     SC427891 109.498  62.360  64.139
19684DT     BB127892 109.942  61.948  64.186
19684DT     BB227893 109.697  61.683  64.185
19684DT     BB327894 109.644  61.636  63.991
19684DT     SC127895 109.499  61.854  63.970
19684DT     SC227896 109.291  61.800  63.961
19684DT     SC327897 109.417  62.090  63.886
19685DT     BB127898 109.786  61.397  63.989
19685DT     BB227899 109.449  61.299  63.904
19685DT     BB327900 109.423  61.308  63.698
19685DT     SC127901 109.413  61.571  63.703
19685DT     SC227902 109.213  61.635  63.657
19685DT     SC327903 109.477  61.822  63.658
19686DC     BB127904 109.425  61.031  63.665
19686DC     BB227905 109.110  61.134  63.523
19686DC     BB327906 109.134  61.176  63.321
19686DC     SC127907 109.255  61.403  63.375
19686DC     SC227908 109.128  61.567  63.319
19686DC     SC327909 109.444  61.586  63.387
19687DA     BB127910 108.816  60.904  63.343
19687DA     BB227911 108.706  61.186  63.137
19687DA     BB327912 108.796  61.177  62.944
19687DA     SC127913 109.044  61.348  63.025
19687DA     SC227914 109.135  61.575  62.976
19687DA     SC327915 109.359  61.479  63.057
19687DA     SC427916 109.174  61.269  63.077
19688DA     BB127917 108.483  61.197  62.852
19688DA     BB227918 108.572  61.513  62.688
19688DA     BB327919 108.677  61.475  62.506
19688DA     SC127920 108.958  61.479  62.640
19688DA     SC227921 109.160  61.626  62.641
19688DA     SC327922 109.285  61.418  62.726
19688DA     SC427923 109.018  61.339  62.690
19689DT     BB127924 108.587  61.529  62.339
19689DT     BB227925 108.789  61.820  62.274
19689DT     BB327926 108.925  61.779  62.122
19689DT     SC127927 109.073  61.635  62.283
19689DT     SC227928 109.259  61.737  62.321
19689DT     SC327929 109.198  61.426  62.385
19690DA     BB127930 108.720  62.135  62.038
19690DA     BB227931 109.079  62.197  61.997
19690DA     BB327932 109.152  62.099  61.822
19690DA     SC127933 109.226  61.835  61.969
19690DA     SC227934 109.432  61.712  62.035
19690DA     SC327935 109.280  61.507  62.054
19690DA     SC427936 109.115  61.719  61.974
19691DT     BB127937 109.213  62.219  61.688
19691DT     BB227938 109.566  62.157  61.731
19691DT     BB327939 109.634  62.029  61.583
19691DT     SC127940 109.520  61.823  61.698
19691DT     SC227941 109.672  61.693  61.777
19691DT     SC327942 109.360  61.617  61.735
19692DA     BB127943 109.885  62.366  61.599
19692DA     BB227944 110.096  62.066  61.596
19692DA     BB327945 110.092  61.975  61.403
19692DA     SC127946 109.851  61.790  61.469
19692DA     SC227947 109.809  61.546  61.504
19692DA     SC327948 109.564  61.602  61.454
19692DA     SC427949 109.703  61.844  61.433
19693DT     BB127950 110.262  61.973  61.289
19693DT     BB227951 110.339  61.623  61.328
19693DT     BB327952 110.292  61.521  61.154
19693DT     SC127953 110.035  61.534  61.205
19693DT     SC227954 109.962  61.338  61.252
19693DT     SC327955 109.780  61.596  61.179
19694DG     BB127956 110.693  61.450  61.200
19694DG     BB227957 110.513  61.140  61.155
19694DG     BB327958 110.477  61.110  60.961
19694DG     SC127959 110.209  61.258  60.962
19694DG     SC227960 109.941  61.134  60.918
19694DG     SC327961 109.922  61.429  60.922
19694DG     SC427962 110.207  61.416  60.935
19695DT     BB127963 110.564  60.931  60.832
19695DT     BB227964 110.271  60.723  60.805
19695DT     BB327965 110.196  60.731  60.612
19695DT     SC127966 110.098  60.971  60.652
19695DT     SC227967 109.883  60.960  60.657
19695DT     SC327968 110.059  61.231  60.628
19696DC     BB127969 110.283  60.476  60.557
19696DC     BB227970 109.927  60.464  60.501
19696DC     BB327971 109.885  60.516  60.305
19696DC     SC127972 109.932  60.769  60.353
19696DC     SC227973 109.747  60.879  60.344
19696DC     SC327974 110.045  61.007  60.340
19697DT     BB127975 109.819  60.260  60.268
19697DT     BB227976 109.521  60.446  60.186
19697DT     BB327977 109.529  60.509  59.989
19697DT     SC127978 109.705  60.695  60.046
19697DT     SC227979 109.613  60.888  60.027
19697DT     SC327980 109.931  60.830  60.049
19698DT     BB127981 109.336  60.336  59.969
19698DT     BB227982 109.198  60.651  59.859
19698DT     BB327983 109.253  60.688  59.663
19698DT     SC127984 109.498  60.749  59.735
19698DT     SC227985 109.530  60.960  59.706
19698DT     SC327986 109.761  60.737  59.757
19699DA     BB127987 108.845  60.752  59.747
19699DA     BB227988 108.973  61.036  59.554
19699DA     BB327989 109.023  60.975  59.356
19699DA     SC127990 109.318  60.905  59.426
19699DA     SC227991 109.546  60.994  59.377
19699DA     SC327992 109.630  60.761  59.443
19699DA     SC427993 109.350  60.753  59.469
19700DC     BB127994 108.918  61.062  59.250
19700DC     BB227995 109.162  61.278  59.096
19700DC     BB327996 109.234  61.190  58.923
19700DC     SC127997 109.379  61.020  59.059
19700DC     SC227998 109.588  61.067  59.034
19700DC     SC327999 109.469  60.791  59.155
19701DT     BB128000 109.094  61.370  58.779
19701DT     BB228001 109.428  61.395  58.646
19701DT     BB328002 109.458  61.250  58.501
19701DT     SC128003 109.477  61.061  58.682
19701DT     SC228004 109.679  60.989  58.690
19701DT     SC328005 109.421  60.843  58.820
19702DT     BB128006 109.436  61.420  58.273
19702DT     BB228007 109.748  61.247  58.216
19702DT     BB328008 109.715  61.075  58.107
19702DT     SC128009 109.614  60.953  58.316
19702DT     SC228010 109.748  60.798  58.380
19702DT     SC328011 109.439  60.831  58.471
19703DG     BB128012 109.954  61.260  57.819
19703DG     BB228013 110.077  60.926  57.883
19703DG     BB328014 109.979  60.794  57.769
19703DG     SC128015 109.758  60.745  57.975
19703DG     SC228016 109.709  60.489  58.121
19703DG     SC328017 109.488  60.681  58.168
19703DG     SC428018 109.628  60.838  57.973
19704DA     BB128019 110.265  60.645  57.607
19704DA     BB228020 110.192  60.319  57.760
19704DA     BB328021 110.053  60.211  57.640
19704DA     SC128022 109.802  60.323  57.787
19704DA     SC228023 109.625  60.238  57.940
19704DA     SC328024 109.490  60.442  57.864
19704DA     SC428025 109.734  60.455  57.726
19705DT     BB128026 110.099  60.018  57.526
19705DT     BB228027 109.936  59.801  57.763
19705DT     BB328028 109.767  59.717  57.677
19705DT     SC128029 109.635  59.942  57.698
19705DT     SC228030 109.480  59.920  57.846
19705DT     SC328031 109.503  60.160  57.629
19706DG     BB128032 110.011  59.416  57.800
19706DG     BB228033 109.680  59.386  57.943
19706DG     BB328034 109.555  59.308  57.809
19706DG     SC128035 109.473  59.580  57.693
19706DG     SC228036 109.202  59.703  57.713
19706DG     SC328037 109.375  59.858  57.529
19706DG     SC428038 109.558  59.642  57.573
19707DT     BB128039 109.474  59.139  57.872
19707DT     BB228040 109.138  59.243  57.952
19707DT     BB328041 109.011  59.198  57.795
19707DT     SC128042 109.105  59.396  57.652
19707DT     SC228043 108.954  59.549  57.634
19707DT     SC328044 109.224  59.526  57.456
19708DC     BB128045 108.924  59.034  57.976
19708DC     BB228046 108.640  59.235  57.881
19708DC     BB328047 108.562  59.168  57.702
19708DC     SC128048 108.761  59.273  57.567
19708DC     SC228049 108.688  59.439  57.451
19708DC     SC328050 108.974  59.291  57.412
19709DT     BB128051 108.367  59.098  57.859
19709DT     BB228052 108.216  59.302  57.603
19709DT     BB328053 108.189  59.190  57.430
19709DT     SC128054 108.445  59.201  57.374
19709DT     SC228055 108.475  59.325  57.201
19709DT     SC328056 108.693  59.122  57.330
19710DA     BB128057 107.818  59.370  57.517
19710DA     BB228058 107.881  59.411  57.158
19710DA     BB328059 107.860  59.225  57.057
19710DA     SC128060 108.160  59.146  57.089
19710DA     SC228061 108.360  59.120  56.943
19710DA     SC328062 108.455  58.977  57.133
19710DA     SC428063 108.201  59.059  57.218
19711DT     BB128064 107.692  59.161  56.911
19711DT     BB228065 107.888  59.164  56.608
19711DT     BB328066 107.916  58.970  56.541
19711DT     SC128067 108.093  58.923  56.729
19711DT     SC228068 108.288  58.904  56.640
19711DT     SC328069 108.207  58.815  56.941
19712DT     BB128070 107.718  58.943  56.314
19712DT     BB228071 108.028  58.844  56.158
19712DT     BB328072 108.046  58.638  56.161
19712DT     SC128073 108.103  58.638  56.417
19712DT     SC228074 108.309  58.582  56.444
19712DT     SC328075 108.082  58.591  56.676
19713DA     BB128076 108.080  58.687  55.740
19713DA     BB228077 108.364  58.478  55.842
19713DA     BB328078 108.302  58.274  55.862
19713DA     SC128079 108.229  58.301  56.163
19713DA     SC228080 108.317  58.220  56.382
19713DA     SC328081 108.083  58.272  56.472
19713DA     SC428082 108.077  58.338  56.200
19714DA     BB128083 108.539  58.187  55.644
19714DA     BB228084 108.702  58.000  55.914
19714DA     BB328085 108.613  57.807  55.934
19714DA     SC128086 108.400  57.899  56.142
19714DA     SC228087 108.353  57.865  56.384
19714DA     SC328088 108.114  57.940  56.326
19714DA     SC428089 108.257  57.946  56.085
19715DA     BB128090 108.924  57.711  55.900
19715DA     BB228091 108.899  57.573  56.239
19715DA     BB328092 108.794  57.387  56.237
19715DA     SC128093 108.515  57.516  56.282
19715DA     SC228094 108.344  57.527  56.463
19715DA     SC328095 108.180  57.592  56.276
19715DA     SC428096 108.429  57.554  56.151
19716DT     BB128097 108.900  57.230  56.288
19716DT     BB228098 108.756  57.187  56.616
19716DT     BB328099 108.623  57.028  56.614
19716DT     SC128100 108.443  57.171  56.486
19716DT     SC228101 108.278  57.212  56.617
19716DT     SC328102 108.279  57.249  56.295
19717DC     BB128103 108.802  56.890  56.760
19717DC     BB228104 108.500  56.887  56.958
19717DC     BB328105 108.378  56.730  56.899
19717DC     SC128106 108.308  56.857  56.681
19717DC     SC228107 108.101  56.915  56.695
19717DC     SC328108 108.279  56.913  56.424
19718DT     BB128109 108.438  56.598  57.130
19718DT     BB228110 108.077  56.619  57.129
19718DT     BB328111 107.997  56.459  57.025
19718DT     SC128112 108.066  56.564  56.795
19718DT     SC228113 107.889  56.626  56.689
19718DT     SC328114 108.186  56.594  56.562
19719DA     BB128115 107.804  56.455  57.398
19719DA     BB228116 107.545  56.426  57.139
19719DA     BB328117 107.545  56.229  57.056
19719DA     SC128118 107.747  56.298  56.830
19719DA     SC228119 107.744  56.323  56.582
19719DA     SC328120 107.998  56.289  56.596
19719DA     SC428121 107.903  56.273  56.859
19720DT     BB128122 107.381  56.087  57.085
19720DT     BB228123 107.245  56.115  56.752
19720DT     BB328124 107.281  55.941  56.646
19720DT     SC128125 107.534  56.003  56.615
19720DT     SC228126 107.572  56.050  56.408
19720DT     SC328127 107.797  55.991  56.634
19721DC     BB128128 107.016  55.853  56.659
19721DC     BB228129 107.087  55.866  56.305
19721DC     BB328130 107.160  55.683  56.241
19721DC     SC128131 107.393  55.727  56.353
19721DC     SC228132 107.541  55.756  56.200
19721DC     SC328133 107.600  55.699  56.514
19722DT     BB128134 106.928  55.651  56.113
19722DT     BB228135 107.181  55.630  55.856
19722DT     BB328136 107.255  55.438  55.846
19722DT     SC128137 107.393  55.470  56.066
19722DT     SC228138 107.603  55.475  56.020
19722DT     SC328139 107.475  55.437  56.315
19723DA     BB128140 107.147  55.574  55.464
19723DA     BB228141 107.484  55.432  55.444
19723DA     BB328142 107.476  55.219  55.464
19723DA     SC128143 107.509  55.223  55.774
19723DA     SC228144 107.682  55.160  55.942
19723DA     SC328145 107.488  55.157  56.110
19723DA     SC428146 107.375  55.225  55.863
19724DT     BB128147 107.531  55.124  55.309
19724DT     BB228148 107.849  55.009  55.434
19724DT     BB328149 107.833  54.811  55.494
19724DT     SC128150 107.702  54.879  55.711
19724DT     SC228151 107.827  54.845  55.883
19724DT     SC328152 107.507  54.899  55.887
19725DA     BB128153 108.162  54.835  55.233
19725DA     BB228154 108.268  54.650  55.532
19725DA     BB328155 108.181  54.455  55.533
19725DA     SC128156 107.928  54.542  55.691
19725DA     SC228157 107.831  54.507  55.918
19725DA     SC328158 107.608  54.577  55.812
19725DA     SC428159 107.799  54.586  55.606
19726DA     BB128160 108.494  54.348  55.563
19726DA     BB228161 108.395  54.201  55.884
19726DA     BB328162 108.287  54.020  55.853
19726DA     SC128163 108.009  54.159  55.845
19726DA     SC228164 107.804  54.171  55.987
19726DA     SC328165 107.685  54.248  55.773
19726DA     SC428166 107.952  54.204  55.701
19727DT     BB128167 108.363  53.823  55.909
19727DT     BB228168 108.153  53.781  56.199
19727DT     BB328169 108.010  53.636  56.162
19727DT     SC128170 107.873  53.800  56.009
19727DT     SC228171 107.689  53.853  56.108
19727DT     SC328172 107.758  53.902  55.795
19728DA     BB128173 108.199  53.520  56.517
19728DA     BB228174 107.837  53.520  56.577
19728DA     BB328175 107.747  53.349  56.486
19728DA     SC128176 107.689  53.494  56.217
19728DA     SC228177 107.491  53.577  56.090
19728DA     SC328178 107.645  53.572  55.885
19728DA     SC428179 107.800  53.483  56.101
19729DT     BB128180 107.667  53.222  56.609
19729DT     BB228181 107.325  53.317  56.548
19729DT     BB328182 107.233  53.176  56.427
19729DT     SC128183 107.360  53.262  56.215
19729DT     SC228184 107.221  53.358  56.082
19729DT     SC328185 107.522  53.264  56.007
19730DC     BB128186 107.103  53.138  56.648
19730DC     BB228187 106.856  53.232  56.403
19730DC     BB328188 106.809  53.069  56.284
19730DC     SC128189 107.036  53.088  56.154
19730DC     SC228190 106.998  53.153  55.952
19730DC     SC328191 107.275  53.026  56.062
19731DC     BB128192 106.593  53.114  56.413
19731DC     BB228193 106.508  53.135  56.063
19731DC     BB328194 106.496  52.945  55.981
19731DC     SC128195 106.758  52.921  55.980
19731DC     SC228196 106.829  52.924  55.778
19731DC     SC328197 106.998  52.830  56.037
19732DG     BB128198 106.166  53.180  55.918
19732DG     BB228199 106.288  53.027  55.613
19732DG     BB328200 106.250  52.832  55.616
19732DG     SC128201 106.515  52.757  55.751
19732DG     SC228202 106.737  52.602  55.626
19732DG     SC328203 106.786  52.642  55.915
19732DG     SC428204 106.523  52.755  55.911
19733DA     BB128205 106.113  52.891  55.302
19733DA     BB228206 106.338  52.639  55.159
19733DA     BB328207 106.277  52.443  55.218
19733DA     SC128208 106.453  52.438  55.474
19733DA     SC228209 106.657  52.319  55.555
19733DA     SC328210 106.577  52.385  55.789
19733DA     SC428211 106.386  52.487  55.611
19734DT     BB128212 106.204  52.313  55.077
19734DT     BB228213 106.489  52.092  55.066
19734DT     BB328214 106.446  51.916  55.167
19734DT     SC128215 106.468  52.035  55.400
19734DT     SC228216 106.644  51.963  55.500
19734DT     SC328217 106.403  52.131  55.637
19735DC     BB128218 106.423  51.769  54.934
19735DC     BB228219 106.672  51.592  55.125
19735DC     BB328220 106.581  51.451  55.246
19735DC     SC128221 106.497  51.637  55.411
19735DC     SC228222 106.604  51.621  55.597
19735DC     SC328223 106.333  51.792  55.548
19736DT     BB128224 106.672  51.247  55.089
19736DT     BB228225 106.800  51.171  55.417
19736DT     BB328226 106.660  51.061  55.524
19736DT     SC128227 106.512  51.273  55.563
19736DT     SC228228 106.519  51.328  55.771
19736DT     SC328229 106.305  51.437  55.553
19737DA     BB128230 107.031  50.865  55.541
19737DA     BB228231 106.897  50.887  55.882
19737DA     BB328232 106.733  50.754  55.906
19737DA     SC128233 106.519  50.964  55.821
19737DA     SC228234 106.335  51.094  55.929
19737DA     SC328235 106.244  51.122  55.691
19737DA     SC428236 106.477  50.969  55.666
19738DA     BB128237 106.926  50.674  56.158
19738DA     BB228238 106.643  50.762  56.374
19738DA     BB328239 106.489  50.615  56.358
19738DA     SC128240 106.341  50.760  56.126
19738DA     SC228241 106.127  50.883  56.092
19738DA     SC328242 106.162  50.835  55.842
19738DA     SC428243 106.380  50.719  55.975
19739DC     BB128244 106.454  50.511  56.518
19739DC     BB228245 106.135  50.656  56.605
19739DC     BB328246 105.982  50.530  56.547
19739DC     SC128247 106.013  50.594  56.295
19739DC     SC228248 105.844  50.710  56.229
19739DC     SC328249 106.065  50.571  56.037
19740DG     BB128250 105.927  50.566  56.952
19740DG     BB228251 105.617  50.626  56.775
19740DG     BB328252 105.534  50.453  56.722
19740DG     SC128253 105.678  50.439  56.452
19740DG     SC228254 105.548  50.457  56.184
19740DG     SC328255 105.833  50.381  56.158
19740DG     SC428256 105.822  50.369  56.444
19741DG     BB128257 105.234  50.474  56.896
19741DG     BB228258 105.065  50.465  56.576
19741DG     BB328259 105.026  50.277  56.525
19741DG     SC128260 105.291  50.236  56.378
19741DG     SC228261 105.324  50.194  56.084
19741DG     SC328262 105.580  50.150  56.226
19741DG     SC428263 105.419  50.184  56.460
19742DA     BB128264 104.667  50.308  56.479
19742DA     BB228265 104.698  50.222  56.123
19742DA     BB328266 104.698  50.010  56.098
19742DA     SC128267 105.008  49.984  56.119
19742DA     SC228268 105.199  49.929  55.968
19742DA     SC328269 105.327  49.876  56.184
19742DA     SC428270 105.070  49.955  56.264
19743DT     BB128271 104.532  49.878  55.995
19743DT     BB228272 104.715  49.830  55.688
19743DT     BB328273 104.770  49.632  55.669
19743DT     SC128274 104.958  49.657  55.850
19743DT     SC228275 105.151  49.643  55.755
19743DT     SC328276 105.093  49.623  56.073
19744DA     BB128277 104.573  49.739  55.316
19744DA     BB228278 104.896  49.592  55.225
19744DA     BB328279 104.891  49.380  55.249
19744DA     SC128280 104.990  49.387  55.543
19744DA     SC228281 105.195  49.322  55.670
19744DA     SC328282 105.043  49.323  55.877
19744DA     SC428283 104.879  49.391  55.659
19745DA     BB128284 104.997  49.430  54.947
19745DA     BB228285 105.305  49.262  55.057
19745DA     BB328286 105.270  49.053  55.082
19745DA     SC128287 105.191  49.077  55.382
19745DA     SC228288 105.286  49.014  55.603
19745DA     SC328289 105.046  49.037  55.690
19745DA     SC428290 105.035  49.095  55.416
19746DT     BB128291 105.374  48.978  54.967
19746DT     BB228292 105.617  48.853  55.203
19746DT     BB328293 105.571  48.658  55.255
19746DT     SC128294 105.372  48.738  55.407
19746DT     SC228295 105.422  48.704  55.614
19746DT     SC328296 105.127  48.770  55.498
19747DT     BB128297 105.790  48.622  55.123
19747DT     BB228298 105.847  48.481  55.450
19747DT     BB328299 105.755  48.296  55.464
19747DT     SC128300 105.518  48.406  55.485
19747DT     SC228301 105.443  48.376  55.684
19747DT     SC328302 105.269  48.473  55.428
19748DC     BB128303 106.002  48.209  55.465
19748DC     BB228304 105.852  48.073  55.764
19748DC     BB328305 105.740  47.906  55.716
19748DC     SC128306 105.549  48.053  55.613
19748DC     SC228307 105.375  48.044  55.739
19748DC     SC328308 105.384  48.156  55.435
19749DA     BB128309 105.998  47.790  56.028
19749DA     BB228310 105.662  47.668  56.110
19749DA     BB328311 105.610  47.504  55.984
19749DA     SC128312 105.479  47.682  55.765
19749DA     SC228313 105.250  47.727  55.676
19749DA     SC328314 105.371  47.815  55.467
19749DA     SC428315 105.572  47.731  55.643
19750DA     BB128316 105.552  47.327  56.262
19750DA     BB228317 105.205  47.288  56.150
19750DA     BB328318 105.193  47.137  55.999
19750DA     SC128319 105.235  47.335  55.763
19750DA     SC228320 105.100  47.430  55.576
19750DA     SC328321 105.326  47.483  55.467
19750DA     SC428322 105.385  47.358  55.711
19751DG     BB128323 105.002  46.945  56.177
19751DG     BB228324 104.758  47.013  55.919
19751DG     BB328325 104.774  46.878  55.773
19751DG     SC128326 104.978  47.039  55.612
19751DG     SC228327 104.932  47.163  55.344
19751DG     SC328328 105.217  47.180  55.421
19751DG     SC428329 105.134  47.020  55.644
19752DA     BB128330 104.432  46.789  55.792
19752DA     BB228331 104.378  46.904  55.449
19752DA     BB328332 104.437  46.754  55.310
19752DA     SC128333 104.730  46.856  55.285
19752DA     SC228334 104.873  46.968  55.114
19752DA     SC328335 105.071  46.881  55.252
19752DA     SC428336 104.840  46.792  55.384
19753DT     BB128337 104.295  46.652  55.183
19753DT     BB228338 104.380  46.830  54.881
19753DT     BB328339 104.480  46.705  54.750
19753DT     SC128340 104.700  46.717  54.894
19753DT     SC228341 104.849  46.828  54.786
19753DT     SC328342 104.901  46.642  55.046
19754DT     BB128343 104.262  46.696  54.587
19754DT     BB228344 104.527  46.823  54.378
19754DT     BB328345 104.631  46.665  54.292
19754DT     SC128346 104.751  46.610  54.518
19754DT     SC228347 104.960  46.660  54.502
19754DT     SC328348 104.825  46.479  54.735
19755DT     BB128349 104.520  46.728  54.053
19755DT     BB228350 104.876  46.745  53.997
19755DT     BB328351 104.949  46.558  53.948
19755DT     SC128352 104.929  46.477  54.197
19755DT     SC228353 105.126  46.452  54.280
19755DT     SC328354 104.851  46.340  54.408
19756DA     BB128355 105.081  46.824  53.653
19756DA     BB228356 105.371  46.631  53.768
19756DA     BB328357 105.361  46.431  53.694
19756DA     SC128358 105.205  46.321  53.939
19756DA     SC228359 105.247  46.170  54.133
19756DA     SC328360 104.992  46.149  54.146
19756DA     SC428361 105.044  46.320  53.931
19757DT     BB128362 105.502  46.367  53.558
19757DT     BB228363 105.689  46.161  53.788
19757DT     BB328364 105.652  45.961  53.751
19757DT     SC128365 105.414  45.977  53.861
19757DT     SC228366 105.414  45.867  54.046
19757DT     SC328367 105.152  45.973  53.887
19758DT     BB128368 105.901  45.929  53.645
19758DT     BB228369 105.886  45.692  53.916
19758DT     BB328370 105.807  45.513  53.849
19758DT     SC128371 105.565  45.614  53.841
19758DT     SC228372 105.445  45.525  53.996
19758DT     SC328373 105.334  45.698  53.746
19759DA     BB128374 106.165  45.439  54.051
19759DA     BB228375 105.908  45.217  54.189
19759DA     BB328376 105.861  45.063  54.050
19759DA     SC128377 105.632  45.222  53.912
19759DA     SC228378 105.384  45.212  53.896
19759DA     SC328379 105.412  45.356  53.685
19759DA     SC428380 105.671  45.310  53.783
19760DC     BB128381 105.906  44.900  54.119
19760DC     BB228382 105.570  44.791  54.193
19760DC     BB328383 105.503  44.663  54.044
19760DC     SC128384 105.468  44.863  53.878
19760DC     SC228385 105.258  44.893  53.845
19760DC     SC328386 105.497  45.018  53.666
19761DA     BB128387 105.436  44.532  54.438
19761DA     BB228388 105.126  44.496  54.246
19761DA     BB328389 105.148  44.345  54.097
19761DA     SC128390 105.247  44.543  53.878
19761DA     SC228391 105.162  44.639  53.664
19761DA     SC328392 105.408  44.689  53.612
19761DA     SC428393 105.406  44.564  53.863
19762DA     BB128394 104.873  44.286  54.264
19762DA     BB228395 104.706  44.306  53.939
19762DA     BB328396 104.765  44.143  53.815
19762DA     SC128397 105.004  44.295  53.687
19762DA     SC228398 105.065  44.391  53.465
19762DA     SC328399 105.307  44.381  53.549
19762DA     SC428400 105.148  44.279  53.757
19763DA     BB128401 104.438  44.131  53.804
19763DA     BB228402 104.472  44.166  53.440
19763DA     BB328403 104.552  43.987  53.356
19763DA     SC128404 104.848  44.079  53.380
19763DA     SC228405 105.033  44.147  53.228
19763DA     SC328406 105.188  44.092  53.425
19763DA     SC428407 104.928  44.038  53.514
19764DT     BB128408 104.433  43.889  53.239
19764DT     BB228409 104.597  43.965  52.927
19764DT     BB328410 104.711  43.803  52.866
19764DT     SC128411 104.894  43.854  53.047
19764DT     SC228412 105.073  43.923  52.950
19764DT     SC328413 105.050  43.823  53.257
19765DT     BB128414 104.531  43.756  52.671
19765DT     BB228415 104.845  43.787  52.497
19765DT     BB328416 104.943  43.605  52.495
19765DT     SC128417 105.009  43.628  52.748
19765DT     SC228418 105.222  43.658  52.763
19765DT     SC328419 105.022  43.577  53.006
19766DA     BB128420 104.932  43.743  52.099
19766DA     BB228421 105.274  43.630  52.168
19766DA     BB328422 105.281  43.417  52.176
19766DA     SC128423 105.228  43.403  52.482
19766DA     SC228424 105.353  43.342  52.689
19766DA     SC328425 105.122  43.312  52.796
19766DA     SC428426 105.075  43.388  52.530
19767DT     BB128427 105.383  43.319  52.033
19767DT     BB228428 105.664  43.214  52.235
19767DT     BB328429 105.646  43.013  52.281
19767DT     SC128430 105.458  43.063  52.458
19767DT     SC228431 105.534  43.026  52.655
19767DT     SC328432 105.222  43.062  52.575
19768DT     BB128433 105.845  42.940  52.104
19768DT     BB228434 105.951  42.793  52.416
19768DT     BB328435 105.869  42.604  52.437
19768DT     SC128436 105.633  42.705  52.493
19768DT     SC228437 105.586  42.667  52.700
19768DT     SC328438 105.376  42.762  52.472
19769DT     BB128439 106.103  42.446  52.375
19769DT     BB228440 105.997  42.309  52.691
19769DT     BB328441 105.871  42.148  52.660
19769DT     SC128442 105.673  42.307  52.592
19769DT     SC228443 105.522  42.301  52.745
19769DT     SC328444 105.486  42.421  52.446
19770DG     BB128445 106.166  41.907  52.843
19770DG     BB228446 105.846  41.841  52.998
19770DG     BB328447 105.750  41.699  52.898
19770DG     SC128448 105.609  41.894  52.708
19770DG     SC228449 105.316  41.948  52.698
19770DG     SC328450 105.455  42.077  52.471
19770DG     SC428451 105.683  41.936  52.572
19771DT     BB128452 105.660  41.406  52.938
19771DT     BB228453 105.311  41.472  53.002
19771DT     BB328454 105.195  41.384  52.855
19771DT     SC128455 105.262  41.568  52.681
19771DT     SC228456 105.091  41.692  52.639
19771DT     SC328457 105.364  41.681  52.466
19772DA     BB128458 105.017  41.190  53.188
19772DA     BB228459 104.746  41.353  53.003
19772DA     BB328460 104.685  41.231  52.839
19772DA     SC128461 104.884  41.361  52.638
19772DA     SC228462 104.873  41.510  52.438
19772DA     SC328463 105.107  41.419  52.384
19772DA     SC428464 105.028  41.292  52.621
19773DT     BB128465 104.485  41.139  52.826
19773DT     BB228466 104.355  41.387  52.598
19773DT     BB328467 104.323  41.301  52.412
19773DT     SC128468 104.580  41.298  52.360
19773DT     SC228469 104.623  41.440  52.205
19773DT     SC328470 104.821  41.205  52.307
19774DA     BB128471 103.991  41.515  52.550
19774DA     BB228472 104.078  41.636  52.215
19774DA     BB328473 104.028  41.490  52.068
19774DA     SC128474 104.306  41.350  52.077
19774DA     SC228475 104.504  41.326  51.928
19774DA     SC328476 104.562  41.122  52.073
19774DA     SC428477 104.324  41.227  52.178
19775DT     BB128478 103.911  41.568  51.972
19775DT     BB228479 104.126  41.628  51.688
19775DT     BB328480 104.105  41.476  51.550
19775DT     SC128481 104.244  41.311  51.700
19775DT     SC228482 104.433  41.271  51.605
19775DT     SC328483 104.303  41.102  51.850
19776DT     BB128484 104.009  41.680  51.428
19776DT     BB228485 104.281  41.558  51.224
19776DT     BB328486 104.221  41.388  51.122
19776DT     SC128487 104.237  41.242  51.340
19776DT     SC228488 104.402  41.106  51.323
19776DT     SC328489 104.164  41.089  51.542
19777DA     BB128490 104.420  41.676  50.885
19777DA     BB228491 104.561  41.344  50.816
19777DA     BB328492 104.417  41.221  50.720
19777DA     SC128493 104.304  41.104  50.985
19777DA     SC228494 104.304  40.886  51.105
19777DA     SC328495 104.101  40.979  51.232
19777DA     SC428496 104.179  41.179  51.052
19778DA     BB128497 104.686  41.201  50.533
19778DA     BB228498 104.667  40.840  50.590
19778DA     BB328499 104.497  40.758  50.491
19778DA     SC128500 104.308  40.794  50.736
19778DA     SC228501 104.191  40.649  50.902
19778DA     SC328502 104.038  40.852  50.941
19778DA     SC428503 104.223  40.930  50.745
19779DT     BB128504 104.539  40.639  50.352
19779DT     BB228505 104.436  40.333  50.513
19779DT     BB328506 104.247  40.279  50.447
19779DT     SC128507 104.135  40.467  50.593
19779DT     SC228508 104.024  40.377  50.753
19779DT     SC328509 103.999  40.684  50.655
19780DT     BB128510 104.351  40.076  50.300
19780DT     BB228511 104.104  39.916  50.508
19780DT     BB328512 103.918  39.926  50.418
19780DT     SC128513 103.894  40.181  50.477
19780DT     SC228514 103.741  40.205  50.626
19780DT     SC328515 103.871  40.442  50.446
19781DT     BB128516 103.915  39.657  50.343
19781DT     BB228517 103.609  39.698  50.529
19781DT     BB328518 103.456  39.755  50.402
19781DT     SC128519 103.551  39.999  50.385
19781DT     SC228520 103.418  40.135  50.486
19781DT     SC328521 103.655  40.218  50.281
19782DA     BB128522 103.286  39.411  50.577
19782DA     BB228523 103.034  39.677  50.599
19782DA     BB328524 102.938  39.703  50.411
19782DA     SC128525 103.138  39.919  50.311
19782DA     SC228526 103.138  40.164  50.264
19782DA     SC328527 103.346  40.116  50.121
19782DA     SC428528 103.265  39.869  50.226
19783DA     BB128529 102.643  39.650  50.560
19783DA     BB228530 102.549  39.993  50.469
19783DA     BB328531 102.479  39.999  50.267
19783DA     SC128532 102.760  40.057  50.146
19783DA     SC228533 102.878  40.246  50.035
19783DA     SC328534 103.038  40.067  49.945
19783DA     SC428535 102.848  39.931  50.100
19784DT     BB128536 102.274  40.045  50.218
19784DT     BB228537 102.336  40.383  50.106
19784DT     BB328538 102.314  40.395  49.901
19784DT     SC128539 102.542  40.273  49.861
19784DT     SC228540 102.684  40.412  49.779
19784DT     SC328541 102.716  40.090  49.783
19785DC     BB128542 102.083  40.535  49.935
19785DC     BB228543 102.293  40.752  49.739
19785DC     BB328544 102.269  40.711  49.537
19785DC     SC128545 102.409  40.490  49.557
19785DC     SC228546 102.597  40.515  49.454
19785DC     SC328547 102.470  40.234  49.554
19786DA     BB128548 102.231  41.122  49.609
19786DA     BB228549 102.463  41.075  49.328
19786DA     BB328550 102.357  41.010  49.155
19786DA     SC128551 102.390  40.707  49.217
19786DA     SC228552 102.515  40.512  49.124
19786DA     SC328553 102.343  40.369  49.250
19786DA     SC428554 102.273  40.636  49.301
19787DA     BB128555 102.527  41.267  49.044
19787DA     BB228556 102.680  41.036  48.805
19787DA     BB328557 102.539  40.980  48.654
19787DA     SC128558 102.435  40.731  48.810
19787DA     SC228559 102.445  40.483  48.789
19787DA     SC328560 102.241  40.482  48.944
19787DA     SC428561 102.308  40.752  48.905
19788DG     BB128562 102.750  41.107  48.463
19788DG     BB228563 102.767  40.771  48.330
19788DG     BB328564 102.616  40.739  48.205
19788DG     SC128565 102.425  40.636  48.421
19788DG     SC228566 102.321  40.357  48.445
19788DG     SC328567 102.184  40.537  48.636
19788DG     SC428568 102.334  40.741  48.501
19789DT     BB128569 102.637  40.699  47.975
19789DT     BB228570 102.560  40.347  47.956
19789DT     BB328571 102.372  40.320  47.875
19789DT     SC128572 102.257  40.397  48.099
19789DT     SC228573 102.161  40.228  48.191
19789DT     SC328574 102.112  40.539  48.267
19790DT     BB128575 102.453  40.233  47.614
19790DT     BB228576 102.236  39.967  47.725
19790DT     BB328577 102.042  40.003  47.662
19790DT     SC128578 102.009  40.190  47.842
19790DT     SC228579 101.869  40.122  47.991
19790DT     SC328580 101.967  40.428  47.948
19791DG     BB128581 102.116  39.645  47.471
19791DG     BB228582 101.811  39.624  47.665
19791DG     BB328583 101.659  39.697  47.560
19791DG     SC128584 101.695  39.984  47.660
19791DG     SC228585 101.504  40.134  47.835
19791DG     SC328586 101.718  40.313  47.734
19791DG     SC428587 101.793  40.083  47.581
19792DT     BB128588 101.467  39.573  47.486
19792DT     BB228589 101.223  39.688  47.725
19792DT     BB328590 101.085  39.812  47.632
19792DT     SC128591 101.258  40.009  47.621
19792DT     SC228592 101.197  40.165  47.755
19792DT     SC328593 101.419  40.192  47.520
19793DA     BB128594 100.871  39.517  47.837
19793DA     BB228595 100.733  39.843  47.932
19793DA     BB328596 100.614  39.923  47.773
19793DA     SC128597 100.850  40.075  47.641
19793DA     SC228598 100.922  40.312  47.608
19793DA     SC328599 101.068  40.220  47.418
19793DA     SC428600 100.933  39.999  47.525
19794DG     BB128601 100.406  39.909  47.998
19794DG     BB228602 100.414  40.268  47.962
19794DG     BB328603 100.303  40.323  47.806
19794DG     SC128604 100.532  40.305  47.604
19794DG     SC228605 100.655  40.534  47.458
19794DG     SC328606 100.755  40.276  47.353
19794DG     SC428607 100.560  40.165  47.531
19795DA     BB128608 100.174  40.536  48.042
19795DA     BB228609 100.268  40.821  47.830
19795DA     BB328610 100.138  40.833  47.661
19795DA     SC128611 100.319  40.655  47.480
19795DA     SC228612 100.464  40.683  47.280
19795DA     SC328613 100.437  40.430  47.249
19795DA     SC428614 100.288  40.497  47.478
19796DG     BB128615 100.093  41.107  47.791
19796DG     BB228616 100.232  41.226  47.479
19796DG     BB328617 100.094  41.218  47.336
19796DG     SC128618 100.163  40.932  47.251
19796DG     SC228619 100.283  40.852  46.989
19796DG     SC328620 100.200  40.614  47.145
19796DG     SC428621 100.091  40.809  47.324
19797DT     BB128622 100.034  41.399  47.243
19797DT     BB228623 100.184  41.373  46.916
19797DT     BB328624 100.042  41.314  46.778
19797DT     SC128625 100.045  41.067  46.868
19797DT     SC228626 100.135  40.939  46.721
19797DT     SC328627  99.963  40.842  46.977
19798DG     BB128628 100.184  41.671  46.640
19798DG     BB228629 100.189  41.420  46.379
19798DG     BB328630 100.007  41.397  46.303
19798DG     SC128631  99.925  41.179  46.501
19798DG     SC228632  99.870  40.893  46.434
19798DG     SC328633  99.794  40.953  46.714
19798DG     SC428634  99.858  41.222  46.640
19799DT     BB128635  99.944  41.448  46.081
19799DT     BB228636  99.909  41.117  45.940
19799DT     BB328637  99.709  41.072  45.914
19799DT     SC128638  99.676  41.034  46.172
19799DT     SC228639  99.643  40.824  46.209
19799DT     SC328640  99.589  41.065  46.419
19800DT     BB128641  99.705  41.105  45.633
19800DT     BB228642  99.579  40.770  45.680
19800DT     BB328643  99.372  40.774  45.695
19800DT     SC128644  99.384  40.872  45.939
19800DT     SC228645  99.318  40.722  46.079
19800DT     SC328646  99.355  41.038  46.141
19801DA     BB128647  99.431  40.498  45.384
19801DA     BB228648  99.200  40.342  45.622
19801DA     BB328649  99.004  40.422  45.598
19801DA     SC128650  99.044  40.650  45.805
19801DA     SC228651  98.961  40.710  46.032
19801DA     SC328652  99.036  40.948  45.975
19801DA     SC428653  99.096  40.792  45.750
19802DT     BB128654  98.845  40.301  45.527
19802DT     BB228655  98.682  40.260  45.846
19802DT     BB328656  98.508  40.372  45.852
19802DT     SC128657  98.642  40.596  45.879
19802DT     SC228658  98.611  40.674  46.077
19802DT     SC328659  98.738  40.836  45.826
19803DT     BB128660  98.357  40.145  45.837
19803DT     BB228661  98.251  40.305  46.142
19803DT     BB328662  98.099  40.440  46.103
19803DT     SC128663  98.268  40.611  45.998
19803DT     SC228664  98.286  40.782  46.128
19803DT     SC328665  98.387  40.765  45.821
19804DC     BB128666  97.930  40.271  46.226
19804DC     BB228667  97.904  40.581  46.410
19804DC     BB328668  97.767  40.706  46.319
19804DC     SC128669  97.935  40.763  46.126
19804DC     SC228670  97.999  40.967  46.144
19804DC     SC328671  98.038  40.778  45.883
19805DT     BB128672  97.613  40.658  46.530
19805DT     BB228673  97.658  41.016  46.524
19805DT     BB328674  97.522  41.102  46.394
19805DT     SC128675  97.657  41.020  46.185
19805DT     SC228676  97.747  41.189  46.087
19805DT     SC328677  97.716  40.891  45.963
19806DT     BB128678  97.411  41.197  46.614
19806DT     BB228679  97.491  41.487  46.415
19806DT     BB328680  97.343  41.518  46.273
19806DT     SC128681  97.428  41.318  46.128
19806DT     SC228682  97.515  41.393  45.946
19806DT     SC328683  97.432  41.085  46.003
19807DC     BB128684  97.285  41.729  46.420
19807DC     BB228685  97.351  41.858  46.090
19807DC     BB328686  97.183  41.838  45.971
19807DC     SC128687  97.222  41.579  45.946
19807DC     SC228688  97.280  41.536  45.743
19807DC     SC328689  97.183  41.319  45.964
19808DT     BB128690  97.165  42.101  45.988
19808DT     BB228691  97.178  42.030  45.634
19808DT     BB328692  96.989  41.979  45.566
19808DT     SC128693  97.005  41.742  45.677
19808DT     SC228694  97.021  41.591  45.524
19808DT     SC328695  96.950  41.538  45.836
19809DT     BB128696  96.983  42.214  45.440
19809DT     BB228697  96.923  41.971  45.181
19809DT     BB328698  96.723  41.921  45.176
19809DT     SC128699  96.746  41.775  45.393
19809DT     SC228700  96.723  41.567  45.343
19809DT     SC328701  96.711  41.693  45.641
19810DG     BB128702  96.812  42.062  44.803
19810DG     BB228703  96.646  41.742  44.785
19810DG     BB328704  96.451  41.765  44.813
19810DG     SC128705  96.466  41.731  45.117
19810DG     SC228706  96.352  41.505  45.275
19810DG     SC328707  96.449  41.719  45.454
19810DG     SC428708  96.492  41.860  45.208
19811DC     BB128709  96.289  41.718  44.655
19811DC     BB228710  96.148  41.412  44.783
19811DC     BB328711  95.962  41.450  44.866
19811DC     SC128712  96.071  41.561  45.078
19811DC     SC228713  96.041  41.435  45.249
19811DC     SC328714  96.136  41.744  45.256
19812DA     BB128715  95.898  41.138  44.592
19812DA     BB228716  95.744  41.041  44.911
19812DA     BB328717  95.565  41.151  44.943
19812DA     SC128718  95.706  41.383  45.096
19812DA     SC228719  95.716  41.471  45.329
19812DA     SC328720  95.800  41.688  45.221
19812DA     SC428721  95.755  41.509  45.010
19813DC     BB128722  95.374  41.058  44.943
19813DC     BB228723  95.324  41.069  45.300
19813DC     BB328724  95.182  41.213  45.347
19813DC     SC128725  95.353  41.407  45.302
19813DC     SC228726  95.403  41.502  45.488
19813DC     SC328727  95.463  41.620  45.193
19814DA     BB128728  95.048  40.860  45.532
19814DA     BB228729  95.046  41.127  45.784
19814DA     BB328730  94.882  41.259  45.751
19814DA     SC128731  95.043  41.451  45.566
19814DA     SC228732  95.133  41.683  45.576
19814DA     SC328733  95.139  41.669  45.320
19814DA     SC428734  95.037  41.424  45.408
19815DT     BB128735  94.729  41.269  45.890
19815DT     BB228736  94.829  41.585  46.033
19815DT     BB328737  94.699  41.735  45.972
19815DT     SC128738  94.805  41.739  45.732
19815DT     SC228739  94.913  41.923  45.705
19815DT     SC328740  94.827  41.717  45.470
19816DA     BB128741  94.737  41.746  46.389
19816DA     BB228742  94.798  42.083  46.258
19816DA     BB328743  94.615  42.170  46.190
19816DA     SC128744  94.644  42.065  45.899
19816DA     SC228745  94.689  42.159  45.672
19816DA     SC328746  94.586  41.941  45.584
19816DA     SC428747  94.577  41.924  45.864
19817DG     BB128748  94.708  42.369  46.404
19817DG     BB228749  94.738  42.586  46.116
19817DG     BB328750  94.558  42.653  46.063
19817DG     SC128751  94.500  42.420  45.873
19817DG     SC228752  94.474  42.438  45.576
19817DG     SC328753  94.395  42.170  45.672
19817DG     SC428754  94.430  42.288  45.931
19818DT     BB128755  94.552  42.848  46.069
19818DT     BB228756  94.556  42.933  45.719
19818DT     BB328757  94.362  42.963  45.651
19818DT     SC128758  94.315  42.704  45.652
19818DT     SC228759  94.296  42.635  45.449
19818DT     SC328760  94.207  42.472  45.714
19819DT     BB128761  94.456  43.202  45.635
19819DT     BB228762  94.345  43.115  45.303
19819DT     BB328763  94.139  43.131  45.291
19819DT     SC128764  94.107  42.909  45.427
19819DT     SC228765  94.029  42.756  45.297
19819DT     SC328766  94.035  42.745  45.620
19820DC     BB128767  94.211  43.325  45.137
19820DC     BB228768  93.999  43.112  44.936
19820DC     BB328769  93.801  43.143  44.986
19820DC     SC128770  93.827  43.010  45.210
19820DC     SC228771  93.718  42.825  45.197
19820DC     SC328772  93.834  42.958  45.469
19821DC     BB128773  93.791  43.252  44.748
19821DC     BB228774  93.533  43.000  44.748
19821DC     BB328775  93.364  43.071  44.845
19821DC     SC128776  93.478  43.044  45.080
19821DC     SC228777  93.381  42.885  45.187
19821DC     SC328778  93.580  43.107  45.314
19822DG     BB128779  93.240  42.972  44.468
19822DG     BB228780  93.023  42.828  44.719
19822DG     BB328781  92.900  42.968  44.790
19822DG     SC128782  93.089  43.057  45.014
19822DG     SC228783  93.042  43.022  45.306
19822DG     SC328784  93.278  43.192  45.257
19822DG     SC428785  93.196  43.171  44.984
19823DA     BB128786  92.616  42.769  44.720
19823DA     BB228787  92.521  42.772  45.074
19823DA     BB328788  92.426  42.956  45.124
19823DA     SC128789  92.690  43.098  45.207
19823DA     SC228790  92.798  43.181  45.416
19823DA     SC328791  92.940  43.328  45.260
19823DA     SC428792  92.767  43.182  45.093
19824DG     BB128793  92.161  42.798  45.200
19824DG     BB228794  92.231  42.921  45.533
19824DG     BB328795  92.153  43.102  45.557
19824DG     SC128796  92.401  43.250  45.457
19824DG     SC228797  92.578  43.425  45.622
19824DG     SC328798  92.648  43.444  45.335
19824DG     SC428799  92.416  43.280  45.301
19825DT     BB128800  91.985  43.153  45.710
19825DT     BB228801  92.176  43.324  45.964
19825DT     BB328802  92.136  43.527  45.957
19825DT     SC128803  92.281  43.556  45.740
19825DT     SC228804  92.459  43.668  45.787
19825DT     SC328805  92.345  43.609  45.489
19826DA     BB128806  92.084  43.399  46.352
19826DA     BB228807  92.299  43.696  46.357
19826DA     BB328808  92.184  43.871  46.316
19826DA     SC128809  92.229  43.859  46.009
19826DA     SC228810  92.353  43.988  45.835
19826DA     SC328811  92.194  43.877  45.668
19826DA     SC428812  92.120  43.781  45.921
19827DG     BB128813  92.295  43.944  46.595
19827DG     BB228814  92.459  44.207  46.409
19827DG     BB328815  92.331  44.355  46.373
19827DG     SC128816  92.233  44.238  46.107
19827DG     SC228817  92.278  44.356  45.837
19827DG     SC328818  92.089  44.129  45.823
19827DG     SC428819  92.110  44.135  46.108
19828DT     BB128820  92.371  44.550  46.454
19828DT     BB228821  92.470  44.736  46.161
19828DT     BB328822  92.312  44.853  46.095
19828DT     SC128823  92.188  44.644  45.997
19828DT     SC228824  92.189  44.654  45.782
19828DT     SC328825  92.003  44.459  45.961
19829DT     BB128826  92.435  45.080  46.185
19829DT     BB228827  92.370  45.147  45.836
19829DT     BB328828  92.180  45.225  45.813
19829DT     SC128829  92.070  44.990  45.853
19829DT     SC228830  91.984  44.920  45.669
19829DT     SC328831  91.926  44.799  45.964
19830DT     BB128832  92.261  45.493  45.767
19830DT     BB228833  92.056  45.416  45.480
19830DT     BB328834  91.860  45.468  45.518
19830DT     SC128835  91.827  45.260  45.675
19830DT     SC228836  91.694  45.120  45.581
19830DT     SC328837  91.782  45.119  45.893
19831DC     BB128838  91.841  45.713  45.360
19831DC     BB228839  91.573  45.510  45.229
19831DC     BB328840  91.396  45.555  45.326
19831DC     SC128841  91.472  45.427  45.542
19831DC     SC228842  91.353  45.249  45.566
19831DC     SC328843  91.542  45.382  45.793
19832DA     BB128844  91.287  45.614  44.924
19832DA     BB228845  91.037  45.390  45.072
19832DA     BB328846  90.896  45.502  45.187
19832DA     SC128847  91.057  45.477  45.452
19832DA     SC228848  91.034  45.360  45.672
19832DA     SC328849  91.203  45.533  45.758
19832DA     SC428850  91.162  45.594  45.487
19833DA     BB128851  90.676  45.354  44.995
19833DA     BB228852  90.549  45.190  45.296
19833DA     BB328853  90.423  45.323  45.406
19833DA     SC128854  90.654  45.437  45.580
19833DA     SC228855  90.728  45.427  45.818
19833DA     SC328856  90.861  45.640  45.764
19833DA     SC428857  90.729  45.569  45.527
19834DC     BB128858  90.234  45.271  45.419
19834DC     BB228859  90.247  45.158  45.761
19834DC     BB328860  90.157  45.297  45.885
19834DC     SC128861  90.363  45.459  45.865
19834DC     SC228862  90.466  45.467  46.053
19834DC     SC328863  90.505  45.673  45.806
19835DT     BB128864  89.972  45.112  45.913
19835DT     BB228865  90.093  45.175  46.246
19835DT     BB328866  89.998  45.341  46.326
19835DT     SC128867  90.140  45.504  46.176
19835DT     SC228868  90.276  45.614  46.300
19835DT     SC328869  90.199  45.684  45.993
19836DA     BB128870  90.002  45.013  46.588
19836DA     BB228871  90.109  45.312  46.772
19836DA     BB328872  89.945  45.446  46.797
19836DA     SC128873  90.001  45.602  46.534
19836DA     SC228874  90.081  45.829  46.468
19836DA     SC328875  89.972  45.779  46.241
19836DA     SC428876  89.926  45.553  46.401
19837DA     BB128877  90.066  45.410  47.098
19837DA     BB228878  90.110  45.774  47.099
19837DA     BB328879  89.921  45.872  47.108
19837DA     SC128880  89.886  45.888  46.800
19837DA     SC228881  89.887  46.064  46.623
19837DA     SC328882  89.761  45.892  46.480
19837DA     SC428883  89.808  45.768  46.727
19838DT     BB128884  89.889  45.970  47.270
19838DT     BB228885  89.911  46.303  47.130
19838DT     BB328886  89.721  46.379  47.100
19838DT     SC128887  89.684  46.226  46.890
19838DT     SC228888  89.682  46.348  46.713
19838DT     SC328889  89.582  46.040  46.734
19839DT     BB128890  89.744  46.552  47.315
19839DT     BB228891  89.654  46.768  47.041
19839DT     BB328892  89.448  46.779  47.024
19839DT     SC128893  89.435  46.539  46.920
19839DT     SC228894  89.379  46.553  46.713
19839DT     SC328895  89.376  46.283  46.892
19840DA     BB128896  89.552  47.187  47.053
19840DA     BB228897  89.319  47.157  46.772
19840DA     BB328898  89.119  47.136  46.843
19840DA     SC128899  89.129  46.825  46.852
19840DA     SC228900  89.028  46.633  46.729
19840DA     SC328901  89.089  46.494  46.936
19840DA     SC428902  89.174  46.756  46.990
19841DT     BB128903  88.943  47.291  46.826
19841DT     BB228904  88.759  47.117  46.569
19841DT     BB328905  88.581  47.045  46.647
19841DT     SC128906  88.705  46.853  46.775
19841DT     SC228907  88.657  46.664  46.685
19841DT     SC328908  88.796  46.706  46.975
19842DA     BB128909  88.459  47.268  46.312
19842DA     BB228910  88.302  46.938  46.287
19842DA     BB328911  88.138  46.923  46.424
19842DA     SC128912  88.311  46.810  46.657
19842DA     SC228913  88.338  46.594  46.779
19842DA     SC328914  88.445  46.736  46.964
19842DA     SC428915  88.373  46.916  46.761
19843DG     BB128916  87.957  46.878  46.172
19843DG     BB228917  87.916  46.549  46.316
19843DG     BB328918  87.770  46.551  46.451
19843DG     SC128919  87.955  46.623  46.685
19843DG     SC228920  88.019  46.447  46.918
19843DG     SC328921  88.124  46.720  46.960
19843DG     SC428922  87.984  46.777  46.717
19844DG     BB128923  87.624  46.320  46.274
19844DG     BB228924  87.673  46.106  46.562
19844DG     BB328925  87.529  46.137  46.695
19844DG     SC128926  87.678  46.359  46.843
19844DG     SC228927  87.783  46.344  47.122
19844DG     SC328928  87.805  46.619  47.016
19844DG     SC428929  87.662  46.511  46.794
19845DC     BB128930  87.406  45.973  46.743
19845DC     BB228931  87.531  45.884  47.069
19845DC     BB328932  87.404  45.956  47.216
19845DC     SC128933  87.491  46.201  47.181
19845DC     SC228934  87.605  46.262  47.353
19845DC     SC328935  87.492  46.458  47.121
19846DT     BB128936  87.346  45.703  47.253
19846DT     BB228937  87.468  45.821  47.571
19846DT     BB328938  87.316  45.919  47.673
19846DT     SC128939  87.336  46.129  47.517
19846DT     SC228940  87.417  46.294  47.629
19846DT     SC328941  87.271  46.313  47.340
19847DC     BB128942  87.322  45.710  47.835
19847DC     BB228943  87.382  45.996  48.046
19847DC     BB328944  87.202  46.085  48.097
19847DC     SC128945  87.177  46.189  47.857
19847DC     SC228946  87.202  46.403  47.869
19847DC     SC328947  87.080  46.239  47.617
19848DT     BB128948  87.249  45.992  48.339
19848DT     BB228949  87.211  46.348  48.381
19848DT     BB328950  87.010  46.397  48.390
19848DT     SC128951  86.981  46.361  48.132
19848DT     SC228952  86.947  46.551  48.037
19848DT     SC328953  86.897  46.260  47.903
19849DT     BB128954  87.046  46.449  48.650
19849DT     BB228955  86.912  46.755  48.512
19849DT     BB328956  86.706  46.744  48.505
19849DT     SC128957  86.714  46.582  48.299
19849DT     SC228958  86.641  46.684  48.124
19849DT     SC328959  86.682  46.364  48.153
19850DA     BB128960  86.811  47.102  48.698
19850DA     BB228961  86.562  47.181  48.440
19850DA     BB328962  86.370  47.110  48.499
19850DA     SC128963  86.404  46.831  48.364
19850DA     SC228964  86.310  46.708  48.169
19850DA     SC328965  86.395  46.497  48.288
19850DA     SC428966  86.463  46.712  48.454
19851DT     BB128967  86.231  47.245  48.535
19851DT     BB228968  86.038  47.190  48.235
19851DT     BB328969  85.868  47.081  48.280
19851DT     SC128970  86.007  46.860  48.306
19851DT     SC228971  85.960  46.727  48.144
19851DT     SC328972  86.115  46.647  48.416
19852DC     BB128973  85.705  47.302  48.248
19852DC     BB228974  85.569  47.058  48.020
19852DC     BB328975  85.428  46.941  48.117
19852DC     SC128976  85.615  46.809  48.245
19852DC     SC228977  85.623  46.607  48.170
19852DC     SC328978  85.760  46.714  48.444
19853DT     BB128979  85.222  47.064  47.983
19853DT     BB228980  85.181  46.714  47.906
19853DT     BB328981  85.063  46.624  48.050
19853DT     SC128982  85.260  46.627  48.224
19853DT     SC228983  85.328  46.426  48.259
19853DT     SC328984  85.398  46.684  48.442
19854DT     BB128985  84.861  46.605  47.871
19854DT     BB228986  84.918  46.265  47.978
19854DT     BB328987  84.807  46.225  48.148
19854DT     SC128988  84.971  46.366  48.297
19854DT     SC228989  85.081  46.234  48.427
19854DT     SC328990  85.060  46.556  48.457
19855DT     BB128991  84.650  46.069  47.997
19855DT     BB228992  84.769  45.852  48.260
19855DT     BB328993  84.647  45.869  48.426
19855DT     SC128994  84.749  46.103  48.487
19855DT     SC228995  84.867  46.085  48.667
19855DT     SC328996  84.766  46.363  48.532
19856DT     BB128997  84.558  45.624  48.370
19856DT     BB228998  84.678  45.601  48.709
19856DT     BB328999  84.530  45.662  48.841
19856DT     SC129000  84.567  45.914  48.778
19856DT     SC229001  84.655  46.017  48.946
19856DT     SC329002  84.520  46.157  48.687
19857DT     BB129003  84.500  45.405  48.915
19857DT     BB229004  84.561  45.581  49.224
19857DT     BB329005  84.384  45.657  49.298
19857DT     SC129006  84.381  45.848  49.118
19857DT     SC229007  84.417  46.037  49.214
19857DT     SC329008  84.303  45.994  48.913
19858DT     BB129009  84.373  45.468  49.498
19858DT     BB229010  84.344  45.781  49.676
19858DT     BB329011  84.146  45.838  49.686
19858DT     SC129012  84.144  45.909  49.434
19858DT     SC229013  84.128  46.123  49.420
19858DT     SC329014  84.082  45.913  49.178
19859DA     BB129015  84.245  45.842  50.098
19859DA     BB229016  84.067  46.156  50.030
19859DA     BB329017  83.857  46.121  50.019
19859DA     SC129018  83.858  46.070  49.712
19859DA     SC229019  83.777  46.184  49.506
19859DA     SC329020  83.794  45.953  49.396
19859DA     SC429021  83.874  45.918  49.662
19860DC     BB129022  83.670  46.186  50.174
19860DC     BB229023  83.536  46.448  49.965
19860DC     BB329024  83.347  46.396  49.899
19860DC     SC129025  83.446  46.224  49.728
19860DC     SC229026  83.415  46.297  49.528
19860DC     SC329027  83.499  45.995  49.608
19861DA     BB129028  83.235  46.760  50.088
19861DA     BB229029  83.095  46.773  49.749
19861DA     BB329030  82.911  46.666  49.740
19861DA     SC129031  83.043  46.396  49.663
19861DA     SC229032  83.054  46.246  49.463
19861DA     SC329033  83.122  46.063  49.629
19861DA     SC429034  83.082  46.295  49.782
19862DT     BB129035  82.709  46.761  49.704
19862DT     BB229036  82.689  46.660  49.358
19862DT     BB329037  82.540  46.518  49.335
19862DT     SC129038  82.689  46.332  49.445
19862DT     SC229039  82.747  46.189  49.295
19862DT     SC329040  82.771  46.149  49.616
19863DA     BB129041  82.485  46.824  49.056
19863DA     BB229042  82.483  46.504  48.877
19863DA     BB329043  82.301  46.399  48.914
19863DA     SC129044  82.411  46.246  49.161
19863DA     SC229045  82.473  46.012  49.221
19863DA     SC329046  82.448  46.089  49.464
19863DA     SC429047  82.389  46.313  49.306
19864DC     BB129048  82.213  46.383  48.759
19864DC     BB229049  82.279  46.031  48.710
19864DC     BB329050  82.117  45.919  48.774
19864DC     SC129051  82.179  45.959  49.026
19864DC     SC229052  82.247  45.775  49.112
19864DC     SC329053  82.162  46.041  49.276
19865DT     BB129054  82.099  45.876  48.518
19865DT     BB229055  82.126  45.550  48.671
19865DT     BB329056  81.943  45.493  48.749
19865DT     SC129057  81.968  45.658  48.951
19865DT     SC229058  81.997  45.546  49.132
19865DT     SC329059  81.920  45.860  49.113
19866DA     BB129060  82.100  45.182  48.512
19866DA     BB229061  81.979  45.037  48.826
19866DA     BB329062  81.766  45.043  48.833
19866DA     SC129063  81.753  45.322  48.971
19866DA     SC229064  81.690  45.415  49.193
19866DA     SC329065  81.666  45.638  49.070
19866DA     SC429066  81.742  45.451  48.876
19867DA     BB129067  81.791  44.716  48.891
19867DA     BB229068  81.615  44.774  49.208
19867DA     BB329069  81.407  44.805  49.172
19867DA     SC129070  81.432  45.114  49.143
19867DA     SC229071  81.366  45.317  49.271
19867DA     SC329072  81.395  45.442  49.049
19867DA     SC429073  81.455  45.173  48.995
19868DT     BB129074  81.235  44.663  49.229
19868DT     BB229075  81.107  44.860  49.503
19868DT     BB329076  80.923  44.941  49.451
19868DT     SC129077  81.036  45.118  49.294
19868DT     SC229078  81.015  45.314  49.381
19868DT     SC329079  81.101  45.250  49.075
19869DA     BB129080  80.812  44.737  49.805
19869DA     BB229081  80.687  45.080  49.837
19869DA     BB329082  80.506  45.104  49.727
19869DA     SC129083  80.649  45.194  49.465
19869DA     SC229084  80.674  45.402  49.330
19869DA     SC329085  80.739  45.245  49.138
19869DA     SC429086  80.686  45.080  49.358
19870DA     BB129087  80.365  45.206  50.009
19870DA     BB229088  80.325  45.534  49.851
19870DA     BB329089  80.151  45.536  49.728
19870DA     SC129090  80.301  45.444  49.471
19870DA     SC229091  80.368  45.542  49.252
19870DA     SC329092  80.388  45.299  49.173
19870DA     SC429093  80.306  45.287  49.441
19871DA     BB129094  80.097  45.792  49.917
19871DA     BB229095  80.121  45.994  49.612
19871DA     BB329096  79.941  45.978  49.498
19871DA     SC129097  80.041  45.735  49.331
19871DA     SC229098  80.108  45.689  49.095
19871DA     SC329099  80.063  45.443  49.152
19871DA     SC429100  80.006  45.588  49.385
19872DT     BB129101  79.884  46.138  49.495
19872DT     BB229102  79.974  46.208  49.153
19872DT     BB329103  79.813  46.171  49.029
19872DT     SC129104  79.847  45.911  49.050
19872DT     SC229105  79.916  45.833  48.862
19872DT     SC329106  79.799  45.659  49.108
19873DC     BB129107  79.846  46.424  49.013
19873DC     BB229108  79.877  46.298  48.677
19873DC     BB329109  79.690  46.251  48.601
19873DC     SC129110  79.676  46.034  48.748
19873DC     SC229111  79.689  45.861  48.621
19873DC     SC329112  79.592  45.863  48.931
19874DG     BB129113  79.912  46.500  48.363
19874DG     BB229114  79.775  46.220  48.180
19874DG     BB329115  79.578  46.242  48.160
19874DG     SC129116  79.510  46.096  48.420
19874DG     SC229117  79.369  45.834  48.442
19874DG     SC329118  79.401  45.959  48.708
19874DG     SC429119  79.503  46.179  48.556
19875DA     BB129120  79.635  46.183  47.820
19875DA     BB229121  79.397  45.904  47.829
19875DA     BB329122  79.197  45.977  47.844
19875DA     SC129123  79.194  45.974  48.155
19875DA     SC229124  79.082  45.845  48.337
19875DA     SC329125  79.139  46.046  48.486
19875DA     SC429126  79.237  46.109  48.231
19876DA     BB129127  79.128  45.800  47.568
19876DA     BB229128  78.878  45.617  47.765
19876DA     BB329129  78.702  45.734  47.788
19876DA     SC129130  78.795  45.867  48.053
19876DA     SC229131  78.735  45.860  48.295
19876DA     SC329132  78.855  46.086  48.311
19876DA     SC429133  78.873  46.007  48.042
19877DC     BB129134  78.488  45.697  47.693
19877DC     BB229135  78.329  45.583  47.996
19877DC     BB329136  78.190  45.722  48.059
19877DC     SC129137  78.378  45.884  48.145
19877DC     SC229138  78.373  45.892  48.360
19877DC     SC329139  78.530  46.098  48.165
19878DA     BB129140  77.951  45.376  48.034
19878DA     BB229141  77.897  45.520  48.367
19878DA     BB329142  77.763  45.686  48.356
19878DA     SC129143  77.988  45.896  48.314
19878DA     SC229144  78.092  46.083  48.442
19878DA     SC329145  78.174  46.167  48.214
19878DA     SC429146  78.029  45.933  48.163
19879DT     BB129147  77.567  45.681  48.446
19879DT     BB229148  77.657  45.884  48.730
19879DT     BB329149  77.567  46.070  48.716
19879DT     SC129150  77.735  46.146  48.530
19879DT     SC229151  77.865  46.298  48.609
19879DT     SC329152  77.826  46.226  48.296
19880DG     BB129153  77.478  45.882  49.064
19880DG     BB229154  77.624  46.208  49.119
19880DG     BB329155  77.490  46.350  49.081
19880DG     SC129156  77.562  46.375  48.785
19880DG     SC229157  77.687  46.612  48.655
19880DG     SC329158  77.601  46.414  48.452
19880DG     SC429159  77.488  46.280  48.679
19881DA     BB129160  77.634  46.428  49.380
19881DA     BB229161  77.729  46.752  49.237
19881DA     BB329162  77.556  46.870  49.199
19881DA     SC129163  77.518  46.766  48.909
19881DA     SC229164  77.539  46.854  48.676
19881DA     SC329165  77.387  46.658  48.609
19881DA     SC429166  77.421  46.639  48.887
19882DT     BB129167  77.600  46.988  49.296
19882DT     BB229168  77.664  47.233  49.039
19882DT     BB329169  77.488  47.326  48.984
19882DT     SC129170  77.409  47.115  48.850
19882DT     SC229171  77.412  47.159  48.639
19882DT     SC329172  77.265  46.906  48.778
19883DT     BB129173  77.609  47.523  49.100
19883DT     BB229174  77.527  47.640  48.769
19883DT     BB329175  77.327  47.691  48.759
19883DT     SC129176  77.255  47.438  48.756
19883DT     SC229177  77.176  47.389  48.562
19883DT     SC329178  77.144  47.211  48.830
19884DA     BB129179  77.556  48.008  48.605
19884DA     BB229180  77.279  47.944  48.374
19884DA     BB329181  77.094  48.005  48.461
19884DA     SC129182  77.035  47.728  48.590
19884DA     SC229183  76.874  47.540  48.558
19884DA     SC329184  76.935  47.474  48.799
19884DA     SC429185  77.085  47.704  48.741
19885DA     BB129186  77.075  48.171  48.178
19885DA     BB229187  76.767  47.983  48.111
19885DA     BB329188  76.609  48.055  48.234
19885DA     SC129189  76.665  47.856  48.466
19885DA     SC229190  76.557  47.657  48.569
19885DA     SC329191  76.703  47.708  48.774
19885DA     SC429192  76.763  47.906  48.584
19886DT     BB129193  76.457  48.144  48.143
19886DT     BB229194  76.217  47.878  48.185
19886DT     BB329195  76.085  47.925  48.338
19886DT     SC129196  76.267  47.875  48.521
19886DT     SC229197  76.212  47.697  48.628
19886DT     SC329198  76.436  47.912  48.720
19887DA     BB129199  75.861  47.815  48.001
19887DA     BB229200  75.728  47.633  48.290
19887DA     BB329201  75.623  47.766  48.419
19887DA     SC129202  75.872  47.835  48.592
19887DA     SC229203  75.954  47.791  48.824
19887DA     SC329204  76.107  47.993  48.785
19887DA     SC429205  75.959  47.963  48.550
19888DA     BB129206  75.396  47.532  48.373
19888DA     BB229207  75.402  47.485  48.737
19888DA     BB329208  75.307  47.648  48.835
19888DA     SC129209  75.568  47.814  48.864
19888DA     SC229210  75.721  47.888  49.047
19888DA     SC329211  75.800  48.067  48.882
19888DA     SC429212  75.603  47.919  48.747
19889DT     BB129213  75.140  47.610  48.930
19889DT     BB229214  75.266  47.643  49.266
19889DT     BB329215  75.213  47.826  49.345
19889DT     SC129216  75.392  47.950  49.199
19889DT     SC229217  75.549  48.024  49.326
19889DT     SC329218  75.498  48.111  49.018
19890DA     BB129219  75.064  47.561  49.638
19890DA     BB229220  75.245  47.826  49.815
19890DA     BB329221  75.129  48.005  49.819
19890DA     SC129222  75.250  48.116  49.554
19890DA     SC229223  75.401  48.302  49.484
19890DA     SC329224  75.298  48.270  49.251
19890DA     SC429225  75.173  48.082  49.417
19891DA     BB129226  75.123  48.036  50.164
19891DA     BB229227  75.303  48.354  50.133
19891DA     BB329228  75.166  48.513  50.096
19891DA     SC129229  75.181  48.487  49.786
19891DA     SC229230  75.272  48.619  49.595
19891DA     SC329231  75.110  48.481  49.450
19891DA     SC429232  75.073  48.393  49.714
19892DC     BB129233  75.083  48.718  50.240
19892DC     BB229234  75.280  48.963  50.063
19892DC     BB329235  75.156  49.098  49.966
19892DC     SC129236  75.096  48.921  49.782
19892DC     SC229237  75.183  48.981  49.595
19892DC     SC329238  74.953  48.756  49.633
19893DA     BB129239  75.381  49.371  50.198
19893DA     BB229240  75.398  49.487  49.850
19893DA     BB329241  75.221  49.594  49.799
19893DA     SC129242  75.070  49.343  49.695
19893DA     SC229243  74.991  49.252  49.476
19893DA     SC329244  74.832  49.108  49.617
19893DA     SC429245  74.977  49.263  49.799
19894DC     BB129246  75.215  49.814  49.752
19894DC     BB229247  75.193  49.770  49.395
19894DC     BB329248  75.007  49.829  49.327
19894DC     SC129249  74.894  49.613  49.423
19894DC     SC229250  74.832  49.487  49.261
19894DC     SC329251  74.740  49.458  49.570
19895DT     BB129252  75.116  50.051  49.210
19895DT     BB229253  74.963  49.869  48.939
19895DT     BB329254  74.765  49.926  48.918
19895DT     SC129255  74.696  49.790  49.132
19895DT     SC229256  74.576  49.621  49.073
19895DT     SC329257  74.606  49.737  49.374
19896DA     BB129258  74.964  49.942  48.551
19896DA     BB229259  74.656  49.748  48.507
19896DA     BB329260  74.486  49.877  48.515
19896DA     SC129261  74.447  49.847  48.822
19896DA     SC229262  74.283  49.742  48.978
19896DA     SC329263  74.379  49.903  49.154
19896DA     SC429264  74.518  49.956  48.917
19897DT     BB129265  74.398  49.876  48.354
19897DT     BB229266  74.118  49.674  48.459
19897DT     BB329267  73.956  49.795  48.501
19897DT     SC129268  74.064  49.874  48.727
19897DT     SC229269  73.952  49.792  48.892
19897DT     SC329270  74.169  50.033  48.910
19898DC     BB129271  73.860  49.681  48.286
19898DC     BB229272  73.626  49.606  48.550
19898DC     BB329273  73.499  49.767  48.581
19898DC     SC129274  73.688  49.902  48.703
19898DC     SC229275  73.640  49.918  48.912
19898DC     SC329276  73.865  50.091  48.754
19899DT     BB129277  73.324  49.602  48.480
19899DT     BB229278  73.195  49.694  48.804
19899DT     BB329279  73.103  49.879  48.794
19899DT     SC129280  73.334  50.003  48.781
19899DT     SC229281  73.366  50.112  48.963
19899DT     SC329282  73.531  50.150  48.687
19900DT     BB129283  72.889  49.734  48.832
19900DT     BB229284  72.891  49.977  49.099
19900DT     BB329285  72.817  50.158  49.030
19900DT     SC129286  73.039  50.208  48.899
19900DT     SC229287  73.143  50.370  48.995
19900DT     SC329288  73.204  50.253  48.699
19901DG     BB129289  72.608  50.032  49.357
19901DG     BB229290  72.720  50.374  49.392
19901DG     BB329291  72.609  50.494  49.278
19901DG     SC129292  72.790  50.468  49.033
19901DG     SC229293  72.954  50.687  48.913
19901DG     SC329294  72.955  50.447  48.739
19901DG     SC429295  72.764  50.349  48.929
19902DA     BB129296  72.565  50.683  49.566
19902DA     BB229297  72.702  50.977  49.395
19902DA     BB329298  72.560  51.055  49.256
19902DA     SC129299  72.663  50.883  49.018
19902DA     SC229300  72.784  50.919  48.803
19902DA     SC329301  72.688  50.691  48.734
19902DA     SC429302  72.592  50.740  48.993
19903DT     BB129303  72.472  51.241  49.287
19903DT     BB229304  72.648  51.421  49.028
19903DT     BB329305  72.521  51.457  48.869
19903DT     SC129306  72.534  51.207  48.791
19903DT     SC229307  72.643  51.196  48.606
19903DT     SC329308  72.459  50.961  48.732
19904DA     BB129309  72.684  51.830  48.971
19904DA     BB229310  72.714  51.792  48.607
19904DA     BB329311  72.524  51.818  48.514
19904DA     SC129312  72.449  51.516  48.527
19904DA     SC229313  72.420  51.326  48.368
19904DA     SC329314  72.283  51.217  48.556
19904DA     SC429315  72.366  51.466  48.655
19905DA     BB129316  72.688  52.041  48.336
19905DA     BB229317  72.602  51.845  48.038
19905DA     BB329318  72.398  51.877  47.985
19905DA     SC129319  72.290  51.642  48.157
19905DA     SC229320  72.188  51.417  48.119
19905DA     SC329321  72.101  51.439  48.359
19905DA     SC429322  72.243  51.675  48.307
19906DC     BB129323  72.353  51.975  47.809
19906DC     BB229324  72.233  51.689  47.625
19906DC     BB329325  72.027  51.695  47.610
19906DC     SC129326  71.999  51.624  47.861
19906DC     SC229327  71.918  51.424  47.870
19906DC     SC329328  71.934  51.634  48.116
19907DA     BB129329  72.158  51.650  47.213
19907DA     BB229330  71.887  51.409  47.266
19907DA     BB329331  71.698  51.509  47.269
19907DA     SC129332  71.701  51.555  47.577
19907DA     SC229333  71.578  51.472  47.777
19907DA     SC329334  71.663  51.684  47.893
19907DA     SC429335  71.763  51.694  47.631
19908DT     BB129336  71.527  51.499  47.109
19908DT     BB229337  71.294  51.302  47.301
19908DT     BB329338  71.131  51.418  47.354
19908DT     SC129339  71.271  51.544  47.537
19908DT     SC229340  71.202  51.486  47.733
19908DT     SC329341  71.393  51.739  47.666
19909DC     BB129342  70.899  51.346  47.156
19909DC     BB229343  70.739  51.301  47.476
19909DC     BB329344  70.628  51.469  47.524
19909DC     SC129345  70.845  51.605  47.582
19909DC     SC229346  70.853  51.640  47.794
19909DC     SC329347  71.032  51.790  47.569
19910DT     BB129348  70.290  51.440  47.460
19910DT     BB229349  70.293  51.533  47.809
19910DT     BB329350  70.240  51.732  47.829
19910DT     SC129351  70.474  51.812  47.742
19910DT     SC229352  70.584  51.901  47.904
19910DT     SC329353  70.656  51.926  47.589
19911DT     BB129354  69.916  51.779  47.932
19911DT     BB229355  70.111  51.936  48.192
19911DT     BB329356  70.099  52.142  48.175
19911DT     SC129357  70.260  52.142  47.968
19911DT     SC229358  70.448  52.231  48.023
19911DT     SC329359  70.347  52.174  47.721
19912DT     BB129360  69.934  52.190  48.406
19912DT     BB229361  70.252  52.343  48.481
19912DT     BB329362  70.247  52.544  48.432
19912DT     SC129363  70.264  52.490  48.176
19912DT     SC229364  70.456  52.553  48.102
19912DT     SC329365  70.199  52.475  47.921
19913DC     BB129366  70.266  52.561  48.691
19913DC     BB229367  70.569  52.704  48.558
19913DC     BB329368  70.535  52.900  48.499
19913DC     SC129369  70.404  52.820  48.285
19913DC     SC229370  70.521  52.865  48.110
19913DC     SC329371  70.207  52.783  48.114
19914DT     BB129372  70.702  52.905  48.691
19914DT     BB229373  70.868  53.050  48.405
19914DT     BB329374  70.793  53.239  48.368
19914DT     SC129375  70.571  53.140  48.268
19914DT     SC229376  70.566  53.176  48.056
19914DT     SC329377  70.315  53.084  48.239
19915DA     BB129378  71.215  53.192  48.358
19915DA     BB229379  71.106  53.383  48.064
19915DA     BB329380  71.025  53.571  48.124
19915DA     SC129381  70.733  53.465  48.148
19915DA     SC229382  70.517  53.492  48.028
19915DA     SC329383  70.409  53.406  48.245
19915DA     SC429384  70.685  53.411  48.292
19916DT     BB129385  71.129  53.692  48.056
19916DT     BB229386  70.901  53.818  47.807
19916DT     BB329387  70.795  53.979  47.882
19916DT     SC129388  70.645  53.822  48.030
19916DT     SC229389  70.445  53.821  47.953
19916DT     SC329390  70.537  53.711  48.243
19917DA     BB129391  70.958  54.091  47.512
19917DA     BB229392  70.606  54.194  47.517
19917DA     BB329393  70.579  54.359  47.650
19917DA     SC129394  70.519  54.180  47.898
19917DA     SC229395  70.323  54.126  48.042
19917DA     SC329396  70.497  54.050  48.214
19917DA     SC429397  70.642  54.140  47.992
19918DA     BB129398  70.442  54.496  47.383
19918DA     BB229399  70.133  54.525  47.579
19918DA     BB329400  70.150  54.683  47.720
19918DA     SC129401  70.262  54.502  47.947
19918DA     SC229402  70.185  54.411  48.166
19918DA     SC329403  70.435  54.377  48.216
19918DA     SC429404  70.422  54.490  47.960
19919DA     BB129405  69.871  54.790  47.578
19919DA     BB229406  69.710  54.752  47.905
19919DA     BB329407  69.764  54.913  48.034
19919DA     SC129408  70.012  54.767  48.153
19919DA     SC229409  70.080  54.666  48.370
19919DA     SC329410  70.320  54.690  48.283
19919DA     SC429411  70.154  54.791  48.081
19920DT     BB129412  69.621  55.044  48.091
19920DT     BB229413  69.588  54.924  48.430
19920DT     BB329414  69.679  55.056  48.561
19920DT     SC129415  69.918  54.974  48.489
19920DT     SC229416  70.008  54.866  48.652
19920DT     SC329417  70.162  54.979  48.390
19921DT     BB129418  69.435  55.131  48.647
19921DT     BB229419  69.606  55.018  48.944
19921DT     BB329420  69.717  55.173  49.025
19921DT     SC129421  69.898  55.152  48.837
19921DT     SC229422  70.081  55.075  48.921
19921DT     SC329423  70.050  55.215  48.631
19922DT     BB129424  69.539  55.179  49.225
19922DT     BB229425  69.857  55.125  49.386
19922DT     BB329426  69.953  55.306  49.416
19922DT     SC129427  70.014  55.325  49.161
19922DT     SC229428  70.227  55.301  49.137
19922DT     SC329429  70.022  55.416  48.914
19923DA     BB129430  69.948  55.100  49.781
19923DA     BB229431  70.290  55.220  49.722
19923DA     BB329432  70.300  55.431  49.750
19923DA     SC129433  70.238  55.497  49.452
19923DA     SC229434  70.359  55.590  49.254
19923DA     SC329435  70.126  55.639  49.160
19923DA     SC429436  70.085  55.521  49.411
19924DT     BB129437  70.409  55.505  49.905
19924DT     BB229438  70.686  55.627  49.709
19924DT     BB329439  70.677  55.833  49.694
19924DT     SC129440  70.480  55.820  49.521
19924DT     SC229441  70.550  55.883  49.328
19924DT     SC329442  70.240  55.849  49.416
19925DT     BB129443  70.888  55.856  49.863
19925DT     BB229444  70.992  56.029  49.564
19925DT     BB329445  70.928  56.226  49.570
19925DT     SC129446  70.680  56.156  49.520
19925DT     SC229447  70.627  56.223  49.322
19925DT     SC329448  70.421  56.122  49.552
19926DT     BB129449  71.184  56.303  49.608
19926DT     BB229450  71.079  56.477  49.310
19926DT     BB329451  70.986  56.654  49.362
19926DT     SC129452  70.769  56.527  49.439
19926DT     SC229453  70.609  56.569  49.302
19926DT     SC329454  70.578  56.437  49.596
19927DC     BB129455  71.200  56.778  49.264
19927DC     BB229456  70.923  56.910  49.075
19927DC     BB329457  70.834  57.065  49.179
19927DC     SC129458  70.721  56.900  49.348
19927DC     SC229459  70.509  56.898  49.315
19927DC     SC329460  70.662  56.778  49.574
19928DT     BB129461  70.936  57.215  48.988
19928DT     BB229462  70.582  57.281  48.981
19928DT     BB329463  70.533  57.421  49.125
19928DT     SC129464  70.559  57.243  49.317
19928DT     SC229465  70.366  57.198  49.400
19928DT     SC329466  70.652  57.122  49.532
19929DT     BB129467  70.490  57.579  48.920
19929DT     BB229468  70.181  57.580  49.106
19929DT     BB329469  70.194  57.712  49.264
19929DT     SC129470  70.347  57.548  49.399
19929DT     SC229471  70.238  57.472  49.568
19929DT     SC329472  70.559  57.453  49.524
19930DG     BB129473  69.873  57.818  49.035
19930DG     BB229474  69.784  57.794  49.384
19930DG     BB329475  69.851  57.953  49.482
19930DG     SC129476  70.122  57.827  49.550
19930DG     SC229477  70.218  57.754  49.823
19930DG     SC329478  70.435  57.728  49.625
19930DG     SC429479  70.243  57.843  49.447
19931DA     BB129480  69.529  58.015  49.612
19931DA     BB229481  69.657  57.992  49.955
19931DA     BB329482  69.760  58.171  50.008
19931DA     SC129483  70.037  58.070  49.911
19931DA     SC229484  70.255  58.001  50.012
19931DA     SC329485  70.354  58.045  49.779
19931DA     SC429486  70.080  58.103  49.759
19932DT     BB129487  69.693  58.334  50.162
19932DT     BB229488  69.932  58.252  50.419
19932DT     BB329489  70.072  58.404  50.437
19932DT     SC129490  70.191  58.331  50.215
19932DT     SC229491  70.385  58.249  50.262
19932DT     SC329492  70.283  58.341  49.968
19933DG     BB129493  69.911  58.418  50.817
19933DG     BB229494  70.271  58.391  50.835
19933DG     BB329495  70.354  58.571  50.819
19933DG     SC129496  70.375  58.561  50.513
19933DG     SC229497  70.628  58.551  50.356
19933DG     SC329498  70.395  58.592  50.178
19933DG     SC429499  70.252  58.613  50.425
19934DC     BB129500  70.487  58.694  50.989
19934DC     BB229501  70.818  58.645  50.856
19934DC     BB329502  70.893  58.825  50.784
19934DC     SC129503  70.738  58.813  50.572
19934DC     SC229504  70.859  58.777  50.398
19934DC     SC329505  70.550  58.875  50.398
19935DA     BB129506  71.183  58.679  51.047
19935DA     BB229507  71.352  58.764  50.733
19935DA     BB329508  71.374  58.975  50.716
19935DA     SC129509  71.104  59.017  50.567
19935DA     SC229510  71.026  59.080  50.339
19935DA     SC329511  70.804  59.139  50.453
19935DA     SC429512  70.974  59.050  50.657
19936DG     BB129513  71.671  58.895  50.705
19936DG     BB229514  71.647  59.028  50.369
19936DG     BB329515  71.663  59.226  50.374
19936DG     SC129516  71.362  59.274  50.407
19936DG     SC229517  71.182  59.402  50.207
19936DG     SC329518  71.042  59.363  50.464
19936DG     SC429519  71.300  59.279  50.555
19937DT     BB129520  71.825  59.314  50.270
19937DT     BB229521  71.662  59.457  49.982
19937DT     BB329522  71.637  59.661  50.008
19937DT     SC129523  71.441  59.623  50.179
19937DT     SC229524  71.256  59.687  50.090
19937DT     SC329525  71.304  59.625  50.404
19938DA     BB129526  71.815  59.593  49.635
19938DA     BB229527  71.539  59.830  49.587
19938DA     BB329528  71.590  60.020  49.669
19938DA     SC129529  71.473  59.958  49.950
19938DA     SC229530  71.279  60.032  50.090
19938DA     SC329531  71.414  59.940  50.288
19938DA     SC429532  71.572  59.897  50.061
19939DA     BB129533  71.510  60.124  49.366
19939DA     BB229534  71.254  60.334  49.524
19939DA     BB329535  71.344  60.505  49.615
19939DA     SC129536  71.382  60.366  49.891
19939DA     SC229537  71.288  60.384  50.121
19939DA     SC329538  71.501  60.263  50.196
19939DA     SC429539  71.522  60.292  49.918
19940DA     BB129540  71.134  60.686  49.431
19940DA     BB229541  70.995  60.819  49.743
19940DA     BB329542  71.123  60.969  49.824
19940DA     SC129543  71.289  60.771  49.996
19940DA     SC229544  71.321  60.718  50.238
19940DA     SC329545  71.540  60.608  50.164
19940DA     SC429546  71.422  60.709  49.930
19941DA     BB129547  70.862  61.179  49.823
19941DA     BB229548  70.894  61.203  50.187
19941DA     BB329549  71.048  61.341  50.239
19941DA     SC129550  71.273  61.127  50.245
19941DA     SC229551  71.417  61.015  50.416
19941DA     SC329552  71.571  60.958  50.219
19941DA     SC429553  71.356  61.102  50.110
19942DG     BB129554  70.827  61.511  50.385
19942DG     BB229555  71.015  61.422  50.680
19942DG     BB329556  71.166  61.550  50.706
19942DG     SC129557  71.365  61.388  50.539
19942DG     SC229558  71.609  61.250  50.642
19942DG     SC329559  71.603  61.247  50.346
19942DG     SC429560  71.373  61.414  50.381
19943DT     BB129561  71.185  61.689  50.889
19943DT     BB229562  71.443  61.519  51.075
19943DT     BB329563  71.621  61.624  51.061
19943DT     SC129564  71.658  61.542  50.814
19943DT     SC229565  71.824  61.405  50.809
19943DT     SC329566  71.688  61.549  50.552
19944DA     BB129567  71.548  61.559  51.468
19944DA     BB229568  71.891  61.451  51.396
19944DA     BB329569  72.018  61.620  51.368
19944DA     SC129570  71.970  61.634  51.060
19944DA     SC229571  72.101  61.593  50.852
19944DA     SC329572  71.923  61.739  50.737
19944DA     SC429573  71.851  61.729  51.008
19945DA     BB129574  72.184  61.458  51.597
19945DA     BB229575  72.455  61.433  51.351
19945DA     BB329576  72.554  61.621  51.330
19945DA     SC129577  72.370  61.719  51.099
19945DA     SC229578  72.389  61.764  50.855
19945DA     SC329579  72.178  61.908  50.885
19945DA     SC429580  72.240  61.805  51.139
19946DT     BB129581  72.737  61.622  51.388
19946DT     BB229582  72.884  61.626  51.058
19946DT     BB329583  72.949  61.818  51.012
19946DT     SC129584  72.703  61.899  50.971
19946DT     SC229585  72.674  61.938  50.762
19946DT     SC329586  72.478  62.034  51.001
19947DC     BB129587  73.195  61.721  51.036
19947DC     BB229588  73.177  61.852  50.700
19947DC     BB329589  73.214  62.055  50.702
19947DC     SC129590  72.977  62.106  50.801
19947DC     SC229591  72.856  62.204  50.652
19947DC     SC329592  72.790  62.187  50.969
19948DT     BB129593  73.441  61.992  50.583
19948DT     BB229594  73.276  62.220  50.357
19948DT     BB329595  73.312  62.416  50.416
19948DT     SC129596  73.145  62.395  50.617
19948DT     SC229597  72.972  62.517  50.578
19948DT     SC329598  73.055  62.388  50.864
19949DT     BB129599  73.458  62.424  50.197
19949DT     BB229600  73.215  62.689  50.161
19949DT     BB329601  73.278  62.857  50.265
19949DT     SC129602  73.217  62.747  50.495
19949DT     SC229603  73.047  62.849  50.580
19949DT     SC329604  73.245  62.645  50.737
19950DT     BB129605  73.310  62.957  50.025
19950DT     BB229606  73.087  63.184  50.194
19950DT     BB329607  73.194  63.313  50.315
19950DT     SC129608  73.236  63.124  50.492
19950DT     SC229609  73.125  63.168  50.671
19950DT     SC329610  73.364  62.950  50.644
19951DA     BB129611  72.931  63.536  50.074
19951DA     BB229612  72.903  63.657  50.419
19951DA     BB329613  73.079  63.764  50.475
19951DA     SC129614  73.224  63.513  50.588
19951DA     SC229615  73.295  63.426  50.811
19951DA     SC329616  73.458  63.278  50.678
19951DA     SC429617  73.319  63.431  50.488
19952DT     BB129618  73.063  63.960  50.508
19952DT     BB229619  73.101  63.951  50.867
19952DT     BB329620  73.291  64.011  50.919
19952DT     SC129621  73.394  63.783  50.840
19952DT     SC229622  73.462  63.672  51.012
19952DT     SC329623  73.538  63.610  50.703
19953DC     BB129624  73.205  64.257  51.014
19953DC     BB229625  73.385  64.116  51.292
19953DC     BB329626  73.585  64.168  51.280
19953DC     SC129627  73.626  63.995  51.087
19953DC     SC229628  73.748  63.833  51.159
19953DC     SC329629  73.685  63.899  50.848
19954DG     BB129630  73.472  64.327  51.640
19954DG     BB229631  73.766  64.121  51.679
19954DG     BB329632  73.928  64.224  51.626
19954DG     SC129633  73.916  64.139  51.332
19954DG     SC229634  74.114  63.965  51.191
19954DG     SC329635  73.922  64.082  50.999
19954DG     SC429636  73.830  64.227  51.229
19955DT     BB129637  74.104  64.282  51.770
19955DT     BB229638  74.358  64.048  51.666
19955DT     BB329639  74.505  64.147  51.559
19955DT     SC129640  74.350  64.168  51.348
19955DT     SC229641  74.425  64.042  51.192
19955DT     SC329642  74.205  64.277  51.157
19956DT     BB129643  74.686  64.127  51.767
19956DT     BB229644  74.853  63.970  51.488
19956DT     BB329645  74.959  64.111  51.381
19956DT     SC129646  74.740  64.208  51.275
19956DT     SC229647  74.734  64.160  51.065
19956DT     SC329648  74.547  64.377  51.215
19957DT     BB129649  75.195  64.011  51.475
19957DT     BB229650  75.227  63.992  51.117
19957DT     BB329651  75.302  64.170  51.043
19957DT     SC129652  75.072  64.291  51.078
19957DT     SC229653  74.984  64.334  50.887
19957DT     SC329654  74.892  64.460  51.171
19958DA     BB129655  75.542  63.862  50.889
19958DA     BB229656  75.446  64.080  50.610
19958DA     BB329657  75.554  64.264  50.619
19958DA     SC129658  75.339  64.409  50.790
19958DA     SC229659  75.172  64.593  50.761
19958DA     SC329660  75.175  64.609  51.017
19958DA     SC429661  75.356  64.405  50.950
19959DG     BB129662  75.665  64.179  50.340
19959DG     BB229663  75.486  64.474  50.229
19959DG     BB329664  75.598  64.636  50.259
19959DG     SC129665  75.491  64.686  50.542
19959DG     SC229666  75.324  64.919  50.627
19959DG     SC329667  75.411  64.760  50.861
19959DG     SC429668  75.564  64.616  50.666
19960DT     BB129669  75.676  64.772  50.090
19960DT     BB229670  75.459  65.058  50.124
19960DT     BB329671  75.564  65.216  50.208
19960DT     SC129672  75.557  65.104  50.446
19960DT     SC229673  75.427  65.218  50.574
19960DT     SC329674  75.639  64.992  50.670
19961DA     BB129675  75.395  65.371  49.857
19961DA     BB229676  75.316  65.604  50.130
19961DA     BB329677  75.488  65.718  50.182
19961DA     SC129678  75.586  65.517  50.398
19961DA     SC229679  75.606  65.508  50.647
19961DA     SC329680  75.776  65.320  50.606
19961DA     SC429681  75.690  65.403  50.352
19962DT     BB129682  75.488  65.920  50.148
19962DT     BB229683  75.446  66.022  50.491
19962DT     BB329684  75.625  66.096  50.565
19962DT     SC129685  75.727  65.855  50.584
19962DT     SC229686  75.747  65.802  50.791
19962DT     SC329687  75.885  65.648  50.541
19963DA     BB129688  75.334  66.387  50.644
19963DA     BB229689  75.520  66.330  50.955
19963DA     BB329690  75.714  66.419  50.942
19963DA     SC129691  75.851  66.165  50.827
19963DA     SC229692  76.015  65.993  50.903
19963DA     SC329693  76.050  65.946  50.653
19963DA     SC429694  75.860  66.151  50.667
19964DA     BB129695  75.621  66.567  51.222
19964DA     BB229696  75.905  66.401  51.385
19964DA     BB329697  76.087  66.501  51.336
19964DA     SC129698  76.143  66.325  51.085
19964DA     SC229699  76.305  66.148  51.016
19964DA     SC329700  76.238  66.209  50.776
19964DA     SC429701  76.089  66.378  50.943
19965DA     BB129702  76.130  66.524  51.663
19965DA     BB229703  76.433  66.322  51.622
19965DA     BB329704  76.593  66.442  51.548
19965DA     SC129705  76.530  66.386  51.249
19965DA     SC229706  76.632  66.262  51.058
19965DA     SC329707  76.487  66.412  50.909
19965DA     SC429708  76.433  66.490  51.173
19966DA     BB129709  76.766  66.339  51.813
19966DA     BB229710  77.002  66.183  51.579
19966DA     BB329711  77.137  66.329  51.501
19966DA     SC129712  76.959  66.398  51.256
19966DA     SC229713  76.965  66.366  51.009
19966DA     SC329714  76.795  66.558  51.000
19966DA     SC429715  76.855  66.520  51.272
19967DA     BB129716  77.372  66.127  51.614
19967DA     BB229717  77.477  66.083  51.266
19967DA     BB329718  77.595  66.250  51.202
19967DA     SC129719  77.353  66.412  51.096
19967DA     SC229720  77.262  66.486  50.875
19967DA     SC329721  77.133  66.662  51.010
19967DA     SC429722  77.282  66.516  51.197
19968DA     BB129723  77.795  66.005  51.130
19968DA     BB229724  77.759  66.108  50.780
19968DA     BB329725  77.876  66.283  50.742
19968DA     SC129726  77.647  66.481  50.811
19968DA     SC229727  77.500  66.643  50.691
19968DA     SC329728  77.463  66.750  50.922
19968DA     SC429729  77.638  66.534  50.963
19969DC     BB129730  78.002  66.242  50.621
19969DC     BB229731  77.846  66.408  50.342
19969DC     BB329732  77.933  66.594  50.312
19969DC     SC129733  77.810  66.694  50.521
19969DC     SC229734  77.662  66.835  50.455
19969DC     SC329735  77.773  66.803  50.758
19970DG     BB129736  77.895  66.338  49.995
19970DG     BB229737  77.759  66.666  49.928
19970DG     BB329738  77.906  66.799  49.913
19970DG     SC129739  77.906  66.868  50.211
19970DG     SC229740  77.827  67.131  50.330
19970DG     SC329741  77.947  66.954  50.535
19970DG     SC429742  77.997  66.782  50.311
19971DT     BB129743  77.861  66.859  49.757
19971DT     BB229744  77.762  67.200  49.822
19971DT     BB329745  77.930  67.321  49.836
19971DT     SC129746  77.987  67.226  50.074
19971DT     SC229747  77.955  67.379  50.222
19971DT     SC329748  78.118  67.103  50.268
19972DA     BB129749  77.624  67.485  49.592
19972DA     BB229750  77.765  67.750  49.802
19972DA     BB329751  77.968  67.788  49.747
19972DA     SC129752  78.086  67.582  49.949
19972DA     SC229753  78.219  67.586  50.160
19972DA     SC329754  78.277  67.343  50.104
19972DA     SC429755  78.112  67.433  49.896
19973DA     BB129756  77.872  68.106  49.714
19973DA     BB229757  78.134  68.198  49.953
19973DA     BB329758  78.325  68.190  49.860
19973DA     SC129759  78.377  67.892  49.937
19973DA     SC229760  78.526  67.764  50.090
19973DA     SC329761  78.474  67.563  49.939
19973DA     SC429762  78.333  67.780  49.830
19974DC     BB129763  78.475  68.370  49.797
19974DC     BB229764  78.726  68.312  50.050
19974DC     BB329765  78.901  68.246  49.962
19974DC     SC129766  78.799  68.008  49.920
19974DC     SC229767  78.896  67.865  50.048
19974DC     SC329768  78.710  67.795  49.792
19975DT     BB129769  79.073  68.491  49.967
19975DT     BB229770  79.280  68.246  50.132
19975DT     BB329771  79.412  68.162  49.997
19975DT     SC129772  79.221  68.019  49.888
19975DT     SC229773  79.253  67.811  49.934
19975DT     SC329774  79.053  67.927  49.707
19976DC     BB129775  79.656  68.298  50.080
19976DC     BB229776  79.741  67.949  50.110
19976DC     BB329777  79.834  67.884  49.937
19976DC     SC129778  79.607  67.882  49.806
19976DC     SC229779  79.551  67.678  49.764
19976DC     SC329780  79.423  67.943  49.626
19977DA     BB129781  80.088  67.777  50.251
19977DA     BB229782  80.036  67.479  50.045
19977DA     BB329783  80.151  67.491  49.866
19977DA     SC129784  79.926  67.629  49.701
19977DA     SC229785  79.773  67.571  49.513
19977DA     SC329786  79.748  67.824  49.482
19977DA     SC429787  79.924  67.789  49.698
19978DT     BB129788  80.292  67.358  49.849
19978DT     BB229789  80.129  67.152  49.602
19978DT     BB329790  80.213  67.184  49.416
19978DT     SC129791  80.092  67.416  49.393
19978DT     SC229792  79.941  67.403  49.240
19978DT     SC329793  80.057  67.677  49.370
19979DA     BB129794  80.190  66.774  49.498
19979DA     BB229795  80.062  66.830  49.159
19979DA     BB329796  80.221  66.881  49.027
19979DA     SC129797  80.196  67.188  49.074
19979DA     SC229798  80.123  67.389  48.946
19979DA     SC329799  80.258  67.522  49.119
19979DA     SC429800  80.286  67.253  49.190
19980DA     BB129801  80.082  66.633  48.861
19980DA     BB229802  80.039  66.868  48.583
19980DA     BB329803  80.226  66.910  48.491
19980DA     SC129804  80.290  67.154  48.672
19980DA     SC229805  80.306  67.402  48.649
19980DA     SC329806  80.445  67.393  48.864
19980DA     SC429807  80.375  67.128  48.806
19981DA     BB129808  80.088  66.814  48.201
19981DA     BB229809  80.165  67.147  48.066
19981DA     BB329810  80.370  67.159  48.012
19981DA     SC129811  80.463  67.264  48.290
19981DA     SC229812  80.551  67.476  48.387
19981DA     SC329813  80.638  67.328  48.578
19981DA     SC429814  80.510  67.155  48.399
19982DG     BB129815  80.304  67.209  47.700
19982DG     BB229816  80.464  67.529  47.754
19982DG     BB329817  80.660  67.513  47.724
19982DG     SC129818  80.723  67.440  48.015
19982DG     SC229819  80.877  67.607  48.208
19982DG     SC329820  80.826  67.338  48.319
19982DG     SC429821  80.720  67.286  48.059
19983DG     BB129822  80.698  67.735  47.462
19983DG     BB229823  80.905  67.934  47.682
19983DG     BB329824  81.095  67.880  47.664
19983DG     SC129825  81.081  67.665  47.882
19983DG     SC229826  81.223  67.673  48.145
19983DG     SC329827  81.096  67.410  48.101
19983DG     SC429828  81.037  67.517  47.842
19984DT     BB129829  81.301  68.011  47.573
19984DT     BB229830  81.461  68.092  47.886
19984DT     BB329831  81.639  67.989  47.904
19984DT     SC129832  81.513  67.764  47.955
19984DT     SC229833  81.546  67.709  48.160
19984DT     SC329834  81.427  67.517  47.928
19985DC     BB129835  81.814  68.211  47.856
19985DC     BB229836  81.911  68.091  48.182
19985DC     BB329837  82.066  67.955  48.165
19985DC     SC129838  81.903  67.769  48.077
19985DC     SC229839  81.883  67.616  48.226
19985DC     SC329840  81.793  67.592  47.915
19986DT     BB129841  82.248  68.135  48.268
19986DT     BB229842  82.257  67.854  48.494
19986DT     BB329843  82.398  67.716  48.431
19986DT     SC129844  82.242  67.635  48.236
19986DT     SC229845  82.174  67.435  48.278
19986DT     SC329846  82.154  67.586  47.992
19987DA     BB129847  82.441  67.811  48.835
19987DA     BB229848  82.430  67.446  48.801
19987DA     BB329849  82.611  67.374  48.712
19987DA     SC129850  82.503  67.393  48.421
19987DA     SC229851  82.436  67.236  48.238
19987DA     SC329852  82.470  67.437  48.082
19987DA     SC429853  82.531  67.529  48.340
19988DT     BB129854  82.678  67.274  48.832
19988DT     BB229855  82.605  66.959  48.673
19988DT     BB329856  82.767  66.896  48.562
19988DT     SC129857  82.717  67.073  48.375
19988DT     SC229858  82.650  66.972  48.197
19988DT     SC329859  82.748  67.280  48.215
19989DC     BB129860  82.749  66.723  48.749
19989DC     BB229861  82.726  66.539  48.440
19989DC     BB329862  82.914  66.524  48.353
19989DC     SC129863  82.908  66.775  48.277
19989DC     SC229864  82.891  66.784  48.063
19989DC     SC329865  82.973  67.030  48.257
19990DT     BB129866  82.861  66.281  48.417
19990DT     BB229867  82.937  66.276  48.064
19990DT     BB329868  83.141  66.292  48.035
19990DT     SC129869  83.138  66.547  48.095
19990DT     SC229870  83.178  66.662  47.917
19990DT     SC329871  83.186  66.773  48.222
19991DT     BB129872  83.120  66.042  47.960
19991DT     BB229873  83.292  66.206  47.689
19991DT     BB329874  83.493  66.227  47.734
19991DT     SC129875  83.442  66.422  47.903
19991DT     SC229876  83.517  66.607  47.823
19991DT     SC329877  83.425  66.556  48.130
19992DT     BB129878  83.560  66.030  47.559
19992DT     BB229879  83.772  66.306  47.464
19992DT     BB329880  83.945  66.305  47.578
19992DT     SC129881  83.816  66.395  47.788
19992DT     SC229882  83.878  66.597  47.829
19992DT     SC329883  83.713  66.404  48.031
19993DT     BB129884  84.121  66.203  47.378
19993DT     BB229885  84.287  66.504  47.488
19993DT     BB329886  84.418  66.460  47.642
19993DT     SC129887  84.220  66.433  47.812
19993DT     SC229888  84.224  66.595  47.953
19993DT     SC329889  84.054  66.321  47.984
19994DT     BB129890  84.667  66.473  47.496
19994DT     BB229891  84.719  66.704  47.769
19994DT     BB329892  84.810  66.607  47.927
19994DT     SC129893  84.586  66.485  47.991
19994DT     SC229894  84.513  66.564  48.177
19994DT     SC329895  84.413  66.291  48.033
19995DT     BB129896  85.067  66.720  47.892
19995DT     BB229897  84.982  66.807  48.232
19995DT     BB329898  85.051  66.661  48.361
19995DT     SC129899  84.860  66.496  48.289
19995DT     SC229900  84.722  66.471  48.452
19995DT     SC329901  84.741  66.283  48.189
19996DT     BB129902  85.258  66.819  48.460
19996DT     BB229903  85.069  66.729  48.754
19996DT     BB329904  85.142  66.552  48.833
19996DT     SC129905  85.031  66.411  48.642
19996DT     SC229906  84.869  66.295  48.724
19996DT     SC329907  85.006  66.251  48.434
19997DC     BB129908  85.256  66.684  49.046
19997DC     BB229909  85.036  66.443  49.199
19997DC     BB329910  85.136  66.264  49.226
19997DC     SC129911  85.122  66.207  48.971
19997DC     SC229912  84.987  66.043  48.941
19997DC     SC329913  85.197  66.157  48.723
19998DA     BB129914  84.974  66.362  49.601
19998DA     BB229915  84.886  66.014  49.530
19998DA     BB329916  85.056  65.888  49.554
19998DA     SC129917  85.147  65.912  49.258
19998DA     SC229918  85.158  65.767  49.055
19998DA     SC329919  85.330  65.937  48.968
19998DA     SC429920  85.252  66.028  49.221
19999DT     BB129921  85.069  65.741  49.711
19999DT     BB229922  85.014  65.452  49.502
19999DT     BB329923  85.191  65.346  49.481
19999DT     SC129924  85.288  65.525  49.315
19999DT     SC229925  85.299  65.440  49.118
19999DT     SC329926  85.445  65.713  49.217
20000DT     BB129927  85.116  65.133  49.652
20000DT     BB229928  85.194  64.970  49.340
20000DT     BB329929  85.393  64.915  49.336
20000DT     SC129930  85.470  65.163  49.298
20000DT     SC229931  85.548  65.183  49.098
20000DT     SC329932  85.584  65.397  49.340
20001DA     BB129933  86.555  65.863  48.661
20001DA     BB229934  86.324  65.615  48.520
20001DA     BB329935  86.130  65.701  48.494
20001DA     SC129936  86.028  65.618  48.776
20001DA     SC229937  85.864  65.457  48.873
20001DA     SC329938  85.873  65.606  49.082
20001DA     SC429939  86.046  65.724  48.896
20002DA     BB129940  86.201  65.571  48.204
20002DA     BB229941  85.902  65.365  48.250
20002DA     BB329942  85.726  65.484  48.230
20002DA     SC129943  85.710  65.553  48.533
20002DA     SC229944  85.563  65.499  48.727
20002DA     SC329945  85.662  65.710  48.835
20002DA     SC429946  85.782  65.688  48.582
20003DT     BB129947  85.619  65.437  48.081
20003DT     BB229948  85.353  65.277  48.264
20003DT     BB329949  85.192  65.406  48.282
20003DT     SC129950  85.316  65.548  48.464
20003DT     SC229951  85.219  65.520  48.654
20003DT     SC329952  85.432  65.754  48.582
20004DG     BB129953  85.063  65.064  48.100
20004DG     BB229954  84.858  65.149  48.386
20004DG     BB329955  84.734  65.297  48.338
20004DG     SC129956  84.928  65.519  48.421
20004DG     SC229957  84.891  65.707  48.650
20004DG     SC329958  85.122  65.788  48.483
20004DG     SC429959  85.032  65.575  48.313
20005DA     BB129960  84.489  65.089  48.465
20005DA     BB229961  84.401  65.345  48.712
20005DA     BB329962  84.292  65.503  48.620
20005DA     SC129963  84.545  65.672  48.553
20005DA     SC229964  84.649  65.886  48.628
20005DA     SC329965  84.776  65.878  48.405
20005DA     SC429966  84.613  65.650  48.409
20006DA     BB129967  84.100  65.420  48.869
20006DA     BB229968  84.143  65.764  48.988
20006DA     BB329969  84.033  65.899  48.865
20006DA     SC129970  84.269  65.950  48.668
20006DA     SC229971  84.424  66.137  48.610
20006DA     SC329972  84.461  66.010  48.390
20006DA     SC429973  84.278  65.857  48.538
20007DA     BB129974  83.948  65.967  49.172
20007DA     BB229975  84.074  66.304  49.106
20007DA     BB329976  83.946  66.406  48.968
20007DA     SC129977  84.102  66.311  48.716
20007DA     SC229978  84.249  66.411  48.541
20007DA     SC329979  84.190  66.204  48.402
20007DA     SC429980  84.052  66.175  48.645
20008DA     BB129981  83.987  66.608  49.222
20008DA     BB229982  84.115  66.848  48.976
20008DA     BB329983  83.958  66.913  48.847
20008DA     SC129984  84.005  66.690  48.636
20008DA     SC229985  84.091  66.672  48.402
20008DA     SC329986  83.967  66.447  48.396
20008DA     SC429987  83.921  66.554  48.651
20009DA     BB129988  84.094  67.195  48.952
20009DA     BB229989  84.143  67.275  48.598
20009DA     BB329990  83.956  67.312  48.503
20009DA     SC129991  83.914  67.015  48.417
20009DA     SC229992  83.913  66.883  48.206
20009DA     SC329993  83.781  66.708  48.341
20009DA     SC429994  83.832  66.920  48.518
20010DA     BB129995  84.099  67.598  48.410
20010DA     BB229996  84.029  67.502  48.063
20010DA     BB329997  83.821  67.523  48.020
20010DA     SC129998  83.750  67.232  48.102
20010DA     SC229999  83.677  67.021  47.991
20010DA     SC330000  83.596  66.950  48.223
20010DA     SC430001  83.705  67.206  48.255
20011DA     BB130002  83.878  67.735  47.758
20011DA     BB230003  83.709  67.496  47.537
20011DA     BB330004  83.498  67.519  47.550
20011DA     SC130005  83.465  67.312  47.779
20011DA     SC230006  83.368  67.084  47.810
20011DA     SC330007  83.364  67.141  48.060
20011DA     SC430008  83.469  67.367  47.931
20012DG     BB130009  83.432  67.617  47.236
20012DG     BB230010  83.247  67.307  47.212
20012DG     BB330011  83.056  67.339  47.258
20012DG     SC130012  83.092  67.285  47.557
20012DG     SC230013  82.977  67.056  47.709
20012DG     SC330014  83.101  67.253  47.892
20012DG     SC430015  83.133  67.407  47.653
20013DA     BB130016  82.900  67.211  46.954
20013DA     BB230017  82.731  66.945  47.141
20013DA     BB330018  82.545  67.016  47.218
20013DA     SC130019  82.665  67.113  47.488
20013DA     SC230020  82.656  67.048  47.728
20013DA     SC330021  82.736  67.287  47.775
20013DA     SC430022  82.714  67.266  47.497
20014DT     BB130023  82.323  66.949  47.154
20014DT     BB230024  82.268  66.741  47.444
20014DT     BB330025  82.118  66.822  47.562
20014DT     SC130026  82.278  67.011  47.650
20014DT     SC230027  82.322  66.977  47.857
20014DT     SC330028  82.378  67.251  47.694
20015DA     BB130029  82.004  66.427  47.491
20015DA     BB230030  81.995  66.481  47.853
20015DA     BB330031  81.821  66.593  47.907
20015DA     SC130032  81.961  66.870  47.881
20015DA     SC230033  82.036  67.053  48.031
20015DA     SC330034  82.033  67.200  47.821
20015DA     SC430035  81.951  66.945  47.739
20016DG     BB130036  81.774  66.337  48.069
20016DG     BB230037  81.825  66.564  48.346
20016DG     BB330038  81.657  66.663  48.384
20016DG     SC130039  81.721  66.894  48.194
20016DG     SC230040  81.777  67.176  48.273
20016DG     SC330041  81.749  67.153  47.979
20016DG     SC430042  81.676  66.883  48.040
20017DA     BB130043  81.745  66.551  48.694
20017DA     BB230044  81.756  66.899  48.809
20017DA     BB330045  81.559  66.979  48.822
20017DA     SC130046  81.558  67.088  48.531
20017DA     SC230047  81.562  67.310  48.417
20017DA     SC330048  81.469  67.185  48.213
20017DA     SC430049  81.499  66.993  48.416
20018DC     BB130050  81.540  67.015  48.988
20018DC     BB230051  81.558  67.375  48.958
20018DC     BB330052  81.367  67.453  48.940
20018DC     SC130053  81.348  67.371  48.692
20018DC     SC230054  81.352  67.542  48.560
20018DC     SC330055  81.263  67.240  48.479
20019DC     BB130056  81.430  67.543  49.175
20019DC     BB230057  81.344  67.834  48.979
20019DC     BB330058  81.138  67.852  48.966
20019DC     SC130059  81.124  67.654  48.793
20019DC     SC230060  81.069  67.732  48.600
20019DC     SC330061  81.062  67.420  48.689
20020DT     BB130062  81.179  68.059  49.119
20020DT     BB230063  80.996  68.186  48.836
20020DT     BB330064  80.794  68.146  48.858
20020DT     SC130065  80.830  67.893  48.800
20020DT     SC230066  80.742  67.850  48.609
20020DT     SC330067  80.837  67.630  48.828
20021DT     BB130068  80.733  68.410  48.919
20021DT     BB230069  80.507  68.331  48.649
20021DT     BB330070  80.331  68.253  48.725
20021DT     SC130071  80.447  68.023  48.777
20021DT     SC230072  80.370  67.873  48.644
20021DT     SC330073  80.541  67.819  48.914
20022DT     BB130074  80.166  68.485  48.689
20022DT     BB230075  79.979  68.227  48.521
20022DT     BB330076  79.844  68.141  48.652
20022DT     SC130077  80.035  68.009  48.775
20022DT     SC230078  80.015  67.799  48.733
20022DT     SC330079  80.198  67.930  48.967
20023DA     BB130080  79.581  68.258  48.343
20023DA     BB230081  79.504  67.908  48.418
20023DA     BB330082  79.383  67.894  48.593
20023DA     SC130083  79.624  67.870  48.788
20023DA     SC230084  79.727  67.696  48.934
20023DA     SC330085  79.837  67.892  49.057
20023DA     SC430086  79.682  68.006  48.852
20024DT     BB130087  79.164  67.826  48.599
20024DT     BB230088  79.231  67.499  48.735
20024DT     BB330089  79.156  67.485  48.928
20024DT     SC130090  79.352  67.633  49.022
20024DT     SC230091  79.481  67.511  49.143
20024DT     SC330092  79.478  67.835  49.136
20025DG     BB130093  78.978  67.191  48.713
20025DG     BB230094  79.137  67.059  49.010
20025DG     BB330095  79.020  67.089  49.168
20025DG     SC130096  79.140  67.363  49.235
20025DG     SC230097  79.301  67.429  49.477
20025DG     SC330098  79.234  67.674  49.325
20025DG     SC430099  79.077  67.493  49.167
20026DA     BB130100  79.087  66.756  49.209
20026DA     BB230101  79.229  66.829  49.539
20026DA     BB330102  79.074  66.876  49.678
20026DA     SC130103  79.083  67.182  49.621
20026DA     SC230104  79.153  67.390  49.739
20026DA     SC330105  79.003  67.512  49.571
20026DA     SC430106  78.984  67.239  49.508
20027DG     BB130107  79.221  66.638  49.803
20027DG     BB230108  79.285  66.879  50.066
20027DG     BB330109  79.121  66.907  50.174
20027DG     SC130110  79.016  67.136  49.999
20027DG     SC230111  78.988  67.421  50.083
20027DG     SC330112  78.862  67.376  49.819
20027DG     SC430113  78.924  67.101  49.873
20028DT     BB130114  79.129  66.856  50.376
20028DT     BB230115  79.117  67.175  50.545
20028DT     BB330116  78.924  67.214  50.608
20028DT     SC130117  78.846  67.270  50.364
20028DT     SC230118  78.805  67.480  50.349
20028DT     SC330119  78.717  67.254  50.134
20029DT     BB130120  78.971  67.156  50.881
20029DT     BB230121  78.812  67.479  50.895
20029DT     BB330122  78.607  67.457  50.910
20029DT     SC130123  78.588  67.389  50.657
20029DT     SC230124  78.489  67.546  50.549
20029DT     SC330125  78.540  67.245  50.442
20030DA     BB130126  78.630  67.677  51.281
20030DA     BB230127  78.349  67.825  51.098
20030DA     BB330128  78.173  67.708  51.125
20030DA     SC130129  78.224  67.529  50.876
20030DA     SC230130  78.125  67.494  50.650
20030DA     SC330131  78.245  67.267  50.655
20030DA     SC430132  78.305  67.392  50.899
20031DC     BB130133  77.923  67.732  51.265
20031DC     BB230134  77.727  67.798  50.969
20031DC     BB330135  77.586  67.649  50.943
20031DC     SC130136  77.769  67.479  50.860
20031DC     SC230137  77.741  67.441  50.650
20031DC     SC330138  77.925  67.267  50.852
20032DG     BB130139  77.305  67.953  50.996
20032DG     BB230140  77.243  67.782  50.684
20032DG     BB330141  77.123  67.626  50.715
20032DG     SC130142  77.351  67.430  50.769
20032DG     SC230143  77.427  67.198  50.597
20032DG     SC330144  77.575  67.192  50.853
20032DG     SC430145  77.406  67.413  50.919
20033DT     BB130146  76.892  67.590  50.624
20033DT     BB230147  76.972  67.360  50.358
20033DT     BB330148  76.895  67.172  50.402
20033DT     SC130149  77.082  67.128  50.580
20033DT     SC230150  77.216  66.976  50.507
20033DT     SC330151  77.198  67.082  50.813
20034DT     BB130152  76.708  67.205  50.206
20034DT     BB230153  76.894  66.911  50.109
20034DT     BB330154  76.811  66.743  50.196
20034DT     SC130155  76.912  66.805  50.430
20034DT     SC230156  77.067  66.665  50.481
20034DT     SC330157  76.925  66.873  50.685
20035DT     BB130158  76.733  66.678  49.951
20035DT     BB230159  76.939  66.403  50.059
20035DT     BB330160  76.827  66.270  50.171
20035DT     SC130161  76.826  66.432  50.377
20035DT     SC230162  76.946  66.348  50.535
20035DT     SC330163  76.737  66.593  50.566
20036DT     BB130164  76.851  66.106  49.964
20036DT     BB230165  76.987  65.924  50.244
20036DT     BB330166  76.835  65.831  50.349
20036DT     SC130167  76.758  66.059  50.454
20036DT     SC230168  76.803  66.059  50.664
20036DT     SC330169  76.607  66.267  50.512
20037DT     BB130170  76.927  65.600  50.253
20037DT     BB230171  76.932  65.560  50.611
20037DT     BB330172  76.746  65.499  50.678
20037DT     SC130173  76.647  65.740  50.644
20037DT     SC230174  76.606  65.828  50.836
20037DT     SC330175  76.497  65.935  50.550
20038DT     BB130176  76.846  65.251  50.728
20038DT     BB230177  76.709  65.359  51.044
20038DT     BB330178  76.507  65.311  51.053
20038DT     SC130179  76.446  65.507  50.890
20038DT     SC230180  76.339  65.659  50.998
20038DT     SC330181  76.357  65.632  50.675
20039DA     BB130182  76.685  65.156  51.400
20039DA     BB230183  76.387  65.344  51.501
20039DA     BB330184  76.210  65.235  51.452
20039DA     SC130185  76.180  65.363  51.170
20039DA     SC230186  76.027  65.522  51.055
20039DA     SC330187  76.118  65.422  50.837
20039DA     SC430188  76.249  65.287  51.046
20040DT     BB130189  76.100  65.171  51.602
20040DT     BB230190  75.833  65.410  51.565
20040DT     BB330191  75.668  65.319  51.478
20040DT     SC130192  75.784  65.318  51.242
20040DT     SC230193  75.683  65.457  51.112
20040DT     SC330194  75.893  65.228  51.019
20041DA     BB130195  75.542  65.518  51.824
20041DA     BB230196  75.315  65.611  51.551
20041DA     BB330197  75.187  65.448  51.502
20041DA     SC130198  75.379  65.331  51.287
20041DA     SC230199  75.385  65.306  51.039
20041DA     SC330200  75.559  65.122  51.082
20041DA     SC430201  75.484  65.219  51.334
20042DC     BB130202  74.993  65.471  51.539
20042DC     BB230203  74.888  65.511  51.196
20042DC     BB330204  74.798  65.337  51.129
20042DC     SC130205  75.030  65.215  51.109
20042DC     SC230206  75.077  65.184  50.901
20042DC     SC330207  75.225  65.042  51.153
20043DT     BB130208  74.557  65.460  51.135
20043DT     BB230209  74.591  65.344  50.795
20043DT     BB330210  74.524  65.148  50.780
20043DT     SC130211  74.739  65.057  50.899
20043DT     SC230212  74.859  64.949  50.756
20043DT     SC330213  74.893  64.940  51.078
20044DA     BB130214  74.326  65.368  50.483
20044DA     BB230215  74.463  65.067  50.326
20044DA     BB330216  74.349  64.895  50.383
20044DA     SC130217  74.524  64.831  50.632
20044DA     SC230218  74.687  64.656  50.703
20044DA     SC330219  74.637  64.735  50.942
20044DA     SC430220  74.479  64.894  50.773
20045DA     BB130221  74.335  64.861  50.058
20045DA     BB230222  74.507  64.540  50.103
20045DA     BB330223  74.372  64.394  50.179
20045DA     SC130224  74.434  64.456  50.477
20045DA     SC230225  74.548  64.344  50.669
20045DA     SC330226  74.414  64.506  50.816
20045DA     SC430227  74.341  64.563  50.552
20046DA     BB130228  74.489  64.236  49.917
20046DA     BB230229  74.612  63.982  50.151
20046DA     BB330230  74.451  63.863  50.223
20046DA     SC130231  74.394  64.044  50.469
20046DA     SC230232  74.418  64.031  50.717
20046DA     SC330233  74.246  64.221  50.723
20046DA     SC430234  74.285  64.161  50.452
20047DC     BB130235  74.458  63.679  50.169
20047DC     BB230236  74.553  63.542  50.489
20047DC     BB330237  74.388  63.459  50.582
20047DC     SC130238  74.291  63.696  50.642
20047DC     SC230239  74.303  63.726  50.854
20047DC     SC330240  74.129  63.904  50.646
20048DG     BB130241  74.679  63.176  50.550
20048DG     BB230242  74.553  63.200  50.888
20048DG     BB330243  74.376  63.111  50.902
20048DG     SC130244  74.217  63.363  50.833
20048DG     SC230245  74.034  63.511  51.017
20048DG     SC330246  74.012  63.614  50.741
20048DG     SC430247  74.186  63.395  50.679
20049DA     BB130248  74.513  62.940  51.172
20049DA     BB230249  74.246  63.067  51.388
20049DA     BB330250  74.062  62.966  51.347
20049DA     SC130251  73.969  63.171  51.133
20049DA     SC230252  73.793  63.346  51.109
20049DA     SC330253  73.833  63.322  50.856
20049DA     SC430254  74.007  63.140  50.979
20050DT     BB130255  73.981  62.843  51.489
20050DT     BB230256  73.705  63.054  51.584
20050DT     BB330257  73.529  62.982  51.503
20050DT     SC130258  73.594  63.069  51.264
20050DT     SC230259  73.466  63.232  51.209
20050DT     SC330260  73.658  63.067  51.008
20051DA     BB130261  73.441  63.015  51.913
20051DA     BB230262  73.164  63.171  51.729
20051DA     BB330263  73.040  63.022  51.642
20051DA     SC130264  73.197  63.013  51.373
20051DA     SC230265  73.160  63.079  51.136
20051DA     SC330266  73.350  62.914  51.082
20051DA     SC430267  73.315  62.905  51.360
20052DA     BB130268  72.789  63.169  51.804
20052DA     BB230269  72.638  63.238  51.477
20052DA     BB330270  72.544  63.063  51.400
20052DA     SC130271  72.797  62.962  51.249
20052DA     SC230272  72.872  62.936  51.013
20052DA     SC330273  73.043  62.770  51.107
20052DA     SC430274  72.895  62.862  51.327
20053DA     BB130275  72.273  63.252  51.376
20053DA     BB230276  72.284  63.194  51.014
20053DA     BB330277  72.207  63.001  50.967
20053DA     SC130278  72.483  62.859  50.986
20053DA     SC230279  72.646  62.751  50.832
20053DA     SC330280  72.736  62.634  51.042
20053DA     SC430281  72.524  62.795  51.128
20054DG     BB130282  71.986  63.148  50.798
20054DG     BB230283  72.150  62.983  50.521
20054DG     BB330284  72.078  62.799  50.500
20054DG     SC130285  72.283  62.671  50.688
20054DG     SC230286  72.497  62.479  50.608
20054DG     SC330287  72.479  62.500  50.903
20054DG     SC430288  72.250  62.662  50.844
20055DA     BB130289  72.018  62.876  50.166
20055DA     BB230290  72.245  62.608  50.062
20055DA     BB330291  72.149  62.419  50.080
20055DA     SC130292  72.244  62.370  50.372
20055DA     SC230293  72.403  62.219  50.492
20055DA     SC330294  72.267  62.277  50.702
20055DA     SC430295  72.147  62.417  50.491
20056DT     BB130296  72.113  62.315  49.911
20056DT     BB230297  72.376  62.072  49.955
20056DT     BB330298  72.295  61.891  50.015
20056DT     SC130299  72.252  61.981  50.258
20056DT     SC230300  72.385  61.883  50.395
20056DT     SC330301  72.123  62.055  50.475
20057DT     BB130302  72.354  61.792  49.771
20057DT     BB230303  72.529  61.578  50.003
20057DT     BB330304  72.403  61.428  50.070
20057DT     SC130305  72.273  61.595  50.225
20057DT     SC230306  72.316  61.549  50.431
20057DT     SC330307  72.076  61.739  50.325
20058DA     BB130308  72.762  61.261  49.934
20058DA     BB230309  72.690  61.125  50.267
20058DA     BB330310  72.526  60.988  50.257
20058DA     SC130311  72.310  61.205  50.312
20058DA     SC230312  72.153  61.266  50.496
20058DA     SC330313  72.023  61.393  50.314
20058DA     SC430314  72.243  61.276  50.185
20059DC     BB130315  72.576  60.812  50.301
20059DC     BB230316  72.423  60.803  50.627
20059DC     BB330317  72.242  60.703  50.618
20059DC     SC130318  72.126  60.906  50.500
20059DC     SC230319  71.985  60.996  50.636
20059DC     SC330320  72.002  61.049  50.317
20060DT     BB130321  72.372  60.523  50.757
20060DT     BB230322  72.087  60.615  50.958
20060DT     BB330323  71.919  60.514  50.893
20060DT     SC130324  71.898  60.669  50.682
20060DT     SC230325  71.725  60.795  50.702
20060DT     SC330326  71.893  60.746  50.430
20061DT     BB130327  71.934  60.369  51.117
20061DT     BB230328  71.602  60.511  51.122
20061DT     BB330329  71.473  60.392  51.013
20061DT     SC130330  71.573  60.477  50.786
20061DT     SC230331  71.428  60.599  50.685
20061DT     SC330332  71.696  60.475  50.553
20062DT     BB130333  71.357  60.310  51.244
20062DT     BB230334  71.083  60.438  51.048
20062DT     BB330335  71.009  60.290  50.924
20062DT     SC130336  71.216  60.311  50.763
20062DT     SC230337  71.152  60.397  50.576
20062DT     SC330338  71.435  60.248  50.630
20063DT     BB130339  70.778  60.251  51.076
20063DT     BB230340  70.652  60.317  50.744
20063DT     BB330341  70.634  60.140  50.639
20063DT     SC130342  70.893  60.125  50.604
20063DT     SC230343  70.940  60.158  50.397
20063DT     SC330344  71.141  60.035  50.619
20064DA     BB130345  70.248  60.305  50.608
20064DA     BB230346  70.350  60.205  50.270
20064DA     BB330347  70.332  59.994  50.247
20064DA     SC130348  70.624  59.935  50.339
20064DA     SC230349  70.837  59.856  50.237
20064DA     SC330350  70.906  59.797  50.477
20064DA     SC430351  70.648  59.905  50.495
20065DC     BB130352  70.183  59.890  50.113
20065DC     BB230353  70.418  59.798  49.856
20065DC     BB330354  70.445  59.593  49.855
20065DC     SC130355  70.593  59.605  50.072
20065DC     SC230356  70.797  59.558  50.022
20065DC     SC330357  70.671  59.567  50.321
20066DT     BB130358  70.299  59.555  49.621
20066DT     BB230359  70.624  59.416  49.546
20066DT     BB330360  70.628  59.215  49.595
20066DT     SC130361  70.641  59.270  49.852
20066DT     SC230362  70.835  59.217  49.926
20066DT     SC330363  70.574  59.283  50.107
20067DG     BB130364  70.721  59.246  49.201
20067DG     BB230365  70.972  59.059  49.382
20067DG     BB330366  70.909  58.872  49.412
20067DG     SC130367  70.774  58.935  49.679
20067DG     SC230368  70.859  58.833  49.947
20067DG     SC330369  70.598  58.971  49.965
20067DG     SC430370  70.621  58.983  49.679
20068DC     BB130371  71.026  58.724  49.328
20068DC     BB230372  71.192  58.587  49.618
20068DC     BB330373  71.099  58.411  49.676
20068DC     SC130374  70.896  58.544  49.777
20068DC     SC230375  70.899  58.527  49.992
20068DC     SC330376  70.650  58.632  49.813
20069DA     BB130377  71.515  58.368  49.651
20069DA     BB230378  71.402  58.224  49.969
20069DA     BB330379  71.292  58.045  49.934
20069DA     SC130380  71.017  58.190  49.916
20069DA     SC230381  70.807  58.207  50.050
20069DA     SC330382  70.698  58.285  49.832
20069DA     SC430383  70.966  58.236  49.770
20070DT     BB130384  71.377  57.898  50.004
20070DT     BB230385  71.152  57.831  50.277
20070DT     BB330386  71.019  57.682  50.224
20070DT     SC130387  70.883  57.846  50.071
20070DT     SC230388  70.691  57.885  50.159
20070DT     SC330389  70.777  57.953  49.854
20071DC     BB130390  71.149  57.514  50.389
20071DC     BB230391  70.805  57.496  50.496
20071DC     BB330392  70.702  57.358  50.381
20071DC     SC130393  70.695  57.522  50.176
20071DC     SC230394  70.493  57.589  50.145
20071DC     SC330395  70.738  57.620  49.935
20072DA     BB130396  70.626  57.234  50.776
20072DA     BB230397  70.305  57.236  50.599
20072DA     BB330398  70.293  57.070  50.467
20072DA     SC130399  70.414  57.222  50.224
20072DA     SC230400  70.336  57.310  50.004
20072DA     SC330401  70.585  57.308  49.939
20072DA     SC430402  70.573  57.212  50.202
20073DA     BB130403  70.009  56.986  50.622
20073DA     BB230404  69.836  57.029  50.301
20073DA     BB330405  69.865  56.858  50.178
20073DA     SC130406  70.121  56.970  50.041
20073DA     SC230407  70.189  57.053  49.816
20073DA     SC330408  70.429  57.006  49.893
20073DA     SC430409  70.263  56.932  50.107
20074DG     BB130410  69.552  56.808  50.180
20074DG     BB230411  69.580  56.880  49.826
20074DG     BB330412  69.626  56.714  49.727
20074DG     SC130413  69.928  56.752  49.751
20074DG     SC230414  70.116  56.809  49.526
20074DG     SC330415  70.265  56.753  49.776
20074DG     SC430416  70.004  56.693  49.879
20075DA     BB130417  69.353  56.773  49.518
20075DA     BB230418  69.577  56.795  49.228
20075DA     BB330419  69.634  56.600  49.163
20075DA     SC130420  69.887  56.587  49.343
20075DA     SC230421  70.135  56.590  49.313
20075DA     SC330422  70.144  56.486  49.548
20075DA     SC430423  69.872  56.522  49.489
20076DA     BB130424  69.520  56.718  48.880
20076DA     BB230425  69.858  56.669  48.746
20076DA     BB330426  69.894  56.462  48.708
20076DA     SC130427  70.010  56.406  48.991
20076DA     SC230428  70.231  56.351  49.092
20076DA     SC330429  70.096  56.263  49.292
20076DA     SC430430  69.908  56.355  49.105
20077DA     BB130431  69.971  56.590  48.417
20077DA     BB230432  70.307  56.454  48.470
20077DA     BB330433  70.307  56.242  48.443
20077DA     SC130434  70.248  56.180  48.742
20077DA     SC230435  70.368  56.083  48.938
20077DA     SC330436  70.134  56.044  49.036
20077DA     SC430437  70.094  56.164  48.786
20078DT     BB130438  70.410  56.168  48.288
20078DT     BB230439  70.684  56.033  48.479
20078DT     BB330440  70.666  55.827  48.493
20078DT     SC130441  70.473  55.849  48.669
20078DT     SC230442  70.544  55.782  48.861
20078DT     SC330443  70.234  55.830  48.779
20079DA     BB130444  71.053  55.904  48.351
20079DA     BB230445  71.081  55.668  48.630
20079DA     BB330446  71.014  55.474  48.570
20079DA     SC130447  70.719  55.523  48.656
20079DA     SC230448  70.563  55.443  48.833
20079DA     SC330449  70.376  55.527  48.678
20079DA     SC430450  70.617  55.580  48.545
20080DA     BB130451  71.310  55.384  48.680
20080DA     BB230452  71.135  55.175  48.925
20080DA     BB330453  71.059  54.999  48.832
20080DA     SC130454  70.784  55.126  48.761
20080DA     SC230455  70.546  55.102  48.832
20080DA     SC330456  70.489  55.214  48.609
20080DA     SC430457  70.769  55.195  48.617
20081DA     BB130458  71.228  54.854  49.073
20081DA     BB230459  70.908  54.718  49.190
20081DA     BB330460  70.847  54.555  49.065
20081DA     SC130461  70.685  54.735  48.869
20081DA     SC230462  70.446  54.775  48.810
20081DA     SC330463  70.538  54.874  48.592
20081DA     SC430464  70.762  54.791  48.739
20082DT     BB130465  70.841  54.384  49.152
20082DT     BB230466  70.482  54.359  49.175
20082DT     BB330467  70.411  54.232  49.027
20082DT     SC130468  70.449  54.414  48.842
20082DT     SC230469  70.258  54.484  48.771
20082DT     SC330470  70.544  54.533  48.627
20083DT     BB130471  70.358  54.058  49.223
20083DT     BB230472  70.042  54.109  49.056
20083DT     BB330473  70.029  53.985  48.890
20083DT     SC130474  70.196  54.137  48.755
20083DT     SC230475  70.089  54.237  48.597
20083DT     SC330476  70.411  54.212  48.623
20084DT     BB130477  69.848  53.842  49.024
20084DT     BB230478  69.682  53.935  48.718
20084DT     BB330479  69.731  53.803  48.567
20084DT     SC130480  69.971  53.907  48.543
20084DT     SC230481  69.984  54.011  48.355
20084DT     SC330482  70.234  53.929  48.545
20085DA     BB130483  69.310  53.809  48.568
20085DA     BB230484  69.420  53.847  48.221
20085DA     BB330485  69.491  53.660  48.145
20085DA     SC130486  69.786  53.710  48.231
20085DA     SC230487  70.005  53.756  48.121
20085DA     SC330488  70.109  53.676  48.341
20085DA     SC430489  69.832  53.656  48.375
20086DT     BB130490  69.391  53.533  47.984
20086DT     BB230491  69.625  53.608  47.720
20086DT     BB330492  69.739  53.440  47.677
20086DT     SC130493  69.881  53.472  47.896
20086DT     SC230494  70.081  53.531  47.844
20086DT     SC330495  69.984  53.423  48.134
20087DA     BB130496  69.582  53.503  47.288
20087DA     BB230497  69.945  53.472  47.250
20087DA     BB330498  70.003  53.267  47.252
20087DA     SC130499  70.046  53.256  47.560
20087DA     SC230500  70.236  53.236  47.719
20087DA     SC330501  70.060  53.161  47.890
20087DA     SC430502  69.921  53.211  47.651
20088DG     BB130503  70.121  53.259  46.946
20088DG     BB230504  70.438  53.224  47.116
20088DG     BB330505  70.485  53.032  47.133
20088DG     SC130506  70.345  52.996  47.403
20088DG     SC230507  70.478  52.939  47.664
20088DG     SC330508  70.184  52.916  47.689
20088DG     SC430509  70.190  52.956  47.405
20089DA     BB130510  70.782  53.106  46.983
20089DA     BB230511  70.954  53.029  47.298
20089DA     BB330512  70.986  52.819  47.315
20089DA     SC130513  70.717  52.765  47.462
20089DA     SC230514  70.642  52.698  47.691
20089DA     SC330515  70.423  52.629  47.576
20089DA     SC430516  70.590  52.726  47.372
20090DA     BB130517  71.228  53.019  47.362
20090DA     BB230518  71.212  52.892  47.706
20090DA     BB330519  71.265  52.686  47.711
20090DA     SC130520  70.973  52.585  47.674
20090DA     SC230521  70.799  52.469  47.810
20090DA     SC330522  70.692  52.409  47.584
20090DA     SC430523  70.923  52.557  47.524
20091DA     BB130524  71.359  52.933  47.922
20091DA     BB230525  71.215  52.708  48.173
20091DA     BB330526  71.308  52.517  48.164
20091DA     SC130527  71.105  52.400  47.960
20091DA     SC230528  70.922  52.230  47.958
20091DA     SC330529  70.954  52.228  47.704
20091DA     SC430530  71.141  52.412  47.804
20092DG     BB130531  71.270  52.684  48.432
20092DG     BB230532  71.095  52.379  48.515
20092DG     BB330533  71.220  52.224  48.507
20092DG     SC130534  71.167  52.166  48.211
20092DG     SC230535  71.032  51.923  48.102
20092DG     SC330536  71.147  52.086  47.884
20092DG     SC430537  71.255  52.240  48.100
20093DA     BB130538  71.045  52.188  48.804
20093DA     BB230539  70.963  51.846  48.700
20093DA     BB330540  71.140  51.728  48.686
20093DA     SC130541  71.191  51.795  48.386
20093DA     SC230542  71.182  51.677  48.167
20093DA     SC330543  71.334  51.866  48.082
20093DA     SC430544  71.285  51.921  48.353
20094DT     BB130545  71.147  51.590  48.812
20094DT     BB230546  71.106  51.312  48.586
20094DT     BB330547  71.290  51.227  48.543
20094DT     SC130548  71.353  51.427  48.385
20094DT     SC230549  71.356  51.358  48.181
20094DT     SC330550  71.480  51.637  48.290
20095DG     BB130551  71.068  50.925  48.705
20095DG     BB230552  71.222  50.821  48.394
20095DG     BB330553  71.413  50.776  48.425
20095DG     SC130554  71.514  51.060  48.372
20095DG     SC230555  71.684  51.146  48.142
20095DG     SC330556  71.657  51.364  48.340
20095DG     SC430557  71.522  51.164  48.494
20096DT     BB130558  71.506  50.564  48.398
20096DT     BB230559  71.694  50.605  48.093
20096DT     BB330560  71.897  50.614  48.136
20096DT     SC130561  71.874  50.859  48.228
20096DT     SC230562  71.972  50.995  48.094
20096DT     SC330563  71.879  51.061  48.397
20097DT     BB130564  71.942  50.360  48.036
20097DT     BB230565  72.171  50.569  47.850
20097DT     BB330566  72.351  50.583  47.951
20097DT     SC130567  72.247  50.747  48.128
20097DT     SC230568  72.331  50.944  48.101
20097DT     SC330569  72.164  50.842  48.360
20098DA     BB130570  72.447  50.464  47.561
20098DA     BB230571  72.668  50.743  47.649
20098DA     BB330572  72.818  50.678  47.786
20098DA     SC130573  72.651  50.747  48.039
20098DA     SC230574  72.657  50.913  48.224
20098DA     SC330575  72.508  50.748  48.351
20098DA     SC430576  72.560  50.630  48.102
20099DT     BB130577  73.020  50.669  47.729
20099DT     BB230578  73.135  50.953  47.920
20099DT     BB330579  73.244  50.889  48.083
20099DT     SC130580  73.027  50.814  48.209
20099DT     SC230581  72.992  50.944  48.377
20099DT     SC330582  72.850  50.657  48.326
20100DC     BB130583  73.491  50.963  47.975
20100DC     BB230584  73.486  51.131  48.294
20100DC     BB330585  73.567  51.008  48.440
20100DC     SC130586  73.351  50.859  48.445
20100DC     SC230587  73.247  50.889  48.631
20100DC     SC330588  73.194  50.648  48.421
20101DA     BB130589  73.804  51.354  48.483
20101DA     BB230590  73.691  51.260  48.819
20101DA     BB330591  73.805  51.094  48.891
20101DA     SC130592  73.609  50.880  48.778
20101DA     SC230593  73.446  50.714  48.868
20101DA     SC330594  73.471  50.598  48.640
20101DA     SC430595  73.639  50.822  48.632
20102DA     BB130596  73.888  51.276  49.161
20102DA     BB230597  73.714  51.027  49.367
20102DA     BB330598  73.839  50.858  49.401
20102DA     SC130599  73.738  50.703  49.150
20102DA     SC230600  73.601  50.501  49.101
20102DA     SC330601  73.714  50.505  48.871
20102DA     SC430602  73.820  50.722  49.013
20103DG     BB130603  73.837  50.911  49.716
20103DG     BB230604  73.659  50.596  49.727
20103DG     BB330605  73.788  50.445  49.739
20103DG     SC130606  73.815  50.412  49.436
20103DG     SC230607  73.722  50.176  49.277
20103DG     SC330608  73.883  50.360  49.110
20103DG     SC430609  73.925  50.497  49.358
20104DA     BB130610  73.627  50.319  50.025
20104DA     BB230611  73.546  50.009  49.846
20104DA     BB330612  73.714  49.878  49.844
20104DA     SC130613  73.829  49.988  49.577
20104DA     SC230614  73.858  49.909  49.342
20104DA     SC330615  74.035  50.094  49.324
20104DA     SC430616  73.936  50.107  49.586
20105DT     BB130617  73.716  49.687  49.951
20105DT     BB230618  73.670  49.482  49.657
20105DT     BB330619  73.845  49.379  49.615
20105DT     SC130620  73.960  49.596  49.523
20105DT     SC230621  73.986  49.577  49.310
20105DT     SC330622  74.130  49.796  49.501
20106DA     BB130623  73.537  49.096  49.630
20106DA     BB230624  73.717  49.050  49.314
20106DA     BB330625  73.905  48.954  49.349
20106DA     SC130626  74.062  49.220  49.386
20106DA     SC230627  74.234  49.351  49.262
20106DA     SC330628  74.280  49.465  49.488
20106DA     SC430629  74.076  49.278  49.535
20107DG     BB130630  73.775  48.749  49.162
20107DG     BB230631  74.039  48.859  48.941
20107DG     BB330632  74.209  48.766  48.986
20107DG     SC130633  74.300  48.976  49.188
20107DG     SC230634  74.536  49.158  49.159
20107DG     SC330635  74.421  49.177  49.431
20107DG     SC430636  74.255  48.962  49.341
20108DT     BB130637  74.278  48.663  48.832
20108DT     BB230638  74.552  48.872  48.724
20108DT     BB330639  74.730  48.799  48.800
20108DT     SC130640  74.673  48.890  49.040
20108DT     SC230641  74.805  49.054  49.087
20108DT     SC330642  74.619  48.893  49.298
20109DG     BB130643  74.707  48.870  48.399
20109DG     BB230644  74.988  49.035  48.554
20109DG     BB330645  75.125  48.901  48.608
20109DG     SC130646  75.006  48.856  48.887
20109DG     SC230647  75.135  48.930  49.146
20109DG     SC330648  74.891  48.768  49.191
20109DG     SC430649  74.892  48.745  48.906
20110DT     BB130650  75.262  48.969  48.523
20110DT     BB230651  75.475  49.084  48.791
20110DT     BB330652  75.589  48.927  48.863
20110DT     SC130653  75.382  48.824  48.988
20110DT     SC230654  75.409  48.845  49.201
20110DT     SC330655  75.191  48.655  49.055
20111DT     BB130656  75.760  49.084  48.756
20111DT     BB230657  75.869  49.033  49.096
20111DT     BB330658  75.950  48.843  49.116
20111DT     SC130659  75.713  48.732  49.110
20111DT     SC230660  75.666  48.653  49.304
20111DT     SC330661  75.510  48.584  49.028
20112DA     BB130662  76.212  49.131  49.280
20112DA     BB230663  76.185  48.850  49.514
20112DA     BB330664  76.280  48.677  49.433
20112DA     SC130665  76.022  48.570  49.295
20112DA     SC230666  75.863  48.380  49.323
20112DA     SC330667  75.798  48.426  49.079
20112DA     SC430668  75.997  48.613  49.143
20113DT     BB130669  76.442  48.611  49.524
20113DT     BB230670  76.298  48.314  49.670
20113DT     BB330671  76.353  48.148  49.560
20113DT     SC130672  76.185  48.210  49.369
20113DT     SC230673  76.023  48.068  49.366
20113DT     SC330674  76.094  48.279  49.131
20114DT     BB130675  76.525  48.067  49.755
20114DT     BB230676  76.306  47.784  49.706
20114DT     BB330677  76.378  47.664  49.554
20114DT     SC130678  76.300  47.836  49.371
20114DT     SC230679  76.136  47.752  49.260
20114DT     SC330680  76.311  48.011  49.175
20115DA     BB130681  76.314  47.412  49.883
20115DA     BB230682  76.160  47.255  49.590
20115DA     BB330683  76.310  47.177  49.460
20115DA     SC130684  76.335  47.438  49.292
20115DA     SC230685  76.280  47.515  49.062
20115DA     SC330686  76.451  47.701  49.105
20115DA     SC430687  76.446  47.545  49.338
20116DT     BB130688  76.316  46.982  49.439
20116DT     BB230689  76.181  46.967  49.105
20116DT     BB330690  76.334  46.935  48.968
20116DT     SC130691  76.417  47.183  48.991
20116DT     SC230692  76.375  47.289  48.809
20116DT     SC330693  76.573  47.388  49.046
20117DT     BB130694  76.244  46.683  48.932
20117DT     BB230695  76.248  46.826  48.601
20117DT     BB330696  76.436  46.808  48.518
20117DT     SC130697  76.531  47.000  48.669
20117DT     SC230698  76.575  47.172  48.548
20117DT     SC330699  76.676  47.123  48.852
20118DA     BB130700  76.180  46.638  48.229
20118DA     BB230701  76.406  46.868  48.054
20118DA     BB330702  76.601  46.783  48.039
20118DA     SC130703  76.702  46.906  48.306
20118DA     SC230704  76.864  47.081  48.378
20118DA     SC330705  76.859  46.963  48.606
20118DA     SC430706  76.687  46.817  48.439
20119DA     BB130707  76.592  46.819  47.702
20119DA     BB230708  76.882  47.042  47.730
20119DA     BB330709  77.062  46.928  47.747
20119DA     SC130710  77.054  46.919  48.058
20119DA     SC230711  77.183  47.016  48.249
20119DA     SC330712  77.080  46.826  48.388
20119DA     SC430713  76.982  46.793  48.127
20120DT     BB130714  77.248  46.899  47.588
20120DT     BB230715  77.477  47.116  47.765
20120DT     BB330716  77.634  47.005  47.841
20120DT     SC130717  77.483  46.906  48.031
20120DT     SC230718  77.545  46.987  48.221
20120DT     SC330719  77.351  46.731  48.177
20121DC     BB130720  77.853  47.075  47.653
20121DC     BB230721  77.984  47.172  47.975
20121DC     BB330722  78.102  47.021  48.052
20121DC     SC130723  77.892  46.876  48.112
20121DC     SC230724  77.869  46.867  48.326
20121DC     SC330725  77.720  46.676  48.111
20122DA     BB130726  78.332  47.370  48.062
20122DA     BB230727  78.333  47.224  48.399
20122DA     BB330728  78.463  47.055  48.406
20122DA     SC130729  78.240  46.851  48.332
20122DA     SC230730  78.113  46.667  48.444
20122DA     SC330731  78.062  46.585  48.206
20122DA     SC430732  78.220  46.815  48.176
20123DT     BB130733  78.603  47.085  48.521
20123DT     BB230734  78.479  46.879  48.790
20123DT     BB330735  78.576  46.696  48.789
20123DT     SC130736  78.439  46.615  48.581
20123DT     SC230737  78.303  46.460  48.641
20123DT     SC330738  78.384  46.534  48.336
20124DG     BB130739  78.584  46.896  49.145
20124DG     BB230740  78.462  46.558  49.179
20124DG     BB330741  78.612  46.429  49.158
20124DG     SC130742  78.578  46.402  48.855
20124DG     SC230743  78.491  46.156  48.709
20124DG     SC330744  78.583  46.364  48.520
20124DG     SC430745  78.656  46.504  48.759
20125DT     BB130746  78.628  46.322  49.318
20125DT     BB230747  78.516  45.996  49.210
20125DT     BB330748  78.677  45.883  49.147
20125DT     SC130749  78.696  46.019  48.924
20125DT     SC230750  78.638  45.894  48.759
20125DT     SC330751  78.795  46.177  48.737
20126DT     BB130752  78.638  45.741  49.367
20126DT     BB230753  78.633  45.499  49.100
20126DT     BB330754  78.827  45.447  49.048
20126DT     SC130755  78.864  45.676  48.925
20126DT     SC230756  78.877  45.641  48.713
20126DT     SC330757  78.963  45.913  48.866
20127DC     BB130758  78.814  45.197  49.171
20127DC     BB230759  78.920  45.121  48.834
20127DC     BB330760  79.127  45.127  48.822
20127DC     SC130761  79.127  45.390  48.830
20127DC     SC230762  79.187  45.467  48.638
20127DC     SC330763  79.171  45.636  48.914
20128DG     BB130764  79.074  44.729  48.722
20128DG     BB230765  79.282  44.893  48.476
20128DG     BB330766  79.471  44.897  48.539
20128DG     SC130767  79.443  45.166  48.683
20128DG     SC230768  79.577  45.421  48.607
20128DG     SC330769  79.442  45.447  48.869
20128DG     SC430770  79.395  45.167  48.836
20129DA     BB130771  79.620  44.734  48.253
20129DA     BB230772  79.812  45.036  48.172
20129DA     BB330773  79.995  45.040  48.282
20129DA     SC130774  79.875  45.195  48.523
20129DA     SC230775  79.894  45.422  48.624
20129DA     SC330776  79.799  45.314  48.836
20129DA     SC430777  79.816  45.109  48.645
20130DT     BB130778  80.205  45.022  48.191
20130DT     BB230779  80.274  45.376  48.213
20130DT     BB330780  80.424  45.410  48.352
20130DT     SC130781  80.259  45.366  48.552
20130DT     SC230782  80.223  45.551  48.655
20130DT     SC330783  80.152  45.255  48.765
20131DT     BB130784  80.592  45.474  48.149
20131DT     BB230785  80.572  45.772  48.352
20131DT     BB330786  80.713  45.764  48.502
20131DT     SC130787  80.573  45.588  48.637
20131DT     SC230788  80.496  45.679  48.815
20131DT     SC330789  80.506  45.361  48.754
20132DT     BB130790  80.807  45.959  48.360
20132DT     BB230791  80.740  46.098  48.686
20132DT     BB330792  80.893  46.048  48.817
20132DT     SC130793  80.808  45.801  48.835
20132DT     SC230794  80.728  45.768  49.033
20132DT     SC330795  80.803  45.538  48.816
20133DA     BB130796  80.773  46.453  48.824
20133DA     BB230797  80.796  46.329  49.168
20133DA     BB330798  80.999  46.286  49.218
20133DA     SC130799  80.986  45.990  49.124
20133DA     SC230800  80.989  45.763  49.228
20133DA     SC330801  81.057  45.680  48.995
20133DA     SC430802  81.029  45.958  48.973
20134DT     BB130803  81.047  46.395  49.348
20134DT     BB230804  81.065  46.152  49.614
20134DT     BB330805  81.260  46.084  49.634
20134DT     SC130806  81.240  45.938  49.416
20134DT     SC230807  81.240  45.729  49.470
20134DT     SC330808  81.284  45.849  49.172
20135DT     BB130809  81.280  46.223  49.863
20135DT     BB230810  81.372  45.886  49.955
20135DT     BB330811  81.573  45.855  49.916
20135DT     SC130812  81.529  45.839  49.658
20135DT     SC230813  81.560  45.637  49.592
20135DT     SC330814  81.537  45.898  49.401
20136DA     BB130815  81.541  45.747  50.323
20136DA     BB230816  81.727  45.480  50.154
20136DA     BB330817  81.928  45.542  50.115
20136DA     SC130818  81.863  45.658  49.834
20136DA     SC230819  81.911  45.602  49.596
20136DA     SC330820  81.854  45.847  49.548
20136DA     SC430821  81.825  45.814  49.825
20137DG     BB130822  82.052  45.312  50.303
20137DG     BB230823  82.188  45.186  49.992
20137DG     BB330824  82.365  45.269  49.957
20137DG     SC130825  82.251  45.508  49.803
20137DG     SC230826  82.290  45.563  49.512
20137DG     SC330827  82.159  45.792  49.646
20137DG     SC430828  82.209  45.639  49.883
20138DT     BB130829  82.583  45.156  49.946
20138DT     BB230830  82.628  45.149  49.588
20138DT     BB330831  82.780  45.278  49.533
20138DT     SC130832  82.626  45.487  49.572
20138DT     SC230833  82.580  45.579  49.383
20138DT     SC330834  82.536  45.713  49.675
20139DA     BB130835  82.856  44.904  49.364
20139DA     BB230836  82.872  45.156  49.097
20139DA     BB330837  83.052  45.269  49.113
20139DA     SC130838  82.927  45.488  49.295
20139DA     SC230839  82.862  45.728  49.278
20139DA     SC330840  82.871  45.729  49.534
20139DA     SC430841  82.939  45.468  49.454
20140DT     BB130842  83.138  45.237  48.968
20140DT     BB230843  83.073  45.555  48.810
20140DT     BB330844  83.231  45.685  48.844
20140DT     SC130845  83.158  45.722  49.093
20140DT     SC230846  83.085  45.923  49.116
20140DT     SC330847  83.164  45.721  49.357
20141DG     BB130848  83.127  45.639  48.453
20141DG     BB230849  83.145  45.987  48.551
20141DG     BB330850  83.335  46.042  48.573
20141DG     SC130851  83.348  45.966  48.869
20141DG     SC230852  83.380  46.155  49.097
20141DG     SC330853  83.404  45.875  49.189
20141DG     SC430854  83.389  45.816  48.909
20142DT     BB130855  83.374  46.187  48.453
20142DT     BB230856  83.414  46.469  48.674
20142DT     BB330857  83.614  46.491  48.725
20142DT     SC130858  83.603  46.285  48.888
20142DT     SC230859  83.620  46.354  49.091
20142DT     SC330860  83.652  46.047  48.990
20143DA     BB130861  83.467  46.862  48.594
20143DA     BB230862  83.660  46.919  48.900
20143DA     BB330863  83.869  46.893  48.862
20143DA     SC130864  83.869  46.590  48.932
20143DA     SC230865  83.959  46.442  49.112
20143DA     SC330866  83.931  46.253  48.942
20143DA     SC430867  83.846  46.486  48.812
20144DA     BB130868  83.895  47.197  48.993
20144DA     BB230869  84.119  47.053  49.245
20144DA     BB330870  84.311  47.016  49.162
20144DA     SC130871  84.243  46.725  49.073
20144DA     SC230872  84.307  46.493  49.138
20144DA     SC330873  84.222  46.426  48.906
20144DA     SC430874  84.187  46.704  48.924
20145DA     BB130875  84.441  47.203  49.406
20145DA     BB230876  84.632  46.910  49.515
20145DA     BB330877  84.804  46.883  49.391
20145DA     SC130878  84.659  46.698  49.187
20145DA     SC230879  84.664  46.458  49.120
20145DA     SC330880  84.553  46.538  48.903
20145DA     SC430881  84.592  46.768  49.059
20146DA     BB130882  84.994  46.891  49.667
20146DA     BB230883  85.102  46.549  49.589
20146DA     BB330884  85.256  46.552  49.443
20146DA     SC130885  85.061  46.532  49.201
20146DA     SC230886  84.999  46.364  49.027
20146DA     SC330887  84.907  46.565  48.896
20146DA     SC430888  85.011  46.669  49.134
20147DA     BB130889  85.438  46.377  49.659
20147DA     BB230890  85.446  46.105  49.413
20147DA     BB330891  85.594  46.144  49.264
20147DA     SC130892  85.398  46.294  49.074
20147DA     SC230893  85.290  46.256  48.853
20147DA     SC330894  85.256  46.510  48.848
20147DA     SC430895  85.387  46.454  49.089
20148DA     BB130896  85.707  45.847  49.348
20148DA     BB230897  85.638  45.740  49.004
20148DA     BB330898  85.792  45.810  48.873
20148DA     SC130899  85.646  46.077  48.807
20148DA     SC230900  85.532  46.181  48.611
20148DA     SC330901  85.571  46.404  48.732
20148DA     SC430902  85.681  46.205  48.897
20149DG     BB130903  85.841  45.508  48.815
20149DG     BB230904  85.734  45.600  48.481
20149DG     BB330905  85.887  45.674  48.379
20149DG     SC130906  85.837  45.963  48.467
20149DG     SC230907  85.751  46.188  48.290
20149DG     SC330908  85.823  46.288  48.559
20149DG     SC430909  85.905  46.016  48.602
20150DA     BB130910  85.811  45.445  48.130
20150DA     BB230911  85.760  45.718  47.890
20150DA     BB330912  85.948  45.794  47.824
20150DA     SC130913  85.966  46.010  48.048
20150DA     SC230914  85.954  46.258  48.066
20150DA     SC330915  86.075  46.227  48.290
20150DA     SC430916  86.043  45.970  48.183
20151DT     BB130917  85.991  45.768  47.635
20151DT     BB230918  85.941  46.109  47.529
20151DT     BB330919  86.124  46.203  47.505
20151DT     SC130920  86.157  46.223  47.765
20151DT     SC230921  86.142  46.429  47.823
20151DT     SC330922  86.260  46.188  48.005
20152DA     BB130923  85.901  46.264  47.154
20152DA     BB230924  86.035  46.588  47.261
20152DA     BB330925  86.246  46.596  47.226
20152DA     SC130926  86.321  46.486  47.507
20152DA     SC230927  86.427  46.571  47.716
20152DA     SC330928  86.472  46.324  47.770
20152DA     SC430929  86.342  46.327  47.521
20153DA     BB130930  86.160  46.871  47.065
20153DA     BB230931  86.374  47.053  47.300
20153DA     BB330932  86.580  47.022  47.252
20153DA     SC130933  86.610  46.773  47.436
20153DA     SC230934  86.726  46.713  47.649
20153DA     SC330935  86.699  46.470  47.571
20153DA     SC430936  86.585  46.628  47.370
20154DG     BB130937  86.589  47.332  47.213
20154DG     BB230938  86.815  47.316  47.495
20154DG     BB330939  86.998  47.269  47.432
20154DG     SC130940  86.956  46.967  47.458
20154DG     SC230941  87.095  46.787  47.651
20154DG     SC330942  86.939  46.630  47.454
20154DG     SC430943  86.896  46.886  47.333
20155DA     BB130944  87.121  47.550  47.601
20155DA     BB230945  87.332  47.334  47.809
20155DA     BB330946  87.505  47.273  47.700
20155DA     SC130947  87.373  47.014  47.588
20155DA     SC230948  87.394  46.768  47.619
20155DA     SC330949  87.278  46.750  47.391
20155DA     SC430950  87.301  47.024  47.445
20156DG     BB130951  87.668  47.420  47.924
20156DG     BB230952  87.781  47.084  47.998
20156DG     BB330953  87.933  47.036  47.879
20156DG     SC130954  87.755  46.919  47.659
20156DG     SC230955  87.742  46.632  47.578
20156DG     SC330956  87.589  46.802  47.389
20156DG     SC430957  87.699  47.016  47.544
20157DC     BB130958  88.135  46.990  47.961
20157DC     BB230959  88.139  46.631  47.931
20157DC     BB330960  88.259  46.575  47.772
20157DC     SC130961  88.077  46.649  47.598
20157DC     SC230962  87.995  46.475  47.502
20157DC     SC330963  87.960  46.781  47.402
20158DC     BB130964  88.430  46.483  47.954
20158DC     BB230965  88.344  46.197  47.751
20158DC     BB330966  88.462  46.193  47.582
20158DC     SC130967  88.327  46.389  47.473
20158DC     SC230968  88.213  46.314  47.306
20158DC     SC330969  88.271  46.626  47.371
20159DT     BB130970  88.569  45.983  47.697
20159DT     BB230971  88.442  45.866  47.380
20159DT     BB330972  88.577  45.909  47.230
20159DT     SC130973  88.511  46.163  47.233
20159DT     SC230974  88.406  46.212  47.052
20159DT     SC330975  88.531  46.424  47.262
20160DA     BB130976  88.432  45.513  47.224
20160DA     BB230977  88.408  45.654  46.887
20160DA     BB330978  88.602  45.687  46.806
20160DA     SC130979  88.625  45.978  46.913
20160DA     SC230980  88.626  46.209  46.820
20160DA     SC330981  88.737  46.276  47.042
20160DA     SC430982  88.693  45.999  47.057
20161DT     BB130983  88.632  45.580  46.659
20161DT     BB230984  88.619  45.838  46.407
20161DT     BB330985  88.810  45.896  46.355
20161DT     SC130986  88.839  46.030  46.579
20161DT     SC230987  88.842  46.241  46.537
20161DT     SC330988  88.932  46.102  46.815
20162DA     BB130989  88.598  45.810  46.003
20162DA     BB230990  88.774  46.128  45.955
20162DA     BB330991  88.983  46.095  45.935
20162DA     SC130992  89.041  46.124  46.239
20162DA     SC230993  89.155  46.285  46.391
20162DA     SC330994  89.166  46.090  46.557
20162DA     SC430995  89.040  45.990  46.328
20163DA     BB130996  88.950  46.266  45.653
20163DA     BB230997  89.194  46.505  45.786
20163DA     BB330998  89.391  46.425  45.774
20163DA     SC130999  89.381  46.296  46.057
20163DA     SC231000  89.488  46.331  46.280
20163DA     SC331001  89.420  46.088  46.328
20163DA     SC431002  89.332  46.143  46.067
20164DT     BB131003  89.551  46.500  45.639
20164DT     BB231004  89.755  46.657  45.892
20164DT     BB331005  89.929  46.548  45.920
20164DT     SC131006  89.800  46.362  46.052
20164DT     SC231007  89.857  46.368  46.259
20164DT     SC331008  89.698  46.126  46.113
20165DT     BB131009  90.116  46.720  45.779
20165DT     BB231010  90.266  46.688  46.106
20165DT     BB331011  90.403  46.533  46.106
20165DT     SC131012  90.211  46.354  46.107
20165DT     SC231013  90.209  46.254  46.298
20165DT     SC331014  90.057  46.155  46.029
20166DA     BB131015  90.649  46.849  46.239
20166DA     BB231016  90.696  46.571  46.475
20166DA     BB331017  90.828  46.426  46.392
20166DA     SC131018  90.602  46.259  46.259
20166DA     SC231019  90.494  46.036  46.291
20166DA     SC331020  90.415  46.063  46.048
20166DA     SC431021  90.563  46.294  46.107
20167DG     BB131022  91.039  46.473  46.627
20167DG     BB231023  90.951  46.135  46.719
20167DG     BB331024  91.070  46.006  46.626
20167DG     SC131025  90.890  45.978  46.380
20167DG     SC231026  90.742  45.733  46.297
20167DG     SC331027  90.727  45.940  46.087
20167DG     SC431028  90.909  46.080  46.258
20168DT     BB131029  91.218  45.861  46.736
20168DT     BB231030  91.033  45.553  46.710
20168DT     BB331031  91.125  45.426  46.575
20168DT     SC131032  91.039  45.568  46.371
20168DT     SC231033  90.891  45.455  46.263
20168DT     SC331034  91.041  45.721  46.157
20169DT     BB131035  91.193  45.275  46.784
20169DT     BB231036  90.996  45.060  46.573
20169DT     BB331037  91.116  44.972  46.429
20169DT     SC131038  91.130  45.197  46.293
20169DT     SC231039  91.021  45.176  46.109
20169DT     SC331040  91.231  45.412  46.179
20170DG     BB131041  90.903  44.704  46.647
20170DG     BB231042  90.854  44.660  46.292
20170DG     BB331043  91.016  44.576  46.211
20170DG     SC131044  91.154  44.843  46.151
20170DG     SC231045  91.210  44.954  45.880
20170DG     SC331046  91.343  45.115  46.090
20170DG     SC431047  91.248  44.908  46.264
20171DA     BB131048  90.761  44.384  46.084
20171DA     BB231049  90.879  44.464  45.746
20171DA     BB331050  91.067  44.370  45.709
20171DA     SC131051  91.235  44.611  45.812
20171DA     SC231052  91.385  44.785  45.716
20171DA     SC331053  91.475  44.810  45.956
20171DA     SC431054  91.278  44.611  45.967
20172DA     BB131055  90.882  44.283  45.453
20172DA     BB231056  91.140  44.441  45.245
20172DA     BB331057  91.319  44.325  45.249
20172DA     SC131058  91.440  44.477  45.492
20172DA     SC231059  91.627  44.636  45.536
20172DA     SC331060  91.605  44.562  45.781
20172DA     SC431061  91.412  44.417  45.639
20173DA     BB131062  91.277  44.346  44.923
20173DA     BB231063  91.605  44.509  44.910
20173DA     BB331064  91.760  44.366  44.943
20173DA     SC131065  91.766  44.405  45.251
20173DA     SC231066  91.919  44.502  45.422
20173DA     SC331067  91.789  44.359  45.591
20173DA     SC431068  91.673  44.308  45.340
20174DC     BB131069  91.895  44.314  44.790
20174DC     BB231070  92.182  44.488  44.922
20174DC     BB331071  92.317  44.352  45.000
20174DC     SC131072  92.167  44.311  45.211
20174DC     SC231073  92.263  44.395  45.384
20174DC     SC331074  92.014  44.187  45.386
20175DT     BB131075  92.493  44.388  44.790
20175DT     BB231076  92.688  44.465  45.084
20175DT     BB331077  92.776  44.293  45.158
20175DT     SC131078  92.547  44.209  45.255
20175DT     SC231079  92.554  44.216  45.470
20175DT     SC331080  92.333  44.059  45.293
20176DA     BB131081  93.079  44.577  45.113
20176DA     BB231082  93.105  44.437  45.451
20176DA     BB331083  93.185  44.239  45.443
20176DA     SC131084  92.907  44.102  45.421
20176DA     SC231085  92.759  43.959  45.562
20176DA     SC331086  92.646  43.893  45.341
20176DA     SC431087  92.850  44.072  45.273
20177DC     BB131088  93.355  44.221  45.527
20177DC     BB231089  93.241  44.046  45.821
20177DC     BB331090  93.281  43.843  45.803
20177DC     SC131091  93.085  43.811  45.632
20177DC     SC231092  92.928  43.696  45.724
20177DC     SC331093  92.959  43.757  45.407
20178DT     BB131094  93.458  43.890  45.992
20178DT     BB231095  93.244  43.631  46.124
20178DT     BB331096  93.303  43.447  46.051
20178DT     SC131097  93.200  43.498  45.816
20178DT     SC231098  93.028  43.373  45.784
20178DT     SC331099  93.184  43.542  45.556
20179DC     BB131100  93.384  43.401  46.298
20179DC     BB231101  93.160  43.129  46.222
20179DC     BB331102  93.260  42.983  46.114
20179DC     SC131103  93.256  43.130  45.897
20179DC     SC231104  93.123  43.040  45.753
20179DC     SC331105  93.342  43.272  45.692
20180DG     BB131106  93.117  42.796  46.449
20180DG     BB231107  93.033  42.611  46.150
20180DG     BB331108  93.192  42.510  46.086
20180DG     SC131109  93.294  42.737  45.907
20180DG     SC231110  93.307  42.734  45.609
20180DG     SC331111  93.445  42.971  45.718
20180DG     SC431112  93.392  42.847  45.970
20181DG     BB131113  93.044  42.208  46.110
20181DG     BB231114  93.090  42.177  45.753
20181DG     BB331115  93.272  42.106  45.714
20181DG     SC131116  93.403  42.383  45.700
20181DG     SC231117  93.519  42.509  45.455
20181DG     SC331118  93.583  42.668  45.697
20181DG     SC431119  93.461  42.449  45.834
20182DA     BB131120  93.149  41.838  45.517
20182DA     BB231121  93.330  41.963  45.224
20182DA     BB331122  93.535  41.905  45.233
20182DA     SC131123  93.626  42.162  45.384
20182DA     SC231124  93.762  42.366  45.336
20182DA     SC331125  93.784  42.386  45.591
20182DA     SC431126  93.630  42.156  45.544
20183DA     BB131127  93.495  41.764  44.932
20183DA     BB231128  93.741  42.005  44.804
20183DA     BB331129  93.939  41.939  44.849
20183DA     SC131130  93.953  42.089  45.121
20183DA     SC231131  94.073  42.285  45.218
20183DA     SC331132  94.016  42.182  45.446
20183DA     SC431133  93.908  42.009  45.253
20184DC     BB131134  94.077  41.880  44.696
20184DC     BB231135  94.275  42.182  44.706
20184DC     BB331136  94.459  42.143  44.792
20184DC     SC131137  94.352  42.131  45.032
20184DC     SC231138  94.416  42.300  45.147
20184DC     SC331139  94.276  42.033  45.265
20185DT     BB131140  94.581  42.168  44.550
20185DT     BB231141  94.736  42.418  44.759
20185DT     BB331142  94.895  42.335  44.862
20185DT     SC131143  94.733  42.209  45.026
20185DT     SC231144  94.748  42.297  45.222
20185DT     SC331145  94.611  42.012  45.151
20186DA     BB131146  95.014  42.688  44.670
20186DA     BB231147  95.115  42.707  45.022
20186DA     BB331148  95.277  42.573  45.060
20186DA     SC131149  95.094  42.335  45.138
20186DA     SC231150  95.035  42.207  45.344
20186DA     SC331151  94.956  42.023  45.183
20186DA     SC431152  95.051  42.232  45.022
20187DT     BB131153  95.429  42.665  45.108
20187DT     BB231154  95.418  42.583  45.459
20187DT     BB331155  95.548  42.426  45.499
20187DT     SC131156  95.385  42.253  45.389
20187DT     SC231157  95.302  42.126  45.542
20187DT     SC331158  95.292  42.070  45.223
20188DG     BB131159  95.621  42.752  45.733
20188DG     BB231160  95.577  42.451  45.928
20188DG     BB331161  95.737  42.335  45.911
20188DG     SC131162  95.632  42.184  45.666
20188DG     SC231163  95.557  41.895  45.658
20188DG     SC331164  95.556  42.012  45.386
20188DG     SC431165  95.661  42.242  45.520
20189DT     BB131166  95.827  42.299  46.085
20189DT     BB231167  95.740  41.955  46.147
20189DT     BB331168  95.894  41.831  46.083
20189DT     SC131169  95.829  41.867  45.831
20189DT     SC231170  95.748  41.684  45.752
20189DT     SC331171  95.847  41.940  45.578
20190DG     BB131172  95.799  41.765  46.475
20190DG     BB231173  95.800  41.459  46.281
20190DG     BB331174  95.987  41.406  46.239
20190DG     SC131175  95.998  41.564  45.976
20190DG     SC231176  96.019  41.448  45.702
20190DG     SC331177  96.053  41.741  45.695
20190DG     SC431178  96.045  41.717  45.980
20191DC     BB131179  96.058  41.221  46.313
20191DC     BB231180  96.071  41.018  46.015
20191DC     BB331181  96.266  41.008  45.944
20191DC     SC131182  96.253  41.253  45.852
20191DC     SC231183  96.252  41.249  45.637
20191DC     SC331184  96.304  41.510  45.821
20192DA     BB131185  96.128  40.612  45.975
20192DA     BB231186  96.285  40.652  45.646
20192DA     BB331187  96.497  40.664  45.665
20192DA     SC131188  96.501  40.974  45.691
20192DA     SC231189  96.576  41.170  45.556
20192DA     SC331190  96.574  41.298  45.778
20192DA     SC431191  96.495  41.036  45.840
20193DA     BB131192  96.496  40.415  45.448
20193DA     BB231193  96.687  40.632  45.223
20193DA     BB331194  96.891  40.644  45.286
20193DA     SC131195  96.845  40.892  45.468
20193DA     SC231196  96.907  41.134  45.470
20193DA     SC331197  96.857  41.124  45.721
20193DA     SC431198  96.810  40.865  45.623
20194DG     BB131199  96.973  40.518  45.009
20194DG     BB231200  97.135  40.837  44.959
20194DG     BB331201  97.316  40.835  45.042
20194DG     SC131202  97.219  40.935  45.315
20194DG     SC231203  97.284  41.199  45.438
20194DG     SC331204  97.144  41.024  45.631
20194DG     SC431205  97.170  40.828  45.424
20195DA     BB131206  97.460  40.939  44.739
20195DA     BB231207  97.586  41.243  44.900
20195DA     BB331208  97.763  41.200  45.012
20195DA     SC131209  97.610  41.139  45.276
20195DA     SC231210  97.581  41.243  45.500
20195DA     SC331211  97.507  41.009  45.576
20195DA     SC431212  97.569  40.986  45.304
20196DA     BB131213  97.899  41.441  44.830
20196DA     BB231214  97.951  41.624  45.143
20196DA     BB331215  98.120  41.547  45.248
20196DA     SC131216  97.955  41.340  45.411
20196DA     SC231217  97.884  41.305  45.647
20196DA     SC331218  97.847  41.060  45.579
20196DA     SC431219  97.939  41.192  45.349
20197DG     BB131220  98.240  41.833  45.216
20197DG     BB231221  98.208  41.837  45.576
20197DG     BB331222  98.367  41.750  45.659
20197DG     SC131223  98.243  41.470  45.659
20197DG     SC231224  98.166  41.312  45.900
20197DG     SC331225  98.147  41.147  45.655
20197DG     SC431226  98.263  41.377  45.530
20198DA     BB131227  98.391  42.037  45.848
20198DA     BB231228  98.346  41.839  46.153
20198DA     BB331229  98.526  41.735  46.202
20198DA     SC131230  98.451  41.480  46.040
20198DA     SC231231  98.388  41.244  46.086
20198DA     SC331232  98.458  41.199  45.844
20198DA     SC431233  98.501  41.472  45.887
20199DA     BB131234  98.458  41.890  46.480
20199DA     BB231235  98.433  41.558  46.633
20199DA     BB331236  98.627  41.472  46.655
20199DA     SC131237  98.624  41.332  46.378
20199DA     SC231238  98.611  41.099  46.288
20199DA     SC331239  98.709  41.198  46.073
20199DA     SC431240  98.687  41.412  46.253
20200DT     BB131241  98.668  41.447  46.833
20200DT     BB231242  98.628  41.089  46.838
20200DT     BB331243  98.813  40.997  46.823
20200DT     SC131244  98.830  41.054  46.568
20200DT     SC231245  98.813  40.873  46.453
20200DT     SC331246  98.917  41.159  46.342
20201DA     BB131247  98.601  40.836  47.146
20201DA     BB231248  98.735  40.558  46.948
20201DA     BB331249  98.947  40.544  46.974
20201DA     SC131250  99.013  40.731  46.735
20201DA     SC231251  99.113  40.711  46.507
20201DA     SC331252  99.155  40.963  46.525
20201DA     SC431253  99.032  40.887  46.766
20202DA     BB131254  98.848  40.239  47.040
20202DA     BB231255  99.066  40.132  46.765
20202DA     BB331256  99.270  40.148  46.822
20202DA     SC131257  99.301  40.440  46.717
20202DA     SC231258  99.419  40.558  46.532
20202DA     SC331259  99.390  40.769  46.675
20202DA     SC431260  99.275  40.559  46.821
20203DC     BB131261  99.373  39.980  46.839
20203DC     BB231262  99.578  40.018  46.544
20203DC     BB331263  99.768  40.078  46.598
20203DC     SC131264  99.686  40.322  46.649
20203DC     SC231265  99.766  40.456  46.500
20203DC     SC331266  99.631  40.543  46.782
20204DA     BB131267  99.829  39.738  46.359
20204DA     BB231268 100.061  39.997  46.241
20204DA     BB331269 100.223  40.019  46.377
20204DA     SC131270 100.083  40.239  46.548
20204DA     SC231271 100.109  40.483  46.591
20204DA     SC331272  99.972  40.438  46.804
20204DA     SC431273  99.998  40.190  46.675
20205DC     BB131274 100.433  39.963  46.332
20205DC     BB231275 100.562  40.297  46.297
20205DC     BB331276 100.685  40.343  46.458
20205DC     SC131277 100.478  40.372  46.617
20205DC     SC231278 100.457  40.580  46.669
20205DC     SC331279 100.310  40.331  46.817
20206DT     BB131280 100.937  40.319  46.323
20206DT     BB231281 100.947  40.653  46.461
20206DT     BB331282 101.038  40.649  46.647
20206DT     SC131283 100.825  40.542  46.758
20206DT     SC231284 100.732  40.687  46.888
20206DT     SC331285 100.671  40.368  46.883
20207DC     BB131286 101.288  40.765  46.568
20207DC     BB231287 101.171  40.985  46.830
20207DC     BB331288 101.248  40.924  47.012
20207DC     SC131289 101.082  40.721  47.023
20207DC     SC231290 100.938  40.755  47.179
20207DC     SC331291 100.995  40.472  47.032
20208DT     BB131292 101.432  41.136  47.031
20208DT     BB231293 101.230  41.167  47.329
20208DT     BB331294 101.315  41.060  47.484
20208DT     SC131295 101.238  40.832  47.380
20208DT     SC231296 101.085  40.746  47.504
20208DT     SC331297 101.250  40.592  47.271
20209DA     BB131298 101.244  41.448  47.621
20209DA     BB231299 101.100  41.214  47.865
20209DA     BB331300 101.255  41.123  47.980
20209DA     SC131301 101.290  40.882  47.787
20209DA     SC231302 101.245  40.636  47.788
20209DA     SC331303 101.416  40.625  47.597
20209DA     SC431304 101.400  40.895  47.670
20210DC     BB131305 101.246  41.169  48.161
20210DC     BB231306 101.117  40.853  48.278
20210DC     BB331307 101.269  40.741  48.362
20210DC     SC131308 101.369  40.684  48.126
20210DC     SC231309 101.338  40.475  48.084
20210DC     SC331310 101.537  40.674  47.924
20211DA     BB131311 100.933  40.758  48.611
20211DA     BB231312 101.041  40.408  48.587
20211DA     BB331313 101.225  40.380  48.691
20211DA     SC131314 101.403  40.441  48.443
20211DA     SC231315 101.555  40.315  48.290
20211DA     SC331316 101.654  40.545  48.233
20211DA     SC431317 101.452  40.592  48.422
20212DA     BB131318 101.033  40.145  48.814
20212DA     BB231319 101.287  39.908  48.697
20212DA     BB331320 101.463  39.921  48.816
20212DA     SC131321 101.598  40.136  48.636
20212DA     SC231322 101.791  40.150  48.479
20212DA     SC331323 101.777  40.404  48.517
20212DA     SC431324 101.574  40.291  48.673
20213DC     BB131325 101.510  39.765  48.930
20213DC     BB231326 101.794  39.651  48.740
20213DC     BB331327 101.970  39.705  48.836
20213DC     SC131328 101.942  39.955  48.762
20213DC     SC231329 102.093  40.004  48.617
20213DC     SC331330 101.909  40.216  48.778
20214DT     BB131331 102.025  39.446  48.925
20214DT     BB231332 102.324  39.541  48.747
20214DT     BB331333 102.457  39.633  48.876
20214DT     SC131334 102.314  39.853  48.879
20214DT     SC231335 102.421  40.009  48.776
20214DT     SC331336 102.164  40.050  48.969
20215DT     BB131337 102.639  39.415  48.900
20215DT     BB231338 102.849  39.687  48.791
20215DT     BB331339 102.929  39.784  48.955
20215DT     SC131340 102.700  39.900  49.008
20215DT     SC231341 102.715  40.111  48.968
20215DT     SC331342 102.479  39.966  49.137
20216DG     BB131343 103.263  39.656  48.755
20216DG     BB231344 103.280  40.012  48.819
20216DG     BB331345 103.345  40.045  49.004
20216DG     SC131346 103.065  40.043  49.128
20216DG     SC231347 102.927  40.277  49.252
20216DG     SC331348 102.775  40.028  49.301
20216DG     SC431349 103.002  39.904  49.178
20217DA     BB131350 103.586  40.253  48.869
20217DA     BB231351 103.448  40.537  49.056
20217DA     BB331352 103.513  40.530  49.259
20217DA     SC131353 103.270  40.363  49.357
20217DA     SC231354 103.068  40.398  49.499
20217DA     SC331355 103.064  40.142  49.520
20217DA     SC431356 103.285  40.203  49.359
20218DT     BB131357 103.626  40.677  49.310
20218DT     BB231358 103.380  40.855  49.504
20218DT     BB331359 103.414  40.825  49.706
20218DT     SC131360 103.319  40.581  49.694
20218DT     SC231361 103.131  40.572  49.799
20218DT     SC331362 103.309  40.317  49.705
20219DT     BB131363 103.484  41.079  49.704
20219DT     BB231364 103.218  41.056  49.946
20219DT     BB331365 103.293  40.993  50.128
20219DT     SC131366 103.319  40.747  50.041
20219DT     SC231367 103.175  40.621  50.140
20219DT     SC331368 103.431  40.519  49.969
20220DA     BB131369 103.049  41.332  50.174
20220DA     BB231370 102.954  41.086  50.428
20220DA     BB331371 103.108  41.066  50.575
20220DA     SC131372 103.256  40.837  50.425
20220DA     SC231373 103.297  40.593  50.456
20220DA     SC331374 103.492  40.626  50.293
20220DA     SC431375 103.373  40.879  50.323
20221DA     BB131376 102.841  41.120  50.759
20221DA     BB231377 102.916  40.800  50.921
20221DA     BB331378 103.090  40.818  51.042
20221DA     SC131379 103.286  40.735  50.815
20221DA     SC231380 103.433  40.541  50.759
20221DA     SC331381 103.556  40.705  50.605
20221DA     SC431382 103.351  40.852  50.726
20222DA     BB131383 102.884  40.694  51.269
20222DA     BB231384 103.120  40.415  51.304
20222DA     BB331385 103.295  40.479  51.409
20222DA     SC131386 103.449  40.561  51.151
20222DA     SC231387 103.645  40.481  51.020
20222DA     SC331388 103.650  40.717  50.921
20222DA     SC431389 103.436  40.714  51.102
20223DT     BB131390 103.339  40.407  51.599
20223DT     BB231391 103.616  40.195  51.507
20223DT     BB331392 103.794  40.283  51.564
20223DT     SC131393 103.781  40.456  51.367
20223DT     SC231394 103.934  40.412  51.223
20223DT     SC331395 103.763  40.686  51.240
20224DT     BB131396 103.843  40.114  51.786
20224DT     BB231397 104.144  40.083  51.589
20224DT     BB331398 104.282  40.226  51.648
20224DT     SC131399 104.148  40.416  51.527
20224DT     SC231400 104.260  40.485  51.356
20224DT     SC331401 104.007  40.636  51.491
20225DA     BB131402 104.514  39.876  51.698
20225DA     BB231403 104.717  40.110  51.502
20225DA     BB331404 104.802  40.258  51.629
20225DA     SC131405 104.565  40.457  51.598
20225DA     SC231406 104.522  40.678  51.491
20225DA     SC331407 104.322  40.694  51.652
20225DA     SC431408 104.447  40.449  51.707
20226DA     BB131409 105.111  40.176  51.521
20226DA     BB231410 105.135  40.512  51.377
20226DA     BB331411 105.196  40.652  51.525
20226DA     SC131412 104.906  40.723  51.611
20226DA     SC231413 104.751  40.918  51.595
20226DA     SC331414 104.624  40.808  51.788
20226DA     SC431415 104.842  40.640  51.733
20227DT     BB131416 105.395  40.763  51.527
20227DT     BB231417 105.257  41.073  51.406
20227DT     BB331418 105.265  41.217  51.554
20227DT     SC131419 105.065  41.106  51.682
20227DT     SC231420 104.892  41.235  51.670
20227DT     SC331421 104.929  40.985  51.873
20228DA     BB131422 105.440  41.371  51.208
20228DA     BB231423 105.179  41.604  51.318
20228DA     BB331424 105.245  41.712  51.490
20228DA     SC131425 105.130  41.507  51.694
20228DA     SC231426 104.946  41.496  51.861
20228DA     SC331427 105.079  41.303  51.966
20228DA     SC431428 105.229  41.390  51.745
20229DT     BB131429 105.247  41.879  51.440
20229DT     BB231430 104.943  41.972  51.610
20229DT     BB331431 104.987  42.059  51.793
20229DT     SC131432 105.048  41.825  51.897
20229DT     SC231433 104.898  41.771  52.042
20229DT     SC331434 105.189  41.632  52.008
20230DA     BB131435 104.686  42.212  51.529
20230DA     BB231436 104.553  42.182  51.869
20230DA     BB331437 104.661  42.309  52.002
20230DA     SC131438 104.871  42.093  52.079
20230DA     SC231439 104.930  41.956  52.278
20230DA     SC331440 105.158  41.926  52.165
20230DA     SC431441 105.006  42.087  51.993
20231DC     BB131442 104.529  42.381  52.037
20231DC     BB231443 104.504  42.267  52.378
20231DC     BB331444 104.627  42.381  52.500
20231DC     SC131445 104.841  42.260  52.410
20231DC     SC231446 104.925  42.138  52.565
20231DC     SC331447 105.074  42.224  52.290
20232DA     BB131448 104.235  42.309  52.647
20232DA     BB231449 104.477  42.264  52.919
20232DA     BB331450 104.572  42.449  52.965
20232DA     SC131451 104.806  42.407  52.764
20232DA     SC231452 105.052  42.363  52.774
20232DA     SC331453 105.056  42.451  52.533
20232DA     SC431454 104.789  42.467  52.616
20233DA     BB131455 104.469  42.346  53.260
20233DA     BB231456 104.818  42.374  53.367
20233DA     BB331457 104.876  42.579  53.378
20233DA     SC131458 104.978  42.590  53.084
20233DA     SC231459 105.197  42.609  52.965
20233DA     SC331460 105.057  42.686  52.764
20233DA     SC431461 104.874  42.637  52.971
20234DA     BB131462 104.965  42.496  53.686
20234DA     BB231463 105.305  42.605  53.600
20234DA     BB331464 105.315  42.818  53.594
20234DA     SC131465 105.245  42.837  53.291
20234DA     SC231466 105.361  42.898  53.078
20234DA     SC331467 105.125  42.933  52.984
20234DA     SC431468 105.090  42.855  53.251
20235DT     BB131469 105.426  42.932  53.736
20235DT     BB231470 105.696  43.030  53.519
20235DT     BB331471 105.679  43.231  53.471
20235DT     SC131472 105.481  43.182  53.306
20235DT     SC231473 105.547  43.216  53.104
20235DT     SC331474 105.239  43.185  53.201
20236DA     BB131475 106.070  43.198  53.620
20236DA     BB231476 106.090  43.387  53.307
20236DA     BB331477 106.020  43.587  53.336
20236DA     SC131478 105.725  43.521  53.264
20236DA     SC231479 105.565  43.570  53.080
20236DA     SC331480 105.382  43.510  53.250
20236DA     SC431481 105.626  43.481  53.385
20237DA     BB131482 106.313  43.679  53.211
20237DA     BB231483 106.130  43.848  52.942
20237DA     BB331484 106.051  44.034  53.012
20237DA     SC131485 105.780  43.911  53.104
20237DA     SC231486 105.541  43.919  53.034
20237DA     SC331487 105.489  43.838  53.272
20237DA     SC431488 105.768  43.862  53.257
20238DT     BB131489 106.121  44.229  52.943
20238DT     BB231490 105.833  44.311  52.741
20238DT     BB331491 105.723  44.461  52.833
20238DT     SC131492 105.628  44.292  53.010
20238DT     SC231493 105.418  44.262  52.974
20238DT     SC331494 105.579  44.179  53.243
20239DT     BB131495 105.803  44.678  52.663
20239DT     BB231496 105.442  44.688  52.645
20239DT     BB331497 105.368  44.817  52.789
20239DT     SC131498 105.416  44.643  52.980
20239DT     SC231499 105.229  44.567  53.056
20239DT     SC331500 105.520  44.535  53.197
20240DT     BB131501 105.298  45.050  52.623
20240DT     BB231502 104.988  44.975  52.792
20240DT     BB331503 104.972  45.089  52.963
20240DT     SC131504 105.148  44.941  53.089
20240DT     SC231505 105.050  44.828  53.243
20240DT     SC331506 105.370  44.872  53.214
20241DG     BB131507 104.640  45.230  52.761
20241DG     BB231508 104.547  45.113  53.090
20241DG     BB331509 104.576  45.257  53.224
20241DG     SC131510 104.865  45.176  53.285
20241DG     SC231511 104.965  45.066  53.544
20241DG     SC331512 105.189  45.127  53.362
20241DG     SC431513 104.983  45.238  53.197
20242DT     BB131514 104.405  45.367  53.358
20242DT     BB231515 104.459  45.201  53.674
20242DT     BB331516 104.542  45.334  53.809
20242DT     SC131517 104.776  45.320  53.691
20242DT     SC231518 104.915  45.217  53.819
20242DT     SC331519 104.992  45.395  53.560
20243DA     BB131520 104.207  45.158  53.989
20243DA     BB231521 104.490  45.124  54.220
20243DA     BB331522 104.535  45.312  54.310
20243DA     SC131523 104.740  45.396  54.091
20243DA     SC231524 104.986  45.429  54.072
20243DA     SC331525 104.930  45.571  53.866
20243DA     SC431526 104.684  45.482  53.967
20244DA     BB131527 104.503  45.119  54.571
20244DA     BB231528 104.853  45.198  54.646
20244DA     BB331529 104.869  45.397  54.720
20244DA     SC131530 104.913  45.524  54.440
20244DA     SC231531 105.098  45.634  54.313
20244DA     SC331532 104.912  45.732  54.166
20244DA     SC431533 104.783  45.577  54.361
20245DT     BB131534 104.928  45.413  54.905
20245DT     BB231535 105.263  45.528  54.834
20245DT     BB331536 105.276  45.732  54.866
20245DT     SC131537 105.145  45.783  54.645
20245DT     SC231538 105.278  45.871  54.501
20245DT     SC331539 104.954  45.869  54.483
20246DA     BB131540 105.588  45.548  55.077
20246DA     BB231541 105.731  45.824  54.882
20246DA     BB331542 105.677  46.012  54.969
20246DA     SC131543 105.417  46.043  54.800
20246DA     SC231544 105.334  46.187  54.615
20246DA     SC331545 105.100  46.114  54.692
20246DA     SC431546 105.280  45.987  54.864
20247DA     BB131547 106.002  46.050  54.958
20247DA     BB231548 105.941  46.334  54.734
20247DA     BB331549 105.870  46.502  54.845
20247DA     SC131550 105.570  46.428  54.814
20247DA     SC231551 105.370  46.516  54.694
20247DA     SC331552 105.233  46.380  54.864
20247DA     SC431553 105.503  46.338  54.929
20248DA     BB131554 106.122  46.635  54.686
20248DA     BB231555 105.877  46.857  54.528
20248DA     BB331556 105.812  47.006  54.666
20248DA     SC131557 105.573  46.837  54.773
20248DA     SC231558 105.323  46.843  54.762
20248DA     SC331559 105.331  46.692  54.969
20248DA     SC431560 105.598  46.745  54.902
20249DT     BB131561 105.861  47.177  54.613
20249DT     BB231562 105.533  47.284  54.507
20249DT     BB331563 105.446  47.402  54.653
20249DT     SC131564 105.398  47.194  54.805
20249DT     SC231565 105.186  47.158  54.812
20249DT     SC331566 105.407  47.029  55.011
20250DC     BB131567 105.482  47.578  54.467
20250DC     BB231568 105.128  47.577  54.536
20250DC     BB331569 105.089  47.685  54.708
20250DC     SC131570 105.183  47.492  54.860
20250DC     SC231571 105.020  47.402  54.968
20250DC     SC331572 105.336  47.363  55.031
20251DT     BB131573 104.980  47.841  54.533
20251DT     BB231574 104.720  47.763  54.771
20251DT     BB331575 104.743  47.878  54.941
20251DT     SC131576 104.946  47.731  55.021
20251DT     SC231577 104.889  47.618  55.194
20251DT     SC331578 105.192  47.664  55.090
20252DT     BB131579 104.526  47.998  54.856
20252DT     BB231580 104.449  47.891  55.191
20252DT     BB331581 104.529  48.024  55.328
20252DT     SC131582 104.771  47.933  55.288
20252DT     SC231583 104.838  47.827  55.463
20252DT     SC331584 105.026  47.926  55.219
20253DG     BB131585 104.127  48.020  55.405
20253DG     BB231586 104.318  47.973  55.709
20253DG     BB331587 104.389  48.147  55.772
20253DG     SC131588 104.650  48.126  55.613
20253DG     SC231589 104.924  48.096  55.728
20253DG     SC331590 104.937  48.144  55.437
20253DG     SC431591 104.654  48.181  55.463
20254DA     BB131592 104.249  48.111  56.096
20254DA     BB231593 104.581  48.129  56.249
20254DA     BB331594 104.646  48.332  56.262
20254DA     SC131595 104.787  48.332  55.985
20254DA     SC231596 105.019  48.340  55.896
20254DA     SC331597 104.911  48.416  55.677
20254DA     SC431598 104.700  48.379  55.858
20255DA     BB131599 104.688  48.297  56.595
20255DA     BB231600 105.046  48.362  56.543
20255DA     BB331601 105.081  48.572  56.529
20255DA     SC131602 105.047  48.583  56.220
20255DA     SC231603 105.191  48.619  56.020
20255DA     SC331604 104.972  48.675  55.898
20255DA     SC431605 104.901  48.615  56.163
20256DT     BB131606 105.196  48.696  56.681
20256DT     BB231607 105.497  48.722  56.483
20256DT     BB331608 105.522  48.917  56.419
20256DT     SC131609 105.332  48.891  56.240
20256DT     SC231610 105.419  48.893  56.043
20256DT     SC331611 105.104  48.929  56.112
20257DT     BB131612 105.732  48.957  56.592
20257DT     BB231613 105.871  49.014  56.264
20257DT     BB331614 105.848  49.213  56.211
20257DT     SC131615 105.592  49.179  56.165
20257DT     SC231616 105.554  49.195  55.954
20257DT     SC331617 105.330  49.204  56.187
20258DA     BB131618 106.238  49.074  56.153
20258DA     BB231619 106.123  49.233  55.844
20258DA     BB331620 106.109  49.444  55.870
20258DA     SC131621 105.812  49.438  55.962
20258DA     SC231622 105.590  49.507  55.874
20258DA     SC331623 105.512  49.498  56.119
20258DA     SC431624 105.784  49.428  56.120
20259DT     BB131625 106.219  49.499  55.757
20259DT     BB231626 105.979  49.625  55.519
20259DT     BB331627 105.940  49.825  55.557
20259DT     SC131628 105.794  49.764  55.766
20259DT     SC231629 105.588  49.808  55.724
20259DT     SC331630 105.714  49.750  56.017
20260DC     BB131631 106.055  49.819  55.330
20260DC     BB231632 105.737  49.982  55.279
20260DC     BB331633 105.743  50.173  55.359
20260DC     SC131634 105.727  50.080  55.604
20260DC     SC231635 105.535  50.131  55.687
20260DC     SC331636 105.793  50.026  55.853
20261DC     BB131637 105.731  50.233  55.106
20261DC     BB231638 105.456  50.409  55.260
20261DC     BB331639 105.525  50.579  55.355
20261DC     SC131640 105.627  50.438  55.552
20261DC     SC231641 105.514  50.474  55.731
20261DC     SC331642 105.805  50.333  55.715
20262DG     BB131643 105.242  50.697  55.085
20262DG     BB231644 105.182  50.842  55.411
20262DG     BB331645 105.309  50.992  55.443
20262DG     SC131646 105.525  50.816  55.569
20262DG     SC231647 105.614  50.824  55.854
20262DG     SC331648 105.791  50.650  55.693
20262DG     SC431649 105.634  50.747  55.474
20263DT     BB131650 105.248  51.215  55.468
20263DT     BB231651 105.299  51.265  55.822
20263DT     BB331652 105.470  51.376  55.854
20263DT     SC131653 105.623  51.170  55.798
20263DT     SC231654 105.722  51.104  55.977
20263DT     SC331655 105.801  51.020  55.674
20264DT     BB131656 105.332  51.608  55.923
20264DT     BB231657 105.547  51.548  56.206
20264DT     BB331658 105.729  51.642  56.178
20264DT     SC131659 105.805  51.462  56.003
20264DT     SC231660 105.963  51.343  56.087
20264DT     SC331661 105.879  51.354  55.774
20265DA     BB131662 105.590  51.767  56.553
20265DA     BB231663 105.937  51.656  56.594
20265DA     BB331664 106.071  51.800  56.512
20265DA     SC131665 106.076  51.671  56.229
20265DA     SC231666 106.238  51.547  56.085
20265DA     SC331667 106.086  51.616  55.890
20265DA     SC431668 105.970  51.725  56.120
20266DG     BB131669 106.176  51.806  56.803
20266DG     BB231670 106.477  51.676  56.648
20266DG     BB331671 106.581  51.825  56.568
20266DG     SC131672 106.442  51.808  56.295
20266DG     SC231673 106.570  51.724  56.039
20266DG     SC331674 106.297  51.830  55.992
20266DG     SC431675 106.308  51.892  56.271
20267DA     BB131676 106.846  51.691  56.746
20267DA     BB231677 107.034  51.647  56.434
20267DA     BB331678 107.104  51.836  56.363
20267DA     SC131679 106.852  51.893  56.189
20267DA     SC231680 106.794  51.906  55.947
20267DA     SC331681 106.590  52.041  56.025
20267DA     SC431682 106.733  51.976  56.257
20268DT     BB131683 107.300  51.866  56.362
20268DT     BB231684 107.350  51.849  56.005
20268DT     BB331685 107.373  52.040  55.928
20268DT     SC131686 107.117  52.090  55.952
20268DT     SC231687 107.027  52.101  55.757
20268DT     SC331688 106.892  52.201  56.034
20269DC     BB131689 107.650  52.017  55.888
20269DC     BB231690 107.527  52.116  55.564
20269DC     BB331691 107.523  52.323  55.550
20269DC     SC131692 107.311  52.337  55.704
20269DC     SC231693 107.142  52.400  55.587
20269DC     SC331694 107.158  52.396  55.911
20270DG     BB131695 107.795  52.251  55.244
20270DG     BB231696 107.528  52.465  55.126
20270DG     BB331697 107.568  52.655  55.173
20270DG     SC131698 107.427  52.642  55.445
20270DG     SC231699 107.179  52.789  55.521
20270DG     SC331700 107.300  52.658  55.757
20270DG     SC431701 107.511  52.596  55.573
20271DG     BB131702 107.586  52.800  54.857
20271DG     BB231703 107.291  52.990  54.947
20271DG     BB331704 107.345  53.166  55.024
20271DG     SC131705 107.358  53.063  55.312
20271DG     SC231706 107.177  53.144  55.535
20271DG     SC331707 107.402  52.981  55.636
20271DG     SC431708 107.495  53.001  55.366
20272DA     BB131709 107.145  53.339  54.794
20272DA     BB231710 106.937  53.467  55.067
20272DA     BB331711 107.029  53.638  55.157
20272DA     SC131712 107.186  53.473  55.369
20272DA     SC231713 107.181  53.437  55.616
20272DA     SC331714 107.422  53.355  55.588
20272DA     SC431715 107.335  53.426  55.331
20273DT     BB131716 106.935  53.816  55.139
20273DT     BB231717 106.808  53.824  55.477
20273DT     BB331718 106.915  53.961  55.589
20273DT     SC131719 107.121  53.799  55.604
20273DT     SC231720 107.141  53.728  55.806
20273DT     SC331721 107.365  53.705  55.573
20274DA     BB131722 106.501  54.018  55.630
20274DA     BB231723 106.650  54.004  55.965
20274DA     BB331724 106.765  54.180  56.002
20274DA     SC131725 107.030  54.060  55.892
20274DA     SC231726 107.250  53.985  55.983
20274DA     SC331727 107.335  54.012  55.742
20274DA     SC431728 107.064  54.084  55.737
20275DT     BB131729 106.692  54.274  56.139
20275DT     BB231730 106.942  54.196  56.387
20275DT     BB331731 107.079  54.351  56.401
20275DT     SC131732 107.192  54.282  56.174
20275DT     SC231733 107.388  54.203  56.214
20275DT     SC331734 107.275  54.294  55.924
20276DT     BB131735 106.969  54.400  56.637
20276DT     BB231736 107.320  54.350  56.704
20276DT     BB331737 107.424  54.526  56.669
20276DT     SC131738 107.406  54.494  56.410
20276DT     SC231739 107.600  54.449  56.329
20276DT     SC331740 107.340  54.539  56.158
20277DA     BB131741 107.528  54.393  57.054
20277DA     BB231742 107.837  54.475  56.876
20277DA     BB331743 107.857  54.687  56.856
20277DA     SC131744 107.710  54.699  56.582
20277DA     SC231745 107.767  54.744  56.343
20277DA     SC331746 107.517  54.791  56.313
20277DA     SC431747 107.551  54.726  56.584
20278DT     BB131748 108.009  54.790  56.955
20278DT     BB231749 108.215  54.853  56.666
20278DT     BB331750 108.202  55.052  56.612
20278DT     SC131751 107.962  55.015  56.510
20278DT     SC231752 107.972  55.033  56.296
20278DT     SC331753 107.702  55.037  56.475
20279DA     BB131754 108.612  54.976  56.650
20279DA     BB231755 108.559  55.139  56.326
20279DA     BB331756 108.522  55.347  56.353
20279DA     SC131757 108.213  55.313  56.373
20279DA     SC231758 108.012  55.369  56.236
20279DA     SC331759 107.881  55.344  56.455
20279DA     SC431760 108.149  55.295  56.519
20280DG     BB131761 108.777  55.378  56.180
20280DG     BB231762 108.542  55.521  55.944
20280DG     BB331763 108.509  55.712  55.989
20280DG     SC131764 108.274  55.652  56.176
20280DG     SC231765 107.989  55.726  56.127
20280DG     SC331766 108.025  55.622  56.402
20280DG     SC431767 108.303  55.624  56.330
20281DA     BB131768 108.585  55.774  55.659
20281DA     BB231769 108.252  55.918  55.607
20281DA     BB331770 108.243  56.115  55.690
20281DA     SC131771 108.146  56.020  55.969
20281DA     SC231772 107.937  56.031  56.106
20281DA     SC331773 108.091  55.983  56.306
20281DA     SC431774 108.257  55.990  56.081
20282DT     BB131775 108.218  56.261  55.561
20282DT     BB231776 107.874  56.334  55.640
20282DT     BB331777 107.862  56.505  55.755
20282DT     SC131778 107.949  56.378  55.968
20282DT     SC231779 107.790  56.360  56.110
20282DT     SC331780 108.104  56.310  56.170
20283DA     BB131781 107.599  56.558  55.433
20283DA     BB231782 107.419  56.648  55.740
20283DA     BB331783 107.488  56.836  55.814
20283DA     SC131784 107.709  56.713  55.994
20283DA     SC231785 107.754  56.683  56.237
20283DA     SC331786 107.999  56.651  56.168
20283DA     SC431787 107.856  56.697  55.931
20284DG     BB131788 107.194  56.945  55.775
20284DG     BB231789 107.204  56.981  56.135
20284DG     BB331790 107.286  57.155  56.183
20284DG     SC131791 107.572  57.045  56.194
20284DG     SC231792 107.741  57.020  56.439
20284DG     SC331793 107.899  56.962  56.195
20284DG     SC431794 107.660  57.044  56.060
20285DA     BB131795 107.009  57.243  56.382
20285DA     BB231796 107.222  57.262  56.680
20285DA     BB331797 107.324  57.449  56.686
20285DA     SC131798 107.573  57.347  56.530
20285DA     SC231799 107.813  57.297  56.577
20285DA     SC331800 107.846  57.318  56.324
20285DA     SC431801 107.573  57.365  56.370
20286DT     BB131802 107.283  57.600  56.838
20286DT     BB231803 107.582  57.540  57.031
20286DT     BB331804 107.712  57.700  57.011
20286DT     SC131805 107.779  57.625  56.769
20286DT     SC231806 107.982  57.555  56.769
20286DT     SC331807 107.808  57.630  56.507
20287DT     BB131808 107.658  57.774  57.267
20287DT     BB231809 108.015  57.718  57.260
20287DT     BB331810 108.112  57.891  57.204
20287DT     SC131811 108.040  57.860  56.953
20287DT     SC231812 108.212  57.811  56.834
20287DT     SC331813 107.924  57.906  56.721
20288DT     BB131814 108.195  57.890  57.453
20288DT     BB231815 108.495  57.881  57.252
20288DT     BB331816 108.545  58.073  57.193
20288DT     SC131817 108.352  58.077  57.015
20288DT     SC231818 108.436  58.072  56.817
20288DT     SC331819 108.130  58.147  56.891
20289DA     BB131820 108.862  57.842  57.345
20289DA     BB231821 108.971  58.002  57.034
20289DA     BB331822 108.984  58.214  57.061
20289DA     SC131823 108.691  58.268  56.972
20289DA     SC231824 108.573  58.373  56.779
20289DA     SC331825 108.373  58.392  56.939
20289DA     SC431826 108.578  58.272  57.087
20290DA     BB131827 109.260  58.102  56.919
20290DA     BB231828 109.189  58.347  56.656
20290DA     BB331829 109.202  58.545  56.734
20290DA     SC131830 108.901  58.560  56.812
20290DA     SC231831 108.696  58.680  56.736
20290DA     SC331832 108.601  58.623  56.968
20290DA     SC431833 108.860  58.516  56.961
20291DT     BB131834 109.343  58.645  56.662
20291DT     BB231835 109.149  58.882  56.470
20291DT     BB331836 109.129  59.059  56.575
20291DT     SC131837 108.953  58.951  56.737
20291DT     SC231838 108.759  59.037  56.700
20291DT     SC331839 108.842  58.861  56.959
20292DA     BB131840 109.287  59.190  56.207
20292DA     BB231841 109.009  59.414  56.291
20292DA     BB331842 109.067  59.549  56.446
20292DA     SC131843 108.972  59.364  56.677
20292DA     SC231844 108.790  59.361  56.847
20292DA     SC331845 108.939  59.194  56.973
20292DA     SC431846 109.079  59.263  56.740
20293DG     BB131847 109.034  59.820  56.265
20293DG     BB231848 108.774  59.904  56.502
20293DG     BB331849 108.851  60.007  56.654
20293DG     SC131850 108.913  59.758  56.822
20293DG     SC231851 108.783  59.684  57.080
20293DG     SC331852 109.014  59.507  57.024
20293DG     SC431853 109.054  59.685  56.803
20294DA     BB131854 108.635  60.295  56.630
20294DA     BB231855 108.497  60.230  56.963
20294DA     BB331856 108.621  60.317  57.113
20294DA     SC131857 108.797  60.063  57.150
20294DA     SC231858 108.835  59.888  57.323
20294DA     SC331859 109.057  59.844  57.202
20294DA     SC431860 108.931  60.052  57.061
20295DC     BB131861 108.565  60.494  57.250
20295DC     BB231862 108.502  60.291  57.542
20295DC     BB331863 108.646  60.329  57.686
20295DC     SC131864 108.827  60.194  57.554
20295DC     SC231865 108.873  60.013  57.661
20295DC     SC331866 109.047  60.140  57.419
20296DA     BB131867 108.270  60.370  57.863
20296DA     BB231868 108.468  60.141  58.070
20296DA     BB331869 108.614  60.249  58.182
20296DA     SC131870 108.835  60.225  57.965
20296DA     SC231871 109.053  60.107  57.935
20296DA     SC331872 109.100  60.283  57.755
20296DA     SC431873 108.846  60.344  57.857
20297DT     BB131874 108.578  60.229  58.358
20297DT     BB231875 108.846  59.998  58.429
20297DT     BB331876 109.006  60.100  58.512
20297DT     SC131877 109.072  60.202  58.280
20297DT     SC231878 109.257  60.114  58.214
20297DT     SC331879 109.119  60.380  58.092
20298DC     BB131880 108.925  59.952  58.707
20298DC     BB231881 109.271  59.864  58.651
20298DC     BB331882 109.395  60.008  58.731
20298DC     SC131883 109.341  60.175  58.536
20298DC     SC231884 109.515  60.199  58.412
20298DC     SC331885 109.253  60.389  58.409
20299DA     BB131886 109.506  59.610  58.823
20299DA     BB231887 109.805  59.798  58.726
20299DA     BB331888 109.848  59.949  58.871
20299DA     SC131889 109.679  60.168  58.729
20299DA     SC231890 109.719  60.380  58.604
20299DA     SC331891 109.474  60.435  58.658
20299DA     SC431892 109.525  60.185  58.774
20300DA     BB131893 110.139  59.793  58.842
20300DA     BB231894 110.282  60.121  58.763
20300DA     BB331895 110.279  60.247  58.936
20300DA     SC131896 109.999  60.367  58.874
20300DA     SC231897 109.904  60.586  58.802
20300DA     SC331898 109.682  60.498  58.896
20300DA     SC431899 109.871  60.295  58.939
20301DG     BB131900 110.599  60.268  58.933
20301DG     BB231901 110.539  60.622  58.891
20301DG     BB331902 110.511  60.708  59.068
20301DG     SC131903 110.208  60.665  59.069
20301DG     SC231904 110.001  60.879  59.055
20301DG     SC331905 109.877  60.616  59.112
20301DG     SC431906 110.150  60.528  59.129
20302DT     BB131907 110.654  60.881  59.206
20302DT     BB231908 110.454  61.179  59.167
20302DT     BB331909 110.367  61.229  59.348
20302DT     SC131910 110.192  61.034  59.326
20302DT     SC231911 109.997  61.117  59.293
20302DT     SC331912 110.061  60.812  59.379
20303DA     BB131913 110.570  61.596  59.280
20303DA     BB231914 110.223  61.683  59.361
20303DA     BB331915 110.192  61.678  59.572
20303DA     SC131916 110.105  61.379  59.576
20303DA     SC231917 109.897  61.248  59.616
20303DA     SC331918 110.054  61.050  59.660
20303DA     SC431919 110.219  61.269  59.602
20304DA     BB131920 110.086  61.996  59.563
20304DA     BB231921 109.758  61.876  59.673
20304DA     BB331922 109.755  61.853  59.885
20304DA     SC131923 109.847  61.556  59.879
20304DA     SC231924 109.750  61.332  59.927
20304DA     SC331925 109.993  61.253  59.948
20304DA     SC431926 110.005  61.528  59.890
20305DG     BB131927 109.527  62.067  59.886
20305DG     BB231928 109.326  61.789  59.999
20305DG     BB331929 109.339  61.771  60.196
20305DG     SC131930 109.581  61.584  60.188
20305DG     SC231931 109.584  61.297  60.271
20305DG     SC331932 109.858  61.393  60.216
20305DG     SC431933 109.728  61.647  60.186
20306DA     BB131934 108.996  61.770  60.183
20306DA     BB231935 108.993  61.436  60.335
20306DA     BB331936 109.035  61.449  60.544
20306DA     SC131937 109.342  61.417  60.510
20306DA     SC231938 109.517  61.247  60.559
20306DA     SC331939 109.683  61.441  60.541
20306DA     SC431940 109.430  61.552  60.495
20307DC     BB131941 108.889  61.396  60.653
20307DC     BB231942 109.027  61.079  60.758
20307DC     BB331943 109.105  61.096  60.950
20307DC     SC131944 109.313  61.229  60.862
20307DC     SC231945 109.489  61.106  60.881
20307DC     SC331946 109.485  61.426  60.827
20308DA     BB131947 108.849  60.764  60.938
20308DA     BB231948 109.162  60.660  61.099
20308DA     BB331949 109.176  60.744  61.295
20308DA     SC131950 109.323  61.001  61.200
20308DA     SC231951 109.551  61.101  61.220
20308DA     SC331952 109.436  61.323  61.162
20308DA     SC431953 109.234  61.130  61.164
20309DT     BB131954 109.169  60.620  61.455
20309DT     BB231955 109.518  60.642  61.544
20309DT     BB331956 109.541  60.762  61.711
20309DT     SC131957 109.498  60.980  61.571
20309DT     SC231958 109.681  61.092  61.557
20309DT     SC331959 109.384  61.202  61.485
20310DA     BB131960 109.738  60.404  61.807
20310DA     BB231961 109.965  60.681  61.888
20310DA     BB331962 109.901  60.779  62.066
20310DA     SC131963 109.722  60.985  61.918
20310DA     SC231964 109.723  61.230  61.871
20310DA     SC331965 109.471  61.202  61.828
20310DA     SC431966 109.567  60.947  61.897
20311DT     BB131967 110.016  60.772  62.247
20311DT     BB231968 110.141  61.110  62.230
20311DT     BB331969 110.049  61.227  62.373
20311DT     SC131970 109.827  61.236  62.234
20311DT     SC231971 109.798  61.435  62.158
20311DT     SC331972 109.574  61.201  62.168
20312DA     BB131973 110.461  61.281  62.430
20312DA     BB231974 110.306  61.613  62.413
20312DA     BB331975 110.202  61.655  62.595
20312DA     SC131976 109.932  61.538  62.495
20312DA     SC231977 109.706  61.623  62.430
20312DA     SC331978 109.626  61.382  62.471
20312DA     SC431979 109.901  61.383  62.527
20313DT     BB131980 110.270  61.806  62.715
20313DT     BB231981 110.013  62.045  62.631
20313DT     BB331982 109.879  62.063  62.787
20313DT     SC131983 109.769  61.831  62.731
20313DT     SC231984 109.571  61.863  62.655
20313DT     SC331985 109.692  61.580  62.757
20314DT     BB131986 109.980  62.307  62.836
20314DT     BB231987 109.628  62.362  62.776
20314DT     BB331988 109.522  62.336  62.952
20314DT     SC131989 109.548  62.075  62.937
20314DT     SC231990 109.356  61.987  62.895
20314DT     SC331991 109.619  61.829  63.000
20315DG     BB131992 109.449  62.706  62.800
20315DG     BB231993 109.143  62.525  62.864
20315DG     BB331994 109.104  62.524  63.060
20315DG     SC131995 109.260  62.266  63.114
20315DG     SC231996 109.143  62.006  63.201
20315DG     SC331997 109.438  61.998  63.214
20315DG     SC431998 109.416  62.276  63.148
20316DA     BB131999 108.796  62.632  62.952
20316DA     BB232000 108.641  62.342  63.114
20316DA     BB332001 108.641  62.366  63.326
20316DA     SC132002 108.916  62.227  63.366
20316DA     SC232003 109.003  62.014  63.464
20316DA     SC332004 109.229  62.136  63.476
20316DA     SC432005 109.048  62.320  63.367
20317DA     BB132006 108.329  62.297  63.260
20317DA     BB232007 108.370  62.008  63.481
20317DA     BB332008 108.385  62.072  63.684
20317DA     SC132009 108.695  62.097  63.679
20317DA     SC232010 108.892  61.979  63.778
20317DA     SC332011 109.020  62.196  63.728
20317DA     SC432012 108.757  62.241  63.642
20318DC     BB132013 108.240  62.017  63.798
20318DC     BB232014 108.419  61.768  63.988
20318DC     BB332015 108.472  61.844  64.173
20318DC     SC132016 108.663  61.991  64.066
20318DC     SC232017 108.854  61.913  64.126
20318DC     SC332018 108.800  62.203  63.992
20319DT     BB132019 108.286  61.687  64.288
20319DT     BB232020 108.593  61.602  64.458
20319DT     BB332021 108.626  61.734  64.614
20319DT     SC132022 108.697  61.925  64.449
20319DT     SC232023 108.907  61.963  64.470
20319DT     SC332024 108.693  62.155  64.320
20320DG     BB132025 108.615  61.363  64.787
20320DG     BB232026 108.912  61.544  64.886
20320DG     BB332027 108.867  61.676  65.027
20320DG     SC132028 108.804  61.902  64.831
20320DG     SC232029 108.960  62.155  64.798
20320DG     SC332030 108.707  62.166  64.644
20320DG     SC432031 108.654  61.916  64.774
20321DT     BB132032 108.951  61.668  65.240
20321DT     BB232033 109.190  61.938  65.233
20321DT     BB332034 109.116  62.101  65.336
20321DT     SC132035 108.951  62.159  65.140
20321DT     SC232036 109.015  62.341  65.045
20321DT     SC332037 108.725  62.199  65.010
20322DT     BB132038 109.288  62.061  65.546
20322DT     BB232039 109.357  62.398  65.438
20322DT     BB332040 109.229  62.530  65.533
20322DT     SC132041 109.027  62.456  65.383
20322DT     SC232042 108.975  62.617  65.250
20322DT     SC332043 108.794  62.356  65.313
20323DA     BB132044 109.614  62.680  65.606
20323DA     BB232045 109.409  62.957  65.481
20323DA     BB332046 109.275  63.024  65.633
20323DA     SC132047 109.045  62.831  65.549
20323DA     SC232048 108.819  62.848  65.444
20323DA     SC332049 108.778  62.616  65.546
20323DA     SC432050 109.038  62.688  65.622
20324DA     BB132051 109.413  63.316  65.570
20324DA     BB232052 109.081  63.429  65.464
20324DA     BB332053 108.958  63.468  65.634
20324DA     SC132054 108.842  63.180  65.647
20324DA     SC232055 108.624  63.066  65.607
20324DA     SC332056 108.719  62.877  65.752
20324DA     SC432057 108.918  63.073  65.741
20325DA     BB132058 108.927  63.757  65.482
20325DA     BB232059 108.570  63.679  65.453
20325DA     BB332060 108.472  63.707  65.640
20325DA     SC132061 108.516  63.414  65.734
20325DA     SC232062 108.378  63.210  65.775
20325DA     SC332063 108.574  63.130  65.919
20325DA     SC432064 108.648  63.382  65.821
20326DT     BB132065 108.339  63.850  65.647
20326DT     BB232066 108.050  63.634  65.640
20326DT     BB332067 107.967  63.621  65.829
20326DT     SC132068 108.160  63.463  65.911
20326DT     SC232069 108.082  63.265  65.943
20326DT     SC332070 108.368  63.376  66.048
20327DC     BB132071 107.769  63.759  65.724
20327DC     BB232072 107.621  63.451  65.839
20327DC     BB332073 107.581  63.463  66.042
20327DC     SC132074 107.836  63.436  66.102
20327DC     SC232075 107.867  63.245  66.194
20327DC     SC332076 108.076  63.493  66.194
20328DA     BB132077 107.259  63.318  65.813
20328DA     BB232078 107.315  63.093  66.097
20328DA     BB332079 107.263  63.190  66.280
20328DA     SC132080 107.549  63.303  66.329
20328DA     SC232081 107.738  63.265  66.488
20328DA     SC332082 107.818  63.498  66.417
20328DA     SC432083 107.581  63.451  66.273
20329DT     BB132084 107.138  63.095  66.337
20329DT     BB232085 107.320  62.941  66.609
20329DT     BB332086 107.298  63.053  66.781
20329DT     SC132087 107.463  63.237  66.692
20329DT     SC232088 107.645  63.232  66.807
20329DT     SC332089 107.553  63.470  66.608
20330DG     BB132090 107.205  62.656  66.821
20330DG     BB232091 107.434  62.771  67.076
20330DG     BB332092 107.340  62.892  67.203
20330DG     SC132093 107.400  63.147  67.044
20330DG     SC232094 107.576  63.371  67.132
20330DG     SC332095 107.431  63.442  66.885
20330DG     SC432096 107.299  63.192  66.929
20331DA     BB132097 107.476  62.687  67.448
20331DA     BB232098 107.633  62.979  67.605
20331DA     BB332099 107.485  63.098  67.703
20331DA     SC132100 107.430  63.277  67.454
20331DA     SC232101 107.469  63.513  67.384
20331DA     SC332102 107.283  63.471  67.212
20331DA     SC432103 107.311  63.232  67.356
20332DT     BB132104 107.479  63.115  67.912
20332DT     BB232105 107.596  63.456  67.936
20332DT     BB332106 107.438  63.582  67.983
20332DT     SC132107 107.341  63.565  67.740
20332DT     SC232108 107.366  63.755  67.641
20332DT     SC332109 107.176  63.511  67.542
20333DT     BB132110 107.512  63.623  68.254
20333DT     BB232111 107.487  63.957  68.122
20333DT     BB332112 107.296  64.031  68.150
20333DT     SC132113 107.201  63.881  67.957
20333DT     SC232114 107.145  64.005  67.790
20333DT     SC332115 107.061  63.695  67.833
20334DA     BB132116 107.540  64.325  68.324
20334DA     BB232117 107.307  64.496  68.098
20334DA     BB332118 107.114  64.509  68.186
20334DA     SC132119 107.014  64.240  68.066
20334DA     SC232120 106.850  64.165  67.894
20334DA     SC332121 106.860  63.938  68.013
20334DA     SC432122 107.033  64.108  68.155
20335DA     BB132123 107.155  64.827  68.121
20335DA     BB232124 106.863  64.802  67.901
20335DA     BB332125 106.683  64.799  68.016
20335DA     SC132126 106.676  64.489  68.042
20335DA     SC232127 106.538  64.300  67.956
20335DA     SC332128 106.635  64.166  68.153
20335DA     SC432129 106.746  64.423  68.171
20336DT     BB132130 106.566  64.952  67.991
20336DT     BB232131 106.314  64.783  67.795
20336DT     BB332132 106.149  64.742  67.912
20336DT     SC132133 106.273  64.547  68.034
20336DT     SC232134 106.187  64.359  67.976
20336DT     SC332135 106.385  64.406  68.228
20337DT     BB132136 106.031  64.926  67.765
20337DT     BB232137 105.827  64.631  67.726
20337DT     BB332138 105.697  64.614  67.886
20337DT     SC132139 105.890  64.536  68.045
20337DT     SC232140 105.862  64.328  68.095
20337DT     SC332141 106.061  64.535  68.246
20338DC     BB132142 105.503  64.677  67.715
20338DC     BB232143 105.397  64.364  67.861
20338DC     BB332144 105.302  64.399  68.041
20338DC     SC132145 105.530  64.449  68.161
20338DC     SC232146 105.575  64.290  68.299
20338DC     SC332147 105.720  64.580  68.289
20339DA     BB132148 105.028  64.164  67.824
20339DA     BB232149 105.049  64.023  68.162
20339DA     BB332150 104.945  64.147  68.301
20339DA     SC132151 105.195  64.319  68.371
20339DA     SC232152 105.348  64.353  68.565
20339DA     SC332153 105.409  64.575  68.452
20339DA     SC432154 105.219  64.453  68.286
20340DA     BB132155 104.749  63.888  68.400
20340DA     BB232156 104.884  63.926  68.738
20340DA     BB332157 104.782  64.084  68.841
20340DA     SC132158 104.982  64.305  68.750
20340DA     SC232159 105.157  64.449  68.853
20340DA     SC332160 105.126  64.599  68.647
20340DA     SC432161 104.947  64.385  68.615
20341DA     BB132162 104.690  63.878  69.095
20341DA     BB232163 104.892  64.084  69.322
20341DA     BB332164 104.781  64.254  69.387
20341DA     SC132165 104.878  64.436  69.154
20341DA     SC232166 105.026  64.635  69.124
20341DA     SC332167 104.900  64.670  68.903
20341DA     SC432168 104.787  64.442  69.021
20342DA     BB132169 104.843  64.154  69.697
20342DA     BB232170 105.034  64.464  69.742
20342DA     BB332171 104.902  64.627  69.783
20342DA     SC132172 104.868  64.705  69.483
20342DA     SC232173 104.936  64.892  69.333
20342DA     SC332174 104.746  64.811  69.180
20342DA     SC432175 104.745  64.640  69.403
20343DA     BB132176 105.101  64.656  70.040
20343DA     BB232177 105.195  64.983  69.904
20343DA     BB332178 105.041  65.126  69.942
20343DA     SC132179 104.892  65.071  69.675
20343DA     SC232180 104.849  65.190  69.460
20343DA     SC332181 104.653  65.027  69.432
20343DA     SC432182 104.774  64.962  69.676
20344DT     BB132183 105.095  65.266  70.057
20344DT     BB232184 105.125  65.521  69.804
20344DT     BB332185 104.959  65.645  69.809
20344DT     SC132186 104.810  65.461  69.695
20344DT     SC232187 104.759  65.524  69.496
20344DT     SC332188 104.618  65.284  69.661
20345DC     BB132189 105.127  65.824  69.902
20345DC     BB232190 104.984  65.972  69.605
20345DC     BB332191 104.800  66.055  69.649
20345DC     SC132192 104.687  65.819  69.662
20345DC     SC232193 104.554  65.795  69.495
20345DC     SC332194 104.562  65.608  69.760
20346DG     BB132195 105.039  66.345  69.489
20346DG     BB232196 104.719  66.327  69.321
20346DG     BB332197 104.578  66.411  69.434
20346DG     SC132198 104.507  66.152  69.581
20346DG     SC232199 104.249  66.004  69.560
20346DG     SC332200 104.418  65.892  69.775
20346DG     SC432201 104.587  66.114  69.714
20347DA     BB132202 104.487  66.612  69.161
20347DA     BB232203 104.147  66.475  69.170
20347DA     BB332204 104.036  66.563  69.329
20347DA     SC132205 104.116  66.347  69.538
20347DA     SC232206 104.006  66.160  69.662
20347DA     SC332207 104.204  66.179  69.825
20347DA     SC432208 104.246  66.375  69.628
20348DT     BB132209 103.864  66.699  69.301
20348DT     BB232210 103.609  66.461  69.392
20348DT     BB332211 103.528  66.512  69.576
20348DT     SC132212 103.741  66.426  69.702
20348DT     SC232213 103.692  66.247  69.812
20348DT     SC332214 103.959  66.427  69.851
20349DT     BB132215 103.280  66.613  69.478
20349DT     BB232216 103.184  66.351  69.706
20349DT     BB332217 103.153  66.429  69.895
20349DT     SC132218 103.411  66.454  69.935
20349DT     SC232219 103.474  66.312  70.084
20349DT     SC332220 103.646  66.566  69.978
20350DT     BB132221 102.881  66.398  69.875
20350DT     BB232222 102.977  66.198  70.160
20350DT     BB332223 102.974  66.314  70.331
20350DT     SC132224 103.196  66.435  70.262
20350DT     SC232225 103.355  66.374  70.395
20350DT     SC332226 103.363  66.627  70.193
20351DT     BB132227 102.760  66.173  70.405
20351DT     BB232228 103.004  66.116  70.664
20351DT     BB332229 102.995  66.268  70.805
20351DT     SC132230 103.114  66.436  70.642
20351DT     SC232231 103.311  66.480  70.717
20351DT     SC332232 103.153  66.646  70.488
20352DA     BB132233 103.001  65.881  70.969
20352DA     BB232234 103.251  66.087  71.141
20352DA     BB332235 103.155  66.236  71.259
20352DA     SC132236 103.153  66.449  71.032
20352DA     SC232237 103.267  66.665  70.981
20352DA     SC332238 103.071  66.706  70.820
20352DA     SC432239 103.023  66.456  70.938
20353DT     BB132240 103.194  66.206  71.431
20353DT     BB232241 103.418  66.484  71.479
20353DT     BB332242 103.316  66.644  71.561
20353DT     SC132243 103.200  66.698  71.332
20353DT     SC232244 103.277  66.882  71.254
20353DT     SC332245 103.010  66.730  71.152
20354DT     BB132246 103.448  66.597  71.790
20354DT     BB232247 103.518  66.943  71.714
20354DT     BB332248 103.364  67.063  71.784
20354DT     SC132249 103.206  66.987  71.589
20354DT     SC232250 103.174  67.152  71.455
20354DT     SC332251 103.000  66.879  71.464
20355DA     BB132252 103.711  67.231  71.952
20355DA     BB232253 103.516  67.505  71.806
20355DA     BB332254 103.348  67.550  71.929
20355DA     SC132255 103.157  67.352  71.783
20355DA     SC232256 102.959  67.364  71.632
20355DA     SC332257 102.914  67.122  71.705
20355DA     SC432258 103.146  67.203  71.841
20356DC     BB132259 103.322  67.738  72.045
20356DC     BB232260 103.073  67.884  71.828
20356DC     BB332261 102.889  67.886  71.924
20356DC     SC132262 102.859  67.628  71.888
20356DC     SC232263 102.702  67.594  71.745
20356DC     SC332264 102.831  67.372  71.942
20357DT     BB132265 102.888  68.164  71.973
20357DT     BB232266 102.588  68.107  71.781
20357DT     BB332267 102.429  68.070  71.908
20357DT     SC132268 102.516  67.828  71.959
20357DT     SC232269 102.383  67.684  71.870
20357DT     SC332270 102.610  67.621  72.094
20358DA     BB132271 102.320  68.373  71.642
20358DA     BB232272 102.059  68.115  71.634
20358DA     BB332273 101.941  68.123  71.812
20358DA     SC132274 102.119  67.922  71.968
20358DA     SC232275 102.102  67.689  72.055
20358DA     SC332276 102.294  67.754  72.211
20358DA     SC432277 102.238  67.982  72.058
20359DA     BB132278 101.743  68.126  71.556
20359DA     BB232279 101.608  67.814  71.695
20359DA     BB332280 101.501  67.853  71.875
20359DA     SC132281 101.749  67.814  72.059
20359DA     SC232282 101.829  67.649  72.228
20359DA     SC332283 101.982  67.838  72.310
20359DA     SC432284 101.835  67.944  72.096
20360DA     BB132285 101.332  67.665  71.667
20360DA     BB232286 101.324  67.424  71.943
20360DA     BB332287 101.213  67.503  72.107
20360DA     SC132288 101.460  67.633  72.244
20360DA     SC232289 101.598  67.597  72.448
20360DA     SC332290 101.672  67.841  72.416
20360DA     SC432291 101.493  67.786  72.207
20361DC     BB132292 101.083  67.395  72.121
20361DC     BB232293 101.180  67.241  72.432
20361DC     BB332294 101.096  67.343  72.591
20361DC     SC132295 101.266  67.541  72.564
20361DC     SC232296 101.401  67.542  72.732
20361DC     SC332297 101.359  67.784  72.520
20362DT     BB132298 100.954  67.125  72.612
20362DT     BB232299 101.103  67.173  72.937
20362DT     BB332300 100.995  67.315  73.044
20362DT     SC132301 101.095  67.510  72.900
20362DT     SC232302 101.229  67.627  73.022
20362DT     SC332303 101.108  67.715  72.734
20363DC     BB132304 100.904  67.116  73.199
20363DC     BB232305 101.044  67.353  73.431
20363DC     BB332306 100.905  67.500  73.475
20363DC     SC132307 100.941  67.614  73.241
20363DC     SC232308 101.040  67.803  73.268
20363DC     SC332309 100.889  67.704  72.999
20364DG     BB132310 100.994  67.334  73.838
20364DG     BB232311 101.018  67.695  73.852
20364DG     BB332312 100.836  67.774  73.867
20364DG     SC132313 100.794  67.796  73.565
20364DG     SC232314 100.773  68.049  73.409
20364DG     SC332315 100.705  67.816  73.240
20364DG     SC432316 100.730  67.672  73.486
20365DT     BB132317 100.748  67.898  74.053
20365DT     BB232318 100.746  68.234  73.922
20365DT     BB332319 100.552  68.293  73.879
20365DT     SC132320 100.546  68.142  73.664
20365DT     SC232321 100.543  68.267  73.489
20365DT     SC332322 100.474  67.951  73.497
20366DA     BB132323 100.669  68.606  74.138
20366DA     BB232324 100.516  68.763  73.844
20366DA     BB332325 100.304  68.750  73.855
20366DA     SC132326 100.288  68.479  73.702
20366DA     SC232327 100.210  68.396  73.481
20366DA     SC332328 100.203  68.165  73.592
20366DA     SC432329 100.290  68.344  73.790
20367DA     BB132330 100.271  69.087  73.829
20367DA     BB232331 100.091  69.036  73.514
20367DA     BB332332  99.886  68.992  73.552
20367DA     SC132333  99.928  68.684  73.564
20367DA     SC232334  99.870  68.484  73.427
20367DA     SC332335  99.911  68.350  73.642
20367DA     SC432336  99.957  68.618  73.708
20368DC     BB132337  99.687  69.127  73.505
20368DC     BB232338  99.582  68.935  73.218
20368DC     BB332339  99.403  68.839  73.258
20368DC     SC132340  99.523  68.663  73.411
20368DC     SC232341  99.519  68.471  73.315
20368DC     SC332342  99.590  68.526  73.626
20369DA     BB132343  99.303  69.053  72.909
20369DA     BB232344  99.213  68.703  72.851
20369DA     BB332345  99.027  68.657  72.945
20369DA     SC132346  99.157  68.566  73.213
20369DA     SC232347  99.190  68.354  73.339
20369DA     SC332348  99.227  68.505  73.543
20369DA     SC432349  99.176  68.677  73.328
20370DA     BB132350  98.941  68.562  72.645
20370DA     BB232351  98.920  68.222  72.781
20370DA     BB332352  98.735  68.195  72.884
20370DA     SC132353  98.847  68.286  73.160
20370DA     SC232354  98.901  68.182  73.380
20370DA     SC332355  98.886  68.421  73.473
20370DA     SC432356  98.832  68.441  73.198
20371DA     BB132357  98.751  67.951  72.675
20371DA     BB232358  98.759  67.732  72.969
20371DA     BB332359  98.565  67.721  73.059
20371DA     SC132360  98.614  67.962  73.251
20371DA     SC232361  98.645  67.999  73.495
20371DA     SC332362  98.580  68.242  73.446
20371DA     SC432363  98.570  68.107  73.200
20372DA     BB132364  98.685  67.424  73.012
20372DA     BB232365  98.656  67.388  73.376
20372DA     BB332366  98.451  67.383  73.434
20372DA     SC132367  98.430  67.691  73.475
20372DA     SC232368  98.405  67.850  73.665
20372DA     SC332369  98.323  68.017  73.487
20372DA     SC432370  98.381  67.779  73.350
20373DA     BB132371  98.611  67.132  73.571
20373DA     BB232372  98.497  67.273  73.889
20373DA     BB332373  98.284  67.258  73.906
20373DA     SC132374  98.230  67.536  73.777
20373DA     SC232375  98.147  67.760  73.850
20373DA     SC332376  98.099  67.800  73.601
20373DA     SC432377  98.206  67.541  73.618
20374DG     BB132378  98.378  67.101  74.154
20374DG     BB232379  98.196  67.361  74.327
20374DG     BB332380  98.001  67.326  74.316
20374DG     SC132381  97.963  67.484  74.056
20374DG     SC232382  97.810  67.738  74.025
20374DG     SC332383  97.890  67.631  73.761
20374DG     SC432384  97.982  67.408  73.916
20375DA     BB132385  97.993  67.361  74.662
20375DA     BB232386  97.749  67.633  74.631
20375DA     BB332387  97.556  67.554  74.584
20375DA     SC132388  97.597  67.572  74.276
20375DA     SC232389  97.509  67.707  74.086
20375DA     SC332390  97.594  67.515  73.938
20375DA     SC432391  97.656  67.443  74.201
20376DA     BB132392  97.454  67.721  74.851
20376DA     BB232393  97.232  67.911  74.630
20376DA     BB332394  97.060  67.795  74.580
20376DA     SC132395  97.188  67.670  74.325
20376DA     SC232396  97.159  67.685  74.078
20376DA     SC332397  97.281  67.459  74.071
20376DA     SC432398  97.264  67.529  74.342
20377DA     BB132399  96.891  68.054  74.695
20377DA     BB232400  96.749  68.090  74.359
20377DA     BB332401  96.594  67.946  74.328
20377DA     SC132402  96.784  67.730  74.211
20377DA     SC232403  96.828  67.622  73.991
20377DA     SC332404  96.938  67.435  74.127
20377DA     SC432405  96.847  67.623  74.314
20378DG     BB132406  96.413  68.195  74.287
20378DG     BB232407  96.387  68.065  73.951
20378DG     BB332408  96.246  67.925  73.943
20378DG     SC132409  96.437  67.695  74.009
20378DG     SC232410  96.514  67.473  73.825
20378DG     SC332411  96.613  67.422  74.099
20378DG     SC432412  96.462  67.657  74.162
20379DA     BB132413  96.137  68.114  73.678
20379DA     BB232414  96.175  67.823  73.458
20379DA     BB332415  96.019  67.681  73.495
20379DA     SC132416  96.180  67.525  73.711
20379DA     SC232417  96.289  67.301  73.734
20379DA     SC332418  96.275  67.343  73.987
20379DA     SC432419  96.161  67.569  73.864
20380DT     BB132420  95.913  67.662  73.348
20380DT     BB232421  96.025  67.334  73.249
20380DT     BB332422  95.893  67.191  73.317
20380DT     SC132423  95.981  67.215  73.563
20380DT     SC232424  96.088  67.037  73.618
20380DT     SC332425  95.984  67.266  73.822
20381DT     BB132426  95.830  67.164  73.063
20381DT     BB232427  95.926  66.833  73.171
20381DT     BB332428  95.767  66.741  73.267
20381DT     SC132429  95.800  66.889  73.481
20381DT     SC232430  95.872  66.766  73.642
20381DT     SC332431  95.750  67.065  73.671
20382DA     BB132432  95.921  66.481  72.975
20382DA     BB232433  95.877  66.292  73.286
20382DA     BB332434  95.670  66.262  73.326
20382DA     SC132435  95.640  66.522  73.494
20382DA     SC232436  95.602  66.584  73.733
20382DA     SC332437  95.525  66.810  73.640
20382DA     SC432438  95.594  66.655  73.417
20383DA     BB132439  95.775  65.950  73.344
20383DA     BB232440  95.648  65.949  73.688
20383DA     BB332441  95.435  65.943  73.689
20383DA     SC132442  95.401  66.252  73.691
20383DA     SC232443  95.324  66.428  73.849
20383DA     SC332444  95.293  66.574  73.640
20383DA     SC432445  95.388  66.326  73.549
20384DT     BB132446  95.345  65.779  73.760
20384DT     BB232447  95.223  65.921  74.068
20384DT     BB332448  95.020  65.961  74.052
20384DT     SC132449  95.065  66.170  73.900
20384DT     SC232450  95.016  66.349  74.010
20384DT     SC332451  95.064  66.329  73.690
20385DA     BB132452  95.052  65.727  74.401
20385DA     BB232453  94.841  66.016  74.481
20385DA     BB332454  94.647  65.993  74.395
20385DA     SC132455  94.722  66.137  74.129
20385DA     SC232456  94.668  66.351  74.014
20385DA     SC332457  94.748  66.233  73.801
20385DA     SC432458  94.774  66.046  74.008
20386DT     BB132459  94.462  65.961  74.511
20386DT     BB232460  94.323  66.291  74.463
20386DT     BB332461  94.162  66.282  74.334
20386DT     SC132462  94.320  66.251  74.127
20386DT     SC232463  94.314  66.428  74.004
20386DT     SC332464  94.435  66.140  73.916
20387DT     BB132465  93.948  66.310  74.526
20387DT     BB232466  93.885  66.577  74.292
20387DT     BB332467  93.755  66.513  74.144
20387DT     SC132468  93.943  66.371  74.028
20387DT     SC232469  93.995  66.462  73.840
20387DT     SC332470  94.076  66.163  73.936
20388DA     BB132471  93.537  66.848  74.284
20388DA     BB232472  93.562  66.882  73.919
20388DA     BB332473  93.417  66.758  73.824
20388DA     SC132474  93.607  66.512  73.802
20388DA     SC232475  93.727  66.387  73.622
20388DA     SC332476  93.740  66.195  73.793
20388DA     SC432477  93.604  66.405  73.921
20389DA     BB132478  93.296  67.027  73.668
20389DA     BB232479  93.412  66.878  73.353
20389DA     BB332480  93.268  66.739  73.280
20389DA     SC132481  93.392  66.495  73.428
20389DA     SC232482  93.515  66.286  73.368
20389DA     SC332483  93.441  66.201  73.598
20389DA     SC432484  93.334  66.459  73.573
20390DA     BB132485  93.292  66.928  73.017
20390DA     BB232486  93.438  66.636  72.849
20390DA     BB332487  93.285  66.500  72.790
20390DA     SC132488  93.293  66.337  73.055
20390DA     SC232489  93.364  66.110  73.130
20390DA     SC332490  93.212  66.152  73.333
20390DA     SC432491  93.192  66.381  73.172
20391DT     BB132492  93.273  66.479  72.600
20391DT     BB232493  93.439  66.159  72.589
20391DT     BB332494  93.301  66.008  72.559
20391DT     SC132495  93.216  66.026  72.807
20391DT     SC232496  93.275  65.849  72.915
20391DT     SC332497  93.055  66.067  73.011
20392DC     BB132498  93.434  66.000  72.337
20392DC     BB232499  93.473  65.675  72.488
20392DC     BB332500  93.305  65.560  72.453
20392DC     SC132501  93.166  65.695  72.631
20392DC     SC232502  93.127  65.569  72.801
20392DC     SC332503  92.981  65.851  72.734
20393DT     BB132504  93.486  65.438  72.318
20393DT     BB232505  93.355  65.195  72.550
20393DT     BB332506  93.172  65.125  72.483
20393DT     SC132507  93.052  65.348  72.552
20393DT     SC232508  92.922  65.310  72.719
20393DT     SC332509  92.919  65.575  72.531
20394DC     BB132510  93.316  64.911  72.454
20394DC     BB232511  93.039  64.815  72.663
20394DC     BB332512  92.870  64.783  72.547
20394DC     SC132513  92.836  65.041  72.514
20394DC     SC232514  92.660  65.104  72.621
20394DC     SC332515  92.816  65.276  72.395
20395DT     BB132516  92.906  64.528  72.605
20395DT     BB232517  92.566  64.598  72.704
20395DT     BB332518  92.441  64.588  72.539
20395DT     SC132519  92.528  64.819  72.449
20395DT     SC232520  92.372  64.966  72.466
20395DT     SC332521  92.643  64.996  72.291
20396DA     BB132522  92.267  64.337  72.827
20396DA     BB232523  91.999  64.545  72.686
20396DA     BB332524  91.951  64.479  72.489
20396DA     SC132525  92.155  64.668  72.349
20396DA     SC232526  92.149  64.870  72.204
20396DA     SC332527  92.388  64.805  72.138
20396DA     SC432528  92.302  64.609  72.320
20397DC     BB132529  91.761  64.384  72.437
20397DC     BB232530  91.620  64.659  72.252
20397DC     BB332531  91.619  64.616  72.050
20397DC     SC132532  91.877  64.656  72.032
20397DC     SC232533  91.914  64.835  71.918
20397DC     SC332534  92.134  64.608  71.993
20398DT     BB132535  91.339  64.560  72.024
20398DT     BB232536  91.395  64.812  71.772
20398DT     BB332537  91.438  64.723  71.591
20398DT     SC132538  91.680  64.659  71.670
20398DT     SC232539  91.824  64.777  71.563
20398DT     SC332540  91.888  64.513  71.738
20399DA     BB132541  91.112  64.968  71.484
20399DA     BB232542  91.376  65.029  71.236
20399DA     BB332543  91.382  64.870  71.094
20399DA     SC132544  91.588  64.701  71.255
20399DA     SC232545  91.827  64.632  71.233
20399DA     SC332546  91.767  64.446  71.399
20399DA     SC432547  91.531  64.592  71.357
20400DA     BB132548  91.344  65.097  70.852
20400DA     BB232549  91.673  64.999  70.724
20400DA     BB332550  91.657  64.823  70.605
20400DA     SC132551  91.705  64.628  70.843
20400DA     SC232552  91.883  64.472  70.921
20400DA     SC332553  91.697  64.363  71.061
20400DA     SC432554  91.575  64.573  70.922
20401DC     BB132555  91.695  64.826  70.396
20401DC     BB232556  92.019  64.668  70.413
20401DC     BB332557  92.007  64.475  70.340
20401DC     SC132558  91.885  64.391  70.557
20401DC     SC232559  92.017  64.262  70.668
20401DC     SC332560  91.698  64.292  70.714
20402DT     BB132561  92.147  64.556  70.126
20402DT     BB232562  92.344  64.292  70.271
20402DT     BB332563  92.280  64.109  70.201
20402DT     SC132564  92.066  64.117  70.353
20402DT     SC232565  92.083  63.969  70.508
20402DT     SC332566  91.812  64.126  70.423
20403DT     BB132567  92.510  64.105  70.072
20403DT     BB232568  92.512  63.810  70.279
20403DT     BB332569  92.407  63.657  70.186
20403DT     SC132570  92.177  63.771  70.241
20403DT     SC232571  92.073  63.653  70.388
20403DT     SC332572  91.943  63.888  70.207
20404DA     BB132573  92.782  63.526  70.323
20404DA     BB232574  92.528  63.283  70.428
20404DA     BB332575  92.452  63.178  70.259
20404DA     SC132576  92.221  63.379  70.206
20404DA     SC232577  91.972  63.383  70.224
20404DA     SC332578  91.984  63.581  70.061
20404DA     SC432579  92.249  63.500  70.104
20405DA     BB132580  92.538  62.934  70.462
20405DA     BB232581  92.187  62.828  70.445
20405DA     BB332582  92.143  62.747  70.253
20405DA     SC132583  92.054  63.019  70.132
20405DA     SC232584  91.843  63.127  70.054
20405DA     SC332585  91.996  63.286  69.923
20405DA     SC432586  92.166  63.107  70.056
20406DA     BB132587  92.037  62.487  70.430
20406DA     BB232588  91.708  62.539  70.277
20406DA     BB332589  91.708  62.472  70.075
20406DA     SC132590  91.793  62.747  69.957
20406DA     SC232591  91.691  62.928  69.819
20406DA     SC332592  91.933  62.998  69.769
20406DA     SC432593  91.950  62.773  69.936
20407DC     BB132594  91.596  62.296  70.002
20407DC     BB232595  91.340  62.480  69.825
20407DC     BB332596  91.368  62.461  69.621
20407DC     SC132597  91.572  62.626  69.625
20407DC     SC232598  91.518  62.809  69.526
20407DC     SC332599  91.819  62.716  69.602
20408DT     BB132600  91.154  62.276  69.568
20408DT     BB232601  91.083  62.555  69.350
20408DT     BB332602  91.169  62.524  69.164
20408DT     SC132603  91.408  62.577  69.257
20408DT     SC232604  91.476  62.764  69.175
20408DT     SC332605  91.660  62.544  69.326
20409DA     BB132606  90.765  62.596  69.073
20409DA     BB232607  90.967  62.823  68.867
20409DA     BB332608  91.053  62.717  68.703
20409DA     SC132609  91.314  62.642  68.855
20409DA     SC232610  91.555  62.703  68.847
20409DA     SC332611  91.593  62.483  68.974
20409DA     SC432612  91.317  62.501  68.932
20410DT     BB132613  90.993  62.770  68.519
20410DT     BB232614  91.289  62.960  68.439
20410DT     BB332615  91.406  62.855  68.305
20410DT     SC132616  91.487  62.690  68.493
20410DT     SC232617  91.695  62.725  68.535
20410DT     SC332618  91.524  62.466  68.628
20411DA     BB132619  91.341  63.250  68.186
20411DA     BB232620  91.701  63.183  68.175
20411DA     BB332621  91.748  63.052  68.014
20411DA     SC132622  91.716  62.793  68.183
20411DA     SC232623  91.863  62.613  68.275
20411DA     SC332624  91.648  62.474  68.292
20411DA     SC432625  91.572  62.722  68.184
20412DT     BB132626  91.852  63.141  67.902
20412DT     BB232627  92.159  62.970  67.985
20412DT     BB332628  92.195  62.819  67.848
20412DT     SC132629  92.009  62.668  67.955
20412DT     SC232630  92.101  62.500  68.053
20412DT     SC332631  91.786  62.528  67.979
20413DA     BB132632  92.530  63.064  67.917
20413DA     BB232633  92.633  62.713  67.941
20413DA     BB332634  92.625  62.620  67.749
20413DA     SC132635  92.330  62.523  67.781
20413DA     SC232636  92.209  62.307  67.811
20413DA     SC332637  92.003  62.436  67.728
20413DA     SC432638  92.214  62.620  67.727
20414DA     BB132639  92.923  62.554  67.863
20414DA     BB232640  92.831  62.201  67.828
20414DA     BB332641  92.817  62.147  67.622
20414DA     SC132642  92.515  62.216  67.599
20414DA     SC232643  92.299  62.094  67.569
20414DA     SC332644  92.206  62.320  67.490
20414DA     SC432645  92.476  62.365  67.551
20415DA     BB132646  93.016  61.920  67.748
20415DA     BB232647  92.769  61.675  67.633
20415DA     BB332648  92.773  61.660  67.420
20415DA     SC132649  92.556  61.880  67.377
20415DA     SC232650  92.320  61.893  67.299
20415DA     SC332651  92.369  62.141  67.257
20415DA     SC432652  92.607  62.031  67.356
20416DA     BB132653  92.802  61.350  67.518
20416DA     BB232654  92.495  61.285  67.328
20416DA     BB332655  92.534  61.297  67.118
20416DA     SC132656  92.469  61.600  67.098
20416DA     SC232657  92.291  61.745  66.999
20416DA     SC332658  92.464  61.934  67.015
20416DA     SC432659  92.591  61.704  67.115
20417DT     BB132660  92.511  61.134  67.033
20417DT     BB232661  92.207  61.215  66.856
20417DT     BB332662  92.250  61.266  66.660
20417DT     SC132663  92.343  61.500  66.734
20417DT     SC232664  92.209  61.654  66.667
20417DT     SC332665  92.512  61.699  66.774
20418DT     BB132666  92.140  61.035  66.591
20418DT     BB232667  91.961  61.282  66.399
20418DT     BB332668  92.068  61.329  66.227
20418DT     SC132669  92.242  61.470  66.364
20418DT     SC232670  92.217  61.678  66.317
20418DT     SC332671  92.471  61.546  66.470
20419DA     BB132672  91.679  61.233  66.098
20419DA     BB232673  91.780  61.541  65.927
20419DA     BB332674  91.926  61.498  65.777
20419DA     SC132675  92.169  61.539  65.968
20419DA     SC232676  92.354  61.703  65.999
20419DA     SC332677  92.471  61.515  66.129
20419DA     SC432678  92.226  61.409  66.044
20420DT     BB132679  91.890  61.515  65.562
20420DT     BB232680  92.090  61.809  65.502
20420DT     BB332681  92.264  61.757  65.403
20420DT     SC132682  92.368  61.655  65.621
20420DT     SC232683  92.531  61.779  65.687
20420DT     SC332684  92.468  61.478  65.788
20421DA     BB132685  92.120  62.041  65.121
20421DA     BB232686  92.472  62.126  65.181
20421DA     BB332687  92.599  61.997  65.069
20421DA     SC132688  92.625  61.784  65.295
20421DA     SC232689  92.800  61.701  65.451
20421DA     SC332690  92.653  61.492  65.473
20421DA     SC432691  92.520  61.662  65.294
20422DA     BB132692  92.748  62.259  64.915
20422DA     BB232693  93.063  62.163  65.077
20422DA     BB332694  93.162  62.012  64.963
20422DA     SC132695  93.026  61.776  65.113
20422DA     SC232696  93.092  61.596  65.273
20422DA     SC332697  92.879  61.476  65.195
20422DA     SC432698  92.890  61.717  65.051
20423DC     BB132699  93.357  62.042  64.857
20423DC     BB232700  93.557  61.865  65.098
20423DC     BB332701  93.628  61.689  65.016
20423DC     SC132702  93.392  61.576  65.036
20423DC     SC232703  93.399  61.422  65.186
20423DC     SC332704  93.165  61.462  64.966
20424DA     BB132705  93.947  61.900  65.182
20424DA     BB232706  93.958  61.556  65.311
20424DA     BB332707  94.025  61.422  65.159
20424DA     SC132708  93.738  61.361  65.054
20424DA     SC232709  93.579  61.169  65.052
20424DA     SC332710  93.465  61.291  64.858
20424DA     SC432711  93.682  61.452  64.933
20425DT     BB132712  94.185  61.345  65.205
20425DT     BB232713  94.057  61.017  65.283
20425DT     BB332714  94.088  60.889  65.124
20425DT     SC132715  93.895  61.000  64.986
20425DT     SC232716  93.731  60.862  64.969
20425DT     SC332717  93.771  61.132  64.794
20426DA     BB132718  94.213  60.719  65.488
20426DA     BB232719  94.014  60.471  65.306
20426DA     BB332720  94.120  60.402  65.134
20426DA     SC132721  94.002  60.618  64.944
20426DA     SC232722  93.843  60.629  64.752
20426DA     SC332723  93.955  60.853  64.698
20426DA     SC432724  94.085  60.755  64.926
20427DT     BB132725  94.173  60.217  65.139
20427DT     BB232726  93.943  60.093  64.889
20427DT     BB332727  94.042  60.068  64.709
20427DT     SC132728  94.045  60.327  64.666
20427DT     SC232729  93.913  60.375  64.504
20427DT     SC332730  94.138  60.571  64.629
20428DT     BB132731  94.049  59.791  64.729
20428DT     BB232732  93.897  59.848  64.406
20428DT     BB332733  94.044  59.863  64.261
20428DT     SC132734  94.112  60.103  64.342
20428DT     SC232735  94.054  60.247  64.193
20428DT     SC332736  94.257  60.300  64.440
20429DC     BB132737  94.023  59.597  64.132
20429DC     BB232738  93.990  59.824  63.853
20429DC     BB332739  94.175  59.853  63.764
20429DC     SC132740  94.255  60.007  63.960
20429DC     SC232741  94.271  60.210  63.890
20429DC     SC332742  94.394  60.094  64.167
20430DC     BB132743  94.160  59.682  63.514
20430DC     BB232744  94.239  60.010  63.385
20430DC     BB332745  94.443  60.027  63.355
20430DC     SC132746  94.487  60.049  63.612
20430DC     SC232747  94.552  60.250  63.656
20430DC     SC332748  94.576  59.994  63.854
20431DA     BB132749  94.307  60.120  62.967
20431DA     BB232750  94.531  60.392  63.067
20431DA     BB332751  94.734  60.337  63.036
20431DA     SC132752  94.770  60.217  63.322
20431DA     SC232753  94.894  60.274  63.531
20431DA     SC332754  94.863  60.026  63.592
20431DA     SC432755  94.742  60.060  63.341
20432DA     BB132756  94.736  60.614  62.866
20432DA     BB232757  94.976  60.742  63.110
20432DA     BB332758  95.172  60.666  63.069
20432DA     SC132759  95.139  60.415  63.250
20432DA     SC232760  95.231  60.330  63.466
20432DA     SC332761  95.153  60.100  63.385
20432DA     SC432762  95.085  60.281  63.182
20433DC     BB132763  95.299  60.802  63.019
20433DC     BB232764  95.480  60.807  63.331
20433DC     BB332765  95.659  60.706  63.311
20433DC     SC132766  95.538  60.474  63.314
20433DC     SC232767  95.585  60.371  63.496
20433DC     SC332768  95.451  60.238  63.233
20434DT     BB132769  95.773  60.946  63.330
20434DT     BB232770  95.921  60.752  63.596
20434DT     BB332771  96.080  60.642  63.523
20434DT     SC132772  95.918  60.472  63.405
20434DT     SC232773  95.928  60.282  63.506
20434DT     SC332774  95.797  60.336  63.214
20435DC     BB132775  96.249  60.808  63.655
20435DC     BB232776  96.335  60.478  63.775
20435DC     BB332777  96.473  60.391  63.648
20435DC     SC132778  96.289  60.345  63.466
20435DC     SC232779  96.253  60.133  63.454
20435DC     SC332780  96.157  60.356  63.238
20436DT     BB132781  96.682  60.425  63.827
20436DT     BB232782  96.686  60.071  63.756
20436DT     BB332783  96.807  60.033  63.592
20436DT     SC132784  96.627  60.128  63.427
20436DT     SC232785  96.545  59.967  63.311
20436DT     SC332786  96.512  60.283  63.247
20437DA     BB132787  96.969  59.778  63.885
20437DA     BB232788  96.922  59.577  63.582
20437DA     BB332789  97.077  59.617  63.441
20437DA     SC132790  96.922  59.846  63.299
20437DA     SC232791  96.811  59.885  63.078
20437DA     SC332792  96.834  60.134  63.134
20437DA     SC432793  96.946  59.996  63.351
20438DA     BB132794  97.134  59.292  63.445
20438DA     BB232795  97.045  59.286  63.089
20438DA     BB332796  97.210  59.350  62.971
20438DA     SC132797  97.128  59.650  62.974
20438DA     SC232798  97.041  59.819  62.813
20438DA     SC332799  97.127  59.993  62.981
20438DA     SC432800  97.190  59.743  63.090
20439DT     BB132801  97.304  59.215  62.842
20439DT     BB232802  97.162  59.346  62.537
20439DT     BB332803  97.307  59.447  62.429
20439DT     SC132804  97.300  59.651  62.594
20439DT     SC232805  97.213  59.820  62.494
20439DT     SC332806  97.379  59.828  62.772
20440DT     BB132807  97.292  59.244  62.257
20440DT     BB232808  97.214  59.539  62.063
20440DT     BB332809  97.389  59.628  61.997
20440DT     SC132810  97.440  59.723  62.237
20440DT     SC232811  97.417  59.937  62.235
20440DT     SC332812  97.562  59.763  62.467
20441DT     BB132813  97.308  59.544  61.761
20441DT     BB232814  97.346  59.902  61.728
20441DT     BB332815  97.545  59.949  61.691
20441DT     SC132816  97.609  59.902  61.941
20441DT     SC232817  97.660  60.088  62.038
20441DT     SC332818  97.724  59.792  62.152
20442DA     BB132819  97.291  60.139  61.418
20442DA     BB232820  97.528  60.387  61.547
20442DA     BB332821  97.724  60.348  61.471
20442DA     SC132822  97.806  60.164  61.708
20442DA     SC232823  97.962  60.171  61.903
20442DA     SC332824  97.940  59.915  61.903
20442DA     SC432825  97.781  60.006  61.691
20443DA     BB132826  97.675  60.664  61.403
20443DA     BB232827  97.975  60.730  61.604
20443DA     BB332828  98.149  60.661  61.501
20443DA     SC132829  98.142  60.377  61.627
20443DA     SC232830  98.275  60.244  61.791
20443DA     SC332831  98.164  60.039  61.684
20443DA     SC432832  98.063  60.262  61.547
20444DA     BB132833  98.232  60.971  61.572
20444DA     BB232834  98.520  60.831  61.751
20444DA     BB332835  98.664  60.755  61.613
20444DA     SC132836  98.543  60.468  61.608
20444DA     SC232837  98.606  60.241  61.687
20444DA     SC332838  98.435  60.156  61.516
20444DA     SC432839  98.434  60.436  61.495
20445DT     BB132840  98.834  60.848  61.607
20445DT     BB232841  99.037  60.594  61.762
20445DT     BB332842  99.144  60.491  61.618
20445DT     SC132843  98.929  60.360  61.542
20445DT     SC232844  98.947  60.154  61.598
20445DT     SC332845  98.731  60.275  61.389
20446DG     BB132846  99.434  60.645  61.862
20446DG     BB232847  99.490  60.292  61.803
20446DG     BB332848  99.575  60.265  61.625
20446DG     SC132849  99.309  60.241  61.475
20446DG     SC232850  99.205  59.994  61.342
20446DG     SC332851  99.036  60.228  61.277
20446DG     SC432852  99.238  60.373  61.419
20447DC     BB132853  99.804  60.182  61.568
20447DC     BB232854  99.732  59.853  61.437
20447DC     BB332855  99.760  59.851  61.232
20447DC     SC132856  99.538  59.984  61.192
20447DC     SC232857  99.393  59.855  61.099
20447DC     SC332858  99.374  60.178  61.119
20448DA     BB132859 100.046  59.538  61.304
20448DA     BB232860  99.835  59.417  61.030
20448DA     BB332861  99.901  59.498  60.844
20448DA     SC132862  99.716  59.747  60.860
20448DA     SC232863  99.514  59.835  60.744
20448DA     SC332864  99.583  60.063  60.838
20448DA     SC432865  99.776  59.881  60.927
20449DC     BB132866 100.038  59.404  60.600
20449DC     BB232867  99.738  59.403  60.399
20449DC     BB332868  99.759  59.535  60.240
20449DC     SC132869  99.728  59.742  60.398
20449DC     SC232870  99.539  59.836  60.355
20449DC     SC332871  99.781  59.965  60.528
20450DT     BB132872  99.825  59.371  59.965
20450DT     BB232873  99.524  59.551  59.883
20450DT     BB332874  99.569  59.716  59.767
20450DT     SC132875  99.663  59.846  59.975
20450DT     SC232876  99.531  60.008  60.024
20450DT     SC332877  99.834  59.969  60.134
20451DA     BB132878  99.289  59.516  59.528
20451DA     BB232879  99.162  59.855  59.586
20451DA     BB332880  99.258  59.993  59.455
20451DA     SC132881  99.488  60.059  59.653
20451DA     SC232882  99.562  60.252  59.792
20451DA     SC332883  99.791  60.136  59.794
20451DA     SC432884  99.623  59.972  59.641
20452DC     BB132885  99.136  60.075  59.335
20452DC     BB232886  99.113  60.385  59.518
20452DC     BB332887  99.225  60.531  59.423
20452DC     SC132888  99.449  60.426  59.507
20452DC     SC232889  99.539  60.556  59.653
20452DC     SC332890  99.686  60.309  59.503
20453DA     BB132891  98.834  60.638  59.542
20453DA     BB232892  99.071  60.890  59.664
20453DA     BB332893  99.156  60.998  59.501
20453DA     SC132894  99.397  60.805  59.466
20453DA     SC232895  99.644  60.810  59.502
20453DA     SC332896  99.651  60.611  59.339
20453DA     SC432897  99.381  60.683  59.362
20454DT     BB132898  99.104  61.154  59.533
20454DT     BB232899  99.424  61.287  59.634
20454DT     BB332900  99.523  61.366  59.471
20454DT     SC132901  99.581  61.126  59.380
20454DT     SC232902  99.792  61.092  59.399
20454DT     SC332903  99.586  60.915  59.222
20455DC     BB132904  99.474  61.589  59.596
20455DC     BB232905  99.832  61.577  59.553
20455DC     BB332906  99.882  61.634  59.361
20455DC     SC132907  99.800  61.405  59.263
20455DC     SC232908  99.970  61.292  59.195
20455DC     SC332909  99.660  61.230  59.124
20456DT     BB132910  99.979  61.852  59.475
20456DT     BB232911 100.255  61.709  59.291
20456DT     BB332912 100.243  61.764  59.091
20456DT     SC132913 100.046  61.595  59.049
20456DT     SC232914 100.116  61.435  58.924
20456DT     SC332915  99.806  61.504  58.989
20457DA     BB132916 100.629  61.853  59.230
20457DA     BB232917 100.660  61.670  58.914
20457DA     BB332918 100.600  61.793  58.750
20457DA     SC132919 100.302  61.704  58.759
20457DA     SC232920 100.146  61.569  58.620
20457DA     SC332921  99.960  61.692  58.746
20457DA     SC432922 100.201  61.792  58.848
20458DA     BB132923 100.896  61.693  58.654
20458DA     BB232924 100.726  61.541  58.367
20458DA     BB332925 100.662  61.691  58.231
20458DA     SC132926 100.382  61.726  58.363
20458DA     SC232927 100.144  61.677  58.307
20458DA     SC332928 100.087  61.852  58.486
20458DA     SC432929 100.367  61.839  58.476
20459DG     BB132930 100.845  61.518  58.056
20459DG     BB232931 100.535  61.457  57.880
20459DG     BB332932 100.489  61.613  57.766
20459DG     SC132933 100.329  61.756  57.985
20459DG     SC232934 100.034  61.806  57.982
20459DG     SC332935 100.164  61.949  58.206
20459DG     SC432936 100.405  61.855  58.085
20460DC     BB132937 100.475  61.564  57.577
20460DC     BB232938 100.120  61.580  57.517
20460DC     BB332939 100.070  61.765  57.440
20460DC     SC132940 100.098  61.879  57.675
20460DC     SC232941  99.905  61.939  57.749
20460DC     SC332942 100.191  62.036  57.865
20461DA     BB132943  99.903  61.462  57.201
20461DA     BB232944  99.643  61.713  57.266
20461DA     BB332945  99.686  61.893  57.160
20461DA     SC132946  99.850  62.020  57.392
20461DA     SC232947  99.825  62.208  57.554
20461DA     SC332948 100.080  62.193  57.578
20461DA     SC432949 100.009  61.996  57.392
20462DA     BB132950  99.378  61.847  57.049
20462DA     BB232951  99.297  62.175  57.192
20462DA     BB332952  99.378  62.330  57.071
20462DA     SC132953  99.648  62.343  57.226
20462DA     SC232954  99.765  62.501  57.380
20462DA     SC332955  99.978  62.374  57.315
20462DA     SC432956  99.769  62.253  57.172
20463DA     BB132957  99.068  62.450  57.057
20463DA     BB232958  99.195  62.756  57.216
20463DA     BB332959  99.296  62.877  57.073
20463DA     SC132960  99.575  62.749  57.126
20463DA     SC232961  99.792  62.815  57.228
20463DA     SC332962  99.892  62.621  57.094
20463DA     SC432963  99.618  62.625  57.033
20464DC     BB132964  99.223  63.073  57.003
20464DC     BB232965  99.460  63.274  57.186
20464DC     BB332966  99.597  63.358  57.056
20464DC     SC132967  99.720  63.129  57.024
20464DC     SC232968  99.914  63.140  57.117
20464DC     SC332969  99.815  62.912  56.908
20465DG     BB132970  99.423  63.682  57.235
20465DG     BB232971  99.783  63.697  57.262
20465DG     BB332972  99.861  63.767  57.094
20465DG     SC132973  99.890  63.492  56.963
20465DG     SC232974 100.147  63.355  56.896
20465DG     SC332975  99.916  63.209  56.782
20465DG     SC432976  99.767  63.433  56.878
20466DA     BB132977 100.029  63.995  57.292
20466DA     BB232978 100.350  63.862  57.175
20466DA     BB332979 100.392  63.934  56.978
20466DA     SC132980 100.254  63.695  56.835
20466DA     SC232981 100.322  63.498  56.698
20466DA     SC332982 100.079  63.496  56.617
20466DA     SC432983 100.099  63.712  56.795
20467DC     BB132984 100.547  64.051  56.964
20467DC     BB232985 100.767  63.811  56.808
20467DC     BB332986 100.783  63.851  56.606
20467DC     SC132987 100.543  63.755  56.559
20467DC     SC232988 100.561  63.571  56.449
20467DC     SC332989 100.290  63.744  56.488
20468DA     BB132990 101.165  63.809  56.774
20468DA     BB232991 101.150  63.605  56.469
20468DA     BB332992 101.148  63.730  56.296
20468DA     SC132993 100.838  63.749  56.284
20468DA     SC232994 100.653  63.667  56.138
20468DA     SC332995 100.514  63.855  56.243
20468DA     SC432996 100.768  63.872  56.360
20469DT     BB132997 101.303  63.714  56.184
20469DT     BB232998 101.146  63.536  55.912
20469DT     BB332999 101.105  63.667  55.757
20469DT     SC133000 100.902  63.770  55.888
20469DT     SC233001 100.718  63.713  55.792
20469DT     SC333002 100.752  63.947  56.014
20470DG     BB133003 101.346  63.377  55.599
20470DG     BB233004 101.049  63.424  55.398
20470DG     BB333005 101.067  63.587  55.286
20470DG     SC133006 100.947  63.775  55.495
20470DG     SC233007 100.688  63.921  55.471
20470DG     SC333008 100.838  64.013  55.708
20470DG     SC433009 101.043  63.842  55.604
20471DT     BB133010 101.076  63.591  55.049
20471DT     BB233011 100.748  63.720  54.970
20471DT     BB333012 100.764  63.916  54.906
20471DT     SC133013 100.807  64.002  55.150
20471DT     SC233014 100.637  64.115  55.217
20471DT     SC333015 100.929  64.111  55.356
20472DA     BB133016 100.549  63.724  54.601
20472DA     BB233017 100.364  64.027  54.689
20472DA     BB333018 100.461  64.200  54.608
20472DA     SC133019 100.638  64.249  54.859
20472DA     SC233020 100.655  64.416  55.043
20472DA     SC333021 100.895  64.329  55.072
20472DA     SC433022 100.784  64.182  54.860
20473DT     BB133023 100.367  64.311  54.460
20473DT     BB233024 100.273  64.588  54.670
20473DT     BB333025 100.392  64.752  54.628
20473DT     SC133026 100.597  64.646  54.753
20473DT     SC233027 100.636  64.757  54.933
20473DT     SC333028 100.836  64.543  54.794
20474DT     BB133029 100.178  64.867  54.516
20474DT     BB233030 100.281  65.097  54.774
20474DT     BB333031 100.428  65.223  54.702
20474DT     SC133032 100.608  65.033  54.712
20474DT     SC233033 100.750  65.077  54.867
20474DT     SC333034 100.788  64.857  54.633
20475DT     BB133035 100.241  65.409  54.718
20475DT     BB233036 100.513  65.531  54.922
20475DT     BB333037 100.655  65.623  54.802
20475DT     SC133038 100.742  65.392  54.713
20475DT     SC233039 100.939  65.355  54.791
20475DT     SC333040 100.799  65.196  54.546
20476DG     BB133041 100.529  65.879  55.093
20476DG     BB233042 100.890  65.858  55.080
20476DG     BB333043 100.958  65.960  54.924
20476DG     SC133044 100.945  65.721  54.732
20476DG     SC233045 101.178  65.584  54.607
20476DG     SC333046 100.924  65.487  54.490
20476DG     SC433047 100.809  65.694  54.652
20477DA     BB133048 101.171  66.118  55.150
20477DA     BB233049 101.462  66.009  54.953
20477DA     BB333050 101.477  66.124  54.774
20477DA     SC133051 101.304  65.927  54.605
20477DA     SC233052 101.338  65.765  54.419
20477DA     SC333053 101.085  65.787  54.381
20477DA     SC433054 101.146  65.955  54.597
20478DA     BB133055 101.789  66.200  54.868
20478DA     BB233056 101.907  66.043  54.558
20478DA     BB333057 101.877  66.175  54.393
20478DA     SC133058 101.594  66.065  54.326
20478DA     SC233059 101.486  65.931  54.145
20478DA     SC333060 101.266  66.032  54.231
20478DA     SC433061 101.468  66.139  54.392
20479DT     BB133062 102.041  66.291  54.263
20479DT     BB233063 102.013  66.085  53.968
20479DT     BB333064 101.929  66.194  53.814
20479DT     SC133065 101.691  66.179  53.923
20479DT     SC233066 101.566  66.051  53.803
20479DT     SC333067 101.464  66.253  54.035
20480DA     BB133068 102.289  66.085  53.615
20480DA     BB233069 102.014  65.995  53.390
20480DA     BB333070 101.946  66.167  53.284
20480DA     SC133071 101.731  66.243  53.496
20480DA     SC233072 101.483  66.246  53.514
20480DA     SC333073 101.519  66.411  53.706
20480DA     SC433074 101.774  66.346  53.612
20481DA     BB133075 102.003  66.019  52.986
20481DA     BB233076 101.642  66.029  52.924
20481DA     BB333077 101.586  66.216  52.839
20481DA     SC133078 101.530  66.352  53.113
20481DA     SC233079 101.333  66.434  53.242
20481DA     SC333080 101.503  66.575  53.373
20481DA     SC433081 101.651  66.432  53.182
20482DG     BB133082 101.486  66.059  52.585
20482DG     BB233083 101.161  66.173  52.696
20482DG     BB333084 101.122  66.352  52.619
20482DG     SC133085 101.247  66.506  52.851
20482DG     SC233086 101.101  66.679  53.046
20482DG     SC333087 101.394  66.707  53.080
20482DG     SC433088 101.404  66.541  52.846
20483DA     BB133089 100.825  66.217  52.507
20483DA     BB233090 100.637  66.459  52.709
20483DA     BB333091 100.633  66.649  52.612
20483DA     SC133092 100.892  66.752  52.750
20483DA     SC233093 100.954  66.923  52.922
20483DA     SC333094 101.190  66.907  52.822
20483DA     SC433095 101.031  66.729  52.674
20484DA     BB133096 100.314  66.603  52.660
20484DA     BB233097 100.321  66.906  52.867
20484DA     BB333098 100.331  67.080  52.744
20484DA     SC133099 100.642  67.089  52.741
20484DA     SC233100 100.823  67.233  52.834
20484DA     SC333101 100.971  67.128  52.652
20484DA     SC433102 100.717  67.013  52.621
20485DT     BB133103 100.173  67.204  52.746
20485DT     BB233104 100.326  67.464  52.943
20485DT     BB333105 100.376  67.625  52.823
20485DT     SC133106 100.580  67.495  52.721
20485DT     SC233107 100.763  67.585  52.790
20485DT     SC333108 100.735  67.375  52.545
20486DA     BB133109 100.154  67.772  53.144
20486DA     BB233110 100.456  67.977  53.114
20486DA     BB333111 100.440  68.108  52.946
20486DA     SC133112 100.570  67.908  52.747
20486DA     SC233113 100.783  67.887  52.618
20486DA     SC333114 100.653  67.724  52.469
20486DA     SC433115 100.472  67.810  52.665
20487DC     BB133116 100.434  68.299  52.988
20487DC     BB233117 100.770  68.377  52.883
20487DC     BB333118 100.766  68.474  52.700
20487DC     SC133119 100.711  68.250  52.574
20487DC     SC233120 100.881  68.191  52.456
20487DC     SC333121 100.581  68.072  52.429
20488DG     BB133122 100.965  68.691  52.979
20488DG     BB233123 101.162  68.642  52.680
20488DG     BB333124 101.097  68.762  52.535
20488DG     SC133125 100.895  68.560  52.425
20488DG     SC233126 100.908  68.425  52.159
20488DG     SC333127 100.650  68.371  52.292
20488DG     SC433128 100.747  68.557  52.486
20489DC     BB133129 101.239  68.879  52.476
20489DC     BB233130 101.322  68.748  52.150
20489DC     BB333131 101.220  68.853  52.004
20489DC     SC133132 100.995  68.732  52.064
20489DC     SC233133 100.940  68.599  51.904
20489DC     SC333134 100.746  68.696  52.145
20490DC     BB133135 101.463  68.923  51.957
20490DC     BB233136 101.338  68.788  51.646
20490DC     BB333137 101.217  68.927  51.553
20490DC     SC133138 101.021  68.883  51.722
20490DC     SC233139 100.860  68.783  51.621
20490DC     SC333140 100.843  68.924  51.912
20491DA     BB133141 101.500  68.775  51.281
20491DA     BB233142 101.173  68.784  51.115
20491DA     BB333143 101.114  68.986  51.080
20491DA     SC133144 100.964  69.015  51.351
20491DA     SC233145 100.728  69.036  51.430
20491DA     SC333146 100.831  69.132  51.645
20491DA     SC433147 101.046  69.073  51.476
20492DT     BB133148 101.103  69.055  50.890
20492DT     BB233149 100.744  69.080  50.865
20492DT     BB333150 100.686  69.278  50.882
20492DT     SC133151 100.731  69.277  51.140
20492DT     SC233152 100.543  69.290  51.245
20492DT     SC333153 100.837  69.338  51.374
20493DT     BB133154 100.629  69.312  50.609
20493DT     BB233155 100.324  69.414  50.772
20493DT     BB333156 100.330  69.617  50.813
20493DT     SC133157 100.497  69.581  51.011
20493DT     SC233158 100.398  69.622  51.197
20493DT     SC333159 100.718  69.594  51.155
20494DT     BB133160 100.150  69.688  50.610
20494DT     BB233161 100.001  69.826  50.909
20494DT     BB333162 100.069  70.019  50.939
20494DT     SC133163 100.303  69.933  51.020
20494DT     SC233164 100.325  69.971  51.230
20494DT     SC333165 100.564  69.891  51.026
20495DT     BB133166  99.828  70.131  50.864
20495DT     BB233167  99.886  70.261  51.196
20495DT     BB333168  99.995  70.437  51.185
20495DT     SC133169 100.215  70.306  51.129
20495DT     SC233170 100.350  70.320  51.296
20495DT     SC333171 100.428  70.223  50.997
20496DT     BB133172  99.774  70.581  51.254
20496DT     BB233173 100.020  70.670  51.502
20496DT     BB333174 100.135  70.828  51.435
20496DT     SC133175 100.267  70.672  51.270
20496DT     SC233176 100.469  70.650  51.339
20496DT     SC333177 100.359  70.570  51.045
20497DT     BB133178 100.012  70.995  51.611
20497DT     BB233179 100.363  71.028  51.688
20497DT     BB333180 100.448  71.172  51.567
20497DT     SC133181 100.445  71.012  51.359
20497DT     SC233182 100.647  70.956  51.309
20497DT     SC333183 100.386  70.916  51.121
20498DG     BB133184 100.516  71.305  51.948
20498DG     BB233185 100.822  71.303  51.756
20498DG     BB333186 100.830  71.463  51.638
20498DG     SC133187 100.690  71.327  51.403
20498DG     SC233188 100.813  71.262  51.139
20498DG     SC333189 100.521  71.216  51.132
20498DG     SC433190 100.530  71.332  51.394
20499DC     BB133191 100.988  71.652  51.648
20499DC     BB233192 101.198  71.580  51.364
20499DC     BB333193 101.160  71.716  51.212
20499DC     SC133194 100.933  71.599  51.153
20499DC     SC233195 100.950  71.502  50.962
20499DC     SC333196 100.674  71.563  51.120
20500DC     BB133197 101.397  71.884  51.238
20500DC     BB233198 101.408  71.776  50.893
20500DC     BB333199 101.315  71.917  50.773
20500DC     SC133200 101.077  71.841  50.854
20500DC     SC233201 100.974  71.743  50.693
20500DC     SC333202 100.839  71.851  50.967
20501DT     BB133203 101.551  72.031  50.654
20501DT     BB233204 101.360  71.916  50.371
20501DT     BB333205 101.241  72.069  50.298
20501DT     SC133206 101.074  72.046  50.500
20501DT     SC233207 100.887  71.966  50.429
20501DT     SC333208 100.937  72.106  50.717
20502DT     BB133209 101.398  72.098  50.075
20502DT     BB233210 101.070  72.020  49.946
20502DT     BB333211 100.962  72.195  49.920
20502DT     SC133212 100.923  72.219  50.178
20502DT     SC233213 100.715  72.183  50.223
20502DT     SC333214 100.932  72.318  50.422
20503DG     BB133215 100.982  71.987  49.571
20503DG     BB233216 100.640  72.061  49.664
20503DG     BB333217 100.599  72.252  49.626
20503DG     SC133218 100.689  72.352  49.901
20503DG     SC233219 100.512  72.469  50.111
20503DG     SC333220 100.797  72.498  50.185
20503DG     SC433221 100.842  72.392  49.923
20504DT     BB133222 100.447  72.281  49.493
20504DT     BB233223 100.180  72.392  49.709
20504DT     BB333224 100.167  72.599  49.703
20504DT     SC133225 100.381  72.625  49.852
20504DT     SC233226 100.325  72.700  50.046
20504DT     SC333227 100.626  72.690  49.925
20505DT     BB133228  99.941  72.560  49.571
20505DT     BB233229  99.849  72.759  49.857
20505DT     BB333230  99.886  72.959  49.819
20505DT     SC133231 100.145  72.925  49.847
20505DT     SC233232 100.210  73.023  50.027
20505DT     SC333233 100.402  72.915  49.789
20506DT     BB133234  99.621  72.997  49.804
20506DT     BB233235  99.733  73.229  50.057
20506DT     BB333236  99.799  73.404  49.968
20506DT     SC133237 100.020  73.288  49.887
20506DT     SC233238 100.187  73.368  49.997
20506DT     SC333239 100.205  73.193  49.726
20507DG     BB133240  99.498  73.519  50.220
20507DG     BB233241  99.799  73.712  50.278
20507DG     BB333242  99.816  73.854  50.141
20507DG     SC133243  99.974  73.680  49.945
20507DG     SC233244 100.259  73.720  49.865
20507DG     SC333245 100.132  73.512  49.699
20507DG     SC433246  99.895  73.591  49.839
20508DT     BB133247  99.812  74.079  50.189
20508DT     BB233248 100.162  74.161  50.155
20508DT     BB333249 100.193  74.266  49.979
20508DT     SC133250 100.166  74.048  49.835
20508DT     SC233251 100.357  73.995  49.751
20508DT     SC333252 100.069  73.877  49.660
20509DC     BB133253 100.235  74.494  50.122
20509DC     BB233254 100.538  74.446  49.931
20509DC     BB333255 100.518  74.532  49.744
20509DC     SC133256 100.362  74.338  49.662
20509DC     SC233257 100.466  74.220  49.515
20509DC     SC333258 100.147  74.213  49.574
20510DA     BB133259 100.874  74.655  49.929
20510DA     BB233260 100.953  74.537  49.590
20510DA     BB333261 100.881  74.676  49.445
20510DA     SC133262 100.603  74.538  49.415
20510DA     SC233263 100.481  74.405  49.243
20510DA     SC333264 100.269  74.471  49.373
20510DA     SC433265 100.484  74.591  49.509
20511DA     BB133266 101.194  74.623  49.372
20511DA     BB233267 101.070  74.502  49.049
20511DA     BB333268 100.994  74.664  48.933
20511DA     SC133269 100.703  74.636  49.041
20511DA     SC233270 100.481  74.565  48.955
20511DA     SC333271 100.384  74.696  49.153
20511DA     SC433272 100.663  74.724  49.170
20512DA     BB133273 101.204  74.507  48.738
20512DA     BB233274 100.918  74.461  48.513
20512DA     BB333275 100.859  74.648  48.428
20512DA     SC133276 100.656  74.714  48.654
20512DA     SC233277 100.408  74.731  48.680
20512DA     SC333278 100.461  74.872  48.888
20512DA     SC433279 100.709  74.800  48.778
20513DG     BB133280 100.923  74.488  48.171
20513DG     BB233281 100.571  74.543  48.107
20513DG     BB333282 100.543  74.729  48.043
20513DG     SC133283 100.503  74.846  48.323
20513DG     SC233284 100.249  74.960  48.431
20513DG     SC333285 100.474  75.011  48.616
20513DG     SC433286 100.631  74.897  48.405
20514DA     BB133287 100.368  74.589  47.775
20514DA     BB233288 100.070  74.780  47.869
20514DA     BB333289 100.093  74.985  47.814
20514DA     SC133290 100.217  75.069  48.086
20514DA     SC233291 100.152  75.205  48.285
20514DA     SC333292 100.403  75.217  48.334
20514DA     SC433293 100.377  75.066  48.099
20515DT     BB133294  99.974  75.070  47.664
20515DT     BB233295  99.763  75.267  47.881
20515DT     BB333296  99.815  75.467  47.868
20515DT     SC133297 100.032  75.428  48.011
20515DT     SC233298 100.009  75.522  48.203
20515DT     SC333299 100.288  75.415  48.076
20516DT     BB133300  99.589  75.530  47.724
20516DT     BB233301  99.575  75.746  48.013
20516DT     BB333302  99.677  75.922  47.975
20516DT     SC133303  99.909  75.801  47.999
20516DT     SC233304 100.006  75.870  48.178
20516DT     SC333305 100.146  75.706  47.936
20517DG     BB133306  99.295  76.036  48.065
20517DG     BB233307  99.536  76.207  48.273
20517DG     BB333308  99.618  76.358  48.172
20517DG     SC133309  99.847  76.189  48.058
20517DG     SC233310 100.137  76.220  48.125
20517DG     SC333311 100.099  76.031  47.900
20517DG     SC433312  99.825  76.112  47.920
20518DA     BB133313  99.530  76.547  48.446
20518DA     BB233314  99.883  76.629  48.501
20518DA     BB333315  99.949  76.774  48.359
20518DA     SC133316 100.043  76.563  48.150
20518DA     SC233317 100.258  76.480  48.056
20518DA     SC333318 100.115  76.392  47.861
20518DA     SC433319  99.937  76.518  48.038
20519DG     BB133320 100.003  76.920  48.623
20519DG     BB233321 100.346  76.890  48.512
20519DG     BB333322 100.385  77.028  48.374
20519DG     SC133323 100.300  76.852  48.139
20519DG     SC233324 100.481  76.745  47.926
20519DG     SC333325 100.197  76.694  47.859
20519DG     SC433326 100.147  76.852  48.092
20520DA     BB133327 100.653  77.077  48.584
20520DA     BB233328 100.878  77.009  48.303
20520DA     BB333329 100.872  77.170  48.163
20520DA     SC133330 100.643  77.047  47.993
20520DA     SC233331 100.614  76.945  47.767
20520DA     SC333332 100.365  76.998  47.798
20520DA     SC433333 100.492  77.089  48.030
20521DC     BB133334 101.035  77.257  48.152
20521DC     BB233335 101.131  77.133  47.827
20521DC     BB333336 101.087  77.274  47.682
20521DC     SC133337 100.831  77.221  47.695
20521DC     SC233338 100.769  77.124  47.514
20521DC     SC333339 100.572  77.254  47.736
20522DT     BB133340 101.350  77.313  47.660
20522DT     BB233341 101.240  77.226  47.327
20522DT     BB333342 101.167  77.394  47.231
20522DT     SC133343 100.946  77.389  47.373
20522DT     SC233344 100.781  77.335  47.246
20522DT     SC333345 100.759  77.463  47.543
20523DG     BB133346 101.470  77.246  47.001
20523DG     BB233347 101.168  77.294  46.808
20523DG     BB333348 101.144  77.486  46.766
20523DG     SC133349 100.983  77.548  47.019
20523DG     SC233350 100.696  77.627  47.030
20523DG     SC333351 100.822  77.655  47.296
20523DG     SC433352 101.062  77.590  47.153
20524DC     BB133353 101.143  77.554  46.559
20524DC     BB233354 100.792  77.620  46.507
20524DC     BB333355 100.756  77.824  46.515
20524DC     SC133356 100.782  77.825  46.777
20524DC     SC233357 100.591  77.863  46.867
20524DC     SC333358 100.878  77.880  47.016
20525DG     BB133359 100.625  77.682  46.157
20525DG     BB233360 100.367  77.867  46.331
20525DG     BB333361 100.402  78.062  46.316
20525DG     SC133362 100.573  78.075  46.570
20525DG     SC233363 100.501  78.218  46.823
20525DG     SC333364 100.781  78.123  46.831
20525DG     SC433365 100.731  78.049  46.559
20526DA     BB133366 100.073  78.064  46.216
20526DA     BB233367  99.994  78.291  46.493
20526DA     BB333368 100.072  78.485  46.454
20526DA     SC133369 100.345  78.430  46.592
20526DA     SC233370 100.466  78.503  46.798
20526DA     SC333371 100.678  78.423  46.678
20526DA     SC433372 100.465  78.377  46.500
20527DT     BB133373  99.937  78.607  46.438
20527DT     BB233374  99.990  78.776  46.752
20527DT     BB333375 100.101  78.948  46.722
20527DT     SC133376 100.321  78.808  46.689
20527DT     SC233377 100.452  78.841  46.857
20527DT     SC333378 100.535  78.706  46.574
20528DC     BB133379  99.878  79.078  46.776
20528DC     BB233380 100.120  79.204  47.013
20528DC     BB333381 100.236  79.350  46.924
20528DC     SC133382 100.371  79.171  46.787
20528DC     SC233383 100.572  79.160  46.862
20528DC     SC333384 100.467  79.036  46.582
20529DC     BB133385 100.109  79.534  47.072
20529DC     BB233386 100.459  79.582  47.146
20529DC     BB333387 100.545  79.704  47.002
20529DC     SC133388 100.546  79.509  46.827
20529DC     SC233389 100.748  79.446  46.790
20529DC     SC333390 100.490  79.371  46.609
20530DG     BB133391 100.607  79.913  47.351
20530DG     BB233392 100.916  79.873  47.166
20530DG     BB333393 100.924  80.006  47.019
20530DG     SC133394 100.788  79.824  46.814
20530DG     SC233395 100.915  79.708  46.570
20530DG     SC333396 100.623  79.659  46.570
20530DG     SC433397 100.628  79.826  46.803
20531DC     BB133398 101.083  80.221  46.974
20531DC     BB233399 101.297  80.089  46.715
20531DC     BB333400 101.262  80.189  46.537
20531DC     SC133401 101.035  80.062  46.501
20531DC     SC233402 101.055  79.926  46.335
20531DC     SC333403 100.776  80.020  46.472
20532DC     BB133404 101.500  80.368  46.522
20532DC     BB233405 101.515  80.188  46.209
20532DC     BB333406 101.428  80.301  46.059
20532DC     SC133407 101.187  80.248  46.148
20532DC     SC233408 101.086  80.119  46.010
20532DC     SC333409 100.947  80.285  46.251
20533DT     BB133410 101.670  80.393  45.918
20533DT     BB233411 101.482  80.228  45.658
20533DT     BB333412 101.370  80.366  45.553
20533DT     SC133413 101.198  80.389  45.749
20533DT     SC233414 101.010  80.302  45.690
20533DT     SC333415 101.057  80.495  45.945
20534DC     BB133416 101.532  80.373  45.313
20534DC     BB233417 101.205  80.282  45.191
20534DC     BB333418 101.103  80.451  45.129
20534DC     SC133419 101.059  80.524  45.378
20534DC     SC233420 100.849  80.503  45.422
20534DC     SC333421 101.065  80.667  45.599
20535DT     BB133422 101.129  80.396  44.853
20535DT     BB233423 100.772  80.419  44.904
20535DT     BB333424 100.708  80.612  44.869
20535DT     SC133425 100.809  80.696  45.097
20535DT     SC233426 100.649  80.745  45.232
20535DT     SC333427 100.960  80.827  45.267
20536DT     BB133428 100.586  80.538  44.633
20536DT     BB233429 100.319  80.679  44.830
20536DT     BB333430 100.305  80.883  44.793
20536DT     SC133431 100.520  80.931  44.936
20536DT     SC233432 100.464  81.034  45.117
20536DT     SC333433 100.765  81.007  44.998
20537DT     BB133434 100.075  80.834  44.661
20537DT     BB233435  99.983  81.065  44.923
20537DT     BB333436 100.011  81.260  44.858
20537DT     SC133437 100.272  81.239  44.881
20537DT     SC233438 100.339  81.362  45.045
20537DT     SC333439 100.527  81.231  44.816
20538DT     BB133440  99.746  81.273  44.860
20538DT     BB233441  99.854  81.539  45.078
20538DT     BB333442  99.898  81.708  44.968
20538DT     SC133443 100.123  81.603  44.882
20538DT     SC233444 100.289  81.708  44.970
20538DT     SC333445 100.304  81.507  44.716
20539DT     BB133446  99.684  81.799  45.087
20539DT     BB233447  99.944  82.035  45.168
20539DT     BB333448  99.969  82.169  45.012
20539DT     SC133449 100.092  81.989  44.866
20539DT     SC233450 100.299  82.042  44.848
20539DT     SC333451 100.142  81.823  44.668
20540DT     BB133452  99.864  82.340  45.182
20540DT     BB233453 100.175  82.491  45.080
20540DT     BB333454 100.150  82.588  44.898
20540DT     SC133455 100.146  82.361  44.768
20540DT     SC233456 100.324  82.343  44.650
20540DT     SC333457 100.058  82.161  44.619
20541DT     BB133458 100.169  82.816  45.035
20541DT     BB233459 100.416  82.845  44.774
20541DT     BB333460 100.327  82.912  44.600
20541DT     SC133461 100.218  82.677  44.556
20541DT     SC233462 100.312  82.585  44.386
20541DT     SC333463 100.034  82.491  44.523
20542DT     BB133464 100.438  83.161  44.627
20542DT     BB233465 100.535  83.060  44.295
20542DT     BB333466 100.388  83.112  44.159
20542DT     SC133467 100.233  82.916  44.241
20542DT     SC233468 100.219  82.767  44.087
20542DT     SC333469 100.026  82.791  44.346
20543DT     BB133470 100.527  83.330  44.048
20543DT     BB233471 100.446  83.127  43.761
20543DT     BB333472 100.263  83.185  43.683
20543DT     SC133473 100.134  83.069  43.880
20543DT     SC233474 100.028  82.898  43.804
20543DT     SC333475  99.980  83.039  44.092
20544DT     BB133476 100.366  83.321  43.457
20544DT     BB233477 100.137  83.082  43.314
20544DT     BB333478  99.949  83.167  43.295
20544DT     SC133479  99.906  83.148  43.553
20544DT     SC233480  99.754  83.000  43.590
20544DT     SC333481  99.860  83.220  43.803
20545DT     BB133482  99.961  83.199  43.015
20545DT     BB233483  99.662  83.003  43.066
20545DT     BB333484  99.498  83.128  43.086
20545DT     SC133485  99.571  83.196  43.330
20545DT     SC233486  99.432  83.112  43.471
20545DT     SC333487  99.650  83.344  43.533
20546DA     BB133488  99.389  82.862  42.781
20546DA     BB233489  99.113  82.870  43.023
20546DA     BB333490  99.001  83.051  43.002
20546DA     SC133491  99.171  83.210  43.208
20546DA     SC233492  99.143  83.305  43.437
20546DA     SC333493  99.343  83.454  43.378
20546DA     SC433494  99.296  83.294  43.152
20547DT     BB133495  98.799  83.049  42.933
20547DT     BB233496  98.645  83.114  43.252
20547DT     BB333497  98.571  83.307  43.257
20547DT     SC133498  98.812  83.407  43.284
20547DT     SC233499  98.834  83.489  43.482
20547DT     SC333500  99.032  83.543  43.230
20548DC     BB133501  98.306  83.224  43.238
20548DC     BB233502  98.315  83.419  43.541
20548DC     BB333503  98.275  83.618  43.499
20548DC     SC133504  98.515  83.651  43.397
20548DC     SC233505  98.630  83.778  43.526
20548DC     SC333506  98.705  83.700  43.221
20549DT     BB133507  98.019  83.609  43.608
20549DT     BB233508  98.184  83.873  43.791
20549DT     BB333509  98.157  84.054  43.694
20549DT     SC133510  98.330  83.990  43.508
20549DT     SC233511  98.506  84.112  43.529
20549DT     SC333512  98.429  83.932  43.270
20550DT     BB133513  97.979  84.144  43.885
20550DT     BB233514  98.242  84.391  43.884
20550DT     BB333515  98.200  84.538  43.745
20550DT     SC133516  98.262  84.379  43.546
20550DT     SC233517  98.444  84.448  43.454
20550DT     SC333518  98.237  84.233  43.328
20551DA     BB133519  98.279  84.732  44.107
20551DA     BB233520  98.484  84.891  43.848
20551DA     BB333521  98.363  85.016  43.724
20551DA     SC133522  98.299  84.792  43.518
20551DA     SC233523  98.356  84.737  43.282
20551DA     SC333524  98.148  84.587  43.288
20551DA     SC433525  98.165  84.706  43.542
20552DA     BB133526  98.597  85.225  43.814
20552DA     BB233527  98.678  85.255  43.457
20552DA     BB333528  98.532  85.373  43.357
20552DA     SC133529  98.351  85.130  43.284
20552DA     SC233530  98.285  85.005  43.078
20552DA     SC333531  98.086  84.923  43.217
20552DA     SC433532  98.233  85.092  43.386
20553DT     BB133533  98.596  85.541  43.287
20553DT     BB233534  98.595  85.446  42.938
20553DT     BB333535  98.430  85.528  42.844
20553DT     SC133536  98.270  85.353  42.956
20553DT     SC233537  98.196  85.218  42.806
20553DT     SC333538  98.076  85.255  43.105
20554DA     BB133539  98.768  85.629  42.618
20554DA     BB233540  98.514  85.498  42.388
20554DA     BB333541  98.358  85.641  42.361
20554DA     SC133542  98.185  85.531  42.595
20554DA     SC233543  97.970  85.408  42.624
20554DA     SC333544  97.975  85.497  42.865
20554DA     SC433545  98.206  85.597  42.740
20555DA     BB133546  98.429  85.599  42.042
20555DA     BB233547  98.084  85.483  41.998
20555DA     BB333548  97.950  85.648  41.998
20555DA     SC133549  97.900  85.639  42.305
20555DA     SC233550  97.714  85.581  42.460
20555DA     SC333551  97.843  85.720  42.634
20555DA     SC433552  97.994  85.730  42.398
20556DA     BB133553  97.851  85.525  41.708
20556DA     BB233554  97.518  85.483  41.857
20556DA     BB333555  97.416  85.670  41.864
20556DA     SC133556  97.521  85.744  42.148
20556DA     SC233557  97.428  85.767  42.378
20556DA     SC333558  97.637  85.909  42.426
20556DA     SC433559  97.656  85.830  42.157
20557DC     BB133560  97.244  85.705  41.747
20557DC     BB233561  97.005  85.683  42.016
20557DC     BB333562  96.931  85.871  42.060
20557DC     SC133563  97.154  85.938  42.181
20557DC     SC233564  97.118  85.955  42.392
20557DC     SC333565  97.378  86.066  42.234
20558DA     BB133566  96.602  85.619  42.001
20558DA     BB233567  96.551  85.797  42.317
20558DA     BB333568  96.497  86.000  42.279
20558DA     SC133569  96.790  86.104  42.283
20558DA     SC233570  96.935  86.245  42.429
20558DA     SC333571  97.083  86.274  42.221
20558DA     SC433572  96.868  86.111  42.142
20559DT     BB133573  96.317  86.053  42.334
20559DT     BB233574  96.412  86.245  42.623
20559DT     BB333575  96.399  86.447  42.581
20559DT     SC133576  96.618  86.440  42.437
20559DT     SC233577  96.774  86.547  42.538
20559DT     SC333578  96.777  86.456  42.227
20560DA     BB133579  96.203  86.356  42.941
20560DA     BB233580  96.419  86.647  42.998
20560DA     BB333581  96.341  86.818  42.898
20560DA     SC133582  96.498  86.767  42.635
20560DA     SC233583  96.688  86.872  42.510
20560DA     SC333584  96.596  86.744  42.306
20560DA     SC433585  96.426  86.682  42.520
20561DA     BB133586  96.385  86.926  43.204
20561DA     BB233587  96.607  87.179  43.059
20561DA     BB333588  96.493  87.324  42.951
20561DA     SC133589  96.510  87.171  42.681
20561DA     SC233590  96.621  87.200  42.459
20561DA     SC333591  96.444  87.036  42.372
20561DA     SC433592  96.391  87.069  42.645
20562DA     BB133593  96.666  87.523  43.149
20562DA     BB233594  96.798  87.678  42.844
20562DA     BB333595  96.648  87.799  42.751
20562DA     SC133596  96.540  87.569  42.572
20562DA     SC233597  96.538  87.508  42.330
20562DA     SC333598  96.341  87.356  42.390
20562DA     SC433599  96.418  87.481  42.629
20563DT     BB133600  96.673  88.001  42.745
20563DT     BB233601  96.746  88.028  42.393
20563DT     BB333602  96.582  88.103  42.292
20563DT     SC133603  96.456  87.873  42.311
20563DT     SC233604  96.442  87.783  42.117
20563DT     SC333605  96.274  87.695  42.379
20564DC     BB133606  96.696  88.353  42.255
20564DC     BB233607  96.609  88.247  41.921
20564DC     BB333608  96.416  88.306  41.876
20564DC     SC133609  96.315  88.118  42.030
20564DC     SC233610  96.219  87.969  41.907
20564DC     SC333611  96.183  88.003  42.227
20565DA     BB133612  96.640  88.463  41.558
20565DA     BB233613  96.354  88.286  41.412
20565DA     BB333614  96.176  88.402  41.434
20565DA     SC133615  96.099  88.276  41.708
20565DA     SC233616  95.924  88.123  41.798
20565DA     SC333617  95.984  88.222  42.027
20565DA     SC433618  96.150  88.351  41.841
20566DT     BB133619  96.071  88.490  41.266
20566DT     BB233620  95.796  88.256  41.263
20566DT     BB333621  95.624  88.349  41.330
20566DT     SC133622  95.708  88.343  41.579
20566DT     SC233623  95.589  88.204  41.691
20566DT     SC333624  95.789  88.427  41.816
20567DC     BB133625  95.509  88.360  41.077
20567DC     BB233626  95.269  88.178  41.275
20567DC     BB333627  95.134  88.310  41.361
20567DC     SC133628  95.312  88.389  41.537
20567DC     SC233629  95.256  88.318  41.732
20567DC     SC333630  95.478  88.545  41.669
20568DC     BB133631  94.934  88.229  41.191
20568DC     BB233632  94.803  88.167  41.521
20568DC     BB333633  94.706  88.336  41.592
20568DC     SC133634  94.935  88.456  41.638
20568DC     SC233635  94.965  88.474  41.850
20568DC     SC333636  95.130  88.633  41.621
20569DA     BB133637  94.449  88.008  41.633
20569DA     BB233638  94.461  88.183  41.954
20569DA     BB333639  94.354  88.367  41.942
20569DA     SC133640  94.601  88.535  41.855
20569DA     SC233641  94.748  88.711  41.953
20569DA     SC333642  94.812  88.763  41.710
20569DA     SC433643  94.627  88.553  41.698
20570DT     BB133644  94.200  88.374  42.054
20570DT     BB233645  94.337  88.595  42.304
20570DT     BB333646  94.265  88.787  42.275
20570DT     SC133647  94.422  88.823  42.068
20570DT     SC233648  94.575  88.966  42.118
20570DT     SC333649  94.499  88.865  41.819
20571DT     BB133650  94.130  88.745  42.497
20571DT     BB233651  94.329  89.038  42.562
20571DT     BB333652  94.236  89.206  42.485
20571DT     SC133653  94.301  89.139  42.240
20571DT     SC233654  94.448  89.277  42.165
20571DT     SC333655  94.277  89.068  41.987
20572DT     BB133656  94.191  89.274  42.738
20572DT     BB233657  94.372  89.552  42.596
20572DT     BB333658  94.242  89.677  42.496
20572DT     SC133659  94.221  89.508  42.296
20572DT     SC233660  94.317  89.591  42.122
20572DT     SC333661  94.114  89.338  42.125
20573DA     BB133662  94.472  89.909  42.759
20573DA     BB233663  94.476  90.072  42.431
20573DA     BB333664  94.286  90.159  42.389
20573DA     SC133665  94.174  89.905  42.248
20573DA     SC233666  94.111  89.834  42.018
20573DA     SC333667  93.973  89.652  42.133
20573DA     SC433668  94.093  89.800  42.339
20574DC     BB133669  94.279  90.355  42.376
20574DC     BB233670  94.244  90.375  42.018
20574DC     BB333671  94.047  90.416  41.968
20574DC     SC133672  93.973  90.171  42.024
20574DC     SC233673  93.921  90.069  41.842
20574DC     SC333674  93.852  89.969  42.143
20575DT     BB133675  94.119  90.667  41.897
20575DT     BB233676  93.964  90.528  41.602
20575DT     BB333677  93.759  90.556  41.610
20575DT     SC133678  93.733  90.366  41.790
20575DT     SC233679  93.633  90.197  41.701
20575DT     SC333680  93.679  90.246  42.018
20576DT     BB133681  93.782  90.740  41.416
20576DT     BB233682  93.552  90.494  41.285
20576DT     BB333683  93.360  90.537  41.349
20576DT     SC133684  93.413  90.449  41.590
20576DT     SC233685  93.305  90.266  41.625
20576DT     SC333686  93.449  90.448  41.852
20577DT     BB133687  93.307  90.607  41.097
20577DT     BB233688  93.069  90.346  41.174
20577DT     BB333689  92.905  90.427  41.272
20577DT     SC133690  93.042  90.454  41.495
20577DT     SC233691  92.968  90.315  41.641
20577DT     SC333692  93.161  90.568  41.700
20578DT     BB133693  92.772  90.376  41.049
20578DT     BB233694  92.593  90.199  41.308
20578DT     BB333695  92.465  90.329  41.405
20578DT     SC133696  92.663  90.442  41.534
20578DT     SC233697  92.652  90.390  41.742
20578DT     SC333698  92.834  90.627  41.614
20579DT     BB133699  92.267  90.197  41.286
20579DT     BB233700  92.194  90.174  41.638
20579DT     BB333701  92.096  90.345  41.701
20579DT     SC133702  92.317  90.485  41.693
20579DT     SC233703  92.378  90.534  41.893
20579DT     SC333704  92.492  90.669  41.621
20580DT     BB133705  91.875  90.196  41.724
20580DT     BB233706  91.922  90.342  42.050
20580DT     BB333707  91.841  90.533  42.054
20580DT     SC133708  92.041  90.629  41.914
20580DT     SC233709  92.161  90.757  42.039
20580DT     SC333710  92.174  90.741  41.715
20581DC     BB133711  91.626  90.453  42.208
20581DC     BB233712  91.774  90.722  42.397
20581DC     BB333713  91.693  90.903  42.337
20581DC     SC133714  91.832  90.901  42.115
20581DC     SC233715  91.982  91.054  42.123
20581DC     SC333716  91.888  90.895  41.857
20582DC     BB133717  91.542  90.930  42.568
20582DC     BB233718  91.741  91.231  42.556
20582DC     BB333719  91.642  91.377  42.448
20582DC     SC133720  91.697  91.258  42.221
20582DC     SC233721  91.839  91.376  42.111
20582DC     SC333722  91.663  91.132  41.992
20583DT     BB133723  91.583  91.522  42.675
20583DT     BB233724  91.765  91.753  42.467
20583DT     BB333725  91.634  91.853  42.341
20583DT     SC133726  91.606  91.641  42.189
20583DT     SC233727  91.701  91.676  41.999
20583DT     SC333728  91.494  91.436  42.066
20584DT     BB133729  91.665  92.082  42.484
20584DT     BB233730  91.762  92.171  42.149
20584DT     BB333731  91.596  92.230  42.040
20584DT     SC133732  91.513  91.982  42.017
20584DT     SC233733  91.533  91.919  41.812
20584DT     SC333734  91.362  91.768  42.042
20585DA     BB133735  91.896  92.521  42.002
20585DA     BB233736  91.773  92.438  41.667
20585DA     BB333737  91.578  92.518  41.637
20585DA     SC133738  91.432  92.263  41.740
20585DA     SC233739  91.292  92.080  41.646
20585DA     SC333740  91.212  92.043  41.887
20585DA     SC433741  91.393  92.257  41.896
20586DT     BB133742  91.570  92.651  41.504
20586DT     BB233743  91.405  92.452  41.252
20586DT     BB333744  91.203  92.498  41.246
20586DT     SC133745  91.159  92.366  41.469
20586DT     SC233746  91.044  92.190  41.425
20586DT     SC333747  91.092  92.318  41.719
20587DA     BB133748  91.363  92.513  40.858
20587DA     BB233749  91.054  92.317  40.848
20587DA     BB333750  90.884  92.443  40.876
20587DA     SC133751  90.881  92.411  41.185
20587DA     SC233752  90.737  92.303  41.358
20587DA     SC333753  90.850  92.462  41.523
20587DA     SC433754  90.962  92.519  41.272
20588DT     BB133755  90.761  92.463  40.723
20588DT     BB233756  90.490  92.266  40.856
20588DT     BB333757  90.340  92.390  40.926
20588DT     SC133758  90.481  92.454  41.139
20588DT     SC233759  90.390  92.368  41.313
20588DT     SC333760  90.617  92.599  41.312
20589DT     BB133761  90.179  92.326  40.715
20589DT     BB233762  89.980  92.247  41.006
20589DT     BB333763  89.877  92.416  41.069
20589DT     SC133764  90.096  92.521  41.169
20589DT     SC233765  90.082  92.523  41.384
20589DT     SC333766  90.296  92.689  41.206
20590DT     BB133767  89.634  92.321  40.976
20590DT     BB233768  89.576  92.387  41.326
20590DT     BB333769  89.515  92.583  41.352
20590DT     SC133770  89.759  92.672  41.312
20590DT     SC233771  89.838  92.750  41.496
20590DT     SC333772  89.962  92.799  41.201
20591DT     BB133773  89.251  92.514  41.404
20591DT     BB233774  89.352  92.702  41.695
20591DT     BB333775  89.314  92.904  41.666
20591DT     SC133776  89.517  92.927  41.503
20591DT     SC233777  89.671  93.046  41.596
20591DT     SC333778  89.654  92.971  41.281
20592DG     BB133779  89.112  92.790  42.001
20592DG     BB233780  89.324  93.077  42.065
20592DG     BB333781  89.237  93.242  41.995
20592DG     SC133782  89.362  93.220  41.717
20592DG     SC233783  89.563  93.408  41.600
20592DG     SC333784  89.465  93.217  41.396
20592DG     SC433785  89.286  93.136  41.604
20593DA     BB133786  89.302  93.363  42.311
20593DA     BB233787  89.502  93.633  42.165
20593DA     BB333788  89.375  93.779  42.076
20593DA     SC133789  89.376  93.644  41.796
20593DA     SC233790  89.467  93.690  41.568
20593DA     SC333791  89.290  93.524  41.486
20593DA     SC433792  89.258  93.539  41.764
20594DT     BB133793  89.383  93.947  42.161
20594DT     BB233794  89.568  94.121  41.904
20594DT     BB333795  89.439  94.234  41.788
20594DT     SC133796  89.349  94.020  41.666
20594DT     SC233797  89.415  94.021  41.461
20594DT     SC333798  89.182  93.832  41.584
20595DT     BB133799  89.537  94.458  41.902
20595DT     BB233800  89.580  94.511  41.548
20595DT     BB333801  89.406  94.590  41.467
20595DT     SC133802  89.286  94.357  41.480
20595DT     SC233803  89.257  94.280  41.281
20595DT     SC333804  89.113  94.171  41.550
20596DA     BB133805  89.703  94.863  41.345
20596DA     BB233806  89.502  94.782  41.050
20596DA     BB333807  89.313  94.881  41.059
20596DA     SC133808  89.170  94.646  41.205
20596DA     SC233809  88.997  94.475  41.154
20596DA     SC333810  88.969  94.456  41.408
20596DA     SC433811  89.167  94.650  41.366
20597DT     BB133812  89.237  95.056  40.923
20597DT     BB233813  89.008  94.858  40.727
20597DT     BB333814  88.813  94.911  40.771
20597DT     SC133815  88.822  94.785  41.001
20597DT     SC233816  88.696  94.612  40.993
20597DT     SC333817  88.820  94.744  41.261
20598DT     BB133818  88.747  95.067  40.532
20598DT     BB233819  88.495  94.810  40.537
20598DT     BB333820  88.325  94.879  40.633
20598DT     SC133821  88.439  94.859  40.868
20598DT     SC233822  88.347  94.699  40.979
20598DT     SC333823  88.541  94.927  41.101
20599DG     BB133824  88.186  94.789  40.258
20599DG     BB233825  87.999  94.612  40.513
20599DG     BB333826  87.858  94.731  40.588
20599DG     SC133827  88.037  94.845  40.808
20599DG     SC233828  88.003  94.801  41.102
20599DG     SC333829  88.210  95.006  41.049
20599DG     SC433830  88.125  94.975  40.777
20600DT     BB133831  87.649  94.672  40.568
20600DT     BB233832  87.589  94.547  40.901
20600DT     BB333833  87.476  94.683  41.008
20600DT     SC133834  87.681  94.844  41.038
20600DT     SC233835  87.742  94.844  41.244
20600DT     SC333836  87.833  95.058  41.019
20601DC     BB133837  87.284  94.500  40.990
20601DC     BB233838  87.340  94.546  41.344
20601DC     BB333839  87.228  94.706  41.413
20601DC     SC133840  87.392  94.878  41.301
20601DC     SC233841  87.501  94.982  41.455
20601DC     SC333842  87.481  95.069  41.143
20602DT     BB133843  87.108  94.510  41.534
20602DT     BB233844  87.225  94.729  41.795
20602DT     BB333845  87.095  94.889  41.816
20602DT     SC133846  87.185  95.001  41.596
20602DT     SC233847  87.295  95.179  41.647
20602DT     SC333848  87.190  95.098  41.351
20603DT     BB133849  87.058  94.764  42.038
20603DT     BB233850  87.159  95.099  42.129
20603DT     BB333851  86.998  95.228  42.110
20603DT     SC133852  87.018  95.226  41.848
20603DT     SC233853  87.087  95.418  41.780
20603DT     SC333854  86.956  95.187  41.595
20604DG     BB133855  87.169  95.243  42.479
20604DG     BB233856  87.125  95.573  42.337
20604DG     BB333857  86.933  95.624  42.343
20604DG     SC133858  86.868  95.505  42.068
20604DG     SC233859  86.789  95.659  41.825
20604DG     SC333860  86.757  95.368  41.780
20604DG     SC433861  86.824  95.351  42.058
20605DT     BB133862  86.886  95.790  42.455
20605DT     BB233863  86.793  96.036  42.208
20605DT     BB333864  86.587  96.043  42.190
20605DT     SC133865  86.583  95.817  42.056
20605DT     SC233866  86.529  95.855  41.852
20605DT     SC333867  86.533  95.565  41.996
20606DA     BB133868  86.704  96.441  42.254
20606DA     BB233869  86.458  96.443  41.983
20606DA     BB333870  86.262  96.407  42.060
20606DA     SC133871  86.279  96.098  42.026
20606DA     SC233872  86.176  95.922  41.883
20606DA     SC333873  86.250  95.758  42.066
20606DA     SC433874  86.332  96.012  42.151
20607DA     BB133875  86.145  96.695  41.922
20607DA     BB233876  85.898  96.500  41.735
20607DA     BB333877  85.732  96.451  41.859
20607DA     SC133878  85.853  96.182  41.957
20607DA     SC233879  85.809  95.938  41.928
20607DA     SC333880  85.945  95.908  42.143
20607DA     SC433881  85.939  96.184  42.093
20608DA     BB133882  85.476  96.600  41.667
20608DA     BB233883  85.316  96.272  41.628
20608DA     BB333884  85.186  96.233  41.793
20608DA     SC133885  85.405  96.092  41.963
20608DA     SC233886  85.457  95.861  42.042
20608DA     SC333887  85.603  95.977  42.219
20608DA     SC433888  85.489  96.182  42.065
20609DT     BB133889  84.897  96.220  41.844
20609DT     BB233890  84.884  95.860  41.866
20609DT     BB333891  84.819  95.803  42.054
20609DT     SC133892  85.052  95.863  42.161
20609DT     SC233893  85.151  95.682  42.221
20609DT     SC333894  85.232  95.983  42.311
20610DG     BB133895  84.458  95.637  41.890
20610DG     BB233896  84.626  95.385  42.088
20610DG     BB333897  84.556  95.388  42.274
20610DG     SC133898  84.762  95.592  42.373
20610DG     SC233899  84.980  95.540  42.571
20610DG     SC333900  84.960  95.828  42.510
20610DG     SC433901  84.729  95.748  42.361
20611DT     BB133902  84.413  95.203  42.432
20611DT     BB233903  84.696  95.075  42.615
20611DT     BB333904  84.676  95.117  42.816
20611DT     SC133905  84.736  95.370  42.778
20611DT     SC233906  84.928  95.411  42.864
20611DT     SC333907  84.711  95.632  42.769
20612DT     BB133908  84.626  94.852  42.880
20612DT     BB233909  84.930  94.935  43.056
20612DT     BB333910  84.885  95.005  43.245
20612DT     SC133911  84.804  95.235  43.149
20612DT     SC233912  84.943  95.389  43.205
20612DT     SC333913  84.645  95.437  43.088
20613DA     BB133914  85.183  94.712  43.228
20613DA     BB233915  85.310  94.999  43.417
20613DA     BB333916  85.210  95.015  43.605
20613DA     SC133917  84.984  95.200  43.498
20613DA     SC233918  84.913  95.437  43.523
20613DA     SC333919  84.684  95.356  43.439
20613DA     SC433920  84.849  95.130  43.445
20614DA     BB133921  85.536  95.035  43.620
20614DA     BB233922  85.473  95.362  43.773
20614DA     BB333923  85.372  95.339  43.960
20614DA     SC133924  85.087  95.356  43.835
20614DA     SC233925  84.896  95.515  43.835
20614DA     SC333926  84.754  95.313  43.763
20614DA     SC433927  85.017  95.218  43.793
20615DA     BB133928  85.631  95.542  43.977
20615DA     BB233929  85.388  95.785  44.105
20615DA     BB333930  85.307  95.718  44.290
20615DA     SC133931  85.068  95.567  44.159
20615DA     SC233932  84.821  95.592  44.143
20615DA     SC333933  84.820  95.342  44.083
20615DA     SC433934  85.089  95.411  44.125
20616DA     BB133935  85.406  96.029  44.331
20616DA     BB233936  85.061  96.095  44.439
20616DA     BB333937  85.020  95.993  44.622
20616DA     SC133938  84.915  95.735  44.483
20616DA     SC233939  84.697  95.617  44.453
20616DA     SC333940  84.839  95.410  44.400
20616DA     SC433941  85.021  95.617  44.454
20617DA     BB133942  84.927  96.299  44.705
20617DA     BB233943  84.599  96.157  44.786
20617DA     BB333944  84.611  96.040  44.964
20617DA     SC133945  84.676  95.775  44.815
20617DA     SC233946  84.563  95.558  44.767
20617DA     SC333947  84.799  95.467  44.723
20617DA     SC433948  84.831  95.737  44.794
20618DT     BB133949  84.518  96.098  45.147
20618DT     BB233950  84.257  95.849  45.152
20618DT     BB333951  84.300  95.704  45.293
20618DT     SC133952  84.484  95.598  45.139
20618DT     SC233953  84.417  95.406  45.070
20618DT     SC333954  84.720  95.518  45.054
20619DT     BB133955  84.116  95.785  45.504
20619DT     BB233956  84.034  95.437  45.456
20619DT     BB333957  84.142  95.320  45.587
20619DT     SC133958  84.362  95.352  45.447
20619DT     SC233959  84.414  95.166  45.353
20619DT     SC333960  84.607  95.424  45.384
20620DT     BB133961  83.938  95.252  45.793
20620DT     BB233962  84.058  94.928  45.689
20620DT     BB333963  84.207  94.864  45.817
20620DT     SC133964  84.380  95.031  45.713
20620DT     SC233965  84.529  94.920  45.603
20620DT     SC333966  84.551  95.231  45.692
20621DG     BB133967  83.932  94.563  45.881
20621DG     BB233968  84.252  94.424  45.784
20621DG     BB333969  84.369  94.406  45.944
20621DG     SC133970  84.490  94.686  45.917
20621DG     SC233971  84.774  94.748  45.850
20621DG     SC333972  84.629  94.993  45.929
20621DG     SC433973  84.417  94.810  45.988
20622DA     BB133974  84.417  94.073  45.863
20622DA     BB233975  84.775  94.136  45.813
20622DA     BB333976  84.876  94.139  46.001
20622DA     SC133977  84.840  94.445  46.042
20622DA     SC233978  84.983  94.650  46.043
20622DA     SC333979  84.791  94.759  46.175
20622DA     SC433980  84.711  94.495  46.124
20623DA     BB133981  85.045  93.925  45.827
20623DA     BB233982  85.328  94.156  45.863
20623DA     BB333983  85.404  94.149  46.062
20623DA     SC133984  85.220  94.377  46.166
20623DA     SC233985  85.244  94.613  46.243
20623DA     SC333986  85.017  94.577  46.357
20623DA     SC433987  85.079  94.335  46.231
20624DG     BB133988  85.643  94.076  45.885
20624DG     BB233989  85.772  94.385  46.019
20624DG     BB333990  85.833  94.358  46.206
20624DG     SC133991  85.562  94.425  46.331
20624DG     SC233992  85.501  94.662  46.502
20624DG     SC333993  85.274  94.473  46.501
20624DG     SC433994  85.455  94.308  46.352
20625DA     BB133995  86.109  94.517  46.075
20625DA     BB233996  86.075  94.776  46.333
20625DA     BB333997  86.127  94.697  46.524
20625DA     SC133998  85.837  94.608  46.593
20625DA     SC233999  85.655  94.675  46.750
20625DA     SC334000  85.560  94.440  46.708
20625DA     SC434001  85.794  94.457  46.555
20626DA     BB134002  86.318  94.964  46.510
20626DA     BB234003  86.145  95.077  46.813
20626DA     BB334004  86.206  94.960  46.981
20626DA     SC134005  85.981  94.747  46.946
20626DA     SC234006  85.774  94.677  47.065
20626DA     SC334007  85.799  94.457  46.936
20626DA     SC434008  86.015  94.617  46.858
20627DT     BB134009  86.314  95.047  47.132
20627DT     BB234010  86.051  95.054  47.378
20627DT     BB334011  86.082  94.907  47.520
20627DT     SC134012  86.006  94.719  47.352
20627DT     SC234013  85.817  94.638  47.417
20627DT     SC334014  86.015  94.506  47.197
20628DA     BB134015  86.042  95.256  47.750
20628DA     BB234016  85.820  95.004  47.895
20628DA     BB334017  85.933  94.860  48.006
20628DA     SC134018  85.973  94.669  47.764
20628DA     SC234019  85.894  94.443  47.693
20628DA     SC334020  86.098  94.444  47.537
20628DA     SC434021  86.106  94.688  47.676
20629DC     BB134022  85.917  94.842  48.219
20629DC     BB234023  85.718  94.541  48.217
20629DC     BB334024  85.832  94.381  48.281
20629DC     SC134025  85.962  94.372  48.053
20629DC     SC234026  85.905  94.194  47.945
20629DC     SC334027  86.161  94.383  47.879
20630DA     BB134028  85.477  94.392  48.500
20630DA     BB234029  85.517  94.054  48.363
20630DA     BB334030  85.671  93.949  48.468
20630DA     SC134031  85.898  94.041  48.275
20630DA     SC234032  86.046  93.939  48.103
20630DA     SC334033  86.196  94.144  48.140
20630DA     SC434034  85.978  94.175  48.314
20631DC     BB134035  85.606  93.800  48.562
20631DC     BB234036  85.734  93.549  48.337
20631DC     BB334037  85.906  93.464  48.415
20631DC     SC134038  86.047  93.678  48.357
20631DC     SC234039  86.185  93.631  48.199
20631DC     SC334040  86.196  93.893  48.389
20632DT     BB134041  85.755  93.249  48.447
20632DT     BB234042  86.032  93.141  48.242
20632DT     BB334043  86.195  93.096  48.361
20632DT     SC134044  86.244  93.350  48.404
20632DT     SC234045  86.426  93.405  48.303
20632DT     SC334046  86.275  93.579  48.531
20633DT     BB134047  86.150  92.840  48.301
20633DT     BB234048  86.492  92.900  48.201
20633DT     BB334049  86.618  92.878  48.364
20633DT     SC134050  86.541  93.108  48.464
20633DT     SC234051  86.703  93.249  48.451
20633DT     SC334052  86.435  93.283  48.630
20634DA     BB134053  86.775  92.635  48.060
20634DA     BB234054  87.050  92.833  48.197
20634DA     BB334055  87.107  92.760  48.389
20634DA     SC134056  86.911  92.946  48.544
20634DA     SC234057  86.926  93.143  48.696
20634DA     SC334058  86.689  93.079  48.770
20634DA     SC434059  86.765  92.889  48.578
20635DA     BB134060  87.407  92.742  48.255
20635DA     BB234061  87.517  92.982  48.509
20635DA     BB334062  87.543  92.884  48.697
20635DA     SC134063  87.252  92.935  48.792
20635DA     SC234064  87.135  93.073  48.964
20635DA     SC334065  86.940  92.909  48.935
20635DA     SC434066  87.142  92.821  48.761
20636DT     BB134067  87.733  92.867  48.780
20636DT     BB234068  87.690  93.119  49.034
20636DT     BB334069  87.671  93.029  49.220
20636DT     SC134070  87.426  92.952  49.166
20636DT     SC234071  87.288  93.063  49.288
20636DT     SC334072  87.220  92.793  49.122
20637DG     BB134073  87.983  93.289  49.233
20637DG     BB234074  87.746  93.353  49.498
20637DG     BB334075  87.770  93.221  49.644
20637DG     SC134076  87.573  93.018  49.526
20637DG     SC234077  87.311  92.939  49.646
20637DG     SC334078  87.379  92.765  49.416
20637DG     SC434079  87.627  92.909  49.422
20638DC     BB134080  87.818  93.302  49.824
20638DC     BB234081  87.510  93.266  50.008
20638DC     BB334082  87.520  93.100  50.131
20638DC     SC134083  87.489  92.938  49.926
20638DC     SC234084  87.296  92.844  49.938
20638DC     SC334085  87.542  92.751  49.748
20639DA     BB134086  87.381  93.442  50.332
20639DA     BB234087  87.160  93.160  50.413
20639DA     BB334088  87.264  93.018  50.534
20639DA     SC134089  87.367  92.851  50.292
20639DA     SC234090  87.326  92.627  50.191
20639DA     SC334091  87.555  92.658  50.079
20639DA     SC434092  87.512  92.889  50.233
20640DC     BB134093  87.186  93.008  50.696
20640DC     BB234094  87.040  92.680  50.664
20640DC     BB334095  87.165  92.538  50.748
20640DC     SC134096  87.331  92.552  50.545
20640DC     SC234097  87.322  92.369  50.433
20640DC     SC334098  87.552  92.596  50.408
20641DA     BB134099  86.788  92.476  50.921
20641DA     BB234100  86.920  92.148  50.823
20641DA     BB334101  87.076  92.089  50.955
20641DA     SC134102  87.303  92.218  50.785
20641DA     SC234103  87.493  92.142  50.642
20641DA     SC334104  87.588  92.377  50.679
20641DA     SC434105  87.345  92.369  50.820
20642DA     BB134106  86.899  91.812  51.000
20642DA     BB234107  87.187  91.622  50.874
20642DA     BB334108  87.336  91.606  51.025
20642DA     SC134109  87.485  91.865  50.940
20642DA     SC234110  87.702  91.927  50.834
20642DA     SC334111  87.663  92.159  50.936
20642DA     SC434112  87.443  92.002  51.013
20643DG     BB134113  87.300  91.293  51.009
20643DG     BB234114  87.644  91.300  50.897
20643DG     BB334115  87.766  91.303  51.053
20643DG     SC134116  87.774  91.608  51.072
20643DG     SC234117  88.012  91.781  51.020
20643DG     SC334118  87.790  91.940  51.133
20643DG     SC434119  87.664  91.684  51.160
20644DA     BB134120  87.938  91.026  50.924
20644DA     BB234121  88.250  91.218  50.913
20644DA     BB334122  88.336  91.230  51.108
20644DA     SC134123  88.190  91.495  51.182
20644DA     SC234124  88.249  91.734  51.221
20644DA     SC334125  88.026  91.748  51.347
20644DA     SC434126  88.048  91.483  51.258
20645DA     BB134127  88.608  91.105  50.966
20645DA     BB234128  88.785  91.409  51.068
20645DA     BB334129  88.834  91.401  51.275
20645DA     SC134130  88.570  91.538  51.368
20645DA     SC234131  88.500  91.755  51.468
20645DA     SC334132  88.288  91.631  51.540
20645DA     SC434133  88.446  91.442  51.405
20646DA     BB134134  89.154  91.454  51.191
20646DA     BB234135  89.145  91.761  51.390
20646DA     BB334136  89.167  91.716  51.597
20646DA     SC134137  88.862  91.688  51.649
20646DA     SC234138  88.683  91.812  51.770
20646DA     SC334139  88.552  91.591  51.763
20646DA     SC434140  88.797  91.541  51.635
20647DA     BB134141  89.440  91.919  51.631
20647DA     BB234142  89.251  92.121  51.872
20647DA     BB334143  89.263  92.034  52.066
20647DA     SC134144  89.007  91.860  52.030
20647DA     SC234145  88.774  91.853  52.119
20647DA     SC334146  88.773  91.609  52.039
20647DA     SC434147  89.026  91.710  51.974
20648DC     BB134148  89.384  92.105  52.292
20648DC     BB234149  89.084  92.217  52.457
20648DC     BB334150  89.046  92.100  52.623
20648DC     SC134151  88.964  91.900  52.473
20648DC     SC234152  88.752  91.874  52.498
20648DC     SC334153  88.955  91.662  52.361
20649DG     BB134154  89.104  92.448  52.855
20649DG     BB234155  88.779  92.304  52.926
20649DG     BB334156  88.793  92.174  53.075
20649DG     SC134157  88.852  91.935  52.894
20649DG     SC234158  88.673  91.700  52.851
20649DG     SC334159  88.938  91.654  52.727
20649DG     SC434160  89.004  91.902  52.855
20650DA     BB134161  88.548  92.332  53.273
20650DA     BB234162  88.326  92.045  53.222
20650DA     BB334163  88.359  91.898  53.373
20650DA     SC134164  88.575  91.744  53.209
20650DA     SC234165  88.596  91.525  53.092
20650DA     SC334166  88.849  91.563  53.110
20650DA     SC434167  88.728  91.786  53.231
20651DT     BB134168  88.204  91.866  53.488
20651DT     BB234169  88.101  91.567  53.313
20651DT     BB334170  88.143  91.400  53.429
20651DT     SC134171  88.399  91.418  53.375
20651DT     SC234172  88.458  91.254  53.249
20651DT     SC334173  88.659  91.449  53.412
20652DA     BB134174  87.766  91.432  53.241
20652DA     BB234175  87.914  91.106  53.162
20652DA     BB334176  87.926  90.986  53.337
20652DA     SC134177  88.212  91.083  53.414
20652DA     SC234178  88.443  90.990  53.421
20652DA     SC334179  88.494  91.183  53.582
20652DA     SC434180  88.223  91.209  53.513
20653DT     BB134181  87.831  90.864  53.286
20653DT     BB234182  88.093  90.620  53.242
20653DT     BB334183  88.125  90.517  53.420
20653DT     SC134184  88.249  90.723  53.525
20653DT     SC234185  88.458  90.677  53.547
20653DT     SC334186  88.302  90.924  53.688
20654DT     BB134187  88.024  90.328  53.273
20654DT     BB234188  88.345  90.207  53.386
20654DT     BB334189  88.331  90.140  53.581
20654DT     SC134190  88.322  90.386  53.672
20654DT     SC234191  88.505  90.430  53.778
20654DT     SC334192  88.232  90.604  53.790
20655DT     BB134193  88.361  89.900  53.476
20655DT     BB234194  88.625  89.930  53.720
20655DT     BB334195  88.552  89.886  53.909
20655DT     SC134196  88.428  90.117  53.923
20655DT     SC234197  88.524  90.241  54.070
20655DT     SC334198  88.232  90.293  53.940
20656DG     BB134199  88.862  89.632  53.835
20656DG     BB234200  88.901  89.799  54.153
20656DG     BB334201  88.782  89.714  54.289
20656DG     SC134202  88.544  89.898  54.230
20656DG     SC234203  88.430  90.101  54.416
20656DG     SC334204  88.257  90.068  54.178
20656DG     SC434205  88.440  89.856  54.117
20657DG     BB134206  89.051  89.659  54.465
20657DG     BB234207  88.901  89.870  54.717
20657DG     BB334208  88.769  89.766  54.823
20657DG     SC134209  88.533  89.830  54.639
20657DG     SC234210  88.295  89.995  54.710
20657DG     SC334211  88.257  89.863  54.448
20657DG     SC434212  88.504  89.734  54.514
20658DT     BB134213  88.802  89.740  55.033
20658DT     BB234214  88.553  89.959  55.177
20658DT     BB334215  88.391  89.848  55.243
20658DT     SC134216  88.307  89.810  54.997
20658DT     SC234217  88.125  89.921  54.966
20658DT     SC334218  88.240  89.687  54.774
20659DC     BB134219  88.472  89.904  55.489
20659DC     BB234220  88.130  90.019  55.477
20659DC     BB334221  88.002  89.861  55.515
20659DC     SC134222  88.042  89.761  55.275
20659DC     SC234223  87.864  89.783  55.158
20659DC     SC334224  88.117  89.594  55.086
20660DT     BB134225  87.950  89.973  55.752
20660DT     BB234226  87.626  89.931  55.600
20660DT     BB334227  87.556  89.739  55.634
20660DT     SC134228  87.721  89.640  55.455
20660DT     SC234229  87.609  89.572  55.284
20660DT     SC334230  87.918  89.500  55.350
20661DT     BB134231  87.371  89.818  55.826
20661DT     BB234232  87.173  89.631  55.589
20661DT     BB334233  87.170  89.431  55.642
20661DT     SC134234  87.416  89.398  55.556
20661DT     SC234235  87.415  89.275  55.379
20661DT     SC334236  87.675  89.346  55.559
20662DC     BB134237  86.905  89.423  55.748
20662DC     BB234238  86.903  89.160  55.501
20662DC     BB334239  86.954  88.979  55.590
20662DC     SC134240  87.207  89.049  55.604
20662DC     SC234241  87.321  88.930  55.467
20662DC     SC334242  87.441  89.111  55.707
20663DG     BB134243  86.577  88.894  55.450
20663DG     BB234244  86.813  88.645  55.337
20663DG     BB334245  86.841  88.508  55.479
20663DG     SC134246  87.073  88.658  55.611
20663DG     SC234247  87.358  88.567  55.620
20663DG     SC334248  87.317  88.804  55.793
20663DG     SC434249  87.041  88.766  55.725
20664DA     BB134250  86.765  88.256  55.250
20664DA     BB234251  87.099  88.110  55.294
20664DA     BB334252  87.107  87.995  55.473
20664DA     SC134253  87.200  88.232  55.651
20664DA     SC234254  87.406  88.301  55.773
20664DA     SC334255  87.250  88.452  55.910
20664DA     SC434256  87.086  88.318  55.726
20665DT     BB134257  87.133  87.794  55.457
20665DT     BB234258  87.478  87.787  55.563
20665DT     BB334259  87.491  87.713  55.756
20665DT     SC134260  87.399  87.937  55.857
20665DT     SC234261  87.557  88.038  55.963
20665DT     SC334262  87.241  88.106  55.983
20666DA     BB134263  87.759  87.494  55.520
20666DA     BB234264  87.938  87.602  55.822
20666DA     BB334265  87.874  87.488  55.990
20666DA     SC134266  87.647  87.686  56.069
20666DA     SC234267  87.599  87.849  56.252
20666DA     SC334268  87.354  87.828  56.178
20666DA     SC434269  87.500  87.659  56.009
20667DG     BB134270  88.173  87.398  56.009
20667DG     BB234271  88.160  87.570  56.327
20667DG     BB334272  88.082  87.451  56.466
20667DG     SC134273  87.793  87.539  56.415
20667DG     SC234274  87.620  87.691  56.605
20667DG     SC334275  87.464  87.597  56.372
20667DG     SC434276  87.707  87.462  56.304
20668DT     BB134277  88.196  87.368  56.657
20668DT     BB234278  88.047  87.567  56.919
20668DT     BB334279  87.917  87.451  57.031
20668DT     SC134280  87.737  87.454  56.840
20668DT     SC234281  87.569  87.572  56.903
20668DT     SC334282  87.574  87.369  56.651
20669DG     BB134283  88.187  87.558  57.324
20669DG     BB234284  87.849  87.635  57.429
20669DG     BB334285  87.764  87.473  57.507
20669DG     SC134286  87.651  87.374  57.240
20669DG     SC234287  87.362  87.359  57.168
20669DG     SC334288  87.529  87.227  56.962
20669DG     SC434289  87.741  87.280  57.147
20670DT     BB134290  87.687  87.432  57.744
20670DT     BB234291  87.332  87.473  57.698
20670DT     BB334292  87.236  87.291  57.721
20670DT     SC134293  87.320  87.209  57.486
20670DT     SC234294  87.153  87.196  57.351
20670DT     SC334295  87.446  87.066  57.304
20671DT     BB134296  87.127  87.360  57.967
20671DT     BB234297  86.841  87.287  57.759
20671DT     BB334298  86.793  87.086  57.773
20671DT     SC134299  86.997  87.018  57.624
20671DT     SC234300  86.926  86.946  57.434
20671DT     SC334301  87.226  86.909  57.551
20672DA     BB134302  86.451  87.318  57.840
20672DA     BB234303  86.372  87.068  57.584
20672DA     BB334304  86.355  86.874  57.673
20672DA     SC134305  86.655  86.804  57.632
20672DA     SC234306  86.791  86.648  57.491
20672DA     SC334307  86.975  86.684  57.666
20672DA     SC434308  86.757  86.837  57.752
20673DG     BB134309  86.079  86.913  57.546
20673DG     BB234310  86.191  86.636  57.342
20673DG     BB334311  86.174  86.466  57.443
20673DG     SC134312  86.455  86.481  57.564
20673DG     SC234313  86.681  86.295  57.504
20673DG     SC334314  86.748  86.475  57.729
20673DG     SC434315  86.475  86.558  57.702
20674DT     BB134316  86.049  86.326  57.359
20674DT     BB234317  86.282  86.084  57.230
20674DT     BB334318  86.299  85.924  57.361
20674DT     SC134319  86.443  86.067  57.528
20674DT     SC234320  86.645  85.993  57.529
20674DT     SC334321  86.515  86.194  57.748
20675DA     BB134322  86.231  85.789  56.969
20675DA     BB234323  86.512  85.600  57.111
20675DA     BB334324  86.443  85.467  57.263
20675DA     SC134325  86.480  85.673  57.494
20675DA     SC234326  86.630  85.704  57.691
20675DA     SC334327  86.446  85.859  57.780
20675DA     SC434328  86.354  85.765  57.533
20676DT     BB134329  86.465  85.284  57.221
20676DT     BB234330  86.738  85.218  57.447
20676DT     BB334331  86.668  85.124  57.618
20676DT     SC134332  86.565  85.348  57.708
20676DT     SC234333  86.677  85.413  57.880
20676DT     SC334334  86.386  85.524  57.789
20677DT     BB134335  86.787  84.901  57.531
20677DT     BB234336  86.927  84.960  57.859
20677DT     BB334337  86.803  84.880  58.004
20677DT     SC134338  86.630  85.075  57.974
20677DT     SC234339  86.633  85.200  58.149
20677DT     SC334340  86.405  85.201  57.918
20678DA     BB134341  87.194  84.743  58.071
20678DA     BB234342  87.060  84.868  58.389
20678DA     BB334343  86.912  84.734  58.465
20678DA     SC134344  86.675  84.878  58.323
20678DA     SC234345  86.479  85.017  58.387
20678DA     SC334346  86.383  84.951  58.159
20678DA     SC434347  86.632  84.824  58.178
20679DC     BB134348  86.960  84.649  58.628
20679DC     BB234349  86.738  84.835  58.843
20679DC     BB334350  86.570  84.723  58.886
20679DC     SC134351  86.472  84.763  58.646
20679DC     SC234352  86.299  84.891  58.660
20679DC     SC334353  86.384  84.714  58.402
20680DA     BB134354  86.731  84.870  59.245
20680DA     BB234355  86.371  84.935  59.246
20680DA     BB334356  86.262  84.753  59.271
20680DA     SC134357  86.239  84.698  58.965
20680DA     SC234358  86.060  84.696  58.791
20680DA     SC334359  86.222  84.551  58.656
20680DA     SC434360  86.353  84.608  58.897
20681DT     BB134361  86.159  84.731  59.438
20681DT     BB234362  85.830  84.772  59.296
20681DT     BB334363  85.738  84.587  59.277
20681DT     SC134364  85.888  84.526  59.070
20681DT     SC234365  85.766  84.523  58.893
20681DT     SC334366  86.065  84.400  58.920
20682DA     BB134367  85.468  84.831  59.486
20682DA     BB234368  85.284  84.666  59.215
20682DA     BB334369  85.254  84.460  59.261
20682DA     SC134370  85.517  84.366  59.123
20682DA     SC234371  85.583  84.237  58.920
20682DA     SC334372  85.807  84.204  59.040
20682DA     SC434373  85.649  84.356  59.214
20683DA     BB134374  84.934  84.529  59.208
20683DA     BB234375  84.943  84.284  58.936
20683DA     BB334376  84.938  84.086  59.014
20683DA     SC134377  85.247  84.059  59.032
20683DA     SC234378  85.428  83.930  58.918
20683DA     SC334379  85.568  83.981  59.128
20683DA     SC434380  85.317  84.099  59.171
20684DG     BB134381  84.669  84.050  58.855
20684DG     BB234382  84.863  83.806  58.670
20684DG     BB334383  84.861  83.632  58.766
20684DG     SC134384  85.111  83.694  58.932
20684DG     SC234385  85.375  83.555  58.910
20684DG     SC334386  85.370  83.736  59.145
20684DG     SC434387  85.094  83.768  59.073
20685DA     BB134388  84.753  83.480  58.472
20685DA     BB234389  85.055  83.271  58.467
20685DA     BB334390  85.035  83.110  58.606
20685DA     SC134391  85.162  83.267  58.843
20685DA     SC234392  85.373  83.261  58.976
20685DA     SC334393  85.241  83.393  59.152
20685DA     SC434394  85.063  83.347  58.940
20686DT     BB134395  85.026  82.919  58.535
20686DT     BB234396  85.362  82.825  58.628
20686DT     BB334397  85.357  82.700  58.793
20686DT     SC134398  85.302  82.900  58.953
20686DT     SC234399  85.472  82.939  59.080
20686DT     SC334400  85.171  83.052  59.124
20687DG     BB134401  85.551  82.504  58.493
20687DG     BB234402  85.749  82.515  58.795
20687DG     BB334403  85.682  82.379  58.925
20687DG     SC134404  85.483  82.570  59.058
20687DG     SC234405  85.498  82.672  59.338
20687DG     SC334406  85.240  82.745  59.213
20687DG     SC434407  85.335  82.581  58.998
20688DA     BB134408  86.013  82.284  58.936
20688DA     BB234409  86.019  82.356  59.295
20688DA     BB334410  85.915  82.204  59.403
20688DA     SC134411  85.640  82.349  59.391
20688DA     SC234412  85.486  82.465  59.548
20688DA     SC334413  85.306  82.424  59.370
20688DA     SC434414  85.543  82.313  59.268
20689DT     BB134415  86.028  82.108  59.516
20689DT     BB234416  85.912  82.253  59.826
20689DT     BB334417  85.779  82.125  59.918
20689DT     SC134418  85.590  82.186  59.747
20689DT     SC234419  85.436  82.299  59.847
20689DT     SC334420  85.410  82.159  59.556
20690DT     BB134421  85.972  82.091  60.094
20690DT     BB234422  85.688  82.208  60.284
20690DT     BB334423  85.561  82.050  60.326
20690DT     SC134424  85.473  82.046  60.079
20690DT     SC234425  85.268  82.113  60.075
20690DT     SC334426  85.423  81.960  59.834
20691DT     BB134427  85.640  82.061  60.584
20691DT     BB234428  85.281  82.095  60.598
20691DT     BB334429  85.192  81.908  60.601
20691DT     SC134430  85.241  81.872  60.346
20691DT     SC234431  85.056  81.876  60.236
20691DT     SC334432  85.341  81.768  60.125
20692DT     BB134433  85.127  81.943  60.863
20692DT     BB234434  84.812  81.873  60.701
20692DT     BB334435  84.782  81.669  60.691
20692DT     SC134436  84.958  81.643  60.498
20692DT     SC234437  84.857  81.593  60.315
20692DT     SC334438  85.175  81.569  60.369
20693DT     BB134439  84.589  81.682  60.885
20693DT     BB234440  84.423  81.525  60.606
20693DT     BB334441  84.451  81.320  60.613
20693DT     SC134442  84.700  81.343  60.533
20693DT     SC234443  84.719  81.264  60.334
20693DT     SC334444  84.964  81.332  60.535
20694DG     BB134445  84.048  81.380  60.617
20694DG     BB234446  84.144  81.147  60.358
20694DG     BB334447  84.177  80.967  60.437
20694DG     SC134448  84.474  81.019  60.490
20694DG     SC234449  84.703  80.881  60.356
20694DG     SC334450  84.798  81.048  60.581
20694DG     SC434451  84.518  81.085  60.629
20695DA     BB134452  83.958  80.845  60.198
20695DA     BB234453  84.223  80.628  60.065
20695DA     BB334454  84.251  80.459  60.192
20695DA     SC134455  84.469  80.597  60.367
20695DA     SC234456  84.714  80.577  60.406
20695DA     SC334457  84.669  80.702  60.625
20695DA     SC434458  84.420  80.675  60.499
20696DT     BB134459  84.205  80.281  60.118
20696DT     BB234460  84.542  80.162  60.073
20696DT     BB334461  84.590  80.026  60.222
20696DT     SC134462  84.616  80.218  60.399
20696DT     SC234463  84.823  80.238  60.453
20696DT     SC334464  84.572  80.365  60.613
20697DT     BB134465  84.577  79.825  60.040
20697DT     BB234466  84.907  79.797  60.182
20697DT     BB334467  84.901  79.682  60.354
20697DT     SC134468  84.791  79.877  60.491
20697DT     SC234469  84.933  79.952  60.634
20697DT     SC334470  84.614  80.013  60.631
20698DT     BB134471  85.023  79.473  60.226
20698DT     BB234472  85.233  79.535  60.513
20698DT     BB334473  85.163  79.428  60.676
20698DT     SC134474  84.962  79.594  60.709
20698DT     SC234475  84.991  79.708  60.889
20698DT     SC334476  84.715  79.685  60.722
20699DA     BB134477  85.567  79.318  60.649
20699DA     BB234478  85.502  79.405  60.999
20699DA     BB334479  85.392  79.249  61.095
20699DA     SC134480  85.114  79.368  61.025
20699DA     SC234481  84.924  79.476  61.146
20699DA     SC334482  84.784  79.412  60.941
20699DA     SC434483  85.043  79.319  60.889
20700DT     BB134484  85.474  79.118  61.255
20700DT     BB234485  85.291  79.268  61.528
20700DT     BB334486  85.146  79.137  61.596
20700DT     SC134487  84.995  79.185  61.386
20700DT     SC234488  84.820  79.295  61.448
20700DT     SC334489  84.860  79.145  61.163
20701DG     BB134490  85.378  79.197  61.927
20701DG     BB234491  85.030  79.263  62.000
20701DG     BB334492  84.934  79.092  62.034
20701DG     SC134493  84.857  79.049  61.741
20701DG     SC234494  84.580  79.055  61.630
20701DG     SC334495  84.773  78.959  61.427
20701DG     SC434496  84.958  78.970  61.645
20702DT     BB134497  84.837  79.039  62.235
20702DT     BB234498  84.488  79.087  62.158
20702DT     BB334499  84.394  78.904  62.138
20702DT     SC134500  84.505  78.863  61.904
20702DT     SC234501  84.354  78.874  61.751
20702DT     SC334502  84.653  78.754  61.715
20703DA     BB134503  84.166  79.125  62.412
20703DA     BB234504  83.937  78.989  62.161
20703DA     BB334505  83.910  78.779  62.191
20703DA     SC134506  84.145  78.697  62.004
20703DA     SC234507  84.174  78.587  61.782
20703DA     SC334508  84.414  78.541  61.860
20703DA     SC434509  84.289  78.677  62.071
20704DA     BB134510  83.590  78.861  62.197
20704DA     BB234511  83.549  78.646  61.903
20704DA     BB334512  83.548  78.440  61.960
20704DA     SC134513  83.855  78.405  61.928
20704DA     SC234514  84.012  78.287  61.774
20704DA     SC334515  84.184  78.312  61.964
20704DA     SC434516  83.947  78.430  62.057
20705DT     BB134517  83.373  78.318  61.943
20705DT     BB234518  83.484  78.132  61.654
20705DT     BB334519  83.532  77.938  61.710
20705DT     SC134520  83.756  78.017  61.822
20705DT     SC234521  83.923  77.947  61.706
20705DT     SC334522  83.937  78.065  62.008
20706DT     BB134523  83.306  77.828  61.591
20706DT     BB234524  83.582  77.659  61.431
20706DT     BB334525  83.632  77.489  61.537
20706DT     SC134526  83.747  77.631  61.726
20706DT     SC234527  83.960  77.600  61.719
20706DT     SC334528  83.795  77.736  61.963
20707DT     BB134529  83.527  77.326  61.343
20707DT     BB234530  83.874  77.230  61.366
20707DT     BB334531  83.897  77.083  61.509
20707DT     SC134532  83.867  77.256  61.704
20707DT     SC234533  84.055  77.282  61.806
20707DT     SC334534  83.765  77.378  61.914
20708DC     BB134535  83.948  76.921  61.306
20708DC     BB234536  84.246  76.918  61.509
20708DC     BB334537  84.225  76.780  61.663
20708DC     SC134538  84.062  76.939  61.793
20708DC     SC234539  84.160  77.011  61.971
20708DC     SC334540  83.842  77.029  61.908
20709DC     BB134541  84.412  76.680  61.518
20709DC     BB234542  84.555  76.739  61.844
20709DC     BB334543  84.494  76.592  61.976
20709DC     SC134544  84.254  76.698  61.994
20709DC     SC234545  84.227  76.782  62.190
20709DC     SC334546  83.992  76.723  61.975
20710DG     BB134547  84.890  76.708  61.938
20710DG     BB234548  84.772  76.709  62.280
20710DG     BB334549  84.731  76.524  62.339
20710DG     SC134550  84.439  76.533  62.246
20710DG     SC234551  84.199  76.526  62.423
20710DG     SC334552  84.121  76.502  62.139
20710DG     SC434553  84.404  76.491  62.096
20711DC     BB134554  84.835  76.513  62.483
20711DC     BB234555  84.599  76.487  62.755
20711DC     BB334556  84.539  76.290  62.778
20711DC     SC134557  84.386  76.305  62.565
20711DC     SC234558  84.179  76.298  62.625
20711DC     SC334559  84.292  76.256  62.324
20712DA     BB134560  84.651  76.457  63.149
20712DA     BB234561  84.343  76.264  63.196
20712DA     BB334562  84.382  76.056  63.172
20712DA     SC134563  84.321  76.056  62.867
20712DA     SC234564  84.146  75.967  62.713
20712DA     SC334565  84.322  75.994  62.529
20712DA     SC434566  84.445  76.079  62.766
20713DC     BB134567  84.372  75.924  63.333
20713DC     BB234568  84.074  75.745  63.236
20713DC     BB334569  84.125  75.558  63.162
20713DC     SC134570  84.211  75.662  62.937
20713DC     SC234571  84.078  75.607  62.777
20713DC     SC334572  84.376  75.731  62.742
20714DG     BB134573  83.894  75.441  63.484
20714DG     BB234574  83.787  75.269  63.185
20714DG     BB334575  83.903  75.111  63.152
20714DG     SC134576  84.106  75.264  62.982
20714DG     SC234577  84.156  75.224  62.690
20714DG     SC334578  84.359  75.405  62.808
20714DG     SC434579  84.229  75.336  63.054
20715DA     BB134580  83.639  74.867  63.138
20715DA     BB234581  83.724  74.780  62.792
20715DA     BB334582  83.883  74.637  62.789
20715DA     SC134583  84.108  74.851  62.778
20715DA     SC234584  84.277  74.934  62.613
20715DA     SC334585  84.401  75.026  62.818
20715DA     SC434586  84.171  74.900  62.917
20716DT     BB134587  83.866  74.418  62.720
20716DT     BB234588  84.030  74.466  62.402
20716DT     BB334589  84.213  74.370  62.402
20716DT     SC134590  84.319  74.555  62.555
20716DT     SC234591  84.462  74.669  62.441
20716DT     SC334592  84.433  74.669  62.764
20717DT     BB134593  84.128  74.165  62.232
20717DT     BB234594  84.408  74.312  62.058
20717DT     BB334595  84.583  74.216  62.112
20717DT     SC134596  84.586  74.335  62.346
20717DT     SC234597  84.748  74.476  62.352
20717DT     SC334598  84.580  74.368  62.607
20718DA     BB134599  84.561  74.223  61.695
20718DA     BB234600  84.892  74.348  61.792
20718DA     BB334601  85.015  74.187  61.859
20718DA     SC134602  84.930  74.213  62.157
20718DA     SC234603  85.033  74.285  62.373
20718DA     SC334604  84.844  74.152  62.484
20718DA     SC434605  84.806  74.124  62.208
20719DT     BB134606  85.168  74.152  61.748
20719DT     BB234607  85.416  74.289  61.971
20719DT     BB334608  85.515  74.136  62.069
20719DT     SC134609  85.309  74.092  62.226
20719DT     SC234610  85.357  74.153  62.426
20719DT     SC334611  85.105  73.970  62.339
20720DA     BB134612  85.797  74.397  61.901
20720DA     BB234613  85.893  74.334  62.249
20720DA     BB334614  85.967  74.135  62.271
20720DA     SC134615  85.689  74.013  62.339
20720DA     SC234616  85.574  73.914  62.536
20720DA     SC334617  85.415  73.808  62.365
20720DA     SC434618  85.602  73.955  62.217
20721DA     BB134619  86.224  74.293  62.403
20721DA     BB234620  86.161  74.104  62.711
20721DA     BB334621  86.227  73.903  62.690
20721DA     SC134622  85.955  73.798  62.584
20721DA     SC234623  85.769  73.651  62.664
20721DA     SC334624  85.707  73.629  62.416
20721DA     SC434625  85.933  73.795  62.425
20722DT     BB134626  86.390  73.830  62.801
20722DT     BB234627  86.201  73.625  63.029
20722DT     BB334628  86.226  73.425  62.982
20722DT     SC134629  86.069  73.446  62.773
20722DT     SC234630  85.886  73.339  62.809
20722DT     SC334631  85.989  73.447  62.521
20723DA     BB134632  86.328  73.442  63.389
20723DA     BB234633  86.092  73.165  63.348
20723DA     BB334634  86.189  72.996  63.262
20723DA     SC134635  86.125  73.078  62.969
20723DA     SC234636  85.980  72.998  62.782
20723DA     SC334637  86.136  73.133  62.630
20723DA     SC434638  86.234  73.167  62.891
20724DG     BB134639  86.120  72.835  63.523
20724DG     BB234640  85.914  72.641  63.299
20724DG     BB334641  86.022  72.497  63.214
20724DG     SC134642  86.109  72.668  62.975
20724DG     SC234643  86.029  72.625  62.691
20724DG     SC334644  86.239  72.833  62.711
20724DG     SC434645  86.241  72.757  62.988
20725DT     BB134646  85.980  72.273  63.245
20725DT     BB234647  85.825  72.190  62.930
20725DT     BB334648  85.956  72.080  62.814
20725DT     SC134649  86.100  72.292  62.759
20725DT     SC234650  86.075  72.343  62.551
20725DT     SC334651  86.305  72.457  62.749
20726DT     BB134652  85.798  71.867  62.858
20726DT     BB234653  85.807  71.904  62.499
20726DT     BB334654  85.972  71.806  62.422
20726DT     SC134655  86.134  71.994  62.508
20726DT     SC234656  86.213  72.103  62.340
20726DT     SC334657  86.327  72.112  62.643
20727DT     BB134658  85.791  71.644  62.324
20727DT     BB234659  85.975  71.765  62.038
20727DT     BB334660  86.150  71.657  62.016
20727DT     SC134661  86.262  71.780  62.219
20727DT     SC234662  86.419  71.908  62.147
20727DT     SC334663  86.373  71.819  62.455
20728DT     BB134664  86.028  71.564  61.803
20728DT     BB234665  86.339  71.701  61.682
20728DT     BB334666  86.493  71.565  61.711
20728DT     SC134667  86.499  71.615  61.968
20728DT     SC234668  86.681  71.719  62.016
20728DT     SC334669  86.481  71.578  62.229
20729DA     BB134670  86.501  71.701  61.313
20729DA     BB234671  86.844  71.708  61.443
20729DA     BB334672  86.918  71.510  61.468
20729DA     SC134673  86.819  71.483  61.762
20729DA     SC234674  86.920  71.471  61.990
20729DA     SC334675  86.696  71.368  62.061
20729DA     SC434676  86.674  71.420  61.786
20730DT     BB134677  87.070  71.442  61.349
20730DT     BB234678  87.330  71.433  61.599
20730DT     BB334679  87.365  71.238  61.658
20730DT     SC134680  87.144  71.233  61.799
20730DT     SC234681  87.192  71.227  62.008
20730DT     SC334682  86.902  71.164  61.879
20731DC     BB134683  87.609  71.202  61.517
20731DC     BB234684  87.696  71.112  61.855
20731DC     BB334685  87.668  70.909  61.884
20731DC     SC134686  87.407  70.938  61.892
20731DC     SC234687  87.338  70.900  62.092
20731DC     SC334688  87.153  70.915  61.826
20732DT     BB134689  87.944  70.828  61.879
20732DT     BB234690  87.825  70.699  62.194
20732DT     BB334691  87.760  70.504  62.171
20732DT     SC134692  87.541  70.584  62.050
20732DT     SC234693  87.371  70.548  62.177
20732DT     SC334694  87.360  70.617  61.861
20733DC     BB134695  87.980  70.386  62.300
20733DC     BB234696  87.695  70.267  62.487
20733DC     BB334697  87.628  70.088  62.406
20733DC     SC134698  87.520  70.212  62.201
20733DC     SC234699  87.306  70.201  62.216
20733DC     SC334700  87.474  70.286  61.953
20734DA     BB134701  87.685  70.019  62.815
20734DA     BB234702  87.349  69.900  62.728
20734DA     BB334703  87.361  69.716  62.620
20734DA     SC134704  87.373  69.852  62.341
20734DA     SC234705  87.226  69.876  62.141
20734DA     SC334706  87.442  69.933  62.014
20734DA     SC434707  87.518  69.884  62.280
20735DC     BB134708  87.286  69.554  62.709
20735DC     BB234709  86.988  69.529  62.507
20735DC     BB334710  87.008  69.375  62.370
20735DC     SC134711  87.171  69.518  62.222
20735DC     SC234712  87.073  69.571  62.038
20735DC     SC334713  87.390  69.595  62.097
20736DT     BB134714  86.829  69.234  62.513
20736DT     BB234715  86.688  69.251  62.182
20736DT     BB334716  86.765  69.098  62.064
20736DT     SC134717  86.995  69.222  62.040
20736DT     SC234718  87.019  69.290  61.838
20736DT     SC334719  87.253  69.272  62.061
20737DT     BB134720  86.525  68.972  62.075
20737DT     BB234721  86.591  69.011  61.722
20737DT     BB334722  86.706  68.853  61.654
20737DT     SC134723  86.922  68.951  61.769
20737DT     SC234724  87.058  69.020  61.617
20737DT     SC334725  87.130  68.971  61.930
20738DT     BB134726  86.494  68.735  61.520
20738DT     BB234727  86.746  68.779  61.265
20738DT     BB334728  86.869  68.613  61.258
20738DT     SC134729  86.991  68.685  61.479
20738DT     SC234730  87.193  68.745  61.433
20738DT     SC334731  87.077  68.680  61.728
20739DT     BB134732  86.762  68.510  61.020
20739DT     BB234733  87.114  68.544  60.949
20739DT     BB334734  87.213  68.369  60.997
20739DT     SC134735  87.196  68.421  61.254
20739DT     SC234736  87.392  68.467  61.330
20739DT     SC334737  87.129  68.398  61.508
20740DT     BB134738  87.252  68.290  60.731
20740DT     BB234739  87.585  68.307  60.868
20740DT     BB334740  87.638  68.123  60.947
20740DT     SC134741  87.483  68.159  61.156
20740DT     SC234742  87.605  68.187  61.331
20740DT     SC334743  87.287  68.123  61.328
20741DC     BB134744  87.815  68.073  60.741
20741DC     BB234745  88.018  68.058  61.039
20741DC     BB334746  88.020  67.865  61.114
20741DC     SC134747  87.775  67.890  61.206
20741DC     SC234748  87.780  67.895  61.421
20741DC     SC334749  87.517  67.849  61.238
20742DT     BB134750  88.276  67.848  61.035
20742DT     BB234751  88.284  67.788  61.390
20742DT     BB334752  88.249  67.588  61.429
20742DT     SC134753  87.993  67.614  61.376
20742DT     SC234754  87.880  67.594  61.558
20742DT     SC334755  87.760  67.584  61.257
20743DT     BB134756  88.504  67.577  61.500
20743DT     BB234757  88.321  67.468  61.791
20743DT     BB334758  88.277  67.266  61.775
20743DT     SC134759  88.089  67.313  61.597
20743DT     SC234760  87.897  67.273  61.685
20743DT     SC334761  87.958  67.311  61.369
20744DA     BB134762  88.449  67.352  62.148
20744DA     BB234763  88.147  67.150  62.203
20744DA     BB334764  88.180  66.949  62.138
20744DA     SC134765  88.078  67.000  61.849
20744DA     SC234766  87.882  66.937  61.708
20744DA     SC334767  88.031  66.997  61.509
20744DA     SC434768  88.187  67.041  61.738
20745DC     BB134769  88.176  66.822  62.279
20745DC     BB234770  87.857  66.674  62.198
20745DC     BB334771  87.886  66.494  62.098
20745DC     SC134772  87.954  66.619  61.878
20745DC     SC234773  87.801  66.592  61.729
20745DC     SC334774  88.101  66.701  61.674
20746DT     BB134775  87.800  66.370  62.319
20746DT     BB234776  87.582  66.251  62.058
20746DT     BB334777  87.670  66.091  61.960
20746DT     SC134778  87.837  66.250  61.834
20746DT     SC234779  87.787  66.256  61.625
20746DT     SC334780  88.064  66.361  61.757
20747DA     BB134781  87.283  65.974  62.071
20747DA     BB234782  87.331  65.883  61.719
20747DA     BB334783  87.463  65.716  61.703
20747DA     SC134784  87.720  65.890  61.681
20747DA     SC234785  87.889  65.948  61.507
20747DA     SC334786  88.039  66.013  61.704
20747DA     SC434787  87.798  65.924  61.817
20748DT     BB134788  87.387  65.545  61.635
20748DT     BB234789  87.543  65.553  61.309
20748DT     BB334790  87.703  65.421  61.304
20748DT     SC134791  87.851  65.582  61.448
20748DT     SC234792  88.009  65.662  61.326
20748DT     SC334793  87.995  65.674  61.650
20749DA     BB134794  87.463  65.326  60.974
20749DA     BB234795  87.810  65.348  60.856
20749DA     BB334796  87.921  65.177  60.921
20749DA     SC134797  88.015  65.309  61.187
20749DA     SC234798  88.227  65.394  61.286
20749DA     SC334799  88.108  65.368  61.512
20749DA     SC434800  87.924  65.285  61.317
20750DT     BB134801  87.990  65.041  60.782
20750DT     BB234802  88.339  65.132  60.798
20750DT     BB334803  88.445  64.989  60.903
20750DT     SC134804  88.348  65.073  61.132
20750DT     SC234805  88.505  65.166  61.246
20750DT     SC334806  88.216  65.073  61.360
20751DC     BB134807  88.563  64.890  60.674
20751DC     BB234808  88.841  64.975  60.887
20751DC     BB334809  88.889  64.814  61.008
20751DC     SC134810  88.679  64.855  61.160
20751DC     SC234811  88.744  64.925  61.353
20751DC     SC334812  88.448  64.815  61.280
20752DT     BB134813  89.117  64.766  60.864
20752DT     BB234814  89.232  64.810  61.203
20752DT     BB334815  89.227  64.630  61.304
20752DT     SC134816  88.965  64.641  61.326
20752DT     SC234817  88.912  64.673  61.532
20752DT     SC334818  88.711  64.578  61.296
20753DG     BB134819  89.611  64.765  61.321
20753DG     BB234820  89.485  64.684  61.650
20753DG     BB334821  89.487  64.487  61.678
20753DG     SC134822  89.206  64.443  61.567
20753DG     SC234823  88.968  64.352  61.723
20753DG     SC334824  88.908  64.356  61.433
20753DG     SC434825  89.187  64.418  61.410
20754DT     BB134826  89.610  64.404  61.835
20754DT     BB234827  89.362  64.311  62.080
20754DT     BB334828  89.328  64.107  62.072
20754DT     SC134829  89.190  64.131  61.850
20754DT     SC234830  88.983  64.089  61.891
20754DT     SC334831  89.120  64.104  61.598
20755DA     BB134832  89.410  64.202  62.473
20755DA     BB234833  89.109  63.993  62.466
20755DA     BB334834  89.160  63.791  62.422
20755DA     SC134835  89.128  63.825  62.114
20755DA     SC234836  88.972  63.748  61.935
20755DA     SC334837  89.163  63.805  61.773
20755DA     SC434838  89.259  63.865  62.030
20756DA     BB134839  88.995  63.725  62.701
20756DA     BB234840  88.767  63.521  62.499
20756DA     BB334841  88.859  63.335  62.449
20756DA     SC134842  88.982  63.439  62.183
20756DA     SC234843  88.948  63.405  61.939
20756DA     SC334844  89.186  63.499  61.914
20756DA     SC434845  89.131  63.499  62.189
20757DC     BB134846  88.793  63.141  62.527
20757DC     BB234847  88.638  63.023  62.223
20757DC     BB334848  88.753  62.872  62.139
20757DC     SC134849  88.933  63.044  62.056
20757DC     SC234850  88.925  63.057  61.841
20757DC     SC334851  89.163  63.169  62.030
20758DA     BB134852  88.376  62.686  62.172
20758DA     BB234853  88.493  62.634  61.828
20758DA     BB334854  88.640  62.479  61.822
20758DA     SC134855  88.881  62.673  61.862
20758DA     SC234856  89.072  62.760  61.727
20758DA     SC334857  89.179  62.817  61.954
20758DA     SC434858  88.931  62.699  62.012
20759DA     BB134859  88.447  62.327  61.599
20759DA     BB234860  88.719  62.372  61.357
20759DA     BB334861  88.867  62.221  61.382
20759DA     SC134862  89.036  62.386  61.584
20759DA     SC234863  89.257  62.501  61.589
20759DA     SC334864  89.236  62.485  61.844
20759DA     SC434865  89.005  62.365  61.741
20760DT     BB134866  88.897  62.083  61.231
20760DT     BB234867  89.200  62.233  61.106
20760DT     BB334868  89.363  62.117  61.157
20760DT     SC134869  89.352  62.197  61.407
20760DT     SC234870  89.522  62.322  61.449
20760DT     SC334871  89.324  62.189  61.669
20761DT     BB134872  89.382  62.054  60.898
20761DT     BB234873  89.697  62.208  60.980
20761DT     BB334874  89.826  62.067  61.059
20761DT     SC134875  89.697  62.064  61.287
20761DT     SC234876  89.819  62.153  61.440
20761DT     SC334877  89.553  61.976  61.490
20762DT     BB134878  89.958  62.099  60.832
20762DT     BB234879  90.195  62.179  61.092
20762DT     BB334880  90.280  62.005  61.167
20762DT     SC134881  90.060  61.946  61.298
20762DT     SC234882  90.096  61.966  61.510
20762DT     SC334883  89.843  61.816  61.373
20763DT     BB134884  90.506  62.078  61.045
20763DT     BB234885  90.597  62.037  61.392
20763DT     BB334886  90.639  61.839  61.431
20763DT     SC134887  90.385  61.775  61.425
20763DT     SC234888  90.319  61.724  61.624
20763DT     SC334889  90.159  61.662  61.349
20764DA     BB134890  90.967  62.061  61.570
20764DA     BB234891  90.868  61.829  61.836
20764DA     BB334892  90.926  61.630  61.787
20764DA     SC134893  90.659  61.561  61.643
20764DA     SC234894  90.460  61.415  61.683
20764DA     SC334895  90.419  61.437  61.431
20764DA     SC434896  90.651  61.586  61.485
20765DG     BB134897  91.101  61.640  62.046
20765DG     BB234898  90.873  61.382  62.156
20765DG     BB334899  90.934  61.204  62.089
20765DG     SC134900  90.776  61.222  61.828
20765DG     SC234901  90.545  61.049  61.751
20765DG     SC334902  90.632  61.216  61.522
20765DG     SC434903  90.844  61.290  61.700
20766DA     BB134904  90.912  61.098  62.417
20766DA     BB234905  90.659  60.851  62.319
20766DA     BB334906  90.751  60.683  62.225
20766DA     SC134907  90.730  60.801  61.938
20766DA     SC234908  90.603  60.755  61.728
20766DA     SC334909  90.787  60.890  61.611
20766DA     SC434910  90.855  60.886  61.883
20767DA     BB134911  90.567  60.558  62.458
20767DA     BB234912  90.385  60.389  62.188
20767DA     BB334913  90.504  60.232  62.106
20767DA     SC134914  90.636  60.411  61.889
20767DA     SC234915  90.629  60.436  61.641
20767DA     SC334916  90.854  60.556  61.667
20767DA     SC434917  90.776  60.481  61.926
20768DA     BB134918  90.200  60.141  62.179
20768DA     BB234919  90.177  60.054  61.823
20768DA     BB334920  90.310  59.895  61.777
20768DA     SC134921  90.548  60.082  61.703
20768DA     SC234922  90.673  60.149  61.499
20768DA     SC334923  90.858  60.222  61.661
20768DA     SC434924  90.651  60.120  61.820
20769DA     BB134925  89.997  59.882  61.657
20769DA     BB234926  90.166  59.838  61.335
20769DA     BB334927  90.291  59.665  61.340
20769DA     SC134928  90.543  59.820  61.437
20769DA     SC234929  90.765  59.889  61.344
20769DA     SC334930  90.836  59.915  61.590
20769DA     SC434931  90.569  59.829  61.595
20770DT     BB134932  90.213  59.606  61.221
20770DT     BB234933  90.483  59.597  60.981
20770DT     BB334934  90.611  59.441  61.025
20770DT     SC134935  90.713  59.570  61.229
20770DT     SC234936  90.916  59.626  61.184
20770DT     SC334937  90.779  59.630  61.477
20771DA     BB134938  90.514  59.406  60.615
20771DA     BB234939  90.871  59.333  60.653
20771DA     BB334940  90.898  59.146  60.752
20771DA     SC134941  90.906  59.270  61.037
20771DA     SC234942  91.074  59.308  61.218
20771DA     SC334943  90.871  59.330  61.374
20771DA     SC434944  90.767  59.280  61.118
20772DT     BB134945  90.974  58.942  60.664
20772DT     BB234946  91.294  58.930  60.831
20772DT     BB334947  91.293  58.781  60.975
20772DT     SC134948  91.144  58.925  61.135
20772DT     SC234949  91.261  58.986  61.305
20772DT     SC334950  90.938  59.001  61.281
20773DA     BB134951  91.627  58.637  60.755
20773DA     BB234952  91.729  58.637  61.107
20773DA     BB334953  91.652  58.464  61.206
20773DA     SC134954  91.388  58.602  61.295
20773DA     SC234955  91.283  58.681  61.507
20773DA     SC334956  91.062  58.672  61.378
20773DA     SC434957  91.261  58.589  61.198
20774DA     BB134958  91.963  58.377  61.298
20774DA     BB234959  91.860  58.422  61.647
20774DA     BB334960  91.761  58.247  61.718
20774DA     SC134961  91.477  58.343  61.634
20774DA     SC234962  91.267  58.418  61.746
20774DA     SC334963  91.152  58.361  61.524
20774DA     SC434964  91.424  58.300  61.489
20775DA     BB134965  91.986  58.261  61.956
20775DA     BB234966  91.710  58.307  62.193
20775DA     BB334967  91.616  58.120  62.234
20775DA     SC134968  91.408  58.147  62.004
20775DA     SC234969  91.162  58.183  61.981
20775DA     SC334970  91.190  58.086  61.745
20775DA     SC434971  91.446  58.083  61.862
20776DA     BB134972  91.682  58.231  62.533
20776DA     BB234973  91.320  58.222  62.593
20776DA     BB334974  91.253  58.021  62.616
20776DA     SC134975  91.192  57.981  62.313
20776DA     SC234976  90.992  57.955  62.168
20776DA     SC334977  91.154  57.854  61.997
20776DA     SC434978  91.309  57.920  62.221
20777DC     BB134979  91.187  57.981  62.789
20777DC     BB234980  90.837  57.961  62.703
20777DC     BB334981  90.780  57.763  62.685
20777DC     SC134982  90.902  57.740  62.454
20777DC     SC234983  90.756  57.720  62.298
20777DC     SC334984  91.073  57.658  62.271
20778DT     BB134985  90.642  57.778  62.920
20778DT     BB234986  90.398  57.656  62.684
20778DT     BB334987  90.409  57.450  62.671
20778DT     SC134988  90.631  57.462  62.531
20778DT     SC234989  90.591  57.399  62.329
20778DT     SC334990  90.884  57.433  62.464
20779DT     BB134991  90.174  57.387  62.826
20779DT     BB234992  90.120  57.205  62.519
20779DT     BB334993  90.194  57.013  62.537
20779DT     SC134994  90.442  57.098  62.515
20779DT     SC234995  90.524  57.033  62.327
20779DT     SC334996  90.693  57.150  62.578
20780DA     BB134997  89.794  56.891  62.445
20780DA     BB234998  90.012  56.699  62.221
20780DA     BB334999  90.092  56.530  62.323
20780DA     SC135000  90.346  56.679  62.422
20780DA     SC235001  90.592  56.677  62.377
20780DA     SC335002  90.614  56.792  62.605
20780DA     SC435003  90.340  56.749  62.567
20781DT     BB135004  90.053  56.266  62.300
20781DT     BB235005  90.362  56.206  62.124
20781DT     BB335006  90.485  56.083  62.236
20781DT     SC135007  90.544  56.279  62.400
20781DT     SC235008  90.750  56.335  62.373
20781DT     SC335009  90.562  56.419  62.623
20782DC     BB135010  90.457  55.831  62.087
20782DC     BB235011  90.811  55.899  62.074
20782DC     BB335012  90.908  55.797  62.226
20782DC     SC135013  90.819  55.965  62.406
20782DC     SC235014  90.983  56.083  62.481
20782DC     SC335015  90.689  56.058  62.616
20783DA     BB135016  91.105  55.695  61.871
20783DA     BB235017  91.357  55.815  62.109
20783DA     BB335018  91.398  55.665  62.255
20783DA     SC135019  91.180  55.765  62.454
20783DA     SC235020  91.171  55.877  62.677
20783DA     SC335021  90.932  55.787  62.690
20783DA     SC435022  91.034  55.699  62.444
20784DC     BB135023  91.581  55.591  62.254
20784DC     BB235024  91.698  55.772  62.543
20784DC     BB335025  91.710  55.645  62.706
20784DC     SC135026  91.449  55.644  62.734
20784DC     SC235027  91.397  55.749  62.914
20784DC     SC335028  91.201  55.555  62.744
20785DA     BB135029  92.062  55.865  62.653
20785DA     BB235030  91.955  55.897  63.003
20785DA     BB335031  91.986  55.713  63.107
20785DA     SC135032  91.702  55.602  63.043
20785DA     SC235033  91.491  55.553  63.166
20785DA     SC335034  91.435  55.401  62.968
20785DA     SC435035  91.686  55.512  62.911
20786DC     BB135036  92.110  55.735  63.239
20786DC     BB235037  91.879  55.727  63.516
20786DC     BB335038  91.879  55.539  63.603
20786DC     SC135039  91.741  55.438  63.404
20786DC     SC235040  91.543  55.389  63.472
20786DC     SC335041  91.678  55.290  63.195
20787DC     BB135042  91.993  55.667  63.800
20787DC     BB235043  91.697  55.516  63.941
20787DC     BB335044  91.734  55.318  63.987
20787DC     SC135045  91.723  55.250  63.733
20787DC     SC235046  91.547  55.133  63.698
20787DC     SC335047  91.799  55.160  63.497
20788DT     BB135048  91.711  55.411  64.228
20788DT     BB235049  91.464  55.150  64.201
20788DT     BB335050  91.554  54.965  64.224
20788DT     SC135051  91.659  54.976  63.984
20788DT     SC235052  91.563  54.831  63.857
20788DT     SC335053  91.840  54.987  63.793
20789DG     BB135054  91.242  55.021  64.481
20789DG     BB235055  91.217  54.707  64.303
20789DG     BB335056  91.349  54.578  64.374
20789DG     SC135057  91.572  54.661  64.181
20789DG     SC235058  91.687  54.492  63.963
20789DG     SC335059  91.844  54.740  63.998
20789DG     SC435060  91.670  54.780  64.222
20790DA     BB135061  91.066  54.378  64.380
20790DA     BB235062  91.243  54.130  64.177
20790DA     BB335063  91.398  54.037  64.291
20790DA     SC135064  91.616  54.243  64.207
20790DA     SC235065  91.821  54.246  64.066
20790DA     SC335066  91.884  54.456  64.200
20790DA     SC435067  91.638  54.371  64.302
20791DT     BB135068  91.374  53.849  64.330
20791DT     BB235069  91.633  53.718  64.116
20791DT     BB335070  91.801  53.673  64.228
20791DT     SC135071  91.863  53.927  64.251
20791DT     SC235072  92.040  53.969  64.137
20791DT     SC335073  91.909  54.162  64.362
20792DA     BB135074  91.724  53.311  64.025
20792DA     BB235075  92.083  53.382  63.990
20792DA     BB335076  92.184  53.342  64.173
20792DA     SC135077  92.150  53.631  64.283
20792DA     SC235078  92.295  53.829  64.331
20792DA     SC335079  92.104  53.906  64.484
20792DA     SC435080  92.022  53.661  64.375
20793DA     BB135081  92.393  53.128  64.015
20793DA     BB235082  92.671  53.348  64.107
20793DA     BB335083  92.732  53.310  64.308
20793DA     SC135084  92.540  53.520  64.433
20793DA     SC235085  92.557  53.742  64.547
20793DA     SC335086  92.323  53.691  64.637
20793DA     SC435087  92.395  53.470  64.480
20794DG     BB135088  93.028  53.215  64.220
20794DG     BB235089  93.132  53.514  64.394
20794DG     BB335090  93.168  53.473  64.586
20794DG     SC135091  92.881  53.528  64.677
20794DG     SC235092  92.794  53.751  64.855
20794DG     SC335093  92.572  53.561  64.808
20794DG     SC435094  92.774  53.409  64.673
20795DT     BB135095  93.380  53.491  64.696
20795DT     BB235096  93.327  53.800  64.874
20795DT     BB335097  93.309  53.763  65.077
20795DT     SC135098  93.066  53.667  65.046
20795DT     SC235099  92.924  53.802  65.133
20795DT     SC335100  92.865  53.496  65.045
20796DT     BB135101  93.547  53.880  65.107
20796DT     BB235102  93.318  54.078  65.303
20796DT     BB335103  93.297  53.995  65.492
20796DT     SC135104  93.147  53.801  65.398
20796DT     SC235105  92.945  53.827  65.467
20796DT     SC335106  93.066  53.558  65.334
20797DT     BB135107  93.419  54.214  65.551
20797DT     BB235108  93.105  54.225  65.727
20797DT     BB335109  93.115  54.108  65.898
20797DT     SC135110  93.100  53.887  65.756
20797DT     SC235111  92.910  53.792  65.792
20797DT     SC335112  93.167  53.655  65.650
20798DC     BB135113  93.090  54.346  65.987
20798DC     BB235114  92.814  54.158  66.122
20798DC     BB335115  92.879  54.035  66.276
20798DC     SC135116  92.991  53.869  66.106
20798DC     SC235117  92.881  53.684  66.104
20798DC     SC335118  93.176  53.730  65.979
20799DT     BB135119  92.729  54.204  66.397
20799DT     BB235120  92.601  53.878  66.481
20799DT     BB335121  92.725  53.787  66.619
20799DT     SC135122  92.905  53.737  66.436
20799DT     SC235123  92.913  53.525  66.399
20799DT     SC335124  93.134  53.742  66.305
20800DA     BB135125  92.324  53.763  66.753
20800DA     BB235126  92.483  53.436  66.804
20800DA     BB335127  92.630  53.449  66.957
20800DA     SC135128  92.863  53.518  66.763
20800DA     SC235129  93.069  53.409  66.675
20800DA     SC335130  93.146  53.646  66.618
20800DA     SC435131  92.894  53.674  66.736
20801DA     BB135132  92.473  53.198  67.118
20801DA     BB235133  92.784  53.005  67.101
20801DA     BB335134  92.922  53.074  67.249
20801DA     SC135135  93.056  53.284  67.063
20801DA     SC235136  93.275  53.316  66.949
20801DA     SC335137  93.208  53.564  66.935
20801DA     SC435138  92.997  53.434  67.065
20802DT     BB135139  92.999  52.966  67.452
20802DT     BB235140  93.332  52.889  67.336
20802DT     BB335141  93.470  53.002  67.440
20802DT     SC135142  93.406  53.218  67.306
20802DT     SC235143  93.569  53.273  67.176
20802DT     SC335144  93.317  53.461  67.254
20803DC     BB135145  93.582  52.803  67.628
20803DC     BB235146  93.874  52.926  67.457
20803DC     BB335147  93.961  53.078  67.567
20803DC     SC135148  93.773  53.247  67.497
20803DC     SC235149  93.855  53.395  67.365
20803DC     SC335150  93.570  53.414  67.516
20804DC     BB135151  94.188  52.932  67.668
20804DC     BB235152  94.336  53.209  67.491
20804DC     BB335153  94.371  53.366  67.621
20804DC     SC135154  94.115  53.427  67.628
20804DC     SC235155  94.083  53.614  67.527
20804DC     SC335156  93.872  53.465  67.722
20805DT     BB135157  94.644  53.326  67.617
20805DT     BB235158  94.600  53.664  67.498
20805DT     BB335159  94.601  53.795  67.658
20805DT     SC135160  94.359  53.723  67.729
20805DT     SC235161  94.222  53.884  67.692
20805DT     SC335162  94.163  53.623  67.874
20806DG     BB135163  94.888  53.899  67.390
20806DG     BB235164  94.664  54.174  67.460
20806DG     BB335165  94.708  54.254  67.637
20806DG     SC135166  94.520  54.070  67.794
20806DG     SC235167  94.274  54.154  67.940
20806DG     SC335168  94.341  53.873  68.000
20806DG     SC435169  94.576  53.930  67.847
20807DT     BB135170  94.759  54.449  67.626
20807DT     BB235171  94.466  54.610  67.762
20807DT     BB335172  94.496  54.655  67.961
20807DT     SC135173  94.466  54.404  68.031
20807DT     SC235174  94.282  54.381  68.140
20807DT     SC335175  94.522  54.164  68.126
20808DA     BB135176  94.348  54.985  67.747
20808DA     BB235177  94.151  54.948  68.054
20808DA     BB335178  94.270  54.997  68.225
20808DA     SC135179  94.372  54.707  68.269
20808DA     SC235180  94.341  54.523  68.435
20808DA     SC335181  94.561  54.429  68.342
20808DA     SC435182  94.510  54.665  68.199
20809DT     BB135183  94.208  55.149  68.315
20809DT     BB235184  94.076  54.981  68.606
20809DT     BB335185  94.212  54.993  68.762
20809DT     SC135186  94.367  54.813  68.651
20809DT     SC235187  94.362  54.633  68.768
20809DT     SC335188  94.579  54.704  68.539
20810DT     BB135189  94.049  55.170  68.885
20810DT     BB235190  94.097  54.907  69.127
20810DT     BB335191  94.271  54.941  69.235
20810DT     SC135192  94.420  54.868  69.033
20810DT     SC235193  94.516  54.681  69.079
20810DT     SC335194  94.596  54.880  68.836
20811DC     BB135195  94.131  55.015  69.461
20811DC     BB235196  94.345  54.748  69.574
20811DC     BB335197  94.528  54.825  69.635
20811DC     SC135198  94.603  54.863  69.386
20811DC     SC235199  94.760  54.724  69.337
20811DC     SC335200  94.677  54.987  69.165
20812DA     BB135201  94.391  54.592  69.956
20812DA     BB235202  94.739  54.496  69.889
20812DA     BB335203  94.872  54.647  69.958
20812DA     SC135204  94.875  54.801  69.687
20812DA     SC235205  95.036  54.845  69.502
20812DA     SC335206  94.883  55.043  69.444
20812DA     SC435207  94.769  54.920  69.668
20813DG     BB135208  94.989  54.426  70.145
20813DG     BB235209  95.287  54.476  69.946
20813DG     BB335210  95.390  54.632  70.015
20813DG     SC135211  95.246  54.837  69.839
20813DG     SC235212  95.369  54.994  69.617
20813DG     SC335213  95.095  55.090  69.675
20813DG     SC435214  95.111  54.905  69.893
20814DG     BB135215  95.655  54.440  70.067
20814DG     BB235216  95.826  54.649  69.825
20814DG     BB335217  95.897  54.812  69.914
20814DG     SC135218  95.644  54.977  69.867
20814DG     SC235219  95.621  55.217  69.690
20814DG     SC335220  95.375  55.181  69.851
20814DG     SC435221  95.526  54.972  69.976
20815DA     BB135222  96.214  54.742  69.783
20815DA     BB235223  96.215  55.063  69.605
20815DA     BB335224  96.261  55.222  69.739
20815DA     SC135225  95.964  55.278  69.814
20815DA     SC235226  95.794  55.457  69.776
20815DA     SC335227  95.673  55.356  69.978
20815DA     SC435228  95.904  55.202  69.943
20816DT     BB135229  96.445  55.338  69.729
20816DT     BB235230  96.298  55.637  69.591
20816DT     BB335231  96.294  55.787  69.734
20816DT     SC135232  96.094  55.671  69.859
20816DT     SC235233  95.917  55.791  69.836
20816DT     SC335234  95.957  55.550  70.050
20817DA     BB135235  96.495  55.970  69.414
20817DA     BB235236  96.227  56.197  69.518
20817DA     BB335237  96.281  56.299  69.697
20817DA     SC135238  96.157  56.085  69.886
20817DA     SC235239  95.963  56.066  70.042
20817DA     SC335240  96.092  55.870  70.146
20817DA     SC435241  96.253  55.967  69.937
20818DT     BB135242  96.319  56.517  69.708
20818DT     BB235243  96.005  56.600  69.865
20818DT     BB335244  96.037  56.659  70.060
20818DT     SC135245  96.081  56.412  70.137
20818DT     SC235246  95.919  56.346  70.261
20818DT     SC335247  96.207  56.200  70.231
20819DA     BB135248  95.810  56.957  69.876
20819DA     BB235249  95.638  56.860  70.185
20819DA     BB335250  95.739  56.940  70.355
20819DA     SC135251  95.924  56.693  70.393
20819DA     SC235252  95.952  56.507  70.557
20819DA     SC335253  96.188  56.484  70.460
20819DA     SC435254  96.068  56.696  70.321
20820DT     BB135255  95.631  57.058  70.443
20820DT     BB235256  95.549  56.837  70.716
20820DT     BB335257  95.664  56.884  70.882
20820DT     SC135258  95.877  56.775  70.775
20820DT     SC235259  95.927  56.595  70.883
20820DT     SC335260  96.119  56.751  70.673
20821DG     BB135261  95.263  56.879  70.953
20821DG     BB235262  95.446  56.668  71.184
20821DG     BB335263  95.543  56.781  71.316
20821DG     SC135264  95.797  56.804  71.147
20821DG     SC235265  96.063  56.688  71.215
20821DG     SC335266  96.083  56.867  70.980
20821DG     SC435267  95.809  56.923  71.041
20822DA     BB135268  95.386  56.550  71.517
20822DA     BB235269  95.713  56.458  71.654
20822DA     BB335270  95.791  56.618  71.773
20822DA     SC135271  95.941  56.753  71.536
20822DA     SC235272  96.177  56.788  71.464
20822DA     SC335273  96.082  56.978  71.319
20822DA     SC435274  95.863  56.867  71.454
20823DG     BB135275  95.783  56.393  71.985
20823DG     BB235276  96.141  56.447  71.987
20823DG     BB335277  96.184  56.609  72.093
20823DG     SC135278  96.164  56.801  71.856
20823DG     SC235279  96.390  56.953  71.734
20823DG     SC335280  96.130  57.041  71.622
20823DG     SC435281  96.022  56.865  71.820
20824DA     BB135282  96.411  56.415  72.275
20824DA     BB235283  96.684  56.639  72.178
20824DA     BB335284  96.676  56.820  72.292
20824DA     SC135285  96.496  56.970  72.086
20824DA     SC235286  96.518  57.158  71.925
20824DA     SC335287  96.262  57.171  71.936
20824DA     SC435288  96.337  56.963  72.108
20825DT     BB135289  96.826  56.869  72.434
20825DT     BB235290  96.987  57.126  72.239
20825DT     BB335291  96.943  57.313  72.318
20825DT     SC135292  96.699  57.305  72.221
20825DT     SC235293  96.681  57.450  72.063
20825DT     SC335294  96.436  57.300  72.214
20826DA     BB135295  97.361  57.296  72.289
20826DA     BB235296  97.251  57.610  72.134
20826DA     BB335297  97.195  57.751  72.283
20826DA     SC135298  96.897  57.664  72.289
20826DA     SC235299  96.676  57.757  72.221
20826DA     SC335300  96.576  57.586  72.384
20826DA     SC435301  96.854  57.551  72.396
20827DT     BB135302  97.307  57.911  72.295
20827DT     BB235303  97.072  58.137  72.140
20827DT     BB335304  96.982  58.255  72.284
20827DT     SC135305  96.832  58.056  72.366
20827DT     SC235306  96.627  58.094  72.313
20827DT     SC335307  96.730  57.870  72.523
20828DA     BB135308  97.126  58.478  71.959
20828DA     BB235309  96.781  58.582  72.029
20828DA     BB335310  96.772  58.689  72.213
20828DA     SC135311  96.718  58.436  72.386
20828DA     SC235312  96.529  58.338  72.516
20828DA     SC335313  96.710  58.201  72.636
20828DA     SC435314  96.845  58.360  72.449
20829DG     BB135315  96.656  58.873  71.997
20829DG     BB235316  96.361  58.843  72.204
20829DG     BB335317  96.385  58.948  72.371
20829DG     SC135318  96.509  58.716  72.528
20829DG     SC235319  96.386  58.577  72.762
20829DG     SC335320  96.667  58.490  72.723
20829DG     SC435321  96.668  58.695  72.522
20830DG     BB135322  96.107  59.089  72.274
20830DG     BB235323  95.970  58.979  72.589
20830DG     BB335324  96.037  59.094  72.737
20830DG     SC135325  96.284  58.922  72.792
20830DG     SC235326  96.335  58.763  73.040
20830DG     SC335327  96.575  58.768  72.867
20830DG     SC435328  96.419  58.951  72.711
20831DT     BB135329  95.901  59.219  72.855
20831DT     BB235330  95.899  59.053  73.175
20831DT     BB335331  96.024  59.153  73.307
20831DT     SC135332  96.238  59.058  73.189
20831DT     SC235333  96.335  58.917  73.320
20831DT     SC335334  96.465  59.051  73.055
20832DA     BB135335  95.659  59.139  73.518
20832DA     BB235336  95.923  59.032  73.749
20832DA     BB335337  96.036  59.200  73.814
20832DA     SC135338  96.246  59.179  73.585
20832DA     SC235339  96.486  59.118  73.560
20832DA     SC335340  96.474  59.245  73.338
20832DA     SC435341  96.218  59.264  73.451
20833DC     BB135342  96.037  59.281  74.022
20833DC     BB235343  96.364  59.157  74.113
20833DC     BB335344  96.498  59.314  74.127
20833DC     SC135345  96.511  59.337  73.866
20833DC     SC235346  96.705  59.275  73.799
20833DC     SC335347  96.488  59.442  73.625
20834DT     BB135348  96.507  59.306  74.405
20834DT     BB235349  96.851  59.265  74.304
20834DT     BB335350  96.943  59.449  74.287
20834DT     SC135351  96.817  59.499  74.062
20834DT     SC235352  96.958  59.497  73.899
20834DT     SC335353  96.657  59.616  73.888
20835DA     BB135354  97.185  59.210  74.532
20835DA     BB235355  97.397  59.357  74.272
20835DA     BB335356  97.428  59.565  74.310
20835DA     SC135357  97.181  59.657  74.144
20835DA     SC235358  97.137  59.777  73.929
20835DA     SC335359  96.904  59.821  74.025
20835DA     SC435360  97.042  59.675  74.221
20836DT     BB135361  97.610  59.616  74.350
20836DT     BB235362  97.682  59.775  74.035
20836DT     BB335363  97.672  59.980  74.055
20836DT     SC135364  97.410  59.975  74.063
20836DT     SC235365  97.331  60.063  73.883
20836DT     SC335366  97.164  60.001  74.154
20837DA     BB135367  98.039  59.885  73.873
20837DA     BB235368  97.882  60.153  73.679
20837DA     BB335369  97.889  60.337  73.787
20837DA     SC135370  97.614  60.294  73.927
20837DA     SC235371  97.385  60.392  73.918
20837DA     SC335372  97.354  60.288  74.150
20837DA     SC435373  97.615  60.223  74.071
20838DT     BB135374  98.004  60.492  73.716
20838DT     BB235375  97.733  60.700  73.600
20838DT     BB335376  97.704  60.858  73.731
20838DT     SC135377  97.591  60.701  73.908
20838DT     SC235378  97.381  60.748  73.921
20838DT     SC335379  97.550  60.569  74.133
20839DG     BB135380  97.790  61.047  73.377
20839DG     BB235381  97.482  61.173  73.520
20839DG     BB335382  97.523  61.306  73.663
20839DG     SC135383  97.534  61.098  73.887
20839DG     SC235384  97.342  61.076  74.115
20839DG     SC335385  97.574  60.896  74.154
20839DG     SC435386  97.673  61.026  73.919
20840DC     BB135387  97.467  61.542  73.662
20840DC     BB235388  97.187  61.540  73.889
20840DC     BB335389  97.240  61.628  74.069
20840DC     SC135390  97.379  61.417  74.140
20840DC     SC235391  97.280  61.318  74.303
20840DC     SC335392  97.586  61.267  74.206
20841DA     BB135393  96.897  61.834  73.948
20841DA     BB235394  96.842  61.722  74.293
20841DA     BB335395  96.950  61.846  74.429
20841DA     SC135396  97.207  61.669  74.424
20841DA     SC235397  97.328  61.517  74.580
20841DA     SC335398  97.530  61.555  74.426
20841DA     SC435399  97.321  61.707  74.318
20842DT     BB135400  96.842  61.954  74.554
20842DT     BB235401  96.902  61.750  74.846
20842DT     BB335402  97.036  61.845  74.971
20842DT     SC135403  97.237  61.786  74.813
20842DT     SC235404  97.363  61.640  74.908
20842DT     SC335405  97.441  61.818  74.648
20843DA     BB135406  96.696  61.714  75.179
20843DA     BB235407  96.994  61.602  75.362
20843DA     BB335408  97.092  61.769  75.452
20843DA     SC135409  97.277  61.823  75.208
20843DA     SC235410  97.519  61.803  75.151
20843DA     SC335411  97.468  61.970  74.963
20843DA     SC435412  97.225  61.928  75.097
20844DC     BB135413  97.089  61.757  75.636
20844DC     BB235414  97.437  61.676  75.684
20844DC     BB335415  97.543  61.846  75.735
20844DC     SC135416  97.534  61.936  75.488
20844DC     SC235417  97.731  61.928  75.402
20844DC     SC335418  97.477  62.090  75.282
20845DA     BB135419  97.633  61.548  76.017
20845DA     BB235420  97.949  61.700  75.908
20845DA     BB335421  97.968  61.897  75.988
20845DA     SC135422  97.831  62.035  75.745
20845DA     SC235423  97.897  62.184  75.556
20845DA     SC335424  97.647  62.243  75.542
20845DA     SC435425  97.672  62.060  75.753
20846DC     BB135426  98.114  61.942  76.131
20846DC     BB235427  98.331  62.132  75.914
20846DC     BB335428  98.315  62.334  75.957
20846DC     SC135429  98.081  62.349  75.839
20846DC     SC235430  98.100  62.464  75.659
20846DC     SC335431  97.822  62.384  75.806
20847DT     BB135432  98.564  62.357  76.091
20847DT     BB235433  98.584  62.605  75.830
20847DT     BB335434  98.515  62.787  75.900
20847DT     SC135435  98.265  62.705  75.889
20847DT     SC235436  98.163  62.810  75.732
20847DT     SC335437  98.023  62.637  75.967
20848DG     BB135438  98.901  62.875  75.796
20848DG     BB235439  98.669  63.101  75.635
20848DG     BB335440  98.619  63.247  75.760
20848DG     SC135441  98.379  63.097  75.878
20848DG     SC235442  98.092  63.173  75.846
20848DG     SC335443  98.123  62.954  76.043
20848DG     SC435444  98.402  63.001  76.004
20849DA     BB135445  98.710  63.464  75.509
20849DA     BB235446  98.366  63.591  75.494
20849DA     BB335447  98.330  63.727  75.654
20849DA     SC135448  98.228  63.508  75.850
20849DA     SC235449  98.013  63.440  75.955
20849DA     SC335450  98.159  63.318  76.127
20849DA     SC435451  98.336  63.439  75.947
20850DG     BB135452  98.276  63.891  75.404
20850DG     BB235453  97.940  63.884  75.537
20850DG     BB335454  97.923  64.015  75.686
20850DG     SC135455  98.005  63.816  75.903
20850DG     SC235456  97.830  63.712  76.121
20850DG     SC335457  98.111  63.630  76.164
20850DG     SC435458  98.161  63.800  75.939
20851DA     BB135459  97.651  64.083  75.490
20851DA     BB235460  97.437  64.020  75.780
20851DA     BB335461  97.461  64.174  75.925
20851DA     SC135462  97.690  64.029  76.078
20851DA     SC235463  97.722  63.917  76.298
20851DA     SC335464  97.973  63.953  76.257
20851DA     SC435465  97.841  64.062  76.034
20852DC     BB135466  97.306  64.250  75.937
20852DC     BB235467  97.217  64.126  76.264
20852DC     BB335468  97.272  64.263  76.408
20852DC     SC135469  97.525  64.199  76.384
20852DC     SC235470  97.590  64.096  76.562
20852DC     SC335471  97.783  64.220  76.334
20853DA     BB135472  96.873  64.145  76.465
20853DA     BB235473  97.044  64.132  76.789
20853DA     BB335474  97.087  64.329  76.857
20853DA     SC135475  97.368  64.340  76.723
20853DA     SC235476  97.607  64.341  76.794
20853DA     SC335477  97.655  64.440  76.562
20853DA     SC435478  97.377  64.402  76.575
20854DT     BB135479  96.993  64.391  77.019
20854DT     BB235480  97.274  64.380  77.245
20854DT     BB335481  97.347  64.571  77.277
20854DT     SC135482  97.458  64.577  77.039
20854DT     SC235483  97.672  64.572  77.060
20854DT     SC335484  97.510  64.650  76.791
20855DC     BB135485  97.244  64.579  77.531
20855DC     BB235486  97.594  64.649  77.577
20855DC     BB335487  97.629  64.853  77.558
20855DC     SC135488  97.601  64.842  77.297
20855DC     SC235489  97.792  64.875  77.204
20855DC     SC335490  97.503  64.884  77.056
20856DA     BB135491  97.800  64.744  77.925
20856DA     BB235492  98.049  64.939  77.740
20856DA     BB335493  97.997  65.146  77.742
20856DA     SC135494  97.831  65.132  77.479
20856DA     SC235495  97.850  65.213  77.244
20856DA     SC335496  97.596  65.177  77.233
20856DA     SC435497  97.673  65.104  77.493
20857DA     BB135498  98.303  65.175  77.859
20857DA     BB235499  98.377  65.378  77.563
20857DA     BB335500  98.295  65.574  77.585
20857DA     SC135501  98.023  65.501  77.451
20857DA     SC235502  97.902  65.552  77.240
20857DA     SC335503  97.692  65.478  77.366
20857DA     SC435504  97.904  65.452  77.548
20858DG     BB135505  98.591  65.659  77.557
20858DG     BB235506  98.470  65.816  77.255
20858DG     BB335507  98.385  65.991  77.298
20858DG     SC135508  98.106  65.874  77.341
20858DG     SC235509  97.866  65.925  77.170
20858DG     SC335510  97.792  65.776  77.415
20858DG     SC435511  98.065  65.821  77.487
20859DG     BB135512  98.600  66.128  77.092
20859DG     BB235513  98.312  66.233  76.900
20859DG     BB335514  98.233  66.397  76.980
20859DG     SC135515  98.044  66.246  77.167
20859DG     SC235516  97.746  66.243  77.150
20859DG     SC335517  97.838  66.112  77.398
20859DG     SC435518  98.096  66.203  77.312
20860DA     BB135519  98.252  66.533  76.660
20860DA     BB235520  97.890  66.590  76.662
20860DA     BB335521  97.842  66.756  76.786
20860DA     SC135522  97.804  66.584  77.043
20860DA     SC235523  97.617  66.513  77.191
20860DA     SC335524  97.799  66.468  77.366
20860DA     SC435525  97.932  66.564  77.138
20861DT     BB135526  97.766  66.933  76.705
20861DT     BB235527  97.427  66.893  76.820
20861DT     BB335528  97.389  67.023  76.977
20861DT     SC135529  97.529  66.876  77.143
20861DT     SC235530  97.396  66.783  77.285
20861DT     SC335531  97.719  66.803  77.311
20862DT     BB135532  97.233  67.187  76.820
20862DT     BB235533  97.018  67.097  77.095
20862DT     BB335534  97.042  67.231  77.251
20862DT     SC135535  97.274  67.126  77.316
20862DT     SC235536  97.256  67.024  77.504
20862DT     SC335537  97.533  67.104  77.357
20863DT     BB135538  96.798  67.340  77.200
20863DT     BB235539  96.780  67.236  77.545
20863DT     BB335540  96.851  67.386  77.668
20863DT     SC135541  97.099  67.334  77.600
20863DT     SC235542  97.203  67.248  77.769
20863DT     SC335543  97.341  67.366  77.500
20864DG     BB135544  96.470  67.302  77.785
20864DG     BB235545  96.700  67.288  78.064
20864DG     BB335546  96.744  67.472  78.124
20864DG     SC135547  96.985  67.502  77.937
20864DG     SC235548  97.271  67.523  78.020
20864DG     SC335549  97.241  67.577  77.731
20864DG     SC435550  96.961  67.559  77.789
20865DT     BB135551  96.692  67.534  78.324
20865DT     BB235552  97.014  67.536  78.488
20865DT     BB335553  97.083  67.730  78.504
20865DT     SC135554  97.144  67.738  78.249
20865DT     SC235555  97.358  67.742  78.226
20865DT     SC335556  97.141  67.811  77.995
20866DT     BB135557  97.034  67.728  78.772
20866DT     BB235558  97.383  67.815  78.746
20866DT     BB335559  97.403  68.020  78.723
20866DT     SC135560  97.324  68.006  78.473
20866DT     SC235561  97.490  68.049  78.343
20866DT     SC335562  97.178  68.044  78.256
20867DA     BB135563  97.651  67.929  79.051
20867DA     BB235564  97.845  68.139  78.821
20867DA     BB335565  97.780  68.342  78.833
20867DA     SC135566  97.568  68.313  78.608
20867DA     SC235567  97.535  68.393  78.374
20867DA     SC335568  97.287  68.339  78.411
20867DA     SC435569  97.418  68.274  78.651
20868DT     BB135570  97.901  68.513  78.918
20868DT     BB235571  97.980  68.667  78.601
20868DT     BB335572  97.878  68.845  78.582
20868DT     SC135573  97.652  68.719  78.535
20868DT     SC235574  97.595  68.749  78.329
20868DT     SC335575  97.404  68.635  78.565
20869DT     BB135576  98.098  69.024  78.628
20869DT     BB235577  97.974  69.124  78.305
20869DT     BB335578  97.836  69.276  78.326
20869DT     SC135579  97.654  69.109  78.413
20869DT     SC235580  97.499  69.089  78.265
20869DT     SC335581  97.480  68.994  78.575
20870DT     BB135582  98.006  69.479  78.230
20870DT     BB235583  97.722  69.487  78.007
20870DT     BB335584  97.581  69.620  78.078
20870DT     SC135585  97.507  69.453  78.267
20870DT     SC235586  97.309  69.380  78.224
20870DT     SC335587  97.465  69.354  78.507
20871DT     BB135588  97.637  69.802  77.878
20871DT     BB235589  97.287  69.725  77.835
20871DT     BB335590  97.171  69.854  77.948
20871DT     SC135591  97.236  69.730  78.170
20871DT     SC235592  97.063  69.627  78.247
20871DT     SC335593  97.337  69.687  78.410
20872DG     BB135594  97.060  69.874  77.558
20872DG     BB235595  96.780  69.799  77.774
20872DG     BB335596  96.719  69.964  77.866
20872DG     SC135597  96.905  69.929  78.106
20872DG     SC235598  96.820  69.872  78.387
20872DG     SC335599  97.109  69.932  78.375
20872DG     SC435600  97.053  69.990  78.100
20873DC     BB135601  96.525  70.016  77.826
20873DC     BB235602  96.361  69.924  78.134
20873DC     BB335603  96.333  70.091  78.252
20873DC     SC135604  96.587  70.098  78.317
20873DC     SC235605  96.609  70.046  78.525
20873DC     SC335606  96.836  70.184  78.338
20874DG     BB135607  95.990  69.883  78.183
20874DG     BB235608  96.046  69.941  78.535
20874DG     BB335609  96.008  70.132  78.579
20874DG     SC135610  96.295  70.226  78.526
20874DG     SC235611  96.486  70.329  78.731
20874DG     SC335612  96.594  70.366  78.458
20874DG     SC435613  96.336  70.271  78.378
20875DG     BB135614  95.814  69.983  78.789
20875DG     BB235615  96.009  70.151  79.043
20875DG     BB335616  95.958  70.343  79.051
20875DG     SC135617  96.165  70.432  78.844
20875DG     SC235618  96.403  70.605  78.897
20875DG     SC335619  96.367  70.561  78.607
20875DG     SC435620  96.126  70.431  78.689
20876DT     BB135621  95.890  70.392  79.228
20876DT     BB235622  96.152  70.600  79.362
20876DT     BB335623  96.111  70.799  79.325
20876DT     SC135624  96.176  70.773  79.072
20876DT     SC235625  96.359  70.880  79.034
20876DT     SC335626  96.154  70.768  78.809
20877DC     BB135627  96.068  70.813  79.584
20877DC     BB235628  96.310  71.072  79.515
20877DC     BB335629  96.215  71.241  79.444
20877DC     SC135630  96.176  71.129  79.210
20877DC     SC235631  96.299  71.226  79.063
20877DC     SC335632  96.050  71.028  79.001
20878DA     BB135633  96.455  71.375  79.763
20878DA     BB235634  96.499  71.610  79.485
20878DA     BB335635  96.324  71.730  79.461
20878DA     SC135636  96.189  71.535  79.259
20878DA     SC235637  96.131  71.532  79.016
20878DA     SC335638  95.964  71.347  79.080
20878DA     SC435639  96.090  71.423  79.319
20879DA     BB135640  96.503  72.019  79.493
20879DA     BB235641  96.389  72.119  79.159
20879DA     BB335642  96.192  72.200  79.169
20879DA     SC135643  96.051  71.926  79.122
20879DA     SC235644  95.918  71.816  78.942
20879DA     SC335645  95.835  71.659  79.128
20879DA     SC435646  96.010  71.840  79.251
20880DA     BB135647  96.261  72.515  79.032
20880DA     BB235648  96.033  72.441  78.755
20880DA     BB335649  95.832  72.492  78.808
20880DA     SC135650  95.766  72.210  78.923
20880DA     SC235651  95.623  72.015  78.862
20880DA     SC335652  95.644  71.948  79.109
20880DA     SC435653  95.790  72.186  79.080
20881DT     BB135654  95.660  72.683  78.732
20881DT     BB235655  95.457  72.465  78.528
20881DT     BB335656  95.266  72.454  78.606
20881DT     SC135657  95.346  72.299  78.802
20881DT     SC235658  95.267  72.101  78.774
20881DT     SC335659  95.399  72.215  79.047
20882DA     BB135660  95.171  72.583  78.215
20882DA     BB235661  94.968  72.285  78.280
20882DA     BB335662  94.797  72.335  78.396
20882DA     SC135663  94.937  72.284  78.669
20882DA     SC235664  94.924  72.118  78.855
20882DA     SC335665  95.040  72.298  78.996
20882DA     SC435666  95.008  72.409  78.741
20883DT     BB135667  94.592  72.321  78.318
20883DT     BB235668  94.510  72.015  78.490
20883DT     BB335669  94.372  72.052  78.640
20883DT     SC135670  94.556  72.162  78.792
20883DT     SC235671  94.594  72.034  78.961
20883DT     SC335672  94.686  72.343  78.932
20884DC     BB135673  94.183  71.925  78.493
20884DC     BB235674  94.200  71.741  78.803
20884DC     BB335675  94.075  71.828  78.944
20884DC     SC135676  94.242  72.027  78.981
20884DC     SC235677  94.329  72.011  79.177
20884DC     SC335678  94.338  72.272  78.985
20885DA     BB135679  93.993  71.417  78.922
20885DA     BB235680  94.039  71.506  79.275
20885DA     BB335681  93.872  71.617  79.346
20885DA     SC135682  93.993  71.894  79.273
20885DA     SC235683  94.084  72.093  79.392
20885DA     SC335684  94.041  72.219  79.173
20885DA     SC435685  93.958  71.955  79.128
20886DA     BB135686  93.888  71.378  79.568
20886DA     BB235687  93.943  71.643  79.816
20886DA     BB335688  93.761  71.748  79.854
20886DA     SC135689  93.810  71.961  79.633
20886DA     SC235690  93.863  72.205  79.619
20886DA     SC335691  93.773  72.190  79.379
20886DA     SC435692  93.749  71.932  79.487
20887DT     BB135693  93.683  71.732  80.036
20887DT     BB235694  93.775  72.061  80.151
20887DT     BB335695  93.609  72.185  80.151
20887DT     SC135696  93.613  72.206  79.890
20887DT     SC235697  93.670  72.406  79.836
20887DT     SC335698  93.538  72.186  79.638
20888DA     BB135699  93.795  72.208  80.525
20888DA     BB235700  93.740  72.549  80.404
20888DA     BB335701  93.533  72.599  80.416
20888DA     SC135702  93.467  72.499  80.128
20888DA     SC235703  93.404  72.598  79.908
20888DA     SC335704  93.317  72.364  79.851
20888DA     SC435705  93.418  72.347  80.112
20889DA     BB135706  93.683  72.841  80.570
20889DA     BB235707  93.541  73.060  80.312
20889DA     BB335708  93.331  73.083  80.342
20889DA     SC135709  93.255  72.841  80.162
20889DA     SC235710  93.146  72.803  79.941
20889DA     SC335711  93.105  72.564  80.025
20889DA     SC435712  93.238  72.698  80.233
20890DT     BB135713  93.308  73.250  80.373
20890DT     BB235714  93.159  73.334  80.055
20890DT     BB335715  92.953  73.327  80.070
20890DT     SC135716  92.953  73.065  80.071
20890DT     SC235717  92.869  72.992  79.887
20890DT     SC335718  92.920  72.817  80.155
20891DC     BB135719  92.987  73.582  80.037
20891DC     BB235720  92.768  73.478  79.770
20891DC     BB335721  92.575  73.457  79.841
20891DC     SC135722  92.635  73.233  79.963
20891DC     SC235723  92.537  73.069  79.864
20891DC     SC335724  92.674  73.060  80.158
20892DT     BB135725  92.530  73.670  79.694
20892DT     BB235726  92.293  73.424  79.578
20892DT     BB335727  92.130  73.418  79.705
20892DT     SC135728  92.266  73.292  79.890
20892DT     SC235729  92.193  73.090  79.907
20892DT     SC335730  92.386  73.241  80.119
20893DT     BB135731  91.987  73.535  79.510
20893DT     BB235732  91.804  73.234  79.590
20893DT     BB335733  91.679  73.268  79.751
20893DT     SC135734  91.881  73.264  79.919
20893DT     SC235735  91.869  73.088  80.041
20893DT     SC335736  92.057  73.346  80.098
20894DA     BB135737  91.435  73.106  79.451
20894DA     BB235738  91.365  72.924  79.761
20894DA     BB335739  91.250  73.045  79.894
20894DA     SC135740  91.499  73.167  80.036
20894DA     SC235741  91.609  73.154  80.260
20894DA     SC335742  91.719  73.377  80.196
20894DA     SC435743  91.556  73.306  79.979
20895DA     BB135744  91.052  72.783  79.890
20895DA     BB235745  91.110  72.755  80.251
20895DA     BB335746  90.998  72.903  80.356
20895DA     SC135747  91.225  73.116  80.348
20895DA     SC235748  91.382  73.225  80.508
20895DA     SC335749  91.406  73.407  80.330
20895DA     SC435750  91.225  73.219  80.225
20896DA     BB135751  90.902  72.633  80.513
20896DA     BB235752  91.043  72.784  80.816
20896DA     BB335753  90.917  72.942  80.886
20896DA     SC135754  91.062  73.163  80.722
20896DA     SC235755  91.209  73.359  80.767
20896DA     SC335756  91.137  73.441  80.535
20896DA     SC435757  91.004  73.198  80.576
20897DA     BB135758  90.955  72.756  81.152
20897DA     BB235759  91.100  73.053  81.311
20897DA     BB335760  90.949  73.197  81.352
20897DA     SC135761  90.980  73.343  81.079
20897DA     SC235762  91.064  73.562  80.995
20897DA     SC335763  90.924  73.513  80.786
20897DA     SC435764  90.886  73.295  80.958
20898DC     BB135765  90.922  73.227  81.535
20898DC     BB235766  91.068  73.557  81.552
20898DC     BB335767  90.918  73.700  81.550
20898DC     SC135768  90.877  73.664  81.293
20898DC     SC235769  90.944  73.837  81.185
20898DC     SC335770  90.755  73.601  81.068
20899DG     BB135771  91.130  73.763  81.894
20899DG     BB235772  91.087  74.071  81.709
20899DG     BB335773  90.903  74.141  81.735
20899DG     SC135774  90.785  73.990  81.497
20899DG     SC235775  90.679  74.113  81.246
20899DG     SC335776  90.619  73.824  81.255
20899DG     SC435777  90.729  73.842  81.519
20900DT     BB135778  90.837  74.345  81.847
20900DT     BB235779  90.736  74.552  81.569
20900DT     BB335780  90.530  74.569  81.565
20900DT     SC135781  90.504  74.325  81.473
20900DT     SC235782  90.436  74.332  81.269
20900DT     SC335783  90.436  74.070  81.460
20901DG     BB135784  90.620  74.969  81.621
20901DG     BB235785  90.395  74.930  81.340
20901DG     BB335786  90.207  74.919  81.404
20901DG     SC135787  90.210  74.614  81.436
20901DG     SC235788  90.051  74.420  81.275
20901DG     SC335789  90.184  74.284  81.501
20901DG     SC435790  90.258  74.551  81.575
20902DA     BB135791  90.094  75.184  81.197
20902DA     BB235792  89.868  74.956  81.020
20902DA     BB335793  89.687  74.931  81.131
20902DA     SC135794  89.791  74.685  81.290
20902DA     SC235795  89.746  74.440  81.301
20902DA     SC335796  89.855  74.451  81.533
20902DA     SC435797  89.860  74.712  81.433
20903DT     BB135798  89.499  75.002  81.057
20903DT     BB235799  89.373  74.679  80.958
20903DT     BB335800  89.223  74.619  81.087
20903DT     SC135801  89.396  74.563  81.276
20903DT     SC235802  89.404  74.350  81.304
20903DT     SC335803  89.524  74.573  81.506
20904DG     BB135804  89.073  74.623  80.708
20904DG     BB235805  89.023  74.302  80.868
20904DG     BB335806  88.871  74.313  80.996
20904DG     SC135807  89.045  74.397  81.234
20904DG     SC235808  89.097  74.234  81.479
20904DG     SC335809  89.202  74.509  81.510
20904DG     SC435810  89.073  74.552  81.258
20905DC     BB135811  88.707  74.188  80.959
20905DC     BB235812  88.748  73.937  81.215
20905DC     BB335813  88.621  73.976  81.373
20905DC     SC135814  88.772  74.173  81.456
20905DC     SC235815  88.867  74.118  81.641
20905DC     SC335816  88.849  74.418  81.519
20906DA     BB135817  88.575  73.575  81.255
20906DA     BB235818  88.616  73.583  81.619
20906DA     BB335819  88.441  73.664  81.711
20906DA     SC135820  88.545  73.957  81.705
20906DA     SC235821  88.623  74.129  81.869
20906DA     SC335822  88.572  74.299  81.683
20906DA     SC435823  88.506  74.048  81.578
20907DG     BB135824  88.427  73.387  81.853
20907DG     BB235825  88.480  73.586  82.150
20907DG     BB335826  88.308  73.667  82.209
20907DG     SC135827  88.341  73.921  82.041
20907DG     SC235828  88.381  74.197  82.148
20907DG     SC335829  88.334  74.202  81.855
20907DG     SC435830  88.286  73.922  81.891
20908DA     BB135831  88.356  73.533  82.530
20908DA     BB235832  88.355  73.871  82.673
20908DA     BB335833  88.155  73.943  82.691
20908DA     SC135834  88.152  74.076  82.409
20908DA     SC235835  88.150  74.306  82.314
20908DA     SC335836  88.062  74.194  82.100
20908DA     SC435837  88.097  73.988  82.286
20909DG     BB135838  88.201  73.960  83.002
20909DG     BB235839  88.168  74.316  82.943
20909DG     BB335840  87.976  74.367  82.946
20909DG     SC135841  87.933  74.321  82.647
20909DG     SC235842  87.874  74.531  82.443
20909DG     SC335843  87.845  74.261  82.327
20909DG     SC435844  87.890  74.175  82.596
20910DA     BB135845  88.070  74.606  83.176
20910DA     BB235846  87.960  74.868  82.945
20910DA     BB335847  87.747  74.885  82.948
20910DA     SC135848  87.704  74.680  82.717
20910DA     SC235849  87.628  74.683  82.480
20910DA     SC335850  87.583  74.433  82.512
20910DA     SC435851  87.681  74.526  82.758
20911DA     BB135852  87.843  75.190  83.004
20911DA     BB235853  87.674  75.276  82.691
20911DA     BB335854  87.462  75.273  82.718
20911DA     SC135855  87.432  74.974  82.638
20911DA     SC235856  87.336  74.842  82.449
20911DA     SC335857  87.333  74.646  82.614
20911DA     SC435858  87.437  74.865  82.756
20912DA     BB135859  87.521  75.566  82.586
20912DA     BB235860  87.306  75.456  82.309
20912DA     BB335861  87.102  75.450  82.371
20912DA     SC135862  87.114  75.153  82.464
20912DA     SC235863  87.023  74.933  82.390
20912DA     SC335864  87.071  74.856  82.630
20912DA     SC435865  87.150  75.125  82.618
20913DT     BB135866  86.988  75.576  82.283
20913DT     BB235867  86.815  75.339  82.073
20913DT     BB335868  86.628  75.298  82.152
20913DT     SC135869  86.733  75.149  82.341
20913DT     SC235870  86.683  74.943  82.306
20913DT     SC335871  86.801  75.064  82.581
20914DA     BB135872  86.573  75.405  81.751
20914DA     BB235873  86.389  75.094  81.811
20914DA     BB335874  86.214  75.132  81.926
20914DA     SC135875  86.356  75.087  82.200
20914DA     SC235876  86.353  74.919  82.384
20914DA     SC335877  86.456  75.105  82.528
20914DA     SC435878  86.418  75.216  82.273
20915DT     BB135879  86.034  75.102  81.840
20915DT     BB235880  85.957  74.795  82.012
20915DT     BB335881  85.815  74.830  82.159
20915DT     SC135882  85.993  74.945  82.314
20915DT     SC235883  86.031  74.819  82.484
20915DT     SC335884  86.115  75.130  82.455
20916DC     BB135885  85.642  74.696  82.006
20916DC     BB235886  85.652  74.515  82.318
20916DC     BB335887  85.521  74.601  82.453
20916DC     SC135888  85.682  74.803  82.493
20916DC     SC235889  85.764  74.792  82.692
20916DC     SC335890  85.774  75.051  82.498
20917DA     BB135891  85.487  74.184  82.423
20917DA     BB235892  85.514  74.275  82.777
20917DA     BB335893  85.338  74.377  82.841
20917DA     SC135894  85.447  74.660  82.772
20917DA     SC235895  85.521  74.864  82.894
20917DA     SC335896  85.480  74.987  82.673
20917DA     SC435897  85.414  74.719  82.626
20918DT     BB135898  85.293  74.273  82.955
20918DT     BB235899  85.371  74.479  83.240
20918DT     BB335900  85.208  74.599  83.287
20918DT     SC135901  85.255  74.756  83.081
20918DT     SC235902  85.323  74.948  83.152
20918DT     SC335903  85.221  74.881  82.852
20919DT     BB135904  85.245  74.441  83.481
20919DT     BB235905  85.253  74.775  83.617
20919DT     BB335906  85.062  74.855  83.617
20919DT     SC135907  85.071  74.894  83.358
20919DT     SC235908  85.080  75.105  83.317
20919DT     SC335909  85.011  74.873  83.102
20920DG     BB135910  85.256  74.875  83.980
20920DG     BB235911  85.098  75.187  83.890
20920DG     BB335912  84.900  75.168  83.898
20920DG     SC135913  84.873  75.079  83.606
20920DG     SC235914  84.741  75.233  83.387
20920DG     SC335915  84.809  74.959  83.297
20920DG     SC435916  84.885  74.923  83.571
20921DA     BB135917  84.879  75.453  84.107
20921DA     BB235918  84.642  75.611  83.877
20921DA     BB335919  84.451  75.518  83.892
20921DA     SC135920  84.508  75.308  83.670
20921DA     SC235921  84.432  75.259  83.438
20921DA     SC335922  84.520  75.022  83.480
20921DA     SC435923  84.567  75.165  83.716
20922DC     BB135924  84.248  75.603  83.985
20922DC     BB235925  84.071  75.647  83.674
20922DC     BB335926  83.917  75.509  83.660
20922DC     SC135927  84.085  75.315  83.608
20922DC     SC235928  84.061  75.252  83.404
20922DC     SC335929  84.220  75.090  83.635
20923DA     BB135930  83.673  75.856  83.618
20923DA     BB235931  83.581  75.632  83.344
20923DA     BB335932  83.445  75.482  83.413
20923DA     SC135933  83.670  75.279  83.487
20923DA     SC235934  83.755  75.060  83.403
20923DA     SC335935  83.860  75.036  83.636
20923DA     SC435936  83.726  75.282  83.637
20924DC     BB135937  83.215  75.454  83.357
20924DC     BB235938  83.271  75.179  83.130
20924DC     BB335939  83.188  75.006  83.206
20924DC     SC135940  83.381  74.981  83.382
20924DC     SC235941  83.503  74.812  83.331
20924DC     SC335942  83.504  74.968  83.615
20925DA     BB135943  83.043  75.054  82.818
20925DA     BB235944  83.185  74.717  82.845
20925DA     BB335945  83.054  74.590  82.957
20925DA     SC135946  83.187  74.655  83.231
20925DA     SC235947  83.327  74.538  83.401
20925DA     SC335948  83.247  74.720  83.563
20925DA     SC435949  83.124  74.776  83.317
20926DC     BB135950  82.994  74.455  82.851
20926DC     BB235951  83.203  74.197  82.993
20926DC     BB335952  83.095  74.085  83.129
20926DC     SC135953  83.104  74.278  83.307
20926DC     SC235954  83.231  74.217  83.470
20926DC     SC335955  83.025  74.467  83.472
20927DC     BB135956  83.145  73.920  82.940
20927DC     BB235957  83.288  73.778  83.239
20927DC     BB335958  83.139  73.698  83.358
20927DC     SC135959  83.061  73.937  83.434
20927DC     SC235960  83.110  73.966  83.641
20927DC     SC335961  82.908  74.150  83.467
20928DT     BB135962  83.269  73.490  83.284
20928DT     BB235963  83.267  73.483  83.645
20928DT     BB335964  83.082  73.423  83.713
20928DT     SC135965  82.976  73.656  83.655
20928DT     SC235966  82.927  73.760  83.837
20928DT     SC335967  82.822  73.837  83.540
20929DG     BB135968  83.376  73.184  83.869
20929DG     BB235969  83.146  73.299  84.123
20929DG     BB335970  82.973  73.204  84.106
20929DG     SC135971  82.851  73.409  83.915
20929DG     SC235972  82.621  73.590  83.974
20929DG     SC335973  82.694  73.603  83.688
20929DG     SC435974  82.873  73.391  83.757
20930DG     BB135975  82.981  73.069  84.418
20930DG     BB235976  82.671  73.243  84.484
20930DG     BB335977  82.518  73.136  84.417
20930DG     SC135978  82.520  73.263  84.138
20930DG     SC235979  82.308  73.438  84.023
20930DG     SC335980  82.507  73.365  83.817
20930DG     SC435981  82.612  73.197  84.024
20931DT     BB135982  82.308  72.995  84.534
20931DT     BB235983  82.032  73.216  84.459
20931DT     BB335984  81.904  73.125  84.324
20931DT     SC135985  82.072  73.166  84.126
20931DT     SC235986  81.990  73.313  83.993
20931DT     SC335987  82.239  73.116  83.928
20932DT     BB135988  81.663  73.022  84.488
20932DT     BB235989  81.503  73.225  84.237
20932DT     BB335990  81.434  73.106  84.082
20932DT     SC135991  81.677  73.072  83.990
20932DT     SC235992  81.698  73.175  83.802
20932DT     SC335993  81.901  72.952  83.919
20933DC     BB135994  81.141  73.098  84.134
20933DC     BB235995  81.163  73.230  83.799
20933DC     BB335996  81.139  73.078  83.661
20933DC     SC135997  81.380  72.986  83.708
20933DC     SC235998  81.505  73.022  83.537
20933DC     SC335999  81.574  72.824  83.783
20934DC     BB136000  80.878  73.153  83.581
20934DC     BB236001  81.074  73.169  83.278
20934DC     BB336002  81.064  72.988  83.178
20934DC     SC136003  81.227  72.876  83.351
20934DC     SC236004  81.415  72.834  83.256
20934DC     SC336005  81.315  72.713  83.539
20935DT     BB136006  80.910  73.104  82.988
20935DT     BB236007  81.201  72.984  82.812
20935DT     BB336008  81.173  72.787  82.753
20935DT     SC136009  81.209  72.701  82.999
20935DT     SC236010  81.395  72.594  83.010
20935DT     SC336011  81.159  72.590  83.232
20936DC     BB136012  81.163  72.888  82.509
20936DC     BB236013  81.437  72.653  82.505
20936DC     BB336014  81.365  72.461  82.474
20936DC     SC136015  81.274  72.447  82.720
20936DC     SC236016  81.392  72.306  82.832
20936DC     SC336017  81.105  72.427  82.922
20937DG     BB136018  81.649  72.565  82.201
20937DG     BB236019  81.725  72.252  82.365
20937DG     BB336020  81.607  72.108  82.295
20937DG     SC136021  81.387  72.153  82.502
20937DG     SC236022  81.307  71.963  82.718
20937DG     SC336023  81.117  72.189  82.701
20937DG     SC436024  81.271  72.260  82.470
20938DC     BB136025  81.704  71.951  82.203
20938DC     BB236026  81.668  71.686  82.446
20938DC     BB336027  81.511  71.563  82.392
20938DC     SC136028  81.334  71.741  82.468
20938DC     SC236029  81.233  71.671  82.645
20938DC     SC336030  81.138  71.917  82.456
20939DC     BB136031  81.696  71.381  82.334
20939DC     BB236032  81.479  71.220  82.574
20939DC     BB336033  81.314  71.141  82.478
20939DC     SC136034  81.207  71.379  82.447
20939DC     SC236035  81.034  71.396  82.573
20939DC     SC336036  81.112  71.595  82.329
20940DA     BB136037  81.483  70.840  82.717
20940DA     BB236038  81.122  70.846  82.780
20940DA     BB336039  81.016  70.767  82.613
20940DA     SC136040  80.984  71.043  82.472
20940DA     SC236041  80.800  71.203  82.420
20940DA     SC336042  80.959  71.296  82.242
20940DA     SC436043  81.096  71.086  82.366
20941DG     BB136044  80.916  70.562  82.823
20941DG     BB236045  80.595  70.710  82.748
20941DG     BB336046  80.522  70.632  82.580
20941DG     SC136047  80.653  70.841  82.399
20941DG     SC236048  80.510  71.048  82.237
20941DG     SC336049  80.797  71.042  82.169
20941DG     SC436050  80.801  70.815  82.344
20942DT     BB136051  80.333  70.516  82.578
20942DT     BB236052  80.105  70.750  82.424
20942DT     BB336053  80.073  70.697  82.227
20942DT     SC136054  80.309  70.785  82.156
20942DT     SC236055  80.286  70.962  82.035
20942DT     SC336056  80.557  70.786  82.065
20943DT     BB136057  79.820  70.611  82.285
20943DT     BB236058  79.773  70.857  82.026
20943DT     BB336059  79.790  70.769  81.840
20943DT     SC136060  80.051  70.753  81.864
20943DT     SC236061  80.144  70.889  81.726
20943DT     SC336062  80.293  70.648  81.884
20944DC     BB136063  79.520  70.786  81.796
20944DC     BB236064  79.669  70.961  81.517
20944DC     BB336065  79.712  70.828  81.365
20944DC     SC136066  79.919  70.733  81.496
20944DC     SC236067  80.100  70.791  81.396
20944DC     SC336068  80.074  70.563  81.624
20945DC     BB136069  79.505  70.920  81.207
20945DC     BB236070  79.799  70.962  81.002
20945DC     BB336071  79.835  70.790  80.894
20945DC     SC136072  79.925  70.665  81.107
20945DC     SC236073  80.137  70.634  81.087
20945DC     SC336074  79.943  70.489  81.302
20946DA     BB136075  79.830  71.109  80.621
20946DA     BB236076  80.137  70.915  80.565
20946DA     BB336077  80.091  70.730  80.468
20946DA     SC136078  80.054  70.572  80.733
20946DA     SC236079  80.174  70.393  80.859
20946DA     SC336080  79.949  70.356  80.978
20946DA     SC436081  79.906  70.564  80.795
20947DT     BB136082  80.162  70.708  80.286
20947DT     BB236083  80.427  70.480  80.375
20947DT     BB336084  80.375  70.287  80.321
20947DT     SC136085  80.207  70.267  80.521
20947DT     SC236086  80.284  70.127  80.665
20947DT     SC336087  79.980  70.240  80.653
20948DT     BB136088  80.563  70.311  80.136
20948DT     BB236089  80.661  70.027  80.336
20948DT     BB336090  80.561  69.858  80.272
20948DT     SC136091  80.338  69.938  80.383
20948DT     SC236092  80.292  69.811  80.552
20948DT     SC336093  80.088  70.018  80.409
20949DG     BB136094  80.965  69.807  80.273
20949DG     BB236095  80.795  69.547  80.458
20949DG     BB336096  80.706  69.422  80.333
20949DG     SC136097  80.443  69.578  80.324
20949DG     SC236098  80.180  69.485  80.431
20949DG     SC336099  80.148  69.735  80.275
20949DG     SC436100  80.425  69.694  80.215
20950DT     BB136101  80.772  69.237  80.354
20950DT     BB236102  80.493  69.073  80.514
20950DT     BB336103  80.375  68.979  80.372
20950DT     SC136104  80.275  69.209  80.293
20950DT     SC236105  80.068  69.220  80.351
20950DT     SC336106  80.216  69.414  80.138
20951DT     BB136107  80.469  68.755  80.475
20951DT     BB236108  80.110  68.727  80.499
20951DT     BB336109  80.032  68.663  80.318
20951DT     SC136110  80.069  68.900  80.210
20951DT     SC236111  79.878  68.993  80.176
20951DT     SC336112  80.161  69.089  80.051
20952DA     BB136113  79.879  68.410  80.616
20952DA     BB236114  79.600  68.518  80.405
20952DA     BB336115  79.610  68.423  80.214
20952DA     SC136116  79.780  68.648  80.084
20952DA     SC236117  79.750  68.826  79.912
20952DA     SC336118  80.006  68.826  79.896
20952DA     SC436119  79.940  68.632  80.087
20953DT     BB136120  79.465  68.289  80.161
20953DT     BB236121  79.294  68.501  79.925
20953DT     BB336122  79.338  68.441  79.732
20953DT     SC136123  79.578  68.545  79.746
20953DT     SC236124  79.589  68.717  79.617
20953DT     SC336125  79.841  68.563  79.750
20954DA     BB136126  78.920  68.456  79.758
20954DA     BB236127  79.021  68.642  79.458
20954DA     BB336128  79.083  68.508  79.305
20954DA     SC136129  79.382  68.508  79.391
20954DA     SC236130  79.599  68.593  79.304
20954DA     SC336131  79.706  68.421  79.461
20954DA     SC436132  79.429  68.394  79.494
20955DA     BB136133  78.859  68.684  79.144
20955DA     BB236134  79.132  68.788  78.923
20955DA     BB336135  79.186  68.628  78.792
20955DA     SC136136  79.402  68.512  78.983
20955DA     SC236137  79.650  68.492  78.991
20955DA     SC336138  79.610  68.304  79.161
20955DA     SC436139  79.356  68.397  79.086
20956DT     BB136140  79.152  68.668  78.613
20956DT     BB236141  79.495  68.721  78.515
20956DT     BB336142  79.568  68.553  78.419
20956DT     SC136143  79.588  68.422  78.645
20956DT     SC236144  79.796  68.394  78.694
20956DT     SC336145  79.546  68.240  78.831
20957DC     BB136146  79.564  68.712  78.212
20957DC     BB236147  79.905  68.601  78.241
20957DC     BB336148  79.925  68.412  78.159
20957DC     SC136149  79.806  68.302  78.366
20957DC     SC236150  79.950  68.188  78.478
20957DC     SC336151  79.628  68.170  78.508
20958DT     BB136152  80.061  68.542  77.979
20958DT     BB236153  80.285  68.288  78.104
20958DT     BB336154  80.241  68.106  78.016
20958DT     SC136155  80.026  68.077  78.163
20958DT     SC236156  80.057  67.918  78.305
20958DT     SC336157  79.772  68.052  78.230
20959DC     BB136158  80.469  68.133  77.881
20959DC     BB236159  80.497  67.813  78.045
20959DC     BB336160  80.400  67.668  77.933
20959DC     SC136161  80.165  67.756  78.009
20959DC     SC236162  80.073  67.612  78.140
20959DC     SC336163  79.923  67.860  77.997
20960DT     BB136164  80.636  67.558  77.847
20960DT     BB236165  80.459  67.279  77.991
20960DT     BB336166  80.335  67.194  77.849
20960DT     SC136167  80.164  67.392  77.866
20960DT     SC236168  79.983  67.322  77.959
20960DT     SC336169  80.018  67.601  77.798
20961DA     BB136170  80.561  66.858  77.970
20961DA     BB236171  80.208  66.757  77.976
20961DA     BB336172  80.138  66.721  77.778
20961DA     SC136173  80.041  67.014  77.733
20961DA     SC236174  79.825  67.135  77.710
20961DA     SC336175  79.964  67.320  77.598
20961DA     SC436176  80.145  67.116  77.665
20962DT     BB136177  80.078  66.518  77.688
20962DT     BB236178  79.722  66.575  77.698
20962DT     BB336179  79.648  66.596  77.506
20962DT     SC136180  79.749  66.837  77.485
20962DT     SC236181  79.589  66.981  77.483
20962DT     SC336182  79.897  67.037  77.399
20963DA     BB136183  79.409  66.290  77.669
20963DA     BB236184  79.184  66.542  77.525
20963DA     BB336185  79.180  66.525  77.313
20963DA     SC136186  79.413  66.726  77.269
20963DA     SC236187  79.444  66.956  77.177
20963DA     SC336188  79.691  66.891  77.152
20963DA     SC436189  79.562  66.667  77.259
20964DT     BB136190  79.005  66.465  77.211
20964DT     BB236191  78.916  66.794  77.093
20964DT     BB336192  78.950  66.808  76.889
20964DT     SC136193  79.210  66.824  76.926
20964DT     SC236194  79.277  67.022  76.877
20964DT     SC336195  79.466  66.761  76.917
20965DA     BB136196  78.557  66.933  76.961
20965DA     BB236197  78.723  67.191  76.761
20965DA     BB336198  78.748  67.125  76.559
20965DA     SC136199  79.028  66.999  76.609
20965DA     SC236200  79.265  67.046  76.546
20965DA     SC336201  79.307  66.799  76.605
20965DA     SC436202  79.034  66.844  76.649
20966DG     BB136203  78.577  67.376  76.512
20966DG     BB236204  78.879  67.490  76.351
20966DG     BB336205  78.892  67.413  76.168
20966DG     SC136206  79.043  67.162  76.257
20966DG     SC236207  79.325  67.093  76.187
20966DG     SC336208  79.191  66.867  76.322
20966DG     SC436209  78.959  67.034  76.302
20967DA     BB136210  78.946  67.743  76.092
20967DA     BB236211  79.274  67.652  75.955
20967DA     BB336212  79.251  67.550  75.769
20967DA     SC136213  79.239  67.267  75.898
20967DA     SC236214  79.382  67.063  75.909
20967DA     SC336215  79.166  66.940  75.973
20967DA     SC436216  79.094  67.208  75.935
20968DT     BB136217  79.325  67.648  75.637
20968DT     BB236218  79.617  67.441  75.590
20968DT     BB336219  79.588  67.313  75.430
20968DT     SC136220  79.427  67.161  75.572
20968DT     SC236221  79.522  66.973  75.611
20968DT     SC336222  79.207  67.038  75.650
20969DA     BB136223  79.958  67.516  75.420
20969DA     BB236224  80.016  67.158  75.363
20969DA     BB336225  79.935  67.099  75.175
20969DA     SC136226  79.657  67.023  75.291
20969DA     SC236227  79.524  66.815  75.331
20969DA     SC336228  79.320  66.972  75.339
20969DA     SC436229  79.543  67.136  75.291
20970DG     BB136230  80.234  67.026  75.173
20970DG     BB236231  80.097  66.693  75.143
20970DG     BB336232  80.022  66.667  74.961
20970DG     SC136233  79.742  66.767  75.035
20970DG     SC236234  79.493  66.603  75.042
20970DG     SC336235  79.431  66.890  75.075
20970DG     SC436236  79.710  66.924  75.022
20971DG     BB136237  80.226  66.415  74.962
20971DG     BB236238  79.931  66.211  74.915
20971DG     BB336239  79.869  66.224  74.726
20971DG     SC136240  79.686  66.465  74.776
20971DG     SC236241  79.388  66.465  74.759
20971DG     SC336242  79.492  66.740  74.791
20971DG     SC436243  79.747  66.612  74.764
20972DA     BB136244  79.870  65.878  74.747
20972DA     BB236245  79.516  65.875  74.651
20972DA     BB336246  79.494  65.927  74.446
20972DA     SC136247  79.464  66.232  74.501
20972DA     SC236248  79.285  66.405  74.489
20972DA     SC336249  79.477  66.575  74.485
20972DA     SC436250  79.597  66.322  74.498
20973DA     BB136251  79.325  65.643  74.445
20973DA     BB236252  79.037  65.838  74.329
20973DA     BB336253  79.063  65.896  74.126
20973DA     SC136254  79.202  66.166  74.195
20973DA     SC236255  79.150  66.409  74.182
20973DA     SC336256  79.404  66.444  74.197
20973DA     SC436257  79.363  66.166  74.205
20974DA     BB136258  78.768  65.751  74.076
20974DA     BB236259  78.645  66.077  73.962
20974DA     BB336260  78.715  66.117  73.765
20974DA     SC136261  78.973  66.262  73.860
20974DA     SC236262  79.065  66.494  73.862
20974DA     SC336263  79.294  66.382  73.891
20974DA     SC436264  79.106  66.173  73.876
20975DT     BB136265  78.586  66.126  73.588
20975DT     BB236266  78.592  66.485  73.548
20975DT     BB336267  78.706  66.535  73.383
20975DT     SC136268  78.929  66.483  73.511
20975DT     SC236269  79.035  66.666  73.548
20975DT     SC336270  79.158  66.368  73.574
20976DT     BB136271  78.490  66.603  73.211
20976DT     BB236272  78.694  66.901  73.213
20976DT     BB336273  78.831  66.893  73.059
20976DT     SC136274  78.977  66.717  73.186
20976DT     SC236275  79.162  66.809  73.247
20976DT     SC336276  79.100  66.490  73.242
20977DT     BB136277  78.701  67.084  72.897
20977DT     BB236278  79.031  67.221  72.946
20977DT     BB336279  79.157  67.156  72.795
20977DT     SC136280  79.173  66.916  72.900
20977DT     SC236281  79.371  66.885  72.978
20977DT     SC336282  79.149  66.655  72.926
20978DT     BB136283  79.163  67.404  72.673
20978DT     BB236284  79.508  67.333  72.750
20978DT     BB336285  79.596  67.231  72.594
20978DT     SC136286  79.471  67.009  72.658
20978DT     SC236287  79.613  66.866  72.734
20978DT     SC336288  79.310  66.801  72.641
20979DA     BB136289  79.835  67.559  72.695
20979DA     BB236290  80.047  67.260  72.691
20979DA     BB336291  80.080  67.195  72.491
20979DA     SC136292  79.833  67.006  72.485
20979DA     SC236293  79.789  66.761  72.479
20979DA     SC336294  79.557  66.825  72.391
20979DA     SC436295  79.695  67.066  72.430
20980DA     BB136296  80.373  67.219  72.629
20980DA     BB236297  80.400  66.859  72.566
20980DA     BB336298  80.423  66.821  72.358
20980DA     SC136299  80.118  66.795  72.304
20980DA     SC236300  79.956  66.615  72.244
20980DA     SC336301  79.804  66.806  72.166
20980DA     SC436302  80.039  66.927  72.260
20981DA     BB136303  80.663  66.661  72.507
20981DA     BB236304  80.518  66.359  72.358
20981DA     BB336305  80.551  66.356  72.148
20981DA     SC136306  80.285  66.502  72.080
20981DA     SC236307  80.066  66.447  71.973
20981DA     SC336308  80.042  66.701  71.940
20981DA     SC436309  80.289  66.663  72.067
20982DG     BB136310  80.677  66.098  72.254
20982DG     BB236311  80.426  65.949  72.041
20982DG     BB336312  80.480  65.967  71.850
20982DG     SC136313  80.342  66.238  71.811
20982DG     SC236314  80.106  66.290  71.636
20982DG     SC336315  80.219  66.544  71.739
20982DG     SC436316  80.423  66.372  71.844
20983DG     BB136317  80.448  65.643  71.847
20983DG     BB236318  80.199  65.695  71.590
20983DG     BB336319  80.288  65.733  71.416
20983DG     SC136320  80.297  66.036  71.458
20983DG     SC236321  80.146  66.240  71.301
20983DG     SC336322  80.342  66.370  71.481
20983DG     SC436323  80.423  66.100  71.534
20984DT     BB136324  80.266  65.597  71.243
20984DT     BB236325  80.054  65.787  71.021
20984DT     BB336326  80.167  65.871  70.870
20984DT     SC136327  80.264  66.053  71.033
20984DT     SC236328  80.184  66.246  70.980
20984DT     SC336329  80.438  66.191  71.175
20985DG     BB136330  79.910  65.635  70.653
20985DG     BB236331  79.914  65.971  70.520
20985DG     BB336332  80.072  65.995  70.400
20985DG     SC136333  80.259  66.088  70.624
20985DG     SC236334  80.376  66.361  70.651
20985DG     SC336335  80.496  66.175  70.847
20985DG     SC436336  80.341  65.979  70.707
20986DA     BB136337  79.884  66.105  70.115
20986DA     BB236338  80.059  66.427  70.114
20986DA     BB336339  80.247  66.409  70.013
20986DA     SC136340  80.406  66.337  70.271
20986DA     SC236341  80.577  66.443  70.417
20986DA     SC336342  80.628  66.204  70.497
20986DA     SC436343  80.423  66.181  70.306
20987DT     BB136344  80.311  66.506  69.804
20987DT     BB236345  80.517  66.765  69.948
20987DT     BB336346  80.716  66.732  69.899
20987DT     SC136347  80.734  66.536  70.072
20987DT     SC236348  80.860  66.596  70.236
20987DT     SC336349  80.767  66.293  70.170
20988DA     BB136350  80.647  67.124  69.768
20988DA     BB236351  80.945  67.131  69.982
20988DA     BB336352  81.115  67.058  69.875
20988DA     SC136353  81.073  66.763  69.963
20988DA     SC236354  81.186  66.596  70.110
20988DA     SC336355  81.059  66.420  69.975
20988DA     SC436356  80.986  66.668  69.866
20989DC     BB136357  81.263  67.189  69.839
20989DC     BB236358  81.485  67.063  70.094
20989DC     BB336359  81.640  66.957  70.007
20989DC     SC136360  81.482  66.753  69.956
20989DC     SC236361  81.537  66.587  70.081
20989DC     SC336362  81.346  66.573  69.820
20990DT     BB136363  81.776  67.160  70.096
20990DT     BB236364  81.917  66.869  70.256
20990DT     BB336365  82.048  66.774  70.127
20990DT     SC136366  81.851  66.677  69.985
20990DT     SC236367  81.840  66.464  70.013
20990DT     SC336368  81.691  66.632  69.779
20991DT     BB136369  82.209  66.861  70.310
20991DT     BB236370  82.255  66.503  70.299
20991DT     BB336371  82.373  66.453  70.136
20991DT     SC136372  82.175  66.495  69.969
20991DT     SC236373  82.110  66.307  69.887
20991DT     SC336374  82.034  66.601  69.773
20992DA     BB136375  82.496  66.267  70.495
20992DA     BB236376  82.490  66.016  70.227
20992DA     BB336377  82.643  66.057  70.084
20992DA     SC136378  82.462  66.235  69.905
20992DA     SC236379  82.356  66.223  69.679
20992DA     SC336380  82.340  66.478  69.695
20992DA     SC436381  82.462  66.393  69.933
20993DG     BB136382  82.734  65.772  70.169
20993DG     BB236383  82.672  65.698  69.820
20993DG     BB336384  82.824  65.763  69.709
20993DG     SC136385  82.704  66.041  69.664
20993DG     SC236386  82.609  66.151  69.403
20993DG     SC336387  82.612  66.361  69.611
20993DG     SC436388  82.736  66.157  69.770
20994DC     BB136389  82.964  65.627  69.587
20994DC     BB236390  82.857  65.693  69.249
20994DC     BB336391  82.995  65.815  69.154
20994DC     SC136392  82.914  66.025  69.288
20994DC     SC236393  82.813  66.160  69.154
20994DC     SC336394  82.918  66.231  69.452
20995DA     BB136395  82.968  65.488  68.890
20995DA     BB236396  82.934  65.792  68.688
20995DA     BB336397  83.124  65.885  68.660
20995DA     SC136398  83.102  66.064  68.913
20995DA     SC236399  83.074  66.306  68.966
20995DA     SC336400  83.167  66.246  69.197
20995DA     SC436401  83.163  66.007  69.050
20996DA     BB136402  83.065  65.867  68.333
20996DA     BB236403  83.073  66.233  68.327
20996DA     BB336404  83.275  66.303  68.324
20996DA     SC136405  83.299  66.319  68.634
20996DA     SC236406  83.317  66.497  68.808
20996DA     SC336407  83.411  66.311  68.959
20996DA     SC436408  83.357  66.191  68.711
20997DG     BB136409  83.205  66.434  68.050
20997DG     BB236410  83.258  66.741  68.233
20997DG     BB336411  83.451  66.788  68.233
20997DG     SC136412  83.514  66.633  68.489
20997DG     SC236413  83.597  66.751  68.750
20997DG     SC336414  83.623  66.456  68.755
20997DG     SC436415  83.555  66.478  68.478
20998DC     BB136416  83.510  66.973  68.143
20998DC     BB236417  83.576  67.175  68.434
20998DC     BB336418  83.780  67.189  68.466
20998DC     SC136419  83.792  66.943  68.557
20998DC     SC236420  83.833  66.947  68.768
20998DC     SC336421  83.855  66.688  68.575
20999DC     BB136422  83.743  67.439  68.395
20999DC     BB236423  83.887  67.453  68.725
20999DC     BB336424  84.093  67.432  68.713
20999DC     SC136425  84.072  67.175  68.666
20999DC     SC236426  84.145  67.065  68.835
20999DC     SC336427  84.089  66.944  68.540
21000DA     BB136428  83.977  67.757  68.956
21000DA     BB236429  84.233  67.563  69.133
21000DA     BB336430  84.422  67.583  69.035
21000DA     SC136431  84.379  67.336  68.851
21000DA     SC236432  84.472  67.106  68.826
21000DA     SC336433  84.378  67.115  68.588
21000DA     SC436434  84.315  67.362  68.706
21001DG     BB136435  84.498  67.693  69.314
21001DG     BB236436  84.722  67.409  69.314
21001DG     BB336437  84.883  67.450  69.204
21001DG     SC136438  84.762  67.345  68.943
21001DG     SC236439  84.853  67.105  68.791
21001DG     SC336440  84.653  67.257  68.636
21001DG     SC436441  84.677  67.445  68.851
21002DT     BB136442  85.078  67.455  69.296
21002DT     BB236443  85.230  67.153  69.170
21002DT     BB336444  85.359  67.198  69.015
21002DT     SC136445  85.160  67.241  68.850
21002DT     SC236446  85.155  67.086  68.702
21002DT     SC336447  84.996  67.368  68.686
21003DT     BB136448  85.573  67.146  69.175
21003DT     BB236449  85.621  66.931  68.889
21003DT     BB336450  85.722  67.034  68.740
21003DT     SC136451  85.507  67.171  68.679
21003DT     SC236452  85.435  67.110  68.486
21003DT     SC336453  85.346  67.377  68.645
21004DA     BB136454  85.933  66.676  68.801
21004DA     BB236455  85.884  66.716  68.440
21004DA     BB336456  86.011  66.869  68.364
21004DA     SC136457  85.804  67.097  68.406
21004DA     SC236458  85.662  67.246  68.264
21004DA     SC336459  85.649  67.397  68.471
21004DA     SC436460  85.809  67.178  68.544
21005DT     BB136461  86.163  66.820  68.235
21005DT     BB236462  86.015  66.954  67.935
21005DT     BB336463  86.109  67.131  67.883
21005DT     SC136464  85.987  67.261  68.076
21005DT     SC236465  85.844  67.398  67.991
21005DT     SC336466  85.951  67.401  68.297
21006DA     BB136467  86.122  66.893  67.537
21006DA     BB236468  86.003  67.226  67.438
21006DA     BB336469  86.164  67.366  67.440
21006DA     SC136470  86.119  67.451  67.736
21006DA     SC236471  86.039  67.652  67.860
21006DA     SC336472  86.160  67.550  68.062
21006DA     SC436473  86.202  67.372  67.849
21007DG     BB136474  86.126  67.416  67.127
21007DG     BB236475  86.043  67.752  67.231
21007DG     BB336476  86.209  67.861  67.248
21007DG     SC136477  86.254  67.789  67.542
21007DG     SC236478  86.237  67.978  67.773
21007DG     SC336479  86.346  67.716  67.858
21007DG     SC436480  86.339  67.658  67.578
21008DA     BB136481  86.101  68.122  67.028
21008DA     BB236482  86.123  68.369  67.297
21008DA     BB336483  86.325  68.437  67.320
21008DA     SC136484  86.400  68.219  67.529
21008DA     SC236485  86.454  68.208  67.772
21008DA     SC336486  86.564  67.983  67.716
21008DA     SC436487  86.465  68.083  67.474
21009DC     BB136488  86.421  68.656  67.270
21009DC     BB236489  86.445  68.761  67.615
21009DC     BB336490  86.644  68.780  67.669
21009DC     SC136491  86.673  68.520  67.681
21009DC     SC236492  86.699  68.460  67.887
21009DC     SC336493  86.761  68.277  67.626
21010DA     BB136494  86.495  69.162  67.765
21010DA     BB236495  86.664  69.034  68.064
21010DA     BB336496  86.875  69.056  68.045
21010DA     SC136497  86.917  68.776  67.915
21010DA     SC236498  87.019  68.557  67.978
21010DA     SC336499  87.028  68.512  67.726
21010DA     SC436500  86.915  68.767  67.755
21011DA     BB136501  86.844  69.216  68.328
21011DA     BB236502  87.043  68.947  68.479
21011DA     BB336503  87.250  68.976  68.439
21011DA     SC136504  87.248  68.811  68.175
21011DA     SC236505  87.337  68.593  68.093
21011DA     SC336506  87.305  68.691  67.859
21011DA     SC436507  87.222  68.890  68.038
21012DA     BB136508  87.236  68.941  68.760
21012DA     BB236509  87.439  68.640  68.711
21012DA     BB336510  87.640  68.692  68.664
21012DA     SC136511  87.593  68.697  68.356
21012DA     SC236512  87.659  68.562  68.158
21012DA     SC336513  87.601  68.771  68.021
21012DA     SC436514  87.553  68.837  68.289
21013DT     BB136515  87.745  68.631  68.795
21013DT     BB236516  87.883  68.354  68.609
21013DT     BB336517  88.068  68.406  68.533
21013DT     SC136518  87.959  68.556  68.347
21013DT     SC236519  87.987  68.464  68.155
21013DT     SC336520  87.894  68.770  68.207
21014DT     BB136521  88.135  68.226  68.706
21014DT     BB236522  88.255  68.106  68.388
21014DT     BB336523  88.430  68.204  68.337
21014DT     SC136524  88.299  68.423  68.275
21014DT     SC236525  88.306  68.453  68.062
21014DT     SC336526  88.217  68.673  68.283
21015DG     BB136527  88.448  67.796  68.328
21015DG     BB236528  88.567  67.946  68.021
21015DG     BB336529  88.742  68.035  68.052
21015DG     SC136530  88.620  68.305  68.129
21015DG     SC236531  88.643  68.558  67.973
21015DG     SC336532  88.521  68.608  68.238
21015DG     SC436533  88.583  68.332  68.282
21016DA     BB136534  88.803  67.851  67.766
21016DA     BB236535  88.909  68.159  67.600
21016DA     BB336536  89.091  68.231  67.685
21016DA     SC136537  88.950  68.409  67.898
21016DA     SC236538  88.918  68.652  67.944
21016DA     SC336539  88.864  68.579  68.184
21016DA     SC436540  88.921  68.343  68.042
21017DC     BB136541  89.222  68.226  67.563
21017DC     BB236542  89.260  68.581  67.513
21017DC     BB336543  89.414  68.653  67.632
21017DC     SC136544  89.265  68.636  67.847
21017DC     SC236545  89.217  68.834  67.917
21017DC     SC336546  89.181  68.560  68.085
21018DT     BB136547  89.561  68.682  67.410
21018DT     BB236548  89.570  69.007  67.567
21018DT     BB336549  89.718  69.011  67.711
21018DT     SC136550  89.573  68.867  67.876
21018DT     SC236551  89.511  68.989  68.041
21018DT     SC336552  89.497  68.666  68.028
21019DA     BB136553  89.813  69.344  67.470
21019DA     BB236554  89.832  69.455  67.819
21019DA     BB336555  90.009  69.379  67.911
21019DA     SC136556  89.873  69.118  68.014
21019DA     SC236557  89.804  69.019  68.232
21019DA     SC336558  89.805  68.795  68.108
21019DA     SC436559  89.881  68.988  67.919
21020DA     BB136560  90.115  69.692  67.997
21020DA     BB236561  90.101  69.591  68.349
21020DA     BB336562  90.277  69.483  68.402
21020DA     SC136563  90.158  69.205  68.330
21020DA     SC236564  90.083  68.999  68.450
21020DA     SC336565  90.112  68.881  68.224
21020DA     SC436566  90.183  69.149  68.181
21021DC     BB136567  90.465  69.545  68.550
21021DC     BB236568  90.370  69.333  68.826
21021DC     BB336569  90.511  69.183  68.851
21021DC     SC136570  90.424  69.054  68.640
21021DC     SC236571  90.327  68.872  68.702
21021DC     SC336572  90.420  68.944  68.400
21022DT     BB136573  90.647  69.283  69.088
21022DT     BB236574  90.538  68.954  69.188
21022DT     BB336575  90.689  68.817  69.155
21022DT     SC136576  90.647  68.820  68.896
21022DT     SC236577  90.563  68.632  68.834
21022DT     SC336578  90.689  68.857  68.638
21023DA     BB136579  90.592  68.761  69.559
21023DA     BB236580  90.585  68.432  69.399
21023DA     BB336581  90.783  68.360  69.368
21023DA     SC136582  90.810  68.484  69.084
21023DA     SC236583  90.822  68.404  68.848
21023DA     SC336584  90.926  68.633  68.797
21023DA     SC436585  90.874  68.631  69.073
21024DT     BB136586  90.856  68.189  69.472
21024DT     BB236587  90.834  67.961  69.193
21024DT     BB336588  91.023  67.916  69.123
21024DT     SC136589  91.046  68.152  69.009
21024DT     SC236590  91.042  68.129  68.795
21024DT     SC336591  91.136  68.394  68.956
21025DC     BB136592  91.011  67.662  69.226
21025DC     BB236593  91.067  67.613  68.873
21025DC     BB336594  91.270  67.613  68.834
21025DC     SC136595  91.285  67.873  68.864
21025DC     SC236596  91.323  67.965  68.673
21025DC     SC336597  91.353  68.108  68.963
21026DC     BB136598  91.269  67.342  68.788
21026DC     BB236599  91.394  67.486  68.481
21026DC     BB336600  91.600  67.507  68.492
21026DC     SC136601  91.578  67.713  68.653
21026DC     SC236602  91.639  67.891  68.549
21026DC     SC336603  91.600  67.862  68.870
21027DA     BB136604  91.509  67.302  68.139
21027DA     BB236605  91.727  67.584  68.053
21027DA     BB336606  91.927  67.543  68.115
21027DA     SC136607  91.892  67.671  68.397
21027DA     SC236608  91.973  67.873  68.519
21027DA     SC336609  91.910  67.744  68.732
21027DA     SC436610  91.848  67.574  68.517
21028DA     BB136611  91.956  67.622  67.803
21028DA     BB236612  92.157  67.906  67.920
21028DA     BB336613  92.349  67.840  67.984
21028DA     SC136614  92.261  67.796  68.279
21028DA     SC236615  92.303  67.900  68.502
21028DA     SC336616  92.222  67.677  68.599
21028DA     SC436617  92.209  67.649  68.321
21029DA     BB136618  92.374  68.087  67.777
21029DA     BB236619  92.538  68.261  68.055
21029DA     BB336620  92.727  68.171  68.099
21029DA     SC136621  92.610  67.971  68.308
21029DA     SC236622  92.619  67.937  68.555
21029DA     SC336623  92.546  67.696  68.503
21029DA     SC436624  92.566  67.826  68.255
21030DG     BB136625  92.727  68.473  68.044
21030DG     BB236626  92.845  68.471  68.386
21030DG     BB336627  93.025  68.387  68.396
21030DG     SC136628  92.917  68.104  68.439
21030DG     SC236629  92.947  67.940  68.687
21030DG     SC336630  92.833  67.778  68.468
21030DG     SC436631  92.884  68.013  68.312
21031DT     BB136632  93.110  68.519  68.475
21031DT     BB236633  93.192  68.383  68.799
21031DT     BB336634  93.363  68.267  68.786
21031DT     SC136635  93.232  68.073  68.668
21031DT     SC236636  93.218  67.905  68.802
21031DT     SC336637  93.158  67.899  68.483
21032DA     BB136638  93.361  68.537  69.113
21032DA     BB236639  93.485  68.211  69.226
21032DA     BB336640  93.672  68.167  69.133
21032DA     SC136641  93.543  68.020  68.890
21032DA     SC236642  93.527  67.787  68.803
21032DA     SC336643  93.471  67.897  68.578
21032DA     SC436644  93.512  68.108  68.759
21033DA     BB136645  93.756  68.121  69.450
21033DA     BB236646  93.857  67.782  69.353
21033DA     BB336647  94.035  67.788  69.236
21033DA     SC136648  93.884  67.807  68.964
21033DA     SC236649  93.844  67.663  68.765
21033DA     SC336650  93.788  67.882  68.643
21033DA     SC436651  93.855  67.954  68.906
21034DC     BB136652  94.222  67.714  69.306
21034DC     BB236653  94.241  67.421  69.095
21034DC     BB336654  94.380  67.451  68.945
21034DC     SC136655  94.217  67.611  68.815
21034DC     SC236656  94.152  67.515  68.634
21034DC     SC336657  94.120  67.830  68.704
21035DT     BB136658  94.590  67.289  69.052
21035DT     BB236659  94.545  67.157  68.719
21035DT     BB336660  94.673  67.253  68.588
21035DT     SC136661  94.524  67.469  68.589
21035DT     SC236662  94.428  67.491  68.397
21035DT     SC336663  94.451  67.719  68.626
21036DA     BB136664  94.779  66.850  68.522
21036DA     BB236665  94.720  67.000  68.192
21036DA     BB336666  94.887  67.119  68.134
21036DA     SC136667  94.775  67.381  68.260
21036DA     SC236668  94.684  67.599  68.181
21036DA     SC336669  94.740  67.684  68.417
21036DA     SC436670  94.818  67.415  68.411
21037DT     BB136671  95.026  67.071  67.964
21037DT     BB236672  94.893  67.317  67.736
21037DT     BB336673  95.030  67.469  67.708
21037DT     SC136674  94.980  67.570  67.945
21037DT     SC236675  94.878  67.758  67.922
21037DT     SC336676  95.016  67.648  68.194
21038DA     BB136677  94.933  67.338  67.322
21038DA     BB236678  94.894  67.703  67.328
21038DA     BB336679  95.085  67.798  67.323
21038DA     SC136680  95.115  67.808  67.633
21038DA     SC236681  95.115  67.980  67.813
21038DA     SC336682  95.236  67.803  67.954
21038DA     SC436683  95.191  67.685  67.704
21039DT     BB136684  95.136  67.909  67.160
21039DT     BB236685  95.089  68.231  67.316
21039DT     BB336686  95.273  68.318  67.355
21039DT     SC136687  95.316  68.157  67.557
21039DT     SC236688  95.306  68.268  67.741
21039DT     SC336689  95.426  67.969  67.706
21040DA     BB136690  95.029  68.591  67.151
21040DA     BB236691  95.165  68.758  67.447
21040DA     BB336692  95.373  68.798  67.420
21040DA     SC136693  95.466  68.528  67.544
21040DA     SC236694  95.583  68.451  67.751
21040DA     SC336695  95.634  68.238  67.617
21040DA     SC436696  95.489  68.405  67.444
21041DT     BB136697  95.420  68.986  67.413
21041DT     BB236698  95.569  69.006  67.741
21041DT     BB336699  95.775  69.007  67.725
21041DT     SC136700  95.780  68.751  67.670
21041DT     SC236701  95.868  68.644  67.835
21041DT     SC336702  95.819  68.526  67.537
21042DG     BB136703  95.650  69.336  67.930
21042DG     BB236704  95.904  69.154  68.111
21042DG     BB336705  96.083  69.188  68.031
21042DG     SC136706  96.066  68.955  67.834
21042DG     SC236707  96.237  68.709  67.837
21042DG     SC336708  96.074  68.721  67.591
21042DG     SC436709  96.000  68.979  67.690
21043DA     BB136710  96.177  69.263  68.356
21043DA     BB236711  96.433  69.000  68.341
21043DA     BB336712  96.597  69.064  68.220
21043DA     SC136713  96.480  68.948  67.956
21043DA     SC236714  96.530  68.762  67.798
21043DA     SC336715  96.389  68.894  67.629
21043DA     SC436716  96.390  69.046  67.865
21044DT     BB136717  96.774  69.093  68.310
21044DT     BB236718  96.938  68.799  68.181
21044DT     BB336719  97.069  68.851  68.030
21044DT     SC136720  96.872  68.892  67.861
21044DT     SC236721  96.875  68.739  67.710
21044DT     SC336722  96.707  69.016  67.697
21045DA     BB136723  97.289  68.620  68.301
21045DA     BB236724  97.352  68.488  67.966
21045DA     BB336725  97.481  68.619  67.857
21045DA     SC136726  97.248  68.785  67.735
21045DA     SC236727  97.144  68.820  67.511
21045DA     SC336728  97.050  69.037  67.610
21045DA     SC436729  97.200  68.916  67.814
21046DG     BB136730  97.670  68.373  67.845
21046DG     BB236731  97.606  68.396  67.490
21046DG     BB336732  97.726  68.532  67.408
21046DG     SC136733  97.532  68.765  67.452
21046DG     SC236734  97.392  68.919  67.237
21046DG     SC336735  97.353  69.047  67.501
21046DG     SC436736  97.538  68.847  67.589
21047DA     BB136737  97.802  68.281  67.185
21047DA     BB236738  97.682  68.491  66.910
21047DA     BB336739  97.824  68.645  66.866
21047DA     SC136740  97.699  68.851  67.062
21047DA     SC236741  97.572  69.065  67.048
21047DA     SC336742  97.647  69.102  67.291
21047DA     SC436743  97.757  68.856  67.212
21048DC     BB136744  97.901  68.629  66.694
21048DC     BB236745  97.725  68.904  66.541
21048DC     BB336746  97.849  69.070  66.531
21048DC     SC136747  97.822  69.115  66.788
21048DC     SC236748  97.707  69.294  66.818
21048DC     SC336749  97.885  69.143  67.043
21049DA     BB136750  97.670  68.996  66.158
21049DA     BB236751  97.634  69.353  66.235
21049DA     BB336752  97.823  69.450  66.223
21049DA     SC136753  97.893  69.405  66.523
21049DA     SC236754  97.916  69.543  66.730
21049DA     SC336755  98.054  69.346  66.820
21049DA     SC436756  97.976  69.273  66.561
21050DG     BB136757  97.665  69.613  66.012
21050DG     BB236758  97.733  69.885  66.240
21050DG     BB336759  97.920  69.947  66.218
21050DG     SC136760  98.034  69.754  66.426
21050DG     SC236761  98.155  69.831  66.688
21050DG     SC336762  98.196  69.543  66.634
21050DG     SC436763  98.080  69.608  66.380
21051DT     BB136764  97.976  70.155  66.144
21051DT     BB236765  98.099  70.312  66.445
21051DT     BB336766  98.305  70.323  66.440
21051DT     SC136767  98.328  70.066  66.490
21051DT     SC236768  98.407  70.039  66.688
21051DT     SC336769  98.387  69.811  66.459
21052DA     BB136770  98.193  70.722  66.511
21052DA     BB236771  98.457  70.640  66.752
21052DA     BB336772  98.647  70.638  66.657
21052DA     SC136773  98.636  70.336  66.584
21052DA     SC236774  98.751  70.125  66.652
21052DA     SC336775  98.667  70.031  66.429
21052DA     SC436776  98.576  70.297  66.440
21053DT     BB136777  98.812  70.788  66.693
21053DT     BB236778  99.026  70.569  66.885
21053DT     BB336779  99.195  70.522  66.775
21053DT     SC136780  99.059  70.358  66.622
21053DT     SC236781  99.119  70.155  66.663
21053DT     SC336782  98.948  70.254  66.406
21054DT     BB136783  99.370  70.687  66.922
21054DT     BB236784  99.521  70.360  66.946
21054DT     BB336785  99.655  70.333  66.791
21054DT     SC136786  99.461  70.300  66.617
21054DT     SC236787  99.458  70.095  66.552
21054DT     SC336788  99.304  70.342  66.410
21055DA     BB136789  99.872  70.246  67.139
21055DA     BB236790  99.925  69.969  66.905
21055DA     BB336791 100.061  70.026  66.751
21055DA     SC136792  99.838  70.130  66.559
21055DA     SC236793  99.735  70.062  66.343
21055DA     SC336794  99.656  70.306  66.328
21055DA     SC436795  99.800  70.286  66.568
21056DA     BB136796 100.220  69.757  66.849
21056DA     BB236797 100.168  69.623  66.512
21056DA     BB336798 100.304  69.712  66.375
21056DA     SC136799 100.114  69.947  66.299
21056DA     SC236800  99.981  70.020  66.101
21056DA     SC336801  99.983  70.251  66.211
21056DA     SC436802 100.127  70.083  66.382
21057DA     BB136803 100.366  69.396  66.315
21057DA     BB236804 100.256  69.460  65.971
21057DA     BB336805 100.406  69.566  65.863
21057DA     SC136806 100.295  69.847  65.938
21057DA     SC236807 100.182  70.038  65.823
21057DA     SC336808 100.262  70.179  66.022
21057DA     SC436809 100.356  69.918  66.069
21058DC     BB136810 100.498  69.473  65.709
21058DC     BB236811 100.334  69.654  65.443
21058DC     BB336812 100.465  69.791  65.360
21058DC     SC136813 100.442  69.950  65.567
21058DC     SC236814 100.336  70.128  65.509
21058DC     SC336815 100.508  70.090  65.781
21059DA     BB136816 100.306  69.564  65.045
21059DA     BB236817 100.277  69.919  64.954
21059DA     BB336818 100.468  69.998  64.902
21059DA     SC136819 100.536  70.090  65.191
21059DA     SC236820 100.562  70.305  65.315
21059DA     SC336821 100.695  70.167  65.485
21059DA     SC436822 100.617  69.987  65.285
21060DA     BB136823 100.301  70.083  64.633
21060DA     BB236824 100.379  70.431  64.718
21060DA     BB336825 100.583  70.474  64.672
21060DA     SC136826 100.688  70.394  64.954
21060DA     SC236827 100.785  70.508  65.154
21060DA     SC336828 100.876  70.276  65.216
21060DA     SC436829 100.737  70.242  64.974
21061DT     BB136830 100.616  70.605  64.529
21061DT     BB236831 100.721  70.878  64.741
21061DT     BB336832 100.927  70.898  64.733
21061DT     SC136833 100.961  70.686  64.883
21061DT     SC236834 101.037  70.745  65.075
21061DT     SC336835 101.036  70.444  64.957
21062DT     BB136836 100.884  71.123  64.597
21062DT     BB236837 101.081  71.223  64.883
21062DT     BB336838 101.282  71.191  64.844
21062DT     SC136839 101.255  70.932  64.875
21062DT     SC236840 101.355  70.870  65.055
21062DT     SC336841 101.253  70.674  64.818
21063DG     BB136842 101.230  71.584  64.939
21063DG     BB236843 101.491  71.433  65.138
21063DG     BB336844 101.656  71.413  65.029
21063DG     SC136845 101.584  71.134  64.925
21063DG     SC236846 101.727  70.880  64.991
21063DG     SC336847 101.527  70.837  64.777
21063DG     SC436848 101.497  71.121  64.791
21064DC     BB136849 101.841  71.518  65.084
21064DC     BB236850 102.046  71.250  65.212
21064DC     BB336851 102.185  71.193  65.070
21064DC     SC136852 102.002  71.069  64.929
21064DC     SC236853 102.035  70.857  64.939
21064DC     SC336854 101.843  71.010  64.727
21065DT     BB136855 102.397  71.312  65.205
21065DT     BB236856 102.503  70.970  65.163
21065DT     BB336857 102.602  70.948  64.982
21065DT     SC136858 102.377  70.960  64.848
21065DT     SC236859 102.333  70.767  64.764
21065DT     SC336860 102.191  71.047  64.682
21066DA     BB136861 102.884  70.797  65.256
21066DA     BB236862 102.852  70.550  64.987
21066DA     BB336863 102.957  70.616  64.813
21066DA     SC136864 102.712  70.763  64.691
21066DA     SC236865 102.557  70.735  64.498
21066DA     SC336866 102.505  70.985  64.529
21066DA     SC436867 102.694  70.920  64.725
21067DA     BB136868 103.130  70.330  64.819
21067DA     BB236869 102.977  70.247  64.497
21067DA     BB336870 103.082  70.344  64.338
21067DA     SC136871 102.903  70.599  64.344
21067DA     SC236872 102.731  70.707  64.199
21067DA     SC336873 102.784  70.921  64.330
21067DA     SC436874 102.951  70.721  64.436
21068DT     BB136875 103.199  70.236  64.184
21068DT     BB236876 102.951  70.269  63.925
21068DT     BB336877 103.018  70.399  63.778
21068DT     SC136878 102.974  70.607  63.932
21068DT     SC236879 102.810  70.721  63.854
21068DT     SC336880 103.021  70.822  64.078
21069DG     BB136881 102.934  70.041  63.605
21069DG     BB236882 102.750  70.312  63.451
21069DG     BB336883 102.868  70.413  63.328
21069DG     SC136884 102.965  70.610  63.541
21069DG     SC236885 102.906  70.902  63.550
21069DG     SC336886 103.107  70.829  63.754
21069DG     SC436887 103.093  70.572  63.629
21070DT     BB136888 102.795  70.411  63.148
21070DT     BB236889 102.663  70.745  63.120
21070DT     BB336890 102.799  70.867  63.023
21070DT     SC136891 102.952  70.878  63.236
21070DT     SC236892 102.945  71.077  63.319
21070DT     SC336893 103.163  70.848  63.392
21071DA     BB136894 102.398  70.893  62.894
21071DA     BB236895 102.529  71.231  62.950
21071DA     BB336896 102.679  71.277  62.806
21071DA     SC136897 102.913  71.171  62.981
21071DA     SC236898 103.107  71.265  63.107
21071DA     SC336899 103.205  71.028  63.094
21071DA     SC436900 102.958  71.018  62.962
21072DA     BB136901 102.458  71.518  62.825
21072DA     BB236902 102.745  71.732  62.903
21072DA     BB336903 102.876  71.744  62.735
21072DA     SC136904 103.049  71.501  62.821
21072DA     SC236905 103.280  71.460  62.906
21072DA     SC336906 103.244  71.219  62.827
21072DA     SC436907 103.008  71.356  62.764
21073DC     BB136908 102.875  71.910  62.686
21073DC     BB236909 103.211  71.993  62.788
21073DC     BB336910 103.342  71.968  62.630
21073DC     SC136911 103.332  71.707  62.653
21073DC     SC236912 103.522  71.635  62.725
21073DC     SC336913 103.287  71.454  62.595
21074DT     BB136914 103.357  72.232  62.627
21074DT     BB236915 103.699  72.120  62.654
21074DT     BB336916 103.772  72.072  62.466
21074DT     SC136917 103.634  71.849  62.462
21074DT     SC236918 103.768  71.681  62.477
21074DT     SC336919 103.457  71.668  62.387
21075DA     BB136920 104.052  72.338  62.633
21075DA     BB236921 104.238  72.057  62.489
21075DA     BB336922 104.238  72.068  62.276
21075DA     SC136923 103.979  71.898  62.243
21075DA     SC236924 103.917  71.672  62.158
21075DA     SC336925 103.680  71.767  62.138
21075DA     SC436926 103.839  71.976  62.237
21076DT     BB136927 104.413  72.108  62.165
21076DT     BB236928 104.460  71.777  62.029
21076DT     BB336929 104.409  71.776  61.828
21076DT     SC136930 104.153  71.785  61.884
21076DT     SC236931 104.062  71.597  61.832
21076DT     SC336932 103.905  71.873  61.897
21077DA     BB136933 104.801  71.621  61.819
21077DA     BB236934 104.594  71.400  61.613
21077DA     BB336935 104.554  71.490  61.424
21077DA     SC136936 104.292  71.629  61.517
21077DA     SC236937 104.047  71.607  61.476
21077DA     SC336938 104.032  71.847  61.564
21077DA     SC436939 104.303  71.779  61.573
21078DA     BB136940 104.684  71.219  61.273
21078DA     BB236941 104.356  71.162  61.119
21078DA     BB336942 104.331  71.288  60.949
21078DA     SC136943 104.202  71.521  61.109
21078DA     SC236944 103.978  71.629  61.130
21078DA     SC336945 104.106  71.829  61.226
21078DA     SC436946 104.300  71.636  61.165
21079DT     BB136947 104.321  71.221  60.725
21079DT     BB236948 103.965  71.267  60.687
21079DT     BB336949 103.927  71.425  60.559
21079DT     SC136950 103.993  71.600  60.744
21079DT     SC236951 103.817  71.705  60.808
21079DT     SC336952 104.124  71.793  60.868
21080DA     BB136953 103.711  71.114  60.376
21080DA     BB236954 103.482  71.398  60.412
21080DA     BB336955 103.520  71.543  60.261
21080DA     SC136956 103.725  71.703  60.432
21080DA     SC236957 103.738  71.924  60.546
21080DA     SC336958 103.992  71.890  60.540
21080DA     SC436959 103.881  71.663  60.417
21081DG     BB136960 103.227  71.497  60.155
21081DG     BB236961 103.179  71.837  60.270
21081DG     BB336962 103.229  71.965  60.126
21081DG     SC136963 103.522  71.985  60.210
21081DG     SC236964 103.656  72.228  60.322
21081DG     SC336965 103.854  72.016  60.263
21081DG     SC436966 103.628  71.881  60.151
21082DA     BB136967 102.920  72.098  60.189
21082DA     BB236968 103.077  72.416  60.281
21082DA     BB336969 103.140  72.520  60.106
21082DA     SC136970 103.424  72.394  60.103
21082DA     SC236971 103.659  72.468  60.143
21082DA     SC336972 103.726  72.259  60.009
21082DA     SC436973 103.445  72.260  60.016
21083DG     BB136974 102.948  72.716  60.242
21083DG     BB236975 103.250  72.913  60.271
21083DG     BB336976 103.293  72.998  60.096
21083DG     SC136977 103.464  72.764  59.996
21083DG     SC236978 103.758  72.770  59.947
21083DG     SC336979 103.640  72.518  59.847
21083DG     SC436980 103.393  72.644  59.918
21084DC     BB136981 103.297  73.198  60.103
21084DC     BB236982 103.649  73.271  60.076
21084DC     BB336983 103.697  73.316  59.879
21084DC     SC136984 103.681  73.063  59.810
21084DC     SC236985 103.877  72.989  59.764
21084DC     SC336986 103.597  72.844  59.690
21085DT     BB136987 103.729  73.568  59.960
21085DT     BB236988 104.042  73.482  59.802
21085DT     BB336989 104.027  73.509  59.597
21085DT     SC136990 103.883  73.291  59.572
21085DT     SC236991 103.999  73.140  59.470
21085DT     SC336992 103.678  73.134  59.518
21086DT     BB136993 104.182  73.737  59.603
21086DT     BB236994 104.348  73.526  59.362
21086DT     BB336995 104.268  73.557  59.174
21086DT     SC136996 104.051  73.422  59.236
21086DT     SC236997 104.049  73.237  59.126
21086DT     SC336998 103.797  73.368  59.283
21087DA     BB136999 104.678  73.627  59.104
21087DA     BB237000 104.562  73.397  58.842
21087DA     BB337001 104.451  73.504  58.694
21087DA     SC137002 104.177  73.464  58.834
21087DA     SC237003 103.966  73.336  58.794
21087DA     SC337004 103.858  73.504  58.956
21087DA     SC437005 104.128  73.578  58.936
21088DT     BB137006 104.516  73.541  58.475
21088DT     BB237007 104.292  73.299  58.328
21088DT     BB337008 104.145  73.396  58.219
21088DT     SC137009 104.021  73.471  58.437
21088DT     SC237010 103.835  73.364  58.454
21088DT     SC337011 103.919  73.627  58.623
21089DT     BB137012 104.251  73.326  57.967
21089DT     BB237013 103.917  73.191  57.964
21089DT     BB337014 103.785  73.329  57.885
21089DT     SC137015 103.792  73.472  58.105
21089DT     SC237016 103.602  73.459  58.205
21089DT     SC337017 103.834  73.676  58.267
21090DA     BB137018 103.735  72.966  57.686
21090DA     BB237019 103.406  73.079  57.801
21090DA     BB337020 103.338  73.243  57.681
21090DA     SC137021 103.464  73.461  57.865
21090DA     SC237022 103.385  73.637  58.022
21090DA     SC337023 103.617  73.742  57.987
21090DA     SC437024 103.612  73.511  57.829
21091DG     BB137025 103.117  73.037  57.641
21091DG     BB237026 102.920  73.287  57.812
21091DG     BB337027 102.869  73.432  57.685
21091DG     SC137028 103.118  73.601  57.740
21091DG     SC237029 103.123  73.868  57.873
21091DG     SC337030 103.389  73.801  57.760
21091DG     SC437031 103.250  73.575  57.653
21092DT     BB137032 102.673  73.450  57.670
21092DT     BB237033 102.609  73.758  57.847
21092DT     BB337034 102.597  73.915  57.713
21092DT     SC137035 102.858  73.916  57.679
21092DT     SC237036 102.941  74.094  57.767
21092DT     SC337037 103.093  73.895  57.561
21093DC     BB137038 102.345  73.911  57.781
21093DC     BB237039 102.455  74.248  57.847
21093DC     BB337040 102.455  74.358  57.671
21093DC     SC137041 102.672  74.237  57.587
21093DC     SC237042 102.836  74.376  57.588
21093DC     SC337043 102.832  74.088  57.439
21094DA     BB137044 102.243  74.579  57.959
21094DA     BB237045 102.472  74.808  57.788
21094DA     BB337046 102.404  74.846  57.589
21094DA     SC137047 102.565  74.611  57.463
21094DA     SC237048 102.762  74.582  57.313
21094DA     SC337049 102.669  74.346  57.271
21094DA     SC437050 102.491  74.469  57.449
21095DT     BB137051 102.329  75.037  57.526
21095DT     BB237052 102.606  75.133  57.316
21095DT     BB337053 102.552  75.118  57.116
21095DT     SC137054 102.567  74.857  57.124
21095DT     SC237055 102.736  74.792  57.007
21095DT     SC337056 102.494  74.603  57.113
21096DT     BB137057 102.507  75.402  57.050
21096DT     BB237058 102.738  75.297  56.793
21096DT     BB337059 102.634  75.239  56.624
21096DT     SC137060 102.560  75.014  56.737
21096DT     SC237061 102.661  74.850  56.641
21096DT     SC337062 102.405  74.827  56.838
21097DT     BB137063 102.660  75.476  56.429
21097DT     BB237064 102.783  75.199  56.232
21097DT     BB337065 102.632  75.128  56.109
21097DT     SC137066 102.511  75.012  56.311
21097DT     SC237067 102.528  74.799  56.291
21097DT     SC337068 102.326  74.956  56.490
21098DT     BB137069 102.699  75.237  55.829
21098DT     BB237070 102.688  74.880  55.778
21098DT     BB337071 102.505  74.826  55.699
21098DT     SC137072 102.387  74.859  55.931
21098DT     SC237073 102.328  74.667  56.009
21098DT     SC337074 102.225  74.956  56.116
21099DT     BB137075 102.586  74.770  55.424
21099DT     BB237076 102.455  74.456  55.544
21099DT     BB337077 102.256  74.437  55.488
21099DT     SC137078 102.180  74.610  55.670
21099DT     SC237079 102.070  74.507  55.824
21099DT     SC337080 102.079  74.828  55.778
21100DC     BB137081 102.343  74.245  55.325
21100DC     BB237082 102.124  74.083  55.561
21100DC     BB337083 101.928  74.097  55.496
21100DC     SC137084 101.914  74.350  55.563
21100DC     SC237085 101.782  74.373  55.731
21100DC     SC337086 101.889  74.612  55.540
21101DT     BB137087 101.986  73.847  55.491
21101DT     BB237088 101.715  73.884  55.726
21101DT     BB337089 101.536  73.910  55.625
21101DT     SC137090 101.598  74.157  55.563
21101DT     SC237091 101.471  74.292  55.672
21101DT     SC337092 101.657  74.369  55.417
21102DA     BB137093 101.553  73.647  55.960
21102DA     BB237094 101.259  73.864  55.988
21102DA     BB337095 101.122  73.824  55.829
21102DA     SC137096 101.246  74.037  55.638
21102DA     SC237097 101.182  74.257  55.541
21102DA     SC337098 101.361  74.209  55.364
21102DA     SC437099 101.361  73.987  55.537
21103DA     BB137100 100.960  73.822  56.115
21103DA     BB237101 100.749  74.081  55.962
21103DA     BB337102 100.640  74.000  55.798
21103DA     SC137103 100.857  74.069  55.586
21103DA     SC237104 100.885  74.226  55.395
21103DA     SC337105 101.069  74.066  55.316
21103DA     SC437106 100.967  73.956  55.553
21104DT     BB137107 100.454  73.997  55.827
21104DT     BB237108 100.364  74.257  55.594
21104DT     BB337109 100.296  74.173  55.417
21104DT     SC137110 100.539  74.107  55.345
21104DT     SC237111 100.600  74.229  55.178
21104DT     SC337112 100.747  73.959  55.280
21105DG     BB137113  99.992  74.408  55.554
21105DG     BB237114 100.068  74.481  55.209
21105DG     BB337115  99.988  74.343  55.091
21105DG     SC137116 100.233  74.159  55.098
21105DG     SC237117 100.412  74.096  54.868
21105DG     SC337118 100.476  73.925  55.101
21105DG     SC437119 100.244  74.050  55.215
21106DA     BB137120  99.839  74.599  54.908
21106DA     BB237121 100.013  74.488  54.605
21106DA     BB337122  99.917  74.315  54.523
21106DA     SC137123 100.091  74.113  54.683
21106DA     SC237124 100.270  73.946  54.635
21106DA     SC337125 100.205  73.842  54.861
21106DA     SC437126 100.035  74.062  54.825
21107DA     BB137127  99.918  74.507  54.258
21107DA     BB237128 100.120  74.248  54.095
21107DA     BB337129  99.998  74.081  54.043
21107DA     SC137130 100.045  73.931  54.312
21107DA     SC237131 100.165  73.727  54.391
21107DA     SC337132 100.011  73.742  54.596
21107DA     SC437133  99.940  73.957  54.430
21108DT     BB137134  99.983  74.052  53.856
21108DT     BB237135 100.190  73.757  53.836
21108DT     BB337136 100.072  73.588  53.825
21108DT     SC137137 100.012  73.604  54.080
21108DT     SC237138 100.105  73.442  54.186
21108DT     SC337139  99.869  73.632  54.300
21109DT     BB137140 100.153  73.569  53.573
21109DT     BB237141 100.237  73.250  53.720
21109DT     BB337142 100.071  73.126  53.718
21109DT     SC137143  99.960  73.258  53.916
21109DT     SC237144  99.959  73.135  54.092
21109DT     SC337145  99.788  73.407  54.049
21110DA     BB137146 100.385  72.906  53.543
21110DA     BB237147 100.215  72.687  53.783
21110DA     BB337148 100.024  72.628  53.707
21110DA     SC137149  99.873  72.867  53.838
21110DA     SC237150  99.709  72.903  54.022
21110DA     SC337151  99.658  73.126  53.905
21110DA     SC437152  99.855  73.000  53.749
21111DA     BB137153 100.107  72.302  53.741
21111DA     BB237154  99.823  72.261  53.968
21111DA     BB337155  99.642  72.240  53.858
21111DA     SC137156  99.580  72.545  53.855
21111DA     SC237157  99.414  72.701  53.957
21111DA     SC337158  99.480  72.862  53.768
21111DA     SC437159  99.633  72.631  53.729
21112DT     BB137160  99.500  72.046  53.829
21112DT     BB237161  99.231  72.158  54.043
21112DT     BB337162  99.062  72.195  53.930
21112DT     SC137163  99.164  72.418  53.836
21112DT     SC237164  99.057  72.585  53.917
21112DT     SC337165  99.259  72.594  53.664
21113DT     BB137166  98.905  71.959  53.997
21113DT     BB237167  98.685  72.232  54.084
21113DT     BB337168  98.558  72.274  53.926
21113DT     SC137169  98.752  72.390  53.791
21113DT     SC237170  98.715  72.601  53.781
21113DT     SC337171  98.928  72.437  53.601
21114DA     BB137172  98.294  72.214  54.246
21114DA     BB237173  98.202  72.532  54.088
21114DA     BB337174  98.094  72.496  53.908
21114DA     SC137175  98.347  72.494  53.727
21114DA     SC237176  98.450  72.637  53.551
21114DA     SC337177  98.580  72.426  53.484
21114DA     SC437178  98.417  72.351  53.699
21115DG     BB137179  97.856  72.651  54.041
21115DG     BB237180  97.919  72.890  53.777
21115DG     BB337181  97.821  72.837  53.613
21115DG     SC137182  98.050  72.666  53.502
21115DG     SC237183  98.210  72.724  53.257
21115DG     SC337184  98.271  72.455  53.361
21115DG     SC437185  98.058  72.512  53.544
21116DT     BB137186  97.660  72.966  53.523
21116DT     BB237187  97.832  73.104  53.238
21116DT     BB337188  97.766  73.013  53.064
21116DT     SC137189  97.901  72.794  53.119
21116DT     SC237190  98.064  72.775  52.980
21116DT     SC337191  97.953  72.542  53.176
21117DT     BB137192  97.626  73.238  52.988
21117DT     BB237193  97.848  73.173  52.711
21117DT     BB337194  97.757  73.044  52.577
21117DT     SC137195  97.795  72.839  52.736
21117DT     SC237196  97.942  72.708  52.649
21117DT     SC337197  97.743  72.634  52.894
21118DA     BB137198  97.879  73.374  52.348
21118DA     BB237199  97.994  73.071  52.175
21118DA     BB337200  97.831  72.974  52.079
21118DA     SC137201  97.762  72.794  52.323
21118DA     SC237202  97.774  72.552  52.384
21118DA     SC337203  97.600  72.609  52.563
21118DA     SC437204  97.652  72.849  52.427
21119DT     BB137205  97.815  72.962  51.864
21119DT     BB237206  97.905  72.613  51.837
21119DT     BB337207  97.739  72.501  51.785
21119DT     SC137208  97.640  72.521  52.028
21119DT     SC237209  97.649  72.329  52.125
21119DT     SC337210  97.477  72.585  52.225
21120DC     BB137211  97.831  72.461  51.528
21120DC     BB237212  97.788  72.128  51.662
21120DC     BB337213  97.595  72.062  51.625
21120DC     SC137214  97.497  72.217  51.812
21120DC     SC237215  97.428  72.097  51.977
21120DC     SC337216  97.358  72.409  51.928
21121DA     BB137217  97.870  71.773  51.498
21121DA     BB237218  97.620  71.609  51.710
21121DA     BB337219  97.434  71.594  51.608
21121DA     SC137220  97.326  71.866  51.713
21121DA     SC237221  97.150  71.947  51.870
21121DA     SC337222  97.170  72.170  51.745
21121DA     SC437223  97.352  71.996  51.622
21122DT     BB137224  97.389  71.418  51.579
21122DT     BB237225  97.129  71.399  51.828
21122DT     BB337226  96.943  71.419  51.738
21122DT     SC137227  96.979  71.677  51.705
21122DT     SC237228  96.845  71.784  51.836
21122DT     SC337229  97.010  71.910  51.586
21123DT     BB137230  96.923  71.168  51.806
21123DT     BB237231  96.643  71.333  51.962
21123DT     BB337232  96.492  71.362  51.824
21123DT     SC137233  96.623  71.557  51.708
21123DT     SC237234  96.522  71.743  51.747
21123DT     SC337235  96.752  71.695  51.524
21124DA     BB137236  96.341  71.188  52.176
21124DA     BB237237  96.121  71.465  52.079
21124DA     BB337238  96.013  71.416  51.902
21124DA     SC137239  96.226  71.534  51.709
21124DA     SC237240  96.248  71.728  51.555
21124DA     SC337241  96.437  71.594  51.445
21124DA     SC437242  96.340  71.434  51.654
21125DA     BB137243  95.762  71.503  52.098
21125DA     BB237244  95.680  71.757  51.847
21125DA     BB337245  95.596  71.665  51.674
21125DA     SC137246  95.870  71.629  51.530
21125DA     SC237247  95.989  71.725  51.333
21125DA     SC337248  96.133  71.513  51.343
21125DA     SC437249  95.947  71.490  51.552
21126DT     BB137250  95.395  71.695  51.620
21126DT     BB237251  95.453  71.909  51.335
21126DT     BB337252  95.420  71.803  51.160
21126DT     SC137253  95.646  71.673  51.187
21126DT     SC237254  95.784  71.738  51.035
21126DT     SC337255  95.815  71.473  51.220
21127DA     BB137256  95.164  72.135  51.110
21127DA     BB237257  95.359  72.101  50.801
21127DA     BB337258  95.283  71.941  50.683
21127DA     SC137259  95.470  71.727  50.810
21127DA     SC237260  95.666  71.589  50.741
21127DA     SC337261  95.603  71.438  50.939
21127DA     SC437262  95.414  71.645  50.936
21128DT     BB137263  95.176  71.959  50.480
21128DT     BB237264  95.454  71.847  50.280
21128DT     BB337265  95.413  71.661  50.198
21128DT     SC137266  95.450  71.543  50.430
21128DT     SC237267  95.630  71.424  50.421
21128DT     SC337268  95.400  71.405  50.649
21129DA     BB137269  95.513  71.893  49.863
21129DA     BB237270  95.718  71.589  49.852
21129DA     BB337271  95.601  71.424  49.783
21129DA     SC137272  95.512  71.338  50.068
21129DA     SC237273  95.554  71.150  50.226
21129DA     SC337274  95.335  71.223  50.340
21129DA     SC437275  95.373  71.398  50.124
21130DT     BB137276  95.650  71.340  49.606
21130DT     BB237277  95.812  71.050  49.747
21130DT     BB337278  95.692  70.883  49.724
21130DT     SC137279  95.531  70.963  49.915
21130DT     SC237280  95.551  70.834  50.085
21130DT     SC337281  95.311  71.046  50.036
21131DA     BB137282  96.084  70.810  49.593
21131DA     BB237283  95.986  70.543  49.824
21131DA     BB337284  95.841  70.416  49.733
21131DA     SC137285  95.597  70.579  49.838
21131DA     SC237286  95.413  70.549  50.003
21131DA     SC337287  95.293  70.735  49.872
21131DA     SC437288  95.539  70.694  49.742
21132DA     BB137289  96.077  70.222  49.846
21132DA     BB237290  95.815  70.071  50.054
21132DA     BB337291  95.679  69.961  49.932
21132DA     SC137292  95.487  70.201  49.886
21132DA     SC237293  95.257  70.270  49.954
21132DA     SC337294  95.267  70.429  49.753
21132DA     SC437295  95.512  70.292  49.756
21133DA     BB137296  95.770  69.753  50.167
21133DA     BB237297  95.415  69.740  50.257
21133DA     BB337298  95.304  69.636  50.107
21133DA     SC137299  95.241  69.892  49.942
21133DA     SC237300  95.042  70.033  49.888
21133DA     SC337301  95.181  70.117  49.689
21133DA     SC437302  95.343  69.931  49.823
21134DG     BB137303  95.245  69.467  50.357
21134DG     BB237304  94.909  69.583  50.294
21134DG     BB337305  94.829  69.480  50.143
21134DG     SC137306  94.928  69.672  49.927
21134DG     SC237307  94.757  69.846  49.755
21134DG     SC337308  95.037  69.850  49.662
21134DG     SC437309  95.072  69.648  49.862
21135DA     BB137310  94.572  69.440  50.369
21135DA     BB237311  94.344  69.602  50.131
21135DA     BB337312  94.302  69.471  49.968
21135DA     SC137313  94.538  69.573  49.793
21135DA     SC237314  94.569  69.706  49.584
21135DA     SC337315  94.802  69.599  49.575
21135DA     SC437316  94.678  69.495  49.805
21136DT     BB137317  94.124  69.425  49.964
21136DT     BB237318  94.033  69.628  49.680
21136DT     BB337319  94.028  69.511  49.509
21136DT     SC137320  94.290  69.503  49.497
21136DT     SC237321  94.358  69.617  49.328
21136DT     SC337322  94.535  69.406  49.498
21137DC     BB137323  93.774  69.560  49.530
21137DC     BB237324  93.869  69.683  49.205
21137DC     BB337325  93.883  69.525  49.071
21137DC     SC137326  94.110  69.445  49.177
21137DC     SC237327  94.270  69.481  49.037
21137DC     SC337328  94.285  69.293  49.301
21138DA     BB137329  93.666  69.857  48.924
21138DA     BB237330  93.904  69.746  48.668
21138DA     BB337331  93.850  69.553  48.595
21138DA     SC137332  94.022  69.400  48.804
21138DA     SC237333  94.229  69.261  48.807
21138DA     SC337334  94.142  69.171  49.031
21138DA     SC437335  93.950  69.355  48.941
21139DA     BB137336  93.892  69.740  48.327
21139DA     BB237337  94.139  69.490  48.223
21139DA     BB337338  94.043  69.304  48.180
21139DA     SC137339  94.070  69.194  48.469
21139DA     SC237340  94.199  69.016  48.588
21139DA     SC337341  94.019  69.036  48.770
21139DA     SC437342  93.948  69.220  48.571
21140DT     BB137343  94.051  69.251  47.998
21140DT     BB237344  94.277  68.972  48.035
21140DT     BB337345  94.170  68.795  48.042
21140DT     SC137346  94.091  68.844  48.287
21140DT     SC237347  94.186  68.706  48.422
21140DT     SC337348  93.932  68.893  48.492
21141DT     BB137349  94.230  68.711  47.779
21141DT     BB237350  94.324  68.427  47.981
21141DT     BB337351  94.162  68.299  48.002
21141DT     SC137352  94.046  68.461  48.173
21141DT     SC237353  94.048  68.371  48.368
21141DT     SC337354  93.868  68.625  48.277
21142DG     BB137355  94.423  68.044  47.810
21142DG     BB237356  94.294  67.889  48.110
21142DG     BB337357  94.116  67.807  48.074
21142DG     SC137358  93.959  68.060  48.145
21142DG     SC237359  93.775  68.092  48.377
21142DG     SC337360  93.756  68.324  48.195
21142DG     SC437361  93.930  68.168  48.030
21143DT     BB137362  94.059  67.572  48.083
21143DT     BB237363  93.880  67.564  48.396
21143DT     BB337364  93.678  67.536  48.362
21143DT     SC137365  93.650  67.785  48.281
21143DT     SC237366  93.536  67.894  48.427
21143DT     SC337367  93.601  67.990  48.124
21144DG     BB137368  93.794  67.225  48.598
21144DG     BB237369  93.515  67.403  48.743
21144DG     BB337370  93.346  67.348  48.655
21144DG     SC137371  93.360  67.562  48.437
21144DG     SC237372  93.173  67.793  48.405
21144DG     SC337373  93.354  67.771  48.172
21144DG     SC437374  93.438  67.530  48.301
21145DT     BB137375  93.200  67.260  48.777
21145DT     BB237376  92.960  67.527  48.808
21145DT     BB337377  92.801  67.494  48.679
21145DT     SC137378  92.945  67.564  48.471
21145DT     SC237379  92.873  67.752  48.395
21145DT     SC337380  93.073  67.548  48.241
21146DG     BB137381  92.666  67.536  49.061
21146DG     BB237382  92.493  67.757  48.833
21146DG     BB337383  92.363  67.653  48.724
21146DG     SC137384  92.563  67.590  48.501
21146DG     SC237385  92.550  67.692  48.220
21146DG     SC337386  92.760  67.486  48.248
21146DG     SC437387  92.653  67.459  48.512
21147DT     BB137388  92.155  67.700  48.741
21147DT     BB237389  92.089  67.865  48.427
21147DT     BB337390  91.999  67.734  48.295
21147DT     SC137391  92.225  67.609  48.253
21147DT     SC237392  92.292  67.649  48.052
21147DT     SC337393  92.405  67.416  48.248
21148DA     BB137394  91.740  68.067  48.302
21148DA     BB237395  91.798  67.979  47.951
21148DA     BB337396  91.691  67.802  47.899
21148DA     SC137397  91.923  67.610  47.974
21148DA     SC237398  92.083  67.459  47.855
21148DA     SC337399  92.112  67.344  48.083
21148DA     SC437400  91.926  67.551  48.123
21149DC     BB137401  91.508  67.785  47.757
21149DC     BB237402  91.686  67.634  47.482
21149DC     BB337403  91.626  67.438  47.458
21149DC     SC137404  91.761  67.362  47.670
21149DC     SC237405  91.928  67.240  47.608
21149DC     SC337406  91.813  67.267  47.910
21150DC     BB137407  91.459  67.466  47.221
21150DC     BB237408  91.707  67.222  47.124
21150DC     BB337409  91.635  67.031  47.158
21150DC     SC137410  91.670  67.056  47.417
21150DC     SC237411  91.831  66.927  47.480
21150DC     SC337412  91.615  67.070  47.674
21151DG     BB137413  91.697  67.022  46.752
21151DG     BB237414  91.878  66.754  46.916
21151DG     BB337415  91.758  66.598  46.942
21151DG     SC137416  91.658  66.689  47.217
21151DG     SC237417  91.713  66.553  47.477
21151DG     SC337418  91.513  66.768  47.511
21151DG     SC437419  91.530  66.785  47.225
21152DA     BB137420  92.008  66.423  46.789
21152DA     BB237421  92.055  66.225  47.094
21152DA     BB337422  91.903  66.076  47.110
21152DA     SC137423  91.708  66.257  47.271
21152DA     SC237424  91.617  66.270  47.503
21152DA     SC337425  91.430  66.412  47.400
21152DA     SC437426  91.600  66.342  47.188
21153DT     BB137427  91.976  65.906  47.102
21153DT     BB237428  91.943  65.831  47.453
21153DT     BB337429  91.778  65.710  47.484
21153DT     SC137430  91.614  65.911  47.448
21153DT     SC237431  91.520  65.961  47.635
21153DT     SC337432  91.424  66.061  47.342
21154DT     BB137433  91.965  65.537  47.542
21154DT     BB237434  91.759  65.559  47.837
21154DT     BB337435  91.589  65.442  47.814
21154DT     SC137436  91.482  65.617  47.650
21154DT     SC237437  91.314  65.711  47.746
21154DT     SC337438  91.382  65.721  47.429
21155DT     BB137439  91.706  65.297  47.998
21155DT     BB237440  91.383  65.381  48.133
21155DT     BB337441  91.239  65.254  48.056
21155DT     SC137442  91.243  65.377  47.825
21155DT     SC237443  91.058  65.484  47.797
21155DT     SC337444  91.276  65.419  47.566
21156DT     BB137445  91.230  65.150  48.300
21156DT     BB237446  90.890  65.246  48.228
21156DT     BB337447  90.796  65.098  48.117
21156DT     SC137448  90.928  65.167  47.900
21156DT     SC237449  90.791  65.256  47.759
21156DT     SC337450  91.091  65.152  47.694
21157DA     BB137451  90.546  65.181  48.443
21157DA     BB237452  90.337  65.173  48.142
21157DA     BB337453  90.313  64.972  48.074
21157DA     SC137454  90.562  64.980  47.887
21157DA     SC237455  90.608  64.980  47.642
21157DA     SC337456  90.844  64.901  47.707
21157DA     SC437457  90.702  64.930  47.948
21158DA     BB137458  89.990  65.042  48.090
21158DA     BB237459  89.971  64.970  47.731
21158DA     BB337460  89.974  64.759  47.697
21158DA     SC137461  90.284  64.744  47.672
21158DA     SC237462  90.453  64.702  47.493
21158DA     SC337463  90.613  64.647  47.686
21158DA     SC437464  90.368  64.712  47.806
21159DT     BB137465  89.805  64.653  47.621
21159DT     BB237466  89.934  64.596  47.289
21159DT     BB337467  89.985  64.396  47.267
21159DT     SC137468  90.201  64.427  47.413
21159DT     SC237469  90.375  64.409  47.288
21159DT     SC337470  90.372  64.399  47.612
21160DC     BB137471  89.766  64.338  47.105
21160DC     BB237472  90.050  64.234  46.907
21160DC     BB337473  90.096  64.036  46.948
21160DC     SC137474  90.201  64.100  47.179
21160DC     SC237475  90.414  64.071  47.171
21160DC     SC337476  90.238  64.112  47.440
21161DT     BB137477  89.994  63.938  46.705
21161DT     BB237478  90.335  63.822  46.708
21161DT     BB337479  90.346  63.635  46.796
21161DT     SC137480  90.312  63.737  47.035
21161DT     SC237481  90.495  63.718  47.147
21161DT     SC337482  90.204  63.789  47.270
21162DA     BB137483  90.536  63.590  46.425
21162DA     BB237484  90.758  63.450  46.681
21162DA     BB337485  90.687  63.260  46.745
21162DA     SC137486  90.514  63.376  46.977
21162DA     SC237487  90.517  63.378  47.226
21162DA     SC337488  90.268  63.436  47.208
21162DA     SC437489  90.361  63.410  46.945
21163DA     BB137490  90.991  63.171  46.664
21163DA     BB237491  91.039  63.078  47.015
21163DA     BB337492  90.943  62.892  47.056
21163DA     SC137493  90.673  63.022  47.139
21163DA     SC237494  90.540  63.053  47.348
21163DA     SC337495  90.340  63.091  47.191
21163DA     SC437496  90.561  63.041  47.025
21164DC     BB137497  91.061  62.744  47.103
21164DC     BB237498  90.985  62.737  47.455
21164DC     BB337499  90.859  62.579  47.498
21164DC     SC137500  90.654  62.703  47.392
21164DC     SC237501  90.516  62.758  47.548
21164DC     SC337502  90.453  62.758  47.230
21165DG     BB137503  91.194  62.552  47.727
21165DG     BB237504  90.894  62.531  47.927
21165DG     BB337505  90.813  62.350  47.909
21165DG     SC137506  90.638  62.426  47.669
21165DG     SC237507  90.340  62.441  47.666
21165DG     SC337508  90.449  62.469  47.393
21165DG     SC437509  90.699  62.411  47.521
21166DA     BB137510  90.813  62.359  48.254
21166DA     BB237511  90.450  62.306  48.254
21166DA     BB337512  90.404  62.105  48.201
21166DA     SC137513  90.383  62.164  47.897
21166DA     SC237514  90.205  62.174  47.722
21166DA     SC337515  90.397  62.147  47.554
21166DA     SC437516  90.516  62.146  47.808
21167DT     BB137517  90.322  61.988  48.341
21167DT     BB237518  89.990  61.971  48.202
21167DT     BB337519  89.961  61.789  48.110
21167DT     SC137520  90.110  61.859  47.906
21167DT     SC237521  89.985  61.884  47.732
21167DT     SC337522  90.309  61.862  47.733
21168DA     BB137523  89.637  61.818  48.377
21168DA     BB237524  89.501  61.713  48.053
21168DA     BB337525  89.546  61.507  48.017
21168DA     SC137526  89.815  61.565  47.872
21168DA     SC237527  89.907  61.550  47.641
21168DA     SC337528  90.137  61.552  47.755
21168DA     SC437529  89.948  61.567  47.962
21169DG     BB137530  89.234  61.426  48.010
21169DG     BB237531  89.303  61.338  47.666
21169DG     BB337532  89.365  61.149  47.655
21169DG     SC137533  89.661  61.219  47.689
21169DG     SC237534  89.874  61.186  47.482
21169DG     SC337535  89.992  61.258  47.744
21169DG     SC437536  89.722  61.228  47.837
21170DG     BB137537  89.115  61.027  47.455
21170DG     BB237538  89.369  60.963  47.206
21170DG     BB337539  89.443  60.780  47.230
21170DG     SC137540  89.664  60.867  47.423
21170DG     SC237541  89.958  60.860  47.368
21170DG     SC337542  89.905  60.925  47.652
21170DG     SC437543  89.633  60.872  47.580
21171DA     BB137544  89.377  60.688  46.895
21171DA     BB237545  89.735  60.640  46.831
21171DA     BB337546  89.796  60.446  46.897
21171DA     SC137547  89.872  60.540  47.183
21171DA     SC237548  90.080  60.572  47.318
21171DA     SC337549  89.924  60.562  47.522
21171DA     SC437550  89.760  60.530  47.297
21172DT     BB137551  89.862  60.292  46.758
21172DT     BB237552  90.214  60.323  46.830
21172DT     BB337553  90.280  60.156  46.934
21172DT     SC137554  90.164  60.237  47.155
21172DT     SC237555  90.314  60.294  47.297
21172DT     SC337556  90.001  60.243  47.362
21173DC     BB137557  90.415  60.072  46.713
21173DC     BB237558  90.668  60.101  46.968
21173DC     BB337559  90.680  59.924  47.075
21173DC     SC137560  90.457  59.977  47.203
21173DC     SC237561  90.501  60.019  47.409
21173DC     SC337562  90.208  59.954  47.287
21174DA     BB137563  91.065  60.030  46.949
21174DA     BB237564  91.081  59.954  47.307
21174DA     BB337565  91.064  59.744  47.339
21174DA     SC137566  90.754  59.748  47.366
21174DA     SC237567  90.584  59.715  47.546
21174DA     SC337568  90.420  59.672  47.353
21174DA     SC437569  90.668  59.723  47.233
21175DA     BB137570  91.341  59.803  47.504
21175DA     BB237571  91.166  59.680  47.803
21175DA     BB337572  91.150  59.468  47.797
21175DA     SC137573  90.875  59.468  47.651
21175DA     SC237574  90.638  59.412  47.704
21175DA     SC337575  90.606  59.396  47.450
21175DA     SC437576  90.876  59.461  47.490
21176DG     BB137577  91.313  59.483  48.060
21176DG     BB237578  91.012  59.341  48.202
21176DG     BB337579  91.010  59.144  48.175
21176DG     SC137580  90.868  59.158  47.905
21176DG     SC237581  90.592  59.058  47.847
21176DG     SC337582  90.731  59.137  47.597
21176DG     SC437583  90.955  59.172  47.772
21177DT     BB137584  91.013  58.999  48.348
21177DT     BB237585  90.671  58.883  48.349
21177DT     BB337586  90.662  58.691  48.272
21177DT     SC137587  90.697  58.779  48.027
21177DT     SC237588  90.515  58.754  47.915
21177DT     SC337589  90.808  58.818  47.791
21178DG     BB137590  90.503  58.680  48.646
21178DG     BB237591  90.277  58.537  48.403
21178DG     BB337592  90.335  58.353  48.357
21178DG     SC137593  90.516  58.440  48.126
21178DG     SC237594  90.472  58.381  47.837
21178DG     SC337595  90.739  58.502  47.881
21178DG     SC437596  90.669  58.477  48.158
21179DT     BB137597  90.202  58.190  48.400
21179DT     BB237598  90.082  58.105  48.070
21179DT     BB337599  90.178  57.935  48.001
21179DT     SC137600  90.399  58.070  47.954
21179DT     SC237601  90.430  58.084  47.742
21179DT     SC337602  90.650  58.149  47.971
21180DC     BB137603  89.945  57.816  48.034
21180DC     BB237604  90.029  57.764  47.687
21180DC     BB337605  90.156  57.602  47.668
21180DC     SC137606  90.359  57.739  47.762
21180DC     SC237607  90.500  57.774  47.604
21180DC     SC337608  90.556  57.815  47.921
21181DT     BB137609  89.949  57.478  47.558
21181DT     BB237610  90.213  57.457  47.313
21181DT     BB337611  90.337  57.297  47.356
21181DT     SC137612  90.448  57.427  47.555
21181DT     SC237613  90.651  57.476  47.505
21181DT     SC337614  90.521  57.489  47.801
21182DA     BB137615  90.221  57.268  46.954
21182DA     BB237616  90.585  57.221  46.972
21182DA     BB337617  90.630  57.030  47.057
21182DA     SC137618  90.642  57.137  47.349
21182DA     SC237619  90.815  57.176  47.524
21182DA     SC337620  90.619  57.173  47.689
21182DA     SC437621  90.507  57.131  47.436
21183DT     BB137622  90.717  56.901  46.939
21183DT     BB237623  91.046  56.916  47.086
21183DT     BB337624  91.077  56.751  47.206
21183DT     SC137625  90.921  56.847  47.394
21183DT     SC237626  91.039  56.902  47.565
21183DT     SC337627  90.717  56.870  47.559
21184DA     BB137628  91.403  56.780  46.944
21184DA     BB237629  91.535  56.731  47.283
21184DA     BB337630  91.502  56.530  47.346
21184DA     SC137631  91.226  56.590  47.476
21184DA     SC237632  91.128  56.601  47.705
21184DA     SC337633  90.902  56.573  47.588
21184DA     SC437634  91.095  56.570  47.385
21185DA     BB137635  91.826  56.550  47.401
21185DA     BB237636  91.752  56.477  47.752
21185DA     BB337637  91.702  56.271  47.776
21185DA     SC137638  91.397  56.315  47.734
21185DA     SC237639  91.189  56.307  47.871
21185DA     SC337640  91.067  56.284  47.647
21185DA     SC437641  91.340  56.300  47.585
21186DG     BB137642  91.949  56.264  47.967
21186DG     BB237643  91.701  56.182  48.216
21186DG     BB337644  91.658  55.988  48.207
21186DG     SC137645  91.432  56.022  48.004
21186DG     SC237646  91.142  55.973  48.054
21186DG     SC337647  91.192  56.021  47.767
21186DG     SC437648  91.467  56.019  47.848
21187DA     BB137649  91.723  55.960  48.551
21187DA     BB237650  91.382  55.838  48.610
21187DA     BB337651  91.366  55.633  48.552
21187DA     SC137652  91.279  55.697  48.261
21187DA     SC237653  91.074  55.678  48.120
21187DA     SC337654  91.234  55.694  47.920
21187DA     SC437655  91.395  55.707  48.149
21188DA     BB137656  91.255  55.567  48.862
21188DA     BB237657  90.942  55.450  48.712
21188DA     BB337658  90.965  55.252  48.635
21188DA     SC137659  91.052  55.346  48.352
21188DA     SC237660  90.958  55.346  48.121
21188DA     SC337661  91.201  55.377  48.044
21188DA     SC437662  91.210  55.364  48.324
21189DA     BB137663  90.708  55.141  48.825
21189DA     BB237664  90.529  55.058  48.516
21189DA     BB337665  90.593  54.868  48.442
21189DA     SC137666  90.820  54.986  48.265
21189DA     SC237667  90.869  55.016  48.022
21189DA     SC337668  91.114  55.040  48.095
21189DA     SC437669  90.967  54.998  48.330
21190DA     BB137670  90.275  54.757  48.447
21190DA     BB237671  90.293  54.727  48.082
21190DA     BB337672  90.385  54.542  48.028
21190DA     SC137673  90.673  54.659  48.020
21190DA     SC237674  90.846  54.712  47.849
21190DA     SC337675  91.012  54.706  48.045
21190DA     SC437676  90.761  54.650  48.155
21191DC     BB137677  90.279  54.372  47.923
21191DC     BB237678  90.421  54.437  47.598
21191DC     BB337679  90.552  54.285  47.546
21191DC     SC137680  90.734  54.374  47.713
21191DC     SC237681  90.900  54.455  47.601
21191DC     SC337682  90.900  54.383  47.917
21192DG     BB137683  90.268  54.301  47.254
21192DG     BB237684  90.601  54.330  47.117
21192DG     BB337685  90.686  54.151  47.105
21192DG     SC137686  90.808  54.164  47.386
21192DG     SC237687  91.100  54.177  47.449
21192DG     SC337688  90.940  54.136  47.695
21192DG     SC437689  90.722  54.112  47.510
21193DA     BB137690  90.747  54.238  46.778
21193DA     BB237691  91.107  54.205  46.839
21193DA     BB337692  91.163  53.999  46.846
21193DA     SC137693  91.121  53.975  47.154
21193DA     SC237694  91.262  53.945  47.358
21193DA     SC337695  91.046  53.864  47.470
21193DA     SC437696  90.977  53.926  47.205
21194DA     BB137697  91.372  54.113  46.623
21194DA     BB237698  91.639  54.013  46.853
21194DA     BB337699  91.662  53.801  46.852
21194DA     SC137700  91.460  53.754  47.084
21194DA     SC237701  91.467  53.680  47.323
21194DA     SC337702  91.218  53.627  47.292
21194DA     SC437703  91.307  53.726  47.045
21195DA     BB137704  91.967  53.898  46.791
21195DA     BB237705  92.059  53.731  47.104
21195DA     BB337706  92.058  53.519  47.077
21195DA     SC137707  91.760  53.485  47.161
21195DA     SC237708  91.632  53.389  47.352
21195DA     SC337709  91.434  53.384  47.190
21195DA     SC437710  91.650  53.489  47.045
21196DC     BB137711  92.230  53.435  47.095
21196DC     BB237712  92.172  53.291  47.421
21196DC     BB337713  92.132  53.089  47.402
21196DC     SC137714  91.891  53.137  47.311
21196DC     SC237715  91.746  53.076  47.459
21196DC     SC337716  91.684  53.144  47.148
21197DT     BB137717  92.367  53.060  47.516
21197DT     BB237718  92.134  52.893  47.734
21197DT     BB337719  92.096  52.702  47.663
21197DT     SC137720  91.945  52.795  47.470
21197DT     SC237721  91.740  52.742  47.507
21197DT     SC337722  91.860  52.850  47.226
21198DT     BB137723  92.222  52.650  47.881
21198DT     BB237724  91.901  52.489  47.912
21198DT     BB337725  91.899  52.313  47.802
21198DT     SC137726  91.882  52.445  47.576
21198DT     SC237727  91.687  52.413  47.490
21198DT     SC337728  91.945  52.537  47.337
21199DA     BB137729  91.738  52.294  48.194
21199DA     BB237730  91.512  52.124  47.960
21199DA     BB337731  91.606  51.950  47.880
21199DA     SC137732  91.727  52.099  47.635
21199DA     SC237733  91.693  52.106  47.388
21199DA     SC337734  91.929  52.205  47.379
21199DA     SC437735  91.875  52.158  47.650
21200DA     BB137736  91.300  51.878  47.987
21200DA     BB237737  91.246  51.748  47.648
21200DA     BB337738  91.377  51.584  47.610
21200DA     SC137739  91.605  51.760  47.494
21200DA     SC237740  91.712  51.801  47.272
21200DA     SC337741  91.910  51.893  47.407
21200DA     SC437742  91.718  51.811  47.596
21201DT     BB137743  91.285  51.426  47.589
21201DT     BB237744  91.350  51.374  47.237
21201DT     BB337745  91.511  51.247  47.213
21201DT     SC137746  91.680  51.436  47.280
21201DT     SC237747  91.794  51.495  47.107
21201DT     SC337748  91.865  51.568  47.415
21202DA     BB137749  91.210  51.063  46.983
21202DA     BB237750  91.516  51.065  46.781
21202DA     BB337751  91.654  50.919  46.854
21202DA     SC137752  91.796  51.115  47.049
21202DA     SC237753  92.017  51.228  47.069
21202DA     SC337754  91.958  51.257  47.317
21202DA     SC437755  91.741  51.122  47.200
21203DA     BB137756  91.664  50.778  46.548
21203DA     BB237757  92.023  50.854  46.538
21203DA     BB337758  92.132  50.708  46.649
21203DA     SC137759  92.119  50.866  46.917
21203DA     SC237760  92.275  50.990  47.066
21203DA     SC337761  92.097  50.956  47.247
21203DA     SC437762  91.997  50.833  47.016
21204DT     BB137763  92.274  50.556  46.561
21204DT     BB237764  92.578  50.719  46.668
21204DT     BB337765  92.669  50.608  46.817
21204DT     SC137766  92.491  50.685  46.994
21204DT     SC237767  92.585  50.815  47.137
21204DT     SC337768  92.296  50.673  47.171
21205DT     BB137769  92.871  50.521  46.650
21205DT     BB237770  93.044  50.685  46.921
21205DT     BB337771  93.082  50.549  47.073
21205DT     SC137772  92.830  50.551  47.149
21205DT     SC237773  92.815  50.649  47.340
21205DT     SC337774  92.586  50.467  47.199
21206DT     BB137775  93.346  50.551  47.009
21206DT     BB237776  93.335  50.650  47.356
21206DT     BB337777  93.336  50.482  47.478
21206DT     SC137778  93.085  50.429  47.420
21206DT     SC237779  92.963  50.464  47.594
21206DT     SC337780  92.873  50.303  47.327
21207DA     BB137781  93.636  50.743  47.610
21207DA     BB237782  93.438  50.641  47.901
21207DA     BB337783  93.479  50.437  47.950
21207DA     SC137784  93.252  50.323  47.770
21207DA     SC237785  93.032  50.210  47.801
21207DA     SC337786  93.063  50.130  47.559
21207DA     SC437787  93.290  50.282  47.620
21208DT     BB137788  93.571  50.397  48.125
21208DT     BB237789  93.284  50.264  48.299
21208DT     BB337790  93.297  50.058  48.309
21208DT     SC137791  93.234  50.033  48.056
21208DT     SC237792  93.038  49.946  48.040
21208DT     SC337793  93.254  49.973  47.800
21209DT     BB137794  93.360  50.059  48.580
21209DT     BB237795  93.068  49.848  48.558
21209DT     BB337796  93.124  49.652  48.524
21209DT     SC137797  93.182  49.705  48.273
21209DT     SC237798  93.038  49.608  48.145
21209DT     SC337799  93.322  49.734  48.051
21210DG     BB137800  92.923  49.624  48.881
21210DG     BB237801  92.789  49.392  48.638
21210DG     BB337802  92.903  49.229  48.630
21210DG     SC137803  93.089  49.338  48.413
21210DG     SC237804  93.112  49.234  48.134
21210DG     SC337805  93.323  49.433  48.190
21210DG     SC437806  93.217  49.422  48.456
21211DT     BB137807  92.840  48.996  48.692
21211DT     BB237808  92.798  48.854  48.362
21211DT     BB337809  92.949  48.719  48.324
21211DT     SC137810  93.123  48.911  48.286
21211DT     SC237811  93.177  48.920  48.078
21211DT     SC337812  93.334  49.065  48.321
21212DG     BB137813  92.604  48.504  48.290
21212DG     BB237814  92.806  48.473  47.992
21212DG     BB337815  92.950  48.338  48.021
21212DG     SC137816  93.152  48.541  48.129
21212DG     SC237817  93.407  48.623  47.995
21212DG     SC337818  93.392  48.732  48.270
21212DG     SC437819  93.154  48.573  48.285
21213DC     BB137820  92.961  48.151  47.898
21213DC     BB237821  93.234  48.230  47.677
21213DC     BB337822  93.404  48.126  47.735
21213DC     SC137823  93.442  48.286  47.939
21213DC     SC237824  93.616  48.407  47.904
21213DC     SC337825  93.465  48.369  48.188
21214DT     BB137826  93.378  47.967  47.517
21214DT     BB237827  93.707  48.113  47.485
21214DT     BB337828  93.845  47.998  47.588
21214DT     SC137829  93.759  48.088  47.819
21214DT     SC237830  93.909  48.216  47.906
21214DT     SC337831  93.652  48.091  48.060
21215DC     BB137832  93.948  47.910  47.352
21215DC     BB237833  94.228  48.061  47.523
21215DC     BB337834  94.319  47.922  47.646
21215DC     SC137835  94.124  47.937  47.821
21215DC     SC237836  94.195  48.033  48.000
21215DC     SC337837  93.919  47.866  47.971
21216DT     BB137838  94.530  47.912  47.476
21216DT     BB237839  94.672  48.007  47.794
21216DT     BB337840  94.717  47.838  47.905
21216DT     SC137841  94.464  47.797  47.960
21216DT     SC237842  94.430  47.835  48.169
21216DT     SC337843  94.228  47.681  47.967
21217DT     BB137844  94.979  47.889  47.862
21217DT     BB237845  94.943  47.884  48.221
21217DT     BB337846  94.961  47.690  48.291
21217DT     SC137847  94.721  47.628  48.204
21217DT     SC237848  94.589  47.598  48.371
21217DT     SC337849  94.530  47.510  48.065
21218DT     BB137850  95.190  47.772  48.392
21218DT     BB237851  95.000  47.652  48.674
21218DT     BB337852  95.019  47.447  48.690
21218DT     SC137853  94.859  47.407  48.486
21218DT     SC237854  94.675  47.321  48.555
21218DT     SC337855  94.775  47.333  48.247
21219DT     BB137856  95.153  47.511  48.904
21219DT     BB237857  94.888  47.295  49.019
21219DT     BB337858  94.940  47.097  48.987
21219DT     SC137859  94.896  47.118  48.729
21219DT     SC237860  94.722  47.004  48.677
21219DT     SC337861  94.942  47.121  48.470
21220DT     BB137862  94.948  47.101  49.247
21220DT     BB237863  94.717  46.838  49.161
21220DT     BB337864  94.821  46.667  49.107
21220DT     SC137865  94.885  46.771  48.875
21220DT     SC237866  94.780  46.667  48.718
21220DT     SC337867  95.033  46.866  48.678
21221DG     BB137868  94.563  46.581  49.411
21221DG     BB237869  94.532  46.345  49.138
21221DG     BB337870  94.686  46.219  49.139
21221DG     SC137871  94.862  46.394  48.959
21221DG     SC237872  94.949  46.326  48.682
21221DG     SC337873  95.088  46.568  48.780
21221DG     SC437874  94.955  46.505  49.026
21222DA     BB137875  94.451  45.962  49.128
21222DA     BB237876  94.604  45.833  48.821
21222DA     BB337877  94.787  45.734  48.865
21222DA     SC137878  94.961  45.990  48.830
21222DA     SC237879  95.131  46.077  48.669
21222DA     SC337880  95.201  46.234  48.860
21222DA     SC437881  94.991  46.078  48.961
21223DT     BB137882  94.806  45.529  48.840
21223DT     BB237883  95.017  45.536  48.547
21223DT     BB337884  95.211  45.485  48.598
21223DT     SC137885  95.251  45.719  48.710
21223DT     SC237886  95.391  45.832  48.590
21223DT     SC337887  95.301  45.901  48.894
21224DT     BB137888  95.189  45.238  48.480
21224DT     BB237889  95.478  45.385  48.322
21224DT     BB337890  95.648  45.344  48.433
21224DT     SC137891  95.581  45.520  48.616
21224DT     SC237892  95.716  45.687  48.608
21224DT     SC337893  95.510  45.621  48.849
21225DC     BB137894  95.741  45.159  48.250
21225DC     BB237895  96.014  45.393  48.283
21225DC     BB337896  96.139  45.334  48.437
21225DC     SC137897  95.966  45.415  48.618
21225DC     SC237898  96.044  45.588  48.718
21225DC     SC337899  95.794  45.407  48.817
21226DT     BB137900  96.341  45.246  48.267
21226DT     BB237901  96.508  45.483  48.480
21226DT     BB337902  96.581  45.388  48.649
21226DT     SC137903  96.341  45.369  48.753
21226DT     SC237904  96.327  45.499  48.923
21226DT     SC337905  96.119  45.262  48.847
21227DT     BB137906  96.854  45.390  48.569
21227DT     BB237907  96.859  45.551  48.893
21227DT     BB337908  96.890  45.410  49.041
21227DT     SC137909  96.644  45.321  49.019
21227DT     SC237910  96.534  45.375  49.196
21227DT     SC337911  96.443  45.158  48.973
21228DG     BB137912  97.224  45.646  49.098
21228DG     BB237913  97.045  45.604  49.409
21228DG     BB337914  97.098  45.432  49.495
21228DG     SC137915  96.880  45.268  49.356
21228DG     SC237916  96.647  45.137  49.489
21228DG     SC337917  96.667  45.054  49.206
21228DG     SC437918  96.911  45.203  49.213
21229DC     BB137919  97.225  45.385  49.718
21229DC     BB237920  96.946  45.285  49.923
21229DC     BB337921  96.960  45.084  49.970
21229DC     SC137922  96.887  45.015  49.728
21229DC     SC237923  96.691  44.926  49.735
21229DC     SC337924  96.898  44.911  49.486
21230DT     BB137925  97.041  45.112  50.245
21230DT     BB237926  96.736  44.921  50.262
21230DT     BB337927  96.779  44.718  50.264
21230DT     SC137928  96.837  44.721  50.008
21230DT     SC237929  96.686  44.612  49.900
21230DT     SC337930  96.976  44.700  49.785
21231DA     BB137931  96.527  44.801  50.587
21231DA     BB237932  96.378  44.527  50.393
21231DA     BB337933  96.486  44.346  50.426
21231DA     SC137934  96.683  44.392  50.189
21231DA     SC237935  96.727  44.292  49.965
21231DA     SC337936  96.958  44.402  49.985
21231DA     SC437937  96.821  44.467  50.221
21232DG     BB137938  96.203  44.275  50.517
21232DG     BB237939  96.222  44.058  50.228
21232DG     BB337940  96.328  43.896  50.272
21232DG     SC137941  96.596  44.018  50.189
21232DG     SC237942  96.764  43.931  49.957
21232DG     SC337943  96.909  44.126  50.126
21232DG     SC437944  96.681  44.099  50.297
21233DT     BB137945  96.222  43.731  50.247
21233DT     BB237946  96.362  43.599  49.942
21233DT     BB337947  96.506  43.457  49.986
21233DT     SC137948  96.678  43.641  50.059
21233DT     SC237949  96.837  43.651  49.915
21233DT     SC337950  96.840  43.783  50.211
21234DA     BB137951  96.227  43.335  49.693
21234DA     BB237952  96.567  43.268  49.571
21234DA     BB337953  96.658  43.113  49.685
21234DA     SC137954  96.784  43.307  49.893
21234DA     SC237955  97.011  43.388  49.957
21234DA     SC337956  96.904  43.453  50.180
21234DA     SC437957  96.699  43.340  50.026
21235DT     BB137958  96.687  42.981  49.576
21235DT     BB237959  97.045  43.019  49.555
21235DT     BB337960  97.138  42.894  49.692
21235DT     SC137961  97.070  43.049  49.892
21235DT     SC237962  97.246  43.144  49.972
21235DT     SC337963  96.956  43.131  50.116
21236DC     BB137964  97.213  42.776  49.473
21236DC     BB237965  97.516  42.862  49.648
21236DC     BB337966  97.552  42.725  49.799
21236DC     SC137967  97.363  42.829  49.949
21236DC     SC237968  97.452  42.927  50.118
21236DC     SC337969  97.139  42.850  50.086
21237DA     BB137970  97.891  42.801  49.559
21237DA     BB237971  97.988  42.819  49.912
21237DA     BB337972  97.976  42.626  50.003
21237DA     SC137973  97.681  42.661  50.094
21237DA     SC237974  97.556  42.689  50.309
21237DA     SC337975  97.351  42.611  50.176
21237DA     SC437976  97.566  42.609  49.995
21238DA     BB137977  98.275  42.742  50.076
21238DA     BB237978  98.176  42.698  50.426
21238DA     BB337979  98.156  42.490  50.472
21238DA     SC137980  97.854  42.478  50.397
21238DA     SC237981  97.636  42.450  50.515
21238DA     SC337982  97.544  42.381  50.286
21238DA     SC437983  97.816  42.436  50.247
21239DC     BB137984  98.279  42.441  50.594
21239DC     BB237985  98.055  42.392  50.873
21239DC     BB337986  98.003  42.192  50.887
21239DC     SC137987  97.842  42.211  50.680
21239DC     SC237988  97.638  42.193  50.747
21239DC     SC337989  97.740  42.172  50.440
21240DG     BB137990  98.170  42.297  51.245
21240DG     BB237991  97.853  42.128  51.291
21240DG     BB337992  97.876  41.932  51.260
21240DG     SC137993  97.816  41.948  50.961
21240DG     SC237994  97.578  41.831  50.823
21240DG     SC337995  97.775  41.930  50.626
21240DG     SC437996  97.937  41.975  50.859
21241DA     BB137997  97.736  41.846  51.575
21241DA     BB237998  97.473  41.649  51.412
21241DA     BB337999  97.548  41.458  51.354
21241DA     SC138000  97.637  41.553  51.071
21241DA     SC238001  97.568  41.516  50.834
21241DA     SC338002  97.803  41.598  50.774
21241DA     SC438003  97.788  41.605  51.054
21242DA     BB138004  97.303  41.315  51.530
21242DA     BB238005  97.179  41.170  51.217
21242DA     BB338006  97.291  40.996  51.166
21242DA     SC138007  97.501  41.152  50.997
21242DA     SC238008  97.564  41.174  50.757
21242DA     SC338009  97.789  41.261  50.845
21242DA     SC438010  97.634  41.202  51.072
21243DA     BB138011  96.996  40.849  51.156
21243DA     BB238012  97.058  40.786  50.800
21243DA     BB338013  97.191  40.621  50.776
21243DA     SC138014  97.448  40.797  50.778
21243DA     SC238015  97.624  40.868  50.616
21243DA     SC338016  97.766  40.918  50.823
21243DA     SC438017  97.521  40.820  50.919
21244DA     BB138018  96.943  40.529  50.586
21244DA     BB238019  97.181  40.536  50.308
21244DA     BB338020  97.313  40.368  50.319
21244DA     SC138021  97.526  40.515  50.490
21244DA     SC238022  97.758  40.603  50.460
21244DA     SC338023  97.771  40.596  50.717
21244DA     SC438024  97.515  40.503  50.650
21245DA     BB138025  97.199  40.352  50.013
21245DA     BB238026  97.548  40.384  49.905
21245DA     BB338027  97.655  40.204  49.946
21245DA     SC138028  97.747  40.294  50.229
21245DA     SC238029  97.959  40.360  50.342
21245DA     SC338030  97.836  40.305  50.560
21245DA     SC438031  97.653  40.253  50.354
21246DT     BB138032  97.714  40.115  49.791
21246DT     BB238033  98.066  40.188  49.824
21246DT     BB338034  98.164  40.025  49.905
21246DT     SC138035  98.068  40.076  50.144
21246DT     SC238036  98.227  40.142  50.272
21246DT     SC338037  97.933  40.046  50.368
21247DA     BB138038  98.380  40.112  49.553
21247DA     BB238039  98.624  40.064  49.823
21247DA     BB338040  98.640  39.857  49.872
21247DA     SC138041  98.419  39.866  50.090
21247DA     SC238042  98.404  39.849  50.339
21247DA     SC338043  98.157  39.793  50.299
21247DA     SC438044  98.269  39.832  50.045
21248DC     BB138045  98.823  39.706  49.833
21248DC     BB238046  98.934  39.685  50.175
21248DC     BB338047  98.897  39.495  50.250
21248DC     SC138048  98.640  39.546  50.271
21248DC     SC238049  98.587  39.558  50.479
21248DC     SC338050  98.380  39.530  50.231
21249DA     BB138051  99.320  39.471  50.321
21249DA     BB238052  99.158  39.378  50.637
21249DA     BB338053  99.103  39.172  50.634
21249DA     SC138054  98.819  39.226  50.518
21249DA     SC238055  98.582  39.213  50.596
21249DA     SC338056  98.522  39.206  50.347
21249DA     SC438057  98.802  39.221  50.358
21250DA     BB138058  99.285  39.079  50.912
21250DA     BB238059  98.966  39.026  51.085
21250DA     BB338060  98.899  38.826  51.058
21250DA     SC138061  98.736  38.889  50.801
21250DA     SC238062  98.496  38.901  50.732
21250DA     SC338063  98.584  38.877  50.493
21250DA     SC438064  98.810  38.872  50.659
21251DT     BB138065  98.880  38.678  51.225
21251DT     BB238066  98.524  38.724  51.258
21251DT     BB338067  98.425  38.552  51.202
21251DT     SC138068  98.470  38.598  50.948
21251DT     SC238069  98.285  38.648  50.850
21251DT     SC338070  98.562  38.568  50.703
21252DT     BB138071  98.369  38.549  51.457
21252DT     BB238072  98.052  38.579  51.286
21252DT     BB338073  97.989  38.393  51.221
21252DT     SC138074  98.165  38.392  51.027
21252DT     SC238075  98.063  38.411  50.838
21252DT     SC338076  98.371  38.320  50.879
21253DA     BB138077  97.707  38.647  51.411
21253DA     BB238078  97.563  38.516  51.101
21253DA     BB338079  97.536  38.305  51.115
21253DA     SC138080  97.817  38.236  50.999
21253DA     SC238081  97.912  38.137  50.791
21253DA     SC338082  98.122  38.093  50.932
21253DA     SC438083  97.938  38.216  51.104
21254DA     BB138084  97.263  38.451  51.005
21254DA     BB238085  97.298  38.228  50.717
21254DA     BB338086  97.275  38.024  50.777
21254DA     SC138087  97.578  37.981  50.832
21254DA     SC238088  97.767  37.854  50.732
21254DA     SC338089  97.881  37.882  50.961
21254DA     SC438090  97.631  38.008  50.982
21255DA     BB138091  97.062  38.050  50.527
21255DA     BB238092  97.249  37.776  50.371
21255DA     BB338093  97.216  37.594  50.477
21255DA     SC138094  97.457  37.632  50.669
21255DA     SC238095  97.680  37.529  50.708
21255DA     SC338096  97.667  37.636  50.941
21255DA     SC438097  97.429  37.706  50.810
21256DT     BB138098  97.111  37.439  50.388
21256DT     BB238099  97.391  37.217  50.335
21256DT     BB338100  97.386  37.064  50.474
21256DT     SC138101  97.469  37.223  50.665
21256DT     SC238102  97.669  37.169  50.722
21256DT     SC338103  97.470  37.362  50.890
21257DC     BB138104  97.297  36.863  50.295
21257DC     BB238105  97.601  36.726  50.434
21257DC     BB338106  97.557  36.615  50.603
21257DC     SC138107  97.517  36.832  50.745
21257DC     SC238108  97.675  36.853  50.889
21257DC     SC338109  97.394  37.014  50.890
21258DT     BB138110  97.595  36.360  50.485
21258DT     BB238111  97.825  36.362  50.763
21258DT     BB338112  97.733  36.284  50.931
21258DT     SC138113  97.592  36.503  50.965
21258DT     SC238114  97.662  36.606  51.141
21258DT     SC338115  97.384  36.663  50.984
21259DT     BB138116  97.882  36.053  50.917
21259DT     BB238117  97.960  36.194  51.240
21259DT     BB338118  97.826  36.124  51.381
21259DT     SC138119  97.637  36.282  51.290
21259DT     SC238120  97.596  36.436  51.434
21259DT     SC338121  97.409  36.359  51.181
21260DT     BB138122  98.037  35.999  51.470
21260DT     BB238123  97.929  36.214  51.739
21260DT     BB338124  97.773  36.125  51.843
21260DT     SC138125  97.604  36.178  51.650
21260DT     SC238126  97.465  36.328  51.716
21260DT     SC338127  97.432  36.140  51.454
21261DT     BB138128  97.961  36.121  52.020
21261DT     BB238129  97.690  36.310  52.166
21261DT     BB338130  97.544  36.181  52.235
21261DT     SC138131  97.461  36.131  51.991
21261DT     SC238132  97.266  36.219  51.963
21261DT     SC338133  97.405  35.998  51.770
21262DT     BB138134  97.636  36.285  52.451
21262DT     BB238135  97.282  36.355  52.449
21262DT     BB338136  97.176  36.184  52.501
21262DT     SC138137  97.219  36.077  52.265
21262DT     SC238138  97.035  36.069  52.155
21262DT     SC338139  97.307  35.909  52.081
21263DT     BB138140  97.128  36.327  52.712
21263DT     BB238141  96.804  36.233  52.584
21263DT     BB338142  96.760  36.038  52.639
21263DT     SC138143  96.928  35.943  52.461
21263DT     SC238144  96.817  35.845  52.304
21263DT     SC338145  97.135  35.817  52.358
21264DT     BB138146  96.582  36.142  52.806
21264DT     BB238147  96.395  35.905  52.608
21264DT     BB338148  96.418  35.714  52.686
21264DT     SC138149  96.662  35.696  52.591
21264DT     SC238150  96.666  35.552  52.432
21264DT     SC338151  96.925  35.674  52.584
21265DT     BB138152  96.163  35.713  52.789
21265DT     BB238153  96.178  35.412  52.591
21265DT     BB338154  96.252  35.256  52.706
21265DT     SC138155  96.496  35.351  52.691
21265DT     SC238156  96.616  35.222  52.569
21265DT     SC338157  96.727  35.453  52.766
21266DA     BB138158  95.887  35.091  52.571
21266DA     BB238159  96.146  34.838  52.514
21266DA     BB338160  96.197  34.742  52.697
21266DA     SC138161  96.426  34.942  52.766
21266DA     SC238162  96.675  34.940  52.779
21266DA     SC338163  96.648  35.149  52.926
21266DA     SC438164  96.388  35.069  52.856
21267DT     BB138165  96.153  34.518  52.764
21267DT     BB238166  96.491  34.398  52.725
21267DT     BB338167  96.572  34.352  52.910
21267DT     SC138168  96.603  34.606  52.968
21267DT     SC238169  96.813  34.653  52.970
21267DT     SC338170  96.575  34.838  53.090
21268DT     BB138171  96.557  34.064  52.894
21268DT     BB238172  96.906  34.127  52.957
21268DT     BB338173  96.944  34.120  53.160
21268DT     SC138174  96.831  34.354  53.197
21268DT     SC238175  96.981  34.499  53.249
21268DT     SC338176  96.661  34.537  53.283
21269DC     BB138177  97.077  33.870  53.159
21269DC     BB238178  97.319  34.096  53.300
21269DC     BB338179  97.302  34.099  53.506
21269DC     SC138180  97.083  34.243  53.494
21269DC     SC238181  97.122  34.440  53.568
21269DC     SC338182  96.829  34.311  53.519
21270DC     BB138183  97.537  33.959  53.538
21270DC     BB238184  97.590  34.269  53.715
21270DC     BB338185  97.527  34.250  53.911
21270DC     SC138186  97.275  34.262  53.839
21270DC     SC238187  97.190  34.447  53.907
21270DC     SC338188  97.024  34.190  53.801
21271DT     BB138189  97.785  34.257  53.982
21271DT     BB238190  97.633  34.536  54.153
21271DT     BB338191  97.550  34.473  54.332
21271DT     SC138192  97.349  34.358  54.208
21271DT     SC238193  97.169  34.468  54.248
21271DT     SC338194  97.186  34.171  54.121
21272DA     BB138195  97.790  34.815  54.379
21272DA     BB238196  97.469  34.872  54.547
21272DA     BB338197  97.453  34.750  54.721
21272DA     SC138198  97.319  34.512  54.571
21272DA     SC238199  97.095  34.402  54.562
21272DA     SC338200  97.220  34.201  54.464
21272DA     SC438201  97.415  34.397  54.513
21273DT     BB138202  97.446  34.852  54.873
21273DT     BB238203  97.097  34.798  54.949
21273DT     BB338204  97.077  34.650  55.091
21273DT     SC138205  97.132  34.463  54.916
21273DT     SC238206  96.955  34.347  54.877
21273DT     SC338207  97.258  34.265  54.795
21274DC     BB138208  97.007  34.840  55.267
21274DC     BB238209  96.734  34.604  55.273
21274DC     BB338210  96.777  34.449  55.403
21274DC     SC138211  96.946  34.344  55.233
21274DC     SC238212  96.866  34.159  55.157
21274DC     SC338213  97.174  34.257  55.131
21275DC     BB138214  96.598  34.542  55.591
21275DC     BB238215  96.493  34.202  55.528
21275DC     BB338216  96.595  34.073  55.653
21275DC     SC138217  96.815  34.097  55.512
21275DC     SC238218  96.855  33.912  55.410
21275DC     SC338219  97.064  34.156  55.449
21276DT     BB138220  96.375  34.024  55.818
21276DT     BB238221  96.474  33.696  55.704
21276DT     BB338222  96.613  33.615  55.835
21276DT     SC138223  96.802  33.772  55.744
21276DT     SC238224  96.946  33.655  55.634
21276DT     SC338225  96.988  33.959  55.738
21277DT     BB138226  96.431  33.434  55.938
21277DT     BB238227  96.699  33.230  55.810
21277DT     BB338228  96.842  33.201  55.957
21277DT     SC138229  96.932  33.446  55.928
21277DT     SC238230  97.128  33.440  55.839
21277DT     SC338231  96.992  33.696  55.984
21278DT     BB138232  96.762  32.946  55.973
21278DT     BB238233  97.111  32.929  55.883
21278DT     BB338234  97.228  32.938  56.054
21278DT     SC138235  97.183  33.195  56.082
21278DT     SC238236  97.364  33.304  56.041
21278DT     SC338237  97.099  33.422  56.186
21279DA     BB138238  97.335  32.628  55.792
21279DA     BB238239  97.636  32.816  55.883
21279DA     BB338240  97.686  32.782  56.087
21279DA     SC138241  97.519  33.023  56.192
21279DA     SC238242  97.562  33.247  56.294
21279DA     SC338243  97.319  33.233  56.377
21279DA     SC438244  97.367  32.995  56.236
21280DT     BB138245  97.835  32.712  56.073
21280DT     BB238246  98.029  32.989  56.197
21280DT     BB338247  98.051  32.974  56.403
21280DT     SC138248  97.803  33.049  56.443
21280DT     SC238249  97.801  33.245  56.532
21280DT     SC338250  97.550  33.040  56.517
21281DA     BB138251  98.415  33.053  56.204
21281DA     BB238252  98.386  33.277  56.494
21281DA     BB338253  98.400  33.166  56.675
21281DA     SC138254  98.094  33.117  56.697
21281DA     SC238255  97.905  33.191  56.843
21281DA     SC338256  97.783  32.983  56.755
21281DA     SC438257  98.035  32.982  56.632
21282DA     BB138258  98.627  33.398  56.721
21282DA     BB238259  98.436  33.493  57.020
21282DA     BB338260  98.458  33.345  57.172
21282DA     SC138261  98.211  33.180  57.081
21282DA     SC238262  97.982  33.128  57.166
21282DA     SC338263  97.990  32.928  57.007
21282DA     SC438264  98.236  33.060  56.977
21283DA     BB138265  98.544  33.613  57.341
21283DA     BB238266  98.266  33.535  57.567
21283DA     BB338267  98.314  33.367  57.688
21283DA     SC138268  98.196  33.158  57.490
21283DA     SC238269  98.001  33.003  57.479
21283DA     SC338270  98.136  32.879  57.300
21283DA     SC438271  98.296  33.094  57.381
21284DG     BB138272  98.271  33.569  57.920
21284DG     BB238273  98.000  33.344  58.005
21284DG     BB338274  98.070  33.187  58.105
21284DG     SC138275  98.121  33.020  57.853
21284DG     SC238276  97.977  32.770  57.778
21284DG     SC338277  98.207  32.817  57.599
21284DG     SC438278  98.262  33.032  57.779
21285DG     BB138279  97.865  33.270  58.345
21285DG     BB238280  97.710  32.947  58.291
21285DG     BB338281  97.815  32.805  58.382
21285DG     SC138282  97.996  32.751  58.141
21285DG     SC238283  98.002  32.500  57.979
21285DG     SC338284  98.225  32.679  57.904
21285DG     SC438285  98.131  32.836  58.124
21286DA     BB138286  97.511  32.711  58.520
21286DA     BB238287  97.550  32.375  58.377
21286DA     BB338288  97.698  32.265  58.485
21286DA     SC138289  97.934  32.357  58.304
21286DA     SC238290  98.087  32.256  58.135
21286DA     SC338291  98.240  32.456  58.184
21286DA     SC438292  98.015  32.488  58.349
21287DT     BB138293  97.638  32.107  58.589
21287DT     BB238294  97.779  31.851  58.378
21287DT     BB338295  97.953  31.777  58.463
21287DT     SC138296  98.087  31.994  58.397
21287DT     SC238297  98.229  31.945  58.244
21287DT     SC338298  98.226  32.216  58.422
21288DC     BB138299  97.839  31.536  58.546
21288DC     BB238300  98.127  31.431  58.356
21288DC     BB338301  98.293  31.418  58.480
21288DC     SC138302  98.316  31.679  58.489
21288DC     SC238303  98.492  31.739  58.382
21288DC     SC338304  98.322  31.925  58.585
21289DA     BB138305  98.306  31.013  58.345
21289DA     BB238306  98.647  31.143  58.311
21289DA     BB338307  98.747  31.140  58.499
21289DA     SC138308  98.658  31.428  58.578
21289DA     SC238309  98.763  31.652  58.608
21289DA     SC338310  98.555  31.708  58.748
21289DA     SC438311  98.522  31.443  58.663
21290DT     BB138312  98.955  30.993  58.615
21290DT     BB238313  99.198  31.258  58.584
21290DT     BB338314  99.262  31.317  58.771
21290DT     SC138315  99.037  31.445  58.817
21290DT     SC238316  99.074  31.657  58.818
21290DT     SC338317  98.807  31.509  58.928
21291DT     BB138318  99.545  31.193  58.811
21291DT     BB238319  99.605  31.547  58.847
21291DT     BB338320  99.616  31.597  59.048
21291DT     SC138321  99.355  31.574  59.075
21291DT     SC238322  99.270  31.769  59.107
21291DT     SC338323  99.121  31.486  59.158
21292DT     BB138324  99.895  31.640  59.050
21292DT     BB238325  99.752  31.958  59.142
21292DT     BB338326  99.737  31.972  59.348
21292DT     SC138327  99.532  31.809  59.352
21292DT     SC238328  99.355  31.919  59.406
21292DT     SC338329  99.385  31.596  59.404
21293DC     BB138330  99.930  32.154  59.328
21293DC     BB238331  99.648  32.327  59.473
21293DC     BB338332  99.645  32.298  59.677
21293DC     SC138333  99.558  32.052  59.649
21293DC     SC238334  99.355  32.039  59.718
21293DC     SC338335  99.552  31.789  59.660
21294DG     BB138336  99.637  32.690  59.565
21294DG     BB238337  99.366  32.607  59.789
21294DG     BB338338  99.435  32.583  59.974
21294DG     SC138339  99.491  32.284  59.942
21294DG     SC238340  99.349  32.063  60.084
21294DG     SC338341  99.583  31.960  59.936
21294DG     SC438342  99.633  32.237  59.886
21295DA     BB138343  99.169  32.795  60.028
21295DA     BB238344  99.030  32.549  60.262
21295DA     BB338345  99.148  32.539  60.438
21295DA     SC138346  99.333  32.313  60.330
21295DA     SC238347  99.376  32.072  60.375
21295DA     SC338348  99.601  32.110  60.258
21295DA     SC438349  99.469  32.358  60.256
21296DA     BB138350  98.849  32.588  60.563
21296DA     BB238351  98.895  32.271  60.742
21296DA     BB338352  99.037  32.295  60.900
21296DA     SC138353  99.282  32.218  60.724
21296DA     SC238354  99.444  32.029  60.706
21296DA     SC338355  99.594  32.196  60.582
21296DA     SC438356  99.361  32.337  60.651
21297DG     BB138357  98.801  32.210  61.087
21297DG     BB238358  99.016  31.928  61.157
21297DG     BB338359  99.151  31.978  61.294
21297DG     SC138360  99.358  32.075  61.091
21297DG     SC238361  99.622  31.948  61.034
21297DG     SC338362  99.599  32.209  60.896
21297DG     SC438363  99.354  32.228  61.043
21298DA     BB138364  99.054  31.701  61.483
21298DA     BB238365  99.394  31.565  61.462
21298DA     BB338366  99.523  31.665  61.599
21298DA     SC138367  99.611  31.883  61.396
21298DA     SC238368  99.816  31.946  61.270
21298DA     SC338369  99.706  32.177  61.246
21298DA     SC438370  99.526  32.020  61.393
21299DT     BB138371  99.603  31.562  61.760
21299DT     BB238372  99.937  31.532  61.626
21299DT     BB338373 100.065  31.660  61.726
21299DT     SC138374  99.966  31.869  61.601
21299DT     SC238375 100.113  31.947  61.465
21299DT     SC338376  99.844  32.099  61.561
21300DT     BB138377 100.176  31.444  61.839
21300DT     BB238378 100.446  31.609  61.667
21300DT     BB338379 100.528  31.757  61.787
21300DT     SC138380 100.322  31.915  61.746
21300DT     SC238381 100.384  32.082  61.626
21300DT     SC338382 100.108  32.060  61.795
21301DT     BB138383 100.741  31.598  61.807
21301DT     BB238384 100.867  31.908  61.672
21301DT     BB338385 100.906  32.041  61.826
21301DT     SC138386 100.650  32.088  61.860
21301DT     SC238387 100.605  32.288  61.796
21301DT     SC338388 100.413  32.098  61.975
21302DA     BB138389 101.241  32.015  61.576
21302DA     BB238390 101.167  32.370  61.631
21302DA     BB338391 101.218  32.426  61.831
21302DA     SC138392 100.936  32.361  61.946
21302DA     SC238393 100.741  32.487  62.038
21302DA     SC338394 100.675  32.264  62.146
21302DA     SC438395 100.912  32.214  62.006
21303DC     BB138396 101.365  32.554  61.850
21303DC     BB238397 101.163  32.839  61.941
21303DC     BB338398 101.177  32.873  62.144
21303DC     SC138399 101.022  32.668  62.197
21303DC     SC238400 100.834  32.739  62.273
21303DC     SC338401 100.943  32.434  62.290
21304DA     BB138402 101.257  33.233  61.945
21304DA     BB238403 101.011  33.301  62.207
21304DA     BB338404 101.103  33.294  62.399
21304DA     SC138405 101.047  32.991  62.442
21304DA     SC238406 100.902  32.849  62.587
21304DA     SC338407 101.066  32.660  62.530
21304DA     SC438408 101.161  32.887  62.396
21305DC     BB138409 101.109  33.462  62.497
21305DC     BB238410 100.854  33.382  62.739
21305DC     BB338411 100.941  33.334  62.920
21305DC     SC138412 101.018  33.100  62.831
21305DC     SC238413 100.904  32.946  62.929
21305DC     SC338414 101.176  32.902  62.757
21306DA     BB138415 100.639  33.619  62.977
21306DA     BB238416 100.591  33.351  63.222
21306DA     BB338417 100.743  33.359  63.372
21306DA     SC138418 100.937  33.169  63.220
21306DA     SC238419 101.027  32.938  63.246
21306DA     SC338420 101.215  33.015  63.089
21306DA     SC438421 101.046  33.237  63.123
21307DC     BB138422 100.669  33.396  63.533
21307DC     BB238423 100.712  33.069  63.680
21307DC     BB338424 100.882  33.066  63.798
21307DC     SC138425 101.037  33.060  63.586
21307DC     SC238426 101.132  32.867  63.573
21307DC     SC338427 101.218  33.132  63.408
21308DA     BB138428 100.557  32.909  64.012
21308DA     BB238429 100.844  32.686  64.060
21308DA     BB338430 100.992  32.781  64.181
21308DA     SC138431 101.144  32.907  63.940
21308DA     SC238432 101.363  32.877  63.824
21308DA     SC338433 101.324  33.114  63.733
21308DA     SC438434 101.102  33.055  63.895
21309DT     BB138435 101.026  32.705  64.359
21309DT     BB238436 101.354  32.568  64.297
21309DT     BB338437 101.498  32.692  64.377
21309DT     SC138438 101.467  32.867  64.184
21309DT     SC238439 101.641  32.867  64.058
21309DT     SC338440 101.409  33.092  64.061
21310DA     BB138441 101.599  32.325  64.563
21310DA     BB238442 101.913  32.471  64.441
21310DA     BB338443 101.975  32.631  64.569
21310DA     SC138444 101.824  32.850  64.408
21310DA     SC238445 101.881  33.043  64.260
21310DA     SC338446 101.645  33.128  64.314
21310DA     SC438447 101.675  32.887  64.454
21311DA     BB138448 102.286  32.499  64.650
21311DA     BB238449 102.446  32.790  64.494
21311DA     BB338450 102.461  32.951  64.634
21311DA     SC138451 102.186  33.075  64.558
21311DA     SC238452 102.102  33.280  64.443
21311DA     SC338453 101.880  33.231  64.563
21311DA     SC438454 102.057  33.029  64.642
21312DT     BB138455 102.661  33.055  64.749
21312DT     BB238456 102.667  33.353  64.546
21312DT     BB338457 102.626  33.519  64.663
21312DT     SC138458 102.371  33.457  64.676
21312DT     SC238459 102.257  33.600  64.563
21312DT     SC338460 102.138  33.388  64.777
21313DA     BB138461 102.992  33.624  64.487
21313DA     BB238462 102.760  33.902  64.428
21313DA     BB338463 102.742  34.022  64.603
21313DA     SC138464 102.501  33.862  64.718
21313DA     SC238465 102.258  33.897  64.757
21313DA     SC338466 102.277  33.703  64.924
21313DA     SC438467 102.534  33.740  64.818
21314DT     BB138468 102.811  34.219  64.601
21314DT     BB238469 102.487  34.374  64.577
21314DT     BB338470 102.438  34.464  64.756
21314DT     SC138471 102.387  34.232  64.868
21314DT     SC238472 102.176  34.214  64.904
21314DT     SC338473 102.406  34.026  65.031
21315DT     BB138474 102.471  34.696  64.629
21315DT     BB238475 102.131  34.703  64.750
21315DT     BB338476 102.127  34.770  64.946
21315DT     SC138477 102.219  34.541  65.034
21315DT     SC238478 102.064  34.439  65.143
21315DT     SC338479 102.380  34.365  65.147
21316DT     BB138480 102.016  34.990  64.847
21316DT     BB238481 101.781  34.869  65.093
21316DT     BB338482 101.835  34.934  65.281
21316DT     SC138483 102.032  34.761  65.293
21316DT     SC238484 101.986  34.610  65.439
21316DT     SC338485 102.277  34.665  65.308
21317DT     BB138486 101.624  35.098  65.272
21317DT     BB238487 101.577  34.905  65.574
21317DT     BB338488 101.682  34.991  65.730
21317DT     SC138489 101.910  34.903  65.634
21317DT     SC238490 101.987  34.750  65.764
21317DT     SC338491 102.154  34.904  65.532
21318DT     BB138492 101.453  35.089  65.850
21318DT     BB238493 101.612  34.898  66.111
21318DT     BB338494 101.743  35.018  66.216
21318DT     SC138495 101.918  35.012  66.020
21318DT     SC238496 102.089  34.898  66.081
21318DT     SC338497 102.073  35.095  65.825
21319DC     BB138498 101.581  35.048  66.448
21319DC     BB238499 101.892  34.920  66.579
21319DC     BB338500 102.016  35.077  66.632
21319DC     SC138501 102.071  35.128  66.380
21319DC     SC238502 102.276  35.076  66.340
21319DC     SC338503 102.085  35.257  66.150
21320DA     BB138504 102.000  34.859  66.991
21320DA     BB238505 102.354  34.921  66.919
21320DA     BB338506 102.406  35.121  66.971
21320DA     SC138507 102.341  35.237  66.690
21320DA     SC238508 102.466  35.332  66.496
21320DA     SC338509 102.242  35.436  66.429
21320DA     SC438510 102.193  35.294  66.666
21321DT     BB138511 102.543  35.167  67.133
21321DT     BB238512 102.824  35.249  66.922
21321DT     BB338513 102.859  35.453  66.928
21321DT     SC138514 102.651  35.501  66.775
21321DT     SC238515 102.718  35.570  66.583
21321DT     SC338516 102.416  35.592  66.698
21322DT     BB138517 103.085  35.411  67.074
21322DT     BB238518 103.198  35.584  66.779
21322DT     BB338519 103.183  35.789  66.807
21322DT     SC138520 102.923  35.782  66.779
21322DT     SC238521 102.868  35.878  66.594
21322DT     SC338522 102.666  35.804  66.837
21323DT     BB138523 103.452  35.797  66.818
21323DT     BB238524 103.362  36.016  66.545
21323DT     BB338525 103.319  36.205  66.617
21323DT     SC138526 103.087  36.125  66.711
21323DT     SC238527 102.929  36.213  66.595
21323DT     SC338528 102.896  36.067  66.883
21324DT     BB138529 103.546  36.285  66.503
21324DT     BB238530 103.289  36.488  66.353
21324DT     BB338531 103.247  36.651  66.474
21324DT     SC138532 103.116  36.501  66.645
21324DT     SC238533 102.907  36.548  66.635
21324DT     SC338534 103.053  36.378  66.869
21325DA     BB138535 103.317  36.781  66.082
21325DA     BB238536 103.004  36.932  66.199
21325DA     BB338537 103.045  37.083  66.345
21325DA     SC138538 103.028  36.888  66.587
21325DA     SC238539 102.875  36.846  66.779
21325DA     SC338540 103.076  36.727  66.886
21325DA     SC438541 103.165  36.820  66.637
21326DT     BB138542 102.995  37.253  66.287
21326DT     BB238543 102.701  37.284  66.494
21326DT     BB338544 102.743  37.400  66.660
21326DT     SC138545 102.878  37.205  66.772
21326DT     SC238546 102.769  37.131  66.942
21326DT     SC338547 103.080  37.070  66.874
21327DC     BB138548 102.583  37.569  66.540
21327DC     BB238549 102.435  37.505  66.863
21327DC     BB338550 102.528  37.619  67.007
21327DC     SC138551 102.739  37.464  67.005
21327DC     SC238552 102.750  37.354  67.190
21327DC     SC338553 102.989  37.385  66.974
21328DA     BB138554 102.108  37.638  67.024
21328DA     BB238555 102.238  37.575  67.361
21328DA     BB338556 102.342  37.746  67.434
21328DA     SC138557 102.618  37.655  67.323
21328DA     SC238558 102.836  37.574  67.415
21328DA     SC338559 102.933  37.643  67.188
21328DA     SC438560 102.660  37.706  67.177
21329DA     BB138561 102.128  37.649  67.663
21329DA     BB238562 102.420  37.622  67.882
21329DA     BB338563 102.504  37.815  67.919
21329DA     SC138564 102.699  37.802  67.677
21329DA     SC238565 102.945  37.783  67.639
21329DA     SC338566 102.896  37.878  67.406
21329DA     SC438567 102.649  37.863  67.537
21330DT     BB138568 102.488  37.846  68.089
21330DT     BB238569 102.837  37.824  68.178
21330DT     BB338570 102.924  38.012  68.172
21330DT     SC138571 102.926  38.011  67.910
21330DT     SC238572 103.129  37.996  67.840
21330DT     SC338573 102.873  38.079  67.661
21331DT     BB138574 102.932  38.008  68.440
21331DT     BB238575 103.271  38.079  68.340
21331DT     BB338576 103.294  38.282  68.305
21331DT     SC138577 103.164  38.265  68.077
21331DT     SC238578 103.301  38.296  67.914
21331DT     SC338579 102.978  38.302  67.894
21332DC     BB138580 103.435  38.324  68.538
21332DC     BB238581 103.649  38.459  68.281
21332DC     BB338582 103.601  38.658  68.246
21332DC     SC138583 103.383  38.590  68.116
21332DC     SC238584 103.408  38.636  67.907
21332DC     SC338585 103.128  38.567  68.056
21333DT     BB138586 103.826  38.764  68.377
21333DT     BB238587 103.843  38.907  68.046
21333DT     BB338588 103.740  39.086  68.041
21333DT     SC138589 103.508  38.962  68.043
21333DT     SC238590 103.413  38.986  67.852
21333DT     SC338591 103.271  38.881  68.124
21334DA     BB138592 104.120  39.188  67.895
21334DA     BB238593 103.873  39.320  67.658
21334DA     BB338594 103.780  39.495  67.738
21334DA     SC138595 103.548  39.340  67.875
21334DA     SC238596 103.302  39.312  67.846
21334DA     SC338597 103.303  39.233  68.091
21334DA     SC438598 103.569  39.295  68.029
21335DG     BB138599 103.899  39.638  67.487
21335DG     BB238600 103.550  39.676  67.401
21335DG     BB338601 103.474  39.835  67.493
21335DG     SC138602 103.388  39.680  67.743
21335DG     SC238603 103.106  39.631  67.830
21335DG     SC338604 103.298  39.545  68.039
21335DG     SC438605 103.492  39.663  67.863
21336DG     BB138606 103.396  39.950  67.198
21336DG     BB238607 103.052  39.925  67.307
21336DG     BB338608 103.004  40.085  67.416
21336DG     SC138609 103.089  39.960  67.682
21336DG     SC238610 102.908  39.887  67.907
21336DG     SC338611 103.192  39.862  67.988
21336DG     SC438612 103.241  39.977  67.730
21337DT     BB138613 102.847  40.212  67.345
21337DT     BB238614 102.577  40.127  67.569
21337DT     BB338615 102.558  40.271  67.716
21337DT     SC138616 102.772  40.184  67.840
21337DT     SC238617 102.714  40.093  68.026
21337DT     SC338618 103.015  40.180  67.943
21338DG     BB138619 102.201  40.238  67.521
21338DG     BB238620 102.161  40.207  67.879
21338DG     BB338621 102.173  40.387  67.965
21338DG     SC138622 102.477  40.375  68.004
21338DG     SC238623 102.619  40.361  68.267
21338DG     SC338624 102.810  40.404  68.045
21338DG     SC438625 102.572  40.427  67.887
21339DC     BB138626 102.002  40.474  68.075
21339DC     BB238627 102.110  40.438  68.417
21339DC     BB338628 102.175  40.620  68.491
21339DC     SC138629 102.398  40.605  68.353
21339DC     SC238630 102.563  40.576  68.487
21339DC     SC338631 102.585  40.664  68.176
21340DT     BB138632 101.953  40.642  68.647
21340DT     BB238633 102.229  40.665  68.878
21340DT     BB338634 102.294  40.861  68.892
21340DT     SC138635 102.410  40.847  68.657
21340DT     SC238636 102.624  40.853  68.682
21340DT     SC338637 102.465  40.898  68.404
21341DA     BB138638 102.222  40.746  69.288
21341DA     BB238639 102.557  40.896  69.277
21341DA     BB338640 102.542  41.108  69.264
21341DA     SC138641 102.542  41.114  68.953
21341DA     SC238642 102.695  41.187  68.770
21341DA     SC338643 102.484  41.190  68.623
21341DA     SC438644 102.399  41.111  68.879
21342DA     BB138645 102.737  41.089  69.526
21342DA     BB238646 102.989  41.269  69.329
21342DA     BB338647 102.940  41.476  69.318
21342DA     SC138648 102.773  41.448  69.057
21342DA     SC238649 102.792  41.514  68.817
21342DA     SC338650 102.538  41.480  68.808
21342DA     SC438651 102.615  41.423  69.072
21343DT     BB138652 103.064  41.599  69.406
21343DT     BB238653 103.216  41.730  69.106
21343DT     BB338654 103.143  41.919  69.066
21343DT     SC138655 102.914  41.821  68.982
21343DT     SC238656 102.898  41.850  68.769
21343DT     SC338657 102.656  41.770  68.969
21344DG     BB138658 103.549  41.937  69.094
21344DG     BB238659 103.430  42.086  68.787
21344DG     BB338660 103.354  42.266  68.824
21344DG     SC138661 103.070  42.163  68.875
21344DG     SC238662 102.831  42.217  68.705
21344DG     SC338663 102.753  42.083  68.957
21344DG     SC438664 103.029  42.118  69.023
21345DA     BB138665 103.562  42.373  68.569
21345DA     BB238666 103.272  42.501  68.385
21345DA     BB338667 103.201  42.681  68.474
21345DA     SC138668 103.001  42.536  68.664
21345DA     SC238669 102.754  42.512  68.689
21345DA     SC338670 102.806  42.444  68.931
21345DA     SC438671 103.054  42.498  68.811
21346DT     BB138672 103.217  42.858  68.372
21346DT     BB238673 102.867  42.897  68.291
21346DT     BB338674 102.783  43.043  68.411
21346DT     SC138675 102.781  42.883  68.619
21346DT     SC238676 102.578  42.831  68.667
21346DT     SC338677 102.837  42.786  68.858
21347DT     BB138678 102.770  43.228  68.204
21347DT     BB238679 102.430  43.208  68.325
21347DT     BB338680 102.401  43.345  68.477
21347DT     SC138681 102.536  43.198  68.647
21347DT     SC238682 102.401  43.117  68.794
21347DT     SC338683 102.725  43.123  68.815
21348DA     BB138684 102.093  43.439  68.206
21348DA     BB238685 101.940  43.412  68.538
21348DA     BB338686 101.982  43.586  68.654
21348DA     SC138687 102.243  43.471  68.778
21348DA     SC238688 102.322  43.393  69.001
21348DA     SC338689 102.558  43.431  68.908
21348DA     SC438690 102.381  43.502  68.702
21349DG     BB138691 101.671  43.643  68.669
21349DG     BB238692 101.719  43.580  69.021
21349DG     BB338693 101.773  43.748  69.114
21349DG     SC138694 102.073  43.703  69.072
21349DG     SC238695 102.273  43.649  69.287
21349DG     SC338696 102.407  43.696  69.028
21349DG     SC438697 102.142  43.757  68.939
21350DA     BB138698 101.513  43.695  69.337
21350DA     BB238699 101.752  43.673  69.613
21350DA     BB338700 101.815  43.869  69.673
21350DA     SC138701 102.058  43.876  69.478
21350DA     SC238702 102.307  43.871  69.494
21350DA     SC338703 102.303  43.972  69.258
21350DA     SC438704 102.035  43.940  69.333
21351DA     BB138705 101.716  43.741  69.955
21351DA     BB238706 102.062  43.784  70.070
21351DA     BB338707 102.102  43.991  70.108
21351DA     SC138708 102.203  44.049  69.820
21351DA     SC238709 102.418  44.103  69.707
21351DA     SC338710 102.273  44.194  69.516
21351DA     SC438711 102.095  44.102  69.712
21352DT     BB138712 102.138  44.019  70.286
21352DT     BB238713 102.493  44.070  70.251
21352DT     BB338714 102.536  44.272  70.249
21352DT     SC138715 102.445  44.298  70.004
21352DT     SC238716 102.609  44.337  69.871
21352DT     SC338717 102.295  44.376  69.802
21353DT     BB138718 102.643  44.226  70.485
21353DT     BB238719 102.908  44.370  70.287
21353DT     BB338720 102.891  44.576  70.285
21353DT     SC138721 102.688  44.565  70.118
21353DT     SC238722 102.749  44.641  69.927
21353DT     SC338723 102.443  44.591  70.023
21354DA     BB138724 103.284  44.473  70.390
21354DA     BB238725 103.299  44.729  70.128
21354DA     BB338726 103.238  44.918  70.205
21354DA     SC138727 102.938  44.877  70.133
21354DA     SC238728 102.773  44.972  69.971
21354DA     SC338729 102.594  44.878  70.130
21354DA     SC438730 102.842  44.813  70.245
21355DA     BB138731 103.529  45.008  70.080
21355DA     BB238732 103.343  45.240  69.866
21355DA     BB338733 103.274  45.407  69.979
21355DA     SC138734 103.002  45.277  70.054
21355DA     SC238735 102.761  45.308  69.999
21355DA     SC338736 102.715  45.177  70.215
21355DA     SC438737 102.994  45.195  70.192
21356DT     BB138738 103.351  45.592  69.940
21356DT     BB238739 103.060  45.724  69.772
21356DT     BB338740 102.960  45.855  69.897
21356DT     SC138741 102.865  45.658  70.042
21356DT     SC238742 102.652  45.643  70.010
21356DT     SC338743 102.820  45.502  70.249
21357DT     BB138744 103.043  46.070  69.749
21357DT     BB238745 102.683  46.092  69.746
21357DT     BB338746 102.618  46.198  69.911
21357DT     SC138747 102.666  45.995  70.071
21357DT     SC238748 102.480  45.914  70.141
21357DT     SC338749 102.773  45.852  70.265
21358DG     BB138750 102.478  46.388  69.579
21358DG     BB238751 102.211  46.310  69.811
21358DG     BB338752 102.211  46.441  69.961
21358DG     SC138753 102.401  46.276  70.136
21358DG     SC238754 102.331  46.144  70.394
21358DG     SC338755 102.622  46.131  70.345
21358DG     SC438756 102.559  46.297  70.120
21359DT     BB138757 102.040  46.555  69.983
21359DT     BB238758 101.887  46.400  70.272
21359DT     BB338759 101.927  46.512  70.441
21359DT     SC138760 102.175  46.427  70.449
21359DT     SC238761 102.201  46.297  70.618
21359DT     SC338762 102.439  46.430  70.443
21360DA     BB138763 101.520  46.414  70.406
21360DA     BB238764 101.631  46.334  70.746
21360DA     BB338765 101.673  46.513  70.854
21360DA     SC138766 101.973  46.522  70.771
21360DA     SC238767 102.196  46.491  70.879
21360DA     SC338768 102.288  46.622  70.679
21360DA     SC438769 102.011  46.607  70.639
21361DC     BB138770 101.558  46.539  70.999
21361DC     BB238771 101.794  46.466  71.262
21361DC     BB338772 101.867  46.642  71.343
21361DC     SC138773 102.018  46.685  71.133
21361DC     SC238774 102.225  46.660  71.188
21361DC     SC338775 102.116  46.800  70.916
21362DT     BB138776 101.723  46.588  71.562
21362DT     BB238777 102.062  46.627  71.681
21362DT     BB338778 102.104  46.827  71.712
21362DT     SC138779 102.123  46.871  71.454
21362DT     SC238780 102.328  46.912  71.403
21362DT     SC338781 102.070  46.968  71.214
21363DA     BB138782 102.206  46.630  72.068
21363DA     BB238783 102.486  46.847  71.976
21363DA     BB338784 102.438  47.051  72.013
21363DA     SC138785 102.322  47.101  71.729
21363DA     SC238786 102.384  47.229  71.524
21363DA     SC338787 102.136  47.209  71.461
21363DA     SC438788 102.164  47.079  71.708
21364DT     BB138789 102.538  47.155  72.160
21364DT     BB238790 102.741  47.355  71.938
21364DT     BB338791 102.671  47.550  71.934
21364DT     SC138792 102.465  47.481  71.786
21364DT     SC238793 102.489  47.564  71.588
21364DT     SC338794 102.215  47.440  71.711
21365DT     BB138795 102.888  47.626  72.073
21365DT     BB238796 102.898  47.823  71.771
21365DT     BB338797 102.783  47.994  71.794
21365DT     SC138798 102.560  47.857  71.772
21365DT     SC238799 102.464  47.907  71.586
21365DT     SC338800 102.328  47.750  71.835
21366DA     BB138801 103.163  48.095  71.649
21366DA     BB238802 102.911  48.262  71.440
21366DA     BB338803 102.818  48.420  71.548
21366DA     SC138804 102.589  48.241  71.661
21366DA     SC238805 102.343  48.216  71.630
21366DA     SC338806 102.348  48.098  71.858
21366DA     SC438807 102.613  48.172  71.804
21367DA     BB138808 102.915  48.557  71.268
21367DA     BB238809 102.561  48.638  71.214
21367DA     BB338810 102.498  48.789  71.351
21367DA     SC138811 102.406  48.588  71.570
21367DA     SC238812 102.192  48.509  71.670
21367DA     SC338813 102.337  48.430  71.867
21367DA     SC438814 102.513  48.547  71.683
21368DT     BB138815 102.451  48.946  71.265
21368DT     BB238816 102.094  48.925  71.315
21368DT     BB338817 102.038  49.042  71.476
21368DT     SC138818 102.135  48.868  71.647
21368DT     SC238819 101.974  48.775  71.753
21368DT     SC338820 102.287  48.764  71.836
21369DA     BB138821 101.790  49.148  71.153
21369DA     BB238822 101.578  49.104  71.448
21369DA     BB338823 101.607  49.265  71.586
21369DA     SC138824 101.835  49.121  71.742
21369DA     SC238825 101.867  49.019  71.967
21369DA     SC338826 102.118  49.047  71.921
21369DA     SC438827 101.986  49.149  71.696
21370DT     BB138828 101.457  49.410  71.626
21370DT     BB238829 101.372  49.299  71.959
21370DT     BB338830 101.449  49.430  72.099
21370DT     SC138831 101.692  49.339  72.063
21370DT     SC238832 101.755  49.231  72.238
21370DT     SC338833 101.948  49.334  71.999
21371DC     BB138834 101.204  49.560  72.168
21371DC     BB238835 101.329  49.445  72.486
21371DC     BB338836 101.444  49.592  72.574
21371DC     SC138837 101.643  49.547  72.409
21371DC     SC238838 101.807  49.458  72.517
21371DC     SC338839 101.822  49.587  72.219
21372DT     BB138840 101.254  49.665  72.769
21372DT     BB238841 101.546  49.579  72.962
21372DT     BB338842 101.663  49.747  72.993
21372DT     SC138843 101.749  49.743  72.745
21372DT     SC238844 101.957  49.689  72.742
21372DT     SC338845 101.791  49.817  72.495
21373DG     BB138846 101.569  49.610  73.365
21373DG     BB238847 101.926  49.650  73.327
21373DG     BB338848 101.975  49.842  73.347
21373DG     SC138849 101.943  49.908  73.050
21373DG     SC238850 102.163  49.984  72.863
21373DG     SC338851 101.898  50.019  72.735
21373DG     SC438852 101.800  49.953  72.996
21374DT     BB138853 102.108  49.908  73.511
21374DT     BB238854 102.416  49.970  73.333
21374DT     BB338855 102.444  50.173  73.309
21374DT     SC138856 102.260  50.184  73.121
21374DT     SC238857 102.354  50.223  72.932
21374DT     SC338858 102.037  50.247  72.995
21375DA     BB138859 102.796  50.016  73.475
21375DA     BB238860 102.890  50.227  73.191
21375DA     BB338861 102.863  50.433  73.239
21375DA     SC138862 102.570  50.445  73.136
21375DA     SC238863 102.445  50.549  72.946
21375DA     SC338864 102.237  50.515  73.092
21375DA     SC438865 102.453  50.417  73.242
21376DT     BB138866 103.028  50.560  73.256
21376DT     BB238867 102.975  50.742  72.949
21376DT     BB338868 102.902  50.931  72.990
21376DT     SC138869 102.664  50.835  73.046
21376DT     SC238870 102.525  50.895  72.894
21376DT     SC338871 102.448  50.773  73.184
21377DT     BB138872 103.143  51.069  72.935
21377DT     BB238873 102.902  51.227  72.718
21377DT     BB338874 102.815  51.388  72.815
21377DT     SC138875 102.669  51.229  72.964
21377DT     SC238876 102.462  51.246  72.906
21377DT     SC338877 102.572  51.109  73.178
21378DA     BB138878 102.962  51.573  72.465
21378DA     BB238879 102.608  51.667  72.496
21378DA     BB338880 102.585  51.821  72.642
21378DA     SC138881 102.542  51.624  72.879
21378DA     SC238882 102.355  51.554  73.029
21378DA     SC338883 102.540  51.471  73.186
21378DA     SC438884 102.671  51.580  72.964
21379DT     BB138885 102.519  52.034  72.597
21379DT     BB238886 102.181  51.986  72.713
21379DT     BB338887 102.148  52.096  72.885
21379DT     SC138888 102.288  51.927  73.029
21379DT     SC238889 102.156  51.820  73.161
21379DT     SC338890 102.479  51.831  73.183
21380DT     BB138891 101.989  52.259  72.742
21380DT     BB238892 101.777  52.114  72.994
21380DT     BB338893 101.786  52.226  73.168
21380DT     SC138894 102.025  52.132  73.225
21380DT     SC238895 102.011  52.003  73.397
21380DT     SC338896 102.284  52.126  73.272
21381DT     BB138897 101.539  52.279  73.101
21381DT     BB238898 101.522  52.116  73.423
21381DT     BB338899 101.559  52.253  73.574
21381DT     SC138900 101.816  52.255  73.518
21381DT     SC238901 101.924  52.160  73.678
21381DT     SC338902 102.053  52.343  73.444
21382DA     BB138903 101.226  52.001  73.630
21382DA     BB238904 101.431  52.000  73.935
21382DA     BB338905 101.424  52.191  74.029
21382DA     SC138906 101.672  52.302  73.877
21382DA     SC238907 101.907  52.366  73.929
21382DA     SC338908 101.897  52.502  73.712
21382DA     SC438909 101.645  52.382  73.740
21383DC     BB138910 101.350  52.164  74.184
21383DC     BB238911 101.646  52.209  74.385
21383DC     BB338912 101.658  52.405  74.451
21383DC     SC138913 101.731  52.488  74.213
21383DC     SC238914 101.937  52.551  74.220
21383DC     SC338915 101.726  52.616  73.983
21384DT     BB138916 101.605  52.301  74.687
21384DT     BB238917 101.915  52.480  74.730
21384DT     BB338918 101.877  52.681  74.761
21384DT     SC138919 101.819  52.717  74.508
21384DT     SC238920 101.973  52.836  74.416
21384DT     SC338921 101.680  52.773  74.291
21385DA     BB138922 102.139  52.537  75.056
21385DA     BB238923 102.276  52.850  74.923
21385DA     BB338924 102.157  53.016  74.987
21385DA     SC138925 101.968  53.008  74.740
21385DA     SC238926 101.922  53.147  74.538
21385DA     SC338927 101.697  53.023  74.530
21385DA     SC438928 101.833  52.921  74.753
21386DT     BB138929 102.250  53.132  75.100
21386DT     BB238930 102.290  53.403  74.865
21386DT     BB338931 102.149  53.550  74.901
21386DT     SC138932 101.958  53.403  74.795
21386DT     SC238933 101.895  53.491  74.610
21386DT     SC338934 101.737  53.261  74.774
21387DA     BB138935 102.531  53.720  74.871
21387DA     BB238936 102.300  53.918  74.666
21387DA     BB338937 102.166  54.028  74.790
21387DA     SC138938 101.950  53.804  74.796
21387DA     SC238939 101.720  53.767  74.706
21387DA     SC338940 101.700  53.587  74.888
21387DA     SC438941 101.956  53.698  74.917
21388DT     BB138942 102.191  54.208  74.773
21388DT     BB238943 101.886  54.286  74.595
21388DT     BB338944 101.743  54.355  74.728
21388DT     SC138945 101.701  54.112  74.820
21388DT     SC238946 101.506  54.045  74.759
21388DT     SC338947 101.690  53.909  74.988
21389DT     BB138948 101.777  54.598  74.623
21389DT     BB238949 101.422  54.540  74.599
21389DT     BB338950 101.330  54.589  74.778
21389DT     SC138951 101.421  54.371  74.893
21389DT     SC238952 101.257  54.237  74.931
21389DT     SC338953 101.554  54.215  75.059
21390DA     BB138954 101.110  54.818  74.499
21390DA     BB238955 100.867  54.659  74.723
21390DA     BB338956 100.867  54.755  74.913
21390DA     SC138957 101.084  54.569  75.036
21390DA     SC238958 101.097  54.390  75.208
21390DA     SC338959 101.348  54.440  75.213
21390DA     SC438960 101.237  54.616  75.025
21391DT     BB138961 100.699  54.898  75.017
21391DT     BB238962 100.586  54.661  75.264
21391DT     BB338963 100.640  54.726  75.454
21391DT     SC138964 100.890  54.658  75.413
21391DT     SC238965 100.939  54.489  75.537
21391DT     SC338966 101.151  54.680  75.383
21392DG     BB138967 100.229  54.734  75.510
21392DG     BB238968 100.387  54.543  75.774
21392DG     BB338969 100.448  54.665  75.918
21392DG     SC138970 100.725  54.710  75.796
21392DG     SC238971 100.985  54.619  75.911
21392DG     SC338972 101.030  54.798  75.680
21392DG     SC438973 100.745  54.829  75.691
21393DA     BB138974 100.274  54.487  76.169
21393DA     BB238975 100.588  54.407  76.339
21393DA     BB338976 100.651  54.571  76.460
21393DA     SC138977 100.820  54.704  76.236
21393DA     SC238978 101.061  54.743  76.185
21393DA     SC338979 100.977  54.927  76.027
21393DA     SC438980 100.748  54.814  76.144
21394DA     BB138981 100.657  54.347  76.703
21394DA     BB238982 101.017  54.410  76.730
21394DA     BB338983 101.052  54.591  76.837
21394DA     SC138984 101.053  54.770  76.582
21394DA     SC238985 101.217  54.902  76.449
21394DA     SC338986 101.013  55.027  76.358
21394DA     SC438987 100.913  54.837  76.538
21395DA     BB138988 101.241  54.397  77.025
21395DA     BB238989 101.525  54.605  76.925
21395DA     BB338990 101.524  54.790  77.033
21395DA     SC138991 101.354  54.940  76.819
21395DA     SC238992 101.387  55.122  76.652
21395DA     SC338993 101.132  55.146  76.658
21395DA     SC438994 101.194  54.941  76.838
21396DA     BB138995 101.832  54.708  77.122
21396DA     BB238996 101.946  55.011  76.950
21396DA     BB338997 101.910  55.183  77.071
21396DA     SC138998 101.627  55.236  76.952
21396DA     SC238999 101.517  55.406  76.806
21396DA     SC339000 101.297  55.321  76.907
21396DA     SC439001 101.501  55.171  77.028
21397DA     BB139002 102.235  55.252  77.043
21397DA     BB239003 102.139  55.561  76.871
21397DA     BB339004 102.082  55.710  77.012
21397DA     SC139005 101.781  55.631  77.011
21397DA     SC239006 101.565  55.727  76.932
21397DA     SC339007 101.456  55.565  77.097
21397DA     SC439008 101.732  55.524  77.121
21398DA     BB139009 102.314  55.912  76.881
21398DA     BB239010 102.040  56.133  76.777
21398DA     BB339011 101.981  56.259  76.939
21398DA     SC139012 101.764  56.061  77.044
21398DA     SC239013 101.516  56.049  77.057
21398DA     SC339014 101.554  55.875  77.241
21398DA     SC439015 101.809  55.956  77.157
21399DG     BB139016 102.066  56.507  76.766
21399DG     BB239017 101.709  56.568  76.762
21399DG     BB339018 101.657  56.678  76.919
21399DG     SC139019 101.607  56.438  77.102
21399DG     SC239020 101.342  56.353  77.211
21399DG     SC339021 101.562  56.198  77.335
21399DG     SC439022 101.729  56.378  77.187
21400DT     BB139023 101.568  56.863  76.877
21400DT     BB239024 101.222  56.779  76.937
21400DT     BB339025 101.161  56.856  77.119
21400DT     SC139026 101.294  56.671  77.250
21400DT     SC239027 101.155  56.537  77.344
21400DT     SC339028 101.471  56.560  77.411
21401DT     BB139029 101.021  56.989  76.949
21401DT     BB239030 100.786  56.809  77.154
21401DT     BB339031 100.764  56.904  77.337
21401DT     SC139032 100.998  56.817  77.419
21401DT     SC239033 100.969  56.672  77.575
21401DT     SC339034 101.248  56.820  77.502
21402DT     BB139035 100.535  56.928  77.223
21402DT     BB239036 100.477  56.753  77.533
21402DT     BB339037 100.486  56.886  77.692
21402DT     SC139038 100.748  56.899  77.676
21402DT     SC239039 100.835  56.803  77.848
21402DT     SC339040 100.990  56.999  77.641
21403DT     BB139041 100.237  56.820  77.693
21403DT     BB239042 100.363  56.739  78.021
21403DT     BB339043 100.381  56.912  78.134
21403DT     SC139044 100.595  56.986  78.002
21403DT     SC239045 100.767  56.971  78.131
21403DT     SC339046 100.754  57.128  77.847
21404DT     BB139047 100.179  56.810  78.268
21404DT     BB239048 100.438  56.866  78.513
21404DT     BB339049 100.437  57.065  78.572
21404DT     SC139050 100.548  57.140  78.346
21404DT     SC239051 100.750  57.205  78.384
21404DT     SC339052 100.581  57.258  78.112
21405DA     BB139053 100.433  56.821  78.913
21405DA     BB239054 100.689  57.078  78.959
21405DA     BB339055 100.598  57.269  78.991
21405DA     SC139056 100.595  57.344  78.689
21405DA     SC239057 100.710  57.505  78.537
21405DA     SC339058 100.513  57.466  78.379
21405DA     SC439059 100.463  57.307  78.605
21406DT     BB139060 100.627  57.344  79.164
21406DT     BB239061 100.859  57.602  79.065
21406DT     BB339062 100.762  57.784  79.055
21406DT     SC139063 100.644  57.717  78.830
21406DT     SC239064 100.725  57.834  78.669
21406DT     SC339065 100.453  57.659  78.657
21407DA     BB139066 101.110  57.825  79.284
21407DA     BB239067 101.100  58.100  79.043
21407DA     BB339068 100.946  58.239  79.095
21407DA     SC139069 100.727  58.098  78.926
21407DA     SC239070 100.596  58.143  78.718
21407DA     SC339071 100.431  57.968  78.808
21407DA     SC439072 100.636  57.987  78.999
21408DG     BB139073 101.194  58.424  79.099
21408DG     BB239074 101.014  58.593  78.835
21408DG     BB339075 100.867  58.703  78.912
21408DG     SC139076 100.659  58.479  78.901
21408DG     SC239077 100.416  58.474  78.728
21408DG     SC339078 100.411  58.251  78.922
21408DG     SC439079 100.646  58.379  79.026
21409DA     BB139080 100.996  58.968  78.723
21409DA     BB239081 100.670  59.014  78.562
21409DA     BB339082 100.532  59.103  78.698
21409DA     SC139083 100.426  58.831  78.807
21409DA     SC239084 100.216  58.697  78.796
21409DA     SC339085 100.305  58.579  79.006
21409DA     SC439086 100.498  58.771  78.938
21410DT     BB139087 100.455  59.305  78.677
21410DT     BB239088 100.116  59.222  78.586
21410DT     BB339089  99.989  59.258  78.745
21410DT     SC139090 100.073  59.044  78.872
21410DT     SC239091  99.917  58.897  78.876
21410DT     SC339092 100.186  58.894  79.057
21411DT     BB139093  99.863  59.513  78.665
21411DT     BB239094  99.577  59.304  78.736
21411DT     BB339095  99.515  59.333  78.931
21411DT     SC139096  99.718  59.195  79.025
21411DT     SC239097  99.646  59.010  79.108
21411DT     SC339098  99.940  59.138  79.155
21412DA     BB139099  99.149  59.427  78.739
21412DA     BB239100  99.069  59.184  79.002
21412DA     BB339101  99.058  59.281  79.192
21412DA     SC139102  99.359  59.237  79.259
21412DA     SC239103  99.494  59.101  79.418
21412DA     SC339104  99.681  59.271  79.372
21412DA     SC439105  99.462  59.354  79.219
21413DA     BB139106  98.749  59.159  79.226
21413DA     BB239107  98.872  58.966  79.512
21413DA     BB339108  98.876  59.087  79.688
21413DA     SC139109  99.169  59.184  79.643
21413DA     SC239110  99.392  59.151  79.748
21413DA     SC339111  99.458  59.368  79.628
21413DA     SC439112  99.190  59.321  79.561
21414DA     BB139113  98.694  58.844  79.810
21414DA     BB239114  98.967  58.783  80.047
21414DA     BB339115  98.962  58.928  80.204
21414DA     SC139116  99.150  59.128  80.058
21414DA     SC239117  99.382  59.216  80.083
21414DA     SC339118  99.303  59.411  79.936
21414DA     SC439119  99.081  59.242  79.967
21415DT     BB139120  98.924  58.858  80.382
21415DT     BB239121  99.261  58.883  80.510
21415DT     BB339122  99.277  59.048  80.635
21415DT     SC139123  99.275  59.213  80.431
21415DT     SC239124  99.470  59.302  80.410
21415DT     SC339125  99.197  59.404  80.267
21416DT     BB139126  99.294  58.879  80.844
21416DT     BB239127  99.594  59.078  80.862
21416DT     BB339128  99.557  59.254  80.965
21416DT     SC139129  99.427  59.355  80.761
21416DT     SC239130  99.542  59.516  80.676
21416DT     SC339131  99.230  59.453  80.616
21417DG     BB139132  99.858  59.065  81.166
21417DG     BB239133  99.946  59.406  81.087
21417DG     BB339134  99.857  59.531  81.214
21417DG     SC139135  99.605  59.564  81.044
21417DG     SC239136  99.518  59.815  80.907
21417DG     SC339137  99.307  59.608  80.892
21417DG     SC439138  99.484  59.461  81.063
21418DT     BB139139  99.970  59.668  81.364
21418DT     BB239140  99.933  59.989  81.203
21418DT     BB339141  99.795  60.103  81.305
21418DT     SC139142  99.595  59.962  81.210
21418DT     SC239143  99.483  60.083  81.071
21418DT     SC339144  99.386  59.802  81.202
21419DT     BB139145  99.987  60.274  81.417
21419DT     BB239146  99.766  60.495  81.236
21419DT     BB339147  99.613  60.559  81.359
21419DT     SC139148  99.493  60.326  81.345
21419DT     SC239149  99.311  60.346  81.232
21419DT     SC339150  99.392  60.094  81.419
21420DT     BB139151  99.722  60.808  81.369
21420DT     BB239152  99.392  60.856  81.231
21420DT     BB339153  99.254  60.881  81.384
21420DT     SC139154  99.261  60.625  81.442
21420DT     SC239155  99.074  60.534  81.388
21420DT     SC339156  99.301  60.402  81.578
21421DA     BB139157  99.214  61.189  81.104
21421DA     BB239158  98.882  61.042  81.163
21421DA     BB339159  98.809  61.100  81.355
21421DA     SC139160  98.930  60.854  81.502
21421DA     SC239161  98.848  60.646  81.613
21421DA     SC339162  99.076  60.643  81.730
21421DA     SC439163  99.077  60.870  81.566
21422DT     BB139164  98.657  61.203  81.338
21422DT     BB239165  98.422  60.949  81.441
21422DT     BB339166  98.370  60.977  81.640
21422DT     SC139167  98.602  60.885  81.722
21422DT     SC239168  98.573  60.695  81.818
21422DT     SC339169  98.840  60.877  81.835
21423DT     BB139170  98.136  61.045  81.540
21423DT     BB239171  98.069  60.769  81.763
21423DT     BB339172  98.055  60.838  81.958
21423DT     SC139173  98.315  60.870  81.975
21423DT     SC239174  98.396  60.724  82.110
21423DT     SC339175  98.549  60.988  82.001
21424DT     BB139176  97.801  60.777  81.929
21424DT     BB239177  97.913  60.586  82.214
21424DT     BB339178  97.912  60.705  82.384
21424DT     SC139179  98.128  60.833  82.305
21424DT     SC239180  98.293  60.780  82.433
21424DT     SC339181  98.285  61.029  82.226
21425DT     BB139182  97.714  60.549  82.452
21425DT     BB239183  97.956  60.520  82.719
21425DT     BB339184  97.938  60.680  82.848
21425DT     SC139185  98.053  60.842  82.677
21425DT     SC239186  98.247  60.898  82.752
21425DT     SC339187  98.087  61.043  82.510
21426DA     BB139188  97.950  60.312  83.052
21426DA     BB239189  98.180  60.546  83.217
21426DA     BB339190  98.070  60.701  83.315
21426DA     SC139191  98.073  60.891  83.069
21426DA     SC239192  98.179  61.107  83.003
21426DA     SC339193  97.993  61.122  82.828
21426DA     SC439194  97.949  60.883  82.967
21427DA     BB139195  98.270  60.590  83.550
21427DA     BB239196  98.395  60.933  83.575
21427DA     BB339197  98.246  61.060  83.660
21427DA     SC139198  98.122  61.138  83.386
21427DA     SC239199  98.107  61.340  83.241
21427DA     SC339200  97.907  61.223  83.132
21427DA     SC439201  97.999  61.050  83.332
21428DA     BB139202  98.500  61.131  83.859
21428DA     BB239203  98.458  61.481  83.758
21428DA     BB339204  98.281  61.562  83.846
21428DA     SC139205  98.098  61.484  83.607
21428DA     SC239206  97.973  61.599  83.424
21428DA     SC339207  97.835  61.383  83.410
21428DA     SC439208  98.022  61.342  83.615
21429DC     BB139209  98.287  61.712  83.996
21429DC     BB239210  98.162  61.988  83.799
21429DC     BB339211  97.966  62.029  83.851
21429DC     SC139212  97.879  61.817  83.724
21429DC     SC239213  97.768  61.879  83.550
21429DC     SC339214  97.767  61.582  83.681
21430DC     BB139215  98.007  62.268  84.014
21430DC     BB239216  97.758  62.376  83.777
21430DC     BB339217  97.569  62.347  83.855
21430DC     SC139218  97.583  62.088  83.815
21430DC     SC239219  97.447  62.032  83.659
21430DC     SC339220  97.592  61.830  83.866
21431DG     BB139221  97.532  62.764  83.835
21431DG     BB239222  97.248  62.609  83.673
21431DG     BB339223  97.106  62.570  83.807
21431DG     SC139224  97.211  62.291  83.874
21431DG     SC239225  97.073  62.033  83.814
21431DG     SC339226  97.310  61.988  83.986
21431DG     SC439227  97.321  62.275  83.989
21432DT     BB139228  96.859  62.667  83.839
21432DT     BB239229  96.673  62.389  83.702
21432DT     BB339230  96.563  62.297  83.852
21432DT     SC139231  96.778  62.185  83.952
21432DT     SC239232  96.771  61.973  83.918
21432DT     SC339233  96.970  62.125  84.123
21433DT     BB139234  96.316  62.395  83.762
21433DT     BB239235  96.280  62.037  83.750
21433DT     BB339236  96.203  61.967  83.929
21433DT     SC139237  96.434  62.002  84.050
21433DT     SC239238  96.519  61.811  84.098
21433DT     SC339239  96.614  62.096  84.219
21434DG     BB139240  95.965  61.850  83.622
21434DG     BB239241  96.075  61.569  83.821
21434DG     BB339242  95.970  61.560  83.990
21434DG     SC139243  96.162  61.738  84.148
21434DG     SC239244  96.333  61.651  84.378
21434DG     SC339245  96.340  61.945  84.346
21434DG     SC439246  96.140  61.896  84.147
21435DG     BB139247  95.921  61.266  83.870
21435DG     BB239248  96.088  61.150  84.170
21435DG     BB339249  95.964  61.163  84.325
21435DG     SC139250  96.047  61.448  84.399
21435DG     SC239251  96.192  61.531  84.646
21435DG     SC339252  96.098  61.767  84.495
21435DG     SC439253  95.969  61.571  84.331
21436DG     BB139254  96.046  60.851  84.342
21436DG     BB239255  96.175  60.933  84.670
21436DG     BB339256  96.024  60.955  84.799
21436DG     SC139257  95.990  61.254  84.745
21436DG     SC239258  96.045  61.474  84.940
21436DG     SC339259  95.912  61.579  84.697
21436DG     SC439260  95.893  61.301  84.627
21437DA     BB139261  96.213  60.736  84.991
21437DA     BB239262  96.213  60.981  85.264
21437DA     BB339263  96.020  60.993  85.353
21437DA     SC139264  95.922  61.221  85.165
21437DA     SC239265  95.866  61.463  85.183
21437DA     SC339266  95.735  61.428  84.965
21437DA     SC439267  95.845  61.178  85.030
21438DA     BB139268  96.180  60.931  85.638
21438DA     BB239269  96.049  61.249  85.764
21438DA     BB339270  95.842  61.229  85.814
21438DA     SC139271  95.741  61.313  85.532
21438DA     SC239272  95.622  61.506  85.428
21438DA     SC339273  95.564  61.343  85.239
21438DA     SC439274  95.714  61.196  85.425
21439DG     BB139275  95.890  61.294  86.128
21439DG     BB239276  95.685  61.584  86.062
21439DG     BB339277  95.493  61.539  86.088
21439DG     SC139278  95.448  61.451  85.799
21439DG     SC239279  95.276  61.589  85.598
21439DG     SC339280  95.370  61.328  85.494
21439DG     SC439281  95.476  61.298  85.759
21440DT     BB139282  95.312  61.620  86.267
21440DT     BB239283  95.124  61.847  86.059
21440DT     BB339284  94.934  61.772  86.026
21440DT     SC139285  95.025  61.593  85.857
21440DT     SC239286  94.959  61.643  85.658
21440DT     SC339287  95.085  61.359  85.751
21441DA     BB139288  94.835  62.148  86.189
21441DA     BB239289  94.650  62.117  85.874
21441DA     BB339290  94.474  61.999  85.902
21441DA     SC139291  94.614  61.730  85.832
21441DA     SC239292  94.609  61.562  85.648
21441DA     SC339293  94.712  61.402  85.819
21441DA     SC439294  94.676  61.645  85.953
21442DT     BB139295  94.275  62.084  85.883
21442DT     BB239296  94.210  61.946  85.556
21442DT     BB339297  94.066  61.798  85.569
21442DT     SC139298  94.237  61.629  85.675
21442DT     SC239299  94.279  61.472  85.534
21442DT     SC339300  94.350  61.468  85.850
21443DT     BB139301  93.902  61.967  85.443
21443DT     BB239302  93.918  61.676  85.231
21443DT     BB339303  93.779  61.535  85.293
21443DT     SC139304  93.927  61.470  85.500
21443DT     SC239305  94.006  61.272  85.472
21443DT     SC339306  94.003  61.437  85.750
21444DG     BB139307  93.728  61.630  84.901
21444DG     BB239308  93.756  61.273  84.951
21444DG     BB339309  93.587  61.201  85.026
21444DG     SC139310  93.672  61.241  85.318
21444DG     SC239311  93.724  61.025  85.516
21444DG     SC339312  93.724  61.290  85.647
21444DG     SC439313  93.641  61.381  85.389
21445DT     BB139314  93.486  61.061  84.911
21445DT     BB239315  93.545  60.755  85.093
21445DT     BB339316  93.380  60.709  85.210
21445DT     SC139317  93.439  60.897  85.383
21445DT     SC239318  93.502  60.807  85.567
21445DT     SC339319  93.420  61.117  85.526
21446DA     BB139320  93.469  60.366  84.986
21446DA     BB239321  93.419  60.262  85.334
21446DA     BB339322  93.212  60.269  85.384
21446DA     SC139323  93.222  60.563  85.486
21446DA     SC239324  93.204  60.684  85.703
21446DA     SC339325  93.150  60.890  85.561
21446DA     SC439326  93.188  60.679  85.380
21447DC     BB139327  93.098  60.092  85.424
21447DC     BB239328  93.071  60.137  85.781
21447DC     BB339329  92.878  60.192  85.832
21447DC     SC139330  92.915  60.436  85.741
21447DC     SC239331  92.919  60.574  85.906
21447DC     SC339332  92.888  60.653  85.593
21448DT     BB139333  92.807  59.942  85.940
21448DT     BB239334  92.743  60.173  86.209
21448DT     BB339335  92.547  60.240  86.200
21448DT     SC139336  92.601  60.396  85.996
21448DT     SC239337  92.591  60.601  86.058
21448DT     SC339338  92.597  60.496  85.752
21449DC     BB139339  92.469  60.090  86.420
21449DC     BB239340  92.387  60.429  86.511
21449DC     BB339341  92.194  60.474  86.451
21449DC     SC139342  92.269  60.493  86.200
21449DC     SC239343  92.258  60.699  86.137
21449DC     SC339344  92.287  60.442  85.942
21450DA     BB139345  92.237  60.575  86.854
21450DA     BB239346  92.092  60.863  86.679
21450DA     BB339347  91.888  60.825  86.629
21450DA     SC139348  91.954  60.704  86.350
21450DA     SC239349  91.925  60.767  86.110
21450DA     SC339350  91.956  60.516  86.062
21450DA     SC439351  91.974  60.545  86.341
21451DT     BB139352  91.773  60.940  86.718
21451DT     BB239353  91.690  61.146  86.434
21451DT     BB339354  91.507  61.089  86.357
21451DT     SC139355  91.610  60.874  86.249
21451DT     SC239356  91.611  60.894  86.035
21451DT     SC339357  91.657  60.619  86.199
21452DA     BB139358  91.515  61.505  86.417
21452DA     BB239359  91.390  61.439  86.079
21452DA     BB339360  91.193  61.357  86.087
21452DA     SC139361  91.292  61.062  86.094
21452DA     SC239362  91.290  60.863  85.944
21452DA     SC339363  91.328  60.726  86.157
21452DA     SC439364  91.314  60.994  86.239
21453DT     BB139365  91.056  61.468  86.012
21453DT     BB239366  91.003  61.277  85.711
21453DT     BB339367  90.833  61.161  85.730
21453DT     SC139368  90.956  60.993  85.889
21453DT     SC239369  90.983  60.805  85.788
21453DT     SC339370  91.015  60.855  86.106
21454DT     BB139371  90.714  61.325  85.554
21454DT     BB239372  90.689  60.996  85.407
21454DT     BB339373  90.523  60.898  85.481
21454DT     SC139374  90.641  60.854  85.711
21454DT     SC239375  90.683  60.644  85.731
21454DT     SC339376  90.693  60.864  85.970
21455DT     BB139377  90.419  60.930  85.240
21455DT     BB239378  90.416  60.574  85.298
21455DT     BB339379  90.248  60.521  85.407
21455DT     SC139380  90.351  60.620  85.628
21455DT     SC239381  90.399  60.459  85.762
21455DT     SC339382  90.383  60.773  85.840
21456DT     BB139383  90.175  60.409  85.183
21456DT     BB239384  90.176  60.144  85.428
21456DT     BB339385  90.001  60.149  85.538
21456DT     SC139386  90.083  60.359  85.673
21456DT     SC239387  90.122  60.302  85.877
21456DT     SC339388  90.093  60.605  85.767
21457DT     BB139389  89.958  59.928  85.409
21457DT     BB239390  89.936  59.842  85.758
21457DT     BB339391  89.751  59.896  85.833
21457DT     SC139392  89.818  60.150  85.836
21457DT     SC239393  89.837  60.216  86.040
21457DT     SC339394  89.818  60.407  85.779
21458DG     BB139395  89.827  59.501  85.901
21458DG     BB239396  89.717  59.671  86.201
21458DG     BB339397  89.522  59.708  86.189
21458DG     SC139398  89.557  59.982  86.056
21458DG     SC239399  89.490  60.246  86.178
21458DG     SC339400  89.558  60.276  85.892
21458DG     SC439401  89.565  59.990  85.897
21459DA     BB139402  89.498  59.558  86.505
21459DA     BB239403  89.338  59.860  86.638
21459DA     BB339404  89.139  59.877  86.565
21459DA     SC139405  89.219  60.044  86.315
21459DA     SC239406  89.191  60.278  86.232
21459DA     SC339407  89.240  60.180  86.000
21459DA     SC439408  89.250  59.964  86.179
21460DG     BB139409  89.018  59.859  86.863
21460DG     BB239410  88.890  60.190  86.792
21460DG     BB339411  88.717  60.176  86.695
21460DG     SC139412  88.845  60.174  86.417
21460DG     SC239413  88.819  60.388  86.210
21460DG     SC339414  88.952  60.149  86.098
21460DG     SC439415  88.889  60.034  86.353
21461DT     BB139416  88.454  60.235  86.757
21461DT     BB239417  88.407  60.533  86.560
21461DT     BB339418  88.272  60.496  86.407
21461DT     SC139419  88.452  60.360  86.272
21461DT     SC239420  88.508  60.471  86.096
21461DT     SC339421  88.571  60.158  86.152
21462DT     BB139422  88.014  60.622  86.503
21462DT     BB239423  88.064  60.779  86.182
21462DT     BB339424  87.954  60.681  86.037
21462DT     SC139425  88.122  60.479  86.034
21462DT     SC239426  88.230  60.479  85.848
21462DT     SC339427  88.217  60.235  86.061
21463DC     BB139428  87.736  60.872  85.998
21463DC     BB239429  87.878  60.839  85.669
21463DC     BB339430  87.774  60.697  85.561
21463DC     SC139431  87.885  60.501  85.696
21463DC     SC239432  88.020  60.394  85.568
21463DC     SC339433  87.911  60.293  85.856
21464DG     BB139434  87.730  61.036  85.336
21464DG     BB239435  87.869  60.767  85.139
21464DG     BB339436  87.724  60.647  85.075
21464DG     SC139437  87.735  60.463  85.319
21464DG     SC239438  87.821  60.177  85.320
21464DG     SC339439  87.705  60.253  85.581
21464DG     SC439440  87.645  60.499  85.447
21465DT     BB139441  87.684  60.620  84.856
21465DT     BB239442  87.831  60.296  84.801
21465DT     BB339443  87.683  60.153  84.780
21465DT     SC139444  87.633  60.156  85.038
21465DT     SC239445  87.697  59.970  85.125
21465DT     SC339446  87.504  60.189  85.265
21466DT     BB139447  87.749  60.139  84.521
21466DT     BB239448  87.795  59.804  84.648
21466DT     BB339449  87.615  59.701  84.642
21466DT     SC139450  87.524  59.834  84.849
21466DT     SC239451  87.510  59.702  85.019
21466DT     SC339452  87.373  59.995  84.995
21467DT     BB139453  87.722  59.557  84.445
21467DT     BB239454  87.633  59.317  84.698
21467DT     BB339455  87.434  59.264  84.679
21467DT     SC139456  87.355  59.493  84.780
21467DT     SC239457  87.268  59.459  84.974
21467DT     SC339458  87.240  59.730  84.797
21468DA     BB139459  87.675  58.922  84.705
21468DA     BB239460  87.396  58.885  84.941
21468DA     BB339461  87.214  58.852  84.836
21468DA     SC139462  87.142  59.154  84.816
21468DA     SC239463  86.973  59.310  84.912
21468DA     SC339464  87.030  59.462  84.713
21468DA     SC439465  87.190  59.234  84.685
21469DT     BB139466  87.140  58.683  84.869
21469DT     BB239467  86.868  58.793  85.078
21469DT     BB339468  86.692  58.799  84.968
21469DT     SC139469  86.768  59.018  84.845
21469DT     SC239470  86.646  59.182  84.910
21469DT     SC339471  86.839  59.181  84.650
21470DA     BB139472  86.635  58.590  85.327
21470DA     BB239473  86.362  58.832  85.290
21470DA     BB339474  86.231  58.772  85.133
21470DA     SC139475  86.385  58.929  84.912
21470DA     SC239476  86.348  59.129  84.768
21470DA     SC339477  86.530  59.029  84.617
21470DA     SC439478  86.499  58.850  84.831
21471DT     BB139479  86.058  58.729  85.193
21471DT     BB239480  85.889  59.021  85.063
21471DT     BB339481  85.793  58.973  84.886
21471DT     SC139482  86.020  58.969  84.754
21471DT     SC239483  86.027  59.137  84.619
21471DT     SC339484  86.223  58.878  84.613
21472DT     BB139485  85.560  58.992  85.017
21472DT     BB239486  85.527  59.221  84.741
21472DT     BB339487  85.464  59.119  84.572
21472DT     SC139488  85.702  59.014  84.537
21472DT     SC239489  85.794  59.100  84.362
21472DT     SC339490  85.893  58.833  84.518
21473DT     BB139491  85.214  59.228  84.590
21473DT     BB239492  85.325  59.315  84.258
21473DT     BB339493  85.278  59.163  84.125
21473DT     SC139494  85.472  59.012  84.218
21473DT     SC239495  85.626  58.995  84.069
21473DT     SC339496  85.595  58.810  84.333
21474DA     BB139497  85.115  59.510  83.953
21474DA     BB239498  85.308  59.337  83.693
21474DA     BB339499  85.202  59.165  83.625
21474DA     SC139500  85.332  58.972  83.832
21474DA     SC239501  85.494  58.783  83.832
21474DA     SC339502  85.392  58.722  84.059
21474DA     SC439503  85.254  58.950  83.971
21475DC     BB139504  85.127  59.155  83.429
21475DC     BB239505  85.375  58.925  83.302
21475DC     BB339506  85.291  58.738  83.275
21475DC     SC139507  85.291  58.692  83.533
21475DC     SC239508  85.435  58.540  83.579
21475DC     SC339509  85.201  58.645  83.777
21476DT     BB139510  85.298  58.769  83.004
21476DT     BB239511  85.489  58.470  83.065
21476DT     BB339512  85.364  58.305  83.070
21476DT     SC139513  85.273  58.371  83.307
21476DT     SC239514  85.343  58.229  83.452
21476DT     SC339515  85.105  58.444  83.497
21477DT     BB139516  85.471  58.231  82.836
21477DT     BB239517  85.532  57.954  83.059
21477DT     BB339518  85.367  57.830  83.064
21477DT     SC139519  85.233  58.000  83.211
21477DT     SC239520  85.207  57.918  83.409
21477DT     SC339521  85.046  58.171  83.285
21478DT     BB139522  85.517  57.656  82.931
21478DT     BB239523  85.415  57.482  83.230
21478DT     BB339524  85.227  57.400  83.203
21478DT     SC139525  85.112  57.635  83.225
21478DT     SC239526  85.002  57.643  83.410
21478DT     SC339527  84.975  57.851  83.162
21479DT     BB139528  85.352  57.167  83.203
21479DT     BB239529  85.107  57.142  83.467
21479DT     BB339530  84.923  57.091  83.388
21479DT     SC139531  84.888  57.334  83.294
21479DT     SC239532  84.731  57.431  83.404
21479DT     SC339533  84.854  57.530  83.121
21480DG     BB139534  85.025  56.813  83.669
21480DG     BB239535  84.693  56.946  83.727
21480DG     BB339536  84.565  56.866  83.597
21480DG     SC139537  84.607  57.083  83.385
21480DG     SC239538  84.403  57.283  83.296
21480DG     SC339539  84.643  57.292  83.123
21480DG     SC439540  84.723  57.064  83.277
21481DA     BB139541  84.361  56.777  83.867
21481DA     BB239542  84.084  56.973  83.728
21481DA     BB339543  83.993  56.868  83.566
21481DA     SC139544  84.176  56.994  83.348
21481DA     SC239545  84.154  57.155  83.160
21481DA     SC339546  84.370  57.050  83.071
21481DA     SC439547  84.310  56.914  83.309
21482DC     BB139548  83.796  56.793  83.580
21482DC     BB239549  83.639  57.034  83.363
21482DC     BB339550  83.591  56.946  83.182
21482DC     SC139551  83.843  56.947  83.106
21482DC     SC239552  83.868  57.089  82.946
21482DC     SC339553  84.080  56.859  83.032
21483DA     BB139554  83.226  57.113  83.308
21483DA     BB239555  83.278  57.215  82.959
21483DA     BB339556  83.237  57.052  82.828
21483DA     SC139557  83.530  56.947  82.827
21483DA     SC239558  83.721  56.933  82.668
21483DA     SC339559  83.811  56.750  82.823
21483DA     SC439560  83.568  56.834  82.936
21484DA     BB139561  83.021  57.254  82.675
21484DA     BB239562  83.227  57.222  82.373
21484DA     BB339563  83.184  57.038  82.273
21484DA     SC139564  83.404  56.878  82.425
21484DA     SC239565  83.623  56.771  82.373
21484DA     SC339566  83.584  56.634  82.586
21484DA     SC439567  83.360  56.802  82.559
21485DA     BB139568  83.122  57.225  82.007
21485DA     BB239569  83.403  57.056  81.842
21485DA     BB339570  83.342  56.864  81.770
21485DA     SC139571  83.421  56.715  82.032
21485DA     SC239572  83.594  56.552  82.106
21485DA     SC339573  83.434  56.501  82.300
21485DA     SC439574  83.307  56.696  82.144
21486DA     BB139575  83.455  56.976  81.483
21486DA     BB239576  83.704  56.707  81.496
21486DA     BB339577  83.615  56.521  81.438
21486DA     SC139578  83.532  56.443  81.728
21486DA     SC239579  83.599  56.274  81.899
21486DA     SC339580  83.369  56.321  82.004
21486DA     SC439581  83.385  56.485  81.777
21487DA     BB139582  83.869  56.531  81.235
21487DA     BB239583  83.987  56.227  81.402
21487DA     BB339584  83.874  56.058  81.338
21487DA     SC139585  83.661  56.085  81.564
21487DA     SC239586  83.594  55.961  81.770
21487DA     SC339587  83.371  56.086  81.747
21487DA     SC439588  83.530  56.171  81.532
21488DT     BB139589  83.978  55.933  81.246
21488DT     BB239590  83.997  55.690  81.511
21488DT     BB339591  83.863  55.536  81.475
21488DT     SC139592  83.659  55.687  81.544
21488DT     SC239593  83.578  55.616  81.730
21488DT     SC339594  83.434  55.824  81.526
21489DC     BB139595  84.083  55.401  81.438
21489DC     BB239596  83.908  55.230  81.703
21489DC     BB339597  83.761  55.107  81.624
21489DC     SC139598  83.607  55.313  81.570
21489DC     SC239599  83.436  55.310  81.700
21489DC     SC339600  83.468  55.489  81.432
21490DT     BB139601  83.923  54.928  81.716
21490DT     BB239602  83.605  54.862  81.873
21490DT     BB339603  83.481  54.762  81.742
21490DT     SC139604  83.438  54.981  81.604
21490DT     SC239605  83.234  55.045  81.632
21490DT     SC339606  83.436  55.151  81.402
21491DC     BB139607  83.518  54.557  81.903
21491DC     BB239608  83.160  54.598  81.885
21491DC     BB339609  83.087  54.507  81.714
21491DC     SC139610  83.179  54.701  81.563
21491DC     SC239611  83.015  54.815  81.484
21491DC     SC339612  83.321  54.826  81.379
21492DT     BB139613  82.981  54.316  81.870
21492DT     BB239614  82.703  54.439  81.677
21492DT     BB339615  82.696  54.344  81.493
21492DT     SC139616  82.900  54.483  81.404
21492DT     SC239617  82.833  54.620  81.253
21492DT     SC339618  83.141  54.540  81.313
21493DT     BB139619  82.478  54.188  81.563
21493DT     BB239620  82.373  54.353  81.260
21493DT     BB339621  82.428  54.240  81.095
21493DT     SC139622  82.679  54.310  81.120
21493DT     SC239623  82.734  54.438  80.957
21493DT     SC339624  82.939  54.291  81.160
21494DA     BB139625  82.016  54.301  81.041
21494DA     BB239626  82.181  54.385  80.724
21494DA     BB339627  82.239  54.207  80.621
21494DA     SC139628  82.521  54.194  80.752
21494DA     SC239629  82.758  54.224  80.682
21494DA     SC339630  82.816  54.089  80.892
21494DA     SC439631  82.537  54.107  80.886
21495DG     BB139632  82.050  54.301  80.389
21495DG     BB239633  82.359  54.325  80.204
21495DG     BB339634  82.407  54.147  80.128
21495DG     SC139635  82.568  54.057  80.372
21495DG     SC239636  82.863  54.011  80.380
21495DG     SC339637  82.735  53.919  80.631
21495DG     SC439638  82.492  53.983  80.492
21496DG     BB139639  82.405  54.281  79.828
21496DG     BB239640  82.757  54.199  79.814
21496DG     BB339641  82.780  54.010  79.757
21496DG     SC139642  82.772  53.896  80.041
21496DG     SC239643  82.999  53.766  80.184
21496DG     SC339644  82.747  53.736  80.337
21496DG     SC439645  82.630  53.856  80.105
21497DC     BB139646  82.885  53.968  79.573
21497DC     BB239647  83.200  53.843  79.697
21497DC     BB339648  83.205  53.636  79.682
21497DC     SC139649  83.043  53.610  79.887
21497DC     SC239650  83.151  53.527  80.054
21497DC     SC339651  82.829  53.547  80.028
21498DT     BB139652  83.383  53.664  79.483
21498DT     BB239653  83.549  53.454  79.725
21498DT     BB339654  83.495  53.256  79.696
21498DT     SC139655  83.258  53.297  79.801
21498DT     SC239656  83.245  53.195  79.990
21498DT     SC339657  82.996  53.315  79.822
21499DA     BB139658  83.915  53.268  79.705
21499DA     BB239659  83.805  52.996  79.926
21499DA     BB339660  83.734  52.831  79.811
21499DA     SC139661  83.439  52.930  79.806
21499DA     SC239662  83.220  52.862  79.904
21499DA     SC339663  83.116  53.004  79.717
21499DA     SC439664  83.394  53.022  79.682
21500DC     BB139665  83.838  52.650  79.808
21500DC     BB239666  83.605  52.463  80.011
21500DC     BB339667  83.497  52.332  79.892
21500DC     SC139668  83.352  52.528  79.795
21500DC     SC239669  83.150  52.511  79.869
21500DC     SC339670  83.247  52.697  79.622
21501DG     BB139671  83.683  52.074  80.151
21501DG     BB239672  83.327  52.009  80.142
21501DG     BB339673  83.282  51.895  79.986
21501DG     SC139674  83.237  52.130  79.795
21501DG     SC239675  82.977  52.209  79.673
21501DG     SC339676  83.200  52.363  79.554
21501DG     SC439677  83.362  52.189  79.713
21502DT     BB139678  83.193  51.670  79.992
21502DT     BB239679  82.850  51.730  79.898
21502DT     BB339680  82.816  51.658  79.707
21502DT     SC139681  82.945  51.860  79.600
21502DT     SC239682  82.806  51.988  79.497
21502DT     SC339683  83.129  51.994  79.466
21503DA     BB139684  82.517  51.473  79.937
21503DA     BB239685  82.353  51.617  79.642
21503DA     BB339686  82.389  51.496  79.470
21503DA     SC139687  82.647  51.650  79.387
21503DA     SC239688  82.719  51.803  79.204
21503DA     SC339689  82.958  51.736  79.270
21503DA     SC439690  82.788  51.594  79.442
21504DT     BB139691  82.233  51.379  79.366
21504DT     BB239692  82.205  51.594  79.078
21504DT     BB339693  82.283  51.499  78.911
21504DT     SC139694  82.529  51.540  78.995
21504DT     SC239695  82.625  51.684  78.867
21504DT     SC339696  82.773  51.490  79.080
21505DA     BB139697  81.896  51.599  78.781
21505DA     BB239698  82.128  51.712  78.521
21505DA     BB339699  82.194  51.547  78.403
21505DA     SC139700  82.441  51.486  78.581
21505DA     SC239701  82.690  51.503  78.564
21505DA     SC339702  82.694  51.333  78.756
21505DA     SC439703  82.423  51.379  78.699
21506DT     BB139704  82.142  51.510  78.180
21506DT     BB239705  82.464  51.608  78.050
21506DT     BB339706  82.561  51.443  77.972
21506DT     SC139707  82.616  51.353  78.212
21506DT     SC239708  82.828  51.369  78.248
21506DT     SC339709  82.619  51.195  78.424
21507DT     BB139710  82.525  51.509  77.696
21507DT     BB239711  82.883  51.486  77.734
21507DT     BB339712  82.947  51.295  77.687
21507DT     SC139713  82.854  51.200  77.914
21507DT     SC239714  83.019  51.144  78.041
21507DT     SC339715  82.709  51.059  78.083
21508DC     BB139716  83.062  51.379  77.450
21508DC     BB239717  83.335  51.238  77.639
21508DC     BB339718  83.353  51.036  77.596
21508DC     SC139719  83.142  50.978  77.740
21508DC     SC239720  83.202  50.871  77.917
21508DC     SC339721  82.900  50.894  77.803
21509DC     BB139722  83.577  51.109  77.477
21509DC     BB239723  83.676  50.880  77.737
21509DC     BB339724  83.660  50.685  77.669
21509DC     SC139725  83.398  50.692  77.689
21509DC     SC239726  83.335  50.563  77.850
21509DC     SC339727  83.144  50.688  77.620
21510DA     BB139728  84.005  50.801  77.884
21510DA     BB239729  83.874  50.488  78.023
21510DA     BB339730  83.891  50.331  77.879
21510DA     SC139731  83.609  50.379  77.756
21510DA     SC239732  83.389  50.264  77.749
21510DA     SC339733  83.342  50.410  77.544
21510DA     SC439734  83.600  50.478  77.630
21511DT     BB139735  83.986  50.239  77.969
21511DT     BB239736  83.748  49.975  78.034
21511DT     BB339737  83.751  49.838  77.880
21511DT     SC139738  83.620  50.002  77.722
21511DT     SC239739  83.422  49.925  77.688
21511DT     SC339740  83.567  50.160  77.517
21512DA     BB139741  83.763  49.662  78.264
21512DA     BB239742  83.523  49.479  78.056
21512DA     BB339743  83.624  49.376  77.899
21512DA     SC139744  83.600  49.612  77.697
21512DA     SC239745  83.477  49.663  77.486
21512DA     SC339746  83.657  49.842  77.449
21512DA     SC439747  83.722  49.717  77.691
21513DA     BB139748  83.449  49.129  78.029
21513DA     BB239749  83.303  49.084  77.696
21513DA     BB339750  83.446  48.999  77.563
21513DA     SC139751  83.553  49.275  77.465
21513DA     SC239752  83.547  49.411  77.256
21513DA     SC339753  83.750  49.534  77.355
21513DA     SC439754  83.679  49.338  77.543
21514DA     BB139755  83.212  48.771  77.511
21514DA     BB239756  83.220  48.866  77.157
21514DA     BB339757  83.393  48.785  77.062
21514DA     SC139758  83.571  49.034  77.120
21514DA     SC239759  83.676  49.219  76.991
21514DA     SC339760  83.831  49.245  77.194
21514DA     SC439761  83.658  49.033  77.255
21515DA     BB139762  83.180  48.652  76.846
21515DA     BB239763  83.350  48.842  76.582
21515DA     BB339764  83.534  48.747  76.529
21515DA     SC139765  83.703  48.906  76.736
21515DA     SC239766  83.878  49.084  76.734
21515DA     SC339767  83.935  49.002  76.971
21515DA     SC439768  83.725  48.840  76.881
21516DA     BB139769  83.412  48.756  76.222
21516DA     BB239770  83.700  48.962  76.129
21516DA     BB339771  83.874  48.840  76.108
21516DA     SC139772  83.963  48.872  76.404
21516DA     SC239773  84.145  48.984  76.531
21516DA     SC339774  84.087  48.821  76.720
21516DA     SC439775  83.912  48.761  76.509
21517DA     BB139776  83.894  48.976  75.807
21517DA     BB239777  84.222  49.110  75.905
21517DA     BB339778  84.370  48.957  75.896
21517DA     SC139779  84.331  48.868  76.192
21517DA     SC239780  84.458  48.879  76.406
21517DA     SC339781  84.304  48.689  76.483
21517DA     SC439782  84.226  48.750  76.221
21518DC     BB139783  84.529  48.958  75.752
21518DC     BB239784  84.796  49.045  75.979
21518DC     BB339785  84.917  48.881  76.012
21518DC     SC139786  84.738  48.769  76.167
21518DC     SC239787  84.808  48.769  76.370
21518DC     SC339788  84.560  48.595  76.256
21519DG     BB139789  85.185  49.149  75.851
21519DG     BB239790  85.314  49.012  76.160
21519DG     BB339791  85.397  48.834  76.126
21519DG     SC139792  85.138  48.677  76.173
21519DG     SC239793  85.086  48.488  76.398
21519DG     SC339794  84.869  48.475  76.197
21519DG     SC439795  85.039  48.651  76.049
21520DC     BB139796  85.642  48.759  76.144
21520DC     BB239797  85.628  48.568  76.449
21520DC     BB339798  85.652  48.366  76.408
21520DC     SC139799  85.408  48.348  76.312
21520DC     SC239800  85.288  48.231  76.446
21520DC     SC339801  85.211  48.311  76.141
21521DA     BB139802  85.964  48.422  76.687
21521DA     BB239803  85.771  48.132  76.801
21521DA     BB339804  85.824  47.958  76.688
21521DA     SC139805  85.607  48.003  76.470
21521DA     SC239806  85.394  47.895  76.397
21521DA     SC339807  85.432  48.018  76.175
21521DA     SC439808  85.649  48.086  76.339
21522DA     BB139809  85.889  47.817  76.980
21522DA     BB239810  85.618  47.581  76.909
21522DA     BB339811  85.686  47.427  76.778
21522DA     SC139812  85.607  47.578  76.518
21522DA     SC239813  85.438  47.557  76.336
21522DA     SC339814  85.596  47.706  76.199
21522DA     SC439815  85.719  47.670  76.449
21523DG     BB139816  85.608  47.244  77.015
21523DG     BB239817  85.358  47.128  76.781
21523DG     BB339818  85.436  46.991  76.660
21523DG     SC139819  85.528  47.194  76.450
21523DG     SC239820  85.421  47.219  76.172
21523DG     SC339821  85.661  47.389  76.209
21523DG     SC439822  85.673  47.260  76.464
21524DC     BB139823  85.351  46.797  76.664
21524DC     BB239824  85.163  46.796  76.356
21524DC     BB339825  85.265  46.690  76.211
21524DC     SC139826  85.437  46.886  76.178
21524DC     SC239827  85.406  46.976  75.985
21524DC     SC339828  85.665  47.017  76.175
21525DA     BB139829  84.864  46.567  76.238
21525DA     BB239830  84.943  46.629  75.885
21525DA     BB339831  85.076  46.479  75.811
21525DA     SC139832  85.334  46.637  75.885
21525DA     SC239833  85.518  46.755  75.765
21525DA     SC339834  85.650  46.727  75.983
21525DA     SC439835  85.400  46.608  76.028
21526DT     BB139836  84.998  46.375  75.678
21526DT     BB239837  85.182  46.511  75.399
21526DT     BB339838  85.338  46.385  75.348
21526DT     SC139839  85.477  46.460  75.558
21526DT     SC239840  85.647  46.575  75.493
21526DT     SC339841  85.605  46.448  75.788
21527DT     BB139842  85.200  46.322  75.128
21527DT     BB239843  85.519  46.440  75.007
21527DT     BB339844  85.657  46.286  75.008
21527DT     SC139845  85.680  46.299  75.269
21527DT     SC239846  85.875  46.375  75.320
21527DT     SC339847  85.670  46.229  75.523
21528DT     BB139848  85.645  46.279  74.739
21528DT     BB239849  85.994  46.330  74.814
21528DT     BB339850  86.087  46.148  74.847
21528DT     SC139851  85.975  46.125  75.084
21528DT     SC239852  86.126  46.147  75.236
21528DT     SC339853  85.826  46.031  75.280
21529DT     BB139854  86.216  46.169  74.609
21529DT     BB239855  86.480  46.129  74.852
21529DT     BB339856  86.515  45.928  74.886
21529DT     SC139857  86.296  45.906  75.029
21529DT     SC239858  86.347  45.874  75.235
21529DT     SC339859  86.055  45.828  75.103
21530DT     BB139860  86.748  45.949  74.752
21530DT     BB239861  86.841  45.823  75.077
21530DT     BB339862  86.825  45.617  75.080
21530DT     SC139863  86.563  45.629  75.091
21530DT     SC239864  86.496  45.564  75.285
21530DT     SC339865  86.310  45.600  75.021
21531DT     BB139866  87.094  45.600  75.084
21531DT     BB239867  86.987  45.421  75.379
21531DT     BB339868  86.944  45.224  75.330
21531DT     SC139869  86.719  45.293  75.214
21531DT     SC239870  86.554  45.223  75.332
21531DT     SC339871  86.537  45.329  75.026
21532DG     BB139872  87.226  45.230  75.624
21532DG     BB239873  86.944  45.021  75.712
21532DG     BB339874  86.954  44.848  75.614
21532DG     SC139875  86.795  44.948  75.372
21532DG     SC239876  86.524  44.854  75.290
21532DG     SC339877  86.642  45.030  75.083
21532DG     SC439878  86.874  45.018  75.252
21533DA     BB139879  86.909  44.714  75.929
21533DA     BB239880  86.607  44.544  75.810
21533DA     BB339881  86.658  44.380  75.684
21533DA     SC139882  86.652  44.548  75.422
21533DA     SC239883  86.510  44.566  75.218
21533DA     SC339884  86.714  44.679  75.111
21533DA     SC439885  86.790  44.614  75.373
21534DT     BB139886  86.612  44.209  75.754
21534DT     BB239887  86.336  44.141  75.532
21534DT     BB339888  86.396  44.012  75.381
21534DT     SC139889  86.528  44.203  75.260
21534DT     SC239890  86.428  44.253  75.076
21534DT     SC339891  86.729  44.340  75.158
21535DC     BB139892  86.248  43.823  75.499
21535DC     BB239893  86.124  43.839  75.160
21535DC     BB339894  86.243  43.723  75.036
21535DC     SC139895  86.435  43.901  75.041
21535DC     SC239896  86.452  43.993  74.847
21535DC     SC339897  86.672  44.010  75.084
21536DC     BB139898  86.046  43.534  75.017
21536DC     BB239899  86.120  43.622  74.675
21536DC     BB339900  86.277  43.507  74.605
21536DC     SC139901  86.451  43.646  74.743
21536DC     SC239902  86.573  43.762  74.609
21536DC     SC339903  86.636  43.705  74.921
21537DT     BB139904  86.118  43.341  74.444
21537DT     BB239905  86.364  43.471  74.215
21537DT     BB339906  86.529  43.346  74.210
21537DT     SC139907  86.611  43.432  74.444
21537DT     SC239908  86.790  43.548  74.418
21537DT     SC339909  86.677  43.432  74.699
21538DA     BB139910  86.425  43.361  73.801
21538DA     BB239911  86.784  43.432  73.824
21538DA     BB339912  86.894  43.251  73.855
21538DA     SC139913  86.883  43.270  74.166
21538DA     SC239914  87.041  43.313  74.354
21538DA     SC339915  86.864  43.200  74.501
21538DA     SC439916  86.761  43.196  74.240
21539DT     BB139917  87.037  43.153  73.706
21539DT     BB239918  87.339  43.256  73.874
21539DT     BB339919  87.434  43.092  73.956
21539DT     SC139920  87.258  43.076  74.150
21539DT     SC239921  87.351  43.130  74.336
21539DT     SC339922  87.065  42.981  74.302
21540DT     BB139923  87.640  43.092  73.767
21540DT     BB239924  87.807  43.130  74.084
21540DT     BB339925  87.855  42.944  74.162
21540DT     SC139926  87.605  42.900  74.229
21540DT     SC239927  87.587  42.903  74.443
21540DT     SC339928  87.366  42.788  74.236
21541DA     BB139929  88.203  43.174  74.161
21541DA     BB239930  88.159  43.038  74.499
21541DA     BB339931  88.211  42.831  74.502
21541DA     SC139932  87.922  42.733  74.438
21541DA     SC239933  87.737  42.615  74.556
21541DA     SC339934  87.649  42.562  74.321
21541DA     SC439935  87.884  42.710  74.284
21542DC     BB139936  88.360  42.796  74.612
21542DC     BB239937  88.176  42.653  74.887
21542DC     BB339938  88.192  42.446  74.883
21542DC     SC139939  88.025  42.429  74.681
21542DC     SC239940  87.842  42.339  74.747
21542DC     SC339941  87.933  42.379  74.439
21543DG     BB139942  88.300  42.614  75.237
21543DG     BB239943  88.053  42.354  75.278
21543DG     BB339944  88.137  42.176  75.253
21543DG     SC139945  88.085  42.167  74.951
21543DG     SC239946  87.900  41.979  74.811
21543DG     SC339947  88.061  42.133  74.616
21543DG     SC439948  88.193  42.230  74.852
21544DG     BB139949  88.004  42.141  75.543
21544DG     BB239950  87.816  41.871  75.392
21544DG     BB339951  87.933  41.712  75.368
21544DG     SC139952  88.027  41.794  75.088
21544DG     SC239953  87.965  41.651  74.833
21544DG     SC339954  88.167  41.863  74.789
21544DG     SC439955  88.156  41.888  75.074
21545DT     BB139956  87.864  41.558  75.465
21545DT     BB239957  87.751  41.338  75.202
21545DT     BB339958  87.900  41.203  75.153
21545DT     SC139959  88.036  41.388  75.026
21545DT     SC239960  88.031  41.346  74.815
21545DT     SC339961  88.231  41.554  74.963
21546DT     BB139962  87.747  41.020  75.270
21546DT     BB239963  87.814  40.887  74.942
21546DT     BB339964  87.997  40.792  74.940
21546DT     SC139965  88.125  41.021  74.941
21546DT     SC239966  88.221  41.050  74.750
21546DT     SC339967  88.281  41.218  75.021
21547DC     BB139968  87.879  40.545  74.933
21547DC     BB239969  88.108  40.537  74.654
21547DC     BB339970  88.295  40.475  74.718
21547DC     SC139971  88.342  40.707  74.831
21547DC     SC239972  88.495  40.810  74.720
21547DC     SC339973  88.391  40.887  75.017
21548DG     BB139974  88.212  40.173  74.449
21548DG     BB239975  88.542  40.308  74.386
21548DG     BB339976  88.674  40.224  74.509
21548DG     SC139977  88.638  40.434  74.729
21548DG     SC239978  88.843  40.631  74.818
21548DG     SC339979  88.609  40.634  74.999
21548DG     SC439980  88.525  40.411  74.840
21549DT     BB139981  88.882  40.057  74.470
21549DT     BB239982  89.157  40.286  74.515
21549DT     BB339983  89.261  40.239  74.687
21549DT     SC139984  89.071  40.339  74.838
21549DT     SC239985  89.142  40.519  74.932
21549DT     SC339986  88.877  40.353  75.016
21550DA     BB139987  89.588  40.210  74.418
21550DA     BB239988  89.699  40.427  74.692
21550DA     BB339989  89.760  40.310  74.859
21550DA     SC139990  89.478  40.307  74.991
21550DA     SC239991  89.368  40.405  75.192
21550DA     SC339992  89.193  40.220  75.161
21550DA     SC439993  89.381  40.185  74.956
21551DA     BB139994  90.055  40.465  74.847
21551DA     BB239995  89.977  40.608  75.176
21551DA     BB339996  90.024  40.468  75.330
21551DA     SC139997  89.741  40.339  75.332
21551DA     SC239998  89.543  40.331  75.485
21551DA     SC339999  89.476  40.122  75.352
21551DA     SC440000  89.716  40.211  75.239
21552DA     BB140001  90.193  40.727  75.433
21552DA     BB240002  89.974  40.725  75.728
21552DA     BB340003  90.030  40.567  75.860
21552DA     SC140004  89.839  40.358  75.732
21552DA     SC240005  89.629  40.238  75.793
21552DA     SC340006  89.696  40.071  75.609
21552DA     SC440007  89.898  40.265  75.615
21553DC     BB140008  90.094  40.629  76.028
21553DC     BB240009  89.801  40.543  76.220
21553DC     BB340010  89.834  40.368  76.325
21553DC     SC140011  89.809  40.224  76.107
21553DC     SC240012  89.627  40.109  76.117
21553DC     SC340013  89.871  40.061  75.908
21554DA     BB140014  89.683  40.665  76.582
21554DA     BB240015  89.490  40.357  76.634
21554DA     BB340016  89.610  40.210  76.732
21554DA     SC140017  89.715  40.085  76.468
21554DA     SC240018  89.688  39.872  76.340
21554DA     SC340019  89.908  39.936  76.225
21554DA     SC440020  89.854  40.142  76.408
21555DT     BB140021  89.558  40.157  76.918
21555DT     BB240022  89.429  39.830  76.836
21555DT     BB340023  89.566  39.684  76.889
21555DT     SC140024  89.719  39.743  76.684
21555DT     SC240025  89.714  39.582  76.542
21555DT     SC340026  89.930  39.823  76.547
21556DG     BB140027  89.238  39.582  77.115
21556DG     BB240028  89.357  39.298  76.925
21556DG     BB340029  89.511  39.214  77.018
21556DG     SC140030  89.721  39.387  76.877
21556DG     SC240031  89.926  39.290  76.683
21556DG     SC340032  89.977  39.572  76.757
21556DG     SC440033  89.762  39.527  76.942
21557DA     BB140034  89.363  38.892  77.026
21557DA     BB240035  89.632  38.759  76.815
21557DA     BB340036  89.802  38.709  76.934
21557DA     SC140037  89.934  38.989  76.905
21557DA     SC240038  90.133  39.089  76.792
21557DA     SC340039  90.105  39.282  76.958
21557DA     SC440040  89.901  39.099  77.018
21558DT     BB140041  89.876  38.501  76.964
21558DT     BB240042  90.147  38.534  76.727
21558DT     BB340043  90.328  38.531  76.827
21558DT     SC140044  90.293  38.776  76.915
21558DT     SC240045  90.432  38.908  76.818
21558DT     SC340046  90.258  38.976  77.083
21559DA     BB140047  90.305  38.272  76.503
21559DA     BB240048  90.594  38.493  76.459
21559DA     BB340049  90.748  38.442  76.597
21559DA     SC140050  90.648  38.637  76.818
21559DA     SC240051  90.723  38.850  76.924
21559DA     SC340052  90.566  38.785  77.117
21559DA     SC440053  90.546  38.579  76.928
21560DG     BB140054  90.778  38.471  76.291
21560DG     BB240055  90.984  38.745  76.407
21560DG     BB340056  91.137  38.675  76.514
21560DG     SC140057  90.986  38.684  76.781
21560DG     SC240058  91.049  38.864  77.011
21560DG     SC340059  90.844  38.663  77.086
21560DG     SC440060  90.899  38.558  76.825
21561DT     BB140061  91.202  38.785  76.410
21561DT     BB240062  91.344  39.025  76.639
21561DT     BB340063  91.491  38.934  76.754
21561DT     SC140064  91.311  38.808  76.898
21561DT     SC240065  91.310  38.890  77.097
21561DT     SC340066  91.172  38.611  77.005
21562DT     BB140067  91.572  39.127  76.609
21562DT     BB240068  91.674  39.193  76.948
21562DT     BB340069  91.812  39.051  77.010
21562DT     SC140070  91.624  38.869  77.035
21562DT     SC240071  91.596  38.825  77.244
21562DT     SC340072  91.486  38.649  76.996
21563DT     BB140073  91.971  39.257  76.997
21563DT     BB240074  92.018  39.118  77.327
21563DT     BB340075  92.141  38.951  77.316
21563DT     SC140076  91.947  38.806  77.215
21563DT     SC240077  91.884  38.660  77.360
21563DT     SC340078  91.811  38.658  77.044
21564DA     BB140079  92.327  39.193  77.606
21564DA     BB240080  92.319  38.851  77.738
21564DA     BB340081  92.463  38.730  77.638
21564DA     SC140082  92.266  38.636  77.416
21564DA     SC240083  92.149  38.426  77.349
21564DA     SC340084  92.123  38.537  77.120
21564DA     SC440085  92.261  38.722  77.280
21565DC     BB140086  92.652  38.644  77.729
21565DC     BB240087  92.541  38.302  77.749
21565DC     BB340088  92.643  38.186  77.611
21565DC     SC140089  92.503  38.286  77.412
21565DC     SC240090  92.374  38.134  77.333
21565DC     SC340091  92.446  38.415  77.190
21566DT     BB140092  92.813  38.056  77.797
21566DT     BB240093  92.648  37.784  77.626
21566DT     BB340094  92.761  37.724  77.463
21566DT     SC140095  92.690  37.936  77.326
21566DT     SC240096  92.560  37.877  77.165
21566DT     SC340097  92.707  38.164  77.194
21567DT     BB140098  92.841  37.490  77.586
21567DT     BB240099  92.681  37.380  77.283
21567DT     BB340100  92.819  37.371  77.129
21567DT     SC140101  92.823  37.632  77.106
21567DT     SC240102  92.730  37.689  76.920
21567DT     SC340103  92.913  37.880  77.108
21568DG     BB140104  92.650  37.002  77.169
21568DG     BB240105  92.627  37.123  76.828
21568DG     BB340106  92.802  37.101  76.737
21568DG     SC140107  92.908  37.376  76.819
21568DG     SC240108  92.964  37.605  76.635
21568DG     SC340109  93.063  37.662  76.908
21568DG     SC440110  92.986  37.391  76.958
21569DC     BB140111  92.805  36.977  76.568
21569DC     BB240112  92.834  37.216  76.299
21569DC     BB340113  93.031  37.227  76.236
21569DC     SC140114  93.100  37.364  76.448
21569DC     SC240115  93.147  37.566  76.391
21569DC     SC340116  93.220  37.428  76.675
21570DA     BB140117  92.782  37.170  75.901
21570DA     BB240118  93.015  37.442  75.825
21570DA     BB340119  93.213  37.366  75.797
21570DA     SC140120  93.293  37.397  76.096
21570DA     SC240121  93.446  37.539  76.232
21570DA     SC340122  93.428  37.354  76.409
21570DA     SC440123  93.270  37.270  76.193
21571DT     BB140124  93.300  37.373  75.611
21571DT     BB240125  93.539  37.634  75.683
21571DT     BB340126  93.728  37.554  75.702
21571DT     SC140127  93.671  37.456  75.939
21571DT     SC240128  93.781  37.563  76.089
21571DT     SC340129  93.628  37.280  76.131
21572DA     BB140130  93.769  37.861  75.419
21572DA     BB240131  94.038  37.901  75.664
21572DA     BB340132  94.189  37.752  75.635
21572DA     SC140133  94.059  37.547  75.829
21572DA     SC240134  94.108  37.447  76.052
21572DA     SC340135  93.947  37.260  75.981
21572DA     SC440136  93.957  37.439  75.766
21573DT     BB140137  94.379  37.806  75.570
21573DT     BB240138  94.549  37.755  75.884
21573DT     BB340139  94.663  37.582  75.876
21573DT     SC140140  94.449  37.431  75.896
21573DT     SC240141  94.448  37.334  76.088
21573DT     SC340142  94.263  37.255  75.833
21574DT     BB140143  94.898  37.724  75.862
21574DT     BB240144  94.942  37.509  76.148
21574DT     BB340145  95.021  37.327  76.089
21574DT     SC140146  94.790  37.251  75.988
21574DT     SC240147  94.709  37.092  76.109
21574DT     SC340148  94.609  37.176  75.812
21575DT     BB140149  95.270  37.384  76.194
21575DT     BB240150  95.178  37.073  76.352
21575DT     BB340151  95.240  36.913  76.235
21575DT     SC140152  95.047  36.955  76.062
21575DT     SC240153  94.904  36.794  76.075
21575DT     SC340154  94.925  37.011  75.836
21576DC     BB140155  95.453  36.842  76.403
21576DC     BB240156  95.260  36.539  76.378
21576DC     BB340157  95.327  36.426  76.218
21576DC     SC140158  95.212  36.587  76.046
21576DC     SC240159  95.046  36.486  75.953
21576DC     SC340160  95.183  36.761  75.850
21577DT     BB140161  95.465  36.227  76.369
21577DT     BB240162  95.234  36.035  76.169
21577DT     BB340163  95.325  35.977  75.992
21577DT     SC140164  95.305  36.220  75.894
21577DT     SC240165  95.161  36.221  75.735
21577DT     SC340166  95.375  36.455  75.799
21578DT     BB140167  95.370  35.699  76.056
21578DT     BB240168  95.175  35.687  75.753
21578DT     BB340169  95.300  35.677  75.588
21578DT     SC140170  95.364  35.930  75.611
21578DT     SC240171  95.279  36.040  75.447
21578DT     SC340172  95.509  36.147  75.648
21579DC     BB140173  95.256  35.400  75.525
21579DC     BB240174  95.158  35.575  75.225
21579DC     BB340175  95.318  35.587  75.095
21579DC     SC140176  95.433  35.772  75.240
21579DC     SC240177  95.428  35.960  75.135
21579DC     SC340178  95.611  35.893  75.394
21580DG     BB140179  95.021  35.393  74.896
21580DG     BB240180  95.131  35.688  74.717
21580DG     BB340181  95.298  35.648  74.617
21580DG     SC140182  95.484  35.727  74.847
21580DG     SC240183  95.671  35.960  74.850
21580DG     SC340184  95.716  35.786  75.084
21580DG     SC440185  95.525  35.616  74.955
21581DT     BB140186  95.287  35.672  74.410
21581DT     BB240187  95.461  35.985  74.369
21581DT     BB340188  95.653  35.951  74.300
21581DT     SC140189  95.731  35.867  74.536
21581DT     SC240190  95.867  36.011  74.622
21581DT     SC340191  95.821  35.707  74.725
21582DT     BB140192  95.549  36.068  74.093
21582DT     BB240193  95.829  36.273  74.192
21582DT     BB340194  96.006  36.189  74.124
21582DT     SC140195  95.997  36.002  74.308
21582DT     SC240196  96.154  36.036  74.451
21582DT     SC340197  95.982  35.763  74.418
21583DA     BB140198  95.969  36.602  74.048
21583DA     BB240199  96.301  36.536  74.189
21583DA     BB340200  96.419  36.425  74.051
21583DA     SC140201  96.331  36.148  74.161
21583DA     SC240202  96.432  35.959  74.289
21583DA     SC340203  96.238  35.819  74.195
21583DA     SC440204  96.204  36.077  74.092
21584DA     BB140205  96.607  36.680  74.136
21584DA     BB240206  96.852  36.431  74.248
21584DA     BB340207  96.935  36.329  74.080
21584DA     SC140208  96.722  36.102  74.081
21584DA     SC240209  96.712  35.858  74.132
21584DA     SC340210  96.498  35.858  73.991
21584DA     SC440211  96.592  36.122  73.989
21585DG     BB140212  97.200  36.445  74.193
21585DG     BB240213  97.286  36.096  74.231
21585DG     BB340214  97.345  36.021  74.057
21585DG     SC140215  97.065  35.936  73.969
21585DG     SC240216  96.971  35.655  73.933
21585DG     SC340217  96.770  35.847  73.833
21585DG     SC440218  96.973  36.040  73.890
21586DT     BB140219  97.553  35.944  74.025
21586DT     BB240220  97.499  35.588  74.015
21586DT     BB340221  97.508  35.520  73.819
21586DT     SC140222  97.271  35.621  73.766
21586DT     SC240223  97.131  35.460  73.737
21586DT     SC340224  97.084  35.771  73.655
21587DA     BB140225  97.778  35.278  74.030
21587DA     BB240226  97.565  35.057  73.829
21587DA     BB340227  97.621  35.067  73.624
21587DA     SC140228  97.424  35.298  73.556
21587DA     SC240229  97.215  35.329  73.425
21587DA     SC340230  97.275  35.578  73.426
21587DA     SC440231  97.480  35.448  73.566
21588DA     BB140232  97.647  34.739  73.653
21588DA     BB240233  97.387  34.712  73.396
21588DA     BB340234  97.469  34.750  73.203
21588DA     SC140235  97.412  35.056  73.211
21588DA     SC240236  97.261  35.218  73.098
21588DA     SC340237  97.428  35.397  73.175
21588DA     SC440238  97.529  35.152  73.267
21589DC     BB140239  97.477  34.598  73.066
21589DC     BB240240  97.209  34.715  72.854
21589DC     BB340241  97.287  34.795  72.680
21589DC     SC140242  97.366  35.012  72.805
21589DC     SC240243  97.247  35.179  72.742
21589DC     SC340244  97.526  35.196  72.905
21590DT     BB140245  97.198  34.580  72.538
21590DT     BB240246  97.048  34.864  72.374
21590DT     BB340247  97.177  34.940  72.231
21590DT     SC140248  97.329  35.048  72.415
21590DT     SC240249  97.311  35.262  72.405
21590DT     SC340250  97.541  35.098  72.564
21591DA     BB140251  96.817  34.874  72.028
21591DA     BB240252  96.929  35.213  71.945
21591DA     BB340253  97.090  35.206  71.805
21591DA     SC140254  97.312  35.199  72.023
21591DA     SC240255  97.490  35.350  72.110
21591DA     SC340256  97.597  35.136  72.204
21591DA     SC440257  97.363  35.055  72.073
21592DT     BB140258  97.062  35.279  71.616
21592DT     BB240259  97.254  35.582  71.657
21592DT     BB340260  97.434  35.565  71.556
21592DT     SC140261  97.531  35.405  71.740
21592DT     SC240262  97.685  35.507  71.850
21592DT     SC340263  97.629  35.188  71.854
21593DT     BB140264  97.342  35.742  71.373
21593DT     BB240265  97.647  35.890  71.498
21593DT     BB340266  97.809  35.818  71.391
21593DT     SC140267  97.798  35.587  71.514
21593DT     SC240268  97.968  35.567  71.644
21593DT     SC340269  97.770  35.328  71.553
21594DA     BB140270  97.825  36.237  71.403
21594DA     BB240271  98.157  36.108  71.492
21594DA     BB340272  98.254  36.027  71.320
21594DA     SC140273  98.143  35.739  71.363
21594DA     SC240274  98.232  35.515  71.428
21594DA     SC340275  98.019  35.422  71.319
21594DA     SC440276  98.006  35.701  71.289
21595DA     BB140277  98.485  36.233  71.427
21595DA     BB240278  98.707  35.942  71.451
21595DA     BB340279  98.766  35.878  71.256
21595DA     SC140280  98.529  35.679  71.223
21595DA     SC240281  98.495  35.433  71.215
21595DA     SC340282  98.272  35.488  71.100
21595DA     SC440283  98.396  35.734  71.152
21596DA     BB140284  99.072  35.907  71.380
21596DA     BB240285  99.122  35.553  71.302
21596DA     BB340286  99.152  35.526  71.092
21596DA     SC140287  98.849  35.485  71.031
21596DA     SC240288  98.699  35.299  70.960
21596DA     SC340289  98.538  35.484  70.887
21596DA     SC440290  98.763  35.615  70.991
21597DA     BB140291  99.448  35.370  71.149
21597DA     BB240292  99.314  35.073  70.980
21597DA     BB340293  99.327  35.096  70.768
21597DA     SC140294  99.045  35.224  70.740
21597DA     SC240295  98.822  35.162  70.647
21597DA     SC340296  98.775  35.414  70.645
21597DA     SC440297  99.035  35.385  70.745
21598DT     BB140298  99.478  34.985  70.580
21598DT     BB240299  99.219  34.778  70.438
21598DT     BB340300  99.180  34.837  70.244
21598DT     SC140301  99.051  35.051  70.327
21598DT     SC240302  98.841  35.028  70.284
21598DT     SC340303  98.990  35.304  70.366
21599DA     BB140304  99.289  34.439  70.114
21599DA     BB240305  98.961  34.506  69.963
21599DA     BB340306  98.985  34.611  69.779
21599DA     SC140307  98.969  34.893  69.909
21599DA     SC240308  98.810  35.085  69.915
21599DA     SC340309  99.013  35.224  69.989
21599DA     SC440310  99.107  34.962  69.953
21600DT     BB140311  98.941  34.546  69.512
21600DT     BB240312  98.626  34.721  69.504
21600DT     BB340313  98.632  34.873  69.363
21600DT     SC140314  98.782  35.022  69.518
21600DT     SC240315  98.668  35.191  69.587
21600DT     SC340316  98.990  35.159  69.605
21601DG     BB140317  98.327  34.635  69.232
21601DG     BB240318  98.213  34.972  69.297
21601DG     BB340319  98.247  35.087  69.138
21601DG     SC140320  98.526  35.172  69.229
21601DG     SC240321  98.608  35.448  69.310
21601DG     SC340322  98.844  35.271  69.288
21601DG     SC440323  98.652  35.083  69.188
21602DC     BB140324  98.077  35.174  69.054
21602DC     BB240325  98.104  35.510  69.184
21602DC     BB340326  98.173  35.637  69.036
21602DC     SC140327  98.417  35.542  69.056
21602DC     SC240328  98.545  35.692  69.142
21602DC     SC340329  98.643  35.422  68.992
21603DT     BB140330  97.931  35.727  69.067
21603DT     BB240331  98.149  36.004  69.143
21603DT     BB340332  98.215  36.092  68.967
21603DT     SC140333  98.381  35.893  68.921
21603DT     SC240334  98.583  35.962  68.945
21603DT     SC340335  98.492  35.686  68.802
21604DT     BB140336  98.065  36.281  69.062
21604DT     BB240337  98.393  36.426  69.022
21604DT     BB340338  98.425  36.475  68.824
21604DT     SC140339  98.461  36.224  68.759
21604DT     SC240340  98.667  36.191  68.708
21604DT     SC340341  98.422  35.989  68.645
21605DT     BB140342  98.409  36.722  68.914
21605DT     BB240343  98.730  36.701  68.749
21605DT     BB340344  98.706  36.726  68.545
21605DT     SC140345  98.607  36.484  68.519
21605DT     SC240346  98.748  36.361  68.413
21605DT     SC340347  98.436  36.290  68.467
21606DT     BB140348  98.822  36.965  68.575
21606DT     BB240349  99.022  36.796  68.327
21606DT     BB340350  98.937  36.820  68.140
21606DT     SC140351  98.747  36.648  68.194
21606DT     SC240352  98.777  36.470  68.077
21606DT     SC340353  98.507  36.549  68.238
21607DA     BB140354  99.341  36.930  68.113
21607DA     BB240355  99.265  36.707  67.831
21607DA     BB340356  99.146  36.808  67.687
21607DA     SC140357  98.875  36.720  67.813
21607DA     SC240358  98.686  36.568  67.756
21607DA     SC340359  98.551  36.707  67.926
21607DA     SC440360  98.808  36.819  67.921
21608DG     BB140361  99.384  36.748  67.497
21608DG     BB240362  99.138  36.553  67.318
21608DG     BB340363  99.029  36.671  67.201
21608DG     SC140364  98.818  36.730  67.415
21608DG     SC240365  98.532  36.643  67.407
21608DG     SC340366  98.579  36.832  67.630
21608DG     SC440367  98.840  36.853  67.514
21609DG     BB140368  99.122  36.489  66.944
21609DG     BB240369  98.771  36.414  66.897
21609DG     BB340370  98.683  36.562  66.798
21609DG     SC140371  98.608  36.719  67.050
21609DG     SC240372  98.331  36.768  67.151
21609DG     SC340373  98.529  36.927  67.304
21609DG     SC440374  98.713  36.825  67.109
21610DA     BB140375  98.561  36.322  66.577
21610DA     BB240376  98.216  36.425  66.649
21610DA     BB340377  98.171  36.609  66.550
21610DA     SC140378  98.262  36.787  66.788
21610DA     SC240379  98.157  36.937  66.957
21610DA     SC340380  98.391  37.039  66.984
21610DA     SC440381  98.415  36.838  66.789
21611DG     BB140382  97.945  36.455  66.393
21611DG     BB240383  97.725  36.685  66.566
21611DG     BB340384  97.715  36.857  66.466
21611DG     SC140385  97.952  36.985  66.612
21611DG     SC240386  97.938  37.218  66.798
21611DG     SC340387  98.219  37.148  66.737
21611DG     SC440388  98.099  36.963  66.554
21612DC     BB140389  97.519  36.949  66.361
21612DC     BB240390  97.435  37.212  66.592
21612DC     BB340391  97.480  37.397  66.508
21612DC     SC140392  97.737  37.361  66.546
21612DC     SC240393  97.806  37.496  66.698
21612DC     SC340394  97.993  37.328  66.493
21613DC     BB140395  97.212  37.464  66.461
21613DC     BB240396  97.337  37.734  66.667
21613DC     BB340397  97.413  37.884  66.547
21613DC     SC140398  97.628  37.743  66.493
21613DC     SC240399  97.798  37.834  66.588
21613DC     SC340400  97.808  37.608  66.356
21614DA     BB140401  97.140  38.060  66.811
21614DA     BB240402  97.453  38.251  66.827
21614DA     BB340403  97.476  38.370  66.652
21614DA     SC140404  97.632  38.152  66.495
21614DA     SC240405  97.864  38.114  66.412
21614DA     SC340406  97.758  37.945  66.251
21614DA     SC440407  97.547  38.052  66.402
21615DT     BB140408  97.472  38.560  66.683
21615DT     BB240409  97.826  38.618  66.640
21615DT     BB340410  97.862  38.701  66.454
21615DT     SC140411  97.821  38.470  66.335
21615DT     SC240412  98.008  38.397  66.257
21615DT     SC340413  97.713  38.287  66.180
21616DT     BB140414  97.921  38.913  66.595
21616DT     BB240415  98.216  38.842  66.400
21616DT     BB340416  98.194  38.917  66.208
21616DT     SC140417  98.029  38.724  66.143
21616DT     SC240418  98.124  38.593  66.002
21616DT     SC340419  97.807  38.601  66.070
21617DT     BB140420  98.378  39.090  66.283
21617DT     BB240421  98.511  38.936  65.986
21617DT     BB340422  98.431  39.025  65.817
21617DT     SC140423  98.201  38.903  65.853
21617DT     SC240424  98.173  38.756  65.698
21617DT     SC340425  97.944  38.866  65.899
21618DA     BB140426  98.849  39.028  65.768
21618DA     BB240427  98.699  38.912  65.454
21618DA     BB340428  98.604  39.074  65.352
21618DA     SC140429  98.328  39.028  65.487
21618DA     SC240430  98.101  38.949  65.420
21618DA     SC340431  98.019  39.069  65.632
21618DA     SC440432  98.296  39.109  65.622
21619DA     BB140433  98.793  39.005  65.082
21619DA     BB240434  98.483  38.948  64.894
21619DA     BB340435  98.396  39.134  64.837
21619DA     SC140436  98.222  39.160  65.093
21619DA     SC240437  97.980  39.148  65.154
21619DA     SC340438  98.048  39.276  65.366
21619DA     SC440439  98.284  39.240  65.218
21620DC     BB140440  98.375  39.238  64.614
21620DC     BB240441  98.021  39.178  64.577
21620DC     BB340442  97.918  39.357  64.579
21620DC     SC140443  97.950  39.381  64.839
21620DC     SC240444  97.760  39.355  64.937
21620DC     SC340445  98.028  39.477  65.071
21621DA     BB140446  97.781  39.221  64.202
21621DA     BB240447  97.482  39.315  64.392
21621DA     BB340448  97.451  39.526  64.383
21621DA     SC140449  97.618  39.587  64.638
21621DA     SC240450  97.577  39.665  64.871
21621DA     SC340451  97.826  39.727  64.872
21621DA     SC440452  97.775  39.620  64.619
21622DA     BB140453  97.148  39.459  64.266
21622DA     BB240454  97.014  39.614  64.570
21622DA     BB340455  97.010  39.826  64.550
21622DA     SC140456  97.294  39.868  64.669
21622DA     SC240457  97.395  39.962  64.877
21622DA     SC340458  97.611  39.980  64.739
21622DA     SC440459  97.418  39.872  64.567
21623DA     BB140460  96.697  39.778  64.629
21623DA     BB240461  96.762  39.976  64.930
21623DA     BB340462  96.768  40.184  64.882
21623DA     SC140463  97.074  40.188  64.828
21623DA     SC240464  97.280  40.281  64.934
21623DA     SC340465  97.388  40.252  64.704
21623DA     SC440466  97.123  40.163  64.677
21624DT     BB140467  96.627  40.290  64.962
21624DT     BB240468  96.830  40.451  65.212
21624DT     BB340469  96.873  40.646  65.155
21624DT     SC140470  97.047  40.563  64.977
21624DT     SC240471  97.245  40.617  65.041
21624DT     SC340472  97.162  40.520  64.744
21625DG     BB140473  96.690  40.656  65.519
21625DG     BB240474  97.000  40.841  65.521
21625DG     BB340475  96.975  41.018  65.432
21625DG     SC140476  97.046  40.915  65.153
21625DG     SC240477  97.287  40.993  64.994
21625DG     SC340478  97.100  40.833  64.830
21625DG     SC440479  96.930  40.855  65.060
21626DT     BB140480  97.000  41.209  65.544
21626DT     BB240481  97.315  41.328  65.414
21626DT     BB340482  97.282  41.481  65.278
21626DT     SC140483  97.199  41.312  65.096
21626DT     SC240484  97.344  41.302  64.937
21626DT     SC340485  97.040  41.191  64.924
21627DA     BB140486  97.558  41.636  65.554
21627DA     BB240487  97.688  41.705  65.218
21627DA     BB340488  97.579  41.865  65.128
21627DA     SC140489  97.368  41.679  64.996
21627DA     SC240490  97.306  41.604  64.766
21627DA     SC340491  97.079  41.544  64.869
21627DA     SC440492  97.233  41.649  65.078
21628DT     BB140493  97.670  42.056  65.087
21628DT     BB240494  97.698  42.010  64.730
21628DT     BB340495  97.562  42.132  64.632
21628DT     SC140496  97.362  41.976  64.699
21628DT     SC240497  97.287  41.876  64.524
21628DT     SC340498  97.137  41.895  64.810
21629DT     BB140499  97.764  42.295  64.545
21629DT     BB240500  97.602  42.182  64.243
21629DT     BB340501  97.445  42.309  64.195
21629DT     SC140502  97.296  42.210  64.387
21629DT     SC240503  97.134  42.098  64.300
21629DT     SC340504  97.153  42.196  64.608
21630DT     BB140505  97.595  42.390  63.991
21630DT     BB240506  97.292  42.264  63.841
21630DT     BB340507  97.147  42.412  63.840
21630DT     SC140508  97.106  42.384  64.098
21630DT     SC240509  96.912  42.296  64.130
21630DT     SC340510  97.094  42.441  64.355
21631DC     BB140511  97.187  42.407  63.581
21631DC     BB240512  96.837  42.334  63.626
21631DC     BB340513  96.731  42.510  63.652
21631DC     SC140514  96.820  42.538  63.897
21631DC     SC240515  96.659  42.507  64.036
21631DC     SC340516  96.947  42.639  64.105
21632DC     BB140517  96.638  42.442  63.418
21632DC     BB240518  96.350  42.472  63.633
21632DC     BB340519  96.298  42.672  63.654
21632DC     SC140520  96.500  42.715  63.815
21632DC     SC240521  96.426  42.751  64.014
21632DC     SC340522  96.726  42.813  63.909
21633DA     BB140523  95.965  42.433  63.558
21633DA     BB240524  95.874  42.655  63.835
21633DA     BB340525  95.863  42.857  63.768
21633DA     SC140526  96.161  42.919  63.832
21633DA     SC240527  96.290  43.057  63.995
21633DA     SC340528  96.483  43.039  63.827
21633DA     SC440529  96.269  42.898  63.714
21634DT     BB140530  95.692  42.924  63.779
21634DT     BB240531  95.745  43.153  64.053
21634DT     BB340532  95.777  43.344  63.980
21634DT     SC140533  96.020  43.283  63.903
21634DT     SC240534  96.163  43.385  64.027
21634DT     SC340535  96.227  43.239  63.745
21635DA     BB140536  95.473  43.375  64.270
21635DA     BB240537  95.714  43.644  64.332
21635DA     BB340538  95.698  43.794  64.181
21635DA     SC140539  95.910  43.664  63.994
21635DA     SC240540  96.142  43.712  63.916
21635DA     SC340541  96.088  43.551  63.723
21635DA     SC440542  95.857  43.561  63.882
21636DA     BB140543  95.652  44.018  64.427
21636DA     BB240544  95.951  44.194  64.307
21636DA     BB340545  95.904  44.309  64.134
21636DA     SC140546  95.973  44.081  63.934
21636DA     SC240547  96.149  44.031  63.764
21636DA     SC340548  95.980  43.865  63.667
21636DA     SC440549  95.854  43.985  63.887
21637DA     BB140550  96.013  44.601  64.277
21637DA     BB240551  96.266  44.626  64.012
21637DA     BB340552  96.181  44.712  63.836
21637DA     SC140553  96.098  44.439  63.714
21637DA     SC240554  96.165  44.294  63.522
21637DA     SC340555  95.934  44.186  63.549
21637DA     SC440556  95.949  44.385  63.745
21638DT     BB140557  96.214  44.941  63.722
21638DT     BB240558  96.415  44.814  63.450
21638DT     BB340559  96.315  44.838  63.271
21638DT     SC140560  96.152  44.639  63.326
21638DT     SC240561  96.195  44.474  63.195
21638DT     SC340562  95.930  44.508  63.378
21639DA     BB140563  96.663  45.058  63.165
21639DA     BB240564  96.613  44.808  62.901
21639DA     BB340565  96.468  44.877  62.761
21639DA     SC140566  96.227  44.749  62.911
21639DA     SC240567  96.065  44.562  62.876
21639DA     SC340568  95.918  44.684  63.047
21639DA     SC440569  96.149  44.841  63.018
21640DA     BB140570  96.695  44.836  62.522
21640DA     BB240571  96.484  44.565  62.393
21640DA     BB340572  96.331  44.644  62.267
21640DA     SC140573  96.125  44.679  62.497
21640DA     SC240574  95.910  44.576  62.570
21640DA     SC340575  95.874  44.792  62.703
21640DA     SC440576  96.120  44.822  62.572
21641DT     BB140577  96.335  44.592  62.070
21641DT     BB240578  96.075  44.343  62.098
21641DT     BB340579  95.903  44.411  62.007
21641DT     SC140580  95.853  44.576  62.205
21641DT     SC240581  95.680  44.507  62.313
21641DT     SC340582  95.815  44.801  62.337
21642DA     BB140583  96.020  44.020  61.911
21642DA     BB240584  95.668  44.017  62.011
21642DA     BB340585  95.548  44.115  61.865
21642DA     SC140586  95.571  44.395  61.998
21642DA     SC240587  95.422  44.554  62.119
21642DA     SC340588  95.596  44.732  62.058
21642DA     SC440589  95.690  44.492  61.948
21643DT     BB140590  95.452  43.989  61.822
21643DT     BB240591  95.149  44.109  61.977
21643DT     BB340592  95.043  44.227  61.843
21643DT     SC140593  95.211  44.426  61.873
21643DT     SC240594  95.114  44.587  61.978
21643DT     SC340595  95.393  44.608  61.815
21644DT     BB140596  94.885  44.023  61.863
21644DT     BB240597  94.685  44.310  61.950
21644DT     BB340598  94.628  44.411  61.778
21644DT     SC140599  94.868  44.510  61.746
21644DT     SC240600  94.864  44.722  61.783
21644DT     SC340601  95.104  44.559  61.639
21645DA     BB140602  94.287  44.345  62.016
21645DA     BB240603  94.279  44.692  61.900
21645DA     BB340604  94.236  44.700  61.691
21645DA     SC140605  94.535  44.691  61.604
21645DA     SC240606  94.702  44.844  61.502
21645DA     SC340607  94.831  44.631  61.440
21645DA     SC440608  94.599  44.546  61.574
21646DT     BB140609  94.056  44.778  61.621
21646DT     BB240610  94.187  45.084  61.481
21646DT     BB340611  94.191  45.071  61.274
21646DT     SC140612  94.399  44.911  61.280
21646DT     SC240613  94.571  45.015  61.204
21646DT     SC340614  94.547  44.695  61.249
21647DA     BB140615  93.970  45.424  61.336
21647DA     BB240616  94.226  45.500  61.084
21647DA     BB340617  94.170  45.420  60.895
21647DA     SC140618  94.313  45.147  60.941
21647DA     SC240619  94.512  45.026  60.852
21647DA     SC340620  94.400  44.815  60.945
21647DA     SC440621  94.227  45.028  61.004
21648DA     BB140622  94.203  45.727  60.769
21648DA     BB240623  94.469  45.597  60.554
21648DA     BB340624  94.386  45.498  60.385
21648DA     SC140625  94.377  45.219  60.522
21648DA     SC240626  94.494  44.999  60.501
21648DA     SC340627  94.290  44.903  60.624
21648DA     SC440628  94.242  45.178  60.598
21649DG     BB140629  94.532  45.710  60.202
21649DG     BB240630  94.720  45.422  60.091
21649DG     BB340631  94.624  45.331  59.942
21649DG     SC140632  94.464  45.146  60.126
21649DG     SC240633  94.492  44.849  60.143
21649DG     SC340634  94.257  44.942  60.297
21649DG     SC440635  94.323  45.196  60.182
21650DA     BB140636  94.922  45.355  59.771
21650DA     BB240637  94.936  44.989  59.745
21650DA     BB340638  94.802  44.921  59.594
21650DA     SC140639  94.562  44.886  59.788
21650DA     SC240640  94.430  44.699  59.888
21650DA     SC340641  94.249  44.875  59.930
21650DA     SC440642  94.461  45.010  59.805
21651DG     BB140643  95.068  44.812  59.485
21651DG     BB240644  94.908  44.493  59.546
21651DG     BB340645  94.782  44.452  59.398
21651DG     SC140646  94.542  44.589  59.530
21651DG     SC240647  94.297  44.454  59.631
21651DG     SC340648  94.265  44.748  59.636
21651DG     SC440649  94.518  44.745  59.503
21652DC     BB140650  94.823  44.280  59.292
21652DC     BB240651  94.564  44.056  59.407
21652DC     BB340652  94.409  44.051  59.269
21652DC     SC140653  94.324  44.288  59.345
21652DC     SC240654  94.136  44.267  59.447
21652DC     SC340655  94.262  44.544  59.335
21653DT     BB140656  94.489  43.804  59.206
21653DT     BB240657  94.142  43.768  59.298
21653DT     BB340658  94.021  43.810  59.135
21653DT     SC140659  94.065  44.068  59.159
21653DT     SC240660  93.885  44.165  59.225
21653DT     SC340661  94.147  44.312  59.102
21654DA     BB140662  93.896  43.434  59.275
21654DA     BB240663  93.596  43.639  59.225
21654DA     BB340664  93.555  43.660  59.017
21654DA     SC140665  93.723  43.920  58.985
21654DA     SC240666  93.682  44.162  58.943
21654DA     SC340667  93.927  44.170  58.868
21654DA     SC440668  93.877  43.904  58.940
21655DA     BB140669  93.254  43.541  59.092
21655DA     BB240670  93.115  43.859  58.971
21655DA     BB340671  93.111  43.861  58.758
21655DA     SC140672  93.394  43.987  58.729
21655DA     SC240673  93.492  44.204  58.657
21655DA     SC340674  93.710  44.072  58.624
21655DA     SC440675  93.519  43.887  58.714
21656DT     BB140676  92.925  43.859  58.637
21656DT     BB240677  92.937  44.206  58.540
21656DT     BB340678  92.981  44.221  58.338
21656DT     SC140679  93.233  44.160  58.380
21656DT     SC240680  93.356  44.333  58.345
21656DT     SC340681  93.461  44.027  58.371
21657DT     BB140682  92.723  44.297  58.271
21657DT     BB240683  92.929  44.568  58.152
21657DT     BB340684  92.989  44.531  57.957
21657DT     SC140685  93.163  44.351  58.037
21657DT     SC240686  93.362  44.425  58.006
21657DT     SC340687  93.282  44.117  58.068
21658DC     BB140688  92.824  44.727  57.876
21658DC     BB240689  93.152  44.828  57.764
21658DC     BB340690  93.193  44.743  57.579
21658DC     SC140691  93.234  44.508  57.688
21658DC     SC240692  93.443  44.459  57.675
21658DC     SC340693  93.204  44.252  57.746
21659DT     BB140694  93.171  44.990  57.490
21659DT     BB240695  93.503  44.884  57.399
21659DT     BB340696  93.497  44.775  57.223
21659DT     SC140697  93.398  44.566  57.348
21659DT     SC240698  93.545  44.410  57.354
21659DT     SC340699  93.229  44.375  57.417
21660DA     BB140700  93.794  45.074  57.224
21660DA     BB240701  93.943  44.760  57.108
21660DA     BB340702  93.864  44.707  56.917
21660DA     SC140703  93.630  44.538  57.033
21660DA     SC240704  93.563  44.298  57.046
21660DA     SC340705  93.327  44.387  57.089
21660DA     SC440706  93.489  44.613  57.057
21661DT     BB140707  93.992  44.710  56.769
21661DT     BB240708  94.019  44.354  56.720
21661DT     BB340709  93.908  44.297  56.554
21661DT     SC140710  93.683  44.324  56.686
21661DT     SC240711  93.596  44.130  56.719
21661DT     SC340712  93.445  44.415  56.754
21662DA     BB140713  94.292  44.140  56.487
21662DA     BB240714  94.050  43.872  56.417
21662DA     BB340715  93.953  43.907  56.230
21662DA     SC140716  93.719  44.070  56.354
21662DA     SC240717  93.474  44.041  56.392
21662DA     SC340718  93.468  44.296  56.413
21662DA     SC440719  93.736  44.229  56.362
21663DA     BB140720  94.055  43.603  56.140
21663DA     BB240721  93.703  43.509  56.103
21663DA     BB340722  93.626  43.579  55.917
21663DA     SC140723  93.529  43.852  56.032
21663DA     SC240724  93.312  43.965  56.080
21663DA     SC340725  93.448  44.182  56.076
21663DA     SC440726  93.631  43.976  56.024
21664DT     BB140727  93.566  43.446  55.747
21664DT     BB240728  93.210  43.484  55.791
21664DT     BB340729  93.131  43.593  55.633
21664DT     SC140730  93.229  43.817  55.728
21664DT     SC240731  93.068  43.942  55.798
21664DT     SC340732  93.373  44.037  55.745
21665DT     BB140733  93.011  43.369  55.527
21665DT     BB240734  92.738  43.598  55.581
21665DT     BB340735  92.711  43.716  55.413
21665DT     SC140736  92.924  43.859  55.469
21665DT     SC240737  92.863  44.057  55.527
21665DT     SC340738  93.164  43.966  55.447
21666DT     BB140739  92.485  43.579  55.374
21666DT     BB240740  92.382  43.924  55.397
21666DT     BB340741  92.398  44.015  55.212
21666DT     SC140742  92.659  44.027  55.232
21666DT     SC240743  92.719  44.232  55.256
21666DT     SC340744  92.914  43.985  55.180
21667DT     BB140745  92.138  44.014  55.230
21667DT     BB240746  92.228  44.359  55.179
21667DT     BB340747  92.261  44.395  54.978
21667DT     SC140748  92.492  44.271  54.986
21667DT     SC240749  92.651  44.415  54.962
21667DT     SC340750  92.680  44.093  54.937
21668DA     BB140751  92.008  44.687  55.145
21668DA     BB240752  92.255  44.856  54.933
21668DA     BB340753  92.219  44.811  54.728
21668DA     SC140754  92.405  44.562  54.724
21668DA     SC240755  92.624  44.496  54.624
21668DA     SC340756  92.546  44.255  54.663
21668DA     SC440757  92.338  44.419  54.755
21669DA     BB140758  92.219  45.143  54.692
21669DA     BB240759  92.482  45.103  54.439
21669DA     BB340760  92.399  45.024  54.258
21669DA     SC140761  92.447  44.727  54.338
21669DA     SC240762  92.594  44.539  54.267
21669DA     SC340763  92.421  44.388  54.381
21669DA     SC440764  92.327  44.650  54.412
21670DT     BB140765  92.356  45.130  54.038
21670DT     BB240766  92.605  44.955  53.845
21670DT     BB340767  92.513  44.826  53.711
21670DT     SC140768  92.453  44.657  53.903
21670DT     SC240769  92.571  44.479  53.881
21670DT     SC340770  92.309  44.511  54.069
21671DT     BB140771  92.498  44.960  53.414
21671DT     BB240772  92.643  44.639  53.336
21671DT     BB340773  92.498  44.512  53.261
21671DT     SC140774  92.394  44.477  53.499
21671DT     SC240775  92.431  44.276  53.565
21671DT     SC340776  92.219  44.482  53.696
21672DA     BB140777  92.736  44.480  52.902
21672DA     BB240778  92.664  44.135  53.004
21672DA     BB340779  92.475  44.072  52.927
21672DA     SC140780  92.315  44.166  53.177
21672DA     SC240781  92.191  44.062  53.367
21672DA     SC340782  92.076  44.291  53.390
21672DA     SC440783  92.254  44.315  53.175
21673DA     BB140784  92.617  43.811  52.771
21673DA     BB240785  92.430  43.590  52.996
21673DA     BB340786  92.235  43.552  52.918
21673DA     SC140787  92.102  43.793  53.063
21673DA     SC240788  91.941  43.830  53.249
21673DA     SC340789  91.907  44.062  53.147
21673DA     SC440790  92.094  43.932  52.984
21674DA     BB140791  92.335  43.245  52.959
21674DA     BB240792  92.065  43.210  53.205
21674DA     BB340793  91.878  43.183  53.106
21674DA     SC140794  91.812  43.486  53.095
21674DA     SC240795  91.650  43.644  53.201
21674DA     SC340796  91.701  43.798  53.002
21674DA     SC440797  91.856  43.567  52.963
21675DA     BB140798  91.901  42.942  53.321
21675DA     BB240799  91.598  43.080  53.473
21675DA     BB340800  91.429  43.042  53.348
21675DA     SC140801  91.456  43.309  53.189
21675DA     SC240802  91.332  43.524  53.168
21675DA     SC340803  91.458  43.550  52.945
21675DA     SC440804  91.542  43.306  53.054
21676DA     BB140805  91.347  42.941  53.646
21676DA     BB240806  91.069  43.178  53.624
21676DA     BB340807  90.925  43.111  53.481
21676DA     SC140808  91.057  43.262  53.243
21676DA     SC240809  91.005  43.456  53.096
21676DA     SC340810  91.175  43.354  52.934
21676DA     SC440811  91.165  43.182  53.155
21677DC     BB140812  90.757  43.065  53.556
21677DC     BB240813  90.566  43.343  53.427
21677DC     BB340814  90.458  43.283  53.261
21677DC     SC140815  90.673  43.281  53.111
21677DC     SC240816  90.662  43.441  52.969
21677DC     SC340817  90.867  43.191  52.958
21678DT     BB140818  90.217  43.281  53.400
21678DT     BB240819  90.147  43.489  53.114
21678DT     BB340820  90.081  43.373  52.956
21678DT     SC140821  90.323  43.283  52.910
21678DT     SC240822  90.395  43.363  52.724
21678DT     SC340823  90.525  43.115  52.886
21679DT     BB140824  89.792  43.431  52.966
21679DT     BB240825  89.875  43.504  52.623
21679DT     BB340826  89.839  43.338  52.504
21679DT     SC140827  90.053  43.217  52.595
21679DT     SC240828  90.200  43.205  52.439
21679DT     SC340829  90.205  43.039  52.717
21680DA     BB140830  89.584  43.606  52.293
21680DA     BB240831  89.796  43.445  52.040
21680DA     BB340832  89.718  43.253  51.990
21680DA     SC140833  89.882  43.102  52.206
21680DA     SC240834  90.073  42.942  52.215
21680DA     SC340835  89.989  42.885  52.450
21680DA     SC440836  89.813  43.079  52.350
21681DT     BB140837  89.618  43.179  51.780
21681DT     BB240838  89.910  42.997  51.669
21681DT     BB340839  89.867  42.794  51.660
21681DT     SC140840  89.876  42.773  51.922
21681DT     SC240841  90.049  42.659  51.978
21681DT     SC340842  89.798  42.729  52.170
21682DT     BB140843  89.864  42.790  51.382
21682DT     BB240844  90.122  42.555  51.472
21682DT     BB340845  90.042  42.365  51.492
21682DT     SC140846  89.932  42.428  51.722
21682DT     SC240847  90.032  42.322  51.880
21682DT     SC340848  89.747  42.475  51.904
21683DA     BB140849  90.375  42.351  51.241
21683DA     BB240850  90.414  42.092  51.497
21683DA     BB340851  90.281  41.930  51.460
21683DA     SC140852  90.050  42.049  51.633
21683DA     SC240853  89.937  41.998  51.849
21683DA     SC340854  89.745  42.143  51.758
21683DA     SC440855  89.942  42.141  51.558
21684DA     BB140856  90.572  41.787  51.492
21684DA     BB240857  90.425  41.605  51.774
21684DA     BB340858  90.285  41.459  51.704
21684DA     SC140859  90.041  41.651  51.716
21684DA     SC240860  89.834  41.678  51.853
21684DA     SC340861  89.747  41.817  51.656
21684DA     SC440862  90.004  41.734  51.583
21685DA     BB140863  90.478  41.275  51.894
21685DA     BB240864  90.178  41.197  52.089
21685DA     BB340865  90.052  41.063  51.981
21685DA     SC140866  89.889  41.288  51.842
21685DA     SC240867  89.658  41.382  51.852
21685DA     SC340868  89.709  41.478  51.620
21685DA     SC440869  89.940  41.339  51.698
21686DT     BB140870  90.025  40.873  52.052
21686DT     BB240871  89.686  40.918  52.169
21686DT     BB340872  89.554  40.824  52.040
21686DT     SC140873  89.583  41.014  51.861
21686DT     SC240874  89.401  41.128  51.847
21686DT     SC340875  89.646  41.133  51.634
21687DA     BB140876  89.460  40.670  52.418
21687DA     BB240877  89.146  40.779  52.263
21687DA     BB340878  89.085  40.640  52.114
21687DA     SC140879  89.236  40.784  51.883
21687DA     SC240880  89.178  40.917  51.680
21687DA     SC340881  89.415  40.859  51.600
21687DA     SC440882  89.386  40.736  51.850
21688DA     BB140883  88.806  40.635  52.286
21688DA     BB240884  88.639  40.768  51.988
21688DA     BB340885  88.607  40.612  51.846
21688DA     SC140886  88.878  40.656  51.699
21688DA     SC240887  88.956  40.742  51.479
21688DA     SC340888  89.173  40.614  51.529
21688DA     SC440889  89.003  40.569  51.748
21689DA     BB140890  88.308  40.736  51.876
21689DA     BB240891  88.331  40.821  51.521
21689DA     BB340892  88.308  40.646  51.401
21689DA     SC140893  88.612  40.582  51.393
21689DA     SC240894  88.797  40.584  51.225
21689DA     SC340895  88.918  40.425  51.386
21689DA     SC440896  88.670  40.483  51.505
21690DA     BB140897  88.100  40.868  51.288
21690DA     BB240898  88.284  40.839  50.972
21690DA     BB340899  88.246  40.649  50.881
21690DA     SC140900  88.487  40.508  51.020
21690DA     SC240901  88.708  40.414  50.954
21690DA     SC340902  88.694  40.283  51.174
21690DA     SC440903  88.459  40.434  51.160
21691DA     BB140904  88.192  40.876  50.653
21691DA     BB240905  88.450  40.703  50.458
21691DA     BB340906  88.380  40.512  50.395
21691DA     SC140907  88.487  40.363  50.647
21691DA     SC240908  88.666  40.198  50.701
21691DA     SC340909  88.529  40.150  50.913
21691DA     SC440910  88.387  40.346  50.771
21692DA     BB140911  88.486  40.648  50.116
21692DA     BB240912  88.711  40.360  50.089
21692DA     BB340913  88.600  40.183  50.045
21692DA     SC140914  88.557  40.106  50.343
21692DA     SC240915  88.635  39.930  50.501
21692DA     SC340916  88.428  39.992  50.640
21692DA     SC440917  88.423  40.158  50.414
21693DG     BB140918  88.773  40.170  49.783
21693DG     BB240919  88.891  39.860  49.928
21693DG     BB340920  88.763  39.714  49.889
21693DG     SC140921  88.596  39.759  50.141
21693DG     SC240922  88.572  39.571  50.372
21693DG     SC340923  88.379  39.794  50.397
21693DG     SC440924  88.474  39.863  50.136
21694DC     BB140925  88.810  39.525  49.758
21694DC     BB240926  88.842  39.271  50.013
21694DC     BB340927  88.676  39.147  50.010
21694DC     SC140928  88.527  39.331  50.124
21694DC     SC240929  88.478  39.270  50.324
21694DC     SC340930  88.335  39.509  50.158
21695DT     BB140931  88.816  38.936  49.898
21695DT     BB240932  88.683  38.802  50.205
21695DT     BB340933  88.496  38.721  50.172
21695DT     SC140934  88.387  38.959  50.156
21695DT     SC240935  88.262  38.992  50.328
21695DT     SC340936  88.262  39.169  50.057
21696DT     BB140937  88.603  38.476  50.204
21696DT     BB240938  88.346  38.499  50.456
21696DT     BB340939  88.163  38.443  50.376
21696DT     SC140940  88.142  38.669  50.245
21696DT     SC240941  87.984  38.787  50.331
21696DT     SC340942  88.124  38.838  50.043
21697DA     BB140943  88.250  38.260  50.744
21697DA     BB240944  87.911  38.400  50.758
21697DA     BB340945  87.780  38.290  50.631
21697DA     SC140946  87.831  38.471  50.383
21697DA     SC240947  87.705  38.638  50.247
21697DA     SC340948  87.879  38.591  50.065
21697DA     SC440949  87.948  38.427  50.281
21698DT     BB140950  87.671  38.231  50.740
21698DT     BB240951  87.390  38.436  50.642
21698DT     BB340952  87.281  38.340  50.495
21698DT     SC140953  87.463  38.394  50.314
21698DT     SC240954  87.385  38.538  50.175
21698DT     SC340955  87.651  38.357  50.132
21699DA     BB140956  87.041  38.500  50.805
21699DA     BB240957  86.885  38.577  50.483
21699DA     BB340958  86.818  38.398  50.388
21699DA     SC140959  87.084  38.350  50.234
21699DA     SC240960  87.165  38.358  49.999
21699DA     SC340961  87.358  38.211  50.081
21699DA     SC440962  87.195  38.258  50.305
21700DT     BB140963  86.630  38.382  50.371
21700DT     BB240964  86.602  38.410  50.013
21700DT     BB340965  86.588  38.221  49.928
21700DT     SC140966  86.843  38.176  49.967
21700DT     SC240967  86.945  38.173  49.778
21700DT     SC340968  87.065  38.066  50.060
21701DT     BB140969  86.307  38.221  49.875
21701DT     BB240970  86.449  38.126  49.557
21701DT     BB340971  86.464  37.920  49.545
21701DT     SC140972  86.670  37.918  49.708
21701DT     SC240973  86.847  37.863  49.599
21701DT     SC340974  86.817  37.869  49.921
21702DA     BB140975  86.221  37.965  49.197
21702DA     BB240976  86.501  37.749  49.099
21702DA     BB340977  86.465  37.548  49.163
21702DA     SC140978  86.605  37.585  49.438
21702DA     SC240979  86.814  37.506  49.551
21702DA     SC340980  86.694  37.569  49.769
21702DA     SC440981  86.514  37.628  49.563
21703DA     BB140982  86.494  37.426  48.847
21703DA     BB240983  86.792  37.242  48.958
21703DA     BB340984  86.736  37.056  49.047
21703DA     SC140985  86.714  37.172  49.335
21703DA     SC240986  86.838  37.154  49.551
21703DA     SC340987  86.621  37.240  49.658
21703DA     SC440988  86.570  37.225  49.383
21704DT     BB140989  86.786  36.865  48.958
21704DT     BB240990  87.056  36.792  49.185
21704DT     BB340991  87.002  36.638  49.312
21704DT     SC140992  86.846  36.796  49.451
21704DT     SC240993  86.932  36.828  49.646
21704DT     SC340994  86.627  36.898  49.558
21705DT     BB140995  87.178  36.487  49.181
21705DT     BB240996  87.292  36.488  49.523
21705DT     BB340997  87.193  36.342  49.631
21705DT     SC140998  86.973  36.485  49.638
21705DT     SC240999  86.938  36.553  49.839
21705DT     SC341000  86.723  36.558  49.597
21706DA     BB141001  87.610  36.339  49.686
21706DA     BB241002  87.446  36.329  50.014
21706DA     BB341003  87.348  36.142  50.043
21706DA     SC141004  87.077  36.239  49.924
21706DA     SC241005  86.847  36.290  50.006
21706DA     SC341006  86.775  36.260  49.762
21706DA     SC441007  87.052  36.215  49.767
21707DA     BB141008  87.533  36.191  50.308
21707DA     BB241009  87.221  36.165  50.498
21707DA     BB341010  87.146  35.966  50.490
21707DA     SC141011  86.973  36.015  50.236
21707DA     SC241012  86.731  36.031  50.178
21707DA     SC341013  86.807  35.984  49.937
21707DA     SC441014  87.040  35.984  50.093
21708DG     BB141015  87.177  35.997  50.797
21708DG     BB241016  86.819  35.946  50.792
21708DG     BB341017  86.778  35.753  50.766
21708DG     SC141018  86.773  35.769  50.461
21708DG     SC241019  86.534  35.731  50.287
21708DG     SC341020  86.780  35.747  50.124
21708DG     SC441021  86.910  35.749  50.380
21709DT     BB141022  86.672  35.621  50.922
21709DT     BB241023  86.347  35.577  50.772
21709DT     BB341024  86.332  35.387  50.691
21709DT     SC141025  86.486  35.453  50.488
21709DT     SC241026  86.368  35.459  50.308
21709DT     SC341027  86.691  35.456  50.323
21710DC     BB141028  86.166  35.268  50.892
21710DC     BB241029  85.983  35.209  50.587
21710DC     BB341030  86.035  35.025  50.507
21710DC     SC141031  86.266  35.119  50.424
21710DC     SC241032  86.266  35.129  50.210
21710DC     SC341033  86.527  35.150  50.401
21711DT     BB141034  85.799  34.869  50.578
21711DT     BB241035  85.819  34.831  50.220
21711DT     BB341036  85.922  34.658  50.173
21711DT     SC141037  86.152  34.769  50.237
21711DT     SC241038  86.268  34.799  50.059
21711DT     SC341039  86.379  34.813  50.363
21712DC     BB141040  85.696  34.511  50.091
21712DC     BB241041  85.911  34.508  49.801
21712DC     BB341042  86.034  34.341  49.806
21712DC     SC141043  86.184  34.447  49.994
21712DC     SC241044  86.377  34.495  49.913
21712DC     SC341045  86.301  34.481  50.228
21713DA     BB141046  85.847  34.344  49.431
21713DA     BB241047  86.208  34.305  49.377
21713DA     BB341048  86.270  34.107  49.427
21713DA     SC141049  86.334  34.177  49.723
21713DA     SC241050  86.536  34.198  49.868
21713DA     SC341051  86.373  34.169  50.064
21713DA     SC441052  86.217  34.155  49.832
21714DT     BB141053  86.337  33.993  49.278
21714DT     BB241054  86.686  34.013  49.365
21714DT     BB341055  86.747  33.836  49.454
21714DT     SC141056  86.624  33.897  49.677
21714DT     SC241057  86.770  33.937  49.830
21714DT     SC341058  86.454  33.883  49.878
21715DA     BB141059  87.015  33.924  49.142
21715DA     BB241060  87.211  33.849  49.443
21715DA     BB341061  87.205  33.640  49.486
21715DA     SC141062  86.954  33.660  49.669
21715DA     SC241063  86.900  33.637  49.911
21715DA     SC341064  86.658  33.601  49.833
21715DA     SC441065  86.810  33.638  49.600
21716DT     BB141066  87.378  33.529  49.470
21716DT     BB241067  87.435  33.493  49.825
21716DT     BB341068  87.390  33.301  49.885
21716DT     SC141069  87.132  33.348  49.868
21716DT     SC241070  87.047  33.351  50.066
21716DT     SC341071  86.881  33.331  49.788
21717DT     BB141072  87.655  33.242  49.918
21717DT     BB241073  87.507  33.182  50.241
21717DT     BB341074  87.436  32.987  50.252
21717DT     SC141075  87.231  33.046  50.099
21717DT     SC241076  87.051  33.039  50.217
21717DT     SC341077  87.066  33.044  49.893
21718DT     BB141078  87.638  32.928  50.422
21718DT     BB241079  87.336  32.856  50.605
21718DT     BB341080  87.273  32.663  50.565
21718DT     SC141081  87.186  32.732  50.327
21718DT     SC241082  86.971  32.724  50.324
21718DT     SC341083  87.164  32.743  50.064
21719DG     BB141084  87.321  32.734  50.962
21719DG     BB241085  86.990  32.610  50.884
21719DG     BB341086  86.998  32.415  50.845
21719DG     SC141087  87.047  32.452  50.545
21719DG     SC241088  86.859  32.377  50.326
21719DG     SC341089  87.122  32.455  50.216
21719DG     SC441090  87.198  32.466  50.492
21720DT     BB141091  86.881  32.344  50.964
21720DT     BB241092  86.604  32.246  50.755
21720DT     BB341093  86.632  32.053  50.687
21720DT     SC141094  86.815  32.130  50.516
21720DT     SC241095  86.738  32.111  50.315
21720DT     SC341096  87.049  32.155  50.396
21721DT     BB141097  86.428  32.031  50.842
21721DT     BB241098  86.322  31.905  50.521
21721DT     BB341099  86.397  31.715  50.492
21721DT     SC141100  86.638  31.809  50.445
21721DT     SC241101  86.687  31.780  50.238
21721DT     SC341102  86.896  31.855  50.474
21722DA     BB141103  85.986  31.734  50.405
21722DA     BB241104  86.153  31.547  50.138
21722DA     BB341105  86.222  31.359  50.211
21722DA     SC141106  86.502  31.467  50.294
21722DA     SC241107  86.739  31.443  50.219
21722DA     SC341108  86.800  31.527  50.454
21722DA     SC441109  86.520  31.519  50.445
21723DA     BB141110  86.050  31.249  49.952
21723DA     BB241111  86.361  31.098  49.831
21723DA     BB341112  86.410  30.926  49.946
21723DA     SC141113  86.581  31.082  50.154
21723DA     SC241114  86.821  31.102  50.217
21723DA     SC341115  86.733  31.194  50.440
21723DA     SC441116  86.506  31.135  50.286
21724DC     BB141117  86.404  30.734  49.862
21724DC     BB241118  86.760  30.679  49.845
21724DC     BB341119  86.818  30.544  49.991
21724DC     SC141120  86.791  30.724  50.180
21724DC     SC241121  86.986  30.777  50.256
21724DC     SC341122  86.701  30.846  50.395
21725DC     BB141123  86.858  30.341  49.807
21725DC     BB241124  87.174  30.367  49.979
21725DC     BB341125  87.174  30.244  50.145
21725DC     SC141126  87.018  30.408  50.277
21725DC     SC241127  87.129  30.500  50.437
21725DC     SC341128  86.807  30.501  50.405
21726DT     BB141129  87.346  30.070  50.023
21726DT     BB241130  87.514  30.158  50.329
21726DT     BB341131  87.455  30.031  50.481
21726DT     SC141132  87.222  30.151  50.502
21726DT     SC241133  87.213  30.258  50.688
21726DT     SC341134  86.961  30.188  50.496
21727DA     BB141135  87.874  30.033  50.476
21727DA     BB241136  87.767  30.081  50.823
21727DA     BB341137  87.691  29.898  50.903
21727DA     SC141138  87.397  29.954  50.818
21727DA     SC241139  87.180  30.007  50.927
21727DA     SC341140  87.073  29.926  50.709
21727DA     SC441141  87.349  29.898  50.675
21728DC     BB141142  87.794  29.808  51.052
21728DC     BB241143  87.564  29.880  51.321
21728DC     BB341144  87.456  29.711  51.369
21728DC     SC141145  87.308  29.733  51.154
21728DC     SC241146  87.108  29.788  51.210
21728DC     SC341147  87.201  29.677  50.920
21729DT     BB141148  87.596  29.663  51.607
21729DT     BB241149  87.252  29.669  51.713
21729DT     BB341150  87.171  29.479  51.702
21729DT     SC141151  87.156  29.492  51.441
21729DT     SC241152  86.949  29.503  51.382
21729DT     SC341153  87.199  29.436  51.186
21730DG     BB141154  87.128  29.548  52.107
21730DG     BB241155  86.814  29.437  51.965
21730DG     BB341156  86.812  29.238  51.953
21730DG     SC141157  86.934  29.230  51.672
21730DG     SC241158  86.796  29.137  51.424
21730DG     SC341159  87.084  29.182  51.374
21730DG     SC441160  87.093  29.226  51.657
21731DA     BB141161  86.509  29.191  52.139
21731DA     BB241162  86.346  29.039  51.848
21731DA     BB341163  86.394  28.832  51.836
21731DA     SC141164  86.645  28.876  51.657
21731DA     SC241165  86.714  28.831  51.421
21731DA     SC341166  86.954  28.855  51.508
21731DA     SC441167  86.787  28.893  51.730
21732DA     BB141168  86.068  28.772  51.837
21732DA     BB241169  86.108  28.637  51.498
21732DA     BB341170  86.179  28.436  51.506
21732DA     SC141171  86.479  28.516  51.496
21732DA     SC241172  86.670  28.500  51.336
21732DA     SC341173  86.819  28.533  51.542
21732DA     SC441174  86.555  28.536  51.637
21733DC     BB141175  86.057  28.287  51.439
21733DC     BB241176  86.228  28.238  51.125
21733DC     BB341177  86.337  28.061  51.131
21733DC     SC141178  86.519  28.169  51.285
21733DC     SC241179  86.702  28.192  51.174
21733DC     SC341180  86.671  28.213  51.496
21734DC     BB141181  86.158  27.984  50.956
21734DC     BB241182  86.476  27.958  50.788
21734DC     BB341183  86.569  27.780  50.840
21734DC     SC141184  86.631  27.874  51.077
21734DC     SC241185  86.844  27.904  51.088
21734DC     SC341186  86.640  27.901  51.339
21735DT     BB141187  86.517  27.742  50.591
21735DT     BB241188  86.875  27.709  50.626
21735DT     BB341189  86.921  27.524  50.707
21735DT     SC141190  86.843  27.601  50.945
21735DT     SC241191  87.014  27.618  51.074
21735DT     SC341192  86.704  27.611  51.169
21736DT     BB141193  87.015  27.509  50.469
21736DT     BB241194  87.291  27.439  50.691
21736DT     BB341195  87.273  27.247  50.767
21736DT     SC141196  87.081  27.322  50.929
21736DT     SC241197  87.152  27.317  51.132
21736DT     SC341198  86.842  27.338  51.041
21737DC     BB141199  87.480  27.203  50.615
21737DC     BB241200  87.578  27.090  50.943
21737DC     BB341201  87.498  26.903  50.980
21737DC     SC141202  87.259  27.004  51.019
21737DC     SC241203  87.207  26.987  51.227
21737DC     SC341204  87.003  27.055  50.985
21738DT     BB141205  87.740  26.777  50.945
21738DT     BB241206  87.626  26.653  51.264
21738DT     BB341207  87.505  26.487  51.237
21738DT     SC141208  87.306  26.637  51.154
21738DT     SC241209  87.149  26.636  51.301
21738DT     SC341210  87.122  26.739  50.995
21739DT     BB141211  87.685  26.253  51.299
21739DT     BB241212  87.398  26.184  51.507
21739DT     BB341213  87.270  26.055  51.408
21739DT     SC141214  87.187  26.247  51.249
21739DT     SC241215  86.983  26.296  51.297
21739DT     SC341216  87.141  26.384  51.029
21740DA     BB141217  87.315  25.757  51.726
21740DA     BB241218  86.953  25.795  51.680
21740DA     BB341219  86.884  25.668  51.523
21740DA     SC141220  86.924  25.882  51.300
21740DA     SC241221  86.781  26.021  51.151
21740DA     SC341222  86.990  26.044  51.005
21740DA     SC441223  87.064  25.883  51.222
21741DC     BB141224  86.716  25.423  51.495
21741DC     BB241225  86.427  25.609  51.385
21741DC     BB341226  86.368  25.542  51.198
21741DC     SC141227  86.568  25.664  51.081
21741DC     SC241228  86.494  25.829  50.965
21741DC     SC341229  86.791  25.701  50.945
21742DG     BB141230  86.032  25.459  51.418
21742DG     BB241231  85.951  25.677  51.141
21742DG     BB341232  85.915  25.568  50.978
21742DG     SC141233  86.206  25.567  50.883
21742DG     SC241234  86.311  25.701  50.638
21742DG     SC341235  86.518  25.529  50.761
21742DG     SC441236  86.304  25.452  50.935
21743DA     BB141237  85.631  25.757  50.968
21743DA     BB241238  85.733  25.891  50.643
21743DA     BB341239  85.697  25.747  50.489
21743DA     SC141240  85.980  25.619  50.510
21743DA     SC241241  86.188  25.606  50.373
21743DA     SC341242  86.245  25.401  50.516
21743DA     SC441243  85.997  25.492  50.608
21744DT     BB141244  85.568  25.806  50.366
21744DT     BB241245  85.792  25.876  50.092
21744DT     BB341246  85.785  25.723  49.954
21744DT     SC141247  85.925  25.565  50.110
21744DT     SC241248  86.120  25.535  50.024
21744DT     SC341249  85.989  25.360  50.264
21745DT     BB141250  85.654  25.891  49.789
21745DT     BB241251  85.938  25.779  49.596
21745DT     BB341252  85.893  25.600  49.502
21745DT     SC141253  85.914  25.467  49.726
21745DT     SC241254  86.089  25.342  49.719
21745DT     SC341255  85.848  25.318  49.934
21746DT     BB141256  85.868  25.718  49.249
21746DT     BB241257  86.109  25.455  49.195
21746DT     BB341258  86.012  25.280  49.142
21746DT     SC141259  85.931  25.241  49.388
21746DT     SC241260  86.034  25.071  49.471
21746DT     SC341261  85.769  25.211  49.594
21747DA     BB141262  86.271  25.316  48.809
21747DA     BB241263  86.304  24.971  48.928
21747DA     BB341264  86.141  24.852  48.857
21747DA     SC141265  85.961  24.908  49.104
21747DA     SC241266  85.872  24.781  49.300
21747DA     SC341267  85.696  24.967  49.314
21747DA     SC441268  85.859  25.032  49.096
21748DT     BB141269  86.139  24.668  48.690
21748DT     BB241270  86.109  24.404  48.934
21748DT     BB341271  85.928  24.306  48.910
21748DT     SC141272  85.798  24.506  49.019
21748DT     SC241273  85.721  24.446  49.211
21748DT     SC341274  85.631  24.709  49.044
21749DA     BB141275  86.210  23.999  48.890
21749DA     BB241276  85.964  23.906  49.146
21749DA     BB341277  85.788  23.828  49.055
21749DA     SC141278  85.646  24.105  49.037
21749DA     SC241279  85.453  24.220  49.144
21749DA     SC341280  85.459  24.375  48.940
21749DA     SC441281  85.665  24.190  48.902
21750DT     BB141282  85.763  23.653  49.102
21750DT     BB241283  85.504  23.718  49.344
21750DT     BB341284  85.319  23.670  49.264
21750DT     SC141285  85.319  23.885  49.115
21750DT     SC241286  85.170  24.022  49.187
21750DT     SC341287  85.320  24.038  48.899
21751DT     BB141288  85.363  23.512  49.460
21751DT     BB241289  85.063  23.696  49.540
21751DT     BB341290  84.905  23.625  49.427
21751DT     SC141291  84.995  23.745  49.212
21751DT     SC241292  84.864  23.908  49.160
21751DT     SC341293  85.091  23.779  48.969
21752DT     BB141294  84.857  23.577  49.672
21752DT     BB241295  84.581  23.775  49.549
21752DT     BB341296  84.462  23.661  49.424
21752DT     SC141297  84.640  23.674  49.231
21752DT     SC241298  84.562  23.796  49.071
21752DT     SC341299  84.818  23.598  49.053
21753DA     BB141300  84.248  23.887  49.711
21753DA     BB241301  84.081  23.916  49.385
21753DA     BB341302  83.999  23.729  49.327
21753DA     SC141303  84.254  23.637  49.174
21753DA     SC241304  84.324  23.598  48.938
21753DA     SC341305  84.512  23.455  49.038
21753DA     SC441306  84.363  23.551  49.256
21754DA     BB141307  83.738  23.927  49.294
21754DA     BB241308  83.722  23.814  48.946
21754DA     BB341309  83.657  23.611  48.937
21754DA     SC141310  83.944  23.492  48.949
21754DA     SC241311  84.101  23.372  48.797
21754DA     SC341312  84.220  23.297  49.012
21754DA     SC441313  84.003  23.455  49.094
21755DC     BB141314  83.472  23.563  48.857
21755DC     BB241315  83.588  23.406  48.553
21755DC     BB341316  83.569  23.200  48.568
21755DC     SC141317  83.776  23.185  48.729
21755DC     SC241318  83.939  23.088  48.627
21755DC     SC341319  83.919  23.140  48.946
21756DA     BB141320  83.359  23.283  48.213
21756DA     BB241321  83.582  23.000  48.142
21756DA     BB341322  83.503  22.821  48.226
21756DA     SC141323  83.651  22.854  48.498
21756DA     SC241324  83.837  22.743  48.621
21756DA     SC341325  83.738  22.854  48.830
21756DA     SC441326  83.573  22.930  48.616
21757DA     BB141327  83.516  22.681  47.922
21757DA     BB241328  83.748  22.432  48.059
21757DA     BB341329  83.641  22.280  48.163
21757DA     SC141330  83.654  22.425  48.438
21757DA     SC241331  83.768  22.394  48.658
21757DA     SC341332  83.585  22.549  48.750
21757DA     SC441333  83.532  22.522  48.476
21758DT     BB141334  83.621  22.063  48.097
21758DT     BB241335  83.848  21.924  48.342
21758DT     BB341336  83.742  21.812  48.480
21758DT     SC141337  83.650  22.029  48.597
21758DT     SC241338  83.740  22.049  48.791
21758DT     SC341339  83.480  22.210  48.684
21759DC     BB141340  83.820  21.555  48.384
21759DC     BB241341  83.919  21.548  48.731
21759DC     BB341342  83.767  21.468  48.846
21759DC     SC141343  83.626  21.689  48.826
21759DC     SC241344  83.620  21.787  49.018
21759DC     SC341345  83.429  21.852  48.764
21760DC     BB141346  83.893  21.219  48.891
21760DC     BB241347  83.830  21.345  49.224
21760DC     BB341348  83.646  21.278  49.290
21760DC     SC141349  83.519  21.448  49.135
21760DC     SC241350  83.426  21.600  49.255
21760DC     SC341351  83.364  21.540  48.943
21761DT     BB141352  83.756  21.096  49.469
21761DT     BB241353  83.549  21.308  49.675
21761DT     BB341354  83.358  21.231  49.686
21761DT     SC141355  83.303  21.310  49.442
21761DT     SC241356  83.160  21.471  49.449
21761DT     SC341357  83.242  21.300  49.186
21762DG     BB141358  83.497  21.259  50.068
21762DG     BB241359  83.180  21.429  50.030
21762DG     BB341360  83.032  21.296  50.031
21762DG     SC141361  83.036  21.253  49.728
21762DG     SC241362  82.820  21.330  49.537
21762DG     SC341363  83.026  21.166  49.402
21762DG     SC441364  83.133  21.141  49.667
21763DA     BB141365  82.901  21.505  50.272
21763DA     BB241366  82.604  21.556  50.062
21763DA     BB341367  82.480  21.382  50.066
21763DA     SC141368  82.617  21.250  49.819
21763DA     SC241369  82.559  21.197  49.582
21763DA     SC341370  82.752  21.028  49.595
21763DA     SC441371  82.739  21.149  49.847
21764DG     BB141372  82.279  21.589  50.176
21764DG     BB241373  82.102  21.509  49.871
21764DG     BB341374  82.003  21.337  49.894
21764DG     SC141375  82.235  21.163  49.796
21764DG     SC241376  82.239  21.002  49.545
21764DG     SC341377  82.475  20.941  49.713
21764DG     SC441378  82.344  21.111  49.902
21765DC     BB141379  81.783  21.330  49.882
21765DC     BB241380  81.731  21.174  49.561
21765DC     BB341381  81.679  20.975  49.587
21765DC     SC141382  81.926  20.910  49.649
21765DC     SC241383  82.010  20.791  49.491
21765DC     SC341384  82.132  20.825  49.789
21766DT     BB141385  81.417  21.023  49.517
21766DT     BB241386  81.524  20.765  49.289
21766DT     BB341387  81.492  20.579  49.373
21766DT     SC141388  81.698  20.608  49.534
21766DT     SC241389  81.855  20.473  49.475
21766DT     SC341390  81.838  20.633  49.756
21767DT     BB141391  81.273  20.518  49.211
21767DT     BB241392  81.502  20.246  49.152
21767DT     BB341393  81.467  20.094  49.288
21767DT     SC141394  81.580  20.229  49.482
21767DT     SC241395  81.766  20.135  49.536
21767DT     SC341396  81.609  20.360  49.709
21768DC     BB141397  81.350  19.928  49.098
21768DC     BB241398  81.626  19.734  49.228
21768DC     BB341399  81.563  19.623  49.391
21768DC     SC141400  81.559  19.836  49.544
21768DC     SC241401  81.717  19.823  49.689
21768DC     SC341402  81.466  20.028  49.700
21769DA     BB141403  81.752  19.363  49.123
21769DA     BB241404  81.901  19.312  49.454
21769DA     BB341405  81.765  19.206  49.581
21769DA     SC141406  81.631  19.462  49.694
21769DA     SC241407  81.621  19.586  49.910
21769DA     SC341408  81.408  19.693  49.816
21769DA     SC441409  81.499  19.517  49.618
21770DT     BB141410  81.833  19.040  49.629
21770DT     BB241411  81.918  19.127  49.969
21770DT     BB341412  81.772  19.058  50.098
21770DT     SC141413  81.606  19.247  50.025
21770DT     SC241414  81.579  19.386  50.187
21770DT     SC341415  81.392  19.365  49.924
21771DC     BB141416  81.962  18.894  50.173
21771DC     BB241417  81.866  19.074  50.471
21771DC     BB341418  81.696  18.988  50.553
21771DC     SC141419  81.544  19.092  50.366
21771DC     SC241420  81.420  19.245  50.452
21771DC     SC341421  81.379  19.108  50.161
21772DA     BB141422  82.000  19.054  50.837
21772DA     BB241423  81.683  19.182  50.971
21772DA     BB341424  81.551  19.021  51.014
21772DA     SC141425  81.418  19.022  50.733
21772DA     SC241426  81.197  19.081  50.633
21772DA     SC341427  81.270  18.934  50.436
21772DA     SC441428  81.481  18.925  50.621
21773DT     BB141429  81.521  19.020  51.189
21773DT     BB241430  81.180  19.137  51.180
21773DT     BB341431  81.050  18.976  51.185
21773DT     SC141432  81.101  18.917  50.935
21773DT     SC241433  80.928  18.959  50.814
21773DT     SC341434  81.184  18.783  50.723
21774DG     BB141435  80.967  19.236  51.488
21774DG     BB241436  80.670  19.151  51.300
21774DG     BB341437  80.612  18.966  51.345
21774DG     SC141438  80.780  18.833  51.127
21774DG     SC241439  80.675  18.690  50.887
21774DG     SC341440  80.967  18.652  50.912
21774DG     SC441441  80.931  18.790  51.160
21775DG     BB141442  80.322  19.095  51.431
21775DG     BB241443  80.177  18.882  51.178
21775DG     BB341444  80.158  18.697  51.247
21775DG     SC141445  80.435  18.607  51.154
21775DG     SC241446  80.492  18.405  50.941
21775DG     SC341447  80.740  18.481  51.083
21775DG     SC441448  80.561  18.628  51.251
21776DA     BB141449  79.817  18.696  51.157
21776DA     BB241450  79.869  18.400  50.946
21776DA     BB341451  79.885  18.225  51.067
21776DA     SC141452  80.195  18.244  51.095
21776DA     SC241453  80.395  18.120  51.015
21776DA     SC341454  80.518  18.234  51.210
21776DA     SC441455  80.253  18.324  51.223
21777DT     BB141456  79.733  18.048  51.087
21777DT     BB241457  79.925  17.802  50.906
21777DT     BB341458  79.995  17.657  51.036
21777DT     SC141459  80.177  17.819  51.132
21777DT     SC241460  80.372  17.753  51.071
21777DT     SC341461  80.310  17.969  51.304
21778DT     BB141462  79.809  17.419  50.993
21778DT     BB241463  80.135  17.273  50.942
21778DT     BB341464  80.200  17.183  51.117
21778DT     SC141465  80.252  17.416  51.227
21778DT     SC241466  80.465  17.439  51.247
21778DT     SC341467  80.239  17.620  51.393
21779DT     BB141468  80.157  16.871  51.087
21779DT     BB241469  80.509  16.897  51.161
21779DT     BB341470  80.543  16.857  51.361
21779DT     SC141471  80.447  17.091  51.432
21779DT     SC241472  80.607  17.215  51.506
21779DT     SC341473  80.291  17.272  51.543
21780DT     BB141474  80.662  16.575  51.365
21780DT     BB241475  80.919  16.781  51.513
21780DT     BB341476  80.909  16.768  51.719
21780DT     SC141477  80.696  16.921  51.726
21780DT     SC241478  80.747  17.111  51.814
21780DT     SC341479  80.447  16.997  51.767
21781DT     BB141480  81.144  16.618  51.738
21781DT     BB241481  81.215  16.928  51.910
21781DT     BB341482  81.170  16.909  52.111
21781DT     SC141483  80.912  16.922  52.062
21781DT     SC241484  80.835  17.108  52.138
21781DT     SC341485  80.659  16.852  52.047
21782DT     BB141486  81.429  16.932  52.125
21782DT     BB241487  81.293  17.218  52.298
21782DT     BB341488  81.235  17.164  52.489
21782DT     SC141489  81.023  17.039  52.399
21782DT     SC241490  80.846  17.148  52.456
21782DT     SC341491  80.854  16.844  52.345
21783DT     BB141492  81.428  17.329  52.520
21783DT     BB241493  81.141  17.476  52.682
21783DT     BB341494  81.104  17.379  52.861
21783DT     SC141495  81.005  17.170  52.737
21783DT     SC241496  80.793  17.159  52.772
21783DT     SC341497  80.978  16.921  52.652
21784DA     BB141498  81.095  17.803  52.870
21784DA     BB241499  80.799  17.671  53.043
21784DA     BB341500  80.857  17.568  53.220
21784DA     SC141501  80.883  17.291  53.080
21784DA     SC241502  80.763  17.073  53.078
21784DA     SC341503  80.981  16.977  52.983
21784DA     SC441504  81.028  17.250  53.023
21785DG     BB141505  80.663  17.788  53.313
21785DG     BB241506  80.471  17.500  53.417
21785DG     BB341507  80.553  17.418  53.579
21785DG     SC141508  80.735  17.230  53.421
21785DG     SC241509  80.716  16.932  53.414
21785DG     SC341510  80.963  17.025  53.280
21785DG     SC441511  80.880  17.281  53.377
21786DA     BB141512  80.229  17.440  53.699
21786DA     BB241513  80.231  17.078  53.757
21786DA     BB341514  80.357  17.030  53.922
21786DA     SC141515  80.611  16.991  53.748
21786DA     SC241516  80.758  16.803  53.675
21786DA     SC341517  80.933  16.984  53.628
21786DA     SC441518  80.707  17.118  53.727
21787DA     BB141519  80.079  16.879  54.012
21787DA     BB241520  80.273  16.568  54.012
21787DA     BB341521  80.405  16.563  54.180
21787DA     SC141522  80.641  16.696  54.029
21787DA     SC241523  80.866  16.630  53.942
21787DA     SC341524  80.918  16.881  53.943
21787DA     SC441525  80.655  16.856  54.037
21788DA     BB141526  80.249  16.277  54.216
21788DA     BB241527  80.578  16.119  54.186
21788DA     BB341528  80.693  16.151  54.363
21788DA     SC141529  80.823  16.414  54.260
21788DA     SC241530  81.048  16.492  54.188
21788DA     SC341531  80.959  16.728  54.234
21788DA     SC441532  80.749  16.552  54.296
21789DT     BB141533  80.732  15.993  54.463
21789DT     BB241534  81.082  15.971  54.379
21789DT     BB341535  81.197  16.043  54.536
21789DT     SC141536  81.134  16.292  54.478
21789DT     SC241537  81.308  16.393  54.401
21789DT     SC341538  81.034  16.534  54.502
21790DA     BB141539  81.343  15.667  54.419
21790DA     BB241540  81.627  15.896  54.447
21790DA     BB341541  81.664  15.944  54.652
21790DA     SC141542  81.478  16.193  54.653
21790DA     SC241543  81.501  16.441  54.667
21790DA     SC341544  81.255  16.440  54.739
21790DA     SC441545  81.325  16.171  54.697
21791DA     BB141546  81.967  15.842  54.571
21791DA     BB241547  82.083  16.177  54.665
21791DA     BB341548  82.084  16.198  54.877
21791DA     SC141549  81.794  16.309  54.892
21791DA     SC241550  81.681  16.525  54.943
21791DA     SC341551  81.471  16.382  54.985
21791DA     SC441552  81.675  16.203  54.914
21792DG     BB141553  82.391  16.248  54.844
21792DG     BB241554  82.307  16.575  54.972
21792DG     BB341555  82.295  16.570  55.171
21792DG     SC141556  81.997  16.499  55.176
21792DG     SC241557  81.777  16.674  55.277
21792DG     SC341558  81.677  16.402  55.218
21792DG     SC441559  81.954  16.345  55.171
21793DT     BB141560  82.432  16.688  55.301
21793DT     BB241561  82.213  16.952  55.414
21793DT     BB341562  82.156  16.917  55.610
21793DT     SC141563  81.991  16.727  55.536
21793DT     SC241564  81.789  16.792  55.566
21793DT     SC341565  81.884  16.487  55.512
21794DA     BB141566  82.302  17.309  55.582
21794DA     BB241567  81.979  17.319  55.756
21794DA     BB341568  81.998  17.239  55.953
21794DA     SC141569  81.929  16.948  55.866
21794DA     SC241570  81.742  16.786  55.897
21794DA     SC341571  81.914  16.606  55.835
21794DA     SC441572  82.051  16.851  55.827
21795DT     BB141573  81.969  17.365  56.092
21795DT     BB241574  81.646  17.243  56.197
21795DT     BB341575  81.666  17.126  56.367
21795DT     SC141576  81.766  16.927  56.228
21795DT     SC241577  81.624  16.765  56.224
21795DT     SC341578  81.937  16.746  56.142
21796DT     BB141579  81.550  17.324  56.505
21796DT     BB241580  81.346  17.034  56.572
21796DT     BB341581  81.429  16.925  56.728
21796DT     SC141582  81.619  16.832  56.572
21796DT     SC241583  81.587  16.622  56.538
21796DT     SC341584  81.859  16.786  56.475
21797DT     BB141585  81.232  17.007  56.899
21797DT     BB241586  81.220  16.646  56.916
21797DT     BB341587  81.354  16.577  57.057
21797DT     SC141588  81.558  16.625  56.899
21797DT     SC241589  81.643  16.439  56.834
21797DT     SC341590  81.782  16.731  56.807
21798DG     BB141591  80.999  16.436  57.210
21798DG     BB241592  81.243  16.170  57.186
21798DG     BB341593  81.365  16.176  57.342
21798DG     SC141594  81.567  16.363  57.208
21798DG     SC241595  81.846  16.292  57.129
21798DG     SC341596  81.799  16.582  57.098
21798DG     SC441597  81.547  16.521  57.220
21799DT     BB141598  81.399  16.009  57.535
21799DT     BB241599  81.709  15.858  57.431
21799DT     BB341600  81.862  15.914  57.559
21799DT     SC141601  81.871  16.155  57.454
21799DT     SC241602  82.055  16.177  57.344
21799DT     SC341603  81.856  16.417  57.433
21800DC     BB141604  81.892  15.667  57.707
21800DC     BB241605  82.218  15.723  57.564
21800DC     BB341606  82.338  15.825  57.698
21800DC     SC141607  82.211  16.050  57.653
21800DC     SC241608  82.340  16.186  57.548
21800DC     SC341609  82.063  16.264  57.696
21801DT     BB141610  82.500  15.603  57.763
21801DT     BB241611  82.730  15.847  57.629
21801DT     BB341612  82.807  15.963  57.783
21801DT     SC141613  82.582  16.096  57.806
21801DT     SC241614  82.611  16.298  57.737
21801DT     SC341615  82.359  16.190  57.910
21802DA     BB141616  83.119  15.812  57.549
21802DA     BB241617  83.161  16.176  57.576
21802DA     BB341618  83.228  16.229  57.771
21802DA     SC141619  82.941  16.265  57.886
21802DA     SC241620  82.796  16.452  57.965
21802DA     SC341621  82.664  16.270  58.089
21802DA     SC441622  82.873  16.138  57.957
21803DA     BB141623  83.430  16.369  57.561
21803DA     BB241624  83.314  16.686  57.704
21803DA     BB341625  83.390  16.710  57.902
21803DA     SC141626  83.146  16.573  58.038
21803DA     SC241627  82.953  16.640  58.181
21803DA     SC341628  82.941  16.392  58.245
21803DA     SC441629  83.155  16.415  58.066
21804DT     BB141630  83.494  16.852  57.900
21804DT     BB241631  83.269  17.073  58.076
21804DT     BB341632  83.317  17.077  58.278
21804DT     SC141633  83.214  16.839  58.316
21804DT     SC241634  83.035  16.857  58.434
21804DT     SC341635  83.196  16.582  58.374
21805DG     BB141636  83.297  17.444  58.099
21805DG     BB241637  83.094  17.424  58.398
21805DG     BB341638  83.211  17.422  58.559
21805DG     SC141639  83.237  17.117  58.566
21805DG     SC241640  83.127  16.936  58.777
21805DG     SC341641  83.303  16.787  58.591
21805DG     SC441642  83.355  17.047  58.483
21806DT     BB141643  83.169  17.571  58.673
21806DT     BB241644  83.005  17.415  58.954
21806DT     BB341645  83.143  17.375  59.103
21806DT     SC141646  83.243  17.173  58.968
21806DT     SC241647  83.192  16.989  59.068
21806DT     SC341648  83.415  17.024  58.835
21807DA     BB141649  82.799  17.566  59.252
21807DA     BB241650  82.881  17.284  59.472
21807DA     BB341651  83.062  17.323  59.577
21807DA     SC141652  83.245  17.193  59.362
21807DA     SC241653  83.388  16.990  59.339
21807DA     SC341654  83.503  17.117  59.148
21807DA     SC441655  83.305  17.289  59.247
21808DT     BB141656  83.034  17.337  59.758
21808DT     BB241657  83.194  17.030  59.859
21808DT     BB341658  83.388  17.068  59.922
21808DT     SC141659  83.469  17.102  59.674
21808DT     SC241660  83.598  16.939  59.618
21808DT     SC341661  83.566  17.220  59.459
21809DA     BB141662  83.208  16.846  60.230
21809DA     BB241663  83.539  16.702  60.168
21809DA     BB341664  83.692  16.833  60.241
21809DA     SC141665  83.721  16.987  59.972
21809DA     SC241666  83.890  17.010  59.790
21809DA     SC341667  83.768  17.228  59.732
21809DA     SC441668  83.633  17.120  59.953
21810DA     BB141669  83.807  16.573  60.420
21810DA     BB241670  84.125  16.607  60.241
21810DA     BB341671  84.237  16.771  60.319
21810DA     SC141672  84.117  16.978  60.121
21810DA     SC241673  84.194  17.113  59.925
21810DA     SC341674  83.991  17.262  59.974
21810DA     SC441675  83.987  17.060  60.168
21811DT     BB141676  84.450  16.780  60.459
21811DT     BB241677  84.667  16.895  60.195
21811DT     BB341678  84.736  17.085  60.238
21811DT     SC141679  84.504  17.191  60.178
21811DT     SC241680  84.523  17.306  59.997
21811DT     SC341681  84.275  17.320  60.205
21812DA     BB141682  85.118  16.902  60.203
21812DA     BB241683  85.129  17.201  59.991
21812DA     BB341684  85.171  17.374  60.110
21812DA     SC141685  84.872  17.438  60.164
21812DA     SC241686  84.705  17.613  60.099
21812DA     SC341687  84.574  17.535  60.306
21812DA     SC441688  84.805  17.377  60.298
21813DT     BB141689  85.368  17.507  60.106
21813DT     BB241690  85.220  17.777  59.917
21813DT     BB341691  85.210  17.947  60.034
21813DT     SC141692  85.008  17.850  60.172
21813DT     SC241693  84.830  17.961  60.125
21813DT     SC341694  84.868  17.759  60.375
21814DA     BB141695  85.402  18.054  59.681
21814DA     BB241696  85.127  18.291  59.734
21814DA     BB341697  85.179  18.432  59.886
21814DA     SC141698  85.062  18.261  60.118
21814DA     SC241699  84.869  18.273  60.276
21814DA     SC341700  85.003  18.108  60.420
21814DA     SC441701  85.161  18.160  60.194
21815DA     BB141702  85.081  18.606  59.632
21815DA     BB241703  84.818  18.734  59.853
21815DA     BB341704  84.901  18.867  59.998
21815DA     SC141705  84.953  18.644  60.209
21815DA     SC241706  84.863  18.575  60.431
21815DA     SC341707  85.084  18.449  60.459
21815DA     SC441708  85.098  18.573  60.208
21816DA     BB141709  84.645  19.009  59.857
21816DA     BB241710  84.508  19.035  60.196
21816DA     BB341711  84.623  19.172  60.312
21816DA     SC141712  84.817  18.955  60.420
21816DA     SC241713  84.866  18.843  60.638
21816DA     SC341714  85.092  18.783  60.533
21816DA     SC441715  84.953  18.929  60.338
21817DG     BB141716  84.337  19.284  60.323
21817DG     BB241717  84.382  19.232  60.678
21817DG     BB341718  84.502  19.373  60.752
21817DG     SC141719  84.758  19.213  60.704
21817DG     SC241720  84.938  19.102  60.915
21817DG     SC341721  85.061  19.075  60.647
21817DG     SC441722  84.833  19.228  60.563
21818DT     BB141723  84.427  19.512  60.900
21818DT     BB241724  84.598  19.414  61.202
21818DT     BB341725  84.758  19.541  61.236
21818DT     SC141726  84.899  19.428  61.046
21818DT     SC241727  85.062  19.318  61.133
21818DT     SC341728  85.032  19.398  60.820
21819DT     BB141729  84.641  19.701  61.446
21819DT     BB241730  84.956  19.603  61.591
21819DT     BB341731  85.100  19.746  61.551
21819DT     SC141732  85.119  19.667  61.301
21819DT     SC241733  85.310  19.573  61.271
21819DT     SC341734  85.108  19.673  61.038
21820DT     BB141735  85.128  19.918  61.810
21820DT     BB241736  85.471  19.827  61.745
21820DT     BB341737  85.568  19.981  61.646
21820DT     SC141738  85.445  19.925  61.421
21820DT     SC241739  85.587  19.845  61.281
21820DT     SC341740  85.289  19.952  61.210
21821DG     BB141741  85.818  20.020  61.985
21821DG     BB241742  86.022  19.984  61.689
21821DG     BB341743  86.060  20.163  61.610
21821DG     SC141744  85.812  20.163  61.430
21821DG     SC241745  85.812  20.152  61.132
21821DG     SC341746  85.540  20.205  61.235
21821DG     SC441747  85.674  20.220  61.488
21822DT     BB141748  86.288  20.300  61.580
21822DT     BB241749  86.343  20.233  61.229
21822DT     BB341750  86.327  20.408  61.121
21822DT     SC141751  86.066  20.408  61.143
21822DT     SC241752  85.978  20.367  60.951
21822DT     SC341753  85.823  20.484  61.211
21823DT     BB141754  86.602  20.424  61.073
21823DT     BB241755  86.455  20.409  60.744
21823DT     BB341756  86.416  20.601  60.676
21823DT     SC141757  86.209  20.624  60.835
21823DT     SC241758  86.028  20.625  60.718
21823DT     SC341759  86.054  20.713  61.029
21824DC     BB141760  86.617  20.568  60.499
21824DC     BB241761  86.326  20.634  60.297
21824DC     BB341762  86.299  20.838  60.276
21824DC     SC141763  86.210  20.860  60.522
21824DC     SC241764  86.000  20.907  60.518
21824DC     SC341765  86.195  20.932  60.775
21825DA     BB141766  86.285  20.649  59.902
21825DA     BB241767  85.995  20.873  59.929
21825DA     BB341768  86.057  21.076  59.918
21825DA     SC141769  86.095  21.108  60.225
21825DA     SC241770  85.985  21.228  60.414
21825DA     SC341771  86.207  21.195  60.538
21825DA     SC441772  86.242  21.079  60.285
21826DT     BB141773  85.995  21.175  59.761
21826DT     BB241774  85.750  21.378  59.930
21826DT     BB341775  85.823  21.570  59.957
21826DT     SC141776  85.981  21.489  60.151
21826DT     SC241777  85.910  21.569  60.338
21826DT     SC341778  86.201  21.436  60.286
21827DT     BB141779  85.657  21.670  59.763
21827DT     BB241780  85.579  21.866  60.056
21827DT     BB341781  85.705  22.030  60.067
21827DT     SC141782  85.907  21.880  60.144
21827DT     SC241783  85.953  21.923  60.349
21827DT     SC341784  86.141  21.759  60.143
21828DG     BB141785  85.331  22.192  60.052
21828DG     BB241786  85.517  22.320  60.334
21828DG     BB341787  85.639  22.465  60.274
21828DG     SC141788  85.873  22.276  60.216
21828DG     SC241789  86.132  22.267  60.364
21828DG     SC341790  86.143  22.097  60.122
21828DG     SC441791  85.885  22.210  60.070
21829DT     BB141792  85.622  22.682  60.347
21829DT     BB241793  85.896  22.696  60.581
21829DT     BB341794  86.051  22.806  60.501
21829DT     SC141795  86.118  22.611  60.339
21829DT     SC241796  86.307  22.528  60.401
21829DT     SC341797  86.161  22.478  60.116
21830DA     BB141798  85.959  22.942  60.885
21830DA     BB241799  86.321  22.884  60.867
21830DA     BB341800  86.414  23.034  60.748
21830DA     SC141801  86.388  22.875  60.482
21830DA     SC241802  86.538  22.757  60.322
21830DA     SC341803  86.345  22.782  60.154
21830DA     SC441804  86.257  22.901  60.393
21831DT     BB141805  86.527  23.130  60.852
21831DT     BB241806  86.834  22.991  60.721
21831DT     BB341807  86.914  23.119  60.579
21831DT     SC141808  86.733  23.049  60.402
21831DT     SC241809  86.827  22.935  60.245
21831DT     SC341810  86.531  23.065  60.234
21832DG     BB141811  87.176  23.025  60.876
21832DG     BB241812  87.316  22.967  60.547
21832DG     BB341813  87.359  23.141  60.461
21832DG     SC141814  87.084  23.173  60.331
21832DG     SC241815  87.027  23.166  60.038
21832DG     SC341816  86.788  23.251  60.190
21832DG     SC441817  86.968  23.247  60.413
21833DT     BB141818  87.554  23.163  60.416
21833DT     BB241819  87.555  23.135  60.056
21833DT     BB341820  87.553  23.324  59.971
21833DT     SC141821  87.299  23.356  60.030
21833DT     SC241822  87.183  23.353  59.849
21833DT     SC341823  87.080  23.455  60.139
21834DA     BB141824  87.862  23.099  59.796
21834DA     BB241825  87.674  23.263  59.528
21834DA     BB341826  87.712  23.473  59.528
21834DA     SC141827  87.474  23.539  59.718
21834DA     SC241828  87.253  23.652  59.704
21834DA     SC341829  87.270  23.675  59.959
21834DA     SC441830  87.505  23.545  59.876
21835DA     BB141831  87.789  23.416  59.213
21835DA     BB241832  87.524  23.653  59.123
21835DA     BB341833  87.588  23.853  59.161
21835DA     SC141834  87.478  23.859  59.452
21835DA     SC241835  87.294  23.971  59.577
21835DA     SC341836  87.432  23.916  59.787
21835DA     SC441837  87.579  23.817  59.570
21836DG     BB141838  87.548  23.905  58.853
21836DG     BB241839  87.296  24.137  58.967
21836DG     BB341840  87.380  24.311  59.015
21836DG     SC141841  87.430  24.233  59.307
21836DG     SC241842  87.299  24.356  59.546
21836DG     SC341843  87.519  24.175  59.627
21836DG     SC441844  87.567  24.159  59.345
21837DT     BB141845  87.340  24.514  58.907
21837DT     BB241846  87.134  24.684  59.149
21837DT     BB341847  87.243  24.833  59.243
21837DT     SC141848  87.375  24.656  59.386
21837DT     SC241849  87.315  24.673  59.592
21837DT     SC341850  87.576  24.514  59.482
21838DC     BB141851  87.113  25.038  59.108
21838DC     BB241852  87.064  25.117  59.457
21838DC     BB341853  87.220  25.233  59.526
21838DC     SC141854  87.382  25.027  59.531
21838DC     SC241855  87.427  24.977  59.736
21838DC     SC341856  87.587  24.870  59.475
21839DT     BB141857  87.068  25.466  59.535
21839DT     BB241858  87.193  25.430  59.872
21839DT     BB341859  87.375  25.527  59.890
21839DT     SC141860  87.498  25.337  59.757
21839DT     SC241861  87.626  25.228  59.891
21839DT     SC341862  87.635  25.215  59.568
21840DA     BB141863  87.136  25.678  60.200
21840DA     BB241864  87.455  25.574  60.346
21840DA     BB341865  87.608  25.715  60.297
21840DA     SC141866  87.694  25.567  60.037
21840DA     SC241867  87.889  25.436  59.954
21840DA     SC341868  87.801  25.489  59.720
21840DA     SC441869  87.624  25.612  59.899
21841DT     BB141870  87.696  25.830  60.446
21841DT     BB241871  88.009  25.650  60.459
21841DT     BB341872  88.159  25.763  60.371
21841DT     SC141873  88.068  25.712  60.131
21841DT     SC241874  88.206  25.584  60.028
21841DT     SC341875  87.965  25.751  59.891
21842DT     BB141876  88.268  25.811  60.616
21842DT     BB241877  88.533  25.657  60.427
21842DT     BB341878  88.638  25.801  60.321
21842DT     SC141879  88.443  25.825  60.147
21842DT     SC241880  88.507  25.745  59.957
21842DT     SC341881  88.247  25.932  60.007
21843DC     BB141882  88.850  25.774  60.490
21843DC     BB241883  88.985  25.707  60.162
21843DC     BB341884  89.043  25.884  60.072
21843DC     SC141885  88.793  25.950  60.024
21843DC     SC241886  88.756  25.940  59.812
21843DC     SC341887  88.566  26.083  60.031
21844DC     BB141888  89.306  25.821  60.106
21844DC     BB241889  89.270  25.871  59.751
21844DC     BB341890  89.296  26.071  59.705
21844DC     SC141891  89.060  26.132  59.800
21844DC     SC241892  88.930  26.187  59.638
21844DC     SC341893  88.874  26.240  59.953
21845DC     BB141894  89.539  26.017  59.592
21845DC     BB241895  89.348  26.173  59.328
21845DC     BB341896  89.368  26.379  59.339
21845DC     SC141897  89.208  26.392  59.547
21845DC     SC241898  89.024  26.486  59.490
21845DC     SC341899  89.125  26.434  59.793
21846DC     BB141900  89.522  26.375  59.116
21846DC     BB241901  89.245  26.591  59.033
21846DC     BB341902  89.287  26.785  59.093
21846DC     SC141903  89.245  26.724  59.345
21846DC     SC241904  89.064  26.820  59.413
21846DC     SC341905  89.290  26.685  59.602
21847DT     BB141906  89.309  26.846  58.834
21847DT     BB241907  89.048  27.061  58.959
21847DT     BB341908  89.131  27.231  59.043
21847DT     SC141909  89.209  27.098  59.255
21847DT     SC241910  89.092  27.161  59.425
21847DT     SC341911  89.367  26.990  59.436
21848DT     BB141912  89.020  27.344  58.836
21848DT     BB241913  88.876  27.506  59.124
21848DT     BB341914  89.005  27.650  59.196
21848DT     SC141915  89.163  27.468  59.300
21848DT     SC241916  89.151  27.477  59.514
21848DT     SC341917  89.378  27.322  59.343
21849DA     BB141918  88.608  27.783  59.154
21849DA     BB241919  88.731  27.882  59.485
21849DA     BB341920  88.883  28.031  59.466
21849DA     SC141921  89.117  27.826  59.452
21849DA     SC241922  89.308  27.754  59.596
21849DA     SC341923  89.409  27.661  59.380
21849DA     SC441924  89.164  27.776  59.307
21850DA     BB141925  88.662  28.134  59.687
21850DA     BB241926  88.947  28.158  59.916
21850DA     BB341927  89.083  28.309  59.851
21850DA     SC141928  89.254  28.116  59.677
21850DA     SC241929  89.482  28.016  59.683
21850DA     SC341930  89.448  27.975  59.432
21850DA     SC441931  89.214  28.100  59.522
21851DC     BB141932  89.097  28.461  59.967
21851DC     BB241933  89.430  28.401  60.090
21851DC     BB341934  89.565  28.522  59.991
21851DC     SC141935  89.552  28.374  59.775
21851DC     SC241936  89.738  28.270  59.748
21851DC     SC341937  89.504  28.302  59.525
21852DA     BB141938  89.639  28.595  60.398
21852DA     BB241939  89.964  28.548  60.235
21852DA     BB341940  90.014  28.719  60.118
21852DA     SC141941  89.881  28.611  59.859
21852DA     SC241942  89.954  28.528  59.635
21852DA     SC341943  89.714  28.580  59.560
21852DA     SC441944  89.728  28.651  59.831
21853DT     BB141945  90.177  28.862  60.166
21853DT     BB241946  90.404  28.763  59.903
21853DT     BB341947  90.412  28.911  59.758
21853DT     SC141948  90.176  28.844  59.665
21853DT     SC241949  90.199  28.755  59.470
21853DT     SC341950  89.921  28.862  59.599
21854DC     BB141951  90.670  29.024  59.825
21854DC     BB241952  90.706  28.944  59.475
21854DC     BB341953  90.657  29.109  59.360
21854DC     SC141954  90.401  29.075  59.406
21854DC     SC241955  90.303  29.012  59.224
21854DC     SC341956  90.155  29.121  59.491
21855DC     BB141957  90.924  29.195  59.281
21855DC     BB241958  90.756  29.154  58.965
21855DC     BB341959  90.677  29.335  58.903
21855DC     SC141960  90.483  29.320  59.079
21855DC     SC241961  90.296  29.287  58.978
21855DC     SC341962  90.331  29.378  59.287
21856DT     BB141963  90.869  29.396  58.696
21856DT     BB241964  90.553  29.402  58.522
21856DT     BB341965  90.478  29.596  58.518
21856DT     SC141966  90.410  29.584  58.771
21856DT     SC241967  90.195  29.580  58.787
21856DT     SC341968  90.403  29.638  59.029
21857DG     BB141969  90.515  29.505  58.120
21857DG     BB241970  90.179  29.614  58.196
21857DG     BB341971  90.171  29.813  58.199
21857DG     SC141972  90.238  29.837  58.496
21857DG     SC241973  90.055  29.936  58.710
21857DG     SC341974  90.330  29.901  58.814
21857DG     SC441975  90.392  29.845  58.541
21858DG     BB141976  89.943  29.810  57.961
21858DG     BB241977  89.718  29.951  58.207
21858DG     BB341978  89.736  30.149  58.209
21858DG     SC141979  89.958  30.151  58.421
21858DG     SC241980  89.934  30.259  58.698
21858DG     SC341981  90.215  30.189  58.636
21858DG     SC441982  90.110  30.140  58.374
21859DT     BB141983  89.564  30.278  58.158
21859DT     BB241984  89.464  30.392  58.485
21859DT     BB341985  89.522  30.589  58.512
21859DT     SC141986  89.773  30.520  58.544
21859DT     SC241987  89.830  30.552  58.748
21859DT     SC341988  90.032  30.500  58.500
21860DT     BB141989  89.263  30.637  58.501
21860DT     BB241990  89.370  30.761  58.823
21860DT     BB341991  89.450  30.951  58.802
21860DT     SC141992  89.670  30.856  58.695
21860DT     SC241993  89.833  30.883  58.833
21860DT     SC341994  89.859  30.810  58.518
21861DT     BB141995  89.235  31.010  58.936
21861DT     BB241996  89.510  31.131  59.135
21861DT     BB341997  89.578  31.312  59.060
21861DT     SC141998  89.695  31.192  58.858
21861DT     SC241999  89.908  31.206  58.881
21861DT     SC342000  89.752  31.122  58.610
21862DT     BB142001  89.474  31.404  59.281
21862DT     BB242002  89.819  31.509  59.285
21862DT     BB342003  89.843  31.677  59.166
21862DT     SC142004  89.824  31.535  58.947
21862DT     SC242005  90.016  31.528  58.849
21862DT     SC342006  89.732  31.444  58.717
21863DG     BB142007  89.976  31.764  59.543
21863DG     BB242008  90.221  31.851  59.291
21863DG     BB342009  90.166  32.018  59.198
21863DG     SC142010  90.005  31.873  58.981
21863DG     SC242011  90.073  31.863  58.691
21863DG     SC342012  89.805  31.749  58.741
21863DG     SC442013  89.851  31.841  59.008
21864DA     BB142014  90.482  32.152  59.269
21864DA     BB242015  90.545  32.198  58.910
21864DA     BB342016  90.438  32.367  58.838
21864DA     SC142017  90.184  32.205  58.760
21864DA     SC242018  90.068  32.133  58.551
21864DA     SC342019  89.862  32.102  58.702
21864DA     SC442020  90.067  32.193  58.870
21865DT     BB142021  90.538  32.543  58.771
21865DT     BB242022  90.483  32.490  58.418
21865DT     BB342023  90.340  32.622  58.348
21865DT     SC142024  90.147  32.486  58.462
21865DT     SC242025  90.027  32.391  58.310
21865DT     SC342026  89.946  32.428  58.622
21866DT     BB142027  90.527  32.776  58.213
21866DT     BB242028  90.293  32.673  57.958
21866DT     BB342029  90.139  32.810  57.944
21866DT     SC142030  90.030  32.722  58.166
21866DT     SC242031  89.846  32.621  58.121
21866DT     SC342032  89.942  32.718  58.415
21867DA     BB142033  90.295  32.751  57.561
21867DA     BB242034  89.931  32.709  57.543
21867DA     BB342035  89.834  32.898  57.560
21867DA     SC142036  89.808  32.885  57.870
21867DA     SC242037  89.627  32.859  58.039
21867DA     SC342038  89.795  32.960  58.205
21867DA     SC442039  89.926  32.951  57.957
21868DA     BB142040  89.708  32.765  57.291
21868DA     BB242041  89.385  32.783  57.464
21868DA     BB342042  89.319  32.986  57.477
21868DA     SC142043  89.455  33.038  57.751
21868DA     SC242044  89.385  33.077  57.988
21868DA     SC342045  89.619  33.179  58.019
21868DA     SC442046  89.604  33.099  57.750
21869DG     BB142047  89.096  32.835  57.330
21869DG     BB242048  88.909  32.932  57.623
21869DG     BB342049  88.865  33.126  57.615
21869DG     SC142050  89.121  33.215  57.757
21869DG     SC242051  89.137  33.342  58.027
21869DG     SC342052  89.400  33.349  57.892
21869DG     SC442053  89.253  33.244  57.670
21870DC     BB142054  88.673  33.155  57.619
21870DC     BB242055  88.619  33.295  57.947
21870DC     BB342056  88.622  33.502  57.937
21870DC     SC142057  88.883  33.505  57.910
21870DC     SC242058  88.972  33.587  58.088
21870DC     SC342059  89.120  33.545  57.803
21871DT     BB142060  88.357  33.498  57.979
21871DT     BB242061  88.485  33.715  58.236
21871DT     BB342062  88.506  33.908  58.162
21871DT     SC142063  88.720  33.840  58.026
21871DT     SC242064  88.892  33.934  58.113
21871DT     SC342065  88.879  33.795  57.820
21872DT     BB142066  88.290  33.991  58.306
21872DT     BB242067  88.554  34.217  58.403
21872DT     BB342068  88.563  34.376  58.271
21872DT     SC142069  88.675  34.226  58.087
21872DT     SC242070  88.879  34.287  58.059
21872DT     SC342071  88.709  34.097  57.859
21873DA     BB142072  88.532  34.560  58.648
21873DA     BB242073  88.805  34.726  58.467
21873DA     BB342074  88.727  34.856  58.317
21873DA     SC142075  88.728  34.639  58.094
21873DA     SC242076  88.852  34.590  57.884
21873DA     SC342077  88.652  34.443  57.823
21873DA     SC442078  88.593  34.553  58.074
21874DT     BB142079  88.743  35.074  58.326
21874DT     BB242080  88.995  35.108  58.070
21874DT     BB342081  88.912  35.191  57.899
21874DT     SC142082  88.793  34.965  57.839
21874DT     SC242083  88.885  34.880  57.664
21874DT     SC342084  88.601  34.791  57.791
21875DA     BB142085  89.236  35.446  57.980
21875DA     BB242086  89.256  35.354  57.626
21875DA     BB342087  89.111  35.463  57.513
21875DA     SC142088  88.889  35.247  57.544
21875DA     SC242089  88.771  35.082  57.399
21875DA     SC342090  88.591  35.083  57.581
21875DA     SC442091  88.788  35.263  57.667
21876DT     BB142092  89.165  35.614  57.366
21876DT     BB242093  89.092  35.416  57.074
21876DT     BB342094  88.921  35.487  56.981
21876DT     SC142095  88.768  35.382  57.167
21876DT     SC242096  88.656  35.218  57.084
21876DT     SC342097  88.596  35.365  57.366
21877DT     BB142098  89.057  35.604  56.766
21877DT     BB242099  88.826  35.377  56.608
21877DT     BB342100  88.648  35.474  56.569
21877DT     SC142101  88.578  35.467  56.822
21877DT     SC242102  88.414  35.331  56.847
21877DT     SC342103  88.514  35.550  57.064
21878DA     BB142104  88.764  35.307  56.202
21878DA     BB242105  88.416  35.210  56.261
21878DA     BB342106  88.286  35.376  56.225
21878DA     SC142107  88.295  35.478  56.518
21878DA     SC242108  88.140  35.493  56.714
21878DA     SC342109  88.301  35.673  56.801
21878DA     SC442110  88.406  35.589  56.555
21879DA     BB142111  88.138  35.164  56.022
21879DA     BB242112  87.841  35.195  56.235
21879DA     BB342113  87.738  35.377  56.193
21879DA     SC142114  87.894  35.542  56.406
21879DA     SC242115  87.847  35.651  56.625
21879DA     SC342116  88.057  35.790  56.578
21879DA     SC442117  88.026  35.619  56.358
21880DC     BB142118  87.554  35.364  56.113
21880DC     BB242119  87.375  35.447  56.415
21880DC     BB342120  87.302  35.640  56.403
21880DC     SC142121  87.541  35.741  56.443
21880DC     SC242122  87.547  35.835  56.636
21880DC     SC342123  87.764  35.874  56.399
21881DT     BB142124  87.061  35.529  56.383
21881DT     BB242125  87.044  35.741  56.675
21881DT     BB342126  87.001  35.936  56.619
21881DT     SC142127  87.245  35.972  56.529
21881DT     SC242128  87.348  36.111  56.657
21881DT     SC342129  87.443  36.018  56.361
21882DT     BB142130  86.772  35.885  56.736
21882DT     BB242131  86.909  36.171  56.909
21882DT     BB342132  86.870  36.344  56.801
21882DT     SC142133  87.054  36.284  56.624
21882DT     SC242134  87.219  36.421  56.643
21882DT     SC342135  87.166  36.222  56.393
21883DT     BB142136  86.708  36.397  57.001
21883DT     BB242137  86.936  36.676  56.986
21883DT     BB342138  86.874  36.810  56.840
21883DT     SC142139  86.959  36.651  56.649
21883DT     SC242140  87.130  36.739  56.554
21883DT     SC342141  86.955  36.492  56.439
21884DT     BB142142  86.814  36.966  57.043
21884DT     BB242143  87.041  37.159  56.839
21884DT     BB342144  86.939  37.246  56.683
21884DT     SC142145  86.920  37.017  56.556
21884DT     SC242146  87.045  37.022  56.381
21884DT     SC342147  86.814  36.803  56.444
21885DT     BB142148  86.973  37.480  56.807
21885DT     BB242149  87.113  37.529  56.478
21885DT     BB342150  86.964  37.578  56.344
21885DT     SC142151  86.876  37.331  56.338
21885DT     SC242152  86.918  37.245  56.146
21885DT     SC342153  86.715  37.124  56.367
21886DA     BB142154  87.262  37.871  56.303
21886DA     BB242155  87.171  37.757  55.967
21886DA     BB342156  86.979  37.832  55.913
21886DA     SC142157  86.824  37.587  56.025
21886DA     SC242158  86.693  37.394  55.936
21886DA     SC342159  86.592  37.380  56.171
21886DA     SC442160  86.771  37.595  56.177
21887DT     BB142161  86.962  37.969  55.760
21887DT     BB242162  86.820  37.745  55.515
21887DT     BB342163  86.618  37.783  55.493
21887DT     SC142164  86.563  37.668  55.722
21887DT     SC242165  86.457  37.484  55.686
21887DT     SC342166  86.481  37.636  55.971
21888DT     BB142167  86.653  37.902  55.246
21888DT     BB242168  86.416  37.638  55.184
21888DT     BB342169  86.223  37.707  55.215
21888DT     SC142170  86.255  37.702  55.475
21888DT     SC242171  86.133  37.545  55.559
21888DT     SC342172  86.274  37.785  55.725
21889DT     BB142173  86.169  37.710  54.945
21889DT     BB242174  85.914  37.496  55.085
21889DT     BB342175  85.751  37.610  55.144
21889DT     SC142176  85.880  37.699  55.354
21889DT     SC242177  85.792  37.616  55.532
21889DT     SC342178  85.997  37.867  55.521
21890DA     BB142179  85.602  37.305  54.897
21890DA     BB242180  85.402  37.309  55.204
21890DA     BB342181  85.271  37.478  55.205
21890DA     SC142182  85.473  37.665  55.349
21890DA     SC242183  85.497  37.775  55.571
21890DA     SC342184  85.658  37.935  55.452
21890DA     SC442185  85.569  37.755  55.256
21891DA     BB142186  85.049  37.242  55.257
21891DA     BB242187  84.978  37.406  55.577
21891DA     BB342188  84.861  37.582  55.546
21891DA     SC142189  85.108  37.770  55.518
21891DA     SC242190  85.216  37.953  55.648
21891DA     SC342191  85.326  38.018  55.426
21891DA     SC442192  85.165  37.796  55.370
21892DG     BB142193  84.661  37.431  55.727
21892DG     BB242194  84.727  37.708  55.951
21892DG     BB342195  84.618  37.865  55.898
21892DG     SC142196  84.829  37.979  55.707
21892DG     SC242197  84.980  38.233  55.745
21892DG     SC342198  85.029  38.120  55.476
21892DG     SC442199  84.829  37.931  55.555
21893DT     BB142200  84.474  37.942  56.037
21893DT     BB242201  84.634  38.245  56.149
21893DT     BB342202  84.552  38.409  56.053
21893DT     SC142203  84.677  38.351  55.830
21893DT     SC242204  84.829  38.499  55.793
21893DT     SC342205  84.717  38.284  55.578
21894DT     BB142206  84.431  38.480  56.285
21894DT     BB242207  84.625  38.770  56.191
21894DT     BB342208  84.516  38.889  56.061
21894DT     SC142209  84.555  38.721  55.863
21894DT     SC242210  84.687  38.811  55.718
21894DT     SC342211  84.504  38.548  55.671
21895DC     BB142212  84.477  39.077  56.256
21895DC     BB242213  84.633  39.259  55.987
21895DC     BB342214  84.489  39.327  55.855
21895DC     SC142215  84.455  39.087  55.756
21895DC     SC242216  84.531  39.081  55.555
21895DC     SC342217  84.338  38.859  55.691
21896DA     BB142218  84.713  39.667  55.958
21896DA     BB242219  84.687  39.658  55.593
21896DA     BB342220  84.491  39.716  55.531
21896DA     SC142221  84.377  39.427  55.534
21896DA     SC242222  84.300  39.257  55.369
21896DA     SC342223  84.177  39.150  55.567
21896DA     SC442224  84.307  39.376  55.670
21897DT     BB142225  84.460  39.895  55.424
21897DT     BB242226  84.405  39.740  55.103
21897DT     BB342227  84.204  39.752  55.053
21897DT     SC142228  84.142  39.563  55.224
21897DT     SC242229  84.083  39.386  55.116
21897DT     SC342230  84.034  39.442  55.432
21898DT     BB142231  84.260  39.939  54.863
21898DT     BB242232  84.101  39.670  54.682
21898DT     BB342233  83.896  39.695  54.685
21898DT     SC142234  83.882  39.618  54.936
21898DT     SC242235  83.785  39.426  54.946
21898DT     SC342236  83.839  39.626  55.196
21899DA     BB142237  84.025  39.633  54.292
21899DA     BB242238  83.747  39.403  54.360
21899DA     BB342239  83.563  39.510  54.369
21899DA     SC142240  83.579  39.561  54.675
21899DA     SC242241  83.461  39.485  54.881
21899DA     SC342242  83.558  39.697  54.990
21899DA     SC442243  83.648  39.698  54.724
21900DA     BB142244  83.516  39.265  54.160
21900DA     BB242245  83.252  39.155  54.390
21900DA     BB342246  83.087  39.290  54.384
21900DA     SC142247  83.196  39.471  54.613
21900DA     SC242248  83.137  39.524  54.849
21900DA     SC342249  83.278  39.736  54.815
21900DA     SC442250  83.286  39.597  54.572
21901DT     BB142251  82.941  39.205  54.320
21901DT     BB242252  82.761  39.184  54.632
21901DT     BB342253  82.624  39.338  54.645
21901DT     SC142254  82.813  39.513  54.695
21901DT     SC242255  82.797  39.580  54.898
21901DT     SC342256  82.973  39.721  54.665
21902DC     BB142257  82.443  39.149  54.616
21902DC     BB242258  82.358  39.313  54.925
21902DC     BB342259  82.248  39.485  54.886
21902DC     SC142260  82.463  39.612  54.805
21902DC     SC242261  82.513  39.766  54.947
21902DC     SC342262  82.630  39.740  54.646
21903DT     BB142263  82.040  39.354  54.987
21903DT     BB242264  82.067  39.655  55.184
21903DT     BB342265  81.974  39.812  55.087
21903DT     SC142266  82.171  39.833  54.915
21903DT     SC242267  82.278  40.016  54.951
21903DT     SC342268  82.302  39.831  54.686
21904DC     BB142269  81.782  39.799  55.272
21904DC     BB242270  81.902  40.139  55.287
21904DC     BB342271  81.807  40.254  55.144
21904DC     SC142272  81.949  40.147  54.952
21904DC     SC242273  82.085  40.293  54.873
21904DC     SC342274  82.008  40.010  54.734
21905DA     BB142275  81.781  40.449  55.515
21905DA     BB242276  81.893  40.693  55.266
21905DA     BB342277  81.733  40.742  55.133
21905DA     SC142278  81.801  40.519  54.928
21905DA     SC242279  81.891  40.502  54.696
21905DA     SC342280  81.786  40.268  54.693
21905DA     SC442281  81.728  40.377  54.946
21906DA     BB142282  81.827  41.042  55.230
21906DA     BB242283  81.893  41.112  54.877
21906DA     BB342284  81.710  41.135  54.770
21906DA     SC142285  81.689  40.834  54.693
21906DA     SC242286  81.708  40.694  54.487
21906DA     SC342287  81.578  40.518  54.621
21906DA     SC442288  81.607  40.738  54.792
21907DA     BB142289  81.856  41.417  54.683
21907DA     BB242290  81.827  41.303  54.336
21907DA     BB342291  81.625  41.317  54.270
21907DA     SC142292  81.551  41.028  54.358
21907DA     SC242293  81.495  40.811  54.250
21907DA     SC342294  81.389  40.749  54.475
21907DA     SC442295  81.489  41.009  54.506
21908DT     BB142296  81.574  41.452  54.124
21908DT     BB242297  81.521  41.215  53.857
21908DT     BB342298  81.318  41.189  53.824
21908DT     SC142299  81.293  41.045  54.042
21908DT     SC242300  81.253  40.841  53.987
21908DT     SC342301  81.215  40.970  54.282
21909DT     BB142302  81.310  41.338  53.585
21909DT     BB242303  81.169  41.020  53.491
21909DT     BB342304  80.964  41.022  53.520
21909DT     SC142305  80.991  41.004  53.780
21909DT     SC242306  80.924  40.810  53.845
21909DT     SC342307  80.980  41.066  54.036
21910DC     BB142308  80.885  41.046  53.244
21910DC     BB242309  80.712  40.750  53.358
21910DC     BB342310  80.523  40.800  53.427
21910DC     SC142311  80.623  40.902  53.647
21910DC     SC242312  80.570  40.777  53.814
21910DC     SC342313  80.687  41.079  53.832
21911DT     BB142314  80.354  40.708  53.203
21911DT     BB242315  80.219  40.531  53.486
21911DT     BB342316  80.056  40.633  53.563
21911DT     SC142317  80.212  40.815  53.671
21911DT     SC242318  80.206  40.795  53.885
21911DT     SC342319  80.323  41.049  53.721
21912DA     BB142320  79.913  40.247  53.494
21912DA     BB242321  79.828  40.335  53.840
21912DA     BB342322  79.660  40.467  53.844
21912DA     SC142323  79.833  40.725  53.833
21912DA     SC242324  79.892  40.914  53.984
21912DA     SC342325  79.953  41.041  53.770
21912DA     SC442326  79.863  40.788  53.688
21913DA     BB142327  79.561  40.232  54.046
21913DA     BB242328  79.550  40.490  54.306
21913DA     BB342329  79.379  40.615  54.280
21913DA     SC142330  79.528  40.821  54.100
21913DA     SC242331  79.607  41.057  54.116
21913DA     SC342332  79.610  41.052  53.860
21913DA     SC442333  79.522  40.798  53.941
21914DA     BB142334  79.362  40.519  54.590
21914DA     BB242335  79.381  40.875  54.677
21914DA     BB342336  79.198  40.973  54.626
21914DA     SC142337  79.290  41.050  54.339
21914DA     SC242338  79.351  41.258  54.214
21914DA     SC342339  79.304  41.119  54.003
21914DA     SC442340  79.255  40.949  54.220
21915DC     BB142341  79.106  41.038  54.777
21915DC     BB242342  79.169  41.390  54.724
21915DC     BB342343  79.003  41.479  54.639
21915DC     SC142344  79.055  41.371  54.405
21915DC     SC242345  79.117  41.524  54.268
21915DC     SC342346  79.028  41.223  54.189
21916DG     BB142347  79.072  41.681  54.987
21916DG     BB242348  79.035  41.910  54.709
21916DG     BB342349  78.842  41.932  54.665
21916DG     SC142350  78.835  41.700  54.466
21916DG     SC242351  78.792  41.724  54.171
21916DG     SC342352  78.786  41.440  54.256
21916DG     SC442353  78.803  41.553  54.519
21917DA     BB142354  78.865  42.284  54.690
21917DA     BB242355  78.753  42.323  54.343
21917DA     BB342356  78.541  42.301  54.331
21917DA     SC142357  78.550  41.994  54.281
21917DA     SC242358  78.504  41.836  54.094
21917DA     SC342359  78.485  41.657  54.277
21917DA     SC442360  78.541  41.898  54.409
21918DA     BB142361  78.514  42.605  54.186
21918DA     BB242362  78.376  42.441  53.889
21918DA     BB342363  78.167  42.404  53.915
21918DA     SC142364  78.207  42.121  54.038
21918DA     SC242365  78.167  41.884  53.972
21918DA     SC342366  78.180  41.834  54.224
21918DA     SC442367  78.217  42.111  54.198
21919DA     BB142368  78.101  42.577  53.635
21919DA     BB242369  77.972  42.267  53.488
21919DA     BB342370  77.769  42.236  53.546
21919DA     SC142371  77.842  42.071  53.800
21919DA     SC242372  77.825  41.835  53.879
21919DA     SC342373  77.850  41.933  54.114
21919DA     SC442374  77.858  42.151  53.939
21920DC     BB142375  77.600  42.242  53.405
21920DC     BB242376  77.557  41.884  53.386
21920DC     BB342377  77.380  41.830  53.477
21920DC     SC142378  77.482  41.868  53.716
21920DC     SC242379  77.506  41.678  53.815
21920DC     SC342380  77.519  41.969  53.957
21921DT     BB142381  77.282  41.773  53.233
21921DT     BB242382  77.263  41.462  53.416
21921DT     BB342383  77.086  41.454  53.523
21921DT     SC142384  77.175  41.625  53.700
21921DT     SC242385  77.207  41.524  53.887
21921DT     SC342386  77.196  41.845  53.844
21922DA     BB142387  77.154  41.104  53.301
21922DA     BB242388  77.070  41.010  53.645
21922DA     BB342389  76.864  41.049  53.684
21922DA     SC142390  76.913  41.338  53.789
21922DA     SC242391  76.903  41.460  54.006
21922DA     SC342392  76.889  41.672  53.863
21922DA     SC442393  76.904  41.458  53.682
21923DG     BB142394  76.883  40.747  53.738
21923DG     BB242395  76.795  40.852  54.073
21923DG     BB342396  76.600  40.890  54.083
21923DG     SC142397  76.630  41.185  54.007
21923DG     SC242398  76.575  41.419  54.184
21923DG     SC342399  76.624  41.507  53.906
21923DG     SC442400  76.627  41.226  53.852
21924DA     BB142401  76.608  40.679  54.357
21924DA     BB242402  76.476  40.949  54.567
21924DA     BB342403  76.269  40.980  54.528
21924DA     SC142404  76.318  41.193  54.306
21924DA     SC242405  76.286  41.439  54.275
21924DA     SC342406  76.300  41.388  54.024
21924DA     SC442407  76.328  41.141  54.154
21925DG     BB142408  76.237  40.909  54.829
21925DG     BB242409  76.118  41.250  54.850
21925DG     BB342410  75.927  41.258  54.795
21925DG     SC142411  75.988  41.306  54.499
21925DG     SC242412  75.930  41.556  54.346
21925DG     SC342413  76.019  41.339  54.165
21925DG     SC442414  76.008  41.180  54.402
21926DA     BB142415  75.867  41.423  55.094
21926DA     BB242416  75.741  41.714  54.909
21926DA     BB342417  75.543  41.677  54.838
21926DA     SC142418  75.637  41.560  54.566
21926DA     SC242419  75.633  41.626  54.325
21926DA     SC342420  75.668  41.376  54.277
21926DA     SC442421  75.658  41.401  54.556
21927DT     BB142422  75.402  41.788  54.915
21927DT     BB242423  75.350  41.998  54.626
21927DT     BB342424  75.178  41.941  54.527
21927DT     SC142425  75.295  41.728  54.429
21927DT     SC242426  75.321  41.752  54.217
21927DT     SC342427  75.350  41.474  54.381
21928DT     BB142428  75.077  42.169  54.615
21928DT     BB242429  75.046  42.185  54.256
21928DT     BB342430  74.874  42.086  54.196
21928DT     SC142431  74.985  41.852  54.239
21928DT     SC242432  75.019  41.754  54.050
21928DT     SC342433  75.029  41.613  54.342
21929DT     BB142434  74.792  42.328  54.138
21929DT     BB242435  74.764  42.142  53.830
21929DT     BB342436  74.589  42.032  53.829
21929DT     SC142437  74.688  41.858  53.998
21929DT     SC242438  74.720  41.670  53.898
21929DT     SC342439  74.721  41.716  54.218
21930DA     BB142440  74.635  42.248  53.471
21930DA     BB242441  74.534  41.905  53.388
21930DA     BB342442  74.333  41.870  53.449
21930DA     SC142443  74.411  41.767  53.732
21930DA     SC242444  74.409  41.550  53.856
21930DA     SC342445  74.420  41.695  54.068
21930DA     SC442446  74.416  41.874  53.852
21931DA     BB142447  74.306  41.776  53.134
21931DA     BB242448  74.195  41.449  53.260
21931DA     BB342449  73.997  41.463  53.336
21931DA     SC142450  74.087  41.531  53.626
21931DA     SC242451  74.088  41.421  53.850
21931DA     SC342452  74.112  41.658  53.944
21931DA     SC442453  74.101  41.686  53.666
21932DA     BB142454  73.932  41.213  53.128
21932DA     BB242455  73.831  41.016  53.420
21932DA     BB342456  73.639  41.077  53.488
21932DA     SC142457  73.749  41.290  53.685
21932DA     SC242458  73.766  41.322  53.932
21932DA     SC342459  73.796  41.571  53.877
21932DA     SC442460  73.765  41.441  53.631
21933DA     BB142461  73.550  40.757  53.456
21933DA     BB242462  73.478  40.757  53.816
21933DA     BB342463  73.290  40.851  53.854
21933DA     SC142464  73.413  41.134  53.891
21933DA     SC242465  73.450  41.297  54.077
21933DA     SC342466  73.470  41.473  53.892
21933DA     SC442467  73.421  41.229  53.762
21934DA     BB142468  73.208  40.570  54.011
21934DA     BB242469  73.170  40.768  54.317
21934DA     BB342470  72.985  40.873  54.315
21934DA     SC142471  73.102  41.127  54.178
21934DA     SC242472  73.151  41.364  54.240
21934DA     SC342473  73.149  41.409  53.988
21934DA     SC442474  73.095  41.135  54.018
21935DA     BB142475  72.926  40.726  54.607
21935DA     BB242476  72.914  41.061  54.756
21935DA     BB342477  72.725  41.153  54.717
21935DA     SC142478  72.819  41.287  54.452
21935DA     SC242479  72.866  41.518  54.369
21935DA     SC342480  72.836  41.417  54.135
21935DA     SC442481  72.795  41.207  54.315
21936DT     BB142482  72.583  41.194  54.872
21936DT     BB242483  72.636  41.551  54.884
21936DT     BB342484  72.474  41.649  54.802
21936DT     SC142485  72.547  41.583  54.558
21936DT     SC242486  72.613  41.759  54.454
21936DT     SC342487  72.542  41.474  54.319
21937DC     BB142488  72.377  41.738  55.048
21937DC     BB242489  72.421  42.041  54.857
21937DC     BB342490  72.248  42.084  54.752
21937DC     SC142491  72.296  41.894  54.578
21937DC     SC242492  72.346  41.981  54.388
21937DC     SC342493  72.267  41.671  54.440
21938DC     BB142494  72.173  42.298  54.918
21938DC     BB242495  72.192  42.445  54.589
21938DC     BB342496  72.008  42.432  54.495
21938DC     SC142497  72.040  42.175  54.451
21938DC     SC242498  72.067  42.143  54.240
21938DC     SC342499  71.999  41.915  54.460
21939DA     BB142500  72.112  42.838  54.474
21939DA     BB242501  72.022  42.728  54.136
21939DA     BB342502  71.810  42.710  54.118
21939DA     SC142503  71.804  42.411  54.203
21939DA     SC242504  71.759  42.190  54.097
21939DA     SC342505  71.719  42.106  54.336
21939DA     SC442506  71.782  42.379  54.359
21940DG     BB142507  71.845  42.926  53.899
21940DG     BB242508  71.741  42.656  53.683
21940DG     BB342509  71.543  42.643  53.680
21940DG     SC142510  71.527  42.450  53.917
21940DG     SC242511  71.436  42.166  53.907
21940DG     SC342512  71.472  42.255  54.187
21940DG     SC442513  71.519  42.510  54.066
21941DA     BB142514  71.585  42.649  53.341
21941DA     BB242515  71.426  42.319  53.316
21941DA     BB342516  71.215  42.337  53.338
21941DA     SC142517  71.218  42.299  53.646
21941DA     SC242518  71.148  42.126  53.812
21941DA     SC342519  71.154  42.317  53.983
21941DA     SC442520  71.227  42.431  53.738
21942DG     BB142521  71.247  42.207  53.063
21942DG     BB242522  71.076  41.934  53.227
21942DG     BB342523  70.881  41.974  53.240
21942DG     SC142524  70.902  42.115  53.511
21942DG     SC242525  70.787  42.017  53.768
21942DG     SC342526  70.890  42.292  53.797
21942DG     SC442527  70.931  42.272  53.514
21943DA     BB142528  70.861  41.657  53.107
21943DA     BB242529  70.656  41.553  53.392
21943DA     BB342530  70.461  41.638  53.379
21943DA     SC142531  70.535  41.893  53.540
21943DA     SC242532  70.483  41.992  53.763
21943DA     SC342533  70.558  42.214  53.660
21943DA     SC442534  70.584  42.022  53.457
21944DT     BB142535  70.317  41.511  53.352
21944DT     BB242536  70.171  41.533  53.681
21944DT     BB342537  70.001  41.652  53.675
21944DT     SC142538  70.146  41.871  53.657
21944DT     SC242539  70.129  41.983  53.839
21944DT     SC342540  70.248  42.093  53.558
21945DA     BB142541  69.878  41.294  53.856
21945DA     BB242542  69.749  41.571  54.061
21945DA     BB342543  69.584  41.664  53.963
21945DA     SC142544  69.759  41.873  53.813
21945DA     SC242545  69.801  42.118  53.820
21945DA     SC342546  69.891  42.089  53.581
21945DA     SC442547  69.810  41.834  53.665
21946DT     BB142548  69.376  41.655  54.036
21946DT     BB242549  69.355  41.995  54.155
21946DT     BB342550  69.231  42.105  54.033
21946DT     SC142551  69.413  42.116  53.844
21946DT     SC242552  69.487  42.318  53.828
21946DT     SC342553  69.532  42.080  53.612
21947DT     BB142554  69.014  42.115  54.214
21947DT     BB242555  69.082  42.463  54.143
21947DT     BB342556  68.967  42.526  53.983
21947DT     SC142557  69.119  42.397  53.812
21947DT     SC242558  69.229  42.538  53.694
21947DT     SC342559  69.193  42.223  53.629
21948DA     BB142560  68.887  42.802  54.287
21948DA     BB242561  68.970  42.993  53.985
21948DA     BB342562  68.805  42.992  53.849
21948DA     SC142563  68.899  42.736  53.699
21948DA     SC242564  68.991  42.677  53.474
21948DA     SC342565  68.913  42.439  53.528
21948DA     SC442566  68.843  42.595  53.750
21949DT     BB142567  68.709  43.169  53.809
21949DT     BB242568  68.846  43.219  53.480
21949DT     BB342569  68.702  43.181  53.336
21949DT     SC142570  68.722  42.922  53.373
21949DT     SC242571  68.812  42.832  53.200
21949DT     SC342572  68.656  42.674  53.436
21950DT     BB142573  68.697  43.444  53.289
21950DT     BB242574  68.777  43.295  52.971
21950DT     BB342575  68.603  43.240  52.873
21950DT     SC142576  68.569  43.034  53.031
21950DT     SC242577  68.602  42.853  52.920
21950DT     SC342578  68.462  42.875  53.212
21951DT     BB142579  68.641  43.445  52.698
21951DT     BB242580  68.617  43.152  52.489
21951DT     BB342581  68.418  43.114  52.443
21951DT     SC142582  68.372  43.022  52.685
21951DT     SC242583  68.339  42.810  52.675
21951DT     SC342584  68.271  43.001  52.927
21952DT     BB142585  68.462  43.197  52.188
21952DT     BB242586  68.329  42.863  52.152
21952DT     BB342587  68.122  42.870  52.148
21952DT     SC142588  68.110  42.914  52.406
21952DT     SC242589  68.030  42.741  52.505
21952DT     SC342590  68.062  43.035  52.636
21953DG     BB142591  68.233  42.694  51.798
21953DG     BB242592  67.986  42.494  51.970
21953DG     BB342593  67.805  42.569  51.940
21953DG     SC142594  67.814  42.755  52.182
21953DG     SC242595  67.644  42.733  52.427
21953DG     SC342596  67.797  42.986  52.428
21953DG     SC442597  67.874  42.902  52.165
21954DA     BB142598  67.707  42.252  51.839
21954DA     BB242599  67.452  42.243  52.103
21954DA     BB342600  67.283  42.360  52.047
21954DA     SC142601  67.390  42.622  52.176
21954DA     SC242602  67.335  42.768  52.370
21954DA     SC342603  67.468  42.949  52.246
21954DA     SC442604  67.476  42.721  52.082
21955DT     BB142605  67.107  42.265  52.013
21955DT     BB242606  66.939  42.372  52.314
21955DT     BB342607  66.800  42.519  52.269
21955DT     SC142608  66.988  42.698  52.236
21955DT     SC242609  66.979  42.842  52.395
21955DT     SC342610  67.143  42.877  52.118
21956DT     BB142611  66.600  42.341  52.315
21956DT     BB242612  66.525  42.616  52.535
21956DT     BB342613  66.413  42.758  52.435
21956DT     SC142614  66.622  42.841  52.301
21956DT     SC242615  66.676  43.038  52.368
21956DT     SC342616  66.782  42.894  52.098
21957DT     BB142617  66.190  42.687  52.576
21957DT     BB242618  66.218  43.042  52.633
21957DT     BB342619  66.120  43.145  52.483
21957DT     SC142620  66.313  43.094  52.311
21957DT     SC242621  66.418  43.276  52.267
21957DT     SC342622  66.437  42.999  52.099
21958DA     BB142623  65.958  43.300  52.838
21958DA     BB242624  66.041  43.586  52.624
21958DA     BB342625  65.898  43.604  52.467
21958DA     SC142626  66.057  43.425  52.268
21958DA     SC242627  66.186  43.453  52.057
21958DA     SC342628  66.149  43.201  52.025
21958DA     SC442629  66.022  43.268  52.266
21959DG     BB142630  65.805  43.894  52.570
21959DG     BB242631  65.930  44.009  52.250
21959DG     BB342632  65.787  43.995  52.113
21959DG     SC142633  65.859  43.710  52.030
21959DG     SC242634  65.970  43.626  51.766
21959DG     SC342635  65.897  43.390  51.929
21959DG     SC442636  65.792  43.587  52.108
21960DT     BB142637  65.657  44.180  51.978
21960DT     BB242638  65.813  44.145  51.655
21960DT     BB342639  65.677  44.068  51.519
21960DT     SC142640  65.696  43.828  51.623
21960DT     SC242641  65.797  43.698  51.485
21960DT     SC342642  65.629  43.605  51.746
21961DG     BB142643  65.763  44.430  51.343
21961DG     BB242644  65.814  44.159  51.109
21961DG     BB342645  65.641  44.107  51.027
21961DG     SC142646  65.573  43.899  51.241
21961DG     SC242647  65.556  43.604  51.200
21961DG     SC342648  65.457  43.679  51.469
21961DG     SC442649  65.493  43.946  51.372
21962DC     BB142650  65.594  44.125  50.800
21962DC     BB242651  65.626  43.780  50.701
21962DC     BB342652  65.439  43.699  50.665
21962DC     SC142653  65.386  43.685  50.921
21962DC     SC242654  65.381  43.479  50.982
21962DC     SC342655  65.269  43.730  51.153
21963DA     BB142656  65.685  43.621  50.334
21963DA     BB242657  65.531  43.305  50.439
21963DA     BB342658  65.324  43.303  50.387
21963DA     SC142659  65.229  43.425  50.657
21963DA     SC242660  65.104  43.351  50.860
21963DA     SC342661  65.064  43.600  50.902
21963DA     SC442662  65.214  43.585  50.665
21964DG     BB142663  65.427  43.057  50.233
21964DG     BB242664  65.210  42.885  50.465
21964DG     BB342665  65.020  42.901  50.406
21964DG     SC142666  64.968  43.159  50.560
21964DG     SC242667  64.783  43.190  50.793
21964DG     SC342668  64.881  43.453  50.701
21964DG     SC442669  64.999  43.300  50.490
21965DA     BB142670  65.032  42.559  50.452
21965DA     BB242671  64.761  42.589  50.697
21965DA     BB342672  64.577  42.634  50.598
21965DA     SC142673  64.612  42.942  50.618
21965DA     SC242674  64.508  43.132  50.741
21965DA     SC342675  64.611  43.280  50.558
21965DA     SC442676  64.683  43.017  50.494
21966DG     BB142677  64.504  42.369  50.739
21966DG     BB242678  64.273  42.584  50.916
21966DG     BB342679  64.115  42.622  50.802
21966DG     SC142680  64.237  42.871  50.673
21966DG     SC242681  64.143  43.152  50.709
21966DG     SC342682  64.348  43.137  50.497
21966DG     SC442683  64.326  42.855  50.540
21967DA     BB142684  63.932  42.520  51.077
21967DA     BB242685  63.769  42.848  51.088
21967DA     BB342686  63.626  42.866  50.931
21967DA     SC142687  63.828  42.986  50.727
21967DA     SC242688  63.869  43.205  50.615
21967DA     SC342689  64.003  43.069  50.444
21967DA     SC442690  63.905  42.884  50.630
21968DT     BB142691  63.442  42.881  50.988
21968DT     BB242692  63.404  43.232  50.915
21968DT     BB342693  63.302  43.257  50.737
21968DT     SC142694  63.512  43.187  50.597
21968DT     SC242695  63.588  43.358  50.491
21968DT     SC342696  63.666  43.049  50.433
21969DT     BB142697  63.094  43.345  50.881
21969DT     BB242698  63.171  43.615  50.655
21969DT     BB342699  63.079  43.583  50.472
21969DT     SC142700  63.251  43.396  50.408
21969DT     SC242701  63.377  43.467  50.248
21969DT     SC342702  63.349  43.159  50.346
21970DA     BB142703  63.008  43.972  50.616
21970DA     BB242704  63.122  43.994  50.268
21970DA     BB342705  62.973  43.918  50.136
21970DA     SC142706  63.080  43.627  50.141
21970DA     SC242707  63.194  43.469  49.984
21970DA     SC342708  63.111  43.285  50.141
21970DA     SC442709  63.018  43.526  50.250
21971DG     BB142710  62.998  44.206  50.028
21971DG     BB242711  63.113  44.034  49.732
21971DG     BB342712  62.958  43.964  49.629
21971DG     SC142713  62.951  43.695  49.774
21971DG     SC242714  63.012  43.429  49.652
21971DG     SC342715  62.903  43.397  49.925
21971DG     SC442716  62.865  43.681  49.908
21972DT     BB142717  62.930  44.038  49.434
21972DT     BB242718  63.028  43.755  49.232
21972DT     BB342719  62.860  43.655  49.165
21972DT     SC142720  62.819  43.550  49.402
21972DT     SC242721  62.858  43.339  49.395
21972DT     SC342722  62.702  43.495  49.632
21973DT     BB142723  62.911  43.750  48.919
21973DT     BB242724  62.899  43.392  48.877
21973DT     BB342725  62.703  43.331  48.850
21973DT     SC142726  62.649  43.365  49.105
21973DT     SC242727  62.618  43.174  49.198
21973DT     SC342728  62.538  43.462  49.324
21974DC     BB142729  62.752  43.281  48.587
21974DC     BB242730  62.625  42.969  48.715
21974DC     BB342731  62.418  42.968  48.705
21974DC     SC142732  62.400  43.130  48.911
21974DC     SC242733  62.320  43.023  49.079
21974DC     SC342734  62.346  43.345  49.053
21975DA     BB142735  62.540  42.617  48.510
21975DA     BB242736  62.276  42.525  48.748
21975DA     BB342737  62.086  42.588  48.676
21975DA     SC142738  62.097  42.866  48.814
21975DA     SC242739  61.983  42.984  49.002
21975DA     SC342740  62.067  43.199  48.891
21975DA     SC442741  62.157  42.989  48.729
21976DG     BB142742  62.004  42.284  48.680
21976DG     BB242743  61.769  42.394  48.931
21976DG     BB342744  61.604  42.465  48.844
21976DG     SC142745  61.707  42.752  48.825
21976DG     SC242746  61.598  42.988  48.973
21976DG     SC342747  61.796  43.073  48.770
21976DG     SC442748  61.791  42.796  48.696
21977DT     BB142749  61.395  42.370  48.869
21977DT     BB242750  61.238  42.606  49.092
21977DT     BB342751  61.100  42.720  48.989
21977DT     SC142752  61.291  42.860  48.874
21977DT     SC242753  61.289  43.061  48.952
21977DT     SC342754  61.446  42.962  48.687
21978DA     BB142755  60.897  42.563  49.319
21978DA     BB242756  60.831  42.923  49.309
21978DA     BB342757  60.693  42.969  49.152
21978DA     SC142758  60.914  43.016  48.938
21978DA     SC242759  61.010  43.207  48.811
21978DA     SC342760  61.096  43.029  48.647
21978DA     SC442761  60.958  42.890  48.848
21979DT     BB142762  60.509  43.039  49.202
21979DT     BB242763  60.567  43.382  49.106
21979DT     BB342764  60.468  43.423  48.928
21979DT     SC142765  60.646  43.289  48.789
21979DT     SC242766  60.762  43.426  48.671
21979DT     SC342767  60.751  43.104  48.633
21980DA     BB142768  60.364  43.719  49.207
21980DA     BB242769  60.464  43.886  48.896
21980DA     BB342770  60.314  43.861  48.747
21980DA     SC142771  60.438  43.599  48.632
21980DA     SC242772  60.554  43.526  48.424
21980DA     SC342773  60.487  43.289  48.494
21980DA     SC442774  60.385  43.460  48.692
21981DA     BB142775  60.341  44.187  48.740
21981DA     BB242776  60.440  44.153  48.389
21981DA     BB342777  60.270  44.108  48.268
21981DA     SC142778  60.302  43.799  48.295
21981DA     SC242779  60.365  43.607  48.149
21981DA     SC342780  60.246  43.462  48.324
21981DA     SC442781  60.222  43.727  48.414
21982DA     BB142782  60.377  44.370  48.100
21982DA     BB242783  60.414  44.148  47.811
21982DA     BB342784  60.223  44.104  47.726
21982DA     SC142785  60.177  43.850  47.900
21982DA     SC242786  60.167  43.603  47.867
21982DA     SC342787  60.039  43.599  48.090
21982DA     SC442788  60.098  43.869  48.039
21983DT     BB142789  60.173  44.174  47.536
21983DT     BB242790  60.200  43.857  47.365
21983DT     BB342791  60.011  43.785  47.320
21983DT     SC142792  59.968  43.717  47.570
21983DT     SC242793  59.966  43.503  47.587
21983DT     SC342794  59.861  43.712  47.811
21984DC     BB142795  60.032  43.841  47.047
21984DC     BB242796  59.960  43.488  47.058
21984DC     BB342797  59.755  43.457  47.054
21984DC     SC142798  59.731  43.533  47.304
21984DC     SC242799  59.680  43.363  47.426
21984DC     SC342800  59.658  43.674  47.515
21985DA     BB142801  59.905  43.223  46.741
21985DA     BB242802  59.687  43.009  46.944
21985DA     BB342803  59.482  43.055  46.905
21985DA     SC142804  59.461  43.269  47.130
21985DA     SC242805  59.350  43.294  47.351
21985DA     SC342806  59.384  43.546  47.317
21985DA     SC442807  59.491  43.422  47.090
21986DA     BB142808  59.474  42.733  46.848
21986DA     BB242809  59.240  42.710  47.129
21986DA     BB342810  59.046  42.776  47.070
21986DA     SC142811  59.095  43.072  47.152
21986DA     SC242812  59.017  43.231  47.328
21986DA     SC342813  59.099  43.415  47.169
21986DA     SC442814  59.152  43.172  47.039
21987DT     BB142815  58.914  42.639  47.075
21987DT     BB242816  58.749  42.751  47.375
21987DT     BB342817  58.574  42.851  47.327
21987DT     SC142818  58.707  43.062  47.247
21987DT     SC242819  58.674  43.224  47.385
21987DT     SC342820  58.801  43.250  47.088
21988DT     BB142821  58.466  42.640  47.437
21988DT     BB242822  58.345  42.922  47.628
21988DT     BB342823  58.187  43.011  47.529
21988DT     SC142824  58.347  43.120  47.352
21988DT     SC242825  58.353  43.333  47.382
21988DT     SC342826  58.461  43.175  47.121
21989DG     BB142827  58.108  42.909  47.916
21989DG     BB242828  58.024  43.253  47.845
21989DG     BB342829  57.861  43.261  47.732
21989DG     SC142830  58.015  43.252  47.467
21989DG     SC242831  58.033  43.473  47.267
21989DG     SC342832  58.150  43.223  47.160
21989DG     SC442833  58.050  43.110  47.403
21990DT     BB142834  57.720  43.361  47.820
21990DT     BB242835  57.698  43.664  47.627
21990DT     BB342836  57.554  43.644  47.479
21990DT     SC142837  57.712  43.490  47.336
21990DT     SC242838  57.773  43.596  47.159
21990DT     SC342839  57.804  43.277  47.210
21991DC     BB142840  57.397  43.810  47.619
21991DC     BB242841  57.412  43.957  47.290
21991DC     BB342842  57.270  43.870  47.167
21991DC     SC142843  57.413  43.651  47.144
21991DC     SC242844  57.489  43.636  46.943
21991DC     SC342845  57.484  43.398  47.163
21992DA     BB142846  57.179  44.280  47.131
21992DA     BB242847  57.183  44.141  46.792
21992DA     BB342848  57.006  44.027  46.756
21992DA     SC142849  57.128  43.759  46.855
21992DA     SC242850  57.200  43.541  46.756
21992DA     SC342851  57.179  43.449  46.995
21992DA     SC442852  57.108  43.720  47.010
21993DT     BB142853  56.830  44.080  46.612
21993DT     BB242854  56.910  43.836  46.358
21993DT     BB342855  56.766  43.688  46.354
21993DT     SC142856  56.859  43.581  46.575
21993DT     SC242857  56.950  43.391  46.530
21993DT     SC342858  56.871  43.498  46.825
21994DT     BB142859  56.622  43.766  46.114
21994DT     BB242860  56.720  43.425  46.046
21994DT     BB342861  56.567  43.296  46.099
21994DT     SC142862  56.620  43.327  46.355
21994DT     SC242863  56.702  43.144  46.433
21994DT     SC342864  56.589  43.392  46.608
21995DA     BB142865  56.647  43.197  45.701
21995DA     BB242866  56.657  42.886  45.895
21995DA     BB342867  56.460  42.820  45.940
21995DA     SC142868  56.442  42.974  46.209
21995DA     SC242869  56.437  42.920  46.453
21995DA     SC342870  56.336  43.154  46.481
21995DA     SC442871  56.379  43.122  46.206
21996DA     BB142872  56.586  42.555  45.802
21996DA     BB242873  56.535  42.389  46.126
21996DA     BB342874  56.328  42.343  46.153
21996DA     SC142875  56.261  42.612  46.294
21996DA     SC242876  56.199  42.691  46.522
21996DA     SC342877  56.108  42.899  46.403
21996DA     SC442878  56.209  42.733  46.201
21997DA     BB142879  56.500  42.074  46.209
21997DA     BB242880  56.357  42.087  46.546
21997DA     BB342881  56.149  42.043  46.541
21997DA     SC142882  56.062  42.339  46.506
21997DA     SC242883  55.947  42.515  46.640
21997DA     SC342884  55.902  42.629  46.415
21997DA     SC442885  56.043  42.394  46.356
21998DC     BB142886  56.135  41.901  46.633
21998DC     BB242887  55.973  42.048  46.920
21998DC     BB342888  55.767  42.032  46.901
21998DC     SC142889  55.762  42.224  46.722
21998DC     SC242890  55.667  42.398  46.806
21998DC     SC342891  55.727  42.348  46.492
21999DT     BB142892  55.810  41.871  47.098
21999DT     BB242893  55.567  42.110  47.217
21999DT     BB342894  55.379  42.064  47.141
21999DT     SC142895  55.445  42.154  46.903
21999DT     SC242896  55.335  42.335  46.863
21999DT     SC342897  55.496  42.158  46.645
22000DA     BB142898  55.346  42.119  47.558
22000DA     BB242899  55.067  42.294  47.397
22000DA     BB342900  54.928  42.154  47.315
22000DA     SC142901  55.066  42.143  47.037
22000DA     SC242902  55.017  42.216  46.804
22000DA     SC342903  55.193  42.043  46.734
22000DA     SC442904  55.178  42.029  47.013
22001DT     BB142905  54.721  42.114  47.393
22001DT     BB242906  54.535  42.262  47.122
22001DT     BB342907  54.445  42.114  47.009
22001DT     SC142908  54.673  42.047  46.899
22001DT     SC242909  54.671  42.103  46.691
22001DT     SC342910  54.883  41.902  46.832
22002DC     BB142911  54.167  42.134  47.104
22002DC     BB242912  54.129  42.158  46.746
22002DC     BB342913  54.090  41.971  46.666
22002DC     SC142914  54.340  41.897  46.697
22002DC     SC242915  54.433  41.878  46.504
22002DC     SC342916  54.550  41.763  46.784
22003DG     BB142917  53.732  42.150  46.552
22003DG     BB242918  53.888  41.993  46.266
22003DG     BB342919  53.837  41.801  46.257
22003DG     SC142920  54.072  41.705  46.429
22003DG     SC242921  54.299  41.536  46.335
22003DG     SC342922  54.306  41.568  46.629
22003DG     SC442923  54.055  41.700  46.588
22004DA     BB142924  53.709  41.812  45.924
22004DA     BB242925  53.964  41.574  45.809
22004DA     BB342926  53.899  41.374  45.845
22004DA     SC142927  54.028  41.357  46.128
22004DA     SC242928  54.218  41.238  46.237
22004DA     SC342929  54.096  41.288  46.457
22004DA     SC442930  53.936  41.397  46.254
22005DC     BB142931  53.850  41.228  45.683
22005DC     BB242932  54.154  41.036  45.712
22005DC     BB342933  54.112  40.849  45.789
22005DC     SC142934  54.077  40.947  46.030
22005DC     SC242935  54.238  40.882  46.157
22005DC     SC342936  53.959  41.014  46.256
22006DA     BB142937  54.331  40.788  45.438
22006DA     BB242938  54.490  40.591  45.704
22006DA     BB342939  54.374  40.417  45.747
22006DA     SC142940  54.204  40.556  45.968
22006DA     SC242941  54.179  40.545  46.215
22006DA     SC342942  53.950  40.655  46.177
22006DA     SC442943  54.065  40.623  45.923
22007DT     BB142944  54.454  40.236  45.705
22007DT     BB242945  54.529  40.142  46.045
22007DT     BB342946  54.394  39.999  46.110
22007DT     SC142947  54.204  40.178  46.135
22007DT     SC242948  54.160  40.207  46.343
22007DT     SC342949  53.976  40.305  46.095
22008DT     BB142950  54.593  39.815  46.099
22008DT     BB242951  54.476  39.804  46.440
22008DT     BB342952  54.315  39.673  46.455
22008DT     SC142953  54.154  39.846  46.340
22008DT     SC242954  54.013  39.919  46.485
22008DT     SC342955  53.990  39.952  46.164
22009DC     BB142956  54.472  39.493  46.587
22009DC     BB242957  54.197  39.552  46.812
22009DC     BB342958  54.041  39.423  46.769
22009DC     SC142959  53.977  39.560  46.555
22009DC     SC242960  53.789  39.659  46.587
22009DC     SC342961  53.935  39.619  46.301
22010DT     BB142962  54.094  39.285  46.996
22010DT     BB242963  53.749  39.384  47.029
22010DT     BB342964  53.626  39.244  46.939
22010DT     SC142965  53.693  39.328  46.700
22010DT     SC242966  53.524  39.426  46.609
22010DT     SC342967  53.792  39.329  46.455
22011DA     BB142968  53.483  39.308  47.327
22011DA     BB242969  53.198  39.331  47.097
22011DA     BB342970  53.145  39.137  47.026
22011DA     SC142971  53.332  39.151  46.777
22011DA     SC242972  53.308  39.169  46.529
22011DA     SC342973  53.548  39.078  46.520
22011DA     SC442974  53.481  39.092  46.792
22012DA     BB142975  52.854  39.238  47.138
22012DA     BB242976  52.730  39.197  46.796
22012DA     BB342977  52.707  38.990  46.749
22012DA     SC142978  52.995  38.958  46.636
22012DA     SC242979  53.103  38.921  46.414
22012DA     SC342980  53.306  38.841  46.549
22012DA     SC442981  53.110  38.911  46.738
22013DG     BB142982  52.406  39.062  46.706
22013DG     BB242983  52.476  38.962  46.365
22013DG     BB342984  52.465  38.764  46.349
22013DG     SC142985  52.760  38.717  46.416
22013DG     SC242986  52.968  38.612  46.229
22013DG     SC342987  53.073  38.628  46.504
22013DG     SC442988  52.803  38.699  46.569
22014DC     BB142989  52.310  38.653  46.219
22014DC     BB242990  52.514  38.543  45.943
22014DC     BB342991  52.550  38.339  45.958
22014DC     SC142992  52.722  38.376  46.152
22014DC     SC242993  52.920  38.331  46.081
22014DC     SC342994  52.833  38.365  46.391
22015DA     BB142995  52.391  38.382  45.571
22015DA     BB242996  52.697  38.182  45.542
22015DA     BB342997  52.661  37.982  45.608
22015DA     SC142998  52.742  38.040  45.903
22015DA     SC242999  52.928  37.981  46.059
22015DA     SC343000  52.764  38.045  46.246
22015DA     SC443001  52.625  38.083  46.005
22016DT     BB143002  52.664  37.806  45.475
22016DT     BB243003  52.984  37.680  45.583
22016DT     BB343004  52.958  37.506  45.692
22016DT     SC143005  52.871  37.640  45.900
22016DT     SC243006  53.017  37.630  46.058
22016DT     SC343007  52.709  37.727  46.090
22017DT     BB143008  53.056  37.344  45.489
22017DT     BB243009  53.272  37.276  45.769
22017DT     BB343010  53.195  37.119  45.881
22017DT     SC143011  53.008  37.274  45.983
22017DT     SC243012  53.048  37.306  46.192
22017DT     SC343013  52.769  37.370  46.040
22018DA     BB143014  53.595  37.039  45.792
22018DA     BB243015  53.548  36.997  46.153
22018DA     BB343016  53.439  36.818  46.193
22018DA     SC143017  53.160  36.956  46.185
22018DA     SC243018  52.979  37.015  46.346
22018DA     SC343019  52.828  37.028  46.139
22018DA     SC443020  53.082  36.957  46.045
22019DT     BB143021  53.543  36.703  46.287
22019DT     BB243022  53.380  36.747  46.606
22019DT     BB343023  53.247  36.592  46.639
22019DT     SC143024  53.076  36.691  46.467
22019DT     SC243025  52.903  36.764  46.573
22019DT     SC343026  52.923  36.713  46.254
22020DG     BB143027  53.518  36.654  46.938
22020DG     BB243028  53.177  36.646  47.060
22020DG     BB343029  53.107  36.460  47.055
22020DG     SC143030  52.997  36.483  46.770
22020DG     SC243031  52.709  36.478  46.692
22020DG     SC343032  52.883  36.467  46.453
22020DG     SC443033  53.093  36.448  46.647
22021DA     BB143034  53.023  36.562  47.374
22021DA     BB243035  52.674  36.477  47.299
22021DA     BB343036  52.652  36.266  47.277
22021DA     SC143037  52.705  36.268  46.971
22021DA     SC243038  52.575  36.230  46.761
22021DA     SC343039  52.804  36.190  46.651
22021DA     SC443040  52.856  36.246  46.921
22022DT     BB143041  52.545  36.198  47.408
22022DT     BB243042  52.259  36.120  47.203
22022DT     BB343043  52.263  35.921  47.148
22022DT     SC143044  52.454  35.965  46.974
22022DT     SC243045  52.376  35.942  46.775
22022DT     SC343046  52.689  35.954  46.855
22023DA     BB143047  51.883  35.992  47.313
22023DA     BB243048  51.837  35.808  46.999
22023DA     BB343049  51.899  35.605  47.022
22023DA     SC143050  52.193  35.659  46.934
22023DA     SC243051  52.340  35.606  46.740
22023DA     SC343052  52.534  35.655  46.900
22023DA     SC443053  52.300  35.693  47.049
22024DT     BB143054  51.761  35.449  47.015
22024DT     BB243055  51.855  35.322  46.691
22024DT     BB343056  51.961  35.146  46.712
22024DT     SC143057  52.175  35.275  46.792
22024DT     SC243058  52.327  35.262  46.640
22024DT     SC343059  52.372  35.357  46.947
22025DC     BB143060  51.751  34.989  46.624
22025DC     BB243061  52.023  34.904  46.403
22025DC     BB343062  52.134  34.749  46.484
22025DC     SC143063  52.245  34.909  46.659
22025DC     SC243064  52.453  34.935  46.611
22025DC     SC343065  52.311  35.015  46.891
22026DA     BB143066  52.033  34.625  46.096
22026DA     BB243067  52.394  34.575  46.138
22026DA     BB343068  52.431  34.405  46.263
22026DA     SC143069  52.435  34.570  46.527
22026DA     SC243070  52.602  34.641  46.698
22026DA     SC343071  52.399  34.676  46.851
22026DA     SC443072  52.296  34.584  46.607
22027DG     BB143073  52.579  34.296  46.012
22027DG     BB243074  52.868  34.323  46.228
22027DG     BB343075  52.879  34.164  46.347
22027DG     SC143076  52.710  34.287  46.570
22027DG     SC243077  52.806  34.360  46.843
22027DG     SC343078  52.511  34.383  46.825
22027DG     SC443079  52.551  34.269  46.565
22028DT     BB143080  53.051  34.030  46.334
22028DT     BB243081  53.232  34.118  46.634
22028DT     BB343082  53.202  33.975  46.780
22028DT     SC143083  52.958  34.061  46.826
22028DT     SC243084  52.951  34.154  47.020
22028DT     SC343085  52.695  34.065  46.842
22029DA     BB143086  53.616  34.034  46.742
22029DA     BB243087  53.531  34.050  47.098
22029DA     BB343088  53.484  33.855  47.173
22029DA     SC143089  53.180  33.878  47.111
22029DA     SC243090  52.967  33.898  47.239
22029DA     SC343091  52.854  33.815  47.025
22029DA     SC443092  53.129  33.824  46.969
22030DT     BB143093  53.607  33.779  47.307
22030DT     BB243094  53.391  33.821  47.592
22030DT     BB343095  53.306  33.639  47.643
22030DT     SC143096  53.141  33.650  47.439
22030DT     SC243097  52.941  33.680  47.510
22030DT     SC343098  53.024  33.587  47.211
22031DG     BB143099  53.507  33.761  47.976
22031DG     BB243100  53.164  33.678  48.055
22031DG     BB343101  53.144  33.481  48.071
22031DG     SC143102  53.079  33.438  47.775
22031DG     SC243103  52.817  33.347  47.665
22031DG     SC343104  53.024  33.353  47.453
22031DG     SC443105  53.198  33.415  47.672
22032DA     BB143106  52.995  33.550  48.376
22032DA     BB243107  52.688  33.383  48.264
22032DA     BB343108  52.714  33.172  48.266
22032DA     SC143109  52.815  33.156  47.972
22032DA     SC243110  52.733  33.071  47.752
22032DA     SC343111  52.980  33.074  47.682
22032DA     SC443112  52.974  33.164  47.947
22033DA     BB143113  52.441  33.194  48.446
22033DA     BB243114  52.278  32.986  48.192
22033DA     BB343115  52.342  32.783  48.209
22033DA     SC143116  52.581  32.816  48.012
22033DA     SC243117  52.643  32.740  47.783
22033DA     SC343118  52.884  32.794  47.853
22033DA     SC443119  52.724  32.855  48.075
22034DT     BB143120  52.208  32.644  48.266
22034DT     BB243121  52.170  32.481  47.947
22034DT     BB343122  52.273  32.301  47.946
22034DT     SC143123  52.504  32.423  47.927
22034DT     SC243124  52.588  32.387  47.732
22034DT     SC343125  52.746  32.507  47.988
22035DG     BB143126  51.886  32.185  47.870
22035DG     BB243127  52.113  32.042  47.627
22035DG     BB343128  52.202  31.882  47.703
22035DG     SC143129  52.438  32.038  47.821
22035DG     SC243130  52.722  32.018  47.732
22035DG     SC343131  52.700  32.179  47.979
22035DG     SC443132  52.425  32.098  47.968
22036DT     BB143133  52.183  31.637  47.635
22036DT     BB243134  52.499  31.591  47.468
22036DT     BB343135  52.622  31.470  47.581
22036DT     SC143136  52.670  31.663  47.752
22036DT     SC243137  52.874  31.727  47.733
22036DT     SC343138  52.675  31.799  47.978
22037DT     BB143139  52.605  31.213  47.433
22037DT     BB243140  52.959  31.282  47.439
22037DT     BB343141  53.048  31.183  47.598
22037DT     SC143142  52.948  31.354  47.770
22037DT     SC243143  53.107  31.474  47.852
22037DT     SC343144  52.806  31.451  47.971
22038DG     BB143145  53.252  30.998  47.290
22038DG     BB243146  53.483  31.150  47.523
22038DG     BB343147  53.521  31.024  47.672
22038DG     SC143148  53.291  31.123  47.848
22038DG     SC243149  53.317  31.267  48.108
22038DG     SC343150  53.036  31.192  48.057
22038DG     SC443151  53.146  31.055  47.831
22039DT     BB143152  53.735  30.939  47.718
22039DT     BB243153  53.822  31.161  47.990
22039DT     BB343154  53.826  31.055  48.168
22039DT     SC143155  53.564  31.045  48.177
22039DT     SC243156  53.493  31.170  48.338
22039DT     SC343157  53.319  30.946  48.180
22040DT     BB143158  54.072  31.121  48.134
22040DT     BB243159  53.957  31.291  48.432
22040DT     BB343160  53.956  31.160  48.592
22040DT     SC143161  53.741  31.040  48.502
22040DT     SC243162  53.575  31.084  48.632
22040DT     SC343163  53.583  30.851  48.407
22041DA     BB143164  54.100  31.557  48.627
22041DA     BB243165  53.871  31.484  48.904
22041DA     BB343166  53.953  31.332  49.030
22041DA     SC143167  53.820  31.098  48.874
22041DA     SC243168  53.640  30.930  48.912
22041DA     SC343169  53.752  30.797  48.723
22041DA     SC443170  53.905  31.029  48.756
22042DA     BB143171  53.819  31.602  49.174
22042DA     BB243172  53.623  31.355  49.362
22042DA     BB343173  53.752  31.226  49.472
22042DA     SC143174  53.777  31.016  49.244
22042DA     SC243175  53.702  30.782  49.200
22042DA     SC343176  53.889  30.777  49.025
22042DA     SC443177  53.900  31.032  49.141
22043DT     BB143178  53.718  31.255  49.641
22043DT     BB243179  53.570  30.936  49.720
22043DT     BB343180  53.714  30.806  49.793
22043DT     SC143181  53.815  30.770  49.554
22043DT     SC243182  53.773  30.569  49.489
22043DT     SC343183  53.987  30.773  49.354
22044DG     BB143184  53.433  30.830  50.090
22044DG     BB243185  53.522  30.486  50.025
22044DG     BB343186  53.695  30.443  50.112
22044DG     SC143187  53.865  30.524  49.871
22044DG     SC243188  54.029  30.341  49.702
22044DG     SC343189  54.083  30.624  49.633
22044DG     SC443190  53.913  30.677  49.857
22045DA     BB143191  53.575  30.160  50.297
22045DA     BB243192  53.820  29.936  50.139
22045DA     BB343193  54.009  29.952  50.237
22045DA     SC143194  54.113  30.179  50.051
22045DA     SC243195  54.285  30.206  49.873
22045DA     SC343196  54.268  30.457  49.924
22045DA     SC443197  54.089  30.330  50.099
22046DT     BB143198  54.126  29.790  50.380
22046DT     BB243199  54.378  29.697  50.139
22046DT     BB343200  54.564  29.759  50.203
22046DT     SC143201  54.510  30.009  50.144
22046DT     SC243202  54.630  30.069  49.975
22046DT     SC343203  54.466  30.267  50.174
22047DT     BB143204  54.678  29.502  50.294
22047DT     BB243205  54.921  29.619  50.055
22047DT     BB343206  55.074  29.718  50.152
22047DT     SC143207  54.922  29.928  50.194
22047DT     SC243208  54.992  30.092  50.074
22047DT     SC343209  54.785  30.113  50.321
22048DC     BB143210  55.270  29.512  50.124
22048DC     BB243211  55.425  29.799  49.969
22048DC     BB343212  55.541  29.900  50.108
22048DC     SC143213  55.329  30.000  50.226
22048DC     SC243214  55.320  30.212  50.189
22048DC     SC343215  55.148  30.050  50.411
22049DT     BB143216  55.775  29.813  49.989
22049DT     BB243217  55.801  30.173  49.982
22049DT     BB343218  55.893  30.240  50.155
22049DT     SC143219  55.676  30.197  50.296
22049DT     SC243220  55.591  30.385  50.356
22049DT     SC343221  55.516  30.094  50.479
22050DA     BB143222  56.081  30.408  49.822
22050DA     BB243223  56.010  30.678  50.059
22050DA     BB343224  56.142  30.666  50.227
22050DA     SC143225  55.952  30.486  50.394
22050DA     SC243226  55.811  30.506  50.599
22050DA     SC343227  55.821  30.249  50.606
22050DA     SC443228  55.971  30.326  50.382
22051DA     BB143229  56.167  30.975  50.122
22051DA     BB243230  56.053  31.071  50.457
22051DA     BB343231  56.205  31.030  50.601
22051DA     SC143232  56.104  30.742  50.663
22051DA     SC243233  55.994  30.622  50.851
22051DA     SC343234  56.081  30.408  50.738
22051DA     SC443235  56.168  30.622  50.578
22052DT     BB143236  56.267  31.185  50.679
22052DT     BB243237  56.115  31.140  51.003
22052DT     BB343238  56.253  31.061  51.135
22052DT     SC143239  56.235  30.823  51.025
22052DT     SC243240  56.137  30.688  51.161
22052DT     SC343241  56.304  30.604  50.896
22053DG     BB143242  56.108  31.410  51.289
22053DG     BB243243  56.086  31.139  51.528
22053DG     BB343244  56.266  31.101  51.604
22053DG     SC143245  56.341  30.896  51.390
22053DG     SC243246  56.381  30.603  51.434
22053DG     SC343247  56.464  30.681  51.161
22053DG     SC443248  56.412  30.946  51.255
22054DA     BB143249  56.110  31.129  51.913
22054DA     BB243250  56.215  30.788  51.996
22054DA     BB343251  56.424  30.783  52.041
22054DA     SC143252  56.510  30.725  51.747
22054DA     SC243253  56.608  30.536  51.617
22054DA     SC343254  56.674  30.715  51.446
22054DA     SC443255  56.544  30.851  51.653
22055DA     BB143256  56.313  30.639  52.315
22055DA     BB243257  56.514  30.347  52.220
22055DA     BB343258  56.721  30.386  52.255
22055DA     SC143259  56.773  30.499  51.970
22055DA     SC243260  56.895  30.431  51.763
22055DA     SC343261  56.886  30.679  51.700
22055DA     SC443262  56.759  30.658  51.949
22056DC     BB143263  56.818  30.280  52.398
22056DC     BB243264  57.011  30.070  52.177
22056DC     BB343265  57.207  30.135  52.172
22056DC     SC143266  57.143  30.341  52.021
22056DC     SC243267  57.224  30.313  51.824
22056DC     SC343268  57.108  30.590  51.944
22057DA     BB143269  57.231  29.726  52.266
22057DA     BB243270  57.468  29.791  51.994
22057DA     BB343271  57.639  29.894  52.067
22057DA     SC143272  57.521  30.177  52.015
22057DA     SC243273  57.561  30.369  51.861
22057DA     SC343274  57.435  30.509  52.035
22057DA     SC443275  57.441  30.248  52.136
22058DA     BB143276  57.815  29.647  51.933
22058DA     BB243277  57.975  29.897  51.718
22058DA     BB343278  58.124  30.004  51.826
22058DA     SC143279  57.929  30.227  51.922
22058DA     SC243280  57.891  30.470  51.878
22058DA     SC343281  57.765  30.470  52.102
22058DA     SC443282  57.856  30.207  52.064
22059DT     BB143283  58.338  29.989  51.784
22059DT     BB243284  58.370  30.311  51.624
22059DT     BB343285  58.474  30.441  51.747
22059DT     SC143286  58.266  30.471  51.904
22059DT     SC243287  58.188  30.670  51.883
22059DT     SC343288  58.115  30.462  52.120
22060DC     BB143289  58.707  30.433  51.594
22060DC     BB243290  58.618  30.783  51.603
22060DC     BB343291  58.706  30.874  51.767
22060DC     SC143292  58.534  30.762  51.931
22060DC     SC243293  58.402  30.912  52.010
22060DC     SC343294  58.438  30.612  52.125
22061DG     BB143295  58.847  31.079  51.444
22061DG     BB243296  58.695  31.302  51.684
22061DG     BB343297  58.822  31.340  51.832
22061DG     SC143298  58.730  31.104  52.004
22061DG     SC243299  58.589  31.123  52.267
22061DG     SC343300  58.668  30.843  52.209
22061DG     SC443301  58.800  30.961  51.984
22062DA     BB143302  58.750  31.670  51.764
22062DA     BB243303  58.624  31.711  52.106
22062DA     BB343304  58.786  31.722  52.244
22062DA     SC143305  58.793  31.416  52.297
22062DA     SC243306  58.740  31.260  52.484
22062DA     SC343307  58.891  31.093  52.360
22062DA     SC443308  58.892  31.327  52.206
22063DT     BB143309  58.800  31.890  52.331
22063DT     BB243310  58.680  31.784  52.654
22063DT     BB343311  58.839  31.754  52.782
22063DT     SC143312  58.904  31.530  52.663
22063DT     SC243313  58.862  31.364  52.795
22063DT     SC343314  59.043  31.353  52.527
22064DG     BB143315  58.588  32.027  52.952
22064DG     BB243316  58.664  31.757  53.180
22064DG     BB343317  58.847  31.782  53.256
22064DG     SC143318  58.986  31.624  53.034
22064DG     SC243319  59.126  31.362  53.066
22064DG     SC343320  59.173  31.474  52.796
22064DG     SC443321  59.033  31.701  52.901
22065DT     BB143322  58.885  31.816  53.476
22065DT     BB243323  59.020  31.497  53.577
22065DT     BB343324  59.225  31.512  53.601
22065DT     SC143325  59.263  31.516  53.341
22065DT     SC243326  59.358  31.333  53.280
22065DT     SC343327  59.333  31.603  53.102
22066DA     BB143328  59.097  31.355  53.970
22066DA     BB243329  59.375  31.146  53.853
22066DA     BB343330  59.561  31.246  53.882
22066DA     SC143331  59.560  31.381  53.602
22066DA     SC243332  59.687  31.363  53.388
22066DA     SC343333  59.598  31.599  53.339
22066DA     SC443334  59.496  31.528  53.591
22067DG     BB143335  59.657  31.016  54.080
22067DG     BB243336  59.899  30.951  53.819
22067DG     BB343337  60.060  31.063  53.848
22067DG     SC143338  59.956  31.299  53.682
22067DG     SC243339  60.069  31.394  53.423
22067DG     SC343340  59.866  31.583  53.525
22067DG     SC443341  59.869  31.412  53.755
22068DG     BB143342  60.254  30.795  53.870
22068DG     BB243343  60.407  30.912  53.564
22068DG     BB343344  60.555  31.038  53.605
22068DG     SC143345  60.376  31.287  53.601
22068DG     SC243346  60.388  31.508  53.402
22068DG     SC343347  60.206  31.577  53.625
22068DG     SC443348  60.302  31.332  53.736
22069DC     BB143349  60.745  30.983  53.540
22069DC     BB243350  60.780  31.196  53.251
22069DC     BB343351  60.902  31.358  53.296
22069DC     SC143352  60.711  31.472  53.436
22069DC     SC243353  60.642  31.648  53.332
22069DC     SC343354  60.580  31.573  53.641
22070DA     BB143355  60.970  31.153  52.934
22070DA     BB243356  60.949  31.513  52.869
22070DA     BB343357  61.114  31.614  52.959
22070DA     SC143358  60.966  31.667  53.227
22070DA     SC243359  60.872  31.862  53.351
22070DA     SC343360  60.886  31.711  53.558
22070DA     SC443361  60.983  31.558  53.345
22071DA     BB143362  61.054  31.696  52.645
22071DA     BB243363  61.027  32.037  52.777
22071DA     BB343364  61.213  32.099  52.861
22071DA     SC143365  61.146  31.996  53.147
22071DA     SC243366  61.095  32.093  53.371
22071DA     SC343367  61.160  31.862  53.463
22071DA     SC443368  61.191  31.846  53.185
22072DT     BB143369  61.251  32.228  52.764
22072DT     BB243370  61.205  32.488  53.010
22072DT     BB343371  61.381  32.520  53.113
22072DT     SC143372  61.351  32.299  53.250
22072DT     SC243373  61.309  32.347  53.456
22072DT     SC343374  61.397  32.056  53.343
22073DT     BB143375  61.380  32.746  52.981
22073DT     BB243376  61.407  32.839  53.329
22073DT     BB343377  61.603  32.818  53.393
22073DT     SC143378  61.582  32.557  53.399
22073DT     SC243379  61.586  32.490  53.604
22073DT     SC343380  61.624  32.303  53.342
22074DT     BB143381  61.625  33.087  53.398
22074DT     BB243382  61.720  32.982  53.730
22074DT     BB343383  61.921  32.932  53.733
22074DT     SC143384  61.875  32.706  53.607
22074DT     SC243385  61.908  32.541  53.742
22074DT     SC343386  61.881  32.521  53.419
22075DT     BB143387  61.981  33.158  53.872
22075DT     BB243388  62.114  32.891  54.075
22075DT     BB343389  62.306  32.845  54.013
22075DT     SC143390  62.216  32.721  53.800
22075DT     SC243391  62.250  32.510  53.820
22075DT     SC343392  62.172  32.664  53.546
22076DA     BB143393  62.330  32.912  54.427
22076DA     BB243394  62.503  32.597  54.355
22076DA     BB343395  62.690  32.635  54.260
22076DA     SC143396  62.574  32.623  53.971
22076DA     SC243397  62.587  32.473  53.773
22076DA     SC343398  62.507  32.676  53.639
22076DA     SC443399  62.525  32.762  53.905
22077DT     BB143400  62.860  32.589  54.359
22077DT     BB243401  62.949  32.299  54.164
22077DT     BB343402  63.104  32.344  54.035
22077DT     SC143403  62.943  32.478  53.877
22077DT     SC243404  62.919  32.371  53.692
22077DT     SC343405  62.836  32.679  53.744
22078DA     BB143406  63.224  32.001  54.246
22078DA     BB243407  63.285  31.941  53.889
22078DA     BB343408  63.453  32.053  53.822
22078DA     SC143409  63.285  32.301  53.739
22078DA     SC243410  63.216  32.416  53.528
22078DA     SC343411  63.172  32.620  53.677
22078DA     SC443412  63.265  32.418  53.848
22079DT     BB143413  63.629  31.958  53.763
22079DT     BB243414  63.595  32.014  53.409
22079DT     BB343415  63.726  32.161  53.347
22079DT     SC143416  63.577  32.349  53.454
22079DT     SC243417  63.488  32.467  53.298
22079DT     SC343418  63.503  32.547  53.612
22080DA     BB143419  63.822  31.842  53.089
22080DA     BB243420  63.780  32.140  52.881
22080DA     BB343421  63.951  32.267  52.898
22080DA     SC143422  63.834  32.432  53.136
22080DA     SC243423  63.749  32.662  53.176
22080DA     SC343424  63.793  32.613  53.424
22080DA     SC443425  63.870  32.382  53.284
22081DT     BB143426  64.109  32.313  52.734
22081DT     BB243427  63.992  32.646  52.659
22081DT     BB343428  64.132  32.785  52.721
22081DT     SC143429  64.066  32.752  52.972
22081DT     SC243430  63.966  32.928  53.045
22081DT     SC343431  64.085  32.689  53.228
22082DA     BB143432  64.071  32.881  52.317
22082DA     BB243433  64.031  33.190  52.509
22082DA     BB343434  64.222  33.267  52.567
22082DA     SC143435  64.229  33.114  52.837
22082DA     SC243436  64.215  33.168  53.081
22082DA     SC343437  64.325  32.939  53.117
22082DA     SC443438  64.299  32.969  52.839
22083DT     BB143439  64.285  33.446  52.489
22083DT     BB243440  64.225  33.641  52.786
22083DT     BB343441  64.405  33.689  52.876
22083DT     SC143442  64.434  33.445  52.967
22083DT     SC243443  64.411  33.445  53.181
22083DT     SC343444  64.534  33.204  53.004
22084DT     BB143445  64.362  33.941  52.798
22084DT     BB243446  64.393  33.959  53.157
22084DT     BB343447  64.592  33.972  53.210
22084DT     SC143448  64.631  33.718  53.157
22084DT     SC243449  64.666  33.611  53.341
22084DT     SC343450  64.725  33.500  53.042
22085DT     BB143451  64.535  34.221  53.280
22085DT     BB243452  64.667  34.068  53.578
22085DT     BB343453  64.874  34.073  53.575
22085DT     SC143454  64.883  33.880  53.397
22085DT     SC243455  64.963  33.702  53.488
22085DT     SC343456  64.930  33.754  53.170
22086DT     BB143457  64.858  34.255  53.768
22086DT     BB243458  65.065  33.993  53.905
22086DT     BB343459  65.261  34.019  53.844
22086DT     SC143460  65.205  33.934  53.602
22086DT     SC243461  65.298  33.743  53.571
22086DT     SC343462  65.174  33.934  53.340
22087DC     BB143463  65.328  34.097  54.095
22087DC     BB243464  65.550  33.821  54.024
22087DC     BB343465  65.718  33.890  53.924
22087DC     SC143466  65.583  33.921  53.701
22087DC     SC243467  65.649  33.775  53.558
22087DC     SC343468  65.471  34.038  53.493
22088DA     BB143469  65.869  33.674  54.252
22088DA     BB243470  66.048  33.561  53.953
22088DA     BB343471  66.190  33.707  53.891
22088DA     SC143472  65.992  33.855  53.702
22088DA     SC243473  65.961  33.888  53.457
22088DA     SC343474  65.819  34.091  53.522
22088DA     SC443475  65.908  33.978  53.763
22089DA     BB143476  66.412  33.462  53.911
22089DA     BB243477  66.468  33.506  53.551
22089DA     BB343478  66.594  33.675  53.516
22089DA     SC143479  66.359  33.876  53.491
22089DA     SC243480  66.250  34.012  53.313
22089DA     SC343481  66.158  34.155  53.505
22089DA     SC443482  66.312  33.953  53.625
22090DA     BB143483  66.774  33.455  53.351
22090DA     BB243484  66.708  33.655  53.051
22090DA     BB343485  66.832  33.828  53.049
22090DA     SC143486  66.626  34.007  53.198
22090DA     SC243487  66.478  34.201  53.147
22090DA     SC343488  66.474  34.240  53.400
22090DA     SC443489  66.637  34.015  53.358
22091DT     BB143490  66.968  33.840  52.904
22091DT     BB243491  66.794  34.086  52.705
22091DT     BB343492  66.884  34.271  52.727
22091DT     SC143493  66.781  34.301  52.966
22091DT     SC243494  66.632  34.456  52.960
22091DT     SC343495  66.766  34.330  53.228
22092DT     BB143496  66.968  34.240  52.476
22092DT     BB243497  66.776  34.546  52.475
22092DT     BB343498  66.895  34.704  52.537
22092DT     SC143499  66.883  34.624  52.787
22092DT     SC243500  66.766  34.764  52.901
22092DT     SC343501  66.961  34.535  53.023
22093DC     BB143502  66.885  34.788  52.285
22093DC     BB243503  66.755  35.062  52.481
22093DC     BB343504  66.912  35.176  52.555
22093DC     SC143505  66.970  34.994  52.734
22093DC     SC243506  66.920  35.068  52.930
22093DC     SC343507  67.105  34.810  52.866
22094DG     BB143508  66.666  35.419  52.338
22094DG     BB243509  66.727  35.552  52.668
22094DG     BB343510  66.908  35.632  52.677
22094DG     SC143511  67.046  35.373  52.764
22094DG     SC243512  67.175  35.323  53.029
22094DG     SC343513  67.232  35.102  52.840
22094DG     SC443514  67.099  35.272  52.652
22095DT     BB143515  66.937  35.848  52.717
22095DT     BB243516  67.054  35.843  53.058
22095DT     BB343517  67.258  35.875  53.064
22095DT     SC143518  67.306  35.632  52.978
22095DT     SC243519  67.394  35.516  53.136
22095DT     SC343520  67.389  35.435  52.823
22096DA     BB143521  67.086  36.151  53.328
22096DA     BB243522  67.360  35.983  53.504
22096DA     BB343523  67.548  36.053  53.432
22096DA     SC143524  67.572  35.835  53.211
22096DA     SC243525  67.711  35.633  53.165
22096DA     SC343526  67.637  35.662  52.921
22096DA     SC443527  67.516  35.871  53.065
22097DT     BB143528  67.664  36.155  53.559
22097DT     BB243529  67.902  35.891  53.620
22097DT     BB343530  68.078  35.930  53.517
22097DT     SC143531  67.968  35.863  53.288
22097DT     SC243532  68.055  35.678  53.219
22097DT     SC343533  67.876  35.883  53.042
22098DA     BB143534  68.162  35.844  53.919
22098DA     BB243535  68.380  35.637  53.708
22098DA     BB343536  68.529  35.757  53.615
22098DA     SC143537  68.359  35.816  53.361
22098DA     SC243538  68.362  35.755  53.119
22098DA     SC343539  68.213  35.962  53.087
22098DA     SC443540  68.269  35.949  53.362
22099DT     BB143541  68.695  35.709  53.673
22099DT     BB243542  68.801  35.542  53.372
22099DT     BB343543  68.919  35.669  53.258
22099DT     SC143544  68.709  35.808  53.182
22099DT     SC243545  68.673  35.773  52.973
22099DT     SC343546  68.543  36.010  53.152
22100DT     BB143547  69.102  35.499  53.328
22100DT     BB243548  69.104  35.502  52.967
22100DT     BB343549  69.208  35.668  52.898
22100DT     SC143550  69.009  35.828  52.961
22100DT     SC243551  68.917  35.901  52.781
22100DT     SC343552  68.872  36.020  53.079
22101DT     BB143553  69.401  35.500  52.822
22101DT     BB243554  69.317  35.683  52.523
22101DT     BB343555  69.421  35.862  52.518
22101DT     SC143556  69.265  35.967  52.701
22101DT     SC243557  69.143  36.121  52.612
22101DT     SC343558  69.187  36.074  52.929
22102DA     BB143559  69.494  35.675  52.149
22102DA     BB243560  69.409  36.025  52.081
22102DA     BB343561  69.570  36.153  52.137
22102DA     SC143562  69.468  36.197  52.427
22102DA     SC243563  69.370  36.382  52.562
22102DA     SC343564  69.444  36.245  52.766
22102DA     SC443565  69.522  36.097  52.541
22103DA     BB143566  69.562  36.272  51.825
22103DA     BB243567  69.493  36.603  51.965
22103DA     BB343568  69.673  36.691  52.039
22103DA     SC143569  69.641  36.576  52.326
22103DA     SC243570  69.592  36.662  52.555
22103DA     SC343571  69.697  36.443  52.638
22103DA     SC443572  69.711  36.435  52.358
22104DT     BB143573  69.782  36.873  51.950
22104DT     BB243574  69.688  37.108  52.208
22104DT     BB343575  69.854  37.160  52.320
22104DT     SC143576  69.853  36.928  52.443
22104DT     SC243577  69.796  36.957  52.649
22104DT     SC343578  69.931  36.690  52.525
22105DC     BB143579  69.898  37.424  52.212
22105DC     BB243580  69.867  37.483  52.566
22105DC     BB343581  70.054  37.482  52.655
22105DC     SC143582  70.070  37.220  52.637
22105DC     SC243583  70.057  37.134  52.833
22105DC     SC343584  70.155  36.981  52.565
22106DG     BB143585  69.922  37.860  52.742
22106DG     BB243586  70.022  37.687  53.043
22106DG     BB343587  70.219  37.701  53.067
22106DG     SC143588  70.281  37.446  52.909
22106DG     SC243589  70.395  37.194  53.021
22106DG     SC343590  70.386  37.184  52.725
22106DG     SC443591  70.302  37.456  52.751
22107DT     BB143592  70.322  37.810  53.247
22107DT     BB243593  70.424  37.524  53.443
22107DT     BB343594  70.629  37.501  53.433
22107DT     SC143595  70.614  37.407  53.188
22107DT     SC243596  70.665  37.197  53.190
22107DT     SC343597  70.647  37.387  52.928
22108DA     BB143598  70.507  37.498  53.832
22108DA     BB243599  70.720  37.205  53.775
22108DA     BB343600  70.924  37.264  53.756
22108DA     SC143601  70.909  37.298  53.447
22108DA     SC243602  70.999  37.184  53.244
22108DA     SC343603  70.951  37.405  53.123
22108DA     SC443604  70.874  37.444  53.390
22109DT     BB143605  71.026  37.195  53.893
22109DT     BB243606  71.195  36.942  53.699
22109DT     BB343607  71.384  37.008  53.647
22109DT     SC143608  71.287  37.170  53.465
22109DT     SC243609  71.339  37.098  53.269
22109DT     SC343610  71.227  37.394  53.339
22110DT     BB143611  71.457  36.821  53.814
22110DT     BB243612  71.619  36.738  53.503
22110DT     BB343613  71.790  36.852  53.480
22110DT     SC143614  71.650  37.066  53.422
22110DT     SC243615  71.678  37.116  53.215
22110DT     SC343616  71.549  37.309  53.441
22111DT     BB143617  71.912  36.622  53.517
22111DT     BB243618  72.034  36.744  53.200
22111DT     BB343619  72.185  36.883  53.231
22111DT     SC143620  72.012  37.066  53.306
22111DT     SC243621  72.002  37.220  53.156
22111DT     SC343622  71.885  37.240  53.458
22112DA     BB143623  72.314  36.595  52.953
22112DA     BB243624  72.394  36.928  52.821
22112DA     BB343625  72.553  37.016  52.932
22112DA     SC143626  72.364  37.156  53.136
22112DA     SC243627  72.292  37.388  53.192
22112DA     SC343628  72.222  37.290  53.419
22112DA     SC443629  72.328  37.076  53.271
22113DA     BB143630  72.669  37.044  52.627
22113DA     BB243631  72.677  37.406  52.686
22113DA     BB343632  72.835  37.456  52.820
22113DA     SC143633  72.659  37.430  53.075
22113DA     SC243634  72.562  37.581  53.249
22113DA     SC343635  72.543  37.369  53.393
22113DA     SC443636  72.657  37.287  53.150
22114DA     BB143637  72.905  37.660  52.572
22114DA     BB243638  72.865  37.934  52.813
22114DA     BB343639  73.032  37.940  52.946
22114DA     SC143640  72.901  37.752  53.157
22114DA     SC243641  72.808  37.769  53.388
22114DA     SC343642  72.843  37.515  53.399
22114DA     SC443643  72.931  37.594  53.145
22115DT     BB143644  73.151  38.097  52.935
22115DT     BB243645  73.049  38.255  53.244
22115DT     BB343646  73.191  38.223  53.390
22115DT     SC143647  73.116  37.973  53.420
22115DT     SC243648  73.020  37.950  53.611
22115DT     SC343649  73.124  37.710  53.420
22116DG     BB143650  73.157  38.628  53.356
22116DG     BB243651  73.128  38.523  53.701
22116DG     BB343652  73.308  38.483  53.775
22116DG     SC143653  73.303  38.188  53.692
22116DG     SC243654  73.295  37.954  53.877
22116DG     SC343655  73.340  37.866  53.598
22116DG     SC443656  73.357  38.147  53.547
22117DA     BB143657  73.254  38.700  54.048
22117DA     BB243658  73.303  38.425  54.285
22117DA     BB343659  73.511  38.383  54.308
22117DA     SC143660  73.520  38.172  54.079
22117DA     SC243661  73.547  37.926  54.057
22117DA     SC343662  73.612  37.976  53.813
22117DA     SC443663  73.558  38.224  53.932
22118DT     BB143664  73.642  38.421  54.497
22118DT     BB243665  73.672  38.076  54.597
22118DT     BB343666  73.866  38.010  54.568
22118DT     SC143667  73.832  37.996  54.309
22118DT     SC243668  73.831  37.790  54.247
22118DT     SC343669  73.861  38.046  54.051
22119DA     BB143670  73.835  37.922  54.983
22119DA     BB243671  73.961  37.618  54.821
22119DA     BB343672  74.170  37.634  54.784
22119DA     SC143673  74.135  37.757  54.500
22119DA     SC243674  74.172  37.688  54.263
22119DA     SC343675  74.170  37.940  54.211
22119DA     SC443676  74.132  37.917  54.488
22120DA     BB143677  74.240  37.353  54.962
22120DA     BB243678  74.348  37.198  54.648
22120DA     BB343679  74.552  37.244  54.608
22120DA     SC143680  74.487  37.501  54.445
22120DA     SC243681  74.499  37.577  54.207
22120DA     SC343682  74.491  37.814  54.304
22120DA     SC443683  74.482  37.641  54.524
22121DA     BB143684  74.602  36.919  54.592
22121DA     BB243685  74.678  36.965  54.237
22121DA     BB343686  74.880  37.028  54.212
22121DA     SC143687  74.814  37.331  54.225
22121DA     SC243688  74.812  37.526  54.070
22121DA     SC343689  74.821  37.670  54.282
22121DA     SC443690  74.822  37.403  54.369
22122DT     BB143691  74.993  36.901  54.116
22122DT     BB243692  74.992  37.081  53.803
22122DT     BB343693  75.174  37.178  53.777
22122DT     SC143694  75.111  37.361  53.954
22122DT     SC243695  75.080  37.549  53.855
22122DT     SC343696  75.120  37.507  54.174
22123DT     BB143697  75.196  37.001  53.586
22123DT     BB243698  75.215  37.322  53.424
22123DT     BB343699  75.406  37.400  53.442
22123DT     SC143700  75.366  37.460  53.694
22123DT     SC243701  75.357  37.674  53.716
22123DT     SC343702  75.393  37.459  53.957
22124DG     BB143703  75.271  37.381  53.058
22124DG     BB243704  75.392  37.711  53.145
22124DG     BB343705  75.591  37.710  53.156
22124DG     SC143706  75.598  37.636  53.453
22124DG     SC243707  75.696  37.811  53.674
22124DG     SC343708  75.644  37.536  53.772
22124DG     SC443709  75.598  37.481  53.494
22125DA     BB143710  75.544  37.985  52.954
22125DA     BB243711  75.730  38.188  53.196
22125DA     BB343712  75.937  38.135  53.193
22125DA     SC143713  75.910  37.917  53.414
22125DA     SC243714  75.980  37.885  53.651
22125DA     SC343715  75.942  37.635  53.607
22125DA     SC443716  75.882  37.766  53.366
22126DG     BB143717  75.962  38.435  53.120
22126DG     BB243718  76.145  38.447  53.432
22126DG     BB343719  76.330  38.379  53.405
22126DG     SC143720  76.257  38.088  53.468
22126DG     SC243721  76.351  37.931  53.704
22126DG     SC343722  76.210  37.757  53.511
22126DG     SC443723  76.208  37.993  53.349
22127DT     BB143724  76.509  38.508  53.434
22127DT     BB243725  76.642  38.381  53.745
22127DT     BB343726  76.807  38.262  53.707
22127DT     SC143727  76.656  38.067  53.620
22127DT     SC243728  76.662  37.904  53.760
22127DT     SC343729  76.550  37.889  53.456
22128DA     BB143730  76.934  38.544  53.991
22128DA     BB243731  77.037  38.213  54.110
22128DA     BB343732  77.203  38.142  53.997
22128DA     SC143733  77.028  37.998  53.784
22128DA     SC243734  76.975  37.764  53.716
22128DA     SC343735  76.901  37.867  53.493
22128DA     SC443736  76.988  38.081  53.652
22129DA     BB143737  77.333  38.109  54.296
22129DA     BB243738  77.357  37.750  54.226
22129DA     BB343739  77.520  37.712  54.092
22129DA     SC143740  77.347  37.739  53.835
22129DA     SC243741  77.260  37.590  53.655
22129DA     SC343742  77.233  37.805  53.518
22129DA     SC443743  77.339  37.883  53.766
22130DC     BB143744  77.670  37.607  54.165
22130DC     BB243745  77.597  37.300  53.990
22130DC     BB343746  77.726  37.276  53.831
22130DC     SC143747  77.600  37.459  53.691
22130DC     SC243748  77.498  37.365  53.526
22130DC     SC343749  77.554  37.682  53.559
22131DG     BB143750  77.762  36.950  54.072
22131DG     BB243751  77.700  36.855  53.728
22131DG     BB343752  77.867  36.873  53.622
22131DG     SC143753  77.815  37.164  53.543
22131DG     SC243754  77.759  37.264  53.267
22131DG     SC343755  77.801  37.489  53.454
22131DG     SC443756  77.868  37.281  53.639
22132DA     BB143757  77.798  36.549  53.522
22132DA     BB243758  77.790  36.658  53.172
22132DA     BB343759  77.988  36.695  53.102
22132DA     SC143760  77.987  36.995  53.183
22132DA     SC243761  77.984  37.217  53.069
22132DA     SC343762  78.074  37.309  53.291
22132DA     SC443763  78.045  37.033  53.328
22133DG     BB143764  77.908  36.476  52.898
22133DG     BB243765  77.951  36.744  52.660
22133DG     BB343766  78.145  36.769  52.620
22133DG     SC143767  78.191  36.970  52.846
22133DG     SC243768  78.260  37.259  52.811
22133DG     SC343769  78.283  37.178  53.095
22133DG     SC443770  78.231  36.916  52.991
22134DT     BB143771  78.224  36.737  52.417
22134DT     BB243772  78.289  37.074  52.308
22134DT     BB343773  78.492  37.114  52.318
22134DT     SC143774  78.482  37.134  52.580
22134DT     SC243775  78.514  37.339  52.637
22134DT     SC343776  78.527  37.082  52.834
22135DA     BB143777  78.377  37.216  51.927
22135DA     BB243778  78.576  37.494  52.060
22135DA     BB343779  78.782  37.441  52.067
22135DA     SC143780  78.769  37.327  52.356
22135DA     SC243781  78.852  37.389  52.583
22135DA     SC343782  78.814  37.143  52.642
22135DA     SC443783  78.739  37.170  52.373
22136DA     BB143784  78.836  37.715  51.886
22136DA     BB243785  79.043  37.840  52.162
22136DA     BB343786  79.235  37.748  52.158
22136DA     SC143787  79.153  37.511  52.343
22136DA     SC243788  79.201  37.432  52.575
22136DA     SC343789  79.119  37.204  52.492
22136DA     SC443790  79.100  37.377  52.272
22137DA     BB143791  79.361  38.056  52.152
22137DA     BB243792  79.522  37.981  52.472
22137DA     BB343793  79.699  37.866  52.441
22137DA     SC143794  79.553  37.592  52.464
22137DA     SC243795  79.544  37.401  52.624
22137DA     SC343796  79.453  37.266  52.426
22137DA     SC443797  79.499  37.524  52.329
22138DC     BB143798  79.904  37.940  52.479
22138DC     BB243799  79.957  37.755  52.784
22138DC     BB343800  80.096  37.605  52.753
22138DC     SC143801  79.922  37.460  52.621
22138DC     SC243802  79.871  37.286  52.738
22138DC     SC343803  79.807  37.329  52.423
22139DA     BB143804  80.233  37.821  53.085
22139DA     BB243805  80.232  37.466  53.176
22139DA     BB343806  80.396  37.365  53.083
22139DA     SC143807  80.236  37.288  52.828
22139DA     SC243808  80.144  37.081  52.723
22139DA     SC343809  80.139  37.217  52.506
22139DA     SC443810  80.242  37.389  52.703
22140DT     BB143811  80.538  37.292  53.203
22140DT     BB243812  80.439  36.946  53.174
22140DT     BB343813  80.572  36.844  53.052
22140DT     SC143814  80.471  36.956  52.837
22140DT     SC243815  80.365  36.807  52.722
22140DT     SC343816  80.453  37.101  52.618
22141DC     BB143817  80.666  36.716  53.270
22141DC     BB243818  80.556  36.452  53.051
22141DC     BB343819  80.708  36.401  52.920
22141DC     SC143820  80.671  36.618  52.779
22141DC     SC243821  80.589  36.566  52.587
22141DC     SC343822  80.719  36.852  52.666
22142DG     BB143823  80.582  36.073  53.126
22142DG     BB243824  80.584  36.014  52.769
22142DG     BB343825  80.770  35.985  52.706
22142DG     SC143826  80.824  36.281  52.650
22142DG     SC243827  80.869  36.403  52.381
22142DG     SC343828  80.925  36.598  52.596
22142DG     SC443829  80.881  36.373  52.768
22143DG     BB143830  80.656  35.702  52.592
22143DG     BB243831  80.757  35.820  52.266
22143DG     BB343832  80.953  35.796  52.242
22143DG     SC143833  81.026  36.071  52.356
22143DG     SC243834  81.146  36.297  52.203
22143DG     SC343835  81.143  36.356  52.493
22143DG     SC443836  81.049  36.086  52.514
22144DA     BB143837  80.879  35.633  51.942
22144DA     BB243838  81.090  35.870  51.758
22144DA     BB343839  81.296  35.827  51.790
22144DA     SC143840  81.323  36.014  52.037
22144DA     SC243841  81.434  36.229  52.094
22144DA     SC343842  81.408  36.155  52.338
22144DA     SC443843  81.298  35.949  52.182
22145DA     BB143844  81.331  35.807  51.457
22145DA     BB243845  81.578  36.077  51.477
22145DA     BB343846  81.766  36.001  51.543
22145DA     SC143847  81.707  36.048  51.845
22145DA     SC243848  81.787  36.198  52.027
22145DA     SC343849  81.690  36.022  52.187
22145DA     SC443850  81.642  35.926  51.928
22146DT     BB143851  81.979  35.972  51.420
22146DT     BB243852  82.156  36.243  51.578
22146DT     BB343853  82.311  36.169  51.695
22146DT     SC143854  82.143  36.088  51.879
22146DT     SC243855  82.167  36.209  52.056
22146DT     SC343856  82.008  35.927  52.039
22147DT     BB143857  82.571  36.211  51.529
22147DT     BB243858  82.650  36.375  51.841
22147DT     BB343859  82.763  36.250  51.961
22147DT     SC143860  82.553  36.103  52.018
22147DT     SC243861  82.500  36.132  52.225
22147DT     SC343862  82.392  35.894  52.033
22148DT     BB143863  83.052  36.356  51.940
22148DT     BB243864  82.982  36.372  52.293
22148DT     BB343865  83.064  36.208  52.389
22148DT     SC143866  82.877  36.050  52.296
22148DT     SC243867  82.749  35.988  52.457
22148DT     SC343868  82.760  35.855  52.162
22149DA     BB143869  83.224  36.533  52.595
22149DA     BB243870  83.056  36.318  52.840
22149DA     BB343871  83.181  36.153  52.891
22149DA     SC143872  83.067  35.967  52.668
22149DA     SC243873  82.926  35.763  52.653
22149DA     SC343874  83.028  35.733  52.420
22149DA     SC443875  83.143  35.966  52.527
22150DC     BB143876  83.217  36.165  53.065
22150DC     BB243877  82.974  35.917  53.164
22150DC     BB343878  83.069  35.738  53.205
22150DC     SC143879  83.105  35.690  52.949
22150DC     SC243880  82.980  35.526  52.888
22150DC     SC343881  83.228  35.649  52.719
22151DA     BB143882  82.755  35.899  53.444
22151DA     BB243883  82.685  35.547  53.367
22151DA     BB343884  82.834  35.421  53.455
22151DA     SC143885  83.020  35.426  53.206
22151DA     SC243886  83.095  35.267  53.028
22151DA     SC343887  83.291  35.430  52.995
22151DA     SC443888  83.135  35.538  53.201
22152DG     BB143889  82.532  35.361  53.508
22152DG     BB243890  82.633  35.050  53.354
22152DG     BB343891  82.766  34.957  53.469
22152DG     SC143892  83.008  35.091  53.338
22152DG     SC243893  83.217  34.955  53.174
22152DG     SC343894  83.294  35.235  53.232
22152DG     SC443895  83.060  35.232  53.396
22153DA     BB143896  82.542  34.704  53.393
22153DA     BB243897  82.824  34.499  53.279
22153DA     BB343898  82.950  34.449  53.444
22153DA     SC143899  83.133  34.699  53.410
22153DA     SC243900  83.367  34.748  53.340
22153DA     SC343901  83.337  34.970  53.465
22153DA     SC443902  83.095  34.830  53.494
22154DA     BB143903  82.902  34.141  53.331
22154DA     BB243904  83.266  34.111  53.303
22154DA     BB343905  83.354  34.091  53.497
22154DA     SC143906  83.394  34.397  53.537
22154DA     SC243907  83.584  34.558  53.548
22154DA     SC343908  83.419  34.713  53.668
22154DA     SC443909  83.277  34.478  53.611
22155DT     BB143910  83.451  33.903  53.581
22155DT     BB243911  83.793  34.019  53.570
22155DT     BB343912  83.863  34.052  53.762
22155DT     SC143913  83.723  34.273  53.784
22155DT     SC243914  83.856  34.442  53.785
22155DT     SC343915  83.543  34.446  53.870
22156DT     BB143916  84.031  33.815  53.798
22156DT     BB243917  84.258  34.086  53.871
22156DT     BB343918  84.263  34.121  54.075
22156DT     SC143919  84.027  34.237  54.068
22156DT     SC243920  84.050  34.448  54.106
22156DT     SC343921  83.771  34.282  54.115
22157DT     BB143922  84.521  34.003  54.134
22157DT     BB243923  84.554  34.340  54.257
22157DT     BB343924  84.507  34.347  54.459
22157DT     SC143925  84.251  34.324  54.409
22157DT     SC243926  84.152  34.510  54.455
22157DT     SC343927  84.007  34.224  54.404
22158DA     BB143928  84.885  34.523  54.429
22158DA     BB243929  84.672  34.752  54.621
22158DA     BB343930  84.648  34.681  54.821
22158DA     SC143931  84.392  34.516  54.757
22158DA     SC243932  84.149  34.526  54.809
22158DA     SC343933  84.146  34.277  54.748
22158DA     SC443934  84.412  34.361  54.717
22159DG     BB143935  84.777  34.953  54.881
22159DG     BB243936  84.456  35.019  55.034
22159DG     BB343937  84.450  34.941  55.216
22159DG     SC143938  84.342  34.670  55.124
22159DG     SC243939  84.073  34.558  55.186
22159DG     SC343940  84.243  34.355  55.055
22159DG     SC443941  84.446  34.555  55.081
22160DA     BB143942  84.339  35.258  55.286
22160DA     BB243943  84.032  35.115  55.427
22160DA     BB343944  84.074  35.021  55.614
22160DA     SC143945  84.130  34.742  55.488
22160DA     SC243946  84.022  34.517  55.481
22160DA     SC343947  84.255  34.430  55.415
22160DA     SC443948  84.282  34.707  55.449
22161DA     BB143949  83.823  35.221  55.679
22161DA     BB243950  83.643  34.921  55.787
22161DA     BB343951  83.726  34.847  55.969
22161DA     SC143952  83.929  34.658  55.828
22161DA     SC243953  83.963  34.413  55.797
22161DA     SC343954  84.206  34.475  55.743
22161DA     SC443955  84.076  34.717  55.798
22162DA     BB143956  83.407  34.869  56.048
22162DA     BB243957  83.422  34.509  56.118
22162DA     BB343958  83.532  34.473  56.297
22162DA     SC143959  83.805  34.443  56.152
22162DA     SC243960  83.968  34.262  56.101
22162DA     SC343961  84.138  34.451  56.067
22162DA     SC443962  83.896  34.575  56.136
22163DT     BB143963  83.434  34.400  56.456
22163DT     BB243964  83.569  34.066  56.445
22163DT     BB343965  83.712  34.043  56.592
22163DT     SC143966  83.886  34.185  56.457
22163DT     SC243967  84.044  34.056  56.387
22163DT     SC343968  84.051  34.380  56.393
22164DA     BB143969  83.443  33.724  56.642
22164DA     BB243970  83.783  33.585  56.648
22164DA     BB343971  83.879  33.633  56.833
22164DA     SC143972  84.002  33.899  56.728
22164DA     SC243973  84.229  33.987  56.671
22164DA     SC343974  84.122  34.219  56.698
22164DA     SC443975  83.918  34.034  56.750
22165DT     BB143976  83.923  33.483  56.960
22165DT     BB243977  84.279  33.480  56.906
22165DT     BB343978  84.376  33.568  57.066
22165DT     SC143979  84.303  33.808  56.988
22165DT     SC243980  84.476  33.916  56.919
22165DT     SC343981  84.187  34.044  56.989
22166DG     BB143982  84.528  33.190  57.039
22166DG     BB243983  84.792  33.436  57.051
22166DG     BB343984  84.820  33.497  57.238
22166DG     SC143985  84.617  33.726  57.219
22166DG     SC243986  84.681  34.018  57.230
22166DG     SC343987  84.389  33.973  57.240
22166DG     SC443988  84.464  33.697  57.254
22167DA     BB143989  85.159  33.423  57.200
22167DA     BB243990  85.246  33.771  57.276
22167DA     BB343991  85.229  33.808  57.485
22167DA     SC143992  84.932  33.898  57.470
22167DA     SC243993  84.802  34.109  57.496
22167DA     SC343994  84.600  33.956  57.534
22167DA     SC443995  84.819  33.786  57.492
22168DA     BB143996  85.545  33.914  57.471
22168DA     BB243997  85.428  34.240  57.588
22168DA     BB343998  85.392  34.236  57.798
22168DA     SC143999  85.094  34.151  57.771
22168DA     SC244000  84.870  34.253  57.809
22168DA     SC344001  84.784  34.011  57.816
22168DA     SC444002  85.061  33.994  57.773
22169DC     BB144003  85.514  34.345  57.958
22169DC     BB244004  85.268  34.600  58.030
22169DC     BB344005  85.187  34.569  58.218
22169DC     SC144006  85.044  34.366  58.133
22169DC     SC244007  84.836  34.421  58.134
22169DC     SC344008  84.954  34.120  58.107
22170DA     BB144009  85.324  34.967  58.262
22170DA     BB244010  84.975  34.962  58.374
22170DA     BB344011  84.962  34.882  58.572
22170DA     SC144012  84.923  34.589  58.477
22170DA     SC244013  84.741  34.418  58.475
22170DA     SC344014  84.930  34.247  58.447
22170DA     SC444015  85.055  34.497  58.462
22171DG     BB144016  84.845  35.157  58.693
22171DG     BB244017  84.545  34.960  58.743
22171DG     BB344018  84.548  34.877  58.924
22171DG     SC144019  84.691  34.623  58.832
22171DG     SC244020  84.574  34.348  58.827
22171DG     SC344021  84.864  34.340  58.769
22171DG     SC444022  84.851  34.619  58.831
22172DT     BB144023  84.391  34.923  59.090
22172DT     BB244024  84.187  34.627  59.067
22172DT     BB344025  84.218  34.507  59.232
22172DT     SC144026  84.451  34.428  59.141
22172DT     SC244027  84.439  34.221  59.084
22172DT     SC344028  84.712  34.392  59.124
22173DT     BB144029  83.972  34.575  59.306
22173DT     BB244030  83.965  34.216  59.276
22173DT     BB344031  84.031  34.129  59.451
22173DT     SC144032  84.280  34.191  59.397
22173DT     SC244033  84.391  34.011  59.352
22173DT     SC344034  84.519  34.302  59.417
22174DA     BB144035  83.674  33.963  59.305
22174DA     BB244036  83.905  33.691  59.388
22174DA     BB344037  83.932  33.678  59.599
22174DA     SC144038  84.177  33.871  59.604
22174DA     SC244039  84.422  33.856  59.644
22174DA     SC344040  84.409  34.109  59.688
22174DA     SC444041  84.148  34.027  59.628
22175DT     BB144042  83.869  33.522  59.653
22175DT     BB244043  84.185  33.365  59.730
22175DT     BB344044  84.226  33.385  59.932
22175DT     SC144045  84.289  33.638  59.902
22175DT     SC244046  84.500  33.663  59.932
22175DT     SC344047  84.279  33.900  59.927
22176DT     BB144048  84.178  33.124  59.950
22176DT     BB244049  84.506  33.165  60.095
22176DT     BB344050  84.489  33.223  60.293
22176DT     SC144051  84.420  33.467  60.224
22176DT     SC244052  84.579  33.603  60.275
22176DT     SC344053  84.275  33.686  60.198
22177DA     BB144054  84.740  32.885  60.310
22177DA     BB244055  84.892  33.144  60.521
22177DA     BB344056  84.783  33.163  60.704
22177DA     SC144057  84.591  33.382  60.595
22177DA     SC244058  84.550  33.626  60.629
22177DA     SC344059  84.319  33.580  60.527
22177DA     SC444060  84.452  33.334  60.530
22178DT     BB144061  84.849  33.101  60.926
22178DT     BB244062  84.900  33.436  61.052
22178DT     BB344063  84.756  33.481  61.193
22178DT     SC144064  84.573  33.511  61.007
22178DT     SC244065  84.519  33.719  60.993
22178DT     SC344066  84.354  33.471  60.866
22179DG     BB144067  85.076  33.508  61.462
22179DG     BB244068  84.876  33.809  61.480
22179DG     BB344069  84.728  33.784  61.611
22179DG     SC144070  84.531  33.674  61.404
22179DG     SC244071  84.280  33.808  61.312
22179DG     SC344072  84.296  33.532  61.208
22179DG     SC444073  84.528  33.516  61.375
22180DT     BB144074  84.670  33.900  61.851
22180DT     BB244075  84.413  34.126  61.738
22180DT     BB344076  84.231  34.074  61.822
22180DT     SC144077  84.207  33.867  61.662
22180DT     SC244078  84.048  33.904  61.522
22180DT     SC344079  84.188  33.617  61.580
22181DA     BB144080  84.279  34.478  61.920
22181DA     BB244081  83.953  34.442  61.756
22181DA     BB344082  83.810  34.360  61.891
22181DA     SC144083  83.869  34.064  61.813
22181DA     SC244084  83.754  33.879  61.693
22181DA     SC344085  83.918  33.724  61.815
22181DA     SC444086  83.979  33.985  61.899
22182DC     BB144087  83.662  34.478  61.936
22182DC     BB244088  83.420  34.315  61.723
22182DC     BB344089  83.291  34.201  61.837
22182DC     SC144090  83.474  34.017  61.876
22182DC     SC244091  83.419  33.839  61.769
22182DC     SC344092  83.645  33.860  62.000
22183DT     BB144093  83.119  34.384  61.761
22183DT     BB244094  82.990  34.071  61.637
22183DT     BB344095  82.890  33.971  61.787
22183DT     SC144096  83.115  33.904  61.904
22183DT     SC244097  83.145  33.692  61.885
22183DT     SC344098  83.305  33.888  62.086
22184DA     BB144099  82.682  33.992  61.422
22184DA     BB244100  82.678  33.645  61.542
22184DA     BB344101  82.558  33.630  61.718
22184DA     SC144102  82.794  33.682  61.914
22184DA     SC244103  82.927  33.554  62.081
22184DA     SC344104  82.990  33.784  62.177
22184DA     SC444105  82.820  33.834  61.959
22185DG     BB144106  82.435  33.434  61.516
22185DG     BB244107  82.534  33.195  61.769
22185DG     BB344108  82.410  33.204  61.924
22185DG     SC144109  82.573  33.417  62.072
22185DG     SC244110  82.719  33.378  62.330
22185DG     SC344111  82.716  33.663  62.252
22185DG     SC444112  82.544  33.571  62.043
22186DG     BB144113  82.377  32.889  61.858
22186DG     BB244114  82.504  32.835  62.192
22186DG     BB344115  82.361  32.871  62.325
22186DG     SC144116  82.431  33.168  62.355
22186DG     SC244117  82.542  33.298  62.600
22186DG     SC344118  82.467  33.501  62.397
22186DG     SC444119  82.363  33.274  62.257
22187DA     BB144120  82.459  32.562  62.443
22187DA     BB244121  82.528  32.711  62.770
22187DA     BB344122  82.346  32.763  62.869
22187DA     SC144123  82.336  33.051  62.752
22187DA     SC244124  82.362  33.285  62.835
22187DA     SC344125  82.236  33.353  62.623
22187DA     SC444126  82.255  33.073  62.615
22188DA     BB144127  82.499  32.584  63.097
22188DA     BB244128  82.475  32.880  63.312
22188DA     BB344129  82.273  32.912  63.373
22188DA     SC144130  82.203  33.096  63.132
22188DA     SC244131  82.152  33.337  63.093
22188DA     SC344132  82.046  33.257  62.873
22188DA     SC444133  82.141  33.026  63.001
22189DG     BB144134  82.395  32.880  63.657
22189DG     BB244135  82.280  33.220  63.697
22189DG     BB344136  82.085  33.221  63.736
22189DG     SC144137  82.001  33.235  63.442
22189DG     SC244138  81.865  33.465  63.308
22189DG     SC344139  81.874  33.230  63.129
22189DG     SC444140  81.981  33.099  63.360
22190DA     BB144141  82.154  33.423  64.014
22190DA     BB244142  81.932  33.684  63.883
22190DA     BB344143  81.728  33.628  63.911
22190DA     SC144144  81.704  33.486  63.635
22190DA     SC244145  81.588  33.524  63.418
22190DA     SC344146  81.624  33.273  63.378
22190DA     SC444147  81.734  33.328  63.630
22191DA     BB144148  81.676  33.915  64.078
22191DA     BB244149  81.429  34.007  63.824
22191DA     BB344150  81.242  33.911  63.864
22191DA     SC144151  81.308  33.660  63.691
22191DA     SC244152  81.232  33.558  63.477
22191DA     SC344153  81.334  33.341  63.567
22191DA     SC444154  81.376  33.534  63.766
22192DT     BB144155  81.046  34.012  63.932
22192DT     BB244156  80.875  33.985  63.615
22192DT     BB344157  80.718  33.850  63.630
22192DT     SC144158  80.883  33.646  63.630
22192DT     SC244159  80.862  33.537  63.445
22192DT     SC344160  81.013  33.432  63.711
22193DG     BB144161  80.529  34.197  63.523
22193DG     BB244162  80.440  33.927  63.299
22193DG     BB344163  80.296  33.817  63.379
22193DG     SC144164  80.488  33.625  63.521
22193DG     SC244165  80.526  33.336  63.459
22193DG     SC344166  80.670  33.409  63.706
22193DG     SC444167  80.539  33.662  63.669
22194DA     BB144168  80.121  33.862  63.084
22194DA     BB244169  80.120  33.500  63.027
22194DA     BB344170  79.972  33.406  63.149
22194DA     SC144171  80.166  33.356  63.388
22194DA     SC244172  80.276  33.161  63.498
22194DA     SC344173  80.304  33.317  63.699
22194DA     SC444174  80.173  33.468  63.503
22195DA     BB144175  79.892  33.292  62.855
22195DA     BB244176  79.955  32.957  62.989
22195DA     BB344177  79.797  32.898  63.119
22195DA     SC144178  79.931  33.013  63.375
22195DA     SC244179  80.037  32.925  63.583
22195DA     SC344180  79.994  33.159  63.679
22195DA     SC444181  79.895  33.164  63.417
22196DC     BB144182  79.691  32.748  63.058
22196DC     BB244183  79.816  32.503  63.291
22196DC     BB344184  79.679  32.473  63.443
22196DC     SC144185  79.740  32.702  63.555
22196DC     SC244186  79.843  32.666  63.741
22196DC     SC344187  79.716  32.948  63.646
22197DA     BB144188  79.775  32.093  63.292
22197DA     BB244189  79.792  32.074  63.657
22197DA     BB344190  79.596  32.077  63.741
22197DA     SC144191  79.585  32.386  63.769
22197DA     SC244192  79.587  32.555  63.953
22197DA     SC344193  79.487  32.715  63.780
22197DA     SC444194  79.522  32.470  63.648
22198DC     BB144195  79.503  31.905  63.842
22198DC     BB244196  79.523  32.033  64.179
22198DC     BB344197  79.334  32.085  64.246
22198DC     SC144198  79.332  32.301  64.097
22198DC     SC244199  79.344  32.475  64.224
22198DC     SC344200  79.261  32.473  63.910
22199DA     BB144201  79.448  31.816  64.552
22199DA     BB244202  79.321  32.117  64.719
22199DA     BB344203  79.107  32.117  64.718
22199DA     SC144204  79.085  32.271  64.449
22199DA     SC244205  79.013  32.497  64.371
22199DA     SC344206  78.987  32.387  64.141
22199DA     SC444207  79.073  32.184  64.314
22200DA     BB144208  79.101  32.143  65.054
22200DA     BB244209  78.940  32.470  65.015
22200DA     BB344210  78.730  32.447  64.988
22200DA     SC144211  78.746  32.431  64.678
22200DA     SC244212  78.682  32.571  64.482
22200DA     SC344213  78.696  32.354  64.347
22200DA     SC444214  78.759  32.285  64.612
22201DT     BB144215  78.588  32.516  65.134
22201DT     BB244216  78.488  32.810  64.950
22201DT     BB344217  78.295  32.785  64.878
22201DT     SC144218  78.378  32.620  64.691
22201DT     SC244219  78.360  32.715  64.499
22201DT     SC344220  78.408  32.398  64.552
22202DT     BB144221  78.216  32.969  65.056
22202DT     BB244222  78.124  33.105  64.735
22202DT     BB344223  77.940  33.031  64.677
22202DT     SC144224  78.043  32.797  64.618
22202DT     SC244225  78.039  32.769  64.405
22202DT     SC344226  78.091  32.538  64.626
22203DT     BB144227  77.855  33.277  64.719
22203DT     BB244228  77.778  33.208  64.373
22203DT     BB344229  77.600  33.102  64.360
22203DT     SC144230  77.716  32.882  64.444
22203DT     SC244231  77.725  32.741  64.282
22203DT     SC344232  77.772  32.674  64.596
22204DT     BB144233  77.504  33.325  64.257
22204DT     BB244234  77.444  33.071  64.008
22204DT     BB344235  77.272  32.966  64.055
22204DT     SC144236  77.395  32.836  64.247
22204DT     SC244237  77.418  32.630  64.191
22204DT     SC344238  77.456  32.751  64.489
22205DG     BB144239  77.225  33.123  63.681
22205DG     BB244240  77.158  32.767  63.686
22205DG     BB344241  76.979  32.733  63.765
22205DG     SC144242  77.083  32.710  64.052
22205DG     SC244243  77.084  32.462  64.219
22205DG     SC344244  77.160  32.698  64.380
22205DG     SC444245  77.095  32.842  64.141
22206DC     BB144246  76.810  32.640  63.648
22206DC     BB244247  76.803  32.307  63.788
22206DC     BB344248  76.643  32.289  63.918
22206DC     SC144249  76.765  32.431  64.102
22206DC     SC244250  76.819  32.304  64.267
22206DC     SC344251  76.817  32.628  64.270
22207DA     BB144252  76.606  31.969  63.649
22207DA     BB244253  76.581  31.833  63.988
22207DA     BB344254  76.391  31.880  64.073
22207DA     SC144255  76.487  32.147  64.201
22207DA     SC244256  76.530  32.238  64.429
22207DA     SC344257  76.509  32.469  64.319
22207DA     SC444258  76.469  32.281  64.114
22208DT     BB144259  76.258  31.728  64.114
22208DT     BB244260  76.309  31.728  64.471
22208DT     BB344261  76.146  31.812  64.566
22208DT     SC144262  76.218  32.053  64.494
22208DT     SC244263  76.282  32.164  64.666
22208DT     SC344264  76.211  32.290  64.376
22209DA     BB144265  76.250  31.443  64.736
22209DA     BB244266  76.222  31.692  65.004
22209DA     BB344267  76.018  31.746  65.034
22209DA     SC144268  76.025  31.982  64.832
22209DA     SC244269  76.016  32.231  64.839
22209DA     SC344270  75.948  32.215  64.592
22209DA     SC444271  75.983  31.951  64.680
22210DA     BB144272  76.159  31.668  65.317
22210DA     BB244273  76.074  32.010  65.417
22210DA     BB344274  75.862  32.033  65.432
22210DA     SC144275  75.827  32.124  65.136
22210DA     SC244276  75.768  32.332  65.013
22210DA     SC344277  75.712  32.176  64.817
22210DA     SC444278  75.796  32.010  65.027
22211DG     BB144279  75.987  32.109  65.701
22211DG     BB244280  75.839  32.428  65.616
22211DG     BB344281  75.641  32.419  65.635
22211DG     SC144282  75.594  32.328  65.347
22211DG     SC244283  75.456  32.486  65.134
22211DG     SC344284  75.506  32.209  65.043
22211DG     SC444285  75.595  32.172  65.313
22212DT     BB144286  75.577  32.549  65.766
22212DT     BB244287  75.407  32.792  65.561
22212DT     BB344288  75.205  32.746  65.549
22212DT     SC144289  75.252  32.548  65.384
22212DT     SC244290  75.177  32.598  65.189
22212DT     SC344291  75.265  32.302  65.288
22213DA     BB144292  75.249  33.151  65.655
22213DA     BB244293  74.998  33.128  65.389
22213DA     BB344294  74.820  33.038  65.462
22213DA     SC144295  74.907  32.748  65.389
22213DA     SC244296  74.842  32.572  65.224
22213DA     SC344297  74.959  32.409  65.384
22213DA     SC444298  74.983  32.662  65.501
22214DT     BB144299  74.653  33.149  65.475
22214DT     BB244300  74.474  32.998  65.201
22214DT     BB344301  74.328  32.870  65.273
22214DT     SC144302  74.507  32.689  65.338
22214DT     SC244303  74.487  32.519  65.208
22214DT     SC344304  74.655  32.528  65.485
22215DA     BB144305  74.124  33.126  65.010
22215DA     BB244306  74.025  32.783  64.929
22215DA     BB344307  73.891  32.707  65.077
22215DA     SC144308  74.117  32.588  65.255
22215DA     SC244309  74.200  32.362  65.320
22215DA     SC344310  74.310  32.482  65.518
22215DA     SC444311  74.176  32.680  65.372
22216DT     BB144312  73.688  32.666  65.034
22216DT     BB244313  73.716  32.306  65.034
22216DT     BB344314  73.628  32.228  65.204
22216DT     SC144315  73.829  32.306  65.353
22216DT     SC244316  73.939  32.134  65.421
22216DT     SC344317  73.964  32.434  65.540
22217DT     BB144318  73.415  32.132  65.061
22217DT     BB244319  73.549  31.841  65.227
22217DT     BB344320  73.464  31.822  65.415
22217DT     SC144321  73.608  32.020  65.509
22217DT     SC244322  73.753  31.943  65.648
22217DT     SC344323  73.670  32.254  65.614
22218DT     BB144324  73.312  31.607  65.336
22218DT     BB244325  73.501  31.483  65.617
22218DT     BB344326  73.398  31.521  65.793
22218DT     SC144327  73.461  31.776  65.784
22218DT     SC244328  73.600  31.821  65.942
22218DT     SC344329  73.433  32.037  65.767
22219DT     BB144330  73.334  31.256  65.822
22219DT     BB244331  73.506  31.339  66.127
22219DT     BB344332  73.372  31.414  66.266
22219DT     SC144333  73.356  31.643  66.140
22219DT     SC244334  73.449  31.796  66.258
22219DT     SC344335  73.254  31.845  66.004
22220DT     BB144336  73.386  31.184  66.416
22220DT     BB244337  73.479  31.446  66.646
22220DT     BB344338  73.310  31.524  66.735
22220DT     SC144339  73.244  31.654  66.517
22220DT     SC244340  73.270  31.865  66.549
22220DT     SC344341  73.108  31.728  66.303
22221DG     BB144342  73.544  31.388  67.041
22221DG     BB244343  73.450  31.734  67.091
22221DG     BB344344  73.264  31.744  67.160
22221DG     SC144345  73.135  31.757  66.883
22221DG     SC244346  72.989  31.991  66.768
22221DG     SC344347  72.959  31.753  66.595
22221DG     SC444348  73.097  31.621  66.808
22222DC     BB144349  73.224  31.831  67.357
22222DC     BB244350  73.084  32.151  67.267
22222DC     BB344351  72.878  32.147  67.290
22222DC     SC144352  72.849  32.003  67.072
22222DC     SC244353  72.756  32.122  66.919
22222DC     SC344354  72.788  31.800  66.915
22223DT     BB144355  72.906  32.307  67.503
22223DT     BB244356  72.685  32.487  67.281
22223DT     BB344357  72.490  32.424  67.309
22223DT     SC144358  72.536  32.198  67.182
22223DT     SC244359  72.431  32.199  66.995
22223DT     SC344360  72.563  31.940  67.137
22224DA     BB144361  72.490  32.843  67.337
22224DA     BB244362  72.222  32.745  67.107
22224DA     BB344363  72.060  32.659  67.215
22224DA     SC144364  72.168  32.368  67.193
22224DA     SC244365  72.107  32.156  67.075
22224DA     SC344366  72.252  32.040  67.252
22224DA     SC444367  72.261  32.314  67.313
22225DC     BB144368  71.877  32.756  67.223
22225DC     BB244369  71.703  32.537  66.995
22225DC     BB344370  71.574  32.414  67.099
22225DC     SC144371  71.772  32.267  67.187
22225DC     SC244372  71.764  32.073  67.095
22225DC     SC344373  71.941  32.152  67.354
22226DA     BB144374  71.341  32.596  66.801
22226DA     BB244375  71.280  32.235  66.786
22226DA     BB344376  71.157  32.174  66.949
22226DA     SC144377  71.396  32.113  67.139
22226DA     SC244378  71.504  31.913  67.241
22226DA     SC344379  71.602  32.079  67.411
22226DA     SC444380  71.445  32.232  67.236
22227DA     BB144381  70.977  32.051  66.704
22227DA     BB244382  71.043  31.721  66.849
22227DA     BB344383  70.922  31.690  67.022
22227DA     SC144384  71.133  31.806  67.220
22227DA     SC244385  71.284  31.721  67.399
22227DA     SC344386  71.291  31.965  67.480
22227DA     SC444387  71.124  31.963  67.255
22228DC     BB144388  70.790  31.548  67.008
22228DC     BB244389  70.969  31.309  67.210
22228DC     BB344390  70.884  31.297  67.399
22228DC     SC144391  70.987  31.528  67.469
22228DC     SC244392  71.139  31.496  67.617
22228DC     SC344393  71.002  31.780  67.544
22229DA     BB144394  70.951  30.923  67.221
22229DA     BB244395  71.091  30.920  67.560
22229DA     BB344396  70.934  30.925  67.705
22229DA     SC144397  70.928  31.236  67.723
22229DA     SC244398  70.988  31.412  67.888
22229DA     SC344399  70.832  31.564  67.753
22229DA     SC444400  70.826  31.314  67.626
22230DA     BB144401  71.152  30.689  67.767
22230DA     BB244402  71.199  30.862  68.086
22230DA     BB344403  71.020  30.853  68.202
22230DA     SC144404  70.904  31.119  68.089
22230DA     SC244405  70.859  31.351  68.170
22230DA     SC344406  70.698  31.367  67.971
22230DA     SC444407  70.808  31.109  67.960
22231DT     BB144408  71.074  30.771  68.334
22231DT     BB244409  71.064  31.044  68.568
22231DT     BB344410  70.877  31.055  68.656
22231DT     SC144411  70.771  31.156  68.438
22231DT     SC244412  70.718  31.362  68.473
22231DT     SC344413  70.620  31.180  68.224
22232DT     BB144414  71.016  30.981  68.861
22232DT     BB244415  70.851  31.286  68.959
22232DT     BB344416  70.653  31.248  69.005
22232DT     SC144417  70.591  31.222  68.752
22232DT     SC244418  70.468  31.388  68.691
22232DT     SC344419  70.510  31.113  68.526
22233DC     BB144420  70.730  31.298  69.251
22233DC     BB244421  70.458  31.526  69.187
22233DC     BB344422  70.277  31.428  69.209
22233DC     SC144423  70.308  31.302  68.980
22233DC     SC244424  70.166  31.378  68.837
22233DC     SC344425  70.339  31.106  68.807
22234DA     BB144426  70.264  31.781  69.437
22234DA     BB244427  69.956  31.761  69.240
22234DA     BB344428  69.830  31.606  69.314
22234DA     SC144429  69.949  31.386  69.129
22234DA     SC244430  69.876  31.251  68.932
22234DA     SC344431  70.066  31.091  68.997
22234DA     SC444432  70.071  31.299  69.186
22235DT     BB144433  69.659  31.660  69.394
22235DT     BB244434  69.445  31.548  69.126
22235DT     BB344435  69.356  31.368  69.178
22235DT     SC144436  69.579  31.236  69.139
22235DT     SC244437  69.559  31.111  68.965
22235DT     SC344438  69.792  31.089  69.189
22236DA     BB144439  69.050  31.629  69.054
22236DA     BB244440  69.004  31.309  68.881
22236DA     BB344441  68.934  31.161  69.017
22236DA     SC144442  69.220  31.064  69.095
22236DA     SC244443  69.362  30.862  69.060
22236DA     SC344444  69.496  30.946  69.262
22236DA     SC444445  69.289  31.132  69.223
22237DC     BB144446  68.751  31.087  68.991
22237DC     BB244447  68.849  30.765  68.862
22237DC     BB344448  68.828  30.621  69.010
22237DC     SC144449  69.043  30.706  69.134
22237DC     SC244450  69.199  30.559  69.116
22237DC     SC344451  69.196  30.809  69.323
22238DC     BB144452  68.610  30.516  68.885
22238DC     BB244453  68.838  30.238  68.915
22238DC     BB344454  68.815  30.147  69.099
22238DC     SC144455  68.939  30.343  69.221
22238DC     SC244456  69.129  30.273  69.294
22238DC     SC344457  68.981  30.548  69.382
22239DA     BB144458  68.777  29.835  68.819
22239DA     BB244459  69.018  29.727  69.074
22239DA     BB344460  68.917  29.678  69.255
22239DA     SC144461  68.937  29.964  69.374
22239DA     SC244462  69.059  30.079  69.559
22239DA     SC344463  68.878  30.260  69.538
22239DA     SC444464  68.815  30.065  69.347
22240DA     BB144465  69.071  29.384  69.227
22240DA     BB244466  69.243  29.466  69.541
22240DA     BB344467  69.113  29.434  69.707
22240DA     SC144468  69.000  29.724  69.707
22240DA     SC244469  69.014  29.927  69.851
22240DA     SC344470  68.799  30.001  69.732
22240DA     SC444471  68.866  29.751  69.623
22241DA     BB144472  69.346  29.232  69.832
22241DA     BB244473  69.379  29.466  70.113
22241DA     BB344474  69.226  29.430  70.257
22241DA     SC144475  69.025  29.630  70.130
22241DA     SC244476  68.924  29.852  70.185
22241DA     SC344477  68.742  29.788  70.016
22241DA     SC444478  68.920  29.572  70.022
22242DT     BB144479  69.274  29.358  70.452
22242DT     BB244480  69.230  29.675  70.620
22242DT     BB344481  69.059  29.670  70.737
22242DT     SC144482  68.905  29.690  70.525
22242DT     SC244483  68.811  29.883  70.524
22242DT     SC344484  68.725  29.629  70.342
22243DT     BB144485  69.217  29.667  70.956
22243DT     BB244486  69.013  29.962  70.992
22243DT     BB344487  68.834  29.914  71.083
22243DT     SC144488  68.743  29.802  70.864
22243DT     SC244489  68.584  29.923  70.783
22243DT     SC344490  68.653  29.618  70.698
22244DG     BB144491  69.028  30.206  71.287
22244DG     BB244492  68.689  30.302  71.205
22244DG     BB344493  68.561  30.209  71.326
22244DG     SC144494  68.529  29.964  71.144
22244DG     SC244495  68.280  29.885  70.999
22244DG     SC344496  68.486  29.673  70.980
22244DG     SC444497  68.630  29.841  71.161
22245DT     BB144498  68.448  30.334  71.436
22245DT     BB244499  68.125  30.305  71.279
22245DT     BB344500  68.006  30.172  71.384
22245DT     SC144501  68.140  29.967  71.291
22245DT     SC244502  68.015  29.856  71.155
22245DT     SC344503  68.293  29.752  71.285
22246DA     BB144504  67.801  30.530  71.307
22246DA     BB244505  67.581  30.250  71.222
22246DA     BB344506  67.518  30.149  71.399
22246DA     SC144507  67.755  29.947  71.398
22246DA     SC244508  67.790  29.704  71.359
22246DA     SC344509  68.010  29.735  71.487
22246DA     SC444510  67.887  29.987  71.481
22247DA     BB144511  67.233  30.209  71.249
22247DA     BB244512  67.178  29.846  71.255
22247DA     BB344513  67.138  29.780  71.454
22247DA     SC144514  67.437  29.725  71.522
22247DA     SC244515  67.583  29.527  71.564
22247DA     SC344516  67.740  29.693  71.679
22247DA     SC444517  67.521  29.844  71.590
22248DA     BB144518  66.872  29.649  71.309
22248DA     BB244519  66.989  29.322  71.428
22248DA     BB344520  66.955  29.303  71.638
22248DA     SC144521  67.232  29.419  71.719
22248DA     SC244522  67.444  29.336  71.821
22248DA     SC344523  67.489  29.582  71.877
22248DA     SC444524  67.241  29.577  71.747
22249DG     BB144525  66.767  29.056  71.576
22249DG     BB244526  67.012  28.872  71.767
22249DG     BB344527  66.971  28.886  71.961
22249DG     SC144528  67.139  29.139  72.003
22249DG     SC244529  67.389  29.158  72.166
22249DG     SC344530  67.297  29.427  72.081
22249DG     SC444531  67.071  29.282  71.981
22250DA     BB144532  66.971  28.534  72.004
22250DA     BB244533  67.244  28.557  72.248
22250DA     BB344534  67.168  28.614  72.439
22250DA     SC144535  67.203  28.919  72.390
22250DA     SC244536  67.347  29.105  72.474
22250DA     SC344537  67.164  29.260  72.384
22250DA     SC444538  67.077  28.999  72.329
22251DG     BB144539  67.266  28.339  72.571
22251DG     BB244540  67.485  28.554  72.763
22251DG     BB344541  67.393  28.614  72.929
22251DG     SC144542  67.272  28.864  72.800
22251DG     SC244543  67.342  29.147  72.867
22251DG     SC344544  67.108  29.136  72.687
22251DG     SC444545  67.130  28.853  72.728
22252DC     BB144546  67.458  28.562  73.154
22252DC     BB244547  67.606  28.875  73.254
22252DC     BB344548  67.483  28.971  73.391
22252DC     SC144549  67.313  29.039  73.203
22252DC     SC244550  67.321  29.252  73.173
22252DC     SC344551  67.090  29.054  73.064
22253DA     BB144552  67.865  28.955  73.560
22253DA     BB244553  67.745  29.300  73.588
22253DA     BB344554  67.596  29.315  73.741
22253DA     SC144555  67.358  29.260  73.548
22253DA     SC244556  67.167  29.387  73.451
22253DA     SC344557  67.062  29.156  73.408
22253DA     SC444558  67.310  29.108  73.531
22254DA     BB144559  67.801  29.550  73.841
22254DA     BB244560  67.522  29.784  73.800
22254DA     BB344561  67.382  29.761  73.959
22254DA     SC144562  67.210  29.549  73.809
22254DA     SC244563  66.984  29.535  73.705
22254DA     SC344564  67.011  29.281  73.728
22254DA     SC444565  67.245  29.394  73.833
22255DT     BB144566  67.359  29.913  74.090
22255DT     BB244567  67.036  30.026  73.975
22255DT     BB344568  66.889  29.967  74.108
22255DT     SC144569  66.902  29.718  74.023
22255DT     SC244570  66.722  29.670  73.917
22255DT     SC344571  66.942  29.458  74.024
22256DA     BB144572  66.832  30.381  74.067
22256DA     BB244573  66.504  30.221  74.029
22256DA     BB344574  66.430  30.157  74.218
22256DA     SC144575  66.557  29.874  74.200
22256DA     SC244576  66.480  29.638  74.172
22256DA     SC344577  66.708  29.573  74.269
22256DA     SC444578  66.704  29.854  74.263
22257DC     BB144579  66.252  30.246  74.326
22257DC     BB244580  66.025  29.972  74.264
22257DC     BB344581  65.987  29.871  74.440
22257DC     SC144582  66.223  29.758  74.436
22257DC     SC244583  66.201  29.548  74.396
22257DC     SC344584  66.469  29.693  74.508
22258DA     BB144585  65.596  29.968  74.316
22258DA     BB244586  65.598  29.609  74.392
22258DA     BB344587  65.587  29.578  74.603
22258DA     SC144588  65.895  29.576  74.643
22258DA     SC244589  66.073  29.411  74.702
22258DA     SC344590  66.214  29.616  74.766
22258DA     SC444591  65.966  29.716  74.679
22259DC     BB144592  65.411  29.485  74.709
22259DC     BB244593  65.568  29.164  74.760
22259DC     BB344594  65.606  29.135  74.962
22259DC     SC144595  65.808  29.303  74.955
22259DC     SC244596  65.992  29.194  74.980
22259DC     SC344597  65.956  29.515  75.007
22260DA     BB144598  65.398  28.804  74.816
22260DA     BB244599  65.699  28.684  74.988
22260DA     BB344600  65.676  28.700  75.199
22260DA     SC144601  65.796  28.986  75.215
22260DA     SC244602  66.002  29.095  75.304
22260DA     SC344603  65.865  29.312  75.299
22260DA     SC444604  65.694  29.110  75.206
22261DA     BB144605  65.766  28.393  75.149
22261DA     BB244606  66.059  28.470  75.355
22261DA     BB344607  66.004  28.487  75.560
22261DA     SC144608  65.949  28.793  75.546
22261DA     SC244609  66.051  29.003  75.632
22261DA     SC344610  65.822  29.109  75.589
22261DA     SC444611  65.798  28.840  75.513
22262DA     BB144612  66.254  28.279  75.556
22262DA     BB244613  66.424  28.514  75.779
22262DA     BB344614  66.335  28.511  75.972
22262DA     SC144615  66.131  28.738  75.908
22262DA     SC244616  66.092  28.975  75.974
22262DA     SC344617  65.852  28.937  75.891
22262DA     SC444618  65.986  28.694  75.853
22263DA     BB144619  66.649  28.463  76.050
22263DA     BB244620  66.626  28.766  76.255
22263DA     BB344621  66.513  28.727  76.432
22263DA     SC144622  66.241  28.807  76.304
22263DA     SC244623  66.074  28.992  76.325
22263DA     SC344624  65.909  28.828  76.215
22263DA     SC444625  66.153  28.691  76.236
22264DA     BB144626  66.778  28.844  76.592
22264DA     BB244627  66.561  29.104  76.734
22264DA     BB344628  66.443  29.023  76.892
22264DA     SC144629  66.206  28.943  76.707
22264DA     SC244630  65.971  29.015  76.666
22264DA     SC344631  65.939  28.784  76.560
22264DA     SC444632  66.206  28.794  76.646
22265DA     BB144633  66.564  29.260  77.096
22265DA     BB244634  66.222  29.383  77.140
22265DA     BB344635  66.118  29.265  77.285
22265DA     SC144636  66.006  29.063  77.077
22265DA     SC244637  65.785  29.003  76.979
22265DA     SC344638  65.896  28.780  76.916
22265DA     SC444639  66.093  28.931  77.048
22266DG     BB144640  66.081  29.518  77.479
22266DG     BB244641  65.730  29.471  77.407
22266DG     BB344642  65.649  29.346  77.540
22266DG     SC144643  65.709  29.095  77.376
22266DG     SC244644  65.506  28.916  77.248
22266DG     SC344645  65.776  28.797  77.233
22266DG     SC444646  65.849  29.021  77.396
22267DT     BB144647  65.477  29.403  77.697
22267DT     BB244648  65.193  29.250  77.535
22267DT     BB344649  65.131  29.085  77.643
22267DT     SC144650  65.334  28.942  77.558
22267DT     SC244651  65.264  28.789  77.424
22267DT     SC344652  65.557  28.801  77.562
22268DT     BB144653  64.914  29.227  77.710
22268DT     BB244654  64.785  28.936  77.540
22268DT     BB344655  64.762  28.781  77.675
22268DT     SC144656  65.021  28.738  77.683
22268DT     SC244657  65.065  28.551  77.587
22268DT     SC344658  65.266  28.720  77.778
22269DA     BB144659  64.442  28.852  77.412
22269DA     BB244660  64.518  28.493  77.414
22269DA     BB344661  64.469  28.408  77.603
22269DA     SC144662  64.752  28.456  77.724
22269DA     SC244663  64.948  28.319  77.795
22269DA     SC344664  65.015  28.524  77.934
22269DA     SC444665  64.776  28.593  77.805
22270DT     BB144666  64.359  28.303  77.551
22270DT     BB244667  64.544  28.000  77.617
22270DT     BB344668  64.513  27.939  77.812
22270DT     SC144669  64.670  28.129  77.904
22270DT     SC244670  64.850  28.040  77.982
22270DT     SC344671  64.749  28.344  78.033
22271DT     BB144672  64.394  27.754  77.680
22271DT     BB244673  64.625  27.586  77.901
22271DT     BB344674  64.551  27.587  78.094
22271DT     SC144675  64.610  27.841  78.124
22271DT     SC244676  64.772  27.861  78.264
22271DT     SC344677  64.579  28.100  78.161
22272DT     BB144678  64.499  27.325  78.069
22272DT     BB244679  64.694  27.350  78.371
22272DT     BB344680  64.571  27.397  78.531
22272DT     SC144681  64.550  27.646  78.451
22272DT     SC244682  64.654  27.774  78.588
22272DT     SC344683  64.442  27.870  78.363
22273DA     BB144684  64.766  27.049  78.668
22273DA     BB244685  64.783  27.296  78.938
22273DA     BB344686  64.593  27.313  79.034
22273DA     SC144687  64.493  27.541  78.848
22273DA     SC244688  64.442  27.785  78.866
22273DA     SC344689  64.302  27.751  78.654
22273DA     SC444690  64.409  27.499  78.717
22274DT     BB144691  64.549  27.248  79.242
22274DT     BB244692  64.534  27.578  79.387
22274DT     BB344693  64.338  27.625  79.436
22274DT     SC144694  64.277  27.665  79.184
22274DT     SC244695  64.241  27.874  79.151
22274DT     SC344696  64.160  27.634  78.949
22275DT     BB144697  64.378  27.595  79.709
22275DT     BB244698  64.255  27.933  79.674
22275DT     BB344699  64.049  27.934  79.685
22275DT     SC144700  64.028  27.835  79.443
22275DT     SC244701  63.948  27.985  79.311
22275DT     SC344702  63.969  27.668  79.248
22276DG     BB144703  64.182  28.180  79.982
22276DG     BB244704  63.943  28.348  79.769
22276DG     BB344705  63.758  28.290  79.817
22276DG     SC144706  63.755  28.054  79.622
22276DG     SC244707  63.582  28.030  79.380
22276DG     SC344708  63.724  27.776  79.435
22276DG     SC444709  63.809  27.912  79.672
22277DA     BB144710  63.692  28.630  79.835
22277DA     BB244711  63.437  28.592  79.574
22277DA     BB344712  63.262  28.499  79.655
22277DA     SC144713  63.355  28.210  79.588
22277DA     SC244714  63.292  28.027  79.431
22277DA     SC344715  63.416  27.872  79.593
22277DA     SC444716  63.436  28.130  79.702
22278DA     BB144717  63.125  28.767  79.521
22278DA     BB244718  62.929  28.538  79.312
22278DA     BB344719  62.776  28.444  79.428
22278DA     SC144720  62.952  28.201  79.509
22278DA     SC244721  62.963  27.957  79.461
22278DA     SC344722  63.100  27.940  79.677
22278DA     SC444723  63.034  28.211  79.647
22279DA     BB144724  62.578  28.562  79.191
22279DA     BB244725  62.485  28.215  79.120
22279DA     BB344726  62.351  28.142  79.268
22279DA     SC144727  62.575  28.031  79.453
22279DA     SC244728  62.661  27.809  79.526
22279DA     SC344729  62.766  27.937  79.722
22279DA     SC444730  62.631  28.129  79.568
22280DG     BB144731  62.136  28.100  79.039
22280DG     BB244732  62.177  27.751  79.124
22280DG     BB344733  62.059  27.704  79.277
22280DG     SC144734  62.267  27.773  79.490
22280DG     SC244735  62.400  27.579  79.675
22280DG     SC344736  62.464  27.858  79.751
22280DG     SC444737  62.275  27.923  79.546
22281DA     BB144738  61.922  27.439  79.093
22281DA     BB244739  62.044  27.199  79.342
22281DA     BB344740  61.915  27.195  79.511
22281DA     SC144741  62.070  27.416  79.666
22281DA     SC244742  62.215  27.432  79.868
22281DA     SC344743  62.158  27.683  79.863
22281DA     SC444744  62.022  27.568  79.647
22282DT     BB144745  61.807  27.024  79.553
22282DT     BB244746  62.009  26.914  79.831
22282DT     BB344747  61.908  26.947  80.009
22282DT     SC144748  61.954  27.205  79.997
22282DT     SC244749  62.093  27.260  80.151
22282DT     SC344750  61.910  27.464  79.979
22283DG     BB144751  61.995  26.549  79.990
22283DG     BB244752  62.112  26.696  80.299
22283DG     BB344753  61.960  26.720  80.424
22283DG     SC144754  61.891  27.001  80.326
22283DG     SC244755  61.919  27.254  80.483
22283DG     SC344756  61.775  27.303  80.229
22283DG     SC444757  61.789  27.018  80.203
22284DC     BB144758  61.957  26.614  80.616
22284DC     BB244759  62.035  26.881  80.846
22284DC     BB344760  61.863  26.945  80.942
22284DC     SC144761  61.780  27.070  80.727
22284DC     SC244762  61.788  27.282  80.760
22284DC     SC344763  61.630  27.134  80.519
22285DA     BB144764  62.140  26.861  81.246
22285DA     BB244765  61.999  27.193  81.312
22285DA     BB344766  61.799  27.176  81.385
22285DA     SC144767  61.669  27.189  81.103
22285DA     SC244768  61.529  27.348  80.972
22285DA     SC344769  61.466  27.144  80.830
22285DA     SC444770  61.641  27.050  81.028
22286DA     BB144771  61.912  27.357  81.638
22286DA     BB244772  61.671  27.614  81.537
22286DA     BB344773  61.475  27.562  81.602
22286DA     SC144774  61.402  27.409  81.341
22286DA     SC244775  61.250  27.439  81.146
22286DA     SC344776  61.277  27.186  81.112
22286DA     SC444777  61.430  27.251  81.338
22287DT     BB144778  61.376  27.677  81.748
22287DT     BB244779  61.153  27.844  81.518
22287DT     BB344780  60.961  27.770  81.540
22287DT     SC144781  61.023  27.548  81.416
22287DT     SC244782  60.924  27.542  81.225
22287DT     SC344783  61.065  27.291  81.373
22288DC     BB144784  60.891  28.005  81.652
22288DC     BB244785  60.681  27.972  81.360
22288DC     BB344786  60.511  27.864  81.407
22288DC     SC144787  60.647  27.639  81.412
22288DC     SC244788  60.589  27.517  81.245
22288DC     SC344789  60.756  27.417  81.504
22289DA     BB144790  60.444  28.220  81.196
22289DA     BB244791  60.271  27.945  81.026
22289DA     BB344792  60.108  27.875  81.145
22289DA     SC144793  60.277  27.661  81.294
22289DA     SC244794  60.294  27.412  81.302
22289DA     SC344795  60.410  27.448  81.529
22289DA     SC444796  60.345  27.704  81.433
22290DT     BB144797  60.004  27.907  81.033
22290DT     BB244798  59.932  27.566  80.943
22290DT     BB344799  59.790  27.487  81.071
22290DT     SC144800  59.966  27.464  81.264
22290DT     SC244801  60.007  27.256  81.299
22290DT     SC344802  60.086  27.501  81.496
22291DA     BB144803  59.751  27.412  80.651
22291DA     BB244804  59.696  27.102  80.839
22291DA     BB344805  59.523  27.120  80.962
22291DA     SC144806  59.680  27.227  81.209
22291DA     SC244807  59.744  27.146  81.436
22291DA     SC344808  59.778  27.394  81.492
22291DA     SC444809  59.694  27.386  81.225
22292DG     BB144810  59.469  26.875  80.782
22292DG     BB244811  59.455  26.708  81.103
22292DG     BB344812  59.287  26.757  81.198
22292DG     SC144813  59.408  27.001  81.338
22292DG     SC244814  59.453  27.030  81.631
22292DG     SC344815  59.501  27.286  81.491
22292DG     SC444816  59.404  27.143  81.264
22293DG     BB144817  59.220  26.436  81.209
22293DG     BB244818  59.222  26.473  81.569
22293DG     BB344819  59.050  26.551  81.630
22293DG     SC144820  59.145  26.841  81.607
22293DG     SC244821  59.186  27.031  81.833
22293DG     SC344822  59.209  27.171  81.574
22293DG     SC444823  59.127  26.918  81.467
22294DT     BB144824  58.907  26.441  81.764
22294DT     BB244825  58.955  26.612  82.077
22294DT     BB344826  58.796  26.740  82.113
22294DT     SC144827  58.884  26.911  81.934
22294DT     SC244828  58.953  27.089  82.034
22294DT     SC344829  58.893  27.060  81.717
22295DT     BB144830  58.703  26.576  82.308
22295DT     BB244831  58.750  26.894  82.472
22295DT     BB344832  58.581  27.010  82.449
22295DT     SC144833  58.640  27.061  82.198
22295DT     SC244834  58.695  27.267  82.178
22295DT     SC344835  58.621  27.066  81.935
22296DG     BB144836  58.658  26.969  82.846
22296DG     BB244837  58.625  27.316  82.752
22296DG     BB344838  58.433  27.362  82.727
22296DG     SC144839  58.428  27.289  82.430
22296DG     SC244840  58.390  27.479  82.203
22296DG     SC344841  58.383  27.199  82.108
22296DG     SC444842  58.395  27.138  82.388
22297DA     BB144843  58.525  27.621  82.935
22297DA     BB244844  58.415  27.859  82.678
22297DA     BB344845  58.202  27.858  82.663
22297DA     SC144846  58.193  27.637  82.445
22297DA     SC244847  58.137  27.619  82.203
22297DA     SC344848  58.108  27.368  82.249
22297DA     SC444849  58.178  27.485  82.494
22298DT     BB144850  58.137  28.020  82.711
22298DT     BB244851  58.035  28.131  82.384
22298DT     BB344852  57.834  28.092  82.355
22298DT     SC144853  57.880  27.836  82.322
22298DT     SC244854  57.844  27.783  82.116
22298DT     SC344855  57.876  27.576  82.363
22299DA     BB144856  57.898  28.497  82.259
22299DA     BB244857  57.694  28.349  81.993
22299DA     BB344858  57.497  28.309  82.065
22299DA     SC144859  57.563  28.020  82.159
22299DA     SC244860  57.507  27.787  82.092
22299DA     SC344861  57.578  27.723  82.330
22299DA     SC444862  57.610  28.001  82.312
22300DT     BB144863  57.319  28.416  81.999
22300DT     BB244864  57.172  28.150  81.805
22300DT     BB344865  57.009  28.071  81.906
22300DT     SC144866  57.165  27.945  82.076
22300DT     SC244867  57.153  27.733  82.041
22300DT     SC344868  57.279  27.876  82.303
22301DA     BB144869  56.803  28.175  81.549
22301DA     BB244870  56.708  27.829  81.624
22301DA     BB344871  56.556  27.824  81.773
22301DA     SC144872  56.756  27.808  82.011
22301DA     SC244873  56.827  27.641  82.182
22301DA     SC344874  56.914  27.843  82.314
22301DA     SC444875  56.802  27.947  82.079
22302DT     BB144876  56.326  27.759  81.751
22302DT     BB244877  56.365  27.438  81.911
22302DT     BB344878  56.261  27.435  82.090
22302DT     SC144879  56.443  27.585  82.207
22302DT     SC244880  56.550  27.468  82.352
22302DT     SC344881  56.553  27.791  82.329
22303DT     BB144882  56.059  27.268  81.994
22303DT     BB244883  56.196  27.088  82.275
22303DT     BB344884  56.094  27.138  82.447
22303DT     SC144885  56.213  27.372  82.460
22303DT     SC244886  56.348  27.374  82.627
22303DT     SC344887  56.247  27.633  82.460
22304DA     BB144888  56.111  26.722  82.412
22304DA     BB244889  56.222  26.812  82.750
22304DA     BB344890  56.056  26.875  82.868
22304DA     SC144891  56.084  27.175  82.792
22304DA     SC244892  56.151  27.388  82.902
22304DA     SC344893  56.025  27.504  82.711
22304DA     SC444894  56.000  27.228  82.665
22305DT     BB144895  56.024  26.760  83.010
22305DT     BB244896  56.145  26.976  83.273
22305DT     BB344897  55.985  27.069  83.366
22305DT     SC144898  55.950  27.232  83.163
22305DT     SC244899  56.005  27.431  83.221
22305DT     SC344900  55.836  27.350  82.957
22306DT     BB144901  56.035  26.913  83.578
22306DT     BB244902  56.044  27.249  83.709
22306DT     BB344903  55.852  27.313  83.754
22306DT     SC144904  55.796  27.347  83.500
22306DT     SC244905  55.777  27.557  83.459
22306DT     SC344906  55.680  27.316  83.265
22307DA     BB144907  56.061  27.376  84.115
22307DA     BB244908  55.868  27.681  84.046
22307DA     BB344909  55.662  27.649  84.089
22307DA     SC144910  55.592  27.554  83.801
22307DA     SC244911  55.464  27.639  83.604
22307DA     SC344912  55.459  27.395  83.527
22307DA     SC444913  55.598  27.396  83.771
22308DG     BB144914  55.634  27.870  84.334
22308DG     BB244915  55.407  28.040  84.109
22308DG     BB344916  55.221  27.979  84.142
22308DG     SC144917  55.235  27.748  83.941
22308DG     SC244918  55.081  27.727  83.687
22308DG     SC344919  55.222  27.474  83.745
22308DG     SC444920  55.288  27.605  83.991
22309DT     BB144921  54.982  28.099  84.244
22309DT     BB244922  54.813  28.149  83.929
22309DT     BB344923  54.641  28.034  83.922
22309DT     SC144924  54.780  27.814  83.884
22309DT     SC244925  54.748  27.743  83.684
22309DT     SC344926  54.882  27.574  83.926
22310DC     BB144927  54.429  28.239  83.962
22310DC     BB244928  54.357  28.097  83.638
22310DC     BB344929  54.212  27.951  83.656
22310DC     SC144930  54.384  27.782  83.761
22310DC     SC244931  54.422  27.623  83.621
22310DC     SC344932  54.499  27.622  83.936
22311DG     BB144933  54.087  28.234  83.396
22311DG     BB244934  54.102  27.907  83.242
22311DG     BB344935  53.941  27.801  83.293
22311DG     SC144936  54.070  27.681  83.544
22311DG     SC244937  54.139  27.394  83.585
22311DG     SC344938  54.172  27.547  83.836
22311DG     SC444939  54.058  27.760  83.683
22312DT     BB144940  53.857  27.751  83.132
22312DT     BB244941  53.946  27.402  83.107
22312DT     BB344942  53.795  27.285  83.187
22312DT     SC144943  53.864  27.350  83.432
22312DT     SC244944  53.949  27.178  83.530
22312DT     SC344945  53.851  27.450  83.676
22313DC     BB144946  53.804  27.231  82.938
22313DC     BB244947  53.862  26.921  83.113
22313DC     BB344948  53.685  26.853  83.196
22313DC     SC144949  53.694  27.034  83.386
22313DC     SC244950  53.733  26.937  83.574
22313DC     SC344951  53.628  27.241  83.534
22314DC     BB144952  53.724  26.672  83.014
22314DC     BB244953  53.694  26.493  83.326
22314DC     BB344954  53.495  26.478  83.380
22314DC     SC144955  53.488  26.730  83.453
22314DC     SC244956  53.469  26.742  83.666
22314DC     SC344957  53.421  26.985  83.458
22315DT     BB144958  53.515  26.220  83.319
22315DT     BB244959  53.392  26.226  83.658
22315DT     BB344960  53.187  26.253  83.658
22315DT     SC144961  53.212  26.507  83.597
22315DT     SC244962  53.154  26.627  83.765
22315DT     SC344963  53.194  26.733  83.461
22316DT     BB144964  53.137  25.990  83.727
22316DT     BB244965  52.963  26.181  83.979
22316DT     BB344966  52.771  26.224  83.915
22316DT     SC144967  52.859  26.407  83.749
22316DT     SC244968  52.800  26.601  83.819
22316DT     SC344969  52.911  26.532  83.523
22317DT     BB144970  52.644  26.038  84.084
22317DT     BB244971  52.485  26.351  84.166
22317DT     BB344972  52.319  26.380  84.047
22317DT     SC144973  52.468  26.438  83.839
22317DT     SC244974  52.447  26.647  83.792
22317DT     SC344975  52.578  26.422  83.600
22318DT     BB144976  52.139  26.329  84.253
22318DT     BB244977  52.052  26.660  84.139
22318DT     BB344978  51.911  26.648  83.988
22318DT     SC144979  52.092  26.568  83.815
22318DT     SC244980  52.125  26.724  83.670
22318DT     SC344981  52.219  26.415  83.642
22319DA     BB144982  51.775  26.916  84.279
22319DA     BB244983  51.750  27.080  83.952
22319DA     BB344984  51.589  26.997  83.840
22319DA     SC144985  51.764  26.779  83.703
22319DA     SC244986  51.852  26.729  83.475
22319DA     SC344987  51.881  26.489  83.561
22319DA     SC444988  51.772  26.635  83.775
22320DT     BB144989  51.464  27.124  83.810
22320DT     BB244990  51.537  27.177  83.461
22320DT     BB344991  51.403  27.071  83.344
22320DT     SC144992  51.524  26.844  83.399
22320DT     SC244993  51.623  26.771  83.222
22320DT     SC344994  51.564  26.600  83.491
22321DC     BB144995  51.311  27.309  83.283
22321DC     BB244996  51.400  27.158  82.968
22321DC     BB344997  51.248  27.034  82.904
22321DC     SC144998  51.312  26.851  83.081
22321DC     SC244999  51.395  26.680  82.980
22321DC     SC345000  51.294  26.688  83.288
22322DA     BB145001  51.360  27.294  82.595
22322DA     BB245002  51.343  26.954  82.459
22322DA     BB345003  51.140  26.889  82.446
22322DA     SC145004  51.137  26.763  82.730
22322DA     SC245005  51.127  26.535  82.830
22322DA     SC345006  51.048  26.654  83.043
22322DA     SC445007  51.088  26.855  82.852
22323DC     BB145008  51.076  26.861  82.267
22323DC     BB245009  51.069  26.501  82.278
22323DC     BB345010  50.874  26.435  82.307
22323DC     SC145011  50.881  26.504  82.560
22323DC     SC245012  50.880  26.327  82.682
22323DC     SC345013  50.821  26.629  82.784
22324DA     BB145014  51.040  26.232  81.979
22324DA     BB245015  50.883  25.985  82.199
22324DA     BB345016  50.670  26.000  82.188
22324DA     SC145017  50.649  26.204  82.422
22324DA     SC245018  50.564  26.207  82.657
22324DA     SC345019  50.557  26.462  82.629
22324DA     SC445020  50.651  26.360  82.385
22325DT     BB145021  50.587  25.848  82.114
22325DT     BB245022  50.443  25.719  82.419
22325DT     BB345023  50.243  25.769  82.429
22325DT     SC145024  50.299  26.019  82.487
22325DT     SC245025  50.244  26.059  82.691
22325DT     SC345026  50.315  26.281  82.467
22326DG     BB145027  50.286  25.366  82.463
22326DG     BB245028  50.078  25.501  82.727
22326DG     BB345029  49.898  25.545  82.655
22326DG     SC145030  49.973  25.832  82.577
22326DG     SC245031  49.865  26.081  82.701
22326DG     SC345032  50.026  26.144  82.461
22326DG     SC445033  50.035  25.859  82.432
22327DA     BB145034  49.775  25.359  82.923
22327DA     BB245035  49.578  25.648  83.035
22327DA     BB345036  49.412  25.679  82.904
22327DA     SC145037  49.566  25.872  82.715
22327DA     SC245038  49.564  26.115  82.658
22327DA     SC345039  49.686  26.045  82.443
22327DA     SC445040  49.640  25.808  82.588
22328DG     BB145041  49.214  25.631  83.150
22328DG     BB245042  49.107  25.970  83.082
22328DG     BB345043  48.972  25.970  82.936
22328DG     SC145044  49.178  25.998  82.712
22328DG     SC245045  49.212  26.235  82.533
22328DG     SC345046  49.378  26.009  82.440
22328DG     SC445047  49.243  25.866  82.648
22329DT     BB145048  48.704  26.023  82.923
22329DT     BB245049  48.704  26.340  82.751
22329DT     BB345050  48.626  26.318  82.561
22329DT     SC145051  48.845  26.200  82.476
22329DT     SC245052  48.947  26.330  82.338
22329DT     SC345053  49.005  26.014  82.380
22330DT     BB145054  48.311  26.411  82.549
22330DT     BB245055  48.453  26.602  82.278
22330DT     BB345056  48.410  26.511  82.097
22330DT     SC145057  48.588  26.323  82.141
22330DT     SC245058  48.753  26.349  82.005
22330DT     SC345059  48.692  26.085  82.182
22331DT     BB145060  48.160  26.660  81.942
22331DT     BB245061  48.424  26.676  81.696
22331DT     BB345062  48.394  26.531  81.551
22331DT     SC145063  48.472  26.340  81.713
22331DT     SC245064  48.661  26.263  81.646
22331DT     SC345065  48.464  26.123  81.863
22332DT     BB145066  48.296  26.693  81.318
22332DT     BB245067  48.596  26.536  81.193
22332DT     BB345068  48.547  26.365  81.086
22332DT     SC145069  48.495  26.233  81.306
22332DT     SC245070  48.645  26.082  81.336
22332DT     SC345071  48.360  26.099  81.490
22333DT     BB145072  48.611  26.484  80.844
22333DT     BB245073  48.833  26.201  80.868
22333DT     BB345074  48.745  26.034  80.783
22333DT     SC145075  48.584  26.005  80.989
22333DT     SC245076  48.640  25.828  81.099
22333DT     SC345077  48.362  25.992  81.130
22334DT     BB145078  48.926  26.058  80.589
22334DT     BB245079  48.982  25.731  80.731
22334DT     BB345080  48.854  25.594  80.643
22334DT     SC145081  48.650  25.686  80.779
22334DT     SC245082  48.588  25.539  80.924
22334DT     SC345083  48.416  25.798  80.831
22335DG     BB145084  49.242  25.477  80.605
22335DG     BB245085  49.037  25.218  80.753
22335DG     BB345086  48.926  25.131  80.613
22335DG     SC145087  48.691  25.325  80.644
22335DG     SC245088  48.420  25.256  80.747
22335DG     SC345089  48.424  25.531  80.637
22335DG     SC445090  48.690  25.460  80.558
22336DA     BB145091  49.055  24.840  80.746
22336DA     BB245092  48.715  24.724  80.818
22336DA     BB345093  48.617  24.664  80.638
22336DA     SC145094  48.496  24.945  80.580
22336DA     SC245095  48.271  25.052  80.580
22336DA     SC345096  48.379  25.230  80.430
22336DA     SC445097  48.581  25.044  80.487
22337DT     BB145098  48.574  24.472  80.622
22337DT     BB245099  48.218  24.504  80.674
22337DT     BB345100  48.119  24.487  80.493
22337DT     SC145101  48.193  24.728  80.420
22337DT     SC245102  48.021  24.857  80.417
22337DT     SC345103  48.309  24.921  80.283
22338DT     BB145104  48.028  24.243  80.569
22338DT     BB245105  47.730  24.433  80.497
22338DT     BB345106  47.685  24.419  80.295
22338DT     SC145107  47.880  24.583  80.232
22338DT     SC245108  47.797  24.769  80.162
22338DT     SC345109  48.104  24.672  80.126
22339DT     BB145110  47.478  24.268  80.368
22339DT     BB245111  47.334  24.543  80.185
22339DT     BB345112  47.338  24.504  79.982
22339DT     SC145113  47.597  24.550  79.971
22339DT     SC245114  47.632  24.732  79.861
22339DT     SC345115  47.855  24.509  79.937
22340DC     BB145116  47.078  24.485  80.008
22340DC     BB245117  47.130  24.741  79.760
22340DC     BB345118  47.163  24.655  79.575
22340DC     SC145119  47.406  24.583  79.642
22340DC     SC245120  47.548  24.700  79.530
22340DC     SC345121  47.613  24.429  79.697
22341DA     BB145122  46.874  24.959  79.556
22341DA     BB245123  47.113  25.008  79.282
22341DA     BB345124  47.091  24.854  79.136
22341DA     SC145125  47.299  24.665  79.268
22341DA     SC245126  47.527  24.578  79.219
22341DA     SC345127  47.471  24.391  79.385
22341DA     SC445128  47.244  24.556  79.374
22342DT     BB145129  47.032  24.919  78.971
22342DT     BB245130  47.341  24.879  78.790
22342DT     BB345131  47.336  24.706  78.678
22342DT     SC145132  47.369  24.557  78.892
22342DT     SC245133  47.564  24.467  78.886
22342DT     SC345134  47.320  24.380  79.081
22343DA     BB145135  47.451  25.019  78.424
22343DA     BB245136  47.681  24.739  78.370
22343DA     BB345137  47.583  24.582  78.265
22343DA     SC145138  47.487  24.437  78.523
22343DA     SC245139  47.537  24.226  78.646
22343DA     SC345140  47.308  24.259  78.756
22343DA     SC445141  47.341  24.475  78.580
22344DC     BB145142  47.646  24.540  78.081
22344DC     BB245143  47.814  24.230  78.159
22344DC     BB345144  47.698  24.070  78.097
22344DC     SC145145  47.531  24.102  78.297
22344DC     SC245146  47.553  23.939  78.435
22344DC     SC345147  47.308  24.151  78.428
22345DC     BB145148  47.874  24.024  77.898
22345DC     BB245149  47.860  23.712  78.079
22345DC     BB345150  47.703  23.597  78.009
22345DC     SC145151  47.527  23.748  78.132
22345DC     SC245152  47.439  23.638  78.294
22345DC     SC345153  47.326  23.915  78.169
22346DT     BB145154  47.882  23.433  77.895
22346DT     BB245155  47.686  23.218  78.108
22346DT     BB345156  47.515  23.156  78.008
22346DT     SC145157  47.403  23.391  78.037
22346DT     SC245158  47.239  23.376  78.174
22346DT     SC345159  47.297  23.625  77.975
22347DT     BB145160  47.623  22.910  77.990
22347DT     BB245161  47.304  22.858  78.152
22347DT     BB345162  47.155  22.841  78.010
22347DT     SC145163  47.159  23.099  77.963
22347DT     SC245164  46.977  23.188  78.036
22347DT     SC345165  47.189  23.327  77.834
22348DT     BB145166  47.134  22.571  78.055
22348DT     BB245167  46.798  22.695  78.102
22348DT     BB345168  46.698  22.700  77.921
22348DT     SC145169  46.832  22.912  77.844
22348DT     SC245170  46.700  23.082  77.838
22348DT     SC345171  46.995  23.066  77.705
22349DG     BB145172  46.461  22.441  78.135
22349DG     BB245173  46.260  22.702  77.985
22349DG     BB345174  46.223  22.658  77.795
22349DG     SC145175  46.473  22.798  77.687
22349DG     SC245176  46.477  23.043  77.516
22349DG     SC345177  46.747  22.925  77.538
22349DG     SC445178  46.610  22.716  77.677
22350DT     BB145179  46.002  22.603  77.677
22350DT     BB245180  45.945  22.912  77.501
22350DT     BB345181  45.970  22.883  77.297
22350DT     SC145182  46.231  22.873  77.323
22350DT     SC245183  46.318  23.049  77.234
22350DT     SC345184  46.477  22.779  77.318
22351DT     BB145185  45.690  22.881  77.209
22351DT     BB245186  45.838  23.144  77.011
22351DT     BB345187  45.898  23.069  76.828
22351DT     SC145188  46.104  22.949  76.936
22351DT     SC245189  46.285  23.047  76.872
22351DT     SC345190  46.266  22.756  77.014
22352DT     BB145191  45.690  23.189  76.678
22352DT     BB245192  45.993  23.318  76.529
22352DT     BB345193  46.052  23.196  76.373
22352DT     SC145194  46.138  23.012  76.539
22352DT     SC245195  46.353  23.003  76.531
22352DT     SC345196  46.159  22.781  76.665
22353DG     BB145197  45.999  23.567  76.213
22353DG     BB245198  46.332  23.440  76.147
22353DG     BB345199  46.326  23.312  75.994
22353DG     SC145200  46.276  23.067  76.170
22353DG     SC245201  46.465  22.840  76.212
22353DG     SC345202  46.200  22.780  76.330
22353DG     SC445203  46.125  23.027  76.206
22354DA     BB145204  46.579  23.511  75.877
22354DA     BB245205  46.803  23.221  75.880
22354DA     BB345206  46.758  23.091  75.718
22354DA     SC145207  46.554  22.920  75.879
22354DA     SC245208  46.540  22.689  75.972
22354DA     SC345209  46.286  22.728  75.976
22354DA     SC445210  46.400  22.963  75.872
22355DT     BB145211  46.900  23.081  75.601
22355DT     BB245212  47.011  22.751  75.696
22355DT     BB345213  46.941  22.611  75.559
22355DT     SC145214  46.698  22.625  75.656
22355DT     SC245215  46.651  22.441  75.757
22355DT     SC345216  46.438  22.670  75.670
22356DT     BB145217  47.195  22.596  75.499
22356DT     BB245218  47.098  22.262  75.594
22356DT     BB345219  47.004  22.168  75.436
22356DT     SC145220  46.786  22.308  75.472
22356DT     SC245221  46.629  22.180  75.545
22356DT     SC345222  46.589  22.479  75.425
22357DA     BB145223  47.304  21.928  75.608
22357DA     BB245224  47.000  21.726  75.568
22357DA     BB345225  46.963  21.690  75.361
22357DA     SC145226  46.785  21.942  75.324
22357DA     SC245227  46.544  21.994  75.284
22357DA     SC345228  46.629  22.222  75.201
22357DA     SC445229  46.857  22.077  75.275
22358DC     BB145230  46.976  21.513  75.325
22358DC     BB245231  46.624  21.448  75.275
22358DC     BB345232  46.580  21.452  75.073
22358DC     SC145233  46.596  21.714  75.067
22358DC     SC245234  46.400  21.797  75.036
22358DC     SC345235  46.681  21.955  75.004
22359DT     BB145236  46.548  21.189  75.092
22359DT     BB245237  46.238  21.309  74.954
22359DT     BB345238  46.256  21.334  74.749
22359DT     SC145239  46.399  21.551  74.780
22359DT     SC245240  46.284  21.722  74.716
22359DT     SC345241  46.604  21.717  74.770
22360DT     BB145242  46.099  21.118  74.716
22360DT     BB245243  45.935  21.380  74.528
22360DT     BB345244  46.018  21.393  74.339
22360DT     SC145245  46.234  21.509  74.433
22360DT     SC245246  46.237  21.715  74.369
22360DT     SC345247  46.487  21.550  74.495
22361DC     BB145248  45.798  21.278  74.220
22361DC     BB245249  45.838  21.590  74.044
22361DC     BB345250  45.967  21.565  73.884
22361DC     SC145251  46.175  21.556  74.044
22361DC     SC245252  46.294  21.734  74.017
22361DC     SC345253  46.388  21.464  74.169
22362DA     BB145254  45.624  21.735  73.711
22362DA     BB245255  45.913  21.926  73.591
22362DA     BB345256  46.020  21.814  73.444
22362DA     SC145257  46.210  21.678  73.650
22362DA     SC245258  46.451  21.687  73.713
22362DA     SC345259  46.411  21.458  73.821
22362DA     SC445260  46.165  21.535  73.710
22363DA     BB145261  45.980  22.079  73.249
22363DA     BB245262  46.345  22.109  73.240
22363DA     BB345263  46.428  21.967  73.104
22363DA     SC145264  46.463  21.745  73.319
22363DA     SC245265  46.651  21.631  73.438
22363DA     SC345266  46.481  21.446  73.486
22363DA     SC445267  46.343  21.640  73.338
22364DC     BB145268  46.524  22.027  72.923
22364DC     BB245269  46.861  21.963  73.034
22364DC     BB345270  46.936  21.794  72.940
22364DC     SC145271  46.790  21.636  73.090
22364DC     SC245272  46.919  21.528  73.225
22364DC     SC345273  46.609  21.459  73.160
22365DT     BB145274  47.103  21.944  72.780
22365DT     BB245275  47.324  21.717  72.953
22365DT     BB345276  47.342  21.541  72.847
22365DT     SC145277  47.103  21.463  72.922
22365DT     SC245278  47.120  21.297  73.058
22365DT     SC345279  46.849  21.391  72.907
22366DC     BB145280  47.598  21.603  72.771
22366DC     BB245281  47.629  21.288  72.943
22366DC     BB345282  47.601  21.132  72.810
22366DC     SC145283  47.342  21.174  72.804
22366DC     SC245284  47.241  21.011  72.903
22366DC     SC345285  47.102  21.233  72.712
22367DA     BB145286  47.963  21.060  73.008
22367DA     BB245287  47.761  20.754  73.027
22367DA     BB345288  47.757  20.656  72.838
22367DA     SC145289  47.502  20.804  72.740
22367DA     SC245290  47.263  20.749  72.692
22367DA     SC345291  47.263  20.964  72.551
22367DA     SC445292  47.522  20.940  72.656
22368DT     BB145293  47.844  20.478  72.826
22368DT     BB245294  47.540  20.285  72.819
22368DT     BB345295  47.503  20.217  72.627
22368DT     SC145296  47.427  20.456  72.549
22368DT     SC245297  47.215  20.454  72.511
22368DT     SC345298  47.424  20.685  72.418
22369DA     BB145299  47.480  19.895  72.894
22369DA     BB245300  47.179  19.893  72.684
22369DA     BB345301  47.227  19.830  72.486
22369DA     SC145302  47.282  20.118  72.382
22369DA     SC245303  47.176  20.282  72.227
22369DA     SC345304  47.407  20.394  72.220
22369DA     SC445305  47.434  20.172  72.390
22370DA     BB145306  46.980  19.640  72.579
22370DA     BB245307  46.797  19.786  72.297
22370DA     BB345308  46.877  19.715  72.112
22370DA     SC145309  47.082  19.946  72.083
22370DA     SC245310  47.116  20.146  71.937
22370DA     SC345311  47.360  20.136  72.015
22370DA     SC445312  47.230  19.923  72.142
22371DA     BB145313  46.556  19.659  72.091
22371DA     BB245314  46.563  19.877  71.796
22371DA     BB345315  46.662  19.780  71.634
22371DA     SC145316  46.943  19.891  71.708
22371DA     SC245317  47.107  20.054  71.615
22371DA     SC345318  47.280  19.931  71.760
22371DA     SC445319  47.036  19.801  71.804
22372DC     BB145320  46.548  19.746  71.490
22372DC     BB245321  46.680  19.996  71.266
22372DC     BB345322  46.810  19.909  71.131
22372DC     SC145323  46.996  19.885  71.314
22372DC     SC245324  47.158  20.020  71.269
22372DC     SC345325  47.169  19.773  71.479
22373DT     BB145326  46.625  19.945  70.938
22373DT     BB245327  46.920  20.110  70.813
22373DT     BB345328  47.043  19.973  70.717
22373DT     SC145329  47.121  19.871  70.946
22373DT     SC245330  47.327  19.921  70.979
22373DT     SC345331  47.158  19.696  71.139
22374DC     BB145332  46.977  20.078  70.474
22374DC     BB245333  47.337  20.100  70.487
22374DC     BB345334  47.421  19.923  70.419
22374DC     SC145335  47.358  19.799  70.642
22374DC     SC245336  47.537  19.756  70.753
22374DC     SC345337  47.245  19.627  70.807
22375DT     BB145338  47.502  20.039  70.184
22375DT     BB245339  47.806  19.908  70.329
22375DT     BB345340  47.834  19.712  70.269
22375DT     SC145341  47.646  19.627  70.432
22375DT     SC245342  47.735  19.514  70.591
22375DT     SC345343  47.420  19.520  70.515
22376DC     BB145344  48.039  19.789  70.108
22376DC     BB245345  48.184  19.546  70.331
22376DC     BB345346  48.158  19.355  70.254
22376DC     SC145347  47.904  19.355  70.319
22376DC     SC245348  47.872  19.215  70.479
22376DC     SC345349  47.642  19.349  70.294
22377DC     BB145350  48.421  19.354  70.208
22377DC     BB245351  48.362  19.070  70.422
22377DC     BB345352  48.304  18.907  70.309
22377DC     SC145353  48.065  19.007  70.273
22377DC     SC245354  47.921  18.890  70.381
22377DC     SC345355  47.853  19.107  70.150
22378DT     BB145356  48.540  18.813  70.377
22378DT     BB245357  48.302  18.568  70.494
22378DT     BB345358  48.246  18.444  70.338
22378DT     SC145359  48.095  18.631  70.232
22378DT     SC245360  47.888  18.577  70.253
22378DT     SC345361  48.005  18.810  70.060
22379DA     BB145362  48.354  18.223  70.679
22379DA     BB245363  48.038  18.090  70.550
22379DA     BB345364  48.069  17.991  70.364
22379DA     SC145365  48.020  18.245  70.191
22379DA     SC245366  47.846  18.330  70.033
22379DA     SC345367  48.030  18.489  69.950
22379DA     SC445368  48.147  18.335  70.152
22380DA     BB145369  47.907  17.762  70.536
22380DA     BB245370  47.657  17.769  70.268
22380DA     BB345371  47.736  17.681  70.091
22380DA     SC145372  47.848  17.948  69.978
22380DA     SC245373  47.797  18.105  69.790
22380DA     SC345374  48.037  18.189  69.823
22380DA     SC445375  48.000  17.986  70.013
22381DA     BB145376  47.468  17.484  70.101
22381DA     BB245377  47.377  17.614  69.770
22381DA     BB345378  47.498  17.523  69.620
22381DA     SC145379  47.719  17.742  69.631
22381DA     SC245380  47.805  17.926  69.486
22381DA     SC345381  48.018  17.911  69.628
22381DA     SC445382  47.844  17.716  69.730
22382DT     BB145383  47.425  17.379  69.465
22382DT     BB245384  47.440  17.606  69.184
22382DT     BB345385  47.595  17.552  69.058
22382DT     SC145386  47.774  17.647  69.225
22382DT     SC245387  47.864  17.823  69.140
22382DT     SC345388  47.977  17.655  69.393
22383DA     BB145389  47.268  17.554  68.792
22383DA     BB245390  47.535  17.752  68.636
22383DA     BB345391  47.683  17.623  68.552
22383DA     SC145392  47.857  17.615  68.810
22383DA     SC245393  48.078  17.700  68.887
22383DA     SC345394  48.062  17.520  69.068
22383DA     SC445395  47.829  17.496  68.915
22384DT     BB145396  47.723  17.601  68.333
22384DT     BB245397  48.027  17.796  68.331
22384DT     BB345398  48.190  17.672  68.296
22384DT     SC145399  48.179  17.577  68.541
22384DT     SC245400  48.349  17.647  68.652
22384DT     SC345401  48.151  17.405  68.739
22385DA     BB145402  48.212  17.983  68.017
22385DA     BB245403  48.537  17.959  68.185
22385DA     BB345404  48.645  17.789  68.114
22385DA     SC145405  48.532  17.597  68.331
22385DA     SC245406  48.616  17.475  68.532
22385DA     SC345407  48.411  17.325  68.502
22385DA     SC445408  48.399  17.513  68.295
22386DG     BB145409  48.844  18.010  68.036
22386DG     BB245410  49.050  17.845  68.283
22386DG     BB345411  49.137  17.685  68.203
22386DG     SC145412  48.910  17.494  68.275
22386DG     SC245413  48.925  17.269  68.471
22386DG     SC345414  48.670  17.260  68.321
22386DG     SC445415  48.788  17.476  68.173
22387DT     BB145416  49.340  17.691  68.205
22387DT     BB245417  49.419  17.453  68.465
22387DT     BB345418  49.468  17.270  68.381
22387DT     SC145419  49.217  17.220  68.324
22387DT     SC245420  49.146  17.060  68.449
22387DT     SC345421  48.999  17.172  68.183
22388DT     BB145422  49.709  17.329  68.467
22388DT     BB245423  49.629  17.011  68.618
22388DT     BB345424  49.665  16.858  68.483
22388DT     SC145425  49.449  16.918  68.347
22388DT     SC245426  49.303  16.762  68.372
22388DT     SC345427  49.295  16.994  68.146
22389DT     BB145428  49.870  16.795  68.639
22389DT     BB245429  49.672  16.494  68.618
22389DT     BB345430  49.719  16.390  68.445
22389DT     SC145431  49.586  16.562  68.298
22389DT     SC245432  49.409  16.467  68.219
22389DT     SC345433  49.536  16.748  68.117
22390DT     BB145434  49.846  16.206  68.594
22390DT     BB245435  49.607  16.017  68.401
22390DT     BB345436  49.686  15.971  68.216
22390DT     SC145437  49.653  16.217  68.132
22390DT     SC245438  49.498  16.222  67.983
22390DT     SC345439  49.709  16.459  68.044
22391DT     BB145440  49.733  15.700  68.275
22391DT     BB245441  49.534  15.687  67.974
22391DT     BB345442  49.657  15.689  67.808
22391DT     SC145443  49.708  15.944  67.838
22391DT     SC245444  49.614  16.055  67.678
22391DT     SC345445  49.842  16.167  67.880
22392DG     BB145446  49.465  15.328  67.758
22392DG     BB245447  49.441  15.527  67.457
22392DG     BB345448  49.606  15.506  67.348
22392DG     SC145449  49.752  15.739  67.482
22392DG     SC245450  49.829  15.996  67.350
22392DG     SC345451  49.949  15.976  67.620
22392DG     SC445452  49.838  15.712  67.614
22393DT     BB145453  49.631  15.404  67.123
22393DT     BB245454  49.667  15.701  66.922
22393DT     BB345455  49.861  15.715  66.851
22393DT     SC145456  49.951  15.788  67.087
22393DT     SC245457  50.011  15.994  67.079
22393DT     SC345458  50.084  15.783  67.314
22394DA     BB145459  49.625  15.743  66.506
22394DA     BB245460  49.860  16.024  66.500
22394DA     BB345461  50.054  15.957  66.442
22394DA     SC145462  50.148  15.900  66.733
22394DA     SC245463  50.310  15.995  66.896
22394DA     SC345464  50.296  15.768  67.013
22394DA     SC445465  50.127  15.751  66.790
22395DA     BB145466  50.015  16.194  66.221
22395DA     BB245467  50.304  16.358  66.374
22395DA     BB345468  50.485  16.263  66.313
22395DA     SC145469  50.488  16.062  66.551
22395DA     SC245470  50.623  16.022  66.757
22395DA     SC345471  50.526  15.784  66.750
22395DA     SC445472  50.418  15.919  66.528
22396DA     BB145473  50.548  16.573  66.238
22396DA     BB245474  50.826  16.552  66.476
22396DA     BB345475  50.987  16.439  66.393
22396DA     SC145476  50.886  16.167  66.505
22396DA     SC245477  50.956  16.002  66.678
22396DA     SC345478  50.808  15.836  66.550
22396DA     SC445479  50.790  16.079  66.411
22397DT     BB145480  51.140  16.543  66.368
22397DT     BB245481  51.332  16.405  66.640
22397DT     BB345482  51.468  16.266  66.568
22397DT     SC145483  51.277  16.089  66.530
22397DT     SC245484  51.300  15.929  66.672
22397DT     SC345485  51.113  15.923  66.407
22398DT     BB145486  51.657  16.444  66.626
22398DT     BB245487  51.752  16.147  66.807
22398DT     BB345488  51.857  16.019  66.683
22398DT     SC145489  51.639  15.948  66.556
22398DT     SC245490  51.592  15.744  66.604
22398DT     SC345491  51.464  15.916  66.361
22399DA     BB145492  52.076  16.073  67.037
22399DA     BB245493  52.066  15.714  66.963
22399DA     BB345494  52.190  15.669  66.795
22399DA     SC145495  51.964  15.707  66.586
22399DA     SC245496  51.829  15.564  66.432
22399DA     SC345497  51.782  15.781  66.304
22399DA     SC445498  51.947  15.852  66.520
22400DA     BB145499  52.320  15.452  67.007
22400DA     BB245500  52.225  15.189  66.770
22400DA     BB345501  52.357  15.189  66.602
22400DA     SC145502  52.185  15.387  66.435
22400DA     SC245503  52.043  15.379  66.230
22400DA     SC345504  52.076  15.634  66.222
22400DA     SC445505  52.219  15.543  66.447
22401DA     BB145506  52.412  14.868  66.670
22401DA     BB245507  52.281  14.787  66.337
22401DA     BB345508  52.430  14.823  66.188
22401DA     SC145509  52.344  15.118  66.138
22401DA     SC245510  52.235  15.250  65.957
22401DA     SC345511  52.339  15.455  66.072
22401DA     SC445512  52.418  15.233  66.223
22402DT     BB145513  52.536  14.664  66.064
22402DT     BB245514  52.363  14.729  65.755
22402DT     BB345515  52.492  14.813  65.618
22402DT     SC145516  52.487  15.044  65.742
22402DT     SC245517  52.383  15.188  65.621
22402DT     SC345518  52.570  15.255  65.877
22403DT     BB145519  52.525  14.581  65.453
22403DT     BB245520  52.407  14.833  65.223
22403DT     BB345521  52.568  14.929  65.135
22403DT     SC145522  52.619  15.063  65.354
22403DT     SC245523  52.572  15.271  65.323
22403DT     SC345524  52.745  15.150  65.569
22404DA     BB145525  52.338  14.798  64.811
22404DA     BB245526  52.407  15.154  64.759
22404DA     BB345527  52.607  15.182  64.690
22404DA     SC145528  52.727  15.212  64.975
22404DA     SC245529  52.828  15.392  65.114
22404DA     SC345530  52.931  15.201  65.251
22404DA     SC445531  52.783  15.079  65.046
22405DG     BB145532  52.467  15.306  64.443
22405DG     BB245533  52.626  15.608  64.564
22405DG     BB345534  52.813  15.618  64.498
22405DG     SC145535  52.932  15.468  64.737
22405DG     SC245536  53.114  15.584  64.943
22405DG     SC345537  53.093  15.290  64.974
22405DG     SC445538  52.941  15.308  64.732
22406DT     BB145539  52.859  15.782  64.379
22406DT     BB245540  53.051  15.985  64.607
22406DT     BB345541  53.253  15.966  64.567
22406DT     SC145542  53.259  15.727  64.675
22406DT     SC245543  53.372  15.735  64.858
22406DT     SC345544  53.287  15.466  64.699
22407DT     BB145545  53.218  16.212  64.494
22407DT     BB245546  53.473  16.221  64.749
22407DT     BB345547  53.656  16.169  64.668
22407DT     SC145548  53.588  15.916  64.657
22407DT     SC245549  53.703  15.804  64.800
22407DT     SC345550  53.529  15.678  64.557
22408DA     BB145551  53.667  16.513  64.911
22408DA     BB245552  53.950  16.296  64.999
22408DA     BB345553  54.089  16.288  64.838
22408DA     SC145554  53.957  16.041  64.704
22408DA     SC245555  54.011  15.800  64.666
22408DA     SC345556  53.837  15.811  64.479
22408DA     SC445557  53.846  16.068  64.590
22409DG     BB145558  54.265  16.393  65.071
22409DG     BB245559  54.453  16.091  65.002
22409DG     BB345560  54.561  16.115  64.837
22409DG     SC145561  54.341  16.012  64.650
22409DG     SC245562  54.351  15.760  64.490
22409DG     SC345563  54.117  15.923  64.414
22409DG     SC445564  54.234  16.115  64.592
22410DT     BB145565  54.784  16.113  64.838
22410DT     BB245566  54.864  15.803  64.671
22410DT     BB345567  54.919  15.841  64.475
22410DT     SC145568  54.670  15.886  64.406
22410DT     SC245569  54.601  15.726  64.279
22410DT     SC345570  54.455  16.013  64.320
22411DC     BB145571  55.204  15.810  64.502
22411DC     BB245572  55.127  15.592  64.226
22411DC     BB345573  55.147  15.694  64.047
22411DC     SC145574  54.923  15.824  64.088
22411DC     SC245575  54.775  15.756  63.947
22411DC     SC345576  54.756  16.024  64.129
22412DA     BB145577  55.418  15.379  63.963
22412DA     BB245578  55.199  15.407  63.670
22412DA     BB345579  55.262  15.570  63.547
22412DA     SC145580  55.080  15.779  63.688
22412DA     SC245581  54.876  15.912  63.635
22412DA     SC345582  54.950  16.064  63.827
22412DA     SC445583  55.143  15.862  63.810
22413DA     BB145584  55.295  15.366  63.278
22413DA     BB245585  55.031  15.558  63.112
22413DA     BB345586  55.112  15.733  63.021
22413DA     SC145587  55.068  15.912  63.272
22413DA     SC245588  54.922  16.103  63.339
22413DA     SC345589  55.098  16.147  63.521
22413DA     SC445590  55.189  15.924  63.377
22414DC     BB145591  55.129  15.776  62.794
22414DC     BB245592  54.855  16.011  62.780
22414DC     BB345593  54.927  16.201  62.741
22414DC     SC145594  55.018  16.226  62.986
22414DC     SC245595  54.900  16.372  63.092
22414DC     SC345596  55.188  16.255  63.186
22415DA     BB145597  54.637  16.142  62.443
22415DA     BB245598  54.564  16.463  62.603
22415DA     BB345599  54.700  16.613  62.534
22415DA     SC145600  54.909  16.562  62.759
22415DA     SC245601  54.995  16.680  62.961
22415DA     SC345602  55.198  16.525  62.940
22415DA     SC445603  55.027  16.458  62.728
22416DA     BB145604  54.425  16.777  62.457
22416DA     BB245605  54.529  17.032  62.700
22416DA     BB345606  54.679  17.158  62.615
22416DA     SC145607  54.917  16.983  62.714
22416DA     SC245608  55.101  17.000  62.881
22416DA     SC345609  55.215  16.816  62.743
22416DA     SC445610  54.972  16.870  62.614
22417DC     BB145611  54.637  17.358  62.581
22417DC     BB245612  54.825  17.486  62.861
22417DC     BB345613  54.998  17.577  62.794
22417DC     SC145614  55.111  17.345  62.743
22417DC     SC245615  55.271  17.312  62.883
22417DC     SC345616  55.220  17.147  62.609
22418DA     BB145617  54.799  17.844  63.047
22418DA     BB245618  55.148  17.820  63.159
22418DA     BB345619  55.276  17.924  63.024
22418DA     SC145620  55.330  17.677  62.844
22418DA     SC245621  55.520  17.524  62.792
22418DA     SC345622  55.388  17.466  62.579
22418DA     SC445623  55.233  17.655  62.717
22419DT     BB145624  55.363  18.074  63.103
22419DT     BB245625  55.688  17.921  63.135
22419DT     BB345626  55.813  17.990  62.986
22419DT     SC145627  55.693  17.843  62.805
22419DT     SC245628  55.825  17.686  62.741
22419DT     SC345629  55.553  17.778  62.591
22420DT     BB145630  55.930  18.102  63.190
22420DT     BB245631  56.179  17.890  63.038
22420DT     BB345632  56.263  17.986  62.874
22420DT     SC145633  56.048  17.943  62.730
22420DT     SC245634  56.093  17.799  62.576
22420DT     SC345635  55.832  17.990  62.587
22421DT     BB145636  56.470  17.988  63.032
22421DT     BB245637  56.578  17.816  62.735
22421DT     BB345638  56.627  17.953  62.587
22421DT     SC145639  56.374  18.004  62.541
22421DT     SC245640  56.320  17.927  62.347
22421DT     SC345641  56.147  18.138  62.523
22422DA     BB145642  56.924  17.660  62.636
22422DA     BB245643  56.860  17.702  62.278
22422DA     BB345644  56.930  17.892  62.211
22422DA     SC145645  56.660  18.038  62.265
22422DA     SC245646  56.476  18.141  62.132
22422DA     SC345647  56.418  18.267  62.347
22422DA     SC445648  56.641  18.108  62.408
22423DA     BB145649  57.077  17.694  61.994
22423DA     BB245650  56.907  17.886  61.732
22423DA     BB345651  56.995  18.080  61.713
22423DA     SC145652  56.804  18.214  61.919
22423DA     SC245653  56.617  18.378  61.917
22423DA     SC345654  56.668  18.409  62.167
22423DA     SC445655  56.852  18.219  62.073
22424DT     BB145656  57.101  18.132  61.542
22424DT     BB245657  56.861  18.363  61.404
22424DT     BB345658  56.927  18.558  61.431
22424DT     SC145659  56.867  18.552  61.686
22424DT     SC245660  56.699  18.681  61.723
22424DT     SC345661  56.897  18.556  61.948
22425DG     BB145662  56.902  18.537  61.021
22425DG     BB245663  56.729  18.830  61.143
22425DG     BB345664  56.859  18.977  61.176
22425DG     SC145665  56.913  18.897  61.466
22425DG     SC245666  56.839  19.055  61.708
22425DG     SC345667  57.011  18.826  61.781
22425DG     SC445668  57.029  18.791  61.497
22426DT     BB145669  56.882  19.200  61.059
22426DT     BB245670  56.745  19.420  61.309
22426DT     BB345671  56.896  19.537  61.390
22426DT     SC145672  56.988  19.335  61.529
22426DT     SC245673  56.950  19.369  61.738
22426DT     SC345674  57.152  19.147  61.616
22427DA     BB145675  56.622  19.830  61.262
22427DA     BB245676  56.707  19.909  61.610
22427DA     BB345677  56.898  20.005  61.619
22427DA     SC145678  57.057  19.739  61.654
22427DA     SC245679  57.187  19.623  61.832
22427DA     SC345680  57.293  19.490  61.641
22427DA     SC445681  57.112  19.668  61.521
22428DC     BB145682  56.926  20.215  61.680
22428DC     BB245683  57.054  20.145  62.009
22428DC     BB345684  57.255  20.193  62.019
22428DC     SC145685  57.320  19.980  61.880
22428DC     SC245686  57.424  19.841  62.008
22428DC     SC345687  57.414  19.831  61.684
22429DA     BB145688  57.072  20.390  62.339
22429DA     BB245689  57.362  20.210  62.471
22429DA     BB345690  57.543  20.312  62.419
22429DA     SC145691  57.582  20.155  62.153
22429DA     SC245692  57.738  19.983  62.061
22429DA     SC345693  57.657  20.063  61.831
22429DA     SC445694  57.521  20.219  62.019
22430DA     BB145695  57.582  20.287  62.742
22430DA     BB245696  57.882  20.089  62.671
22430DA     BB345697  58.040  20.215  62.605
22430DA     SC145698  57.968  20.191  62.304
22430DA     SC245699  58.064  20.087  62.099
22430DA     SC345700  57.915  20.252  61.970
22430DA     SC445701  57.869  20.302  62.242
22431DA     BB145702  58.185  20.053  62.849
22431DA     BB245703  58.422  19.930  62.598
22431DA     BB345704  58.557  20.085  62.541
22431DA     SC145705  58.380  20.187  62.306
22431DA     SC245706  58.388  20.189  62.057
22431DA     SC345707  58.217  20.380  62.074
22431DA     SC445708  58.276  20.305  62.338
22432DG     BB145709  58.758  19.877  62.648
22432DG     BB245710  58.870  19.879  62.304
22432DG     BB345711  58.986  20.038  62.271
22432DG     SC145712  58.754  20.221  62.190
22432DG     SC245713  58.708  20.335  61.917
22432DG     SC345714  58.522  20.454  62.114
22432DG     SC445715  58.677  20.304  62.303
22433DC     BB145716  59.187  20.005  62.213
22433DC     BB245717  59.181  20.095  61.864
22433DC     BB345718  59.259  20.286  61.839
22433DC     SC145719  59.041  20.396  61.935
22433DC     SC245720  58.936  20.497  61.777
22433DC     SC345721  58.881  20.533  62.095
22434DC     BB145722  59.475  20.173  61.727
22434DC     BB245723  59.353  20.405  61.479
22434DC     BB345724  59.428  20.595  61.516
22434DC     SC145725  59.263  20.628  61.718
22434DC     SC245726  59.117  20.776  61.667
22434DC     SC345727  59.178  20.664  61.965
22435DT     BB145728  59.594  20.573  61.302
22435DT     BB245729  59.407  20.875  61.240
22435DT     BB345730  59.499  21.036  61.332
22435DT     SC145731  59.415  20.959  61.569
22435DT     SC245732  59.267  21.097  61.641
22435DT     SC345733  59.421  20.873  61.818
22436DT     BB145734  59.588  21.135  61.092
22436DT     BB245735  59.404  21.409  61.238
22436DT     BB345736  59.529  21.522  61.358
22436DT     SC145737  59.526  21.339  61.546
22436DT     SC245738  59.416  21.412  61.716
22436DT     SC345739  59.611  21.153  61.713
22437DT     BB145740  59.543  21.732  61.178
22437DT     BB245741  59.426  21.887  61.482
22437DT     BB345742  59.587  21.948  61.596
22437DT     SC145743  59.640  21.701  61.668
22437DT     SC245744  59.595  21.677  61.877
22437DT     SC345745  59.768  21.473  61.695
22438DA     BB145746  59.356  22.297  61.560
22438DA     BB245747  59.436  22.257  61.915
22438DA     BB345748  59.638  22.313  61.952
22438DA     SC145749  59.752  22.027  61.907
22438DA     SC245750  59.854  21.845  62.043
22438DA     SC345751  59.947  21.758  61.821
22438DA     SC445752  59.802  21.990  61.759
22439DT     BB145753  59.693  22.488  62.071
22439DT     BB245754  59.795  22.307  62.365
22439DT     BB345755  60.001  22.316  62.386
22439DT     SC145756  60.036  22.144  62.191
22439DT     SC245757  60.110  21.959  62.272
22439DT     SC345758  60.112  22.043  61.959
22440DA     BB145759  59.842  22.444  62.752
22440DA     BB245760  60.093  22.185  62.823
22440DA     BB345761  60.289  22.263  62.798
22440DA     SC145762  60.309  22.184  62.498
22440DA     SC245763  60.435  22.020  62.358
22440DA     SC345764  60.377  22.174  62.161
22440DA     SC445765  60.264  22.293  62.389
22441DT     BB145766  60.400  22.274  62.960
22441DT     BB245767  60.612  21.992  62.882
22441DT     BB345768  60.796  22.058  62.817
22441DT     SC145769  60.697  22.127  62.584
22441DT     SC245770  60.773  21.995  62.432
22441DT     SC345771  60.624  22.278  62.380
22442DT     BB145772  60.889  21.966  63.047
22442DT     BB245773  61.073  21.789  62.792
22442DT     BB345774  61.231  21.905  62.726
22442DT     SC145775  61.070  22.061  62.589
22442DT     SC245776  61.102  22.030  62.379
22442DT     SC345777  60.942  22.278  62.512
22443DG     BB145778  61.364  21.542  62.857
22443DG     BB245779  61.479  21.616  62.522
22443DG     BB345780  61.625  21.751  62.529
22443DG     SC145781  61.437  21.992  62.509
22443DG     SC245782  61.420  22.182  62.280
22443DG     SC345783  61.259  22.278  62.509
22443DG     SC445784  61.377  22.054  62.644
22444DC     BB145785  61.810  21.692  62.454
22444DC     BB245786  61.825  21.872  62.142
22444DC     BB345787  61.940  22.043  62.165
22444DC     SC145788  61.748  22.164  62.297
22444DC     SC245789  61.667  22.322  62.176
22444DC     SC345790  61.618  22.282  62.494
22445DT     BB145791  62.122  21.921  62.015
22445DT     BB245792  62.048  22.229  61.842
22445DT     BB345793  62.158  22.384  61.923
22445DT     SC145794  62.004  22.393  62.135
22445DT     SC245795  61.889  22.575  62.131
22445DT     SC345796  61.927  22.379  62.387
22446DA     BB145797  62.213  22.385  61.507
22446DA     BB245798  62.131  22.726  61.613
22446DA     BB345799  62.295  22.813  61.719
22446DA     SC145800  62.197  22.715  61.998
22446DA     SC245801  62.104  22.816  62.206
22446DA     SC345802  62.179  22.598  62.320
22446DA     SC445803  62.253  22.574  62.050
22447DT     BB145804  62.382  22.965  61.633
22447DT     BB245805  62.248  23.219  61.852
22447DT     BB345806  62.393  23.278  61.989
22447DT     SC145807  62.364  23.056  62.126
22447DT     SC245808  62.272  23.101  62.315
22447DT     SC345809  62.420  22.824  62.237
22448DG     BB145810  62.268  23.607  61.784
22448DG     BB245811  62.245  23.655  62.142
22448DG     BB345812  62.426  23.689  62.217
22448DG     SC145813  62.487  23.393  62.268
22448DG     SC245814  62.520  23.265  62.535
22448DG     SC345815  62.595  23.078  62.318
22448DG     SC445816  62.555  23.307  62.151
22449DA     BB145817  62.271  23.961  62.362
22449DA     BB245818  62.362  23.833  62.693
22449DA     BB345819  62.571  23.860  62.727
22449DA     SC145820  62.651  23.582  62.611
22449DA     SC245821  62.738  23.365  62.696
22449DA     SC345822  62.811  23.323  62.454
22449DA     SC445823  62.689  23.575  62.455
22450DA     BB145824  62.436  23.997  62.992
22450DA     BB245825  62.621  23.747  63.186
22450DA     BB345826  62.830  23.792  63.185
22450DA     SC145827  62.889  23.622  62.931
22450DA     SC245828  63.009  23.410  62.875
22450DA     SC345829  63.014  23.501  62.635
22450DA     SC445830  62.884  23.696  62.789
22451DA     BB145831  62.778  23.768  63.508
22451DA     BB245832  63.023  23.495  63.505
22451DA     BB345833  63.220  23.572  63.482
22451DA     SC145834  63.217  23.555  63.172
22451DA     SC245835  63.327  23.421  62.993
22451DA     SC345836  63.262  23.613  62.836
22451DA     SC445837  63.168  23.686  63.091
22452DA     BB145838  63.258  23.388  63.751
22452DA     BB245839  63.506  23.198  63.560
22452DA     BB345840  63.686  23.312  63.538
22452DA     SC145841  63.598  23.443  63.270
22452DA     SC245842  63.662  23.432  63.029
22452DA     SC345843  63.546  23.660  63.008
22452DA     SC445844  63.523  23.585  63.278
22453DG     BB145845  63.798  23.065  63.685
22453DG     BB245846  63.981  23.023  63.376
22453DG     BB345847  64.136  23.148  63.372
22453DG     SC145848  63.981  23.377  63.241
22453DG     SC245849  64.026  23.485  62.966
22453DG     SC345850  63.836  23.655  63.116
22453DG     SC445851  63.903  23.481  63.334
22454DA     BB145852  64.314  22.862  63.292
22454DA     BB245853  64.425  23.021  62.981
22454DA     BB345854  64.571  23.171  63.022
22454DA     SC145855  64.363  23.400  63.050
22454DA     SC245856  64.295  23.604  62.924
22454DA     SC345857  64.191  23.681  63.146
22454DA     SC445858  64.306  23.431  63.198
22455DG     BB145859  64.746  22.992  62.839
22455DG     BB245860  64.749  23.287  62.629
22455DG     BB345861  64.881  23.418  62.699
22455DG     SC145862  64.682  23.559  62.883
22455DG     SC245863  64.583  23.839  62.853
22455DG     SC345864  64.495  23.724  63.111
22455DG     SC445865  64.662  23.504  63.032
22456DA     BB145866  65.021  23.432  62.378
22456DA     BB245867  64.960  23.793  62.364
22456DA     BB345868  65.102  23.898  62.483
22456DA     SC145869  64.929  23.890  62.741
22456DA     SC245870  64.801  24.051  62.882
22456DA     SC345871  64.818  23.873  63.065
22456DA     SC445872  64.951  23.767  62.842
22457DA     BB145873  65.180  24.077  62.210
22457DA     BB245874  65.074  24.377  62.393
22457DA     BB345875  65.227  24.439  62.528
22457DA     SC145876  65.120  24.270  62.766
22457DA     SC245877  65.010  24.311  62.987
22457DA     SC345878  65.090  24.074  63.047
22457DA     SC445879  65.179  24.122  62.785
22458DT     BB145880  65.363  24.633  62.516
22458DT     BB245881  65.196  24.813  62.781
22458DT     BB345882  65.322  24.831  62.944
22458DT     SC145883  65.287  24.579  63.009
22458DT     SC245884  65.173  24.567  63.191
22458DT     SC345885  65.341  24.325  63.056
22459DA     BB145886  65.235  25.239  62.877
22459DA     BB245887  65.167  25.173  63.231
22459DA     BB345888  65.349  25.171  63.342
22459DA     SC145889  65.397  24.866  63.307
22459DA     SC245890  65.393  24.661  63.448
22459DA     SC345891  65.536  24.555  63.263
22459DA     SC445892  65.486  24.819  63.182
22460DA     BB145893  65.211  25.404  63.532
22460DA     BB245894  65.218  25.160  63.805
22460DA     BB345895  65.411  25.155  63.895
22460DA     SC145896  65.520  24.931  63.708
22460DA     SC245897  65.585  24.691  63.726
22460DA     SC345898  65.716  24.732  63.509
22460DA     SC445899  65.596  24.976  63.574
22461DC     BB145900  65.428  25.215  64.090
22461DC     BB245901  65.448  24.881  64.226
22461DC     BB345902  65.641  24.842  64.289
22461DC     SC145903  65.724  24.813  64.042
22461DC     SC245904  65.772  24.606  64.006
22461DC     SC345905  65.856  24.855  63.817
22462DA     BB145906  65.351  24.747  64.577
22462DA     BB245907  65.570  24.457  64.530
22462DA     BB345908  65.764  24.496  64.611
22462DA     SC145909  65.878  24.610  64.345
22462DA     SC245910  66.044  24.542  64.171
22462DA     SC345911  66.049  24.791  64.108
22462DA     SC445912  65.868  24.769  64.321
22463DA     BB145913  65.654  24.212  64.725
22463DA     BB245914  65.950  24.068  64.565
22463DA     BB345915  66.127  24.133  64.665
22463DA     SC145916  66.167  24.383  64.485
22463DA     SC245917  66.325  24.460  64.308
22463DA     SC345918  66.240  24.696  64.363
22463DA     SC445919  66.102  24.521  64.534
22464DG     BB145920  66.129  23.826  64.673
22464DG     BB245921  66.427  23.876  64.475
22464DG     BB345922  66.575  23.941  64.590
22464DG     SC145923  66.508  24.238  64.550
22464DG     SC245924  66.677  24.438  64.407
22464DG     SC345925  66.451  24.570  64.545
22464DG     SC445926  66.404  24.307  64.650
22465DA     BB145927  66.735  23.684  64.427
22465DA     BB245928  66.986  23.923  64.308
22465DA     BB345929  67.109  23.988  64.470
22465DA     SC145930  66.929  24.231  64.541
22465DA     SC245931  66.941  24.480  64.528
22465DA     SC345932  66.755  24.478  64.704
22465DA     SC445933  66.814  24.209  64.652
22466DG     BB145934  67.317  23.866  64.277
22466DG     BB245935  67.439  24.207  64.273
22466DG     BB345936  67.539  24.245  64.441
22466DG     SC145937  67.293  24.343  64.595
22466DG     SC245938  67.244  24.622  64.689
22466DG     SC345939  67.041  24.436  64.799
22466DG     SC445940  67.204  24.236  64.675
22467DT     BB145941  67.740  24.296  64.422
22467DT     BB245942  67.739  24.649  64.497
22467DT     BB345943  67.796  24.679  64.693
22467DT     SC145944  67.564  24.596  64.783
22467DT     SC245945  67.456  24.763  64.865
22467DT     SC345946  67.384  24.450  64.908
22468DT     BB145947  68.028  24.778  64.601
22468DT     BB245948  67.895  25.040  64.810
22468DT     BB345949  67.946  25.006  65.008
22468DT     SC145950  67.769  24.813  65.029
22468DT     SC245951  67.610  24.877  65.159
22468DT     SC345952  67.668  24.572  65.064
22469DT     BB145953  68.119  25.211  64.993
22469DT     BB245954  67.906  25.293  65.272
22469DT     BB345955  67.976  25.201  65.444
22469DT     SC145956  67.887  24.967  65.364
22469DT     SC245957  67.722  24.907  65.488
22469DT     SC345958  67.887  24.715  65.287
22470DA     BB145959  67.934  25.607  65.544
22470DA     BB245960  67.778  25.410  65.811
22470DA     BB345961  67.927  25.316  65.931
22470DA     SC145962  67.935  25.056  65.760
22470DA     SC245963  67.868  24.817  65.784
22470DA     SC345964  68.032  24.773  65.592
22470DA     SC445965  68.042  25.049  65.640
22471DT     BB145966  67.971  25.368  66.142
22471DT     BB245967  67.824  25.075  66.292
22471DT     BB345968  67.973  24.952  66.367
22471DT     SC145969  68.039  24.872  66.125
22471DT     SC245970  67.982  24.666  66.101
22471DT     SC345971  68.182  24.833  65.908
22472DT     BB145972  67.926  25.013  66.638
22472DT     BB245973  67.895  24.654  66.625
22472DT     BB345974  68.078  24.566  66.662
22472DT     SC145975  68.166  24.629  66.423
22472DT     SC245976  68.186  24.450  66.305
22472DT     SC345977  68.311  24.741  66.233
22473DT     BB145978  68.006  24.482  66.917
22473DT     BB245979  68.103  24.178  66.748
22473DT     BB345980  68.306  24.145  66.774
22473DT     SC145981  68.367  24.333  66.602
22473DT     SC245982  68.450  24.244  66.425
22473DT     SC345983  68.465  24.558  66.505
22474DT     BB145984  68.255  23.939  66.947
22474DT     BB245985  68.457  23.791  66.687
22474DT     BB345986  68.658  23.813  66.731
22474DT     SC145987  68.652  24.068  66.668
22474DT     SC245988  68.764  24.099  66.488
22474DT     SC345989  68.666  24.330  66.693
22475DG     BB145990  68.594  23.412  66.694
22475DG     BB245991  68.870  23.521  66.486
22475DG     BB345992  69.034  23.543  66.597
22475DG     SC145993  68.977  23.837  66.664
22475DG     SC245994  69.139  24.071  66.574
22475DG     SC345995  68.937  24.153  66.774
22475DG     SC445996  68.888  23.871  66.793
22476DT     BB145997  69.221  23.419  66.567
22476DT     BB245998  69.441  23.657  66.410
22476DT     BB345999  69.583  23.724  66.546
22476DT     SC146000  69.406  23.874  66.669
22476DT     SC246001  69.451  24.081  66.632
22476DT     SC346002  69.249  23.967  66.859
22477DA     BB146003  69.809  23.590  66.218
22477DA     BB246004  69.931  23.924  66.307
22477DA     BB346005  70.051  23.915  66.483
22477DA     SC146006  69.812  23.964  66.677
22477DA     SC246007  69.732  24.144  66.828
22477DA     SC346008  69.596  23.960  66.943
22477DA     SC446009  69.737  23.834  66.735
22478DT     BB146010  70.271  23.952  66.489
22478DT     BB246011  70.251  24.279  66.640
22478DT     BB346012  70.323  24.271  66.834
22478DT     SC146013  70.105  24.150  66.918
22478DT     SC246014  69.993  24.284  67.043
22478DT     SC346015  69.948  23.964  67.019
22479DG     BB146016  70.566  24.544  66.651
22479DG     BB246017  70.415  24.683  66.949
22479DG     BB346018  70.516  24.624  67.110
22479DG     SC146019  70.350  24.371  67.153
22479DG     SC246020  70.167  24.318  67.383
22479DG     SC346021  70.201  24.076  67.217
22479DG     SC446022  70.394  24.236  67.079
22480DT     BB146023  70.620  24.772  67.244
22480DT     BB246024  70.389  24.781  67.521
22480DT     BB346025  70.468  24.679  67.682
22480DT     SC146026  70.419  24.447  67.569
22480DT     SC246027  70.262  24.347  67.676
22480DT     SC346028  70.461  24.211  67.459
22481DT     BB146029  70.495  24.917  67.800
22481DT     BB246030  70.281  24.727  68.020
22481DT     BB346031  70.396  24.612  68.148
22481DT     SC146032  70.455  24.442  67.957
22481DT     SC246033  70.356  24.255  67.995
22481DT     SC346034  70.596  24.304  67.783
22482DA     BB146035  70.092  24.829  68.340
22482DA     BB246036  70.079  24.481  68.454
22482DA     BB346037  70.249  24.436  68.574
22482DA     SC146038  70.423  24.338  68.335
22482DA     SC246039  70.516  24.123  68.250
22482DA     SC346040  70.681  24.270  68.119
22482DA     SC446041  70.517  24.447  68.263
22483DT     BB146042  70.190  24.398  68.735
22483DT     BB246043  70.255  24.043  68.728
22483DT     BB346044  70.438  24.002  68.815
22483DT     SC146045  70.567  24.093  68.605
22483DT     SC246046  70.662  23.929  68.504
22483DT     SC346047  70.725  24.244  68.457
22484DG     BB146048  70.138  23.787  68.989
22484DG     BB246049  70.419  23.578  68.897
22484DG     BB346050  70.570  23.609  69.023
22484DG     SC146051  70.694  23.835  68.858
22484DG     SC246052  70.956  23.826  68.716
22484DG     SC346053  70.845  24.099  68.713
22484DG     SC446054  70.645  23.985  68.884
22485DG     BB146055  70.564  23.287  69.092
22485DG     BB246056  70.905  23.276  68.975
22485DG     BB346057  71.028  23.341  69.117
22485DG     SC146058  71.015  23.634  69.029
22485DG     SC246059  71.240  23.792  68.915
22485DG     SC346060  71.008  23.966  68.973
22485DG     SC446061  70.900  23.728  69.090
22486DA     BB146062  71.226  23.047  69.096
22486DA     BB246063  71.525  23.246  69.020
22486DA     BB346064  71.602  23.334  69.198
22486DA     SC146065  71.436  23.596  69.170
22486DA     SC246066  71.478  23.836  69.119
22486DA     SC346067  71.250  23.878  69.229
22486DA     SC446068  71.293  23.601  69.243
22487DT     BB146069  71.804  23.283  69.316
22487DT     BB246070  71.986  23.579  69.221
22487DT     BB346071  72.015  23.701  69.386
22487DT     SC146072  71.764  23.778  69.382
22487DT     SC246073  71.754  23.985  69.324
22487DT     SC346074  71.514  23.813  69.459
22488DA     BB146075  72.426  23.657  69.284
22488DA     BB246076  72.369  24.016  69.327
22488DA     BB346077  72.372  24.068  69.534
22488DA     SC146078  72.067  24.027  69.574
22488DA     SC246079  71.865  24.168  69.617
22488DA     SC346080  71.757  23.951  69.701
22488DA     SC446081  72.017  23.882  69.623
22489DC     BB146082  72.539  24.204  69.665
22489DC     BB246083  72.331  24.499  69.678
22489DC     BB346084  72.278  24.539  69.874
22489DC     SC146085  72.105  24.342  69.876
22489DC     SC246086  71.905  24.421  69.883
22489DC     SC346087  71.989  24.114  69.941
22490DA     BB146088  72.450  24.897  69.741
22490DA     BB246089  72.118  24.977  69.874
22490DA     BB346090  72.123  24.981  70.087
22490DA     SC146091  72.050  24.680  70.119
22490DA     SC246092  71.856  24.544  70.199
22490DA     SC346093  72.026  24.354  70.225
22490DA     SC446094  72.171  24.575  70.130
22491DA     BB146095  71.994  25.265  70.005
22491DA     BB246096  71.691  25.148  70.174
22491DA     BB346097  71.717  25.153  70.386
22491DA     SC146098  71.826  24.862  70.404
22491DA     SC246099  71.749  24.642  70.493
22491DA     SC346100  71.997  24.577  70.490
22491DA     SC446101  71.985  24.841  70.397
22492DT     BB146102  71.599  25.265  70.442
22492DT     BB246103  71.372  25.021  70.580
22492DT     BB346104  71.409  24.996  70.782
22492DT     SC146105  71.627  24.858  70.733
22492DT     SC246106  71.596  24.653  70.789
22492DT     SC346107  71.882  24.792  70.727
22493DT     BB146108  71.175  25.106  70.787
22493DT     BB246109  71.140  24.789  70.955
22493DT     BB346110  71.216  24.802  71.147
22493DT     SC146111  71.463  24.798  71.059
22493DT     SC246112  71.556  24.612  71.114
22493DT     SC346113  71.710  24.877  71.007
22494DA     BB146114  70.834  24.623  71.131
22494DA     BB246115  71.054  24.417  71.340
22494DA     BB346116  71.102  24.519  71.521
22494DA     SC146117  71.358  24.653  71.405
22494DA     SC246118  71.605  24.635  71.434
22494DA     SC346119  71.614  24.869  71.330
22494DA     SC446120  71.343  24.799  71.339
22495DT     BB146121  71.034  24.431  71.665
22495DT     BB246122  71.347  24.304  71.793
22495DT     BB346123  71.417  24.427  71.944
22495DT     SC146124  71.491  24.611  71.771
22495DT     SC246125  71.705  24.620  71.764
22495DT     SC346126  71.501  24.841  71.643
22496DA     BB146127  71.420  24.028  72.075
22496DA     BB246128  71.745  24.178  72.154
22496DA     BB346129  71.724  24.320  72.312
22496DA     SC146130  71.673  24.561  72.122
22496DA     SC246131  71.793  24.768  72.049
22496DA     SC346132  71.561  24.852  71.979
22496DA     SC446133  71.521  24.596  72.086
22497DG     BB146134  71.927  24.125  72.438
22497DG     BB246135  72.141  24.416  72.426
22497DG     BB346136  72.096  24.540  72.574
22497DG     SC146137  71.887  24.696  72.413
22497DG     SC246138  71.909  24.981  72.327
22497DG     SC346139  71.638  24.875  72.273
22497DG     SC446140  71.735  24.645  72.413
22498DT     BB146141  72.246  24.578  72.709
22498DT     BB246142  72.341  24.915  72.625
22498DT     BB346143  72.251  25.049  72.754
22498DT     SC146144  72.018  25.018  72.636
22498DT     SC246145  71.967  25.199  72.531
22498DT     SC346146  71.765  24.955  72.599
22499DA     BB146147  72.663  25.129  72.726
22499DA     BB246148  72.480  25.445  72.690
22499DA     BB346149  72.391  25.501  72.876
22499DA     SC146150  72.123  25.353  72.820
22499DA     SC246151  71.886  25.413  72.772
22499DA     SC346152  71.831  25.175  72.848
22499DA     SC446153  72.109  25.202  72.872
22500DT     BB146154  72.463  25.657  72.945
22500DT     BB246155  72.178  25.871  72.888
22500DT     BB346156  72.066  25.888  73.062
22500DT     SC146157  71.969  25.646  73.032
22500DT     SC246158  71.760  25.659  72.983
22500DT     SC346159  71.917  25.392  73.079
22501DC     BB146160  72.154  26.145  73.106
22501DC     BB246161  71.794  26.173  73.113
22501DC     BB346162  71.724  26.136  73.304
22501DC     SC146163  71.765  25.878  73.279
22501DC     SC246164  71.576  25.776  73.269
22501DC     SC346165  71.865  25.638  73.321
22502DT     BB146166  71.666  26.404  73.362
22502DT     BB246167  71.354  26.235  73.423
22502DT     BB346168  71.345  26.172  73.620
22502DT     SC146169  71.514  25.976  73.574
22502DT     SC246170  71.410  25.788  73.586
22502DT     SC346171  71.732  25.828  73.586
22503DC     BB146172  71.161  26.367  73.703
22503DC     BB246173  71.001  26.056  73.791
22503DC     BB346174  71.054  26.001  73.983
22503DC     SC146175  71.294  25.928  73.905
22503DC     SC246176  71.311  25.715  73.919
22503DC     SC346177  71.557  25.923  73.883
22504DA     BB146178  70.635  25.994  73.978
22504DA     BB246179  70.750  25.675  74.119
22504DA     BB346180  70.819  25.703  74.319
22504DA     SC146181  71.113  25.759  74.236
22504DA     SC246182  71.335  25.645  74.253
22504DA     SC346183  71.434  25.879  74.215
22504DA     SC446184  71.156  25.912  74.212
22505DA     BB146185  70.603  25.462  74.368
22505DA     BB246186  70.886  25.260  74.483
22505DA     BB346187  70.946  25.321  74.678
22505DA     SC146188  71.153  25.530  74.576
22505DA     SC246189  71.400  25.557  74.571
22505DA     SC346190  71.352  25.806  74.536
22505DA     SC446191  71.102  25.681  74.557
22506DT     BB146192  70.921  25.188  74.818
22506DT     BB246193  71.269  25.099  74.856
22506DT     BB346194  71.346  25.190  75.025
22506DT     SC146195  71.355  25.424  74.906
22506DT     SC246196  71.560  25.479  74.872
22506DT     SC346197  71.304  25.677  74.853
22507DA     BB146198  71.437  24.780  75.038
22507DA     BB246199  71.745  24.967  75.108
22507DA     BB346200  71.735  25.055  75.302
22507DA     SC146201  71.610  25.322  75.202
22507DA     SC246202  71.679  25.560  75.177
22507DA     SC346203  71.428  25.611  75.171
22507DA     SC446204  71.450  25.333  75.202
22508DA     BB146205  72.021  24.894  75.330
22508DA     BB246206  72.176  25.221  75.389
22508DA     BB346207  72.129  25.291  75.585
22508DA     SC146208  71.873  25.443  75.496
22508DA     SC246209  71.796  25.679  75.472
22508DA     SC346210  71.559  25.582  75.479
22508DA     SC446211  71.733  25.363  75.503
22509DA     BB146212  72.457  25.317  75.610
22509DA     BB246213  72.407  25.676  75.663
22509DA     BB346214  72.337  25.713  75.861
22509DA     SC146215  72.036  25.694  75.784
22509DA     SC246216  71.841  25.848  75.764
22509DA     SC346217  71.698  25.636  75.781
22509DA     SC446218  71.965  25.551  75.798
22510DA     BB146219  72.597  25.916  75.877
22510DA     BB246220  72.357  26.189  75.927
22510DA     BB346221  72.285  26.189  76.127
22510DA     SC146222  72.042  26.003  76.065
22510DA     SC246223  71.794  26.022  76.053
22510DA     SC346224  71.794  25.767  76.079
22510DA     SC446225  72.063  25.845  76.084
22511DC     BB146226  72.331  26.345  76.255
22511DC     BB246227  72.007  26.503  76.245
22511DC     BB346228  71.907  26.471  76.423
22511DC     SC146229  71.857  26.221  76.360
22511DC     SC246230  71.646  26.198  76.323
22511DC     SC346231  71.859  25.958  76.369
22512DT     BB146232  71.944  26.730  76.477
22512DT     BB246233  71.586  26.683  76.485
22512DT     BB346234  71.528  26.616  76.672
22512DT     SC146235  71.622  26.375  76.624
22512DT     SC246236  71.458  26.238  76.605
22512DT     SC346237  71.769  26.158  76.644
22513DA     BB146238  71.294  26.940  76.546
22513DA     BB246239  71.071  26.675  76.664
22513DA     BB346240  71.086  26.654  76.876
22513DA     SC146241  71.313  26.442  76.864
22513DA     SC246242  71.341  26.198  76.911
22513DA     SC346243  71.592  26.251  76.925
22513DA     SC446244  71.465  26.495  76.870
22514DT     BB146245  70.928  26.696  76.953
22514DT     BB246246  70.832  26.361  77.048
22514DT     BB346247  70.882  26.327  77.246
22514DT     SC146248  71.136  26.303  77.185
22514DT     SC246249  71.197  26.099  77.211
22514DT     SC346250  71.395  26.353  77.178
22515DA     BB146251  70.480  26.218  77.186
22515DA     BB246252  70.645  25.949  77.372
22515DA     BB346253  70.688  26.012  77.571
22515DA     SC146254  70.971  26.120  77.501
22515DA     SC246255  71.209  26.059  77.546
22515DA     SC346256  71.262  26.303  77.485
22515DA     SC446257  70.983  26.276  77.461
22516DA     BB146258  70.521  25.738  77.658
22516DA     BB246259  70.826  25.625  77.828
22516DA     BB346260  70.853  25.732  78.011
22516DA     SC146261  71.023  25.958  77.882
22516DA     SC246262  71.260  26.036  77.886
22516DA     SC346263  71.166  26.259  77.800
22516DA     SC446264  70.945  26.089  77.830
22517DA     BB146265  70.863  25.439  78.179
22517DA     BB246266  71.204  25.525  78.283
22517DA     BB346267  71.200  25.660  78.448
22517DA     SC146268  71.203  25.915  78.270
22517DA     SC246269  71.361  26.101  78.216
22517DA     SC346270  71.152  26.229  78.139
22517DA     SC446271  71.061  25.979  78.228
22518DA     BB146272  71.385  25.452  78.644
22518DA     BB246273  71.647  25.709  78.649
22518DA     BB346274  71.606  25.853  78.801
22518DA     SC146275  71.444  26.040  78.613
22518DA     SC246276  71.470  26.265  78.508
22518DA     SC346277  71.215  26.260  78.481
22518DA     SC446278  71.284  26.019  78.606
22519DT     BB146279  71.729  25.893  79.001
22519DT     BB246280  71.894  26.188  78.877
22519DT     BB346281  71.829  26.355  78.982
22519DT     SC146282  71.599  26.354  78.855
22519DT     SC246283  71.590  26.525  78.724
22519DT     SC346284  71.339  26.339  78.812
22520DT     BB146285  72.069  26.381  79.118
22520DT     BB246286  72.033  26.688  78.931
22520DT     BB346287  71.931  26.828  79.044
22520DT     SC146288  71.703  26.705  79.007
22520DT     SC246289  71.577  26.825  78.880
22520DT     SC346290  71.481  26.572  79.059
22521DT     BB146291  72.164  26.961  79.060
22521DT     BB246292  71.936  27.186  78.894
22521DT     BB346293  71.828  27.294  79.035
22521DT     SC146294  71.679  27.085  79.091
22521DT     SC246295  71.479  27.119  79.020
22521DT     SC346296  71.570  26.888  79.228
22522DA     BB146297  71.997  27.526  78.728
22522DA     BB246298  71.642  27.612  78.761
22522DA     BB346299  71.607  27.716  78.944
22522DA     SC146300  71.547  27.457  79.107
22522DA     SC246301  71.350  27.349  79.215
22522DA     SC346302  71.524  27.218  79.353
22522DA     SC446303  71.670  27.387  79.183
22523DA     BB146304  71.474  27.887  78.702
22523DA     BB246305  71.158  27.844  78.883
22523DA     BB346306  71.162  27.955  79.065
22523DA     SC146307  71.277  27.720  79.234
22523DA     SC246308  71.198  27.567  79.415
22523DA     SC346309  71.447  27.530  79.463
22523DA     SC446310  71.437  27.712  79.250
22524DA     BB146311  70.886  28.035  78.911
22524DA     BB246312  70.714  27.913  79.211
22524DA     BB346313  70.751  28.044  79.376
22524DA     SC146314  71.004  27.890  79.473
22524DA     SC246315  71.070  27.747  79.666
22524DA     SC346316  71.311  27.805  79.600
22524DA     SC446317  71.146  27.939  79.417
22525DT     BB146318  70.596  28.121  79.429
22525DT     BB246319  70.557  27.940  79.738
22525DT     BB346320  70.628  28.053  79.896
22525DT     SC146321  70.877  28.007  79.829
22525DT     SC246322  70.968  27.879  79.976
22525DT     SC346323  71.124  28.050  79.749
22526DA     BB146324  70.245  27.903  79.980
22526DA     BB246325  70.459  27.844  80.272
22526DA     BB346326  70.504  28.028  80.369
22526DA     SC146327  70.763  28.079  80.204
22526DA     SC246328  71.009  28.082  80.244
22526DA     SC346329  71.022  28.222  80.029
22526DA     SC446330  70.750  28.167  80.070
22527DT     BB146331  70.432  28.039  80.541
22527DT     BB246332  70.740  28.010  80.727
22527DT     BB346333  70.805  28.198  80.786
22527DT     SC146334  70.884  28.256  80.543
22527DT     SC246335  71.099  28.265  80.538
22527DT     SC346336  70.899  28.377  80.309
22528DT     BB146337  70.737  28.127  81.033
22528DT     BB246338  71.082  28.230  81.060
22528DT     BB346339  71.093  28.436  81.079
22528DT     SC146340  71.037  28.471  80.825
22528DT     SC246341  71.211  28.545  80.723
22528DT     SC346342  70.909  28.546  80.607
22529DG     BB146343  71.278  28.292  81.415
22529DG     BB246344  71.481  28.545  81.255
22529DG     BB346345  71.411  28.726  81.299
22529DG     SC146346  71.220  28.738  81.060
22529DG     SC246347  71.243  28.924  80.827
22529DG     SC346348  70.986  28.777  80.820
22529DG     SC446349  71.072  28.680  81.076
22530DT     BB146350  71.516  28.905  81.434
22530DT     BB246351  71.604  29.147  81.180
22530DT     BB346352  71.478  29.310  81.192
22530DT     SC146353  71.280  29.175  81.083
22530DT     SC246354  71.241  29.252  80.886
22530DT     SC346355  71.046  29.056  81.056
22531DA     BB146356  71.839  29.531  81.243
22531DA     BB246357  71.647  29.710  80.987
22531DA     BB346358  71.498  29.833  81.079
22531DA     SC146359  71.278  29.613  81.073
22531DA     SC246360  71.064  29.569  80.952
22531DA     SC346361  71.012  29.408  81.145
22531DA     SC446362  71.264  29.518  81.202
22532DA     BB146363  71.610  30.124  80.936
22532DA     BB246364  71.291  30.150  80.757
22532DA     BB346365  71.145  30.246  80.879
22532DA     SC146366  71.040  29.982  81.004
22532DA     SC246367  70.833  29.843  80.994
22532DA     SC346368  70.914  29.743  81.216
22532DA     SC446369  71.106  29.934  81.142
22533DA     BB146370  71.098  30.477  80.639
22533DA     BB246371  70.755  30.352  80.604
22533DA     BB346372  70.628  30.441  80.751
22533DA     SC146373  70.675  30.219  80.963
22533DA     SC246374  70.545  30.034  81.069
22533DA     SC346375  70.721  30.043  81.254
22533DA     SC446376  70.794  30.241  81.069
22534DT     BB146377  70.466  30.579  80.699
22534DT     BB246378  70.199  30.341  80.747
22534DT     BB346379  70.090  30.391  80.915
22534DT     SC146380  70.279  30.304  81.074
22534DT     SC246381  70.213  30.126  81.174
22534DT     SC346382  70.470  30.305  81.257
22535DA     BB146383  69.820  30.344  80.599
22535DA     BB246384  69.698  30.143  80.880
22535DA     BB346385  69.615  30.269  81.031
22535DA     SC146386  69.883  30.302  81.186
22535DA     SC246387  69.981  30.229  81.403
22535DA     SC346388  70.147  30.423  81.370
22535DA     SC446389  69.976  30.428  81.148
22536DC     BB146390  69.420  30.252  81.065
22536DC     BB246391  69.447  30.073  81.377
22536DC     BB346392  69.406  30.199  81.535
22536DC     SC146393  69.639  30.318  81.511
22536DC     SC246394  69.762  30.267  81.680
22536DC     SC346395  69.818  30.507  81.469
22537DG     BB146396  69.147  29.885  81.554
22537DG     BB246397  69.323  29.932  81.867
22537DG     BB346398  69.243  30.084  81.967
22537DG     SC146399  69.426  30.295  81.841
22537DG     SC246400  69.635  30.454  81.984
22537DG     SC346401  69.594  30.555  81.709
22537DG     SC446402  69.380  30.365  81.705
22538DC     BB146403  69.151  30.050  82.164
22538DC     BB246404  69.402  30.189  82.384
22538DC     BB346405  69.341  30.374  82.453
22538DC     SC146406  69.393  30.486  82.221
22538DC     SC246407  69.563  30.616  82.241
22538DC     SC346408  69.355  30.612  81.992
22539DA     BB146409  69.452  30.140  82.781
22539DA     BB246410  69.620  30.464  82.810
22539DA     BB346411  69.481  30.616  82.866
22539DA     SC146412  69.410  30.693  82.573
22539DA     SC246413  69.447  30.885  82.419
22539DA     SC346414  69.250  30.789  82.285
22539DA     SC446415  69.285  30.618  82.505
22540DA     BB146416  69.721  30.645  83.084
22540DA     BB246417  69.764  30.985  82.954
22540DA     BB346418  69.602  31.109  83.015
22540DA     SC146419  69.428  31.048  82.764
22540DA     SC246420  69.348  31.169  82.562
22540DA     SC346421  69.169  30.986  82.548
22540DA     SC446422  69.323  30.926  82.774
22541DC     BB146423  69.656  31.248  83.130
22541DC     BB246424  69.624  31.518  82.893
22541DC     BB346425  69.447  31.621  82.927
22541DC     SC146426  69.306  31.427  82.820
22541DC     SC246427  69.223  31.494  82.633
22541DC     SC346428  69.132  31.230  82.797
22542DA     BB146429  69.766  31.892  82.906
22542DA     BB246430  69.495  32.017  82.692
22542DA     BB346431  69.333  32.088  82.812
22542DA     SC146432  69.186  31.814  82.818
22542DA     SC246433  68.977  31.714  82.724
22542DA     SC346434  69.002  31.538  82.910
22542DA     SC446435  69.218  31.715  82.941
22543DG     BB146436  69.395  32.352  82.663
22543DG     BB246437  69.061  32.305  82.534
22543DG     BB346438  68.927  32.367  82.668
22543DG     SC146439  68.904  32.094  82.806
22543DG     SC246440  68.663  31.918  82.807
22543DG     SC346441  68.869  31.816  82.993
22543DG     SC446442  69.004  32.059  82.925
22544DA     BB146443  68.791  32.556  82.411
22544DA     BB246444  68.470  32.383  82.452
22544DA     BB346445  68.369  32.455  82.625
22544DA     SC146446  68.494  32.243  82.816
22544DA     SC246447  68.418  32.042  82.944
22544DA     SC346448  68.630  32.078  83.085
22544DA     SC446449  68.629  32.283  82.893
22545DC     BB146450  68.198  32.555  82.598
22545DC     BB246451  67.975  32.296  82.713
22545DC     BB346452  67.906  32.341  82.903
22545DC     SC146453  68.137  32.277  83.011
22545DC     SC246454  68.114  32.096  83.126
22545DC     SC346455  68.365  32.300  83.140
22546DG     BB146456  67.579  32.299  82.664
22546DG     BB246457  67.551  32.096  82.962
22546DG     BB346458  67.499  32.210  83.117
22546DG     SC146459  67.787  32.275  83.197
22546DG     SC246460  67.923  32.186  83.448
22546DG     SC346461  68.089  32.383  83.302
22546DG     SC446462  67.859  32.402  83.132
22547DA     BB146463  67.245  31.979  83.171
22547DA     BB246464  67.373  31.915  83.508
22547DA     BB346465  67.323  32.076  83.639
22547DA     SC146466  67.584  32.235  83.583
22547DA     SC246467  67.793  32.296  83.705
22547DA     SC346468  67.817  32.482  83.530
22547DA     SC446469  67.581  32.344  83.465
22548DT     BB146470  67.193  32.041  83.790
22548DT     BB246471  67.430  32.052  84.061
22548DT     BB346472  67.413  32.231  84.163
22548DT     SC146473  67.534  32.362  83.970
22548DT     SC246474  67.727  32.426  84.038
22548DT     SC346475  67.573  32.532  83.774
22549DA     BB146476  67.380  31.937  84.462
22549DA     BB246477  67.619  32.187  84.582
22549DA     BB346478  67.517  32.365  84.643
22549DA     SC146479  67.534  32.500  84.363
22549DA     SC246480  67.653  32.692  84.257
22549DA     SC346481  67.470  32.680  84.078
22549DA     SC446482  67.411  32.477  84.262
22550DT     BB146483  67.499  32.439  84.855
22550DT     BB246484  67.730  32.715  84.824
22550DT     BB346485  67.627  32.894  84.830
22550DT     SC146486  67.538  32.860  84.585
22550DT     SC246487  67.632  33.003  84.455
22550DT     SC346488  67.370  32.824  84.385
22551DT     BB146489  67.688  32.983  85.104
22551DT     BB246490  67.794  33.263  84.904
22551DT     BB346491  67.643  33.404  84.893
22551DT     SC146492  67.507  33.255  84.725
22551DT     SC246493  67.507  33.348  84.531
22551DT     SC346494  67.312  33.108  84.626
22552DT     BB146495  67.749  33.605  85.077
22552DT     BB246496  67.700  33.791  84.771
22552DT     BB346497  67.516  33.885  84.774
22552DT     SC146498  67.391  33.658  84.731
22552DT     SC246499  67.306  33.661  84.533
22552DT     SC346500  67.232  33.451  84.769
22553DA     BB146501  67.782  34.198  84.696
22553DA     BB246502  67.518  34.215  84.442
22553DA     BB346503  67.342  34.303  84.525
22553DA     SC146504  67.220  34.031  84.616
22553DA     SC246505  67.029  33.884  84.553
22553DA     SC346506  67.056  33.782  84.787
22553DA     SC446507  67.252  33.982  84.766
22554DA     BB146508  67.376  34.503  84.269
22554DA     BB246509  67.053  34.377  84.150
22554DA     BB346510  66.893  34.468  84.258
22554DA     SC146511  66.884  34.249  84.478
22554DA     SC246512  66.731  34.066  84.550
22554DA     SC346513  66.854  34.078  84.775
22554DA     SC446514  66.972  34.273  84.611
22555DT     BB146515  66.771  34.588  84.155
22555DT     BB246516  66.492  34.359  84.140
22555DT     BB346517  66.343  34.420  84.271
22555DT     SC146518  66.481  34.337  84.478
22555DT     SC246519  66.384  34.165  84.564
22555DT     SC346520  66.616  34.342  84.704
22556DT     BB146521  66.200  34.486  84.055
22556DT     BB246522  65.993  34.252  84.235
22556DT     BB346523  65.883  34.351  84.379
22556DT     SC146524  66.094  34.378  84.533
22556DT     SC246525  66.072  34.253  84.707
22556DT     SC346526  66.288  34.492  84.670
22557DA     BB146527  65.629  34.109  84.151
22557DA     BB246528  65.555  34.049  84.505
22557DA     BB346529  65.453  34.217  84.588
22557DA     SC146530  65.714  34.360  84.680
22557DA     SC246531  65.829  34.414  84.894
22557DA     SC346532  65.955  34.592  84.758
22557DA     SC446533  65.781  34.465  84.578
22558DT     BB146534  65.269  34.186  84.644
22558DT     BB246535  65.325  34.193  85.000
22558DT     BB346536  65.263  34.375  85.078
22558DT     SC146537  65.473  34.498  84.980
22558DT     SC246538  65.603  34.557  85.141
22558DT     SC346539  65.618  34.663  84.835
22559DT     BB146540  65.048  34.254  85.193
22559DT     BB246541  65.212  34.420  85.467
22559DT     BB346542  65.144  34.615  85.483
22559DT     SC146543  65.284  34.688  85.273
22559DT     SC246544  65.445  34.817  85.336
22559DT     SC346545  65.341  34.777  85.031
22560DA     BB146546  65.095  34.450  85.865
22560DA     BB246547  65.258  34.776  85.906
22560DA     BB346548  65.118  34.934  85.875
22560DA     SC146549  65.174  34.957  85.570
22560DA     SC246550  65.280  35.120  85.414
22560DA     SC346551  65.146  35.001  85.231
22560DA     SC446552  65.082  34.871  85.471
22561DG     BB146553  65.171  35.027  86.173
22561DG     BB246554  65.297  35.327  86.015
22561DG     BB346555  65.147  35.452  85.978
22561DG     SC146556  65.088  35.338  85.700
22561DG     SC246557  65.127  35.481  85.440
22561DG     SC346558  64.983  35.226  85.399
22561DG     SC446559  64.986  35.216  85.686
22562DT     BB146560  65.114  35.670  86.075
22562DT     BB246561  65.205  35.883  85.799
22562DT     BB346562  65.035  35.972  85.720
22562DT     SC146563  64.962  35.748  85.604
22562DT     SC246564  64.982  35.768  85.391
22562DT     SC346565  64.819  35.534  85.545
22563DC     BB146566  65.082  36.231  85.827
22563DC     BB246567  65.055  36.289  85.472
22563DC     BB346568  64.858  36.332  85.422
22563DC     SC146569  64.788  36.081  85.450
22563DC     SC246570  64.741  35.998  85.257
22563DC     SC346571  64.667  35.866  85.543
22564DC     BB146572  64.898  36.609  85.380
22564DC     BB246573  64.764  36.492  85.066
22564DC     BB346574  64.558  36.510  85.067
22564DC     SC146575  64.532  36.303  85.227
22564DC     SC246576  64.444  36.140  85.119
22564DC     SC346577  64.472  36.161  85.441
22565DA     BB146578  64.690  36.703  84.721
22565DA     BB246579  64.429  36.466  84.622
22565DA     BB346580  64.236  36.541  84.675
22565DA     SC146581  64.234  36.409  84.956
22565DA     SC246582  64.112  36.225  85.072
22565DA     SC346583  64.187  36.340  85.289
22565DA     SC446584  64.289  36.496  85.080
22566DG     BB146585  64.207  36.510  84.372
22566DG     BB246586  63.969  36.257  84.472
22566DG     BB346587  63.796  36.342  84.521
22566DG     SC146588  63.869  36.380  84.816
22566DG     SC246589  63.741  36.241  85.047
22566DG     SC346590  63.923  36.455  85.140
22566DG     SC446591  63.944  36.514  84.860
22567DA     BB146592  63.704  36.092  84.310
22567DA     BB246593  63.495  35.954  84.577
22567DA     BB346594  63.326  36.081  84.612
22567DA     SC146595  63.469  36.252  84.829
22567DA     SC246596  63.455  36.288  85.075
22567DA     SC346597  63.577  36.509  85.030
22567DA     SC446598  63.544  36.386  84.780
22568DA     BB146599  63.247  35.764  84.583
22568DA     BB246600  63.097  35.805  84.915
22568DA     BB346601  62.935  35.944  84.907
22568DA     SC146602  63.113  36.192  84.969
22568DA     SC246603  63.146  36.352  85.157
22568DA     SC346604  63.251  36.506  84.980
22568DA     SC446605  63.174  36.273  84.844
22569DT     BB146606  62.818  35.844  84.955
22569DT     BB246607  62.749  35.997  85.274
22569DT     BB346608  62.614  36.152  85.251
22569DT     SC146609  62.799  36.307  85.146
22569DT     SC246610  62.845  36.466  85.284
22569DT     SC346611  62.928  36.455  84.971
22570DT     BB146612  62.459  35.987  85.378
22570DT     BB246613  62.438  36.297  85.562
22570DT     BB346614  62.312  36.428  85.465
22570DT     SC146615  62.492  36.478  85.281
22570DT     SC246616  62.564  36.679  85.304
22570DT     SC346617  62.608  36.490  85.044
22571DC     BB146618  62.110  36.391  85.648
22571DC     BB246619  62.143  36.750  85.632
22571DC     BB346620  62.024  36.825  85.480
22571DC     SC146621  62.192  36.739  85.297
22571DC     SC246622  62.289  36.907  85.205
22571DC     SC346623  62.287  36.603  85.092
22572DG     BB146624  61.846  37.019  85.798
22572DG     BB246625  61.918  37.255  85.535
22572DG     BB346626  61.775  37.250  85.397
22572DG     SC146627  61.909  37.032  85.229
22572DG     SC246628  62.020  37.067  84.954
22572DG     SC346629  62.018  36.781  85.032
22572DG     SC446630  61.879  36.879  85.263
22573DA     BB146631  61.691  37.601  85.405
22573DA     BB246632  61.781  37.640  85.051
22573DA     BB346633  61.618  37.583  84.927
22573DA     SC146634  61.708  37.286  84.904
22573DA     SC246635  61.800  37.134  84.729
22573DA     SC346636  61.717  36.944  84.880
22573DA     SC446637  61.648  37.182  85.011
22574DC     BB146638  61.485  37.722  84.790
22574DC     BB246639  61.631  37.619  84.476
22574DC     BB346640  61.493  37.513  84.365
22574DC     SC146641  61.521  37.302  84.518
22574DC     SC246642  61.620  37.146  84.408
22574DC     SC346643  61.462  37.109  84.688
22575DA     BB146644  61.608  37.816  84.097
22575DA     BB246645  61.637  37.497  83.918
22575DA     BB346646  61.444  37.429  83.857
22575DA     SC146647  61.394  37.265  84.117
22575DA     SC246648  61.378  37.025  84.183
22575DA     SC346649  61.253  37.111  84.390
22575DA     SC446650  61.317  37.338  84.237
22576DA     BB146651  61.570  37.418  83.551
22576DA     BB246652  61.512  37.056  83.556
22576DA     BB346653  61.307  37.013  83.515
22576DA     SC146654  61.221  37.019  83.814
22576DA     SC246655  61.145  36.857  83.987
22576DA     SC346656  61.050  37.062  84.108
22576DA     SC446657  61.168  37.159  83.873
22577DC     BB146658  61.244  36.912  83.335
22577DC     BB246659  61.179  36.594  83.490
22577DC     BB346660  60.975  36.559  83.498
22577DC     SC146661  60.945  36.732  83.694
22577DC     SC246662  60.895  36.626  83.874
22577DC     SC346663  60.866  36.945  83.826
22578DC     BB146664  60.980  36.366  83.296
22578DC     BB246665  60.837  36.195  83.579
22578DC     BB346666  60.631  36.215  83.578
22578DC     SC146667  60.647  36.465  83.658
22578DC     SC246668  60.573  36.480  83.859
22578DC     SC346669  60.626  36.727  83.656
22579DT     BB146670  60.597  35.951  83.505
22579DT     BB246671  60.419  35.985  83.817
22579DT     BB346672  60.224  36.043  83.782
22579DT     SC146673  60.298  36.288  83.726
22579DT     SC246674  60.231  36.420  83.883
22579DT     SC346675  60.339  36.510  83.591
22580DA     BB146676  60.231  35.709  84.033
22580DA     BB246677  60.022  35.967  84.189
22580DA     BB346678  59.837  35.985  84.085
22580DA     SC146679  59.939  36.204  83.890
22580DA     SC246680  59.902  36.447  83.849
22580DA     SC346681  59.998  36.401  83.615
22580DA     SC446682  60.000  36.155  83.749
22581DA     BB146683  59.761  35.947  84.398
22581DA     BB246684  59.603  36.277  84.374
22581DA     BB346685  59.424  36.265  84.258
22581DA     SC146686  59.566  36.326  83.988
22581DA     SC246687  59.574  36.512  83.822
22581DA     SC346688  59.661  36.334  83.658
22581DA     SC446689  59.617  36.201  83.901
22582DT     BB146690  59.286  36.307  84.364
22582DT     BB246691  59.220  36.633  84.224
22582DT     BB346692  59.067  36.620  84.084
22582DT     SC146693  59.227  36.508  83.908
22582DT     SC246694  59.263  36.645  83.747
22582DT     SC346695  59.327  36.328  83.744
22583DA     BB146696  58.993  36.930  84.357
22583DA     BB246697  58.940  37.059  84.018
22583DA     BB346698  58.763  36.975  83.933
22583DA     SC146699  58.910  36.733  83.805
22583DA     SC246700  58.970  36.652  83.577
22583DA     SC346701  58.995  36.422  83.686
22583DA     SC446702  58.919  36.597  83.891
22584DT     BB146703  58.622  37.101  83.900
22584DT     BB246704  58.652  37.108  83.540
22584DT     BB346705  58.503  36.992  83.455
22584DT     SC146706  58.626  36.770  83.523
22584DT     SC246707  58.701  36.673  83.346
22584DT     SC346708  58.674  36.539  83.640
22585DT     BB146709  58.382  37.218  83.372
22585DT     BB246710  58.434  37.026  83.071
22585DT     BB346711  58.277  36.894  83.043
22585DT     SC146712  58.366  36.736  83.233
22585DT     SC246713  58.438  36.553  83.146
22585DT     SC346714  58.375  36.603  83.460
22586DA     BB146715  58.338  37.110  82.689
22586DA     BB246716  58.317  36.754  82.603
22586DA     BB346717  58.116  36.685  82.622
22586DA     SC146718  58.149  36.599  82.920
22586DA     SC246719  58.158  36.387  83.050
22586DA     SC346720  58.099  36.533  83.253
22586DA     SC446721  58.111  36.706  83.033
22587DA     BB146722  58.202  36.592  82.322
22587DA     BB246723  58.133  36.250  82.434
22587DA     BB346724  57.923  36.220  82.458
22587DA     SC146725  57.921  36.306  82.757
22587DA     SC246726  57.888  36.198  82.979
22587DA     SC346727  57.838  36.435  83.064
22587DA     SC446728  57.891  36.460  82.790
22588DA     BB146729  58.018  35.971  82.269
22588DA     BB246730  57.882  35.752  82.530
22588DA     BB346731  57.669  35.764  82.533
22588DA     SC146732  57.661  35.996  82.740
22588DA     SC246733  57.594  36.029  82.978
22588DA     SC346734  57.581  36.278  82.919
22588DA     SC446735  57.657  36.146  82.683
22589DT     BB146736  57.586  35.603  82.485
22589DT     BB246737  57.456  35.513  82.810
22589DT     BB346738  57.256  35.567  82.823
22589DT     SC146739  57.318  35.821  82.849
22589DT     SC246740  57.273  35.885  83.050
22589DT     SC346741  57.335  36.079  82.797
22590DA     BB146742  57.269  35.161  82.935
22590DA     BB246743  57.058  35.335  83.178
22590DA     BB346744  56.870  35.387  83.090
22590DA     SC146745  56.967  35.666  82.991
22590DA     SC246746  56.925  35.906  83.046
22590DA     SC346747  57.018  35.954  82.812
22590DA     SC446748  57.026  35.676  82.842
22591DT     BB146749  56.671  35.297  83.141
22591DT     BB246750  56.533  35.582  83.314
22591DT     BB346751  56.384  35.669  83.200
22591DT     SC146752  56.561  35.775  83.037
22591DT     SC246753  56.563  35.988  83.063
22591DT     SC346754  56.695  35.826  82.816
22592DC     BB146755  56.158  35.572  83.347
22592DC     BB246756  56.106  35.929  83.342
22592DC     BB346757  55.990  35.981  83.179
22592DC     SC146758  56.191  35.945  83.014
22592DC     SC246759  56.255  36.135  82.937
22592DC     SC346760  56.337  35.845  82.818
22593DT     BB146761  55.744  36.031  83.318
22593DT     BB246762  55.803  36.339  83.141
22593DT     BB346763  55.708  36.334  82.957
22593DT     SC146764  55.888  36.171  82.859
22593DT     SC246765  56.006  36.275  82.712
22593DT     SC346766  55.996  35.954  82.755
22594DG     BB146767  55.528  36.658  83.136
22594DG     BB246768  55.661  36.748  82.812
22594DG     BB346769  55.533  36.694  82.669
22594DG     SC146770  55.654  36.415  82.633
22594DG     SC246771  55.797  36.316  82.390
22594DG     SC346772  55.748  36.095  82.581
22594DG     SC446773  55.599  36.294  82.723
22595DA     BB146774  55.527  37.020  82.535
22595DA     BB246775  55.665  36.897  82.218
22595DA     BB346776  55.510  36.812  82.099
22595DA     SC146777  55.546  36.525  82.212
22595DA     SC246778  55.629  36.304  82.132
22595DA     SC346779  55.495  36.205  82.327
22595DA     SC446780  55.455  36.482  82.338
22596DA     BB146781  55.605  37.024  81.862
22596DA     BB246782  55.696  36.733  81.659
22596DA     BB346783  55.523  36.651  81.566
22596DA     SC146784  55.462  36.454  81.799
22596DA     SC246785  55.468  36.208  81.839
22596DA     SC346786  55.308  36.256  82.034
22596DA     SC446787  55.362  36.504  81.914
22597DT     BB146788  55.492  36.654  81.350
22597DT     BB246789  55.575  36.307  81.297
22597DT     BB346790  55.405  36.201  81.246
22597DT     SC146791  55.318  36.207  81.494
22597DT     SC246792  55.328  36.009  81.578
22597DT     SC346793  55.165  36.260  81.702
22598DA     BB146794  55.697  36.123  80.959
22598DA     BB246795  55.572  35.802  81.085
22598DA     BB346796  55.378  35.762  81.006
22598DA     SC146797  55.228  35.899  81.242
22598DA     SC246798  55.085  35.831  81.435
22598DA     SC346799  55.006  36.075  81.436
22598DA     SC446800  55.191  36.055  81.226
22599DT     BB146801  55.376  35.611  80.897
22599DT     BB246802  55.222  35.392  81.139
22599DT     BB346803  55.022  35.367  81.094
22599DT     SC146804  54.964  35.608  81.182
22599DT     SC246805  54.849  35.592  81.363
22599DT     SC346806  54.883  35.859  81.183
22600DA     BB146807  55.252  35.028  81.193
22600DA     BB246808  54.945  35.031  81.394
22600DA     BB346809  54.774  35.004  81.269
22600DA     SC146810  54.731  35.308  81.220
22600DA     SC246811  54.566  35.484  81.284
22600DA     SC346812  54.659  35.615  81.085
22600DA     SC446813  54.801  35.374  81.091
22601DA     BB146814  54.784  34.816  81.539
22601DA     BB246815  54.459  34.970  81.613
22601DA     BB346816  54.317  34.920  81.462
22601DA     SC146817  54.381  35.167  81.285
22601DA     SC246818  54.269  35.380  81.218
22601DA     SC346819  54.436  35.382  81.023
22601DA     SC446820  54.492  35.150  81.170
22602DT     BB146821  54.208  34.838  81.554
22602DT     BB246822  53.941  35.081  81.536
22602DT     BB346823  53.825  35.046  81.368
22602DT     SC146824  54.010  35.145  81.210
22602DT     SC246825  53.941  35.331  81.128
22602DT     SC346826  54.194  35.158  81.021
22603DA     BB146827  53.578  35.085  81.706
22603DA     BB246828  53.434  35.285  81.434
22603DA     BB346829  53.355  35.157  81.282
22603DA     SC146830  53.620  35.148  81.119
22603DA     SC246831  53.706  35.233  80.901
22603DA     SC346832  53.886  35.052  80.924
22603DA     SC446833  53.723  35.028  81.151
22604DT     BB146834  53.159  35.156  81.254
22604DT     BB246835  53.154  35.333  80.940
22604DT     BB346836  53.124  35.199  80.784
22604DT     SC146837  53.371  35.111  80.802
22604DT     SC246838  53.482  35.173  80.629
22604DT     SC346839  53.573  34.946  80.841
22605DT     BB146840  52.867  35.286  80.747
22605DT     BB246841  53.022  35.327  80.423
22605DT     BB346842  53.004  35.152  80.314
22605DT     SC146843  53.190  35.035  80.458
22605DT     SC246844  53.366  35.006  80.337
22605DT     SC346845  53.306  34.865  80.623
22606DA     BB146846  52.860  35.461  80.071
22606DA     BB246847  53.096  35.263  79.872
22606DA     BB346848  53.010  35.076  79.818
22606DA     SC146849  53.115  34.926  80.070
22606DA     SC246850  53.283  34.750  80.123
22606DA     SC346851  53.151  34.719  80.341
22606DA     SC446852  53.018  34.921  80.198
22607DT     BB146853  52.979  35.049  79.628
22607DT     BB246854  53.246  34.814  79.571
22607DT     BB346855  53.170  34.622  79.559
22607DT     SC146856  53.132  34.612  79.818
22607DT     SC246857  53.271  34.472  79.905
22607DT     SC346858  53.009  34.595  80.051
22608DT     BB146859  53.227  34.633  79.300
22608DT     BB246860  53.400  34.340  79.420
22608DT     BB346861  53.271  34.179  79.425
22608DT     SC146862  53.151  34.272  79.639
22608DT     SC246863  53.197  34.147  79.807
22608DT     SC346864  52.961  34.369  79.795
22609DC     BB146865  53.398  34.072  79.212
22609DC     BB246866  53.409  33.811  79.461
22609DC     BB346867  53.235  33.700  79.453
22609DC     SC146868  53.097  33.891  79.569
22609DC     SC246869  53.042  33.828  79.768
22609DC     SC346870  52.918  34.080  79.606
22610DA     BB146871  53.537  33.407  79.419
22610DA     BB246872  53.298  33.287  79.670
22610DA     BB346873  53.120  33.218  79.575
22610DA     SC146874  52.977  33.494  79.588
22610DA     SC246875  52.785  33.597  79.710
22610DA     SC346876  52.786  33.772  79.522
22610DA     SC446877  52.992  33.592  79.462
22611DC     BB146878  53.045  33.000  79.560
22611DC     BB246879  52.777  33.031  79.800
22611DC     BB346880  52.594  33.020  79.704
22611DC     SC146881  52.621  33.263  79.608
22611DC     SC246882  52.479  33.393  79.705
22611DC     SC346883  52.646  33.460  79.435
22612DA     BB146884  52.561  32.720  79.997
22612DA     BB246885  52.260  32.928  80.021
22612DA     BB346886  52.125  32.881  79.863
22612DA     SC146887  52.241  33.093  79.667
22612DA     SC246888  52.170  33.309  79.565
22612DA     SC346889  52.350  33.262  79.389
22612DA     SC446890  52.357  33.045  79.566
22613DT     BB146891  51.940  32.793  79.904
22613DT     BB246892  51.741  33.089  79.850
22613DT     BB346893  51.637  33.072  79.672
22613DT     SC146894  51.854  33.117  79.532
22613DT     SC246895  51.839  33.310  79.437
22613DT     SC346896  52.054  33.079  79.364
22614DA     BB146897  51.359  33.171  79.970
22614DA     BB246898  51.308  33.400  79.688
22614DA     BB346899  51.215  33.298  79.525
22614DA     SC146900  51.483  33.213  79.393
22614DA     SC246901  51.613  33.269  79.188
22614DA     SC346902  51.732  33.045  79.226
22614DA     SC446903  51.544  33.070  79.433
22615DA     BB146904  51.004  33.549  79.555
22615DA     BB246905  51.094  33.639  79.210
22615DA     BB346906  51.003  33.504  79.073
22615DA     SC146907  51.242  33.305  79.071
22615DA     SC246908  51.420  33.233  78.912
22615DA     SC346909  51.441  33.025  79.061
22615DA     SC446910  51.239  33.183  79.175
22616DC     BB146911  50.850  33.566  78.939
22616DC     BB246912  51.051  33.563  78.639
22616DC     BB346913  50.999  33.401  78.521
22616DC     SC146914  51.124  33.234  78.681
22616DC     SC246915  51.298  33.157  78.582
22616DC     SC346916  51.164  33.037  78.852
22617DT     BB146917  50.852  33.545  78.322
22617DT     BB246918  51.103  33.369  78.132
22617DT     BB346919  51.029  33.186  78.069
22617DT     SC146920  51.052  33.085  78.311
22617DT     SC246921  51.209  32.938  78.312
22617DT     SC346922  50.986  32.980  78.543
22618DT     BB146923  50.981  33.245  77.787
22618DT     BB246924  51.207  32.963  77.779
22618DT     BB346925  51.099  32.787  77.764
22618DT     SC146926  51.027  32.801  78.016
22618DT     SC246927  51.125  32.645  78.127
22618DT     SC346928  50.873  32.821  78.229
22619DA     BB146929  51.365  32.769  77.441
22619DA     BB246930  51.409  32.463  77.638
22619DA     BB346931  51.252  32.325  77.597
22619DA     SC146932  51.067  32.431  77.824
22619DA     SC246933  50.980  32.351  78.044
22619DA     SC346934  50.797  32.528  78.013
22619DA     SC446935  50.960  32.546  77.786
22620DA     BB146936  51.523  32.165  77.550
22620DA     BB246937  51.419  31.963  77.839
22620DA     BB346938  51.262  31.831  77.783
22620DA     SC146939  51.035  32.031  77.857
22620DA     SC246940  50.857  32.053  78.030
22620DA     SC346941  50.744  32.214  77.865
22620DA     SC446942  50.980  32.127  77.740
22621DT     BB146943  51.339  31.692  77.818
22621DT     BB246944  51.158  31.622  78.123
22621DT     BB346945  50.991  31.507  78.081
22621DT     SC146946  50.865  31.714  77.980
22621DT     SC246947  50.703  31.770  78.111
22621DT     SC346948  50.743  31.869  77.805
22622DA     BB146949  51.240  31.422  78.419
22622DA     BB246950  50.887  31.416  78.519
22622DA     BB346951  50.784  31.260  78.417
22622DA     SC146952  50.701  31.440  78.177
22622DA     SC246953  50.492  31.540  78.085
22622DA     SC346954  50.622  31.561  77.865
22622DA     SC446955  50.798  31.443  78.049
22623DA     BB146956  50.722  31.260  78.742
22623DA     BB246957  50.370  31.277  78.640
22623DA     BB346958  50.316  31.103  78.530
22623DA     SC146959  50.390  31.225  78.253
22623DA     SC246960  50.272  31.303  78.048
22623DA     SC346961  50.498  31.275  77.931
22623DA     SC446962  50.539  31.200  78.198
22624DA     BB146963  50.080  31.119  78.760
22624DA     BB246964  49.841  31.121  78.482
22624DA     BB346965  49.838  30.931  78.385
22624DA     SC146966  50.060  31.006  78.180
22624DA     SC246967  50.077  31.049  77.935
22624DA     SC346968  50.327  31.001  77.964
22624DA     SC446969  50.212  30.971  78.218
22625DT     BB146970  49.672  30.804  78.395
22625DT     BB246971  49.561  30.841  78.054
22625DT     BB346972  49.608  30.671  77.946
22625DT     SC146973  49.861  30.737  77.936
22625DT     SC246974  49.914  30.790  77.735
22625DT     SC346975  50.122  30.727  77.974
22626DA     BB146976  49.192  30.693  77.876
22626DA     BB246977  49.351  30.641  77.550
22626DA     BB346978  49.408  30.437  77.526
22626DA     SC146979  49.692  30.477  77.646
22626DA     SC246980  49.928  30.476  77.565
22626DA     SC346981  49.991  30.437  77.811
22626DA     SC446982  49.711  30.452  77.803
22627DA     BB146983  49.227  30.422  77.244
22627DA     BB246984  49.539  30.358  77.062
22627DA     BB346985  49.591  30.151  77.076
22627DA     SC146986  49.762  30.186  77.333
22627DA     SC246987  50.003  30.176  77.398
22627DA     SC346988  49.917  30.143  77.637
22627DA     SC446989  49.689  30.165  77.475
22628DA     BB146990  49.597  30.159  76.746
22628DA     BB246991  49.955  30.083  76.767
22628DA     BB346992  49.985  29.874  76.801
22628DA     SC146993  49.984  29.899  77.111
22628DA     SC246994  50.148  29.879  77.298
22628DA     SC346995  49.942  29.847  77.448
22628DA     SC446996  49.844  29.880  77.187
22629DT     BB146997  50.075  29.772  76.656
22629DT     BB246998  50.395  29.745  76.821
22629DT     BB346999  50.421  29.553  76.893
22629DT     SC147000  50.254  29.596  77.090
22629DT     SC247001  50.362  29.602  77.276
22629DT     SC347002  50.041  29.573  77.244
22630DA     BB147003  50.750  29.699  76.677
22630DA     BB247004  50.869  29.563  76.996
22630DA     BB347005  50.848  29.351  76.998
22630DA     SC147006  50.562  29.356  77.121
22630DA     SC247007  50.453  29.297  77.337
22630DA     SC347008  50.235  29.290  77.202
22630DA     SC447009  50.438  29.356  77.019
22631DC     BB147010  51.010  29.281  77.010
22631DC     BB247011  50.987  29.168  77.352
22631DC     BB347012  50.934  28.968  77.357
22631DC     SC147013  50.686  29.025  77.294
22631DC     SC247014  50.559  28.987  77.463
22631DC     SC347015  50.460  29.033  77.158
22632DA     BB147016  51.263  29.053  77.606
22632DA     BB247017  51.025  28.845  77.792
22632DA     BB347018  51.019  28.648  77.711
22632DA     SC147019  50.789  28.711  77.511
22632DA     SC247020  50.549  28.652  77.482
22632DA     SC347021  50.582  28.723  77.237
22632DA     SC447022  50.830  28.758  77.363
22633DT     BB147023  51.081  28.522  77.831
22633DT     BB247024  50.766  28.363  77.905
22633DT     BB347025  50.745  28.191  77.792
22633DT     SC147026  50.695  28.331  77.575
22633DT     SC247027  50.488  28.304  77.520
22633DT     SC347028  50.721  28.431  77.333
22634DT     BB147029  50.787  28.039  78.012
22634DT     BB247030  50.475  27.917  77.880
22634DT     BB347031  50.511  27.772  77.736
22634DT     SC147032  50.586  27.953  77.561
22634DT     SC247033  50.439  27.967  77.405
22634DT     SC347034  50.739  28.089  77.395
22635DA     BB147035  50.248  27.578  78.001
22635DA     BB247036  50.123  27.517  77.662
22635DA     BB347037  50.245  27.371  77.564
22635DA     SC147038  50.440  27.581  77.441
22635DA     SC247039  50.494  27.672  77.216
22635DA     SC347040  50.716  27.747  77.323
22635DA     SC447041  50.572  27.617  77.526
22636DT     BB147042  50.184  27.157  77.506
22636DT     BB247043  50.156  27.213  77.151
22636DT     BB347044  50.308  27.115  77.052
22636DT     SC147045  50.484  27.294  77.129
22636DT     SC247046  50.548  27.409  76.960
22636DT     SC347047  50.694  27.400  77.249
22637DC     BB147048  50.158  26.891  76.944
22637DC     BB247049  50.310  27.037  76.651
22637DC     BB347050  50.490  26.943  76.610
22637DC     SC147051  50.609  27.065  76.809
22637DC     SC247052  50.750  27.208  76.732
22637DC     SC347053  50.735  27.103  77.038
22638DA     BB147054  50.289  26.896  76.243
22638DA     BB247055  50.619  27.036  76.167
22638DA     BB347056  50.768  26.884  76.173
22638DA     SC147057  50.832  26.926  76.475
22638DA     SC247058  51.021  27.015  76.613
22638DA     SC347059  50.914  26.883  76.805
22638DA     SC447060  50.752  26.837  76.581
22639DA     BB147061  50.844  26.975  75.865
22639DA     BB247062  51.172  27.077  75.993
22639DA     BB347063  51.300  26.908  76.012
22639DA     SC147064  51.217  26.847  76.306
22639DA     SC247065  51.320  26.859  76.533
22639DA     SC347066  51.136  26.695  76.603
22639DA     SC447067  51.096  26.744  76.329
22640DT     BB147068  51.469  26.893  75.892
22640DT     BB247069  51.704  26.985  76.150
22640DT     BB347070  51.813  26.819  76.210
22640DT     SC147071  51.608  26.724  76.343
22640DT     SC247072  51.650  26.734  76.554
22640DT     SC347073  51.413  26.562  76.415
22641DT     BB147074  52.022  26.933  76.089
22641DT     BB247075  52.122  26.893  76.434
22641DT     BB347076  52.198  26.703  76.464
22641DT     SC147077  51.957  26.597  76.456
22641DT     SC247078  51.904  26.527  76.652
22641DT     SC347079  51.753  26.452  76.375
22642DC     BB147080  52.425  26.830  76.493
22642DC     BB247081  52.377  26.650  76.801
22642DC     BB347082  52.438  26.453  76.778
22642DC     SC147083  52.224  26.395  76.638
22642DC     SC247084  52.096  26.265  76.752
22642DC     SC347085  52.073  26.322  76.434
22643DT     BB147086  52.638  26.520  76.938
22643DT     BB247087  52.476  26.242  77.101
22643DT     BB347088  52.544  26.064  77.021
22643DT     SC147089  52.403  26.099  76.803
22643DT     SC247090  52.243  25.955  76.798
22643DT     SC347091  52.343  26.136  76.549
22644DT     BB147092  52.678  26.021  77.250
22644DT     BB247093  52.470  25.729  77.210
22644DT     BB347094  52.564  25.591  77.088
22644DT     SC147095  52.514  25.733  76.874
22644DT     SC247096  52.368  25.631  76.753
22644DT     SC347097  52.553  25.880  76.658
22645DC     BB147098  52.618  25.426  77.301
22645DC     BB247099  52.436  25.217  77.070
22645DC     BB347100  52.567  25.128  76.937
22645DC     SC147101  52.598  25.353  76.806
22645DC     SC247102  52.505  25.336  76.612
22645DC     SC347103  52.713  25.568  76.704
22646DT     BB147104  52.545  24.878  77.056
22646DT     BB247105  52.452  24.822  76.712
22646DT     BB347106  52.620  24.775  76.600
22646DT     SC147107  52.700  25.025  76.602
22646DT     SC247108  52.681  25.108  76.404
22646DT     SC347109  52.848  25.238  76.649
22647DA     BB147110  52.337  24.475  76.529
22647DA     BB247111  52.456  24.597  76.204
22647DA     BB347112  52.654  24.525  76.166
22647DA     SC147113  52.794  24.771  76.296
22647DA     SC247114  52.929  24.966  76.222
22647DA     SC347115  53.009  24.978  76.466
22647DA     SC447116  52.832  24.760  76.452
22648DA     BB147117  52.491  24.438  75.899
22648DA     BB247118  52.724  24.653  75.715
22648DA     BB347119  52.917  24.562  75.705
22648DA     SC147120  53.020  24.693  75.967
22648DA     SC247121  53.187  24.867  76.033
22648DA     SC347122  53.177  24.759  76.265
22648DA     SC447123  53.002  24.611  76.104
22649DT     BB147124  52.954  24.529  75.534
22649DT     BB247125  53.201  24.788  75.490
22649DT     BB347126  53.391  24.710  75.512
22649DT     SC147127  53.362  24.694  75.773
22649DT     SC247128  53.491  24.839  75.867
22649DT     SC347129  53.342  24.591  76.015
22650DT     BB147130  53.393  24.767  75.261
22650DT     BB247131  53.674  24.943  75.404
22650DT     BB347132  53.831  24.812  75.436
22650DT     SC147133  53.711  24.706  75.644
22650DT     SC247134  53.817  24.761  75.823
22650DT     SC347135  53.593  24.528  75.798
22651DT     BB147136  53.944  24.943  75.239
22651DT     BB247137  54.180  24.960  75.511
22651DT     BB347138  54.290  24.785  75.521
22651DT     SC147139  54.087  24.654  75.623
22651DT     SC247140  54.129  24.605  75.828
22651DT     SC347141  53.892  24.477  75.647
22652DA     BB147142  54.566  25.102  75.518
22652DA     BB247143  54.665  24.869  75.783
22652DA     BB347144  54.745  24.691  75.699
22652DA     SC147145  54.472  24.543  75.687
22652DA     SC247146  54.360  24.352  75.802
22652DA     SC347147  54.205  24.347  75.598
22652DA     SC447148  54.386  24.555  75.552
22653DC     BB147149  54.948  24.641  75.720
22653DC     BB247150  54.905  24.371  75.955
22653DC     BB347151  54.935  24.189  75.861
22653DC     SC147152  54.702  24.205  75.741
22653DC     SC247153  54.570  24.056  75.823
22653DC     SC347154  54.523  24.222  75.548
22654DT     BB147155  55.182  24.147  75.979
22654DT     BB247156  54.993  23.852  76.066
22654DT     BB347157  55.016  23.708  75.919
22654DT     SC147158  54.857  23.838  75.756
22654DT     SC247159  54.674  23.728  75.732
22654DT     SC347160  54.774  23.973  75.544
22655DA     BB147161  55.117  23.513  76.277
22655DA     BB247162  54.878  23.300  76.098
22655DA     BB347163  54.973  23.203  75.934
22655DA     SC147164  54.905  23.429  75.731
22655DA     SC247165  54.757  23.461  75.533
22655DA     SC347166  54.912  23.656  75.473
22655DA     SC447167  55.014  23.546  75.710
22656DA     BB147168  54.858  22.927  76.074
22656DA     BB247169  54.664  22.872  75.768
22656DA     BB347170  54.790  22.797  75.613
22656DA     SC147171  54.862  23.078  75.502
22656DA     SC247172  54.815  23.214  75.298
22656DA     SC347173  55.022  23.350  75.365
22656DA     SC447174  54.995  23.149  75.559
22657DG     BB147175  54.605  22.544  75.614
22657DG     BB247176  54.524  22.656  75.279
22657DG     BB347177  54.660  22.591  75.151
22657DG     SC147178  54.842  22.835  75.181
22657DG     SC247179  54.899  23.039  74.970
22657DG     SC347180  55.074  23.079  75.205
22657DG     SC447181  54.954  22.836  75.296
22658DA     BB147182  54.403  22.457  74.957
22658DA     BB247183  54.503  22.668  74.674
22658DA     BB347184  54.674  22.587  74.578
22658DA     SC147185  54.878  22.745  74.752
22658DA     SC247186  55.040  22.931  74.723
22658DA     SC347187  55.151  22.842  74.937
22658DA     SC447188  54.933  22.673  74.885
22659DT     BB147189  54.665  22.510  74.380
22659DT     BB247190  54.833  22.786  74.220
22659DT     BB347191  55.023  22.729  74.163
22659DT     SC147192  55.110  22.738  74.410
22659DT     SC247193  55.246  22.904  74.432
22659DT     SC347194  55.208  22.659  74.642
22660DA     BB147195  54.846  22.886  73.817
22660DA     BB247196  55.171  23.050  73.858
22660DA     BB347197  55.329  22.916  73.804
22660DA     SC147198  55.363  22.801  74.090
22660DA     SC247199  55.532  22.809  74.274
22660DA     SC347200  55.418  22.596  74.361
22660DA     SC447201  55.280  22.668  74.128
22661DG     BB147202  55.401  23.129  73.586
22661DG     BB247203  55.701  23.164  73.784
22661DG     BB347204  55.835  23.026  73.730
22661DG     SC147205  55.736  22.817  73.930
22661DG     SC247206  55.888  22.714  74.166
22661DG     SC347207  55.642  22.557  74.123
22661DG     SC447208  55.619  22.716  73.887
22662DA     BB147209  56.049  23.294  73.701
22662DA     BB247210  56.268  23.145  73.955
22662DA     BB347211  56.379  22.983  73.872
22662DA     SC147212  56.167  22.767  73.944
22662DA     SC247213  56.145  22.576  74.102
22662DA     SC347214  55.960  22.494  73.946
22662DA     SC447215  56.055  22.733  73.834
22663DA     BB147216  56.612  23.168  74.005
22663DA     BB247217  56.689  22.878  74.215
22663DA     BB347218  56.787  22.727  74.100
22663DA     SC147219  56.523  22.583  74.020
22663DA     SC247220  56.408  22.367  74.070
22663DA     SC347221  56.277  22.411  73.853
22663DA     SC447222  56.454  22.627  73.882
22664DT     BB147223  56.966  22.694  74.155
22664DT     BB247224  56.905  22.376  74.314
22664DT     BB347225  56.964  22.222  74.189
22664DT     SC147226  56.753  22.255  74.036
22664DT     SC247227  56.620  22.088  74.060
22664DT     SC347228  56.607  22.309  73.824
22665DG     BB147229  57.161  22.187  74.544
22665DG     BB247230  56.996  21.879  74.452
22665DG     BB347231  57.099  21.786  74.310
22665DG     SC147232  56.953  21.924  74.079
22665DG     SC247233  56.772  21.792  73.882
22665DG     SC347234  56.828  22.071  73.803
22665DG     SC447235  57.009  22.064  74.025
22666DT     BB147236  57.180  21.592  74.352
22666DT     BB247237  56.963  21.378  74.160
22666DT     BB347238  57.056  21.321  73.984
22666DT     SC147239  57.019  21.559  73.878
22666DT     SC247240  56.874  21.544  73.720
22666DT     SC347241  57.071  21.795  73.775
22667DT     BB147242  57.082  21.074  74.085
22667DT     BB247243  56.904  21.027  73.775
22667DT     BB347244  57.038  21.013  73.618
22667DT     SC147245  57.085  21.271  73.624
22667DT     SC247246  57.002  21.363  73.448
22667DT     SC347247  57.215  21.499  73.652
22668DA     BB147248  56.779  20.683  73.594
22668DA     BB247249  56.799  20.835  73.261
22668DA     BB347250  56.989  20.794  73.172
22668DA     SC147251  57.125  21.050  73.284
22668DA     SC247252  57.212  21.266  73.195
22668DA     SC347253  57.347  21.278  73.413
22668DA     SC447254  57.201  21.038  73.425
22669DG     BB147255  56.814  20.658  72.955
22669DG     BB247256  56.955  20.916  72.744
22669DG     BB347257  57.137  20.862  72.685
22669DG     SC147258  57.279  20.990  72.924
22669DG     SC247259  57.463  21.225  72.913
22669DG     SC347260  57.465  21.101  73.182
22669DG     SC447261  57.300  20.904  73.057
22670DA     BB147262  57.029  20.930  72.361
22670DA     BB247263  57.296  21.178  72.322
22670DA     BB347264  57.483  21.082  72.293
22670DA     SC147265  57.553  21.071  72.596
22670DA     SC247266  57.716  21.179  72.752
22670DA     SC347267  57.668  20.980  72.907
22670DA     SC447268  57.511  20.939  72.677
22671DT     BB147269  57.587  21.095  72.109
22671DT     BB247270  57.846  21.320  72.219
22671DT     BB347271  58.025  21.218  72.237
22671DT     SC147272  57.945  21.102  72.459
22671DT     SC247273  58.058  21.180  72.625
22671DT     SC347274  57.874  20.913  72.628
22672DA     BB147275  58.123  21.539  71.984
22672DA     BB247276  58.376  21.528  72.249
22672DA     BB347277  58.515  21.370  72.213
22672DA     SC147278  58.353  21.159  72.376
22672DA     SC247279  58.377  21.034  72.590
22672DA     SC347280  58.206  20.871  72.490
22672DA     SC447281  58.247  21.069  72.296
22673DT     BB147282  58.726  21.403  72.162
22673DT     BB247283  58.858  21.312  72.485
22673DT     BB347284  58.958  21.131  72.472
22673DT     SC147285  58.732  20.998  72.459
22673DT     SC247286  58.704  20.886  72.640
22673DT     SC347287  58.539  20.845  72.363
22674DC     BB147288  59.209  21.249  72.495
22674DC     BB247289  59.195  21.016  72.770
22674DC     BB347290  59.267  20.831  72.710
22674DC     SC147291  59.048  20.781  72.575
22674DC     SC247292  58.938  20.624  72.673
22674DC     SC347293  58.888  20.731  72.371
22675DA     BB147294  59.462  20.947  73.061
22675DA     BB247295  59.334  20.607  73.108
22675DA     BB347296  59.451  20.467  72.997
22675DA     SC147297  59.274  20.485  72.742
22675DA     SC247298  59.114  20.340  72.617
22675DA     SC347299  59.159  20.496  72.418
22675DA     SC447300  59.316  20.593  72.630
22676DA     BB147301  59.440  20.352  73.299
22676DA     BB247302  59.278  20.057  73.153
22676DA     BB347303  59.419  19.944  73.040
22676DA     SC147304  59.361  20.092  72.773
22676DA     SC247305  59.254  20.042  72.554
22676DA     SC347306  59.387  20.244  72.466
22676DA     SC447307  59.453  20.220  72.738
22677DA     BB147308  59.262  19.743  73.245
22677DA     BB247309  59.162  19.560  72.943
22677DA     BB347310  59.332  19.468  72.852
22677DA     SC147311  59.396  19.712  72.669
22677DA     SC247312  59.387  19.767  72.426
22677DA     SC347313  59.553  19.954  72.484
22677DA     SC447314  59.499  19.821  72.725
22678DT     BB147315  59.306  19.295  72.859
22678DT     BB247316  59.249  19.239  72.507
22678DT     BB347317  59.426  19.184  72.415
22678DT     SC147318  59.516  19.430  72.424
22678DT     SC247319  59.523  19.511  72.225
22678DT     SC347320  59.668  19.637  72.487
22679DT     BB147321  59.317  18.944  72.395
22679DT     BB247322  59.415  19.029  72.058
22679DT     BB347323  59.616  18.988  72.031
22679DT     SC147324  59.686  19.198  72.170
22679DT     SC247325  59.774  19.345  72.040
22679DT     SC347326  59.791  19.344  72.363
22680DA     BB147327  59.426  18.785  71.714
22680DA     BB247328  59.714  18.963  71.572
22680DA     BB347329  59.896  18.865  71.626
22680DA     SC147330  59.936  19.031  71.887
22680DA     SC247331  60.091  19.207  71.971
22680DA     SC347332  60.013  19.134  72.205
22680DA     SC447333  59.876  18.970  72.023
22681DG     BB147334  59.983  18.789  71.321
22681DG     BB247335  60.266  19.005  71.383
22681DG     BB347336  60.417  18.900  71.458
22681DG     SC147337  60.332  18.939  71.750
22681DG     SC247338  60.481  19.094  71.956
22681DG     SC347339  60.257  18.945  72.078
22681DG     SC447340  60.230  18.835  71.815
22682DA     BB147341  60.660  18.995  71.213
22682DA     BB247342  60.870  19.152  71.468
22682DA     BB347343  60.996  19.007  71.561
22682DA     SC147344  60.793  18.939  71.786
22682DA     SC247345  60.774  18.971  72.033
22682DA     SC347346  60.603  18.780  72.024
22682DA     SC447347  60.691  18.817  71.761
22683DG     BB147348  61.250  19.163  71.455
22683DG     BB247349  61.307  19.224  71.807
22683DG     BB347350  61.415  19.075  71.885
22683DG     SC147351  61.171  18.906  71.961
22683DG     SC247352  61.082  18.842  72.239
22683DG     SC347353  60.928  18.687  72.040
22683DG     SC447354  61.111  18.803  71.854
22684DG     BB147355  61.633  19.300  71.971
22684DG     BB247356  61.555  19.208  72.313
22684DG     BB347357  61.661  19.048  72.365
22684DG     SC147358  61.450  18.847  72.271
22684DG     SC247359  61.291  18.664  72.446
22684DG     SC347360  61.250  18.599  72.161
22684DG     SC447361  61.454  18.796  72.119
22685DT     BB147362  61.786  19.077  72.524
22685DT     BB247363  61.619  18.899  72.789
22685DT     BB347364  61.705  18.713  72.815
22685DT     SC147365  61.591  18.621  72.597
22685DT     SC247366  61.441  18.477  72.650
22685DT     SC347367  61.564  18.522  72.354
22686DC     BB147368  61.786  18.820  73.039
22686DC     BB247369  61.611  18.520  73.136
22686DC     BB347370  61.735  18.355  73.114
22686DC     SC147371  61.708  18.361  72.853
22686DC     SC247372  61.593  18.191  72.789
22686DC     SC347373  61.770  18.383  72.597
22687DG     BB147374  61.612  18.361  73.503
22687DG     BB247375  61.575  18.031  73.360
22687DG     BB347376  61.753  17.942  73.349
22687DG     SC147377  61.816  18.048  73.069
22687DG     SC247378  61.841  17.885  72.820
22687DG     SC347379  61.928  18.164  72.772
22687DG     SC447380  61.890  18.190  73.055
22688DA     BB147381  61.669  17.638  73.534
22688DA     BB247382  61.767  17.423  73.254
22688DA     BB347383  61.979  17.396  73.251
22688DA     SC147384  62.031  17.641  73.066
22688DA     SC247385  62.107  17.682  72.832
22688DA     SC347386  62.164  17.919  72.914
22688DA     SC447387  62.062  17.782  73.136
22689DA     BB147388  62.044  17.030  73.288
22689DA     BB247389  62.203  17.021  72.958
22689DA     BB347390  62.413  17.051  72.977
22689DA     SC147391  62.397  17.360  72.947
22689DA     SC247392  62.460  17.533  72.779
22689DA     SC347393  62.446  17.698  72.974
22689DA     SC447394  62.384  17.447  73.081
22690DT     BB147395  62.719  16.894  72.956
22690DT     BB247396  62.788  17.039  72.633
22690DT     BB347397  62.965  17.147  72.640
22690DT     SC147398  62.850  17.342  72.772
22690DT     SC247399  62.836  17.515  72.646
22690DT     SC347400  62.795  17.511  72.967
22691DT     BB147401  63.224  16.982  72.500
22691DT     BB247402  63.202  17.283  72.303
22691DT     BB347403  63.355  17.413  72.354
22691DT     SC147404  63.235  17.477  72.579
22691DT     SC247405  63.166  17.680  72.567
22691DT     SC347406  63.190  17.503  72.837
22692DA     BB147407  63.395  17.368  71.941
22692DA     BB247408  63.355  17.726  72.010
22692DA     BB347409  63.540  17.810  72.074
22692DA     SC147410  63.486  17.758  72.376
22692DA     SC247411  63.437  17.893  72.581
22692DA     SC347412  63.516  17.686  72.711
22692DA     SC447413  63.540  17.621  72.439
22693DA     BB147414  63.433  17.989  71.832
22693DA     BB247415  63.408  18.259  72.079
22693DA     BB347416  63.602  18.332  72.130
22693DA     SC147417  63.641  18.135  72.367
22693DA     SC247418  63.652  18.146  72.616
22693DA     SC347419  63.770  17.919  72.600
22693DA     SC447420  63.714  17.995  72.336
22694DT     BB147421  63.591  18.492  72.080
22694DT     BB247422  63.567  18.638  72.409
22694DT     BB347423  63.755  18.692  72.476
22694DT     SC147424  63.819  18.442  72.523
22694DT     SC247425  63.833  18.411  72.736
22694DT     SC347426  63.944  18.211  72.506
22695DA     BB147427  63.443  18.972  72.529
22695DA     BB247428  63.633  18.943  72.841
22695DA     BB347429  63.831  19.018  72.815
22695DA     SC147430  63.950  18.743  72.730
22695DA     SC247431  64.105  18.572  72.824
22695DA     SC347432  64.132  18.492  72.582
22695DA     SC447433  63.954  18.709  72.573
22696DT     BB147434  63.842  19.152  72.921
22696DT     BB247435  64.070  19.008  73.161
22696DT     BB347436  64.265  19.057  73.110
22696DT     SC147437  64.266  18.885  72.912
22696DT     SC247438  64.398  18.722  72.960
22696DT     SC347439  64.277  18.789  72.667
22697DT     BB147440  64.254  19.211  73.324
22697DT     BB247441  64.546  19.005  73.373
22697DT     BB347442  64.707  19.084  73.269
22697DT     SC147443  64.610  19.001  73.040
22697DT     SC247444  64.733  18.842  72.964
22697DT     SC347445  64.510  19.007  72.796
22698DG     BB147446  64.833  19.075  73.658
22698DG     BB247447  65.083  18.932  73.439
22698DG     BB347448  65.185  19.077  73.349
22698DG     SC147449  64.995  19.095  73.109
22698DG     SC247450  65.062  19.022  72.827
22698DG     SC347451  64.798  19.155  72.842
22698DG     SC447452  64.869  19.193  73.117
22699DG     BB147453  65.494  18.997  73.470
22699DG     BB247454  65.600  18.947  73.128
22699DG     BB347455  65.663  19.119  73.051
22699DG     SC147456  65.388  19.201  72.946
22699DG     SC247457  65.310  19.226  72.659
22699DG     SC347458  65.097  19.332  72.835
22699DG     SC447459  65.290  19.283  73.042
22700DT     BB147460  65.906  19.209  72.971
22700DT     BB247461  65.865  19.197  72.613
22700DT     BB347462  65.863  19.390  72.536
22700DT     SC147463  65.619  19.430  72.625
22700DT     SC247464  65.483  19.441  72.459
22700DT     SC347465  65.419  19.534  72.763
22701DA     BB147466  66.193  19.255  72.302
22701DA     BB247467  65.958  19.409  72.066
22701DA     BB347468  65.983  19.621  72.064
22701DA     SC147469  65.773  19.672  72.288
22701DA     SC247470  65.546  19.772  72.309
22701DA     SC347471  65.600  19.795  72.558
22701DA     SC447472  65.826  19.679  72.440
22702DT     BB147473  66.069  19.765  71.885
22702DT     BB247474  65.744  19.885  71.784
22702DT     BB347475  65.729  20.088  71.820
22702DT     SC147476  65.703  20.048  72.078
22702DT     SC247477  65.502  20.097  72.138
22702DT     SC347478  65.755  20.054  72.337
22703DT     BB147479  65.745  20.158  71.549
22703DT     BB247480  65.427  20.289  71.658
22703DT     BB347481  65.449  20.484  71.723
22703DT     SC147482  65.563  20.405  71.946
22703DT     SC247483  65.430  20.443  72.111
22703DT     SC347484  65.745  20.371  72.133
22704DT     BB147485  65.314  20.553  71.505
22704DT     BB247486  65.118  20.677  71.781
22704DT     BB347487  65.188  20.863  71.840
22704DT     SC147488  65.398  20.755  71.956
22704DT     SC247489  65.380  20.776  72.169
22704DT     SC347490  65.649  20.696  72.008
22705DC     BB147491  64.961  20.949  71.740
22705DC     BB247492  64.960  21.058  72.084
22705DC     BB347493  65.068  21.233  72.102
22705DC     SC147494  65.296  21.105  72.078
22705DC     SC247495  65.399  21.107  72.267
22705DC     SC347496  65.528  21.028  71.980
22706DT     BB147497  64.833  21.348  72.145
22706DT     BB247498  65.032  21.432  72.434
22706DT     BB347499  65.150  21.596  72.393
22706DT     SC147500  65.313  21.452  72.246
22706DT     SC247501  65.502  21.433  72.346
22706DT     SC347502  65.444  21.364  72.035
22707DT     BB147503  64.993  21.754  72.552
22707DT     BB247504  65.326  21.799  72.685
22707DT     BB347505  65.422  21.951  72.583
22707DT     SC147506  65.459  21.799  72.373
22707DT     SC247507  65.669  21.753  72.354
22707DT     SC347508  65.443  21.709  72.126
22708DT     BB147509  65.400  22.135  72.793
22708DT     BB247510  65.754  22.126  72.725
22708DT     BB347511  65.802  22.268  72.582
22708DT     SC147512  65.697  22.123  72.390
22708DT     SC247513  65.854  22.050  72.263
22708DT     SC347514  65.538  22.050  72.194
22709DA     BB147515  66.062  22.361  72.899
22709DA     BB247516  66.265  22.344  72.594
22709DA     BB347517  66.239  22.521  72.478
22709DA     SC147518  66.002  22.408  72.312
22709DA     SC247519  65.958  22.335  72.077
22709DA     SC347520  65.711  22.369  72.134
22709DA     SC447521  65.853  22.436  72.366
22710DA     BB147522  66.566  22.534  72.498
22710DA     BB247523  66.572  22.498  72.133
22710DA     BB347524  66.526  22.684  72.040
22710DA     SC147525  66.220  22.630  72.028
22710DA     SC247526  66.048  22.583  71.854
22710DA     SC347527  65.878  22.660  72.030
22710DA     SC447528  66.130  22.682  72.150
22711DT     BB147529  66.671  22.773  71.931
22711DT     BB247530  66.536  22.691  71.607
22711DT     BB347531  66.452  22.860  71.521
22711DT     SC147532  66.244  22.847  71.681
22711DT     SC247533  66.070  22.793  71.566
22711DT     SC347534  66.070  22.914  71.867
22712DA     BB147535  66.715  22.686  71.246
22712DA     BB247536  66.396  22.747  71.075
22712DA     BB347537  66.371  22.955  71.038
22712DA     SC147538  66.224  23.010  71.307
22712DA     SC247539  65.994  23.070  71.383
22712DA     SC347540  66.107  23.149  71.599
22712DA     SC447541  66.313  23.055  71.433
22713DT     BB147542  66.369  23.006  70.851
22713DT     BB247543  66.014  23.067  70.828
22713DT     BB347544  65.977  23.271  70.830
22713DT     SC147545  66.025  23.285  71.087
22713DT     SC247546  65.842  23.325  71.192
22713DT     SC347547  66.141  23.352  71.314
22714DC     BB147548  65.910  23.246  70.572
22714DC     BB247549  65.618  23.385  70.732
22714DC     BB347550  65.635  23.591  70.744
22714DC     SC147551  65.809  23.572  70.940
22714DC     SC247552  65.719  23.642  71.122
22714DC     SC347553  66.036  23.592  71.073
22715DT     BB147554  65.443  23.592  70.564
22715DT     BB247555  65.313  23.780  70.843
22715DT     BB347556  65.381  23.976  70.834
22715DT     SC147557  65.620  23.905  70.913
22715DT     SC247558  65.655  23.979  71.112
22715DT     SC347559  65.881  23.864  70.911
22716DC     BB147560  65.129  24.021  70.783
22716DC     BB247561  65.206  24.219  71.074
22716DC     BB347562  65.300  24.394  71.018
22716DC     SC147563  65.525  24.267  70.969
22716DC     SC247564  65.671  24.322  71.116
22716DC     SC347565  65.730  24.169  70.837
22717DA     BB147566  64.987  24.453  71.293
22717DA     BB247567  65.278  24.649  71.401
22717DA     BB347568  65.316  24.808  71.264
22717DA     SC147569  65.509  24.640  71.086
22717DA     SC247570  65.752  24.634  71.033
22717DA     SC347571  65.683  24.504  70.823
22717DA     SC447572  65.445  24.562  70.961
22718DC     BB147573  65.292  24.961  71.348
22718DC     BB247574  65.635  25.073  71.355
22718DC     BB347575  65.673  25.196  71.192
22718DC     SC147576  65.678  24.990  71.029
22718DC     SC247577  65.879  24.960  70.959
22718DC     SC347578  65.611  24.829  70.831
22719DG     BB147579  65.763  25.420  71.523
22719DG     BB247580  66.025  25.445  71.274
22719DG     BB347581  65.967  25.566  71.127
22719DG     SC147582  65.840  25.343  70.960
22719DG     SC247583  65.936  25.245  70.695
22719DG     SC347584  65.673  25.127  70.762
22719DG     SC447585  65.686  25.305  70.986
22720DT     BB147586  66.048  25.801  71.053
22720DT     BB247587  66.213  25.731  70.740
22720DT     BB347588  66.100  25.802  70.583
22720DT     SC147589  65.928  25.605  70.608
22720DT     SC247590  65.946  25.473  70.439
22720DT     SC347591  65.701  25.477  70.652
22721DT     BB147592  66.218  26.080  70.489
22721DT     BB247593  66.200  25.902  70.176
22721DT     BB347594  66.029  25.958  70.073
22721DT     SC147595  65.877  25.817  70.234
22721DT     SC247596  65.797  25.648  70.127
22721DT     SC347597  65.692  25.759  70.413
22722DT     BB147598  66.115  26.161  69.849
22722DT     BB247599  65.941  25.908  69.660
22722DT     BB347600  65.747  25.970  69.621
22722DT     SC147601  65.673  25.924  69.868
22722DT     SC247602  65.540  25.756  69.873
22722DT     SC347603  65.586  25.968  70.113
22723DT     BB147604  65.766  26.044  69.334
22723DT     BB247605  65.507  25.793  69.339
22723DT     BB347606  65.321  25.883  69.348
22723DT     SC147607  65.354  25.944  69.601
22723DT     SC247608  65.220  25.826  69.721
22723DT     SC347609  65.381  26.089  69.820
22724DC     BB147610  65.258  25.821  69.083
22724DC     BB247611  64.998  25.663  69.277
22724DC     BB347612  64.839  25.793  69.301
22724DC     SC147613  64.971  25.934  69.479
22724DC     SC247614  64.883  25.906  69.673
22724DC     SC347615  65.094  26.138  69.592
22725DA     BB147616  64.694  25.429  69.156
22725DA     BB247617  64.496  25.521  69.451
22725DA     BB347618  64.363  25.681  69.404
22725DA     SC147619  64.565  25.904  69.485
22725DA     SC247620  64.590  26.074  69.666
22725DA     SC347621  64.749  26.193  69.504
22725DA     SC447622  64.660  25.964  69.370
22726DA     BB147623  64.162  25.459  69.533
22726DA     BB247624  64.088  25.709  69.790
22726DA     BB347625  63.965  25.864  69.710
22726DA     SC147626  64.206  26.042  69.624
22726DA     SC247627  64.309  26.259  69.692
22726DA     SC347628  64.416  26.258  69.459
22726DA     SC447629  64.262  26.025  69.474
22727DT     BB147630  63.786  25.877  69.784
22727DT     BB247631  63.841  26.174  69.982
22727DT     BB347632  63.757  26.338  69.887
22727DT     SC147633  63.951  26.345  69.710
22727DT     SC247634  64.073  26.518  69.744
22727DT     SC347635  64.076  26.334  69.478
22728DA     BB147636  63.616  26.332  70.282
22728DA     BB247637  63.738  26.670  70.211
22728DA     BB347638  63.603  26.772  70.080
22728DA     SC147639  63.746  26.679  69.820
22728DA     SC247640  63.883  26.780  69.638
22728DA     SC347641  63.818  26.573  69.501
22728DA     SC447642  63.693  26.544  69.751
22729DG     BB147643  63.580  26.972  70.317
22729DG     BB247644  63.732  27.199  70.079
22729DG     BB347645  63.593  27.275  69.959
22729DG     SC147646  63.617  27.052  69.750
22729DG     SC247647  63.720  27.083  69.472
22729DG     SC347648  63.603  26.814  69.512
22729DG     SC447649  63.527  26.920  69.767
22730DC     BB147650  63.560  27.487  69.959
22730DC     BB247651  63.717  27.583  69.649
22730DC     BB347652  63.573  27.616  69.504
22730DC     SC147653  63.530  27.359  69.476
22730DC     SC247654  63.603  27.296  69.283
22730DC     SC347655  63.406  27.126  69.477
22731DT     BB147656  63.633  27.876  69.525
22731DT     BB247657  63.687  27.795  69.177
22731DT     BB347658  63.509  27.809  69.073
22731DT     SC147659  63.422  27.584  69.176
22731DT     SC247660  63.415  27.433  69.023
22731DT     SC347661  63.273  27.415  69.314
22732DA     BB147662  63.807  28.025  68.873
22732DA     BB247663  63.636  27.813  68.628
22732DA     BB347664  63.440  27.887  68.590
22732DA     SC147665  63.306  27.716  68.814
22732DA     SC247666  63.151  27.521  68.830
22732DA     SC347667  63.107  27.602  69.069
22732DA     SC447668  63.291  27.783  68.959
22733DT     BB147669  63.405  27.955  68.409
22733DT     BB247670  63.199  27.681  68.295
22733DT     BB347671  63.000  27.737  68.298
22733DT     SC147672  62.990  27.717  68.560
22733DT     SC247673  62.867  27.549  68.614
22733DT     SC347674  62.963  27.787  68.813
22734DT     BB147675  62.997  27.748  68.026
22734DT     BB247676  62.733  27.517  68.109
22734DT     BB347677  62.557  27.620  68.143
22734DT     SC147678  62.642  27.703  68.377
22734DT     SC247679  62.530  27.606  68.533
22734DT     SC347680  62.720  27.866  68.570
22735DG     BB147681  62.472  27.363  67.837
22735DG     BB247682  62.232  27.330  68.106
22735DG     BB347683  62.098  27.475  68.096
22735DG     SC147684  62.257  27.669  68.272
22735DG     SC247685  62.178  27.764  68.543
22735DG     SC347686  62.413  27.913  68.444
22735DG     SC447687  62.364  27.766  68.203
22736DA     BB147688  61.857  27.227  68.108
22736DA     BB247689  61.722  27.372  68.416
22736DA     BB347690  61.605  27.545  68.372
22736DA     SC147691  61.844  27.743  68.398
22736DA     SC247692  61.919  27.923  68.553
22736DA     SC347693  62.065  28.003  68.358
22736DA     SC447694  61.926  27.778  68.264
22737DA     BB147695  61.396  27.370  68.550
22737DA     BB247696  61.396  27.651  68.786
22737DA     BB347697  61.285  27.815  68.707
22737DA     SC147698  61.531  27.946  68.569
22737DA     SC247699  61.672  28.150  68.598
22737DA     SC347700  61.741  28.112  68.353
22737DA     SC447701  61.561  27.907  68.416
22738DT     BB147702  61.134  27.852  68.808
22738DT     BB247703  61.255  28.156  68.960
22738DT     BB347704  61.178  28.320  68.861
22738DT     SC147705  61.340  28.284  68.658
22738DT     SC247706  61.486  28.442  68.654
22738DT     SC347707  61.424  28.235  68.413
22739DT     BB147708  61.037  28.355  69.081
22739DT     BB247709  61.216  28.665  69.034
22739DT     BB347710  61.116  28.785  68.898
22739DT     SC147711  61.195  28.636  68.697
22739DT     SC247712  61.337  28.746  68.578
22739DT     SC347713  61.185  28.473  68.489
22740DG     BB147714  61.162  28.994  69.245
22740DG     BB247715  61.272  29.186  68.959
22740DG     BB347716  61.114  29.255  68.859
22740DG     SC147717  61.091  29.010  68.677
22740DG     SC247718  61.139  29.006  68.382
22740DG     SC347719  61.025  28.750  68.474
22740DG     SC447720  61.003  28.886  68.725
22741DT     BB147721  61.075  29.472  68.840
22741DT     BB247722  61.157  29.533  68.493
22741DT     BB347723  60.983  29.547  68.381
22741DT     SC147724  60.946  29.287  68.392
22741DT     SC247725  60.978  29.202  68.197
22741DT     SC347726  60.835  29.054  68.447
22742DA     BB147727  61.186  29.904  68.288
22742DA     BB247728  61.080  29.753  67.972
22742DA     BB347729  60.871  29.780  67.942
22742DA     SC147730  60.792  29.514  68.082
22742DA     SC247731  60.698  29.292  68.017
22742DA     SC347732  60.633  29.270  68.265
22742DA     SC447733  60.759  29.520  68.239
22743DA     BB147734  60.948  29.923  67.651
22743DA     BB247735  60.765  29.650  67.488
22743DA     BB347736  60.555  29.686  67.496
22743DA     SC147737  60.515  29.536  67.765
22743DA     SC247738  60.408  29.325  67.845
22743DA     SC347739  60.409  29.436  68.076
22743DA     SC447740  60.523  29.623  67.900
22744DC     BB147741  60.437  29.726  67.319
22744DC     BB247742  60.287  29.399  67.302
22744DC     BB347743  60.086  29.410  67.354
22744DC     SC147744  60.146  29.438  67.608
22744DC     SC247745  60.087  29.261  67.715
22744DC     SC347746  60.165  29.546  67.848
22745DA     BB147747  60.120  29.209  66.989
22745DA     BB247748  59.919  29.003  67.215
22745DA     BB347749  59.725  29.088  67.241
22745DA     SC147750  59.806  29.259  67.488
22745DA     SC247751  59.759  29.262  67.733
22745DA     SC347752  59.836  29.507  67.723
22745DA     SC447753  59.855  29.409  67.461
22746DA     BB147754  59.685  28.777  67.158
22746DA     BB247755  59.521  28.742  67.484
22746DA     BB347756  59.333  28.843  67.484
22746DA     SC147757  59.451  29.112  67.586
22746DA     SC247758  59.443  29.251  67.794
22746DA     SC347759  59.518  29.444  67.643
22746DA     SC447760  59.496  29.220  67.476
22747DA     BB147761  59.309  28.537  67.599
22747DA     BB247762  59.183  28.698  67.904
22747DA     BB347763  58.997  28.795  67.865
22747DA     SC147764  59.129  29.068  67.790
22747DA     SC247765  59.146  29.297  67.887
22747DA     SC347766  59.205  29.371  67.648
22747DA     SC447767  59.162  29.094  67.635
22748DT     BB147768  58.901  28.712  67.967
22748DT     BB247769  58.845  28.977  68.205
22748DT     BB347770  58.682  29.091  68.147
22748DT     SC147771  58.822  29.207  67.957
22748DT     SC247772  58.855  29.413  68.008
22748DT     SC347773  58.900  29.281  67.716
22749DA     BB147774  58.664  28.981  68.555
22749DA     BB247775  58.580  29.337  68.524
22749DA     BB347776  58.394  29.360  68.421
22749DA     SC147777  58.525  29.378  68.139
22749DA     SC247778  58.561  29.551  67.963
22749DA     SC347779  58.594  29.353  67.804
22749DA     SC447780  58.541  29.242  68.055
22750DA     BB147781  58.329  29.542  68.691
22750DA     BB247782  58.262  29.820  68.463
22750DA     BB347783  58.080  29.787  68.356
22750DA     SC147784  58.218  29.641  68.118
22750DA     SC247785  58.266  29.684  67.878
22750DA     SC347786  58.293  29.430  67.858
22750DA     SC447787  58.229  29.481  68.126
22751DT     BB147788  57.869  29.899  68.378
22751DT     BB247789  57.879  30.080  68.066
22751DT     BB347790  57.735  30.005  67.936
22751DT     SC147791  57.878  29.790  67.888
22751DT     SC247792  57.951  29.797  67.686
22751DT     SC347793  57.950  29.537  67.879
22752DT     BB147794  57.509  30.209  67.950
22752DT     BB247795  57.574  30.189  67.595
22752DT     BB347796  57.440  30.059  67.506
22752DT     SC147797  57.566  29.850  67.603
22752DT     SC247798  57.663  29.744  67.443
22752DT     SC347799  57.612  29.632  67.743
22753DA     BB147800  57.346  30.399  67.269
22753DA     BB247801  57.412  30.126  67.034
22753DA     BB347802  57.238  30.004  67.012
22753DA     SC147803  57.316  29.809  67.242
22753DA     SC247804  57.391  29.572  67.265
22753DA     SC347805  57.313  29.593  67.509
22753DA     SC447806  57.261  29.841  67.389
22754DT     BB147807  57.105  29.981  66.818
22754DT     BB247808  57.242  29.661  66.724
22754DT     BB347809  57.096  29.515  66.738
22754DT     SC147810  57.111  29.514  67.000
22754DT     SC247811  57.199  29.329  67.066
22754DT     SC347812  57.040  29.541  67.253
22755DT     BB147813  57.086  29.497  66.465
22755DT     BB247814  57.182  29.167  66.576
22755DT     BB347815  57.013  29.053  66.612
22755DT     SC147816  56.964  29.181  66.835
22755DT     SC247817  56.998  29.050  67.002
22755DT     SC347818  56.840  29.333  67.012
22756DC     BB147819  57.104  28.926  66.403
22756DC     BB247820  57.095  28.683  66.670
22756DC     BB347821  56.904  28.607  66.691
22756DC     SC147822  56.821  28.828  66.806
22756DC     SC247823  56.780  28.790  67.013
22756DC     SC347824  56.687  29.052  66.846
22757DT     BB147825  57.040  28.406  66.610
22757DT     BB247826  56.893  28.308  66.925
22757DT     BB347827  56.693  28.262  66.898
22757DT     SC147828  56.630  28.516  66.877
22757DT     SC247829  56.517  28.577  67.050
22757DT     SC347830  56.544  28.743  66.773
22758DG     BB147831  56.912  27.973  67.087
22758DG     BB247832  56.603  28.047  67.260
22758DG     BB347833  56.448  27.977  67.157
22758DG     SC147834  56.410  28.234  66.994
22758DG     SC247835  56.175  28.418  67.010
22758DG     SC347836  56.352  28.491  66.784
22758DG     SC447837  56.490  28.251  66.857
22759DA     BB147838  56.354  27.835  67.462
22759DA     BB247839  56.024  27.991  67.433
22759DA     BB347840  55.911  27.898  67.277
22759DA     SC147841  56.009  28.092  67.055
22759DA     SC247842  55.914  28.275  66.915
22759DA     SC347843  56.114  28.231  66.759
22759DA     SC447844  56.139  28.049  66.971
22760DC     BB147845  55.733  27.767  67.308
22760DC     BB247846  55.481  27.987  67.173
22760DC     BB347847  55.417  27.917  66.989
22760DC     SC147848  55.638  27.998  66.873
22760DC     SC247849  55.594  28.163  66.742
22760DC     SC347850  55.867  27.989  66.743
22761DA     BB147851  55.031  27.914  67.171
22761DA     BB247852  54.987  28.075  66.844
22761DA     BB347853  54.974  27.928  66.690
22761DA     SC147854  55.280  27.925  66.634
22761DA     SC247855  55.435  27.997  66.452
22761DA     SC347856  55.602  27.834  66.558
22761DA     SC447857  55.370  27.818  66.714
22762DA     BB147858  54.669  28.036  66.581
22762DA     BB247859  54.824  28.122  66.260
22762DA     BB347860  54.832  27.950  66.134
22762DA     SC147861  55.114  27.861  66.232
22762DA     SC247862  55.346  27.849  66.141
22762DA     SC347863  55.389  27.680  66.330
22762DA     SC447864  55.120  27.757  66.355
22763DT     BB147865  54.714  27.919  65.939
22763DT     BB247866  54.991  27.979  65.716
22763DT     BB347867  55.044  27.803  65.620
22763DT     SC147868  55.158  27.710  65.838
22763DT     SC247869  55.371  27.703  65.809
22763DT     SC347870  55.206  27.555  66.046
22764DA     BB147871  54.986  28.083  65.314
22764DA     BB247872  55.311  27.924  65.257
22764DA     BB347873  55.285  27.727  65.179
22764DA     SC147874  55.281  27.590  65.459
22764DA     SC247875  55.427  27.439  65.593
22764DA     SC347876  55.214  27.386  65.727
22764DA     SC447877  55.137  27.569  65.529
22765DT     BB147878  55.348  27.687  64.990
22765DT     BB247879  55.641  27.498  65.079
22765DT     BB347880  55.608  27.296  65.047
22765DT     SC147881  55.456  27.279  65.260
22765DT     SC247882  55.556  27.163  65.410
22765DT     SC347883  55.242  27.242  65.410
22766DC     BB147884  55.771  27.290  64.823
22766DC     BB247885  55.910  27.037  65.039
22766DC     BB347886  55.818  26.855  65.003
22766DC     SC147887  55.601  26.932  65.129
22766DC     SC247888  55.582  26.822  65.313
22766DC     SC347889  55.349  26.998  65.173
22767DT     BB147890  56.033  26.734  64.860
22767DT     BB247891  55.970  26.504  65.130
22767DT     BB347892  55.833  26.360  65.070
22767DT     SC147893  55.635  26.531  65.087
22767DT     SC247894  55.508  26.477  65.252
22767DT     SC347895  55.433  26.684  65.014
22768DC     BB147896  56.011  26.127  65.029
22768DC     BB247897  55.771  26.009  65.271
22768DC     BB347898  55.618  25.908  65.175
22768DC     SC147899  55.514  26.133  65.089
22768DC     SC247900  55.327  26.169  65.190
22768DC     SC347901  55.431  26.321  64.923
22769DG     BB147902  55.769  25.608  65.411
22769DG     BB247903  55.418  25.663  65.479
22769DG     BB347904  55.307  25.561  65.350
22769DG     SC147905  55.296  25.786  65.143
22769DG     SC247906  55.052  25.939  65.063
22769DG     SC347907  55.279  26.004  64.886
22769DG     SC447908  55.411  25.795  65.032
22770DA     BB147909  55.166  25.452  65.634
22770DA     BB247910  54.856  25.621  65.534
22770DA     BB347911  54.752  25.505  65.388
22770DA     SC147912  54.890  25.641  65.145
22770DA     SC247913  54.828  25.796  64.960
22770DA     SC347914  55.038  25.708  64.842
22770DA     SC447915  55.024  25.573  65.088
22771DA     BB147916  54.585  25.617  65.643
22771DA     BB247917  54.393  25.798  65.389
22771DA     BB347918  54.290  25.661  65.262
22771DA     SC147919  54.522  25.641  65.055
22771DA     SC247920  54.566  25.712  64.820
22771DA     SC347921  54.749  25.532  64.822
22771DA     SC447922  54.630  25.523  65.076
22772DT     BB147923  54.158  25.729  65.303
22772DT     BB247924  54.093  25.889  64.987
22772DT     BB347925  54.012  25.753  64.854
22772DT     SC147926  54.244  25.636  64.818
22772DT     SC247927  54.314  25.676  64.619
22772DT     SC347928  54.431  25.450  64.820
22773DC     BB147929  53.831  25.927  64.898
22773DC     BB247930  53.888  25.925  64.542
22773DC     BB347931  53.808  25.752  64.459
22773DC     SC147932  54.004  25.606  64.554
22773DC     SC247933  54.128  25.539  64.392
22773DC     SC347934  54.131  25.423  64.695
22774DA     BB147935  53.695  26.100  64.247
22774DA     BB247936  53.806  25.845  64.007
22774DA     BB347937  53.668  25.683  64.003
22774DA     SC147938  53.813  25.520  64.225
22774DA     SC247939  53.947  25.311  64.242
22774DA     SC347940  53.889  25.319  64.492
22774DA     SC447941  53.765  25.542  64.377
22775DG     BB147942  53.654  25.770  63.707
22775DG     BB247943  53.787  25.438  63.653
22775DG     BB347944  53.641  25.303  63.668
22775DG     SC147945  53.679  25.262  63.969
22775DG     SC247946  53.776  25.012  64.101
22775DG     SC347947  53.679  25.206  64.302
22775DG     SC447948  53.599  25.356  64.071
22776DT     BB147949  53.594  25.184  63.499
22776DT     BB247950  53.733  24.865  63.593
22776DT     BB347951  53.583  24.739  63.659
22776DT     SC147952  53.565  24.868  63.887
22776DT     SC247953  53.639  24.743  64.046
22776DT     SC347954  53.465  25.015  64.082
22777DA     BB147955  53.820  24.546  63.372
22777DA     BB247956  53.782  24.323  63.661
22777DA     BB347957  53.582  24.250  63.673
22777DA     SC147958  53.483  24.483  63.854
22777DA     SC247959  53.408  24.514  64.090
22777DA     SC347960  53.297  24.729  64.005
22777DA     SC447961  53.419  24.612  63.782
22778DT     BB147962  53.586  24.076  63.652
22778DT     BB247963  53.513  23.985  63.993
22778DT     BB347964  53.310  23.950  64.015
22778DT     SC147965  53.257  24.208  64.006
22778DT     SC247966  53.192  24.273  64.201
22778DT     SC347967  53.161  24.439  63.923
22779DA     BB147968  53.541  23.640  64.184
22779DA     BB247969  53.278  23.735  64.422
22779DA     BB347970  53.087  23.680  64.346
22779DA     SC147971  53.038  23.952  64.203
22779DA     SC247972  52.890  24.151  64.229
22779DA     SC347973  52.944  24.198  63.983
22779DA     SC447974  53.083  23.964  64.049
22780DA     BB147975  53.076  23.540  64.647
22780DA     BB247976  52.773  23.738  64.705
22780DA     BB347977  52.612  23.665  64.585
22780DA     SC147978  52.674  23.852  64.344
22780DA     SC247979  52.571  24.049  64.233
22780DA     SC347980  52.715  23.986  64.031
22780DA     SC447981  52.771  23.795  64.229
22781DC     BB147982  52.427  23.555  64.659
22781DC     BB247983  52.186  23.816  64.598
22781DC     BB347984  52.065  23.764  64.439
22781DC     SC147985  52.256  23.815  64.266
22781DC     SC247986  52.205  23.991  64.153
22781DC     SC347987  52.438  23.778  64.079
22782DT     BB147988  51.815  23.676  64.574
22782DT     BB247989  51.693  23.921  64.339
22782DT     BB347990  51.630  23.827  64.165
22782DT     SC147991  51.878  23.786  64.089
22782DT     SC247992  51.922  23.909  63.919
22782DT     SC347993  52.099  23.659  64.022
22783DA     BB147994  51.261  24.019  64.253
22783DA     BB247995  51.335  24.095  63.902
22783DA     BB347996  51.279  23.931  63.777
22783DA     SC147997  51.557  23.792  63.793
22783DA     SC247998  51.749  23.747  63.642
22783DA     SC347999  51.812  23.563  63.809
22783DA     SC448000  51.578  23.682  63.909
22784DA     BB148001  51.076  24.128  63.592
22784DA     BB248002  51.296  24.066  63.305
22784DA     BB348003  51.242  23.884  63.209
22784DA     SC148004  51.435  23.708  63.379
22784DA     SC248005  51.645  23.579  63.346
22784DA     SC348006  51.579  23.455  63.560
22784DA     SC448007  51.375  23.642  63.513
22785DA     BB148008  51.211  24.061  62.930
22785DA     BB248009  51.490  23.866  62.793
22785DA     BB348010  51.420  23.678  62.719
22785DA     SC148011  51.464  23.529  62.989
22785DA     SC248012  51.616  23.354  63.080
22785DA     SC348013  51.436  23.320  63.260
22785DA     SC448014  51.339  23.522  63.091
22786DT     BB148015  51.428  23.634  62.513
22786DT     BB248016  51.714  23.415  62.533
22786DT     BB348017  51.656  23.219  62.502
22786DT     SC148018  51.550  23.205  62.741
22786DT     SC248019  51.667  23.073  62.864
22786DT     SC348020  51.368  23.179  62.931
22787DA     BB148021  51.977  23.311  62.250
22787DA     BB248022  52.056  23.000  62.428
22787DA     BB348023  51.939  22.839  62.351
22787DA     SC148024  51.705  22.880  62.552
22787DA     SC248025  51.607  22.761  62.748
22787DA     SC348026  51.397  22.901  62.702
22787DA     SC448027  51.584  22.975  62.506
22788DC     BB148028  52.045  22.707  62.269
22788DC     BB248029  52.017  22.461  62.533
22788DC     BB348030  51.878  22.317  62.481
22788DC     SC148031  51.679  22.481  62.527
22788DC     SC248032  51.572  22.415  62.702
22788DC     SC348033  51.467  22.632  62.485
22789DA     BB148034  52.238  22.148  62.615
22789DA     BB248035  51.960  21.986  62.790
22789DA     BB348036  51.850  21.861  62.656
22789DA     SC148037  51.651  22.086  62.573
22789DA     SC248038  51.409  22.139  62.606
22789DA     SC348039  51.437  22.291  62.401
22789DA     SC448040  51.687  22.173  62.444
22790DA     BB148041  51.921  21.677  62.916
22790DA     BB248042  51.559  21.635  62.951
22790DA     BB348043  51.482  21.516  62.792
22790DA     SC148044  51.423  21.759  62.606
22790DA     SC248045  51.224  21.879  62.516
22790DA     SC348046  51.384  21.968  62.337
22790DA     SC448047  51.538  21.803  62.503
22791DG     BB148048  51.399  21.358  63.043
22791DG     BB248049  51.067  21.431  62.918
22791DG     BB348050  51.026  21.313  62.763
22791DG     SC148051  51.139  21.506  62.554
22791DG     SC248052  50.982  21.651  62.346
22791DG     SC348053  51.272  21.684  62.300
22791DG     SC448054  51.294  21.497  62.516
22792DA     BB148055  50.735  21.246  62.940
22792DA     BB248056  50.537  21.358  62.653
22792DA     BB348057  50.547  21.215  62.495
22792DA     SC148058  50.795  21.346  62.360
22792DA     SC248059  50.847  21.472  62.151
22792DA     SC348060  51.090  21.402  62.193
22792DA     SC448061  50.940  21.291  62.403
22793DA     BB148062  50.217  21.229  62.514
22793DA     BB248063  50.219  21.340  62.164
22793DA     BB348064  50.259  21.175  62.034
22793DA     SC148065  50.567  21.217  62.037
22793DA     SC248066  50.745  21.291  61.878
22793DA     SC348067  50.908  21.172  62.036
22793DA     SC448068  50.652  21.136  62.147
22794DT     BB148069  50.113  21.095  61.898
22794DT     BB248070  50.258  21.227  61.596
22794DT     BB348071  50.345  21.075  61.487
22794DT     SC148072  50.548  21.062  61.653
22794DT     SC248073  50.726  21.134  61.555
22794DT     SC348074  50.717  20.967  61.832
22795DA     BB148075  50.085  21.255  61.211
22795DA     BB248076  50.413  21.227  61.049
22795DA     BB348077  50.449  21.026  60.988
22795DA     SC148078  50.586  20.943  61.254
22795DA     SC248079  50.815  20.883  61.333
22795DA     SC348080  50.695  20.773  61.532
22795DA     SC448081  50.493  20.880  61.369
22796DC     BB148082  50.462  20.976  60.784
22796DC     BB248083  50.820  20.939  60.776
22796DC     BB348084  50.870  20.738  60.761
22796DC     SC148085  50.809  20.696  61.013
22796DC     SC248086  50.989  20.657  61.125
22796DC     SC348087  50.686  20.601  61.226
22797DT     BB148088  50.949  20.783  60.508
22797DT     BB248089  51.242  20.653  60.675
22797DT     BB348090  51.239  20.446  60.672
22797DT     SC148091  51.053  20.438  60.857
22797DT     SC248092  51.137  20.361  61.039
22797DT     SC348093  50.821  20.392  60.973
22798DT     BB148094  51.441  20.469  60.503
22798DT     BB248095  51.568  20.274  60.779
22798DT     BB348096  51.515  20.075  60.755
22798DT     SC148097  51.267  20.125  60.823
22798DT     SC248098  51.227  20.036  61.015
22798DT     SC348099  51.005  20.147  60.807
22799DC     BB148100  51.772  20.043  60.713
22799DC     BB248101  51.693  19.826  60.990
22799DC     BB348102  51.611  19.649  60.920
22799DC     SC148103  51.383  19.767  60.865
22799DC     SC248104  51.232  19.697  61.002
22799DC     SC348105  51.178  19.861  60.728
22800DA     BB148106  51.920  19.573  61.196
22800DA     BB248107  51.630  19.366  61.284
22800DA     BB348108  51.601  19.214  61.138
22800DA     SC148109  51.409  19.385  60.962
22800DA     SC248110  51.168  19.388  60.902
22800DA     SC348111  51.240  19.529  60.701
22800DA     SC448112  51.475  19.470  60.843
22801DA     BB148113  51.610  19.019  61.404
22801DA     BB248114  51.273  18.906  61.313
22801DA     BB348115  51.282  18.772  61.148
22801DA     SC148116  51.251  18.996  60.934
22801DA     SC248117  51.080  19.072  60.770
22801DA     SC348118  51.275  19.189  60.651
22801DA     SC448119  51.386  19.060  60.874
22802DA     BB148120  51.113  18.566  61.346
22802DA     BB248121  50.847  18.565  61.093
22802DA     BB348122  50.901  18.441  60.929
22802DA     SC148123  51.036  18.671  60.768
22802DA     SC248124  50.991  18.802  60.561
22802DA     SC348125  51.242  18.859  60.567
22802DA     SC448126  51.194  18.694  60.789
22803DA     BB148127  50.616  18.273  60.977
22803DA     BB248128  50.515  18.370  60.638
22803DA     BB348129  50.609  18.244  60.494
22803DA     SC148130  50.857  18.428  60.459
22803DA     SC248131  50.953  18.578  60.284
22803DA     SC348132  51.174  18.552  60.412
22803DA     SC448133  50.985  18.399  60.552
22804DT     BB148134  50.505  18.088  60.362
22804DT     BB248135  50.523  18.276  60.055
22804DT     BB348136  50.656  18.185  59.924
22804DT     SC148137  50.862  18.271  60.062
22804DT     SC248138  50.967  18.421  59.948
22804DT     SC348139  51.080  18.269  60.211
22805DA     BB148140  50.309  18.203  59.686
22805DA     BB248141  50.583  18.340  59.485
22805DA     BB348142  50.702  18.182  59.405
22805DA     SC148143  50.899  18.176  59.646
22805DA     SC248144  51.137  18.235  59.691
22805DA     SC348145  51.115  18.080  59.894
22805DA     SC448146  50.866  18.075  59.766
22806DA     BB148147  50.644  18.313  59.104
22806DA     BB248148  51.004  18.377  59.078
22806DA     BB348149  51.107  18.199  59.018
22806DA     SC148150  51.158  18.101  59.309
22806DA     SC248151  51.352  18.074  59.463
22806DA     SC348152  51.200  17.912  59.592
22806DA     SC448153  51.049  18.003  59.374
22807DT     BB148154  51.207  18.180  58.824
22807DT     BB248155  51.542  18.219  58.952
22807DT     BB348156  51.644  18.039  58.939
22807DT     SC148157  51.511  17.940  59.142
22807DT     SC248158  51.643  17.918  59.310
22807DT     SC348159  51.350  17.784  59.281
22808DA     BB148160  51.876  18.338  58.764
22808DA     BB248161  52.086  18.158  59.004
22808DA     BB348162  52.139  17.966  58.927
22808DA     SC148163  51.893  17.822  59.052
22808DA     SC248164  51.848  17.656  59.233
22808DA     SC348165  51.626  17.614  59.112
22808DA     SC448166  51.761  17.809  58.961
22809DT     BB148167  52.322  17.951  58.900
22809DT     BB248168  52.391  17.740  59.184
22809DT     BB348169  52.411  17.543  59.122
22809DT     SC148170  52.152  17.519  59.088
22809DT     SC248171  52.072  17.386  59.237
22809DT     SC348172  51.920  17.482  58.967
22810DC     BB148173  52.658  17.588  59.192
22810DC     BB248174  52.551  17.307  59.391
22810DC     BB348175  52.562  17.133  59.279
22810DC     SC148176  52.347  17.198  59.143
22810DC     SC248177  52.186  17.066  59.196
22810DC     SC348178  52.193  17.263  58.939
22811DT     BB148179  52.762  17.075  59.441
22811DT     BB248180  52.534  16.797  59.471
22811DT     BB348181  52.564  16.663  59.316
22811DT     SC148182  52.445  16.823  59.145
22811DT     SC248183  52.257  16.737  59.085
22811DT     SC348184  52.409  16.982  58.937
22812DC     BB148185  52.674  16.494  59.493
22812DC     BB248186  52.414  16.301  59.335
22812DC     BB348187  52.485  16.216  59.160
22812DC     SC148188  52.476  16.446  59.035
22812DC     SC248189  52.321  16.441  58.887
22812DC     SC348190  52.557  16.662  58.907
22813DT     BB148191  52.501  15.959  59.269
22813DT     BB248192  52.300  15.913  58.973
22813DT     BB348193  52.421  15.871  58.811
22813DT     SC148194  52.499  16.121  58.795
22813DT     SC248195  52.418  16.210  58.617
22813DT     SC348196  52.657  16.332  58.797
22814DG     BB148197  52.187  15.534  58.828
22814DG     BB248198  52.184  15.674  58.494
22814DG     BB348199  52.346  15.614  58.394
22814DG     SC148200  52.519  15.850  58.484
22814DG     SC248201  52.624  16.067  58.308
22814DG     SC348202  52.742  16.084  58.578
22814DG     SC448203  52.602  15.838  58.620
22815DA     BB148204  52.152  15.489  58.128
22815DA     BB248205  52.313  15.722  57.894
22815DA     BB348206  52.501  15.645  57.830
22815DA     SC148207  52.662  15.782  58.058
22815DA     SC248208  52.828  15.966  58.082
22815DA     SC348209  52.889  15.856  58.305
22815DA     SC448210  52.687  15.697  58.193
22816DA     BB148211  52.373  15.691  57.532
22816DA     BB248212  52.644  15.930  57.471
22816DA     BB348213  52.826  15.827  57.426
22816DA     SC148214  52.920  15.814  57.723
22816DA     SC248215  53.098  15.915  57.864
22816DA     SC348216  53.056  15.718  58.023
22816DA     SC448217  52.880  15.683  57.807
22817DC     BB148218  52.898  15.851  57.244
22817DC     BB248219  53.170  16.070  57.333
22817DC     BB348220  53.349  15.966  57.328
22817DC     SC148221  53.293  15.842  57.552
22817DC     SC248222  53.424  15.913  57.708
22817DC     SC348223  53.239  15.647  57.721
22818DG     BB148224  53.369  16.293  57.087
22818DG     BB248225  53.648  16.280  57.316
22818DG     BB348226  53.780  16.144  57.255
22818DG     SC148227  53.651  15.913  57.410
22818DG     SC248228  53.772  15.768  57.641
22818DG     SC348229  53.525  15.634  57.550
22818DG     SC448230  53.535  15.828  57.340
22819DT     BB148231  53.972  16.213  57.208
22819DT     BB248232  54.172  16.086  57.481
22819DT     BB348233  54.270  15.914  57.422
22819DT     SC148234  54.049  15.773  57.437
22819DT     SC248235  54.062  15.636  57.602
22819DT     SC348236  53.844  15.624  57.363
22820DT     BB148237  54.507  16.049  57.412
22820DT     BB248238  54.577  15.767  57.627
22820DT     BB348239  54.633  15.604  57.513
22820DT     SC148240  54.386  15.563  57.435
22820DT     SC248241  54.312  15.382  57.525
22820DT     SC348242  54.176  15.540  57.277
22821DA     BB148243  54.953  15.640  57.785
22821DA     BB248244  54.856  15.286  57.779
22821DA     BB348245  54.927  15.193  57.600
22821DA     SC148246  54.669  15.254  57.437
22821DA     SC248247  54.478  15.127  57.340
22821DA     SC348248  54.445  15.332  57.189
22821DA     SC448249  54.666  15.390  57.351
22822DA     BB148250  55.084  14.965  57.791
22822DA     BB248251  54.876  14.708  57.633
22822DA     BB348252  54.954  14.656  57.441
22822DA     SC148253  54.786  14.869  57.289
22822DA     SC248254  54.594  14.873  57.129
22822DA     SC348255  54.675  15.109  57.069
22822DA     SC448256  54.853  15.013  57.264
22823DA     BB148257  54.965  14.338  57.544
22823DA     BB248258  54.724  14.259  57.279
22823DA     BB348259  54.824  14.239  57.091
22823DA     SC148260  54.791  14.539  57.015
22823DA     SC248261  54.662  14.674  56.849
22823DA     SC348262  54.836  14.857  56.893
22823DA     SC448263  54.910  14.639  57.055
22824DA     BB148264  54.684  13.939  57.076
22824DA     BB248265  54.504  14.056  56.778
22824DA     BB348266  54.632  14.049  56.607
22824DA     SC148267  54.737  14.340  56.643
22824DA     SC248268  54.715  14.559  56.527
22824DA     SC348269  54.930  14.623  56.652
22824DA     SC448270  54.872  14.360  56.728
22825DC     BB148271  54.593  13.916  56.449
22825DC     BB248272  54.464  14.163  56.220
22825DC     BB348273  54.602  14.197  56.069
22825DC     SC148274  54.756  14.336  56.230
22825DC     SC248275  54.751  14.543  56.172
22825DC     SC348276  54.966  14.406  56.372
22826DT     BB148277  54.440  14.068  55.894
22826DT     BB248278  54.481  14.397  55.753
22826DT     BB348279  54.652  14.403  55.636
22826DT     SC148280  54.807  14.406  55.848
22826DT     SC248281  54.901  14.599  55.865
22826DT     SC348282  54.988  14.330  56.024
22827DC     BB148283  54.493  14.417  55.420
22827DC     BB248284  54.700  14.712  55.402
22827DC     BB348285  54.879  14.668  55.309
22827DC     SC148286  54.968  14.543  55.522
22827DC     SC248287  55.127  14.657  55.611
22827DC     SC348288  55.055  14.348  55.677
22828DG     BB148289  54.700  14.969  55.102
22828DG     BB248290  55.039  15.055  55.194
22828DG     BB348291  55.167  14.963  55.073
22828DG     SC148292  55.191  14.712  55.247
22828DG     SC248293  55.435  14.623  55.394
22828DG     SC348294  55.225  14.415  55.403
22828DG     SC448295  55.088  14.592  55.224
22829DT     BB148296  55.298  15.082  54.949
22829DT     BB248297  55.614  15.042  55.119
22829DT     BB348298  55.732  14.906  55.017
22829DT     SC148299  55.589  14.704  55.104
22829DT     SC248300  55.705  14.589  55.244
22829DT     SC348301  55.429  14.494  55.104
22830DA     BB148302  55.952  15.256  55.089
22830DA     BB248303  56.155  14.968  55.193
22830DA     BB348304  56.224  14.860  55.023
22830DA     SC148305  55.978  14.669  55.015
22830DA     SC248306  55.931  14.428  55.058
22830DA     SC348307  55.720  14.465  54.916
22830DA     SC448308  55.854  14.712  54.923
22831DA     BB148309  56.503  14.913  55.184
22831DA     BB248310  56.537  14.548  55.202
22831DA     BB348311  56.589  14.469  55.011
22831DA     SC148312  56.294  14.426  54.921
22831DA     SC248313  56.140  14.234  54.878
22831DA     SC348314  56.002  14.402  54.742
22831DA     SC448315  56.222  14.545  54.840
22832DA     BB148316  56.821  14.340  55.202
22832DA     BB248317  56.693  14.013  55.098
22832DA     BB348318  56.746  13.973  54.895
22832DA     SC148319  56.487  14.099  54.777
22832DA     SC248320  56.280  14.021  54.662
22832DA     SC348321  56.258  14.263  54.581
22832DA     SC448322  56.492  14.254  54.736
22833DC     BB148323  56.871  13.825  54.864
22833DC     BB248324  56.631  13.592  54.727
22833DC     BB348325  56.651  13.583  54.522
22833DC     SC148326  56.534  13.816  54.493
22833DC     SC248327  56.341  13.789  54.402
22833DC     SC348328  56.499  14.070  54.431
22834DA     BB148329  56.665  13.189  54.665
22834DA     BB248330  56.426  13.200  54.387
22834DA     BB348331  56.529  13.221  54.202
22834DA     SC148332  56.521  13.532  54.204
22834DA     SC248333  56.408  13.715  54.079
22834DA     SC348334  56.595  13.865  54.169
22834DA     SC448335  56.647  13.608  54.270
22835DT     BB148336  56.522  13.068  54.069
22835DT     BB248337  56.295  13.223  53.835
22835DT     BB348338  56.399  13.288  53.668
22835DT     SC148339  56.501  13.491  53.800
22835DT     SC248340  56.415  13.674  53.727
22835DT     SC348341  56.679  13.649  53.914
22836DG     BB148342  56.115  13.029  53.530
22836DG     BB248343  56.100  13.346  53.356
22836DG     BB348344  56.244  13.355  53.219
22836DG     SC148345  56.452  13.477  53.408
22836DG     SC248346  56.566  13.752  53.388
22836DG     SC348347  56.709  13.592  53.592
22836DG     SC448348  56.544  13.379  53.495
22837DA     BB148349  55.994  13.439  52.994
22837DA     BB248350  56.162  13.757  52.925
22837DA     BB348351  56.332  13.726  52.799
22837DA     SC148352  56.531  13.685  53.034
22837DA     SC248353  56.722  13.807  53.138
22837DA     SC348354  56.787  13.580  53.237
22837DA     SC448355  56.556  13.534  53.085
22838DT     BB148356  56.325  13.805  52.617
22838DT     BB248357  56.555  14.075  52.678
22838DT     BB348358  56.739  14.032  52.593
22838DT     SC148359  56.795  13.859  52.782
22838DT     SC248360  56.953  13.936  52.905
22838DT     SC348361  56.849  13.629  52.899
22839DC     BB148362  56.688  14.222  52.410
22839DC     BB248363  56.998  14.322  52.564
22839DC     BB348364  57.157  14.226  52.472
22839DC     SC148365  57.099  14.000  52.591
22839DC     SC248366  57.252  13.955  52.736
22839DC     SC348367  57.028  13.748  52.625
22840DA     BB148368  57.236  14.639  52.486
22840DA     BB248369  57.531  14.461  52.611
22840DA     BB348370  57.632  14.362  52.451
22840DA     SC148371  57.473  14.096  52.483
22840DA     SC248372  57.517  13.863  52.558
22840DA     SC348373  57.305  13.802  52.427
22840DA     SC448374  57.339  14.079  52.395
22841DA     BB148375  57.889  14.530  52.567
22841DA     BB248376  58.053  14.208  52.626
22841DA     BB348377  58.124  14.126  52.442
22841DA     SC148378  57.863  13.969  52.382
22841DA     SC248379  57.788  13.731  52.374
22841DA     SC348380  57.595  13.818  52.230
22841DA     SC448381  57.751  14.042  52.293
22842DG     BB148382  58.407  14.140  52.575
22842DG     BB248383  58.396  13.781  52.540
22842DG     BB348384  58.451  13.729  52.356
22842DG     SC148385  58.168  13.742  52.240
22842DG     SC248386  58.009  13.510  52.140
22842DG     SC348387  57.874  13.766  52.076
22842DG     SC448388  58.114  13.881  52.182
22843DT     BB148389  58.643  13.603  52.302
22843DT     BB248390  58.498  13.284  52.215
22843DT     BB348391  58.506  13.257  52.010
22843DT     SC148392  58.310  13.427  51.971
22843DT     SC248393  58.136  13.320  51.904
22843DT     SC348394  58.181  13.641  51.889
22844DA     BB148395  58.699  12.909  52.151
22844DA     BB248396  58.450  12.800  51.905
22844DA     BB348397  58.522  12.836  51.707
22844DA     SC148398  58.398  13.121  51.687
22844DA     SC248399  58.214  13.234  51.563
22844DA     SC348400  58.338  13.452  51.618
22844DA     SC448401  58.491  13.245  51.730
22845DG     BB148402  58.521  12.522  51.630
22845DG     BB248403  58.263  12.619  51.396
22845DG     BB348404  58.345  12.668  51.221
22845DG     SC148405  58.380  12.964  51.294
22845DG     SC248406  58.237  13.193  51.168
22845DG     SC348407  58.452  13.289  51.347
22845DG     SC448408  58.515  13.010  51.367
22846DT     BB148409  58.322  12.555  50.994
22846DT     BB248410  58.092  12.785  50.838
22846DT     BB348411  58.187  12.886  50.684
22846DT     SC148412  58.319  13.036  50.854
22846DT     SC248413  58.245  13.238  50.843
22846DT     SC348414  58.520  13.144  50.986
22847DA     BB148415  57.844  12.720  50.514
22847DA     BB248416  57.845  13.078  50.435
22847DA     BB348417  57.984  13.119  50.278
22847DA     SC148418  58.223  13.173  50.470
22847DA     SC248419  58.361  13.367  50.543
22847DA     SC348420  58.534  13.192  50.614
22847DA     SC448421  58.318  13.048  50.506
22848DC     BB148422  57.900  13.184  50.121
22848DC     BB248423  57.994  13.529  50.169
22848DC     BB348424  58.150  13.578  50.042
22848DC     SC148425  58.322  13.446  50.189
22848DC     SC248426  58.455  13.584  50.286
22848DC     SC348427  58.500  13.264  50.260
22849DA     BB148428  57.826  13.844  50.078
22849DA     BB248429  58.140  14.029  50.117
22849DA     BB348430  58.249  14.030  49.933
22849DA     SC148431  58.408  13.771  49.998
22849DA     SC248432  58.642  13.707  50.053
22849DA     SC348433  58.574  13.470  49.981
22849DA     SC448434  58.346  13.631  49.948
22850DT     BB148435  58.242  14.179  49.947
22850DT     BB248436  58.594  14.235  50.001
22850DT     BB348437  58.697  14.216  49.822
22850DT     SC148438  58.673  13.954  49.827
22850DT     SC248439  58.866  13.866  49.862
22850DT     SC348440  58.602  13.710  49.757
22851DT     BB148441  58.719  14.457  49.899
22851DT     BB248442  59.054  14.337  49.840
22851DT     BB348443  59.087  14.316  49.637
22851DT     SC148444  58.940  14.099  49.627
22851DT     SC248445  59.066  13.929  49.589
22851DT     SC348446  58.743  13.935  49.563
22852DT     BB148447  59.244  14.527  49.664
22852DT     BB248448  59.447  14.282  49.494
22852DT     BB348449  59.404  14.284  49.291
22852DT     SC148450  59.176  14.159  49.330
22852DT     SC248451  59.189  13.960  49.250
22852DT     SC348452  58.917  14.113  49.336
22853DT     BB148453  59.638  14.422  49.211
22853DT     BB248454  59.638  14.132  48.997
22853DT     BB348455  59.537  14.174  48.821
22853DT     SC148456  59.305  14.161  48.943
22853DT     SC248457  59.199  13.986  48.876
22853DT     SC348458  59.071  14.235  49.040
22854DA     BB148459  59.906  14.053  48.653
22854DA     BB248460  59.645  13.873  48.469
22854DA     BB348461  59.555  14.001  48.324
22854DA     SC148462  59.332  14.103  48.516
22854DA     SC248463  59.085  14.080  48.542
22854DA     SC348464  59.100  14.293  48.683
22854DA     SC448465  59.362  14.238  48.600
22855DT     BB148466  59.571  13.987  48.088
22855DT     BB248467  59.238  13.856  48.036
22855DT     BB348468  59.122  13.996  47.937
22855DT     SC148469  59.098  14.141  48.155
22855DT     SC248470  58.895  14.131  48.225
22855DT     SC348471  59.119  14.345  48.320
22856DA     BB148472  59.088  13.649  47.706
22856DA     BB248473  58.748  13.771  47.771
22856DA     BB348474  58.705  13.939  47.647
22856DA     SC148475  58.807  14.149  47.853
22856DA     SC248476  58.710  14.325  48.001
22856DA     SC348477  58.947  14.423  48.006
22856DA     SC448478  58.960  14.195  47.843
22857DA     BB148479  58.450  13.749  47.575
22857DA     BB248480  58.237  14.016  47.709
22857DA     BB348481  58.224  14.177  47.570
22857DA     SC148482  58.469  14.330  47.687
22857DA     SC248483  58.511  14.539  47.816
22857DA     SC348484  58.752  14.519  47.729
22857DA     SC448485  58.613  14.300  47.622
22858DG     BB148486  57.925  14.105  47.590
22858DG     BB248487  57.901  14.438  47.728
22858DG     BB348488  57.900  14.572  47.581
22858DG     SC148489  58.204  14.605  47.575
22858DG     SC248490  58.356  14.851  47.651
22858DG     SC348491  58.535  14.650  47.528
22858DG     SC448492  58.291  14.508  47.482
22859DC     BB148493  57.727  14.698  47.555
22859DC     BB248494  57.847  15.018  47.670
22859DC     BB348495  57.893  15.139  47.509
22859DC     SC148496  58.113  15.004  47.461
22859DC     SC248497  58.284  15.127  47.508
22859DC     SC348498  58.289  14.851  47.337
22860DA     BB148499  57.634  15.369  47.746
22860DA     BB248500  57.918  15.582  47.657
22860DA     BB348501  57.905  15.642  47.452
22860DA     SC148502  58.068  15.399  47.345
22860DA     SC248503  58.292  15.358  47.243
22860DA     SC348504  58.189  15.139  47.158
22860DA     SC448505  57.986  15.269  47.301
22861DT     BB148506  57.866  15.850  47.384
22861DT     BB248507  58.199  15.922  47.266
22861DT     BB348508  58.200  15.931  47.059
22861DT     SC148509  58.183  15.670  47.039
22861DT     SC248510  58.368  15.592  46.963
22861DT     SC348511  58.087  15.432  46.980
22862DT     BB148512  58.222  16.211  47.047
22862DT     BB248513  58.504  16.095  46.853
22862DT     BB348514  58.449  16.076  46.654
22862DT     SC148515  58.314  15.857  46.704
22862DT     SC248516  58.415  15.689  46.616
22862DT     SC348517  58.110  15.690  46.727
22863DG     BB148518  58.756  16.346  46.643
22863DG     BB248519  58.815  16.075  46.411
22863DG     BB348520  58.713  16.105  46.244
22863DG     SC148521  58.463  15.958  46.341
22863DG     SC248522  58.356  15.702  46.231
22863DG     SC348523  58.165  15.821  46.423
22863DG     SC448524  58.351  16.040  46.421
22864DA     BB148525  59.004  16.068  46.051
22864DA     BB248526  58.857  15.784  45.872
22864DA     BB348527  58.723  15.852  45.721
22864DA     SC148528  58.473  15.850  45.906
22864DA     SC248529  58.263  15.719  45.931
22864DA     SC348530  58.176  15.921  46.062
22864DA     SC448531  58.437  15.986  45.984
22865DA     BB148532  58.902  15.674  45.502
22865DA     BB248533  58.600  15.477  45.435
22865DA     BB348534  58.471  15.582  45.301
22865DA     SC148535  58.313  15.725  45.528
22865DA     SC248536  58.084  15.718  45.626
22865DA     SC348537  58.137  15.952  45.717
22865DA     SC448538  58.364  15.871  45.574
22866DA     BB148539  58.476  15.320  45.090
22866DA     BB248540  58.115  15.284  45.144
22866DA     BB348541  58.008  15.419  45.019
22866DA     SC148542  58.004  15.649  45.228
22866DA     SC248543  57.837  15.765  45.373
22866DA     SC348544  58.009  15.955  45.385
22866DA     SC448545  58.124  15.757  45.223
22867DT     BB148546  57.863  15.370  44.828
22867DT     BB248547  57.554  15.426  45.006
22867DT     BB348548  57.456  15.591  44.927
22867DT     SC148549  57.625  15.756  45.042
22867DT     SC248550  57.525  15.863  45.199
22867DT     SC348551  57.812  15.940  45.070
22868DC     BB148552  57.246  15.451  44.786
22868DC     BB248553  57.071  15.661  45.021
22868DC     BB348554  57.018  15.839  44.930
22868DC     SC148555  57.265  15.927  44.940
22868DC     SC248556  57.278  16.089  45.081
22868DC     SC348557  57.501  16.012  44.859
22869DA     BB148558  56.689  15.666  45.114
22869DA     BB248559  56.726  16.007  45.242
22869DA     BB348560  56.663  16.149  45.096
22869DA     SC148561  56.945  16.178  44.968
22869DA     SC248562  57.124  16.352  44.953
22869DA     SC348563  57.207  16.219  44.750
22869DA     SC448564  56.981  16.083  44.843
22870DT     BB148565  56.547  16.215  45.184
22870DT     BB248566  56.729  16.515  45.266
22870DT     BB348567  56.690  16.662  45.125
22870DT     SC148568  56.843  16.543  44.947
22870DT     SC248569  57.019  16.661  44.914
22870DT     SC348570  56.916  16.417  44.727
22871DT     BB148571  56.623  16.718  45.363
22871DT     BB248572  56.865  16.964  45.258
22871DT     BB348573  56.784  17.083  45.109
22871DT     SC148574  56.809  16.892  44.932
22871DT     SC248575  56.962  16.946  44.790
22871DT     SC348576  56.744  16.708  44.754
22872DT     BB148577  56.840  17.218  45.317
22872DT     BB248578  57.015  17.370  45.041
22872DT     BB348579  56.880  17.461  44.913
22872DT     SC148580  56.803  17.229  44.818
22872DT     SC248581  56.871  17.209  44.614
22872DT     SC348582  56.648  17.023  44.759
22873DA     BB148583  57.214  17.703  45.009
22873DA     BB248584  57.147  17.727  44.649
22873DA     BB348585  56.960  17.825  44.615
22873DA     SC148586  56.795  17.561  44.616
22873DA     SC248587  56.669  17.422  44.452
22873DA     SC348588  56.550  17.324  44.657
22873DA     SC448589  56.731  17.514  44.756
22874DA     BB148590  57.156  18.008  44.422
22874DA     BB248591  56.932  17.919  44.146
22874DA     BB348592  56.746  18.020  44.166
22874DA     SC148593  56.612  17.792  44.330
22874DA     SC248594  56.434  17.621  44.298
22874DA     SC348595  56.426  17.611  44.554
22874DA     SC448596  56.622  17.801  44.491
22875DT     BB148597  56.687  18.171  44.032
22875DT     BB248598  56.429  17.985  43.861
22875DT     BB348599  56.242  18.051  43.922
22875DT     SC148600  56.264  17.928  44.152
22875DT     SC248601  56.127  17.764  44.159
22875DT     SC348602  56.283  17.891  44.413
22876DT     BB148603  56.185  18.194  43.685
22876DT     BB248604  55.902  17.972  43.720
22876DT     BB348605  55.753  18.065  43.829
22876DT     SC148606  55.885  18.033  44.053
22876DT     SC248607  55.783  17.888  44.176
22876DT     SC348608  56.017  18.091  44.274
22877DT     BB148609  55.587  18.111  43.608
22877DT     BB248610  55.377  17.927  43.836
22877DT     BB348611  55.276  18.058  43.960
22877DT     SC148612  55.493  18.105  44.100
22877DT     SC248613  55.472  18.019  44.296
22877DT     SC348614  55.696  18.236  44.207
22878DA     BB148615  54.973  17.819  43.794
22878DA     BB248616  54.920  17.826  44.157
22878DA     BB348617  54.836  18.013  44.216
22878DA     SC148618  55.112  18.148  44.266
22878DA     SC248619  55.246  18.229  44.461
22878DA     SC348620  55.373  18.370  44.289
22878DA     SC448621  55.178  18.229  44.144
22879DT     BB148622  54.637  18.030  44.293
22879DT     BB248623  54.729  18.082  44.638
22879DT     BB348624  54.693  18.279  44.692
22879DT     SC148625  54.903  18.362  44.558
22879DT     SC248626  55.053  18.429  44.696
22879DT     SC348627  55.048  18.488  44.378
22880DT     BB148628  54.473  18.211  44.845
22880DT     BB248629  54.689  18.385  45.074
22880DT     BB348630  54.650  18.589  45.068
22880DT     SC148631  54.772  18.613  44.837
22880DT     SC248632  54.954  18.724  44.863
22880DT     SC348633  54.810  18.661  44.580
22881DA     BB148634  54.621  18.487  45.474
22881DA     BB248635  54.840  18.780  45.449
22881DA     BB348636  54.725  18.956  45.413
22881DA     SC148637  54.741  18.933  45.103
22881DA     SC248638  54.851  19.053  44.914
22881DA     SC348639  54.675  18.939  44.766
22881DA     SC448640  54.623  18.853  45.028
22882DC     BB148641  54.716  19.103  45.556
22882DC     BB248642  54.936  19.335  45.389
22882DC     BB348643  54.827  19.493  45.311
22882DC     SC148644  54.736  19.342  45.116
22882DC     SC248645  54.822  19.406  44.930
22882DC     SC348646  54.566  19.210  44.963
22883DA     BB148647  55.140  19.651  45.538
22883DA     BB248648  55.142  19.817  45.211
22883DA     BB348649  54.979  19.953  45.197
22883DA     SC148650  54.783  19.744  45.076
22883DA     SC248651  54.671  19.700  44.857
22883DA     SC348652  54.506  19.559  44.993
22883DA     SC448653  54.690  19.662  45.178
22884DA     BB148654  55.235  20.138  45.117
22884DA     BB248655  55.070  20.187  44.793
22884DA     BB348656  54.902  20.316  44.814
22884DA     SC148657  54.700  20.085  44.869
22884DA     SC248658  54.509  19.975  44.752
22884DA     SC348659  54.441  19.892  44.985
22884DA     SC448660  54.674  20.044  45.022
22885DT     BB148661  54.922  20.477  44.721
22885DT     BB248662  54.689  20.407  44.455
22885DT     BB348663  54.509  20.500  44.492
22885DT     SC148664  54.446  20.325  44.677
22885DT     SC248665  54.284  20.202  44.607
22885DT     SC348666  54.388  20.224  44.913
22886DA     BB148667  54.634  20.591  44.101
22886DA     BB248668  54.281  20.489  44.088
22886DA     BB348669  54.157  20.640  44.173
22886DA     SC148670  54.168  20.522  44.461
22886DA     SC248671  54.013  20.407  44.619
22886DA     SC348672  54.180  20.479  44.801
22886DA     SC448673  54.283  20.576  44.559
22887DT     BB148674  54.033  20.734  44.051
22887DT     BB248675  53.728  20.583  44.169
22887DT     BB348676  53.625  20.715  44.291
22887DT     SC148677  53.794  20.677  44.488
22887DT     SC248678  53.696  20.570  44.647
22887DT     SC348679  53.979  20.726  44.670
22888DG     BB148680  53.366  20.627  43.988
22888DG     BB248681  53.210  20.580  44.311
22888DG     BB348682  53.155  20.756  44.386
22888DG     SC148683  53.420  20.806  44.529
22888DG     SC248684  53.461  20.816  44.825
22888DG     SC348685  53.705  20.903  44.682
22888DG     SC448686  53.538  20.880  44.450
22889DA     BB148687  52.828  20.635  44.433
22889DA     BB248688  52.853  20.697  44.793
22889DA     BB348689  52.824  20.904  44.835
22889DA     SC148690  53.126  20.976  44.815
22889DA     SC248691  53.310  21.045  44.968
22889DA     SC348692  53.426  21.132  44.756
22889DA     SC448693  53.181  21.024  44.671
22890DG     BB148694  52.573  20.821  45.007
22890DG     BB248695  52.771  20.950  45.281
22890DG     BB348696  52.745  21.147  45.296
22890DG     SC148697  52.976  21.215  45.106
22890DG     SC248698  53.230  21.352  45.182
22890DG     SC348699  53.209  21.326  44.888
22890DG     SC448700  52.947  21.226  44.949
22891DA     BB148701  52.664  21.103  45.631
22891DA     BB248702  52.949  21.312  45.729
22891DA     BB348703  52.902  21.519  45.705
22891DA     SC148704  53.007  21.534  45.413
22891DA     SC248705  53.198  21.638  45.291
22891DA     SC348706  53.053  21.608  45.081
22891DA     SC448707  52.902  21.508  45.295
22892DA     BB148708  53.002  21.512  46.015
22892DA     BB248709  53.269  21.741  45.911
22892DA     BB348710  53.190  21.936  45.879
22892DA     SC148711  53.130  21.889  45.577
22892DA     SC248712  53.217  21.967  45.357
22892DA     SC348713  52.991  21.889  45.263
22892DA     SC448714  52.983  21.836  45.539
22893DT     BB148715  53.259  22.063  45.999
22893DT     BB248716  53.476  22.233  45.767
22893DT     BB348717  53.388  22.408  45.702
22893DT     SC148718  53.222  22.277  45.547
22893DT     SC248719  53.272  22.313  45.341
22893DT     SC348720  52.996  22.182  45.449
22894DA     BB148721  53.783  22.473  45.828
22894DA     BB248722  53.736  22.637  45.503
22894DA     BB348723  53.607  22.806  45.523
22894DA     SC148724  53.347  22.644  45.466
22894DA     SC248725  53.176  22.627  45.285
22894DA     SC348726  53.025  22.524  45.466
22894DA     SC448727  53.268  22.584  45.593
22895DT     BB148728  53.692  22.970  45.487
22895DT     BB248729  53.532  23.041  45.172
22895DT     BB348730  53.377  23.176  45.200
22895DT     SC148731  53.225  22.990  45.306
22895DT     SC248732  53.063  22.944  45.172
22895DT     SC348733  53.081  22.859  45.484
22896DG     BB148734  53.628  23.357  44.932
22896DG     BB248735  53.286  23.362  44.814
22896DG     BB348736  53.184  23.505  44.907
22896DG     SC148737  53.094  23.326  45.138
22896DG     SC248738  52.813  23.241  45.194
22896DG     SC348739  52.994  23.163  45.416
22896DG     SC448740  53.188  23.312  45.267
22897DT     BB148741  53.087  23.707  44.810
22897DT     BB248742  52.736  23.626  44.814
22897DT     BB348743  52.640  23.736  44.961
22897DT     SC148744  52.740  23.585  45.151
22897DT     SC248745  52.584  23.468  45.239
22897DT     SC348746  52.880  23.514  45.363
22898DA     BB148747  52.406  23.856  44.628
22898DA     BB248748  52.170  23.754  44.890
22898DA     BB348749  52.148  23.909  45.034
22898DA     SC148750  52.378  23.806  45.217
22898DA     SC248751  52.401  23.700  45.442
22898DA     SC348752  52.645  23.781  45.431
22898DA     SC448753  52.525  23.866  45.192
22899DT     BB148754  51.953  24.051  45.082
22899DT     BB248755  51.859  23.875  45.383
22899DT     BB348756  51.881  23.999  45.547
22899DT     SC148757  52.143  23.974  45.540
22899DT     SC248758  52.208  23.860  45.709
22899DT     SC348759  52.397  24.038  45.516
22900DC     BB148760  51.604  24.044  45.591
22900DC     BB248761  51.721  23.891  45.896
22900DC     BB348762  51.776  24.037  46.031
22900DC     SC148763  51.997  24.087  45.899
22900DC     SC248764  52.166  24.020  46.014
22900DC     SC348765  52.177  24.217  45.757
22901DA     BB148766  51.515  23.766  46.210
22901DA     BB248767  51.814  23.792  46.420
22901DA     BB348768  51.815  23.979  46.525
22901DA     SC148769  51.972  24.130  46.303
22901DA     SC248770  52.199  24.229  46.272
22901DA     SC348771  52.092  24.365  46.083
22901DA     SC448772  51.887  24.206  46.190
22902DA     BB148773  51.866  23.735  46.731
22902DA     BB248774  52.186  23.900  46.800
22902DA     BB348775  52.154  24.085  46.902
22902DA     SC148776  52.137  24.253  46.641
22902DA     SC248777  52.273  24.426  46.524
22902DA     SC348778  52.056  24.485  46.402
22902DA     SC448779  51.991  24.276  46.577
22903DC     BB148780  52.232  24.059  47.048
22903DC     BB248781  52.512  24.279  46.992
22903DC     BB348782  52.469  24.468  47.064
22903DC     SC148783  52.308  24.518  46.862
22903DC     SC248784  52.397  24.667  46.736
22903DC     SC348785  52.088  24.571  46.728
22904DT     BB148786  52.652  24.401  47.236
22904DT     BB248787  52.765  24.712  47.093
22904DT     BB348788  52.665  24.871  47.180
22904DT     SC148789  52.446  24.816  47.047
22904DT     SC248790  52.411  24.971  46.901
22904DT     SC348791  52.196  24.748  46.997
22905DA     BB148792  53.076  24.958  47.204
22905DA     BB248793  52.904  25.260  47.087
22905DA     BB348794  52.793  25.348  47.246
22905DA     SC148795  52.532  25.191  47.185
22905DA     SC248796  52.303  25.238  47.097
22905DA     SC348797  52.236  25.018  47.209
22905DA     SC448798  52.509  25.051  47.263
22906DA     BB148799  52.961  25.631  47.185
22906DA     BB248800  52.639  25.793  47.117
22906DA     BB348801  52.539  25.840  47.300
22906DA     SC148802  52.387  25.569  47.315
22906DA     SC248803  52.152  25.488  47.293
22906DA     SC348804  52.233  25.281  47.421
22906DA     SC448805  52.456  25.449  47.397
22907DA     BB148806  52.519  26.166  47.213
22907DA     BB248807  52.154  26.135  47.221
22907DA     BB348808  52.082  26.155  47.421
22907DA     SC148809  52.097  25.850  47.482
22907DA     SC248810  51.939  25.662  47.522
22907DA     SC348811  52.138  25.544  47.633
22907DA     SC448812  52.233  25.795  47.549
22908DA     BB148813  51.883  26.408  47.325
22908DA     BB248814  51.595  26.199  47.414
22908DA     BB348815  51.556  26.212  47.623
22908DA     SC148816  51.739  25.972  47.698
22908DA     SC248817  51.712  25.738  47.782
22908DA     SC348818  51.957  25.757  47.854
22908DA     SC448819  51.891  26.003  47.736
22909DT     BB148820  51.375  26.303  47.702
22909DT     BB248821  51.211  25.992  47.782
22909DT     BB348822  51.201  25.967  47.987
22909DT     SC148823  51.456  25.909  48.001
22909DT     SC248824  51.479  25.701  48.051
22909DT     SC348825  51.712  25.926  48.063
22910DT     BB148826  50.940  26.007  47.960
22910DT     BB248827  50.973  25.677  48.104
22910DT     BB348828  50.992  25.691  48.310
22910DT     SC148829  51.239  25.776  48.289
22910DT     SC248830  51.373  25.624  48.362
22910DT     SC348831  51.450  25.934  48.307
22911DC     BB148832  50.757  25.579  48.297
22911DC     BB248833  50.965  25.353  48.486
22911DC     BB348834  50.980  25.418  48.682
22911DC     SC148835  51.145  25.610  48.613
22911DC     SC248836  51.341  25.567  48.690
22911DC     SC348837  51.241  25.853  48.575
22912DA     BB148838  50.886  25.009  48.649
22912DA     BB248839  51.161  25.048  48.889
22912DA     BB348840  51.091  25.145  49.066
22912DA     SC148841  51.156  25.432  48.963
22912DA     SC248842  51.318  25.614  49.014
22912DA     SC348843  51.151  25.768  48.896
22912DA     SC448844  51.039  25.512  48.887
22913DT     BB148845  51.103  25.034  49.210
22913DT     BB248846  51.381  25.197  49.372
22913DT     BB348847  51.311  25.323  49.521
22913DT     SC148848  51.230  25.500  49.345
22913DT     SC248849  51.354  25.675  49.356
22913DT     SC348850  51.068  25.654  49.204
22914DA     BB148851  51.613  25.075  49.675
22914DA     BB248852  51.685  25.421  49.775
22914DA     BB348853  51.545  25.486  49.922
22914DA     SC148854  51.344  25.601  49.713
22914DA     SC248855  51.261  25.824  49.640
22914DA     SC348856  51.061  25.696  49.544
22914DA     SC448857  51.227  25.503  49.662
22915DA     BB148858  51.828  25.554  50.070
22915DA     BB248859  51.717  25.903  50.075
22915DA     BB348860  51.562  25.930  50.219
22915DA     SC148861  51.332  25.872  50.018
22915DA     SC248862  51.149  25.999  49.906
22915DA     SC348863  51.040  25.769  49.870
22915DA     SC448864  51.280  25.720  50.007
22916DT     BB148865  51.610  26.042  50.365
22916DT     BB248866  51.411  26.328  50.268
22916DT     BB348867  51.237  26.334  50.380
22916DT     SC148868  51.132  26.136  50.243
22916DT     SC248869  50.970  26.211  50.123
22916DT     SC348870  51.032  25.899  50.187
22917DG     BB148871  51.442  26.684  50.418
22917DG     BB248872  51.096  26.739  50.326
22917DG     BB348873  50.979  26.710  50.483
22917DG     SC148874  50.938  26.411  50.428
22917DG     SC248875  50.681  26.281  50.349
22917DG     SC348876  50.888  26.078  50.408
22917DG     SC448877  51.042  26.306  50.489
22918DG     BB148878  50.877  27.014  50.426
22918DG     BB248879  50.549  26.869  50.382
22918DG     BB348880  50.468  26.829  50.559
22918DG     SC148881  50.583  26.546  50.574
22918DG     SC248882  50.425  26.292  50.567
22918DG     SC348883  50.709  26.238  50.633
22918DG     SC448884  50.728  26.524  50.639
22919DA     BB148885  50.188  27.006  50.446
22919DA     BB248886  49.976  26.713  50.508
22919DA     BB348887  49.946  26.686  50.718
22919DA     SC148888  50.193  26.501  50.754
22919DA     SC248889  50.238  26.260  50.804
22919DA     SC348890  50.471  26.339  50.875
22919DA     SC448891  50.333  26.570  50.795
22920DA     BB148892  49.615  26.692  50.657
22920DA     BB248893  49.595  26.356  50.803
22920DA     BB348894  49.603  26.367  51.016
22920DA     SC148895  49.913  26.341  51.029
22920DA     SC248896  50.081  26.172  51.104
22920DA     SC348897  50.244  26.370  51.114
22920DA     SC448898  49.999  26.477  51.031
22921DA     BB148899  49.303  26.205  51.065
22921DA     BB248900  49.482  25.940  51.243
22921DA     BB348901  49.510  25.994  51.448
22921DA     SC148902  49.785  26.130  51.400
22921DA     SC248903  50.024  26.087  51.454
22921DA     SC348904  50.058  26.338  51.411
22921DA     SC448905  49.785  26.288  51.370
22922DA     BB148906  49.350  25.716  51.565
22922DA     BB248907  49.667  25.609  51.715
22922DA     BB348908  49.692  25.698  51.907
22922DA     SC148909  49.841  25.949  51.799
22922DA     SC248910  50.072  26.044  51.806
22922DA     SC348911  49.960  26.267  51.746
22922DA     SC448912  49.753  26.078  51.763
22923DT     BB148913  49.692  25.586  52.107
22923DT     BB248914  50.049  25.596  52.151
22923DT     BB348915  50.097  25.719  52.311
22923DT     SC148916  50.046  25.935  52.172
22923DT     SC248917  50.229  26.040  52.132
22923DT     SC348918  49.930  26.160  52.096
22924DT     BB148919  50.168  25.499  52.452
22924DT     BB248920  50.466  25.701  52.438
22924DT     BB348921  50.467  25.837  52.594
22924DT     SC148922  50.286  25.985  52.477
22924DT     SC248923  50.376  26.170  52.413
22924DT     SC348924  50.058  26.110  52.433
22925DA     BB148925  50.828  25.627  52.553
22925DA     BB248926  50.902  25.985  52.577
22925DA     BB348927  50.862  26.056  52.774
22925DA     SC148928  50.567  26.134  52.712
22925DA     SC248929  50.432  26.342  52.688
22925DA     SC348930  50.229  26.191  52.729
22925DA     SC448931  50.454  26.023  52.741
22926DA     BB148932  51.163  26.154  52.693
22926DA     BB248933  51.039  26.493  52.753
22926DA     BB348934  50.999  26.522  52.961
22926DA     SC148935  50.702  26.430  52.941
22926DA     SC248936  50.475  26.533  52.957
22926DA     SC348937  50.392  26.294  53.001
22926DA     SC448938  50.670  26.275  52.968
22927DT     BB148939  51.109  26.648  53.029
22927DT     BB248940  50.866  26.909  53.078
22927DT     BB348941  50.799  26.907  53.274
22927DT     SC148942  50.653  26.694  53.230
22927DT     SC248943  50.444  26.747  53.237
22927DT     SC348944  50.564  26.446  53.247
22928DT     BB148945  50.941  27.134  53.328
22928DT     BB248946  50.605  27.214  53.432
22928DT     BB348947  50.574  27.151  53.627
22928DT     SC148948  50.557  26.900  53.552
22928DT     SC248949  50.355  26.832  53.576
22928DT     SC348950  50.615  26.644  53.529
22929DT     BB148951  50.589  27.408  53.752
22929DT     BB248952  50.273  27.279  53.869
22929DT     BB348953  50.300  27.178  54.048
22929DT     SC148954  50.409  26.974  53.925
22929DT     SC248955  50.276  26.805  53.935
22929DT     SC348956  50.589  26.795  53.853
22930DA     BB148957  50.008  27.458  54.173
22930DA     BB248958  49.891  27.128  54.283
22930DA     BB348959  49.994  27.068  54.460
22930DA     SC148960  50.223  26.924  54.308
22930DA     SC248961  50.302  26.690  54.271
22930DA     SC348962  50.526  26.796  54.209
22930DA     SC448963  50.355  27.009  54.274
22931DT     BB148964  49.904  27.043  54.680
22931DT     BB248965  49.895  26.682  54.674
22931DT     BB348966  50.030  26.606  54.810
22931DT     SC148967  50.233  26.665  54.655
22931DT     SC248968  50.320  26.484  54.578
22931DT     SC348969  50.456  26.778  54.570
22932DC     BB148970  49.832  26.525  54.988
22932DC     BB248971  50.011  26.221  54.911
22932DC     BB348972  50.167  26.196  55.045
22932DC     SC148973  50.309  26.383  54.928
22932DC     SC248974  50.477  26.294  54.829
22932DC     SC348975  50.440  26.609  54.892
22933DA     BB148976  49.947  25.840  55.045
22933DA     BB248977  50.300  25.752  55.000
22933DA     BB348978  50.406  25.774  55.184
22933DA     SC148979  50.485  26.070  55.132
22933DA     SC248980  50.692  26.200  55.082
22933DA     SC348981  50.560  26.404  55.164
22933DA     SC448982  50.387  26.184  55.188
22934DT     BB148983  50.482  25.607  55.275
22934DT     BB248984  50.828  25.667  55.193
22934DT     BB348985  50.930  25.731  55.360
22934DT     SC148986  50.821  25.969  55.346
22934DT     SC248987  50.970  26.113  55.290
22934DT     SC348988  50.677  26.181  55.411
22935DG     BB148989  51.126  25.390  55.248
22935DG     BB248990  51.357  25.666  55.285
22935DG     BB348991  51.401  25.692  55.477
22935DG     SC148992  51.171  25.887  55.530
22935DG     SC248993  51.198  26.177  55.597
22935DG     SC348994  50.918  26.088  55.627
22935DG     SC448995  51.028  25.829  55.573
22936DA     BB148996  51.745  25.673  55.408
22936DA     BB248997  51.792  26.015  55.531
22936DA     BB348998  51.804  26.017  55.744
22936DA     SC148999  51.498  26.058  55.783
22936DA     SC249000  51.344  26.238  55.863
22936DA     SC349001  51.175  26.049  55.899
22936DA     SC449002  51.407  25.926  55.801
22937DG     BB149003  52.095  26.131  55.717
22937DG     BB249004  51.944  26.426  55.861
22937DG     BB349005  51.949  26.415  56.060
22937DG     SC149006  51.678  26.273  56.083
22937DG     SC249007  51.431  26.388  56.205
22937DG     SC349008  51.395  26.100  56.144
22937DG     SC449009  51.673  26.113  56.077
22938DT     BB149010  52.059  26.566  56.175
22938DT     BB249011  51.783  26.770  56.285
22938DT     BB349012  51.748  26.739  56.487
22938DT     SC149013  51.639  26.505  56.441
22938DT     SC249014  51.428  26.516  56.481
22938DT     SC349015  51.600  26.244  56.443
22939DG     BB149016  51.791  27.114  56.334
22939DG     BB249017  51.477  27.066  56.508
22939DG     BB349018  51.510  27.050  56.703
22939DG     SC149019  51.544  26.746  56.697
22939DG     SC249020  51.361  26.546  56.822
22939DG     SC349021  51.608  26.416  56.724
22939DG     SC449022  51.690  26.685  56.670
22940DT     BB149023  51.383  27.150  56.677
22940DT     BB249024  51.118  26.976  56.849
22940DT     BB349025  51.165  26.955  57.049
22940DT     SC149026  51.340  26.766  56.997
22940DT     SC249027  51.266  26.578  57.071
22940DT     SC349028  51.570  26.640  56.979
22941DG     BB149029  50.787  27.057  56.880
22941DG     BB249030  50.769  26.817  57.150
22941DG     BB349031  50.839  26.898  57.317
22941DG     SC149032  51.128  26.810  57.268
22941DG     SC249033  51.281  26.610  57.429
22941DG     SC349034  51.458  26.747  57.236
22941DG     SC449035  51.225  26.905  57.184
22942DC     BB149036  50.700  26.887  57.436
22942DC     BB249037  50.823  26.672  57.698
22942DC     BB349038  50.932  26.783  57.835
22942DC     SC149039  51.135  26.802  57.670
22942DC     SC249040  51.299  26.685  57.745
22942DC     SC349041  51.316  26.909  57.511
22943DC     BB149042  50.730  26.778  58.025
22943DC     BB249043  51.020  26.675  58.212
22943DC     BB349044  51.117  26.841  58.289
22943DC     SC149045  51.214  26.902  58.053
22943DC     SC249046  51.427  26.869  58.052
22943DC     SC349047  51.260  27.036  57.830
22944DT     BB149048  51.029  26.841  58.575
22944DT     BB249049  51.388  26.865  58.606
22944DT     BB349050  51.445  27.063  58.627
22944DT     SC149051  51.401  27.110  58.373
22944DT     SC249052  51.589  27.143  58.273
22944DT     SC349053  51.296  27.212  58.153
22945DT     BB149054  51.501  27.097  58.927
22945DT     BB249055  51.808  27.215  58.777
22945DT     BB349056  51.806  27.422  58.766
22945DT     SC149057  51.636  27.418  58.566
22945DT     SC249058  51.736  27.482  58.386
22945DT     SC349059  51.416  27.455  58.426
22946DA     BB149060  52.162  27.370  58.985
22946DA     BB249061  52.244  27.591  58.704
22946DA     BB349062  52.185  27.791  58.748
22946DA     SC149063  51.901  27.761  58.625
22946DA     SC249064  51.776  27.844  58.427
22946DA     SC349065  51.565  27.782  58.559
22946DA     SC449066  51.782  27.716  58.724
22947DT     BB149067  52.330  27.960  58.777
22947DT     BB249068  52.274  28.112  58.454
22947DT     BB349069  52.179  28.294  58.477
22947DT     SC149070  51.950  28.176  58.531
22947DT     SC249071  51.814  28.208  58.368
22947DT     SC349072  51.735  28.100  58.663
22948DT     BB149073  52.409  28.419  58.407
22948DT     BB249074  52.166  28.531  58.165
22948DT     BB349075  52.067  28.698  58.236
22948DT     SC149076  51.926  28.553  58.403
22948DT     SC249077  51.720  28.550  58.339
22948DT     SC349078  51.830  28.459  58.630
22949DT     BB149079  52.200  28.826  58.047
22949DT     BB249080  51.852  28.893  57.978
22949DT     BB349081  51.786  29.052  58.094
22949DT     SC149082  51.779  28.902  58.309
22949DT     SC249083  51.575  28.870  58.367
22949DT     SC349084  51.836  28.811  58.550
22950DA     BB149085  51.679  29.104  57.691
22950DA     BB249086  51.386  29.178  57.898
22950DA     BB349087  51.415  29.360  58.005
22950DA     SC149088  51.542  29.223  58.254
22950DA     SC249089  51.480  29.178  58.492
22950DA     SC349090  51.732  29.147  58.530
22950DA     SC449091  51.702  29.208  58.258
22951DG     BB149092  51.159  29.430  57.846
22951DG     BB249093  51.019  29.463  58.178
22951DG     BB349094  51.077  29.635  58.259
22951DG     SC149095  51.331  29.519  58.385
22951DG     SC249096  51.384  29.490  58.678
22951DG     SC349097  51.627  29.430  58.520
22951DG     SC449098  51.466  29.517  58.300
22952DG     BB149099  50.761  29.726  58.296
22952DG     BB249100  50.828  29.736  58.651
22952DG     BB349101  50.914  29.909  58.698
22952DG     SC149102  51.199  29.806  58.655
22952DG     SC249103  51.406  29.768  58.867
22952DG     SC349104  51.523  29.732  58.598
22952DG     SC449105  51.264  29.816  58.509
22953DT     BB149106  50.822  30.072  58.837
22953DT     BB249107  51.018  30.027  59.137
22953DT     BB349108  51.154  30.181  59.156
22953DT     SC149109  51.306  30.081  58.967
22953DT     SC249110  51.488  30.007  59.054
22953DT     SC349111  51.435  30.059  58.738
22954DG     BB149112  50.928  30.205  59.496
22954DG     BB249113  51.281  30.186  59.574
22954DG     BB349114  51.365  30.365  59.552
22954DG     SC149115  51.435  30.322  59.257
22954DG     SC249116  51.711  30.299  59.144
22954DG     SC349117  51.510  30.316  58.928
22954DG     SC449118  51.328  30.361  59.145
22955DC     BB149119  51.456  30.465  59.723
22955DC     BB249120  51.807  30.414  59.653
22955DC     BB349121  51.890  30.589  59.579
22955DC     SC149122  51.774  30.555  59.346
22955DC     SC249123  51.924  30.509  59.198
22955DC     SC349124  51.618  30.598  59.138
22956DC     BB149125  52.016  30.593  59.809
22956DC     BB249126  52.275  30.590  59.558
22956DC     BB349127  52.306  30.781  59.485
22956DC     SC149128  52.084  30.772  59.346
22956DC     SC249129  52.131  30.764  59.136
22956DC     SC349130  51.840  30.830  59.262
22957DA     BB149131  52.664  30.583  59.589
22957DA     BB249132  52.703  30.733  59.257
22957DA     BB349133  52.704  30.946  59.271
22957DA     SC149134  52.396  30.974  59.235
22957DA     SC249135  52.238  31.060  59.062
22957DA     SC349136  52.068  31.074  59.254
22957DA     SC449137  52.306  30.978  59.368
22958DT     BB149138  52.864  31.010  59.219
22958DT     BB249139  52.760  31.160  58.908
22958DT     BB349140  52.721  31.361  58.935
22958DT     SC149141  52.494  31.308  59.057
22958DT     SC249142  52.330  31.368  58.932
22958DT     SC349143  52.312  31.294  59.247
22959DG     BB149144  53.012  31.350  58.648
22959DG     BB249145  52.737  31.561  58.546
22959DG     BB349146  52.748  31.737  58.639
22959DG     SC149147  52.582  31.648  58.880
22959DG     SC249148  52.311  31.750  58.953
22959DG     SC349149  52.420  31.578  59.168
22959DG     SC449150  52.656  31.580  59.005
22960DT     BB149151  52.793  31.969  58.547
22960DT     BB249152  52.464  32.115  58.571
22960DT     BB349153  52.460  32.256  58.723
22960DT     SC149154  52.458  32.068  58.907
22960DT     SC249155  52.266  32.066  59.005
22960DT     SC349156  52.536  31.920  59.111
22961DA     BB149157  52.342  32.535  58.420
22961DA     BB249158  52.102  32.579  58.694
22961DA     BB349159  52.182  32.710  58.842
22961DA     SC149160  52.311  32.482  59.009
22961DA     SC249161  52.275  32.371  59.230
22961DA     SC349162  52.518  32.292  59.207
22961DA     SC449163  52.464  32.443  58.977
22962DT     BB149164  52.113  32.943  58.908
22962DT     BB249165  51.944  32.843  59.211
22962DT     BB349166  52.041  32.922  59.376
22962DT     SC149167  52.236  32.748  59.354
22962DT     SC249168  52.227  32.609  59.518
22962DT     SC349169  52.478  32.651  59.317
22963DT     BB149170  51.846  33.121  59.434
22963DT     BB249171  51.863  32.926  59.737
22963DT     BB349172  52.000  33.011  59.868
22963DT     SC149173  52.202  32.923  59.725
22963DT     SC249174  52.305  32.769  59.835
22963DT     SC349175  52.418  32.924  59.574
22964DG     BB149176  51.645  33.001  60.067
22964DG     BB249177  51.907  32.841  60.259
22964DG     BB349178  52.017  32.979  60.351
22964DG     SC149179  52.215  33.010  60.120
22964DG     SC249180  52.504  32.933  60.125
22964DG     SC349181  52.440  33.085  59.880
22964DG     SC449182  52.184  33.117  60.005
22965DT     BB149183  52.027  32.987  60.574
22965DT     BB249184  52.356  32.853  60.635
22965DT     BB349185  52.486  33.006  60.686
22965DT     SC149186  52.499  33.088  60.437
22965DT     SC249187  52.694  33.047  60.358
22965DT     SC349188  52.473  33.244  60.226
22966DG     BB149189  52.494  32.749  61.003
22966DG     BB249190  52.829  32.820  60.886
22966DG     BB349191  52.890  32.996  60.958
22966DG     SC149192  52.781  33.157  60.722
22966DG     SC249193  52.944  33.306  60.521
22966DG     SC349194  52.656  33.368  60.489
22966DG     SC449195  52.630  33.210  60.727
22967DA     BB149196  53.178  32.843  61.083
22967DA     BB249197  53.388  33.062  60.877
22967DA     BB349198  53.407  33.254  60.967
22967DA     SC149199  53.160  33.374  60.821
22967DA     SC249200  53.115  33.543  60.643
22967DA     SC349201  52.876  33.550  60.738
22967DA     SC449202  53.017  33.365  60.895
22968DT     BB149203  53.595  33.331  61.050
22968DT     BB249204  53.664  33.563  60.783
22968DT     BB349205  53.642  33.757  60.850
22968DT     SC149206  53.380  33.736  60.848
22968DT     SC249207  53.300  33.859  60.691
22968DT     SC349208  53.131  33.727  60.934
22969DT     BB149209  53.916  33.805  60.852
22969DT     BB249210  53.783  34.060  60.633
22969DT     BB349211  53.736  34.229  60.742
22969DT     SC149212  53.522  34.116  60.843
22969DT     SC249213  53.347  34.209  60.761
22969DT     SC349214  53.355  34.014  61.020
22970DA     BB149215  53.971  34.332  60.414
22970DA     BB249216  53.678  34.552  60.418
22970DA     BB349217  53.695  34.696  60.575
22970DA     SC149218  53.550  34.518  60.785
22970DA     SC249219  53.333  34.518  60.908
22970DA     SC349220  53.450  34.361  61.074
22970DA     SC449221  53.641  34.423  60.878
22971DA     BB149222  53.630  34.865  60.306
22971DA     BB249223  53.330  34.981  60.482
22971DA     BB349224  53.384  35.115  60.639
22971DA     SC149225  53.409  34.892  60.854
22971DA     SC249226  53.287  34.818  61.059
22971DA     SC349227  53.505  34.699  61.121
22971DA     SC449228  53.554  34.827  60.877
22972DA     BB149229  53.150  35.260  60.462
22972DA     BB249230  52.960  35.274  60.776
22972DA     BB349231  53.052  35.411  60.912
22972DA     SC149232  53.232  35.194  61.045
22972DA     SC249233  53.247  35.077  61.265
22972DA     SC349234  53.489  35.025  61.196
22972DA     SC449235  53.379  35.173  60.985
22973DT     BB149236  52.942  35.551  60.944
22973DT     BB249237  52.854  35.468  61.284
22973DT     BB349238  52.973  35.575  61.416
22973DT     SC149239  53.180  35.422  61.366
22973DT     SC249240  53.223  35.302  61.540
22973DT     SC349241  53.419  35.346  61.285
22974DA     BB149242  52.572  35.628  61.531
22974DA     BB249243  52.767  35.555  61.832
22974DA     BB349244  52.891  35.722  61.882
22974DA     SC149245  53.134  35.622  61.716
22974DA     SC249246  53.362  35.532  61.758
22974DA     SC349247  53.413  35.602  61.516
22974DA     SC449248  53.146  35.674  61.564
22975DA     BB149249  52.746  35.707  62.182
22975DA     BB249250  53.079  35.658  62.327
22975DA     BB349251  53.185  35.844  62.333
22975DA     SC149252  53.314  35.807  62.052
22975DA     SC249253  53.541  35.764  61.958
22975DA     SC349254  53.445  35.856  61.738
22975DA     SC449255  53.236  35.868  61.926
22976DA     BB149256  53.233  35.812  62.667
22976DA     BB249257  53.594  35.815  62.607
22976DA     BB349258  53.664  36.015  62.582
22976DA     SC149259  53.625  36.017  62.274
22976DA     SC249260  53.768  36.020  62.070
22976DA     SC349261  53.559  36.107  61.949
22976DA     SC449262  53.485  36.072  62.217
22977DG     BB149263  53.861  36.019  62.847
22977DG     BB249264  54.127  36.055  62.604
22977DG     BB349265  54.164  36.247  62.571
22977DG     SC149266  53.962  36.272  62.342
22977DG     SC249267  54.027  36.323  62.055
22977DG     SC349268  53.736  36.340  62.102
22977DG     SC449269  53.810  36.310  62.377
22978DG     BB149270  54.496  36.273  62.676
22978DG     BB249271  54.581  36.346  62.332
22978DG     BB349272  54.584  36.542  62.303
22978DG     SC149273  54.288  36.560  62.226
22978DG     SC249274  54.181  36.632  61.957
22978DG     SC349275  53.963  36.619  62.157
22978DG     SC449276  54.179  36.581  62.342
22979DA     BB149277  54.914  36.545  62.175
22979DA     BB249278  54.791  36.658  61.849
22979DA     BB349279  54.771  36.870  61.847
22979DA     SC149280  54.475  36.868  61.944
22979DA     SC249281  54.249  36.918  61.850
22979DA     SC349282  54.175  36.940  62.095
22979DA     SC449283  54.449  36.878  62.102
22980DA     BB149284  54.961  36.835  61.587
22980DA     BB249285  54.679  36.961  61.390
22980DA     BB349286  54.667  37.174  61.406
22980DA     SC149287  54.477  37.168  61.652
22980DA     SC249288  54.239  37.224  61.703
22980DA     SC349289  54.315  37.236  61.948
22980DA     SC449290  54.544  37.173  61.798
22981DA     BB149291  54.666  37.107  61.091
22981DA     BB249292  54.332  37.258  61.086
22981DA     BB349293  54.347  37.470  61.107
22981DA     SC149294  54.326  37.465  61.417
22981DA     SC249295  54.162  37.531  61.592
22981DA     SC349296  54.362  37.529  61.753
22981DA     SC449297  54.463  37.459  61.501
22982DT     BB149298  54.282  37.537  60.958
22982DT     BB249299  53.971  37.657  61.095
22982DT     BB349300  53.988  37.858  61.144
22982DT     SC149301  54.131  37.802  61.357
22982DT     SC249302  54.016  37.844  61.533
22982DT     SC349303  54.336  37.793  61.522
22983DA     BB149304  53.641  37.771  60.922
22983DA     BB249305  53.548  37.981  61.208
22983DA     BB349306  53.626  38.179  61.183
22983DA     SC149307  53.893  38.118  61.330
22983DA     SC249308  54.005  38.180  61.544
22983DA     SC349309  54.222  38.109  61.429
22983DA     SC449310  54.018  38.070  61.240
22984DG     BB149311  53.324  38.243  61.203
22984DG     BB249312  53.430  38.425  61.497
22984DG     BB349313  53.510  38.599  61.444
22984DG     SC149314  53.795  38.489  61.418
22984DG     SC249315  54.026  38.560  61.593
22984DG     SC349316  54.114  38.398  61.361
22984DG     SC449317  53.842  38.428  61.278
22985DT     BB149318  53.419  38.795  61.503
22985DT     BB249319  53.650  38.912  61.754
22985DT     BB349320  53.771  39.060  61.675
22985DT     SC149321  53.911  38.885  61.539
22985DT     SC249322  54.108  38.871  61.623
22985DT     SC349323  54.016  38.757  61.334
22986DA     BB149324  53.608  39.228  62.023
22986DA     BB249325  53.969  39.290  62.031
22986DA     BB349326  54.021  39.446  61.894
22986DA     SC149327  54.070  39.254  61.655
22986DA     SC249328  54.264  39.172  61.521
22986DA     SC349329  54.090  39.110  61.344
22986DA     SC449330  53.947  39.224  61.557
22987DA     BB149331  54.160  39.581  62.160
22987DA     BB249332  54.480  39.562  61.982
22987DA     BB349333  54.494  39.718  61.838
22987DA     SC149334  54.370  39.550  61.607
22987DA     SC249335  54.445  39.446  61.394
22987DA     SC349336  54.196  39.445  61.330
22987DA     SC449337  54.211  39.560  61.586
22988DG     BB149338  54.742  39.796  62.006
22988DG     BB249339  54.918  39.717  61.700
22988DG     BB349340  54.910  39.871  61.575
22988DG     SC149341  54.651  39.781  61.440
22988DG     SC249342  54.623  39.690  61.157
22988DG     SC349343  54.357  39.722  61.284
22988DG     SC449344  54.511  39.827  61.502
22989DT     BB149345  55.093  39.963  61.518
22989DT     BB249346  55.131  39.851  61.177
22989DT     BB349347  55.076  40.002  61.046
22989DT     SC149348  54.821  39.963  61.097
22989DT     SC249349  54.726  39.878  60.923
22989DT     SC349350  54.574  40.008  61.178
22990DT     BB149351  55.334  40.021  60.988
22990DT     BB249352  55.172  39.966  60.670
22990DT     BB349353  55.101  40.146  60.596
22990DT     SC149354  54.902  40.147  60.767
22990DT     SC249355  54.717  40.114  60.662
22990DT     SC349356  54.747  40.223  60.966
22991DG     BB149357  55.354  39.995  60.314
22991DG     BB249358  55.037  40.089  60.168
22991DG     BB349359  55.029  40.287  60.145
22991DG     SC149360  54.909  40.338  60.422
22991DG     SC249361  54.635  40.443  60.477
22991DG     SC349362  54.796  40.433  60.725
22991DG     SC449363  55.007  40.359  60.546
22992DT     BB149364  55.015  40.392  59.942
22992DT     BB249365  54.672  40.504  59.941
22992DT     BB349366  54.665  40.708  59.977
22992DT     SC149367  54.718  40.673  60.232
22992DT     SC249368  54.544  40.721  60.348
22992DT     SC349369  54.845  40.686  60.462
22993DA     BB149370  54.446  40.659  59.621
22993DA     BB249371  54.244  40.866  59.847
22993DA     BB349372  54.322  41.064  59.856
22993DA     SC149373  54.510  41.006  60.097
22993DA     SC249374  54.525  41.067  60.338
22993DA     SC349375  54.772  40.999  60.319
22993DA     SC449376  54.661  40.960  60.064
22994DT     BB149377  54.215  41.232  59.778
22994DT     BB249378  54.115  41.370  60.096
22994DT     BB349379  54.223  41.542  60.136
22994DT     SC149380  54.438  41.403  60.193
22994DT     SC249381  54.479  41.417  60.404
22994DT     SC349382  54.684  41.309  60.178
22995DT     BB149383  54.005  41.702  60.089
22995DT     BB249384  54.106  41.785  60.425
22995DT     BB349385  54.248  41.936  60.421
22995DT     SC149386  54.434  41.770  60.339
22995DT     SC249387  54.577  41.740  60.497
22995DT     SC349388  54.617  41.659  60.186
22996DT     BB149389  54.065  42.112  60.518
22996DT     BB249390  54.336  42.122  60.756
22996DT     BB349391  54.478  42.260  60.696
22996DT     SC149392  54.566  42.098  60.508
22996DT     SC249393  54.762  42.029  60.561
22996DT     SC349394  54.624  42.004  60.269
22997DA     BB149395  54.378  42.349  61.093
22997DA     BB249396  54.744  42.337  61.068
22997DA     BB349397  54.817  42.509  60.966
22997DA     SC149398  54.805  42.377  60.684
22997DA     SC249399  54.966  42.296  60.512
22997DA     SC349400  54.769  42.314  60.349
22997DA     SC449401  54.671  42.396  60.598
22998DA     BB149402  54.998  42.530  61.238
22998DA     BB249403  55.292  42.497  61.021
22998DA     BB349404  55.327  42.679  60.916
22998DA     SC149405  55.152  42.600  60.671
22998DA     SC249406  55.186  42.540  60.431
22998DA     SC349407  54.938  42.601  60.402
22998DA     SC449408  54.997  42.644  60.673
22999DA     BB149409  55.626  42.647  61.048
22999DA     BB249410  55.756  42.631  60.705
22999DA     BB349411  55.759  42.825  60.618
22999DA     SC149412  55.472  42.802  60.498
22999DA     SC249413  55.368  42.782  60.273
22999DA     SC349414  55.154  42.865  60.387
22999DA     SC449415  55.350  42.856  60.587
23000DA     BB149416  56.074  42.749  60.566
23000DA     BB249417  56.002  42.780  60.208
23000DA     BB349418  55.989  42.985  60.152
23000DA     SC149419  55.683  43.005  60.203
23000DA     SC249420  55.475  43.031  60.068
23000DA     SC349421  55.367  43.110  60.287
23000DA     SC449422  55.635  43.053  60.348
23001DC     BB149423  56.132  43.070  60.024
23001DC     BB249424  55.922  43.085  59.731
23001DC     BB349425  55.867  43.281  59.694
23001DC     SC149426  55.696  43.280  59.893
23001DC     SC249427  55.496  43.287  59.814
23001DC     SC349428  55.582  43.342  60.122
23002DA     BB149429  56.026  43.126  59.338
23002DA     BB249430  55.705  43.284  59.258
23002DA     BB349431  55.724  43.496  59.264
23002DA     SC149432  55.646  43.519  59.565
23002DA     SC249433  55.455  43.605  59.700
23002DA     SC349434  55.623  43.611  59.895
23002DA     SC449435  55.766  43.517  59.672
23003DT     BB149436  55.702  43.601  59.091
23003DT     BB249437  55.374  43.733  59.161
23003DT     BB349438  55.388  43.934  59.210
23003DT     SC149439  55.484  43.877  59.448
23003DT     SC249440  55.338  43.926  59.598
23003DT     SC349441  55.652  43.865  59.651
23004DA     BB149442  55.101  43.899  58.907
23004DA     BB249443  54.956  44.101  59.177
23004DA     BB349444  55.042  44.296  59.179
23004DA     SC149445  55.271  44.219  59.375
23004DA     SC249446  55.336  44.268  59.611
23004DA     SC349447  55.571  44.193  59.540
23004DA     SC449448  55.411  44.171  59.311
23005DT     BB149449  54.923  44.450  59.135
23005DT     BB249450  54.893  44.577  59.471
23005DT     BB349451  55.009  44.747  59.494
23005DT     SC149452  55.229  44.605  59.500
23005DT     SC249453  55.313  44.612  59.698
23005DT     SC349454  55.466  44.511  59.431
23006DT     BB149455  54.781  44.890  59.503
23006DT     BB249456  54.951  44.965  59.813
23006DT     BB349457  55.086  45.119  59.784
23006DT     SC149458  55.253  44.960  59.658
23006DT     SC249459  55.427  44.929  59.780
23006DT     SC349460  55.401  44.858  59.465
23007DA     BB149461  54.844  45.201  60.116
23007DA     BB249462  55.193  45.254  60.213
23007DA     BB349463  55.270  45.430  60.120
23007DA     SC149464  55.375  45.281  59.868
23007DA     SC249465  55.596  45.220  59.768
23007DA     SC349466  55.465  45.194  59.549
23007DA     SC449467  55.277  45.271  59.741
23008DA     BB149468  55.340  45.472  60.436
23008DA     BB249469  55.691  45.489  60.332
23008DA     BB349470  55.729  45.672  60.229
23008DA     SC149471  55.664  45.554  59.948
23008DA     SC249472  55.787  45.495  59.740
23008DA     SC349473  55.559  45.508  59.624
23008DA     SC449474  55.513  45.568  59.894
23009DC     BB149475  55.847  45.781  60.320
23009DC     BB249476  56.131  45.738  60.101
23009DC     BB349477  56.145  45.899  59.972
23009DC     SC149478  55.943  45.812  59.829
23009DC     SC249479  56.014  45.745  59.637
23009DC     SC349480  55.705  45.802  59.716
23010DA     BB149481  56.520  45.837  60.153
23010DA     BB249482  56.572  45.879  59.792
23010DA     BB349483  56.538  46.082  59.736
23010DA     SC149484  56.236  46.039  59.674
23010DA     SC249485  56.087  46.034  59.474
23010DA     SC349486  55.896  46.076  59.640
23010DA     SC449487  56.131  46.066  59.793
23011DA     BB149488  56.840  46.044  59.608
23011DA     BB249489  56.690  46.123  59.283
23011DA     BB349490  56.645  46.332  59.271
23011DA     SC149491  56.356  46.300  59.382
23011DA     SC249492  56.123  46.319  59.297
23011DA     SC349493  56.057  46.346  59.544
23011DA     SC449494  56.336  46.317  59.541
23012DA     BB149495  56.826  46.307  58.996
23012DA     BB249496  56.528  46.417  58.813
23012DA     BB349497  56.496  46.626  58.843
23012DA     SC149498  56.314  46.588  59.093
23012DA     SC249499  56.074  46.617  59.152
23012DA     SC349500  56.156  46.622  59.395
23012DA     SC449501  56.385  46.590  59.237
23013DT     BB149502  56.515  46.750  58.685
23013DT     BB249503  56.164  46.815  58.637
23013DT     BB349504  56.116  47.004  58.708
23013DT     SC149505  56.131  46.922  58.957
23013DT     SC249506  55.934  46.921  59.044
23013DT     SC349507  56.213  46.901  59.207
23014DA     BB149508  55.969  46.975  58.316
23014DA     BB249509  55.700  47.104  58.530
23014DA     BB349510  55.741  47.306  58.587
23014DA     SC149511  55.893  47.227  58.846
23014DA     SC249512  55.857  47.242  59.093
23014DA     SC349513  56.112  47.213  59.111
23014DA     SC449514  56.053  47.210  58.837
23015DC     BB149515  55.619  47.444  58.518
23015DC     BB249516  55.446  47.509  58.828
23015DC     BB349517  55.516  47.684  58.913
23015DC     SC149518  55.739  47.568  58.989
23015DC     SC249519  55.741  47.551  59.203
23015DC     SC349520  55.996  47.513  59.007
23016DT     BB149521  55.285  47.810  58.848
23016DT     BB249522  55.315  47.855  59.205
23016DT     BB349523  55.431  48.021  59.246
23016DT     SC149524  55.651  47.895  59.180
23016DT     SC249525  55.770  47.861  59.356
23016DT     SC349526  55.872  47.832  59.050
23017DA     BB149527  55.076  48.081  59.464
23017DA     BB249528  55.358  48.139  59.692
23017DA     BB349529  55.451  48.326  59.648
23017DA     SC149530  55.655  48.206  59.446
23017DA     SC249531  55.900  48.164  59.434
23017DA     SC349532  55.865  48.152  59.180
23017DA     SC449533  55.613  48.204  59.291
23018DT     BB149534  55.446  48.498  59.783
23018DT     BB249535  55.788  48.468  59.896
23018DT     BB349536  55.902  48.621  59.816
23018DT     SC149537  55.904  48.506  59.580
23018DT     SC249538  56.103  48.435  59.537
23018DT     SC349539  55.862  48.468  59.322
23019DA     BB149540  55.971  48.652  60.229
23019DA     BB249541  56.297  48.643  60.063
23019DA     BB349542  56.340  48.831  59.973
23019DA     SC149543  56.213  48.757  59.699
23019DA     SC249544  56.289  48.710  59.466
23019DA     SC349545  56.047  48.762  59.398
23019DA     SC449546  56.058  48.794  59.677
23020DT     BB149547  56.498  48.948  60.043
23020DT     BB249548  56.724  48.865  59.774
23020DT     BB349549  56.746  49.028  59.648
23020DT     SC149550  56.508  48.989  59.544
23020DT     SC249551  56.529  48.922  59.341
23020DT     SC349552  56.256  49.032  59.477
23021DA     BB149553  57.125  48.894  59.758
23021DA     BB249554  57.116  48.918  59.392
23021DA     BB349555  57.125  49.123  59.332
23021DA     SC149556  56.816  49.161  59.330
23021DA     SC249557  56.635  49.194  59.161
23021DA     SC349558  56.497  49.286  59.358
23021DA     SC449559  56.747  49.215  59.464
23022DA     BB149560  57.360  48.974  59.164
23022DA     BB249561  57.177  49.078  58.864
23022DA     BB349562  57.196  49.289  58.835
23022DA     SC149563  56.941  49.359  58.999
23022DA     SC249564  56.712  49.446  58.956
23022DA     SC349565  56.710  49.508  59.205
23022DA     SC449566  56.960  49.390  59.156
23023DT     BB149567  57.291  49.336  58.676
23023DT     BB249568  57.006  49.448  58.485
23023DT     BB349569  56.998  49.655  58.485
23023DT     SC149570  56.912  49.660  58.733
23023DT     SC249571  56.708  49.726  58.736
23023DT     SC349572  56.905  49.707  58.992
23024DT     BB149573  57.071  49.647  58.226
23024DT     BB249574  56.761  49.831  58.229
23024DT     BB349575  56.797  50.030  58.269
23024DT     SC149576  56.841  49.980  58.523
23024DT     SC249577  56.681  50.061  58.641
23024DT     SC349578  56.968  49.960  58.753
23025DT     BB149579  56.742  50.096  58.010
23025DT     BB249580  56.513  50.296  58.204
23025DT     BB349581  56.603  50.475  58.257
23025DT     SC149582  56.751  50.356  58.438
23025DT     SC249583  56.685  50.416  58.634
23025DT     SC349584  56.964  50.265  58.565
23026DA     BB149585  56.237  50.569  58.079
23026DA     BB249586  56.258  50.753  58.395
23026DA     BB349587  56.395  50.916  58.377
23026DA     SC149588  56.642  50.751  58.470
23026DA     SC249589  56.793  50.741  58.668
23026DA     SC349590  56.957  50.620  58.511
23026DA     SC449591  56.730  50.679  58.357
23027DA     BB149592  56.129  51.063  58.491
23027DA     BB249593  56.332  51.158  58.781
23027DA     BB349594  56.468  51.313  58.729
23027DA     SC149595  56.697  51.118  58.648
23027DA     SC249596  56.921  51.050  58.734
23027DA     SC349597  56.965  50.967  58.496
23027DA     SC449598  56.706  51.074  58.494
23028DA     BB149599  56.312  51.411  58.996
23028DA     BB249600  56.643  51.427  59.152
23028DA     BB349601  56.757  51.587  59.069
23028DA     SC149602  56.884  51.412  58.845
23028DA     SC249603  57.109  51.320  58.788
23028DA     SC349604  57.016  51.297  58.550
23028DA     SC449605  56.809  51.407  58.703
23029DT     BB149606  56.785  51.692  59.200
23029DT     BB249607  57.138  51.630  59.239
23029DT     BB349608  57.247  51.768  59.130
23029DT     SC149609  57.187  51.648  58.904
23029DT     SC249610  57.364  51.555  58.824
23029DT     SC349611  57.087  51.607  58.664
23030DT     BB149612  57.308  51.843  59.369
23030DT     BB249613  57.623  51.788  59.202
23030DT     BB349614  57.667  51.948  59.078
23030DT     SC149615  57.488  51.870  58.902
23030DT     SC249616  57.589  51.801  58.725
23030DT     SC349617  57.273  51.871  58.749
23031DG     BB149618  57.981  51.915  59.337
23031DG     BB249619  58.096  51.948  58.996
23031DG     BB349620  58.081  52.138  58.938
23031DG     SC149621  57.796  52.109  58.831
23031DG     SC249622  57.713  52.128  58.545
23031DG     SC349623  57.477  52.117  58.722
23031DG     SC449624  57.673  52.132  58.930
23032DT     BB149625  58.260  52.285  58.883
23032DT     BB249626  58.229  52.315  58.525
23032DT     BB349627  58.150  52.500  58.476
23032DT     SC149628  57.910  52.428  58.554
23032DT     SC249629  57.782  52.410  58.382
23032DT     SC349630  57.685  52.421  58.691
23033DA     BB149631  58.506  52.514  58.247
23033DA     BB249632  58.234  52.621  58.025
23033DA     BB349633  58.180  52.823  58.066
23033DA     SC149634  57.963  52.749  58.275
23033DA     SC249635  57.714  52.755  58.294
23033DA     SC349636  57.753  52.742  58.547
23033DA     SC449637  58.008  52.742  58.430
23034DA     BB149638  58.237  52.918  57.744
23034DA     BB249639  57.883  53.007  57.716
23034DA     BB349640  57.849  53.203  57.794
23034DA     SC149641  57.789  53.104  58.083
23034DA     SC249642  57.593  53.089  58.236
23034DA     SC349643  57.766  53.072  58.424
23034DA     SC449644  57.913  53.097  58.186
23035DA     BB149645  57.714  53.301  57.501
23035DA     BB249646  57.398  53.355  57.677
23035DA     BB349647  57.397  53.546  57.771
23035DA     SC149648  57.515  53.442  58.040
23035DA     SC249649  57.437  53.407  58.274
23035DA     SC349650  57.686  53.407  58.335
23035DA     SC449651  57.674  53.446  58.058
23036DT     BB149652  57.264  53.726  57.714
23036DT     BB249653  57.035  53.692  57.990
23036DT     BB349654  57.056  53.852  58.120
23036DT     SC149655  57.282  53.755  58.214
23036DT     SC249656  57.253  53.690  58.416
23036DT     SC349657  57.539  53.735  58.271
23037DC     BB149658  56.815  53.978  58.046
23037DC     BB249659  56.780  53.923  58.400
23037DC     BB349660  56.849  54.088  58.505
23037DC     SC149661  57.099  54.024  58.457
23037DC     SC249662  57.193  53.961  58.640
23037DC     SC349663  57.345  54.039  58.364
23038DC     BB149664  56.593  54.160  58.574
23038DC     BB249665  56.763  54.114  58.889
23038DC     BB349666  56.852  54.291  58.947
23038DC     SC149667  57.043  54.263  58.769
23038DC     SC249668  57.229  54.221  58.869
23038DC     SC349669  57.195  54.310  58.560
23039DA     BB149670  56.622  54.140  59.262
23039DA     BB249671  56.957  54.215  59.391
23039DA     BB349672  56.984  54.426  59.408
23039DA     SC149673  57.101  54.459  59.122
23039DA     SC249674  57.320  54.512  59.017
23039DA     SC349675  57.183  54.574  58.809
23039DA     SC449676  56.998  54.493  59.003
23040DA     BB149677  57.064  54.300  59.696
23040DA     BB249678  57.397  54.442  59.635
23040DA     BB349679  57.390  54.654  59.651
23040DA     SC149680  57.330  54.698  59.349
23040DA     SC249681  57.447  54.789  59.148
23040DA     SC349682  57.213  54.816  59.048
23040DA     SC449683  57.176  54.708  59.304
23041DG     BB149684  57.598  54.554  59.852
23041DG     BB249685  57.818  54.744  59.636
23041DG     BB349686  57.791  54.939  59.666
23041DG     SC149687  57.571  54.966  59.454
23041DG     SC249688  57.592  55.119  59.199
23041DG     SC349689  57.315  55.027  59.244
23041DG     SC449690  57.419  54.940  59.496
23042DG     BB149691  58.109  54.919  59.718
23042DG     BB249692  58.139  55.150  59.442
23042DG     BB349693  58.086  55.333  59.501
23042DG     SC149694  57.790  55.297  59.430
23042DG     SC249695  57.643  55.442  59.214
23042DG     SC349696  57.456  55.285  59.382
23042DG     SC449697  57.691  55.236  59.539
23043DC     BB149698  58.231  55.476  59.487
23043DC     BB249699  58.118  55.679  59.211
23043DC     BB349700  58.016  55.844  59.282
23043DC     SC149701  57.806  55.699  59.343
23043DC     SC249702  57.644  55.749  59.210
23043DC     SC349703  57.619  55.582  59.487
23044DT     BB149704  58.225  56.001  59.211
23044DT     BB249705  57.941  56.148  59.045
23044DT     BB349706  57.843  56.278  59.173
23044DT     SC149707  57.739  56.079  59.308
23044DT     SC249708  57.527  56.072  59.273
23044DT     SC349709  57.686  55.916  59.509
23045DG     BB149710  57.951  56.517  58.858
23045DG     BB249711  57.598  56.551  58.932
23045DG     BB349712  57.573  56.672  59.088
23045DG     SC149713  57.588  56.447  59.295
23045DG     SC249714  57.364  56.355  59.470
23045DG     SC349715  57.619  56.230  59.551
23045DG     SC449716  57.731  56.406  59.355
23046DA     BB149717  57.350  56.870  58.902
23046DA     BB249718  57.082  56.796  59.141
23046DA     BB349719  57.102  56.917  59.315
23046DA     SC149720  57.278  56.711  59.468
23046DA     SC249721  57.256  56.559  59.664
23046DA     SC349722  57.513  56.558  59.667
23046DA     SC449723  57.438  56.724  59.454
23047DA     BB149724  56.793  57.001  59.244
23047DA     BB249725  56.699  56.851  59.565
23047DA     BB349726  56.748  56.982  59.726
23047DA     SC149727  57.033  56.863  59.767
23047DA     SC249728  57.153  56.726  59.938
23047DA     SC349729  57.367  56.818  59.831
23047DA     SC449730  57.155  56.932  59.688
23048DA     BB149731  56.433  56.924  59.786
23048DA     BB249732  56.544  56.774  60.101
23048DA     BB349733  56.604  56.925  60.239
23048DA     SC149734  56.901  56.926  60.148
23048DA     SC249735  57.122  56.857  60.241
23048DA     SC349736  57.222  57.015  60.065
23048DA     SC449737  56.944  57.029  60.033
23049DT     BB149738  56.494  56.927  60.387
23049DT     BB249739  56.729  56.777  60.616
23049DT     BB349740  56.820  56.924  60.730
23049DT     SC149741  56.970  57.000  60.528
23049DT     SC249742  57.174  56.947  60.567
23049DT     SC349743  57.072  57.152  60.338
23050DT     BB149744  56.680  56.812  60.918
23050DT     BB249745  57.023  56.793  61.028
23050DT     BB349746  57.083  56.975  61.107
23050DT     SC149747  57.099  57.082  60.868
23050DT     SC249748  57.306  57.119  60.820
23050DT     SC349749  57.050  57.241  60.663
23051DA     BB149750  57.181  56.660  61.367
23051DA     BB249751  57.474  56.877  61.331
23051DA     BB349752  57.440  57.064  61.427
23051DA     SC149753  57.322  57.201  61.174
23051DA     SC249754  57.389  57.379  61.012
23051DA     SC349755  57.139  57.392  60.955
23051DA     SC449756  57.163  57.195  61.153
23052DA     BB149757  57.726  56.970  61.558
23052DA     BB249758  57.864  57.281  61.422
23052DA     BB349759  57.789  57.449  61.530
23052DA     SC149760  57.543  57.491  61.344
23052DA     SC249761  57.466  57.657  61.176
23052DA     SC349762  57.232  57.560  61.217
23052DA     SC449763  57.406  57.418  61.385
23053DG     BB149764  58.091  57.500  61.592
23053DG     BB249765  58.031  57.805  61.407
23053DG     BB349766  57.944  57.940  61.525
23053DG     SC149767  57.659  57.851  61.456
23053DG     SC249768  57.457  58.012  61.306
23053DG     SC349769  57.334  57.767  61.420
23053DG     SC449770  57.591  57.735  61.543
23054DC     BB149771  58.040  58.138  61.582
23054DC     BB249772  57.851  58.371  61.383
23054DC     BB349773  57.715  58.472  61.503
23054DC     SC149774  57.559  58.262  61.517
23054DC     SC249775  57.378  58.300  61.408
23054DC     SC349776  57.425  58.059  61.619
23055DA     BB149777  57.928  58.780  61.310
23055DA     BB249778  57.571  58.854  61.274
23055DA     BB349779  57.491  58.927  61.458
23055DA     SC149780  57.410  58.645  61.562
23055DA     SC249781  57.200  58.518  61.606
23055DA     SC349782  57.345  58.370  61.757
23055DA     SC449783  57.516  58.566  61.653
23056DT     BB149784  57.420  59.131  61.485
23056DT     BB249785  57.068  59.052  61.481
23056DT     BB349786  56.989  59.073  61.671
23056DT     SC149787  57.101  58.849  61.750
23056DT     SC249788  56.949  58.700  61.783
23056DT     SC349789  57.257  58.683  61.884
23057DA     BB149790  56.744  59.309  61.425
23057DA     BB249791  56.526  59.088  61.620
23057DA     BB349792  56.513  59.156  61.822
23057DA     SC149793  56.754  58.986  61.921
23057DA     SC249794  56.793  58.788  62.067
23057DA     SC349795  57.035  58.871  62.082
23057DA     SC449796  56.900  59.055  61.919
23058DA     BB149797  56.192  59.147  61.757
23058DA     BB249798  56.167  58.891  62.019
23058DA     BB349799  56.175  58.982  62.212
23058DA     SC149800  56.484  58.959  62.237
23058DA     SC249801  56.650  58.830  62.371
23058DA     SC349802  56.816  59.014  62.306
23058DA     SC449803  56.572  59.085  62.187
23059DA     BB149804  55.902  58.805  62.231
23059DA     BB249805  56.069  58.620  62.499
23059DA     BB349806  56.077  58.737  62.677
23059DA     SC149807  56.353  58.864  62.610
23059DA     SC249808  56.587  58.852  62.694
23059DA     SC349809  56.620  59.077  62.575
23059DA     SC449810  56.353  59.004  62.531
23060DA     BB149811  55.948  58.452  62.764
23060DA     BB249812  56.240  58.419  62.984
23060DA     BB349813  56.226  58.557  63.146
23060DA     SC149814  56.379  58.784  62.998
23060DA     SC249815  56.600  58.899  63.014
23060DA     SC349816  56.489  59.087  62.879
23060DA     SC449817  56.292  58.890  62.915
23061DA     BB149818  56.282  58.267  63.283
23061DA     BB249819  56.585  58.419  63.422
23061DA     BB349820  56.535  58.561  63.572
23061DA     SC149821  56.519  58.801  63.375
23061DA     SC249822  56.649  59.008  63.325
23061DA     SC349823  56.434  59.091  63.212
23061DA     SC449824  56.376  58.835  63.311
23062DA     BB149825  56.756  58.366  63.714
23062DA     BB249826  56.956  58.670  63.762
23062DA     BB349827  56.865  58.796  63.908
23062DA     SC149828  56.695  58.955  63.702
23062DA     SC249829  56.689  59.185  63.606
23062DA     SC349830  56.447  59.130  63.542
23062DA     SC449831  56.547  58.902  63.672
23063DT     BB149832  56.966  58.819  64.071
23063DT     BB249833  57.069  59.160  64.015
23063DT     BB349834  56.950  59.289  64.126
23063DT     SC149835  56.749  59.257  63.961
23063DT     SC249836  56.716  59.440  63.852
23063DT     SC349837  56.510  59.191  63.871
23064DC     BB149838  57.155  59.338  64.300
23064DC     BB249839  57.058  59.665  64.183
23064DC     BB349840  56.904  59.739  64.300
23064DC     SC149841  56.730  59.579  64.188
23064DC     SC249842  56.595  59.694  64.067
23064DC     SC349843  56.552  59.386  64.160
23065DG     BB149844  57.203  60.017  64.341
23065DG     BB249845  56.892  60.173  64.243
23065DG     BB349846  56.774  60.195  64.402
23065DG     SC149847  56.638  59.923  64.370
23065DG     SC249848  56.352  59.877  64.300
23065DG     SC349849  56.483  59.624  64.376
23065DG     SC449850  56.704  59.795  64.440
23066DT     BB149851  56.705  60.401  64.489
23066DT     BB249852  56.363  60.410  64.374
23066DT     BB349853  56.234  60.378  64.533
23066DT     SC149854  56.291  60.122  64.537
23066DT     SC249855  56.120  60.009  64.471
23066DT     SC349856  56.380  59.889  64.623
23067DG     BB149857  56.133  60.740  64.375
23067DG     BB249858  55.847  60.520  64.395
23067DG     BB349859  55.776  60.516  64.581
23067DG     SC149860  55.953  60.282  64.669
23067DG     SC249861  55.857  60.009  64.744
23067DG     SC349862  56.145  60.041  64.805
23067DG     SC449863  56.099  60.313  64.727
23068DG     BB149864  55.496  60.614  64.449
23068DG     BB249865  55.362  60.300  64.567
23068DG     BB349866  55.315  60.314  64.760
23068DG     SC149867  55.591  60.225  64.858
23068DG     SC249868  55.651  59.971  65.004
23068DG     SC349869  55.887  60.150  65.001
23068DG     SC449870  55.705  60.335  64.881
23069DA     BB149871  55.021  60.182  64.641
23069DA     BB249872  55.062  59.898  64.869
23069DA     BB349873  55.027  59.959  65.070
23069DA     SC149874  55.325  60.031  65.126
23069DA     SC249875  55.514  59.942  65.262
23069DA     SC349876  55.616  60.176  65.237
23069DA     SC449877  55.371  60.183  65.100
23070DA     BB149878  54.839  59.695  65.025
23070DA     BB249879  55.024  59.546  65.304
23070DA     BB349880  54.975  59.645  65.486
23070DA     SC149881  55.204  59.855  65.462
23070DA     SC249882  55.419  59.908  65.577
23070DA     SC349883  55.393  60.141  65.474
23070DA     SC449884  55.169  59.995  65.391
23071DA     BB149885  54.914  59.336  65.579
23071DA     BB249886  55.164  59.383  65.844
23071DA     BB349887  55.084  59.506  66.000
23071DA     SC149888  55.184  59.772  65.874
23071DA     SC249889  55.355  59.947  65.923
23071DA     SC349890  55.216  60.098  65.769
23071DA     SC449891  55.083  59.851  65.776
23072DA     BB149892  55.169  59.257  66.201
23072DA     BB249893  55.383  59.493  66.382
23072DA     BB349894  55.265  59.617  66.509
23072DA     SC149895  55.224  59.839  66.295
23072DA     SC249896  55.297  60.073  66.255
23072DA     SC349897  55.096  60.089  66.097
23072DA     SC449898  55.092  59.829  66.202
23073DG     BB149899  55.418  59.503  66.765
23073DG     BB249900  55.529  59.845  66.804
23073DG     BB349901  55.394  59.949  66.908
23073DG     SC149902  55.235  60.037  66.662
23073DG     SC249903  55.210  60.316  66.560
23073DG     SC349904  55.026  60.135  66.416
23073DG     SC449905  55.118  59.943  66.608
23074DA     BB149906  55.630  60.058  67.150
23074DA     BB249907  55.566  60.409  67.066
23074DA     BB349908  55.391  60.479  67.166
23074DA     SC149909  55.198  60.400  66.935
23074DA     SC249910  55.058  60.516  66.764
23074DA     SC349911  54.930  60.295  66.748
23074DA     SC449912  55.130  60.255  66.940
23075DA     BB149913  55.573  60.726  67.299
23075DA     BB249914  55.358  60.965  67.123
23075DA     BB349915  55.177  60.997  67.232
23075DA     SC149916  55.021  60.769  67.089
23075DA     SC249917  54.833  60.748  66.926
23075DA     SC349918  54.812  60.508  67.013
23075DA     SC449919  55.023  60.623  67.157
23076DA     BB149920  55.252  61.320  67.226
23076DA     BB249921  54.944  61.374  67.034
23076DA     BB349922  54.775  61.380  67.164
23076DA     SC149923  54.720  61.074  67.145
23076DA     SC249924  54.547  60.924  67.046
23076DA     SC349925  54.635  60.748  67.211
23076DA     SC449926  54.788  60.979  67.255
23077DT     BB149927  54.656  61.561  67.199
23077DT     BB249928  54.373  61.462  66.999
23077DT     BB349929  54.211  61.421  67.121
23077DT     SC149930  54.315  61.193  67.198
23077DT     SC249931  54.201  61.031  67.117
23077DT     SC349932  54.419  61.009  67.355
23078DA     BB149933  54.075  61.694  66.834
23078DA     BB249934  53.837  61.416  66.843
23078DA     BB349935  53.714  61.429  67.017
23078DA     SC149936  53.903  61.257  67.194
23078DA     SC249937  53.902  61.031  67.300
23078DA     SC349938  54.084  61.125  67.454
23078DA     SC449939  54.014  61.334  67.281
23079DA     BB149940  53.479  61.411  66.791
23079DA     BB249941  53.371  61.101  66.955
23079DA     BB349942  53.264  61.145  67.134
23079DA     SC149943  53.517  61.138  67.315
23079DA     SC249944  53.612  60.993  67.494
23079DA     SC349945  53.752  61.198  67.558
23079DA     SC449946  53.594  61.277  67.340
23080DG     BB149947  53.040  60.993  66.986
23080DG     BB249948  53.082  60.759  67.259
23080DG     BB349949  52.982  60.823  67.419
23080DG     SC149950  53.216  60.984  67.531
23080DG     SC249951  53.365  60.925  67.783
23080DG     SC349952  53.445  61.188  67.672
23080DG     SC449953  53.235  61.137  67.485
23081DG     BB149954  52.828  60.537  67.405
23081DG     BB249955  52.969  60.473  67.731
23081DG     BB349956  52.862  60.564  67.871
23081DG     SC149957  53.023  60.825  67.860
23081DG     SC249958  53.196  60.933  68.078
23081DG     SC349959  53.164  61.130  67.860
23081DG     SC449960  52.979  60.938  67.756
23082DT     BB149961  52.770  60.444  68.017
23082DT     BB249962  52.972  60.510  68.308
23082DT     BB349963  52.877  60.647  68.431
23082DT     SC149964  52.936  60.844  68.269
23082DT     SC249965  53.081  60.973  68.362
23082DT     SC349966  52.904  61.045  68.100
23083DT     BB149967  52.828  60.448  68.606
23083DT     BB249968  53.005  60.696  68.798
23083DT     BB349969  52.872  60.837  68.871
23083DT     SC149970  52.848  60.948  68.634
23083DT     SC249971  52.941  61.142  68.636
23083DT     SC349972  52.739  61.030  68.409
23084DT     BB149973  52.898  60.737  69.123
23084DT     BB249974  52.984  61.086  69.156
23084DT     BB349975  52.813  61.198  69.188
23084DT     SC149976  52.742  61.175  68.937
23084DT     SC249977  52.761  61.366  68.840
23084DT     SC349978  52.601  61.109  68.724
23085DT     BB149979  52.878  61.238  69.452
23085DT     BB249980  52.840  61.571  69.317
23085DT     BB349981  52.642  61.631  69.331
23085DT     SC149982  52.573  61.475  69.132
23085DT     SC249983  52.521  61.596  68.962
23085DT     SC349984  52.456  61.280  68.998
23086DT     BB149985  52.700  61.806  69.535
23086DT     BB249986  52.546  62.011  69.281
23086DT     BB349987  52.341  62.012  69.306
23086DT     SC149988  52.320  61.769  69.210
23086DT     SC249989  52.223  61.776  69.018
23086DT     SC349990  52.270  61.510  69.198
23087DT     BB149991  52.348  62.269  69.397
23087DT     BB249992  52.124  62.280  69.114
23087DT     BB349993  51.931  62.236  69.175
23087DT     SC149994  51.988  61.981  69.199
23087DT     SC249995  51.886  61.870  69.046
23087DT     SC349996  52.026  61.745  69.310
23088DA     BB149997  51.918  62.594  68.957
23088DA     BB249998  51.658  62.371  68.825
23088DA     BB349999  51.495  62.358  68.962
23088DA     SC150000  51.612  62.112  69.114
23088DA     SC250001  51.559  61.870  69.140
23088DA     SC350002  51.703  61.883  69.352
23088DA     SC450003  51.703  62.141  69.243
23089DT     BB150004  51.324  62.432  68.902
23089DT     BB250005  51.157  62.117  68.844
23089DT     BB350006  51.025  62.078  68.998
23089DT     SC150007  51.222  62.015  69.161
23089DT     SC250008  51.217  61.804  69.201
23089DT     SC350009  51.386  62.024  69.367
23090DT     BB150010  50.826  62.126  68.827
23090DT     BB250011  50.764  61.792  68.948
23090DT     BB350012  50.659  61.800  69.127
23090DT     SC150013  50.874  61.875  69.258
23090DT     SC250014  50.938  61.716  69.387
23090DT     SC350015  51.038  62.023  69.401
23091DT     BB150016  50.428  61.714  69.006
23091DT     BB250017  50.481  61.477  69.272
23091DT     BB350018  50.391  61.544  69.446
23091DT     SC150019  50.580  61.723  69.484
23091DT     SC250020  50.698  61.667  69.654
23091DT     SC350021  50.697  61.957  69.510
23092DT     BB150022  50.192  61.356  69.426
23092DT     BB250023  50.336  61.297  69.751
23092DT     BB350024  50.241  61.415  69.893
23092DT     SC150025  50.365  61.630  69.808
23092DT     SC250026  50.506  61.694  69.957
23092DT     SC350027  50.404  61.869  69.704
23093DA     BB150028  50.230  61.022  70.038
23093DA     BB250029  50.352  61.237  70.309
23093DA     BB350030  50.191  61.351  70.391
23093DA     SC150031  50.230  61.592  70.198
23093DA     SC250032  50.308  61.828  70.212
23093DA     SC350033  50.183  61.861  69.990
23093DA     SC450034  50.145  61.592  70.062
23094DC     BB150035  50.137  61.313  70.581
23094DC     BB250036  50.276  61.611  70.728
23094DC     BB350037  50.125  61.745  70.774
23094DC     SC150038  50.095  61.809  70.521
23094DC     SC250039  50.163  62.010  70.489
23094DC     SC350040  49.983  61.836  70.284
23095DG     BB150041  50.329  61.668  71.117
23095DG     BB250042  50.299  62.024  71.059
23095DG     BB350043  50.117  62.086  71.109
23095DG     SC150044  49.998  62.037  70.831
23095DG     SC250045  49.899  62.248  70.643
23095DG     SC350046  49.830  61.978  70.544
23095DG     SC450047  49.937  61.893  70.796
23096DA     BB150048  50.277  62.328  71.299
23096DA     BB250049  50.104  62.592  71.112
23096DA     BB350050  49.900  62.605  71.174
23096DA     SC150051  49.797  62.404  70.961
23096DA     SC250052  49.658  62.409  70.754
23096DA     SC350053  49.625  62.157  70.794
23096DA     SC450054  49.787  62.249  71.004
23097DA     BB150055  49.977  62.923  71.223
23097DA     BB250056  49.714  63.008  70.982
23097DA     BB350057  49.521  62.987  71.072
23097DA     SC150058  49.487  62.689  70.986
23097DA     SC250059  49.347  62.558  70.827
23097DA     SC350060  49.408  62.356  70.973
23097DA     SC450061  49.535  62.576  71.090
23098DT     BB150062  49.388  63.156  71.116
23098DT     BB250063  49.147  63.093  70.855
23098DT     BB350064  48.970  63.023  70.938
23098DT     SC150065  49.076  62.787  70.983
23098DT     SC250066  48.986  62.642  70.851
23098DT     SC350067  49.165  62.576  71.113
23099DT     BB150068  48.813  63.264  70.912
23099DT     BB250069  48.611  63.017  70.744
23099DT     BB350070  48.475  62.935  70.877
23099DT     SC150071  48.662  62.794  70.994
23099DT     SC250072  48.632  62.585  70.950
23099DT     SC350073  48.826  62.704  71.181
23100DG     BB150074  48.214  63.100  70.603
23100DG     BB250075  48.137  62.751  70.656
23100DG     BB350076  48.022  62.731  70.817
23100DG     SC150077  48.256  62.701  71.012
23100DG     SC250078  48.326  62.455  71.165
23100DG     SC350079  48.489  62.685  71.255
23100DG     SC450080  48.320  62.832  71.077
23101DT     BB150081  47.796  62.648  70.821
23101DT     BB250082  47.852  62.315  70.949
23101DT     BB350083  47.782  62.302  71.143
23101DT     SC150084  47.985  62.439  71.236
23101DT     SC250085  48.113  62.310  71.351
23101DT     SC350086  48.122  62.634  71.350
23102DA     BB150087  47.613  61.985  70.928
23102DA     BB250088  47.761  61.847  71.234
23102DA     BB350089  47.640  61.895  71.403
23102DA     SC150090  47.791  62.161  71.464
23102DA     SC250091  47.944  62.249  71.640
23102DA     SC350092  47.873  62.481  71.556
23102DA     SC450093  47.733  62.296  71.399
23103DT     BB150094  47.552  61.744  71.496
23103DT     BB250095  47.768  61.741  71.786
23103DT     BB350096  47.670  61.826  71.947
23103DT     SC150097  47.702  62.067  71.849
23103DT     SC250098  47.842  62.176  71.971
23103DT     SC350099  47.643  62.304  71.750
23104DT     BB150100  47.648  61.580  72.059
23104DT     BB250101  47.822  61.778  72.306
23104DT     BB350102  47.686  61.879  72.424
23104DT     SC150103  47.635  62.050  72.233
23104DT     SC250104  47.713  62.243  72.287
23104DT     SC350105  47.502  62.184  72.048
23105DA     BB150106  47.937  61.673  72.691
23105DA     BB250107  47.915  62.021  72.805
23105DA     BB350108  47.725  62.058  72.895
23105DA     SC150109  47.589  62.148  72.630
23105DA     SC250110  47.501  62.359  72.530
23105DA     SC350111  47.367  62.205  72.374
23105DA     SC450112  47.513  62.036  72.543
23106DA     BB150113  47.901  62.160  73.156
23106DA     BB250114  47.750  62.491  73.106
23106DA     BB350115  47.552  62.495  73.184
23106DA     SC150116  47.419  62.407  72.917
23106DA     SC250117  47.273  62.508  72.741
23106DA     SC350118  47.216  62.266  72.679
23106DA     SC450119  47.394  62.250  72.894
23107DT     BB150120  47.499  62.615  73.354
23107DT     BB250121  47.329  62.871  73.166
23107DT     BB350122  47.125  62.860  73.198
23107DT     SC150123  47.104  62.647  73.046
23107DT     SC250124  46.998  62.697  72.866
23107DT     SC350125  47.059  62.397  72.973
23108DT     BB150126  47.141  63.088  73.340
23108DT     BB250127  46.915  63.161  73.069
23108DT     BB350128  46.722  63.107  73.121
23108DT     SC150129  46.777  62.852  73.090
23108DT     SC250130  46.672  62.777  72.917
23108DT     SC350131  46.813  62.597  73.147
23109DT     BB150132  46.697  63.364  73.111
23109DT     BB250133  46.469  63.231  72.865
23109DT     BB350134  46.297  63.164  72.957
23109DT     SC150135  46.420  62.951  73.049
23109DT     SC250136  46.345  62.777  72.948
23109DT     SC350137  46.521  62.778  73.220
23110DA     BB150138  46.276  63.390  72.596
23110DA     BB250139  46.060  63.095  72.571
23110DA     BB350140  45.903  63.105  72.715
23110DA     SC150141  46.062  62.955  72.936
23110DA     SC250142  46.054  62.734  73.051
23110DA     SC350143  46.193  62.847  73.234
23110DA     SC450144  46.147  63.044  73.040
23111DT     BB150145  45.777  63.106  72.611
23111DT     BB250146  45.644  62.781  72.693
23111DT     BB350147  45.513  62.796  72.853
23111DT     SC150148  45.711  62.826  73.022
23111DT     SC250149  45.726  62.651  73.146
23111DT     SC350150  45.869  62.937  73.202
23112DG     BB150151  45.330  62.617  72.534
23112DG     BB250152  45.276  62.434  72.841
23112DG     BB350153  45.144  62.529  72.955
23112DG     SC150154  45.355  62.696  73.101
23112DG     SC250155  45.426  62.675  73.390
23112DG     SC350156  45.557  62.910  73.266
23112DG     SC450157  45.400  62.837  73.039
23113DA     BB150158  44.950  62.237  72.982
23113DA     BB250159  44.974  62.247  73.347
23113DA     BB350160  44.841  62.394  73.426
23113DA     SC150161  45.051  62.624  73.419
23113DA     SC250162  45.182  62.760  73.581
23113DA     SC350163  45.209  62.927  73.389
23113DA     SC450164  45.056  62.715  73.287
23114DT     BB150165  44.653  62.353  73.548
23114DT     BB250166  44.782  62.461  73.867
23114DT     BB350167  44.690  62.637  73.925
23114DT     SC150168  44.828  62.776  73.751
23114DT     SC250169  44.968  62.902  73.856
23114DT     SC350170  44.884  62.929  73.544
23115DA     BB150171  44.624  62.386  74.255
23115DA     BB250172  44.756  62.702  74.385
23115DA     BB350173  44.603  62.851  74.386
23115DA     SC150174  44.668  62.955  74.100
23115DA     SC250175  44.765  63.160  73.996
23115DA     SC350176  44.650  63.081  73.781
23115DA     SC450177  44.588  62.890  73.977
23116DC     BB150178  44.526  62.930  74.568
23116DC     BB250179  44.693  63.249  74.549
23116DC     BB350180  44.556  63.398  74.507
23116DC     SC150181  44.538  63.322  74.257
23116DC     SC250182  44.628  63.471  74.130
23116DC     SC350183  44.435  63.230  74.032
23117DT     BB150184  44.584  63.488  74.761
23117DT     BB250185  44.665  63.773  74.554
23117DT     BB350186  44.493  63.877  74.506
23117DT     SC150187  44.421  63.693  74.333
23117DT     SC250188  44.437  63.773  74.134
23117DT     SC350189  44.281  63.502  74.218
23118DG     BB150190  44.752  64.132  74.688
23118DG     BB250191  44.630  64.269  74.377
23118DG     BB350192  44.445  64.338  74.401
23118DG     SC150193  44.311  64.072  74.329
23118DG     SC250194  44.143  64.021  74.087
23118DG     SC350195  44.131  63.792  74.274
23118DG     SC450196  44.283  63.965  74.444
23119DA     BB150197  44.558  64.636  74.259
23119DA     BB250198  44.301  64.613  73.998
23119DA     BB350199  44.110  64.663  74.078
23119DA     SC150200  44.039  64.370  74.157
23119DA     SC250201  43.881  64.192  74.082
23119DA     SC350202  43.921  64.089  74.314
23119DA     SC450203  44.076  64.322  74.306
23120DA     BB150204  44.079  64.898  73.839
23120DA     BB250205  43.777  64.726  73.722
23120DA     BB350206  43.611  64.775  73.847
23120DA     SC150207  43.656  64.536  74.042
23120DA     SC250208  43.544  64.321  74.100
23120DA     SC350209  43.678  64.334  74.318
23120DA     SC450210  43.747  64.563  74.172
23121DA     BB150211  43.426  64.891  73.585
23121DA     BB250212  43.178  64.629  73.653
23121DA     BB350213  43.045  64.692  73.808
23121DA     SC150214  43.217  64.572  74.038
23121DA     SC250215  43.202  64.384  74.201
23121DA     SC350216  43.377  64.514  74.336
23121DA     SC450217  43.325  64.669  74.108
23122DA     BB150218  42.781  64.642  73.605
23122DA     BB250219  42.665  64.383  73.838
23122DA     BB350220  42.558  64.471  74.000
23122DA     SC150221  42.809  64.504  74.180
23122DA     SC250222  42.900  64.404  74.390
23122DA     SC350223  43.043  64.616  74.404
23122DA     SC450224  42.889  64.643  74.172
23123DG     BB150225  42.307  64.306  73.907
23123DG     BB250226  42.354  64.138  74.224
23123DG     BB350227  42.260  64.238  74.368
23123DG     SC150228  42.500  64.415  74.435
23123DG     SC250229  42.657  64.411  74.689
23123DG     SC350230  42.737  64.640  74.521
23123DG     SC450231  42.520  64.553  74.355
23124DA     BB150232  42.116  63.934  74.445
23124DA     BB250233  42.263  63.950  74.781
23124DA     BB350234  42.154  64.087  74.903
23124DA     SC150235  42.331  64.332  74.828
23124DA     SC250236  42.499  64.480  74.938
23124DA     SC350237  42.446  64.646  74.750
23124DA     SC450238  42.283  64.422  74.704
23125DG     BB150239  42.116  63.831  75.073
23125DG     BB250240  42.306  64.020  75.316
23125DG     BB350241  42.188  64.149  75.410
23125DG     SC150242  42.234  64.375  75.209
23125DG     SC250243  42.375  64.633  75.264
23125DG     SC350244  42.246  64.638  74.997
23125DG     SC450245  42.139  64.386  75.080
23126DT     BB150246  42.151  64.134  75.628
23126DT     BB250247  42.342  64.414  75.754
23126DT     BB350248  42.215  64.570  75.802
23126DT     SC150249  42.179  64.629  75.549
23126DT     SC250250  42.274  64.817  75.505
23126DT     SC350251  42.059  64.664  75.317
23127DA     BB150252  42.431  64.513  76.159
23127DA     BB250253  42.435  64.872  76.087
23127DA     BB350254  42.246  64.959  76.134
23127DA     SC150255  42.127  64.916  75.850
23127DA     SC250256  42.060  65.055  75.655
23127DA     SC350257  41.919  64.853  75.584
23127DA     SC450258  42.045  64.780  75.824
23128DG     BB150259  42.368  65.154  76.364
23128DG     BB250260  42.266  65.419  76.140
23128DG     BB350261  42.079  65.475  76.182
23128DG     SC150262  41.951  65.274  75.990
23128DG     SC250263  41.800  65.340  75.741
23128DG     SC350264  41.776  65.053  75.805
23128DG     SC450265  41.916  65.127  76.044
23129DT     BB150266  41.984  65.701  76.274
23129DT     BB250267  41.853  65.836  75.966
23129DT     BB350268  41.646  65.844  75.975
23129DT     SC150269  41.627  65.585  75.942
23129DT     SC250270  41.543  65.543  75.749
23129DT     SC350271  41.571  65.332  75.993
23130DT     BB150272  41.634  66.124  76.002
23130DT     BB250273  41.451  66.054  75.699
23130DT     BB350274  41.250  66.028  75.742
23130DT     SC150275  41.295  65.790  75.844
23130DT     SC250276  41.211  65.640  75.714
23130DT     SC350277  41.309  65.594  76.020
23131DA     BB150278  41.298  66.304  75.433
23131DA     BB250279  41.061  66.047  75.322
23131DA     BB350280  40.873  66.071  75.420
23131DA     SC150281  40.945  65.885  75.658
23131DA     SC250282  40.878  65.661  75.744
23131DA     SC350283  40.975  65.740  75.968
23131DA     SC450284  41.010  65.953  75.789
23132DG     BB150285  40.824  66.085  75.120
23132DG     BB250286  40.641  65.781  75.193
23132DG     BB350287  40.469  65.825  75.282
23132DG     SC150288  40.585  65.815  75.565
23132DG     SC250289  40.516  65.613  75.775
23132DG     SC350290  40.682  65.831  75.887
23132DG     SC450291  40.648  65.947  75.628
23133DC     BB150292  40.336  65.752  75.174
23133DC     BB250293  40.219  65.473  75.372
23133DC     BB350294  40.061  65.533  75.492
23133DC     SC150295  40.223  65.661  75.654
23133DC     SC250296  40.231  65.558  75.843
23133DC     SC350297  40.337  65.859  75.786
23134DA     BB150298  40.001  65.169  75.286
23134DA     BB250299  39.897  65.128  75.635
23134DA     BB350300  39.726  65.248  75.676
23134DA     SC150301  39.891  65.496  75.767
23134DA     SC250302  39.938  65.619  75.979
23134DA     SC350303  40.006  65.814  75.826
23134DA     SC450304  39.928  65.606  75.655
23135DC     BB150305  39.590  65.141  75.716
23135DC     BB250306  39.562  65.220  76.066
23135DC     BB350307  39.420  65.368  76.094
23135DC     SC150308  39.582  65.553  76.002
23135DC     SC250309  39.642  65.682  76.163
23135DC     SC350310  39.681  65.742  75.847
23136DG     BB150311  39.300  65.049  76.320
23136DG     BB250312  39.290  65.356  76.511
23136DG     BB350313  39.131  65.463  76.460
23136DG     SC150314  39.274  65.615  76.236
23136DG     SC250315  39.335  65.908  76.234
23136DG     SC350316  39.394  65.786  75.971
23136DG     SC450317  39.276  65.553  76.089
23137DA     BB150318  39.006  65.494  76.795
23137DA     BB250319  39.015  65.860  76.775
23137DA     BB350320  38.845  65.933  76.668
23137DA     SC150321  38.986  65.926  76.390
23137DA     SC250322  39.071  66.090  76.222
23137DA     SC350323  39.059  65.894  76.056
23137DA     SC450324  38.970  65.792  76.302
23138DC     BB150325  38.638  66.059  76.743
23138DC     BB250326  38.730  66.377  76.600
23138DC     BB350327  38.600  66.426  76.446
23138DC     SC150328  38.712  66.251  76.286
23138DC     SC250329  38.818  66.355  76.130
23138DC     SC350330  38.742  66.040  76.130
23139DC     BB150331  38.395  66.636  76.559
23139DC     BB250332  38.529  66.806  76.270
23139DC     BB350333  38.399  66.786  76.110
23139DC     SC150334  38.469  66.536  76.073
23139DC     SC250335  38.580  66.520  75.890
23139DC     SC350336  38.452  66.273  76.058
23140DC     BB150337  38.251  67.059  76.085
23140DC     BB250338  38.409  67.018  75.763
23140DC     BB350339  38.271  66.947  75.625
23140DC     SC150340  38.281  66.706  75.730
23140DC     SC250341  38.378  66.572  75.592
23140DC     SC350342  38.203  66.485  75.851
23141DC     BB150343  38.232  67.190  75.472
23141DC     BB250344  38.364  66.954  75.233
23141DC     BB350345  38.209  66.863  75.131
23141DC     SC150346  38.148  66.714  75.338
23141DC     SC250347  38.199  66.509  75.296
23141DC     SC350348  38.011  66.613  75.540
23142DG     BB150349  38.466  67.042  74.873
23142DG     BB250350  38.428  66.689  74.803
23142DG     BB350351  38.257  66.656  74.707
23142DG     SC150352  38.093  66.616  74.962
23142DG     SC250353  37.965  66.361  75.050
23142DG     SC350354  37.878  66.586  75.221
23142DG     SC450355  38.026  66.743  75.032
23143DG     BB150356  38.470  66.524  74.508
23143DG     BB250357  38.294  66.215  74.576
23143DG     BB350358  38.123  66.210  74.475
23143DG     SC150359  37.960  66.344  74.697
23143DG     SC250360  37.742  66.215  74.856
23143DG     SC350361  37.755  66.506  74.910
23143DG     SC450362  37.950  66.504  74.700
23144DA     BB150363  38.257  65.903  74.400
23144DA     BB250364  37.954  65.746  74.533
23144DA     BB350365  37.788  65.783  74.404
23144DA     SC150366  37.702  66.044  74.550
23144DA     SC250367  37.514  66.122  74.694
23144DA     SC350368  37.587  66.359  74.626
23144DA     SC450369  37.762  66.183  74.495
23145DT     BB150370  37.720  65.627  74.323
23145DT     BB250371  37.414  65.605  74.512
23145DT     BB350372  37.256  65.680  74.401
23145DT     SC150373  37.336  65.927  74.440
23145DT     SC250374  37.196  66.028  74.569
23145DT     SC350375  37.425  66.170  74.389
23146DT     BB150376  37.159  65.428  74.362
23146DT     BB250377  36.884  65.609  74.510
23146DT     BB350378  36.774  65.703  74.362
23146DT     SC150379  36.958  65.886  74.331
23146DT     SC250380  36.885  66.075  74.403
23146DT     SC350381  37.147  66.032  74.217
23147DC     BB150382  36.564  65.524  74.385
23147DC     BB250383  36.412  65.846  74.441
23147DC     BB350384  36.349  65.927  74.261
23147DC     SC150385  36.596  65.986  74.193
23147DC     SC250386  36.622  66.199  74.195
23147DC     SC350387  36.824  65.985  74.059
23148DA     BB150388  36.025  65.939  74.524
23148DA     BB250389  36.063  66.273  74.377
23148DA     BB350390  35.996  66.272  74.174
23148DA     SC150391  36.275  66.202  74.057
23148DA     SC250392  36.452  66.314  73.921
23148DA     SC350393  36.533  66.076  73.868
23148DA     SC450394  36.309  66.046  74.034
23149DA     BB150395  35.838  66.519  74.313
23149DA     BB250396  36.007  66.733  74.068
23149DA     BB350397  35.925  66.701  73.873
23149DA     SC150398  36.127  66.477  73.798
23149DA     SC250399  36.320  66.446  73.643
23149DA     SC350400  36.277  66.195  73.672
23149DA     SC450401  36.084  66.325  73.829
23150DA     BB150402  35.934  67.021  73.937
23150DA     BB250403  36.141  67.046  73.636
23150DA     BB350404  36.026  66.997  73.462
23150DA     SC150405  36.096  66.694  73.471
23150DA     SC250406  36.230  66.532  73.338
23150DA     SC350407  36.087  66.351  73.451
23150DA     SC450408  35.995  66.597  73.551
23151DT     BB150409  36.022  67.141  73.366
23151DT     BB250410  36.236  67.027  73.099
23151DT     BB350411  36.122  66.947  72.946
23151DT     SC150412  36.075  66.729  73.086
23151DT     SC250413  36.178  66.563  72.996
23151DT     SC350414  35.943  66.543  73.218
23152DT     BB150415  36.193  67.162  72.812
23152DT     BB250416  36.292  66.883  72.605
23152DT     BB350417  36.129  66.814  72.497
23152DT     SC150418  36.027  66.700  72.710
23152DT     SC250419  36.039  66.486  72.689
23152DT     SC350420  35.859  66.646  72.906
23153DA     BB150421  36.444  66.879  72.225
23153DA     BB250422  36.300  66.548  72.156
23153DA     BB350423  36.108  66.568  72.066
23153DA     SC150424  35.953  66.566  72.336
23153DA     SC250425  35.799  66.413  72.458
23153DA     SC350426  35.729  66.623  72.590
23153DA     SC450427  35.923  66.708  72.405
23154DT     BB150428  36.088  66.507  71.878
23154DT     BB250429  35.897  66.209  71.946
23154DT     BB350430  35.697  66.242  71.901
23154DT     SC150431  35.664  66.388  72.117
23154DT     SC250432  35.539  66.282  72.256
23154DT     SC350433  35.614  66.597  72.269
23155DC     BB150434  35.725  66.082  71.686
23155DC     BB250435  35.454  65.935  71.875
23155DC     BB350436  35.275  66.028  71.825
23155DC     SC150437  35.338  66.242  71.963
23155DC     SC250438  35.212  66.255  72.136
23155DC     SC350439  35.398  66.493  72.018
23156DA     BB150440  35.217  65.613  71.788
23156DA     BB250441  34.935  65.750  71.979
23156DA     BB350442  34.806  65.862  71.851
23156DA     SC150443  34.954  66.132  71.898
23156DA     SC250444  34.909  66.349  72.012
23156DA     SC350445  35.095  66.443  71.861
23156DA     SC450446  35.071  66.171  71.795
23157DT     BB150447  34.618  65.794  71.814
23157DT     BB250448  34.438  66.038  72.010
23157DT     BB350449  34.351  66.178  71.885
23157DT     SC150450  34.583  66.293  71.839
23157DT     SC250451  34.586  66.487  71.933
23157DT     SC350452  34.795  66.380  71.710
23158DA     BB150453  34.019  66.046  72.110
23158DA     BB250454  34.008  66.412  72.109
23158DA     BB350455  33.938  66.483  71.920
23158DA     SC150456  34.223  66.504  71.795
23158DA     SC250457  34.380  66.683  71.723
23158DA     SC350458  34.492  66.500  71.583
23158DA     SC450459  34.278  66.376  71.714
23159DA     BB150460  33.676  66.659  72.056
23159DA     BB250461  33.826  66.968  71.927
23159DA     BB350462  33.771  66.997  71.722
23159DA     SC150463  34.017  66.843  71.609
23159DA     SC250464  34.226  66.897  71.484
23159DA     SC350465  34.227  66.648  71.421
23159DA     SC450466  33.999  66.686  71.579
23160DG     BB150467  33.590  67.282  71.746
23160DG     BB250468  33.862  67.427  71.556
23160DG     BB350469  33.817  67.426  71.363
23160DG     SC150470  33.938  67.149  71.311
23160DG     SC250471  34.179  67.091  71.144
23160DG     SC350472  34.042  66.841  71.223
23160DG     SC450473  33.846  67.020  71.330
23161DA     BB150474  33.860  67.779  71.299
23161DA     BB250475  34.146  67.711  71.080
23161DA     BB350476  34.080  67.676  70.880
23161DA     SC150477  34.050  67.369  70.917
23161DA     SC250478  34.164  67.162  70.838
23161DA     SC350479  33.946  67.042  70.903
23161DA     SC450480  33.906  67.313  70.962
23162DT     BB150481  34.130  67.811  70.717
23162DT     BB250482  34.391  67.602  70.583
23162DT     BB350483  34.331  67.522  70.401
23162DT     SC150484  34.171  67.352  70.520
23162DT     SC250485  34.249  67.152  70.499
23162DT     SC350486  33.948  67.230  70.593
23163DC     BB150487  34.512  67.682  70.285
23163DC     BB250488  34.614  67.347  70.199
23163DC     BB350489  34.512  67.283  70.031
23163DC     SC150490  34.291  67.248  70.168
23163DC     SC250491  34.249  67.037  70.183
23163DC     SC350492  34.042  67.277  70.249
23164DA     BB150493  34.926  67.219  70.002
23164DA     BB250494  34.752  66.907  69.919
23164DA     BB350495  34.654  66.925  69.731
23164DA     SC150496  34.386  67.026  69.853
23164DA     SC250497  34.154  66.941  69.885
23164DA     SC350498  34.089  67.188  69.913
23164DA     SC450499  34.366  67.185  69.866
23165DA     BB150500  34.832  66.653  69.712
23165DA     BB250501  34.514  66.480  69.657
23165DA     BB350502  34.435  66.529  69.464
23165DA     SC150503  34.271  66.772  69.567
23165DA     SC250504  34.031  66.832  69.600
23165DA     SC350505  34.113  67.075  69.599
23165DA     SC450506  34.341  66.917  69.562
23166DT     BB150507  34.428  66.380  69.357
23166DT     BB250508  34.071  66.335  69.368
23166DT     BB350509  33.984  66.415  69.198
23166DT     SC150510  34.018  66.660  69.287
23166DT     SC250511  33.827  66.745  69.335
23166DT     SC350512  34.105  66.908  69.302
23167DT     BB150513  33.938  66.164  69.131
23167DT     BB250514  33.614  66.323  69.134
23167DT     BB350515  33.582  66.422  68.955
23167DT     SC150516  33.747  66.615  69.023
23167DT     SC250517  33.635  66.795  69.058
23167DT     SC350518  33.956  66.775  69.019
23168DG     BB150519  33.282  66.157  69.030
23168DG     BB250520  33.155  66.488  68.959
23168DG     BB350521  33.169  66.526  68.764
23168DG     SC150522  33.450  66.645  68.782
23168DG     SC250523  33.523  66.930  68.731
23168DG     SC350524  33.766  66.763  68.762
23168DG     SC450525  33.577  66.548  68.769
23169DA     BB150526  32.841  66.615  68.817
23169DA     BB250527  32.917  66.949  68.688
23169DA     BB350528  32.951  66.942  68.478
23169DA     SC150529  33.257  66.896  68.504
23169DA     SC250530  33.467  67.023  68.460
23169DA     SC350531  33.582  66.793  68.460
23169DA     SC450532  33.310  66.744  68.507
23170DT     BB150533  32.824  67.037  68.394
23170DT     BB250534  33.031  67.315  68.293
23170DT     BB350535  33.096  67.287  68.099
23170DT     SC150536  33.270  67.106  68.175
23170DT     SC250537  33.469  67.184  68.153
23170DT     SC350538  33.391  66.873  68.199
23171DC     BB150539  32.929  67.483  68.029
23171DC     BB250540  33.252  67.589  67.907
23171DC     BB350541  33.289  67.502  67.723
23171DC     SC150542  33.338  67.269  67.833
23171DC     SC250543  33.547  67.224  67.815
23171DC     SC350544  33.314  67.014  67.895
23172DG     BB150545  33.308  67.905  67.656
23172DG     BB250546  33.602  67.737  67.528
23172DG     BB350547  33.560  67.651  67.353
23172DG     SC150548  33.472  67.386  67.477
23172DG     SC250549  33.612  67.124  67.449
23172DG     SC350550  33.349  67.089  67.580
23172DG     SC450551  33.319  67.367  67.520
23173DA     BB150552  33.835  67.817  67.217
23173DA     BB250553  33.988  67.495  67.131
23173DA     BB350554  33.897  67.413  66.957
23173DA     SC150555  33.681  67.254  67.116
23173DA     SC250556  33.627  67.016  67.167
23173DA     SC350557  33.391  67.102  67.219
23173DA     SC450558  33.540  67.327  67.142
23174DA     BB150559  34.209  67.403  66.859
23174DA     BB250560  34.171  67.039  66.838
23174DA     BB350561  34.059  66.986  66.664
23174DA     SC150562  33.783  66.995  66.809
23174DA     SC250563  33.608  66.833  66.882
23174DA     SC350564  33.452  67.036  66.889
23174DA     SC450565  33.702  67.133  66.806
23175DT     BB150566  34.159  66.888  66.540
23175DT     BB250567  34.004  66.568  66.604
23175DT     BB350568  33.865  66.526  66.457
23175DT     SC150569  33.695  66.699  66.559
23175DT     SC250570  33.528  66.593  66.644
23175DT     SC350571  33.539  66.910  66.580
23176DG     BB150572  34.141  66.230  66.500
23176DG     BB250573  33.803  66.104  66.515
23176DG     BB350574  33.722  66.105  66.333
23176DG     SC150575  33.609  66.389  66.359
23176DG     SC250576  33.320  66.462  66.369
23176DG     SC350577  33.490  66.704  66.345
23176DG     SC450578  33.701  66.513  66.316
23177DG     BB150579  33.676  65.792  66.404
23177DG     BB250580  33.324  65.861  66.356
23177DG     BB350581  33.284  65.879  66.162
23177DG     SC150582  33.338  66.180  66.154
23177DG     SC250583  33.134  66.393  66.103
23177DG     SC350584  33.408  66.506  66.103
23177DG     SC450585  33.487  66.232  66.125
23178DT     BB150586  33.150  65.740  66.068
23178DT     BB250587  32.859  65.940  65.996
23178DT     BB350588  32.862  66.002  65.799
23178DT     SC150589  33.049  66.179  65.849
23178DT     SC250590  32.966  66.377  65.832
23178DT     SC350591  33.281  66.304  65.841
23179DC     BB150592  32.668  65.817  65.687
23179DC     BB250593  32.548  66.136  65.568
23179DC     BB350594  32.629  66.177  65.383
23179DC     SC150595  32.863  66.234  65.489
23179DC     SC250596  32.900  66.445  65.470
23179DC     SC350597  33.120  66.219  65.545
23180DA     BB150598  32.230  66.191  65.206
23180DA     BB250599  32.398  66.493  65.086
23180DA     BB350600  32.515  66.449  64.913
23180DA     SC150601  32.773  66.384  65.074
23180DA     SC250602  32.998  66.486  65.111
23180DA     SC350603  33.069  66.251  65.187
23180DA     SC450604  32.798  66.231  65.116
23181DT     BB150605  32.511  66.504  64.620
23181DT     BB250606  32.766  66.759  64.642
23181DT     BB350607  32.929  66.705  64.526
23181DT     SC150608  33.005  66.526  64.703
23181DT     SC250609  33.187  66.592  64.797
23181DT     SC350610  33.064  66.293  64.809
23182DC     BB150611  32.902  66.885  64.290
23182DC     BB250612  33.223  66.973  64.429
23182DC     BB350613  33.374  66.873  64.329
23182DC     SC150614  33.314  66.647  64.449
23182DC     SC250615  33.471  66.595  64.587
23182DC     SC350616  33.235  66.398  64.484
23183DT     BB150617  33.454  67.106  64.214
23183DT     BB250618  33.737  66.995  64.409
23183DT     BB350619  33.855  66.869  64.296
23183DT     SC150620  33.683  66.672  64.319
23183DT     SC250621  33.766  66.518  64.444
23183DT     SC350622  33.506  66.488  64.252
23184DT     BB150623  34.020  67.070  64.315
23184DT     BB250624  34.188  66.791  64.468
23184DT     BB350625  34.274  66.671  64.322
23184DT     SC150626  34.040  66.573  64.255
23184DT     SC250627  34.030  66.367  64.314
23184DT     SC350628  33.828  66.516  64.109
23185DT     BB150629  34.485  66.766  64.438
23185DT     BB250630  34.510  66.407  64.465
23185DT     BB350631  34.574  66.327  64.285
23185DT     SC150632  34.338  66.365  64.176
23185DT     SC250633  34.244  66.174  64.143
23185DT     SC350634  34.152  66.457  64.014
23186DG     BB150635  34.807  66.213  64.601
23186DG     BB250636  34.698  65.931  64.403
23186DG     BB350637  34.796  65.928  64.230
23186DG     SC150638  34.592  66.101  64.082
23186DG     SC250639  34.415  66.012  63.859
23186DG     SC350640  34.399  66.305  63.895
23186DG     SC450641  34.608  66.260  64.085
23187DT     BB150642  34.923  65.761  64.185
23187DT     BB250643  34.736  65.588  63.930
23187DT     BB350644  34.813  65.633  63.743
23187DT     SC150645  34.705  65.873  63.748
23187DT     SC250646  34.547  65.882  63.603
23187DT     SC350647  34.685  66.135  63.750
23188DA     BB150648  34.811  65.213  63.754
23188DA     BB250649  34.663  65.315  63.435
23188DA     BB350650  34.814  65.384  63.302
23188DA     SC150651  34.793  65.680  63.392
23188DA     SC250652  34.713  65.897  63.298
23188DA     SC350653  34.860  66.006  63.478
23188DA     SC450654  34.891  65.729  63.510
23189DT     BB150655  34.876  65.279  63.115
23189DT     BB250656  34.716  65.507  62.886
23189DT     BB350657  34.858  65.618  62.785
23189DT     SC150658  34.904  65.765  62.997
23189DT     SC250659  34.831  65.965  62.963
23189DT     SC350660  35.031  65.875  63.201
23190DT     BB150661  34.827  65.482  62.542
23190DT     BB250662  34.760  65.827  62.461
23190DT     BB350663  34.935  65.922  62.405
23190DT     SC150664  35.018  65.932  62.653
23190DT     SC250665  35.015  66.136  62.721
23190DT     SC350666  35.166  65.889  62.867
23191DT     BB150667  34.852  65.930  62.145
23191DT     BB250668  34.903  66.275  62.235
23191DT     BB350669  35.101  66.328  62.202
23191DT     SC150670  35.181  66.196  62.414
23191DT     SC250671  35.246  66.335  62.564
23191DT     SC350672  35.304  66.016  62.562
23192DA     BB150673  34.838  66.606  62.028
23192DA     BB250674  35.084  66.788  62.231
23192DA     BB350675  35.276  66.781  62.138
23192DA     SC150676  35.365  66.522  62.285
23192DA     SC250677  35.529  66.457  62.461
23192DA     SC350678  35.505  66.219  62.367
23192DA     SC450679  35.338  66.382  62.211
23193DA     BB150680  35.220  67.097  62.199
23193DA     BB250681  35.521  67.083  62.407
23193DA     BB350682  35.695  67.063  62.285
23193DA     SC150683  35.692  66.752  62.290
23193DA     SC250684  35.829  66.568  62.388
23193DA     SC350685  35.719  66.419  62.210
23193DA     SC450686  35.614  66.677  62.171
23194DT     BB150687  35.802  67.210  62.302
23194DT     BB250688  36.062  67.055  62.498
23194DT     BB350689  36.218  66.997  62.375
23194DT     SC150690  36.081  66.794  62.281
23194DT     SC250691  36.167  66.611  62.353
23194DT     SC350692  35.953  66.638  62.111
23195DA     BB150693  36.368  67.218  62.700
23195DA     BB250694  36.568  66.913  62.665
23195DA     BB350695  36.690  66.924  62.491
23195DA     SC150696  36.478  66.792  62.305
23195DA     SC250697  36.449  66.576  62.182
23195DA     SC350698  36.279  66.704  62.039
23195DA     SC450699  36.377  66.889  62.226
23196DA     BB150700  36.920  66.855  62.715
23196DA     BB250701  36.986  66.550  62.523
23196DA     BB350702  37.090  66.597  62.343
23196DA     SC150703  36.832  66.633  62.173
23196DA     SC250704  36.714  66.514  61.988
23196DA     SC350705  36.596  66.738  61.947
23196DA     SC450706  36.770  66.781  62.163
23197DA     BB150707  37.292  66.369  62.466
23197DA     BB250708  37.221  66.174  62.165
23197DA     BB350709  37.322  66.257  61.996
23197DA     SC150710  37.087  66.444  61.916
23197DA     SC250711  36.920  66.462  61.732
23197DA     SC350712  36.896  66.706  61.805
23197DA     SC450713  37.087  66.593  61.976
23198DA     BB150714  37.421  65.946  61.983
23198DA     BB250715  37.258  65.932  61.655
23198DA     BB350716  37.374  66.039  61.511
23198DA     SC150717  37.227  66.310  61.559
23198DA     SC250718  37.069  66.458  61.435
23198DA     SC350719  37.149  66.642  61.596
23198DA     SC450720  37.290  66.410  61.667
23199DT     BB150721  37.438  65.928  61.379
23199DT     BB250722  37.214  66.034  61.117
23199DT     BB350723  37.309  66.170  60.994
23199DT     SC150724  37.289  66.360  61.174
23199DT     SC250725  37.149  66.508  61.106
23199DT     SC350726  37.359  66.543  61.350
23200DT     BB150727  37.290  65.972  60.827
23200DT     BB250728  37.121  66.249  60.670
23200DT     BB350729  37.259  66.379  60.586
23200DT     SC150730  37.326  66.472  60.822
23200DT     SC250731  37.257  66.675  60.841
23200DT     SC350732  37.472  66.529  61.035
23201DT     BB150733  37.171  66.290  60.352
23201DT     BB250734  37.130  66.649  60.338
23201DT     BB350735  37.308  66.738  60.284
23201DT     SC150736  37.411  66.697  60.521
23201DT     SC250737  37.433  66.885  60.623
23201DT     SC350738  37.570  66.604  60.710
23202DA     BB150739  37.010  66.888  60.028
23202DA     BB250740  37.207  67.172  60.151
23202DA     BB350741  37.399  67.174  60.060
23202DA     SC150742  37.533  67.001  60.281
23202DA     SC250743  37.700  67.032  60.464
23202DA     SC350744  37.727  66.777  60.454
23202DA     SC450745  37.537  66.842  60.259
23203DC     BB150746  37.454  67.326  59.926
23203DC     BB250747  37.682  67.499  60.145
23203DC     BB350748  37.877  67.464  60.086
23203DC     SC150749  37.871  67.220  60.184
23203DC     SC250750  37.998  67.209  60.357
23203DC     SC350751  37.876  66.957  60.194
23204DT     BB150752  37.912  67.719  59.980
23204DT     BB250753  38.180  67.687  60.220
23204DT     BB350754  38.347  67.606  60.129
23204DT     SC150755  38.238  67.367  60.126
23204DT     SC250756  38.342  67.239  60.264
23204DT     SC350757  38.137  67.142  60.033
23205DA     BB150758  38.486  67.958  60.309
23205DA     BB250759  38.713  67.688  60.408
23205DA     BB350760  38.842  67.636  60.246
23205DA     SC150761  38.651  67.418  60.131
23205DA     SC250762  38.646  67.170  60.111
23205DA     SC350763  38.473  67.209  59.926
23205DA     SC450764  38.546  67.464  60.018
23206DA     BB150765  39.071  67.692  60.473
23206DA     BB250766  39.168  67.340  60.434
23206DA     BB350767  39.279  67.314  60.254
23206DA     SC150768  39.029  67.252  60.079
23206DA     SC250769  38.930  67.056  59.961
23206DA     SC350770  38.800  67.230  59.824
23206DA     SC450771  38.958  67.375  60.004
23207DT     BB150772  39.469  67.261  60.273
23207DT     BB250773  39.427  66.917  60.172
23207DT     BB350774  39.497  66.891  59.979
23207DT     SC150775  39.287  67.011  59.878
23207DT     SC250776  39.165  66.868  59.774
23207DT     SC350777  39.140  67.190  59.750
23208DT     BB150778  39.703  66.754  60.082
23208DT     BB250779  39.549  66.526  59.849
23208DT     BB350780  39.622  66.558  59.658
23208DT     SC150781  39.481  66.778  59.633
23208DT     SC250782  39.325  66.747  59.488
23208DT     SC350783  39.423  67.034  59.603
23209DA     BB150784  39.651  66.149  59.746
23209DA     BB250785  39.498  66.184  59.415
23209DA     BB350786  39.643  66.248  59.272
23209DA     SC150787  39.588  66.551  59.317
23209DA     SC250788  39.487  66.741  59.190
23209DA     SC350789  39.618  66.892  59.352
23209DA     SC450790  39.678  66.628  59.426
23210DT     BB150791  39.691  66.121  59.128
23210DT     BB250792  39.521  66.291  58.859
23210DT     BB350793  39.658  66.393  58.742
23210DT     SC150794  39.687  66.579  58.924
23210DT     SC250795  39.600  66.763  58.853
23210DT     SC350796  39.800  66.733  59.107
23211DA     BB150797  39.434  66.157  58.477
23211DA     BB250798  39.448  66.497  58.339
23211DA     BB350799  39.641  66.536  58.258
23211DA     SC150800  39.754  66.653  58.524
23211DA     SC250801  39.825  66.875  58.613
23211DA     SC350802  39.955  66.740  58.788
23211DA     SC450803  39.829  66.551  58.624
23212DG     BB150804  39.493  66.578  57.986
23212DG     BB250805  39.616  66.916  58.019
23212DG     BB350806  39.804  66.927  57.954
23212DG     SC150807  39.928  66.863  58.227
23212DG     SC250808  40.090  67.050  58.394
23212DG     SC350809  40.096  66.776  58.506
23212DG     SC450810  39.953  66.710  58.267
23213DT     BB150811  39.867  67.053  57.775
23213DT     BB250812  40.036  67.328  57.936
23213DT     BB350813  40.241  67.307  57.915
23213DT     SC150814  40.248  67.117  58.095
23213DT     SC250815  40.348  67.189  58.271
23213DT     SC350816  40.283  66.879  58.203
23214DT     BB150817  40.265  67.510  57.722
23214DT     BB250818  40.495  67.610  57.982
23214DT     BB350819  40.682  67.530  57.945
23214DT     SC150820  40.603  67.291  58.021
23214DT     SC250821  40.698  67.240  58.207
23214DT     SC350822  40.543  67.035  58.011
23215DA     BB150823  40.768  67.941  57.980
23215DA     BB250824  41.004  67.762  58.197
23215DA     BB350825  41.159  67.673  58.080
23215DA     SC150826  41.008  67.403  58.043
23215DA     SC250827  41.030  67.167  58.120
23215DA     SC350828  40.881  67.109  57.919
23215DA     SC450829  40.916  67.387  57.912
23216DT     BB150830  41.382  67.734  58.078
23216DT     BB250831  41.498  67.454  58.274
23216DT     BB350832  41.612  67.328  58.156
23216DT     SC150833  41.399  67.235  58.035
23216DT     SC250834  41.367  67.030  58.093
23216DT     SC350835  41.227  67.180  57.842
23217DA     BB150836  41.864  67.413  58.481
23217DA     BB250837  41.850  67.049  58.446
23217DA     BB350838  41.974  66.985  58.285
23217DA     SC150839  41.747  67.002  58.072
23217DA     SC250840  41.611  66.845  57.934
23217DA     SC350841  41.565  67.048  57.784
23217DA     SC450842  41.732  67.140  57.991
23218DT     BB150843  42.141  66.868  58.325
23218DT     BB250844  41.990  66.558  58.220
23218DT     BB350845  42.073  66.496  58.041
23218DT     SC150846  41.939  66.678  57.907
23218DT     SC250847  41.789  66.582  57.786
23218DT     SC350848  41.889  66.889  57.757
23219DT     BB150849  42.173  66.307  58.191
23219DT     BB250850  41.965  66.140  57.948
23219DT     BB350851  42.069  66.116  57.771
23219DT     SC150852  42.043  66.370  57.711
23219DT     SC250853  41.909  66.391  57.544
23219DT     SC350854  42.107  66.620  57.659
23220DT     BB150855  42.024  65.883  57.863
23220DT     BB250856  41.863  65.900  57.541
23220DT     BB350857  42.005  65.891  57.390
23220DT     SC150858  42.080  66.138  57.435
23220DT     SC250859  42.019  66.263  57.270
23220DT     SC350860  42.232  66.343  57.501
23221DT     BB150861  41.854  65.687  57.377
23221DT     BB250862  41.831  65.856  57.059
23221DT     BB350863  42.009  65.834  56.955
23221DT     SC150864  42.130  66.008  57.109
23221DT     SC250865  42.172  66.187  56.997
23221DT     SC350866  42.300  66.109  57.284
23222DC     BB150867  41.843  65.699  56.813
23222DC     BB250868  41.990  65.943  56.592
23222DC     BB350869  42.183  65.887  56.543
23222DC     SC150870  42.272  65.956  56.780
23222DC     SC250871  42.396  66.130  56.761
23222DC     SC350872  42.378  65.937  57.020
23223DT     BB150873  42.084  65.838  56.303
23223DT     BB250874  42.357  66.067  56.248
23223DT     BB350875  42.537  65.964  56.246
23223DT     SC150876  42.531  65.935  56.507
23223DT     SC250877  42.686  66.055  56.596
23223DT     SC350878  42.522  65.818  56.743
23224DA     BB150879  42.523  66.199  55.897
23224DA     BB250880  42.849  66.251  56.057
23224DA     BB350881  42.971  66.077  56.035
23224DA     SC150882  42.875  65.946  56.300
23224DA     SC250883  42.970  65.894  56.526
23224DA     SC350884  42.778  65.725  56.544
23224DA     SC450885  42.750  65.845  56.293
23225DG     BB150886  43.159  66.275  55.888
23225DG     BB250887  43.379  66.200  56.165
23225DG     BB350888  43.472  66.027  56.133
23225DG     SC150889  43.256  65.857  56.267
23225DG     SC250890  43.288  65.701  56.520
23225DG     SC350891  43.030  65.638  56.388
23225DG     SC450892  43.134  65.804  56.179
23226DT     BB150893  43.678  66.036  56.123
23226DT     BB250894  43.773  65.890  56.439
23226DT     BB350895  43.825  65.691  56.413
23226DT     SC150896  43.574  65.621  56.385
23226DT     SC250897  43.512  65.506  56.556
23226DT     SC350898  43.352  65.529  56.275
23227DA     BB150899  44.112  65.902  56.638
23227DA     BB250900  44.033  65.588  56.811
23227DA     BB350901  44.107  65.421  56.700
23227DA     SC150902  43.845  65.383  56.536
23227DA     SC250903  43.659  65.217  56.522
23227DA     SC350904  43.615  65.319  56.290
23227DA     SC450905  43.834  65.458  56.395
23228DT     BB150906  44.228  65.343  56.798
23228DT     BB250907  44.041  65.044  56.877
23228DT     BB350908  44.086  64.895  56.740
23228DT     SC150909  43.941  65.012  56.555
23228DT     SC250910  43.766  64.893  56.516
23228DT     SC350911  43.878  65.133  56.329
23229DA     BB150912  44.133  64.731  57.126
23229DA     BB250913  43.944  64.491  56.923
23229DA     BB350914  44.071  64.403  56.775
23229DA     SC150915  44.009  64.617  56.558
23229DA     SC250916  43.888  64.630  56.341
23229DA     SC350917  44.028  64.840  56.298
23229DA     SC450918  44.107  64.745  56.550
23230DA     BB150919  43.983  64.099  56.895
23230DA     BB250920  43.854  64.019  56.561
23230DA     BB350921  44.015  63.973  56.429
23230DA     SC150922  44.051  64.266  56.331
23230DA     SC250923  44.013  64.398  56.123
23230DA     SC350924  44.179  64.566  56.223
23230DA     SC450925  44.157  64.358  56.410
23231DT     BB150926  44.076  63.764  56.332
23231DT     BB250927  43.961  63.839  55.998
23231DT     BB350928  44.123  63.857  55.870
23231DT     SC150929  44.185  64.092  55.969
23231DT     SC250930  44.146  64.244  55.821
23231DT     SC350931  44.322  64.281  56.091
23232DA     BB150932  43.893  63.564  55.673
23232DA     BB250933  43.973  63.823  55.426
23232DA     BB350934  44.175  63.803  55.360
23232DA     SC150935  44.291  63.991  55.579
23232DA     SC250936  44.394  64.218  55.591
23232DA     SC350937  44.488  64.141  55.817
23232DA     SC450938  44.341  63.924  55.716
23233DA     BB150939  44.033  63.795  55.063
23233DA     BB250940  44.215  64.105  54.991
23233DA     BB350941  44.420  64.063  54.950
23233DA     SC150942  44.511  64.093  55.246
23233DA     SC250943  44.646  64.251  55.383
23233DA     SC350944  44.667  64.058  55.550
23233DA     SC450945  44.513  63.960  55.337
23234DC     BB150946  44.481  64.102  54.769
23234DC     BB250947  44.665  64.402  54.851
23234DC     BB350948  44.868  64.361  54.855
23234DC     SC150949  44.845  64.237  55.086
23234DC     SC250950  44.940  64.354  55.239
23234DC     SC350951  44.851  64.043  55.265
23235DG     BB150952  44.801  64.662  54.587
23235DG     BB250953  45.051  64.753  54.832
23235DG     BB350954  45.223  64.662  54.790
23235DG     SC150955  45.161  64.413  54.957
23235DG     SC250956  45.303  64.329  55.206
23235DG     SC350957  45.118  64.118  55.114
23235DG     SC450958  45.083  64.291  54.889
23236DT     BB150959  45.401  64.780  54.742
23236DT     BB250960  45.593  64.745  55.045
23236DT     BB350961  45.743  64.605  55.018
23236DT     SC150962  45.571  64.407  55.031
23236DT     SC250963  45.603  64.297  55.213
23236DT     SC350964  45.428  64.198  54.958
23237DA     BB150965  45.944  64.948  55.158
23237DA     BB250966  46.052  64.664  55.363
23237DA     BB350967  46.187  64.540  55.253
23237DA     SC150968  45.963  64.357  55.138
23237DA     SC250969  45.884  64.122  55.166
23237DA     SC350970  45.771  64.154  54.938
23237DA     SC450971  45.901  64.396  54.995
23238DT     BB150972  46.401  64.515  55.303
23238DT     BB250973  46.362  64.189  55.453
23238DT     BB350974  46.447  64.044  55.332
23238DT     SC150975  46.248  64.059  55.162
23238DT     SC250976  46.132  63.878  55.171
23238DT     SC350977  46.115  64.101  54.937
23239DT     BB150978  46.657  64.005  55.506
23239DT     BB250979  46.486  63.688  55.489
23239DT     BB350980  46.564  63.574  55.334
23239DT     SC150981  46.440  63.720  55.155
23239DT     SC250982  46.283  63.604  55.064
23239DT     SC350983  46.402  63.884  54.952
23240DA     BB150984  46.525  63.385  55.705
23240DA     BB250985  46.345  63.192  55.450
23240DA     BB350986  46.483  63.102  55.315
23240DA     SC150987  46.483  63.341  55.116
23240DA     SC250988  46.401  63.390  54.886
23240DA     SC350989  46.570  63.583  54.889
23240DA     SC450990  46.595  63.455  55.137
23241DG     BB150991  46.287  62.917  55.453
23241DG     BB250992  46.174  62.881  55.111
23241DG     BB350993  46.310  62.782  55.005
23241DG     SC150994  46.464  63.032  54.920
23241DG     SC250995  46.485  63.139  54.643
23241DG     SC350996  46.668  63.283  54.825
23241DG     SC450997  46.582  63.086  55.015
23242DC     BB150998  46.196  62.663  54.950
23242DC     BB250999  46.174  62.733  54.597
23242DC     BB351000  46.334  62.648  54.497
23242DC     SC151001  46.498  62.832  54.587
23242DC     SC251002  46.559  62.959  54.424
23242DC     SC351003  46.699  62.944  54.716
23243DA     BB151004  45.954  62.589  54.317
23243DA     BB251005  46.198  62.680  54.059
23243DA     BB351006  46.344  62.526  54.038
23243DA     SC151007  46.539  62.649  54.247
23243DA     SC251008  46.762  62.760  54.249
23243DA     SC351009  46.769  62.697  54.497
23243DA     SC451010  46.525  62.599  54.400
23244DC     BB151011  46.338  62.439  53.872
23244DC     BB251012  46.646  62.567  53.735
23244DC     BB351013  46.797  62.427  53.757
23244DC     SC151014  46.817  62.478  54.014
23244DC     SC251015  47.004  62.577  54.052
23244DC     SC351016  46.811  62.442  54.275
23245DA     BB151017  46.802  62.527  53.349
23245DA     BB251018  47.148  62.535  53.468
23245DA     BB351019  47.221  62.337  53.497
23245DA     SC151020  47.132  62.322  53.795
23245DA     SC251021  47.239  62.316  54.020
23245DA     SC351022  47.017  62.218  54.101
23245DA     SC451023  46.986  62.260  53.826
23246DT     BB151024  47.378  62.245  53.374
23246DT     BB251025  47.642  62.259  53.620
23246DT     BB351026  47.684  62.069  53.690
23246DT     SC151027  47.464  62.065  53.834
23246DT     SC251028  47.516  62.073  54.043
23246DT     SC351029  47.226  61.992  53.921
23247DA     BB151030  48.055  62.220  53.566
23247DA     BB251031  48.099  62.083  53.903
23247DA     BB351032  48.105  61.870  53.897
23247DA     SC151033  47.799  61.836  53.937
23247DA     SC251034  47.644  61.754  54.114
23247DA     SC351035  47.473  61.728  53.924
23247DA     SC451036  47.707  61.826  53.805
23248DT     BB151037  48.280  61.772  53.945
23248DT     BB251038  48.174  61.653  54.269
23248DT     BB351039  48.137  61.449  54.260
23248DT     SC151040  47.911  61.488  54.131
23248DT     SC251041  47.746  61.439  54.260
23248DT     SC351042  47.731  61.482  53.939
23249DT     BB151043  48.360  61.408  54.405
23249DT     BB251044  48.098  61.250  54.596
23249DT     BB351045  48.069  61.056  54.529
23249DT     SC151046  47.946  61.141  54.313
23249DT     SC251047  47.737  61.090  54.325
23249DT     SC351048  47.894  61.187  54.058
23250DC     BB151049  48.181  60.972  54.757
23250DC     BB251050  47.859  60.809  54.748
23250DC     BB351051  47.871  60.635  54.636
23250DC     SC151052  47.878  60.771  54.411
23250DC     SC251053  47.694  60.741  54.304
23250DC     SC351054  47.967  60.868  54.183
23251DT     BB151055  47.854  60.485  54.862
23251DT     BB251056  47.586  60.362  54.654
23251DT     BB351057  47.657  60.214  54.527
23251DT     SC151058  47.777  60.392  54.375
23251DT     SC251059  47.676  60.403  54.186
23251DT     SC351060  47.969  60.524  54.252
23252DA     BB151061  47.328  60.036  54.719
23252DA     BB251062  47.294  59.971  54.360
23252DA     BB351063  47.433  59.821  54.298
23252DA     SC151064  47.658  60.024  54.228
23252DA     SC251065  47.771  60.110  54.023
23252DA     SC351066  47.959  60.181  54.182
23252DA     SC451067  47.765  60.059  54.343
23253DA     BB151068  47.172  59.649  54.178
23253DA     BB251069  47.325  59.676  53.845
23253DA     BB351070  47.481  59.532  53.823
23253DA     SC151071  47.704  59.721  53.928
23253DA     SC251072  47.902  59.841  53.836
23253DA     SC351073  47.983  59.852  54.079
23253DA     SC451074  47.738  59.716  54.085
23254DA     BB151075  47.323  59.419  53.551
23254DA     BB251076  47.618  59.515  53.356
23254DA     BB351077  47.770  59.366  53.374
23254DA     SC151078  47.905  59.498  53.621
23254DA     SC251079  48.118  59.618  53.674
23254DA     SC351080  48.067  59.558  53.918
23254DA     SC451081  47.857  59.450  53.767
23255DT     BB151082  47.841  59.232  53.206
23255DT     BB251083  48.153  59.404  53.149
23255DT     BB351084  48.311  59.286  53.209
23255DT     SC151085  48.260  59.333  53.462
23255DT     SC251086  48.416  59.457  53.545
23255DT     SC351087  48.194  59.292  53.714
23256DT     BB151088  48.396  59.221  52.949
23256DT     BB251089  48.685  59.376  53.099
23256DT     BB351090  48.804  59.232  53.189
23256DT     SC151091  48.636  59.207  53.389
23256DT     SC251092  48.725  59.286  53.568
23256DT     SC351093  48.461  59.098  53.555
23257DA     BB151094  49.053  59.451  52.934
23257DA     BB251095  49.211  59.442  53.265
23257DA     BB351096  49.296  59.250  53.302
23257DA     SC151097  49.040  59.134  53.434
23257DA     SC251098  48.965  59.063  53.661
23257DA     SC351099  48.784  58.929  53.538
23257DA     SC451100  48.935  59.057  53.339
23258DT     BB151101  49.490  59.248  53.319
23258DT     BB251102  49.497  59.211  53.677
23258DT     BB351103  49.545  59.016  53.727
23258DT     SC151104  49.305  58.932  53.661
23258DT     SC251105  49.199  58.873  53.838
23258DT     SC351106  49.114  58.802  53.533
23259DT     BB151107  49.766  59.127  53.811
23259DT     BB251108  49.623  58.966  54.100
23259DT     BB351109  49.669  58.764  54.098
23259DT     SC151110  49.495  58.717  53.908
23259DT     SC251111  49.331  58.603  53.988
23259DT     SC351112  49.396  58.648  53.673
23260DG     BB151113  49.770  58.957  54.442
23260DG     BB251114  49.570  58.662  54.504
23260DG     BB351115  49.679  58.498  54.472
23260DG     SC151116  49.606  58.477  54.176
23260DG     SC251117  49.444  58.261  54.050
23260DG     SC351118  49.564  58.435  53.844
23260DG     SC451119  49.696  58.555  54.068
23261DA     BB151120  49.540  58.431  54.780
23261DA     BB251121  49.400  58.122  54.640
23261DA     BB351122  49.557  57.982  54.598
23261DA     SC151123  49.599  58.081  54.306
23261DA     SC251124  49.560  57.996  54.075
23261DA     SC351125  49.733  58.172  54.003
23261DA     SC451126  49.710  58.195  54.282
23262DA     BB151127  49.349  57.805  54.780
23262DA     BB251128  49.329  57.578  54.493
23262DA     BB351129  49.512  57.470  54.470
23262DA     SC151130  49.640  57.680  54.280
23262DA     SC251131  49.705  57.697  54.040
23262DA     SC351132  49.857  57.889  54.115
23262DA     SC451133  49.730  57.796  54.347
23263DA     BB151134  49.300  57.218  54.476
23263DA     BB251135  49.424  57.134  54.142
23263DA     BB351136  49.620  57.049  54.154
23263DA     SC151137  49.766  57.322  54.126
23263DA     SC251138  49.906  57.440  53.956
23263DA     SC351139  49.985  57.585  54.153
23263DA     SC451140  49.804  57.401  54.261
23264DT     BB151141  49.642  56.858  54.102
23264DT     BB251142  49.807  56.917  53.787
23264DT     BB351143  50.010  56.878  53.805
23264DT     SC151144  50.048  57.101  53.938
23264DT     SC251145  50.160  57.239  53.816
23264DT     SC351146  50.110  57.265  54.135
23265DT     BB151147  49.971  56.661  53.655
23265DT     BB251148  50.219  56.853  53.478
23265DT     BB351149  50.407  56.813  53.553
23265DT     SC151150  50.360  56.956  53.768
23265DT     SC251151  50.481  57.134  53.764
23265DT     SC351152  50.324  57.017  54.022
23266DG     BB151153  50.399  56.741  53.152
23266DG     BB251154  50.671  56.961  53.244
23266DG     BB351155  50.816  56.857  53.330
23266DG     SC151156  50.705  56.888  53.614
23266DG     SC251157  50.833  57.041  53.836
23266DG     SC351158  50.601  56.885  53.934
23266DG     SC451159  50.600  56.780  53.668
23267DT     BB151160  50.996  56.863  53.234
23267DT     BB251161  51.195  57.071  53.451
23267DT     BB351162  51.311  56.953  53.575
23267DT     SC151163  51.104  56.889  53.723
23267DT     SC251164  51.123  56.982  53.916
23267DT     SC351165  50.917  56.744  53.839
23268DT     BB151166  51.519  57.035  53.432
23268DT     BB251167  51.605  57.116  53.772
23268DT     BB351168  51.683  56.950  53.867
23268DT     SC151169  51.446  56.840  53.888
23268DT     SC251170  51.385  56.838  54.094
23268DT     SC351171  51.247  56.669  53.854
23269DA     BB151172  51.971  57.252  53.930
23269DA     BB251173  51.914  57.085  54.252
23269DA     BB351174  52.004  56.891  54.252
23269DA     SC151175  51.750  56.747  54.145
23269DA     SC251176  51.579  56.587  54.231
23269DA     SC351177  51.532  56.536  53.984
23269DA     SC451178  51.736  56.728  53.986
23270DC     BB151179  52.188  56.822  54.373
23270DC     BB251180  52.010  56.616  54.610
23270DC     BB351181  52.051  56.416  54.574
23270DC     SC151182  51.896  56.415  54.362
23270DC     SC251183  51.721  56.297  54.402
23270DC     SC351184  51.820  56.396  54.110
23271DG     BB151185  52.209  56.435  54.956
23271DG     BB251186  51.971  56.164  54.933
23271DG     BB351187  52.061  56.001  54.860
23271DG     SC151188  52.000  56.070  54.568
23271DG     SC251189  51.818  55.918  54.386
23271DG     SC351190  51.969  56.124  54.236
23271DG     SC451191  52.104  56.161  54.486
23272DA     BB151192  51.958  55.802  55.132
23272DA     BB251193  51.760  55.591  54.907
23272DA     BB351194  51.886  55.446  54.812
23272DA     SC151195  51.949  55.627  54.567
23272DA     SC251196  51.895  55.634  54.324
23272DA     SC351197  52.100  55.786  54.303
23272DA     SC451198  52.081  55.719  54.575
23273DC     BB151199  51.860  55.246  54.853
23273DC     BB251200  51.692  55.165  54.544
23273DC     BB351201  51.820  55.059  54.420
23273DC     SC151202  51.956  55.276  54.362
23273DC     SC251203  51.920  55.330  54.157
23273DC     SC351204  52.157  55.446  54.346
23274DC     BB151205  51.668  54.844  54.466
23274DC     BB251206  51.659  54.891  54.109
23274DC     BB351207  51.824  54.802  54.021
23274DC     SC151208  51.981  54.994  54.105
23274DC     SC251209  52.047  55.111  53.937
23274DC     SC351210  52.176  55.117  54.234
23275DT     BB151211  51.656  54.619  53.923
23275DT     BB251212  51.818  54.763  53.635
23275DT     BB351213  52.000  54.670  53.602
23275DT     SC151214  52.109  54.797  53.804
23275DT     SC251215  52.252  54.939  53.730
23275DT     SC351216  52.226  54.839  54.037
23276DT     BB151217  51.893  54.552  53.386
23276DT     BB251218  52.179  54.733  53.261
23276DT     BB351219  52.350  54.619  53.283
23276DT     SC151220  52.356  54.663  53.541
23276DT     SC251221  52.524  54.790  53.588
23276DT     SC351222  52.350  54.618  53.801
23277DT     BB151223  52.358  54.578  53.014
23277DT     BB251224  52.676  54.731  53.095
23277DT     BB351225  52.811  54.585  53.152
23277DT     SC151226  52.695  54.557  53.385
23277DT     SC251227  52.824  54.634  53.539
23277DT     SC351228  52.564  54.446  53.586
23278DA     BB151229  52.991  54.815  52.850
23278DA     BB251230  53.223  54.796  53.134
23278DA     BB351231  53.310  54.602  53.146
23278DA     SC151232  53.089  54.489  53.335
23278DA     SC251233  53.069  54.416  53.572
23278DA     SC351234  52.861  54.288  53.494
23278DA     SC451235  52.964  54.416  53.266
23279DG     BB151236  53.563  54.771  53.110
23279DG     BB251237  53.625  54.658  53.448
23279DG     BB351238  53.699  54.473  53.445
23279DG     SC151239  53.425  54.337  53.457
23279DG     SC251240  53.320  54.174  53.685
23279DG     SC351241  53.141  54.155  53.450
23279DG     SC451242  53.348  54.306  53.321
23280DA     BB151243  53.913  54.640  53.650
23280DA     BB251244  53.825  54.405  53.917
23280DA     BB351245  53.904  54.211  53.874
23280DA     SC151246  53.651  54.114  53.721
23280DA     SC251247  53.466  53.951  53.756
23280DA     SC351248  53.434  53.965  53.501
23280DA     SC451249  53.648  54.136  53.562
23281DA     BB151250  53.970  54.313  54.180
23281DA     BB251251  53.791  54.010  54.281
23281DA     BB351252  53.896  53.836  54.216
23281DA     SC151253  53.747  53.818  53.944
23281DA     SC251254  53.579  53.669  53.834
23281DA     SC351255  53.664  53.770  53.614
23281DA     SC451256  53.814  53.892  53.817
23282DC     BB151257  53.931  53.763  54.361
23282DC     BB251258  53.704  53.485  54.330
23282DC     BB351259  53.798  53.327  54.235
23282DC     SC151260  53.781  53.448  54.002
23282DC     SC251261  53.640  53.343  53.878
23282DC     SC351262  53.854  53.565  53.777
23283DT     BB151263  53.777  53.223  54.471
23283DT     BB251264  53.614  52.991  54.247
23283DT     BB351265  53.756  52.878  54.147
23283DT     SC151266  53.819  53.081  53.993
23283DT     SC251267  53.753  53.040  53.792
23283DT     SC351268  53.962  53.272  53.880
23284DG     BB151269  53.501  52.625  54.342
23284DG     BB251270  53.538  52.536  53.994
23284DG     BB351271  53.715  52.450  53.964
23284DG     SC151272  53.862  52.711  53.906
23284DG     SC251273  53.980  52.791  53.644
23284DG     SC351274  54.059  52.981  53.857
23284DG     SC451275  53.926  52.794  54.028
23285DA     BB151276  53.540  52.190  53.810
23285DA     BB251277  53.729  52.248  53.501
23285DA     BB351278  53.928  52.172  53.520
23285DA     SC151279  54.045  52.440  53.628
23285DA     SC251280  54.199  52.619  53.548
23285DA     SC351281  54.225  52.679  53.796
23285DA     SC451282  54.050  52.460  53.787
23286DA     BB151283  53.843  52.014  53.245
23286DA     BB251284  54.116  52.194  53.081
23286DA     BB351285  54.305  52.112  53.138
23286DA     SC151286  54.341  52.302  53.382
23286DA     SC251287  54.487  52.494  53.446
23286DA     SC351288  54.419  52.438  53.687
23286DA     SC451289  54.288  52.251  53.525
23287DA     BB151290  54.333  52.098  52.812
23287DA     BB251291  54.619  52.325  52.849
23287DA     BB351292  54.787  52.219  52.929
23287DA     SC151293  54.715  52.280  53.225
23287DA     SC251294  54.805  52.418  53.413
23287DA     SC351295  54.670  52.263  53.565
23287DA     SC451296  54.625  52.172  53.304
23288DA     BB151297  54.914  52.359  52.661
23288DA     BB251298  55.142  52.534  52.890
23288DA     BB351299  55.287  52.398  52.968
23288DA     SC151300  55.116  52.321  53.217
23288DA     SC251301  55.122  52.357  53.463
23288DA     SC351302  54.965  52.154  53.476
23288DA     SC451303  55.020  52.193  53.204
23289DT     BB151304  55.460  52.439  52.915
23289DT     BB251305  55.575  52.569  53.231
23289DT     BB351306  55.684  52.424  53.332
23289DT     SC151307  55.465  52.293  53.394
23289DT     SC251308  55.430  52.310  53.606
23289DT     SC351309  55.286  52.100  53.405
23290DT     BB151310  55.895  52.574  53.280
23290DT     BB251311  55.889  52.539  53.639
23290DT     BB351312  55.974  52.358  53.694
23290DT     SC151313  55.761  52.226  53.615
23290DT     SC251314  55.659  52.145  53.786
23290DT     SC351315  55.609  52.059  53.478
23291DG     BB151316  56.194  52.645  53.884
23291DG     BB251317  56.081  52.391  54.116
23291DG     BB351318  56.195  52.229  54.100
23291DG     SC151319  56.022  52.098  53.884
23291DG     SC251320  55.862  51.848  53.916
23291DG     SC351321  55.867  51.935  53.633
23291DG     SC451322  56.052  52.131  53.730
23292DC     BB151323  56.327  52.151  54.269
23292DC     BB251324  56.140  51.861  54.376
23292DC     BB351325  56.232  51.689  54.309
23292DC     SC151326  56.148  51.730  54.064
23292DC     SC251327  56.000  51.582  54.013
23292DC     SC351328  56.154  51.776  53.804
23293DC     BB151329  56.319  51.627  54.562
23293DC     BB251330  56.129  51.338  54.459
23293DC     BB351331  56.251  51.206  54.356
23293DC     SC151332  56.251  51.359  54.143
23293DC     SC251333  56.139  51.263  53.986
23293DC     SC351334  56.339  51.516  53.950
23294DT     BB151335  56.253  51.029  54.567
23294DT     BB251336  56.128  50.836  54.289
23294DT     BB351337  56.285  50.752  54.184
23294DT     SC151338  56.347  50.983  54.076
23294DT     SC251339  56.301  50.978  53.866
23294DT     SC351340  56.484  51.200  54.015
23295DG     BB151341  56.052  50.440  54.305
23295DG     BB251342  56.110  50.430  53.948
23295DG     BB351343  56.292  50.357  53.912
23295DG     SC151344  56.431  50.630  53.920
23295DG     SC251345  56.559  50.768  53.688
23295DG     SC351346  56.618  50.909  53.941
23295DG     SC451347  56.484  50.685  54.060
23296DT     BB151348  56.318  50.168  53.798
23296DT     BB251349  56.429  50.295  53.479
23296DT     BB351350  56.633  50.266  53.458
23296DT     SC151351  56.686  50.462  53.624
23296DT     SC251352  56.773  50.626  53.516
23296DT     SC351353  56.774  50.589  53.838
23297DT     BB151354  56.583  50.074  53.275
23297DT     BB251355  56.790  50.314  53.103
23297DT     BB351356  56.990  50.272  53.137
23297DT     SC151357  56.975  50.367  53.382
23297DT     SC251358  57.087  50.550  53.394
23297DT     SC351359  56.980  50.376  53.645
23298DG     BB151360  56.923  50.272  52.735
23298DG     BB251361  57.194  50.493  52.826
23298DG     BB351362  57.358  50.387  52.865
23298DG     SC151363  57.296  50.354  53.163
23298DG     SC251364  57.451  50.472  53.389
23298DG     SC351365  57.248  50.281  53.489
23298DG     SC451366  57.207  50.229  53.210
23299DC     BB151367  57.527  50.422  52.744
23299DC     BB251368  57.740  50.609  52.967
23299DC     BB351369  57.885  50.485  53.047
23299DC     SC151370  57.710  50.372  53.208
23299DC     SC251371  57.752  50.430  53.411
23299DC     SC351372  57.558  50.188  53.319
23300DA     BB151373  58.059  50.834  52.891
23300DA     BB251374  58.190  50.780  53.230
23300DA     BB351375  58.320  50.611  53.233
23300DA     SC151376  58.095  50.407  53.300
23300DA     SC251377  58.025  50.266  53.493
23300DA     SC351378  57.895  50.129  53.320
23300DA     SC451379  58.021  50.334  53.177
23301DT     BB151380  58.501  50.653  53.273
23301DT     BB251381  58.505  50.519  53.608
23301DT     BB351382  58.596  50.333  53.609
23301DT     SC151383  58.385  50.222  53.500
23301DT     SC251384  58.290  50.094  53.644
23301DT     SC351385  58.234  50.095  53.325
23302DT     BB151386  58.804  50.447  53.734
23302DT     BB251387  58.698  50.179  53.952
23302DT     BB351388  58.784  50.001  53.892
23302DT     SC151389  58.620  49.982  53.687
23302DT     SC251390  58.483  49.820  53.720
23302DT     SC351391  58.535  49.971  53.438
23303DA     BB151392  58.860  50.048  54.302
23303DA     BB251393  58.728  49.710  54.249
23303DA     BB351394  58.874  49.588  54.153
23303DA     SC151395  58.779  49.657  53.865
23303DA     SC251396  58.664  49.542  53.676
23303DA     SC351397  58.763  49.728  53.530
23303DA     SC451398  58.851  49.780  53.791
23304DG     BB151399  58.840  49.421  54.412
23304DG     BB251400  58.712  49.175  54.179
23304DG     BB351401  58.863  49.081  54.090
23304DG     SC151402  58.883  49.280  53.858
23304DG     SC251403  58.821  49.222  53.572
23304DG     SC351404  58.946  49.489  53.601
23304DG     SC451405  58.976  49.409  53.875
23305DA     BB151406  58.694  48.797  54.189
23305DA     BB251407  58.668  48.694  53.838
23305DA     BB351408  58.856  48.624  53.767
23305DA     SC151409  58.948  48.904  53.665
23305DA     SC251410  58.989  49.016  53.447
23305DA     SC351411  59.131  49.182  53.582
23305DA     SC451412  59.033  48.995  53.767
23306DA     BB151413  58.654  48.380  53.690
23306DA     BB251414  58.750  48.441  53.342
23306DA     BB351415  58.950  48.376  53.308
23306DA     SC151416  59.077  48.651  53.379
23306DA     SC251417  59.194  48.837  53.260
23306DA     SC351418  59.283  48.902  53.491
23306DA     SC451419  59.123  48.675  53.531
23307DG     BB151420  58.796  48.205  53.103
23307DG     BB251421  58.995  48.396  52.868
23307DG     BB351422  59.181  48.325  52.863
23307DG     SC151423  59.283  48.506  53.087
23307DG     SC251424  59.483  48.726  53.057
23307DG     SC351425  59.424  48.676  53.342
23307DG     SC451426  59.272  48.457  53.239
23308DA     BB151427  59.128  48.321  52.520
23308DA     BB251428  59.419  48.540  52.476
23308DA     BB351429  59.600  48.431  52.511
23308DA     SC151430  59.610  48.498  52.815
23308DA     SC251431  59.750  48.636  52.968
23308DA     SC351432  59.655  48.488  53.155
23308DA     SC451433  59.542  48.394  52.916
23309DG     BB151434  59.664  48.510  52.216
23309DG     BB251435  59.938  48.688  52.371
23309DG     BB351436  60.087  48.562  52.411
23309DG     SC151437  59.985  48.491  52.690
23309DG     SC251438  60.118  48.560  52.949
23309DG     SC351439  59.891  48.376  52.993
23309DG     SC451440  59.881  48.370  52.707
23310DG     BB151441  60.302  48.733  52.221
23310DG     BB251442  60.492  48.790  52.523
23310DG     BB351443  60.611  48.635  52.559
23310DG     SC151444  60.404  48.483  52.726
23310DG     SC251445  60.423  48.425  53.018
23310DG     SC351446  60.196  48.280  52.896
23310DG     SC451447  60.302  48.384  52.652
23311DA     BB151448  60.908  48.830  52.579
23311DA     BB251449  60.965  48.724  52.925
23311DA     BB351450  61.061  48.534  52.930
23311DA     SC151451  60.796  48.372  52.937
23311DA     SC251452  60.670  48.231  53.099
23311DA     SC351453  60.551  48.135  52.893
23311DA     SC451454  60.735  48.324  52.796
23312DA     BB151455  61.295  48.679  53.116
23312DA     BB251456  61.202  48.450  53.387
23312DA     BB351457  61.293  48.260  53.358
23312DA     SC151458  61.056  48.143  53.195
23312DA     SC251459  60.878  47.971  53.225
23312DA     SC351460  60.861  47.973  52.969
23312DA     SC451461  61.062  48.157  53.035
23313DA     BB151462  61.398  48.319  53.662
23313DA     BB251463  61.212  48.020  53.765
23313DA     BB351464  61.318  47.843  53.709
23313DA     SC151465  61.181  47.819  53.431
23313DA     SC251466  61.018  47.668  53.318
23313DA     SC351467  61.112  47.762  53.099
23313DA     SC451468  61.254  47.888  53.306
23314DA     BB151469  61.266  47.790  54.026
23314DA     BB251470  61.081  47.490  53.925
23314DA     BB351471  61.216  47.338  53.861
23314DA     SC151472  61.212  47.426  53.562
23314DA     SC251473  61.126  47.340  53.345
23314DA     SC351474  61.296  47.499  53.237
23314DA     SC451475  61.325  47.530  53.514
23315DA     BB151476  61.037  47.177  54.082
23315DA     BB251477  60.946  46.946  53.812
23315DA     BB351478  61.112  46.821  53.763
23315DA     SC151479  61.223  47.013  53.545
23315DA     SC251480  61.246  47.017  53.297
23315DA     SC351481  61.426  47.196  53.336
23315DA     SC451482  61.333  47.121  53.590
23316DA     BB151483  60.889  46.583  53.815
23316DA     BB251484  60.949  46.474  53.470
23316DA     BB351485  61.137  46.374  53.456
23316DA     SC151486  61.297  46.632  53.390
23316DA     SC251487  61.417  46.730  53.194
23316DA     SC351488  61.538  46.876  53.367
23316DA     SC451489  61.363  46.713  53.513
23317DG     BB151490  60.994  46.102  53.363
23317DG     BB251491  61.182  46.150  53.058
23317DG     BB351492  61.362  46.068  53.076
23317DG     SC151493  61.493  46.322  53.187
23317DG     SC251494  61.701  46.486  53.050
23317DG     SC351495  61.664  46.575  53.330
23317DG     SC451496  61.491  46.347  53.345
23318DT     BB151497  61.475  45.861  52.956
23318DT     BB251498  61.701  46.032  52.732
23318DT     BB351499  61.897  46.000  52.791
23318DT     SC151500  61.872  46.165  52.993
23318DT     SC251501  61.990  46.341  52.956
23318DT     SC351502  61.863  46.254  53.241
23319DT     BB151503  61.992  45.796  52.591
23319DT     BB251504  62.231  46.064  52.554
23319DT     BB351505  62.400  46.024  52.667
23319DT     SC151506  62.275  46.083  52.890
23319DT     SC251507  62.354  46.265  52.971
23319DT     SC351508  62.167  46.053  53.129
23320DT     BB151509  62.583  45.951  52.452
23320DT     BB251510  62.745  46.231  52.612
23320DT     BB351511  62.881  46.163  52.753
23320DT     SC151512  62.689  46.099  52.919
23320DT     SC251513  62.693  46.232  53.088
23320DT     SC351514  62.531  45.952  53.071
23321DA     BB151515  63.075  46.432  52.501
23321DA     BB251516  63.131  46.541  52.847
23321DA     BB351517  63.275  46.415  52.942
23321DA     SC151518  63.063  46.215  53.051
23321DA     SC251519  62.967  46.150  53.272
23321DA     SC351520  62.895  45.934  53.154
23321DA     SC451521  63.027  46.087  52.961
23322DT     BB151522  63.420  46.513  52.986
23322DT     BB251523  63.353  46.532  53.340
23322DT     BB351524  63.467  46.392  53.441
23322DT     SC151525  63.314  46.195  53.359
23322DT     SC251526  63.204  46.117  53.526
23322DT     SC351527  63.239  45.974  53.236
23323DC     BB151528  63.568  46.614  53.523
23323DC     BB251529  63.456  46.440  53.819
23323DC     BB351530  63.592  46.292  53.869
23323DC     SC151531  63.509  46.139  53.672
23323DC     SC251532  63.405  45.969  53.752
23323DC     SC351533  63.512  46.000  53.448
23324DT     BB151534  63.625  46.454  54.067
23324DT     BB251535  63.543  46.136  54.215
23324DT     BB351536  63.709  46.013  54.214
23324DT     SC151537  63.685  45.969  53.956
23324DT     SC251538  63.624  45.765  53.924
23324DT     SC351539  63.740  45.967  53.699
23325DA     BB151540  63.548  46.015  54.602
23325DA     BB251541  63.625  45.668  54.514
23325DA     BB351542  63.837  45.638  54.510
23325DA     SC151543  63.865  45.708  54.209
23325DA     SC251544  63.918  45.590  53.996
23325DA     SC351545  63.975  45.822  53.904
23325DA     SC451546  63.898  45.861  54.171
23326DC     BB151547  63.938  45.518  54.654
23326DC     BB251548  64.023  45.242  54.438
23326DC     BB351549  64.225  45.248  54.392
23326DC     SC151550  64.190  45.448  54.226
23326DC     SC251551  64.221  45.380  54.024
23326DC     SC351552  64.208  45.689  54.121
23327DA     BB151553  64.218  44.856  54.558
23327DA     BB251554  64.403  44.830  54.242
23327DA     BB351555  64.604  44.897  54.268
23327DA     SC151556  64.540  45.192  54.193
23327DA     SC251557  64.588  45.349  54.005
23327DA     SC351558  64.532  45.535  54.173
23327DA     SC451559  64.502  45.293  54.312
23328DT     BB151560  64.838  44.774  54.272
23328DT     BB251561  64.940  44.886  53.945
23328DT     BB351562  65.107  45.008  53.961
23328DT     SC151563  64.963  45.207  54.052
23328DT     SC251564  64.955  45.363  53.904
23328DT     SC351565  64.872  45.392  54.216
23329DT     BB151566  65.336  44.829  53.871
23329DT     BB251567  65.355  45.108  53.644
23329DT     BB351568  65.498  45.243  53.710
23329DT     SC151569  65.340  45.329  53.901
23329DT     SC251570  65.278  45.530  53.857
23329DT     SC351571  65.249  45.381  54.144
23330DG     BB151572  65.633  45.133  53.341
23330DG     BB251573  65.584  45.491  53.362
23330DG     BB351574  65.743  45.576  53.445
23330DG     SC151575  65.637  45.552  53.731
23330DG     SC251576  65.558  45.779  53.909
23330DG     SC351577  65.562  45.524  54.059
23330DG     SC451578  65.669  45.419  53.815
23331DA     BB151579  65.713  45.767  53.168
23331DA     BB251580  65.653  46.059  53.383
23331DA     BB351581  65.837  46.126  53.469
23331DA     SC151582  65.809  45.948  53.724
23331DA     SC251583  65.766  45.980  53.967
23331DA     SC351584  65.869  45.747  53.995
23331DA     SC451585  65.877  45.803  53.720
23332DT     BB151586  65.852  46.283  53.407
23332DT     BB251587  65.766  46.457  53.711
23332DT     BB351588  65.937  46.507  53.815
23332DT     SC151589  65.972  46.259  53.893
23332DT     SC251590  65.936  46.245  54.105
23332DT     SC351591  66.081  46.020  53.922
23333DC     BB151592  65.837  46.731  53.744
23333DC     BB251593  65.859  46.740  54.104
23333DC     BB351594  66.055  46.771  54.162
23333DC     SC151595  66.121  46.524  54.101
23333DC     SC251596  66.162  46.415  54.282
23333DC     SC351597  66.239  46.321  53.981
23334DC     BB151598  65.945  46.992  54.236
23334DC     BB251599  66.102  46.856  54.531
23334DC     BB351600  66.305  46.892  54.526
23334DC     SC151601  66.341  46.705  54.345
23334DC     SC251602  66.447  46.540  54.433
23334DC     SC351603  66.404  46.591  54.116
23335DT     BB151604  66.251  47.059  54.721
23335DT     BB251605  66.508  46.841  54.852
23335DT     BB351606  66.694  46.904  54.787
23335DT     SC151607  66.650  46.811  54.546
23335DT     SC251608  66.777  46.641  54.511
23335DT     SC351609  66.613  46.805  54.285
23336DA     BB151610  66.718  46.862  55.204
23336DA     BB251611  67.016  46.705  55.058
23336DA     BB351612  67.149  46.854  54.984
23336DA     SC151613  67.025  46.857  54.698
23336DA     SC251614  67.091  46.788  54.468
23336DA     SC351615  66.908  46.950  54.389
23336DA     SC451616  66.908  46.964  54.669
23337DA     BB151617  67.380  46.710  55.175
23337DA     BB251618  67.577  46.651  54.872
23337DA     BB351619  67.674  46.831  54.810
23337DA     SC151620  67.440  46.922  54.626
23337DA     SC251621  67.397  46.947  54.382
23337DA     SC351622  67.207  47.105  54.453
23337DA     SC451623  67.328  47.018  54.690
23338DC     BB151624  67.897  46.871  54.817
23338DC     BB251625  67.958  46.850  54.462
23338DC     BB351626  68.002  47.038  54.387
23338DC     SC151627  67.751  47.112  54.403
23338DC     SC251628  67.670  47.133  54.205
23338DC     SC351629  67.536  47.245  54.478
23339DA     BB151630  68.340  46.821  54.257
23339DA     BB251631  68.216  47.006  53.966
23339DA     BB351632  68.276  47.211  53.978
23339DA     SC151633  68.020  47.302  54.130
23339DA     SC251634  67.817  47.439  54.083
23339DA     SC351635  67.796  47.458  54.339
23339DA     SC451636  68.025  47.303  54.290
23340DT     BB151637  68.427  47.318  53.841
23340DT     BB251638  68.184  47.504  53.650
23340DT     BB351639  68.199  47.705  53.694
23340DT     SC151640  68.083  47.672  53.927
23340DT     SC251641  67.888  47.763  53.923
23340DT     SC351642  68.049  47.667  54.188
23341DA     BB151643  68.237  47.701  53.275
23341DA     BB251644  67.981  47.951  53.357
23341DA     BB351645  68.073  48.131  53.426
23341DA     SC151646  68.069  48.046  53.726
23341DA     SC251647  67.950  48.112  53.935
23341DA     SC351648  68.144  47.997  54.057
23341DA     SC451649  68.199  47.971  53.783
23342DA     BB151650  67.899  48.278  53.187
23342DA     BB251651  67.724  48.464  53.449
23342DA     BB351652  67.843  48.627  53.517
23342DA     SC151653  67.982  48.463  53.743
23342DA     SC251654  67.981  48.454  53.992
23342DA     SC351655  68.206  48.334  53.968
23342DA     SC451656  68.121  48.390  53.707
23343DT     BB151657  67.784  48.828  53.483
23343DT     BB251658  67.676  48.895  53.821
23343DT     BB351659  67.810  49.022  53.914
23343DT     SC151660  67.986  48.829  53.942
23343DT     SC251661  68.003  48.778  54.150
23343DT     SC351662  68.208  48.690  53.916
23344DT     BB151663  67.631  49.228  53.902
23344DT     BB251664  67.704  49.192  54.253
23344DT     BB351665  67.869  49.306  54.303
23344DT     SC151666  68.032  49.136  54.188
23344DT     SC251667  68.148  49.035  54.338
23344DT     SC351668  68.210  49.037  54.020
23345DG     BB151669  67.560  49.428  54.537
23345DG     BB251670  67.849  49.339  54.735
23345DG     BB351671  67.982  49.487  54.731
23345DG     SC151672  68.128  49.381  54.484
23345DG     SC251673  68.407  49.275  54.476
23345DG     SC351674  68.299  49.305  54.203
23345DG     SC451675  68.077  49.426  54.338
23346DA     BB151676  67.971  49.452  55.072
23346DA     BB251677  68.329  49.374  55.073
23346DA     BB351678  68.444  49.552  55.043
23346DA     SC151679  68.451  49.523  54.733
23346DA     SC251680  68.619  49.471  54.556
23346DA     SC351681  68.453  49.582  54.395
23346DA     SC451682  68.335  49.597  54.649
23347DT     BB151683  68.549  49.595  55.191
23347DT     BB251684  68.866  49.496  55.050
23347DT     BB351685  68.969  49.663  54.985
23347DT     SC151686  68.813  49.689  54.776
23347DT     SC251687  68.924  49.642  54.598
23347DT     SC351688  68.637  49.792  54.609
23348DT     BB151689  69.123  49.597  55.185
23348DT     BB251690  69.336  49.597  54.894
23348DT     BB351691  69.393  49.791  54.848
23348DT     SC151692  69.156  49.847  54.751
23348DT     SC251693  69.170  49.871  54.538
23348DT     SC351694  68.920  49.961  54.724
23349DA     BB151695  69.711  49.514  54.849
23349DA     BB251696  69.735  49.721  54.547
23349DA     BB351697  69.783  49.922  54.599
23349DA     SC151698  69.487  50.013  54.624
23349DA     SC251699  69.328  50.161  54.500
23349DA     SC351700  69.194  50.165  54.718
23349DA     SC451701  69.419  50.005  54.769
23350DT     BB151702  69.940  49.957  54.529
23350DT     BB251703  69.833  50.190  54.275
23350DT     BB351704  69.846  50.384  54.346
23350DT     SC151705  69.633  50.352  54.496
23350DT     SC251706  69.472  50.471  54.416
23350DT     SC351707  69.481  50.335  54.710
23351DT     BB151708  70.045  50.403  54.176
23351DT     BB251709  69.823  50.675  54.094
23351DT     BB351710  69.852  50.832  54.226
23351DT     SC151711  69.727  50.705  54.418
23351DT     SC251712  69.539  50.804  54.458
23351DT     SC351713  69.683  50.584  54.648
23352DA     BB151714  69.881  50.997  53.839
23352DA     BB251715  69.661  51.213  54.038
23352DA     BB351716  69.775  51.321  54.182
23352DA     SC151717  69.744  51.106  54.404
23352DA     SC251718  69.626  51.081  54.623
23352DA     SC351719  69.795  50.894  54.669
23352DA     SC451720  69.859  50.993  54.415
23353DG     BB151721  69.678  51.588  54.042
23353DG     BB251722  69.516  51.645  54.360
23353DG     BB351723  69.645  51.725  54.489
23353DG     SC151724  69.743  51.455  54.595
23353DG     SC251725  69.700  51.350  54.872
23353DG     SC351726  69.887  51.178  54.721
23353DG     SC451727  69.865  51.382  54.522
23354DA     BB151728  69.421  51.988  54.552
23354DA     BB251729  69.404  51.891  54.905
23354DA     BB351730  69.577  51.960  55.009
23354DA     SC151731  69.740  51.700  54.958
23354DA     SC251732  69.826  51.507  55.091
23354DA     SC351733  69.989  51.472  54.896
23354DA     SC451734  69.834  51.695  54.828
23355DA     BB151735  69.352  52.097  55.206
23355DA     BB251736  69.484  51.884  55.473
23355DA     BB351737  69.670  51.961  55.545
23355DA     SC151738  69.842  51.797  55.344
23355DA     SC251739  70.002  51.605  55.352
23355DA     SC351740  70.084  51.691  55.124
23355DA     SC451741  69.880  51.867  55.204
23356DT     BB151742  69.674  52.025  55.731
23356DT     BB251743  69.855  51.744  55.867
23356DT     BB351744  70.052  51.797  55.900
23356DT     SC151745  70.106  51.786  55.643
23356DT     SC251746  70.233  51.617  55.604
23356DT     SC351747  70.175  51.863  55.401
23357DA     BB151748  69.896  51.624  56.250
23357DA     BB251749  70.212  51.457  56.170
23357DA     BB351750  70.377  51.589  56.207
23357DA     SC151751  70.380  51.705  55.919
23357DA     SC251752  70.526  51.696  55.717
23357DA     SC351753  70.406  51.910  55.645
23357DA     SC451754  70.294  51.839  55.892
23358DA     BB151755  70.464  51.324  56.380
23358DA     BB251756  70.756  51.306  56.160
23358DA     BB351757  70.894  51.462  56.207
23358DA     SC151758  70.771  51.666  56.007
23358DA     SC251759  70.835  51.774  55.792
23358DA     SC351760  70.657  51.950  55.851
23358DA     SC451761  70.657  51.765  56.062
23359DG     BB151762  71.078  51.218  56.258
23359DG     BB251763  71.258  51.358  55.978
23359DG     BB351764  71.371  51.510  56.039
23359DG     SC151765  71.154  51.721  55.995
23359DG     SC251766  71.160  51.940  55.791
23359DG     SC351767  70.933  51.975  55.977
23359DG     SC451768  71.051  51.753  56.113
23360DA     BB151769  71.621  51.339  55.872
23360DA     BB251770  71.667  51.630  55.654
23360DA     BB351771  71.765  51.787  55.759
23360DA     SC151772  71.500  51.918  55.858
23360DA     SC251773  71.370  52.126  55.815
23360DA     SC351774  71.259  52.079  56.041
23360DA     SC451775  71.444  51.872  56.001
23361DT     BB151776  71.961  51.848  55.707
23361DT     BB251777  71.866  52.157  55.546
23361DT     BB351778  71.920  52.318  55.664
23361DT     SC151779  71.723  52.272  55.831
23361DT     SC251780  71.577  52.429  55.813
23361DT     SC351781  71.596  52.213  56.054
23362DG     BB151782  72.108  52.370  55.306
23362DG     BB251783  71.918  52.664  55.398
23362DG     BB351784  72.019  52.771  55.531
23362DG     SC151785  71.901  52.627  55.774
23362DG     SC251786  71.718  52.747  55.978
23362DG     SC351787  71.806  52.477  56.061
23362DG     SC451788  71.973  52.495  55.829
23363DA     BB151789  71.969  53.041  55.321
23363DA     BB251790  71.789  53.216  55.587
23363DA     BB351791  71.926  53.297  55.729
23363DA     SC151792  71.924  53.044  55.911
23363DA     SC251793  71.840  52.980  56.137
23363DA     SC351794  72.009  52.788  56.123
23363DA     SC451795  72.036  52.932  55.884
23364DT     BB151796  71.937  53.495  55.743
23364DT     BB251797  71.760  53.527  56.055
23364DT     BB351798  71.893  53.568  56.208
23364DT     SC151799  71.979  53.320  56.210
23364DT     SC251800  71.915  53.223  56.391
23364DT     SC351801  72.142  53.113  56.188
23365DA     BB151802  71.574  53.839  56.216
23365DA     BB251803  71.621  53.706  56.555
23365DA     BB351804  71.799  53.786  56.641
23365DA     SC151805  71.980  53.554  56.539
23365DA     SC251806  72.106  53.362  56.636
23365DA     SC351807  72.241  53.366  56.418
23365DA     SC451808  72.054  53.574  56.397
23366DC     BB151809  71.761  53.890  56.787
23366DC     BB251810  71.879  53.663  57.041
23366DC     BB351811  72.069  53.717  57.102
23366DC     SC151812  72.175  53.624  56.881
23366DC     SC251813  72.291  53.449  56.926
23366DC     SC351814  72.303  53.619  56.650
23367DA     BB151815  71.815  53.651  57.430
23367DA     BB251816  72.133  53.480  57.493
23367DA     BB351817  72.288  53.622  57.528
23367DA     SC151818  72.371  53.641  57.229
23367DA     SC251819  72.565  53.573  57.087
23367DA     SC351820  72.477  53.749  56.921
23367DA     SC451821  72.302  53.755  57.140
23368DA     BB151822  72.319  53.426  57.791
23368DA     BB251823  72.665  53.372  57.685
23368DA     BB351824  72.781  53.548  57.717
23368DA     SC151825  72.726  53.666  57.435
23368DA     SC251826  72.853  53.709  57.225
23368DA     SC351827  72.665  53.875  57.169
23368DA     SC451828  72.601  53.765  57.419
23369DG     BB151829  72.961  53.374  57.910
23369DG     BB251830  73.225  53.458  57.678
23369DG     BB351831  73.297  53.639  57.719
23369DG     SC151832  73.100  53.787  57.538
23369DG     SC251833  73.169  53.937  57.289
23369DG     SC351834  72.887  53.983  57.365
23369DG     SC451835  72.959  53.833  57.598
23370DA     BB151836  73.643  53.538  57.751
23370DA     BB251837  73.746  53.769  57.485
23370DA     BB351838  73.767  53.967  57.563
23370DA     SC151839  73.473  54.048  57.503
23370DA     SC251840  73.352  54.200  57.347
23370DA     SC351841  73.158  54.184  57.514
23370DA     SC451842  73.364  54.026  57.619
23371DC     BB151843  73.972  54.113  57.606
23371DC     BB251844  73.919  54.338  57.329
23371DC     BB351845  73.877  54.528  57.400
23371DC     SC151846  73.634  54.457  57.469
23371DC     SC251847  73.492  54.554  57.340
23371DC     SC351848  73.424  54.407  57.621
23372DT     BB151849  74.134  54.664  57.350
23372DT     BB251850  73.896  54.868  57.171
23372DT     BB351851  73.835  55.027  57.290
23372DT     SC151852  73.685  54.869  57.437
23372DT     SC251853  73.478  54.914  57.400
23372DT     SC351854  73.593  54.739  57.647
23373DG     BB151855  73.999  55.210  56.964
23373DG     BB251856  73.661  55.326  57.022
23373DG     BB351857  73.661  55.467  57.162
23373DG     SC151858  73.625  55.270  57.394
23373DG     SC251859  73.385  55.248  57.569
23373DG     SC351860  73.606  55.081  57.673
23373DG     SC451861  73.755  55.206  57.462
23374DC     BB151862  73.591  55.668  57.113
23374DC     BB251863  73.266  55.669  57.269
23374DC     BB351864  73.272  55.778  57.444
23374DC     SC151865  73.399  55.585  57.569
23374DC     SC251866  73.269  55.496  57.715
23374DC     SC351867  73.590  55.457  57.698
23375DG     BB151868  72.985  55.931  57.199
23375DG     BB251869  72.854  55.859  57.528
23375DG     BB351870  72.912  55.999  57.657
23375DG     SC151871  73.170  55.855  57.736
23375DG     SC251872  73.231  55.739  58.004
23375DG     SC351873  73.471  55.736  57.831
23375DG     SC451874  73.303  55.882  57.651
23376DA     BB151875  72.575  56.018  57.738
23376DA     BB251876  72.655  55.940  58.088
23376DA     BB351877  72.744  56.109  58.183
23376DA     SC151878  73.036  56.027  58.110
23376DA     SC251879  73.239  55.945  58.228
23376DA     SC351880  73.367  56.027  58.022
23376DA     SC451881  73.097  56.086  57.974
23377DA     BB151882  72.503  56.068  58.406
23377DA     BB251883  72.766  56.019  58.658
23377DA     BB351884  72.852  56.206  58.712
23377DA     SC151885  73.074  56.194  58.495
23377DA     SC251886  73.322  56.165  58.486
23377DA     SC351887  73.305  56.271  58.253
23377DA     SC451888  73.043  56.263  58.353
23378DA     BB151889  72.776  56.137  59.031
23378DA     BB251890  73.135  56.147  59.105
23378DA     BB351891  73.201  56.349  59.127
23378DA     SC151892  73.274  56.383  58.827
23378DA     SC251893  73.480  56.408  58.689
23378DA     SC351894  73.325  56.505  58.509
23378DA     SC451895  73.161  56.442  58.729
23379DA     BB151896  73.317  56.273  59.431
23379DA     BB251897  73.653  56.350  59.308
23379DA     BB351898  73.688  56.560  59.315
23379DA     SC151899  73.584  56.611  59.026
23379DA     SC251900  73.678  56.676  58.804
23379DA     SC351901  73.438  56.744  58.745
23379DA     SC451902  73.428  56.649  59.009
23380DT     BB151903  73.835  56.653  59.448
23380DT     BB251904  74.083  56.709  59.192
23380DT     BB351905  74.100  56.912  59.153
23380DT     SC151906  73.873  56.914  59.022
23380DT     SC251907  73.912  56.946  58.812
23380DT     SC351908  73.623  56.971  58.958
23381DG     BB151909  74.466  56.776  59.264
23381DG     BB251910  74.478  56.942  58.942
23381DG     BB351911  74.480  57.139  58.968
23381DG     SC151912  74.175  57.168  58.964
23381DG     SC251913  74.015  57.307  58.753
23381DG     SC351914  73.845  57.234  58.985
23381DG     SC451915  74.094  57.154  59.101
23382DA     BB151916  74.742  57.101  58.754
23382DA     BB251917  74.571  57.319  58.514
23382DA     BB351918  74.578  57.522  58.580
23382DA     SC151919  74.309  57.505  58.737
23382DA     SC251920  74.078  57.595  58.716
23382DA     SC351921  74.057  57.541  58.967
23382DA     SC451922  74.317  57.466  58.892
23383DT     BB151923  74.669  57.609  58.460
23383DT     BB251924  74.392  57.787  58.312
23383DT     BB351925  74.377  57.976  58.396
23383DT     SC151926  74.276  57.877  58.618
23383DT     SC251927  74.069  57.934  58.633
23383DT     SC351928  74.251  57.813  58.872
23384DA     BB151929  74.355  57.972  57.975
23384DA     BB251930  74.087  58.186  58.106
23384DA     BB351931  74.170  58.361  58.196
23384DA     SC151932  74.191  58.235  58.480
23384DA     SC251933  74.081  58.260  58.702
23384DA     SC351934  74.290  58.146  58.796
23384DA     SC451935  74.330  58.163  58.519
23385DT     BB151936  74.117  58.503  58.104
23385DT     BB251937  73.894  58.646  58.349
23385DT     BB351938  73.994  58.790  58.460
23385DT     SC151939  74.124  58.606  58.594
23385DT     SC251940  74.054  58.603  58.798
23385DT     SC351941  74.325  58.462  58.688
23386DA     BB151942  73.641  58.974  58.322
23386DA     BB251943  73.681  59.063  58.675
23386DA     BB351944  73.841  59.202  58.699
23386DA     SC151945  74.058  58.983  58.742
23386DA     SC251946  74.200  58.898  58.928
23386DA     SC351947  74.349  58.800  58.743
23386DA     SC451948  74.138  58.931  58.613
23387DA     BB151949  73.635  59.424  58.855
23387DA     BB251950  73.855  59.412  59.148
23387DA     BB351951  74.026  59.536  59.118
23387DA     SC151952  74.199  59.309  58.994
23387DA     SC251953  74.399  59.173  59.057
23387DA     SC351954  74.421  59.126  58.806
23387DA     SC451955  74.196  59.292  58.834
23388DA     BB151956  73.991  59.756  59.395
23388DA     BB251957  74.312  59.638  59.527
23388DA     BB351958  74.472  59.753  59.445
23388DA     SC151959  74.516  59.562  59.203
23388DA     SC251960  74.689  59.399  59.125
23388DA     SC351961  74.583  59.430  58.893
23388DA     SC451962  74.438  59.596  59.067
23389DA     BB151963  74.632  59.899  59.738
23389DA     BB251964  74.933  59.701  59.668
23389DA     BB351965  75.069  59.813  59.548
23389DA     SC151966  74.954  59.710  59.278
23389DA     SC251967  75.025  59.561  59.092
23389DA     SC351968  74.846  59.682  58.954
23389DA     SC451969  74.838  59.798  59.209
23390DT     BB151970  75.329  59.934  59.585
23390DT     BB251971  75.498  59.662  59.420
23390DT     BB351972  75.601  59.732  59.255
23390DT     SC151973  75.379  59.760  59.118
23390DT     SC251974  75.373  59.614  58.960
23390DT     SC351975  75.182  59.874  58.985
23391DT     BB151976  75.882  59.720  59.352
23391DT     BB251977  75.875  59.495  59.070
23391DT     BB351978  75.945  59.591  58.901
23391DT     SC151979  75.722  59.728  58.877
23391DT     SC251980  75.615  59.659  58.704
23391DT     SC351981  75.556  59.933  58.868
23392DA     BB151982  76.141  59.229  58.957
23392DA     BB251983  75.999  59.232  58.619
23392DA     BB351984  76.112  59.360  58.492
23392DA     SC151985  75.941  59.612  58.553
23392DA     SC251986  75.778  59.759  58.434
23392DA     SC351987  75.833  59.933  58.614
23392DA     SC451988  75.990  59.708  58.673
23393DT     BB151989  76.180  59.257  58.364
23393DT     BB251990  75.952  59.362  58.105
23393DT     BB351991  76.041  59.507  57.987
23393DT     SC151992  76.011  59.689  58.174
23393DT     SC251993  75.864  59.833  58.110
23393DT     SC351994  76.071  59.869  58.357
23394DC     BB151995  76.022  59.310  57.821
23394DC     BB251996  75.835  59.583  57.675
23394DC     BB351997  75.965  59.717  57.586
23394DC     SC151998  76.039  59.811  57.820
23394DC     SC251999  75.964  60.011  57.843
23394DC     SC352000  76.193  59.871  58.026
23395DC     BB152001  75.846  59.622  57.377
23395DC     BB252002  75.790  59.978  57.368
23395DC     BB352003  75.959  60.074  57.296
23395DC     SC152004  76.086  60.037  57.522
23395DC     SC252005  76.111  60.226  57.622
23395DC     SC352006  76.267  59.951  57.695
23396DA     BB152007  75.604  60.203  57.111
23396DA     BB252008  75.802  60.497  57.204
23396DA     BB352009  75.979  60.509  57.084
23396DA     SC152010  76.153  60.343  57.282
23396DA     SC252011  76.343  60.383  57.438
23396DA     SC352012  76.382  60.130  57.423
23396DA     SC452013  76.161  60.185  57.259
23397DA     BB152014  75.841  60.805  57.061
23397DA     BB252015  76.158  60.935  57.190
23397DA     BB352016  76.313  60.912  57.045
23397DA     SC152017  76.400  60.632  57.148
23397DA     SC252018  76.595  60.531  57.266
23397DA     SC352019  76.511  60.307  57.173
23397DA     SC452020  76.332  60.503  57.080
23398DT     BB152021  76.380  61.075  56.980
23398DT     BB252022  76.704  61.065  57.138
23398DT     BB352023  76.847  61.000  57.002
23398DT     SC152024  76.762  60.753  57.019
23398DT     SC252025  76.910  60.633  57.119
23398DT     SC352026  76.659  60.520  56.948
23399DA     BB152027  76.992  61.356  57.173
23399DA     BB252028  77.266  61.113  57.170
23399DA     BB352029  77.337  61.084  56.971
23399DA     SC152030  77.144  60.847  56.912
23399DA     SC252031  77.159  60.601  56.877
23399DA     SC352032  76.929  60.624  56.764
23399DA     SC452033  77.002  60.882  56.844
23400DG     BB152034  77.622  61.190  57.064
23400DG     BB252035  77.735  60.860  56.968
23400DG     BB352036  77.769  60.854  56.772
23400DG     SC152037  77.484  60.770  56.700
23400DG     SC252038  77.404  60.507  56.583
23400DG     SC352039  77.176  60.696  56.583
23400DG     SC452040  77.374  60.883  56.674
23401DA     BB152041  78.106  60.736  56.801
23401DA     BB252042  78.027  60.436  56.606
23401DA     BB352043  78.029  60.480  56.397
23401DA     SC152044  77.727  60.553  56.385
23401DA     SC252045  77.517  60.457  56.289
23401DA     SC352046  77.423  60.695  56.312
23401DA     SC452047  77.687  60.707  56.406
23402DG     BB152048  78.272  60.276  56.338
23402DG     BB252049  78.024  60.098  56.144
23402DG     BB352050  78.021  60.167  55.958
23402DG     SC152051  77.811  60.382  56.015
23402DG     SC252052  77.533  60.388  55.906
23402DG     SC352053  77.596  60.640  56.047
23402DG     SC452054  77.858  60.526  56.065
23403DT     BB152055  78.079  60.046  55.755
23403DT     BB252056  77.750  59.983  55.621
23403DT     BB352057  77.719  60.100  55.453
23403DT     SC152058  77.685  60.315  55.601
23403DT     SC252059  77.479  60.376  55.592
23403DT     SC352060  77.726  60.555  55.702
23404DT     BB152061  77.740  59.885  55.284
23404DT     BB252062  77.414  60.021  55.213
23404DT     BB352063  77.428  60.167  55.067
23404DT     SC152064  77.532  60.338  55.237
23404DT     SC252065  77.390  60.495  55.276
23404DT     SC352066  77.705  60.501  55.350
23405DC     BB152067  77.311  60.002  54.884
23405DC     BB252068  77.101  60.295  54.888
23405DC     BB352069  77.173  60.436  54.755
23405DC     SC152070  77.370  60.499  54.916
23405DC     SC252071  77.339  60.696  54.995
23405DC     SC352072  77.616  60.529  55.008
23406DG     BB152073  76.792  60.358  54.628
23406DG     BB252074  76.845  60.714  54.672
23406DG     BB352075  76.943  60.787  54.515
23406DG     SC152076  77.220  60.738  54.635
23406DG     SC252077  77.415  60.949  54.717
23406DG     SC352078  77.540  60.681  54.726
23406DG     SC452079  77.292  60.597  54.610
23407DA     BB152080  76.695  61.034  54.464
23407DA     BB252081  76.943  61.299  54.517
23407DA     BB352082  77.058  61.330  54.340
23407DA     SC152083  77.278  61.125  54.420
23407DA     SC252084  77.518  61.129  54.489
23407DA     SC352085  77.522  60.883  54.417
23407DA     SC452086  77.261  60.973  54.368
23408DC     BB152087  77.054  61.517  54.205
23408DC     BB252088  77.368  61.651  54.322
23408DC     BB352089  77.509  61.641  54.172
23408DC     SC152090  77.537  61.382  54.204
23408DC     SC252091  77.730  61.341  54.288
23408DC     SC352092  77.532  61.123  54.152
23409DT     BB152093  77.512  61.919  54.110
23409DT     BB252094  77.852  61.845  54.206
23409DT     BB352095  77.963  61.796  54.039
23409DT     SC152096  77.850  61.560  54.022
23409DT     SC252097  77.995  61.408  54.071
23409DT     SC352098  77.709  61.359  53.927
23410DA     BB152099  78.159  62.093  54.256
23410DA     BB252100  78.392  61.814  54.206
23410DA     BB352101  78.460  61.810  54.004
23410DA     SC152102  78.233  61.623  53.904
23410DA     SC252103  78.209  61.388  53.824
23410DA     SC352104  77.988  61.467  53.720
23410DA     SC452105  78.100  61.692  53.846
23411DA     BB152106  78.709  61.798  54.210
23411DA     BB252107  78.776  61.470  54.060
23411DA     BB352108  78.842  61.493  53.858
23411DA     SC152109  78.556  61.477  53.737
23411DA     SC252110  78.423  61.318  53.599
23411DA     SC352111  78.274  61.520  53.546
23411DA     SC452112  78.477  61.615  53.715
23412DA     BB152113  79.038  61.297  54.032
23412DA     BB252114  78.951  61.045  53.780
23412DA     BB352115  79.028  61.101  53.589
23412DA     SC152116  78.772  61.257  53.504
23412DA     SC252117  78.586  61.230  53.341
23412DA     SC352118  78.550  61.482  53.371
23412DA     SC452119  78.766  61.414  53.536
23413DA     BB152120  79.112  60.792  53.656
23413DA     BB252121  78.932  60.710  53.347
23413DA     BB352122  79.033  60.793  53.178
23413DA     SC152123  78.876  61.061  53.185
23413DA     SC252124  78.703  61.177  53.047
23413DA     SC352125  78.782  61.391  53.165
23413DA     SC452126  78.939  61.183  53.268
23414DT     BB152127  79.089  60.659  53.076
23414DT     BB252128  78.852  60.706  52.807
23414DT     BB352129  78.938  60.820  52.657
23414DT     SC152130  78.914  61.039  52.799
23414DT     SC252131  78.765  61.166  52.710
23414DT     SC352132  78.981  61.255  52.936
23415DA     BB152133  78.759  60.472  52.501
23415DA     BB252134  78.650  60.760  52.301
23415DA     BB352135  78.813  60.837  52.187
23415DA     SC152136  78.904  61.038  52.406
23415DA     SC252137  78.907  61.285  52.440
23415DA     SC352138  79.087  61.239  52.616
23415DA     SC452139  79.016  60.989  52.510
23416DT     BB152140  78.782  60.817  52.009
23416DT     BB252141  78.719  61.165  51.936
23416DT     BB352142  78.890  61.254  51.860
23416DT     SC152143  79.002  61.259  52.098
23416DT     SC252144  79.015  61.463  52.165
23416DT     SC352145  79.171  61.209  52.293
23417DT     BB152146  78.749  61.260  51.642
23417DT     BB252147  78.843  61.602  51.706
23417DT     BB352148  79.037  61.635  51.643
23417DT     SC152149  79.134  61.504  51.849
23417DT     SC252150  79.232  61.642  51.982
23417DT     SC352151  79.260  61.320  51.989
23418DA     BB152152  78.774  61.934  51.504
23418DA     BB252153  79.074  62.095  51.641
23418DA     BB352154  79.243  62.053  51.518
23418DA     SC152155  79.324  61.797  51.674
23418DA     SC252156  79.508  61.723  51.826
23418DA     SC352157  79.437  61.485  51.763
23418DA     SC452158  79.266  61.656  51.621
23419DT     BB152159  79.307  62.205  51.441
23419DT     BB252160  79.615  62.231  51.628
23419DT     BB352161  79.771  62.147  51.520
23419DT     SC152162  79.686  61.904  51.573
23419DT     SC252163  79.825  61.808  51.707
23419DT     SC352164  79.592  61.661  51.536
23420DT     BB152165  79.871  62.393  51.465
23420DT     BB252166  80.152  62.214  51.604
23420DT     BB352167  80.246  62.105  51.455
23420DT     SC152168  80.054  61.927  51.453
23420DT     SC252169  80.128  61.741  51.534
23420DT     SC352170  79.853  61.780  51.366
23421DA     BB152171  80.587  62.331  51.575
23421DA     BB252172  80.700  61.983  51.551
23421DA     BB352173  80.738  61.931  51.347
23421DA     SC152174  80.449  61.828  51.295
23421DA     SC252175  80.335  61.610  51.254
23421DA     SC352176  80.145  61.751  51.155
23421DA     SC452177  80.342  61.933  51.237
23422DT     BB152178  80.954  61.883  51.218
23422DT     BB252179  80.909  61.526  51.199
23422DT     BB352180  80.884  61.468  51.002
23422DT     SC152181  80.639  61.562  50.997
23422DT     SC252182  80.500  61.398  50.985
23422DT     SC352183  80.432  61.710  50.930
23423DG     BB152184  81.227  61.257  51.090
23423DG     BB252185  80.974  61.035  50.959
23423DG     BB352186  80.978  61.037  50.760
23423DG     SC152187  80.779  61.268  50.734
23423DG     SC252188  80.504  61.251  50.619
23423DG     SC352189  80.580  61.532  50.668
23423DG     SC452190  80.834  61.419  50.734
23424DG     BB152191  81.037  60.712  50.749
23424DG     BB252192  80.714  60.682  50.589
23424DG     BB352193  80.733  60.706  50.392
23424DG     SC152194  80.692  61.010  50.402
23424DG     SC252195  80.459  61.159  50.288
23424DG     SC352196  80.671  61.345  50.378
23424DG     SC452197  80.819  61.105  50.424
23425DA     BB152198  80.559  60.410  50.372
23425DA     BB252199  80.294  60.579  50.183
23425DA     BB352200  80.357  60.613  49.982
23425DA     SC152201  80.477  60.894  50.041
23425DA     SC252202  80.425  61.132  49.988
23425DA     SC352203  80.671  61.178  50.045
23425DA     SC452204  80.633  60.902  50.079
23426DT     BB152205  80.258  60.516  49.846
23426DT     BB252206  80.072  60.796  49.715
23426DT     BB352207  80.156  60.859  49.536
23426DT     SC152208  80.358  60.971  49.660
23426DT     SC252209  80.342  61.185  49.643
23426DT     SC352210  80.605  61.020  49.738
23427DT     BB152211  79.944  60.756  49.400
23427DT     BB252212  79.955  61.101  49.298
23427DT     BB352213  80.084  61.124  49.137
23427DT     SC152214  80.294  61.098  49.293
23427DT     SC252215  80.396  61.287  49.306
23427DT     SC352216  80.515  60.999  49.396
23428DA     BB152217  79.727  61.296  48.994
23428DA     BB252218  79.998  61.532  48.920
23428DA     BB352219  80.112  61.464  48.753
23428DA     SC152220  80.315  61.303  48.925
23428DA     SC252221  80.555  61.319  48.989
23428DA     SC352222  80.536  61.069  49.043
23428DA     SC452223  80.283  61.148  48.951
23429DT     BB152224  80.121  61.562  48.540
23429DT     BB252225  80.450  61.705  48.579
23429DT     BB352226  80.584  61.610  48.454
23429DT     SC152227  80.590  61.398  48.609
23429DT     SC252228  80.782  61.385  48.704
23429DT     SC352229  80.561  61.149  48.690
23430DG     BB152230  80.606  61.995  48.311
23430DG     BB252231  80.934  61.872  48.401
23430DG     BB352232  81.011  61.766  48.251
23430DG     SC152233  80.893  61.500  48.346
23430DG     SC252234  81.048  61.265  48.446
23430DG     SC352235  80.763  61.195  48.410
23430DG     SC452236  80.746  61.458  48.297
23431DG     BB152237  81.279  61.964  48.211
23431DG     BB252238  81.478  61.681  48.317
23431DG     BB352239  81.533  61.574  48.159
23431DG     SC152240  81.287  61.393  48.164
23431DG     SC252241  81.285  61.100  48.224
23431DG     SC352242  81.020  61.189  48.127
23431DG     SC452243  81.156  61.438  48.084
23432DA     BB152244  81.850  61.605  48.285
23432DA     BB252245  81.874  61.240  48.318
23432DA     BB352246  81.915  61.151  48.129
23432DA     SC152247  81.616  61.113  48.054
23432DA     SC252248  81.455  60.924  48.027
23432DA     SC352249  81.316  61.089  47.888
23432DA     SC452250  81.544  61.230  47.970
23433DT     BB152251  82.088  61.062  48.117
23433DT     BB252252  81.964  60.724  48.131
23433DT     BB352253  81.970  60.638  47.943
23433DT     SC152254  81.762  60.777  47.864
23433DT     SC252255  81.594  60.646  47.837
23433DT     SC352256  81.616  60.950  47.728
23434DC     BB152257  82.168  60.487  48.039
23434DC     BB252258  81.921  60.251  47.922
23434DC     BB352259  81.946  60.216  47.720
23434DC     SC152260  81.844  60.449  47.658
23434DC     SC252261  81.653  60.421  47.564
23434DC     SC352262  81.826  60.695  47.564
23435DT     BB152263  82.032  59.973  47.791
23435DT     BB252264  81.761  59.910  47.562
23435DT     BB352265  81.830  59.914  47.367
23435DT     SC152266  81.849  60.176  47.371
23435DT     SC252267  81.699  60.260  47.241
23435DT     SC352268  81.955  60.417  47.363
23436DA     BB152269  81.611  59.563  47.423
23436DA     BB252270  81.501  59.714  47.107
23436DA     BB352271  81.650  59.690  46.957
23436DA     SC152272  81.793  59.958  47.022
23436DA     SC252273  81.825  60.181  46.915
23436DA     SC352274  82.026  60.206  47.073
23436DA     SC452275  81.915  59.954  47.128
23437DA     BB152276  81.394  59.565  46.796
23437DA     BB252277  81.453  59.820  46.538
23437DA     BB352278  81.624  59.769  46.421
23437DA     SC152279  81.824  59.923  46.603
23437DA     SC252280  81.966  60.128  46.589
23437DA     SC352281  82.099  60.024  46.782
23437DA     SC452282  81.895  59.841  46.722
23438DA     BB152283  81.417  59.803  46.166
23438DA     BB252284  81.643  60.060  46.033
23438DA     BB352285  81.814  59.969  45.944
23438DA     SC152286  81.982  59.974  46.206
23438DA     SC252287  82.182  60.095  46.296
23438DA     SC352288  82.198  59.901  46.463
23438DA     SC452289  81.977  59.844  46.301
23439DT     BB152290  81.855  59.971  45.730
23439DT     BB252291  82.131  60.203  45.733
23439DT     BB352292  82.308  60.103  45.694
23439DT     SC152293  82.311  59.999  45.935
23439DT     SC252294  82.472  60.087  46.048
23439DT     SC352295  82.307  59.819  46.128
23440DG     BB152296  82.304  60.363  45.374
23440DG     BB252297  82.626  60.376  45.539
23440DG     BB352298  82.742  60.228  45.473
23440DG     SC152299  82.649  60.027  45.684
23440DG     SC252300  82.817  59.914  45.904
23440DG     SC352301  82.556  59.776  45.889
23440DG     SC452302  82.521  59.937  45.654
23441DT     BB152303  82.956  60.238  45.337
23441DT     BB252304  83.199  60.157  45.592
23441DT     BB352305  83.278  59.968  45.557
23441DT     SC152306  83.058  59.852  45.641
23441DT     SC252307  83.097  59.753  45.829
23441DT     SC352308  82.837  59.708  45.640
23442DA     BB152309  83.630  60.200  45.571
23442DA     BB252310  83.680  59.915  45.797
23442DA     BB352311  83.728  59.740  45.685
23442DA     SC152312  83.432  59.649  45.656
23442DA     SC252313  83.285  59.466  45.742
23442DA     SC352314  83.134  59.520  45.542
23442DA     SC452315  83.352  59.697  45.525
23443DT     BB152316  83.924  59.639  45.692
23443DT     BB252317  83.817  59.365  45.901
23443DT     BB352318  83.813  59.190  45.791
23443DT     SC152319  83.594  59.263  45.666
23443DT     SC252320  83.431  59.139  45.731
23443DT     SC352321  83.432  59.332  45.471
23444DT     BB152322  84.034  59.096  45.924
23444DT     BB252323  83.778  58.850  45.988
23444DT     BB352324  83.778  58.708  45.838
23444DT     SC152325  83.665  58.873  45.669
23444DT     SC252326  83.463  58.808  45.629
23444DT     SC352327  83.630  59.027  45.457
23445DC     BB152328  83.874  58.541  46.022
23445DC     BB252329  83.566  58.391  45.908
23445DC     BB352330  83.601  58.280  45.737
23445DC     SC152331  83.621  58.497  45.591
23445DC     SC252332  83.451  58.511  45.460
23445DC     SC352333  83.725  58.683  45.435
23446DT     BB152334  83.551  58.079  45.897
23446DT     BB252335  83.310  58.051  45.630
23446DT     BB352336  83.396  57.961  45.465
23446DT     SC152337  83.530  58.178  45.406
23446DT     SC252338  83.451  58.264  45.225
23446DT     SC352339  83.733  58.341  45.364
23447DT     BB152340  83.235  57.765  45.530
23447DT     BB252341  83.154  57.847  45.188
23447DT     BB352342  83.289  57.757  45.060
23447DT     SC152343  83.475  57.932  45.123
23447DT     SC252344  83.513  58.060  44.954
23447DT     SC352345  83.701  58.031  45.217
23448DT     BB152346  83.090  57.598  44.990
23448DT     BB252347  83.205  57.742  44.680
23448DT     BB352348  83.369  57.637  44.610
23448DT     SC152349  83.526  57.745  44.791
23448DT     SC252350  83.664  57.879  44.695
23448DT     SC352351  83.688  57.765  44.998
23449DT     BB152352  83.217  57.526  44.412
23449DT     BB252353  83.494  57.677  44.237
23449DT     BB352354  83.653  57.545  44.229
23449DT     SC152355  83.710  57.586  44.482
23449DT     SC252356  83.896  57.693  44.497
23449DT     SC352357  83.746  57.539  44.739
23450DT     BB152358  83.619  57.482  43.959
23450DT     BB252359  83.963  57.590  43.978
23450DT     BB352360  84.085  57.428  44.019
23450DT     SC152361  84.007  57.423  44.270
23450DT     SC252362  84.170  57.484  44.397
23450DT     SC352363  83.898  57.337  44.494
23451DG     BB152364  84.235  57.548  43.656
23451DG     BB252365  84.500  57.521  43.901
23451DG     BB352366  84.560  57.332  43.916
23451DG     SC152367  84.359  57.261  44.136
23451DG     SC252368  84.426  57.190  44.418
23451DG     SC352369  84.139  57.143  44.363
23451DG     SC452370  84.213  57.209  44.094
23452DT     BB152371  84.778  57.244  43.860
23452DT     BB252372  84.916  57.203  44.191
23452DT     BB352373  84.929  57.001  44.238
23452DT     SC152374  84.670  56.985  44.276
23452DT     SC252375  84.630  56.955  44.485
23452DT     SC352376  84.418  56.912  44.243
23453DT     BB152377  85.200  57.010  44.214
23453DT     BB252378  85.141  56.900  44.553
23453DT     BB352379  85.121  56.694  44.557
23453DT     SC152380  84.881  56.706  44.452
23453DT     SC252381  84.736  56.649  44.600
23453DT     SC352382  84.683  56.673  44.282
23454DA     BB152383  85.396  56.823  44.846
23454DA     BB252384  85.155  56.598  45.007
23454DA     BB352385  85.188  56.397  44.945
23454DA     SC152386  84.992  56.414  44.704
23454DA     SC252387  84.770  56.320  44.640
23454DA     SC352388  84.838  56.378  44.399
23454DA     SC452389  85.053  56.456  44.561
23455DT     BB152390  85.236  56.300  45.087
23455DT     BB252391  84.927  56.117  45.125
23455DT     BB352392  84.943  55.932  45.034
23455DT     SC152393  84.924  56.039  44.795
23455DT     SC252394  84.735  55.984  44.707
23455DT     SC352395  84.988  56.112  44.550
23456DG     BB152396  84.832  55.897  45.424
23456DG     BB252397  84.612  55.713  45.204
23456DG     BB352398  84.704  55.548  45.139
23456DG     SC152399  84.826  55.684  44.893
23456DG     SC252400  84.756  55.625  44.608
23456DG     SC352401  84.991  55.804  44.625
23456DG     SC452402  84.968  55.755  44.906
23457DT     BB152403  84.621  55.360  45.189
23457DT     BB252404  84.486  55.247  44.874
23457DT     BB352405  84.616  55.113  44.785
23457DT     SC152406  84.781  55.306  44.717
23457DT     SC252407  84.778  55.330  44.504
23457DT     SC352408  85.000  55.453  44.706
23458DA     BB152409  84.248  54.909  44.792
23458DA     BB252410  84.388  54.871  44.456
23458DA     BB352411  84.549  54.732  44.458
23458DA     SC152412  84.767  54.947  44.511
23458DA     SC252413  84.956  55.053  44.388
23458DA     SC352414  85.044  55.118  44.619
23458DA     SC452415  84.806  54.977  44.664
23459DA     BB152416  84.390  54.554  44.221
23459DA     BB252417  84.676  54.615  44.000
23459DA     BB352418  84.836  54.481  44.046
23459DA     SC152419  84.970  54.671  44.253
23459DA     SC252420  85.177  54.808  44.270
23459DA     SC352421  85.136  54.803  44.523
23459DA     SC452422  84.927  54.655  44.407
23460DT     BB152423  84.913  54.310  43.912
23460DT     BB252424  85.213  54.480  43.807
23460DT     BB352425  85.379  54.387  43.889
23460DT     SC152426  85.329  54.491  44.125
23460DT     SC252427  85.479  54.637  44.172
23460DT     SC352428  85.270  54.506  44.382
23461DT     BB152429  85.471  54.257  43.651
23461DT     BB252430  85.752  54.459  43.753
23461DT     BB352431  85.880  54.347  43.871
23461DT     SC152432  85.716  54.363  44.075
23461DT     SC252433  85.803  54.488  44.228
23461DT     SC352434  85.550  54.288  44.267
23462DC     BB152435  86.074  54.326  43.673
23462DC     BB252436  86.245  54.485  43.947
23462DC     BB352437  86.330  54.341  44.070
23462DC     SC152438  86.096  54.278  44.171
23462DC     SC252439  86.087  54.343  44.376
23462DC     SC352440  85.882  54.136  44.232
23463DA     BB152441  86.633  54.613  43.972
23463DA     BB252442  86.632  54.573  44.336
23463DA     BB352443  86.717  54.385  44.391
23463DA     SC152444  86.445  54.234  44.386
23463DA     SC252445  86.289  54.129  44.550
23463DA     SC352446  86.197  53.999  44.348
23463DA     SC452447  86.403  54.162  44.248
23464DC     BB152448  86.888  54.390  44.493
23464DC     BB252449  86.746  54.306  44.813
23464DC     BB352450  86.790  54.109  44.861
23464DC     SC152451  86.613  54.019  44.689
23464DC     SC252452  86.448  53.931  44.795
23464DC     SC352453  86.511  53.896  44.479
23465DT     BB152454  86.955  54.205  45.048
23465DT     BB252455  86.719  54.000  45.228
23465DT     BB352456  86.781  53.803  45.226
23465DT     SC152457  86.710  53.774  44.975
23465DT     SC252458  86.539  53.644  44.963
23465DT     SC352459  86.728  53.733  44.715
23466DA     BB152460  86.676  53.936  45.609
23466DA     BB252461  86.506  53.618  45.545
23466DA     BB352462  86.646  53.458  45.543
23466DA     SC152463  86.700  53.477  45.237
23466DA     SC252464  86.652  53.342  45.032
23466DA     SC352465  86.843  53.476  44.925
23466DA     SC452466  86.822  53.570  45.188
23467DC     BB152467  86.601  53.355  45.674
23467DC     BB252468  86.465  53.085  45.476
23467DC     BB352469  86.610  52.940  45.445
23467DC     SC152470  86.734  53.090  45.269
23467DC     SC252471  86.711  53.004  45.074
23467DC     SC352472  86.923  53.235  45.156
23468DC     BB152473  86.439  52.820  45.594
23468DC     BB252474  86.471  52.619  45.296
23468DC     BB352475  86.647  52.511  45.303
23468DC     SC152476  86.789  52.724  45.249
23468DC     SC252477  86.872  52.707  45.051
23468DC     SC352478  86.964  52.920  45.278
23469DT     BB152479  86.466  52.330  45.318
23469DT     BB252480  86.676  52.237  45.040
23469DT     BB352481  86.855  52.159  45.109
23469DT     SC152482  86.942  52.398  45.176
23469DT     SC252483  87.103  52.454  45.044
23469DT     SC352484  87.027  52.598  45.324
23470DT     BB152485  86.756  51.938  45.015
23470DT     BB252486  87.084  51.963  44.867
23470DT     BB352487  87.228  51.905  45.004
23470DT     SC152488  87.203  52.128  45.139
23470DT     SC252489  87.381  52.247  45.114
23470DT     SC352490  87.150  52.294  45.337
23471DT     BB152491  87.272  51.660  44.881
23471DT     BB252492  87.604  51.796  44.917
23471DT     BB352493  87.683  51.743  45.101
23471DT     SC152494  87.531  51.918  45.224
23471DT     SC252495  87.653  52.078  45.300
23471DT     SC352496  87.346  52.017  45.384
23472DT     BB152497  87.863  51.531  45.020
23472DT     BB252498  88.078  51.748  45.212
23472DT     BB352499  88.083  51.686  45.409
23472DT     SC152500  87.842  51.782  45.453
23472DT     SC252501  87.856  51.952  45.583
23472DT     SC352502  87.585  51.789  45.512
23473DA     BB152503  88.498  51.674  45.328
23473DA     BB252504  88.458  51.861  45.641
23473DA     BB352505  88.428  51.727  45.804
23473DA     SC152506  88.118  51.727  45.778
23473DA     SC252507  87.922  51.813  45.907
23473DA     SC352508  87.785  51.640  45.775
23473DA     SC452509  88.051  51.613  45.687
23474DA     BB152510  88.689  51.869  45.955
23474DA     BB252511  88.460  51.980  46.218
23474DA     BB352512  88.424  51.822  46.357
23474DA     SC152513  88.176  51.712  46.204
23474DA     SC252514  87.929  51.700  46.238
23474DA     SC352515  87.935  51.512  46.064
23474DA     SC452516  88.201  51.596  46.096
23475DG     BB152517  88.548  52.012  46.571
23475DG     BB252518  88.213  52.005  46.707
23475DG     BB352519  88.190  51.845  46.824
23475DG     SC152520  88.094  51.663  46.597
23475DG     SC252521  87.821  51.547  46.569
23475DG     SC352522  88.005  51.431  46.369
23475DG     SC452523  88.203  51.582  46.511
23476DT     BB152524  88.146  51.867  47.039
23476DT     BB252525  87.796  51.780  47.049
23476DT     BB352526  87.773  51.589  47.125
23476DT     SC152527  87.858  51.481  46.901
23476DT     SC252528  87.694  51.383  46.803
23476DT     SC352529  88.008  51.345  46.732
23477DA     BB152530  87.520  51.839  47.348
23477DA     BB252531  87.325  51.547  47.242
23477DA     BB352532  87.381  51.375  47.355
23477DA     SC152533  87.601  51.285  47.154
23477DA     SC252534  87.638  51.100  46.991
23477DA     SC352535  87.886  51.161  47.009
23477DA     SC452536  87.751  51.337  47.180
23478DT     BB152537  87.247  51.287  47.489
23478DT     BB252538  87.171  50.996  47.289
23478DT     BB352539  87.264  50.830  47.369
23478DT     SC152540  87.498  50.907  47.280
23478DT     SC252541  87.561  50.775  47.122
23478DT     SC352542  87.749  50.988  47.279
23479DA     BB152543  86.861  50.712  47.345
23479DA     BB252544  87.061  50.446  47.191
23479DA     BB352545  87.156  50.329  47.342
23479DA     SC152546  87.414  50.502  47.349
23479DA     SC252547  87.653  50.480  47.284
23479DA     SC352548  87.695  50.674  47.446
23479DA     SC452549  87.420  50.623  47.456
23480DA     BB152550  87.008  50.069  47.199
23480DA     BB252551  87.344  49.943  47.120
23480DA     BB352552  87.430  49.849  47.291
23480DA     SC152553  87.565  50.108  47.397
23480DA     SC252554  87.795  50.199  47.422
23480DA     SC352555  87.692  50.358  47.595
23480DA     SC452556  87.482  50.197  47.502
23481DA     BB152557  87.466  49.594  47.087
23481DA     BB252558  87.828  49.632  47.131
23481DA     BB352559  87.889  49.545  47.316
23481DA     SC152560  87.854  49.807  47.480
23481DA     SC252561  88.000  49.974  47.594
23481DA     SC352562  87.789  50.038  47.725
23481DA     SC452563  87.712  49.831  47.552
23482DA     BB152564  88.090  49.394  47.109
23482DA     BB252565  88.365  49.554  47.291
23482DA     BB352566  88.396  49.456  47.478
23482DA     SC152567  88.201  49.640  47.635
23482DA     SC252568  88.215  49.819  47.809
23482DA     SC352569  87.968  49.767  47.853
23482DA     SC452570  88.048  49.592  47.649
23483DA     BB152571  88.698  49.445  47.353
23483DA     BB252572  88.803  49.644  47.643
23483DA     BB352573  88.810  49.522  47.818
23483DA     SC152574  88.515  49.581  47.900
23483DA     SC252575  88.395  49.705  48.079
23483DA     SC352576  88.193  49.559  48.017
23483DA     SC452577  88.402  49.480  47.848
23484DC     BB152578  88.988  49.492  47.899
23484DC     BB252579  88.944  49.708  48.184
23484DC     BB352580  88.908  49.596  48.354
23484DC     SC152581  88.663  49.543  48.277
23484DC     SC252582  88.524  49.645  48.406
23484DC     SC352583  88.451  49.406  48.200
23485DA     BB152584  89.224  49.855  48.447
23485DA     BB252585  88.976  49.879  48.717
23485DA     BB352586  88.984  49.706  48.841
23485DA     SC152587  88.772  49.549  48.676
23485DA     SC252588  88.537  49.470  48.706
23485DA     SC352589  88.591  49.304  48.517
23485DA     SC452590  88.825  49.453  48.559
23486DT     BB152591  89.047  49.725  49.035
23486DT     BB252592  88.721  49.691  49.186
23486DT     BB352593  88.703  49.506  49.276
23486DT     SC152594  88.677  49.387  49.044
23486DT     SC252595  88.475  49.314  49.024
23486DT     SC352596  88.728  49.229  48.839
23487DA     BB152597  88.592  49.804  49.547
23487DA     BB252598  88.328  49.549  49.543
23487DA     BB352599  88.395  49.372  49.642
23487DA     SC152600  88.509  49.241  49.384
23487DA     SC252601  88.454  49.049  49.235
23487DA     SC352602  88.698  49.065  49.158
23487DA     SC452603  88.664  49.266  49.351
23488DA     BB152604  88.108  49.454  49.769
23488DA     BB252605  87.994  49.125  49.653
23488DA     BB352606  88.085  48.970  49.768
23488DA     SC152607  88.329  48.939  49.577
23488DA     SC252608  88.417  48.771  49.415
23488DA     SC352609  88.642  48.890  49.445
23488DA     SC452610  88.461  49.026  49.610
23489DG     BB152611  87.782  48.941  49.784
23489DG     BB252612  87.858  48.626  49.624
23489DG     BB352613  87.944  48.503  49.755
23489DG     SC152614  88.229  48.595  49.692
23489DG     SC252615  88.442  48.431  49.563
23489DG     SC352616  88.552  48.687  49.663
23489DG     SC452617  88.290  48.719  49.773
23490DT     BB152618  87.836  48.353  49.758
23490DT     BB252619  88.041  48.097  49.608
23490DT     BB352620  88.157  48.005  49.753
23490DT     SC152621  88.317  48.212  49.767
23490DT     SC252622  88.509  48.160  49.685
23490DT     SC352623  88.445  48.422  49.865
23491DA     BB152624  87.962  47.709  49.525
23491DA     BB252625  88.311  47.606  49.574
23491DA     BB352626  88.345  47.553  49.778
23491DA     SC152627  88.430  47.840  49.864
23491DA     SC252628  88.638  47.957  49.936
23491DA     SC352629  88.480  48.133  50.035
23491DA     SC452630  88.315  47.937  49.920
23492DC     BB152631  88.383  47.355  49.835
23492DC     BB252632  88.731  47.394  49.921
23492DC     BB352633  88.754  47.394  50.127
23492DC     SC152634  88.658  47.638  50.145
23492DC     SC252635  88.816  47.773  50.201
23492DC     SC352636  88.498  47.838  50.210
23493DA     BB152637  89.019  47.085  50.017
23493DA     BB252638  89.200  47.302  50.251
23493DA     BB352639  89.136  47.264  50.451
23493DA     SC152640  88.911  47.479  50.446
23493DA     SC252641  88.865  47.701  50.550
23493DA     SC352642  88.619  47.654  50.492
23493DA     SC452643  88.764  47.431  50.403
23494DA     BB152644  89.456  47.206  50.530
23494DA     BB252645  89.438  47.490  50.761
23494DA     BB352646  89.345  47.431  50.944
23494DA     SC152647  89.058  47.505  50.850
23494DA     SC252648  88.885  47.678  50.902
23494DA     SC352649  88.719  47.514  50.795
23494DA     SC452650  88.970  47.390  50.781
23495DA     BB152651  89.618  47.548  51.088
23495DA     BB252652  89.406  47.792  51.260
23495DA     BB352653  89.306  47.701  51.425
23495DA     SC152654  89.056  47.617  51.260
23495DA     SC252655  88.816  47.681  51.244
23495DA     SC352656  88.783  47.452  51.133
23495DA     SC452657  89.057  47.471  51.194
23496DA     BB152658  89.443  47.952  51.588
23496DA     BB252659  89.102  48.060  51.671
23496DA     BB352660  89.021  47.937  51.826
23496DA     SC152661  88.895  47.732  51.629
23496DA     SC252662  88.667  47.663  51.555
23496DA     SC352663  88.779  47.446  51.478
23496DA     SC452664  88.983  47.603  51.590
23497DA     BB152665  88.971  48.229  51.969
23497DA     BB252666  88.613  48.150  51.966
23497DA     BB352667  88.567  48.008  52.119
23497DA     SC152668  88.611  47.761  51.936
23497DA     SC252669  88.473  47.582  51.830
23497DA     SC352670  88.692  47.451  51.811
23497DA     SC452671  88.758  47.695  51.934
23498DC     BB152672  88.449  48.061  52.285
23498DC     BB252673  88.151  47.883  52.186
23498DC     BB352674  88.127  47.714  52.304
23498DC     SC152675  88.320  47.589  52.177
23498DC     SC252676  88.236  47.429  52.060
23498DC     SC352677  88.550  47.467  52.132
23499DT     BB152678  87.916  47.818  52.460
23499DT     BB252679  87.781  47.511  52.326
23499DT     BB352680  87.819  47.355  52.456
23499DT     SC152681  88.071  47.347  52.385
23499DT     SC252682  88.109  47.167  52.274
23499DT     SC352683  88.334  47.362  52.402
23500DT     BB152684  87.553  47.326  52.564
23500DT     BB252685  87.627  46.998  52.433
23500DT     BB352686  87.709  46.880  52.582
23500DT     SC152687  87.939  47.006  52.567
23500DT     SC252688  88.087  46.875  52.484
23500DT     SC352689  88.146  47.154  52.637
23501DA     BB152690  87.385  46.644  52.456
23501DA     BB252691  87.681  46.429  52.451
23501DA     BB352692  87.728  46.362  52.648
23501DA     SC152693  87.918  46.601  52.710
23501DA     SC252694  88.162  46.639  52.743
23501DA     SC352695  88.091  46.856  52.862
23501DA     SC452696  87.854  46.730  52.781
23502DA     BB152697  87.712  46.066  52.509
23502DA     BB252698  88.068  46.028  52.589
23502DA     BB352699  88.092  45.977  52.795
23502DA     SC152700  88.114  46.272  52.891
23502DA     SC252701  88.289  46.423  52.984
23502DA     SC352702  88.093  46.565  53.069
23502DA     SC452703  87.979  46.345  52.937
23503DA     BB152704  88.261  45.740  52.650
23503DA     BB252705  88.554  45.870  52.827
23503DA     BB352706  88.547  45.815  53.033
23503DA     SC152707  88.395  46.072  53.121
23503DA     SC252708  88.442  46.278  53.253
23503DA     SC352709  88.188  46.297  53.277
23503DA     SC452710  88.235  46.065  53.126
23504DA     BB152711  88.842  45.713  52.941
23504DA     BB252712  88.976  45.943  53.194
23504DA     BB352713  88.942  45.866  53.390
23504DA     SC152714  88.667  46.007  53.424
23504DA     SC252715  88.571  46.193  53.560
23504DA     SC352716  88.343  46.086  53.507
23504DA     SC452717  88.535  45.925  53.382
23505DT     BB152718  89.102  45.822  53.483
23505DT     BB252719  89.096  46.098  53.715
23505DT     BB352720  89.028  46.034  53.899
23505DT     SC152721  88.781  46.022  53.811
23505DT     SC252722  88.664  46.177  53.904
23505DT     SC352723  88.546  45.922  53.743
23506DT     BB152724  89.278  46.063  53.991
23506DT     BB252725  89.078  46.268  54.209
23506DT     BB352726  88.999  46.153  54.362
23506DT     SC152727  88.823  46.044  54.200
23506DT     SC252728  88.626  46.114  54.251
23506DT     SC352729  88.695  45.861  54.060
23507DC     BB152730  89.169  46.273  54.534
23507DC     BB252731  88.842  46.330  54.676
23507DC     BB352732  88.787  46.169  54.794
23507DC     SC152733  88.738  46.021  54.583
23507DC     SC252734  88.527  45.987  54.568
23507DC     SC352735  88.757  45.825  54.408
23508DT     BB152736  88.825  46.317  55.022
23508DT     BB252737  88.485  46.201  55.047
23508DT     BB352738  88.480  46.016  55.139
23508DT     SC152739  88.569  45.897  54.922
23508DT     SC252740  88.413  45.777  54.837
23508DT     SC352741  88.728  45.761  54.762
23509DA     BB152742  88.210  46.259  55.348
23509DA     BB252743  88.040  45.943  55.274
23509DA     BB352744  88.114  45.787  55.399
23509DA     SC152745  88.337  45.700  55.201
23509DA     SC252746  88.387  45.505  55.053
23509DA     SC352747  88.630  45.589  55.059
23509DA     SC452748  88.482  45.767  55.218
23510DA     BB152749  87.795  45.752  55.467
23510DA     BB252750  87.821  45.411  55.336
23510DA     BB352751  87.919  45.285  55.477
23510DA     SC152752  88.204  45.338  55.364
23510DA     SC252753  88.380  45.211  55.240
23510DA     SC352754  88.541  45.390  55.328
23510DA     SC452755  88.289  45.457  55.430
23511DC     BB152756  87.811  45.141  55.556
23511DC     BB252757  87.962  44.868  55.375
23511DC     BB352758  88.094  44.766  55.499
23511DC     SC152759  88.272  44.959  55.480
23511DC     SC252760  88.440  44.890  55.366
23511DC     SC352761  88.432  45.156  55.551
23512DA     BB152762  87.835  44.484  55.328
23512DA     BB252763  88.178  44.364  55.284
23512DA     BB352764  88.258  44.297  55.470
23512DA     SC152765  88.378  44.575  55.546
23512DA     SC252766  88.603  44.678  55.569
23512DA     SC352767  88.485  44.855  55.713
23512DA     SC452768  88.286  44.674  55.633
23513DG     BB152769  88.282  44.031  55.314
23513DG     BB252770  88.636  44.089  55.365
23513DG     BB352771  88.688  44.033  55.548
23513DG     SC152772  88.633  44.306  55.675
23513DG     SC252773  88.837  44.490  55.791
23513DG     SC352774  88.563  44.586  55.850
23513DG     SC452775  88.485  44.338  55.729
23514DA     BB152776  88.934  43.858  55.381
23514DA     BB252777  89.189  44.044  55.568
23514DA     BB352778  89.197  43.975  55.770
23514DA     SC152779  88.988  44.181  55.874
23514DA     SC252780  88.985  44.384  56.019
23514DA     SC352781  88.734  44.339  56.042
23514DA     SC452782  88.834  44.136  55.877
23515DA     BB152783  89.509  43.956  55.673
23515DA     BB252784  89.583  44.192  55.944
23515DA     BB352785  89.564  44.095  56.133
23515DA     SC152786  89.264  44.169  56.167
23515DA     SC252787  89.126  44.319  56.311
23515DA     SC352788  88.929  44.168  56.245
23515DA     SC452789  89.155  44.063  56.116
23516DC     BB152790  89.726  44.083  56.227
23516DC     BB252791  89.654  44.332  56.477
23516DC     BB352792  89.594  44.241  56.653
23516DC     SC152793  89.358  44.185  56.551
23516DC     SC252794  89.208  44.305  56.649
23516DC     SC352795  89.153  44.045  56.463
23517DG     BB152796  89.918  44.472  56.741
23517DG     BB252797  89.642  44.541  56.964
23517DG     BB352798  89.626  44.396  57.099
23517DG     SC152799  89.437  44.225  56.929
23517DG     SC252800  89.152  44.165  56.991
23517DG     SC352801  89.246  44.003  56.762
23517DG     SC452802  89.500  44.119  56.827
23518DA     BB152803  89.631  44.640  57.350
23518DA     BB252804  89.303  44.528  57.468
23518DA     BB352805  89.321  44.347  57.579
23518DA     SC152806  89.282  44.163  57.331
23518DA     SC252807  89.109  44.006  57.243
23518DA     SC352808  89.299  43.908  57.102
23518DA     SC452809  89.413  44.115  57.252
23519DT     BB152810  89.284  44.334  57.792
23519DT     BB252811  88.968  44.162  57.769
23519DT     BB352812  88.990  43.965  57.828
23519DT     SC152813  89.111  43.903  57.604
23519DT     SC252814  88.983  43.776  57.486
23519DT     SC352815  89.299  43.824  57.437
23520DG     BB152816  88.713  44.108  58.094
23520DG     BB252817  88.592  43.810  57.929
23520DG     BB352818  88.669  43.648  58.016
23520DG     SC152819  88.916  43.639  57.836
23520DG     SC252820  88.979  43.427  57.636
23520DG     SC352821  89.209  43.611  57.671
23520DG     SC452822  89.047  43.721  57.880
23521DG     BB152823  88.366  43.534  58.088
23521DG     BB252824  88.443  43.261  57.863
23521DG     BB352825  88.542  43.119  57.960
23521DG     SC152826  88.818  43.236  57.901
23521DG     SC252827  89.028  43.111  57.729
23521DG     SC352828  89.135  43.346  57.872
23521DG     SC452829  88.880  43.344  58.002
23522DC     BB152830  88.456  42.916  57.980
23522DC     BB252831  88.654  42.735  57.739
23522DC     BB352832  88.797  42.621  57.836
23522DC     SC152833  88.942  42.834  57.888
23522DC     SC252834  89.122  42.827  57.771
23522DC     SC352835  89.067  43.021  58.024
23523DA     BB152836  88.587  42.374  57.569
23523DA     BB252837  88.946  42.327  57.511
23523DA     BB352838  89.033  42.217  57.672
23523DA     SC152839  89.105  42.471  57.837
23523DA     SC252840  89.311  42.594  57.906
23523DA     SC352841  89.164  42.696  58.090
23523DA     SC452842  88.998  42.522  57.945
23524DT     BB152843  89.103  42.042  57.626
23524DT     BB252844  89.452  42.133  57.635
23524DT     BB352845  89.538  42.067  57.811
23524DT     SC152846  89.420  42.257  57.949
23524DT     SC252847  89.568  42.398  58.016
23524DT     SC352848  89.264  42.375  58.125
23525DA     BB152849  89.774  41.937  57.489
23525DA     BB252850  89.992  42.101  57.734
23525DA     BB352851  90.016  41.978  57.907
23525DA     SC152852  89.774  42.103  58.057
23525DA     SC252853  89.735  42.249  58.256
23525DA     SC352854  89.496  42.155  58.253
23525DA     SC452855  89.631  42.031  58.040
23526DA     BB152856  90.323  42.041  57.820
23526DA     BB252857  90.354  42.208  58.145
23526DA     BB352858  90.359  42.064  58.302
23526DA     SC152859  90.051  42.063  58.345
23526DA     SC252860  89.888  42.138  58.518
23526DA     SC352861  89.726  41.973  58.409
23526DA     SC452862  89.965  41.954  58.264
23527DA     BB152863  90.617  42.256  58.347
23527DA     BB252864  90.461  42.342  58.668
23527DA     BB352865  90.471  42.177  58.802
23527DA     SC152866  90.197  42.058  58.714
23527DA     SC252867  89.968  42.030  58.811
23527DA     SC352868  89.937  41.849  58.631
23527DA     SC452869  90.197  41.949  58.597
23528DT     BB152870  90.563  42.239  58.926
23528DT     BB252871  90.294  42.274  59.164
23528DT     BB352872  90.278  42.103  59.279
23528DT     SC152873  90.168  41.971  59.080
23528DT     SC252874  89.961  41.933  59.126
23528DT     SC352875  90.134  41.791  58.891
23529DA     BB152876  90.259  42.480  59.476
23529DA     BB252877  89.987  42.265  59.595
23529DA     BB352878  90.065  42.095  59.696
23529DA     SC152879  90.079  41.917  59.441
23529DA     SC252880  89.962  41.717  59.349
23529DA     SC352881  90.169  41.690  59.199
23529DA     SC452882  90.216  41.917  59.358
23530DT     BB152883  89.991  42.130  59.829
23530DT     BB252884  89.761  41.852  59.830
23530DT     BB352885  89.856  41.682  59.901
23530DT     SC152886  89.988  41.653  59.676
23530DT     SC252887  89.914  41.479  59.572
23530DT     SC352888  90.189  41.637  59.506
23531DT     BB152889  89.695  41.722  60.100
23531DT     BB252890  89.637  41.382  59.997
23531DT     BB352891  89.787  41.259  60.069
23531DT     SC152892  89.958  41.350  59.892
23531DT     SC252893  90.001  41.195  59.749
23531DT     SC352894  90.169  41.469  59.789
23532DT     BB152895  89.611  41.159  60.243
23532DT     BB252896  89.746  40.870  60.074
23532DT     BB352897  89.924  40.813  60.164
23532DT     SC152898  90.052  41.015  60.055
23532DT     SC252899  90.189  40.940  59.906
23532DT     SC352900  90.190  41.239  60.033
23533DA     BB152901  89.692  40.462  60.159
23533DA     BB252902  90.026  40.375  60.036
23533DA     BB352903  90.166  40.372  60.196
23533DA     SC152904  90.245  40.671  60.165
23533DA     SC252905  90.444  40.803  60.091
23533DA     SC352906  90.339  40.997  60.221
23533DA     SC452907  90.165  40.779  60.252
23534DA     BB152908  90.236  40.062  60.097
23534DA     BB252909  90.580  40.175  60.038
23534DA     BB352910  90.686  40.190  60.223
23534DA     SC152911  90.609  40.488  60.270
23534DA     SC252912  90.723  40.710  60.271
23534DA     SC352913  90.522  40.790  60.410
23534DA     SC452914  90.477  40.518  60.357
23535DT     BB152915  90.848  40.061  60.272
23535DT     BB252916  91.112  40.303  60.227
23535DT     BB352917  91.187  40.361  60.411
23535DT     SC152918  90.975  40.508  60.459
23535DT     SC252919  91.030  40.716  60.454
23535DT     SC352920  90.755  40.596  60.575
23536DT     BB152921  91.423  40.217  60.382
23536DT     BB252922  91.534  40.555  60.444
23536DT     BB352923  91.553  40.587  60.648
23536DT     SC152924  91.293  40.600  60.678
23536DT     SC252925  91.237  40.802  60.727
23536DT     SC352926  91.049  40.540  60.759
23537DG     BB152927  91.936  40.656  60.516
23537DG     BB252928  91.817  40.933  60.716
23537DG     BB352929  91.837  40.891  60.909
23537DG     SC152930  91.561  40.763  60.935
23537DG     SC252931  91.332  40.870  61.094
23537DG     SC352932  91.272  40.598  60.995
23537DG     SC452933  91.544  40.606  60.905
23538DT     BB152934  91.984  41.001  61.081
23538DT     BB252935  91.737  41.195  61.259
23538DT     BB352936  91.707  41.115  61.448
23538DT     SC152937  91.570  40.914  61.350
23538DT     SC252938  91.364  40.934  61.406
23538DT     SC352939  91.503  40.667  61.287
23539DT     BB152940  91.850  41.314  61.603
23539DT     BB252941  91.516  41.319  61.740
23539DT     BB352942  91.504  41.191  61.903
23539DT     SC152943  91.504  40.980  61.746
23539DT     SC252944  91.310  40.887  61.752
23539DT     SC352945  91.581  40.754  61.634
23540DA     BB152946  91.368  41.558  62.053
23540DA     BB252947  91.112  41.306  62.124
23540DA     BB352948  91.170  41.185  62.290
23540DA     SC152949  91.314  40.972  62.116
23540DA     SC252950  91.280  40.734  62.049
23540DA     SC352951  91.531  40.734  61.995
23540DA     SC452952  91.472  40.992  62.090
23541DT     BB152953  91.057  41.196  62.458
23541DT     BB252954  90.882  40.886  62.399
23541DT     BB352955  90.949  40.741  62.531
23541DT     SC152956  91.173  40.712  62.399
23541DT     SC252957  91.175  40.520  62.302
23541DT     SC352958  91.431  40.714  62.344
23542DC     BB152959  90.706  40.772  62.620
23542DC     BB252960  90.731  40.427  62.517
23542DC     BB352961  90.824  40.316  62.664
23542DC     SC152962  91.059  40.416  62.602
23542DC     SC252963  91.180  40.263  62.512
23542DC     SC352964  91.286  40.548  62.624
23543DA     BB152965  90.473  40.152  62.494
23543DA     BB252966  90.735  39.895  62.502
23543DA     BB352967  90.782  39.844  62.704
23543DA     SC152968  91.007  40.057  62.732
23543DA     SC252969  91.255  40.062  62.751
23543DA     SC352970  91.223  40.298  62.847
23543DA     SC452971  90.966  40.201  62.790
23544DC     BB152972  90.740  39.678  62.719
23544DC     BB252973  91.074  39.543  62.742
23544DC     BB352974  91.130  39.527  62.941
23544DC     SC152975  91.166  39.787  62.960
23544DC     SC252976  91.376  39.828  62.980
23544DC     SC352977  91.134  40.036  63.038
23545DT     BB152978  91.107  39.266  62.906
23545DT     BB252979  91.442  39.314  63.032
23545DT     BB352980  91.438  39.330  63.238
23545DT     SC152981  91.341  39.573  63.225
23545DT     SC252982  91.490  39.713  63.291
23545DT     SC352983  91.175  39.776  63.254
23546DT     BB152984  91.545  39.079  63.270
23546DT     BB252985  91.766  39.292  63.459
23546DT     BB352986  91.695  39.315  63.652
23546DT     SC152987  91.505  39.477  63.572
23546DT     SC252988  91.547  39.676  63.643
23546DT     SC352989  91.264  39.572  63.523
23547DT     BB152990  91.886  39.146  63.773
23547DT     BB252991  91.920  39.456  63.954
23547DT     BB352992  91.795  39.456  64.118
23547DT     SC152993  91.584  39.495  63.967
23547DT     SC252994  91.508  39.694  64.001
23547DT     SC352995  91.352  39.454  63.849
23548DA     BB152996  92.171  39.541  64.286
23548DA     BB252997  91.936  39.793  64.411
23548DA     BB352998  91.812  39.710  64.564
23548DA     SC152999  91.590  39.618  64.367
23548DA     SC253000  91.354  39.680  64.313
23548DA     SC353001  91.338  39.446  64.209
23548DA     SC453002  91.599  39.468  64.309
23549DA     BB153003  91.924  39.965  64.737
23549DA     BB253004  91.577  40.082  64.754
23549DA     BB353005  91.469  39.971  64.901
23549DA     SC153006  91.373  39.753  64.700
23549DA     SC253007  91.159  39.682  64.594
23549DA     SC353008  91.278  39.459  64.552
23549DA     SC453009  91.463  39.622  64.685
23550DA     BB153010  91.414  40.279  64.988
23550DA     BB253011  91.059  40.209  64.925
23550DA     BB353012  90.979  40.085  65.080
23550DA     SC153013  91.046  39.819  64.935
23550DA     SC253014  90.921  39.633  64.823
23550DA     SC353015  91.135  39.496  64.859
23550DA     SC453016  91.187  39.749  64.968
23551DA     BB153017  90.772  40.336  65.067
23551DA     BB253018  90.514  40.088  64.987
23551DA     BB353019  90.466  39.972  65.159
23551DA     SC153020  90.679  39.752  65.101
23551DA     SC253021  90.683  39.513  65.030
23551DA     SC353022  90.920  39.510  65.127
23551DA     SC453023  90.824  39.770  65.167
23552DT     BB153024  90.289  39.997  65.220
23552DT     BB253025  90.159  39.678  65.111
23552DT     BB353026  90.147  39.548  65.271
23552DT     SC153027  90.407  39.512  65.270
23552DT     SC253028  90.452  39.312  65.205
23552DT     SC353029  90.658  39.515  65.351
23553DG     BB153030  89.773  39.579  65.112
23553DG     BB253031  89.875  39.234  65.144
23553DG     BB353032  89.857  39.175  65.333
23553DG     SC153033  90.141  39.258  65.411
23553DG     SC253034  90.363  39.073  65.489
23553DG     SC353035  90.438  39.355  65.537
23553DG     SC453036  90.167  39.407  65.463
23554DA     BB153037  89.674  38.909  65.207
23554DA     BB253038  89.916  38.674  65.351
23554DA     BB353039  89.887  38.658  65.562
23554DA     SC153040  90.085  38.887  65.632
23554DA     SC253041  90.310  38.911  65.739
23554DA     SC353042  90.244  39.156  65.775
23554DA     SC453043  90.026  39.035  65.647
23555DA     BB153044  89.875  38.344  65.475
23555DA     BB253045  90.167  38.294  65.691
23555DA     BB353046  90.109  38.300  65.897
23555DA     SC153047  90.154  38.607  65.926
23555DA     SC253048  90.313  38.760  66.042
23555DA     SC353049  90.131  38.938  66.013
23555DA     SC453050  90.028  38.703  65.899
23556DC     BB153051  90.135  38.136  65.985
23556DC     BB253052  90.423  38.235  66.178
23556DC     BB353053  90.367  38.279  66.372
23556DC     SC153054  90.260  38.507  66.299
23556DC     SC253055  90.379  38.669  66.375
23556DC     SC353056  90.079  38.694  66.255
23557DA     BB153057  90.699  38.023  66.355
23557DA     BB253058  90.771  38.293  66.593
23557DA     BB353059  90.650  38.272  66.768
23557DA     SC153060  90.418  38.447  66.657
23557DA     SC253061  90.317  38.671  66.703
23557DA     SC353062  90.111  38.581  66.581
23557DA     SC453063  90.298  38.372  66.579
23558DA     BB153064  90.959  38.309  66.871
23558DA     BB253065  90.832  38.596  67.061
23558DA     BB353066  90.701  38.530  67.216
23558DA     SC153067  90.445  38.548  67.041
23558DA     SC253068  90.240  38.690  67.027
23558DA     SC353069  90.138  38.495  66.895
23558DA     SC453070  90.399  38.416  66.962
23559DT     BB153071  90.770  38.567  67.382
23559DT     BB253072  90.537  38.823  67.482
23559DT     BB353073  90.386  38.741  67.597
23559DT     SC153074  90.273  38.633  67.387
23559DT     SC253075  90.086  38.733  67.347
23559DT     SC353076  90.181  38.450  67.221
23560DT     BB153077  90.487  38.846  67.832
23560DT     BB253078  90.141  38.949  67.836
23560DT     BB353079  90.025  38.802  67.923
23560DT     SC153080  90.042  38.652  67.708
23560DT     SC253081  89.850  38.644  67.611
23560DT     SC353082  90.101  38.447  67.553
23561DT     BB153083  89.980  38.913  68.192
23561DT     BB253084  89.644  38.838  68.083
23561DT     BB353085  89.589  38.649  68.148
23561DT     SC153086  89.741  38.534  67.968
23561DT     SC253087  89.617  38.438  67.821
23561DT     SC353088  89.934  38.388  67.863
23562DC     BB153089  89.410  38.706  68.383
23562DC     BB253090  89.204  38.496  68.174
23562DC     BB353091  89.217  38.299  68.237
23562DC     SC153092  89.457  38.274  68.133
23562DC     SC253093  89.448  38.141  67.964
23562DC     SC353094  89.718  38.236  68.117
23563DT     BB153095  88.959  38.268  68.374
23563DT     BB253096  88.955  38.007  68.124
23563DT     BB353097  89.022  37.829  68.207
23563DT     SC153098  89.270  37.913  68.205
23563DT     SC253099  89.382  37.801  68.059
23563DT     SC353100  89.508  37.987  68.292
23564DA     BB153101  88.650  37.734  68.039
23564DA     BB253102  88.894  37.492  67.911
23564DA     BB353103  88.940  37.347  68.060
23564DA     SC153104  89.179  37.507  68.178
23564DA     SC253105  89.427  37.489  68.188
23564DA     SC353106  89.411  37.649  68.387
23564DA     SC453107  89.148  37.606  68.301
23565DA     BB153108  88.855  37.154  67.811
23565DA     BB253109  89.199  37.027  67.821
23565DA     BB353110  89.224  36.894  67.985
23565DA     SC153111  89.314  37.117  68.183
23565DA     SC253112  89.523  37.187  68.301
23565DA     SC353113  89.367  37.313  68.460
23565DA     SC453114  89.200  37.188  68.272
23566DT     BB153115  89.263  36.720  67.930
23566DT     BB253116  89.613  36.725  68.015
23566DT     BB353117  89.644  36.628  68.194
23566DT     SC153118  89.544  36.829  68.330
23566DT     SC253119  89.702  36.926  68.440
23566DT     SC353120  89.384  36.967  68.487
23567DA     BB153121  89.909  36.494  67.898
23567DA     BB253122  90.101  36.569  68.200
23567DA     BB353123  90.060  36.426  68.353
23567DA     SC153124  89.825  36.589  68.476
23567DA     SC253125  89.778  36.716  68.685
23567DA     SC353126  89.531  36.685  68.624
23567DA     SC453127  89.676  36.558  68.422
23568DA     BB153128  90.386  36.424  68.336
23568DA     BB253129  90.381  36.523  68.689
23568DA     BB353130  90.318  36.360  68.811
23568DA     SC153131  90.016  36.435  68.798
23568DA     SC253132  89.841  36.523  68.953
23568DA     SC353133  89.673  36.427  68.784
23568DA     SC453134  89.928  36.368  68.682
23569DA     BB153135  90.599  36.444  68.958
23569DA     BB253136  90.398  36.505  69.259
23569DA     BB353137  90.335  36.320  69.344
23569DA     SC153138  90.069  36.309  69.183
23569DA     SC253139  89.824  36.330  69.229
23569DA     SC353140  89.793  36.208  69.006
23569DA     SC453141  90.070  36.231  69.043
23570DA     BB153142  90.475  36.457  69.608
23570DA     BB253143  90.146  36.434  69.769
23570DA     BB353144  90.103  36.232  69.822
23570DA     SC153145  89.963  36.165  69.552
23570DA     SC253146  89.732  36.116  69.472
23570DA     SC353147  89.847  36.011  69.268
23570DA     SC453148  90.053  36.103  69.435
23571DT     BB153149  90.091  36.179  70.020
23571DT     BB253150  89.732  36.143  70.033
23571DT     BB353151  89.681  35.943  70.040
23571DT     SC153152  89.738  35.912  69.785
23571DT     SC253153  89.556  35.879  69.675
23571DT     SC353154  89.856  35.826  69.566
23572DT     BB153155  89.609  35.966  70.301
23572DT     BB253156  89.314  35.840  70.136
23572DT     BB353157  89.321  35.633  70.128
23572DT     SC153158  89.501  35.639  69.937
23572DT     SC253159  89.412  35.570  69.754
23572DT     SC353160  89.729  35.604  69.811
23573DG     BB153161  88.979  35.740  70.322
23573DG     BB253162  88.911  35.515  70.047
23573DG     BB353163  88.958  35.328  70.099
23573DG     SC153164  89.248  35.347  70.003
23573DG     SC253165  89.367  35.197  69.773
23573DG     SC353166  89.576  35.340  69.926
23573DG     SC453167  89.360  35.401  70.104
23574DG     BB153168  88.648  35.254  70.028
23574DG     BB253169  88.785  35.037  69.773
23574DG     BB353170  88.843  34.865  69.854
23574DG     SC153171  89.128  34.962  69.914
23574DG     SC253172  89.378  34.860  69.786
23574DG     SC353173  89.440  35.040  70.013
23574DG     SC453174  89.157  35.034  70.054
23575DT     BB153175  88.749  34.692  69.786
23575DT     BB253176  89.006  34.538  69.585
23575DT     BB353177  89.101  34.389  69.693
23575DT     SC153178  89.231  34.565  69.838
23575DT     SC253179  89.440  34.558  69.787
23575DT     SC353180  89.312  34.702  70.048
23576DC     BB153181  88.978  34.211  69.534
23576DC     BB253182  89.330  34.134  69.504
23576DC     BB353183  89.388  34.010  69.659
23576DC     SC153184  89.383  34.208  69.831
23576DC     SC253185  89.584  34.256  69.891
23576DC     SC353186  89.312  34.355  70.038
23577DT     BB153187  89.407  33.799  69.487
23577DT     BB253188  89.731  33.815  69.643
23577DT     BB353189  89.730  33.709  69.821
23577DT     SC153190  89.593  33.898  69.942
23577DT     SC253191  89.719  33.995  70.087
23577DT     SC353192  89.397  34.019  70.068
23578DT     BB153193  89.877  33.493  69.720
23578DT     BB253194  90.065  33.598  70.010
23578DT     BB353195  89.998  33.497  70.178
23578DT     SC153196  89.781  33.645  70.188
23578DT     SC253197  89.791  33.774  70.360
23578DT     SC353198  89.526  33.712  70.184
23579DT     BB153199  90.216  33.311  70.206
23579DT     BB253200  90.205  33.476  70.527
23579DT     BB353201  90.086  33.368  70.657
23579DT     SC153202  89.867  33.450  70.538
23579DT     SC253203  89.761  33.585  70.668
23579DT     SC353204  89.641  33.444  70.402
23580DA     BB153205  90.447  33.397  70.872
23580DA     BB253206  90.179  33.511  71.095
23580DA     BB353207  90.072  33.344  71.173
23580DA     SC153208  89.862  33.339  70.943
23580DA     SC253209  89.619  33.388  70.913
23580DA     SC353210  89.637  33.244  70.702
23580DA     SC453211  89.893  33.245  70.817
23581DT     BB153212  90.076  33.293  71.383
23581DT     BB253213  89.748  33.425  71.457
23581DT     BB353214  89.616  33.269  71.495
23581DT     SC153215  89.603  33.208  71.241
23581DT     SC253216  89.407  33.258  71.166
23581DT     SC353217  89.626  33.071  71.017
23582DG     BB153218  89.622  33.519  71.816
23582DG     BB253219  89.287  33.471  71.690
23582DG     BB353220  89.217  33.294  71.749
23582DG     SC153221  89.323  33.143  71.505
23582DG     SC253222  89.156  33.015  71.293
23582DG     SC353223  89.442  32.942  71.262
23582DG     SC453224  89.471  33.083  71.509
23583DG     BB153225  88.980  33.475  71.874
23583DG     BB253226  88.763  33.296  71.646
23583DG     BB353227  88.720  33.116  71.720
23583DG     SC153228  88.960  32.979  71.588
23583DG     SC253229  88.947  32.773  71.372
23583DG     SC353230  89.223  32.800  71.476
23583DG     SC453231  89.100  32.975  71.666
23584DT     BB153232  88.521  33.081  71.755
23584DT     BB253233  88.437  32.853  71.488
23584DT     BB353234  88.440  32.658  71.557
23584DT     SC153235  88.703  32.655  71.561
23584DT     SC253236  88.775  32.523  71.408
23584DT     SC353237  88.949  32.641  71.654
23585DT     BB153238  88.174  32.661  71.535
23585DT     BB253239  88.282  32.381  71.334
23585DT     BB353240  88.308  32.215  71.453
23585DT     SC153241  88.533  32.311  71.550
23585DT     SC253242  88.698  32.194  71.477
23585DT     SC353243  88.708  32.404  71.724
23586DT     BB153244  88.085  32.104  71.348
23586DT     BB253245  88.344  31.861  71.286
23586DT     BB353246  88.366  31.737  71.451
23586DT     SC153247  88.488  31.926  71.586
23586DT     SC253248  88.695  31.872  71.611
23586DT     SC353249  88.538  32.104  71.774
23587DC     BB153250  88.248  31.527  71.319
23587DC     BB253251  88.571  31.401  71.418
23587DC     BB353252  88.560  31.321  71.609
23587DC     SC153253  88.550  31.559  71.717
23587DC     SC253254  88.734  31.597  71.824
23587DC     SC353255  88.459  31.768  71.852
23588DA     BB153256  88.733  31.030  71.362
23588DA     BB253257  88.946  31.068  71.659
23588DA     BB353258  88.852  30.978  71.828
23588DA     SC153259  88.705  31.238  71.915
23588DA     SC253260  88.718  31.404  72.101
23588DA     SC353261  88.478  31.466  72.035
23588DA     SC453262  88.556  31.262  71.860
23589DG     BB153263  89.112  30.813  71.820
23589DG     BB253264  89.170  30.979  72.136
23589DG     BB353265  89.068  30.888  72.280
23589DG     SC153266  88.817  31.060  72.245
23589DG     SC253267  88.710  31.256  72.442
23589DG     SC353268  88.519  31.215  72.220
23589DG     SC453269  88.705  31.013  72.140
23590DA     BB153270  89.378  30.902  72.426
23590DA     BB253271  89.233  31.093  72.703
23590DA     BB353272  89.110  30.967  72.824
23590DA     SC153273  88.850  31.025  72.663
23590DA     SC253274  88.635  31.145  72.698
23590DA     SC353275  88.546  31.002  72.505
23590DA     SC453276  88.814  30.925  72.542
23591DT     BB153277  89.176  30.943  73.000
23591DT     BB253278  88.931  31.147  73.169
23591DT     BB353279  88.788  31.026  73.257
23591DT     SC153280  88.677  30.975  73.025
23591DT     SC253281  88.484  31.071  73.015
23591DT     SC353282  88.592  30.841  72.814
23592DA     BB153283  88.933  31.301  73.539
23592DA     BB253284  88.566  31.304  73.554
23592DA     BB353285  88.494  31.123  73.643
23592DA     SC153286  88.470  30.971  73.372
23592DA     SC253287  88.289  30.885  73.224
23592DA     SC353288  88.469  30.733  73.125
23592DA     SC453289  88.596  30.884  73.325
23593DT     BB153290  88.405  31.143  73.814
23593DT     BB253291  88.068  31.084  73.698
23593DT     BB353292  88.009  30.892  73.749
23593DT     SC153293  88.159  30.788  73.560
23593DT     SC253294  88.033  30.707  73.405
23593DT     SC353295  88.350  30.648  73.443
23594DA     BB153296  87.714  31.160  73.876
23594DA     BB253297  87.548  30.885  73.698
23594DA     BB353298  87.553  30.708  73.816
23594DA     SC153299  87.822  30.606  73.697
23594DA     SC253300  87.900  30.423  73.548
23594DA     SC353301  88.131  30.465  73.651
23594DA     SC453302  87.957  30.647  73.774
23595DA     BB153303  87.233  30.730  73.745
23595DA     BB253304  87.265  30.400  73.589
23595DA     BB353305  87.288  30.249  73.738
23595DA     SC153306  87.599  30.265  73.741
23595DA     SC253307  87.792  30.123  73.671
23595DA     SC353308  87.930  30.266  73.833
23595DA     SC453309  87.667  30.364  73.847
23596DT     BB153310  87.141  30.117  73.758
23596DT     BB253311  87.312  29.831  73.619
23596DT     BB353312  87.374  29.705  73.771
23596DT     SC153313  87.569  29.868  73.837
23596DT     SC253314  87.757  29.777  73.785
23596DT     SC353315  87.716  30.034  73.979
23597DA     BB153316  87.157  29.454  73.512
23597DA     BB253317  87.468  29.280  73.596
23597DA     BB353318  87.460  29.205  73.795
23597DA     SC153319  87.582  29.461  73.923
23597DA     SC253320  87.795  29.527  74.035
23597DA     SC353321  87.660  29.723  74.131
23597DA     SC453322  87.481  29.574  73.974
23598DT     BB153323  87.445  28.983  73.862
23598DT     BB253324  87.781  28.950  73.989
23598DT     BB353325  87.777  28.934  74.196
23598DT     SC153326  87.725  29.189  74.223
23598DT     SC253327  87.896  29.289  74.308
23598DT     SC353328  87.596  29.411  74.286
23599DA     BB153329  87.981  28.562  74.133
23599DA     BB253330  88.171  28.737  74.393
23599DA     BB353331  88.078  28.710  74.583
23599DA     SC153332  87.900  28.963  74.560
23599DA     SC253333  87.885  29.189  74.666
23599DA     SC353334  87.643  29.191  74.578
23599DA     SC453335  87.752  28.945  74.498
23600DA     BB153336  88.347  28.559  74.756
23600DA     BB253337  88.363  28.854  74.973
23600DA     BB353338  88.237  28.829  75.143
23600DA     SC153339  87.988  28.957  75.007
23600DA     SC253340  87.852  29.165  75.029
23600DA     SC353341  87.669  29.034  74.906
23600DA     SC453342  87.886  28.858  74.931
23601DA     BB153343  88.493  28.876  75.360
23601DA     BB253344  88.328  29.186  75.466
23601DA     BB353345  88.186  29.146  75.620
23601DA     SC153346  87.949  29.102  75.423
23601DA     SC253347  87.738  29.219  75.359
23601DA     SC353348  87.664  28.991  75.267
23601DA     SC453349  87.921  28.952  75.373
23602DT     BB153350  88.215  29.223  75.814
23602DT     BB253351  87.977  29.492  75.779
23602DT     BB353352  87.809  29.453  75.893
23602DT     SC153353  87.724  29.273  75.722
23602DT     SC253354  87.549  29.347  75.622
23602DT     SC353355  87.653  29.039  75.623
23603DT     BB153356  87.889  29.652  76.052
23603DT     BB253357  87.563  29.752  75.933
23603DT     BB353358  87.416  29.668  76.052
23603DT     SC153359  87.452  29.431  75.944
23603DT     SC253360  87.281  29.381  75.824
23603DT     SC353361  87.513  29.176  75.921
23604DA     BB153362  87.355  30.080  76.002
23604DA     BB253363  87.040  29.906  75.930
23604DA     BB353364  86.956  29.827  76.110
23604DA     SC153365  87.100  29.552  76.085
23604DA     SC253366  87.039  29.315  76.039
23604DA     SC353367  87.263  29.257  76.149
23604DA     SC453368  87.243  29.536  76.159
23605DC     BB153369  86.790  29.906  76.159
23605DC     BB253370  86.581  29.626  76.069
23605DC     BB353371  86.528  29.519  76.239
23605DC     SC153372  86.768  29.415  76.257
23605DC     SC253373  86.758  29.205  76.212
23605DC     SC353374  87.007  29.357  76.353
23606DG     BB153375  86.182  29.636  76.057
23606DG     BB253376  86.186  29.280  76.119
23606DG     BB353377  86.146  29.244  76.310
23606DG     SC153378  86.439  29.255  76.399
23606DG     SC253379  86.600  29.026  76.502
23606DG     SC353380  86.747  29.280  76.534
23606DG     SC453381  86.502  29.396  76.441
23607DA     BB153382  85.903  29.028  76.194
23607DA     BB253383  86.071  28.749  76.363
23607DA     BB353384  86.031  28.755  76.572
23607DA     SC153385  86.280  28.930  76.639
23607DA     SC253386  86.499  28.902  76.754
23607DA     SC353387  86.498  29.158  76.774
23607DA     SC453388  86.260  29.089  76.642
23608DA     BB153389  85.946  28.452  76.491
23608DA     BB253390  86.212  28.343  76.719
23608DA     BB353391  86.152  28.372  76.922
23608DA     SC153392  86.270  28.659  76.941
23608DA     SC253393  86.459  28.773  77.057
23608DA     SC353394  86.328  28.989  77.015
23608DA     SC453395  86.173  28.782  76.907
23609DT     BB153396  86.144  28.213  76.999
23609DT     BB253397  86.445  28.245  77.195
23609DT     BB353398  86.397  28.305  77.388
23609DT     SC153399  86.348  28.550  77.308
23609DT     SC253400  86.501  28.682  77.383
23609DT     SC353401  86.216  28.773  77.257
23610DA     BB153402  86.677  27.990  77.346
23610DA     BB253403  86.806  28.237  77.584
23610DA     BB353404  86.683  28.243  77.759
23610DA     SC153405  86.495  28.465  77.648
23610DA     SC253406  86.447  28.705  77.694
23610DA     SC353407  86.225  28.663  77.572
23610DA     SC453408  86.363  28.418  77.570
23611DT     BB153409  86.782  28.190  77.894
23611DT     BB253410  86.811  28.508  78.061
23611DT     BB353411  86.666  28.524  78.208
23611DT     SC153412  86.478  28.565  78.029
23611DT     SC253413  86.409  28.768  78.043
23611DT     SC353414  86.260  28.527  77.885
23612DA     BB153415  87.040  28.620  78.374
23612DA     BB253416  86.798  28.874  78.481
23612DA     BB353417  86.661  28.792  78.622
23612DA     SC153418  86.454  28.703  78.407
23612DA     SC253419  86.226  28.769  78.333
23612DA     SC353420  86.216  28.535  78.226
23612DA     SC453421  86.467  28.554  78.349
23613DC     BB153422  86.663  28.856  78.818
23613DC     BB253423  86.356  29.045  78.809
23613DC     BB353424  86.206  28.942  78.908
23613DC     SC153425  86.181  28.772  78.710
23613DC     SC253426  85.992  28.804  78.612
23613DC     SC353427  86.182  28.545  78.576
23614DT     BB153428  86.215  29.117  79.119
23614DT     BB253429  85.871  29.125  79.012
23614DT     BB353430  85.764  28.977  79.108
23614DT     SC153431  85.871  28.790  78.958
23614DT     SC253432  85.722  28.711  78.825
23614DT     SC353433  86.011  28.578  78.888
23615DT     BB153434  85.639  29.166  79.258
23615DT     BB253435  85.370  28.987  79.097
23615DT     BB353436  85.317  28.822  79.210
23615DT     SC153437  85.532  28.691  79.135
23615DT     SC253438  85.476  28.529  79.006
23615DT     SC353439  85.764  28.567  79.149
23616DA     BB153440  84.974  29.042  79.113
23616DA     BB253441  84.907  28.689  79.042
23616DA     BB353442  84.887  28.579  79.223
23616DA     SC153443  85.189  28.505  79.241
23616DA     SC253444  85.330  28.301  79.218
23616DA     SC353445  85.507  28.434  79.349
23616DA     SC453446  85.284  28.604  79.324
23617DC     BB153447  84.715  28.510  79.248
23617DC     BB253448  84.790  28.161  79.196
23617DC     BB353449  84.811  28.065  79.378
23617DC     SC153450  85.046  28.174  79.418
23617DC     SC253451  85.198  28.022  79.404
23617DC     SC353452  85.237  28.320  79.526
23618DT     BB153453  84.572  27.942  79.340
23618DT     BB253454  84.797  27.671  79.416
23618DT     BB353455  84.814  27.648  79.622
23618DT     SC153456  84.965  27.862  79.641
23618DT     SC253457  85.165  27.802  79.693
23618DT     SC353458  85.046  28.103  79.710
23619DT     BB153459  84.638  27.414  79.669
23619DT     BB253460  84.937  27.317  79.846
23619DT     BB353461  84.923  27.372  80.045
23619DT     SC153462  84.965  27.625  79.986
23619DT     SC253463  85.158  27.684  80.059
23619DT     SC353464  84.923  27.884  79.960
23620DA     BB153465  84.946  26.954  80.195
23620DA     BB253466  85.182  27.139  80.406
23620DA     BB353467  85.081  27.226  80.572
23620DA     SC153468  85.019  27.494  80.427
23620DA     SC253469  85.092  27.732  80.440
23620DA     SC353470  84.874  27.784  80.315
23620DA     SC453471  84.879  27.506  80.350
23621DC     BB153472  85.049  27.197  80.890
23621DC     BB253473  85.261  27.481  80.959
23621DC     BB353474  85.156  27.623  81.068
23621DC     SC153475  85.021  27.697  80.855
23621DC     SC253476  85.083  27.894  80.796
23621DC     SC353477  84.818  27.739  80.692
23622DA     BB153478  85.465  27.574  81.357
23622DA     BB253479  85.450  27.933  81.283
23622DA     BB353480  85.298  28.027  81.399
23622DA     SC153481  85.075  27.985  81.187
23622DA     SC253482  84.940  28.126  81.031
23622DA     SC353483  84.777  27.928  81.026
23622DA     SC453484  84.985  27.852  81.198
23623DC     BB153485  85.339  28.179  81.559
23623DC     BB253486  85.248  28.463  81.356
23623DC     BB353487  85.074  28.549  81.427
23623DC     SC153488  84.928  28.353  81.330
23623DC     SC253489  84.810  28.427  81.166
23623DC     SC353490  84.766  28.146  81.321
23624DT     BB153491  85.217  28.763  81.516
23624DT     BB253492  84.980  28.900  81.282
23624DT     BB353493  84.802  28.945  81.379
23624DT     SC153494  84.737  28.691  81.392
23624DT     SC253495  84.570  28.654  81.261
23624DT     SC353496  84.678  28.455  81.493
23625DC     BB153497  84.865  29.202  81.345
23625DC     BB253498  84.548  29.160  81.179
23625DC     BB353499  84.394  29.178  81.315
23625DC     SC153500  84.444  28.941  81.415
23625DC     SC253501  84.284  28.806  81.364
23625DC     SC353502  84.511  28.754  81.588
23626DT     BB153503  84.334  29.413  81.199
23626DT     BB253504  84.033  29.215  81.170
23626DT     BB353505  83.920  29.232  81.343
23626DT     SC153506  84.085  29.077  81.476
23626DT     SC253507  83.987  28.890  81.519
23626DT     SC353508  84.261  28.997  81.656
23627DG     BB153509  83.692  29.346  81.026
23627DG     BB253510  83.530  29.090  81.223
23627DG     BB353511  83.452  29.170  81.387
23627DG     SC153512  83.705  29.128  81.555
23627DG     SC253513  83.732  28.944  81.789
23627DG     SC353514  83.971  29.116  81.763
23627DG     SC453515  83.817  29.242  81.556
23628DT     BB153516  83.245  29.154  81.411
23628DT     BB253517  83.221  28.897  81.663
23628DT     BB353518  83.185  28.983  81.848
23628DT     SC153519  83.433  29.066  81.867
23628DT     SC253520  83.534  28.954  82.021
23628DT     SC353521  83.640  29.229  81.885
23629DG     BB153522  82.910  28.701  81.748
23629DG     BB253523  83.060  28.637  82.071
23629DG     BB353524  82.987  28.764  82.206
23629DG     SC153525  83.201  28.977  82.156
23629DG     SC253526  83.412  29.062  82.351
23629DG     SC353527  83.408  29.240  82.114
23629DG     SC453528  83.177  29.087  82.043
23630DA     BB153529  82.971  28.454  82.350
23630DA     BB253530  83.171  28.585  82.627
23630DA     BB353531  83.060  28.732  82.735
23630DA     SC153532  83.163  28.971  82.564
23630DA     SC253533  83.313  29.168  82.593
23630DA     SC353534  83.191  29.265  82.389
23630DA     SC453535  83.074  29.014  82.437
23631DT     BB153536  83.042  28.667  82.893
23631DT     BB253537  83.260  28.894  83.069
23631DT     BB353538  83.151  29.053  83.144
23631DT     SC153539  83.129  29.160  82.906
23631DT     SC253540  83.246  29.340  82.897
23631DT     SC353541  83.019  29.251  82.684
23632DT     BB153542  83.192  28.945  83.384
23632DT     BB253543  83.307  29.286  83.416
23632DT     BB353544  83.147  29.411  83.455
23632DT     SC153545  83.064  29.396  83.206
23632DT     SC253546  83.094  29.586  83.110
23632DT     SC353547  82.911  29.343  82.998
23633DC     BB153548  83.210  29.445  83.726
23633DC     BB253549  83.181  29.783  83.604
23633DC     BB353550  82.985  29.849  83.624
23633DC     SC153551  82.907  29.702  83.420
23633DC     SC253552  82.856  29.831  83.256
23633DC     SC353553  82.781  29.517  83.282
23634DA     BB153554  83.183  30.153  83.840
23634DA     BB253555  82.953  30.322  83.609
23634DA     BB353556  82.754  30.316  83.685
23634DA     SC153557  82.682  30.048  83.543
23634DA     SC253558  82.535  29.972  83.356
23634DA     SC353559  82.555  29.740  83.463
23634DA     SC453560  82.705  29.912  83.625
23635DA     BB153561  82.736  30.651  83.669
23635DA     BB253562  82.467  30.613  83.422
23635DA     BB353563  82.280  30.582  83.521
23635DA     SC153564  82.305  30.272  83.522
23635DA     SC253565  82.197  30.077  83.411
23635DA     SC353566  82.292  29.939  83.605
23635DA     SC453567  82.372  30.203  83.652
23636DG     BB153568  82.177  30.848  83.389
23636DG     BB253569  81.956  30.624  83.211
23636DG     BB353570  81.791  30.593  83.316
23636DG     SC153571  81.903  30.351  83.467
23636DG     SC253572  81.808  30.069  83.441
23636DG     SC353573  82.000  30.096  83.665
23636DG     SC453574  81.982  30.375  83.604
23637DA     BB153575  81.635  30.678  83.024
23637DA     BB253576  81.474  30.349  83.015
23637DA     BB353577  81.314  30.341  83.155
23637DA     SC153578  81.490  30.234  83.388
23637DA     SC253579  81.517  30.023  83.517
23637DA     SC353580  81.630  30.170  83.695
23637DA     SC453581  81.556  30.343  83.487
23638DT     BB153582  81.164  30.317  83.063
23638DT     BB253583  81.108  29.972  83.155
23638DT     BB353584  80.975  29.961  83.313
23638DT     SC153585  81.158  30.042  83.482
23638DT     SC253586  81.212  29.879  83.612
23638DT     SC353587  81.284  30.191  83.660
23639DC     BB153588  80.824  29.859  83.127
23639DC     BB253589  80.832  29.613  83.391
23639DC     BB353590  80.700  29.666  83.541
23639DC     SC153591  80.862  29.854  83.627
23639DC     SC253592  80.942  29.797  83.818
23639DC     SC353593  80.954  30.093  83.688
23640DC     BB153594  80.548  29.464  83.458
23640DC     BB253595  80.591  29.405  83.811
23640DC     BB353596  80.454  29.517  83.918
23640DC     SC153597  80.589  29.738  83.876
23640DC     SC253598  80.677  29.804  84.060
23640DC     SC353599  80.648  29.980  83.790
23641DG     BB153600  80.356  29.134  84.030
23641DG     BB253601  80.387  29.347  84.321
23641DG     BB353602  80.221  29.453  84.346
23641DG     SC153603  80.316  29.687  84.173
23641DG     SC253604  80.377  29.963  84.270
23641DG     SC353605  80.380  29.952  83.974
23641DG     SC453606  80.288  29.684  84.016
23642DT     BB153607  80.046  29.445  84.530
23642DT     BB253608  80.120  29.749  84.709
23642DT     BB353609  79.970  29.888  84.677
23642DT     SC153610  80.056  29.937  84.434
23642DT     SC253611  80.140  30.135  84.426
23642DT     SC353612  80.059  29.952  84.171
23643DA     BB153613  79.960  29.875  85.100
23643DA     BB253614  79.975  30.230  85.007
23643DA     BB353615  79.782  30.299  84.947
23643DA     SC153616  79.823  30.230  84.647
23643DA     SC253617  79.853  30.353  84.432
23643DA     SC353618  79.781  30.134  84.320
23643DA     SC453619  79.775  30.086  84.596
23644DT     BB153620  79.645  30.452  85.060
23644DT     BB253621  79.710  30.729  84.837
23644DT     BB353622  79.538  30.776  84.732
23644DT     SC153623  79.565  30.565  84.578
23644DT     SC253624  79.616  30.627  84.379
23644DT     SC353625  79.513  30.332  84.465
23645DG     BB153626  79.624  31.122  84.932
23645DG     BB253627  79.592  31.182  84.577
23645DG     BB353628  79.400  31.200  84.528
23645DG     SC153629  79.361  30.901  84.473
23645DG     SC253630  79.305  30.777  84.208
23645DG     SC353631  79.278  30.578  84.425
23645DG     SC453632  79.319  30.805  84.594
23646DA     BB153633  79.488  31.498  84.376
23646DA     BB253634  79.376  31.367  84.053
23646DA     BB353635  79.163  31.373  84.039
23646DA     SC153636  79.122  31.088  84.156
23646DA     SC253637  79.047  30.864  84.075
23646DA     SC353638  79.004  30.812  84.322
23646DA     SC453639  79.101  31.075  84.315
23647DC     BB153640  79.090  31.494  83.904
23647DC     BB253641  78.993  31.238  83.668
23647DC     BB353642  78.788  31.210  83.675
23647DC     SC153643  78.806  31.081  83.903
23647DC     SC253644  78.760  30.873  83.872
23647DC     SC353645  78.775  31.023  84.159
23648DT     BB153646  78.777  31.326  83.434
23648DT     BB253647  78.629  31.000  83.388
23648DT     BB353648  78.429  31.006  83.439
23648DT     SC153649  78.486  31.012  83.695
23648DT     SC253650  78.428  30.826  83.786
23648DT     SC353651  78.502  31.099  83.944
23649DT     BB153652  78.375  30.981  83.178
23649DT     BB253653  78.208  30.702  83.334
23649DT     BB353654  78.022  30.761  83.403
23649DT     SC153655  78.128  30.890  83.605
23649DT     SC253656  78.082  30.787  83.788
23649DT     SC353657  78.198  31.089  83.764
23650DT     BB153658  77.919  30.614  83.206
23650DT     BB253659  77.773  30.482  83.508
23650DT     BB353660  77.607  30.594  83.562
23650DT     SC153661  77.758  30.791  83.647
23650DT     SC253662  77.744  30.804  83.861
23650DT     SC353663  77.867  31.030  83.664
23651DT     BB153664  77.449  30.387  83.488
23651DT     BB253665  77.358  30.452  83.831
23651DT     BB353666  77.213  30.600  83.839
23651DT     SC153667  77.390  30.787  83.785
23651DT     SC253668  77.419  30.909  83.959
23651DT     SC353669  77.514  30.981  83.658
23652DT     BB153670  77.022  30.416  83.905
23652DT     BB253671  77.005  30.660  84.170
23652DT     BB353672  76.877  30.813  84.117
23652DT     SC153673  77.053  30.914  83.951
23652DT     SC253674  77.126  31.101  84.028
23652DT     SC353675  77.164  30.993  83.725
23653DA     BB153676  76.735  30.684  84.491
23653DA     BB253677  76.761  31.049  84.504
23653DA     BB353678  76.601  31.139  84.396
23653DA     SC153679  76.757  31.150  84.127
23653DA     SC253680  76.858  31.324  83.979
23653DA     SC353681  76.848  31.145  83.796
23653DA     SC453682  76.741  31.026  84.026
23654DA     BB153683  76.534  31.303  84.676
23654DA     BB253684  76.603  31.614  84.493
23654DA     BB353685  76.436  31.668  84.373
23654DA     SC153686  76.534  31.513  84.122
23654DA     SC253687  76.621  31.565  83.895
23654DA     SC353688  76.553  31.326  83.835
23654DA     SC453689  76.483  31.361  84.104
23655DG     BB153690  76.418  31.932  84.542
23655DG     BB253691  76.506  32.088  84.227
23655DG     BB353692  76.342  32.121  84.120
23655DG     SC153693  76.349  31.849  83.980
23655DG     SC253694  76.398  31.803  83.689
23655DG     SC353695  76.315  31.553  83.822
23655DG     SC453696  76.276  31.724  84.048
23656DA     BB153697  76.454  32.445  84.094
23656DA     BB253698  76.472  32.410  83.730
23656DA     BB353699  76.277  32.425  83.644
23656DA     SC153700  76.220  32.119  83.659
23656DA     SC253701  76.195  31.928  83.501
23656DA     SC353702  76.073  31.811  83.694
23656DA     SC453703  76.146  32.064  83.791
23657DA     BB153704  76.456  32.638  83.480
23657DA     BB253705  76.377  32.439  83.183
23657DA     BB353706  76.173  32.467  83.127
23657DA     SC153707  76.068  32.229  83.299
23657DA     SC253708  75.972  32.003  83.262
23657DA     SC353709  75.882  32.024  83.501
23657DA     SC453710  76.020  32.262  83.449
23658DA     BB153711  76.358  32.513  82.863
23658DA     BB253712  76.164  32.239  82.714
23658DA     BB353713  75.962  32.301  82.682
23658DA     SC153714  75.862  32.204  82.960
23658DA     SC253715  75.716  32.023  83.051
23658DA     SC353716  75.699  32.171  83.260
23658DA     SC453717  75.863  32.310  83.080
23659DT     BB153718  75.937  32.295  82.509
23659DT     BB253719  75.716  32.010  82.500
23659DT     BB353720  75.519  32.072  82.504
23659DT     SC153721  75.534  32.131  82.759
23659DT     SC253722  75.415  31.991  82.872
23659DT     SC353723  75.534  32.272  82.982
23660DT     BB153724  75.517  31.989  82.255
23660DT     BB253725  75.242  31.817  82.413
23660DT     BB353726  75.077  31.942  82.423
23660DT     SC153727  75.184  32.081  82.619
23660DT     SC253728  75.076  32.044  82.801
23660DT     SC353729  75.287  32.284  82.751
23661DT     BB153730  74.943  31.809  82.220
23661DT     BB253731  74.703  31.813  82.488
23661DT     BB353732  74.588  31.985  82.477
23661DT     SC153733  74.785  32.132  82.568
23661DT     SC253734  74.737  32.202  82.766
23661DT     SC353735  74.974  32.316  82.577
23662DA     BB153736  74.290  31.688  82.480
23662DA     BB253737  74.184  31.943  82.721
23662DA     BB353738  74.103  32.112  82.619
23662DA     SC153739  74.376  32.261  82.599
23662DA     SC253740  74.483  32.463  82.698
23662DA     SC353741  74.643  32.452  82.497
23662DA     SC453742  74.464  32.238  82.467
23663DT     BB153743  73.884  32.177  82.619
23663DT     BB253744  73.923  32.466  82.832
23663DT     BB353745  73.895  32.639  82.722
23663DT     SC153746  74.130  32.614  82.608
23663DT     SC253747  74.261  32.769  82.680
23663DT     SC353748  74.313  32.581  82.421
23664DT     BB153749  73.631  32.706  82.817
23664DT     BB253750  73.818  33.007  82.882
23664DT     BB353751  73.800  33.138  82.722
23664DT     SC153752  73.963  32.993  82.575
23664DT     SC253753  74.147  33.101  82.546
23664DT     SC353754  74.051  32.841  82.379
23665DT     BB153755  73.611  33.330  82.836
23665DT     BB253756  73.884  33.541  82.731
23665DT     BB353757  73.847  33.615  82.542
23665DT     SC153758  73.901  33.384  82.431
23665DT     SC253759  74.085  33.399  82.321
23665DT     SC353760  73.869  33.159  82.298
23666DT     BB153761  73.764  33.897  82.601
23666DT     BB253762  74.034  33.942  82.366
23666DT     BB353763  73.958  33.965  82.175
23666DT     SC153764  73.903  33.709  82.158
23666DT     SC253765  74.035  33.617  82.015
23666DT     SC353766  73.764  33.486  82.135
23667DT     BB153767  73.982  34.264  82.124
23667DT     BB253768  74.163  34.122  81.847
23667DT     BB353769  74.041  34.113  81.680
23667DT     SC153770  73.909  33.909  81.779
23667DT     SC253771  73.954  33.732  81.664
23667DT     SC353772  73.709  33.765  81.874
23668DA     BB153773  74.352  34.346  81.511
23668DA     BB253774  74.300  34.062  81.285
23668DA     BB353775  74.137  34.100  81.153
23668DA     SC153776  73.924  33.975  81.341
23668DA     SC253777  73.777  33.773  81.345
23668DA     SC353778  73.636  33.903  81.515
23668DA     SC453779  73.849  34.073  81.444
23669DC     BB153780  74.149  34.131  80.916
23669DC     BB253781  74.037  33.797  80.842
23669DC     BB353782  73.854  33.803  80.745
23669DC     SC153783  73.729  33.863  80.967
23669DC     SC253784  73.607  33.696  81.028
23669DC     SC353785  73.586  33.999  81.143
23670DA     BB153786  74.128  33.566  80.544
23670DA     BB253787  73.826  33.367  80.606
23670DA     BB353788  73.669  33.429  80.475
23670DA     SC153789  73.555  33.641  80.672
23670DA     SC253790  73.352  33.672  80.813
23670DA     SC353791  73.414  33.921  80.812
23670DA     SC453792  73.610  33.792  80.659
23671DA     BB153793  73.728  33.109  80.498
23671DA     BB253794  73.381  33.091  80.615
23671DA     BB353795  73.247  33.153  80.461
23671DA     SC153796  73.248  33.452  80.545
23671DA     SC253797  73.089  33.616  80.646
23671DA     SC353798  73.243  33.795  80.548
23671DA     SC453799  73.355  33.549  80.474
23672DA     BB153800  73.170  32.873  80.623
23672DA     BB253801  72.853  33.045  80.690
23672DA     BB353802  72.753  33.090  80.507
23672DA     SC153803  72.885  33.370  80.475
23672DA     SC253804  72.815  33.609  80.488
23672DA     SC353805  73.028  33.657  80.352
23672DA     SC453806  73.021  33.379  80.390
23673DC     BB153807  72.612  33.001  80.522
23673DC     BB253808  72.383  33.278  80.556
23673DC     BB353809  72.318  33.339  80.369
23673DC     SC153810  72.548  33.455  80.318
23673DC     SC253811  72.521  33.668  80.316
23673DC     SC353812  72.779  33.508  80.202
23674DT     BB153813  72.079  33.231  80.427
23674DT     BB253814  72.004  33.570  80.331
23674DT     BB353815  71.990  33.584  80.125
23674DT     SC153816  72.251  33.569  80.098
23674DT     SC253817  72.327  33.759  80.032
23674DT     SC353818  72.488  33.478  80.029
23675DT     BB153819  71.708  33.601  80.113
23675DT     BB253820  71.817  33.891  79.928
23675DT     BB353821  71.837  33.843  79.727
23675DT     SC153822  72.060  33.711  79.774
23675DT     SC253823  72.225  33.820  79.689
23675DT     SC353824  72.231  33.512  79.790
23676DT     BB153825  71.597  33.969  79.623
23676DT     BB253826  71.862  34.117  79.428
23676DT     BB353827  71.889  34.010  79.253
23676DT     SC153828  72.008  33.815  79.381
23676DT     SC253829  72.217  33.812  79.328
23676DT     SC353830  72.055  33.575  79.479
23677DA     BB153831  71.827  34.401  79.112
23677DA     BB253832  72.136  34.277  78.959
23677DA     BB353833  72.092  34.145  78.797
23677DA     SC153834  72.091  33.889  78.975
23677DA     SC253835  72.233  33.686  79.006
23677DA     SC353836  72.024  33.583  79.114
23677DA     SC453837  71.951  33.842  79.037
23678DA     BB153838  72.287  34.358  78.652
23678DA     BB253839  72.519  34.078  78.605
23678DA     BB353840  72.452  33.952  78.446
23678DA     SC153841  72.285  33.766  78.632
23678DA     SC253842  72.295  33.532  78.716
23678DA     SC353843  72.044  33.560  78.765
23678DA     SC453844  72.129  33.803  78.653
23679DT     BB153845  72.578  33.962  78.335
23679DT     BB253846  72.717  33.636  78.398
23679DT     BB353847  72.639  33.498  78.265
23679DT     SC153848  72.409  33.494  78.392
23679DT     SC253849  72.385  33.303  78.489
23679DT     SC353850  72.151  33.522  78.440
23680DA     BB153851  73.056  33.498  78.363
23680DA     BB253852  72.924  33.156  78.375
23680DA     BB353853  72.855  33.096  78.183
23680DA     SC153854  72.564  33.197  78.228
23680DA     SC253855  72.337  33.098  78.260
23680DA     SC353856  72.249  33.329  78.191
23680DA     SC453857  72.529  33.347  78.182
23681DA     BB153858  73.047  32.870  78.335
23681DA     BB253859  72.765  32.644  78.272
23681DA     BB353860  72.729  32.626  78.063
23681DA     SC153861  72.527  32.862  78.053
23681DA     SC253862  72.282  32.894  78.019
23681DA     SC353863  72.342  33.137  77.962
23681DA     SC453864  72.585  33.009  78.020
23682DC     BB153865  72.761  32.460  78.016
23682DC     BB253866  72.422  32.363  77.941
23682DC     BB353867  72.383  32.391  77.739
23682DC     SC153868  72.368  32.652  77.771
23682DC     SC253869  72.164  32.715  77.743
23682DC     SC353870  72.424  32.908  77.748
23683DA     BB153871  72.271  31.994  77.823
23683DA     BB253872  72.003  32.148  77.626
23683DA     BB353873  72.065  32.174  77.423
23683DA     SC153874  72.178  32.459  77.469
23683DA     SC253875  72.121  32.693  77.405
23683DA     SC353876  72.366  32.747  77.458
23683DA     SC453877  72.334  32.472  77.506
23684DC     BB153878  71.979  32.064  77.263
23684DC     BB253879  71.788  32.335  77.120
23684DC     BB353880  71.876  32.398  76.944
23684DC     SC153881  72.068  32.520  77.076
23684DC     SC253882  72.045  32.733  77.055
23684DC     SC353883  72.310  32.580  77.163
23685DA     BB153884  71.476  32.320  76.845
23685DA     BB253885  71.560  32.653  76.715
23685DA     BB353886  71.684  32.635  76.542
23685DA     SC153887  71.951  32.644  76.703
23685DA     SC253888  72.142  32.801  76.735
23685DA     SC353889  72.271  32.595  76.816
23685DA     SC453890  72.014  32.504  76.749
23686DA     BB153891  71.446  32.827  76.424
23686DA     BB253892  71.706  33.078  76.365
23686DA     BB353893  71.827  33.023  76.199
23686DA     SC153894  72.034  32.866  76.370
23686DA     SC253895  72.272  32.891  76.441
23686DA     SC353896  72.264  32.639  76.486
23686DA     SC453897  72.010  32.708  76.390
23687DT     BB153898  71.814  33.141  76.050
23687DT     BB253899  72.138  33.296  76.085
23687DT     BB353900  72.271  33.213  75.950
23687DT     SC153901  72.292  32.994  76.094
23687DT     SC253902  72.488  32.984  76.182
23687DT     SC353903  72.276  32.740  76.163
23688DC     BB153904  72.261  33.442  75.814
23688DC     BB253905  72.612  33.393  75.882
23688DC     BB353906  72.694  33.267  75.740
23688DC     SC153907  72.580  33.057  75.848
23688DC     SC253908  72.730  32.932  75.939
23688DC     SC353909  72.424  32.846  75.876
23689DT     BB153910  72.829  33.471  75.609
23689DT     BB253911  73.088  33.231  75.681
23689DT     BB353912  73.102  33.093  75.528
23689DT     SC153913  72.882  32.973  75.606
23689DT     SC253914  72.932  32.779  75.686
23689DT     SC353915  72.635  32.881  75.603
23690DG     BB153916  73.485  33.252  75.493
23690DG     BB253917  73.501  32.891  75.513
23690DG     BB353918  73.470  32.812  75.333
23690DG     SC153919  73.166  32.793  75.366
23690DG     SC253920  73.007  32.541  75.385
23690DG     SC353921  72.829  32.776  75.361
23690DG     SC453922  73.076  32.918  75.324
23691DG     BB153923  73.773  32.642  75.265
23691DG     BB253924  73.584  32.334  75.276
23691DG     BB353925  73.528  32.282  75.092
23691DG     SC153926  73.264  32.436  75.102
23691DG     SC253927  72.990  32.316  75.101
23691DG     SC353928  72.976  32.610  75.072
23691DG     SC453929  73.262  32.590  75.057
23692DG     BB153930  73.689  31.982  75.077
23692DG     BB253931  73.361  31.829  75.065
23692DG     BB353932  73.304  31.806  74.876
23692DG     SC153933  73.169  32.080  74.857
23692DG     SC253934  72.876  32.129  74.825
23692DG     SC353935  73.030  32.380  74.794
23692DG     SC453936  73.256  32.206  74.812
23693DC     BB153937  73.264  31.600  74.783
23693DC     BB253938  72.904  31.597  74.783
23693DC     BB353939  72.833  31.622  74.590
23693DC     SC153940  72.893  31.877  74.592
23693DC     SC253941  72.712  31.993  74.595
23693DC     SC353942  73.008  32.105  74.528
23694DA     BB153943  72.648  31.289  74.766
23694DA     BB253944  72.387  31.502  74.622
23694DA     BB353945  72.390  31.489  74.409
23694DA     SC153946  72.587  31.728  74.373
23694DA     SC253947  72.580  31.962  74.287
23694DA     SC353948  72.834  31.940  74.265
23694DA     SC453949  72.744  31.694  74.366
23695DC     BB153950  72.232  31.408  74.326
23695DC     BB253951  72.089  31.712  74.195
23695DC     BB353952  72.125  31.725  73.991
23695DC     SC153953  72.377  31.787  74.032
23695DC     SC253954  72.409  31.992  73.975
23695DC     SC353955  72.640  31.771  74.029
23696DT     BB153956  71.862  31.670  73.935
23696DT     BB253957  71.925  31.985  73.769
23696DT     BB353958  71.999  31.951  73.579
23696DT     SC153959  72.234  31.882  73.674
23696DT     SC253960  72.378  32.034  73.624
23696DT     SC353961  72.446  31.736  73.732
23697DA     BB153962  71.670  32.204  73.515
23697DA     BB253963  71.954  32.345  73.332
23697DA     BB353964  71.990  32.234  73.153
23697DA     SC153965  72.191  32.037  73.288
23697DA     SC253966  72.435  31.989  73.281
23697DA     SC353967  72.373  31.761  73.380
23697DA     SC453968  72.131  31.900  73.348
23698DA     BB153969  71.961  32.523  72.997
23698DA     BB253970  72.310  32.485  72.894
23698DA     BB353971  72.325  32.352  72.728
23698DA     SC153972  72.361  32.097  72.903
23698DA     SC253973  72.541  31.934  72.956
23698DA     SC353974  72.351  31.778  73.029
23698DA     SC453975  72.228  32.015  72.942
23699DT     BB153976  72.389  32.425  72.543
23699DT     BB253977  72.722  32.288  72.565
23699DT     BB353978  72.742  32.129  72.434
23699DT     SC153979  72.600  31.972  72.590
23699DT     SC253980  72.728  31.822  72.676
23699DT     SC353981  72.404  31.817  72.674
23700DG     BB153982  73.021  32.416  72.377
23700DG     BB253983  73.169  32.091  72.434
23700DG     BB353984  73.151  31.978  72.271
23700DG     SC153985  72.879  31.861  72.352
23700DG     SC253986  72.825  31.576  72.423
23700DG     SC353987  72.573  31.729  72.400
23700DG     SC453988  72.746  31.939  72.310
23701DA     BB153989  73.477  31.946  72.362
23701DA     BB253990  73.427  31.583  72.383
23701DA     BB353991  73.397  31.501  72.189
23701DA     SC153992  73.088  31.532  72.195
23701DA     SC253993  72.888  31.384  72.208
23701DA     SC353994  72.759  31.585  72.114
23701DA     SC453995  73.026  31.668  72.135
23702DA     BB153996  73.622  31.332  72.356
23702DA     BB253997  73.404  31.043  72.294
23702DA     BB353998  73.397  30.999  72.086
23702DA     SC153999  73.151  31.181  72.031
23702DA     SC254000  72.911  31.153  71.971
23702DA     SC354001  72.923  31.397  71.891
23702DA     SC454002  73.179  31.332  71.986
23703DT     BB154003  73.468  30.839  72.063
23703DT     BB254004  73.166  30.661  71.978
23703DT     BB354005  73.145  30.652  71.772
23703DT     SC154006  73.074  30.905  71.760
23703DT     SC254007  72.866  30.918  71.706
23703DT     SC354008  73.080  31.161  71.700
23704DA     BB154009  73.096  30.266  71.930
23704DA     BB254010  72.830  30.322  71.684
23704DA     BB354011  72.910  30.324  71.487
23704DA     SC154012  72.962  30.630  71.483
23704DA     SC254013  72.870  30.832  71.369
23704DA     SC354014  73.092  30.944  71.431
23704DA     SC454015  73.107  30.682  71.530
23705DA     BB154016  72.679  30.093  71.431
23705DA     BB254017  72.545  30.312  71.169
23705DA     BB354018  72.670  30.306  70.996
23705DA     SC154019  72.848  30.544  71.087
23705DA     SC254020  72.889  30.781  71.020
23705DA     SC354021  73.110  30.758  71.148
23705DA     SC454022  72.981  30.510  71.171
23706DG     BB154023  72.429  30.190  70.823
23706DG     BB254024  72.465  30.497  70.635
23706DG     BB354025  72.604  30.475  70.494
23706DG     SC154026  72.835  30.566  70.673
23706DG     SC254027  72.996  30.815  70.638
23706DG     SC354028  73.114  30.641  70.846
23706DG     SC454029  72.911  30.457  70.762
23707DT     BB154030  72.579  30.475  70.243
23707DT     BB254031  72.721  30.797  70.161
23707DT     BB354032  72.903  30.772  70.066
23707DT     SC154033  73.021  30.707  70.291
23707DT     SC254034  73.156  30.864  70.348
23707DT     SC354035  73.150  30.565  70.472
23708DA     BB154036  72.704  31.007  69.777
23708DA     BB254037  73.031  31.163  69.830
23708DA     BB354038  73.182  31.057  69.724
23708DA     SC154039  73.248  30.865  69.960
23708DA     SC254040  73.436  30.827  70.120
23708DA     SC354041  73.333  30.595  70.153
23708DA     SC454042  73.170  30.725  69.966
23709DT     BB154043  73.307  31.130  69.535
23709DT     BB254044  73.614  31.193  69.714
23709DT     BB354045  73.759  31.059  69.655
23709DT     SC154046  73.647  30.864  69.791
23709DT     SC254047  73.771  30.813  69.958
23709DT     SC354048  73.525  30.636  69.843
23710DG     BB154049  73.934  31.416  69.551
23710DG     BB254050  74.154  31.223  69.764
23710DG     BB354051  74.256  31.092  69.655
23710DG     SC154052  74.047  30.870  69.683
23710DG     SC254053  74.082  30.613  69.831
23710DG     SC354054  73.830  30.612  69.677
23710DG     SC454055  73.927  30.862  69.577
23711DT     BB154056  74.496  31.087  69.625
23711DT     BB254057  74.581  30.817  69.848
23711DT     BB354058  74.643  30.652  69.739
23711DT     SC154059  74.397  30.598  69.667
23711DT     SC254060  74.332  30.417  69.764
23711DT     SC354061  74.185  30.561  69.514
23712DA     BB154062  74.929  30.736  70.031
23712DA     BB254063  74.844  30.380  70.055
23712DA     BB354064  74.931  30.273  69.893
23712DA     SC154065  74.684  30.307  69.706
23712DA     SC254066  74.505  30.163  69.610
23712DA     SC354067  74.477  30.350  69.436
23712DA     SC454068  74.683  30.433  69.607
23713DG     BB154069  75.051  30.135  70.138
23713DG     BB254070  74.862  29.854  70.010
23713DG     BB354071  74.959  29.772  69.857
23713DG     SC154072  74.826  29.948  69.645
23713DG     SC254073  74.636  29.856  69.434
23713DG     SC354074  74.714  30.138  69.390
23713DG     SC454075  74.892  30.089  69.608
23714DG     BB154076  74.939  29.503  70.037
23714DG     BB254077  74.751  29.363  69.762
23714DG     BB354078  74.874  29.306  69.617
23714DG     SC154079  74.869  29.577  69.473
23714DG     SC254080  74.752  29.630  69.203
23714DG     SC354081  74.903  29.865  69.301
23714DG     SC454082  74.975  29.689  69.515
23715DA     BB154083  74.704  29.005  69.633
23715DA     BB254084  74.618  29.033  69.277
23715DA     BB354085  74.790  28.993  69.156
23715DA     SC154086  74.882  29.290  69.145
23715DA     SC254087  74.895  29.473  68.977
23715DA     SC354088  75.066  29.580  69.136
23715DA     SC454089  74.986  29.340  69.257
23716DT     BB154090  74.797  28.823  69.037
23716DT     BB254091  74.758  28.987  68.718
23716DT     BB354092  74.939  28.990  68.618
23716DT     SC154093  75.032  29.180  68.774
23716DT     SC254094  75.050  29.362  68.662
23716DT     SC354095  75.182  29.304  68.952
23717DA     BB154096  74.684  28.810  68.336
23717DA     BB254097  74.870  29.073  68.160
23717DA     BB354098  75.069  29.008  68.118
23717DA     SC154099  75.186  29.120  68.384
23717DA     SC254100  75.339  29.304  68.455
23717DA     SC354101  75.368  29.168  68.671
23717DA     SC454102  75.192  29.020  68.510
23718DA     BB154103  75.015  29.071  67.794
23718DA     BB254104  75.283  29.320  67.810
23718DA     BB354105  75.474  29.226  67.792
23718DA     SC154106  75.509  29.186  68.099
23718DA     SC254107  75.653  29.277  68.281
23718DA     SC354108  75.589  29.064  68.410
23718DA     SC454109  75.459  29.047  68.162
23719DT     BB154110  75.609  29.252  67.618
23719DT     BB254111  75.843  29.471  67.784
23719DT     BB354112  76.022  29.373  67.814
23719DT     SC154113  75.921  29.231  68.010
23719DT     SC254114  76.008  29.294  68.196
23719DT     SC354115  75.838  29.022  68.148
23720DT     BB154116  76.146  29.522  67.619
23720DT     BB254117  76.340  29.584  67.916
23720DT     BB354118  76.490  29.442  67.933
23720DT     SC154119  76.319  29.258  68.009
23720DT     SC254120  76.352  29.211  68.216
23720DT     SC354121  76.176  29.037  68.007
23721DA     BB154122  76.647  29.829  67.976
23721DA     BB254123  76.767  29.624  68.255
23721DA     BB354124  76.910  29.481  68.186
23721DA     SC154125  76.698  29.260  68.130
23721DA     SC254126  76.633  29.040  68.226
23721DA     SC354127  76.520  28.998  67.999
23721DA     SC454128  76.636  29.253  67.982
23722DT     BB154129  77.080  29.510  68.257
23722DT     BB254130  77.081  29.231  68.486
23722DT     BB354131  77.187  29.073  68.404
23722DT     SC154132  76.990  29.017  68.239
23722DT     SC254133  76.900  28.831  68.296
23722DT     SC354134  76.858  28.984  68.013
23723DC     BB154135  77.380  29.121  68.583
23723DC     BB254136  77.287  28.777  68.637
23723DC     BB354137  77.389  28.654  68.505
23723DC     SC154138  77.236  28.729  68.305
23723DC     SC254139  77.111  28.565  68.245
23723DC     SC354140  77.163  28.836  68.076
23724DT     BB154141  77.547  28.561  68.707
23724DT     BB254142  77.396  28.266  68.565
23724DT     BB354143  77.509  28.198  68.405
23724DT     SC154144  77.422  28.392  68.251
23724DT     SC254145  77.294  28.310  68.100
23724DT     SC354146  77.423  28.607  68.099
23725DT     BB154147  77.604  27.983  68.549
23725DT     BB254148  77.445  27.837  68.260
23725DT     BB354149  77.581  27.824  68.104
23725DT     SC154150  77.566  28.082  68.059
23725DT     SC254151  77.466  28.116  67.872
23725DT     SC354152  77.638  28.334  68.037
23726DC     BB154153  77.595  27.553  68.133
23726DC     BB254154  77.484  27.604  67.794
23726DC     BB354155  77.647  27.626  67.669
23726DC     SC154156  77.692  27.869  67.756
23726DC     SC254157  77.646  28.010  67.601
23726DC     SC354158  77.813  28.072  67.872
23727DT     BB154159  77.577  27.389  67.573
23727DT     BB254160  77.561  27.616  67.293
23727DT     BB354161  77.750  27.640  67.210
23727DT     SC154162  77.826  27.793  67.409
23727DT     SC254163  77.851  27.994  67.339
23727DT     SC354164  77.960  27.877  67.621
23728DG     BB154165  77.450  27.533  66.954
23728DG     BB254166  77.627  27.830  66.847
23728DG     BB354167  77.809  27.781  66.784
23728DG     SC154168  77.939  27.813  67.060
23728DG     SC254169  78.139  28.021  67.136
23728DG     SC354170  78.109  27.818  67.350
23728DG     SC454171  77.942  27.687  67.159
23729DG     BB154172  77.669  27.954  66.551
23729DG     BB254173  77.948  28.179  66.600
23729DG     BB354174  78.116  28.093  66.535
23729DG     SC154175  78.182  27.963  66.804
23729DG     SC254176  78.414  28.032  66.980
23729DG     SC354177  78.276  27.790  67.078
23729DG     SC454178  78.124  27.818  66.837
23730DC     BB154179  78.168  28.218  66.422
23730DC     BB254180  78.473  28.344  66.569
23730DC     BB354181  78.630  28.218  66.525
23730DC     SC154182  78.547  28.040  66.699
23730DC     SC254183  78.683  28.032  66.865
23730DC     SC354184  78.455  27.813  66.797
23731DA     BB154185  78.741  28.616  66.436
23731DA     BB254186  79.022  28.452  66.606
23731DA     BB354187  79.108  28.303  66.480
23731DA     SC154188  78.927  28.074  66.586
23731DA     SC254189  78.951  27.868  66.724
23731DA     SC354190  78.731  27.794  66.617
23731DA     SC454191  78.790  28.045  66.507
23732DC     BB154192  79.301  28.323  66.395
23732DC     BB254193  79.470  28.069  66.588
23732DC     BB354194  79.501  27.901  66.471
23732DC     SC154195  79.248  27.833  66.487
23732DC     SC254196  79.229  27.656  66.607
23732DC     SC354197  79.000  27.779  66.414
23733DG     BB154198  79.895  27.995  66.553
23733DG     BB254199  79.833  27.645  66.623
23733DG     BB354200  79.844  27.539  66.456
23733DG     SC154201  79.548  27.570  66.386
23733DG     SC254202  79.345  27.352  66.382
23733DG     SC354203  79.233  27.601  66.269
23733DG     SC454204  79.501  27.697  66.300
23734DT     BB154205  80.014  27.354  66.376
23734DT     BB254206  79.811  27.060  66.419
23734DT     BB354207  79.764  26.979  66.234
23734DT     SC154208  79.589  27.169  66.186
23734DT     SC254209  79.390  27.086  66.191
23734DT     SC354210  79.473  27.376  66.072
23735DC     BB154211  79.942  26.753  66.239
23735DC     BB254212  79.618  26.604  66.188
23735DC     BB354213  79.581  26.579  65.986
23735DC     SC154214  79.537  26.836  65.955
23735DC     SC254215  79.329  26.868  65.914
23735DC     SC354216  79.566  27.085  65.872
23736DC     BB154217  79.616  26.301  65.988
23736DC     BB254218  79.281  26.348  65.862
23736DC     BB354219  79.284  26.362  65.656
23736DC     SC154220  79.382  26.605  65.666
23736DC     SC254221  79.232  26.745  65.600
23736DC     SC354222  79.548  26.808  65.635
23737DA     BB154223  79.003  26.069  65.757
23737DA     BB254224  78.842  26.305  65.527
23737DA     BB354225  78.914  26.275  65.328
23737DA     SC154226  79.147  26.479  65.355
23737DA     SC254227  79.207  26.704  65.265
23737DA     SC354228  79.448  26.643  65.332
23737DA     SC454229  79.290  26.422  65.403
23738DA     BB154230  78.591  26.260  65.290
23738DA     BB254231  78.625  26.553  65.073
23738DA     BB354232  78.712  26.497  64.886
23738DA     SC154233  79.005  26.546  64.979
23738DA     SC254234  79.188  26.708  64.933
23738DA     SC354235  79.344  26.528  65.029
23738DA     SC454236  79.085  26.421  65.041
23739DG     BB154237  78.444  26.615  64.793
23739DG     BB254238  78.662  26.859  64.638
23739DG     BB354239  78.739  26.785  64.470
23739DG     SC154240  78.984  26.662  64.607
23739DG     SC254241  79.267  26.749  64.569
23739DG     SC354242  79.254  26.499  64.726
23739DG     SC454243  78.974  26.514  64.665
23740DA     BB154244  78.625  27.086  64.349
23740DA     BB254245  78.967  27.167  64.244
23740DA     BB354246  79.023  27.049  64.076
23740DA     SC154247  79.143  26.819  64.247
23740DA     SC254248  79.368  26.724  64.296
23740DA     SC354249  79.241  26.513  64.369
23740DA     SC454250  79.046  26.696  64.285
23741DG     BB154251  79.055  27.334  63.965
23741DG     BB254252  79.402  27.233  63.941
23741DG     BB354253  79.427  27.115  63.783
23741DG     SC154254  79.369  26.856  63.935
23741DG     SC254255  79.565  26.638  63.992
23741DG     SC354256  79.291  26.555  64.066
23741DG     SC454257  79.218  26.804  63.946
23742DA     BB154258  79.685  27.335  63.715
23742DA     BB254259  79.921  27.054  63.718
23742DA     BB354260  79.895  26.934  63.544
23742DA     SC154261  79.686  26.745  63.676
23742DA     SC254262  79.675  26.508  63.753
23742DA     SC354263  79.420  26.537  63.739
23742DA     SC454264  79.531  26.782  63.659
23743DA     BB154265  80.219  26.992  63.524
23743DA     BB254266  80.264  26.628  63.541
23743DA     BB354267  80.206  26.537  63.357
23743DA     SC154268  79.910  26.493  63.445
23743DA     SC254269  79.762  26.301  63.503
23743DA     SC354270  79.569  26.462  63.454
23743DA     SC454271  79.804  26.607  63.409
23744DA     BB154272  80.510  26.408  63.372
23744DA     BB254273  80.349  26.078  63.377
23744DA     BB354274  80.278  26.028  63.182
23744DA     SC154275  79.996  26.152  63.226
23744DA     SC254276  79.761  26.073  63.253
23744DA     SC354277  79.694  26.311  63.187
23744DA     SC454278  79.975  26.305  63.182
23745DA     BB154279  80.459  25.753  63.218
23745DA     BB254280  80.147  25.563  63.190
23745DA     BB354281  80.085  25.551  62.986
23745DA     SC154282  79.913  25.810  62.998
23745DA     SC254283  79.671  25.871  62.991
23745DA     SC354284  79.753  26.105  62.925
23745DA     SC454285  79.984  25.948  62.956
23746DA     BB154286  80.083  25.225  63.042
23746DA     BB254287  79.723  25.234  62.972
23746DA     BB354288  79.689  25.246  62.762
23746DA     SC154289  79.685  25.557  62.756
23746DA     SC254290  79.519  25.740  62.720
23746DA     SC354291  79.722  25.888  62.669
23746DA     SC454292  79.824  25.633  62.726
23747DT     BB154293  79.598  25.088  62.662
23747DT     BB254294  79.275  25.246  62.624
23747DT     BB354295  79.247  25.303  62.427
23747DT     SC154296  79.412  25.506  62.455
23747DT     SC254297  79.301  25.690  62.447
23747DT     SC354298  79.623  25.660  62.420
23748DT     BB154299  79.066  25.107  62.406
23748DT     BB254300  78.887  25.411  62.327
23748DT     BB354301  78.911  25.457  62.127
23748DT     SC154302  79.157  25.539  62.168
23748DT     SC254303  79.166  25.753  62.143
23748DT     SC354304  79.420  25.551  62.155
23749DA     BB154305  78.507  25.468  62.239
23749DA     BB254306  78.587  25.778  62.061
23749DA     BB354307  78.620  25.739  61.854
23749DA     SC154308  78.926  25.692  61.886
23749DA     SC254309  79.138  25.807  61.823
23749DA     SC354310  79.248  25.578  61.856
23749DA     SC454311  78.976  25.541  61.911
23750DT     BB154312  78.495  25.825  61.762
23750DT     BB254313  78.708  26.085  61.629
23750DT     BB354314  78.772  26.033  61.440
23750DT     SC154315  78.942  25.858  61.536
23750DT     SC254316  79.143  25.928  61.505
23750DT     SC354317  79.057  25.626  61.586
23751DA     BB154318  78.615  26.422  61.434
23751DA     BB254319  78.937  26.426  61.259
23751DA     BB354320  78.921  26.328  61.070
23751DA     SC154321  78.999  26.048  61.182
23751DA     SC254322  79.191  25.890  61.166
23751DA     SC354323  79.025  25.711  61.244
23751DA     SC454324  78.880  25.951  61.230
23752DG     BB154325  79.009  26.606  60.968
23752DG     BB254326  79.296  26.421  60.848
23752DG     BB354327  79.250  26.328  60.679
23752DG     SC154328  79.152  26.073  60.816
23752DG     SC254329  79.282  25.804  60.801
23752DG     SC354330  79.018  25.786  60.934
23752DG     SC454331  78.998  26.062  60.860
23753DC     BB154332  79.354  26.377  60.490
23753DC     BB254333  79.565  26.089  60.442
23753DC     BB354334  79.484  25.965  60.297
23753DC     SC154335  79.298  25.880  60.461
23753DC     SC254336  79.336  25.674  60.511
23753DC     SC354337  79.060  25.835  60.565
23754DA     BB154338  79.881  26.034  60.180
23754DA     BB254339  79.819  25.673  60.154
23754DA     BB354340  79.697  25.631  59.984
23754DA     SC154341  79.429  25.654  60.139
23754DA     SC254342  79.246  25.502  60.216
23754DA     SC354343  79.104  25.715  60.231
23754DA     SC454344  79.356  25.797  60.141
23755DT     BB154345  79.775  25.525  59.821
23755DT     BB254346  79.600  25.215  59.879
23755DT     BB354347  79.448  25.193  59.741
23755DT     SC154348  79.300  25.372  59.863
23755DT     SC254349  79.131  25.274  59.954
23755DT     SC354350  79.163  25.593  59.906
23756DA     BB154351  79.669  24.837  59.710
23756DA     BB254352  79.315  24.744  59.734
23756DA     BB354353  79.215  24.782  59.549
23756DA     SC154354  79.132  25.072  59.625
23756DA     SC254355  78.922  25.195  59.680
23756DA     SC354356  79.055  25.406  59.621
23756DA     SC454357  79.231  25.191  59.583
23757DT     BB154358  79.137  24.623  59.415
23757DT     BB254359  78.787  24.674  59.488
23757DT     BB354360  78.693  24.759  59.324
23757DT     SC154361  78.801  24.993  59.373
23757DT     SC254362  78.649  25.130  59.438
23757DT     SC354363  78.947  25.210  59.340
23758DG     BB154364  78.484  24.407  59.363
23758DG     BB254365  78.257  24.687  59.350
23758DG     BB354366  78.224  24.740  59.161
23758DG     SC154367  78.457  24.937  59.150
23758DG     SC254368  78.435  25.234  59.121
23758DG     SC354369  78.716  25.147  59.096
23758DG     SC454370  78.602  24.884  59.107
23759DA     BB154371  77.872  24.715  59.193
23759DA     BB254372  77.834  25.071  59.115
23759DA     BB354373  77.838  25.101  58.904
23759DA     SC154374  78.146  25.144  58.892
23759DA     SC254375  78.305  25.332  58.849
23759DA     SC354376  78.477  25.148  58.800
23759DA     SC454377  78.238  25.016  58.864
23760DT     BB154378  77.662  25.169  58.780
23760DT     BB254379  77.777  25.508  58.736
23760DT     BB354380  77.830  25.540  58.539
23760DT     SC154381  78.052  25.403  58.568
23760DT     SC254382  78.221  25.536  58.558
23760DT     SC354383  78.232  25.213  58.536
23761DT     BB154384  77.607  25.698  58.486
23761DT     BB254385  77.886  25.912  58.409
23761DT     BB354386  77.939  25.891  58.210
23761DT     SC154387  78.050  25.658  58.255
23761DT     SC254388  78.263  25.675  58.233
23761DT     SC354389  78.095  25.398  58.245
23762DT     BB154390  77.840  26.138  58.165
23762DT     BB254391  78.185  26.156  58.062
23762DT     BB354392  78.203  26.095  57.865
23762DT     SC154393  78.172  25.843  57.933
23762DT     SC254394  78.358  25.738  57.905
23762DT     SC354395  78.067  25.602  57.949
23763DG     BB154396  78.355  26.470  57.903
23763DG     BB254397  78.592  26.246  57.747
23763DG     BB354398  78.542  26.216  57.557
23763DG     SC154399  78.364  25.975  57.616
23763DG     SC254400  78.417  25.693  57.532
23763DG     SC354401  78.145  25.720  57.646
23763DG     SC454402  78.209  25.999  57.649
23764DT     BB154403  78.681  26.277  57.407
23764DT     BB254404  78.811  25.960  57.294
23764DT     BB354405  78.721  25.906  57.115
23764DT     SC154406  78.498  25.841  57.238
23764DT     SC254407  78.472  25.628  57.230
23764DT     SC354408  78.245  25.845  57.310
23765DC     BB154409  78.954  25.959  56.989
23765DC     BB254410  78.879  25.617  56.902
23765DC     BB354411  78.754  25.611  56.737
23765DC     SC154412  78.547  25.686  56.881
23765DC     SC254413  78.410  25.521  56.899
23765DC     SC354414  78.346  25.831  56.969
23766DA     BB154415  79.079  25.360  56.655
23766DA     BB254416  78.772  25.176  56.574
23766DA     BB354417  78.685  25.252  56.395
23766DA     SC154418  78.507  25.462  56.540
23766DA     SC254419  78.265  25.498  56.587
23766DA     SC354420  78.330  25.743  56.627
23766DA     SC454421  78.568  25.610  56.560
23767DT     BB154422  78.679  25.133  56.227
23767DT     BB254423  78.325  25.061  56.237
23767DT     BB354424  78.227  25.168  56.089
23767DT     SC154425  78.249  25.391  56.225
23767DT     SC254426  78.055  25.452  56.295
23767DT     SC354427  78.321  25.637  56.289
23768DT     BB154428  78.189  24.939  55.948
23768DT     BB254429  77.857  25.071  55.997
23768DT     BB354430  77.811  25.205  55.845
23768DT     SC154431  77.967  25.388  55.950
23768DT     SC254432  77.847  25.549  56.027
23768DT     SC354433  78.166  25.559  55.976
23769DA     BB154434  77.499  24.928  55.870
23769DA     BB254435  77.351  25.263  55.864
23769DA     BB354436  77.365  25.347  55.668
23769DA     SC154437  77.641  25.482  55.719
23769DA     SC254438  77.731  25.713  55.745
23769DA     SC354439  77.959  25.608  55.688
23769DA     SC454440  77.773  25.398  55.681
23770DA     BB154441  77.046  25.382  55.732
23770DA     BB254442  77.099  25.742  55.688
23770DA     BB354443  77.128  25.789  55.482
23770DA     SC154444  77.438  25.757  55.493
23770DA     SC254445  77.639  25.903  55.479
23770DA     SC354446  77.766  25.688  55.422
23770DA     SC454447  77.499  25.612  55.457
23771DT     BB154448  76.988  25.899  55.389
23771DT     BB254449  77.178  26.205  55.365
23771DT     BB354450  77.245  26.232  55.171
23771DT     SC154451  77.428  26.047  55.200
23771DT     SC254452  77.623  26.139  55.201
23771DT     SC354453  77.563  25.822  55.165
23772DA     BB154454  77.049  26.587  55.275
23772DA     BB254455  77.372  26.678  55.127
23772DA     BB354456  77.367  26.650  54.915
23772DA     SC154457  77.468  26.356  54.926
23772DA     SC254458  77.674  26.230  54.864
23772DA     SC354459  77.523  26.022  54.869
23772DA     SC454460  77.358  26.240  54.933
23773DT     BB154461  77.379  26.814  54.791
23773DT     BB254462  77.716  26.759  54.677
23773DT     BB354463  77.715  26.689  54.482
23773DT     SC154464  77.636  26.451  54.560
23773DT     SC254465  77.796  26.310  54.532
23773DT     SC354466  77.486  26.236  54.589
23774DT     BB154467  77.806  26.929  54.389
23774DT     BB254468  78.047  26.689  54.268
23774DT     BB354469  77.986  26.614  54.085
23774DT     SC154470  77.802  26.465  54.200
23774DT     SC254471  77.858  26.258  54.184
23774DT     SC354472  77.565  26.370  54.265
23775DT     BB154473  78.180  26.756  53.954
23775DT     BB254474  78.239  26.415  53.855
23775DT     BB354475  78.126  26.369  53.688
23775DT     SC154476  77.907  26.354  53.831
23775DT     SC254477  77.841  26.150  53.841
23775DT     SC354478  77.665  26.410  53.921
23776DA     BB154479  78.520  26.262  53.591
23776DA     BB254480  78.304  25.981  53.499
23776DA     BB354481  78.195  26.026  53.322
23776DA     SC154482  77.952  26.147  53.474
23776DA     SC254483  77.714  26.087  53.519
23776DA     SC354484  77.682  26.337  53.570
23776DA     SC454485  77.952  26.305  53.501
23777DA     BB154486  78.324  25.744  53.206
23777DA     BB254487  77.982  25.619  53.167
23777DA     BB354488  77.892  25.703  52.994
23777DA     SC154489  77.772  25.948  53.144
23777DA     SC254490  77.547  26.031  53.213
23777DA     SC354491  77.660  26.260  53.232
23777DA     SC454492  77.860  26.082  53.149
23778DT     BB154493  77.839  25.588  52.811
23778DT     BB254494  77.482  25.585  52.861
23778DT     BB354495  77.390  25.707  52.722
23778DT     SC154496  77.469  25.923  52.848
23778DT     SC254497  77.299  26.020  52.936
23778DT     SC354498  77.592  26.151  52.896
23779DT     BB154499  77.286  25.499  52.556
23779DT     BB254500  76.994  25.693  52.643
23779DT     BB354501  76.960  25.837  52.499
23779DT     SC154502  77.159  25.983  52.587
23779DT     SC254503  77.082  26.161  52.679
23779DT     SC354504  77.390  26.110  52.593
23780DG     BB154505  76.612  25.619  52.478
23780DG     BB254506  76.540  25.970  52.528
23780DG     BB354507  76.544  26.065  52.353
23780DG     SC154508  76.842  26.132  52.369
23780DG     SC254509  76.959  26.406  52.398
23780DG     SC354510  77.170  26.205  52.344
23780DG     SC454511  76.948  26.028  52.311
23781DA     BB154512  76.225  26.191  52.418
23781DA     BB254513  76.356  26.533  52.412
23781DA     BB354514  76.379  26.601  52.211
23781DA     SC154515  76.673  26.501  52.186
23781DA     SC254516  76.901  26.600  52.168
23781DA     SC354517  76.971  26.373  52.072
23781DA     SC454518  76.696  26.353  52.127
23782DA     BB154519  76.196  26.844  52.329
23782DA     BB254520  76.478  27.065  52.255
23782DA     BB354521  76.489  27.105  52.046
23782DA     SC154522  76.678  26.865  51.986
23782DA     SC254523  76.915  26.829  51.918
23782DA     SC354524  76.836  26.596  51.843
23782DA     SC454525  76.609  26.725  51.944
23783DC     BB154526  76.458  27.289  51.996
23783DC     BB254527  76.802  27.370  51.925
23783DC     BB354528  76.833  27.374  51.720
23783DC     SC154529  76.827  27.112  51.707
23783DC     SC254530  77.024  27.038  51.661
23783DC     SC354531  76.749  26.868  51.643
23784DT     BB154532  76.857  27.637  51.746
23784DT     BB254533  77.168  27.528  51.598
23784DT     BB354534  77.146  27.511  51.393
23784DT     SC154535  77.008  27.290  51.418
23784DT     SC254536  77.125  27.124  51.345
23784DT     SC354537  76.806  27.120  51.405
23785DA     BB154538  77.488  27.736  51.487
23785DA     BB254539  77.582  27.481  51.241
23785DA     BB354540  77.499  27.528  51.050
23785DA     SC154541  77.236  27.368  51.098
23785DA     SC254542  77.128  27.160  51.012
23785DA     SC354543  76.910  27.260  51.102
23785DA     SC454544  77.110  27.448  51.159
23786DA     BB154545  77.815  27.482  50.984
23786DA     BB254546  77.706  27.214  50.760
23786DA     BB354547  77.612  27.296  50.586
23786DA     SC154548  77.327  27.293  50.709
23786DA     SC254549  77.113  27.169  50.676
23786DA     SC354550  77.003  27.367  50.797
23786DA     SC454551  77.277  27.426  50.784
23787DA     BB154552  77.837  27.094  50.461
23787DA     BB254553  77.557  26.919  50.301
23787DA     BB354554  77.477  27.038  50.143
23787DA     SC154555  77.268  27.181  50.324
23787DA     SC254556  77.020  27.183  50.355
23787DA     SC354557  77.057  27.409  50.470
23787DA     SC454558  77.311  27.320  50.392
23788DC     BB154559  77.498  26.963  49.969
23788DC     BB254560  77.155  26.868  49.915
23788DC     BB354561  77.061  27.007  49.793
23788DC     SC154562  77.048  27.182  49.989
23788DC     SC254563  76.842  27.206  50.049
23788DC     SC354564  77.088  27.402  50.128
23789DC     BB154565  77.063  26.822  49.601
23789DC     BB254566  76.716  26.917  49.634
23789DC     BB354567  76.678  27.087  49.522
23789DC     SC154568  76.802  27.239  49.697
23789DC     SC254569  76.658  27.363  49.798
23789DC     SC354570  76.979  27.405  49.800
23790DA     BB154571  76.389  26.801  49.417
23790DA     BB254572  76.216  27.118  49.479
23790DA     BB354573  76.255  27.256  49.321
23790DA     SC154574  76.506  27.379  49.458
23790DA     SC254575  76.571  27.595  49.564
23790DA     SC354576  76.813  27.520  49.523
23790DA     SC454577  76.649  27.315  49.422
23791DT     BB154578  76.104  27.322  49.180
23791DT     BB254579  76.065  27.657  49.309
23791DT     BB354580  76.148  27.793  49.177
23791DT     SC154581  76.391  27.727  49.250
23791DT     SC254582  76.480  27.890  49.359
23791DT     SC354583  76.638  27.635  49.235
23792DA     BB154584  75.756  27.942  49.219
23792DA     BB254585  75.983  28.226  49.266
23792DA     BB354586  76.057  28.294  49.077
23792DA     SC154587  76.307  28.109  49.081
23792DA     SC254588  76.554  28.133  49.104
23792DA     SC354589  76.566  27.900  48.996
23792DA     SC454590  76.294  27.964  49.011
23793DC     BB154591  76.006  28.492  48.981
23793DC     BB254592  76.323  28.650  49.048
23793DC     BB354593  76.428  28.678  48.872
23793DC     SC154594  76.487  28.422  48.858
23793DC     SC254595  76.698  28.397  48.893
23793DC     SC354596  76.497  28.174  48.770
23794DA     BB154597  76.418  29.061  49.041
23794DA     BB254598  76.767  28.990  48.952
23794DA     BB354599  76.796  29.013  48.742
23794DA     SC154600  76.731  28.716  48.677
23794DA     SC254601  76.854  28.513  48.598
23794DA     SC354602  76.623  28.425  48.530
23794DA     SC454603  76.579  28.679  48.640
23795DG     BB154604  77.000  29.233  48.823
23795DG     BB254605  77.238  29.002  48.679
23795DG     BB354606  77.247  29.028  48.482
23795DG     SC154607  77.025  28.826  48.421
23795DG     SC254608  77.058  28.566  48.278
23795DG     SC354609  76.772  28.628  48.318
23795DG     SC454610  76.873  28.877  48.418
23796DC     BB154611  77.434  29.089  48.391
23796DC     BB254612  77.544  28.780  48.240
23796DC     BB354613  77.512  28.786  48.036
23796DC     SC154614  77.254  28.751  48.068
23796DC     SC254615  77.199  28.556  47.996
23796DC     SC354616  76.994  28.799  48.062
23797DT     BB154617  77.776  28.800  48.015
23797DT     BB254618  77.682  28.507  47.826
23797DT     BB354619  77.626  28.562  47.634
23797DT     SC154620  77.397  28.657  47.720
23797DT     SC254621  77.237  28.530  47.652
23797DT     SC354622  77.204  28.828  47.775
23798DA     BB154623  77.903  28.248  47.624
23798DA     BB254624  77.625  28.163  47.400
23798DA     BB354625  77.629  28.288  47.227
23798DA     SC154626  77.447  28.508  47.351
23798DA     SC254627  77.216  28.596  47.319
23798DA     SC354628  77.301  28.806  47.439
23798DA     SC454629  77.520  28.630  47.426
23799DC     BB154630  77.664  28.195  47.063
23799DC     BB254631  77.332  28.218  46.922
23799DC     BB354632  77.326  28.369  46.780
23799DC     SC154633  77.328  28.555  46.966
23799DC     SC254634  77.137  28.652  46.971
23799DC     SC354635  77.408  28.759  47.112
23800DT     BB154636  77.313  28.183  46.584
23800DT     BB254637  77.027  28.395  46.525
23800DT     BB354638  77.081  28.557  46.409
23800DT     SC154639  77.202  28.671  46.613
23800DT     SC254640  77.091  28.845  46.673
23800DT     SC354641  77.394  28.773  46.762
23801DG     BB154642  76.794  28.376  46.181
23801DG     BB254643  76.723  28.729  46.218
23801DG     BB354644  76.833  28.834  46.089
23801DG     SC154645  77.069  28.869  46.281
23801DG     SC254646  77.161  29.126  46.401
23801DG     SC354647  77.354  28.909  46.457
23801DG     SC454648  77.184  28.757  46.283
23802DT     BB154649  76.751  28.967  45.905
23802DT     BB254650  76.798  29.300  46.034
23802DT     BB354651  76.955  29.392  45.936
23802DT     SC154652  77.132  29.249  46.068
23802DT     SC254653  77.239  29.376  46.205
23802DT     SC354654  77.325  29.077  46.116
23803DG     BB154655  76.640  29.640  45.853
23803DG     BB254656  76.918  29.828  45.989
23803DG     BB354657  77.051  29.866  45.846
23803DG     SC154658  77.211  29.609  45.891
23803DG     SC254659  77.491  29.593  45.995
23803DG     SC354660  77.398  29.329  45.901
23803DG     SC454661  77.169  29.476  45.813
23804DT     BB154662  77.107  30.081  45.769
23804DT     BB254663  77.431  30.125  45.922
23804DT     BB354664  77.579  30.111  45.778
23804DT     SC154665  77.552  29.850  45.765
23804DT     SC254666  77.726  29.756  45.849
23804DT     SC354667  77.500  29.611  45.667
23805DT     BB154668  77.630  30.384  45.781
23805DT     BB254669  77.950  30.235  45.855
23805DT     BB354670  78.054  30.199  45.680
23805DT     SC154671  77.901  29.993  45.623
23805DT     SC254672  78.015  29.812  45.641
23805DT     SC354673  77.727  29.841  45.496
23806DT     BB154674  78.230  30.406  45.726
23806DT     BB254675  78.443  30.117  45.688
23806DT     BB354676  78.492  30.092  45.488
23806DT     SC154677  78.253  30.001  45.432
23806DT     SC254678  78.265  29.791  45.386
23806DT     SC354679  78.012  29.984  45.325
23807DT     BB154680  78.753  30.177  45.528
23807DT     BB254681  78.789  29.848  45.384
23807DT     BB354682  78.794  29.862  45.177
23807DT     SC154683  78.536  29.907  45.166
23807DT     SC254684  78.438  29.737  45.078
23807DT     SC354685  78.307  30.030  45.121
23808DA     BB154686  79.138  29.645  45.281
23808DA     BB254687  78.965  29.459  45.016
23808DA     BB354688  78.996  29.553  44.827
23808DA     SC154689  78.744  29.734  44.848
23808DA     SC254690  78.520  29.752  44.739
23808DA     SC354691  78.519  29.992  44.828
23808DA     SC454692  78.762  29.880  44.911
23809DA     BB154693  79.104  29.256  44.737
23809DA     BB254694  78.829  29.248  44.494
23809DA     BB354695  78.878  29.366  44.323
23809DA     SC154696  78.754  29.627  44.438
23809DA     SC254697  78.557  29.773  44.392
23809DA     SC354698  78.687  29.953  44.520
23809DA     SC454699  78.851  29.726  44.519
23810DT     BB154700  78.903  29.272  44.145
23810DT     BB254701  78.589  29.376  44.001
23810DT     BB354702  78.621  29.522  43.858
23810DT     SC154703  78.668  29.703  44.043
23810DT     SC254704  78.506  29.845  44.046
23810DT     SC354705  78.795  29.882  44.189
23811DA     BB154706  78.383  29.222  43.690
23811DA     BB254707  78.224  29.545  43.622
23811DA     BB354708  78.333  29.652  43.473
23811DA     SC154709  78.516  29.799  43.677
23811DA     SC254710  78.547  30.031  43.763
23811DA     SC354711  78.779  29.950  43.837
23811DA     SC454712  78.656  29.730  43.714
23812DG     BB154713  78.061  29.633  43.326
23812DG     BB254714  78.071  29.993  43.360
23812DG     BB354715  78.187  30.071  43.219
23812DG     SC154716  78.443  30.056  43.386
23812DG     SC254717  78.599  30.288  43.490
23812DG     SC354718  78.746  30.035  43.533
23812DG     SC454719  78.531  29.922  43.381
23813DT     BB154720  78.104  30.209  43.068
23813DT     BB254721  78.232  30.527  43.182
23813DT     BB354722  78.391  30.586  43.063
23813DT     SC154723  78.550  30.410  43.175
23813DT     SC254724  78.697  30.513  43.294
23813DT     SC354725  78.710  30.202  43.202
23814DT     BB154726  78.238  30.780  42.945
23814DT     BB254727  78.520  30.958  43.082
23814DT     BB354728  78.675  30.962  42.945
23814DT     SC154729  78.732  30.710  42.991
23814DT     SC254730  78.921  30.697  43.093
23814DT     SC354731  78.765  30.451  42.950
23815DT     BB154732  78.631  31.226  42.901
23815DT     BB254733  78.975  31.207  43.009
23815DT     BB354734  79.098  31.172  42.846
23815DT     SC154735  79.023  30.921  42.833
23815DT     SC254736  79.187  30.794  42.890
23815DT     SC354737  78.916  30.699  42.739
23816DA     BB154738  79.243  31.497  43.066
23816DA     BB254739  79.520  31.264  43.008
23816DA     BB354740  79.582  31.271  42.804
23816DA     SC154741  79.389  31.045  42.713
23816DA     SC254742  79.406  30.809  42.634
23816DA     SC354743  79.171  30.846  42.537
23816DA     SC454744  79.244  31.088  42.659
23817DA     BB154745  79.849  31.309  42.984
23817DA     BB254746  79.971  31.006  42.819
23817DA     BB354747  80.014  31.045  42.613
23817DA     SC154748  79.728  30.969  42.515
23817DA     SC254749  79.621  30.787  42.382
23817DA     SC354750  79.429  30.954  42.347
23817DA     SC454751  79.620  31.088  42.503
23818DT     BB154752  80.179  31.016  42.602
23818DT     BB254753  80.161  30.710  42.411
23818DT     BB354754  80.170  30.753  42.209
23818DT     SC154755  79.923  30.841  42.208
23818DT     SC254756  79.798  30.704  42.099
23818DT     SC354757  79.718  31.006  42.185
23819DT     BB154758  80.395  30.632  42.242
23819DT     BB254759  80.229  30.454  41.977
23819DT     BB354760  80.243  30.560  41.800
23819DT     SC154761  80.064  30.734  41.880
23819DT     SC254762  79.884  30.710  41.764
23819DT     SC354763  79.956  30.963  41.953
23820DA     BB154764  80.359  30.160  41.728
23820DA     BB254765  80.142  30.268  41.453
23820DA     BB354766  80.242  30.414  41.333
23820DA     SC154767  80.135  30.656  41.496
23820DA     SC254768  79.975  30.845  41.463
23820DA     SC354769  80.100  30.958  41.657
23820DA     SC454770  80.226  30.710  41.617
23821DA     BB154771  80.194  30.223  41.057
23821DA     BB254772  80.014  30.503  40.904
23821DA     BB354773  80.151  30.648  40.828
23821DA     SC154774  80.160  30.813  41.092
23821DA     SC254775  80.083  31.036  41.173
23821DA     SC354776  80.258  31.006  41.358
23821DA     SC454777  80.275  30.777  41.198
23822DG     BB154778  80.073  30.623  40.507
23822DG     BB254779  79.967  30.967  40.539
23822DG     BB354780  80.118  31.089  40.494
23822DG     SC154781  80.225  31.102  40.781
23822DG     SC254782  80.226  31.344  40.956
23822DG     SC354783  80.381  31.124  41.079
23822DG     SC454784  80.331  30.993  40.829
23823DA     BB154785  79.954  31.280  40.235
23823DA     BB254786  79.984  31.589  40.430
23823DA     BB354787  80.174  31.680  40.396
23823DA     SC154788  80.315  31.531  40.630
23823DA     SC254789  80.411  31.588  40.853
23823DA     SC354790  80.541  31.368  40.831
23823DA     SC454791  80.389  31.392  40.596
23824DG     BB154792  80.034  31.938  40.274
23824DG     BB254793  80.168  32.099  40.569
23824DG     BB354794  80.351  32.167  40.531
23824DG     SC154795  80.492  31.909  40.616
23824DG     SC254796  80.671  31.877  40.853
23824DG     SC354797  80.678  31.636  40.683
23824DG     SC454798  80.516  31.794  40.508
23825DT     BB154799  80.402  32.388  40.541
23825DT     BB254800  80.576  32.402  40.856
23825DT     BB354801  80.779  32.426  40.824
23825DT     SC154802  80.805  32.176  40.750
23825DT     SC254803  80.917  32.068  40.899
23825DT     SC354804  80.854  31.966  40.598
23826DG     BB154805  80.642  32.727  41.060
23826DG     BB254806  80.925  32.558  41.210
23826DG     BB354807  81.094  32.617  41.122
23826DG     SC154808  81.087  32.400  40.906
23826DG     SC254809  81.281  32.174  40.879
23826DG     SC354810  81.101  32.188  40.644
23826DG     SC454811  81.009  32.429  40.770
23827DT     BB154812  81.230  32.708  41.246
23827DT     BB254813  81.486  32.455  41.279
23827DT     BB354814  81.642  32.496  41.150
23827DT     SC154815  81.503  32.417  40.942
23827DT     SC254816  81.586  32.234  40.866
23827DT     SC354817  81.374  32.425  40.712
23828DC     BB154818  81.790  32.564  41.365
23828DC     BB254819  81.985  32.311  41.197
23828DC     BB354820  82.100  32.397  41.049
23828DC     SC154821  81.891  32.428  40.893
23828DC     SC254822  81.907  32.294  40.725
23828DC     SC354823  81.703  32.545  40.750
23829DT     BB154824  82.332  32.368  41.195
23829DT     BB254825  82.406  32.205  40.882
23829DT     BB354826  82.481  32.343  40.747
23829DT     SC154827  82.242  32.446  40.708
23829DT     SC254828  82.175  32.399  40.510
23829DT     SC354829  82.045  32.622  40.706
23830DT     BB154830  82.754  32.262  40.761
23830DT     BB254831  82.679  32.243  40.408
23830DT     BB354832  82.725  32.422  40.316
23830DT     SC154833  82.514  32.539  40.418
23830DT     SC254834  82.372  32.580  40.262
23830DT     SC354835  82.367  32.705  40.561
23831DC     BB154836  82.964  32.335  40.185
23831DC     BB254837  82.758  32.458  39.915
23831DC     BB354838  82.800  32.658  39.880
23831DC     SC154839  82.670  32.731  40.096
23831DC     SC254840  82.491  32.835  40.039
23831DC     SC354841  82.623  32.833  40.335
23832DT     BB154842  82.935  32.605  39.643
23832DT     BB254843  82.670  32.830  39.547
23832DT     BB354844  82.734  33.026  39.563
23832DT     SC154845  82.717  33.019  39.825
23832DT     SC254846  82.555  33.144  39.890
23832DT     SC354847  82.789  33.024  40.079
23833DA     BB154848  82.573  32.974  39.180
23833DA     BB254849  82.418  33.271  39.329
23833DA     BB354850  82.558  33.433  39.334
23833DA     SC154851  82.667  33.363  39.617
23833DA     SC254852  82.659  33.459  39.847
23833DA     SC354853  82.866  33.314  39.892
23833DA     SC454854  82.795  33.267  39.625
23834DA     BB154855  82.302  33.568  39.184
23834DA     BB254856  82.290  33.803  39.465
23834DA     BB354857  82.451  33.943  39.452
23834DA     SC154858  82.647  33.770  39.620
23834DA     SC254859  82.755  33.779  39.844
23834DA     SC354860  82.925  33.614  39.747
23834DA     SC454861  82.744  33.669  39.540
23835DA     BB154862  82.192  34.141  39.482
23835DA     BB254863  82.351  34.264  39.789
23835DA     BB354864  82.519  34.387  39.741
23835DA     SC154865  82.723  34.152  39.745
23835DA     SC254866  82.912  34.074  39.887
23835DA     SC354867  82.985  33.940  39.681
23835DA     SC454868  82.752  34.077  39.605
23836DG     BB154869  82.352  34.596  39.898
23836DG     BB254870  82.633  34.581  40.125
23836DG     BB354871  82.783  34.691  40.055
23836DG     SC154872  82.909  34.464  39.894
23836DG     SC254873  83.174  34.336  39.949
23836DG     SC354874  83.063  34.243  39.691
23836DG     SC454875  82.861  34.439  39.743
23837DA     BB154876  82.786  34.841  40.368
23837DA     BB254877  83.134  34.735  40.415
23837DA     BB354878  83.265  34.857  40.300
23837DA     SC154879  83.255  34.673  40.049
23837DA     SC254880  83.409  34.520  39.926
23837DA     SC354881  83.249  34.551  39.728
23837DA     SC454882  83.145  34.706  39.937
23838DA     BB154883  83.407  34.893  40.593
23838DA     BB254884  83.706  34.740  40.445
23838DA     BB354885  83.805  34.880  40.318
23838DA     SC154886  83.650  34.796  40.062
23838DA     SC254887  83.697  34.678  39.848
23838DA     SC354888  83.484  34.792  39.761
23838DA     SC454889  83.515  34.877  40.027
23839DT     BB154890  83.988  34.942  40.373
23839DT     BB254891  84.172  34.749  40.131
23839DT     BB354892  84.239  34.872  39.978
23839DT     SC154893  83.998  34.888  39.875
23839DT     SC254894  83.994  34.782  39.688
23839DT     SC354895  83.770  34.991  39.793
23840DT     BB154896  84.482  34.834  40.078
23840DT     BB254897  84.500  34.719  39.737
23840DT     BB354898  84.534  34.879  39.610
23840DT     SC154899  84.286  34.961  39.635
23840DT     SC254900  84.182  34.931  39.449
23840DT     SC354901  84.080  35.114  39.696
23841DC     BB154902  84.772  34.771  39.579
23841DC     BB254903  84.631  34.788  39.248
23841DC     BB354904  84.657  34.978  39.169
23841DC     SC154905  84.468  35.076  39.323
23841DC     SC254906  84.299  35.130  39.202
23841DC     SC354907  84.349  35.221  39.509
23842DA     BB154908  84.780  34.683  38.897
23842DA     BB254909  84.566  34.923  38.720
23842DA     BB354910  84.665  35.110  38.700
23842DA     SC154911  84.555  35.226  38.967
23842DA     SC254912  84.394  35.402  39.039
23842DA     SC354913  84.516  35.392  39.264
23842DA     SC454914  84.644  35.206  39.099
23843DA     BB154915  84.570  35.042  38.393
23843DA     BB254916  84.384  35.357  38.407
23843DA     BB354917  84.518  35.523  38.404
23843DA     SC154918  84.543  35.539  38.714
23843DA     SC254919  84.472  35.692  38.898
23843DA     SC354920  84.656  35.579  39.036
23843DA     SC454921  84.663  35.457  38.783
23844DC     BB154922  84.508  35.636  38.248
23844DC     BB254923  84.349  35.920  38.403
23844DC     BB354924  84.489  36.067  38.444
23844DC     SC154925  84.585  35.930  38.646
23844DC     SC254926  84.535  36.031  38.830
23844DC     SC354927  84.754  35.794  38.796
23845DC     BB154928  84.391  36.221  38.242
23845DC     BB254929  84.375  36.433  38.533
23845DC     BB354930  84.556  36.530  38.560
23845DC     SC154931  84.669  36.311  38.649
23845DC     SC254932  84.710  36.333  38.859
23845DC     SC354933  84.832  36.104  38.664
23846DC     BB154934  84.456  36.774  38.475
23846DC     BB254935  84.589  36.843  38.803
23846DC     BB354936  84.789  36.894  38.790
23846DC     SC154937  84.858  36.645  38.746
23846DC     SC254938  84.965  36.569  38.917
23846DC     SC354939  84.953  36.431  38.624
23847DT     BB154940  84.744  37.164  38.839
23847DT     BB254941  84.979  37.065  39.095
23847DT     BB354942  85.173  37.090  39.026
23847DT     SC154943  85.153  36.877  38.873
23847DT     SC254944  85.279  36.721  38.952
23847DT     SC354945  85.146  36.727  38.657
23848DT     BB154946  85.216  37.310  39.186
23848DT     BB254947  85.474  37.076  39.282
23848DT     BB354948  85.641  37.102  39.163
23848DT     SC154949  85.522  36.984  38.960
23848DT     SC254950  85.616  36.794  38.923
23848DT     SC354951  85.415  36.949  38.721
23849DC     BB154952  85.778  37.214  39.370
23849DC     BB254953  85.976  36.928  39.272
23849DC     BB354954  86.107  36.982  39.121
23849DC     SC154955  85.914  36.987  38.944
23849DC     SC254956  85.938  36.823  38.807
23849DC     SC354957  85.744  37.079  38.764
23850DA     BB154958  86.311  36.783  39.429
23850DA     BB254959  86.399  36.625  39.111
23850DA     BB354960  86.524  36.754  38.996
23850DA     SC154961  86.288  36.892  38.848
23850DA     SC254962  86.193  36.899  38.617
23850DA     SC354963  86.081  37.118  38.692
23850DA     SC454964  86.228  37.027  38.913
23851DG     BB154965  86.714  36.513  39.021
23851DG     BB254966  86.671  36.500  38.662
23851DG     BB354967  86.791  36.633  38.575
23851DG     SC154968  86.587  36.860  38.584
23851DG     SC254969  86.455  36.987  38.348
23851DG     SC354970  86.395  37.137  38.595
23851DG     SC454971  86.581  36.955  38.713
23852DT     BB154972  86.940  36.560  38.441
23852DT     BB254973  86.807  36.656  38.120
23852DT     BB354974  86.903  36.826  38.052
23852DT     SC154975  86.773  36.978  38.221
23852DT     SC254976  86.634  37.103  38.114
23852DT     SC354977  86.726  37.143  38.422
23853DA     BB154978  86.923  36.544  37.743
23853DA     BB254979  86.812  36.861  37.596
23853DA     BB354980  86.975  36.998  37.584
23853DA     SC154981  86.922  37.123  37.864
23853DA     SC254982  86.842  37.340  37.957
23853DA     SC354983  86.955  37.265  38.175
23853DA     SC454984  87.000  37.059  37.989
23854DG     BB154985  86.930  36.997  37.273
23854DG     BB254986  86.851  37.346  37.325
23854DG     BB354987  87.018  37.454  37.327
23854DG     SC154988  87.061  37.426  37.629
23854DG     SC254989  87.045  37.647  37.829
23854DG     SC354990  87.150  37.400  37.953
23854DG     SC454991  87.144  37.301  37.684
23855DA     BB154992  86.890  37.666  37.079
23855DA     BB254993  86.916  37.954  37.305
23855DA     BB354994  87.117  38.026  37.310
23855DA     SC154995  87.201  37.845  37.549
23855DA     SC254996  87.262  37.874  37.790
23855DA     SC354997  87.372  37.643  37.768
23855DA     SC454998  87.265  37.702  37.515
23856DG     BB154999  87.009  38.298  37.198
23856DG     BB255000  87.116  38.425  37.519
23856DG     BB355001  87.309  38.475  37.511
23856DG     SC155002  87.409  38.199  37.595
23856DG     SC255003  87.549  38.133  37.851
23856DG     SC355004  87.555  37.903  37.665
23856DG     SC455005  87.436  38.088  37.482
23857DA     BB155006  87.209  38.779  37.638
23857DA     BB255007  87.420  38.726  37.933
23857DA     BB355008  87.624  38.764  37.886
23857DA     SC155009  87.685  38.469  37.805
23857DA     SC255010  87.816  38.277  37.893
23857DA     SC355011  87.805  38.185  37.654
23857DA     SC455012  87.668  38.430  37.650
23858DT     BB155013  87.696  38.911  37.979
23858DT     BB255014  87.897  38.722  38.212
23858DT     BB355015  88.095  38.725  38.152
23858DT     SC155016  88.048  38.554  37.958
23858DT     SC255017  88.141  38.366  38.004
23858DT     SC355018  88.025  38.455  37.715
23859DG     BB155019  88.047  38.853  38.535
23859DG     BB255020  88.299  38.595  38.510
23859DG     BB355021  88.465  38.669  38.429
23859DG     SC155022  88.382  38.607  38.141
23859DG     SC255023  88.514  38.409  37.960
23859DG     SC355024  88.316  38.572  37.812
23859DG     SC455025  88.297  38.715  38.059
23860DC     BB155026  88.624  38.656  38.549
23860DC     BB255027  88.827  38.404  38.389
23860DC     BB355028  88.970  38.495  38.269
23860DC     SC155029  88.790  38.554  38.087
23860DC     SC255030  88.824  38.435  37.912
23860DC     SC355031  88.635  38.698  37.929
23861DG     BB155032  89.166  38.257  38.537
23861DG     BB255033  89.281  38.198  38.199
23861DG     BB355034  89.401  38.346  38.142
23861DG     SC155035  89.175  38.518  38.027
23861DG     SC255036  89.135  38.586  37.739
23861DG     SC355037  88.951  38.741  37.911
23861DG     SC455038  89.099  38.621  38.124
23862DC     BB155039  89.626  38.322  38.093
23862DC     BB255040  89.628  38.357  37.734
23862DC     BB355041  89.702  38.543  37.681
23862DC     SC155042  89.478  38.660  37.754
23862DC     SC255043  89.376  38.733  37.579
23862DC     SC355044  89.311  38.816  37.886
23863DA     BB155045  89.951  38.284  37.462
23863DA     BB255046  89.834  38.543  37.230
23863DA     BB355047  89.939  38.726  37.263
23863DA     SC155048  89.734  38.835  37.470
23863DA     SC255049  89.563  39.016  37.483
23863DA     SC355050  89.583  38.989  37.737
23863DA     SC455051  89.761  38.804  37.626
23864DA     BB155052  90.023  38.718  36.941
23864DA     BB255053  89.838  39.032  36.899
23864DA     BB355054  89.957  39.197  36.965
23864DA     SC155055  89.852  39.188  37.258
23864DA     SC255056  89.708  39.327  37.406
23864DA     SC355057  89.822  39.203  37.599
23864DA     SC455058  89.935  39.101  37.364
23865DC     BB155059  90.028  39.345  36.829
23865DC     BB255060  89.796  39.604  36.925
23865DC     BB355061  89.895  39.751  37.031
23865DC     SC155062  89.909  39.599  37.244
23865DC     SC255063  89.780  39.678  37.397
23865DC     SC355064  90.012  39.455  37.440
23866DA     BB155065  89.686  39.943  36.722
23866DA     BB255066  89.608  40.118  37.035
23866DA     BB355067  89.775  40.236  37.098
23866DA     SC155068  89.902  40.009  37.270
23866DA     SC255069  89.939  39.960  37.511
23866DA     SC355070  90.119  39.797  37.429
23866DA     SC455071  90.010  39.914  37.199
23867DA     BB155072  89.538  40.462  37.101
23867DA     BB255073  89.606  40.499  37.459
23867DA     BB355074  89.789  40.605  37.489
23867DA     SC155075  89.965  40.349  37.494
23867DA     SC255076  90.098  40.219  37.661
23867DA     SC355077  90.219  40.121  37.458
23867DA     SC455078  90.030  40.300  37.355
23868DA     BB155079  89.590  40.789  37.675
23868DA     BB255080  89.805  40.702  37.958
23868DA     BB355081  89.989  40.810  37.948
23868DA     SC155082  90.137  40.591  37.784
23868DA     SC255083  90.320  40.426  37.820
23868DA     SC355084  90.339  40.422  37.564
23868DA     SC455085  90.134  40.604  37.624
23869DT     BB155086  90.030  40.951  38.091
23869DT     BB255087  90.280  40.762  38.270
23869DT     BB355088  90.468  40.836  38.227
23869DT     SC155089  90.466  40.726  37.989
23869DT     SC255090  90.609  40.565  37.983
23869DT     SC355091  90.468  40.704  37.726
23870DT     BB155092  90.492  40.950  38.477
23870DT     BB255093  90.779  40.732  38.451
23870DT     BB355094  90.936  40.834  38.364
23870DT     SC155095  90.825  40.818  38.127
23870DT     SC255096  90.939  40.684  38.003
23870DT     SC355097  90.714  40.893  37.899
23871DA     BB155098  91.089  40.676  38.720
23871DA     BB255099  91.322  40.587  38.452
23871DA     BB355100  91.437  40.757  38.394
23871DA     SC155101  91.237  40.848  38.174
23871DA     SC255102  91.229  40.860  37.925
23871DA     SC355103  91.041  41.032  37.959
23871DA     SC455104  91.123  40.954  38.216
23872DG     BB155105  91.670  40.574  38.481
23872DG     BB255106  91.755  40.595  38.130
23872DG     BB355107  91.852  40.765  38.093
23872DG     SC155108  91.598  40.926  38.034
23872DG     SC255109  91.522  41.040  37.769
23872DG     SC355110  91.341  41.137  37.982
23872DG     SC455111  91.522  40.998  38.155
23873DT     BB155112  92.048  40.750  38.020
23873DT     BB255113  92.007  40.845  37.674
23873DT     BB355114  92.065  41.042  37.648
23873DT     SC155115  91.846  41.130  37.763
23873DT     SC255116  91.721  41.225  37.616
23873DT     SC355117  91.688  41.250  37.938
23874DA     BB155118  92.255  40.804  37.359
23874DA     BB255119  92.114  41.097  37.190
23874DA     BB355120  92.225  41.272  37.240
23874DA     SC155121  92.047  41.343  37.485
23874DA     SC255122  91.881  41.518  37.548
23874DA     SC355123  91.931  41.449  37.791
23874DA     SC455124  92.093  41.287  37.629
23875DT     BB155125  92.330  41.362  37.096
23875DT     BB255126  92.122  41.654  37.057
23875DT     BB355127  92.210  41.816  37.150
23875DT     SC155128  92.145  41.725  37.388
23875DT     SC255129  91.994  41.851  37.474
23875DT     SC355130  92.172  41.632  37.633
23876DG     BB155131  92.192  41.952  36.761
23876DG     BB255132  92.054  42.198  36.986
23876DG     BB355133  92.200  42.305  37.068
23876DG     SC155134  92.236  42.118  37.307
23876DG     SC255135  92.176  42.184  37.592
23876DG     SC355136  92.316  41.924  37.571
23876DG     SC455137  92.337  41.994  37.295
23877DT     BB155138  92.273  42.564  37.046
23877DT     BB255139  92.153  42.688  37.363
23877DT     BB355140  92.313  42.740  37.484
23877DT     SC155141  92.369  42.488  37.532
23877DT     SC255142  92.324  42.444  37.738
23877DT     SC355143  92.501  42.260  37.538
23878DA     BB155144  92.122  43.120  37.487
23878DA     BB255145  92.181  43.030  37.838
23878DA     BB355146  92.381  43.077  37.893
23878DA     SC155147  92.494  42.797  37.815
23878DA     SC255148  92.585  42.596  37.931
23878DA     SC355149  92.690  42.538  37.704
23878DA     SC455150  92.551  42.779  37.666
23879DT     BB155151  92.457  43.244  38.051
23879DT     BB255152  92.513  43.005  38.315
23879DT     BB355153  92.714  42.996  38.361
23879DT     SC155154  92.766  42.860  38.143
23879DT     SC255155  92.821  42.659  38.195
23879DT     SC355156  92.866  42.799  37.906
23880DA     BB155157  92.486  43.054  38.704
23880DA     BB255158  92.695  42.757  38.752
23880DA     BB355159  92.898  42.813  38.785
23880DA     SC155160  92.975  42.804  38.483
23880DA     SC255161  93.115  42.663  38.333
23880DA     SC355162  93.112  42.864  38.175
23880DA     SC455163  92.963  42.941  38.399
23881DT     BB155164  92.938  42.757  38.947
23881DT     BB255165  93.134  42.473  38.841
23881DT     BB355166  93.336  42.519  38.848
23881DT     SC155167  93.318  42.666  38.631
23881DT     SC255168  93.421  42.569  38.470
23881DT     SC355169  93.323  42.878  38.474
23882DA     BB155170  93.204  42.146  39.000
23882DA     BB255171  93.494  42.094  38.782
23882DA     BB355172  93.668  42.183  38.868
23882DA     SC155173  93.627  42.457  38.727
23882DA     SC255174  93.737  42.590  38.547
23882DA     SC355175  93.616  42.791  38.650
23882DA     SC455176  93.545  42.570  38.806
23883DA     BB155177  93.721  41.875  38.767
23883DA     BB255178  93.994  42.021  38.570
23883DA     BB355179  94.142  42.104  38.700
23883DA     SC155180  94.012  42.387  38.707
23883DA     SC255181  94.063  42.615  38.621
23883DA     SC355182  93.898  42.697  38.801
23883DA     SC455183  93.908  42.417  38.825
23884DA     BB155184  94.306  41.913  38.488
23884DA     BB255185  94.505  42.211  38.411
23884DA     BB355186  94.625  42.266  38.580
23884DA     SC155187  94.410  42.455  38.701
23884DA     SC255188  94.378  42.700  38.735
23884DA     SC355189  94.206  42.632  38.913
23884DA     SC455190  94.308  42.393  38.808
23885DC     BB155191  94.821  42.247  38.563
23885DC     BB255192  94.910  42.597  38.561
23885DC     BB355193  94.981  42.653  38.747
23885DC     SC155194  94.740  42.651  38.849
23885DC     SC255195  94.679  42.852  38.893
23885DC     SC355196  94.535  42.583  39.001
23886DA     BB155197  95.306  42.774  38.504
23886DA     BB255198  95.242  43.050  38.736
23886DA     BB355199  95.320  43.005  38.929
23886DA     SC155200  95.058  42.873  39.032
23886DA     SC255201  94.878  42.924  39.197
23886DA     SC355202  94.826  42.673  39.188
23886DA     SC455203  95.042  42.714  39.013
23887DC     BB155204  95.523  43.095  39.063
23887DC     BB255205  95.333  43.283  39.306
23887DC     BB355206  95.359  43.201  39.494
23887DC     SC155207  95.202  42.999  39.435
23887DC     SC255208  95.019  43.015  39.548
23887DC     SC355209  95.122  42.751  39.390
23888DA     BB155210  95.514  43.583  39.618
23888DA     BB255211  95.262  43.494  39.870
23888DA     BB355212  95.348  43.367  40.019
23888DA     SC155213  95.276  43.104  39.870
23888DA     SC255214  95.120  42.911  39.900
23888DA     SC355215  95.276  42.785  39.741
23888DA     SC455216  95.386  43.042  39.771
23889DG     BB155217  95.325  43.562  40.298
23889DG     BB255218  95.082  43.317  40.404
23889DG     BB355219  95.167  43.185  40.527
23889DG     SC155220  95.251  42.994  40.303
23889DG     SC255221  95.145  42.719  40.258
23889DG     SC355222  95.376  42.773  40.081
23889DG     SC455223  95.393  43.016  40.231
23890DA     BB155224  94.936  43.236  40.789
23890DA     BB255225  94.811  42.894  40.748
23890DA     BB355226  94.926  42.758  40.864
23890DA     SC155227  95.130  42.698  40.636
23890DA     SC255228  95.189  42.507  40.487
23890DA     SC355229  95.413  42.628  40.455
23890DA     SC455230  95.263  42.788  40.630
23891DT     BB155231  94.825  42.671  41.002
23891DT     BB255232  94.785  42.362  40.820
23891DT     BB355233  94.911  42.217  40.898
23891DT     SC155234  95.120  42.328  40.785
23891DT     SC255235  95.192  42.201  40.627
23891DT     SC355236  95.353  42.450  40.759
23892DG     BB155237  94.514  42.126  40.862
23892DG     BB255238  94.728  41.891  40.690
23892DG     BB355239  94.827  41.779  40.822
23892DG     SC155240  95.065  41.970  40.842
23892DG     SC255241  95.344  41.914  40.751
23892DG     SC355242  95.333  42.166  40.904
23892DG     SC455243  95.061  42.089  40.950
23893DA     BB155244  94.696  41.572  40.580
23893DA     BB255245  95.038  41.452  40.520
23893DA     BB355246  95.112  41.350  40.693
23893DA     SC155247  95.236  41.605  40.820
23893DA     SC255248  95.464  41.696  40.867
23893DA     SC355249  95.346  41.846  41.038
23893DA     SC455250  95.145  41.689  40.923
23894DA     BB155251  95.160  41.169  40.423
23894DA     BB255252  95.514  41.179  40.518
23894DA     BB355253  95.543  41.076  40.703
23894DA     SC155254  95.501  41.328  40.879
23894DA     SC255255  95.638  41.477  41.024
23894DA     SC355256  95.415  41.547  41.130
23894DA     SC455257  95.352  41.357  40.933
23895DA     BB155258  95.764  40.949  40.496
23895DA     BB255259  96.015  41.059  40.739
23895DA     BB355260  96.001  40.944  40.918
23895DA     SC155261  95.800  41.138  41.055
23895DA     SC255262  95.800  41.299  41.245
23895DA     SC355263  95.545  41.274  41.240
23895DA     SC455264  95.643  41.108  41.037
23896DT     BB155265  96.152  40.837  40.952
23896DT     BB255266  96.284  41.030  41.226
23896DT     BB355267  96.233  40.941  41.406
23896DT     SC155268  95.985  41.025  41.386
23896DT     SC255269  95.948  41.176  41.534
23896DT     SC355270  95.722  41.019  41.362
23897DC     BB155271  96.489  40.874  41.430
23897DC     BB255272  96.414  41.065  41.727
23897DC     BB355273  96.327  40.943  41.870
23897DC     SC155274  96.100  40.938  41.739
23897DC     SC255275  95.952  41.048  41.850
23897DC     SC355276  95.893  40.846  41.604
23898DA     BB155277  96.644  41.162  42.038
23898DA     BB255278  96.352  41.192  42.257
23898DA     BB355279  96.312  41.006  42.355
23898DA     SC155280  96.120  40.903  42.133
23898DA     SC255281  95.876  40.858  42.106
23898DA     SC355282  95.946  40.710  41.909
23898DA     SC455283  96.184  40.815  42.015
23899DC     BB155284  96.334  41.023  42.534
23899DC     BB255285  95.985  41.009  42.625
23899DC     BB355286  95.935  40.817  42.682
23899DC     SC155287  95.937  40.734  42.433
23899DC     SC255288  95.736  40.689  42.371
23899DC     SC355289  96.007  40.600  42.217
23900DC     BB155290  95.915  40.925  42.918
23900DC     BB255291  95.595  40.770  42.858
23900DC     BB355292  95.606  40.567  42.895
23900DC     SC155293  95.738  40.526  42.672
23900DC     SC255294  95.613  40.419  42.533
23900DC     SC355295  95.934  40.459  42.508
23901DT     BB155296  95.463  40.593  43.127
23901DT     BB255297  95.282  40.343  42.942
23901DT     BB355298  95.360  40.155  42.981
23901DT     SC155299  95.571  40.202  42.832
23901DT     SC255300  95.562  40.081  42.655
23901DT     SC355301  95.823  40.240  42.763
23902DG     BB155302  94.970  40.120  43.100
23902DG     BB255303  95.060  39.851  42.876
23902DG     BB355304  95.159  39.710  42.976
23902DG     SC155305  95.435  39.834  42.927
23902DG     SC255306  95.653  39.716  42.761
23902DG     SC355307  95.750  39.953  42.909
23902DG     SC455308  95.491  39.943  43.030
23903DA     BB155309  94.936  39.467  42.859
23903DA     BB255310  95.210  39.287  42.695
23903DA     BB355311  95.319  39.171  42.838
23903DA     SC155312  95.522  39.397  42.904
23903DA     SC255313  95.764  39.445  42.867
23903DA     SC355314  95.740  39.612  43.060
23903DA     SC455315  95.487  39.495  43.027
23904DA     BB155316  95.253  38.930  42.626
23904DA     BB255317  95.615  38.893  42.583
23904DA     BB355318  95.700  38.791  42.750
23904DA     SC155319  95.757  39.051  42.911
23904DA     SC255320  95.956  39.183  42.983
23904DA     SC355321  95.799  39.285  43.158
23904DA     SC455322  95.644  39.102  43.013
23905DC     BB155323  95.777  38.613  42.715
23905DC     BB255324  96.124  38.709  42.740
23905DC     BB355325  96.201  38.647  42.922
23905DC     SC155326  96.075  38.838  43.050
23905DC     SC255327  96.217  38.983  43.121
23905DC     SC355328  95.908  38.958  43.215
23906DT     BB155329  96.342  38.464  42.786
23906DT     BB255330  96.589  38.650  42.971
23906DT     BB355331  96.606  38.574  43.163
23906DT     SC155332  96.379  38.684  43.235
23906DT     SC255333  96.418  38.844  43.374
23906DT     SC355334  96.130  38.707  43.318
23907DT     BB155335  96.848  38.464  43.101
23907DT     BB255336  96.916  38.665  43.393
23907DT     BB355337  96.878  38.556  43.564
23907DT     SC155338  96.618  38.580  43.531
23907DT     SC255339  96.538  38.709  43.684
23907DT     SC355340  96.366  38.514  43.491
23908DT     BB155341  97.149  38.506  43.634
23908DT     BB255342  97.014  38.653  43.934
23908DT     BB355343  96.941  38.504  44.059
23908DT     SC155344  96.730  38.468  43.906
23908DT     SC255345  96.555  38.538  44.010
23908DT     SC355346  96.558  38.351  43.745
23909DA     BB155347  97.215  38.671  44.339
23909DA     BB255348  96.895  38.640  44.516
23909DA     BB355349  96.868  38.439  44.584
23909DA     SC155350  96.721  38.346  44.326
23909DA     SC255351  96.491  38.278  44.259
23909DA     SC355352  96.604  38.166  44.058
23909DA     SC455353  96.810  38.282  44.209
23910DT     BB155354  96.866  38.328  44.825
23910DT     BB255355  96.507  38.297  44.839
23910DT     BB355356  96.454  38.098  44.848
23910DT     SC155357  96.509  38.063  44.594
23910DT     SC255358  96.327  38.031  44.485
23910DT     SC355359  96.626  37.973  44.376
23911DA     BB155360  96.261  38.245  45.192
23911DA     BB255361  96.007  38.073  44.992
23911DA     BB355362  96.018  37.863  45.022
23911DA     SC155363  96.217  37.814  44.788
23911DA     SC255364  96.215  37.708  44.563
23911DA     SC355365  96.470  37.699  44.587
23911DA     SC455366  96.374  37.816  44.823
23912DT     BB155367  95.859  37.770  45.111
23912DT     BB255368  95.724  37.634  44.805
23912DT     BB355369  95.757  37.430  44.798
23912DT     SC155370  96.011  37.465  44.744
23912DT     SC255371  96.050  37.404  44.541
23912DT     SC355372  96.274  37.458  44.769
23913DT     BB155373  95.495  37.416  44.828
23913DT     BB255374  95.566  37.253  44.513
23913DT     BB355375  95.624  37.057  44.547
23913DT     SC155376  95.860  37.133  44.632
23913DT     SC255377  96.010  37.075  44.489
23913DT     SC355378  96.065  37.170  44.794
23914DT     BB155379  95.394  37.011  44.432
23914DT     BB255380  95.640  36.844  44.228
23914DT     BB355381  95.692  36.663  44.313
23914DT     SC155382  95.835  36.781  44.498
23914DT     SC255383  96.043  36.741  44.465
23914DT     SC355384  95.915  36.862  44.736
23915DA     BB155385  95.601  36.623  43.904
23915DA     BB255386  95.916  36.448  43.972
23915DA     BB355387  95.880  36.273  44.089
23915DA     SC155388  95.916  36.418  44.361
23915DA     SC255389  96.081  36.421  44.548
23915DA     SC355390  95.891  36.522  44.688
23915DA     SC455391  95.785  36.479  44.432
23916DA     BB155392  96.052  36.153  43.837
23916DA     BB255393  96.296  36.042  44.087
23916DA     BB355394  96.219  35.878  44.199
23916DA     SC155395  96.092  36.056  44.420
23916DA     SC255396  96.131  36.108  44.661
23916DA     SC355397  95.888  36.189  44.662
23916DA     SC455398  95.939  36.101  44.400
23917DT     BB155399  96.309  35.704  44.176
23917DT     BB255400  96.474  35.697  44.497
23917DT     BB355401  96.375  35.569  44.626
23917DT     SC155402  96.180  35.742  44.659
23917DT     SC255403  96.186  35.819  44.860
23917DT     SC355404  95.938  35.848  44.654
23918DA     BB155405  96.779  35.461  44.629
23918DA     BB255406  96.667  35.489  44.977
23918DA     BB355407  96.541  35.324  45.028
23918DA     SC155408  96.278  35.468  44.944
23918DA     SC255409  96.076  35.562  45.055
23918DA     SC355410  95.965  35.542  44.824
23918DA     SC455411  96.227  35.446  44.793
23919DA     BB155412  96.762  35.310  45.268
23919DA     BB255413  96.482  35.361  45.499
23919DA     BB355414  96.364  35.184  45.514
23919DA     SC155415  96.172  35.263  45.282
23919DA     SC255416  95.934  35.331  45.256
23919DA     SC355417  95.962  35.260  45.011
23919DA     SC455418  96.209  35.212  45.135
23920DA     BB155419  96.429  35.255  45.826
23920DA     BB255420  96.066  35.279  45.872
23920DA     BB355421  95.977  35.085  45.864
23920DA     SC155422  95.927  35.094  45.557
23920DA     SC255423  95.732  35.109  45.402
23920DA     SC355424  95.892  35.015  45.225
23920DA     SC455425  96.041  35.033  45.461
23921DA     BB155426  95.856  35.190  46.150
23921DA     BB255427  95.523  35.145  46.004
23921DA     BB355428  95.474  34.938  45.993
23921DA     SC155429  95.592  34.901  45.707
23921DA     SC255430  95.506  34.859  45.476
23921DA     SC355431  95.745  34.778  45.425
23921DA     SC455432  95.745  34.854  45.695
23922DA     BB155433  95.207  35.035  46.158
23922DA     BB255434  95.009  34.911  45.876
23922DA     BB355435  94.997  34.698  45.881
23922DA     SC155436  95.251  34.656  45.706
23922DA     SC255437  95.305  34.575  45.476
23922DA     SC355438  95.542  34.538  45.567
23922DA     SC455439  95.391  34.639  45.781
23923DA     BB155440  94.674  34.756  45.869
23923DA     BB255441  94.670  34.572  45.552
23923DA     BB355442  94.681  34.362  45.588
23923DA     SC155443  94.992  34.352  45.577
23923DA     SC255444  95.168  34.261  45.425
23923DA     SC355445  95.323  34.277  45.629
23923DA     SC455446  95.072  34.368  45.715
23924DA     BB155447  94.413  34.370  45.401
23924DA     BB255448  94.597  34.161  45.162
23924DA     BB355449  94.607  33.960  45.233
23924DA     SC155450  94.875  34.001  45.385
23924DA     SC255451  95.113  33.928  45.364
23924DA     SC355452  95.132  33.988  45.613
23924DA     SC455453  94.867  34.042  45.541
23925DT     BB155454  94.515  33.837  45.122
23925DT     BB255455  94.806  33.685  44.973
23925DT     BB355456  94.845  33.502  45.064
23925DT     SC155457  94.939  33.619  45.279
23925DT     SC255458  95.151  33.586  45.291
23925DT     SC355459  94.962  33.695  45.530
23926DT     BB155460  94.771  33.410  44.831
23926DT     BB255461  95.103  33.280  44.884
23926DT     BB355462  95.095  33.113  45.006
23926DT     SC155463  95.051  33.261  45.219
23926DT     SC255464  95.224  33.255  45.346
23926DT     SC355465  94.930  33.363  45.430
23927DT     BB155466  95.164  32.995  44.786
23927DT     BB255467  95.414  32.900  45.027
23927DT     BB355468  95.342  32.748  45.148
23927DT     SC155469  95.189  32.915  45.280
23927DT     SC255470  95.264  32.938  45.480
23927DT     SC355471  94.971  33.029  45.375
23928DC     BB155472  95.513  32.590  45.020
23928DC     BB255473  95.587  32.539  45.369
23928DC     BB355474  95.455  32.401  45.450
23928DC     SC155475  95.261  32.578  45.453
23928DC     SC255476  95.216  32.631  45.657
23928DC     SC355477  95.031  32.695  45.398
23929DA     BB155478  95.828  32.229  45.552
23929DA     BB255479  95.617  32.208  45.851
23929DA     BB355480  95.471  32.054  45.828
23929DA     SC155481  95.256  32.242  45.704
23929DA     SC255482  95.036  32.339  45.769
23929DA     SC355483  95.000  32.374  45.518
23929DA     SC455484  95.251  32.254  45.544
23930DA     BB155485  95.558  31.862  46.110
23930DA     BB255486  95.222  31.916  46.247
23930DA     BB355487  95.086  31.771  46.170
23930DA     SC155488  95.001  31.945  45.926
23930DA     SC255489  94.799  32.069  45.849
23930DA     SC355490  94.905  32.056  45.616
23930DA     SC455491  95.083  31.925  45.789
23931DT     BB155492  94.956  31.557  46.272
23931DT     BB255493  94.634  31.719  46.288
23931DT     BB355494  94.500  31.623  46.163
23931DT     SC155495  94.612  31.728  45.950
23931DT     SC255496  94.477  31.871  45.862
23931DT     SC355497  94.740  31.745  45.721
23932DA     BB155498  94.291  31.602  46.528
23932DA     BB255499  94.063  31.749  46.282
23932DA     BB355500  93.978  31.597  46.159
23932DA     SC155501  94.202  31.613  45.943
23932DA     SC255502  94.226  31.690  45.707
23932DA     SC355503  94.435  31.542  45.701
23932DA     SC455504  94.328  31.515  45.959
23933DG     BB155505  93.709  31.697  46.275
23933DG     BB255506  93.657  31.805  45.933
23933DG     BB355507  93.585  31.654  45.825
23933DG     SC155508  93.861  31.550  45.742
23933DG     SC255509  93.973  31.552  45.466
23933DG     SC355510  94.147  31.398  45.649
23933DG     SC455511  93.936  31.444  45.836
23934DA     BB155512  93.361  31.899  45.744
23934DA     BB255513  93.458  31.863  45.392
23934DA     BB355514  93.383  31.680  45.313
23934DA     SC155515  93.635  31.515  45.387
23934DA     SC255516  93.825  31.403  45.268
23934DA     SC355517  93.853  31.267  45.484
23934DA     SC455518  93.636  31.439  45.529
23935DA     BB155519  93.294  31.917  45.105
23935DA     BB255520  93.482  31.729  44.853
23935DA     BB355521  93.384  31.545  44.808
23935DA     SC155522  93.536  31.383  45.026
23935DA     SC255523  93.709  31.203  45.035
23935DA     SC355524  93.623  31.161  45.273
23935DA     SC455525  93.468  31.371  45.171
23936DC     BB155526  93.322  31.539  44.633
23936DC     BB255527  93.560  31.298  44.507
23936DC     BB355528  93.475  31.109  44.505
23936DC     SC155529  93.497  31.088  44.766
23936DC     SC255530  93.646  30.940  44.813
23936DC     SC355531  93.429  31.063  45.019
23937DA     BB155532  93.618  31.163  44.112
23937DA     BB255533  93.727  30.832  44.224
23937DA     BB355534  93.562  30.696  44.226
23937DA     SC155535  93.483  30.757  44.521
23937DA     SC255536  93.488  30.640  44.741
23937DA     SC355537  93.312  30.812  44.813
23937DA     SC455538  93.374  30.872  44.546
23938DT     BB155539  93.525  30.512  44.084
23938DT     BB255540  93.603  30.258  44.327
23938DT     BB355541  93.431  30.154  44.378
23938DT     SC155542  93.344  30.354  44.524
23938DT     SC255543  93.350  30.300  44.732
23938DT     SC355544  93.191  30.553  44.606
23939DT     BB155545  93.473  29.903  44.231
23939DT     BB255546  93.435  29.795  44.573
23939DT     BB355547  93.238  29.744  44.610
23939DT     SC155548  93.164  29.995  44.615
23939DT     SC255549  93.110  30.050  44.816
23939DT     SC355550  93.043  30.220  44.548
23940DA     BB155551  93.455  29.405  44.725
23940DA     BB255552  93.245  29.505  45.008
23940DA     BB355553  93.043  29.443  44.977
23940DA     SC155554  92.959  29.708  44.836
23940DA     SC255555  92.814  29.904  44.885
23940DA     SC355556  92.814  29.942  44.631
23940DA     SC455557  92.970  29.713  44.676
23941DA     BB155558  93.119  29.325  45.266
23941DA     BB255559  92.861  29.549  45.398
23941DA     BB355560  92.667  29.474  45.353
23941DA     SC155561  92.644  29.625  45.082
23941DA     SC255562  92.513  29.815  44.987
23941DA     SC355563  92.575  29.717  44.758
23941DA     SC455564  92.692  29.548  44.949
23942DA     BB155565  92.688  29.546  45.669
23942DA     BB255566  92.416  29.782  45.601
23942DA     BB355567  92.236  29.677  45.555
23942DA     SC155568  92.290  29.671  45.249
23942DA     SC255569  92.196  29.775  45.043
23942DA     SC355570  92.309  29.581  44.918
23942DA     SC455571  92.366  29.542  45.190
23943DC     BB155572  92.126  29.721  45.681
23943DC     BB255573  91.914  29.935  45.482
23943DC     BB355574  91.754  29.827  45.408
23943DC     SC155575  91.907  29.708  45.230
23943DC     SC255576  91.855  29.779  45.034
23943DC     SC355577  92.034  29.517  45.101
23944DA     BB155578  91.621  30.183  45.589
23944DA     BB255579  91.459  30.151  45.262
23944DA     BB355580  91.316  29.992  45.266
23944DA     SC155581  91.519  29.776  45.172
23944DA     SC255582  91.561  29.637  44.969
23944DA     SC355583  91.695  29.485  45.125
23944DA     SC455584  91.597  29.693  45.286
23945DC     BB155585  91.125  30.041  45.246
23945DC     BB255586  91.083  29.922  44.908
23945DC     BB355587  90.981  29.741  44.910
23945DC     SC155588  91.194  29.613  44.995
23945DC     SC255589  91.268  29.486  44.838
23945DC     SC355590  91.352  29.471  45.151
23946DT     BB155591  90.758  29.862  44.810
23946DT     BB255592  90.835  29.602  44.572
23946DT     BB355593  90.746  29.424  44.630
23946DT     SC155594  90.923  29.388  44.820
23946DT     SC255595  91.050  29.223  44.770
23946DT     SC355596  91.025  29.361  45.062
23947DT     BB155597  90.579  29.455  44.424
23947DT     BB255598  90.743  29.139  44.367
23947DT     BB355599  90.645  28.989  44.470
23947DT     SC155600  90.744  29.070  44.699
23947DT     SC255601  90.886  28.925  44.770
23947DT     SC355602  90.756  29.165  44.944
23948DA     BB155603  90.728  28.897  44.069
23948DA     BB255604  90.839  28.619  44.280
23948DA     BB355605  90.671  28.519  44.365
23948DA     SC155606  90.664  28.695  44.621
23948DA     SC255607  90.711  28.668  44.865
23948DA     SC355608  90.568  28.879  44.895
23948DA     SC455609  90.571  28.826  44.619
23949DT     BB155610  90.701  28.377  44.299
23949DT     BB255611  90.797  28.205  44.602
23949DT     BB355612  90.628  28.132  44.698
23949DT     SC155613  90.562  28.372  44.781
23949DT     SC255614  90.588  28.384  44.994
23949DT     SC355615  90.424  28.595  44.811
23950DA     BB155616  90.968  27.873  44.672
23950DA     BB255617  90.822  27.853  45.008
23950DA     BB355618  90.624  27.775  44.997
23950DA     SC155619  90.490  28.055  44.970
23950DA     SC255620  90.346  28.205  45.107
23950DA     SC355621  90.286  28.317  44.884
23950DA     SC455622  90.464  28.110  44.821
23951DT     BB155623  90.607  27.609  45.077
23951DT     BB255624  90.398  27.700  45.357
23951DT     BB355625  90.200  27.660  45.312
23951DT     SC155626  90.185  27.868  45.153
23951DT     SC255627  90.058  28.017  45.242
23951DT     SC355628  90.155  28.010  44.933
23952DG     BB155629  90.264  27.428  45.644
23952DG     BB255630  89.956  27.614  45.678
23952DG     BB355631  89.811  27.524  45.576
23952DG     SC155632  89.866  27.677  45.316
23952DG     SC255633  89.684  27.876  45.188
23952DG     SC355634  89.912  27.811  45.010
23952DG     SC455635  89.972  27.617  45.212
23953DT     BB155636  89.602  27.410  45.658
23953DT     BB255637  89.347  27.646  45.561
23953DT     BB355638  89.236  27.570  45.404
23953DT     SC155639  89.431  27.616  45.234
23953DT     SC255640  89.373  27.775  45.101
23953DT     SC355641  89.622  27.572  45.058
23954DA     BB155642  88.921  27.644  45.677
23954DA     BB255643  88.815  27.787  45.356
23954DA     BB355644  88.744  27.633  45.227
23954DA     SC155645  89.022  27.580  45.097
23954DA     SC255646  89.132  27.614  44.876
23954DA     SC355647  89.298  27.435  44.954
23954DA     SC455648  89.114  27.466  45.163
23955DA     BB155649  88.449  27.794  45.193
23955DA     BB255650  88.518  27.827  44.834
23955DA     BB355651  88.465  27.647  44.732
23955DA     SC155652  88.746  27.517  44.762
23955DA     SC255653  88.939  27.458  44.615
23955DA     SC355654  89.007  27.298  44.804
23955DA     SC455655  88.771  27.423  44.890
23956DA     BB155656  88.263  27.824  44.529
23956DA     BB255657  88.473  27.721  44.246
23956DA     BB355658  88.418  27.526  44.180
23956DA     SC155659  88.617  27.378  44.367
23956DA     SC255660  88.828  27.246  44.345
23956DA     SC355661  88.770  27.154  44.578
23956DA     SC455662  88.564  27.332  44.511
23957DC     BB155663  88.316  27.471  43.977
23957DC     BB255664  88.610  27.332  43.822
23957DC     BB355665  88.587  27.128  43.797
23957DC     SC155666  88.625  27.084  44.053
23957DC     SC255667  88.814  26.985  44.081
23957DC     SC355668  88.578  27.011  44.302
23958DT     BB155669  88.537  27.120  43.509
23958DT     BB255670  88.822  26.903  43.550
23958DT     BB355671  88.759  26.707  43.568
23958DT     SC155672  88.677  26.748  43.814
23958DT     SC255673  88.805  26.642  43.951
23958DT     SC355674  88.515  26.769  44.021
23959DA     BB155675  89.026  26.677  43.244
23959DA     BB255676  89.126  26.422  43.488
23959DA     BB355677  88.999  26.252  43.473
23959DA     SC155678  88.793  26.355  43.682
23959DA     SC255679  88.721  26.297  43.913
23959DA     SC355680  88.507  26.427  43.857
23959DA     SC455681  88.667  26.439  43.627
23960DT     BB155682  89.070  26.053  43.404
23960DT     BB255683  89.085  25.909  43.734
23960DT     BB355684  88.939  25.764  43.755
23960DT     SC155685  88.750  25.944  43.774
23960DT     SC255686  88.673  25.946  43.975
23960DT     SC355687  88.535  26.085  43.717
23961DT     BB155688  89.138  25.583  43.756
23961DT     BB255689  88.974  25.546  44.075
23961DT     BB355690  88.813  25.417  44.057
23961DT     SC155691  88.670  25.600  43.934
23961DT     SC255692  88.510  25.663  44.063
23961DT     SC355693  88.532  25.721  43.745
23962DG     BB155694  89.077  25.310  44.348
23962DG     BB255695  88.739  25.340  44.474
23962DG     BB355696  88.631  25.185  44.414
23962DG     SC155697  88.538  25.318  44.155
23962DG     SC255698  88.258  25.400  44.090
23962DG     SC355699  88.433  25.426  43.853
23962DG     SC455700  88.627  25.302  44.023
23963DA     BB155701  88.565  25.203  44.750
23963DA     BB255702  88.209  25.236  44.670
23963DA     BB355703  88.133  25.053  44.591
23963DA     SC155704  88.195  25.128  44.295
23963DA     SC255705  88.067  25.185  44.089
23963DA     SC355706  88.280  25.121  43.963
23963DA     SC455707  88.336  25.082  44.235
23964DG     BB155708  87.960  25.112  44.836
23964DG     BB255709  87.701  25.130  44.584
23964DG     BB355710  87.654  24.947  44.523
23964DG     SC155711  87.862  24.942  44.298
23964DG     SC255712  87.804  24.937  44.005
23964DG     SC355713  88.092  24.894  44.057
23964DG     SC455714  88.010  24.889  44.331
23965DT     BB155715  87.461  24.895  44.554
23965DT     BB255716  87.322  24.902  44.221
23965DT     BB355717  87.318  24.711  44.143
23965DT     SC155718  87.577  24.713  44.102
23965DT     SC255719  87.617  24.720  43.891
23965DT     SC355720  87.832  24.649  44.122
23966DT     BB155721  87.057  24.732  44.170
23966DT     BB255722  87.110  24.657  43.821
23966DT     BB355723  87.136  24.454  43.795
23966DT     SC155724  87.379  24.464  43.894
23966DT     SC255725  87.521  24.427  43.737
23966DT     SC355726  87.583  24.422  44.055
23967DA     BB155727  86.849  24.598  43.525
23967DA     BB255728  87.085  24.385  43.341
23967DA     BB355729  87.058  24.181  43.396
23967DA     SC155730  87.266  24.190  43.627
23967DA     SC255731  87.492  24.098  43.676
23967DA     SC355732  87.436  24.144  43.922
23967DA     SC455733  87.211  24.225  43.774
23968DA     BB155734  87.040  24.165  43.068
23968DA     BB255735  87.323  23.932  43.085
23968DA     BB355736  87.260  23.745  43.165
23968DA     SC155737  87.322  23.823  43.460
23968DA     SC255738  87.487  23.761  43.637
23968DA     SC355739  87.316  23.858  43.802
23968DA     SC455740  87.203  23.887  43.547
23969DA     BB155741  87.404  23.638  42.888
23969DA     BB255742  87.624  23.437  43.102
23969DA     BB355743  87.516  23.272  43.184
23969DA     SC155744  87.428  23.425  43.440
23969DA     SC255745  87.478  23.421  43.684
23969DA     SC355746  87.256  23.546  43.711
23969DA     SC455747  87.287  23.501  43.436
23970DC     BB155748  87.560  23.078  43.127
23970DC     BB255749  87.716  22.970  43.434
23970DC     BB355750  87.586  22.849  43.540
23970DC     SC155751  87.440  23.054  43.613
23970DC     SC255752  87.464  23.088  43.824
23970DC     SC355753  87.233  23.215  43.637
23971DA     BB155754  87.925  22.598  43.512
23971DA     BB255755  87.817  22.592  43.862
23971DA     BB355756  87.645  22.468  43.885
23971DA     SC155757  87.441  22.699  43.838
23971DA     SC255758  87.275  22.828  43.972
23971DA     SC355759  87.170  22.888  43.746
23971DA     SC455760  87.390  22.723  43.688
23972DA     BB155761  87.806  22.284  44.115
23972DA     BB255762  87.555  22.392  44.360
23972DA     BB355763  87.379  22.271  44.343
23972DA     SC155764  87.241  22.459  44.137
23972DA     SC255765  87.047  22.615  44.130
23972DA     SC355766  87.059  22.586  43.875
23972DA     SC455767  87.264  22.426  43.981
23973DT     BB155768  87.314  22.134  44.500
23973DT     BB255769  87.047  22.344  44.622
23973DT     BB355770  86.864  22.262  44.573
23973DT     SC155771  86.890  22.335  44.322
23973DT     SC255772  86.749  22.491  44.278
23973DT     SC355773  86.915  22.318  44.060
23974DC     BB155774  86.829  22.204  44.832
23974DC     BB255775  86.553  22.419  44.746
23974DC     BB355776  86.398  22.307  44.666
23974DC     SC155777  86.527  22.278  44.439
23974DC     SC255778  86.427  22.390  44.285
23974DC     SC355779  86.652  22.162  44.238
23975DT     BB155780  86.278  22.371  44.889
23975DT     BB255781  86.067  22.499  44.626
23975DT     BB355782  85.949  22.347  44.551
23975DT     SC155783  86.151  22.242  44.422
23975DT     SC255784  86.123  22.269  44.210
23975DT     SC355785  86.337  22.069  44.349
23976DT     BB155786  85.765  22.490  44.666
23976DT     BB255787  85.667  22.465  44.319
23976DT     BB355788  85.579  22.281  44.284
23976DT     SC155789  85.811  22.160  44.291
23976DT     SC255790  85.862  22.091  44.094
23976DT     SC355791  86.005  21.999  44.370
23977DA     BB155792  85.342  22.595  44.129
23977DA     BB255793  85.369  22.332  43.875
23977DA     BB355794  85.263  22.158  43.936
23977DA     SC155795  85.507  22.029  44.079
23977DA     SC255796  85.660  21.834  44.044
23977DA     SC355797  85.713  21.858  44.294
23977DA     SC455798  85.526  22.059  44.236
23978DA     BB155799  85.116  22.194  43.641
23978DA     BB255800  85.237  21.857  43.560
23978DA     BB355801  85.123  21.710  43.664
23978DA     SC155802  85.311  21.705  43.912
23978DA     SC255803  85.474  21.548  44.017
23978DA     SC355804  85.440  21.687  44.230
23978DA     SC455805  85.276  21.803  44.034
23979DG     BB155806  85.015  21.579  43.390
23979DG     BB255807  85.197  21.287  43.502
23979DG     BB355808  85.082  21.177  43.620
23979DG     SC155809  85.167  21.319  43.878
23979DG     SC255810  85.324  21.199  44.101
23979DG     SC355811  85.222  21.466  44.176
23979DG     SC455812  85.086  21.449  43.925
23980DC     BB155813  84.981  20.936  43.591
23980DC     BB255814  85.201  20.752  43.809
23980DC     BB355815  85.097  20.686  43.976
23980DC     SC155816  85.095  20.927  44.079
23980DC     SC255817  85.223  20.932  44.252
23980DC     SC355818  85.003  21.157  44.171
23981DC     BB155819  85.067  20.401  43.911
23981DC     BB255820  85.237  20.397  44.229
23981DC     BB355821  85.100  20.376  44.382
23981DC     SC155822  85.023  20.626  44.357
23981DC     SC255823  85.088  20.739  44.528
23981DC     SC355824  84.868  20.834  44.310
23982DT     BB155825  85.166  20.109  44.440
23982DT     BB255826  85.225  20.283  44.750
23982DT     BB355827  85.054  20.281  44.866
23982DT     SC155828  84.939  20.461  44.715
23982DT     SC255829  84.922  20.646  44.824
23982DT     SC355830  84.768  20.573  44.549
23983DA     BB155831  85.366  20.137  45.107
23983DA     BB255832  85.195  20.403  45.292
23983DA     BB355833  85.007  20.333  45.367
23983DA     SC155834  84.847  20.422  45.115
23983DA     SC255835  84.677  20.595  45.057
23983DA     SC355836  84.623  20.444  44.856
23983DA     SC455837  84.828  20.314  44.998
23984DG     BB155838  85.134  20.401  45.642
23984DG     BB255839  84.871  20.649  45.648
23984DG     BB355840  84.701  20.566  45.710
23984DG     SC155841  84.609  20.487  45.429
23984DG     SC255842  84.374  20.600  45.282
23984DG     SC355843  84.487  20.368  45.138
23984DG     SC455844  84.654  20.345  45.369
23985DC     BB155845  84.600  20.634  45.898
23985DC     BB255846  84.328  20.828  45.763
23985DC     BB355847  84.150  20.722  45.780
23985DC     SC155848  84.217  20.563  45.583
23985DC     SC255849  84.091  20.603  45.413
23985DC     SC355850  84.280  20.342  45.452
23986DC     BB155851  84.071  20.894  45.974
23986DC     BB255852  83.818  20.919  45.719
23986DC     BB355853  83.673  20.774  45.748
23986DC     SC155854  83.833  20.585  45.659
23986DC     SC255855  83.761  20.514  45.469
23986DC     SC355856  83.982  20.368  45.655
23987DT     BB155857  83.513  20.974  45.816
23987DT     BB255858  83.353  20.815  45.534
23987DT     BB355859  83.241  20.654  45.598
23987DT     SC155860  83.456  20.509  45.637
23987DT     SC255861  83.464  20.351  45.491
23987DT     SC355862  83.641  20.369  45.762
23988DT     BB155863  83.052  20.812  45.520
23988DT     BB255864  83.019  20.513  45.321
23988DT     BB355865  82.923  20.366  45.430
23988DT     SC155866  83.138  20.321  45.575
23988DT     SC255867  83.219  20.128  45.525
23988DT     SC355868  83.297  20.306  45.784
23989DA     BB155869  82.813  20.431  45.025
23989DA     BB255870  82.857  20.072  45.085
23989DA     BB355871  82.712  20.002  45.225
23989DA     SC155872  82.891  20.053  45.474
23989DA     SC255873  83.014  19.918  45.644
23989DA     SC355874  83.009  20.131  45.787
23989DA     SC455875  82.877  20.195  45.548
23990DT     BB155876  82.663  19.902  45.119
23990DT     BB255877  82.764  19.600  45.289
23990DT     BB355878  82.630  19.555  45.440
23990DT     SC155879  82.726  19.747  45.592
23990DT     SC255880  82.830  19.660  45.759
23990DT     SC355881  82.737  19.970  45.733
23991DC     BB155882  82.593  19.364  45.273
23991DC     BB255883  82.655  19.207  45.592
23991DC     BB355884  82.488  19.226  45.713
23991DC     SC155885  82.539  19.479  45.758
23991DC     SC255886  82.600  19.505  45.962
23991DC     SC355887  82.510  19.742  45.760
23992DT     BB155888  82.436  18.964  45.677
23992DT     BB255889  82.435  19.006  46.035
23992DT     BB355890  82.249  19.072  46.098
23992DT     SC155891  82.295  19.314  46.007
23992DT     SC255892  82.317  19.449  46.173
23992DT     SC355893  82.271  19.533  45.863
23993DT     BB155894  82.158  18.825  46.205
23993DT     BB255895  82.114  19.056  46.479
23993DT     BB355896  81.925  19.139  46.471
23993DT     SC155897  81.992  19.293  46.270
23993DT     SC255898  81.998  19.498  46.336
23993DT     SC355899  81.995  19.398  46.028
23994DA     BB155900  81.922  18.980  46.862
23994DA     BB255901  81.811  19.329  46.888
23994DA     BB355902  81.607  19.346  46.828
23994DA     SC155903  81.675  19.402  46.529
23994DA     SC255904  81.663  19.594  46.370
23994DA     SC355905  81.674  19.415  46.186
23994DA     SC455906  81.682  19.276  46.430
23995DA     BB155907  81.563  19.485  47.123
23995DA     BB255908  81.472  19.792  46.946
23995DA     BB355909  81.271  19.780  46.875
23995DA     SC155910  81.349  19.659  46.600
23995DA     SC255911  81.352  19.730  46.361
23995DA     SC355912  81.358  19.479  46.307
23995DA     SC455913  81.351  19.498  46.587
23996DT     BB155914  81.147  19.907  46.954
23996DT     BB255915  81.130  20.129  46.670
23996DT     BB355916  80.952  20.100  46.569
23996DT     SC155917  81.038  19.874  46.466
23996DT     SC255918  81.069  19.899  46.255
23996DT     SC355919  81.055  19.616  46.413
23997DG     BB155920  81.012  20.488  46.677
23997DG     BB255921  80.942  20.454  46.324
23997DG     BB355922  80.749  20.414  46.297
23997DG     SC155923  80.785  20.110  46.311
23997DG     SC255924  80.745  19.918  46.086
23997DG     SC355925  80.785  19.774  46.342
23997DG     SC455926  80.777  20.038  46.454
23998DA     BB155927  80.801  20.671  46.072
23998DA     BB255928  80.677  20.452  45.805
23998DA     BB355929  80.469  20.415  45.830
23998DA     SC155930  80.510  20.160  46.004
23998DA     SC255931  80.476  19.914  45.981
23998DA     SC355932  80.481  19.910  46.237
23998DA     SC455933  80.514  20.179  46.163
23999DT     BB155934  80.371  20.486  45.693
23999DT     BB255935  80.273  20.177  45.535
23999DT     BB355936  80.084  20.122  45.599
23999DT     SC155937  80.176  20.046  45.832
23999DT     SC255938  80.163  19.832  45.847
23999DT     SC355939  80.215  20.037  46.093
24000DT     BB155940  79.966  20.193  45.359
24000DT     BB255941  79.856  19.853  45.410
24000DT     BB355942  79.684  19.851  45.525
24000DT     SC155943  79.819  19.906  45.743
24000DT     SC255944  79.819  19.735  45.872
24000DT     SC355945  79.903  20.036  45.957
24001DA     BB155946  79.527  19.640  45.191
24001DA     BB255947  79.430  19.448  45.487
24001DA     BB355948  79.261  19.537  45.582
24001DA     SC155949  79.430  19.718  45.769
24001DA     SC255950  79.482  19.734  46.012
24001DA     SC355951  79.548  19.977  45.961
24001DA     SC455952  79.465  19.867  45.718
24002DG     BB155953  79.048  19.286  45.539
24002DG     BB255954  79.059  19.262  45.900
24002DG     BB355955  78.913  19.370  45.980
24002DG     SC155956  79.079  19.627  45.998
24002DG     SC255957  79.168  19.760  46.250
24002DG     SC355958  79.226  19.930  46.015
24002DG     SC455959  79.082  19.727  45.874
24003DC     BB155960  78.706  19.297  46.118
24003DC     BB255961  78.822  19.388  46.447
24003DC     BB355962  78.711  19.547  46.520
24003DC     SC155963  78.833  19.716  46.362
24003DC     SC255964  78.959  19.846  46.479
24003DC     SC355965  78.872  19.894  46.171
24004DG     BB155966  78.651  19.250  46.794
24004DG     BB255967  78.779  19.549  46.952
24004DG     BB355968  78.630  19.677  46.984
24004DG     SC155969  78.659  19.817  46.713
24004DG     SC255970  78.747  20.098  46.669
24004DG     SC355971  78.649  19.978  46.417
24004DG     SC455972  78.578  19.759  46.587
24005DA     BB155973  78.752  19.681  47.304
24005DA     BB255974  78.822  20.039  47.271
24005DA     BB355975  78.642  20.152  47.287
24005DA     SC155976  78.583  20.147  46.982
24005DA     SC255977  78.580  20.308  46.792
24005DA     SC355978  78.431  20.136  46.674
24005DA     SC455979  78.490  20.028  46.926
24006DG     BB155980  78.815  20.262  47.514
24006DG     BB255981  78.799  20.561  47.311
24006DG     BB355982  78.623  20.650  47.336
24006DG     SC155983  78.485  20.498  47.109
24006DG     SC255984  78.386  20.615  46.853
24006DG     SC355985  78.298  20.334  46.881
24006DG     SC455986  78.415  20.357  47.141
24007DG     BB155987  78.815  20.897  47.414
24007DG     BB255988  78.667  21.065  47.130
24007DG     BB355989  78.485  21.131  47.178
24007DG     SC155990  78.342  20.875  47.092
24007DG     SC255991  78.153  20.848  46.863
24007DG     SC355992  78.155  20.602  47.027
24007DG     SC455993  78.324  20.756  47.199
24008DA     BB155994  78.619  21.417  47.041
24008DA     BB255995  78.343  21.423  46.799
24008DA     BB355996  78.161  21.475  46.896
24008DA     SC155997  78.082  21.180  46.960
24008DA     SC255998  77.911  21.014  46.886
24008DA     SC355999  77.963  20.893  47.106
24008DA     SC456000  78.128  21.120  47.102
24009DT     BB156001  78.094  21.636  46.837
24009DT     BB256002  77.816  21.506  46.647
24009DT     BB356003  77.642  21.519  46.758
24009DT     SC156004  77.714  21.318  46.910
24009DT     SC256005  77.587  21.149  46.869
24009DT     SC356006  77.784  21.181  47.124
24010DC     BB156007  77.569  21.710  46.589
24010DC     BB256008  77.303  21.467  46.575
24010DC     BB356009  77.171  21.498  46.732
24010DC     SC156010  77.340  21.396  46.905
24010DC     SC256011  77.264  21.207  46.975
24010DC     SC356012  77.504  21.378  47.110
24011DT     BB156013  76.991  21.591  46.555
24011DT     BB256014  76.820  21.324  46.726
24011DT     BB356015  76.735  21.395  46.901
24011DT     SC156016  76.969  21.404  47.019
24011DT     SC256017  76.979  21.253  47.172
24011DT     SC356018  77.183  21.502  47.139
24012DA     BB156019  76.428  21.198  46.692
24012DA     BB256020  76.423  21.078  47.039
24012DA     BB356021  76.347  21.230  47.168
24012DA     SC156022  76.625  21.354  47.228
24012DA     SC256023  76.783  21.371  47.421
24012DA     SC356024  76.885  21.569  47.294
24012DA     SC456025  76.674  21.475  47.134
24013DT     BB156026  76.165  21.203  47.264
24013DT     BB256027  76.298  21.143  47.594
24013DT     BB356028  76.269  21.310  47.714
24013DT     SC156029  76.461  21.441  47.592
24013DT     SC256030  76.627  21.465  47.726
24013DT     SC356031  76.583  21.625  47.448
24014DT     BB156032  76.071  21.186  47.859
24014DT     BB256033  76.313  21.286  48.107
24014DT     BB356034  76.274  21.478  48.171
24014DT     SC156035  76.368  21.580  47.948
24014DT     SC256036  76.552  21.683  47.988
24014DT     SC356037  76.376  21.709  47.718
24015DC     BB156038  76.180  21.391  48.414
24015DC     BB256039  76.448  21.617  48.497
24015DC     BB356040  76.376  21.811  48.511
24015DC     SC156041  76.357  21.830  48.250
24015DC     SC256042  76.504  21.970  48.178
24015DC     SC356043  76.250  21.858  48.010
24016DG     BB156044  76.540  21.731  48.876
24016DG     BB256045  76.676  22.035  48.735
24016DG     BB356046  76.548  22.185  48.761
24016DG     SC156047  76.399  22.137  48.498
24016DG     SC256048  76.396  22.321  48.263
24016DG     SC356049  76.201  22.101  48.227
24016DG     SC456050  76.275  22.036  48.496
24017DT     BB156051  76.602  22.362  48.883
24017DT     BB256052  76.662  22.606  48.624
24017DT     BB356053  76.503  22.738  48.613
24017DT     SC156054  76.353  22.558  48.495
24017DT     SC256055  76.319  22.616  48.291
24017DT     SC356056  76.154  22.389  48.453
24018DA     BB156057  76.859  22.957  48.641
24018DA     BB256058  76.666  23.088  48.359
24018DA     BB356059  76.497  23.198  48.429
24018DA     SC156060  76.307  22.952  48.429
24018DA     SC256061  76.109  22.871  48.301
24018DA     SC356062  76.063  22.722  48.504
24018DA     SC456063  76.294  22.868  48.566
24019DT     BB156064  76.504  23.382  48.385
24019DT     BB256065  76.256  23.372  48.123
24019DT     BB356066  76.075  23.442  48.194
24019DT     SC156067  76.033  23.220  48.328
24019DT     SC256068  75.871  23.112  48.237
24019DT     SC356069  75.995  23.057  48.531
24020DA     BB156070  76.180  23.627  47.832
24020DA     BB256071  75.835  23.507  47.806
24020DA     BB356072  75.707  23.624  47.931
24020DA     SC156073  75.740  23.439  48.179
24020DA     SC256074  75.600  23.278  48.310
24020DA     SC356075  75.772  23.314  48.497
24020DA     SC456076  75.856  23.475  48.284
24021DA     BB156077  75.559  23.634  47.640
24021DA     BB256078  75.272  23.477  47.807
24021DA     BB356079  75.177  23.617  47.937
24021DA     SC156080  75.349  23.539  48.185
24021DA     SC256081  75.316  23.424  48.403
24021DA     SC356082  75.531  23.543  48.476
24021DA     SC456083  75.483  23.624  48.212
24022DT     BB156084  74.998  23.666  47.886
24022DT     BB256085  74.826  23.482  48.145
24022DT     BB356086  74.769  23.610  48.296
24022DT     SC156087  75.015  23.628  48.386
24022DT     SC256088  75.029  23.528  48.576
24022DT     SC356089  75.248  23.731  48.452
24023DT     BB156090  74.510  23.588  48.217
24023DT     BB256091  74.508  23.488  48.564
24023DT     BB356092  74.489  23.654  48.686
24023DT     SC156093  74.738  23.724  48.643
24023DT     SC256094  74.852  23.697  48.823
24023DT     SC356095  74.946  23.866  48.563
24024DT     BB156096  74.232  23.585  48.747
24024DT     BB256097  74.400  23.605  49.066
24024DT     BB356098  74.394  23.799  49.137
24024DT     SC156099  74.577  23.876  48.965
24024DT     SC256100  74.759  23.921  49.071
24024DT     SC356101  74.692  24.003  48.765
24025DG     BB156102  74.220  23.560  49.417
24025DG     BB256103  74.485  23.761  49.559
24025DG     BB356104  74.421  23.947  49.588
24025DG     SC156105  74.505  24.045  49.311
24025DG     SC256106  74.720  24.244  49.253
24025DG     SC356107  74.566  24.182  49.008
24025DG     SC456108  74.402  24.032  49.189
24026DT     BB156109  74.424  24.014  49.783
24026DT     BB256110  74.709  24.236  49.779
24026DT     BB356111  74.645  24.432  49.762
24026DT     SC156112  74.587  24.400  49.508
24026DT     SC256113  74.726  24.512  49.389
24026DT     SC356114  74.446  24.385  49.286
24027DA     BB156115  74.928  24.376  50.068
24027DA     BB256116  75.030  24.663  49.864
24027DA     BB356117  74.895  24.826  49.892
24027DA     SC156118  74.706  24.742  49.659
24027DA     SC256119  74.645  24.826  49.432
24027DA     SC356120  74.435  24.681  49.459
24027DA     SC456121  74.582  24.648  49.695
24028DA     BB156122  75.200  24.939  49.931
24028DA     BB256123  75.117  25.172  49.660
24028DA     BB356124  74.967  25.310  49.724
24028DA     SC156125  74.729  25.134  49.629
24028DA     SC256126  74.555  25.139  49.451
24028DA     SC356127  74.428  24.973  49.599
24028DA     SC456128  74.665  25.032  49.736
24029DA     BB156129  75.207  25.498  49.597
24029DA     BB256130  74.948  25.630  49.373
24029DA     BB356131  74.806  25.745  49.483
24029DA     SC156132  74.618  25.504  49.539
24029DA     SC256133  74.391  25.426  49.469
24029DA     SC356134  74.398  25.281  49.680
24029DA     SC456135  74.640  25.422  49.676
24030DT     BB156136  74.801  25.937  49.448
24030DT     BB256137  74.482  25.949  49.278
24030DT     BB356138  74.335  26.015  49.408
24030DT     SC156139  74.331  25.784  49.533
24030DT     SC256140  74.145  25.684  49.491
24030DT     SC356141  74.355  25.606  49.726
24031DT     BB156142  74.312  26.278  49.304
24031DT     BB256143  73.972  26.159  49.299
24031DT     BB356144  73.878  26.207  49.477
24031DT     SC156145  74.008  26.019  49.606
24031DT     SC256146  73.871  25.862  49.661
24031DT     SC356147  74.170  25.903  49.779
24032DG     BB156148  73.638  26.415  49.214
24032DG     BB256149  73.436  26.207  49.431
24032DG     BB356150  73.405  26.300  49.604
24032DG     SC156151  73.655  26.185  49.739
24032DG     SC256152  73.658  25.993  49.967
24032DG     SC356153  73.930  26.093  49.910
24032DG     SC456154  73.793  26.263  49.725
24033DA     BB156155  73.051  26.270  49.584
24033DA     BB256156  73.044  26.071  49.892
24033DA     BB356157  73.052  26.199  50.063
24033DA     SC156158  73.363  26.195  50.082
24033DA     SC256159  73.537  26.102  50.234
24033DA     SC356160  73.693  26.277  50.129
24033DA     SC456161  73.443  26.311  50.006
24034DT     BB156162  72.885  26.227  50.208
24034DT     BB256163  73.028  26.030  50.474
24034DT     BB356164  73.087  26.153  50.629
24034DT     SC156165  73.296  26.237  50.495
24034DT     SC256166  73.475  26.160  50.586
24034DT     SC356167  73.460  26.399  50.367
24035DG     BB156168  72.813  25.907  50.810
24035DG     BB256169  73.125  25.906  50.992
24035DG     BB356170  73.135  26.066  51.110
24035DG     SC156171  73.266  26.245  50.900
24035DG     SC256172  73.544  26.355  50.911
24035DG     SC356173  73.392  26.475  50.687
24035DG     SC456174  73.173  26.328  50.800
24036DA     BB156175  73.201  25.863  51.390
24036DA     BB256176  73.527  26.025  51.435
24036DA     BB356177  73.504  26.211  51.536
24036DA     SC156178  73.471  26.377  51.274
24036DA     SC256179  73.602  26.545  51.145
24036DA     SC356180  73.377  26.606  51.037
24036DA     SC456181  73.322  26.401  51.220
24037DT     BB156182  73.580  26.250  51.739
24037DT     BB256183  73.864  26.447  51.634
24037DT     BB356184  73.835  26.645  51.686
24037DT     SC156185  73.661  26.679  51.493
24037DT     SC256186  73.746  26.807  51.342
24037DT     SC356187  73.433  26.727  51.370
24038DG     BB156188  74.179  26.534  51.876
24038DG     BB256189  74.231  26.824  51.667
24038DG     BB356190  74.170  26.988  51.761
24038DG     SC156191  73.883  26.972  51.654
24038DG     SC256192  73.756  27.165  51.465
24038DG     SC356193  73.556  26.974  51.571
24038DG     SC456194  73.775  26.887  51.735
24039DA     BB156195  74.481  27.100  51.679
24039DA     BB256196  74.328  27.365  51.478
24039DA     BB356197  74.253  27.520  51.604
24039DA     SC156198  73.970  27.394  51.630
24039DA     SC256199  73.738  27.443  51.553
24039DA     SC356200  73.664  27.288  51.744
24039DA     SC456201  73.944  27.295  51.755
24040DG     BB156202  74.453  27.641  51.411
24040DG     BB256203  74.153  27.804  51.292
24040DG     BB356204  74.099  27.947  51.419
24040DG     SC156205  73.922  27.764  51.589
24040DG     SC256206  73.625  27.780  51.614
24040DG     SC356207  73.737  27.588  51.809
24040DG     SC456208  73.988  27.684  51.711
24041DG     BB156209  74.118  28.095  51.135
24041DG     BB256210  73.767  28.164  51.184
24041DG     BB356211  73.744  28.306  51.322
24041DG     SC156212  73.731  28.109  51.557
24041DG     SC256213  73.492  28.056  51.728
24041DG     SC356214  73.732  27.924  51.839
24041DG     SC456215  73.867  28.065  51.629
24042DT     BB156216  73.650  28.456  51.246
24042DT     BB256217  73.327  28.437  51.405
24042DT     BB356218  73.324  28.556  51.574
24042DT     SC156219  73.469  28.383  51.708
24042DT     SC256220  73.349  28.291  51.860
24042DT     SC356221  73.672  28.280  51.841
24043DA     BB156222  72.989  28.644  51.336
24043DA     BB256223  72.877  28.604  51.683
24043DA     BB356224  72.943  28.769  51.801
24043DA     SC156225  73.210  28.633  51.885
24043DA     SC256226  73.312  28.538  52.092
24043DA     SC356227  73.536  28.569  51.971
24043DA     SC456228  73.340  28.662  51.794
24044DT     BB156229  72.804  28.892  51.874
24044DT     BB256230  72.825  28.785  52.218
24044DT     BB356231  72.929  28.924  52.330
24044DT     SC156232  73.158  28.847  52.227
24044DT     SC256233  73.274  28.748  52.378
24044DT     SC356234  73.385  28.854  52.093
24045DA     BB156235  72.567  28.854  52.528
24045DA     BB256236  72.838  28.827  52.775
24045DA     BB356237  72.915  29.021  52.821
24045DA     SC156238  73.133  29.015  52.599
24045DA     SC256239  73.381  29.000  52.585
24045DA     SC356240  73.353  29.097  52.349
24045DA     SC456241  73.094  29.077  52.456
24046DT     BB156242  72.886  29.076  53.002
24046DT     BB256243  73.226  29.033  53.116
24046DT     BB356244  73.321  29.217  53.127
24046DT     SC156245  73.343  29.230  52.866
24046DT     SC256246  73.550  29.210  52.811
24046DT     SC356247  73.312  29.315  52.618
24047DT     BB156248  73.309  29.167  53.382
24047DT     BB256249  73.659  29.216  53.309
24047DT     BB356250  73.702  29.419  53.300
24047DT     SC156251  73.586  29.441  53.066
24047DT     SC256252  73.735  29.477  52.916
24047DT     SC356253  73.416  29.517  52.879
24048DC     BB156254  73.830  29.353  53.514
24048DC     BB256255  74.074  29.509  53.298
24048DC     BB356256  74.052  29.715  53.304
24048DC     SC156257  73.835  29.704  53.156
24048DC     SC256258  73.877  29.788  52.962
24048DC     SC356259  73.583  29.727  53.084
24049DA     BB156260  74.458  29.610  53.357
24049DA     BB256261  74.441  29.895  53.126
24049DA     BB356262  74.375  30.070  53.229
24049DA     SC156263  74.074  30.020  53.171
24049DA     SC256264  73.893  30.122  53.033
24049DA     SC356265  73.731  30.000  53.191
24049DA     SC456266  73.990  29.938  53.281
24050DC     BB156267  74.502  30.238  53.269
24050DC     BB256268  74.346  30.481  53.053
24050DC     BB356269  74.233  30.613  53.165
24050DC     SC156270  74.045  30.433  53.202
24050DC     SC256271  73.869  30.491  53.092
24050DC     SC356272  73.883  30.265  53.325
24051DT     BB156273  74.405  30.865  53.196
24051DT     BB256274  74.093  31.006  53.084
24051DT     BB356275  73.982  31.071  53.247
24051DT     SC156276  73.919  30.825  53.312
24051DT     SC256277  73.710  30.793  53.276
24051DT     SC356278  73.904  30.602  53.451
24052DA     BB156279  73.990  31.465  53.073
24052DA     BB256280  73.639  31.403  53.159
24052DA     BB356281  73.604  31.448  53.365
24052DA     SC156282  73.667  31.159  53.463
24052DA     SC256283  73.542  30.966  53.559
24052DA     SC356284  73.771  30.886  53.642
24052DA     SC456285  73.818  31.127  53.507
24053DA     BB156286  73.356  31.682  53.310
24053DA     BB256287  73.119  31.458  53.477
24053DA     BB356288  73.120  31.493  53.687
24053DA     SC156289  73.341  31.282  53.745
24053DA     SC256290  73.360  31.059  53.855
24053DA     SC356291  73.610  31.111  53.872
24053DA     SC456292  73.494  31.333  53.748
24054DT     BB156293  72.945  31.585  53.822
24054DT     BB256294  72.840  31.268  53.960
24054DT     BB356295  72.879  31.263  54.163
24054DT     SC156296  73.136  31.231  54.121
24054DT     SC256297  73.193  31.032  54.180
24054DT     SC356298  73.395  31.278  54.120
24055DG     BB156299  72.475  31.209  54.139
24055DG     BB256300  72.632  30.941  54.324
24055DG     BB356301  72.663  30.998  54.512
24055DG     SC156302  72.942  31.112  54.456
24055DG     SC256303  73.200  31.004  54.560
24055DG     SC356304  73.241  31.265  54.426
24055DG     SC456305  72.955  31.265  54.410
24056DT     BB156306  72.565  30.894  54.687
24056DT     BB256307  72.843  30.698  54.810
24056DT     BB356308  72.915  30.781  54.986
24056DT     SC156309  73.030  30.977  54.855
24056DT     SC256310  73.244  30.953  54.864
24056DT     SC356311  73.086  31.221  54.772
24057DT     BB156312  72.812  30.571  55.119
24057DT     BB256313  73.165  30.563  55.192
24057DT     BB356314  73.207  30.685  55.354
24057DT     SC156315  73.178  30.901  55.208
24057DT     SC256316  73.369  30.996  55.181
24057DT     SC356317  73.081  31.131  55.120
24058DT     BB156318  73.254  30.461  55.489
24058DT     BB256319  73.562  30.648  55.506
24058DT     BB356320  73.554  30.784  55.661
24058DT     SC156321  73.392  30.941  55.527
24058DT     SC256322  73.497  31.121  55.472
24058DT     SC356323  73.176  31.077  55.460
24059DG     BB156324  73.877  30.539  55.691
24059DG     BB256325  73.970  30.888  55.703
24059DG     BB356326  73.924  30.965  55.881
24059DG     SC156327  73.641  31.050  55.799
24059DG     SC256328  73.543  31.331  55.775
24059DG     SC356329  73.320  31.139  55.750
24059DG     SC456330  73.521  30.946  55.816
24060DG     BB156331  74.235  31.035  55.856
24060DG     BB256332  74.127  31.379  55.875
24060DG     BB356333  74.077  31.424  56.062
24060DG     SC156334  73.784  31.341  56.029
24060DG     SC256335  73.548  31.524  56.037
24060DG     SC356336  73.462  31.241  56.034
24060DG     SC456337  73.742  31.189  56.057
24061DA     BB156338  74.282  31.688  55.986
24061DA     BB256339  74.011  31.919  56.073
24061DA     BB356340  73.977  31.918  56.284
24061DA     SC156341  73.765  31.691  56.273
24061DA     SC256342  73.519  31.667  56.307
24061DA     SC356343  73.568  31.417  56.340
24061DA     SC456344  73.816  31.540  56.292
24062DA     BB156345  74.012  32.238  56.223
24062DA     BB256346  73.680  32.282  56.371
24062DA     BB356347  73.688  32.252  56.582
24062DA     SC156348  73.628  31.947  56.566
24062DA     SC256349  73.441  31.793  56.626
24062DA     SC356350  73.619  31.608  56.619
24062DA     SC456351  73.753  31.847  56.559
24063DT     BB156352  73.658  32.412  56.718
24063DT     BB256353  73.335  32.311  56.843
24063DT     BB356354  73.354  32.236  57.035
24063DT     SC156355  73.458  32.013  56.946
24063DT     SC256356  73.319  31.852  56.976
24063DT     SC356357  73.633  31.820  56.905
24064DT     BB156358  73.247  32.464  57.172
24064DT     BB256359  73.045  32.191  57.296
24064DT     BB356360  73.129  32.114  57.469
24064DT     SC156361  73.319  31.994  57.333
24064DT     SC256362  73.289  31.781  57.341
24064DT     SC356363  73.560  31.931  57.246
24065DC     BB156364  72.946  32.229  57.664
24065DC     BB256365  72.931  31.875  57.736
24065DC     BB356366  73.065  31.828  57.886
24065DC     SC156367  73.269  31.850  57.722
24065DC     SC256368  73.353  31.655  57.687
24065DC     SC356369  73.493  31.938  57.615
24066DT     BB156370  72.872  31.793  58.095
24066DT     BB256371  73.048  31.478  58.088
24066DT     BB356372  73.204  31.481  58.224
24066DT     SC156373  73.347  31.636  58.068
24066DT     SC256374  73.514  31.524  57.991
24066DT     SC356375  73.481  31.846  57.982
24067DA     BB156376  72.981  31.139  58.308
24067DA     BB256377  73.332  31.038  58.282
24067DA     BB356378  73.439  31.097  58.456
24067DA     SC156379  73.523  31.374  58.342
24067DA     SC256380  73.731  31.486  58.265
24067DA     SC356381  73.603  31.705  58.302
24067DA     SC456382  73.427  31.499  58.373
24068DA     BB156383  73.512  30.780  58.439
24068DA     BB256384  73.863  30.883  58.410
24068DA     BB356385  73.937  30.949  58.600
24068DA     SC156386  73.859  31.246  58.553
24068DA     SC256387  73.974  31.464  58.514
24068DA     SC356388  73.755  31.571  58.592
24068DA     SC456389  73.714  31.294  58.606
24069DT     BB156390  74.074  30.838  58.672
24069DT     BB256391  74.351  31.064  58.620
24069DT     BB356392  74.399  31.159  58.798
24069DT     SC156393  74.188  31.314  58.782
24069DT     SC256394  74.251  31.516  58.743
24069DT     SC356395  73.956  31.424  58.842
24070DA     BB156396  74.754  30.997  58.643
24070DA     BB256397  74.825  31.342  58.747
24070DA     BB356398  74.831  31.356  58.960
24070DA     SC156399  74.529  31.421  58.989
24070DA     SC256400  74.388  31.617  59.054
24070DA     SC356401  74.203  31.443  59.097
24070DA     SC456402  74.428  31.298  59.012
24071DA     BB156403  75.129  31.491  58.906
24071DA     BB256404  75.007  31.790  59.079
24071DA     BB356405  75.002  31.757  59.290
24071DA     SC156406  74.709  31.652  59.290
24071DA     SC256407  74.485  31.729  59.370
24071DA     SC356408  74.418  31.482  59.356
24071DA     SC456409  74.686  31.494  59.276
24072DG     BB156410  75.210  31.993  59.325
24072DG     BB256411  74.940  32.151  59.507
24072DG     BB356412  74.940  32.089  59.696
24072DG     SC156413  74.756  31.850  59.643
24072DG     SC256414  74.478  31.817  59.747
24072DG     SC356415  74.572  31.569  59.618
24072DG     SC456416  74.820  31.710  59.600
24073DA     BB156417  74.950  32.419  59.826
24073DA     BB256418  74.632  32.367  60.000
24073DA     BB356419  74.663  32.260  60.182
24073DA     SC156420  74.625  31.980  60.053
24073DA     SC256421  74.458  31.795  60.059
24073DA     SC356422  74.648  31.647  59.971
24073DA     SC456423  74.756  31.904  59.999
24074DA     BB156424  74.514  32.508  60.354
24074DA     BB256425  74.256  32.268  60.454
24074DA     BB356426  74.323  32.153  60.621
24074DA     SC156427  74.448  31.927  60.446
24074DA     SC256428  74.401  31.688  60.392
24074DA     SC356429  74.647  31.678  60.320
24074DA     SC456430  74.603  31.941  60.407
24075DA     BB156431  74.051  32.251  60.790
24075DA     BB256432  73.945  31.900  60.797
24075DA     BB356433  74.043  31.796  60.955
24075DA     SC156434  74.285  31.707  60.780
24075DA     SC256435  74.375  31.496  60.683
24075DA     SC356436  74.597  31.623  60.665
24075DA     SC456437  74.414  31.803  60.778
24076DG     BB156438  73.760  31.740  61.083
24076DG     BB256439  73.838  31.398  60.997
24076DG     BB356440  73.941  31.312  61.145
24076DG     SC156441  74.215  31.395  61.036
24076DG     SC256442  74.424  31.210  60.931
24076DG     SC356443  74.530  31.485  60.956
24076DG     SC456444  74.276  31.536  61.079
24077DA     BB156445  73.704  31.065  61.131
24077DA     BB256446  73.964  30.824  61.038
24077DA     BB356447  74.074  30.764  61.211
24077DA     SC156448  74.288  30.988  61.181
24077DA     SC256449  74.530  31.006  61.122
24077DA     SC356450  74.521  31.234  61.239
24077DA     SC456451  74.263  31.126  61.259
24078DG     BB156452  73.959  30.505  61.101
24078DG     BB256453  74.310  30.439  61.040
24078DG     BB356454  74.399  30.384  61.209
24078DG     SC156455  74.475  30.670  61.289
24078DG     SC256456  74.752  30.779  61.306
24078DG     SC356457  74.556  30.971  61.418
24078DG     SC456458  74.371  30.756  61.375
24079DT     BB156459  74.472  30.217  61.175
24079DT     BB256460  74.825  30.291  61.155
24079DT     BB356461  74.913  30.267  61.341
24079DT     SC156462  74.808  30.491  61.427
24079DT     SC256463  74.963  30.638  61.454
24079DT     SC356464  74.661  30.658  61.570
24080DA     BB156465  75.113  30.108  61.000
24080DA     BB256466  75.352  30.291  61.209
24080DA     BB356467  75.373  30.195  61.398
24080DA     SC156468  75.147  30.360  61.535
24080DA     SC256469  75.127  30.538  61.709
24080DA     SC356470  74.883  30.463  61.728
24080DA     SC456471  74.999  30.298  61.533
24081DT     BB156472  75.531  30.160  61.389
24081DT     BB256473  75.647  30.387  61.645
24081DT     BB356474  75.631  30.298  61.831
24081DT     SC156475  75.371  30.329  61.833
24081DT     SC256476  75.317  30.476  61.981
24081DT     SC356477  75.114  30.270  61.835
24082DT     BB156478  75.894  30.291  61.822
24082DT     BB256479  75.814  30.459  62.130
24082DT     BB356480  75.766  30.321  62.277
24082DT     SC156481  75.532  30.275  62.168
24082DT     SC256482  75.377  30.354  62.296
24082DT     SC356483  75.334  30.148  62.049
24083DT     BB156484  76.003  30.364  62.403
24083DT     BB256485  75.753  30.421  62.657
24083DT     BB356486  75.702  30.242  62.747
24083DT     SC156487  75.562  30.168  62.538
24083DT     SC256488  75.353  30.168  62.589
24083DT     SC356489  75.485  30.029  62.328
24084DA     BB156490  75.808  30.491  63.069
24084DA     BB256491  75.484  30.339  63.148
24084DA     BB356492  75.509  30.135  63.204
24084DA     SC156493  75.475  30.027  62.914
24084DA     SC256494  75.308  29.895  62.784
24084DA     SC356495  75.501  29.848  62.622
24084DA     SC456496  75.609  30.007  62.826
24085DG     BB156497  75.385  30.221  63.476
24085DG     BB256498  75.117  30.003  63.370
24085DG     BB356499  75.161  29.815  63.415
24085DG     SC156500  75.302  29.758  63.150
24085DG     SC256501  75.207  29.570  62.937
24085DG     SC356502  75.480  29.667  62.879
24085DG     SC456503  75.458  29.788  63.137
24086DT     BB156504  75.030  29.717  63.545
24086DT     BB256505  74.851  29.502  63.318
24086DT     BB356506  74.926  29.310  63.328
24086DT     SC156507  75.140  29.379  63.192
24086DT     SC256508  75.134  29.287  62.998
24086DT     SC356509  75.394  29.425  63.135
24087DA     BB156510  74.506  29.330  63.348
24087DA     BB256511  74.601  29.078  63.100
24087DA     BB356512  74.694  28.911  63.195
24087DA     SC156513  74.982  29.027  63.172
24087DA     SC256514  75.191  28.977  63.045
24087DA     SC356515  75.310  29.114  63.226
24087DA     SC456516  75.038  29.114  63.295
24088DT     BB156517  74.591  28.781  63.161
24088DT     BB256518  74.806  28.606  62.931
24088DT     BB356519  74.923  28.469  63.034
24088DT     SC156520  75.076  28.660  63.129
24088DT     SC256521  75.271  28.647  63.038
24088DT     SC356522  75.195  28.820  63.302
24089DA     BB156523  74.740  28.279  62.703
24089DA     BB256524  75.094  28.181  62.713
24089DA     BB356525  75.132  28.056  62.882
24089DA     SC156526  75.204  28.292  63.071
24089DA     SC256527  75.407  28.382  63.185
24089DA     SC356528  75.242  28.499  63.343
24089DA     SC456529  75.085  28.355  63.160
24090DT     BB156530  75.180  27.853  62.861
24090DT     BB256531  75.527  27.873  62.959
24090DT     BB356532  75.550  27.802  63.152
24090DT     SC156533  75.443  28.018  63.254
24090DT     SC256534  75.595  28.131  63.357
24090DT     SC356535  75.275  28.175  63.384
24091DT     BB156536  75.663  27.525  63.111
24091DT     BB256537  75.900  27.671  63.340
24091DT     BB356538  75.853  27.618  63.535
24091DT     SC156539  75.650  27.785  63.540
24091DT     SC256540  75.695  27.947  63.673
24091DT     SC356541  75.403  27.874  63.554
24092DT     BB156542  76.055  27.407  63.596
24092DT     BB256543  76.106  27.646  63.861
24092DT     BB356544  76.001  27.588  64.030
24092DT     SC156545  75.773  27.661  63.923
24092DT     SC256546  75.698  27.834  64.027
24092DT     SC356547  75.529  27.645  63.824
24093DA     BB156548  76.393  27.638  64.169
24093DA     BB256549  76.173  27.829  64.391
24093DA     BB356550  76.072  27.699  64.527
24093DA     SC156551  75.827  27.655  64.340
24093DA     SC256552  75.585  27.718  64.336
24093DA     SC356553  75.559  27.524  64.170
24093DA     SC456554  75.831  27.530  64.240
24094DT     BB156555  76.115  27.715  64.723
24094DT     BB256556  75.810  27.883  64.819
24094DT     BB356557  75.686  27.751  64.919
24094DT     SC156558  75.622  27.629  64.695
24094DT     SC256559  75.417  27.672  64.647
24094DT     SC356560  75.599  27.439  64.514
24095DT     BB156561  75.740  27.890  65.140
24095DT     BB256562  75.381  27.901  65.111
24095DT     BB356563  75.298  27.731  65.194
24095DT     SC156564  75.373  27.584  64.989
24095DT     SC256565  75.199  27.525  64.877
24095DT     SC356566  75.496  27.398  64.849
24096DG     BB156567  75.132  28.047  65.392
24096DG     BB256568  74.877  27.820  65.273
24096DG     BB356569  74.866  27.662  65.393
24096DG     SC156570  75.073  27.499  65.237
24096DG     SC256571  75.020  27.249  65.083
24096DG     SC356572  75.310  27.300  65.103
24096DG     SC456573  75.228  27.514  65.276
24097DA     BB156574  74.517  27.704  65.446
24097DA     BB256575  74.450  27.370  65.309
24097DA     BB356576  74.488  27.221  65.455
24097DA     SC156577  74.786  27.181  65.372
24097DA     SC256578  74.925  27.006  65.262
24097DA     SC356579  75.124  27.126  65.370
24097DA     SC456580  74.896  27.269  65.449
24098DC     BB156581  74.332  27.071  65.581
24098DC     BB256582  74.411  26.772  65.396
24098DC     BB356583  74.504  26.634  65.520
24098DC     SC156584  74.728  26.771  65.516
24098DC     SC256585  74.877  26.661  65.406
24098DC     SC356586  74.933  26.915  65.600
24099DC     BB156587  74.286  26.433  65.578
24099DC     BB256588  74.549  26.232  65.433
24099DC     BB356589  74.661  26.144  65.583
24099DC     SC156590  74.780  26.371  65.640
24099DC     SC256591  74.986  26.360  65.580
24099DC     SC356592  74.856  26.584  65.775
24100DT     BB156593  74.561  25.876  65.550
24100DT     BB256594  74.915  25.851  65.485
24100DT     BB356595  75.016  25.799  65.658
24100DT     SC156596  74.987  26.040  65.758
24100DT     SC256597  75.179  26.137  65.764
24100DT     SC356598  74.911  26.235  65.918
24101DT     BB156599  75.062  25.560  65.543
24101DT     BB256600  75.388  25.704  65.599
24101DT     BB356601  75.454  25.657  65.789
24101DT     SC156602  75.290  25.831  65.898
24101DT     SC256603  75.403  25.995  65.979
24101DT     SC356604  75.093  25.928  66.043
24102DT     BB156605  75.619  25.530  65.638
24102DT     BB256606  75.819  25.758  65.832
24102DT     BB356607  75.846  25.684  66.024
24102DT     SC156608  75.599  25.744  66.090
24102DT     SC256609  75.601  25.906  66.233
24102DT     SC356610  75.348  25.715  66.165
24103DA     BB156611  76.193  25.833  65.835
24103DA     BB256612  76.179  25.961  66.178
24103DA     BB356613  76.204  25.802  66.318
24103DA     SC156614  75.900  25.741  66.341
24103DA     SC256615  75.719  25.764  66.511
24103DA     SC356616  75.594  25.588  66.373
24103DA     SC456617  75.839  25.629  66.242
24104DT     BB156618  76.359  25.822  66.413
24104DT     BB256619  76.213  25.900  66.734
24104DT     BB356620  76.204  25.730  66.851
24104DT     SC156621  76.002  25.636  66.712
24104DT     SC256622  75.825  25.639  66.834
24104DT     SC356623  75.861  25.478  66.555
24105DA     BB156624  76.405  26.008  67.095
24105DA     BB256625  76.152  25.845  67.303
24105DA     BB356626  76.213  25.646  67.353
24105DA     SC156627  76.077  25.516  67.106
24105DA     SC256628  75.883  25.366  67.059
24105DA     SC356629  75.999  25.318  66.836
24105DA     SC456630  76.165  25.498  66.973
24106DG     BB156631  76.229  25.698  67.676
24106DG     BB256632  75.965  25.451  67.694
24106DG     BB356633  76.043  25.269  67.713
24106DG     SC156634  76.059  25.219  67.411
24106DG     SC256635  75.901  25.017  67.258
24106DG     SC356636  76.111  25.138  67.088
24106DG     SC456637  76.191  25.264  67.332
24107DG     BB156638  75.919  25.164  68.025
24107DG     BB256639  75.735  24.907  67.848
24107DG     BB356640  75.840  24.738  67.845
24107DG     SC156641  75.985  24.804  67.584
24107DG     SC256642  75.953  24.661  67.324
24107DG     SC356643  76.177  24.853  67.311
24107DG     SC456644  76.123  24.886  67.590
24108DA     BB156645  75.584  24.539  67.990
24108DA     BB256646  75.556  24.343  67.681
24108DA     BB356647  75.698  24.184  67.682
24108DA     SC156648  75.921  24.350  67.542
24108DA     SC256649  76.036  24.355  67.320
24108DA     SC356650  76.221  24.484  67.442
24108DA     SC456651  76.026  24.428  67.636
24109DG     BB156652  75.445  24.013  67.665
24109DG     BB256653  75.573  23.946  67.333
24109DG     BB356654  75.704  23.796  67.340
24109DG     SC156655  75.945  23.978  67.388
24109DG     SC256656  76.171  24.023  67.199
24109DG     SC356657  76.229  24.145  67.462
24109DG     SC456658  75.985  24.016  67.539
24110DC     BB156659  75.637  23.672  67.223
24110DC     BB256660  75.859  23.708  66.941
24110DC     BB356661  76.014  23.573  66.955
24110DC     SC156662  76.130  23.713  67.144
24110DC     SC256663  76.311  23.801  67.068
24110DC     SC356664  76.228  23.778  67.380
24111DC     BB156665  75.873  23.527  66.750
24111DC     BB256666  76.210  23.586  66.635
24111DC     BB356667  76.331  23.426  66.685
24111DC     SC156668  76.337  23.500  66.937
24111DC     SC256669  76.535  23.569  66.986
24111DC     SC356670  76.302  23.494  67.198
24112DT     BB156671  76.318  23.436  66.431
24112DT     BB256672  76.668  23.443  66.517
24112DT     BB356673  76.728  23.256  66.582
24112DT     SC156674  76.608  23.288  66.812
24112DT     SC256675  76.755  23.309  66.968
24112DT     SC356676  76.439  23.251  67.012
24113DA     BB156677  76.995  23.409  66.294
24113DA     BB256678  77.191  23.260  66.565
24113DA     BB356679  77.168  23.048  66.565
24113DA     SC156680  76.924  23.049  66.758
24113DA     SC256681  76.873  22.981  66.992
24113DA     SC356682  76.628  22.981  66.918
24113DA     SC456683  76.777  23.053  66.692
24114DC     BB156684  77.327  22.931  66.517
24114DC     BB256685  77.389  22.790  66.844
24114DC     BB356686  77.319  22.596  66.851
24114DC     SC156687  77.070  22.678  66.866
24114DC     SC256688  76.992  22.636  67.062
24114DC     SC356689  76.817  22.717  66.801
24115DG     BB156690  77.718  22.536  66.927
24115DG     BB256691  77.517  22.363  67.173
24115DG     BB356692  77.456  22.188  67.099
24115DG     SC156693  77.198  22.301  66.979
24115DG     SC256694  76.921  22.237  67.068
24115DG     SC356695  76.917  22.395  66.817
24115DG     SC456696  77.201  22.360  66.830
24116DC     BB156697  77.515  21.954  67.172
24116DC     BB256698  77.211  21.854  67.337
24116DC     BB356699  77.113  21.710  67.225
24116DC     SC156700  77.033  21.889  67.050
24116DC     SC256701  76.820  21.915  67.067
24116DC     SC356702  77.006  22.018  66.822
24117DA     BB156703  77.148  21.516  67.597
24117DA     BB256704  76.798  21.481  67.491
24117DA     BB356705  76.781  21.328  67.343
24117DA     SC156706  76.821  21.522  67.103
24117DA     SC256707  76.685  21.617  66.917
24117DA     SC356708  76.910  21.665  66.803
24117DA     SC456709  76.971  21.542  67.048
24118DT     BB156710  76.676  21.128  67.371
24118DT     BB256711  76.383  21.206  67.177
24118DT     BB356712  76.381  21.093  67.003
24118DT     SC156713  76.569  21.243  66.896
24118DT     SC256714  76.484  21.358  66.735
24118DT     SC356715  76.800  21.314  66.792
24119DT     BB156716  76.178  20.916  67.086
24119DT     BB256717  76.050  21.052  66.778
24119DT     BB356718  76.107  20.932  66.619
24119DT     SC156719  76.353  21.021  66.629
24119DT     SC256720  76.392  21.142  66.455
24119DT     SC356721  76.615  21.023  66.658
24120DA     BB156722  75.690  20.959  66.578
24120DA     BB256723  75.836  21.036  66.250
24120DA     BB356724  75.900  20.857  66.154
24120DA     SC156725  76.188  20.868  66.272
24120DA     SC256726  76.419  20.909  66.189
24120DA     SC356727  76.495  20.789  66.403
24120DA     SC456728  76.215  20.790  66.409
24121DC     BB156729  75.805  20.780  65.974
24121DC     BB256730  76.068  20.876  65.746
24121DC     BB356731  76.169  20.708  65.680
24121DC     SC156732  76.293  20.681  65.910
24121DC     SC256733  76.502  20.726  65.885
24121DC     SC356734  76.369  20.578  66.140
24122DC     BB156735  76.057  20.727  65.429
24122DC     BB256736  76.412  20.738  65.369
24122DC     BB356737  76.486  20.546  65.345
24122DC     SC156738  76.468  20.499  65.603
24122DC     SC256739  76.666  20.485  65.687
24122DC     SC356740  76.391  20.391  65.831
24123DA     BB156741  76.615  20.772  65.018
24123DA     BB256742  76.907  20.600  65.158
24123DA     BB356743  76.900  20.392  65.109
24123DA     SC156744  76.745  20.312  65.366
24123DA     SC256745  76.789  20.187  65.578
24123DA     SC356746  76.534  20.164  65.594
24123DA     SC456747  76.584  20.307  65.358
24124DG     BB156748  77.168  20.463  64.973
24124DG     BB256749  77.301  20.239  65.224
24124DG     BB356750  77.277  20.050  65.165
24124DG     SC156751  77.001  20.018  65.293
24124DG     SC256752  76.934  19.841  65.523
24124DG     SC356753  76.689  19.955  65.404
24124DG     SC456754  76.871  20.058  65.209
24125DT     BB156755  77.452  19.930  65.136
24125DT     BB256756  77.442  19.715  65.426
24125DT     BB356757  77.371  19.528  65.372
24125DT     SC156758  77.125  19.618  65.353
24125DT     SC256759  77.006  19.536  65.513
24125DT     SC356760  76.893  19.684  65.248
24126DA     BB156761  77.727  19.486  65.589
24126DA     BB256762  77.479  19.256  65.730
24126DA     BB356763  77.444  19.094  65.597
24126DA     SC156764  77.210  19.235  65.448
24126DA     SC256765  76.963  19.210  65.427
24126DA     SC356766  76.988  19.348  65.212
24126DA     SC456767  77.246  19.320  65.317
24127DG     BB156768  77.542  18.935  65.843
24127DG     BB256769  77.207  18.800  65.831
24127DG     BB356770  77.195  18.659  65.691
24127DG     SC156771  77.118  18.852  65.467
24127DG     SC256772  76.855  18.861  65.325
24127DG     SC356773  77.051  19.039  65.194
24127DG     SC456774  77.233  18.923  65.382
24128DT     BB156775  77.147  18.456  65.747
24128DT     BB256776  76.808  18.422  65.629
24128DT     BB356777  76.806  18.316  65.451
24128DT     SC156778  76.898  18.521  65.317
24128DT     SC256779  76.744  18.598  65.188
24128DT     SC356780  77.060  18.670  65.171
24129DT     BB156781  76.699  18.102  65.581
24129DT     BB256782  76.466  18.170  65.313
24129DT     BB356783  76.526  18.073  65.141
24129DT     SC156784  76.719  18.246  65.101
24129DT     SC256785  76.673  18.366  64.928
24129DT     SC356786  76.962  18.344  65.073
24130DT     BB156787  76.323  17.893  65.167
24130DT     BB256788  76.277  18.032  64.837
24130DT     BB356789  76.390  17.927  64.699
24130DT     SC156790  76.612  18.039  64.784
24130DT     SC256791  76.687  18.172  64.633
24130DT     SC356792  76.852  18.065  64.890
24131DC     BB156793  76.168  17.803  64.591
24131DC     BB256794  76.325  17.963  64.309
24131DC     BB356795  76.464  17.836  64.223
24131DC     SC156796  76.634  17.876  64.420
24131DC     SC256797  76.802  17.989  64.348
24131DC     SC356798  76.788  17.828  64.628
24132DT     BB156799  76.303  17.792  64.006
24132DT     BB256800  76.610  17.917  63.865
24132DT     BB356801  76.741  17.760  63.831
24132DT     SC156802  76.795  17.738  64.087
24132DT     SC256803  76.997  17.802  64.123
24132DT     SC356804  76.810  17.635  64.329
24133DT     BB156805  76.701  17.788  63.565
24133DT     BB256806  77.057  17.827  63.608
24133DT     BB356807  77.149  17.641  63.605
24133DT     SC156808  77.063  17.586  63.847
24133DT     SC256809  77.230  17.585  63.983
24133DT     SC356810  76.934  17.466  64.043
24134DT     BB156811  77.249  17.710  63.367
24134DT     BB256812  77.537  17.635  63.571
24134DT     BB356813  77.574  17.432  63.569
24134DT     SC156814  77.371  17.385  63.728
24134DT     SC256815  77.445  17.322  63.920
24134DT     SC356816  77.140  17.294  63.815
24135DA     BB156817  77.927  17.643  63.483
24135DA     BB256818  78.003  17.391  63.738
24135DA     BB356819  77.997  17.195  63.653
24135DA     SC156820  77.696  17.150  63.716
24135DA     SC256821  77.558  17.009  63.868
24135DA     SC356822  77.366  17.056  63.705
24135DA     SC456823  77.589  17.190  63.602
24136DA     BB156824  78.294  17.191  63.794
24136DA     BB256825  78.175  16.904  63.989
24136DA     BB356826  78.162  16.731  63.865
24136DA     SC156827  77.866  16.783  63.783
24136DA     SC256828  77.642  16.681  63.826
24136DA     SC356829  77.568  16.806  63.614
24136DA     SC456830  77.839  16.867  63.649
24137DC     BB156831  78.288  16.572  63.896
24137DC     BB256832  78.045  16.344  64.035
24137DC     BB356833  77.994  16.201  63.894
24137DC     SC156834  77.848  16.374  63.761
24137DC     SC256835  77.640  16.322  63.781
24137DC     SC356836  77.764  16.528  63.564
24138DG     BB156837  78.149  15.964  64.193
24138DG     BB256838  77.823  15.843  64.092
24138DG     BB356839  77.840  15.732  63.928
24138DG     SC156840  77.805  15.967  63.735
24138DG     SC256841  77.574  16.010  63.551
24138DG     SC356842  77.789  16.205  63.496
24138DG     SC456843  77.934  16.050  63.689
24139DG     BB156844  77.720  15.434  64.052
24139DG     BB256845  77.447  15.467  63.816
24139DG     BB356846  77.495  15.378  63.645
24139DG     SC156847  77.621  15.628  63.522
24139DG     SC256848  77.515  15.781  63.288
24139DG     SC356849  77.784  15.878  63.365
24139DG     SC456850  77.776  15.657  63.547
24140DT     BB156851  77.390  15.172  63.530
24140DT     BB256852  77.196  15.341  63.277
24140DT     BB356853  77.275  15.303  63.090
24140DT     SC156854  77.476  15.466  63.133
24140DT     SC256855  77.456  15.640  63.008
24140DT     SC356856  77.723  15.551  63.167
24141DC     BB156857  77.071  15.123  63.003
24141DC     BB256858  77.063  15.389  62.759
24141DC     BB356859  77.184  15.341  62.598
24141DC     SC156860  77.402  15.390  62.737
24141DC     SC256861  77.497  15.567  62.661
24141DC     SC356862  77.631  15.350  62.860
24142DC     BB156863  76.962  15.307  62.445
24142DC     BB256864  77.148  15.569  62.282
24142DC     BB356865  77.284  15.487  62.149
24142DC     SC156866  77.442  15.412  62.345
24142DC     SC256867  77.621  15.531  62.342
24142DC     SC356868  77.578  15.256  62.508
24143DA     BB156869  77.056  15.792  61.977
24143DA     BB256870  77.410  15.860  61.910
24143DA     BB356871  77.486  15.719  61.768
24143DA     SC156872  77.578  15.515  61.984
24143DA     SC256873  77.793  15.428  62.076
24143DA     SC356874  77.654  15.229  62.158
24143DA     SC456875  77.475  15.399  62.025
24144DT     BB156876  77.533  15.812  61.628
24144DT     BB256877  77.890  15.786  61.674
24144DT     BB356878  77.965  15.630  61.560
24144DT     SC156879  77.868  15.452  61.727
24144DT     SC256880  78.029  15.357  61.831
24144DT     SC356881  77.723  15.253  61.820
24145DT     BB156882  78.070  15.830  61.432
24145DT     BB256883  78.347  15.620  61.531
24145DT     BB356884  78.363  15.459  61.402
24145DT     SC156885  78.154  15.342  61.510
24145DT     SC256886  78.219  15.167  61.618
24145DT     SC356887  77.913  15.237  61.534
24146DT     BB156888  78.582  15.580  61.319
24146DT     BB256889  78.689  15.248  61.412
24146DT     BB356890  78.651  15.116  61.258
24146DT     SC156891  78.394  15.115  61.311
24146DT     SC256892  78.337  14.924  61.391
24146DT     SC356893  78.134  15.151  61.281
24147DA     BB156894  79.053  15.066  61.369
24147DA     BB256895  78.903  14.733  61.337
24147DA     BB356896  78.869  14.686  61.132
24147DA     SC156897  78.581  14.803  61.128
24147DA     SC256898  78.347  14.717  61.111
24147DA     SC356899  78.287  14.956  61.039
24147DA     SC456900  78.563  14.956  61.084
24148DT     BB156901  78.977  14.534  61.034
24148DT     BB256902  78.711  14.293  61.009
24148DT     BB356903  78.642  14.284  60.814
24148DT     SC156904  78.516  14.512  60.839
24148DT     SC256905  78.304  14.477  60.838
24148DT     SC356906  78.450  14.765  60.801
24149DA     BB156907  78.737  13.879  60.885
24149DA     BB256908  78.402  13.884  60.736
24149DA     BB356909  78.415  13.917  60.526
24149DA     SC156910  78.397  14.227  60.548
24149DA     SC256911  78.234  14.407  60.493
24149DA     SC356912  78.436  14.565  60.503
24149DA     SC456913  78.535  14.309  60.558
24150DG     BB156914  78.283  13.631  60.451
24150DG     BB256915  78.016  13.833  60.314
24150DG     BB356916  78.053  13.875  60.123
24150DG     SC156917  78.206  14.133  60.185
24150DG     SC256918  78.118  14.409  60.115
24150DG     SC356919  78.396  14.409  60.217
24150DG     SC456920  78.364  14.125  60.212
24151DA     BB156921  77.744  13.746  60.009
24151DA     BB256922  77.646  14.077  59.883
24151DA     BB356923  77.730  14.111  59.690
24151DA     SC156924  77.990  14.243  59.800
24151DA     SC256925  78.094  14.469  59.805
24151DA     SC356926  78.314  14.345  59.850
24151DA     SC456927  78.117  14.147  59.826
24152DG     BB156928  77.436  14.134  59.585
24152DG     BB256929  77.532  14.478  59.525
24152DG     BB356930  77.620  14.494  59.348
24152DG     SC156931  77.902  14.442  59.456
24152DG     SC256932  78.126  14.639  59.464
24152DG     SC356933  78.221  14.369  59.537
24152DG     SC456934  77.955  14.291  59.466
24153DT     BB156935  77.531  14.619  59.191
24153DT     BB256936  77.749  14.906  59.199
24153DT     BB356937  77.879  14.901  59.038
24153DT     SC156938  78.022  14.712  59.149
24153DT     SC256939  78.213  14.791  59.207
24153DT     SC356940  78.136  14.477  59.188
24154DT     BB156941  77.741  15.107  58.934
24154DT     BB256942  78.081  15.226  58.958
24154DT     BB356943  78.187  15.168  58.790
24154DT     SC156944  78.203  14.921  58.875
24154DT     SC256945  78.406  14.876  58.929
24154DT     SC356946  78.169  14.659  58.885
24155DT     BB156947  78.185  15.425  58.713
24155DT     BB256948  78.534  15.336  58.724
24155DT     BB356949  78.590  15.246  58.546
24155DT     SC156950  78.467  15.024  58.611
24155DT     SC256951  78.613  14.870  58.649
24155DT     SC356952  78.296  14.824  58.603
24156DC     BB156953  78.730  15.469  58.470
24156DC     BB256954  78.973  15.202  58.456
24156DC     BB356955  78.966  15.111  58.270
24156DC     SC156956  78.742  14.988  58.329
24156DC     SC256957  78.780  14.777  58.350
24156DC     SC356958  78.488  14.917  58.320
24157DA     BB156959  79.371  15.215  58.317
24157DA     BB256960  79.360  14.864  58.213
24157DA     BB356961  79.316  14.849  58.005
24157DA     SC156962  79.008  14.834  58.045
24157DA     SC256963  78.826  14.665  58.020
24157DA     SC356964  78.668  14.866  58.013
24157DA     SC456965  78.926  14.972  58.041
24158DG     BB156966  79.596  14.708  57.966
24158DG     BB256967  79.391  14.424  57.877
24158DG     BB356968  79.345  14.431  57.684
24158DG     SC156969  79.089  14.593  57.725
24158DG     SC256970  78.811  14.496  57.676
24158DG     SC356971  78.813  14.786  57.733
24158DG     SC456972  79.097  14.753  57.727
24159DT     BB156973  79.412  14.271  57.533
24159DT     BB256974  79.104  14.089  57.491
24159DT     BB356975  79.021  14.132  57.305
24159DT     SC156976  78.943  14.369  57.386
24159DT     SC256977  78.728  14.372  57.400
24159DT     SC356978  78.923  14.631  57.401
24160DG     BB156979  79.077  13.732  57.350
24160DG     BB256980  78.734  13.813  57.266
24160DG     BB356981  78.721  13.856  57.072
24160DG     SC156982  78.774  14.155  57.110
24160DG     SC256983  78.579  14.376  57.062
24160DG     SC356984  78.850  14.484  57.113
24160DG     SC456985  78.926  14.208  57.109
24161DG     BB156986  78.503  13.619  57.069
24161DG     BB256987  78.265  13.872  56.969
24161DG     BB356988  78.281  13.905  56.773
24161DG     SC156989  78.491  14.126  56.803
24161DG     SC256990  78.453  14.415  56.739
24161DG     SC356991  78.737  14.357  56.798
24161DG     SC456992  78.646  14.085  56.806
24162DT     BB156993  78.111  13.866  56.664
24162DT     BB256994  77.994  14.198  56.583
24162DT     BB356995  78.050  14.247  56.390
24162DT     SC156996  78.299  14.285  56.463
24162DT     SC256997  78.345  14.495  56.451
24162DT     SC356998  78.560  14.254  56.480
24163DT     BB156999  77.791  14.223  56.327
24163DT     BB257000  77.881  14.556  56.222
24163DT     BB357001  77.964  14.551  56.032
24163DT     SC157002  78.189  14.452  56.124
24163DT     SC257003  78.344  14.600  56.108
24163DT     SC357004  78.388  14.284  56.165
24164DA     BB157005  77.660  14.839  56.033
24164DA     BB257006  77.955  14.987  55.871
24164DA     BB357007  77.982  14.903  55.677
24164DA     SC157008  78.167  14.673  55.776
24164DA     SC257009  78.407  14.608  55.758
24164DA     SC357010  78.328  14.372  55.820
24164DA     SC457011  78.098  14.533  55.814
24165DT     BB157012  77.957  15.023  55.519
24165DT     BB257013  78.304  15.051  55.423
24165DT     BB357014  78.341  14.934  55.256
24165DT     SC157015  78.334  14.714  55.399
24165DT     SC257016  78.531  14.630  55.411
24165DT     SC357017  78.255  14.479  55.488
24166DA     BB157018  78.486  15.316  55.162
24166DA     BB257019  78.744  15.074  55.065
24166DA     BB357020  78.686  14.971  54.887
24166DA     SC157021  78.544  14.740  55.039
24166DA     SC257022  78.580  14.497  55.081
24166DA     SC357023  78.329  14.490  55.135
24166DA     SC457024  78.386  14.756  55.067
24167DT     BB157025  78.788  14.998  54.700
24167DT     BB257026  78.954  14.678  54.688
24167DT     BB357027  78.865  14.558  54.545
24167DT     SC157028  78.657  14.514  54.699
24167DT     SC257029  78.659  14.309  54.764
24167DT     SC357030  78.408  14.514  54.785
24168DA     BB157031  79.270  14.551  54.427
24168DA     BB257032  79.152  14.204  54.421
24168DA     BB357033  79.033  14.169  54.247
24168DA     SC157034  78.765  14.245  54.386
24168DA     SC257035  78.557  14.129  54.462
24168DA     SC357036  78.450  14.362  54.457
24168DA     SC457037  78.716  14.398  54.375
24169DT     BB157038  79.085  14.036  54.053
24169DT     BB257039  78.860  13.763  54.125
24169DT     BB357040  78.707  13.758  53.986
24169DT     SC157041  78.590  13.966  54.095
24169DT     SC257042  78.406  13.904  54.188
24169DT     SC357043  78.492  14.209  54.123
24170DT     BB157044  78.791  13.532  53.811
24170DT     BB257045  78.456  13.437  53.907
24170DT     BB357046  78.322  13.496  53.761
24170DT     SC157047  78.339  13.747  53.834
24170DT     SC257048  78.154  13.808  53.925
24170DT     SC357049  78.390  14.006  53.824
24171DT     BB157050  78.267  13.237  53.635
24171DT     BB257051  77.940  13.354  53.734
24171DT     BB357052  77.849  13.452  53.576
24171DT     SC157053  78.002  13.662  53.608
24171DT     SC257054  77.884  13.826  53.682
24171DT     SC357055  78.183  13.848  53.557
24172DA     BB157056  77.571  13.161  53.692
24172DA     BB257057  77.396  13.483  53.683
24172DA     BB357058  77.354  13.538  53.481
24172DA     SC157059  77.620  13.695  53.443
24172DA     SC257060  77.692  13.933  53.416
24172DA     SC357061  77.907  13.835  53.316
24172DA     SC457062  77.745  13.615  53.382
24173DT     BB157063  77.163  13.548  53.432
24173DT     BB257064  77.140  13.908  53.435
24173DT     BB357065  77.135  13.980  53.241
24173DT     SC157066  77.391  13.934  53.209
24173DT     SC257067  77.496  14.122  53.198
24173DT     SC357068  77.615  13.832  53.115
24174DT     BB157069  76.886  14.040  53.300
24174DT     BB257070  77.042  14.353  53.210
24174DT     BB357071  77.045  14.374  53.005
24174DT     SC157072  77.238  14.198  52.981
24174DT     SC257073  77.419  14.299  52.920
24174DT     SC357074  77.368  13.979  52.913
24175DC     BB157075  76.872  14.562  53.058
24175DC     BB257076  77.139  14.724  52.878
24175DC     BB357077  77.117  14.692  52.675
24175DC     SC157078  77.199  14.444  52.697
24175DC     SC257079  77.392  14.424  52.604
24175DC     SC357080  77.196  14.180  52.690
24176DC     BB157081  77.058  14.949  52.667
24176DC     BB257082  77.331  14.909  52.436
24176DC     BB357083  77.260  14.841  52.254
24176DC     SC157084  77.224  14.600  52.349
24176DC     SC257085  77.367  14.466  52.260
24176DC     SC357086  77.102  14.379  52.425
24177DA     BB157087  77.499  15.179  52.177
24177DA     BB257088  77.596  14.916  51.940
24177DA     BB357089  77.444  14.889  51.793
24177DA     SC157090  77.293  14.671  51.955
24177DA     SC257091  77.250  14.425  51.940
24177DA     SC357092  77.053  14.470  52.097
24177DA     SC457093  77.174  14.719  52.053
24178DG     BB157094  77.655  14.971  51.572
24178DG     BB257095  77.602  14.633  51.454
24178DG     BB357096  77.442  14.627  51.336
24178DG     SC157097  77.246  14.571  51.564
24178DG     SC257098  77.091  14.318  51.603
24178DG     SC357099  77.000  14.528  51.791
24178DG     SC457100  77.180  14.694  51.642
24179DA     BB157101  77.619  14.478  51.066
24179DA     BB257102  77.399  14.184  51.077
24179DA     BB357103  77.217  14.224  50.974
24179DA     SC157104  77.068  14.329  51.226
24179DA     SC257105  76.882  14.255  51.375
24179DA     SC357106  76.866  14.502  51.443
24179DA     SC457107  77.073  14.487  51.254
24180DC     BB157108  77.155  14.125  50.783
24180DC     BB257109  76.911  13.905  50.932
24180DC     BB357110  76.720  13.964  50.877
24180DC     SC157111  76.728  14.169  51.041
24180DC     SC257112  76.591  14.135  51.203
24180DC     SC357113  76.728  14.418  51.127
24181DT     BB157114  76.690  13.749  50.707
24181DT     BB257115  76.419  13.717  50.944
24181DT     BB357116  76.254  13.822  50.876
24181DT     SC157117  76.364  14.052  50.938
24181DT     SC257118  76.259  14.139  51.105
24181DT     SC357119  76.468  14.292  50.910
24182DA     BB157120  76.150  13.431  50.986
24182DA     BB257121  75.921  13.664  51.153
24182DA     BB357122  75.787  13.751  51.012
24182DA     SC157123  75.971  13.994  50.950
24182DA     SC257124  75.972  14.240  50.992
24182DA     SC357125  76.141  14.251  50.799
24182DA     SC457126  76.074  13.980  50.828
24183DT     BB157127  75.622  13.701  51.054
24183DT     BB257128  75.513  14.018  51.187
24183DT     BB357129  75.410  14.124  51.042
24183DT     SC157130  75.633  14.183  50.917
24183DT     SC257131  75.673  14.393  50.937
24183DT     SC357132  75.815  14.192  50.726
24184DA     BB157133  75.213  14.111  51.415
24184DA     BB257134  75.215  14.456  51.293
24184DA     BB357135  75.091  14.475  51.120
24184DA     SC157136  75.321  14.416  50.920
24184DA     SC257137  75.454  14.540  50.749
24184DA     SC357138  75.508  14.309  50.652
24184DA     SC457139  75.343  14.263  50.874
24185DG     BB157140  74.968  14.678  51.318
24185DG     BB257141  75.064  14.911  51.059
24185DG     BB357142  74.939  14.898  50.905
24185DG     SC157143  75.101  14.682  50.761
24185DG     SC257144  75.244  14.715  50.501
24185DG     SC357145  75.243  14.432  50.585
24185DG     SC457146  75.073  14.528  50.794
24186DA     BB157147  74.909  15.244  50.934
24186DA     BB257148  75.018  15.282  50.586
24186DA     BB357149  74.863  15.220  50.453
24186DA     SC157150  74.959  14.925  50.439
24186DA     SC257151  75.064  14.773  50.271
24186DA     SC357152  74.975  14.582  50.418
24186DA     SC457153  74.895  14.821  50.543
24187DT     BB157154  74.762  15.358  50.329
24187DT     BB257155  74.912  15.255  50.017
24187DT     BB357156  74.775  15.147  49.905
24187DT     SC157157  74.803  14.937  50.059
24187DT     SC257158  74.904  14.782  49.950
24187DT     SC357159  74.744  14.745  50.230
24188DA     BB157160  74.885  15.450  49.633
24188DA     BB257161  74.912  15.131  49.455
24188DA     BB357162  74.718  15.060  49.400
24188DA     SC157163  74.677  14.897  49.662
24188DA     SC257164  74.665  14.658  49.731
24188DA     SC357165  74.545  14.745  49.940
24188DA     SC457166  74.603  14.971  49.785
24189DT     BB157167  74.638  15.042  49.188
24189DT     BB257168  74.673  14.684  49.166
24189DT     BB357169  74.487  14.595  49.163
24189DT     SC157170  74.453  14.638  49.419
24189DT     SC257171  74.460  14.450  49.525
24189DT     SC357172  74.352  14.731  49.644
24190DA     BB157173  74.685  14.446  48.825
24190DA     BB257174  74.560  14.160  49.017
24190DA     BB357175  74.350  14.138  48.989
24190DA     SC157176  74.275  14.318  49.232
24190DA     SC257177  74.174  14.290  49.458
24190DA     SC357178  74.124  14.541  49.445
24190DA     SC457179  74.251  14.475  49.204
24191DG     BB157180  74.406  13.856  48.865
24191DG     BB257181  74.233  13.737  49.160
24191DG     BB357182  74.037  13.727  49.124
24191DG     SC157183  73.981  14.014  49.215
24191DG     SC257184  73.823  14.094  49.456
24191DG     SC357185  73.887  14.330  49.288
24191DG     SC457186  73.992  14.133  49.108
24192DG     BB157187  74.049  13.410  49.198
24192DG     BB257188  73.833  13.489  49.476
24192DG     BB357189  73.643  13.487  49.417
24192DG     SC157190  73.638  13.783  49.339
24192DG     SC257191  73.480  13.997  49.473
24192DG     SC357192  73.603  14.098  49.224
24192DG     SC457193  73.681  13.824  49.190
24193DT     BB157194  73.503  13.343  49.506
24193DT     BB257195  73.311  13.556  49.725
24193DT     BB357196  73.124  13.590  49.644
24193DT     SC157197  73.223  13.756  49.466
24193DT     SC257198  73.159  13.956  49.512
24193DT     SC357199  73.291  13.859  49.233
24194DT     BB157200  73.023  13.432  49.837
24194DT     BB257201  72.849  13.746  49.876
24194DT     BB357202  72.683  13.751  49.753
24194DT     SC157203  72.832  13.788  49.540
24194DT     SC257204  72.801  13.987  49.465
24194DT     SC357205  72.945  13.744  49.305
24195DA     BB157206  72.573  13.858  50.140
24195DA     BB257207  72.426  14.103  49.910
24195DA     BB357208  72.263  14.016  49.803
24195DA     SC157209  72.439  13.916  49.567
24195DA     SC257210  72.472  13.971  49.326
24195DA     SC357211  72.574  13.736  49.308
24195DA     SC457212  72.497  13.767  49.576
24196DA     BB157213  72.131  14.288  49.923
24196DA     BB257214  72.055  14.381  49.577
24196DA     BB357215  71.895  14.262  49.501
24196DA     SC157216  72.082  14.040  49.388
24196DA     SC257217  72.154  13.955  49.165
24196DA     SC357218  72.220  13.741  49.290
24196DA     SC457219  72.115  13.915  49.483
24197DC     BB157220  71.734  14.358  49.462
24197DC     BB257221  71.747  14.340  49.102
24197DC     BB357222  71.616  14.194  49.034
24197DC     SC157223  71.778  14.002  49.112
24197DC     SC257224  71.861  13.904  48.939
24197DC     SC357225  71.868  13.792  49.244
24198DC     BB157226  71.451  14.389  48.943
24198DC     BB257227  71.501  14.176  48.655
24198DC     BB357228  71.363  14.022  48.657
24198DC     SC157229  71.493  13.898  48.848
24198DC     SC257230  71.583  13.719  48.770
24198DC     SC357231  71.545  13.791  49.084
24199DT     BB157232  71.201  14.130  48.453
24199DT     BB257233  71.259  13.793  48.336
24199DT     BB357234  71.110  13.668  48.406
24199DT     SC157235  71.212  13.668  48.648
24199DT     SC257236  71.294  13.474  48.691
24199DT     SC357237  71.235  13.708  48.908
24200DG     BB157238  71.029  13.619  48.001
24200DG     BB257239  71.042  13.294  48.161
24200DG     BB357240  70.865  13.251  48.241
24200DG     SC157241  70.928  13.379  48.511
24200DG     SC257242  70.959  13.234  48.771
24200DG     SC357243  70.957  13.526  48.813
24200DG     SC457244  70.897  13.534  48.533
24201DG     BB157245  70.759  12.960  48.065
24201DG     BB257246  70.768  12.782  48.380
24201DG     BB357247  70.588  12.786  48.465
24201DG     SC157248  70.641  13.045  48.619
24201DG     SC257249  70.662  13.072  48.916
24201DG     SC357250  70.657  13.338  48.786
24201DG     SC457251  70.608  13.185  48.549
24202DA     BB157252  70.530  12.428  48.504
24202DA     BB257253  70.523  12.459  48.870
24202DA     BB357254  70.326  12.508  48.936
24202DA     SC157255  70.371  12.816  48.922
24202DA     SC257256  70.394  13.007  49.081
24202DA     SC357257  70.334  13.155  48.880
24202DA     SC457258  70.332  12.891  48.785
24203DC     BB157259  70.172  12.373  49.064
24203DC     BB257260  70.229  12.546  49.375
24203DC     BB357261  70.057  12.644  49.434
24203DC     SC157262  70.092  12.830  49.252
24203DC     SC257263  70.143  13.016  49.349
24203DC     SC357264  70.050  12.981  49.040
24204DC     BB157265  70.000  12.466  49.642
24204DC     BB257266  70.033  12.786  49.805
24204DC     BB357267  69.849  12.879  49.816
24204DC     SC157268  69.855  12.939  49.560
24204DC     SC257269  69.879  13.151  49.537
24204DC     SC357270  69.790  12.943  49.305
24205DA     BB157271  70.031  12.876  50.192
24205DA     BB257272  69.927  13.220  50.117
24205DA     BB357273  69.715  13.238  50.131
24205DA     SC157274  69.664  13.170  49.832
24205DA     SC257275  69.588  13.289  49.626
24205DA     SC357276  69.535  13.055  49.535
24205DA     SC457277  69.637  13.016  49.794
24206DT     BB157278  69.670  13.353  50.266
24206DT     BB257279  69.572  13.629  50.057
24206DT     BB357280  69.366  13.634  50.038
24206DT     SC157281  69.368  13.430  49.874
24206DT     SC257282  69.313  13.496  49.677
24206DT     SC357283  69.323  13.188  49.778
24207DC     BB157284  69.392  13.851  50.183
24207DC     BB257285  69.222  13.956  49.882
24207DC     BB357286  69.020  13.913  49.896
24207DC     SC157287  69.064  13.657  49.857
24207DC     SC257288  68.987  13.600  49.664
24207DC     SC357289  69.073  13.397  49.902
24208DG     BB157290  69.079  14.308  49.816
24208DG     BB257291  68.845  14.158  49.585
24208DG     BB357292  68.670  14.129  49.676
24208DG     SC157293  68.739  13.849  49.777
24208DG     SC257294  68.611  13.594  49.688
24208DG     SC357295  68.789  13.548  49.920
24208DG     SC457296  68.812  13.833  49.919
24209DA     BB157297  68.536  14.294  49.401
24209DA     BB257298  68.323  14.004  49.330
24209DA     BB357299  68.164  13.992  49.471
24209DA     SC157300  68.321  13.813  49.672
24209DA     SC257301  68.313  13.578  49.754
24209DA     SC357302  68.449  13.666  49.954
24209DA     SC457303  68.403  13.887  49.788
24210DG     BB157304  67.981  14.018  49.220
24210DG     BB257305  67.871  13.689  49.320
24210DG     BB357306  67.735  13.703  49.465
24210DG     SC157307  67.941  13.696  49.692
24210DG     SC257308  67.972  13.477  49.893
24210DG     SC357309  68.139  13.711  49.964
24210DG     SC457310  68.006  13.833  49.742
24211DA     BB157311  67.521  13.502  49.276
24211DA     BB257312  67.510  13.255  49.547
24211DA     BB357313  67.381  13.321  49.703
24211DA     SC157314  67.606  13.467  49.861
24211DA     SC257315  67.730  13.437  50.075
24211DA     SC357316  67.787  13.686  50.053
24211DA     SC457317  67.629  13.623  49.830
24212DG     BB157318  67.217  13.062  49.642
24212DG     BB257319  67.319  12.972  49.977
24212DG     BB357320  67.197  13.055  50.110
24212DG     SC157321  67.361  13.312  50.137
24212DG     SC257322  67.509  13.401  50.380
24212DG     SC357323  67.504  13.615  50.176
24212DG     SC457324  67.331  13.434  50.037
24213DA     BB157325  67.168  12.736  50.238
24213DA     BB257326  67.300  12.854  50.559
24213DA     BB357327  67.151  12.964  50.664
24213DA     SC157328  67.234  13.239  50.543
24213DA     SC257329  67.341  13.450  50.621
24213DA     SC357330  67.235  13.556  50.413
24213DA     SC457331  67.158  13.287  50.410
24214DC     BB157332  67.100  12.882  50.824
24214DC     BB257333  67.268  13.109  51.048
24214DC     BB357334  67.133  13.245  51.126
24214DC     SC157335  67.124  13.377  50.899
24214DC     SC257336  67.219  13.568  50.924
24214DC     SC357337  67.030  13.481  50.676
24215DT     BB157338  67.173  13.114  51.349
24215DT     BB257339  67.255  13.457  51.424
24215DT     BB357340  67.082  13.565  51.462
24215DT     SC157341  67.020  13.570  51.207
24215DT     SC257342  67.040  13.771  51.133
24215DT     SC357343  66.888  13.527  50.983
24216DG     BB157344  67.332  13.600  51.783
24216DG     BB257345  67.213  13.922  51.671
24216DG     BB357346  67.024  13.948  51.728
24216DG     SC157347  66.905  13.825  51.475
24216DG     SC257348  66.747  13.969  51.266
24216DG     SC357349  66.740  13.677  51.220
24216DG     SC457350  66.879  13.667  51.470
24217DT     BB157351  66.958  14.109  51.873
24217DT     BB257352  66.785  14.341  51.659
24217DT     BB357353  66.580  14.319  51.681
24217DT     SC157354  66.582  14.096  51.543
24217DT     SC257355  66.483  14.128  51.355
24217DT     SC357356  66.555  13.840  51.485
24218DA     BB157357  66.613  14.733  51.769
24218DA     BB257358  66.338  14.698  51.529
24218DA     BB357359  66.163  14.627  51.627
24218DA     SC157360  66.227  14.327  51.579
24218DA     SC257361  66.138  14.139  51.441
24218DA     SC357362  66.260  13.986  51.608
24218DA     SC457363  66.309  14.249  51.693
24219DT     BB157364  65.938  14.740  51.683
24219DT     BB257365  65.750  14.570  51.426
24219DT     BB357366  65.609  14.446  51.512
24219DT     SC157367  65.793  14.271  51.580
24219DT     SC257368  65.769  14.094  51.461
24219DT     SC357369  65.948  14.120  51.730
24220DA     BB157370  65.343  14.680  51.278
24220DA     BB257371  65.277  14.329  51.194
24220DA     BB357372  65.151  14.240  51.341
24220DA     SC157373  65.386  14.141  51.520
24220DA     SC257374  65.490  13.924  51.584
24220DA     SC357375  65.587  14.053  51.783
24220DA     SC457376  65.435  14.239  51.638
24221DT     BB157377  64.934  14.166  51.306
24221DT     BB257378  65.025  13.818  51.284
24221DT     BB357379  64.946  13.714  51.444
24221DT     SC157380  65.125  13.815  51.607
24221DT     SC257381  65.262  13.660  51.669
24221DT     SC357382  65.230  13.951  51.808
24222DA     BB157383  64.844  13.519  51.089
24222DA     BB257384  65.000  13.274  51.313
24222DA     BB357385  64.867  13.222  51.471
24222DA     SC157386  64.968  13.445  51.663
24222DA     SC257387  65.098  13.460  51.875
24222DA     SC357388  64.992  13.693  51.899
24222DA     SC457389  64.892  13.586  51.660
24223DC     BB157390  64.814  13.040  51.466
24223DC     BB257391  65.022  12.932  51.740
24223DC     BB357392  64.907  12.911  51.912
24223DC     SC157393  64.893  13.171  51.944
24223DC     SC257394  65.008  13.228  52.116
24223DC     SC357395  64.791  13.413  51.963
24224DG     BB157396  65.103  12.564  51.825
24224DG     BB257397  65.167  12.675  52.164
24224DG     BB357398  65.009  12.636  52.279
24224DG     SC157399  64.873  12.905  52.224
24224DG     SC257400  64.828  13.123  52.424
24224DG     SC357401  64.686  13.181  52.170
24224DG     SC457402  64.775  12.918  52.098
24225DT     BB157403  65.040  12.507  52.440
24225DT     BB257404  65.038  12.737  52.718
24225DT     BB357405  64.854  12.731  52.813
24225DT     SC157406  64.741  12.867  52.620
24225DT     SC257407  64.689  13.063  52.691
24225DT     SC357408  64.581  12.926  52.418
24226DG     BB157409  65.157  12.655  53.073
24226DG     BB257410  64.944  12.924  53.188
24226DG     BB357411  64.773  12.849  53.258
24226DG     SC157412  64.630  12.861  52.987
24226DG     SC257413  64.399  13.037  52.919
24226DG     SC357414  64.449  12.841  52.704
24226DG     SC457415  64.641  12.736  52.888
24227DT     BB157416  64.744  12.897  53.447
24227DT     BB257417  64.484  13.146  53.424
24227DT     BB357418  64.299  13.059  53.456
24227DT     SC157419  64.301  12.949  53.218
24227DT     SC257420  64.153  13.044  53.094
24227DT     SC357421  64.303  12.764  53.030
24228DT     BB157422  64.328  13.212  53.659
24228DT     BB257423  64.024  13.316  53.496
24228DT     BB357424  63.872  13.182  53.538
24228DT     SC157425  63.972  13.004  53.373
24228DT     SC257426  63.843  12.984  53.203
24228DT     SC357427  64.081  12.781  53.286
24229DG     BB157428  63.798  13.583  53.596
24229DG     BB257429  63.537  13.418  53.407
24229DG     BB357430  63.439  13.291  53.524
24229DG     SC157431  63.623  13.054  53.463
24229DG     SC257432  63.546  12.806  53.314
24229DG     SC357433  63.816  12.779  53.434
24229DG     SC457434  63.753  13.032  53.553
24230DA     BB157435  63.183  13.464  53.358
24230DA     BB257436  63.037  13.139  53.267
24230DA     BB357437  62.977  13.034  53.443
24230DA     SC157438  63.250  12.888  53.478
24230DA     SC257439  63.339  12.656  53.457
24230DA     SC357440  63.532  12.739  53.605
24230DA     SC457441  63.360  12.958  53.572
24231DT     BB157442  62.788  13.009  53.468
24231DT     BB257443  62.772  12.651  53.428
24231DT     BB357444  62.769  12.559  53.613
24231DT     SC157445  63.024  12.606  53.650
24231DT     SC257446  63.133  12.420  53.641
24231DT     SC357447  63.247  12.702  53.754
24232DT     BB157448  62.490  12.494  53.625
24232DT     BB257449  62.648  12.179  53.700
24232DT     BB357450  62.674  12.159  53.905
24232DT     SC157451  62.873  12.330  53.904
24232DT     SC257452  63.056  12.226  53.945
24232DT     SC357453  63.014  12.547  53.955
24233DT     BB157454  62.456  11.973  53.974
24233DT     BB257455  62.749  11.810  54.108
24233DT     BB357456  62.773  11.861  54.308
24233DT     SC157457  62.859  12.101  54.244
24233DT     SC257458  63.068  12.116  54.291
24233DT     SC357459  62.870  12.363  54.225
24234DA     BB157460  62.766  11.440  54.334
24234DA     BB257461  63.065  11.554  54.514
24234DA     BB357462  63.012  11.628  54.707
24234DA     SC157463  62.972  11.921  54.611
24234DA     SC257464  63.086  12.141  54.639
24234DA     SC357465  62.862  12.243  54.567
24234DA     SC457466  62.824  11.966  54.566
24235DA     BB157467  63.236  11.409  54.804
24235DA     BB257468  63.430  11.694  54.930
24235DA     BB357469  63.348  11.763  55.114
24235DA     SC157470  63.157  11.969  54.981
24235DA     SC257471  63.136  12.216  54.962
24235DA     SC357472  62.891  12.171  54.901
24235DA     SC457473  63.008  11.920  54.946
24236DT     BB157474  63.465  11.742  55.264
24236DT     BB257475  63.559  12.089  55.293
24236DT     BB357476  63.454  12.178  55.449
24236DT     SC157477  63.233  12.184  55.307
24236DT     SC257478  63.187  12.389  55.258
24236DT     SC357479  62.985  12.136  55.232
24237DA     BB157480  63.866  12.259  55.473
24237DA     BB257481  63.682  12.574  55.512
24237DA     BB357482  63.579  12.577  55.699
24237DA     SC157483  63.318  12.452  55.585
24237DA     SC257484  63.084  12.525  55.537
24237DA     SC357485  63.028  12.274  55.540
24237DA     SC457486  63.303  12.292  55.592
24238DC     BB157487  63.642  12.709  55.818
24238DC     BB257488  63.361  12.933  55.794
24238DC     BB357489  63.235  12.906  55.957
24238DC     SC157490  63.144  12.680  55.859
24238DC     SC257491  62.939  12.707  55.798
24238DC     SC357492  63.091  12.423  55.836
24239DA     BB157493  63.316  13.319  55.944
24239DA     BB257494  62.954  13.277  55.982
24239DA     BB357495  62.907  13.214  56.180
24239DA     SC157496  62.923  12.911  56.113
24239DA     SC257497  62.766  12.718  56.093
24239DA     SC357498  62.974  12.571  56.124
24239DA     SC457499  63.064  12.837  56.135
24240DA     BB157500  62.705  13.480  56.201
24240DA     BB257501  62.427  13.245  56.245
24240DA     BB357502  62.421  13.174  56.446
24240DA     SC157503  62.603  12.928  56.390
24240DA     SC257504  62.581  12.680  56.378
24240DA     SC357505  62.835  12.675  56.411
24240DA     SC457506  62.762  12.946  56.413
24241DA     BB157507  62.103  13.281  56.480
24241DA     BB257508  62.001  12.932  56.527
24241DA     BB357509  62.030  12.874  56.731
24241DA     SC157510  62.320  12.770  56.686
24241DA     SC257511  62.439  12.552  56.683
24241DA     SC357512  62.652  12.690  56.721
24241DA     SC457513  62.440  12.874  56.711
24242DT     BB157514  61.863  12.824  56.877
24242DT     BB257515  61.909  12.467  56.865
24242DT     BB357516  61.983  12.399  57.046
24242DT     SC157517  62.222  12.494  56.993
24242DT     SC257518  62.358  12.331  56.960
24242DT     SC357519  62.441  12.640  57.012
24243DA     BB157520  61.642  12.166  56.977
24243DA     BB257521  61.918  11.937  57.053
24243DA     BB357522  61.958  11.937  57.263
24243DA     SC157523  62.168  12.166  57.248
24243DA     SC257524  62.415  12.192  57.274
24243DA     SC357525  62.363  12.441  57.311
24243DA     SC457526  62.116  12.316  57.269
24244DA     BB157527  61.916  11.614  57.227
24244DA     BB257528  62.265  11.575  57.331
24244DA     BB357529  62.282  11.596  57.543
24244DA     SC157530  62.332  11.903  57.534
24244DA     SC257531  62.520  12.061  57.576
24244DA     SC357532  62.337  12.239  57.601
24244DA     SC457533  62.203  11.999  57.546
24245DT     BB157534  62.340  11.433  57.647
24245DT     BB257535  62.678  11.544  57.708
24245DT     BB357536  62.698  11.604  57.905
24245DT     SC157537  62.567  11.827  57.859
24245DT     SC257538  62.703  11.993  57.872
24245DT     SC357539  62.380  12.011  57.872
24246DA     BB157540  63.001  11.335  57.804
24246DA     BB257541  63.156  11.629  57.958
24246DA     BB357542  63.117  11.632  58.168
24246DA     SC157543  62.855  11.798  58.142
24246DA     SC257544  62.775  12.027  58.199
24246DA     SC357545  62.540  11.927  58.183
24246DA     SC457546  62.717  11.716  58.129
24247DA     BB157547  63.437  11.667  58.137
24247DA     BB257548  63.393  11.988  58.307
24247DA     BB357549  63.346  11.957  58.513
24247DA     SC157550  63.038  11.952  58.468
24247DA     SC257551  62.842  12.096  58.521
24247DA     SC357552  62.702  11.884  58.485
24247DA     SC457553  62.969  11.809  58.443
24248DG     BB157554  63.596  12.131  58.500
24248DG     BB257555  63.375  12.368  58.661
24248DG     BB357556  63.347  12.316  58.851
24248DG     SC157557  63.103  12.139  58.792
24248DG     SC257558  62.823  12.193  58.879
24248DG     SC357559  62.847  11.922  58.761
24248DG     SC457560  63.126  11.985  58.756
24249DG     BB157561  63.445  12.621  58.871
24249DG     BB257562  63.128  12.679  59.035
24249DG     BB357563  63.131  12.602  59.218
24249DG     SC157564  63.027  12.328  59.131
24249DG     SC257565  62.763  12.209  59.203
24249DG     SC357566  62.934  12.010  59.067
24249DG     SC457567  63.132  12.216  59.084
24250DC     BB157568  63.097  12.741  59.342
24250DC     BB257569  62.771  12.661  59.474
24250DC     BB357570  62.791  12.541  59.642
24250DC     SC157571  62.851  12.332  59.495
24250DC     SC257572  62.690  12.190  59.503
24250DC     SC357573  62.989  12.131  59.394
24251DT     BB157574  62.717  12.752  59.789
24251DT     BB257575  62.494  12.489  59.895
24251DT     BB357576  62.585  12.374  60.041
24251DT     SC157577  62.739  12.257  59.863
24251DT     SC257578  62.680  12.051  59.842
24251DT     SC357579  62.957  12.181  59.735
24252DA     BB157580  62.227  12.484  60.236
24252DA     BB257581  62.274  12.126  60.296
24252DA     BB357582  62.424  12.094  60.444
24252DA     SC157583  62.657  12.078  60.239
24252DA     SC257584  62.812  11.904  60.149
24252DA     SC357585  62.960  12.101  60.079
24252DA     SC457586  62.736  12.214  60.205
24253DG     BB157587  62.232  11.951  60.674
24253DG     BB257588  62.442  11.661  60.624
24253DG     BB357589  62.594  11.664  60.752
24253DG     SC157590  62.780  11.821  60.567
24253DG     SC257591  63.030  11.718  60.441
24253DG     SC357592  63.003  12.009  60.397
24253DG     SC457593  62.776  11.981  60.571
24254DT     BB157594  62.665  11.507  60.967
24254DT     BB257595  62.934  11.320  60.817
24254DT     BB357596  63.113  11.369  60.907
24254DT     SC157597  63.121  11.600  60.782
24254DT     SC257598  63.280  11.598  60.637
24254DT     SC357599  63.124  11.861  60.743
24255DA     BB157600  63.118  10.952  60.968
24255DA     BB257601  63.440  11.039  60.815
24255DA     BB357602  63.573  11.116  60.962
24255DA     SC157603  63.487  11.412  60.921
24255DA     SC257604  63.585  11.622  60.828
24255DA     SC357605  63.406  11.743  60.966
24255DA     SC457606  63.370  11.469  61.015
24256DT     BB157607  63.762  11.012  61.029
24256DT     BB257608  63.985  11.223  60.840
24256DT     BB357609  64.098  11.339  60.969
24256DT     SC157610  63.894  11.495  61.020
24256DT     SC257611  63.928  11.689  60.933
24256DT     SC357612  63.702  11.617  61.154
24257DT     BB157613  64.316  11.191  60.905
24257DT     BB257614  64.403  11.528  60.812
24257DT     BB357615  64.485  11.628  60.973
24257DT     SC157616  64.250  11.654  61.087
24257DT     SC257617  64.191  11.860  61.084
24257DT     SC357618  64.055  11.627  61.263
24258DT     BB157619  64.708  11.614  60.833
24258DT     BB257620  64.652  11.966  60.888
24258DT     BB357621  64.725  12.021  61.074
24258DT     SC157622  64.523  11.906  61.196
24258DT     SC257623  64.396  12.057  61.283
24258DT     SC357624  64.388  11.741  61.351
24259DA     BB157625  64.840  12.278  60.762
24259DA     BB257626  64.718  12.481  61.042
24259DA     BB357627  64.854  12.468  61.207
24259DA     SC157628  64.711  12.224  61.337
24259DA     SC257629  64.575  12.177  61.540
24259DA     SC357630  64.640  11.932  61.502
24259DA     SC457631  64.764  12.078  61.297
24260DA     BB157632  64.800  12.788  61.157
24260DA     BB257633  64.690  12.798  61.506
24260DA     BB357634  64.855  12.765  61.637
24260DA     SC157635  64.818  12.457  61.647
24260DA     SC257636  64.746  12.285  61.813
24260DA     SC357637  64.868  12.117  61.661
24260DA     SC457638  64.900  12.369  61.541
24261DG     BB157639  64.760  13.044  61.735
24261DG     BB257640  64.710  12.865  62.046
24261DG     BB357641  64.884  12.836  62.136
24261DG     SC157642  64.939  12.568  61.999
24261DG     SC257643  64.948  12.301  62.133
24261DG     SC357644  65.040  12.281  61.853
24261DG     SC457645  65.015  12.566  61.859
24262DT     BB157646  64.928  12.925  62.333
24262DT     BB257647  64.920  12.639  62.553
24262DT     BB357648  65.113  12.579  62.598
24262DT     SC157649  65.143  12.473  62.359
24262DT     SC257650  65.151  12.259  62.377
24262DT     SC357651  65.238  12.432  62.117
24263DT     BB157652  65.103  12.679  62.855
24263DT     BB257653  65.197  12.334  62.901
24263DT     BB357654  65.403  12.315  62.893
24263DT     SC157655  65.403  12.346  62.632
24263DT     SC257656  65.456  12.159  62.538
24263DT     SC357657  65.449  12.449  62.394
24264DC     BB157658  65.442  12.280  63.170
24264DC     BB257659  65.603  11.991  63.024
24264DC     BB357660  65.802  12.033  62.987
24264DC     SC157661  65.740  12.181  62.779
24264DC     SC257662  65.804  12.081  62.599
24264DC     SC357663  65.716  12.393  62.624
24265DT     BB157664  65.908  11.881  63.202
24265DT     BB257665  66.075  11.746  62.912
24265DT     BB357666  66.252  11.847  62.878
24265DT     SC157667  66.124  12.056  62.785
24265DT     SC257668  66.160  12.073  62.573
24265DT     SC357669  66.033  12.303  62.763
24266DA     BB157670  66.380  11.447  62.898
24266DA     BB257671  66.523  11.591  62.593
24266DA     BB357672  66.690  11.715  62.640
24266DA     SC157673  66.520  11.974  62.669
24266DA     SC257674  66.488  12.189  62.546
24266DA     SC357675  66.393  12.278  62.767
24266DA     SC457676  66.465  12.011  62.816
24267DG     BB157677  66.876  11.524  62.469
24267DG     BB257678  66.906  11.815  62.256
24267DG     BB357679  67.054  11.931  62.320
24267DG     SC157680  66.877  12.096  62.507
24267DG     SC257681  66.810  12.385  62.476
24267DG     SC357682  66.716  12.283  62.737
24267DG     SC457683  66.855  12.045  62.658
24268DT     BB157684  67.250  11.980  62.197
24268DT     BB257685  67.174  12.314  62.087
24268DT     BB357686  67.290  12.451  62.190
24268DT     SC157687  67.146  12.423  62.407
24268DT     SC257688  67.034  12.603  62.443
24268DT     SC357689  67.080  12.363  62.656
24269DA     BB157690  67.335  12.528  61.781
24269DA     BB257691  67.246  12.843  61.947
24269DA     BB357692  67.413  12.919  62.056
24269DA     SC157693  67.338  12.772  62.320
24269DA     SC257694  67.254  12.833  62.547
24269DA     SC357695  67.345  12.604  62.619
24269DA     SC457696  67.402  12.627  62.346
24270DA     BB157697  67.322  13.167  61.869
24270DA     BB257698  67.253  13.344  62.183
24270DA     BB357699  67.436  13.400  62.278
24270DA     SC157700  67.458  13.138  62.445
24270DA     SC257701  67.439  13.070  62.684
24270DA     SC357702  67.570  12.861  62.613
24270DA     SC457703  67.541  13.017  62.382
24271DA     BB157704  67.253  13.667  62.261
24271DA     BB257705  67.271  13.671  62.627
24271DA     BB357706  67.468  13.722  62.691
24271DA     SC157707  67.568  13.428  62.701
24271DA     SC257708  67.633  13.261  62.874
24271DA     SC357709  67.755  13.140  62.683
24271DA     SC457710  67.638  13.368  62.569
24272DT     BB157711  67.450  13.870  62.777
24272DT     BB257712  67.505  13.738  63.108
24272DT     BB357713  67.705  13.757  63.160
24272DT     SC157714  67.773  13.558  63.001
24272DT     SC257715  67.834  13.390  63.120
24272DT     SC357716  67.885  13.427  62.803
24273DA     BB157717  67.452  13.899  63.465
24273DA     BB257718  67.708  13.684  63.616
24273DA     BB357719  67.900  13.778  63.605
24273DA     SC157720  67.973  13.653  63.330
24273DA     SC257721  68.133  13.483  63.242
24273DA     SC357722  68.095  13.595  63.014
24273DA     SC457723  67.937  13.737  63.198
24274DA     BB157724  67.885  13.708  63.927
24274DA     BB257725  68.192  13.514  63.877
24274DA     BB357726  68.358  13.644  63.846
24274DA     SC157727  68.327  13.651  63.537
24274DA     SC257728  68.450  13.567  63.337
24274DA     SC357729  68.319  13.745  63.207
24274DA     SC457730  68.237  13.769  63.474
24275DT     BB157731  68.509  13.657  63.987
24275DT     BB257732  68.763  13.482  63.800
24275DT     BB357733  68.902  13.616  63.726
24275DT     SC157734  68.735  13.700  63.541
24275DT     SC257735  68.804  13.635  63.348
24275DT     SC357736  68.577  13.860  63.404
24276DT     BB157737  69.104  13.548  63.909
24276DT     BB257738  69.261  13.503  63.587
24276DT     BB357739  69.352  13.680  63.528
24276DT     SC157740  69.120  13.788  63.469
24276DT     SC257741  69.104  13.811  63.255
24276DT     SC357742  68.914  13.952  63.477
24277DT     BB157743  69.615  13.592  63.577
24277DT     BB257744  69.619  13.689  63.229
24277DT     BB357745  69.672  13.888  63.212
24277DT     SC157746  69.436  13.967  63.295
24277DT     SC257747  69.329  14.057  63.132
24277DT     SC357748  69.250  14.079  63.446
24278DA     BB157749  69.937  13.683  62.960
24278DA     BB257750  69.791  13.958  62.766
24278DA     BB357751  69.879  14.143  62.823
24278DA     SC157752  69.668  14.203  63.044
24278DA     SC257753  69.480  14.363  63.082
24278DA     SC357754  69.507  14.305  63.330
24278DA     SC457755  69.701  14.155  63.194
24279DT     BB157756  69.989  14.241  62.687
24279DT     BB257757  69.745  14.495  62.610
24279DT     BB357758  69.801  14.675  62.697
24279DT     SC157759  69.731  14.591  62.935
24279DT     SC257760  69.556  14.699  63.000
24279DT     SC357761  69.749  14.518  63.188
24280DT     BB157762  69.848  14.756  62.449
24280DT     BB257763  69.604  14.987  62.579
24280DT     BB357764  69.699  15.135  62.689
24280DT     SC157765  69.741  14.970  62.889
24280DT     SC257766  69.619  15.027  63.056
24280DT     SC357767  69.870  14.823  63.066
24281DA     BB157768  69.437  15.309  62.412
24281DA     BB257769  69.377  15.464  62.739
24281DA     BB357770  69.540  15.592  62.791
24281DA     SC157771  69.700  15.370  62.939
24281DA     SC257772  69.764  15.315  63.174
24281DA     SC357773  69.947  15.170  63.067
24281DA     SC457774  69.808  15.287  62.854
24282DC     BB157775  69.488  15.771  62.801
24282DC     BB257776  69.504  15.805  63.160
24282DC     BB357777  69.682  15.896  63.215
24282DC     SC157778  69.817  15.676  63.167
24282DC     SC257779  69.887  15.594  63.354
24282DC     SC357780  69.991  15.510  63.058
24283DT     BB157781  69.540  16.115  63.276
24283DT     BB257782  69.724  16.039  63.578
24283DT     BB357783  69.913  16.121  63.568
24283DT     SC157784  69.993  15.938  63.398
24283DT     SC257785  70.134  15.808  63.495
24283DT     SC357786  70.081  15.827  63.176
24284DT     BB157787  69.848  16.316  63.750
24284DT     BB257788  70.142  16.162  63.890
24284DT     BB357789  70.313  16.253  63.815
24284DT     SC157790  70.284  16.133  63.584
24284DT     SC257791  70.441  15.988  63.559
24284DT     SC357792  70.246  16.099  63.325
24285DG     BB157793  70.356  16.327  64.218
24285DG     BB257794  70.659  16.183  64.083
24285DG     BB357795  70.769  16.324  63.996
24285DG     SC157796  70.638  16.290  63.721
24285DG     SC257797  70.773  16.187  63.475
24285DG     SC357798  70.504  16.294  63.412
24285DG     SC457799  70.507  16.375  63.686
24286DC     BB157800  71.002  16.422  64.058
24286DC     BB257801  71.206  16.264  63.806
24286DC     BB357802  71.273  16.406  63.671
24286DC     SC157803  71.037  16.422  63.558
24286DC     SC257804  71.046  16.337  63.361
24286DC     SC357805  70.807  16.523  63.477
24287DT     BB157806  71.554  16.434  63.756
24287DT     BB257807  71.581  16.342  63.409
24287DT     BB357808  71.600  16.512  63.292
24287DT     SC157809  71.346  16.569  63.321
24287DT     SC257810  71.244  16.541  63.133
24287DT     SC357811  71.127  16.699  63.391
24288DG     BB157812  71.949  16.313  63.209
24288DG     BB257813  71.765  16.384  62.906
24288DG     BB357814  71.804  16.569  62.844
24288DG     SC157815  71.576  16.696  63.004
24288DG     SC257816  71.333  16.826  62.888
24288DG     SC357817  71.349  16.872  63.180
24288DG     SC457818  71.603  16.743  63.154
24289DA     BB157819  71.876  16.419  62.547
24289DA     BB257820  71.601  16.604  62.390
24289DA     BB357821  71.661  16.805  62.350
24289DA     SC157822  71.562  16.914  62.625
24289DA     SC257823  71.379  17.061  62.710
24289DA     SC357824  71.526  17.087  62.919
24289DA     SC457825  71.668  16.918  62.745
24290DA     BB157826  71.534  16.671  62.086
24290DA     BB257827  71.281  16.935  62.110
24290DA     BB357828  71.368  17.125  62.067
24290DA     SC157829  71.442  17.185  62.363
24290DA     SC257830  71.368  17.341  62.544
24290DA     SC357831  71.596  17.291  62.651
24290DA     SC457832  71.588  17.143  62.414
24291DA     BB157833  71.090  17.067  61.905
24291DA     BB257834  70.970  17.372  62.069
24291DA     BB357835  71.082  17.541  62.003
24291DA     SC157836  71.296  17.518  62.227
24291DA     SC257837  71.364  17.645  62.431
24291DA     SC357838  71.588  17.522  62.409
24291DA     SC457839  71.429  17.433  62.196
24292DG     BB157840  70.781  17.584  61.958
24292DG     BB257841  70.846  17.860  62.183
24292DG     BB357842  70.955  17.998  62.092
24292DG     SC157843  71.223  17.877  62.175
24292DG     SC257844  71.421  18.000  62.362
24292DG     SC357845  71.535  17.760  62.231
24292DG     SC457846  71.291  17.766  62.081
24293DG     BB157847  70.705  18.181  62.188
24293DG     BB257848  70.952  18.376  62.366
24293DG     BB357849  71.056  18.487  62.237
24293DG     SC157850  71.270  18.273  62.188
24293DG     SC257851  71.557  18.292  62.267
24293DG     SC357852  71.510  18.056  62.095
24293DG     SC457853  71.247  18.166  62.072
24294DA     BB157854  70.980  18.750  62.453
24294DA     BB257855  71.337  18.824  62.488
24294DA     BB357856  71.413  18.911  62.309
24294DA     SC157857  71.494  18.639  62.182
24294DA     SC257858  71.704  18.517  62.125
24294DA     SC357859  71.557  18.380  61.965
24294DA     SC457860  71.386  18.566  62.087
24295DA     BB157861  71.518  19.155  62.509
24295DA     BB257862  71.858  19.084  62.392
24295DA     BB357863  71.887  19.161  62.195
24295DA     SC157864  71.796  18.899  62.053
24295DA     SC257865  71.900  18.717  61.918
24295DA     SC357866  71.662  18.669  61.837
24295DA     SC457867  71.641  18.886  62.013
24296DG     BB157868  72.118  19.358  62.296
24296DG     BB257869  72.329  19.164  62.076
24296DG     BB357870  72.321  19.238  61.892
24296DG     SC157871  72.084  19.065  61.805
24296DG     SC257872  72.091  18.848  61.601
24296DG     SC357873  71.813  18.906  61.684
24296DG     SC457874  71.935  19.119  61.831
24297DT     BB157875  72.502  19.348  61.755
24297DT     BB257876  72.579  19.083  61.522
24297DT     BB357877  72.512  19.135  61.333
24297DT     SC157878  72.262  19.088  61.400
24297DT     SC257879  72.192  18.913  61.297
24297DT     SC357880  72.007  19.130  61.450
24298DA     BB157881  72.919  19.057  61.251
24298DA     BB257882  72.723  18.867  61.006
24298DA     BB357883  72.655  18.995  60.850
24298DA     SC157884  72.387  19.065  60.992
24298DA     SC257885  72.144  19.018  60.961
24298DA     SC357886  72.106  19.223  61.110
24298DA     SC457887  72.384  19.196  61.085
24299DT     BB157888  72.723  18.989  60.631
24299DT     BB257889  72.425  18.829  60.505
24299DT     BB357890  72.319  18.961  60.387
24299DT     SC157891  72.234  19.094  60.596
24299DT     SC257892  72.023  19.061  60.621
24299DT     SC357893  72.198  19.292  60.767
24300DT     BB157894  72.388  18.831  60.151
24300DT     BB257895  72.027  18.820  60.159
24300DT     BB357896  71.950  18.988  60.065
24300DT     SC157897  72.012  19.140  60.270
24300DT     SC257898  71.832  19.202  60.370
24300DT     SC357899  72.126  19.330  60.412
24301DG     BB157900  71.803  18.659  59.876
24301DG     BB257901  71.538  18.876  59.991
24301DG     BB357902  71.518  19.031  59.867
24301DG     SC157903  71.718  19.208  60.016
24301DG     SC257904  71.653  19.459  60.165
24301DG     SC357905  71.946  19.421  60.144
24301DG     SC457906  71.873  19.200  59.977
24302DC     BB157907  71.334  19.046  59.778
24302DC     BB257908  71.189  19.321  59.961
24302DC     BB357909  71.206  19.496  59.852
24302DC     SC157910  71.462  19.514  59.905
24302DC     SC257911  71.496  19.681  60.037
24302DC     SC357912  71.723  19.522  59.869
24303DT     BB157913  70.946  19.471  59.832
24303DT     BB257914  71.001  19.792  59.987
24303DT     BB357915  71.047  19.934  59.843
24303DT     SC157916  71.288  19.837  59.813
24303DT     SC257917  71.432  19.977  59.890
24303DT     SC357918  71.498  19.723  59.699
24304DC     BB157919  70.810  20.029  59.906
24304DC     BB257920  71.041  20.301  59.961
24304DC     BB357921  71.084  20.394  59.781
24304DC     SC157922  71.239  20.196  59.706
24304DC     SC257923  71.444  20.261  59.704
24304DC     SC357924  71.329  19.991  59.566
24305DT     BB157925  70.943  20.595  59.878
24305DT     BB257926  71.266  20.736  59.800
24305DT     BB357927  71.276  20.782  59.598
24305DT     SC157928  71.301  20.530  59.533
24305DT     SC257929  71.500  20.494  59.459
24305DT     SC357930  71.246  20.294  59.427
24306DA     BB157931  71.398  21.116  59.823
24306DA     BB257932  71.645  21.060  59.558
24306DA     BB357933  71.563  21.112  59.368
24306DA     SC157934  71.453  20.826  59.310
24306DA     SC257935  71.503  20.637  59.155
24306DA     SC357936  71.265  20.558  59.207
24306DA     SC457937  71.302  20.794  59.354
24307DT     BB157938  71.645  21.262  59.280
24307DT     BB257939  71.820  21.076  59.025
24307DT     BB357940  71.718  21.089  58.845
24307DT     SC157941  71.534  20.922  58.929
24307DT     SC257942  71.551  20.737  58.821
24307DT     SC357943  71.298  20.828  59.002
24308DG     BB157944  72.096  21.228  58.783
24308DG     BB257945  72.006  20.975  58.541
24308DG     BB357946  71.886  21.053  58.403
24308DG     SC157947  71.628  20.989  58.555
24308DG     SC257948  71.419  20.793  58.470
24308DG     SC357949  71.328  20.951  58.703
24308DG     SC457950  71.572  21.095  58.660
24309DG     BB157951  72.107  20.960  58.180
24309DG     BB257952  71.845  20.751  58.042
24309DG     BB357953  71.725  20.860  57.928
24309DG     SC157954  71.535  20.936  58.156
24309DG     SC257955  71.251  20.849  58.183
24309DG     SC357956  71.318  21.055  58.385
24309DG     SC457957  71.567  21.067  58.243
24310DT     BB157958  71.707  20.816  57.717
24310DT     BB257959  71.380  20.666  57.698
24310DT     BB357960  71.243  20.804  57.627
24310DT     SC157961  71.240  20.931  57.857
24310DT     SC257962  71.050  20.901  57.952
24310DT     SC357963  71.271  21.124  58.034
24311DT     BB157964  71.228  20.677  57.384
24311DT     BB257965  70.886  20.689  57.499
24311DT     BB357966  70.798  20.867  57.441
24311DT     SC157967  70.930  21.001  57.624
24311DT     SC257968  70.793  21.068  57.776
24311DT     SC357969  71.096  21.174  57.734
24312DT     BB157970  70.644  20.748  57.243
24312DT     BB257971  70.403  20.918  57.451
24312DT     BB357972  70.376  21.112  57.384
24312DT     SC157973  70.607  21.186  57.483
24312DT     SC257974  70.574  21.318  57.650
24312DT     SC357975  70.855  21.275  57.494
24313DG     BB157976  70.003  20.945  57.361
24313DG     BB257977  69.997  21.253  57.551
24313DG     BB357978  69.995  21.409  57.428
24313DG     SC157979  70.300  21.432  57.413
24313DG     SC257980  70.464  21.658  57.521
24313DG     SC357981  70.630  21.475  57.358
24313DG     SC457982  70.379  21.349  57.302
24314DA     BB157983  69.716  21.524  57.600
24314DA     BB257984  69.899  21.827  57.695
24314DA     BB357985  69.907  21.964  57.532
24314DA     SC157986  70.175  21.852  57.419
24314DA     SC257987  70.412  21.926  57.399
24314DA     SC357988  70.431  21.747  57.216
24314DA     SC457989  70.166  21.736  57.308
24315DA     BB157990  69.783  22.158  57.764
24315DA     BB257991  70.086  22.361  57.724
24315DA     BB357992  70.075  22.475  57.544
24315DA     SC157993  70.214  22.258  57.370
24315DA     SC257994  70.431  22.227  57.252
24315DA     SC357995  70.308  22.048  57.115
24315DA     SC457996  70.119  22.152  57.295
24316DC     BB157997  70.069  22.663  57.573
24316DC     BB257998  70.409  22.732  57.473
24316DC     BB357999  70.412  22.809  57.281
24316DC     SC158000  70.363  22.573  57.177
24316DC     SC258001  70.538  22.504  57.073
24316DC     SC358002  70.240  22.380  57.047
24317DC     BB158003  70.482  23.034  57.399
24317DC     BB258004  70.747  22.962  57.165
24317DC     BB358005  70.694  23.026  56.976
24317DC     SC158006  70.528  22.825  56.946
24317DC     SC258007  70.607  22.690  56.798
24317DC     SC358008  70.303  22.692  56.912
24318DG     BB158009  71.049  23.189  57.093
24318DG     BB258010  71.073  23.031  56.769
24318DG     BB358011  70.984  23.143  56.631
24318DG     SC158012  70.709  23.012  56.667
24318DG     SC258013  70.567  22.845  56.465
24318DG     SC358014  70.391  22.906  56.694
24318DG     SC458015  70.609  23.072  56.777
24319DG     BB158016  71.272  23.139  56.478
24319DG     BB258017  71.097  22.978  56.206
24319DG     BB358018  70.997  23.114  56.099
24319DG     SC158019  70.742  23.093  56.267
24319DG     SC258020  70.479  22.987  56.173
24319DG     SC358021  70.453  23.112  56.440
24319DG     SC458022  70.726  23.187  56.395
24320DA     BB158023  71.156  22.972  55.824
24320DA     BB258024  70.829  22.898  55.675
24320DA     BB358025  70.739  23.077  55.602
24320DA     SC158026  70.590  23.140  55.868
24320DA     SC258027  70.355  23.142  55.952
24320DA     SC358028  70.445  23.295  56.138
24320DA     SC458029  70.665  23.235  55.974
24321DT     BB158030  70.709  23.113  55.394
24321DT     BB258031  70.352  23.064  55.390
24321DT     BB358032  70.256  23.246  55.367
24321DT     SC158033  70.307  23.314  55.615
24321DT     SC258034  70.124  23.316  55.728
24321DT     SC358035  70.406  23.446  55.821
24322DT     BB158036  70.185  23.196  55.103
24322DT     BB258037  69.871  23.266  55.266
24322DT     BB358038  69.831  23.469  55.258
24322DT     SC158039  70.010  23.520  55.443
24322DT     SC258040  69.911  23.583  55.623
24322DT     SC358041  70.227  23.616  55.558
24323DA     BB158042  69.491  23.274  55.109
24323DA     BB258043  69.380  23.516  55.361
24323DA     BB358044  69.392  23.714  55.284
24323DA     SC158045  69.683  23.762  55.384
24323DA     SC258046  69.798  23.900  55.557
24323DA     SC358047  70.010  23.861  55.417
24323DA     SC458048  69.803  23.728  55.283
24324DT     BB158049  69.221  23.811  55.261
24324DT     BB258050  69.257  24.033  55.543
24324DT     BB358051  69.310  24.223  55.477
24324DT     SC158052  69.555  24.146  55.426
24324DT     SC258053  69.689  24.238  55.567
24324DT     SC358054  69.775  24.091  55.292
24325DA     BB158055  68.983  24.252  55.738
24325DA     BB258056  69.234  24.498  55.842
24325DA     BB358057  69.242  24.659  55.702
24325DA     SC158058  69.462  24.528  55.526
24325DA     SC258059  69.702  24.565  55.472
24325DA     SC358060  69.657  24.422  55.264
24325DA     SC458061  69.413  24.438  55.401
24326DT     BB158062  69.187  24.826  55.774
24326DT     BB258063  69.512  24.982  55.789
24326DT     BB358064  69.537  25.109  55.628
24326DT     SC158065  69.572  24.908  55.464
24326DT     SC258066  69.777  24.904  55.398
24326DT     SC358067  69.532  24.740  55.264
24327DA     BB158068  69.628  25.336  55.970
24327DA     BB258069  69.894  25.395  55.725
24327DA     BB358070  69.823  25.519  55.567
24327DA     SC158071  69.728  25.281  55.389
24327DA     SC258072  69.795  25.172  55.175
24327DA     SC358073  69.557  25.078  55.172
24327DA     SC458074  69.575  25.233  55.405
24328DT     BB158075  69.891  25.725  55.532
24328DT     BB258076  70.088  25.659  55.238
24328DT     BB358077  69.993  25.736  55.070
24328DT     SC158078  69.817  25.541  55.072
24328DT     SC258079  69.851  25.413  54.903
24328DT     SC358080  69.585  25.417  55.088
24329DT     BB158081  70.158  25.971  55.028
24329DT     BB258082  70.173  25.800  54.710
24329DT     BB358083  70.026  25.872  54.584
24329DT     SC158084  69.839  25.743  54.714
24329DT     SC258085  69.763  25.583  54.592
24329DT     SC358086  69.625  25.698  54.861
24330DT     BB158087  70.189  26.038  54.405
24330DT     BB258088  70.024  25.809  54.180
24330DT     BB358089  69.851  25.895  54.106
24330DT     SC158090  69.726  25.859  54.334
24330DT     SC258091  69.574  25.708  54.310
24330DT     SC358092  69.600  25.913  54.560
24331DA     BB158093  70.061  25.783  53.761
24331DA     BB258094  69.723  25.642  53.735
24331DA     BB358095  69.584  25.794  53.678
24331DA     SC158096  69.515  25.873  53.971
24331DA     SC258097  69.320  25.854  54.127
24331DA     SC358098  69.433  26.044  54.258
24331DA     SC458099  69.600  25.992  54.038
24332DT     BB158100  69.494  25.776  53.499
24332DT     BB258101  69.176  25.664  53.626
24332DT     BB358102  69.037  25.816  53.613
24332DT     SC158103  69.144  25.942  53.817
24332DT     SC258104  69.010  25.934  53.985
24332DT     SC358105  69.266  26.130  53.957
24333DA     BB158106  68.887  25.461  53.449
24333DA     BB258107  68.638  25.595  53.683
24333DA     BB358108  68.548  25.770  53.603
24333DA     SC158109  68.754  25.965  53.730
24333DA     SC258110  68.759  26.137  53.910
24333DA     SC358111  68.970  26.225  53.793
24333DA     SC458112  68.883  26.005  53.642
24334DA     BB158113  68.295  25.581  53.686
24334DA     BB258114  68.195  25.854  53.909
24334DA     BB358115  68.123  26.020  53.795
24334DA     SC158116  68.402  26.156  53.773
24334DA     SC258117  68.516  26.359  53.862
24334DA     SC358118  68.678  26.330  53.666
24334DA     SC458119  68.492  26.122  53.644
24335DC     BB158120  67.936  26.061  53.819
24335DC     BB258121  67.980  26.361  54.015
24335DC     BB358122  67.952  26.528  53.896
24335DC     SC158123  68.185  26.494  53.781
24335DC     SC258124  68.318  26.652  53.842
24335DC     SC358125  68.365  26.450  53.593
24336DC     BB158126  67.714  26.577  54.018
24336DC     BB258127  67.903  26.880  54.064
24336DC     BB358128  67.878  27.005  53.901
24336DC     SC158129  68.035  26.855  53.753
24336DC     SC258130  68.218  26.962  53.713
24336DC     SC358131  68.115  26.695  53.559
24337DA     BB158132  67.787  27.237  54.238
24337DA     BB258133  68.024  27.427  54.032
24337DA     BB358134  67.925  27.505  53.859
24337DA     SC158135  67.988  27.257  53.682
24337DA     SC258136  68.132  27.202  53.485
24337DA     SC358137  67.975  27.002  53.452
24337DA     SC458138  67.878  27.139  53.677
24338DA     BB158139  68.052  27.783  53.975
24338DA     BB258140  68.243  27.803  53.662
24338DA     BB358141  68.117  27.866  53.502
24338DA     SC158142  68.035  27.577  53.420
24338DA     SC258143  68.076  27.420  53.230
24338DA     SC358144  67.866  27.298  53.313
24338DA     SC458145  67.902  27.515  53.486
24339DT     BB158146  68.164  28.034  53.429
24339DT     BB258147  68.312  27.907  53.125
24339DT     BB358148  68.179  27.931  52.967
24339DT     SC158149  68.031  27.732  53.052
24339DT     SC258150  68.049  27.566  52.916
24339DT     SC358151  67.823  27.599  53.145
24340DC     BB158152  68.360  28.102  52.895
24340DC     BB258153  68.335  27.865  52.624
24340DC     BB358154  68.171  27.908  52.507
24340DC     SC158155  68.007  27.813  52.688
24340DC     SC258156  67.918  27.631  52.616
24340DC     SC358157  67.815  27.804  52.869
24341DA     BB158158  68.521  27.844  52.282
24341DA     BB258159  68.247  27.652  52.131
24341DA     BB358160  68.103  27.784  52.044
24341DA     SC158161  67.930  27.806  52.301
24341DA     SC258162  67.706  27.730  52.380
24341DA     SC358163  67.729  27.915  52.557
24341DA     SC458164  67.963  27.926  52.403
24342DG     BB158165  68.189  27.611  51.803
24342DG     BB258166  67.839  27.517  51.810
24342DG     BB358167  67.728  27.663  51.734
24342DG     SC158168  67.688  27.805  52.002
24342DG     SC258169  67.429  27.833  52.149
24342DG     SC358170  67.640  27.998  52.275
24342DG     SC458171  67.795  27.915  52.049
24343DA     BB158172  67.591  27.414  51.535
24343DA     BB258173  67.258  27.494  51.666
24343DA     BB358174  67.188  27.678  51.583
24343DA     SC158175  67.306  27.854  51.810
24343DA     SC258176  67.221  27.991  52.000
24343DA     SC358177  67.451  28.106  51.993
24343DA     SC458178  67.454  27.913  51.789
24344DG     BB158179  66.955  27.502  51.472
24344DG     BB258180  66.754  27.713  51.685
24344DG     BB358181  66.716  27.886  51.594
24344DG     SC158182  66.965  28.026  51.703
24344DG     SC258183  66.967  28.254  51.895
24344DG     SC358184  67.238  28.204  51.788
24344DG     SC458185  67.102  28.016  51.621
24345DT     BB158186  66.508  27.950  51.539
24345DT     BB258187  66.444  28.207  51.783
24345DT     BB358188  66.460  28.394  51.695
24345DT     SC158189  66.722  28.377  51.690
24345DT     SC258190  66.805  28.518  51.830
24345DT     SC358191  66.967  28.364  51.595
24346DT     BB158192  66.190  28.427  51.706
24346DT     BB258193  66.321  28.712  51.882
24346DT     BB358194  66.363  28.865  51.749
24346DT     SC158195  66.577  28.741  51.662
24346DT     SC258196  66.752  28.849  51.725
24346DT     SC358197  66.743  28.617  51.499
24347DA     BB158198  66.122  29.033  52.048
24347DA     BB258199  66.410  29.255  51.999
24347DA     BB358200  66.391  29.362  51.815
24347DA     SC158201  66.541  29.148  51.646
24347DA     SC258202  66.759  29.127  51.527
24347DA     SC358203  66.646  28.937  51.397
24347DA     SC458204  66.453  29.034  51.576
24348DA     BB158205  66.433  29.627  52.008
24348DA     BB258206  66.733  29.702  51.811
24348DA     BB358207  66.679  29.785  51.623
24348DA     SC158208  66.667  29.511  51.477
24348DA     SC258209  66.797  29.388  51.303
24348DA     SC358210  66.584  29.248  51.272
24348DA     SC458211  66.524  29.436  51.471
24349DT     BB158212  66.724  29.986  51.574
24349DT     BB258213  66.993  29.916  51.344
24349DT     BB358214  66.930  29.950  51.149
24349DT     SC158215  66.788  29.729  51.148
24349DT     SC258216  66.878  29.586  51.015
24349DT     SC358217  66.578  29.569  51.137
24350DG     BB158218  67.247  30.205  51.193
24350DG     BB258219  67.288  29.997  50.900
24350DG     BB358220  67.180  30.071  50.750
24350DG     SC158221  66.929  29.911  50.819
24350DG     SC258222  66.809  29.692  50.655
24350DG     SC358223  66.630  29.767  50.878
24350DG     SC458224  66.823  29.974  50.922
24351DG     BB158225  67.444  30.118  50.545
24351DG     BB258226  67.294  29.873  50.325
24351DG     BB358227  67.169  29.963  50.199
24351DG     SC158228  66.925  29.937  50.382
24351DG     SC258229  66.684  29.770  50.330
24351DG     SC358230  66.643  29.944  50.566
24351DG     SC458231  66.896  30.053  50.489
24352DA     BB158232  67.332  29.817  49.924
24352DA     BB258233  67.023  29.645  49.826
24352DA     BB358234  66.895  29.778  49.719
24352DA     SC158235  66.745  29.876  49.974
24352DA     SC258236  66.518  29.854  50.075
24352DA     SC358237  66.579  30.063  50.209
24352DA     SC458238  66.801  30.008  50.047
24353DG     BB158239  66.917  29.586  49.470
24353DG     BB258240  66.564  29.535  49.530
24353DG     BB358241  66.458  29.675  49.437
24353DG     SC158242  66.463  29.870  49.673
24353DG     SC258243  66.227  29.955  49.835
24353DG     SC358244  66.465  30.116  49.904
24353DG     SC458245  66.584  29.974  49.685
24354DA     BB158246  66.266  29.429  49.279
24354DA     BB258247  65.963  29.557  49.441
24354DA     BB358248  65.889  29.728  49.336
24354DA     SC158249  66.051  29.932  49.505
24354DA     SC258250  66.005  30.108  49.676
24354DA     SC358251  66.236  30.202  49.612
24354DA     SC458252  66.196  29.976  49.451
24355DG     BB158253  65.629  29.561  49.285
24355DG     BB258254  65.480  29.812  49.500
24355DG     BB358255  65.425  29.970  49.392
24355DG     SC158256  65.693  30.114  49.422
24355DG     SC258257  65.740  30.369  49.570
24355DG     SC358258  65.980  30.291  49.417
24355DG     SC458259  65.809  30.085  49.315
24356DC     BB158260  65.210  30.032  49.378
24356DC     BB258261  65.211  30.316  49.601
24356DC     BB358262  65.200  30.491  49.492
24356DC     SC158263  65.451  30.470  49.417
24356DC     SC258264  65.567  30.624  49.513
24356DC     SC358265  65.662  30.443  49.261
24357DT     BB158266  64.958  30.508  49.596
24357DT     BB258267  65.133  30.804  49.706
24357DT     BB358268  65.123  30.951  49.560
24357DT     SC158269  65.300  30.825  49.412
24357DT     SC258270  65.483  30.938  49.409
24357DT     SC358271  65.406  30.696  49.208
24358DA     BB158272  65.047  31.064  49.959
24358DA     BB258273  65.285  31.299  49.809
24358DA     BB358274  65.191  31.411  49.654
24358DA     SC158275  65.267  31.210  49.429
24358DA     SC258276  65.419  31.202  49.232
24358DA     SC358277  65.269  31.012  49.149
24358DA     SC458278  65.161  31.094  49.394
24359DA     BB158279  65.380  31.576  49.873
24359DA     BB258280  65.550  31.701  49.572
24359DA     BB358281  65.412  31.805  49.447
24359DA     SC158282  65.333  31.553  49.283
24359DA     SC258283  65.365  31.465  49.052
24359DA     SC358284  65.164  31.315  49.103
24359DA     SC458285  65.205  31.468  49.333
24360DA     BB158286  65.702  31.968  49.491
24360DA     BB258287  65.705  31.987  49.125
24360DA     BB358288  65.533  32.093  49.055
24360DA     SC158289  65.357  31.837  49.028
24360DA     SC258290  65.258  31.700  48.845
24360DA     SC358291  65.098  31.613  49.025
24360DA     SC458292  65.266  31.796  49.154
24361DA     BB158293  65.785  32.244  48.899
24361DA     BB258294  65.600  32.178  48.590
24361DA     BB358295  65.418  32.290  48.587
24361DA     SC158296  65.249  32.066  48.722
24361DA     SC258297  65.068  31.908  48.658
24361DA     SC358298  65.022  31.890  48.909
24361DA     SC458299  65.236  32.070  48.882
24362DA     BB158300  65.520  32.412  48.291
24362DA     BB258301  65.209  32.283  48.146
24362DA     BB358302  65.045  32.407  48.202
24362DA     SC158303  64.978  32.243  48.459
24362DA     SC258304  64.798  32.091  48.539
24362DA     SC358305  64.885  32.146  48.774
24362DA     SC458306  65.046  32.291  48.596
24363DA     BB158307  64.957  32.466  47.877
24363DA     BB258308  64.631  32.312  47.945
24363DA     BB358309  64.501  32.452  48.040
24363DA     SC158310  64.586  32.373  48.329
24363DA     SC258311  64.485  32.257  48.525
24363DA     SC358312  64.668  32.374  48.662
24363DA     SC458313  64.706  32.455  48.397
24364DC     BB158314  64.301  32.564  47.956
24364DC     BB258315  64.064  32.370  48.147
24364DC     BB358316  63.972  32.490  48.288
24364DC     SC158317  64.187  32.492  48.438
24364DC     SC258318  64.149  32.379  48.618
24364DC     SC358319  64.397  32.582  48.569
24365DA     BB158320  63.632  32.341  48.085
24365DA     BB258321  63.576  32.284  48.443
24365DA     BB358322  63.515  32.465  48.538
24365DA     SC158323  63.804  32.554  48.610
24365DA     SC258324  63.944  32.579  48.815
24365DA     SC358325  64.089  32.735  48.672
24365DA     SC458326  63.880  32.649  48.505
24366DA     BB158327  63.245  32.301  48.645
24366DA     BB258328  63.369  32.350  48.987
24366DA     BB358329  63.318  32.545  49.056
24366DA     SC158330  63.581  32.676  48.955
24366DA     SC258331  63.789  32.775  49.053
24366DA     SC358332  63.816  32.892  48.826
24366DA     SC458333  63.580  32.741  48.808
24367DC     BB158334  63.183  32.570  49.216
24367DC     BB258335  63.435  32.645  49.464
24367DC     BB358336  63.428  32.846  49.514
24367DC     SC158337  63.541  32.914  49.287
24367DC     SC258338  63.740  32.987  49.326
24367DC     SC358339  63.575  33.023  49.049
24368DT     BB158340  63.328  32.776  49.754
24368DT     BB258341  63.634  32.952  49.826
24368DT     BB358342  63.599  33.155  49.835
24368DT     SC158343  63.579  33.171  49.574
24368DT     SC258344  63.748  33.278  49.496
24368DT     SC358345  63.474  33.211  49.335
24369DA     BB158346  63.814  33.017  50.168
24369DA     BB258347  63.990  33.305  50.025
24369DA     BB358348  63.880  33.485  50.060
24369DA     SC158349  63.718  33.467  49.794
24369DA     SC258350  63.707  33.589  49.577
24369DA     SC358351  63.474  33.482  49.553
24369DA     SC458352  63.576  33.392  49.799
24370DA     BB158353  64.188  33.527  50.154
24370DA     BB258354  64.195  33.796  49.904
24370DA     BB358355  64.069  33.957  49.965
24370DA     SC158356  63.817  33.845  49.821
24370DA     SC258357  63.675  33.904  49.624
24370DA     SC358358  63.496  33.758  49.734
24370DA     SC458359  63.718  33.751  49.906
24371DC     BB158360  64.175  34.089  49.983
24371DC     BB258361  64.072  34.272  49.691
24371DC     BB358362  63.925  34.409  49.741
24371DC     SC158363  63.745  34.219  49.762
24371DC     SC258364  63.603  34.237  49.602
24371DC     SC358365  63.565  34.057  49.869
24372DG     BB158366  64.242  34.579  49.548
24372DG     BB258367  63.925  34.668  49.398
24372DG     BB358368  63.828  34.797  49.515
24372DG     SC158369  63.683  34.579  49.674
24372DG     SC258370  63.389  34.528  49.672
24372DG     SC358371  63.522  34.367  49.882
24372DG     SC458372  63.753  34.518  49.804
24373DA     BB158373  63.802  34.973  49.218
24373DA     BB258374  63.437  34.972  49.254
24373DA     BB358375  63.379  35.101  49.414
24373DA     SC158376  63.389  34.879  49.631
24373DA     SC258377  63.228  34.751  49.772
24373DA     SC358378  63.430  34.702  49.922
24373DA     SC458379  63.527  34.860  49.712
24374DT     BB158380  63.277  35.258  49.363
24374DT     BB258381  62.958  35.151  49.491
24374DT     BB358382  62.920  35.244  49.673
24374DT     SC158383  63.092  35.089  49.797
24374DT     SC258384  62.986  34.955  49.927
24374DT     SC358385  63.304  35.014  49.934
24375DG     BB158386  62.610  35.343  49.426
24375DG     BB258387  62.491  35.211  49.740
24375DG     BB358388  62.504  35.349  49.882
24375DG     SC158389  62.789  35.272  49.965
24375DG     SC258390  62.868  35.152  50.227
24375DG     SC358391  63.106  35.226  50.069
24375DG     SC458392  62.913  35.340  49.891
24376DA     BB158393  62.169  35.287  49.952
24376DA     BB258394  62.257  35.195  50.296
24376DA     BB358395  62.299  35.369  50.412
24376DA     SC158396  62.603  35.370  50.346
24376DA     SC258397  62.818  35.328  50.466
24376DA     SC358398  62.927  35.460  50.276
24376DA     SC458399  62.652  35.456  50.220
24377DA     BB158400  62.073  35.231  50.606
24377DA     BB258401  62.333  35.218  50.865
24377DA     BB358402  62.367  35.413  50.945
24377DA     SC158403  62.591  35.484  50.740
24377DA     SC258404  62.838  35.519  50.742
24377DA     SC358405  62.801  35.645  50.521
24377DA     SC458406  62.547  35.559  50.605
24378DA     BB158407  62.311  35.253  51.227
24378DA     BB258408  62.650  35.349  51.327
24378DA     BB358409  62.656  35.556  51.379
24378DA     SC158410  62.727  35.651  51.092
24378DA     SC258411  62.923  35.750  50.973
24378DA     SC358412  62.752  35.826  50.797
24378DA     SC458413  62.605  35.691  50.994
24379DA     BB158414  62.785  35.438  51.659
24379DA     BB258415  63.085  35.635  51.582
24379DA     BB358416  63.050  35.842  51.621
24379DA     SC158417  62.949  35.905  51.333
24379DA     SC258418  63.028  36.031  51.133
24379DA     SC358419  62.782  36.030  51.061
24379DA     SC458420  62.791  35.895  51.306
24380DT     BB158421  63.150  35.943  51.776
24380DT     BB258422  63.374  36.133  51.567
24380DT     BB358423  63.314  36.331  51.561
24380DT     SC158424  63.114  36.274  51.401
24380DT     SC258425  63.152  36.356  51.206
24380DT     SC358426  62.866  36.246  51.314
24381DA     BB158427  63.717  36.354  51.679
24381DA     BB258428  63.671  36.589  51.401
24381DA     BB358429  63.569  36.764  51.468
24381DA     SC158430  63.286  36.652  51.405
24381DA     SC258431  63.102  36.696  51.242
24381DA     SC358432  62.951  36.576  51.410
24381DA     SC458433  63.208  36.576  51.523
24382DG     BB158434  63.825  36.926  51.382
24382DG     BB258435  63.598  37.070  51.140
24382DG     BB358436  63.498  37.221  51.223
24382DG     SC158437  63.268  37.046  51.323
24382DG     SC258438  62.986  37.055  51.226
24382DG     SC358439  63.010  36.882  51.464
24382DG     SC458440  63.279  36.978  51.467
24383DT     BB158441  63.515  37.437  51.150
24383DT     BB258442  63.203  37.473  50.972
24383DT     BB358443  63.072  37.589  51.083
24383DT     SC158444  63.026  37.391  51.249
24383DT     SC258445  62.825  37.320  51.222
24383DT     SC358446  63.018  37.252  51.473
24384DG     BB158447  63.118  37.782  50.726
24384DG     BB258448  62.769  37.721  50.800
24384DG     BB358449  62.703  37.855  50.931
24384DG     SC158450  62.776  37.688  51.176
24384DG     SC258451  62.584  37.565  51.369
24384DG     SC358452  62.861  37.540  51.467
24384DG     SC458453  62.922  37.702  51.239
24385DA     BB158454  62.447  37.914  50.705
24385DA     BB258455  62.202  37.810  50.957
24385DA     BB358456  62.174  37.965  51.101
24385DA     SC158457  62.396  37.861  51.292
24385DA     SC258458  62.411  37.754  51.517
24385DA     SC358459  62.655  37.836  51.517
24385DA     SC458460  62.544  37.921  51.273
24386DA     BB158461  61.866  37.909  51.007
24386DA     BB258462  61.802  37.810  51.354
24386DA     BB358463  61.795  37.982  51.480
24386DA     SC158464  62.099  37.977  51.547
24386DA     SC258465  62.244  37.929  51.744
24386DA     SC358466  62.424  38.061  51.618
24386DA     SC458467  62.197  38.063  51.454
24387DA     BB158468  61.517  37.827  51.547
24387DA     BB258469  61.645  37.798  51.890
24387DA     BB358470  61.639  37.988  51.987
24387DA     SC158471  61.926  38.070  51.900
24387DA     SC258472  62.149  38.104  52.006
24387DA     SC358473  62.205  38.242  51.798
24387DA     SC458474  61.941  38.153  51.763
24388DT     BB158475  61.526  37.977  52.125
24388DT     BB258476  61.777  37.973  52.384
24388DT     BB358477  61.802  38.164  52.461
24388DT     SC158478  61.934  38.241  52.248
24388DT     SC258479  62.141  38.272  52.300
24388DT     SC358480  61.995  38.373  52.028
24389DT     BB158481  61.695  38.049  52.667
24389DT     BB258482  62.013  38.175  52.780
24389DT     BB358483  61.999  38.378  52.817
24389DT     SC158484  61.998  38.433  52.561
24389DT     SC258485  62.183  38.530  52.507
24389DT     SC358486  61.915  38.518  52.325
24390DA     BB158487  62.191  38.156  53.123
24390DA     BB258488  62.391  38.453  53.046
24390DA     BB358489  62.286  38.630  53.103
24390DA     SC158490  62.149  38.667  52.826
24390DA     SC258491  62.161  38.824  52.633
24390DA     SC358492  61.928  38.736  52.573
24390DA     SC458493  62.003  38.601  52.806
24391DT     BB158494  62.373  38.719  53.238
24391DT     BB258495  62.489  39.001  53.046
24391DT     BB358496  62.360  39.162  53.072
24391DT     SC158497  62.179  39.052  52.917
24391DT     SC258498  62.164  39.164  52.734
24391DT     SC358499  61.951  38.943  52.841
24392DA     BB158500  62.753  39.294  53.142
24392DA     BB258501  62.589  39.537  52.922
24392DA     BB358502  62.442  39.648  53.030
24392DA     SC158503  62.210  39.450  52.966
24392DA     SC258504  62.002  39.449  52.829
24392DA     SC358505  61.928  39.255  52.980
24392DA     SC458506  62.182  39.332  53.071
24393DT     BB158507  62.473  39.843  53.058
24393DT     BB258508  62.223  39.965  52.829
24393DT     BB358509  62.058  40.032  52.934
24393DT     SC158510  61.981  39.786  52.984
24393DT     SC258511  61.802  39.743  52.873
24393DT     SC358512  61.920  39.568  53.119
24394DT     BB158513  62.121  40.292  52.882
24394DT     BB258514  61.783  40.258  52.760
24394DT     BB358515  61.649  40.293  52.914
24394DT     SC158516  61.700  40.059  53.022
24394DT     SC258517  61.528  39.931  53.000
24394DT     SC358518  61.780  39.879  53.197
24395DG     BB158519  61.552  40.573  52.632
24395DG     BB258520  61.259  40.389  52.737
24395DG     BB358521  61.193  40.459  52.910
24395DG     SC158522  61.363  40.270  53.080
24395DG     SC258523  61.261  40.051  53.255
24395DG     SC358524  61.551  40.092  53.297
24395DG     SC458525  61.511  40.315  53.121
24396DT     BB158526  60.985  40.565  52.946
24396DT     BB258527  60.802  40.308  53.120
24396DT     BB358528  60.785  40.356  53.321
24396DT     SC158529  61.036  40.296  53.365
24396DT     SC258530  61.046  40.117  53.485
24396DT     SC358531  61.290  40.323  53.430
24397DA     BB158532  60.382  40.295  53.212
24397DA     BB258533  60.440  40.104  53.519
24397DA     BB358534  60.444  40.234  53.688
24397DA     SC158535  60.750  40.284  53.675
24397DA     SC258536  60.953  40.225  53.808
24397DA     SC358537  61.065  40.422  53.687
24397DA     SC458538  60.802  40.411  53.591
24398DT     BB158539  60.286  40.247  53.863
24398DT     BB258540  60.489  40.080  54.110
24398DT     BB358541  60.545  40.214  54.258
24398DT     SC158542  60.720  40.327  54.099
24398DT     SC258543  60.919  40.282  54.168
24398DT     SC358544  60.841  40.511  53.953
24399DG     BB158545  60.329  39.949  54.490
24399DG     BB258546  60.662  39.994  54.624
24399DG     BB358547  60.667  40.154  54.741
24399DG     SC158548  60.740  40.347  54.515
24399DG     SC258549  60.999  40.494  54.486
24399DG     SC358550  60.801  40.589  54.288
24399DG     SC458551  60.623  40.415  54.430
24400DA     BB158552  60.796  39.968  55.007
24400DA     BB258553  61.106  40.163  54.994
24400DA     BB358554  61.084  40.346  55.101
24400DA     SC158555  60.986  40.507  54.854
24400DA     SC258556  61.072  40.689  54.706
24400DA     SC358557  60.826  40.726  54.643
24400DA     SC458558  60.828  40.515  54.828
24401DT     BB158559  61.197  40.370  55.265
24401DT     BB258560  61.436  40.590  55.108
24401DT     BB358561  61.407  40.784  55.174
24401DT     SC158562  61.192  40.811  55.026
24401DT     SC258563  61.232  40.949  54.867
24401DT     SC358564  60.939  40.846  54.961
24402DA     BB158565  61.807  40.655  55.188
24402DA     BB258566  61.792  40.977  55.012
24402DA     BB358567  61.743  41.134  55.148
24402DA     SC158568  61.436  41.109  55.104
24402DA     SC258569  61.253  41.242  54.998
24402DA     SC358570  61.095  41.102  55.144
24402DA     SC458571  61.354  41.012  55.203
24403DA     BB158572  62.006  41.216  54.973
24403DA     BB258573  61.804  41.501  54.862
24403DA     BB358574  61.767  41.634  55.025
24403DA     SC158575  61.502  41.495  55.109
24403DA     SC258576  61.258  41.546  55.107
24403DA     SC358577  61.238  41.363  55.286
24403DA     SC458578  61.511  41.379  55.221
24404DA     BB158579  61.882  41.813  54.776
24404DA     BB258580  61.568  41.999  54.801
24404DA     BB358581  61.561  42.110  54.984
24404DA     SC158582  61.425  41.881  55.146
24404DA     SC258583  61.203  41.836  55.250
24404DA     SC358584  61.328  41.661  55.391
24404DA     SC458585  61.521  41.779  55.224
24405DG     BB158586  61.530  42.332  54.773
24405DG     BB258587  61.210  42.373  54.936
24405DG     BB358588  61.233  42.467  55.109
24405DG     SC158589  61.275  42.212  55.271
24405DG     SC258590  61.091  42.104  55.480
24405DG     SC358591  61.345  41.953  55.477
24405DG     SC458592  61.423  42.153  55.287
24406DG     BB158593  61.023  42.689  54.992
24406DG     BB258594  60.811  42.597  55.270
24406DG     BB358595  60.873  42.688  55.436
24406DG     SC158596  61.064  42.464  55.517
24406DG     SC258597  61.036  42.287  55.756
24406DG     SC358598  61.298  42.247  55.626
24406DG     SC458599  61.215  42.467  55.463
24407DA     BB158600  60.543  42.791  55.469
24407DA     BB258601  60.524  42.624  55.795
24407DA     BB358602  60.630  42.737  55.942
24407DA     SC158603  60.900  42.589  55.895
24407DA     SC258604  61.046  42.429  56.018
24407DA     SC358605  61.232  42.509  55.861
24407DA     SC458606  61.003  42.653  55.789
24408DC     BB158607  60.523  42.814  56.085
24408DC     BB258608  60.625  42.587  56.346
24408DC     BB358609  60.764  42.680  56.469
24408DC     SC158610  60.952  42.655  56.288
24408DC     SC258611  61.098  42.512  56.355
24408DC     SC358612  61.137  42.721  56.111
24409DC     BB158613  60.574  42.686  56.656
24409DC     BB258614  60.848  42.508  56.809
24409DC     BB358615  60.984  42.643  56.888
24409DC     SC158616  61.075  42.703  56.649
24409DC     SC258617  61.275  42.627  56.627
24409DC     SC358618  61.132  42.845  56.434
24410DC     BB158619  60.900  42.564  57.127
24410DC     BB258620  61.256  42.507  57.130
24410DC     BB358621  61.356  42.682  57.178
24410DC     SC158622  61.311  42.782  56.939
24410DC     SC258623  61.496  42.793  56.830
24410DC     SC358624  61.220  42.941  56.750
24411DA     BB158625  61.502  42.389  57.442
24411DA     BB258626  61.790  42.566  57.300
24411DA     BB358627  61.807  42.761  57.385
24411DA     SC158628  61.632  42.897  57.167
24411DA     SC258629  61.664  43.056  56.978
24411DA     SC358630  61.412  43.098  56.997
24411DA     SC458631  61.474  42.911  57.196
24412DA     BB158632  62.115  42.667  57.462
24412DA     BB258633  62.234  42.941  57.250
24412DA     BB358634  62.215  43.128  57.352
24412DA     SC158635  61.928  43.185  57.245
24412DA     SC258636  61.819  43.344  57.087
24412DA     SC358637  61.601  43.284  57.210
24412DA     SC458638  61.804  43.136  57.335
24413DA     BB158639  62.536  43.158  57.285
24413DA     BB258640  62.449  43.453  57.086
24413DA     BB358641  62.413  43.620  57.214
24413DA     SC158642  62.108  43.564  57.242
24413DA     SC258643  61.893  43.667  57.168
24413DA     SC358644  61.786  43.533  57.358
24413DA     SC458645  62.060  43.474  57.366
24414DG     BB158646  62.648  43.746  57.057
24414DG     BB258647  62.390  43.970  56.941
24414DG     BB358648  62.360  44.115  57.074
24414DG     SC158649  62.146  43.960  57.230
24414DG     SC258650  61.857  44.033  57.249
24414DG     SC358651  61.923  43.812  57.435
24414DG     SC458652  62.192  43.863  57.349
24415DA     BB158653  62.397  44.308  56.795
24415DA     BB258654  62.059  44.441  56.848
24415DA     BB358655  62.058  44.576  57.014
24415DA     SC158656  61.992  44.356  57.224
24415DA     SC258657  61.800  44.292  57.369
24415DA     SC358658  61.974  44.164  57.508
24415DA     SC458659  62.115  44.285  57.298
24416DT     BB158660  62.013  44.730  56.948
24416DT     BB258661  61.679  44.742  57.085
24416DT     BB358662  61.679  44.845  57.264
24416DT     SC158663  61.791  44.644  57.389
24416DT     SC258664  61.648  44.556  57.525
24416DT     SC358665  61.968  44.503  57.525
24417DA     BB158666  61.372  44.958  56.997
24417DA     BB258667  61.229  44.915  57.332
24417DA     BB358668  61.304  45.065  57.464
24417DA     SC158669  61.547  44.894  57.559
24417DA     SC258670  61.622  44.777  57.766
24417DA     SC358671  61.856  44.788  57.663
24417DA     SC458672  61.686  44.912  57.479
24418DA     BB158673  60.976  45.074  57.502
24418DA     BB258674  61.041  45.018  57.859
24418DA     BB358675  61.138  45.188  57.944
24418DA     SC158676  61.426  45.082  57.887
24418DA     SC258677  61.620  44.997  58.018
24418DA     SC358678  61.759  45.054  57.810
24418DA     SC458679  61.495  45.126  57.749
24419DC     BB158680  61.040  45.303  58.079
24419DC     BB258681  61.232  45.215  58.372
24419DC     BB358682  61.365  45.367  58.418
24419DC     SC158683  61.522  45.299  58.219
24419DC     SC258684  61.704  45.216  58.297
24419DC     SC358685  61.655  45.315  57.992
24420DA     BB158686  61.164  45.364  58.795
24420DA     BB258687  61.523  45.373  58.870
24420DA     BB358688  61.599  45.571  58.845
24420DA     SC158689  61.675  45.531  58.547
24420DA     SC258690  61.883  45.512  58.410
24420DA     SC358691  61.733  45.573  58.211
24420DA     SC458692  61.566  45.571  58.436
24421DT     BB158693  61.688  45.776  59.014
24421DT     BB258694  62.039  45.735  58.937
24421DT     BB358695  62.112  45.907  58.848
24421DT     SC158696  61.992  45.850  58.622
24421DT     SC258697  62.139  45.798  58.474
24421DT     SC358698  61.828  45.869  58.416
24422DA     BB158699  62.390  45.917  59.173
24422DA     BB258700  62.591  45.944  58.868
24422DA     BB358701  62.596  46.147  58.800
24422DA     SC158702  62.346  46.119  58.618
24422DA     SC258703  62.294  46.116  58.374
24422DA     SC358704  62.054  46.174  58.445
24422DA     SC458705  62.203  46.156  58.682
24423DT     BB158706  62.787  46.301  58.794
24423DT     BB258707  62.842  46.264  58.439
24423DT     BB358708  62.806  46.444  58.343
24423DT     SC158709  62.546  46.415  58.369
24423DT     SC258710  62.459  46.379  58.176
24423DT     SC358711  62.298  46.460  58.445
24424DT     BB158712  63.076  46.491  58.293
24424DT     BB258713  62.924  46.481  57.966
24424DT     BB358714  62.864  46.671  57.910
24424DT     SC158715  62.659  46.663  58.074
24424DT     SC258716  62.477  46.652  57.961
24424DT     SC358717  62.500  46.724  58.276
24425DG     BB158718  63.117  46.519  57.632
24425DG     BB258719  62.803  46.623  57.485
24425DG     BB358720  62.800  46.821  57.465
24425DG     SC158721  62.679  46.872  57.742
24425DG     SC258722  62.407  46.983  57.797
24425DG     SC358723  62.567  46.966  58.046
24425DG     SC458724  62.777  46.889  57.867
24426DA     BB158725  62.705  46.724  57.152
24426DA     BB258726  62.392  46.911  57.195
24426DA     BB358727  62.429  47.121  57.186
24426DA     SC158728  62.475  47.151  57.492
24426DA     SC258729  62.358  47.253  57.687
24426DA     SC358730  62.587  47.245  57.803
24426DA     SC458731  62.626  47.138  57.547
24427DA     BB158732  62.187  47.058  56.979
24427DA     BB258733  61.989  47.292  57.180
24427DA     BB358734  62.061  47.491  57.154
24427DA     SC158735  62.262  47.475  57.391
24427DA     SC258736  62.287  47.574  57.619
24427DA     SC358737  62.535  47.510  57.598
24427DA     SC458738  62.413  47.429  57.358
24428DC     BB158739  61.934  47.592  57.077
24428DC     BB258740  61.847  47.791  57.365
24428DC     BB358741  61.946  47.973  57.358
24428DC     SC158742  62.173  47.860  57.426
24428DC     SC258743  62.227  47.922  57.625
24428DC     SC358744  62.423  47.777  57.412
24429DA     BB158745  61.537  48.035  57.431
24429DA     BB258746  61.729  48.241  57.666
24429DA     BB358747  61.824  48.402  57.563
24429DA     SC158748  62.086  48.244  57.507
24429DA     SC258749  62.323  48.248  57.582
24429DA     SC358750  62.373  48.117  57.367
24429DA     SC458751  62.096  48.164  57.368
24430DA     BB158752  61.667  48.569  57.800
24430DA     BB258753  61.996  48.695  57.902
24430DA     BB358754  62.068  48.838  57.760
24430DA     SC158755  62.216  48.627  57.586
24430DA     SC258756  62.451  48.564  57.532
24430DA     SC358757  62.352  48.449  57.326
24430DA     SC458758  62.135  48.562  57.463
24431DA     BB158759  62.098  49.022  58.033
24431DA     BB258760  62.456  49.044  57.955
24431DA     BB358761  62.488  49.176  57.790
24431DA     SC158762  62.467  48.951  57.576
24431DA     SC258763  62.619  48.833  57.417
24431DA     SC358764  62.405  48.769  57.291
24431DA     SC458765  62.323  48.923  57.511
24432DC     BB158766  62.586  49.358  57.815
24432DC     BB258767  62.895  49.263  57.655
24432DC     BB358768  62.908  49.351  57.468
24432DC     SC158769  62.732  49.183  57.369
24432DC     SC258770  62.831  49.050  57.231
24432DC     SC358771  62.511  49.092  57.259
24433DT     BB158772  63.099  49.531  57.550
24433DT     BB258773  63.252  49.359  57.272
24433DT     BB358774  63.203  49.454  57.095
24433DT     SC158775  62.960  49.358  57.101
24433DT     SC258776  62.936  49.212  56.944
24433DT     SC358777  62.696  49.349  57.113
24434DA     BB158778  63.622  49.422  57.098
24434DA     BB258779  63.501  49.294  56.776
24434DA     BB358780  63.439  49.455  56.651
24434DA     SC158781  63.144  49.449  56.750
24434DA     SC258782  62.920  49.388  56.659
24434DA     SC358783  62.826  49.534  56.848
24434DA     SC458784  63.105  49.545  56.873
24435DG     BB158785  63.660  49.343  56.465
24435DG     BB258786  63.378  49.271  56.251
24435DG     BB358787  63.324  49.435  56.152
24435DG     SC158788  63.128  49.531  56.366
24435DG     SC258789  62.832  49.549  56.337
24435DG     SC358790  62.921  49.676  56.589
24435DG     SC458791  63.183  49.624  56.485
24436DA     BB158792  63.344  49.228  55.876
24436DA     BB258793  62.990  49.294  55.805
24436DA     BB358794  62.966  49.490  55.726
24436DA     SC158795  62.923  49.624  56.004
24436DA     SC258796  62.736  49.730  56.130
24436DA     SC358797  62.921  49.839  56.271
24436DA     SC458798  63.052  49.683  56.079
24437DG     BB158799  62.849  49.326  55.491
24437DG     BB258800  62.546  49.500  55.583
24437DG     BB358801  62.549  49.685  55.510
24437DG     SC158802  62.685  49.806  55.756
24437DG     SC258803  62.561  50.000  55.947
24437DG     SC358804  62.850  49.969  56.001
24437DG     SC458805  62.845  49.809  55.763
24438DA     BB158806  62.237  49.606  55.381
24438DA     BB258807  62.091  49.885  55.571
24438DA     BB358808  62.142  50.071  55.480
24438DA     SC158809  62.402  50.109  55.647
24438DA     SC258810  62.484  50.258  55.830
24438DA     SC358811  62.718  50.187  55.754
24438DA     SC458812  62.539  50.054  55.585
24439DT     BB158813  61.995  50.178  55.401
24439DT     BB258814  61.982  50.431  55.658
24439DT     BB358815  62.074  50.604  55.592
24439DT     SC158816  62.312  50.499  55.619
24439DT     SC258817  62.415  50.595  55.782
24439DT     SC358818  62.551  50.406  55.558
24440DC     BB158819  61.832  50.727  55.571
24440DC     BB258820  62.022  50.936  55.795
24440DC     BB358821  62.135  51.072  55.687
24440DC     SC158822  62.305  50.886  55.616
24440DC     SC258823  62.494  50.921  55.714
24440DC     SC358824  62.444  50.722  55.463
24441DA     BB158825  61.918  51.290  55.972
24441DA     BB258826  62.269  51.393  55.994
24441DA     BB358827  62.321  51.515  55.828
24441DA     SC158828  62.415  51.277  55.651
24441DA     SC258829  62.629  51.188  55.560
24441DA     SC358830  62.482  51.064  55.390
24441DA     SC458831  62.306  51.210  55.553
24442DT     BB158832  62.367  51.698  55.870
24442DT     BB258833  62.723  51.666  55.823
24442DT     BB358834  62.778  51.747  55.641
24442DT     SC158835  62.679  51.542  55.511
24442DT     SC258836  62.840  51.428  55.425
24442DT     SC358837  62.526  51.402  55.348
24443DG     BB158838  62.990  51.927  55.939
24443DG     BB258839  63.206  51.799  55.679
24443DG     BB358840  63.199  51.919  55.520
24443DG     SC158841  62.966  51.770  55.389
24443DG     SC258842  62.978  51.614  55.135
24443DG     SC358843  62.699  51.644  55.226
24443DG     SC458844  62.816  51.814  55.425
24444DT     BB158845  63.378  52.014  55.459
24444DT     BB258846  63.464  51.828  55.162
24444DT     BB358847  63.408  51.934  54.993
24444DT     SC158848  63.155  51.877  55.032
24444DT     SC258849  63.088  51.742  54.878
24444DT     SC358850  62.897  51.910  55.079
24445DA     BB158851  63.811  51.825  54.946
24445DA     BB258852  63.632  51.737  54.638
24445DA     BB358853  63.583  51.913  54.528
24445DA     SC158854  63.306  51.950  54.664
24445DA     SC258855  63.065  51.932  54.600
24445DA     SC358856  63.021  52.079  54.806
24445DA     SC458857  63.299  52.044  54.794
24446DA     BB158858  63.740  51.751  54.287
24446DA     BB258859  63.424  51.762  54.101
24446DA     BB358860  63.391  51.958  54.023
24446DA     SC158861  63.233  52.057  54.272
24446DA     SC258862  62.999  52.119  54.329
24446DA     SC358863  63.102  52.244  54.528
24446DA     SC458864  63.317  52.130  54.388
24447DA     BB158865  63.363  51.796  53.737
24447DA     BB258866  63.018  51.920  53.723
24447DA     BB358867  63.015  52.125  53.664
24447DA     SC158868  63.029  52.233  53.955
24447DA     SC258869  62.880  52.353  54.115
24447DA     SC358870  63.096  52.418  54.237
24447DA     SC458871  63.175  52.264  54.016
24448DT     BB158872  62.932  52.176  53.484
24448DT     BB258873  62.628  52.315  53.619
24448DT     BB358874  62.633  52.521  53.607
24448DT     SC158875  62.802  52.537  53.807
24448DT     SC258876  62.703  52.622  53.978
24448DT     SC358877  63.023  52.586  53.942
24449DT     BB158878  62.447  52.506  53.415
24449DT     BB258879  62.298  52.709  53.673
24449DT     BB358880  62.355  52.906  53.649
24449DT     SC158881  62.596  52.855  53.741
24449DT     SC258882  62.620  52.948  53.934
24449DT     SC358883  62.858  52.830  53.749
24450DA     BB158884  61.940  52.866  53.699
24450DA     BB258885  62.063  53.122  53.932
24450DA     BB358886  62.124  53.296  53.825
24450DA     SC158887  62.419  53.202  53.792
24450DA     SC258888  62.643  53.266  53.879
24450DA     SC358889  62.736  53.141  53.675
24450DA     SC458890  62.456  53.121  53.658
24451DT     BB158891  62.018  53.440  53.868
24451DT     BB258892  62.261  53.617  54.068
24451DT     BB358893  62.350  53.766  53.955
24451DT     SC158894  62.494  53.591  53.823
24451DT     SC258895  62.701  53.611  53.879
24451DT     SC358896  62.589  53.448  53.622
24452DG     BB158897  62.186  53.925  54.292
24452DG     BB258898  62.531  54.024  54.251
24452DG     BB358899  62.546  54.163  54.110
24452DG     SC158900  62.584  53.962  53.882
24452DG     SC258901  62.832  53.926  53.720
24452DG     SC358902  62.608  53.769  53.607
24452DG     SC458903  62.455  53.903  53.808
24453DT     BB158904  62.618  54.362  54.159
24453DT     BB258905  62.948  54.359  54.012
24453DT     BB358906  62.947  54.463  53.833
24453DT     SC158907  62.823  54.267  53.711
24453DT     SC258908  62.957  54.174  53.571
24453DT     SC358909  62.636  54.134  53.581
24454DA     BB158910  63.259  54.627  54.061
24454DA     BB258911  63.390  54.556  53.726
24454DA     BB358912  63.315  54.698  53.585
24454DA     SC158913  63.065  54.528  53.511
24454DA     SC258914  62.982  54.399  53.314
24454DA     SC358915  62.751  54.423  53.422
24454DA     SC458916  62.930  54.555  53.593
24455DT     BB158917  63.444  54.835  53.493
24455DT     BB258918  63.450  54.676  53.169
24455DT     BB358919  63.338  54.787  53.034
24455DT     SC158920  63.113  54.704  53.140
24455DT     SC258921  63.013  54.572  53.002
24455DT     SC358922  62.880  54.709  53.264
24456DA     BB158923  63.714  54.726  52.860
24456DA     BB258924  63.459  54.633  52.613
24456DA     BB358925  63.366  54.807  52.533
24456DA     SC158926  63.140  54.814  52.746
24456DA     SC258927  62.894  54.776  52.755
24456DA     SC358928  62.901  54.912  52.972
24456DA     SC458929  63.165  54.903  52.878
24457DA     BB158930  63.459  54.651  52.262
24457DA     BB258931  63.104  54.638  52.174
24457DA     BB358932  63.035  54.831  52.114
24457DA     SC158933  62.949  54.917  52.400
24457DA     SC258934  62.737  54.961  52.524
24457DA     SC358935  62.883  55.093  52.687
24457DA     SC458936  63.057  54.996  52.489
24458DT     BB158937  62.982  54.835  51.935
24458DT     BB258938  62.626  54.851  51.993
24458DT     BB358939  62.560  55.046  51.973
24458DT     SC158940  62.664  55.114  52.204
24458DT     SC258941  62.506  55.153  52.344
24458DT     SC358942  62.818  55.235  52.381
24459DC     BB158943  62.443  54.960  51.751
24459DC     BB258944  62.177  55.104  51.949
24459DC     BB358945  62.172  55.309  51.922
24459DC     SC158946  62.385  55.342  52.072
24459DC     SC258947  62.329  55.438  52.256
24459DC     SC358948  62.631  55.405  52.143
24460DA     BB158949  61.785  55.155  51.864
24460DA     BB258950  61.760  55.447  52.084
24460DA     BB358951  61.798  55.626  51.974
24460DA     SC158952  62.104  55.624  52.031
24460DA     SC258953  62.268  55.757  52.164
24460DA     SC358954  62.445  55.655  52.010
24460DA     SC458955  62.199  55.551  51.924
24461DT     BB158956  61.646  55.776  51.931
24461DT     BB258957  61.764  56.030  52.158
24461DT     BB358958  61.849  56.186  52.051
24461DT     SC158959  62.063  56.044  51.999
24461DT     SC258960  62.230  56.125  52.108
24461DT     SC358961  62.247  55.914  51.863
24462DG     BB158962  61.543  56.385  52.242
24462DG     BB258963  61.857  56.557  52.294
24462DG     BB358964  61.897  56.675  52.139
24462DG     SC158965  62.049  56.459  51.983
24462DG     SC258966  62.341  56.462  51.920
24462DG     SC358967  62.204  56.242  51.777
24462DG     SC458968  61.967  56.362  51.886
24463DA     BB158969  61.937  56.967  52.337
24463DA     BB258970  62.285  57.001  52.229
24463DA     BB358971  62.295  57.100  52.040
24463DA     SC158972  62.282  56.837  51.874
24463DA     SC258973  62.435  56.702  51.730
24463DA     SC358974  62.220  56.599  51.635
24463DA     SC458975  62.138  56.786  51.827
24464DT     BB158976  62.382  57.304  52.010
24464DT     BB258977  62.690  57.191  51.860
24464DT     BB358978  62.694  57.243  51.660
24464DT     SC158979  62.523  57.054  51.598
24464DT     SC258980  62.623  56.901  51.485
24464DT     SC358981  62.302  56.937  51.514
24465DC     BB158982  62.884  57.436  51.708
24465DC     BB258983  63.038  57.217  51.467
24465DC     BB358984  62.992  57.280  51.275
24465DC     SC158985  62.747  57.188  51.295
24465DC     SC258986  62.724  57.018  51.165
24465DC     SC358987  62.483  57.184  51.305
24466DT     BB158988  63.247  57.352  51.257
24466DT     BB258989  63.197  57.118  50.987
24466DT     BB358990  63.120  57.217  50.822
24466DT     SC158991  62.883  57.236  50.933
24466DT     SC258992  62.745  57.108  50.828
24466DT     SC358993  62.666  57.343  51.038
24467DA     BB158994  63.446  56.974  50.720
24467DA     BB258995  63.176  56.911  50.480
24467DA     BB358996  63.149  57.080  50.353
24467DA     SC158997  62.939  57.217  50.537
24467DA     SC258998  62.694  57.266  50.532
24467DA     SC358999  62.748  57.443  50.710
24467DA     SC459000  62.992  57.322  50.646
24468DA     BB159001  63.179  56.835  50.138
24468DA     BB259002  62.849  56.933  50.011
24468DA     BB359003  62.862  57.118  49.905
24468DA     SC159004  62.806  57.294  50.156
24468DA     SC259005  62.623  57.440  50.241
24468DA     SC359006  62.803  57.544  50.391
24468DA     SC459007  62.933  57.346  50.240
24469DG     BB159008  62.757  56.957  49.657
24469DG     BB259009  62.479  57.188  49.676
24469DG     BB359010  62.526  57.359  49.586
24469DG     SC159011  62.642  57.489  49.838
24469DG     SC259012  62.528  57.724  49.982
24469DG     SC359013  62.795  57.654  50.089
24469DG     SC459014  62.797  57.467  49.872
24470DT     BB159015  62.427  57.451  49.385
24470DT     BB259016  62.233  57.724  49.519
24470DT     BB359017  62.324  57.905  49.473
24470DT     SC159018  62.511  57.867  49.653
24470DT     SC259019  62.484  58.006  49.814
24470DT     SC359020  62.749  57.829  49.758
24471DA     BB159021  61.942  57.979  49.304
24471DA     BB259022  62.024  58.274  49.506
24471DA     BB359023  62.158  58.402  49.399
24471DA     SC159024  62.415  58.268  49.512
24471DA     SC259025  62.600  58.327  49.669
24471DA     SC359026  62.730  58.139  49.553
24471DA     SC459027  62.480  58.149  49.427
24472DT     BB159028  62.115  58.621  49.306
24472DT     BB259029  62.297  58.805  49.558
24472DT     BB359030  62.464  58.894  49.474
24472DT     SC159031  62.590  58.664  49.462
24472DT     SC259032  62.752  58.664  49.604
24472DT     SC359033  62.710  58.451  49.362
24473DT     BB159034  62.372  59.172  49.460
24473DT     BB259035  62.676  59.195  49.653
24473DT     BB359036  62.835  59.241  49.529
24473DT     SC159037  62.841  58.997  49.433
24473DT     SC259038  63.019  58.897  49.501
24473DT     SC359039  62.826  58.798  49.260
24474DG     BB159040  62.835  59.561  49.786
24474DG     BB259041  63.160  59.402  49.780
24474DG     BB359042  63.266  59.470  49.626
24474DG     SC159043  63.166  59.256  49.431
24474DG     SC259044  63.330  59.040  49.308
24474DG     SC359045  63.062  59.050  49.185
24474DG     SC459046  63.032  59.284  49.347
24475DA     BB159047  63.520  59.545  49.848
24475DA     BB259048  63.742  59.308  49.677
24475DA     BB359049  63.824  59.397  49.502
24475DA     SC159050  63.596  59.299  49.315
24475DA     SC259051  63.566  59.135  49.130
24475DA     SC359052  63.358  59.272  49.069
24475DA     SC459053  63.471  59.398  49.292
24476DA     BB159054  64.086  59.292  49.660
24476DA     BB259055  64.144  59.073  49.371
24476DA     BB359056  64.219  59.186  49.207
24476DA     SC159057  63.938  59.247  49.089
24476DA     SC259058  63.804  59.181  48.889
24476DA     SC359059  63.667  59.393  48.937
24476DA     SC459060  63.866  59.383  49.134
24477DA     BB159061  64.410  58.930  49.257
24477DA     BB259062  64.320  58.833  48.915
24477DA     BB359063  64.407  58.967  48.774
24477DA     SC159064  64.163  59.160  48.770
24477DA     SC259065  63.982  59.226  48.612
24477DA     SC359066  63.959  59.436  48.757
24477DA     SC459067  64.165  59.284  48.872
24478DT     BB159068  64.502  58.862  48.691
24478DT     BB259069  64.311  58.859  48.385
24478DT     BB359070  64.379  59.007  48.257
24478DT     SC159071  64.264  59.194  48.400
24478DT     SC259072  64.100  59.278  48.289
24478DT     SC359073  64.236  59.407  48.553
24479DA     BB159074  64.304  58.625  48.087
24479DA     BB259075  64.170  58.885  47.866
24479DA     BB359076  64.328  59.005  47.787
24479DA     SC159077  64.319  59.213  48.018
24479DA     SC259078  64.253  59.451  48.049
24479DA     SC359079  64.400  59.444  48.259
24479DA     SC459080  64.416  59.189  48.143
24480DT     BB159081  64.318  58.977  47.621
24480DT     BB259082  64.218  59.307  47.515
24480DT     BB359083  64.385  59.423  47.478
24480DT     SC159084  64.431  59.452  47.735
24480DT     SC259085  64.393  59.656  47.791
24480DT     SC359086  64.552  59.436  47.968
24481DG     BB159087  64.168  59.420  47.131
24481DG     BB259088  64.274  59.755  47.217
24481DG     BB359089  64.468  59.778  47.175
24481DG     SC159090  64.563  59.685  47.451
24481DG     SC259091  64.699  59.854  47.656
24481DG     SC359092  64.703  59.568  47.735
24481DG     SC459093  64.589  59.528  47.475
24482DA     BB159094  64.422  60.068  46.970
24482DA     BB259095  64.644  60.266  47.184
24482DA     BB359096  64.848  60.222  47.139
24482DA     SC159097  64.871  59.993  47.348
24482DA     SC259098  64.986  59.951  47.565
24482DA     SC359099  64.950  59.703  47.514
24482DA     SC459100  64.840  59.843  47.297
24483DT     BB159101  65.014  60.361  47.034
24483DT     BB259102  65.204  60.432  47.332
24483DT     BB359103  65.390  60.340  47.320
24483DT     SC159104  65.285  60.104  47.368
24483DT     SC259105  65.347  60.037  47.563
24483DT     SC359106  65.213  59.853  47.332
24484DA     BB159107  65.503  60.740  47.389
24484DA     BB259108  65.684  60.535  47.632
24484DA     BB359109  65.851  60.439  47.539
24484DA     SC159110  65.691  60.184  47.461
24484DA     SC259111  65.683  59.944  47.527
24484DA     SC359112  65.569  59.906  47.300
24484DA     SC459113  65.623  60.181  47.315
24485DT     BB159114  66.054  60.487  47.591
24485DT     BB259115  66.115  60.191  47.787
24485DT     BB359116  66.244  60.064  47.685
24485DT     SC159117  66.053  59.991  47.520
24485DT     SC259118  66.000  59.786  47.558
24485DT     SC359119  65.919  59.957  47.295
24486DC     BB159120  66.441  60.124  47.861
24486DC     BB259121  66.403  59.766  47.884
24486DC     BB359122  66.520  59.673  47.740
24486DC     SC159123  66.353  59.741  47.550
24486DC     SC259124  66.253  59.565  47.476
24486DC     SC359125  66.258  59.855  47.331
24487DT     BB159126  66.681  59.590  47.938
24487DT     BB259127  66.574  59.288  47.772
24487DT     BB359128  66.696  59.250  47.609
24487DT     SC159129  66.582  59.441  47.469
24487DT     SC259130  66.467  59.354  47.310
24487DT     SC359131  66.553  59.666  47.334
24488DA     BB159132  66.680  58.900  47.841
24488DA     BB259133  66.616  58.808  47.492
24488DA     BB359134  66.796  58.820  47.378
24488DA     SC159135  66.752  59.116  47.294
24488DA     SC259136  66.698  59.244  47.087
24488DA     SC359137  66.794  59.447  47.211
24488DA     SC459138  66.817  59.230  47.388
24489DG     BB159139  66.755  58.514  47.324
24489DG     BB259140  66.718  58.623  46.982
24489DG     BB359141  66.896  58.645  46.897
24489DG     SC159142  66.927  58.938  46.980
24489DG     SC259143  66.932  59.173  46.795
24489DG     SC359144  67.002  59.254  47.071
24489DG     SC459145  66.992  58.972  47.122
24490DA     BB159146  66.797  58.436  46.634
24490DA     BB259147  66.848  58.709  46.395
24490DA     BB359148  67.056  58.731  46.350
24490DA     SC159149  67.109  58.936  46.578
24490DA     SC259150  67.163  59.178  46.599
24490DA     SC359151  67.247  59.119  46.834
24490DA     SC459152  67.157  58.878  46.720
24491DA     BB159153  66.959  58.697  46.037
24491DA     BB259154  67.084  59.037  45.980
24491DA     BB359155  67.296  59.036  45.959
24491DA     SC159156  67.351  59.079  46.262
24491DA     SC259157  67.440  59.260  46.409
24491DA     SC359158  67.482  59.072  46.579
24491DA     SC459159  67.371  58.949  46.353
24492DA     BB159160  67.214  59.192  45.684
24492DA     BB259161  67.401  59.478  45.815
24492DA     BB359162  67.611  59.444  45.797
24492DA     SC159163  67.639  59.313  46.078
24492DA     SC259164  67.741  59.369  46.298
24492DA     SC359165  67.730  59.117  46.344
24492DA     SC459166  67.625  59.153  46.087
24493DT     BB159167  67.702  59.564  45.676
24493DT     BB259168  67.865  59.764  45.929
24493DT     BB359169  68.064  59.709  45.945
24493DT     SC159170  68.001  59.488  46.071
24493DT     SC259171  68.065  59.502  46.276
24493DT     SC359172  67.976  59.231  46.124
24494DG     BB159173  68.037  60.108  45.866
24494DG     BB259174  68.243  60.042  46.156
24494DG     BB359175  68.421  59.974  46.098
24494DG     SC159176  68.337  59.680  46.100
24494DG     SC259177  68.439  59.470  46.287
24494DG     SC359178  68.274  59.350  46.072
24494DG     SC459179  68.273  59.617  45.968
24495DT     BB159180  68.595  60.088  46.148
24495DT     BB259181  68.743  59.890  46.410
24495DT     BB359182  68.900  59.779  46.334
24495DT     SC159183  68.736  59.612  46.215
24495DT     SC259184  68.745  59.421  46.313
24495DT     SC359185  68.613  59.480  46.023
24496DT     BB159186  69.078  59.940  46.463
24496DT     BB259187  69.157  59.608  46.579
24496DT     BB359188  69.289  59.516  46.449
24496DT     SC159189  69.100  59.477  46.272
24496DT     SC259190  69.058  59.266  46.259
24496DT     SC359191  68.964  59.492  46.046
24497DT     BB159192  69.496  59.542  46.628
24497DT     BB259193  69.482  59.189  46.558
24497DT     BB359194  69.598  59.145  46.392
24497DT     SC159195  69.418  59.247  46.231
24497DT     SC259196  69.326  59.089  46.117
24497DT     SC359197  69.307  59.406  46.052
24498DG     BB159198  69.757  58.919  46.693
24498DG     BB259199  69.678  58.715  46.406
24498DG     BB359200  69.820  58.733  46.268
24498DG     SC159201  69.689  58.971  46.127
24498DG     SC259202  69.576  58.969  45.851
24498DG     SC359203  69.584  59.244  45.960
24498DG     SC459204  69.723  59.119  46.177
24499DA     BB159205  69.833  58.387  46.270
24499DA     BB259206  69.743  58.382  45.914
24499DA     BB359207  69.911  58.434  45.794
24499DA     SC159208  69.849  58.739  45.794
24499DA     SC259209  69.772  58.911  45.631
24499DA     SC359210  69.871  59.081  45.795
24499DA     SC459211  69.917  58.829  45.908
24500DT     BB159212  69.973  58.293  45.680
24500DT     BB259213  69.845  58.428  45.371
24500DT     BB359214  69.998  58.516  45.264
24500DT     SC159215  70.003  58.723  45.425
24500DT     SC259216  69.930  58.896  45.320
24500DT     SC359217  70.091  58.898  45.601
24501DG     BB159218  69.812  58.232  45.038
24501DG     BB259219  69.830  58.550  44.866
24501DG     BB359220  70.015  58.580  44.798
24501DG     SC159221  70.112  58.720  45.053
24501DG     SC259222  70.191  59.008  45.075
24501DG     SC359223  70.257  58.860  45.323
24501DG     SC459224  70.173  58.632  45.172
24502DG     BB159225  69.871  58.610  44.508
24502DG     BB259226  70.003  58.946  44.506
24502DG     BB359227  70.195  58.943  44.456
24502DG     SC159228  70.295  58.914  44.743
24502DG     SC259229  70.451  59.117  44.897
24502DG     SC359230  70.439  58.861  45.044
24502DG     SC459231  70.312  58.767  44.805
24503DC     BB159232  70.261  59.043  44.275
24503DC     BB259233  70.431  59.333  44.408
24503DC     BB359234  70.636  59.303  44.402
24503DC     SC159235  70.625  59.139  44.607
24503DC     SC259236  70.717  59.231  44.778
24503DC     SC359237  70.644  58.917  44.748
24504DC     BB159238  70.666  59.478  44.194
24504DC     BB259239  70.887  59.606  44.449
24504DC     BB359240  71.072  59.515  44.433
24504DC     SC159241  70.980  59.292  44.536
24504DC     SC259242  71.065  59.264  44.732
24504DC     SC359243  70.911  59.038  44.557
24505DA     BB159244  71.158  59.927  44.426
24505DA     BB259245  71.379  59.772  44.674
24505DA     BB359246  71.536  59.665  44.578
24505DA     SC159247  71.380  59.397  44.567
24505DA     SC259248  71.392  59.172  44.675
24505DA     SC359249  71.251  59.092  44.476
24505DA     SC459250  71.294  59.366  44.435
24506DA     BB159251  71.736  59.853  44.762
24506DA     BB259252  71.852  59.543  44.921
24506DA     BB359253  71.992  59.443  44.795
24506DA     SC159254  71.775  59.273  44.649
24506DA     SC259255  71.705  59.034  44.638
24506DA     SC359256  71.592  59.099  44.417
24506DA     SC459257  71.713  59.333  44.513
24507DA     BB159258  72.171  59.460  45.067
24507DA     BB259259  72.166  59.094  45.069
24507DA     BB359260  72.301  59.017  44.924
24507DA     SC159261  72.089  59.006  44.696
24507DA     SC259262  71.965  58.833  44.567
24507DA     SC359263  71.926  59.018  44.394
24507DA     SC459264  72.076  59.135  44.600
24508DT     BB159265  72.444  58.919  44.999
24508DT     BB259266  72.322  58.592  44.910
24508DT     BB359267  72.424  58.521  44.745
24508DT     SC159268  72.292  58.682  44.585
24508DT     SC259269  72.160  58.567  44.460
24508DT     SC359270  72.244  58.876  44.413
24509DT     BB159271  72.516  58.356  44.923
24509DT     BB259272  72.359  58.151  44.670
24509DT     BB359273  72.485  58.129  44.508
24509DT     SC159274  72.437  58.374  44.428
24509DT     SC259275  72.323  58.369  44.246
24509DT     SC359276  72.478  58.627  44.365
24510DA     BB159277  72.307  57.771  44.644
24510DA     BB259278  72.276  57.790  44.279
24510DA     BB359279  72.468  57.776  44.188
24510DA     SC159280  72.517  58.083  44.188
24510DA     SC259281  72.531  58.268  44.020
24510DA     SC359282  72.656  58.397  44.203
24510DA     SC459283  72.594  58.146  44.314
24511DT     BB159284  72.474  57.628  44.090
24511DT     BB259285  72.471  57.782  43.764
24511DT     BB359286  72.665  57.803  43.695
24511DT     SC159287  72.710  58.004  43.858
24511DT     SC259288  72.727  58.186  43.745
24511DT     SC359289  72.815  58.146  44.054
24512DC     BB159290  72.610  57.610  43.521
24512DC     BB259291  72.726  57.885  43.318
24512DC     BB359292  72.933  57.886  43.312
24512DC     SC159293  72.947  57.978  43.557
24512DC     SC259294  73.020  58.181  43.553
24512DC     SC359295  73.003  57.991  43.815
24513DG     BB159296  72.806  57.861  42.925
24513DG     BB259297  73.047  58.127  42.968
24513DG     BB359298  73.230  58.051  42.979
24513DG     SC159299  73.224  58.018  43.283
24513DG     SC259300  73.391  58.168  43.480
24513DG     SC359301  73.244  57.949  43.613
24513DG     SC459302  73.167  57.882  43.345
24514DA     BB159303  73.329  58.271  42.725
24514DA     BB259304  73.579  58.420  42.947
24514DA     BB359305  73.749  58.291  42.964
24514DA     SC159306  73.639  58.138  43.211
24514DA     SC259307  73.691  58.118  43.455
24514DA     SC359308  73.559  57.898  43.444
24514DA     SC459309  73.554  58.004  43.184
24515DA     BB159310  73.915  58.561  42.871
24515DA     BB259311  74.093  58.541  43.191
24515DA     BB359312  74.240  58.386  43.185
24515DA     SC159313  74.047  58.166  43.292
24515DA     SC259314  74.018  58.031  43.500
24515DA     SC359315  73.881  57.872  43.352
24515DA     SC459316  73.966  58.079  43.184
24516DA     BB159317  74.444  58.628  43.278
24516DA     BB259318  74.510  58.433  43.581
24516DA     BB359319  74.639  58.269  43.537
24516DA     SC159320  74.408  58.071  43.474
24516DA     SC259321  74.306  57.868  43.577
24516DA     SC359322  74.212  57.822  43.342
24516DA     SC459323  74.360  58.059  43.321
24517DA     BB159324  74.827  58.394  43.781
24517DA     BB259325  74.777  58.077  43.959
24517DA     BB359326  74.902  57.925  43.876
24517DA     SC159327  74.690  57.829  43.670
24517DA     SC259328  74.546  57.628  43.634
24517DA     SC359329  74.529  57.710  43.391
24517DA     SC459330  74.693  57.895  43.524
24518DT     BB159331  75.067  57.838  43.984
24518DT     BB259332  74.907  57.522  44.055
24518DT     BB359333  74.992  57.373  43.939
24518DT     SC159334  74.868  57.459  43.724
24518DT     SC259335  74.717  57.316  43.667
24518DT     SC359336  74.829  57.558  43.483
24519DT     BB159337  75.132  57.256  44.151
24519DT     BB259338  74.928  56.988  44.021
24519DT     BB359339  75.031  56.886  43.873
24519DT     SC159340  74.993  57.082  43.702
24519DT     SC259341  74.856  57.017  43.549
24519DT     SC359342  75.044  57.280  43.536
24520DG     BB159343  74.956  56.597  44.152
24520DG     BB259344  74.833  56.499  43.827
24520DG     BB359345  74.983  56.427  43.717
24520DG     SC159346  75.058  56.699  43.598
24520DG     SC259347  75.030  56.779  43.312
24520DG     SC359348  75.181  56.983  43.464
24520DG     SC459349  75.163  56.791  43.676
24521DA     BB159350  74.790  56.145  43.661
24521DA     BB259351  74.788  56.215  43.301
24521DA     BB359352  74.971  56.152  43.212
24521DA     SC159353  75.113  56.426  43.252
24521DA     SC259354  75.193  56.615  43.111
24521DA     SC359355  75.342  56.675  43.311
24521DA     SC459356  75.199  56.446  43.387
24522DC     BB159357  74.950  56.011  43.086
24522DC     BB259358  74.994  56.212  42.790
24522DC     BB359359  75.185  56.185  42.714
24522DC     SC159360  75.290  56.331  42.905
24522DC     SC259361  75.363  56.516  42.822
24522DC     SC359362  75.435  56.398  43.115
24523DT     BB159363  75.059  56.062  42.520
24523DT     BB259364  75.246  56.326  42.360
24523DT     BB359365  75.442  56.266  42.332
24523DT     SC159366  75.497  56.296  42.586
24523DT     SC259367  75.629  56.464  42.612
24523DT     SC359368  75.565  56.237  42.834
24524DT     BB159369  75.380  56.258  42.074
24524DT     BB259370  75.665  56.479  42.094
24524DT     BB359371  75.840  56.369  42.098
24524DT     SC159372  75.799  56.297  42.347
24524DT     SC259373  75.944  56.394  42.473
24524DT     SC359374  75.754  56.144  42.557
24525DA     BB159375  75.884  56.656  41.793
24525DA     BB259376  76.190  56.660  41.996
24525DA     BB359377  76.306  56.485  41.958
24525DA     SC159378  76.172  56.317  42.184
24525DA     SC259379  76.236  56.223  42.406
24525DA     SC359380  76.036  56.065  42.373
24525DA     SC459381  76.045  56.227  42.144
24526DA     BB159382  76.562  56.687  41.882
24526DA     BB259383  76.749  56.532  42.157
24526DA     BB359384  76.828  56.343  42.096
24526DA     SC159385  76.579  56.182  42.191
24526DA     SC259386  76.523  56.018  42.370
24526DA     SC359387  76.324  55.954  42.221
24526DA     SC459388  76.463  56.155  42.083
24527DT     BB159389  77.054  56.286  42.062
24527DT     BB259390  77.091  56.092  42.363
24527DT     BB359391  77.116  55.892  42.316
24527DT     SC159392  76.862  55.867  42.257
24527DT     SC259393  76.766  55.744  42.405
24527DT     SC359394  76.643  55.824  42.116
24528DT     BB159395  77.401  55.869  42.368
24528DT     BB259396  77.253  55.621  42.584
24528DT     BB359397  77.251  55.436  42.490
24528DT     SC159398  77.053  55.509  42.335
24528DT     SC259399  76.875  55.401  42.389
24528DT     SC359400  76.918  55.570  42.116
24529DA     BB159401  77.436  55.378  42.859
24529DA     BB259402  77.165  55.133  42.829
24529DA     BB359403  77.222  54.975  42.698
24529DA     SC159404  77.108  55.114  42.443
24529DA     SC259405  76.919  55.081  42.284
24529DA     SC359406  77.056  55.228  42.124
24529DA     SC459407  77.209  55.206  42.358
24530DG     BB159408  77.160  54.838  42.961
24530DG     BB259409  76.888  54.703  42.765
24530DG     BB359410  76.955  54.556  42.649
24530DG     SC159411  77.023  54.740  42.414
24530DG     SC259412  76.887  54.742  42.148
24530DG     SC359413  77.128  54.914  42.145
24530DG     SC459414  77.168  54.807  42.407
24531DC     BB159415  76.854  54.405  42.694
24531DC     BB259416  76.637  54.370  42.408
24531DC     BB359417  76.723  54.243  42.269
24531DC     SC159418  76.894  54.427  42.195
24531DC     SC259419  76.847  54.493  41.995
24531DC     SC359420  77.124  54.550  42.153
24532DA     BB159421  76.313  54.178  42.356
24532DA     BB259422  76.362  54.175  41.993
24532DA     BB359423  76.480  54.007  41.935
24532DA     SC159424  76.751  54.159  41.958
24532DA     SC259425  76.928  54.244  41.805
24532DA     SC359426  77.079  54.245  42.013
24532DA     SC459427  76.829  54.151  42.098
24533DA     BB159428  76.211  54.016  41.746
24533DA     BB259429  76.446  54.028  41.465
24533DA     BB359430  76.555  53.845  41.451
24533DA     SC159431  76.788  53.941  41.634
24533DA     SC259432  77.028  54.001  41.609
24533DA     SC359433  77.043  53.960  41.862
24533DA     SC459434  76.777  53.909  41.791
24534DT     BB159435  76.515  53.756  41.296
24534DT     BB259436  76.830  53.808  41.128
24534DT     BB359437  76.951  53.642  41.152
24534DT     SC159438  77.003  53.705  41.401
24534DT     SC259439  77.209  53.766  41.418
24534DT     SC359440  77.012  53.690  41.664
24535DT     BB159441  76.908  53.588  40.894
24535DT     BB259442  77.268  53.600  40.926
24535DT     BB359443  77.339  53.417  40.992
24535DT     SC159444  77.253  53.462  41.236
24535DT     SC259445  77.421  53.491  41.367
24535DT     SC359446  77.116  53.435  41.459
24536DA     BB159447  77.561  53.515  40.649
24536DA     BB259448  77.797  53.407  40.908
24536DA     BB359449  77.784  53.195  40.936
24536DA     SC159450  77.567  53.214  41.159
24536DA     SC259451  77.550  53.175  41.404
24536DA     SC359452  77.298  53.158  41.364
24536DA     SC459453  77.413  53.206  41.113
24537DT     BB159454  77.941  53.075  40.884
24537DT     BB259455  78.052  52.995  41.218
24537DT     BB359456  77.996  52.802  41.267
24537DT     SC159457  77.746  52.874  41.300
24537DT     SC259458  77.695  52.863  41.508
24537DT     SC359459  77.485  52.890  41.263
24538DT     BB159460  78.254  52.704  41.243
24538DT     BB259461  78.154  52.607  41.576
24538DT     BB359462  78.060  52.423  41.571
24538DT     SC159463  77.842  52.529  41.470
24538DT     SC259464  77.685  52.523  41.617
24538DT     SC359465  77.647  52.580  41.300
24539DG     BB159466  78.380  52.347  41.818
24539DG     BB259467  78.071  52.240  41.973
24539DG     BB359468  78.018  52.062  41.903
24539DG     SC159469  77.854  52.176  41.671
24539DG     SC259470  77.557  52.155  41.639
24539DG     SC359471  77.682  52.265  41.394
24539DG     SC459472  77.926  52.206  41.531
24540DT     BB159473  78.002  51.847  42.025
24540DT     BB259474  77.644  51.817  42.057
24540DT     BB359475  77.574  51.667  41.933
24540DT     SC159476  77.605  51.816  41.720
24540DT     SC259477  77.412  51.869  41.642
24540DT     SC359478  77.695  51.901  41.487
24541DT     BB159479  77.525  51.482  42.140
24541DT     BB259480  77.205  51.519  41.976
24541DT     BB359481  77.187  51.379  41.825
24541DT     SC159482  77.352  51.512  41.670
24541DT     SC259483  77.242  51.596  41.505
24541DT     SC359484  77.565  51.570  41.526
24542DA     BB159485  76.847  51.348  42.068
24542DA     BB259486  76.736  51.382  41.720
24542DA     BB359487  76.771  51.201  41.613
24542DA     SC159488  77.055  51.284  41.517
24542DA     SC259489  77.167  51.346  41.303
24542DA     SC359490  77.385  51.286  41.424
24542DA     SC459491  77.180  51.240  41.609
24543DC     BB159492  76.613  51.123  41.556
24543DC     BB259493  76.644  51.215  41.209
24543DC     BB359494  76.714  51.054  41.099
24543DC     SC159495  76.957  51.085  41.194
24543DC     SC259496  77.086  51.154  41.036
24543DC     SC359497  77.181  51.035  41.322
24544DT     BB159498  76.473  51.066  41.003
24544DT     BB259499  76.694  51.104  40.720
24544DT     BB359500  76.767  50.919  40.662
24544DT     SC159501  76.930  50.911  40.868
24544DT     SC259502  77.133  50.931  40.799
24544DT     SC359503  77.041  50.831  41.094
24545DG     BB159504  76.588  51.118  40.354
24545DG     BB259505  76.920  51.004  40.268
24545DG     BB359506  76.919  50.806  40.242
24545DG     SC159507  76.981  50.743  40.535
24545DG     SC259508  77.232  50.619  40.639
24545DG     SC359509  77.028  50.638  40.852
24545DG     SC459510  76.860  50.728  40.639
24546DC     BB159511  76.972  50.736  40.054
24546DC     BB259512  77.298  50.594  40.112
24546DC     BB359513  77.282  50.390  40.139
24546DC     SC159514  77.185  50.421  40.381
24546DC     SC259515  77.329  50.355  40.525
24546DC     SC359516  77.015  50.413  40.583
24547DA     BB159517  77.571  50.435  39.836
24547DA     BB259518  77.706  50.200  40.082
24547DA     BB359519  77.607  50.012  40.066
24547DA     SC159520  77.385  50.082  40.273
24547DA     SC259521  77.320  50.015  40.504
24547DA     SC359522  77.089  50.111  40.444
24547DA     SC459523  77.249  50.146  40.216
24548DA     BB159524  77.908  49.868  40.024
24548DA     BB259525  77.846  49.682  40.334
24548DA     BB359526  77.719  49.515  40.296
24548DA     SC159527  77.456  49.672  40.352
24548DA     SC259528  77.277  49.676  40.526
24548DA     SC359529  77.134  49.792  40.347
24548DA     SC459530  77.383  49.741  40.227
24549DA     BB159531  77.956  49.321  40.428
24549DA     BB259532  77.717  49.240  40.695
24549DA     BB359533  77.581  49.090  40.629
24549DA     SC159534  77.372  49.292  40.520
24549DA     SC259535  77.143  49.371  40.579
24549DA     SC359536  77.130  49.451  40.336
24549DA     SC459537  77.383  49.334  40.365
24550DC     BB159538  77.581  48.899  40.718
24550DC     BB259539  77.288  48.959  40.920
24550DC     BB359540  77.127  48.851  40.846
24550DC     SC159541  77.099  49.017  40.645
24550DC     SC259542  76.917  49.129  40.669
24550DC     SC359543  77.091  49.107  40.397
24551DA     BB159544  77.173  48.788  41.256
24551DA     BB259545  76.826  48.887  41.193
24551DA     BB359546  76.719  48.728  41.098
24551DA     SC159547  76.787  48.822  40.809
24551DA     SC259548  76.666  48.922  40.615
24551DA     SC359549  76.864  48.837  40.475
24551DA     SC459550  76.918  48.761  40.740
24552DT     BB159551  76.592  48.684  41.209
24552DT     BB259552  76.321  48.834  41.025
24552DT     BB359553  76.229  48.692  40.906
24552DT     SC159554  76.429  48.695  40.735
24552DT     SC259555  76.364  48.784  40.551
24552DT     SC359556  76.635  48.612  40.593
24553DA     BB159557  75.962  48.928  41.131
24553DA     BB259558  75.846  48.916  40.783
24553DA     BB359559  75.781  48.719  40.734
24553DA     SC159560  76.060  48.626  40.632
24553DA     SC259561  76.167  48.567  40.414
24553DA     SC359562  76.342  48.444  40.557
24553DA     SC459563  76.158  48.554  40.738
24554DT     BB159564  75.603  48.719  40.697
24554DT     BB259565  75.629  48.670  40.340
24554DT     BB359566  75.604  48.470  40.294
24554DT     SC159567  75.844  48.411  40.383
24554DT     SC259568  75.970  48.357  40.217
24554DT     SC359569  76.035  48.304  40.530
24555DG     BB159570  75.326  48.686  40.088
24555DG     BB259571  75.511  48.463  39.871
24555DG     BB359572  75.447  48.277  39.894
24555DG     SC159573  75.644  48.210  40.118
24555DG     SC259574  75.869  48.014  40.101
24555DG     SC359575  75.832  48.109  40.379
24555DG     SC459576  75.602  48.240  40.270
24556DC     BB159577  75.354  48.168  39.727
24556DC     BB259578  75.616  47.936  39.637
24556DC     BB359579  75.571  47.748  39.710
24556DC     SC159580  75.633  47.820  39.955
24556DC     SC259581  75.814  47.720  40.015
24556DC     SC359582  75.608  47.873  40.211
24557DT     BB159583  75.519  47.665  39.458
24557DT     BB259584  75.776  47.441  39.577
24557DT     BB359585  75.691  47.284  39.680
24557DT     SC159586  75.641  47.437  39.888
24557DT     SC259587  75.767  47.379  40.052
24557DT     SC359588  75.506  47.569  40.072
24558DT     BB159589  75.757  47.125  39.475
24558DT     BB259590  75.916  46.976  39.762
24558DT     BB359591  75.783  46.852  39.861
24558DT     SC159592  75.653  47.057  39.961
24558DT     SC259593  75.687  47.066  40.173
24558DT     SC359594  75.458  47.226  40.010
24559DA     BB159595  76.146  46.652  39.792
24559DA     BB259596  76.051  46.604  40.143
24559DA     BB359597  75.883  46.474  40.158
24559DA     SC159598  75.674  46.704  40.146
24559DA     SC259599  75.510  46.813  40.299
24559DA     SC359600  75.395  46.895  40.085
24559DA     SC459601  75.616  46.744  40.001
24560DA     BB159602  76.103  46.343  40.363
24560DA     BB259603  75.850  46.390  40.624
24560DA     BB359604  75.687  46.255  40.595
24560DA     SC159605  75.524  46.452  40.418
24560DA     SC259606  75.314  46.586  40.436
24560DA     SC359607  75.320  46.592  40.180
24560DA     SC459608  75.544  46.443  40.259
24561DG     BB159609  75.768  46.153  40.878
24561DG     BB259610  75.437  46.268  40.965
24561DG     BB359611  75.302  46.132  40.913
24561DG     SC159612  75.259  46.246  40.632
24561DG     SC259613  75.009  46.374  40.531
24561DG     SC359614  75.202  46.331  40.311
24561DG     SC459615  75.352  46.195  40.513
24562DT     BB159616  75.171  46.023  41.064
24562DT     BB259617  74.852  46.183  41.010
24562DT     BB359618  74.727  46.056  40.904
24562DT     SC159619  74.857  46.101  40.681
24562DT     SC259620  74.733  46.216  40.547
24562DT     SC359621  75.004  46.058  40.466
24563DA     BB159622  74.512  46.174  41.244
24563DA     BB259623  74.295  46.224  40.952
24563DA     BB359624  74.223  46.037  40.880
24563DA     SC159625  74.460  45.995  40.682
24563DA     SC259626  74.496  45.994  40.436
24563DA     SC359627  74.710  45.862  40.488
24563DA     SC459628  74.588  45.912  40.735
24564DT     BB159629  74.028  46.002  40.894
24564DT     BB259630  73.952  46.046  40.544
24564DT     BB359631  73.921  45.862  40.455
24564DT     SC159632  74.178  45.808  40.457
24564DT     SC259633  74.252  45.811  40.255
24564DT     SC359634  74.406  45.689  40.513
24565DT     BB159635  73.667  45.935  40.440
24565DT     BB259636  73.764  45.864  40.100
24565DT     BB359637  73.750  45.661  40.063
24565DT     SC159638  73.967  45.613  40.201
24565DT     SC259639  74.125  45.551  40.068
24565DT     SC359640  74.125  45.519  40.391
24566DA     BB159641  73.562  45.887  39.762
24566DA     BB259642  73.774  45.634  39.603
24566DA     BB359643  73.693  45.439  39.633
24566DA     SC159644  73.850  45.388  39.897
24566DA     SC259645  74.038  45.243  39.975
24566DA     SC359646  73.948  45.289  40.211
24566DA     SC459647  73.779  45.427  40.035
24567DT     BB159648  73.636  45.356  39.475
24567DT     BB259649  73.893  45.104  39.452
24567DT     BB359650  73.822  44.924  39.525
24567DT     SC159651  73.839  45.008  39.773
24567DT     SC259652  73.997  44.902  39.874
24567DT     SC359653  73.766  45.080  40.016
24568DC     BB159654  73.803  44.819  39.273
24568DC     BB259655  73.999  44.574  39.452
24568DC     BB359656  73.873  44.440  39.548
24568DC     SC159657  73.811  44.617  39.731
24568DC     SC259658  73.896  44.558  39.920
24568DC     SC359659  73.667  44.782  39.878
24569DT     BB159660  73.891  44.206  39.369
24569DT     BB259661  73.966  44.062  39.691
24569DT     BB359662  73.794  43.987  39.777
24569DT     SC159663  73.707  44.228  39.835
24569DT     SC259664  73.713  44.256  40.048
24569DT     SC359665  73.556  44.444  39.835
24570DC     BB159666  73.795  43.676  39.735
24570DC     BB259667  73.750  43.704  40.091
24570DC     BB359668  73.549  43.684  40.139
24570DC     SC159669  73.496  43.925  40.050
24570DC     SC259670  73.446  44.053  40.216
24570DC     SC359671  73.393  44.118  39.903
24571DG     BB159672  73.660  43.337  40.348
24571DG     BB259673  73.481  43.561  40.568
24571DG     BB359674  73.285  43.525  40.558
24571DG     SC159675  73.236  43.722  40.329
24571DG     SC259676  73.078  43.974  40.346
24571DG     SC359677  73.150  43.914  40.065
24571DG     SC459678  73.251  43.671  40.178
24572DA     BB159679  73.257  43.480  40.906
24572DA     BB259680  73.043  43.777  40.929
24572DA     BB359681  72.841  43.726  40.885
24572DA     SC159682  72.866  43.783  40.581
24572DA     SC259683  72.783  43.951  40.417
24572DA     SC359684  72.838  43.775  40.239
24572DA     SC459685  72.906  43.660  40.485
24573DA     BB159686  72.803  43.869  41.175
24573DA     BB259687  72.608  44.124  40.999
24573DA     BB359688  72.413  44.050  40.953
24573DA     SC159689  72.494  43.937  40.675
24573DA     SC259690  72.451  43.989  40.435
24573DA     SC359691  72.524  43.747  40.390
24573DA     SC459692  72.541  43.784  40.668
24574DC     BB159693  72.276  44.146  41.042
24574DC     BB259694  72.165  44.333  40.754
24574DC     BB359695  71.991  44.249  40.679
24574DC     SC159696  72.125  44.048  40.574
24574DC     SC259697  72.123  44.065  40.360
24574DC     SC359698  72.208  43.802  40.529
24575DT     BB159699  71.874  44.468  40.770
24575DT     BB259700  71.805  44.463  40.415
24575DT     BB359701  71.643  44.341  40.377
24575DT     SC159702  71.786  44.124  40.415
24575DT     SC259703  71.813  44.022  40.228
24575DT     SC359704  71.869  43.898  40.522
24576DT     BB159705  71.518  44.567  40.320
24576DT     BB259706  71.495  44.366  40.021
24576DT     BB359707  71.337  44.233  40.037
24576DT     SC159708  71.473  44.081  40.203
24576DT     SC259709  71.523  43.896  40.106
24576DT     SC359710  71.541  43.954  40.424
24577DC     BB159711  71.218  44.382  39.854
24577DC     BB259712  71.231  44.051  39.712
24577DC     BB359713  71.072  43.938  39.783
24577DC     SC159714  71.186  43.910  40.017
24577DC     SC259715  71.247  43.705  40.043
24577DC     SC359716  71.226  43.928  40.277
24578DG     BB159717  71.074  43.946  39.376
24578DG     BB259718  71.061  43.608  39.504
24578DG     BB359719  70.878  43.568  39.572
24578DG     SC159720  70.936  43.666  39.856
24578DG     SC259721  70.945  43.497  40.102
24578DG     SC359722  70.957  43.784  40.172
24578DG     SC459723  70.912  43.821  39.891
24579DA     BB159724  70.930  43.293  39.373
24579DA     BB259725  70.875  43.079  39.666
24579DA     BB359726  70.669  43.082  39.723
24579DA     SC159727  70.702  43.321  39.919
24579DA     SC259728  70.695  43.360  40.165
24579DA     SC359729  70.655  43.606  40.105
24579DA     SC459730  70.676  43.469  39.861
24580DC     BB159731  70.613  42.920  39.703
24580DC     BB259732  70.581  42.837  40.052
24580DC     BB359733  70.388  42.874  40.116
24580DC     SC159734  70.431  43.133  40.118
24580DC     SC259735  70.433  43.204  40.321
24580DC     SC359736  70.409  43.389  40.056
24581DT     BB159737  70.365  42.611  40.129
24581DT     BB259738  70.274  42.727  40.458
24581DT     BB359739  70.076  42.787  40.460
24581DT     SC159740  70.133  43.008  40.330
24581DT     SC259741  70.109  43.176  40.461
24581DT     SC359742  70.137  43.189  40.138
24582DA     BB159743  70.119  42.517  40.779
24582DA     BB259744  69.935  42.809  40.904
24582DA     BB359745  69.736  42.809  40.828
24582DA     SC159746  69.806  42.976  40.575
24582DA     SC259747  69.762  43.206  40.487
24582DA     SC359748  69.821  43.107  40.258
24582DA     SC459749  69.845  42.896  40.441
24583DA     BB159750  69.635  42.827  41.145
24583DA     BB259751  69.473  43.145  41.063
24583DA     BB359752  69.289  43.110  40.962
24583DA     SC159753  69.415  43.115  40.677
24583DA     SC259754  69.413  43.263  40.477
24583DA     SC359755  69.492  43.056  40.348
24583DA     SC459756  69.462  42.975  40.615
24584DA     BB159757  69.145  43.295  41.198
24584DA     BB259758  69.045  43.530  40.934
24584DA     BB359759  68.872  43.457  40.832
24584DA     SC159760  69.034  43.303  40.616
24584DA     SC259761  69.081  43.321  40.372
24584DA     SC359762  69.145  43.073  40.386
24584DA     SC459763  69.068  43.148  40.645
24585DA     BB159764  68.745  43.751  40.911
24585DA     BB259765  68.718  43.816  40.551
24585DA     BB359766  68.548  43.715  40.470
24585DA     SC159767  68.707  43.457  40.398
24585DA     SC259768  68.785  43.339  40.193
24585DA     SC359769  68.804  43.132  40.343
24585DA     SC459770  68.711  43.339  40.508
24586DA     BB159771  68.484  44.018  40.366
24586DA     BB259772  68.505  43.885  40.025
24586DA     BB359773  68.329  43.774  39.978
24586DA     SC159774  68.445  43.503  40.077
24586DA     SC259775  68.521  43.287  39.978
24586DA     SC359776  68.487  43.190  40.214
24586DA     SC459777  68.417  43.461  40.230
24587DT     BB159778  68.219  43.849  39.838
24587DT     BB259779  68.303  43.610  39.580
24587DT     BB359780  68.150  43.474  39.558
24587DT     SC159781  68.216  43.351  39.780
24587DT     SC259782  68.297  43.157  39.734
24587DT     SC359783  68.200  43.257  40.026
24588DA     BB159784  68.245  43.627  39.179
24588DA     BB259785  68.226  43.261  39.152
24588DA     BB359786  68.023  43.197  39.164
24588DA     SC159787  68.027  43.161  39.473
24588DA     SC259788  68.020  42.974  39.637
24588DA     SC359789  67.946  43.152  39.807
24588DA     SC459790  67.981  43.287  39.563
24589DT     BB159791  67.934  43.114  39.000
24589DT     BB259792  67.925  42.773  39.118
24589DT     BB359793  67.733  42.723  39.176
24589DT     SC159794  67.753  42.865  39.396
24589DT     SC259795  67.759  42.733  39.565
24589DT     SC359796  67.707  43.052  39.575
24590DC     BB159797  67.681  42.562  38.951
24590DC     BB259798  67.613  42.344  39.230
24590DC     BB359799  67.414  42.360  39.285
24590DC     SC159800  67.456  42.593  39.398
24590DC     SC259801  67.437  42.573  39.612
24590DC     SC359802  67.441  42.852  39.446
24591DT     BB159803  67.315  42.110  39.173
24591DT     BB259804  67.214  42.089  39.518
24591DT     BB359805  67.020  42.159  39.540
24591DT     SC159806  67.100  42.408  39.514
24591DT     SC259807  67.080  42.509  39.703
24591DT     SC359808  67.127  42.651  39.415
24592DC     BB159809  66.883  41.905  39.571
24592DC     BB259810  66.787  42.088  39.867
24592DC     BB359811  66.607  42.185  39.835
24592DC     SC159812  66.723  42.366  39.685
24592DC     SC259813  66.722  42.555  39.788
24592DC     SC359814  66.784  42.511  39.474
24593DA     BB159815  66.521  41.961  40.181
24593DA     BB259816  66.419  42.306  40.250
24593DA     BB359817  66.231  42.348  40.157
24593DA     SC159818  66.357  42.451  39.892
24593DA     SC259819  66.382  42.667  39.771
24593DA     SC359820  66.423  42.523  39.563
24593DA     SC459821  66.379  42.344  39.774
24594DA     BB159822  66.121  42.436  40.458
24594DA     BB259823  66.076  42.775  40.327
24594DA     BB359824  65.891  42.790  40.220
24594DA     SC159825  66.015  42.713  39.946
24594DA     SC259826  66.066  42.824  39.728
24594DA     SC359827  66.072  42.586  39.631
24594DA     SC459828  66.014  42.557  39.904
24595DT     BB159829  65.725  42.913  40.291
24595DT     BB259830  65.777  43.181  40.055
24595DT     BB359831  65.623  43.184  39.917
24595DT     SC159832  65.718  42.973  39.793
24595DT     SC259833  65.794  43.031  39.600
24595DT     SC359834  65.735  42.728  39.698
24596DT     BB159835  65.534  43.411  40.032
24596DT     BB259836  65.604  43.501  39.690
24596DT     BB359837  65.438  43.463  39.571
24596DT     SC159838  65.482  43.205  39.578
24596DT     SC259839  65.544  43.138  39.384
24596DT     SC359840  65.446  42.948  39.627
24597DG     BB159841  65.581  43.842  39.547
24597DG     BB259842  65.555  43.683  39.223
24597DG     BB359843  65.365  43.674  39.166
24597DG     SC159844  65.314  43.401  39.296
24597DG     SC259845  65.255  43.147  39.151
24597DG     SC359846  65.218  43.113  39.442
24597DG     SC459847  65.266  43.396  39.448
24598DA     BB159848  65.554  43.785  38.905
24598DA     BB259849  65.415  43.512  38.704
24598DA     BB359850  65.205  43.539  38.678
24598DA     SC159851  65.127  43.377  38.932
24598DA     SC259852  65.018  43.159  38.985
24598DA     SC359853  64.975  43.261  39.217
24598DA     SC459854  65.108  43.459  39.069
24599DT     BB159855  65.228  43.538  38.527
24599DT     BB259856  65.050  43.233  38.452
24599DT     BB359857  64.846  43.268  38.452
24599DT     SC159858  64.840  43.281  38.714
24599DT     SC259859  64.736  43.109  38.792
24599DT     SC359860  64.809  43.378  38.958
24600DT     BB159861  64.910  43.206  38.215
24600DT     BB259862  64.632  42.994  38.304
24600DT     BB359863  64.458  43.106  38.312
24600DT     SC159864  64.529  43.215  38.540
24600DT     SC259865  64.401  43.141  38.697
24600DT     SC359866  64.598  43.398  38.717
24601DT     BB159867  64.385  42.987  38.085
24601DT     BB259868  64.095  42.955  38.297
24601DT     BB359869  63.982  43.128  38.291
24601DT     SC159870  64.156  43.256  38.441
24601DT     SC259871  64.068  43.294  38.634
24601DT     SC359872  64.337  43.432  38.516
24602DA     BB159873  63.673  42.863  38.169
24602DA     BB259874  63.520  43.090  38.413
24602DA     BB359875  63.477  43.278  38.322
24602DA     SC159876  63.752  43.404  38.396
24602DA     SC259877  63.839  43.580  38.549
24602DA     SC359878  64.045  43.583  38.395
24602DA     SC459879  63.870  43.392  38.287
24603DA     BB159880  63.132  43.286  38.384
24603DA     BB259881  63.176  43.590  38.584
24603DA     BB359882  63.172  43.763  38.459
24603DA     SC159883  63.479  43.765  38.409
24603DA     SC259884  63.675  43.905  38.473
24603DA     SC359885  63.792  43.796  38.272
24603DA     SC459886  63.534  43.687  38.280
24604DA     BB159887  62.907  43.922  38.618
24604DA     BB259888  63.134  44.195  38.711
24604DA     BB359889  63.143  44.340  38.555
24604DA     SC159890  63.383  44.205  38.410
24604DA     SC259891  63.625  44.253  38.369
24604DA     SC359892  63.604  44.086  38.176
24604DA     SC459893  63.350  44.099  38.294
24605DT     BB159894  63.059  44.575  38.549
24605DT     BB259895  63.383  44.728  38.589
24605DT     BB359896  63.432  44.835  38.418
24605DT     SC159897  63.484  44.614  38.286
24605DT     SC259898  63.696  44.601  38.250
24605DT     SC359899  63.467  44.424  38.105
24606DA     BB159900  63.471  45.128  38.717
24606DA     BB259901  63.782  45.131  38.523
24606DA     BB359902  63.754  45.237  38.340
24606DA     SC159903  63.670  44.984  38.179
24606DA     SC259904  63.765  44.842  37.997
24606DA     SC359905  63.523  44.765  37.959
24606DA     SC459906  63.513  44.951  38.170
24607DA     BB159907  64.010  45.414  38.444
24607DA     BB259908  64.194  45.289  38.152
24607DA     BB359909  64.138  45.397  37.977
24607DA     SC159910  63.907  45.203  37.900
24607DA     SC259911  63.859  45.035  37.723
24607DA     SC359912  63.613  45.066  37.789
24607DA     SC459913  63.760  45.238  37.955
24608DC     BB159914  64.279  45.514  37.885
24608DC     BB259915  64.341  45.291  37.609
24608DC     BB359916  64.257  45.367  37.436
24608DC     SC159917  64.016  45.303  37.515
24608DC     SC259918  63.941  45.142  37.392
24608DC     SC359919  63.764  45.328  37.591
24609DA     BB159920  64.657  45.267  37.365
24609DA     BB259921  64.452  45.115  37.101
24609DA     BB359922  64.384  45.265  36.965
24609DA     SC159923  64.120  45.320  37.121
24609DA     SC259924  63.876  45.283  37.089
24609DA     SC359925  63.845  45.466  37.266
24609DA     SC459926  64.122  45.437  37.231
24610DT     BB159927  64.454  45.241  36.795
24610DT     BB259928  64.151  45.116  36.642
24610DT     BB359929  64.059  45.267  36.534
24610DT     SC159930  63.975  45.383  36.754
24610DT     SC259931  63.761  45.363  36.768
24610DT     SC359932  63.944  45.565  36.943
24611DC     BB159933  64.133  45.128  36.321
24611DC     BB259934  63.774  45.159  36.294
24611DC     BB359935  63.725  45.340  36.206
24611DC     SC159936  63.782  45.471  36.426
24611DC     SC259937  63.601  45.548  36.512
24611DC     SC359938  63.902  45.638  36.591
24612DT     BB159939  63.652  45.184  36.009
24612DT     BB259940  63.359  45.379  36.091
24612DT     BB359941  63.371  45.565  36.002
24612DT     SC159942  63.550  45.645  36.177
24612DT     SC259943  63.462  45.794  36.306
24612DT     SC359944  63.779  45.730  36.277
24613DT     BB159945  63.177  45.481  35.842
24613DT     BB259946  63.050  45.787  35.984
24613DT     BB359947  63.121  45.949  35.877
24613DT     SC159948  63.360  45.926  35.983
24613DT     SC259949  63.396  46.091  36.115
24613DT     SC359950  63.620  45.886  36.003
24614DC     BB159951  62.874  45.984  35.773
24614DC     BB259952  62.957  46.307  35.911
24614DC     BB359953  63.065  46.417  35.773
24614DC     SC159954  63.280  46.274  35.815
24614DC     SC259955  63.427  46.395  35.916
24614DC     SC359956  63.482  46.111  35.771
24615DA     BB159957  62.748  46.679  35.866
24615DA     BB259958  63.055  46.879  35.874
24615DA     BB359959  63.122  46.921  35.676
24615DA     SC159960  63.301  46.668  35.655
24615DA     SC259961  63.544  46.614  35.647
24615DA     SC359962  63.470  46.390  35.546
24615DA     SC459963  63.235  46.535  35.593
24616DG     BB159964  63.089  47.247  35.700
24616DG     BB259965  63.448  47.253  35.650
24616DG     BB359966  63.489  47.265  35.456
24616DG     SC159967  63.496  46.962  35.413
24616DG     SC259968  63.737  46.800  35.343
24616DG     SC359969  63.491  46.636  35.327
24616DG     SC459970  63.360  46.886  35.377
24617DA     BB159971  63.696  47.568  35.452
24617DA     BB259972  63.986  47.382  35.326
24617DA     BB359973  63.981  47.372  35.113
24617DA     SC159974  63.822  47.105  35.105
24617DA     SC259975  63.864  46.867  35.043
24617DA     SC359976  63.609  46.849  35.024
24617DA     SC459977  63.662  47.114  35.098
24618DT     BB159978  64.129  47.483  34.931
24618DT     BB259979  64.314  47.183  34.854
24618DT     BB359980  64.277  47.125  34.659
24618DT     SC159981  64.038  47.036  34.722
24618DT     SC259982  64.036  46.822  34.708
24618DT     SC359983  63.775  47.014  34.728
24619DA     BB159984  64.697  47.154  34.650
24619DA     BB259985  64.611  46.821  34.522
24619DA     BB359986  64.553  46.833  34.317
24619DA     SC159987  64.251  46.874  34.379
24619DA     SC259988  64.039  46.746  34.356
24619DA     SC359989  63.922  46.974  34.375
24619DA     SC459990  64.197  47.026  34.391
24620DT     BB159991  64.671  46.742  34.161
24620DT     BB259992  64.454  46.457  34.118
24620DT     BB359993  64.358  46.469  33.935
24620DT     SC159994  64.197  46.656  34.024
24620DT     SC259995  63.997  46.577  34.041
24620DT     SC359996  64.079  46.891  34.048
24621DT     BB159997  64.510  46.263  33.867
24621DT     BB259998  64.170  46.145  33.835
24621DT     BB359999  64.094  46.200  33.651
24621DT     SC160000  64.066  46.449  33.727
24621DT     SC260001  63.857  46.496  33.745
24621DT     SC360002  64.100  46.711  33.738
24622DT     BB160003  64.106  45.942  33.607
24622DT     BB260004  63.760  46.031  33.561
24622DT     BB360005  63.732  46.110  33.372
24622DT     SC160006  63.845  46.336  33.441
24622DT     SC260007  63.697  46.492  33.448
24622DT     SC360008  64.018  46.536  33.447
24623DT     BB160009  63.601  45.886  33.324
24623DT     BB260010  63.365  46.150  33.255
24623DT     BB360011  63.395  46.224  33.064
24623DT     SC160012  63.612  46.352  33.140
24623DT     SC260013  63.574  46.564  33.136
24623DT     SC360014  63.865  46.423  33.157
24624DT     BB160015  63.166  46.105  32.991
24624DT     BB260016  63.120  46.453  32.908
24624DT     BB360017  63.200  46.493  32.721
24624DT     SC160018  63.445  46.482  32.815
24624DT     SC260019  63.531  46.680  32.812
24624DT     SC360020  63.694  46.402  32.852
24625DT     BB160021  62.950  46.518  32.622
24625DT     BB260022  63.111  46.832  32.547
24625DT     BB360023  63.213  46.818  32.368
24625DT     SC160024  63.404  46.676  32.479
24625DT     SC260025  63.584  46.793  32.489
24625DT     SC360026  63.563  46.472  32.532
24626DC     BB160027  63.027  46.977  32.259
24626DC     BB260028  63.339  47.150  32.208
24626DC     BB360029  63.431  47.083  32.036
24626DC     SC160030  63.502  46.858  32.152
24626DC     SC260031  63.716  46.856  32.178
24626DC     SC360032  63.518  46.600  32.204
24627DT     BB160033  63.372  47.322  31.950
24627DT     BB260034  63.730  47.295  31.923
24627DT     BB360035  63.780  47.194  31.749
24627DT     SC160036  63.708  46.964  31.853
24627DT     SC260037  63.883  46.843  31.886
24627DT     SC360038  63.576  46.739  31.889
24628DT     BB160039  63.868  47.430  31.711
24628DT     BB260040  64.153  47.210  31.679
24628DT     BB360041  64.146  47.112  31.497
24628DT     SC160042  63.954  46.953  31.581
24628DT     SC260043  64.030  46.754  31.603
24628DT     SC360044  63.717  46.838  31.599
24629DG     BB160045  64.497  47.299  31.603
24629DG     BB260046  64.548  46.961  31.487
24629DG     BB360047  64.507  46.949  31.292
24629DG     SC160048  64.211  46.882  31.335
24629DG     SC260049  64.078  46.623  31.267
24629DG     SC360050  63.878  46.827  31.344
24629DG     SC460051  64.105  47.001  31.347
24630DT     BB160052  64.661  46.887  31.209
24630DT     BB260053  64.570  46.564  31.075
24630DT     BB360054  64.481  46.587  30.890
24630DT     SC160055  64.258  46.674  30.998
24630DT     SC260056  64.104  46.527  30.973
24630DT     SC360057  64.059  46.835  31.061
24631DA     BB160058  64.790  46.312  30.801
24631DA     BB260059  64.491  46.197  30.622
24631DA     BB360060  64.453  46.323  30.453
24631DA     SC160061  64.269  46.519  30.610
24631DA     SC260062  64.027  46.579  30.617
24631DA     SC360063  64.106  46.797  30.728
24631DA     SC460064  64.338  46.648  30.676
24632DA     BB160065  64.464  46.074  30.210
24632DA     BB260066  64.119  46.154  30.115
24632DA     BB360067  64.116  46.317  29.977
24632DA     SC160068  64.093  46.535  30.198
24632DA     SC260069  63.923  46.697  30.282
24632DA     SC360070  64.121  46.822  30.385
24632DA     SC460071  64.230  46.599  30.254
24633DA     BB160072  63.949  46.154  29.719
24633DA     BB260073  63.674  46.394  29.751
24633DA     BB360074  63.712  46.567  29.633
24633DA     SC160075  63.856  46.721  29.863
24633DA     SC260076  63.812  46.918  30.009
24633DA     SC360077  64.066  46.920  30.048
24633DA     SC460078  64.016  46.706  29.873
24634DA     BB160079  63.423  46.532  29.460
24634DA     BB260080  63.309  46.850  29.602
24634DA     BB360081  63.383  47.014  29.487
24634DA     SC160082  63.644  47.045  29.653
24634DA     SC260083  63.742  47.210  29.814
24634DA     SC360084  63.967  47.101  29.756
24634DA     SC460085  63.774  46.966  29.603
24635DT     BB160086  63.256  47.153  29.362
24635DT     BB260087  63.269  47.432  29.590
24635DT     BB360088  63.381  47.585  29.508
24635DT     SC160089  63.605  47.457  29.553
24635DT     SC260090  63.716  47.558  29.707
24635DT     SC360091  63.833  47.332  29.507
24636DC     BB160092  63.157  47.742  29.460
24636DC     BB260093  63.366  47.949  29.669
24636DC     BB360094  63.493  48.062  29.551
24636DC     SC160095  63.644  47.853  29.500
24636DC     SC260096  63.834  47.876  29.598
24636DC     SC360097  63.765  47.662  29.364
24637DT     BB160098  63.352  48.291  29.606
24637DT     BB260099  63.688  48.366  29.713
24637DT     BB360100  63.797  48.443  29.555
24637DT     SC160101  63.819  48.206  29.444
24637DT     SC260102  64.023  48.140  29.457
24637DT     SC360103  63.793  48.010  29.269
24638DT     BB160104  63.792  48.699  29.660
24638DT     BB260105  64.144  48.626  29.621
24638DT     BB360106  64.207  48.682  29.432
24638DT     SC160107  64.088  48.476  29.322
24638DT     SC260108  64.236  48.338  29.250
24638DT     SC360109  63.922  48.336  29.172
24639DA     BB160110  64.472  48.870  29.697
24639DA     BB260111  64.673  48.698  29.444
24639DA     BB360112  64.669  48.806  29.260
24639DA     SC160113  64.421  48.655  29.148
24639DA     SC260114  64.371  48.490  28.968
24639DA     SC360115  64.128  48.570  28.990
24639DA     SC460116  64.276  48.720  29.176
24640DA     BB160117  64.995  48.793  29.292
24640DA     BB260118  64.999  48.598  28.981
24640DA     BB360119  64.975  48.727  28.813
24640DA     SC160120  64.665  48.703  28.809
24640DA     SC260121  64.489  48.601  28.665
24640DA     SC360122  64.328  48.765  28.779
24640DA     SC460123  64.581  48.814  28.891
24641DA     BB160124  65.247  48.564  28.734
24641DA     BB260125  65.058  48.436  28.447
24641DA     BB360126  65.035  48.588  28.299
24641DA     SC160127  64.765  48.692  28.415
24641DA     SC260128  64.524  48.692  28.349
24641DA     SC360129  64.501  48.886  28.515
24641DA     SC460130  64.771  48.812  28.521
24642DT     BB160131  65.122  48.545  28.141
24642DT     BB260132  64.825  48.461  27.953
24642DT     BB360133  64.771  48.621  27.833
24642DT     SC160134  64.678  48.755  28.038
24642DT     SC260135  64.464  48.767  28.025
24642DT     SC360136  64.652  48.945  28.219
24643DA     BB160137  64.784  48.260  27.617
24643DA     BB260138  64.465  48.426  27.549
24643DA     BB360139  64.495  48.601  27.432
24643DA     SC160140  64.527  48.790  27.678
24643DA     SC260141  64.400  48.974  27.787
24643DA     SC360142  64.624  49.038  27.894
24643DA     SC460143  64.676  48.814  27.733
24644DT     BB160144  64.415  48.584  27.270
24644DT     BB260145  64.139  48.807  27.334
24644DT     BB360146  64.180  48.994  27.254
24644DT     SC160147  64.350  49.048  27.446
24644DT     SC260148  64.268  49.202  27.572
24644DT     SC360149  64.577  49.104  27.568
24645DT     BB160150  63.988  48.926  27.090
24645DT     BB260151  63.879  49.232  27.247
24645DT     BB360152  63.970  49.395  27.156
24645DT     SC160153  64.199  49.343  27.274
24645DT     SC260154  64.240  49.495  27.420
24645DT     SC360155  64.453  49.279  27.305
24646DA     BB160156  63.553  49.437  27.209
24646DA     BB260157  63.721  49.740  27.328
24646DA     BB360158  63.809  49.846  27.165
24646DA     SC160159  64.083  49.700  27.187
24646DA     SC260160  64.316  49.755  27.254
24646DA     SC360161  64.383  49.546  27.121
24646DA     SC460162  64.104  49.568  27.099
24647DG     BB160163  63.617  50.042  27.303
24647DG     BB260164  63.926  50.221  27.359
24647DG     BB360165  63.990  50.301  27.188
24647DG     SC160166  64.154  50.056  27.106
24647DG     SC260167  64.452  50.045  27.085
24647DG     SC360168  64.329  49.799  26.976
24647DG     SC460169  64.084  49.940  27.022
24648DT     BB160170  64.004  50.493  27.205
24648DT     BB260171  64.360  50.549  27.202
24648DT     BB360172  64.424  50.585  27.008
24648DT     SC160173  64.401  50.331  26.946
24648DT     SC260174  64.597  50.246  26.916
24648DT     SC360175  64.316  50.111  26.827
24649DA     BB160176  64.576  50.884  27.264
24649DA     BB260177  64.848  50.769  27.046
24649DA     BB360178  64.812  50.830  26.845
24649DA     SC160179  64.657  50.571  26.768
24649DA     SC260180  64.692  50.371  26.625
24649DA     SC360181  64.437  50.345  26.634
24649DA     SC460182  64.497  50.573  26.785
24650DT     BB160183  64.934  50.966  26.760
24650DT     BB260184  65.102  50.747  26.529
24650DT     BB360185  65.025  50.771  26.338
24650DT     SC160186  64.807  50.639  26.402
24650DT     SC260187  64.805  50.450  26.299
24650DT     SC360188  64.552  50.588  26.448
24651DT     BB160189  65.239  50.924  26.226
24651DT     BB260190  65.203  50.651  25.994
24651DT     BB360191  65.071  50.703  25.843
24651DT     SC160192  64.865  50.676  26.003
24651DT     SC260193  64.750  50.504  25.943
24651DT     SC360194  64.652  50.737  26.146
24652DT     BB160195  65.261  50.751  25.631
24652DT     BB260196  65.037  50.507  25.489
24652DT     BB360197  64.885  50.602  25.385
24652DT     SC160198  64.766  50.672  25.609
24652DT     SC260199  64.583  50.562  25.630
24652DT     SC360200  64.667  50.825  25.800
24653DA     BB160201  65.040  50.344  25.091
24653DA     BB260202  64.677  50.294  25.098
24653DA     BB360203  64.579  50.454  24.997
24653DA     SC160204  64.547  50.628  25.254
24653DA     SC260205  64.363  50.705  25.403
24653DA     SC360206  64.527  50.887  25.478
24653DA     SC460207  64.663  50.734  25.286
24654DA     BB160208  64.438  50.217  24.814
24654DA     BB260209  64.116  50.325  24.951
24654DA     BB360210  64.048  50.501  24.851
24654DA     SC160211  64.184  50.696  25.050
24654DA     SC260212  64.115  50.858  25.227
24654DA     SC360213  64.347  50.962  25.195
24654DA     SC460214  64.333  50.747  25.015
24655DA     BB160215  63.779  50.318  24.800
24655DA     BB260216  63.597  50.564  25.001
24655DA     BB360217  63.558  50.740  24.885
24655DA     SC160218  63.821  50.883  24.970
24655DA     SC260219  63.888  51.078  25.111
24655DA     SC360220  64.108  51.071  24.979
24655DA     SC460221  63.950  50.863  24.876
24656DT     BB160222  63.365  50.788  24.839
24656DT     BB260223  63.333  51.056  25.078
24656DT     BB360224  63.337  51.239  24.980
24656DT     SC160225  63.596  51.220  24.942
24656DT     SC260226  63.697  51.366  25.064
24656DT     SC360227  63.828  51.201  24.817
24657DA     BB160228  62.997  51.233  25.224
24657DA     BB260229  63.182  51.542  25.294
24657DA     BB360230  63.159  51.680  25.133
24657DA     SC160231  63.409  51.579  24.979
24657DA     SC260232  63.638  51.663  24.923
24657DA     SC360233  63.634  51.486  24.736
24657DA     SC460234  63.388  51.464  24.868
24658DA     BB160235  63.070  51.858  25.391
24658DA     BB260236  63.356  52.072  25.310
24658DA     BB360237  63.314  52.191  25.138
24658DA     SC160238  63.429  51.982  24.937
24658DA     SC260239  63.626  51.962  24.785
24658DA     SC360240  63.488  51.783  24.664
24658DA     SC460241  63.327  51.875  24.875
24659DT     BB160242  63.312  52.369  25.180
24659DT     BB260243  63.632  52.449  25.033
24659DT     BB360244  63.604  52.535  24.847
24659DT     SC160245  63.543  52.304  24.740
24659DT     SC260246  63.700  52.242  24.607
24659DT     SC360247  63.403  52.115  24.621
24660DA     BB160248  63.877  52.727  25.105
24660DA     BB260249  64.033  52.680  24.777
24660DA     BB360250  63.935  52.799  24.630
24660DA     SC160251  63.731  52.579  24.551
24660DA     SC260252  63.685  52.431  24.356
24660DA     SC360253  63.449  52.407  24.455
24660DA     SC460254  63.589  52.577  24.628
24661DA     BB160255  64.258  52.842  24.614
24661DA     BB260256  64.225  52.733  24.265
24661DA     BB360257  64.115  52.877  24.153
24661DA     SC160258  63.838  52.744  24.208
24661DA     SC260259  63.665  52.619  24.080
24661DA     SC360260  63.506  52.685  24.270
24661DA     SC460261  63.755  52.797  24.335
24662DA     BB160262  64.389  52.808  23.987
24662DA     BB260263  64.166  52.718  23.710
24662DA     BB360264  64.066  52.891  23.636
24662DA     SC160265  63.822  52.860  23.827
24662DA     SC260266  63.580  52.802  23.809
24662DA     SC360267  63.556  52.918  24.036
24662DA     SC460268  63.827  52.938  23.967
24663DT     BB160269  64.115  52.934  23.461
24663DT     BB260270  63.805  52.845  23.298
24663DT     BB360271  63.692  53.015  23.265
24663DT     SC160272  63.626  53.030  23.519
24663DT     SC260273  63.417  52.984  23.542
24663DT     SC360274  63.607  53.122  23.765
24664DA     BB160275  63.716  52.819  22.894
24664DA     BB260276  63.366  52.915  22.945
24664DA     BB360277  63.343  53.126  22.920
24664DA     SC160278  63.392  53.192  23.220
24664DA     SC260279  63.260  53.275  23.415
24664DA     SC360280  63.488  53.339  23.516
24664DA     SC460281  63.543  53.226  23.265
24665DT     BB160282  63.235  53.210  22.757
24665DT     BB260283  62.946  53.320  22.943
24665DT     BB360284  62.948  53.526  22.962
24665DT     SC160285  63.138  53.515  23.143
24665DT     SC260286  63.058  53.572  23.334
24665DT     SC360287  63.372  53.549  23.259
24666DT     BB160288  62.745  53.573  22.772
24666DT     BB260289  62.625  53.742  23.067
24666DT     BB360290  62.691  53.939  23.067
24666DT     SC160291  62.934  53.866  23.132
24666DT     SC260292  62.977  53.929  23.333
24666DT     SC360293  63.195  53.830  23.115
24667DA     BB160294  62.275  53.983  23.112
24667DA     BB260295  62.432  54.194  23.367
24667DA     BB360296  62.507  54.373  23.279
24667DA     SC160297  62.788  54.255  23.220
24667DA     SC260298  63.022  54.285  23.303
24667DA     SC360299  63.093  54.178  23.081
24667DA     SC460300  62.812  54.189  23.076
24668DA     BB160301  62.323  54.541  23.501
24668DA     BB260302  62.634  54.683  23.634
24668DA     BB360303  62.700  54.844  23.511
24668DA     SC160304  62.874  54.665  23.326
24668DA     SC260305  63.117  54.628  23.280
24668DA     SC360306  63.038  54.526  23.058
24668DA     SC460307  62.806  54.607  23.193
24669DG     BB160308  62.671  55.043  23.758
24669DG     BB260309  63.030  55.073  23.725
24669DG     BB360310  63.074  55.216  23.594
24669DG     SC160311  63.075  55.029  23.352
24669DG     SC260312  63.313  54.956  23.188
24669DG     SC360313  63.064  54.856  23.063
24669DG     SC460314  62.938  55.003  23.273
24670DT     BB160315  63.189  55.421  23.642
24670DT     BB260316  63.514  55.347  23.503
24670DT     BB360317  63.543  55.457  23.330
24670DT     SC160318  63.381  55.301  23.195
24670DT     SC260319  63.494  55.186  23.053
24670DT     SC360320  63.172  55.223  23.054
24671DT     BB160321  63.724  55.630  23.450
24671DT     BB260322  63.907  55.491  23.172
24671DT     BB360323  63.880  55.608  23.003
24671DT     SC160324  63.636  55.517  22.970
24671DT     SC260325  63.630  55.393  22.794
24671DT     SC360326  63.373  55.512  22.951
24672DA     BB160327  64.292  55.554  23.055
24672DA     BB260328  64.211  55.476  22.706
24672DA     BB360329  64.170  55.656  22.598
24672DA     SC160330  63.865  55.650  22.657
24672DA     SC260331  63.653  55.612  22.531
24672DA     SC360332  63.539  55.734  22.725
24672DA     SC460333  63.813  55.730  22.786
24673DT     BB160334  64.297  55.705  22.455
24673DT     BB260335  64.085  55.622  22.175
24673DT     BB360336  64.008  55.795  22.091
24673DT     SC160337  63.839  55.825  22.290
24673DT     SC260338  63.639  55.790  22.220
24673DT     SC360339  63.720  55.931  22.500
24674DA     BB160340  64.181  55.581  21.774
24674DA     BB260341  63.847  55.686  21.667
24674DA     BB360342  63.844  55.895  21.625
24674DA     SC160343  63.765  55.977  21.914
24674DA     SC260344  63.566  56.073  22.030
24674DA     SC360345  63.731  56.139  22.215
24674DA     SC460346  63.883  56.011  22.017
24675DC     BB160347  63.819  55.979  21.422
24675DC     BB260348  63.481  56.097  21.467
24675DC     BB360349  63.478  56.304  21.477
24675DC     SC160350  63.575  56.300  21.721
24675DC     SC260351  63.424  56.365  21.859
24675DC     SC360352  63.741  56.340  21.923
24676DT     BB160353  63.374  56.361  21.213
24676DT     BB260354  63.142  56.529  21.432
24676DT     BB360355  63.200  56.726  21.458
24676DT     SC160356  63.396  56.655  21.617
24676DT     SC260357  63.352  56.719  21.818
24676DT     SC360358  63.641  56.621  21.710
24677DC     BB160359  63.003  56.864  21.287
24677DC     BB260360  62.953  57.011  21.613
24677DC     BB360361  63.061  57.187  21.628
24677DC     SC160362  63.287  57.055  21.654
24677DC     SC260363  63.361  57.078  21.854
24677DC     SC360364  63.529  56.966  21.602
24678DG     BB160365  62.675  57.306  21.684
24678DG     BB260366  62.884  57.395  21.966
24678DG     BB360367  62.979  57.566  21.929
24678DG     SC160368  63.222  57.431  21.801
24678DG     SC260369  63.499  57.427  21.912
24678DG     SC360370  63.494  57.318  21.637
24678DG     SC460371  63.220  57.401  21.644
24679DA     BB160372  62.841  57.607  22.228
24679DA     BB260373  63.179  57.638  22.367
24679DA     BB360374  63.264  57.826  22.313
24679DA     SC160375  63.394  57.720  22.051
24679DA     SC260376  63.624  57.674  21.965
24679DA     SC360377  63.516  57.686  21.732
24679DA     SC460378  63.309  57.733  21.916
24680DG     BB160379  63.244  57.696  22.596
24680DG     BB260380  63.602  57.710  22.551
24680DG     BB360381  63.661  57.899  22.529
24680DG     SC160382  63.630  57.898  22.225
24680DG     SC260383  63.851  57.920  22.026
24680DG     SC360384  63.588  57.939  21.892
24680DG     SC460385  63.488  57.937  22.161
24681DA     BB160386  63.855  57.656  22.717
24681DA     BB260387  64.138  57.781  22.521
24681DA     BB360388  64.153  57.993  22.539
24681DA     SC160389  63.972  58.050  22.292
24681DA     SC260390  63.999  58.141  22.061
24681DA     SC360391  63.746  58.183  22.070
24681DA     SC460392  63.815  58.070  22.318
24682DT     BB160393  64.292  57.964  22.590
24682DT     BB260394  64.470  58.128  22.323
24682DT     BB360395  64.452  58.334  22.342
24682DT     SC160396  64.203  58.328  22.257
24682DT     SC260397  64.192  58.419  22.062
24682DT     SC360398  63.941  58.352  22.256
24683DG     BB160399  64.843  58.216  22.317
24683DG     BB260400  64.770  58.494  22.098
24683DG     BB360401  64.745  58.660  22.205
24683DG     SC160402  64.444  58.620  22.242
24683DG     SC260403  64.228  58.793  22.128
24683DG     SC360404  64.116  58.598  22.320
24683DG     SC460405  64.392  58.535  22.368
24684DT     BB160406  64.881  58.830  22.183
24684DT     BB260407  64.676  59.077  22.018
24684DT     BB360408  64.607  59.216  22.155
24684DT     SC160409  64.433  59.045  22.252
24684DT     SC260410  64.234  59.109  22.200
24684DT     SC360411  64.310  58.887  22.423
24685DA     BB160412  64.788  59.453  21.859
24685DA     BB260413  64.462  59.604  21.934
24685DA     BB360414  64.469  59.706  22.121
24685DA     SC160415  64.380  59.459  22.287
24685DA     SC260416  64.180  59.386  22.417
24685DA     SC360417  64.339  59.221  22.532
24685DA     SC460418  64.495  59.364  22.348
24686DC     BB160419  64.455  59.923  22.140
24686DC     BB260420  64.120  59.935  22.275
24686DC     BB360421  64.126  59.986  22.475
24686DC     SC160422  64.212  59.747  22.542
24686DC     SC260423  64.057  59.643  22.649
24686DC     SC360424  64.369  59.557  22.635
24687DC     BB160425  64.034  60.247  22.435
24687DC     BB260426  63.802  60.110  22.676
24687DC     BB360427  63.871  60.146  22.868
24687DC     SC160428  64.055  59.960  22.846
24687DC     SC260429  64.004  59.794  22.974
24687DC     SC360430  64.292  59.846  22.833
24688DG     BB160431  63.508  60.337  22.867
24688DG     BB260432  63.534  60.113  23.150
24688DG     BB360433  63.637  60.200  23.296
24688DG     SC160434  63.908  60.097  23.199
24688DG     SC260435  64.082  59.901  23.342
24688DG     SC360436  64.224  60.019  23.111
24688DG     SC460437  63.991  60.184  23.093
24689DA     BB160438  63.381  60.148  23.537
24689DA     BB260439  63.606  59.945  23.743
24689DA     BB360440  63.732  60.070  23.861
24689DA     SC160441  63.958  60.085  23.649
24689DA     SC260442  64.192  60.001  23.622
24689DA     SC360443  64.217  60.186  23.446
24689DA     SC460444  63.955  60.207  23.545
24690DT     BB160445  63.727  60.097  24.095
24690DT     BB260446  64.024  59.903  24.161
24690DT     BB360447  64.175  60.027  24.230
24690DT     SC160448  64.216  60.123  23.989
24690DT     SC260449  64.406  60.054  23.916
24690DT     SC360450  64.230  60.296  23.790
24691DT     BB160451  64.170  59.955  24.512
24691DT     BB260452  64.511  59.887  24.415
24691DT     BB360453  64.630  60.051  24.456
24691DT     SC160454  64.532  60.183  24.252
24691DT     SC260455  64.684  60.204  24.101
24691DT     SC360456  64.406  60.370  24.115
24692DT     BB160457  64.761  59.935  24.680
24692DT     BB260458  65.030  60.018  24.455
24692DT     BB360459  65.102  60.207  24.497
24692DT     SC160460  64.892  60.320  24.387
24692DT     SC260461  64.951  60.419  24.205
24692DT     SC360462  64.671  60.461  24.362
24693DA     BB160463  65.435  59.954  24.499
24693DA     BB260464  65.513  60.238  24.281
24693DA     BB360465  65.556  60.411  24.398
24693DA     SC160466  65.262  60.511  24.402
24693DA     SC260467  65.129  60.699  24.305
24693DA     SC360468  64.959  60.648  24.491
24693DA     SC460469  65.169  60.465  24.525
24694DT     BB160470  65.746  60.488  24.394
24694DT     BB260471  65.670  60.771  24.183
24694DT     BB360472  65.670  60.944  24.296
24694DT     SC160473  65.438  60.883  24.404
24694DT     SC260474  65.288  61.018  24.331
24694DT     SC360475  65.259  60.821  24.587
24695DA     BB160476  65.917  61.003  23.964
24695DA     BB260477  65.684  61.285  23.983
24695DA     BB360478  65.738  61.416  24.143
24695DA     SC160479  65.561  61.271  24.353
24695DA     SC260480  65.353  61.317  24.483
24695DA     SC360481  65.434  61.132  24.641
24695DA     SC460482  65.629  61.154  24.440
24696DT     BB160483  65.797  61.596  24.091
24696DT     BB260484  65.496  61.768  24.190
24696DT     BB360485  65.528  61.870  24.367
24696DT     SC160486  65.521  61.647  24.506
24696DT     SC260487  65.342  61.643  24.626
24696DT     SC360488  65.599  61.449  24.661
24697DA     BB160489  65.353  62.116  24.079
24697DA     BB260490  65.160  62.147  24.389
24697DA     BB360491  65.272  62.255  24.535
24697DA     SC160492  65.405  62.001  24.657
24697DA     SC260493  65.393  61.870  24.869
24697DA     SC360494  65.623  61.777  24.800
24697DA     SC460495  65.548  61.956  24.598
24698DC     BB160496  65.182  62.400  24.569
24698DC     BB260497  65.063  62.304  24.896
24698DC     BB360498  65.187  62.382  25.042
24698DC     SC160499  65.373  62.206  24.990
24698DC     SC260500  65.389  62.068  25.154
24698DC     SC360501  65.605  62.104  24.915
24699DG     BB160502  64.790  62.463  25.087
24699DG     BB260503  64.937  62.327  25.388
24699DG     BB360504  65.056  62.463  25.472
24699DG     SC160505  65.306  62.376  25.319
24699DG     SC260506  65.549  62.249  25.438
24699DG     SC360507  65.595  62.320  25.154
24699DG     SC460508  65.337  62.442  25.176
24700DG     BB160509  64.857  62.378  25.713
24700DG     BB260510  65.160  62.289  25.889
24700DG     BB360511  65.259  62.453  25.942
24700DG     SC160512  65.422  62.467  25.683
24700DG     SC260513  65.717  62.429  25.660
24700DG     SC360514  65.603  62.525  25.405
24700DG     SC460515  65.362  62.547  25.558
24701DC     BB160516  65.282  62.473  26.139
24701DC     BB260517  65.636  62.425  26.187
24701DC     BB360518  65.733  62.608  26.189
24701DC     SC160519  65.709  62.632  25.929
24701DC     SC260520  65.902  62.614  25.837
24701DC     SC360521  65.634  62.727  25.694
24702DA     BB160522  65.857  62.411  26.539
24702DA     BB260523  66.155  62.555  26.380
24702DA     BB360524  66.156  62.767  26.404
24702DA     SC160525  66.003  62.821  26.138
24702DA     SC260526  66.052  62.919  25.914
24702DA     SC360527  65.798  62.949  25.894
24702DA     SC460528  65.843  62.833  26.146
24703DG     BB160529  66.427  62.742  26.565
24703DG     BB260530  66.562  62.938  26.293
24703DG     BB360531  66.531  63.131  26.326
24703DG     SC160532  66.259  63.136  26.185
24703DG     SC260533  66.195  63.281  25.932
24703DG     SC360534  65.949  63.173  26.057
24703DG     SC460535  66.127  63.103  26.270
24704DT     BB160536  66.697  63.297  26.362
24704DT     BB260537  66.689  63.475  26.048
24704DT     BB360538  66.598  63.659  26.074
24704DT     SC160539  66.360  63.548  26.089
24704DT     SC260540  66.247  63.599  25.913
24704DT     SC360541  66.128  63.473  26.187
24705DA     BB160542  66.966  63.759  25.897
24705DA     BB260543  66.705  63.937  25.711
24705DA     BB360544  66.635  64.105  25.823
24705DA     SC160545  66.409  63.946  25.965
24705DA     SC260546  66.160  63.936  25.962
24705DA     SC360547  66.181  63.825  26.192
24705DA     SC460548  66.443  63.879  26.108
24706DG     BB160549  66.734  64.297  25.590
24706DG     BB260550  66.382  64.370  25.556
24706DG     BB360551  66.330  64.515  25.682
24706DG     SC160552  66.260  64.324  25.911
24706DG     SC260553  65.987  64.278  26.023
24706DG     SC360554  66.194  64.146  26.189
24706DG     SC460555  66.375  64.280  26.013
24707DC     BB160556  66.250  64.738  25.625
24707DC     BB260557  65.899  64.704  25.698
24707DC     BB360558  65.852  64.810  25.870
24707DC     SC160559  65.965  64.629  26.022
24707DC     SC260560  65.813  64.525  26.134
24707DC     SC360561  66.131  64.518  26.194
24708DA     BB160562  65.579  64.974  25.593
24708DA     BB260563  65.386  64.879  25.890
24708DA     BB360564  65.412  65.023  26.045
24708DA     SC160565  65.656  64.879  26.172
24708DA     SC260566  65.708  64.753  26.381
24708DA     SC360567  65.954  64.806  26.327
24708DA     SC460568  65.803  64.923  26.122
24709DT     BB160569  65.249  65.169  26.128
24709DT     BB260570  65.191  64.985  26.433
24709DT     BB360571  65.258  65.094  26.595
24709DT     SC160572  65.508  65.042  26.538
24709DT     SC260573  65.590  64.910  26.687
24709DT     SC360574  65.760  65.080  26.470
24710DA     BB160575  64.859  65.002  26.686
24710DA     BB260576  65.066  64.893  26.969
24710DA     BB360577  65.124  65.061  27.087
24710DA     SC160578  65.387  65.113  26.930
24710DA     SC260579  65.633  65.093  26.969
24710DA     SC360580  65.657  65.257  26.773
24710DA     SC460581  65.381  65.216  26.807
24711DG     BB160582  64.970  64.906  27.304
24711DG     BB260583  65.302  64.873  27.446
24711DG     BB360584  65.347  65.035  27.552
24711DG     SC160585  65.471  65.185  27.316
24711DG     SC260586  65.759  65.258  27.286
24711DG     SC360587  65.595  65.387  27.076
24711DG     SC460588  65.376  65.276  27.223
24712DA     BB160589  65.424  64.783  27.767
24712DA     BB260590  65.769  64.907  27.778
24712DA     BB360591  65.779  65.090  27.887
24712DA     SC160592  65.735  65.269  27.637
24712DA     SC260593  65.867  65.429  27.498
24712DA     SC360594  65.640  65.519  27.420
24712DA     SC460595  65.584  65.312  27.601
24713DA     BB160596  66.006  64.882  27.997
24713DA     BB260597  66.246  65.145  27.907
24713DA     BB360598  66.220  65.315  28.033
24713DA     SC160599  66.016  65.454  27.844
24713DA     SC260600  66.009  65.654  27.696
24713DA     SC360601  65.754  65.634  27.715
24713DA     SC460602  65.860  65.426  27.870
24714DT     BB160603  66.368  65.336  28.130
24714DT     BB260604  66.490  65.634  27.968
24714DT     BB360605  66.432  65.802  28.074
24714DT     SC160606  66.185  65.781  27.987
24714DT     SC260607  66.143  65.943  27.852
24714DT     SC360608  65.923  65.747  27.988
24715DC     BB160609  66.687  65.830  28.151
24715DC     BB260610  66.601  66.148  28.005
24715DC     BB360611  66.508  66.268  28.146
24715DC     SC160612  66.286  66.129  28.128
24715DC     SC260613  66.134  66.250  28.033
24715DC     SC360614  66.084  65.974  28.196
24716DA     BB160615  66.823  66.509  28.005
24716DA     BB260616  66.520  66.716  28.007
24716DA     BB360617  66.470  66.772  28.207
24716DA     SC160618  66.287  66.526  28.257
24716DA     SC260619  66.044  66.479  28.287
24716DA     SC360620  66.120  66.260  28.397
24716DA     SC460621  66.355  66.396  28.323
24717DT     BB160622  66.482  66.984  28.295
24717DT     BB260623  66.127  67.046  28.302
24717DT     BB360624  66.060  67.051  28.498
24717DT     SC160625  66.078  66.790  28.518
24717DT     SC260626  65.880  66.705  28.530
24717DT     SC360627  66.157  66.552  28.601
24718DA     BB160628  65.926  67.422  28.354
24718DA     BB260629  65.639  67.260  28.515
24718DA     BB360630  65.653  67.278  28.727
24718DA     SC160631  65.809  67.011  28.764
24718DA     SC260632  65.768  66.784  28.859
24718DA     SC360633  66.023  66.764  28.870
24718DA     SC460634  65.970  67.019  28.764
24719DA     BB160635  65.353  67.410  28.703
24719DA     BB260636  65.231  67.128  28.901
24719DA     BB360637  65.273  67.158  29.108
24719DA     SC160638  65.549  67.016  29.098
24719DA     SC260639  65.651  66.805  29.184
24719DA     SC360640  65.876  66.924  29.148
24719DA     SC460641  65.679  67.107  29.070
24720DC     BB160642  65.116  67.180  29.226
24720DC     BB260643  65.133  66.851  29.374
24720DC     BB360644  65.208  66.864  29.566
24720DC     SC160645  65.452  66.904  29.476
24720DC     SC260646  65.573  66.731  29.519
24720DC     SC360647  65.682  67.023  29.429
24721DA     BB160648  64.856  66.638  29.554
24721DA     BB260649  65.109  66.449  29.741
24721DA     BB360650  65.145  66.540  29.930
24721DA     SC160651  65.375  66.722  29.826
24721DA     SC260652  65.623  66.740  29.852
24721DA     SC360653  65.593  66.981  29.771
24721DA     SC460654  65.336  66.869  29.775
24722DT     BB160655  65.096  66.426  30.057
24722DT     BB260656  65.427  66.336  30.170
24722DT     BB360657  65.478  66.450  30.335
24722DT     SC160658  65.519  66.662  30.185
24722DT     SC260659  65.730  66.707  30.180
24722DT     SC360660  65.491  66.905  30.085
24723DA     BB160661  65.550  66.043  30.408
24723DA     BB260662  65.845  66.233  30.515
24723DA     BB360663  65.800  66.348  30.689
24723DA     SC160664  65.709  66.600  30.530
24723DA     SC260665  65.792  66.831  30.488
24723DA     SC360666  65.550  66.884  30.423
24723DA     SC460667  65.553  66.613  30.495
24724DG     BB160668  66.030  66.179  30.814
24724DG     BB260669  66.187  66.502  30.853
24724DG     BB360670  66.114  66.595  31.013
24724DG     SC160671  65.886  66.732  30.861
24724DG     SC260672  65.859  67.025  30.814
24724DG     SC360673  65.614  66.882  30.730
24724DG     SC460674  65.747  66.655  30.845
24725DT     BB160675  66.238  66.648  31.199
24725DT     BB260676  66.270  67.006  31.166
24725DT     BB360677  66.144  67.101  31.300
24725DT     SC160678  65.933  67.043  31.155
24725DT     SC260679  65.856  67.224  31.067
24725DT     SC360680  65.702  66.940  31.083
24726DG     BB160681  66.510  67.240  31.424
24726DG     BB260682  66.281  67.515  31.372
24726DG     BB360683  66.164  67.537  31.531
24726DG     SC160684  65.947  67.346  31.430
24726DG     SC260685  65.669  67.422  31.351
24726DG     SC360686  65.700  67.128  31.359
24726DG     SC460687  65.959  67.190  31.463
24727DC     BB160688  66.151  67.730  31.693
24727DC     BB260689  65.845  67.885  31.583
24727DC     BB360690  65.697  67.858  31.725
24727DC     SC160691  65.667  67.606  31.658
24727DC     SC260692  65.476  67.580  31.562
24727DC     SC360693  65.665  67.343  31.676
24728DA     BB160694  65.702  68.274  31.668
24728DA     BB260695  65.354  68.163  31.633
24728DA     BB360696  65.269  68.124  31.825
24728DA     SC160697  65.352  67.824  31.828
24728DA     SC260698  65.240  67.602  31.814
24728DA     SC360699  65.455  67.510  31.921
24728DA     SC460700  65.493  67.787  31.896
24729DA     BB160701  65.042  68.334  31.718
24729DA     BB260702  64.802  68.058  31.740
24729DA     BB360703  64.743  68.027  31.943
24729DA     SC160704  64.969  67.821  32.003
24729DA     SC260705  64.988  67.576  32.047
24729DA     SC360706  65.216  67.633  32.150
24729DA     SC460707  65.106  67.877  32.063
24730DA     BB160708  64.463  68.056  31.783
24730DA     BB260709  64.394  67.713  31.891
24730DA     BB360710  64.349  67.709  32.100
24730DA     SC160711  64.644  67.665  32.188
24730DA     SC260712  64.781  67.482  32.289
24730DA     SC360713  64.944  67.669  32.355
24730DA     SC460714  64.732  67.795  32.221
24731DT     BB160715  64.176  67.653  32.129
24731DT     BB260716  64.255  67.323  32.251
24731DT     BB360717  64.245  67.321  32.458
24731DT     SC160718  64.472  67.451  32.478
24731DT     SC260719  64.623  67.319  32.557
24731DT     SC360720  64.644  67.642  32.536
24732DT     BB160721  64.033  67.171  32.416
24732DT     BB260722  64.250  66.971  32.623
24732DT     BB360723  64.229  67.025  32.822
24732DT     SC160724  64.364  67.247  32.784
24732DT     SC260725  64.554  67.232  32.886
24732DT     SC360726  64.420  67.504  32.770
24733DA     BB160727  64.200  66.609  32.778
24733DA     BB260728  64.427  66.681  33.057
24733DA     BB360729  64.319  66.758  33.223
24733DA     SC160730  64.350  67.055  33.137
24733DA     SC260731  64.472  67.259  33.215
24733DA     SC360732  64.301  67.390  33.075
24733DA     SC460733  64.234  67.119  33.046
24734DT     BB160734  64.317  66.646  33.379
24734DT     BB260735  64.536  66.845  33.585
24734DT     BB360736  64.425  66.955  33.721
24734DT     SC160737  64.347  67.121  33.534
24734DT     SC260738  64.439  67.313  33.567
24734DT     SC360739  64.188  67.254  33.370
24735DA     BB160740  64.714  66.752  33.947
24735DA     BB260741  64.713  67.101  34.057
24735DA     BB360742  64.540  67.142  34.175
24735DA     SC160743  64.366  67.230  33.933
24735DA     SC260744  64.265  67.440  33.844
24735DA     SC360745  64.108  67.286  33.713
24735DA     SC460746  64.277  67.117  33.860
24736DT     BB160747  64.554  67.185  34.381
24736DT     BB260748  64.481  67.537  34.359
24736DT     BB360749  64.290  67.574  34.431
24736DT     SC160750  64.181  67.475  34.214
24736DT     SC260751  64.090  67.634  34.100
24736DT     SC360752  64.040  67.316  34.057
24737DT     BB160753  64.381  67.689  34.667
24737DT     BB260754  64.168  67.943  34.524
24737DT     BB360755  63.974  67.917  34.589
24737DT     SC160756  63.940  67.711  34.430
24737DT     SC260757  63.802  67.764  34.273
24737DT     SC360758  63.896  67.463  34.351
24738DT     BB160759  63.980  68.135  34.764
24738DT     BB260760  63.698  68.205  34.550
24738DT     BB360761  63.526  68.123  34.631
24738DT     SC160762  63.598  67.881  34.562
24738DT     SC260763  63.470  67.810  34.405
24738DT     SC360764  63.671  67.628  34.582
24739DA     BB160765  63.429  68.526  34.565
24739DA     BB260766  63.159  68.323  34.421
24739DA     BB360767  63.034  68.246  34.576
24739DA     SC160768  63.197  67.983  34.610
24739DA     SC260769  63.166  67.740  34.565
24739DA     SC360770  63.354  67.705  34.735
24739DA     SC460771  63.314  67.982  34.720
24740DT     BB160772  62.832  68.310  34.599
24740DT     BB260773  62.680  68.009  34.469
24740DT     BB360774  62.593  67.902  34.623
24740DT     SC160775  62.827  67.821  34.709
24740DT     SC260776  62.847  67.610  34.673
24740DT     SC360777  63.035  67.788  34.868
24741DA     BB160778  62.278  67.948  34.349
24741DA     BB260779  62.290  67.593  34.440
24741DA     BB360780  62.202  67.562  34.631
24741DA     SC160781  62.469  67.598  34.787
24741DA     SC260782  62.627  67.456  34.918
24741DA     SC360783  62.709  67.677  35.020
24741DA     SC460784  62.505  67.746  34.840
24742DA     BB160785  62.010  67.343  34.477
24742DA     BB260786  62.155  67.084  34.692
24742DA     BB360787  62.062  67.087  34.884
24742DA     SC160788  62.267  67.287  35.007
24742DA     SC260789  62.450  67.283  35.176
24742DA     SC360790  62.419  67.537  35.186
24742DA     SC460791  62.231  67.443  35.000
24743DT     BB160792  61.942  66.925  34.949
24743DT     BB260793  62.183  66.786  35.179
24743DT     BB360794  62.121  66.819  35.374
24743DT     SC160795  62.187  67.073  35.360
24743DT     SC260796  62.358  67.109  35.486
24743DT     SC360797  62.164  67.335  35.359
24744DT     BB160798  62.063  66.554  35.401
24744DT     BB260799  62.301  66.621  35.664
24744DT     BB360800  62.202  66.683  35.834
24744DT     SC160801  62.156  66.920  35.730
24744DT     SC260802  62.274  67.067  35.833
24744DT     SC360803  62.025  67.128  35.635
24745DA     BB160804  62.469  66.376  35.926
24745DA     BB260805  62.521  66.648  36.166
24745DA     BB360806  62.358  66.658  36.304
24745DA     SC160807  62.193  66.857  36.132
24745DA     SC260808  62.122  67.096  36.144
24745DA     SC360809  61.940  67.029  35.975
24745DA     SC460810  62.087  66.796  36.028
24746DG     BB160811  62.598  66.616  36.490
24746DG     BB260812  62.498  66.940  36.615
24746DG     BB360813  62.340  66.921  36.735
24746DG     SC160814  62.134  66.951  36.511
24746DG     SC260815  61.944  67.179  36.477
24746DG     SC360816  61.882  66.961  36.287
24746DG     SC460817  62.086  66.821  36.431
24747DG     BB160818  62.528  67.071  36.953
24747DG     BB260819  62.271  67.326  36.965
24747DG     BB360820  62.119  67.264  37.078
24747DG     SC160821  61.969  67.133  36.846
24747DG     SC260822  61.707  67.222  36.734
24747DG     SC360823  61.786  66.961  36.620
24747DG     SC460824  62.000  66.980  36.810
24748DA     BB160825  62.147  67.566  37.250
24748DA     BB260826  61.796  67.644  37.181
24748DA     BB360827  61.668  67.526  37.305
24748DA     SC160828  61.645  67.293  37.099
24748DA     SC260829  61.470  67.195  36.950
24748DA     SC360830  61.618  66.986  36.948
24748DA     SC460831  61.750  67.172  37.112
24749DA     BB160832  61.525  67.810  37.414
24749DA     BB260833  61.202  67.684  37.292
24749DA     BB360834  61.122  67.542  37.430
24749DA     SC160835  61.255  67.297  37.293
24749DA     SC260836  61.184  67.098  37.159
24749DA     SC360837  61.410  66.997  37.228
24749DA     SC460838  61.399  67.250  37.347
24750DT     BB160839  60.929  67.559  37.582
24750DT     BB260840  60.709  67.338  37.402
24750DT     BB360841  60.675  67.167  37.513
24750DT     SC160842  60.914  67.074  37.458
24750DT     SC260843  60.897  66.904  37.327
24750DT     SC360844  61.162  66.990  37.493
24751DA     BB160845  60.267  67.282  37.473
24751DA     BB260846  60.283  66.928  37.377
24751DA     BB360847  60.285  66.804  37.551
24751DA     SC160848  60.595  66.800  37.574
24751DA     SC260849  60.780  66.635  37.544
24751DA     SC360850  60.919  66.795  37.689
24751DA     SC460851  60.665  66.912  37.667
24752DA     BB160852  60.013  66.640  37.442
24752DA     BB260853  60.221  66.339  37.417
24752DA     BB360854  60.233  66.241  37.607
24752DA     SC160855  60.488  66.395  37.697
24752DA     SC260856  60.729  66.346  37.737
24752DA     SC360857  60.729  66.561  37.877
24752DA     SC460858  60.467  66.531  37.780
24753DC     BB160859  60.146  66.046  37.642
24753DC     BB260860  60.459  65.867  37.629
24753DC     BB360861  60.509  65.798  37.818
24753DC     SC160862  60.579  66.039  37.895
24753DC     SC260863  60.793  66.047  37.921
24753DC     SC360864  60.580  66.266  38.029
24754DA     BB160865  60.532  65.490  37.536
24754DA     BB260866  60.847  65.498  37.725
24754DA     BB360867  60.817  65.426  37.923
24754DA     SC160868  60.752  65.706  38.042
24754DA     SC260869  60.859  65.871  38.196
24754DA     SC360870  60.623  65.968  38.223
24754DA     SC460871  60.598  65.751  38.047
24755DA     BB160872  61.070  65.267  37.795
24755DA     BB260873  61.262  65.408  38.074
24755DA     BB360874  61.201  65.320  38.258
24755DA     SC160875  60.983  65.535  38.316
24755DA     SC260876  60.947  65.722  38.476
24755DA     SC360877  60.699  65.701  38.414
24755DA     SC460878  60.834  65.505  38.265
24756DA     BB160879  61.527  65.298  38.244
24756DA     BB260880  61.525  65.488  38.558
24756DA     BB360881  61.443  65.370  38.716
24756DA     SC160882  61.151  65.467  38.670
24756DA     SC260883  60.984  65.609  38.787
24756DA     SC360884  60.810  65.489  38.642
24756DA     SC460885  61.059  65.380  38.571
24757DG     BB160886  61.724  65.430  38.832
24757DG     BB260887  61.530  65.591  39.091
24757DG     BB360888  61.454  65.455  39.214
24757DG     SC160889  61.196  65.419  39.053
24757DG     SC260890  60.922  65.496  39.144
24757DG     SC360891  60.910  65.341  38.892
24757DG     SC460892  61.192  65.312  38.935
24758DT     BB160893  61.510  65.438  39.433
24758DT     BB260894  61.212  65.558  39.598
24758DT     BB360895  61.105  65.399  39.674
24758DT     SC160896  61.020  65.331  39.435
24758DT     SC260897  60.810  65.370  39.420
24758DT     SC360898  60.984  65.188  39.216
24759DG     BB160899  61.185  65.604  40.024
24759DG     BB260900  60.832  65.529  40.000
24759DG     BB360901  60.797  65.343  40.062
24759DG     SC160902  60.835  65.218  39.785
24759DG     SC260903  60.622  65.087  39.621
24759DG     SC360904  60.889  65.045  39.501
24759DG     SC460905  60.982  65.173  39.740
24760DA     BB160906  60.552  65.427  40.312
24760DA     BB260907  60.295  65.234  40.135
24760DA     BB360908  60.307  65.028  40.188
24760DA     SC160909  60.503  64.954  39.959
24760DA     SC260910  60.498  64.824  39.746
24760DA     SC360911  60.754  64.817  39.768
24760DA     SC460912  60.661  64.960  39.991
24761DA     BB160913  59.986  65.039  40.283
24761DA     BB260914  59.913  64.802  40.013
24761DA     BB360915  59.953  64.603  40.076
24761DA     SC160916  60.248  64.605  39.977
24761DA     SC260917  60.383  64.498  39.797
24761DA     SC360918  60.586  64.557  39.942
24761DA     SC460919  60.361  64.649  40.082
24762DC     BB160920  59.796  64.458  40.098
24762DC     BB260921  59.868  64.283  39.791
24762DC     BB360922  59.950  64.097  39.833
24762DC     SC160923  60.180  64.205  39.899
24762DC     SC260924  60.327  64.154  39.750
24762DC     SC360925  60.388  64.277  40.044
24763DT     BB160926  59.720  63.989  39.748
24763DT     BB260927  59.976  63.854  39.531
24763DT     BB360928  60.062  63.688  39.619
24763DT     SC160929  60.196  63.836  39.788
24763DT     SC260930  60.405  63.828  39.740
24763DT     SC360931  60.278  63.939  40.017
24764DA     BB160932  59.947  63.620  39.221
24764DA     BB260933  60.295  63.513  39.263
24764DA     BB360934  60.304  63.336  39.383
24764DA     SC160935  60.332  63.491  39.651
24764DA     SC260936  60.508  63.530  39.825
24764DA     SC360937  60.312  63.592  39.979
24764DA     SC460938  60.197  63.525  39.732
24765DA     BB160939  60.477  63.285  39.111
24765DA     BB260940  60.761  63.231  39.337
24765DA     BB360941  60.734  63.051  39.448
24765DA     SC160942  60.588  63.191  39.685
24765DA     SC260943  60.635  63.246  39.924
24765DA     SC360944  60.380  63.268  39.947
24765DA     SC460945  60.428  63.198  39.680
24766DT     BB160946  60.864  62.950  39.400
24766DT     BB260947  61.053  62.971  39.707
24766DT     BB360948  61.003  62.814  39.832
24766DT     SC160949  60.773  62.926  39.893
24766DT     SC260950  60.778  62.991  40.098
24766DT     SC360951  60.513  62.964  39.913
24767DT     BB160952  61.245  62.742  39.774
24767DT     BB260953  61.233  62.763  40.134
24767DT     BB360954  61.143  62.594  40.211
24767DT     SC160955  60.906  62.676  40.137
24767DT     SC260956  60.790  62.727  40.311
24767DT     SC360957  60.674  62.683  40.011
24768DA     BB160958  61.506  62.674  40.410
24768DA     BB260959  61.249  62.601  40.661
24768DA     BB360960  61.194  62.395  40.654
24768DA     SC160961  60.964  62.440  40.449
24768DA     SC260962  60.715  62.431  40.446
24768DA     SC360963  60.738  62.407  40.192
24768DA     SC460964  60.999  62.424  40.293
24769DA     BB160965  61.264  62.424  40.975
24769DA     BB260966  60.921  62.314  41.039
24769DA     BB360967  60.899  62.107  40.995
24769DA     SC160968  60.816  62.154  40.699
24769DA     SC260969  60.611  62.130  40.559
24769DA     SC360970  60.772  62.129  40.359
24769DA     SC460971  60.932  62.154  40.588
24770DC     BB160972  60.864  61.972  41.145
24770DC     BB260973  60.520  61.900  41.067
24770DC     BB360974  60.505  61.715  40.975
24770DC     SC160975  60.602  61.811  40.750
24770DC     SC260976  60.446  61.815  40.602
24770DC     SC360977  60.763  61.848  40.545
24771DT     BB160978  60.400  61.577  41.198
24771DT     BB260979  60.161  61.510  40.937
24771DT     BB360980  60.213  61.337  40.836
24771DT     SC160981  60.408  61.459  40.711
24771DT     SC260982  60.359  61.478  40.502
24771DT     SC360983  60.652  61.522  40.633
24772DT     BB160984  60.013  61.171  40.950
24772DT     BB260985  59.958  61.140  40.594
24772DT     BB360986  60.066  60.981  40.520
24772DT     SC160987  60.291  61.115  40.536
24772DT     SC260988  60.361  61.161  40.338
24772DT     SC360989  60.534  61.184  40.612
24773DT     BB160990  59.843  60.815  40.485
24773DT     BB260991  59.990  60.834  40.156
24773DT     BB360992  60.128  60.682  40.131
24773DT     SC160993  60.303  60.803  40.284
24773DT     SC260994  60.467  60.872  40.164
24773DT     SC360995  60.464  60.851  40.488
24774DA     BB160996  59.865  60.665  39.805
24774DA     BB260997  60.207  60.663  39.674
24774DA     BB360998  60.299  60.474  39.707
24774DA     SC160999  60.418  60.552  39.984
24774DA     SC261000  60.643  60.596  40.082
24774DA     SC361001  60.530  60.552  40.308
24774DA     SC461002  60.330  60.520  40.114
24775DA     BB161003  60.345  60.512  39.386
24775DA     BB261004  60.704  60.500  39.459
24775DA     BB361005  60.763  60.300  39.505
24775DA     SC161006  60.715  60.330  39.811
24775DA     SC261007  60.852  60.341  40.019
24775DA     SC361008  60.635  60.276  40.140
24775DA     SC461009  60.571  60.288  39.867
24776DG     BB161010  60.944  60.356  39.261
24776DG     BB261011  61.206  60.318  39.507
24776DG     BB361012  61.238  60.125  39.544
24776DG     SC161013  61.032  60.108  39.770
24776DG     SC261014  61.092  60.060  40.058
24776DG     SC361015  60.801  60.049  40.008
24776DG     SC461016  60.880  60.074  39.734
24777DT     BB161017  61.431  60.039  39.499
24777DT     BB261018  61.570  59.997  39.829
24777DT     BB361019  61.555  59.799  39.888
24777DT     SC161020  61.298  59.823  39.932
24777DT     SC261021  61.260  59.812  40.143
24777DT     SC361022  61.038  59.787  39.909
24778DT     BB161023  61.823  59.769  39.856
24778DT     BB261024  61.761  59.673  40.198
24778DT     BB361025  61.709  59.473  40.207
24778DT     SC161026  61.469  59.523  40.112
24778DT     SC261027  61.323  59.492  40.266
24778DT     SC361028  61.261  59.522  39.950
24779DA     BB161029  62.025  59.517  40.479
24779DA     BB261030  61.755  59.338  40.650
24779DA     BB361031  61.745  59.136  40.582
24779DA     SC161032  61.542  59.198  40.354
24779DA     SC261033  61.303  59.152  40.302
24779DA     SC361034  61.367  59.203  40.059
24779DA     SC461035  61.602  59.232  40.209
24780DA     BB161036  61.770  59.070  40.903
24780DA     BB261037  61.439  58.916  40.878
24780DA     BB361038  61.453  58.723  40.787
24780DA     SC161039  61.412  58.830  40.498
24780DA     SC261040  61.236  58.821  40.321
24780DA     SC361041  61.425  58.882  40.159
24780DA     SC461042  61.543  58.868  40.413
24781DT     BB161043  61.412  58.534  40.895
24781DT     BB261044  61.091  58.471  40.745
24781DT     BB361045  61.102  58.308  40.619
24781DT     SC161046  61.230  58.447  40.436
24781DT     SC261047  61.101  58.476  40.266
24781DT     SC361048  61.421  58.526  40.274
24782DT     BB161049  60.960  58.146  40.794
24782DT     BB261050  60.768  58.133  40.489
24782DT     BB361051  60.833  57.976  40.371
24782DT     SC161052  61.050  58.106  40.303
24782DT     SC261053  61.038  58.160  40.095
24782DT     SC361054  61.306  58.167  40.278
24783DT     BB161055  60.603  57.841  40.427
24783DT     BB261056  60.608  57.864  40.067
24783DT     BB361057  60.712  57.704  39.988
24783DT     SC161058  60.942  57.806  40.060
24783DT     SC261059  61.051  57.868  39.885
24783DT     SC361060  61.174  57.834  40.183
24784DA     BB161061  60.343  57.733  39.795
24784DA     BB261062  60.601  57.698  39.537
24784DA     BB361063  60.674  57.498  39.532
24784DA     SC161064  60.903  57.550  39.737
24784DA     SC261065  61.152  57.563  39.736
24784DA     SC361066  61.134  57.522  39.989
24784DA     SC461067  60.871  57.522  39.892
24785DT     BB161068  60.635  57.401  39.369
24785DT     BB261069  60.969  57.402  39.232
24785DT     BB361070  61.056  57.216  39.259
24785DT     SC161071  61.094  57.263  39.515
24785DT     SC261072  61.305  57.286  39.553
24785DT     SC361073  61.075  57.239  39.777
24786DT     BB161074  61.031  57.174  38.994
24786DT     BB261075  61.382  57.125  39.059
24786DT     BB361076  61.416  56.929  39.117
24786DT     SC161077  61.315  56.974  39.355
24786DT     SC261078  61.473  56.968  39.502
24786DT     SC361079  61.155  56.958  39.564
24787DT     BB161080  61.532  56.874  38.876
24787DT     BB261081  61.782  56.774  39.116
24787DT     BB361082  61.750  56.577  39.173
24787DT     SC161083  61.545  56.646  39.322
24787DT     SC261084  61.595  56.621  39.530
24787DT     SC361085  61.297  56.662  39.411
24788DC     BB161086  61.965  56.477  39.025
24788DC     BB261087  62.028  56.351  39.357
24788DC     BB361088  61.939  56.166  39.380
24788DC     SC161089  61.701  56.274  39.399
24788DC     SC261090  61.628  56.253  39.601
24788DC     SC361091  61.450  56.335  39.342
24789DT     BB161092  62.177  56.006  39.361
24789DT     BB261093  62.031  55.895  39.672
24789DT     BB361094  61.910  55.731  39.639
24789DT     SC161095  61.723  55.880  39.532
24789DT     SC261096  61.553  55.887  39.664
24789DT     SC361097  61.556  55.979  39.353
24790DC     BB161098  62.085  55.521  39.742
24790DC     BB261099  61.780  55.469  39.928
24790DC     BB361100  61.663  55.327  39.833
24790DC     SC161101  61.593  55.499  39.646
24790DC     SC261102  61.385  55.549  39.669
24790DC     SC361103  61.568  55.610  39.409
24791DG     BB161104  61.727  55.146  40.196
24791DG     BB261105  61.373  55.161  40.122
24791DG     BB361106  61.322  55.010  40.002
24791DG     SC161107  61.376  55.165  39.743
24791DG     SC261108  61.171  55.249  39.543
24791DG     SC361109  61.444  55.298  39.441
24791DG     SC461110  61.523  55.162  39.680
24792DT     BB161111  61.171  54.827  40.054
24792DT     BB261112  60.880  54.932  39.870
24792DT     BB361113  60.852  54.810  39.705
24792DT     SC161114  61.051  54.924  39.577
24792DT     SC261115  60.973  55.039  39.412
24792DT     SC361116  61.283  54.955  39.456
24793DA     BB161117  60.486  54.805  39.910
24793DA     BB261118  60.416  54.887  39.559
24793DA     BB361119  60.431  54.713  39.438
24793DA     SC161120  60.733  54.753  39.374
24793DA     SC261121  60.874  54.813  39.177
24793DA     SC361122  61.067  54.706  39.308
24793DA     SC461123  60.840  54.680  39.471
24794DG     BB161124  60.136  54.782  39.380
24794DG     BB261125  60.267  54.844  39.049
24794DG     BB361126  60.283  54.673  38.948
24794DG     SC161127  60.569  54.617  39.043
24794DG     SC261128  60.813  54.614  38.870
24794DG     SC361129  60.874  54.513  39.142
24794DG     SC461130  60.591  54.536  39.179
24795DA     BB161131  60.112  54.857  38.717
24795DA     BB261132  60.390  54.811  38.483
24795DA     BB361133  60.392  54.611  38.408
24795DA     SC161134  60.579  54.503  38.632
24795DA     SC261135  60.813  54.420  38.654
24795DA     SC361136  60.733  54.310  38.871
24795DA     SC461137  60.510  54.442  38.764
24796DG     BB161138  60.373  54.798  38.168
24796DG     BB261139  60.697  54.654  38.099
24796DG     BB361140  60.675  54.468  38.032
24796DG     SC161141  60.686  54.341  38.311
24796DG     SC261142  60.903  54.163  38.414
24796DG     SC361143  60.674  54.170  38.602
24796DG     SC461144  60.551  54.324  38.394
24797DC     BB161145  60.756  54.461  37.864
24797DC     BB261146  61.052  54.264  37.925
24797DC     BB361147  61.012  54.064  37.892
24797DC     SC161148  60.878  54.046  38.117
24797DC     SC261149  60.988  53.925  38.256
24797DC     SC361150  60.677  54.009  38.283
24798DC     BB161151  61.177  54.121  37.704
24798DC     BB261152  61.322  53.843  37.883
24798DC     BB361153  61.223  53.668  37.834
24798DC     SC161154  61.015  53.734  37.979
24798DC     SC261155  61.005  53.605  38.151
24798DC     SC361156  60.768  53.799  38.044
24799DA     BB161157  61.643  53.620  37.810
24799DA     BB261158  61.500  53.328  37.981
24799DA     BB361159  61.384  53.212  37.845
24799DA     SC161160  61.118  53.362  37.906
24799DA     SC261161  60.901  53.315  38.019
24799DA     SC361162  60.811  53.514  37.884
24799DA     SC461163  61.081  53.488  37.813
24800DA     BB161164  61.579  52.964  37.953
24800DA     BB261165  61.272  52.788  38.051
24800DA     BB361166  61.169  52.717  37.879
24800DA     SC161167  60.997  52.974  37.845
24800DA     SC261168  60.758  53.040  37.871
24800DA     SC361169  60.818  53.239  37.720
24800DA     SC461170  61.054  53.090  37.749
24801DT     BB161171  61.144  52.496  37.806
24801DT     BB261172  60.792  52.461  37.881
24801DT     BB361173  60.683  52.452  37.705
24801DT     SC161174  60.713  52.709  37.664
24801DT     SC261175  60.524  52.808  37.690
24801DT     SC361176  60.787  52.935  37.550
24802DG     BB161177  60.583  52.072  37.843
24802DG     BB261178  60.283  52.254  37.753
24802DG     BB361179  60.248  52.235  37.558
24802DG     SC161180  60.412  52.481  37.480
24802DG     SC261181  60.304  52.734  37.363
24802DG     SC361182  60.600  52.733  37.356
24802DG     SC461183  60.569  52.464  37.450
24803DT     BB161184  60.053  52.118  37.428
24803DT     BB261185  59.865  52.409  37.328
24803DT     BB361186  59.876  52.434  37.123
24803DT     SC161187  60.123  52.522  37.139
24803DT     SC261188  60.127  52.731  37.090
24803DT     SC361189  60.384  52.535  37.107
24804DT     BB161190  59.611  52.347  37.063
24804DT     BB261191  59.626  52.680  36.927
24804DT     BB361192  59.683  52.673  36.728
24804DT     SC161193  59.932  52.622  36.794
24804DT     SC261194  60.055  52.793  36.747
24804DT     SC361195  60.162  52.495  36.816
24805DA     BB161196  59.330  52.897  36.739
24805DA     BB261197  59.579  53.092  36.554
24805DA     BB361198  59.607  53.010  36.359
24805DA     SC161199  59.837  52.819  36.445
24805DA     SC261200  60.083  52.798  36.409
24805DA     SC361201  60.052  52.553  36.479
24805DA     SC461202  59.797  52.670  36.490
24806DC     BB161203  59.552  53.122  36.202
24806DC     BB261204  59.885  53.216  36.100
24806DC     BB361205  59.939  53.111  35.930
24806DC     SC161206  59.976  52.891  36.069
24806DC     SC261207  60.186  52.846  36.075
24806DC     SC361208  59.945  52.644  36.155
24807DT     BB161209  59.917  53.340  35.790
24807DT     BB261210  60.257  53.232  35.737
24807DT     BB361211  60.265  53.098  35.580
24807DT     SC161212  60.161  52.907  35.726
24807DT     SC261213  60.310  52.757  35.765
24807DT     SC361214  59.991  52.724  35.811
24808DT     BB161215  60.386  53.289  35.433
24808DT     BB261216  60.616  53.011  35.432
24808DT     BB361217  60.568  52.879  35.280
24808DT     SC161218  60.361  52.788  35.414
24808DT     SC261219  60.400  52.586  35.476
24808DT     SC361220  60.111  52.733  35.477
24809DT     BB161221  60.789  52.961  35.152
24809DT     BB261222  60.829  52.605  35.189
24809DT     BB361223  60.734  52.506  35.034
24809DT     SC161224  60.498  52.553  35.139
24809DT     SC261225  60.414  52.368  35.210
24809DT     SC361226  60.253  52.646  35.167
24810DT     BB161227  60.977  52.446  34.944
24810DT     BB261228  60.814  52.128  34.994
24810DT     BB361229  60.699  52.081  34.828
24810DT     SC161230  60.516  52.256  34.895
24810DT     SC261231  60.338  52.153  34.956
24810DT     SC361232  60.359  52.468  34.884
24811DA     BB161233  60.945  51.756  34.924
24811DA     BB261234  60.604  51.631  34.879
24811DA     BB361235  60.550  51.634  34.672
24811DA     SC161236  60.431  51.921  34.682
24811DA     SC261237  60.206  52.028  34.667
24811DA     SC361238  60.335  52.242  34.609
24811DA     SC461239  60.529  52.043  34.647
24812DA     BB161240  60.482  51.325  34.755
24812DA     BB261241  60.137  51.397  34.657
24812DA     BB361242  60.121  51.410  34.444
24812DA     SC161243  60.176  51.716  34.434
24812DA     SC261244  60.048  51.925  34.383
24812DA     SC361245  60.279  52.032  34.346
24812DA     SC461246  60.328  51.764  34.414
24813DA     BB161247  59.887  51.192  34.512
24813DA     BB261248  59.652  51.429  34.360
24813DA     BB361249  59.676  51.430  34.147
24813DA     SC161250  59.887  51.658  34.148
24813DA     SC261251  59.900  51.897  34.078
24813DA     SC361252  60.154  51.862  34.079
24813DA     SC461253  60.042  51.616  34.153
24814DA     BB161254  59.354  51.376  34.175
24814DA     BB261255  59.307  51.687  33.987
24814DA     BB361256  59.358  51.658  33.782
24814DA     SC161257  59.656  51.739  33.818
24814DA     SC261258  59.805  51.928  33.753
24814DA     SC361259  59.998  51.764  33.796
24814DA     SC461260  59.762  51.622  33.849
24815DT     BB161261  59.211  51.674  33.655
24815DT     BB261262  59.305  51.992  33.514
24815DT     BB361263  59.394  51.964  33.329
24815DT     SC161264  59.615  51.878  33.440
24815DT     SC261265  59.771  52.023  33.411
24815DT     SC361266  59.813  51.716  33.506
24816DG     BB161267  59.075  52.212  33.276
24816DG     BB261268  59.375  52.351  33.131
24816DG     BB361269  59.414  52.262  32.958
24816DG     SC161270  59.586  52.041  33.082
24816DG     SC261271  59.879  52.004  33.043
24816DG     SC361272  59.762  51.773  33.187
24816DG     SC461273  59.515  51.906  33.132
24817DA     BB161274  59.435  52.583  32.826
24817DA     BB261275  59.778  52.516  32.717
24817DA     BB361276  59.778  52.389  32.545
24817DA     SC161277  59.793  52.126  32.711
24817DA     SC261278  59.958  51.944  32.755
24817DA     SC361279  59.756  51.805  32.827
24817DA     SC461280  59.654  52.054  32.750
24818DA     BB161281  59.962  52.630  32.415
24818DA     BB261282  60.228  52.381  32.369
24818DA     BB361283  60.182  52.254  32.204
24818DA     SC161284  60.031  52.044  32.376
24818DA     SC261285  60.066  51.809  32.454
24818DA     SC361286  59.812  51.806  32.492
24818DA     SC461287  59.872  52.061  32.392
24819DC     BB161288  60.296  52.255  32.021
24819DC     BB261289  60.465  51.940  32.070
24819DC     BB361290  60.387  51.797  31.942
24819DC     SC161291  60.169  51.775  32.088
24819DC     SC261292  60.168  51.583  32.185
24819DC     SC361293  59.915  51.783  32.157
24820DC     BB161294  60.605  51.793  31.760
24820DC     BB261295  60.572  51.448  31.860
24820DC     BB361296  60.445  51.349  31.730
24820DC     SC161297  60.234  51.464  31.835
24820DC     SC261298  60.119  51.318  31.943
24820DC     SC361299  60.018  51.614  31.857
24821DG     BB161300  60.792  51.135  31.681
24821DG     BB261301  60.516  50.914  31.759
24821DG     BB361302  60.413  50.873  31.595
24821DG     SC161303  60.222  51.110  31.626
24821DG     SC261304  59.929  51.093  31.682
24821DG     SC361305  60.009  51.371  31.618
24821DG     SC461306  60.263  51.251  31.562
24822DC     BB161307  60.390  50.658  31.495
24822DC     BB261308  60.053  50.575  31.594
24822DC     BB361309  59.927  50.585  31.431
24822DC     SC161310  59.930  50.848  31.434
24822DC     SC261311  59.737  50.921  31.495
24822DC     SC361312  59.972  51.096  31.357
24823DA     BB161313  59.864  50.206  31.599
24823DA     BB261314  59.536  50.361  31.550
24823DA     BB361315  59.482  50.357  31.343
24823DA     SC161316  59.609  50.635  31.281
24823DA     SC261317  59.530  50.864  31.222
24823DA     SC361318  59.768  50.901  31.133
24823DA     SC461319  59.761  50.637  31.230
24824DT     BB161320  59.323  50.242  31.281
24824DT     BB261321  59.092  50.514  31.227
24824DT     BB361322  59.067  50.547  31.024
24824DT     SC161323  59.303  50.661  31.006
24824DT     SC261324  59.278  50.871  30.969
24824DT     SC361325  59.553  50.704  30.935
24825DG     BB161326  58.693  50.464  31.165
24825DG     BB261327  58.697  50.775  30.980
24825DG     BB361328  58.693  50.737  30.785
24825DG     SC161329  58.998  50.724  30.756
24825DG     SC261330  59.168  50.918  30.604
24825DG     SC361331  59.326  50.683  30.692
24825DG     SC461332  59.072  50.584  30.778
24826DA     BB161333  58.419  50.951  30.756
24826DA     BB261334  58.609  51.168  30.530
24826DA     BB361335  58.613  51.084  30.333
24826DA     SC161336  58.876  50.924  30.381
24826DA     SC261337  59.113  50.932  30.304
24826DA     SC361338  59.124  50.687  30.380
24826DA     SC461339  58.862  50.773  30.433
24827DA     BB161340  58.492  51.377  30.248
24827DA     BB261341  58.798  51.425  30.051
24827DA     BB361342  58.786  51.316  29.868
24827DA     SC161343  58.916  51.059  29.984
24827DA     SC261344  59.130  50.933  29.960
24827DA     SC361345  59.000  50.734  30.057
24827DA     SC461346  58.818  50.947  30.044
24828DT     BB161347  58.780  51.421  29.694
24828DT     BB261348  59.122  51.356  29.599
24828DT     BB361349  59.127  51.219  29.443
24828DT     SC161350  59.069  51.021  29.605
24828DT     SC261351  59.240  50.893  29.626
24828DT     SC361352  58.937  50.821  29.715
24829DC     BB161353  59.208  51.425  29.300
24829DC     BB261354  59.472  51.181  29.277
24829DC     BB361355  59.428  51.042  29.130
24829DC     SC161356  59.249  50.926  29.283
24829DC     SC261357  59.321  50.732  29.341
24829DC     SC361358  59.016  50.838  29.369
24830DA     BB161359  59.819  51.199  29.121
24830DA     BB261360  59.835  50.833  29.097
24830DA     BB361361  59.754  50.767  28.912
24830DA     SC161362  59.465  50.735  29.022
24830DA     SC261363  59.307  50.549  29.074
24830DA     SC361364  59.124  50.728  29.060
24830DA     SC461365  59.365  50.860  29.008
24831DT     BB161366  59.886  50.694  28.839
24831DT     BB261367  59.772  50.353  28.867
24831DT     BB361368  59.665  50.300  28.698
24831DT     SC161369  59.458  50.442  28.776
24831DT     SC261370  59.297  50.309  28.830
24831DT     SC361371  59.271  50.628  28.779
24832DG     BB161372  59.971  50.039  28.766
24832DG     BB261373  59.657  49.868  28.713
24832DG     BB361374  59.606  49.877  28.521
24832DG     SC161375  59.451  50.139  28.547
24832DG     SC261376  59.157  50.173  28.514
24832DG     SC361377  59.291  50.436  28.536
24832DG     SC461378  59.530  50.278  28.530
24833DC     BB161379  59.589  49.694  28.403
24833DC     BB261380  59.233  49.665  28.360
24833DC     BB361381  59.179  49.730  28.171
24833DC     SC161382  59.212  49.981  28.240
24833DC     SC261383  59.021  50.079  28.248
24833DC     SC361384  59.310  50.226  28.245
24834DT     BB161385  59.132  49.474  28.078
24834DT     BB261386  58.822  49.648  28.016
24834DT     BB361387  58.828  49.739  27.830
24834DT     SC161388  58.988  49.927  27.918
24834DT     SC261389  58.882  50.114  27.925
24834DT     SC361390  59.203  50.077  27.946
24835DC     BB161391  58.654  49.556  27.714
24835DC     BB261392  58.495  49.875  27.660
24835DC     BB361393  58.560  49.957  27.481
24835DC     SC161394  58.793  50.020  27.586
24835DC     SC261395  58.807  50.234  27.604
24835DC     SC361396  59.053  50.024  27.627
24836DA     BB161397  58.142  49.961  27.475
24836DA     BB261398  58.259  50.297  27.390
24836DA     BB361399  58.339  50.300  27.191
24836DA     SC161400  58.629  50.234  27.281
24836DA     SC261401  58.849  50.351  27.292
24836DA     SC361402  58.951  50.115  27.301
24836DA     SC461403  58.673  50.080  27.284
24837DC     BB161404  58.239  50.408  27.078
24837DC     BB261405  58.475  50.681  27.063
24837DC     BB361406  58.584  50.670  26.888
24837DC     SC161407  58.727  50.470  26.979
24837DC     SC261408  58.928  50.536  27.014
24837DC     SC361409  58.829  50.228  27.002
24838DT     BB161410  58.447  50.885  26.838
24838DT     BB261411  58.794  50.982  26.814
24838DT     BB361412  58.872  50.924  26.632
24838DT     SC161413  58.883  50.673  26.708
24838DT     SC261414  59.088  50.615  26.731
24838DT     SC361415  58.834  50.414  26.716
24839DG     BB161416  58.925  51.322  26.705
24839DG     BB261417  59.232  51.160  26.606
24839DG     BB361418  59.226  51.117  26.412
24839DG     SC161419  59.101  50.841  26.451
24839DG     SC261420  59.233  50.579  26.393
24839DG     SC361421  58.946  50.541  26.456
24839DG     SC461422  58.942  50.828  26.456
24840DA     BB161423  59.538  51.275  26.405
24840DA     BB261424  59.685  50.974  26.257
24840DA     BB361425  59.620  50.951  26.055
24840DA     SC161426  59.372  50.778  26.130
24840DA     SC261427  59.298  50.541  26.105
24840DA     SC361428  59.061  50.633  26.144
24840DA     SC461429  59.233  50.855  26.155
24841DA     BB161430  59.942  50.941  25.958
24841DA     BB261431  59.880  50.608  25.819
24841DA     BB361432  59.782  50.623  25.630
24841DA     SC161433  59.495  50.613  25.750
24841DA     SC261434  59.302  50.455  25.755
24841DA     SC361435  59.161  50.660  25.816
24841DA     SC461436  59.424  50.753  25.786
24842DT     BB161437  59.868  50.574  25.416
24842DT     BB261438  59.683  50.268  25.365
24842DT     BB361439  59.543  50.294  25.215
24842DT     SC161440  59.388  50.435  25.373
24842DT     SC261441  59.211  50.322  25.418
24842DT     SC361442  59.253  50.639  25.470
24843DT     BB161443  59.679  50.149  25.006
24843DT     BB261444  59.357  49.986  25.026
24843DT     BB361445  59.226  50.071  24.890
24843DT     SC161446  59.197  50.285  25.040
24843DT     SC261447  58.999  50.288  25.122
24843DT     SC361448  59.206  50.537  25.117
24844DA     BB161449  59.214  49.661  24.806
24844DA     BB261450  58.868  49.776  24.841
24844DA     BB361451  58.807  49.883  24.667
24844DA     SC161452  58.897  50.160  24.775
24844DA     SC261453  58.790  50.372  24.853
24844DA     SC361454  59.019  50.480  24.808
24844DA     SC461455  59.046  50.209  24.740
24845DG     BB161456  58.593  49.660  24.649
24845DG     BB261457  58.366  49.936  24.706
24845DG     BB361458  58.329  50.030  24.535
24845DG     SC161459  58.563  50.226  24.563
24845DG     SC261460  58.541  50.521  24.604
24845DG     SC361461  58.821  50.442  24.553
24845DG     SC461462  58.707  50.184  24.507
24846DA     BB161463  57.997  49.990  24.620
24846DA     BB261464  57.950  50.353  24.610
24846DA     BB361465  57.944  50.422  24.408
24846DA     SC161466  58.251  50.473  24.391
24846DA     SC261467  58.405  50.668  24.376
24846DA     SC361468  58.576  50.500  24.286
24846DA     SC461469  58.343  50.353  24.335
24847DA     BB161470  57.661  50.555  24.511
24847DA     BB261471  57.802  50.881  24.422
24847DA     BB361472  57.802  50.908  24.210
24847DA     SC161473  58.086  50.787  24.170
24847DA     SC261474  58.313  50.867  24.106
24847DA     SC361475  58.361  50.622  24.049
24847DA     SC461476  58.096  50.630  24.139
24848DT     BB161477  57.675  51.053  24.108
24848DT     BB261478  57.936  51.287  24.024
24848DT     BB361479  57.974  51.281  23.820
24848DT     SC161480  58.101  51.052  23.843
24848DT     SC261481  58.310  51.083  23.806
24848DT     SC361482  58.159  50.796  23.814
24849DT     BB161483  57.843  51.526  23.748
24849DT     BB261484  58.178  51.568  23.620
24849DT     BB361485  58.186  51.506  23.422
24849DT     SC161486  58.179  51.253  23.494
24849DT     SC261487  58.369  51.162  23.454
24849DT     SC361488  58.093  51.005  23.520
24850DT     BB161489  58.197  51.765  23.299
24850DT     BB261490  58.495  51.600  23.179
24850DT     BB361491  58.456  51.508  22.998
24850DT     SC161492  58.322  51.315  23.116
24850DT     SC261493  58.433  51.132  23.102
24850DT     SC361494  58.121  51.159  23.185
24851DC     BB161495  58.599  51.694  22.843
24851DC     BB261496  58.758  51.379  22.768
24851DC     BB361497  58.669  51.292  22.603
24851DC     SC161498  58.457  51.224  22.742
24851DC     SC261499  58.452  51.010  22.765
24851DC     SC361500  58.207  51.213  22.824
24852DA     BB161501  59.082  51.300  22.542
24852DA     BB261502  58.965  50.960  22.473
24852DA     BB361503  58.860  50.953  22.287
24852DA     SC161504  58.582  51.011  22.415
24852DA     SC261505  58.368  50.888  22.456
24852DA     SC361506  58.263  51.121  22.478
24852DA     SC461507  58.534  51.165  22.423
24853DT     BB161508  58.944  50.848  22.146
24853DT     BB261509  58.715  50.569  22.156
24853DT     BB361510  58.583  50.580  21.997
24853DT     SC161511  58.449  50.774  22.111
24853DT     SC261512  58.255  50.702  22.170
24853DT     SC361513  58.345  51.013  22.152
24854DG     BB161514  58.772  50.220  21.961
24854DG     BB261515  58.413  50.180  21.945
24854DG     BB361516  58.347  50.229  21.764
24854DG     SC161517  58.304  50.524  21.832
24854DG     SC261518  58.041  50.664  21.846
24854DG     SC361519  58.265  50.857  21.866
24854DG     SC461520  58.426  50.627  21.813
24855DC     BB161521  58.244  50.081  21.608
24855DC     BB261522  57.900  50.185  21.631
24855DC     BB361523  57.846  50.289  21.460
24855DC     SC161524  57.981  50.501  21.537
24855DC     SC261525  57.843  50.658  21.587
24855DC     SC361526  58.162  50.693  21.539
24856DT     BB161527  57.688  50.083  21.334
24856DT     BB261528  57.461  50.362  21.355
24856DT     BB361529  57.468  50.472  21.180
24856DT     SC161530  57.700  50.576  21.245
24856DT     SC261531  57.675  50.785  21.288
24856DT     SC361532  57.957  50.634  21.236
24857DT     BB161533  57.216  50.385  21.072
24857DT     BB261534  57.184  50.744  21.093
24857DT     BB361535  57.238  50.831  20.913
24857DT     SC161536  57.493  50.788  20.961
24857DT     SC261537  57.591  50.976  20.996
24857DT     SC361538  57.738  50.694  20.935
24858DA     BB161539  56.862  50.974  21.018
24858DA     BB261540  57.080  51.262  20.952
24858DA     BB361541  57.109  51.287  20.742
24858DA     SC161542  57.363  51.108  20.732
24858DA     SC261543  57.608  51.137  20.696
24858DA     SC361544  57.609  50.886  20.640
24858DA     SC461545  57.343  50.952  20.699
24859DA     BB161546  57.020  51.558  20.887
24859DA     BB261547  57.343  51.688  20.772
24859DA     BB361548  57.344  51.706  20.560
24859DA     SC161549  57.455  51.420  20.511
24859DA     SC261550  57.667  51.315  20.431
24859DA     SC361551  57.523  51.107  20.386
24859DA     SC461552  57.349  51.301  20.489
24860DG     BB161553  57.423  51.944  20.741
24860DG     BB261554  57.732  51.897  20.559
24860DG     BB361555  57.703  51.933  20.366
24860DG     SC161556  57.627  51.645  20.298
24860DG     SC261557  57.785  51.457  20.127
24860DG     SC361558  57.520  51.343  20.191
24860DG     SC461559  57.474  51.600  20.309
24861DA     BB161560  58.002  52.077  20.483
24861DA     BB261561  58.166  51.916  20.197
24861DA     BB361562  58.082  51.986  20.014
24861DA     SC161563  57.866  51.762  20.000
24861DA     SC261564  57.818  51.560  19.861
24861DA     SC361565  57.578  51.582  19.949
24861DA     SC461566  57.723  51.793  20.065
24862DT     BB161567  58.211  52.064  19.938
24862DT     BB261568  58.253  51.840  19.659
24862DT     BB361569  58.132  51.900  19.501
24862DT     SC161570  57.917  51.810  19.621
24862DT     SC261571  57.843  51.638  19.515
24862DT     SC361572  57.681  51.808  19.738
24863DA     BB161573  58.516  51.869  19.328
24863DA     BB261574  58.278  51.715  19.095
24863DA     BB361575  58.162  51.865  18.997
24863DA     SC161576  57.936  51.864  19.210
24863DA     SC261577  57.697  51.792  19.225
24863DA     SC361578  57.684  51.951  19.427
24863DA     SC461579  57.947  51.968  19.332
24864DT     BB161580  58.169  51.939  18.768
24864DT     BB261581  57.854  51.795  18.664
24864DT     BB361582  57.717  51.945  18.625
24864DT     SC161583  57.683  51.992  18.881
24864DT     SC261584  57.486  51.929  18.939
24864DT     SC361585  57.684  52.119  19.112
24865DG     BB161586  57.727  51.794  18.237
24865DG     BB261587  57.384  51.817  18.351
24865DG     BB361588  57.314  52.000  18.315
24865DG     SC161589  57.403  52.113  18.585
24865DG     SC261590  57.224  52.205  18.805
24865DG     SC361591  57.505  52.276  18.862
24865DG     SC461592  57.550  52.176  18.598
24866DA     BB161593  57.028  51.896  18.125
24866DA     BB261594  56.801  52.035  18.378
24866DA     BB361595  56.768  52.242  18.342
24866DA     SC161596  57.004  52.337  18.520
24866DA     SC261597  57.036  52.454  18.738
24866DA     SC361598  57.273  52.505  18.652
24866DA     SC461599  57.147  52.359  18.449
24867DA     BB161600  56.448  52.164  18.339
24867DA     BB261601  56.410  52.373  18.637
24867DA     BB361602  56.395  52.578  18.583
24867DA     SC161603  56.701  52.631  18.599
24867DA     SC261604  56.859  52.757  18.745
24867DA     SC361605  57.022  52.743  18.547
24867DA     SC461606  56.787  52.613  18.464
24868DT     BB161607  56.224  52.663  18.624
24868DT     BB261608  56.341  52.847  18.912
24868DT     BB361609  56.363  53.047  18.864
24868DT     SC161610  56.583  52.997  18.728
24868DT     SC261611  56.751  53.080  18.834
24868DT     SC361612  56.750  52.979  18.526
24869DA     BB161613  56.154  52.978  19.221
24869DA     BB261614  56.414  53.228  19.283
24869DA     BB361615  56.367  53.410  19.183
24869DA     SC161616  56.519  53.335  18.922
24869DA     SC261617  56.725  53.407  18.801
24869DA     SC361618  56.617  53.298  18.595
24869DA     SC461619  56.435  53.263  18.805
24870DT     BB161620  56.352  53.519  19.311
24870DT     BB261621  56.652  53.709  19.250
24870DT     BB361622  56.610  53.870  19.126
24870DT     SC161623  56.592  53.714  18.916
24870DT     SC261624  56.758  53.752  18.785
24870DT     SC361625  56.488  53.589  18.708
24871DA     BB161626  56.831  53.992  19.463
24871DA     BB261627  56.976  54.151  19.166
24871DA     BB361628  56.843  54.299  19.088
24871DA     SC161629  56.696  54.102  18.897
24871DA     SC261630  56.679  54.062  18.651
24871DA     SC361631  56.463  53.936  18.708
24871DA     SC461632  56.564  54.029  18.952
24872DA     BB161633  57.116  54.482  19.114
24872DA     BB261634  57.083  54.550  18.755
24872DA     BB361635  56.921  54.684  18.720
24872DA     SC161636  56.710  54.458  18.684
24872DA     SC261637  56.573  54.360  18.500
24872DA     SC361638  56.423  54.270  18.687
24872DA     SC461639  56.628  54.412  18.815
24873DA     BB161640  57.143  54.873  18.559
24873DA     BB261641  56.933  54.843  18.259
24873DA     BB361642  56.764  54.972  18.274
24873DA     SC161643  56.582  54.758  18.408
24873DA     SC261644  56.382  54.622  18.348
24873DA     SC361645  56.350  54.595  18.601
24873DA     SC461646  56.578  54.754  18.569
24874DA     BB161647  56.852  55.113  17.982
24874DA     BB261648  56.530  55.006  17.844
24874DA     BB361649  56.375  55.141  17.903
24874DA     SC161650  56.303  54.983  18.161
24874DA     SC261651  56.114  54.844  18.246
24874DA     SC361652  56.209  54.892  18.479
24874DA     SC461653  56.377  55.025  18.298
24875DT     BB161654  56.260  55.287  17.767
24875DT     BB261655  55.949  55.104  17.761
24875DT     BB361656  55.803  55.209  17.864
24875DT     SC161657  55.910  55.143  18.095
24875DT     SC261658  55.779  55.006  18.197
24875DT     SC361659  56.027  55.167  18.330
24876DG     BB161660  55.633  55.195  17.490
24876DG     BB261661  55.399  55.075  17.739
24876DG     BB361662  55.307  55.229  17.824
24876DG     SC161663  55.515  55.263  18.046
24876DG     SC261664  55.470  55.215  18.338
24876DG     SC361665  55.733  55.342  18.291
24876DG     SC461666  55.641  55.357  18.020
24877DT     BB161667  55.063  55.291  17.815
24877DT     BB261668  54.957  55.190  18.145
24877DT     BB361669  54.914  55.356  18.260
24877DT     SC161670  55.169  55.411  18.290
24877DT     SC261671  55.225  55.376  18.495
24877DT     SC361672  55.398  55.541  18.275
24878DA     BB161673  54.556  55.136  18.290
24878DA     BB261674  54.654  55.228  18.631
24878DA     BB361675  54.603  55.431  18.671
24878DA     SC161676  54.878  55.543  18.575
24878DA     SC261677  55.079  55.650  18.677
24878DA     SC361678  55.128  55.735  18.440
24878DA     SC461679  54.890  55.588  18.421
24879DA     BB161680  54.428  55.325  18.934
24879DA     BB261681  54.659  55.514  19.147
24879DA     BB361682  54.603  55.719  19.154
24879DA     SC161683  54.780  55.801  18.911
24879DA     SC261684  54.986  55.934  18.870
24879DA     SC361685  54.905  55.946  18.627
24879DA     SC461686  54.712  55.798  18.765
24880DT     BB161687  54.526  55.822  19.337
24880DT     BB261688  54.832  55.998  19.410
24880DT     BB361689  54.806  56.201  19.378
24880DT     SC161690  54.813  56.169  19.118
24880DT     SC261691  54.994  56.255  19.040
24880DT     SC361692  54.736  56.168  18.865
24881DG     BB161693  54.923  56.149  19.764
24881DG     BB261694  55.141  56.378  19.588
24881DG     BB361695  55.055  56.557  19.574
24881DG     SC161696  54.915  56.496  19.308
24881DG     SC261697  54.975  56.626  19.046
24881DG     SC361698  54.732  56.458  19.028
24881DG     SC461699  54.770  56.430  19.311
24882DG     BB161700  55.326  56.653  19.722
24882DG     BB261701  55.389  56.840  19.420
24882DG     BB361702  55.281  57.007  19.419
24882DG     SC161703  55.040  56.880  19.281
24882DG     SC261704  54.940  56.945  19.007
24882DG     SC361705  54.750  56.769  19.149
24882DG     SC461706  54.927  56.811  19.371
24883DA     BB161707  55.592  57.134  19.344
24883DA     BB261708  55.453  57.268  19.032
24883DA     BB361709  55.323  57.432  19.073
24883DA     SC161710  55.068  57.255  19.096
24883DA     SC261711  54.859  57.215  18.966
24883DA     SC361712  54.765  57.120  19.185
24883DA     SC461713  55.028  57.201  19.242
24884DG     BB161714  55.535  57.556  18.888
24884DG     BB261715  55.248  57.596  18.672
24884DG     BB361716  55.137  57.749  18.735
24884DG     SC161717  54.964  57.577  18.920
24884DG     SC261718  54.672  57.521  18.885
24884DG     SC361719  54.768  57.424  19.148
24884DG     SC461720  55.011  57.554  19.071
24885DT     BB161721  55.114  57.905  18.602
24885DT     BB261722  54.772  57.863  18.494
24885DT     BB361723  54.648  57.992  18.599
24885DT     SC161724  54.664  57.843  18.815
24885DT     SC261725  54.474  57.749  18.851
24885DT     SC361726  54.719  57.770  19.063
24886DT     BB161727  54.624  58.122  18.371
24886DT     BB261728  54.287  58.036  18.467
24886DT     BB361729  54.215  58.173  18.604
24886DT     SC161730  54.363  58.071  18.795
24886DT     SC261731  54.236  57.973  18.939
24886DT     SC361732  54.547  58.052  18.983
24887DT     BB161733  54.055  58.262  18.410
24887DT     BB261734  53.834  58.171  18.680
24887DT     BB361735  53.820  58.326  18.816
24887DT     SC161736  54.059  58.275  18.911
24887DT     SC261737  54.041  58.197  19.111
24887DT     SC361738  54.314  58.305  18.974
24888DT     BB161739  53.573  58.360  18.727
24888DT     BB261740  53.539  58.307  19.082
24888DT     BB361741  53.571  58.484  19.183
24888DT     SC161742  53.830  58.469  19.143
24888DT     SC261743  53.929  58.430  19.330
24888DT     SC361744  54.071  58.530  19.057
24889DG     BB161745  53.203  58.339  19.283
24889DG     BB261746  53.402  58.414  19.576
24889DG     BB361747  53.408  58.611  19.605
24889DG     SC161748  53.658  58.654  19.434
24889DG     SC261749  53.926  58.740  19.533
24889DG     SC361750  53.918  58.740  19.237
24889DG     SC461751  53.640  58.680  19.277
24890DT     BB161752  53.327  58.688  19.785
24890DT     BB261753  53.624  58.779  19.969
24890DT     BB361754  53.658  58.982  19.953
24890DT     SC161755  53.743  58.956  19.706
24890DT     SC261756  53.954  58.996  19.699
24890DT     SC361757  53.755  58.982  19.444
24891DA     BB161758  53.662  58.903  20.365
24891DA     BB261759  53.956  59.109  20.290
24891DA     BB361760  53.898  59.311  20.254
24891DA     SC161761  53.861  59.273  19.948
24891DA     SC261762  53.974  59.345  19.738
24891DA     SC361763  53.752  59.289  19.623
24891DA     SC461764  53.714  59.234  19.895
24892DT     BB161765  53.949  59.476  20.388
24892DT     BB261766  54.199  59.630  20.178
24892DT     BB361767  54.126  59.807  20.100
24892DT     SC161768  53.972  59.679  19.930
24892DT     SC261769  54.047  59.707  19.731
24892DT     SC361770  53.755  59.592  19.809
24893DT     BB161771  54.277  59.980  20.268
24893DT     BB261772  54.363  60.089  19.934
24893DT     BB361773  54.234  60.240  19.874
24893DT     SC161774  54.039  60.068  19.835
24893DT     SC261775  54.000  60.052  19.625
24893DT     SC361776  53.807  59.946  19.863
24894DC     BB161777  54.415  60.463  19.904
24894DC     BB261778  54.309  60.485  19.560
24894DC     BB361779  54.146  60.612  19.544
24894DC     SC161780  53.986  60.430  19.647
24894DC     SC261781  53.852  60.359  19.494
24894DC     SC361782  53.819  60.312  19.813
24895DC     BB161783  54.281  60.839  19.429
24895DC     BB261784  54.021  60.763  19.190
24895DC     BB361785  53.853  60.876  19.230
24895DC     SC161786  53.792  60.727  19.437
24895DC     SC261787  53.615  60.613  19.393
24895DC     SC361788  53.746  60.656  19.686
24896DA     BB161789  53.940  60.950  18.827
24896DA     BB261790  53.588  60.850  18.848
24896DA     BB361791  53.469  61.012  18.921
24896DA     SC161792  53.497  60.929  19.219
24896DA     SC261793  53.352  60.837  19.400
24896DA     SC361794  53.529  60.929  19.561
24896DA     SC461795  53.618  60.995  19.303
24897DA     BB161796  53.315  60.934  18.647
24897DA     BB261797  53.029  60.847  18.859
24897DA     BB361798  52.931  61.023  18.928
24897DA     SC161799  53.102  61.046  19.188
24897DA     SC261800  53.068  61.018  19.433
24897DA     SC361801  53.282  61.159  19.457
24897DA     SC461802  53.235  61.136  19.182
24898DA     BB161803  52.712  60.825  18.799
24898DA     BB261804  52.559  60.823  19.132
24898DA     BB361805  52.473  61.014  19.175
24898DA     SC161806  52.731  61.128  19.307
24898DA     SC261807  52.808  61.193  19.535
24898DA     SC361808  52.987  61.331  19.413
24898DA     SC461809  52.833  61.208  19.213
24899DG     BB161810  52.267  60.790  19.202
24899DG     BB261811  52.269  60.907  19.544
24899DG     BB361812  52.180  61.085  19.555
24899DG     SC161813  52.438  61.243  19.508
24899DG     SC261814  52.575  61.420  19.707
24899DG     SC361815  52.698  61.447  19.439
24899DG     SC461816  52.482  61.277  19.358
24900DT     BB161817  52.049  61.057  19.676
24900DT     BB261818  52.153  61.251  19.962
24900DT     BB361819  52.086  61.446  19.942
24900DT     SC161820  52.269  61.499  19.761
24900DT     SC261821  52.414  61.634  19.844
24900DT     SC361822  52.378  61.563  19.530
24901DT     BB161823  51.938  61.369  20.140
24901DT     BB261824  52.106  61.667  20.254
24901DT     BB361825  52.013  61.835  20.175
24901DT     SC161826  52.119  61.791  19.939
24901DT     SC261827  52.266  61.943  19.897
24901DT     SC361828  52.137  61.738  19.681
24902DA     BB161829  52.054  61.887  20.591
24902DA     BB261830  52.158  62.197  20.426
24902DA     BB361831  51.989  62.296  20.342
24902DA     SC161832  52.013  62.155  20.065
24902DA     SC261833  52.075  62.217  19.832
24902DA     SC361834  51.949  62.003  19.764
24902DA     SC461835  51.930  62.019  20.044
24903DG     BB161836  52.065  62.533  20.532
24903DG     BB261837  52.109  62.713  20.221
24903DG     BB361838  51.933  62.777  20.154
24903DG     SC161839  51.877  62.524  19.991
24903DG     SC261840  51.862  62.507  19.693
24903DG     SC361841  51.774  62.254  19.818
24903DG     SC461842  51.803  62.401  20.061
24904DG     BB161843  52.032  63.095  20.159
24904DG     BB261844  51.975  63.098  19.802
24904DG     BB361845  51.783  63.133  19.764
24904DG     SC161846  51.703  62.838  19.767
24904DG     SC261847  51.608  62.680  19.532
24904DG     SC361848  51.577  62.525  19.783
24904DG     SC461849  51.661  62.770  19.906
24905DT     BB161850  51.695  63.323  19.654
24905DT     BB261851  51.604  63.186  19.334
24905DT     BB361852  51.398  63.167  19.321
24905DT     SC161853  51.399  62.958  19.480
24905DT     SC261854  51.348  62.783  19.367
24905DT     SC361855  51.353  62.806  19.690
24906DA     BB161856  51.484  63.397  18.977
24906DA     BB261857  51.263  63.124  18.871
24906DA     BB361858  51.062  63.164  18.930
24906DA     SC161859  51.088  63.020  19.205
24906DA     SC261860  51.001  62.813  19.314
24906DA     SC361861  51.061  62.929  19.535
24906DA     SC461862  51.131  63.109  19.332
24907DG     BB161863  50.947  63.176  18.625
24907DG     BB261864  50.758  62.884  18.724
24907DG     BB361865  50.583  62.939  18.802
24907DG     SC161866  50.689  62.959  19.089
24907DG     SC261867  50.611  62.783  19.317
24907DG     SC361868  50.775  63.010  19.410
24907DG     SC461869  50.752  63.097  19.139
24908DA     BB161870  50.358  62.751  18.583
24908DA     BB261871  50.234  62.553  18.866
24908DA     BB361872  50.073  62.655  18.963
24908DA     SC161873  50.256  62.806  19.164
24908DA     SC261874  50.304  62.802  19.409
24908DA     SC361875  50.397  63.039  19.373
24908DA     SC461876  50.308  62.952  19.122
24909DT     BB161877  49.818  62.602  18.979
24909DT     BB261878  49.840  62.474  19.316
24909DT     BB361879  49.730  62.593  19.444
24909DT     SC161880  49.912  62.782  19.438
24909DT     SC261881  50.010  62.793  19.629
24909DT     SC361882  50.025  63.016  19.394
24910DT     BB161883  49.499  62.417  19.492
24910DT     BB261884  49.649  62.462  19.817
24910DT     BB361885  49.553  62.615  19.918
24910DT     SC161886  49.671  62.797  19.770
24910DT     SC261887  49.813  62.906  19.890
24910DT     SC361888  49.703  62.995  19.599
24911DA     BB161889  49.571  62.275  20.155
24911DA     BB261890  49.722  62.552  20.341
24911DA     BB361891  49.571  62.683  20.414
24911DA     SC161892  49.575  62.866  20.163
24911DA     SC261893  49.646  63.098  20.104
24911DA     SC361894  49.489  63.073  19.902
24911DA     SC461895  49.471  62.832  20.044
24912DT     BB161896  49.598  62.670  20.578
24912DT     BB261897  49.757  62.991  20.618
24912DT     BB361898  49.617  63.134  20.670
24912DT     SC161899  49.523  63.142  20.425
24912DT     SC261900  49.574  63.330  20.335
24912DT     SC361901  49.356  63.119  20.222
24913DA     BB161902  49.986  63.127  20.881
24913DA     BB261903  49.907  63.472  20.782
24913DA     BB361904  49.732  63.539  20.882
24913DA     SC161905  49.537  63.444  20.659
24913DA     SC261906  49.390  63.547  20.486
24913DA     SC361907  49.269  63.320  20.483
24913DA     SC461908  49.475  63.296  20.673
24914DT     BB161909  49.785  63.670  20.979
24914DT     BB261910  49.623  63.937  20.798
24914DT     BB361911  49.436  63.974  20.880
24914DT     SC161912  49.337  63.757  20.773
24914DT     SC261913  49.198  63.811  20.617
24914DT     SC361914  49.227  63.518  20.752
24915DT     BB161915  49.539  64.202  20.975
24915DT     BB261916  49.246  64.304  20.792
24915DT     BB361917  49.077  64.284  20.910
24915DT     SC161918  49.080  64.023  20.884
24915DT     SC261919  48.912  63.962  20.764
24915DT     SC361920  49.096  63.767  20.946
24916DA     BB161921  49.054  64.686  20.786
24916DA     BB261922  48.722  64.539  20.737
24916DA     BB361923  48.622  64.519  20.925
24916DA     SC161924  48.728  64.231  20.978
24916DA     SC261925  48.637  63.999  20.986
24916DA     SC361926  48.847  63.943  21.122
24916DA     SC461927  48.864  64.217  21.062
24917DA     BB161928  48.362  64.702  20.811
24917DA     BB261929  48.148  64.408  20.858
24917DA     BB361930  48.086  64.393  21.062
24917DA     SC161931  48.327  64.217  21.148
24917DA     SC261932  48.367  63.981  21.219
24917DA     SC361933  48.585  64.070  21.320
24917DA     SC461934  48.457  64.291  21.205
24918DA     BB161935  47.769  64.393  20.958
24918DA     BB261936  47.739  64.054  21.093
24918DA     BB361937  47.701  64.061  21.303
24918DA     SC161938  48.001  64.053  21.383
24918DA     SC261939  48.160  63.894  21.491
24918DA     SC361940  48.305  64.100  21.537
24918DA     SC461941  48.077  64.194  21.403
24919DA     BB161942  47.446  63.876  21.219
24919DA     BB261943  47.596  63.610  21.421
24919DA     BB361944  47.559  63.644  21.628
24919DA     SC161945  47.819  63.808  21.673
24919DA     SC261946  48.037  63.781  21.791
24919DA     SC361947  48.053  64.036  21.779
24919DA     SC461948  47.810  63.968  21.656
24920DT     BB161949  47.457  63.509  21.695
24920DT     BB261950  47.723  63.342  21.873
24920DT     BB361951  47.716  63.392  22.074
24920DT     SC161952  47.814  63.631  22.025
24920DT     SC261953  48.014  63.643  22.105
24920DT     SC361954  47.832  63.893  22.009
24921DG     BB161955  47.721  62.993  21.989
24921DG     BB261956  47.979  63.088  22.223
24921DG     BB361957  47.898  63.132  22.399
24921DG     SC161958  47.858  63.429  22.335
24921DG     SC261959  47.998  63.657  22.465
24921DG     SC361960  47.780  63.754  22.290
24921DG     SC461961  47.722  63.475  22.264
24922DC     BB161962  47.975  63.017  22.529
24922DC     BB261963  48.183  63.240  22.721
24922DC     BB361964  48.076  63.315  22.882
24922DC     SC161965  47.940  63.477  22.726
24922DC     SC261966  47.999  63.680  22.764
24922DC     SC361967  47.736  63.586  22.600
24923DA     BB161968  48.454  63.169  22.999
24923DA     BB261969  48.401  63.497  23.154
24923DA     BB361970  48.247  63.486  23.301
24923DA     SC161971  48.019  63.557  23.102
24923DA     SC261972  47.864  63.747  23.059
24923DA     SC361973  47.720  63.575  22.934
24923DA     SC461974  47.943  63.435  23.030
24924DT     BB161975  48.306  63.516  23.478
24924DT     BB261976  48.156  63.841  23.525
24924DT     BB361977  47.979  63.823  23.632
24924DT     SC161978  47.854  63.725  23.423
24924DT     SC261979  47.710  63.869  23.352
24924DT     SC361980  47.723  63.557  23.268
24925DA     BB161981  48.207  64.114  23.830
24925DA     BB261982  47.867  64.246  23.790
24925DA     BB361983  47.733  64.146  23.923
24925DA     SC161984  47.658  63.923  23.719
24925DA     SC261985  47.460  63.856  23.585
24925DA     SC361986  47.573  63.626  23.570
24925DA     SC461987  47.744  63.788  23.723
24926DA     BB161988  47.662  64.455  24.018
24926DA     BB261989  47.317  64.388  23.911
24926DA     BB361990  47.218  64.264  24.053
24926DA     SC161991  47.299  63.998  23.914
24926DA     SC261992  47.188  63.815  23.786
24926DA     SC361993  47.394  63.675  23.848
24926DA     SC461994  47.435  63.927  23.964
24927DA     BB161995  46.995  64.508  24.049
24927DA     BB261996  46.752  64.260  23.932
24927DA     BB361997  46.690  64.135  24.093
24927DA     SC161998  46.912  63.922  24.045
24927DA     SC261999  46.927  63.687  23.965
24927DA     SC362000  47.154  63.682  24.084
24927DA     SC462001  47.049  63.939  24.127
24928DA     BB162002  46.390  64.231  23.994
24928DA     BB262003  46.318  63.877  23.928
24928DA     BB362004  46.284  63.773  24.111
24928DA     SC162005  46.582  63.693  24.150
24928DA     SC262006  46.720  63.485  24.143
24928DA     SC362007  46.890  63.618  24.281
24928DA     SC462008  46.674  63.792  24.237
24929DT     BB162009  46.096  63.698  24.153
24929DT     BB262010  46.176  63.350  24.098
24929DT     BB362011  46.190  63.251  24.279
24929DT     SC162012  46.423  63.361  24.330
24929DT     SC262013  46.576  63.211  24.319
24929DT     SC362014  46.608  63.506  24.448
24930DT     BB162015  45.951  63.120  24.240
24930DT     BB262016  46.190  62.855  24.293
24930DT     BB362017  46.208  62.815  24.496
24930DT     SC162018  46.347  63.034  24.535
24930DT     SC262019  46.551  62.981  24.582
24930DT     SC362020  46.415  63.273  24.624
24931DC     BB162021  46.059  62.570  24.498
24931DC     BB262022  46.376  62.477  24.642
24931DC     BB362023  46.367  62.491  24.848
24931DC     SC162024  46.378  62.753  24.839
24931DC     SC262025  46.567  62.819  24.916
24931DC     SC362026  46.306  63.005  24.866
24932DA     BB162027  46.504  62.102  24.774
24932DA     BB262028  46.731  62.253  25.020
24932DA     BB362029  46.640  62.256  25.213
24932DA     SC162030  46.513  62.538  25.175
24932DA     SC262031  46.544  62.768  25.266
24932DA     SC362032  46.306  62.811  25.182
24932DA     SC462033  46.363  62.545  25.117
24933DG     BB162034  46.882  62.080  25.292
24933DG     BB262035  46.964  62.365  25.500
24933DG     BB362036  46.863  62.355  25.671
24933DG     SC162037  46.621  62.511  25.566
24933DG     SC262038  46.534  62.782  25.656
24933DG     SC362039  46.332  62.660  25.478
24933DG     SC462040  46.502  62.431  25.495
24934DT     BB162041  46.974  62.341  25.853
24934DT     BB262042  46.935  62.671  25.992
24934DT     BB362043  46.793  62.668  26.143
24934DT     SC162044  46.597  62.650  25.969
24934DT     SC262045  46.485  62.833  25.969
24934DT     SC362046  46.390  62.552  25.838
24935DT     BB162047  46.996  62.704  26.312
24935DT     BB262048  46.769  62.975  26.383
24935DT     BB362049  46.623  62.912  26.515
24935DT     SC162050  46.500  62.776  26.327
24935DT     SC262051  46.313  62.872  26.280
24935DT     SC362052  46.401  62.572  26.192
24936DA     BB162053  46.783  63.262  26.682
24936DA     BB262054  46.418  63.289  26.703
24936DA     BB362055  46.343  63.160  26.855
24936DA     SC162056  46.303  62.917  26.665
24936DA     SC262057  46.112  62.790  26.565
24936DA     SC362058  46.284  62.603  26.528
24936DA     SC462059  46.424  62.812  26.651
24937DT     BB162060  46.253  63.227  27.051
24937DT     BB262061  45.910  63.141  26.978
24937DT     BB362062  45.853  62.977  27.091
24937DT     SC162063  45.992  62.814  26.940
24937DT     SC262064  45.857  62.689  26.827
24937DT     SC362065  46.175  62.638  26.867
24938DA     BB162066  45.547  63.242  27.227
24938DA     BB262067  45.378  62.929  27.139
24938DA     BB362068  45.397  62.787  27.297
24938DA     SC162069  45.659  62.662  27.186
24938DA     SC262070  45.732  62.447  27.083
24938DA     SC362071  45.969  62.517  27.152
24938DA     SC462072  45.799  62.723  27.239
24939DA     BB162073  45.056  62.736  27.355
24939DA     BB262074  45.097  62.387  27.248
24939DA     BB362075  45.149  62.264  27.414
24939DA     SC162076  45.456  62.299  27.375
24939DA     SC262077  45.650  62.160  27.304
24939DA     SC362078  45.794  62.336  27.423
24939DA     SC462079  45.528  62.419  27.455
24940DG     BB162080  44.879  62.075  27.411
24940DG     BB262081  45.110  61.816  27.309
24940DG     BB362082  45.170  61.713  27.468
24940DG     SC162083  45.410  61.894  27.526
24940DG     SC262084  45.698  61.816  27.503
24940DG     SC362085  45.670  62.082  27.631
24940DG     SC462086  45.390  62.021  27.620
24941DT     BB162087  45.130  61.483  27.496
24941DT     BB262088  45.454  61.355  27.402
24941DT     BB362089  45.553  61.284  27.569
24941DT     SC162090  45.604  61.527  27.653
24941DT     SC262091  45.815  61.565  27.635
24941DT     SC362092  45.603  61.742  27.805
24942DA     BB162093  45.554  61.006  27.255
24942DA     BB262094  45.898  61.054  27.370
24942DA     BB362095  45.925  60.964  27.562
24942DA     SC162096  45.850  61.221  27.720
24942DA     SC262097  45.965  61.390  27.864
24942DA     SC362098  45.730  61.444  27.952
24942DA     SC462099  45.696  61.240  27.763
24943DT     BB162100  46.046  60.832  27.546
24943DT     BB262101  46.319  61.006  27.704
24943DT     BB362102  46.333  60.949  27.903
24943DT     SC162103  46.123  61.092  27.968
24943DT     SC262104  46.185  61.259  28.088
24943DT     SC362105  45.881  61.152  28.052
24944DT     BB162106  46.553  60.840  27.814
24944DT     BB262107  46.654  61.068  28.075
24944DT     BB362108  46.623  60.982  28.260
24944DT     SC162109  46.364  61.018  28.243
24944DT     SC262110  46.303  61.168  28.385
24944DT     SC362111  46.106  60.964  28.228
24945DA     BB162112  47.008  61.148  28.223
24945DA     BB262113  46.861  61.261  28.539
24945DA     BB362114  46.845  61.098  28.676
24945DA     SC162115  46.559  61.018  28.585
24945DA     SC262116  46.327  61.023  28.678
24945DA     SC362117  46.274  60.845  28.502
24945DA     SC462118  46.546  60.907  28.470
24946DT     BB162119  46.951  61.128  28.820
24946DT     BB262120  46.687  61.200  29.056
24946DT     BB362121  46.643  61.030  29.167
24946DT     SC162122  46.517  60.921  28.964
24946DT     SC262123  46.307  60.913  29.007
24946DT     SC362124  46.459  60.752  28.770
24947DG     BB162125  46.734  61.349  29.404
24947DG     BB262126  46.421  61.194  29.497
24947DG     BB362127  46.455  61.021  29.589
24947DG     SC162128  46.452  60.855  29.332
24947DG     SC262129  46.248  60.651  29.257
24947DG     SC362130  46.475  60.647  29.068
24947DG     SC462131  46.588  60.836  29.250
24948DT     BB162132  46.383  61.015  29.775
24948DT     BB262133  46.102  60.791  29.745
24948DT     BB362134  46.159  60.599  29.798
24948DT     SC162135  46.289  60.566  29.572
24948DT     SC262136  46.185  60.423  29.450
24948DT     SC362137  46.488  60.527  29.404
24949DA     BB162138  45.803  60.712  29.993
24949DA     BB262139  45.759  60.374  29.857
24949DA     BB362140  45.882  60.235  29.962
24949DA     SC162141  46.126  60.268  29.772
24949DA     SC262142  46.246  60.132  29.600
24949DA     SC362143  46.441  60.294  29.638
24949DA     SC462144  46.236  60.378  29.811
24950DT     BB162145  45.785  60.108  30.060
24950DT     BB262146  45.861  59.819  29.857
24950DT     BB362147  46.016  59.711  29.942
24950DT     SC162148  46.192  59.889  29.864
24950DT     SC262149  46.316  59.805  29.710
24950DT     SC362150  46.378  60.076  29.876
24951DT     BB162151  45.854  59.503  30.042
24951DT     BB262152  46.107  59.327  29.854
24951DT     BB362153  46.268  59.282  29.977
24951DT     SC162154  46.350  59.531  29.974
24951DT     SC262155  46.534  59.544  29.863
24951DT     SC362156  46.414  59.772  30.060
24952DA     BB162157  46.177  58.891  29.842
24952DA     BB262158  46.539  58.934  29.802
24952DA     BB362159  46.638  58.908  29.990
24952DA     SC162160  46.623  59.210  30.066
24952DA     SC262161  46.781  59.401  30.091
24952DA     SC362162  46.595  59.508  30.233
24952DA     SC462163  46.497  59.259  30.152
24953DA     BB162164  46.831  58.665  29.859
24953DA     BB262165  47.123  58.877  29.923
24953DA     BB362166  47.187  58.856  30.125
24953DA     SC162167  47.010  59.089  30.231
24953DA     SC262168  47.043  59.320  30.320
24953DA     SC362169  46.808  59.292  30.420
24953DA     SC462170  46.864  59.053  30.285
24954DG     BB162171  47.464  58.746  30.020
24954DG     BB262172  47.593  59.051  30.165
24954DG     BB362173  47.636  59.023  30.357
24954DG     SC162174  47.357  59.102  30.456
24954DG     SC262175  47.292  59.343  30.620
24954DG     SC362176  47.058  59.163  30.598
24954DG     SC462177  47.244  58.989  30.468
24955DT     BB162178  47.845  59.044  30.434
24955DT     BB262179  47.825  59.363  30.601
24955DT     BB362180  47.820  59.335  30.806
24955DT     SC162181  47.571  59.254  30.797
24955DT     SC262182  47.444  59.402  30.889
24955DT     SC362183  47.360  59.097  30.819
24956DT     BB162184  48.069  59.435  30.815
24956DT     BB262185  47.878  59.648  31.034
24956DT     BB362186  47.869  59.565  31.223
24956DT     SC162187  47.696  59.385  31.145
24956DT     SC262188  47.505  59.426  31.235
24956DT     SC362189  47.591  59.149  31.090
24957DG     BB162190  48.027  59.940  31.253
24957DG     BB262191  47.752  59.894  31.483
24957DG     BB362192  47.812  59.786  31.639
24957DG     SC162193  47.741  59.517  31.513
24957DG     SC262194  47.527  59.330  31.605
24957DG     SC362195  47.695  59.204  31.396
24957DG     SC462196  47.851  59.442  31.423
24958DT     BB162197  47.816  59.868  31.851
24958DT     BB262198  47.537  59.697  32.002
24958DT     BB362199  47.605  59.546  32.126
24958DT     SC162200  47.666  59.395  31.920
24958DT     SC262201  47.531  59.227  31.912
24958DT     SC362202  47.810  59.255  31.749
24959DG     BB162203  47.397  59.783  32.390
24959DG     BB262204  47.290  59.438  32.417
24959DG     BB362205  47.418  59.337  32.532
24959DG     SC162206  47.600  59.255  32.300
24959DG     SC262207  47.640  58.977  32.199
24959DG     SC362208  47.832  59.163  32.073
24959DG     SC462209  47.720  59.352  32.257
24960DA     BB162210  47.165  59.221  32.753
24960DA     BB262211  47.239  58.872  32.665
24960DA     BB362212  47.406  58.802  32.778
24960DA     SC162213  47.617  58.888  32.565
24960DA     SC262214  47.772  58.778  32.404
24960DA     SC362215  47.899  59.001  32.405
24960DA     SC462216  47.683  59.034  32.581
24961DT     BB162217  47.398  58.640  32.939
24961DT     BB262218  47.542  58.379  32.736
24961DT     BB362219  47.730  58.330  32.807
24961DT     SC162220  47.833  58.550  32.707
24961DT     SC262221  47.963  58.500  32.543
24961DT     SC362222  47.951  58.785  32.695
24962DA     BB162223  47.515  57.972  32.781
24962DA     BB262224  47.834  57.924  32.606
24962DA     BB362225  47.993  57.904  32.747
24962DA     SC162226  48.057  58.208  32.755
24962DA     SC262227  48.240  58.360  32.681
24962DA     SC362228  48.145  58.525  32.853
24962DA     SC462229  47.984  58.296  32.869
24963DA     BB162230  48.034  57.636  32.565
24963DA     BB262231  48.362  57.774  32.475
24963DA     BB362232  48.498  57.753  32.638
24963DA     SC162233  48.429  58.030  32.763
24963DA     SC262234  48.540  58.251  32.793
24963DA     SC362235  48.367  58.290  32.978
24963DA     SC462236  48.314  58.034  32.875
24964DT     BB162237  48.643  57.638  32.599
24964DT     BB262238  48.894  57.894  32.563
24964DT     BB362239  49.009  57.905  32.734
24964DT     SC162240  48.816  58.026  32.865
24964DT     SC262241  48.872  58.230  32.903
24964DT     SC362242  48.628  58.071  33.045
24965DG     BB162243  49.247  57.841  32.411
24965DG     BB262244  49.358  58.125  32.605
24965DG     BB362245  49.450  58.063  32.770
24965DG     SC162246  49.195  58.056  32.939
24965DG     SC262247  49.134  58.234  33.171
24965DG     SC362248  48.933  58.018  33.148
24965DG     SC462249  49.107  57.923  32.941
24966DT     BB162250  49.654  58.115  32.795
24966DT     BB262251  49.635  58.369  33.051
24966DT     BB362252  49.686  58.288  33.235
24966DT     SC162253  49.455  58.164  33.253
24966DT     SC262254  49.337  58.255  33.408
24966DT     SC362255  49.279  57.969  33.268
24967DG     BB162256  49.938  58.600  33.163
24967DG     BB262257  49.781  58.628  33.488
24967DG     BB362258  49.868  58.505  33.617
24967DG     SC162259  49.683  58.269  33.556
24967DG     SC262260  49.484  58.149  33.744
24967DG     SC362261  49.511  57.985  33.499
24967DG     SC462262  49.721  58.169  33.437
24968DC     BB162263  49.971  58.584  33.793
24968DC     BB262264  49.740  58.499  34.057
24968DC     BB362265  49.810  58.334  34.161
24968DC     SC162266  49.742  58.173  33.965
24968DC     SC262267  49.577  58.050  34.027
24968DC     SC362268  49.764  57.999  33.768
24969DG     BB162269  49.765  58.635  34.431
24969DG     BB262270  49.594  58.335  34.539
24969DG     BB362271  49.726  58.205  34.612
24969DG     SC162272  49.780  58.069  34.343
24969DG     SC262273  49.708  57.789  34.271
24969DG     SC362274  49.879  57.911  34.062
24969DG     SC462275  49.895  58.128  34.249
24970DA     BB162276  49.516  58.191  34.887
24970DA     BB262277  49.473  57.831  34.837
24970DA     BB362278  49.648  57.726  34.899
24970DA     SC162279  49.785  57.737  34.620
24970DA     SC262280  49.844  57.578  34.437
24970DA     SC362281  50.011  57.758  34.362
24970DA     SC462282  49.883  57.860  34.590
24971DG     BB162283  49.450  57.588  35.095
24971DG     BB262284  49.540  57.293  34.906
24971DG     BB362285  49.713  57.220  34.972
24971DG     SC162286  49.884  57.386  34.779
24971DG     SC262287  50.049  57.280  34.555
24971DG     SC362288  50.102  57.568  34.597
24971DG     SC462289  49.931  57.532  34.824
24972DC     BB162290  49.725  57.019  35.061
24972DC     BB262291  49.887  56.832  34.799
24972DC     BB362292  50.086  56.802  34.846
24972DC     SC162293  50.145  57.052  34.789
24972DC     SC262294  50.264  57.058  34.610
24972DC     SC362295  50.223  57.301  34.820
24973DA     BB162296  49.929  56.424  34.755
24973DA     BB262297  50.241  56.463  34.568
24973DA     BB362298  50.409  56.447  34.699
24973DA     SC162299  50.421  56.752  34.759
24973DA     SC262300  50.571  56.945  34.707
24973DA     SC362301  50.459  57.059  34.907
24973DA     SC462302  50.340  56.806  34.887
24974DT     BB162303  50.541  56.286  34.684
24974DT     BB262304  50.814  56.467  34.533
24974DT     BB362305  50.965  56.497  34.672
24974DT     SC162306  50.826  56.684  34.794
24974DT     SC262307  50.919  56.875  34.761
24974DT     SC362308  50.692  56.810  34.982
24975DA     BB162309  51.153  56.319  34.341
24975DA     BB262310  51.348  56.615  34.435
24975DA     BB362311  51.460  56.577  34.613
24975DA     SC162312  51.237  56.678  34.804
24975DA     SC262313  51.199  56.872  34.957
24975DA     SC362314  51.022  56.723  35.068
24975DA     SC462315  51.132  56.570  34.860
24976DA     BB162316  51.716  56.671  34.428
24976DA     BB262317  51.763  56.947  34.665
24976DA     BB362318  51.857  56.877  34.843
24976DA     SC162319  51.589  56.813  34.988
24976DA     SC262320  51.457  56.903  35.180
24976DA     SC362321  51.342  56.674  35.182
24976DA     SC462322  51.530  56.664  34.974
24977DA     BB162323  52.067  57.118  34.772
24977DA     BB262324  51.968  57.272  35.090
24977DA     BB362325  52.060  57.171  35.253
24977DA     SC162326  51.826  56.969  35.292
24977DA     SC262327  51.647  56.924  35.459
24977DA     SC362328  51.637  56.690  35.355
24977DA     SC462329  51.836  56.829  35.214
24978DT     BB162330  52.193  57.274  35.361
24978DT     BB262331  51.980  57.328  35.647
24978DT     BB362332  52.036  57.204  35.802
24978DT     SC162333  51.929  56.995  35.684
24978DT     SC262334  51.756  56.932  35.794
24978DT     SC362335  51.909  56.760  35.565
24979DT     BB162336  52.124  57.423  35.924
24979DT     BB262337  51.881  57.281  36.149
24979DT     BB362338  51.969  57.134  36.266
24979DT     SC162339  51.974  56.966  36.065
24979DT     SC262340  51.834  56.807  36.102
24979DT     SC362341  52.067  56.806  35.877
24980DA     BB162342  51.748  57.407  36.496
24980DA     BB262343  51.653  57.067  36.594
24980DA     BB362344  51.814  56.972  36.697
24980DA     SC162345  51.940  56.850  36.440
24980DA     SC262346  51.969  56.625  36.338
24980DA     SC362347  52.156  56.733  36.200
24980DA     SC462348  52.053  56.936  36.365
24981DT     BB162349  51.768  56.936  36.870
24981DT     BB262350  51.735  56.578  36.836
24981DT     BB362351  51.908  56.485  36.901
24981DT     SC162352  52.037  56.556  36.685
24981DT     SC262353  52.077  56.382  36.564
24981DT     SC362354  52.216  56.673  36.529
24982DA     BB162355  51.575  56.305  37.085
24982DA     BB262356  51.791  56.040  36.955
24982DA     BB362357  51.970  56.026  37.070
24982DA     SC162358  52.128  56.226  36.892
24982DA     SC262359  52.318  56.219  36.730
24982DA     SC362360  52.340  56.471  36.776
24982DA     SC462361  52.126  56.381  36.934
24983DA     BB162362  51.875  55.711  37.091
24983DA     BB262363  52.191  55.625  36.928
24983DA     BB362364  52.354  55.645  37.065
24983DA     SC162365  52.411  55.942  36.991
24983DA     SC262366  52.588  56.072  36.875
24983DA     SC362367  52.493  56.275  36.999
24983DA     SC462368  52.338  56.056  37.079
24984DT     BB162369  52.459  55.478  37.129
24984DT     BB262370  52.758  55.539  36.936
24984DT     BB362371  52.909  55.606  37.060
24984DT     SC162372  52.799  55.843  37.080
24984DT     SC262373  52.920  55.988  36.977
24984DT     SC362374  52.683  56.055  37.187
24985DA     BB162375  53.070  55.282  36.849
24985DA     BB262376  53.307  55.560  36.822
24985DA     BB362377  53.411  55.587  37.006
24985DA     SC162378  53.205  55.789  37.121
24985DA     SC262379  53.195  56.033  37.176
24985DA     SC362380  52.997  55.970  37.327
24985DA     SC462381  53.085  55.730  37.211
24986DT     BB162382  53.608  55.552  37.008
24986DT     BB262383  53.712  55.897  37.019
24986DT     BB362384  53.777  55.946  37.209
24986DT     SC162385  53.530  55.952  37.300
24986DT     SC262386  53.477  56.155  37.347
24986DT     SC362387  53.316  55.889  37.440
24987DA     BB162388  54.063  56.064  36.927
24987DA     BB262389  53.997  56.347  37.151
24987DA     BB362390  54.080  56.310  37.344
24987DA     SC162391  53.822  56.177  37.456
24987DA     SC262392  53.644  56.231  37.622
24987DA     SC362393  53.598  55.978  37.623
24987DA     SC462394  53.809  56.017  37.443
24988DT     BB162395  54.216  56.429  37.386
24988DT     BB262396  54.032  56.624  37.627
24988DT     BB362397  54.081  56.564  37.819
24988DT     SC162398  53.939  56.345  37.795
24988DT     SC262399  53.766  56.357  37.923
24988DT     SC362400  53.879  56.088  37.781
24989DA     BB162401  54.109  56.982  37.787
24989DA     BB262402  53.920  56.902  38.090
24989DA     BB362403  54.048  56.817  38.238
24989DA     SC162404  54.001  56.524  38.145
24989DA     SC262405  53.887  56.319  38.231
24989DA     SC362406  54.036  56.192  38.066
24989DA     SC462407  54.103  56.463  38.037
24990DT     BB162408  54.073  56.923  38.397
24990DT     BB262409  53.878  56.719  38.621
24990DT     BB362410  54.004  56.601  38.736
24990DT     SC162411  54.052  56.441  38.533
24990DT     SC262412  53.960  56.250  38.569
24990DT     SC362413  54.184  56.314  38.343
24991DA     BB162414  53.755  56.798  39.011
24991DA     BB262415  53.760  56.443  39.101
24991DA     BB362416  53.946  56.392  39.192
24991DA     SC162417  54.083  56.313  38.924
24991DA     SC262418  54.163  56.105  38.812
24991DA     SC362419  54.306  56.262  38.668
24991DA     SC462420  54.165  56.427  38.846
24992DA     BB162421  53.755  56.279  39.437
24992DA     BB262422  53.902  55.948  39.376
24992DA     BB362423  54.099  55.939  39.457
24992DA     SC162424  54.237  56.034  39.195
24992DA     SC262425  54.383  55.938  39.017
24992DA     SC362426  54.445  56.181  38.964
24992DA     SC462427  54.264  56.192  39.178
24993DT     BB162428  54.146  55.814  39.621
24993DT     BB262429  54.328  55.564  39.436
24993DT     BB362430  54.531  55.582  39.474
24993DT     SC162431  54.548  55.795  39.322
24993DT     SC262432  54.660  55.748  39.145
24993DT     SC362433  54.587  56.046  39.250
24994DT     BB162434  54.541  55.355  39.635
24994DT     BB262435  54.788  55.291  39.381
24994DT     BB362436  54.972  55.367  39.440
24994DT     SC162437  54.895  55.613  39.392
24994DT     SC262438  55.002  55.689  39.221
24994DT     SC362439  54.832  55.866  39.433
24995DT     BB162440  55.087  55.116  39.499
24995DT     BB262441  55.314  55.261  39.259
24995DT     BB362442  55.461  55.369  39.358
24995DT     SC162443  55.294  55.564  39.410
24995DT     SC262444  55.347  55.737  39.294
24995DT     SC362445  55.144  55.733  39.547
24996DA     BB162446  55.688  55.104  39.121
24996DA     BB262447  55.818  55.442  39.061
24996DA     BB362448  55.940  55.504  39.224
24996DA     SC162449  55.706  55.635  39.382
24996DA     SC262450  55.632  55.865  39.445
24996DA     SC362451  55.495  55.748  39.627
24996DA     SC462452  55.629  55.544  39.490
24997DT     BB162453  56.163  55.538  39.211
24997DT     BB262454  56.142  55.898  39.205
24997DT     BB362455  56.217  55.976  39.381
24997DT     SC162456  56.002  55.904  39.514
24997DT     SC262457  55.891  56.079  39.569
24997DT     SC362458  55.848  55.781  39.689
24998DA     BB162459  56.419  56.168  39.070
24998DA     BB262460  56.278  56.426  39.290
24998DA     BB362461  56.394  56.442  39.468
24998DA     SC162462  56.224  56.233  39.625
24998DA     SC262463  56.063  56.232  39.816
24998DA     SC362464  56.118  55.982  39.833
24998DA     SC462465  56.273  56.080  39.621
24999DA     BB162466  56.374  56.740  39.349
24999DA     BB262467  56.191  56.821  39.656
24999DA     BB362468  56.324  56.826  39.822
24999DA     SC162469  56.286  56.526  39.894
24999DA     SC262470  56.181  56.391  40.075
24999DA     SC362471  56.332  56.201  39.994
24999DA     SC462472  56.389  56.421  39.829
25000DA     BB162473  56.125  57.082  39.794
25000DA     BB262474  56.004  56.978  40.124
25000DA     BB362475  56.159  56.997  40.269
25000DA     SC162476  56.264  56.706  40.230
25000DA     SC262477  56.269  56.493  40.359
25000DA     SC362478  56.460  56.426  40.202
25000DA     SC462479  56.382  56.684  40.124
25001DT     BB162480  56.076  57.098  40.357
25001DT     BB262481  56.012  56.876  40.634
25001DT     BB362482  56.173  56.877  40.764
25001DT     SC162483  56.317  56.732  40.600
25001DT     SC262484  56.345  56.536  40.684
25001DT     SC362485  56.511  56.661  40.436
25002DT     BB162486  55.977  56.978  40.892
25002DT     BB262487  56.096  56.700  41.089
25002DT     BB362488  56.277  56.749  41.178
25002DT     SC162489  56.405  56.723  40.950
25002DT     SC262490  56.531  56.549  40.959
25002DT     SC362491  56.547  56.786  40.737
25003DA     BB162492  56.008  56.581  41.457
25003DA     BB262493  56.337  56.428  41.505
25003DA     BB362494  56.475  56.571  41.583
25003DA     SC162495  56.573  56.665  41.303
25003DA     SC262496  56.780  56.649  41.165
25003DA     SC362497  56.685  56.850  41.036
25003DA     SC462498  56.498  56.791  41.236
25004DT     BB162499  56.540  56.541  41.764
25004DT     BB262500  56.879  56.450  41.682
25004DT     BB362501  57.005  56.612  41.714
25004DT     SC162502  56.919  56.733  41.498
25004DT     SC262503  57.075  56.735  41.350
25004DT     SC362504  56.805  56.913  41.343
25005DT     BB162505  57.114  56.503  41.945
25005DT     BB262506  57.402  56.576  41.740
25005DT     BB362507  57.466  56.770  41.775
25005DT     SC162508  57.266  56.869  41.638
25005DT     SC262509  57.340  56.956  41.456
25005DT     SC362510  57.045  57.003  41.582
25006DG     BB162511  57.798  56.552  41.882
25006DG     BB262512  57.887  56.814  41.648
25006DG     BB362513  57.908  56.987  41.744
25006DG     SC162514  57.614  57.068  41.712
25006DG     SC262515  57.512  57.296  41.548
25006DG     SC362516  57.296  57.179  41.712
25006DG     SC462517  57.508  57.022  41.823
25007DT     BB162518  58.110  57.115  41.768
25007DT     BB262519  58.047  57.383  41.535
25007DT     BB362520  58.009  57.559  41.638
25007DT     SC162521  57.769  57.477  41.704
25007DT     SC262522  57.622  57.593  41.599
25007DT     SC362523  57.565  57.401  41.854
25008DG     BB162524  58.337  57.650  41.411
25008DG     BB262525  58.073  57.891  41.359
25008DG     BB362526  58.072  58.024  41.507
25008DG     SC162527  57.881  57.864  41.684
25008DG     SC262528  57.603  57.942  41.759
25008DG     SC362529  57.690  57.705  41.912
25008DG     SC462530  57.942  57.755  41.785
25009DT     BB162531  58.113  58.252  41.479
25009DT     BB262532  57.779  58.385  41.508
25009DT     BB362533  57.757  58.481  41.690
25009DT     SC162534  57.744  58.252  41.818
25009DT     SC262535  57.545  58.223  41.893
25009DT     SC362536  57.808  58.056  41.983
25010DT     BB162537  57.757  58.727  41.570
25010DT     BB262538  57.444  58.715  41.748
25010DT     BB362539  57.471  58.782  41.942
25010DT     SC162540  57.591  58.559  42.011
25010DT     SC262541  57.464  58.448  42.146
25010DT     SC362542  57.779  58.394  42.093
25011DT     BB162543  57.337  59.012  41.885
25011DT     BB262544  57.153  58.867  42.159
25011DT     BB362545  57.235  58.929  42.339
25011DT     SC162546  57.440  58.768  42.310
25011DT     SC262547  57.428  58.610  42.455
25011DT     SC362548  57.689  58.687  42.280
25012DA     BB162549  56.821  58.995  42.345
25012DA     BB262550  56.913  58.820  42.654
25012DA     BB362551  57.019  58.950  42.784
25012DA     SC162552  57.299  58.875  42.672
25012DA     SC262553  57.502  58.752  42.749
25012DA     SC362554  57.625  58.880  42.564
25012DA     SC462555  57.358  58.965  42.553
25013DA     BB162556  56.782  58.839  42.982
25013DA     BB262557  57.051  58.708  43.194
25013DA     BB362558  57.149  58.868  43.296
25013DA     SC162559  57.363  58.911  43.074
25013DA     SC262560  57.608  58.876  43.044
25013DA     SC362561  57.588  59.046  42.853
25013DA     SC462562  57.330  59.020  42.960
25014DA     BB162563  57.076  58.678  43.555
25014DA     BB262564  57.436  58.660  43.620
25014DA     BB362565  57.506  58.845  43.701
25014DA     SC162566  57.574  58.968  43.424
25014DA     SC262567  57.778  59.031  43.295
25014DA     SC362568  57.621  59.181  43.158
25014DA     SC462569  57.461  59.056  43.351
25015DG     BB162570  57.592  58.681  43.956
25015DG     BB262571  57.925  58.783  43.857
25015DG     BB362572  57.963  58.966  43.927
25015DG     SC162573  57.854  59.109  43.679
25015DG     SC262574  58.014  59.268  43.484
25015DG     SC362575  57.724  59.300  43.433
25015DG     SC462576  57.698  59.147  43.674
25016DT     BB162577  58.131  59.026  44.089
25016DT     BB262578  58.378  59.178  43.875
25016DT     BB362579  58.380  59.383  43.903
25016DT     SC162580  58.156  59.411  43.769
25016DT     SC262581  58.196  59.511  43.583
25016DT     SC362582  57.904  59.468  43.716
25017DT     BB162583  58.622  59.392  44.049
25017DT     BB262584  58.681  59.610  43.768
25017DT     BB362585  58.630  59.804  43.817
25017DT     SC162586  58.374  59.750  43.801
25017DT     SC262587  58.291  59.849  43.629
25017DT     SC362588  58.123  59.716  43.872
25018DA     BB162589  59.022  59.819  43.671
25018DA     BB262590  58.823  60.066  43.486
25018DA     BB362591  58.786  60.238  43.608
25018DA     SC162592  58.519  60.128  43.724
25018DA     SC262593  58.276  60.178  43.707
25018DA     SC362594  58.254  60.050  43.928
25018DA     SC462595  58.527  60.046  43.862
25019DT     BB162596  58.866  60.395  43.540
25019DT     BB262597  58.562  60.539  43.410
25019DT     BB362598  58.495  60.688  43.537
25019DT     SC162599  58.410  60.511  43.711
25019DT     SC262600  58.195  60.513  43.715
25019DT     SC362601  58.388  60.376  43.936
25020DA     BB162602  58.502  60.775  43.124
25020DA     BB262603  58.174  60.863  43.261
25020DA     BB362604  58.192  61.027  43.397
25020DA     SC162605  58.234  60.846  43.647
25020DA     SC262606  58.108  60.784  43.853
25020DA     SC362607  58.336  60.715  43.947
25020DA     SC462608  58.385  60.810  43.688
25021DA     BB162609  57.952  61.074  43.179
25021DA     BB262610  57.735  61.109  43.472
25021DA     BB362611  57.790  61.281  43.585
25021DA     SC162612  57.992  61.128  43.767
25021DA     SC262613  58.008  61.057  44.005
25021DA     SC362614  58.260  61.038  43.961
25021DA     SC462615  58.146  61.124  43.720
25022DT     BB162616  57.653  61.382  43.578
25022DT     BB262617  57.551  61.350  43.923
25022DT     BB362618  57.635  61.501  44.036
25022DT     SC162619  57.870  61.384  44.030
25022DT     SC262620  57.919  61.311  44.226
25022DT     SC362621  58.126  61.344  43.979
25023DG     BB162622  57.230  61.506  44.079
25023DG     BB262623  57.399  61.514  44.399
25023DG     BB362624  57.475  61.694  44.431
25023DG     SC162625  57.744  61.631  44.299
25023DG     SC262626  58.008  61.615  44.437
25023DG     SC362627  58.042  61.603  44.143
25023DG     SC462628  57.760  61.655  44.141
25024DA     BB162629  57.312  61.685  44.739
25024DA     BB262630  57.632  61.736  44.911
25024DA     BB362631  57.696  61.939  44.890
25024DA     SC162632  57.858  61.886  44.630
25024DA     SC262633  58.098  61.880  44.560
25024DA     SC362634  58.007  61.911  44.322
25024DA     SC462635  57.783  61.908  44.490
25025DT     BB162636  57.703  62.066  45.055
25025DT     BB262637  58.062  62.080  45.089
25025DT     BB362638  58.133  62.263  45.022
25025DT     SC162639  58.096  62.194  44.771
25025DT     SC262640  58.287  62.169  44.676
25025DT     SC362641  58.001  62.194  44.525
25026DA     BB162642  58.293  62.226  45.408
25026DA     BB262643  58.567  62.326  45.186
25026DA     BB362644  58.549  62.533  45.135
25026DA     SC162645  58.377  62.481  44.881
25026DA     SC262646  58.404  62.497  44.633
25026DA     SC362647  58.148  62.501  44.626
25026DA     SC462648  58.218  62.483  44.897
25027DA     BB162649  58.860  62.559  45.249
25027DA     BB262650  58.958  62.669  44.913
25027DA     BB362651  58.904  62.873  44.883
25027DA     SC162652  58.623  62.806  44.766
25027DA     SC262653  58.508  62.818  44.545
25027DA     SC362654  58.290  62.808  44.681
25027DA     SC462655  58.499  62.800  44.868
25028DG     BB162656  59.210  62.938  44.842
25028DG     BB262657  59.105  63.024  44.507
25028DG     BB362658  59.040  63.212  44.502
25028DG     SC162659  58.750  63.139  44.567
25028DG     SC262660  58.516  63.168  44.383
25028DG     SC362661  58.427  63.097  44.655
25028DG     SC462662  58.704  63.129  44.720
25029DT     BB162663  59.139  63.396  44.381
25029DT     BB262664  58.906  63.430  44.108
25029DT     BB362665  58.793  63.601  44.133
25029DT     SC162666  58.650  63.490  44.323
25029DT     SC262667  58.450  63.457  44.251
25029DT     SC362668  58.546  63.444  44.561
25030DA     BB162669  58.953  63.649  43.746
25030DA     BB262670  58.592  63.708  43.722
25030DA     BB362671  58.543  63.901  43.798
25030DA     SC162672  58.495  63.802  44.089
25030DA     SC262673  58.303  63.772  44.245
25030DA     SC362674  58.479  63.773  44.431
25030DA     SC462675  58.620  63.806  44.191
25031DA     BB162676  58.400  63.957  43.505
25031DA     BB262677  58.081  63.991  43.683
25031DA     BB362678  58.065  64.186  43.768
25031DA     SC162679  58.194  64.104  44.040
25031DA     SC262680  58.121  64.073  44.276
25031DA     SC362681  58.370  64.098  44.334
25031DA     SC462682  58.352  64.123  44.055
25032DT     BB162683  57.921  64.316  43.698
25032DT     BB262684  57.696  64.284  43.979
25032DT     BB362685  57.703  64.455  44.095
25032DT     SC162686  57.937  64.388  44.194
25032DT     SC262687  57.914  64.337  44.402
25032DT     SC362688  58.194  64.397  44.250
25033DT     BB162689  57.456  64.517  44.006
25033DT     BB262690  57.424  64.504  44.365
25033DT     BB362691  57.475  64.687  44.448
25033DT     SC162692  57.731  64.643  44.406
25033DT     SC262693  57.829  64.614  44.595
25033DT     SC362694  57.975  64.672  44.312
25034DT     BB162695  57.214  64.728  44.504
25034DT     BB262696  57.382  64.759  44.822
25034DT     BB362697  57.451  64.952  44.848
25034DT     SC162698  57.646  64.914  44.678
25034DT     SC262699  57.834  64.912  44.784
25034DT     SC362700  57.797  64.940  44.463
25035DA     BB162701  57.228  64.861  45.192
25035DA     BB262702  57.547  65.006  45.301
25035DA     BB362703  57.548  65.216  45.267
25035DA     SC162704  57.670  65.194  44.981
25035DA     SC262705  57.886  65.247  44.868
25035DA     SC362706  57.750  65.240  44.651
25035DA     SC462707  57.568  65.186  44.858
25036DT     BB162708  57.550  65.359  45.428
25036DT     BB262709  57.894  65.459  45.393
25036DT     BB362710  57.905  65.650  45.314
25036DT     SC162711  57.841  65.563  45.075
25036DT     SC262712  58.012  65.580  44.945
25036DT     SC362713  57.706  65.529  44.851
25037DA     BB162714  58.134  65.674  45.665
25037DA     BB262715  58.335  65.815  45.393
25037DA     BB362716  58.266  66.011  45.344
25037DA     SC162717  58.065  65.912  45.128
25037DA     SC262718  58.042  65.921  44.880
25037DA     SC362719  57.793  65.873  44.922
25037DA     SC462720  57.914  65.883  45.175
25038DA     BB162721  58.578  66.098  45.398
25038DA     BB262722  58.594  66.196  45.045
25038DA     BB362723  58.503  66.387  45.017
25038DA     SC162724  58.220  66.270  44.959
25038DA     SC262725  58.066  66.248  44.765
25038DA     SC362726  57.882  66.216  44.940
25038DA     SC462727  58.120  66.253  45.084
25039DA     BB162728  58.794  66.434  44.882
25039DA     BB262729  58.614  66.491  44.568
25039DA     BB362730  58.522  66.683  44.569
25039DA     SC162731  58.254  66.581  44.689
25039DA     SC262732  58.018  66.548  44.614
25039DA     SC362733  57.960  66.548  44.864
25039DA     SC462734  58.238  66.585  44.849
25040DA     BB162735  58.693  66.655  44.296
25040DA     BB262736  58.373  66.701  44.123
25040DA     BB362737  58.303  66.901  44.149
25040DA     SC162738  58.142  66.838  44.407
25040DA     SC262739  57.902  66.823  44.476
25040DA     SC362740  57.991  66.851  44.715
25040DA     SC462741  58.216  66.858  44.548
25041DA     BB162742  58.293  66.822  43.832
25041DA     BB262743  57.935  66.898  43.855
25041DA     BB362744  57.906  67.107  43.890
25041DA     SC162745  57.908  67.080  44.200
25041DA     SC262746  57.745  67.099  44.388
25041DA     SC362747  57.952  67.130  44.537
25041DA     SC462748  58.049  67.099  44.276
25042DT     BB162749  57.820  67.178  43.750
25042DT     BB262750  57.502  67.233  43.910
25042DT     BB362751  57.490  67.428  43.978
25042DT     SC162752  57.652  67.377  44.178
25042DT     SC262753  57.542  67.384  44.363
25042DT     SC362754  57.865  67.386  44.334
25043DG     BB162755  57.175  67.364  43.727
25043DG     BB262756  57.067  67.507  44.041
25043DG     BB362757  57.109  67.701  44.045
25043DG     SC162758  57.388  67.664  44.166
25043DG     SC262759  57.474  67.751  44.439
25043DG     SC362760  57.705  67.659  44.280
25043DG     SC462761  57.513  67.642  44.069
25044DT     BB162762  56.950  67.862  44.057
25044DT     BB262763  56.985  67.974  44.398
25044DT     BB362764  57.082  68.157  44.403
25044DT     SC162765  57.313  68.044  44.351
25044DT     SC262766  57.439  68.056  44.524
25044DT     SC362767  57.536  67.982  44.224
25045DG     BB162768  56.722  68.230  44.582
25045DG     BB262769  56.996  68.342  44.790
25045DG     BB362770  57.062  68.518  44.726
25045DG     SC162771  57.267  68.399  44.533
25045DG     SC262772  57.564  68.419  44.558
25045DG     SC362773  57.488  68.303  44.297
25045DG     SC462774  57.222  68.365  44.383
25046DA     BB162775  57.023  68.632  45.052
25046DA     BB262776  57.382  68.708  45.069
25046DA     BB362777  57.424  68.889  44.964
25046DA     SC162778  57.480  68.747  44.693
25046DA     SC262779  57.676  68.700  44.546
25046DA     SC362780  57.502  68.665  44.360
25046DA     SC462781  57.357  68.730  44.591
25047DG     BB162782  57.524  68.974  45.243
25047DG     BB262783  57.843  68.987  45.074
25047DG     BB362784  57.860  69.158  44.973
25047DG     SC162785  57.736  69.047  44.716
25047DG     SC262786  57.877  69.007  44.456
25047DG     SC362787  57.586  68.965  44.425
25047DG     SC462788  57.577  69.054  44.697
25048DA     BB162789  58.161  69.174  45.139
25048DA     BB262790  58.335  69.190  44.817
25048DA     BB362791  58.307  69.382  44.727
25048DA     SC162792  58.051  69.298  44.571
25048DA     SC262793  57.984  69.257  44.334
25048DA     SC362794  57.744  69.290  44.418
25048DA     SC462795  57.909  69.323  44.642
25049DT     BB162796  58.466  69.478  44.711
25049DT     BB262797  58.505  69.450  44.354
25049DT     BB362798  58.438  69.622  44.261
25049DT     SC162799  58.187  69.556  44.302
25049DT     SC262800  58.095  69.508  44.114
25049DT     SC362801  57.940  69.566  44.392
25050DT     BB162802  58.694  69.686  44.207
25050DT     BB262803  58.529  69.694  43.886
25050DT     BB362804  58.441  69.878  43.856
25050DT     SC162805  58.247  69.821  44.024
25050DT     SC262806  58.063  69.797  43.915
25050DT     SC362807  58.091  69.833  44.236
25051DA     BB162808  58.679  69.827  43.514
25051DA     BB262809  58.348  69.937  43.400
25051DA     BB362810  58.322  70.145  43.439
25051DA     SC162811  58.198  70.102  43.721
25051DA     SC262812  57.975  70.128  43.830
25051DA     SC362813  58.107  70.131  44.051
25051DA     SC462814  58.297  70.103  43.847
25052DA     BB162815  58.253  70.182  43.114
25052DA     BB262816  57.921  70.303  43.210
25052DA     BB362817  57.931  70.507  43.273
25052DA     SC162818  57.980  70.438  43.572
25052DA     SC262819  57.857  70.454  43.788
25052DA     SC362820  58.087  70.436  43.898
25052DA     SC462821  58.133  70.427  43.622
25053DT     BB162822  57.842  70.683  43.162
25053DT     BB262823  57.565  70.737  43.387
25053DT     BB362824  57.593  70.913  43.493
25053DT     SC162825  57.776  70.802  43.645
25053DT     SC262826  57.699  70.780  43.845
25053DT     SC362827  58.010  70.754  43.756
25054DT     BB162828  57.400  71.064  43.351
25054DT     BB262829  57.294  71.088  43.695
25054DT     BB362830  57.378  71.255  43.784
25054DT     SC162831  57.612  71.137  43.799
25054DT     SC262832  57.658  71.096  44.005
25054DT     SC362833  57.868  71.088  43.759
25055DA     BB162834  56.967  71.300  43.855
25055DA     BB262835  57.139  71.341  44.176
25055DA     BB362836  57.231  71.533  44.187
25055DA     SC162837  57.502  71.437  44.068
25055DA     SC262838  57.736  71.400  44.146
25055DA     SC362839  57.800  71.413  43.898
25055DA     SC462840  57.522  71.449  43.909
25056DA     BB162841  57.056  71.558  44.464
25056DA     BB262842  57.376  71.578  44.642
25056DA     BB362843  57.459  71.774  44.624
25056DA     SC162844  57.620  71.709  44.366
25056DA     SC262845  57.859  71.681  44.300
25056DA     SC362846  57.777  71.722  44.061
25056DA     SC462847  57.550  71.738  44.224
25057DC     BB162848  57.475  71.884  44.791
25057DC     BB262849  57.831  71.842  44.830
25057DC     BB362850  57.929  72.017  44.778
25057DC     SC162851  57.889  71.972  44.522
25057DC     SC262852  58.076  71.925  44.428
25057DC     SC362853  57.801  72.002  44.276
25058DG     BB162854  58.027  71.909  45.157
25058DG     BB262855  58.320  71.955  44.950
25058DG     BB362856  58.356  72.149  44.926
25058DG     SC162857  58.183  72.175  44.674
25058DG     SC262858  58.282  72.233  44.399
25058DG     SC362859  57.987  72.244  44.409
25058DG     SC462860  58.027  72.209  44.690
25059DA     BB162861  58.663  72.033  45.019
25059DA     BB262862  58.800  72.161  44.704
25059DA     BB362863  58.805  72.375  44.707
25059DA     SC162864  58.521  72.408  44.584
25059DA     SC262865  58.421  72.486  44.369
25059DA     SC362866  58.205  72.516  44.504
25059DA     SC462867  58.397  72.421  44.685
25060DG     BB162868  59.089  72.274  44.653
25060DG     BB262869  59.034  72.450  44.342
25060DG     BB362870  59.040  72.646  44.374
25060DG     SC162871  58.741  72.671  44.432
25060DG     SC262872  58.540  72.814  44.263
25060DG     SC362873  58.421  72.731  44.521
25060DG     SC462874  58.689  72.651  44.582
25061DC     BB162875  59.180  72.726  44.267
25061DC     BB262876  58.995  72.910  44.017
25061DC     BB362877  58.966  73.105  44.080
25061DC     SC162878  58.782  73.032  44.252
25061DC     SC262879  58.590  73.102  44.185
25061DC     SC362880  58.659  72.990  44.481
25062DG     BB162881  59.150  73.100  43.715
25062DG     BB262882  58.863  73.320  43.718
25062DG     BB362883  58.906  73.486  43.819
25062DG     SC162884  58.815  73.375  44.089
25062DG     SC262885  58.581  73.470  44.248
25062DG     SC362886  58.744  73.280  44.405
25062DG     SC462887  58.921  73.297  44.180
25063DT     BB162888  58.906  73.682  43.720
25063DT     BB262889  58.608  73.835  43.854
25063DT     BB362890  58.658  73.970  44.002
25063DT     SC162891  58.710  73.776  44.172
25063DT     SC262892  58.561  73.775  44.326
25063DT     SC362893  58.845  73.619  44.335
25064DG     BB162894  58.461  74.201  43.728
25064DG     BB262895  58.323  74.248  44.059
25064DG     BB362896  58.438  74.372  44.163
25064DG     SC162897  58.617  74.151  44.277
25064DG     SC262898  58.633  74.069  44.563
25064DG     SC362899  58.844  73.937  44.403
25064DG     SC462900  58.746  74.106  44.194
25065DT     BB162901  58.374  74.585  44.244
25065DT     BB262902  58.330  74.514  44.595
25065DT     BB362903  58.485  74.596  44.703
25065DT     SC162904  58.651  74.409  44.622
25065DT     SC262905  58.700  74.281  44.788
25065DT     SC362906  58.857  74.294  44.505
25066DT     BB162907  58.326  74.796  44.807
25066DT     BB262908  58.457  74.626  45.097
25066DT     BB362909  58.638  74.709  45.153
25066DT     SC162910  58.761  74.594  44.952
25066DT     SC262911  58.893  74.441  45.028
25066DT     SC362912  58.898  74.565  44.728
25067DA     BB162913  58.394  74.704  45.494
25067DA     BB262914  58.717  74.554  45.583
25067DA     BB362915  58.867  74.705  45.599
25067DA     SC162916  58.954  74.685  45.301
25067DA     SC262917  59.151  74.605  45.171
25067DA     SC362918  59.060  74.752  44.981
25067DA     SC462919  58.882  74.783  45.196
25068DA     BB162920  58.894  74.550  45.885
25068DA     BB262921  59.237  74.470  45.782
25068DA     BB362922  59.360  74.644  45.792
25068DA     SC162923  59.305  74.729  45.498
25068DA     SC262924  59.430  74.742  45.283
25068DA     SC362925  59.248  74.907  45.210
25068DA     SC462926  59.183  74.831  45.472
25069DG     BB162927  59.510  74.458  45.987
25069DG     BB262928  59.770  74.486  45.737
25069DG     BB362929  59.865  74.659  45.757
25069DG     SC162930  59.678  74.812  45.569
25069DG     SC262931  59.751  74.928  45.304
25069DG     SC362932  59.481  75.015  45.386
25069DG     SC462933  59.546  74.881  45.630
25070DC     BB162934  60.069  74.650  45.799
25070DC     BB262935  60.216  74.748  45.485
25070DC     BB362936  60.270  74.948  45.491
25070DC     SC162937  60.020  75.025  45.470
25070DC     SC262938  59.989  75.115  45.277
25070DC     SC362939  59.788  75.135  45.531
25071DA     BB162940  60.602  74.727  45.358
25071DA     BB262941  60.556  75.012  45.131
25071DA     BB362942  60.613  75.193  45.228
25071DA     SC162943  60.328  75.252  45.339
25071DA     SC262944  60.145  75.416  45.299
25071DA     SC362945  60.062  75.349  45.532
25071DA     SC462946  60.294  75.198  45.486
25072DC     BB162947  60.772  75.289  45.157
25072DC     BB262948  60.594  75.560  44.999
25072DC     BB362949  60.610  75.732  45.114
25072DC     SC162950  60.438  75.639  45.290
25072DC     SC262951  60.256  75.752  45.278
25072DC     SC362952  60.340  75.551  45.518
25073DT     BB162953  60.777  75.839  44.931
25073DT     BB262954  60.509  76.078  44.958
25073DT     BB362955  60.546  76.208  45.115
25073DT     SC162956  60.485  76.026  45.293
25073DT     SC262957  60.301  76.079  45.390
25073DT     SC362958  60.511  75.855  45.492
25074DG     BB162959  60.505  76.437  44.779
25074DG     BB262960  60.289  76.553  45.045
25074DG     BB362961  60.394  76.657  45.177
25074DG     SC162962  60.464  76.414  45.350
25074DG     SC262963  60.369  76.364  45.628
25074DG     SC362964  60.576  76.168  45.551
25074DG     SC462965  60.596  76.330  45.315
25075DA     BB162966  60.156  76.907  45.137
25075DA     BB262967  60.076  76.887  45.494
25075DA     BB362968  60.228  76.982  45.610
25075DA     SC162969  60.396  76.723  45.646
25075DA     SC262970  60.456  76.566  45.830
25075DA     SC362971  60.652  76.496  45.679
25075DA     SC462972  60.512  76.694  45.538
25076DA     BB162973  59.969  77.147  45.729
25076DA     BB262974  60.056  77.008  46.057
25076DA     BB362975  60.226  77.109  46.137
25076DA     SC162976  60.432  76.912  46.013
25076DA     SC262977  60.590  76.736  46.092
25076DA     SC362978  60.709  76.771  45.867
25076DA     SC462979  60.493  76.949  45.869
25077DC     BB162980  60.204  77.224  46.305
25077DC     BB262981  60.365  76.997  46.535
25077DC     BB362982  60.554  77.068  46.583
25077DC     SC162983  60.649  76.998  46.349
25077DC     SC262984  60.785  76.833  46.374
25077DC     SC362985  60.756  77.017  46.109
25078DT     BB162986  60.469  77.135  46.834
25078DT     BB262987  60.746  76.911  46.889
25078DT     BB362988  60.924  77.017  46.891
25078DT     SC162989  60.918  77.046  46.630
25078DT     SC262990  61.075  76.928  46.542
25078DT     SC362991  60.907  77.162  46.394
25079DA     BB162992  60.916  76.787  47.242
25079DA     BB262993  61.240  76.732  47.079
25079DA     BB362994  61.364  76.904  47.102
25079DA     SC162995  61.268  77.039  46.839
25079DA     SC262996  61.362  77.092  46.614
25079DA     SC362997  61.172  77.265  46.598
25079DA     SC462998  61.145  77.142  46.849
25080DA     BB162999  61.565  76.673  47.218
25080DA     BB263000  61.792  76.762  46.944
25080DA     BB363001  61.889  76.947  46.984
25080DA     SC163002  61.671  77.120  46.845
25080DA     SC263003  61.650  77.259  46.639
25080DA     SC363004  61.450  77.368  46.758
25080DA     SC463005  61.551  77.176  46.936
25081DA     BB163006  62.161  76.771  46.932
25081DA     BB263007  62.233  76.995  46.651
25081DA     BB363008  62.313  77.180  46.723
25081DA     SC163009  62.035  77.319  46.746
25081DA     SC263010  61.909  77.501  46.632
25081DA     SC363011  61.768  77.510  46.845
25081DA     SC463012  61.959  77.310  46.888
25082DA     BB163013  62.550  77.103  46.511
25082DA     BB263014  62.465  77.412  46.332
25082DA     BB363015  62.543  77.581  46.435
25082DA     SC163016  62.288  77.625  46.607
25082DA     SC263017  62.103  77.791  46.624
25082DA     SC363018  62.067  77.697  46.860
25082DA     SC463019  62.282  77.554  46.751
25083DC     BB163020  62.690  77.690  46.346
25083DC     BB263021  62.485  77.973  46.256
25083DC     BB363022  62.529  78.133  46.379
25083DC     SC163023  62.399  78.024  46.580
25083DC     SC263024  62.220  78.136  46.619
25083DC     SC363025  62.352  77.915  46.815
25084DA     BB163026  62.548  78.261  45.982
25084DA     BB263027  62.342  78.501  46.168
25084DA     BB363028  62.464  78.621  46.294
25084DA     SC163029  62.441  78.430  46.539
25084DA     SC263030  62.334  78.431  46.764
25084DA     SC363031  62.502  78.246  46.822
25084DA     SC463032  62.554  78.317  46.556
25085DT     BB163033  62.468  78.808  46.248
25085DT     BB263034  62.265  78.928  46.521
25085DT     BB363035  62.386  79.014  46.666
25085DT     SC163036  62.468  78.778  46.748
25085DT     SC263037  62.387  78.739  46.944
25085DT     SC363038  62.628  78.576  46.802
25086DT     BB163039  62.286  79.250  46.589
25086DT     BB263040  62.217  79.232  46.943
25086DT     BB363041  62.381  79.297  47.051
25086DT     SC163042  62.511  79.075  47.002
25086DT     SC263043  62.530  78.961  47.183
25086DT     SC363044  62.696  78.910  46.910
25087DA     BB163045  62.044  79.504  47.191
25087DA     BB263046  62.231  79.383  47.482
25087DA     BB363047  62.410  79.496  47.507
25087DA     SC163048  62.584  79.306  47.333
25087DA     SC263049  62.769  79.142  47.366
25087DA     SC363050  62.815  79.174  47.116
25087DA     SC463051  62.598  79.340  47.176
25088DA     BB163052  62.292  79.540  47.813
25088DA     BB263053  62.599  79.383  47.938
25088DA     BB363054  62.763  79.519  47.925
25088DA     SC163055  62.847  79.428  47.639
25088DA     SC263056  63.036  79.304  47.533
25088DA     SC363057  62.960  79.416  47.315
25088DA     SC463058  62.785  79.508  47.515
25089DT     BB163059  62.862  79.607  48.099
25089DT     BB263060  63.169  79.418  48.078
25089DT     BB363061  63.323  79.542  48.016
25089DT     SC163062  63.234  79.542  47.769
25089DT     SC263063  63.370  79.432  47.644
25089DT     SC363064  63.135  79.631  47.541
25090DA     BB163065  63.481  79.384  48.374
25090DA     BB263066  63.742  79.349  48.119
25090DA     BB363067  63.838  79.537  48.084
25090DA     SC163068  63.643  79.622  47.857
25090DA     SC263069  63.652  79.655  47.610
25090DA     SC363070  63.441  79.798  47.642
25090DA     SC463071  63.514  79.708  47.898
25091DA     BB163072  64.141  79.407  48.157
25091DA     BB263073  64.248  79.483  47.814
25091DA     BB363074  64.314  79.685  47.800
25091DA     SC163075  64.034  79.798  47.726
25091DA     SC263076  63.923  79.898  47.526
25091DA     SC363077  63.753  79.993  47.694
25091DA     SC463078  63.940  79.850  47.846
25092DT     BB163079  64.530  79.752  47.762
25092DT     BB263080  64.481  79.848  47.418
25092DT     BB363081  64.500  80.053  47.398
25092DT     SC163082  64.265  80.093  47.508
25092DT     SC263083  64.128  80.165  47.359
25092DT     SC363084  64.082  80.174  47.679
25093DT     BB163085  64.746  80.031  47.271
25093DT     BB263086  64.542  80.213  47.036
25093DT     BB363087  64.560  80.417  47.070
25093DT     SC163088  64.410  80.402  47.284
25093DT     SC263089  64.221  80.500  47.247
25093DT     SC363090  64.336  80.415  47.538
25094DT     BB163091  64.699  80.432  46.840
25094DT     BB263092  64.423  80.660  46.795
25094DT     BB363093  64.472  80.846  46.871
25094DT     SC163094  64.442  80.761  47.118
25094DT     SC263095  64.268  80.853  47.204
25094DT     SC363096  64.500  80.696  47.367
25095DA     BB163097  64.323  80.888  46.483
25095DA     BB263098  64.157  81.138  46.695
25095DA     BB363099  64.294  81.293  46.747
25095DA     SC163100  64.391  81.154  47.008
25095DA     SC263101  64.372  81.189  47.254
25095DA     SC363102  64.578  81.037  47.271
25095DA     SC463103  64.521  81.059  46.997
25096DA     BB163104  64.048  81.477  46.627
25096DA     BB263105  64.040  81.649  46.951
25096DA     BB363106  64.209  81.779  46.970
25096DA     SC163107  64.390  81.564  47.102
25096DA     SC263108  64.491  81.520  47.326
25096DA     SC363109  64.655  81.369  47.200
25096DA     SC463110  64.484  81.476  47.006
25097DA     BB163111  64.000  82.039  47.031
25097DA     BB263112  64.170  82.093  47.351
25097DA     BB363113  64.354  82.197  47.320
25097DA     SC163114  64.523  81.939  47.288
25097DA     SC263115  64.699  81.815  47.416
25097DA     SC363116  64.755  81.704  47.191
25097DA     SC463117  64.544  81.881  47.139
25098DA     BB163118  64.310  82.498  47.519
25098DA     BB263119  64.600  82.410  47.725
25098DA     BB363120  64.778  82.489  47.640
25098DA     SC163121  64.838  82.237  47.468
25098DA     SC263122  65.005  82.052  47.464
25098DA     SC363123  64.935  82.020  47.220
25098DA     SC463124  64.782  82.234  47.318
25099DA     BB163125  64.974  82.758  47.873
25099DA     BB263126  65.256  82.525  47.906
25099DA     BB363127  65.414  82.580  47.774
25099DA     SC163128  65.311  82.403  47.539
25099DA     SC263129  65.381  82.196  47.420
25099DA     SC363130  65.229  82.277  47.231
25099DA     SC463131  65.213  82.472  47.432
25100DT     BB163132  65.768  82.718  47.743
25100DT     BB263133  65.891  82.380  47.711
25100DT     BB363134  66.006  82.363  47.540
25100DT     SC163135  65.794  82.367  47.386
25100DT     SC263136  65.766  82.172  47.298
25100DT     SC363137  65.621  82.446  47.204
25101DC     BB163138  66.316  82.343  47.626
25101DC     BB263139  66.243  82.023  47.477
25101DC     BB363140  66.322  82.014  47.287
25101DC     SC163141  66.134  82.171  47.192
25101DC     SC263142  66.005  82.057  47.064
25101DC     SC363143  66.018  82.380  47.082
25102DG     BB163144  66.462  81.712  47.518
25102DG     BB263145  66.281  81.589  47.229
25102DG     BB363146  66.397  81.598  47.068
25102DG     SC163147  66.312  81.882  46.991
25102DG     SC263148  66.156  81.959  46.749
25102DG     SC363149  66.258  82.198  46.889
25102DG     SC463150  66.393  82.006  47.052
25103DA     BB163151  66.267  81.285  47.067
25103DA     BB263152  66.117  81.359  46.740
25103DA     BB363153  66.268  81.370  46.590
25103DA     SC163154  66.314  81.676  46.625
25103DA     SC263155  66.272  81.885  46.496
25103DA     SC363156  66.451  81.990  46.646
25103DA     SC463157  66.428  81.723  46.728
25104DC     BB163158  66.233  81.241  46.477
25104DC     BB263159  66.110  81.448  46.209
25104DC     BB363160  66.262  81.488  46.074
25104DC     SC163161  66.373  81.659  46.239
25104DC     SC263162  66.352  81.858  46.160
25104DC     SC363163  66.551  81.769  46.400
25105DA     BB163164  65.916  81.353  45.878
25105DA     BB263165  66.037  81.654  45.707
25105DA     BB363166  66.219  81.612  45.603
25105DA     SC163167  66.402  81.688  45.842
25105DA     SC263168  66.563  81.870  45.901
25105DA     SC363169  66.655  81.704  46.074
25105DA     SC463170  66.446  81.571  45.943
25106DA     BB163171  66.039  81.743  45.363
25106DA     BB263172  66.299  82.000  45.337
25106DA     BB363173  66.474  81.920  45.244
25106DA     SC163174  66.605  81.831  45.511
25106DA     SC263175  66.800  81.898  45.652
25106DA     SC363176  66.780  81.663  45.755
25106DA     SC463177  66.578  81.681  45.562
25107DT     BB163178  66.516  81.997  45.072
25107DT     BB263179  66.799  82.193  45.181
25107DT     BB363180  66.975  82.099  45.127
25107DT     SC163181  66.947  81.919  45.317
25107DT     SC263182  67.097  81.951  45.468
25107DT     SC363183  66.915  81.686  45.434
25108DT     BB163184  67.001  82.297  44.955
25108DT     BB263185  67.298  82.309  45.159
25108DT     BB363186  67.439  82.175  45.088
25108DT     SC163187  67.305  81.971  45.185
25108DT     SC263188  67.414  81.886  45.349
25108DT     SC363189  67.165  81.748  45.194
25109DC     BB163190  67.562  82.395  45.027
25109DC     BB263191  67.790  82.212  45.238
25109DC     BB363192  67.888  82.067  45.127
25109DC     SC163193  67.673  81.916  45.122
25109DC     SC263194  67.706  81.741  45.242
25109DC     SC363195  67.467  81.781  45.028
25110DT     BB163196  68.084  82.226  45.179
25110DT     BB263197  68.188  81.902  45.299
25110DT     BB363198  68.249  81.784  45.140
25110DT     SC163199  68.001  81.745  45.064
25110DT     SC263200  67.946  81.540  45.099
25110DT     SC363201  67.783  81.751  44.914
25111DG     BB163202  68.549  81.807  45.416
25111DG     BB263203  68.488  81.466  45.313
25111DG     BB363204  68.560  81.436  45.130
25111DG     SC163205  68.302  81.518  44.988
25111DG     SC263206  68.125  81.338  44.829
25111DG     SC363207  68.042  81.620  44.798
25111DG     SC463208  68.279  81.672  44.950
25112DT     BB163209  68.731  81.293  45.082
25112DT     BB263210  68.560  81.024  44.912
25112DT     BB363211  68.593  81.038  44.708
25112DT     SC163212  68.428  81.240  44.687
25112DT     SC263213  68.252  81.178  44.580
25112DT     SC363214  68.338  81.484  44.640
25113DA     BB163215  68.723  80.644  44.784
25113DA     BB263216  68.498  80.628  44.495
25113DA     BB363217  68.598  80.697  44.320
25113DA     SC163218  68.511  80.993  44.356
25113DA     SC263219  68.359  81.156  44.245
25113DA     SC363220  68.498  81.336  44.363
25113DA     SC463221  68.611  81.090  44.437
25114DT     BB163222  68.655  80.569  44.142
25114DT     BB263223  68.396  80.690  43.923
25114DT     BB363224  68.479  80.804  43.772
25114DT     SC163225  68.521  81.005  43.935
25114DT     SC263226  68.389  81.167  43.885
25114DT     SC363227  68.648  81.187  44.078
25115DG     BB163228  68.280  80.502  43.585
25115DG     BB263229  68.172  80.825  43.463
25115DG     BB363230  68.304  80.895  43.331
25115DG     SC163231  68.474  81.039  43.541
25115DG     SC263232  68.508  81.334  43.567
25115DG     SC363233  68.695  81.191  43.746
25115DG     SC463234  68.593  80.959  43.613
25116DT     BB163235  68.233  80.930  43.139
25116DT     BB263236  68.211  81.290  43.134
25116DT     BB363237  68.374  81.369  43.034
25116DT     SC163238  68.532  81.320  43.238
25116DT     SC263239  68.591  81.505  43.329
25116DT     SC363240  68.729  81.216  43.380
25117DT     BB163241  68.192  81.431  42.858
25117DT     BB263242  68.349  81.744  42.947
25117DT     BB363243  68.527  81.765  42.845
25117DT     SC163244  68.646  81.589  42.999
25117DT     SC263245  68.791  81.690  43.123
25117DT     SC363246  68.771  81.370  43.075
25118DA     BB163247  68.295  82.115  42.806
25118DA     BB263248  68.640  82.213  42.887
25118DA     BB363249  68.769  82.172  42.722
25118DA     SC163250  68.841  81.885  42.817
25118DA     SC263251  69.040  81.765  42.908
25118DA     SC363252  68.920  81.551  42.832
25118DA     SC463253  68.751  81.764  42.761
25119DG     BB163254  68.832  82.483  42.713
25119DG     BB263255  69.171  82.375  42.780
25119DG     BB363256  69.259  82.319  42.611
25119DG     SC163257  69.170  82.027  42.633
25119DG     SC263258  69.348  81.792  42.676
25119DG     SC363259  69.073  81.705  42.614
25119DG     SC463260  69.029  81.984  42.570
25120DA     BB163261  69.552  82.539  42.623
25120DA     BB263262  69.780  82.252  42.625
25120DA     BB363263  69.814  82.183  42.426
25120DA     SC163264  69.578  81.980  42.430
25120DA     SC263265  69.548  81.732  42.434
25120DA     SC363266  69.311  81.781  42.348
25120DA     SC463267  69.436  82.030  42.376
25121DT     BB163268  70.026  82.187  42.251
25121DT     BB263269  70.109  81.838  42.291
25121DT     BB363270  70.087  81.739  42.110
25121DT     SC163271  69.825  81.744  42.132
25121DT     SC263272  69.753  81.544  42.166
25121DT     SC363273  69.573  81.799  42.079
25122DA     BB163274  70.494  81.640  42.175
25122DA     BB263275  70.320  81.324  42.109
25122DA     BB363276  70.296  81.294  41.899
25122DA     SC163277  70.019  81.436  41.886
25122DA     SC263278  69.781  81.373  41.847
25122DA     SC363279  69.746  81.620  41.790
25122DA     SC463280  70.018  81.593  41.852
25123DT     BB163281  70.399  81.130  41.773
25123DT     BB263282  70.107  80.919  41.750
25123DT     BB363283  70.040  80.912  41.554
25123DT     SC163284  69.941  81.154  41.571
25123DT     SC263285  69.726  81.144  41.567
25123DT     SC363286  69.904  81.411  41.524
25124DA     BB163287  70.083  80.518  41.684
25124DA     BB263288  69.747  80.553  41.543
25124DA     BB363289  69.756  80.559  41.330
25124DA     SC163290  69.781  80.869  41.316
25124DA     SC263291  69.641  81.062  41.243
25124DA     SC363292  69.863  81.191  41.230
25124DA     SC463293  69.929  80.931  41.313
25125DG     BB163294  69.578  80.311  41.366
25125DG     BB263295  69.332  80.523  41.207
25125DG     BB363296  69.359  80.522  41.010
25125DG     SC163297  69.553  80.759  41.010
25125DG     SC263298  69.501  81.028  40.891
25125DG     SC363299  69.784  81.002  40.975
25125DG     SC463300  69.709  80.730  41.028
25126DA     BB163301  69.023  80.451  41.009
25126DA     BB263302  68.962  80.753  40.810
25126DA     BB363303  69.024  80.723  40.609
25126DA     SC163304  69.313  80.828  40.657
25126DA     SC263305  69.450  81.026  40.593
25126DA     SC363306  69.652  80.878  40.649
25126DA     SC463307  69.425  80.720  40.695
25127DT     BB163308  68.881  80.726  40.477
25127DT     BB263309  68.957  81.049  40.335
25127DT     BB363310  69.053  81.025  40.153
25127DT     SC163311  69.276  80.956  40.271
25127DT     SC263312  69.423  81.111  40.245
25127DT     SC363313  69.483  80.809  40.345
25128DA     BB163314  68.732  81.290  40.106
25128DA     BB263315  69.028  81.442  39.953
25128DA     BB363316  69.077  81.341  39.771
25128DA     SC163317  69.267  81.136  39.907
25128DA     SC263318  69.512  81.088  39.914
25128DA     SC363319  69.443  80.854  39.994
25128DA     SC463320  69.204  80.996  39.954
25129DA     BB163321  69.063  81.652  39.674
25129DA     BB263322  69.414  81.614  39.572
25129DA     BB363323  69.427  81.495  39.396
25129DA     SC163324  69.455  81.226  39.551
25129DA     SC263325  69.631  81.055  39.593
25129DA     SC363326  69.437  80.899  39.652
25129DA     SC463327  69.321  81.144  39.582
25130DA     BB163328  69.599  81.761  39.319
25130DA     BB263329  69.883  81.536  39.267
25130DA     BB363330  69.855  81.420  39.090
25130DA     SC163331  69.712  81.186  39.237
25130DA     SC263332  69.760  80.949  39.297
25130DA     SC363333  69.505  80.925  39.322
25130DA     SC463334  69.551  81.191  39.246
25131DT     BB163335  69.980  81.456  38.951
25131DT     BB263336  70.170  81.150  38.976
25131DT     BB363337  70.112  81.019  38.827
25131DT     SC163338  69.888  80.963  38.951
25131DT     SC263339  69.895  80.761  39.025
25131DT     SC363340  69.630  80.946  39.001
25132DA     BB163341  70.531  81.050  38.808
25132DA     BB263342  70.444  80.694  38.798
25132DA     BB363343  70.359  80.643  38.609
25132DA     SC163344  70.066  80.700  38.697
25132DA     SC263345  69.859  80.570  38.743
25132DA     SC363346  69.736  80.792  38.709
25132DA     SC463347  70.008  80.848  38.671
25133DA     BB163348  70.596  80.412  38.601
25133DA     BB263349  70.329  80.161  38.585
25133DA     BB363350  70.247  80.153  38.388
25133DA     SC163351  70.027  80.366  38.444
25133DA     SC263352  69.779  80.374  38.469
25133DA     SC363353  69.802  80.624  38.420
25133DA     SC463354  70.062  80.519  38.411
25134DT     BB163355  70.270  79.982  38.263
25134DT     BB263356  69.933  79.859  38.296
25134DT     BB363357  69.828  79.891  38.120
25134DT     SC163358  69.806  80.147  38.170
25134DT     SC263359  69.601  80.194  38.214
25134DT     SC363360  69.834  80.408  38.144
25135DC     BB163361  69.833  79.622  38.054
25135DC     BB263362  69.482  79.707  38.061
25135DC     BB363363  69.422  79.773  37.874
25135DC     SC163364  69.542  80.004  37.909
25135DC     SC263365  69.394  80.159  37.930
25135DC     SC363366  69.710  80.204  37.873
25136DT     BB163367  69.284  79.544  37.845
25136DT     BB263368  69.037  79.804  37.811
25136DT     BB363369  69.031  79.871  37.615
25136DT     SC163370  69.257  80.002  37.644
25136DT     SC263371  69.217  80.214  37.640
25136DT     SC363372  69.508  80.074  37.611
25137DT     BB163373  68.795  79.752  37.604
25137DT     BB263374  68.731  80.097  37.520
25137DT     BB363375  68.769  80.130  37.319
25137DT     SC163376  69.029  80.122  37.359
25137DT     SC263377  69.111  80.319  37.331
25137DT     SC363378  69.280  80.042  37.346
25138DC     BB163379  68.509  80.157  37.303
25138DC     BB263380  68.644  80.464  37.172
25138DC     BB363381  68.700  80.439  36.975
25138DC     SC163382  68.913  80.302  37.044
25138DC     SC263383  69.089  80.417  37.002
25138DC     SC363384  69.081  80.100  37.069
25139DT     BB163385  68.494  80.594  36.916
25139DT     BB263386  68.777  80.755  36.762
25139DT     BB363387  68.817  80.668  36.579
25139DT     SC163388  68.921  80.456  36.694
25139DT     SC263389  69.133  80.453  36.659
25139DT     SC363390  68.955  80.205  36.767
25140DC     BB163391  68.721  80.888  36.454
25140DC     BB263392  69.052  80.846  36.317
25140DC     BB363393  69.047  80.713  36.159
25140DC     SC163394  69.020  80.508  36.320
25140DC     SC263395  69.199  80.390  36.317
25140DC     SC363396  68.914  80.297  36.438
25141DA     BB163397  69.234  81.052  35.992
25141DA     BB263398  69.435  80.760  35.899
25141DA     BB363399  69.339  80.650  35.744
25141DA     SC163400  69.183  80.465  35.939
25141DA     SC263401  69.185  80.225  36.008
25141DA     SC363402  68.946  80.267  36.090
25141DA     SC463403  69.035  80.511  35.982
25142DA     BB163404  69.617  80.682  35.560
25142DA     BB263405  69.647  80.316  35.564
25142DA     BB363406  69.517  80.229  35.419
25142DA     SC163407  69.277  80.200  35.615
25142DA     SC263408  69.153  80.017  35.729
25142DA     SC363409  68.965  80.188  35.757
25142DA     SC463410  69.171  80.321  35.621
25143DT     BB163411  69.585  80.122  35.234
25143DT     BB263412  69.513  79.790  35.355
25143DT     BB363413  69.351  79.711  35.253
25143DT     SC163414  69.183  79.863  35.385
25143DT     SC263415  69.065  79.740  35.517
25143DT     SC363416  69.001  80.047  35.434
25144DA     BB163417  69.654  79.424  35.212
25144DA     BB263418  69.354  79.252  35.334
25144DA     BB363419  69.213  79.227  35.176
25144DA     SC163420  69.067  79.496  35.231
25144DA     SC263421  68.846  79.571  35.318
25144DA     SC363422  68.898  79.793  35.201
25144DA     SC463423  69.117  79.625  35.150
25145DA     BB163424  69.238  78.917  35.277
25145DA     BB263425  68.883  78.940  35.365
25145DA     BB363426  68.762  78.928  35.189
25145DA     SC163427  68.758  79.236  35.142
25145DA     SC263428  68.593  79.422  35.154
25145DA     SC363429  68.755  79.549  35.002
25145DA     SC463430  68.871  79.298  35.046
25146DC     BB163431  68.652  78.775  35.185
25146DC     BB263432  68.343  78.944  35.263
25146DC     BB363433  68.231  78.970  35.091
25146DC     SC163434  68.389  79.163  35.009
25146DC     SC263435  68.283  79.350  35.018
25146DC     SC363436  68.561  79.297  34.861
25147DT     BB163437  68.077  78.795  35.208
25147DT     BB263438  67.872  79.087  35.155
25147DT     BB363439  67.804  79.091  34.959
25147DT     SC163440  68.040  79.164  34.871
25147DT     SC263441  68.030  79.367  34.800
25147DT     SC363442  68.269  79.157  34.741
25148DG     BB163443  67.504  79.117  35.235
25148DG     BB263444  67.487  79.381  34.988
25148DG     BB363445  67.425  79.307  34.815
25148DG     SC163446  67.706  79.241  34.714
25148DG     SC263447  67.845  79.372  34.484
25148DG     SC363448  67.998  79.138  34.580
25148DG     SC463449  67.770  79.098  34.748
25149DT     BB163450  67.254  79.389  34.749
25149DT     BB263451  67.364  79.591  34.471
25149DT     BB363452  67.339  79.487  34.294
25149DT     SC163453  67.547  79.334  34.346
25149DT     SC263454  67.706  79.382  34.210
25149DT     SC363455  67.689  79.119  34.398
25150DA     BB163456  67.168  79.869  34.254
25150DA     BB263457  67.372  79.803  33.957
25150DA     BB363458  67.280  79.653  33.836
25150DA     SC163459  67.428  79.417  33.975
25150DA     SC263460  67.605  79.251  33.919
25150DA     SC363461  67.511  79.114  34.114
25150DA     SC463462  67.354  79.346  34.099
25151DT     BB163463  67.203  79.699  33.649
25151DT     BB263464  67.456  79.534  33.451
25151DT     BB363465  67.380  79.359  33.371
25151DT     SC163466  67.394  79.238  33.604
25151DT     SC263467  67.548  79.088  33.597
25151DT     SC363468  67.319  79.114  33.824
25152DA     BB163469  67.527  79.563  33.035
25152DA     BB263470  67.653  79.219  33.017
25152DA     BB363471  67.498  79.086  32.955
25152DA     SC163472  67.403  79.023  33.244
25152DA     SC263473  67.406  78.830  33.401
25152DA     SC363474  67.216  78.952  33.523
25152DA     SC463475  67.285  79.114  33.305
25153DA     BB163476  67.710  78.997  32.717
25153DA     BB263477  67.702  78.659  32.858
25153DA     BB363478  67.523  78.558  32.799
25153DA     SC163479  67.360  78.652  33.046
25153DA     SC263480  67.262  78.551  33.252
25153DA     SC363481  67.112  78.759  33.258
25153DA     SC463482  67.275  78.788  33.032
25154DG     BB163483  67.711  78.349  32.661
25154DG     BB263484  67.570  78.124  32.906
25154DG     BB363485  67.396  78.052  32.840
25154DG     SC163486  67.229  78.278  32.961
25154DG     SC263487  67.031  78.249  33.183
25154DG     SC363488  67.017  78.519  33.063
25154DG     SC463489  67.203  78.411  32.875
25155DA     BB163490  67.520  77.734  32.906
25155DA     BB263491  67.244  77.672  33.139
25155DA     BB363492  67.065  77.630  33.031
25155DA     SC163493  66.972  77.926  33.019
25155DA     SC263494  66.792  78.068  33.118
25155DA     SC363495  66.839  78.228  32.924
25155DA     SC463496  67.015  78.012  32.890
25156DA     BB163497  67.064  77.360  33.221
25156DA     BB263498  66.742  77.474  33.354
25156DA     BB363499  66.587  77.438  33.213
25156DA     SC163500  66.615  77.716  33.075
25156DA     SC263501  66.484  77.927  33.056
25156DA     SC363502  66.626  77.974  32.848
25156DA     SC463503  66.713  77.726  32.947
25157DT     BB163504  66.428  77.293  33.245
25157DT     BB263505  66.164  77.531  33.310
25157DT     BB363506  66.033  77.536  33.150
25157DT     SC163507  66.204  77.672  33.004
25157DT     SC263508  66.131  77.872  32.976
25157DT     SC363509  66.370  77.732  32.808
25158DG     BB163510  65.782  77.417  33.454
25158DG     BB263511  65.646  77.704  33.282
25158DG     BB363512  65.551  77.646  33.117
25158DG     SC163513  65.799  77.665  32.938
25158DG     SC263514  65.839  77.859  32.715
25158DG     SC363515  66.054  77.656  32.717
25158DG     SC463516  65.895  77.538  32.925
25159DC     BB163517  65.304  77.661  33.060
25159DC     BB263518  65.313  77.940  32.832
25159DC     BB363519  65.271  77.876  32.639
25159DC     SC163520  65.509  77.768  32.615
25159DC     SC263521  65.625  77.881  32.473
25159DC     SC363522  65.697  77.586  32.584
25160DT     BB163523  65.009  77.985  32.628
25160DT     BB263524  65.184  78.142  32.354
25160DT     BB363525  65.158  78.031  32.181
25160DT     SC163526  65.325  77.847  32.263
25160DT     SC263527  65.504  77.854  32.144
25160DT     SC363528  65.418  77.613  32.342
25161DT     BB163529  64.996  78.226  32.080
25161DT     BB263530  65.269  78.203  31.846
25161DT     BB363531  65.227  78.059  31.703
25161DT     SC163532  65.275  77.865  31.873
25161DT     SC263533  65.455  77.763  31.816
25161DT     SC363534  65.234  77.655  32.027
25162DA     BB163535  65.355  78.421  31.535
25162DA     BB263536  65.553  78.148  31.390
25162DA     BB363537  65.432  78.030  31.259
25162DA     SC163538  65.344  77.832  31.482
25162DA     SC263539  65.383  77.593  31.543
25162DA     SC363540  65.168  77.614  31.681
25162DA     SC463541  65.207  77.864  31.560
25163DT     BB163542  65.497  78.044  31.094
25163DT     BB263543  65.641  77.714  31.074
25163DT     BB363544  65.511  77.586  30.976
25163DT     SC163545  65.355  77.573  31.187
25163DT     SC263546  65.367  77.376  31.273
25163DT     SC363547  65.141  77.599  31.339
25164DA     BB163548  65.898  77.559  30.814
25164DA     BB263549  65.772  77.219  30.874
25164DA     BB363550  65.616  77.172  30.737
25164DA     SC163551  65.389  77.276  30.923
25164DA     SC263552  65.202  77.181  31.057
25164DA     SC363553  65.102  77.417  31.049
25164DA     SC463554  65.343  77.429  30.906
25165DA     BB163555  65.815  76.916  30.690
25165DA     BB263556  65.534  76.705  30.794
25165DA     BB363557  65.386  76.698  30.640
25165DA     SC163558  65.227  76.942  30.748
25165DA     SC263559  65.007  76.985  30.857
25165DA     SC363560  65.039  77.228  30.779
25165DA     SC463561  65.264  77.087  30.690
25166DC     BB163562  65.352  76.522  30.544
25166DC     BB263563  65.034  76.448  30.698
25166DC     BB363564  64.881  76.484  30.564
25166DC     SC163565  64.905  76.743  30.593
25166DC     SC263566  64.733  76.820  30.697
25166DC     SC363567  64.951  76.996  30.535
25167DC     BB163568  64.837  76.215  30.529
25167DC     BB263569  64.517  76.345  30.636
25167DC     BB363570  64.408  76.408  30.472
25167DC     SC163571  64.557  76.623  30.447
25167DC     SC263572  64.441  76.797  30.498
25167DC     SC363573  64.726  76.797  30.342
25168DT     BB163574  64.242  76.196  30.501
25168DT     BB263575  64.026  76.484  30.518
25168DT     BB363576  63.968  76.540  30.328
25168DT     SC163577  64.204  76.643  30.278
25168DT     SC263578  64.187  76.857  30.266
25168DT     SC363579  64.439  76.680  30.165
25169DT     BB163580  63.724  76.451  30.391
25169DT     BB263581  63.676  76.797  30.299
25169DT     BB363582  63.657  76.814  30.094
25169DT     SC163583  63.914  76.776  30.059
25169DT     SC263584  64.005  76.959  29.992
25169DT     SC363585  64.140  76.664  29.981
25170DC     BB163586  63.405  76.872  30.146
25170DC     BB263587  63.530  77.153  29.959
25170DC     BB363588  63.524  77.112  29.756
25170DC     SC163589  63.732  76.953  29.775
25170DC     SC263590  63.901  77.043  29.677
25170DC     SC363591  63.878  76.733  29.768
25171DT     BB163592  63.328  77.289  29.747
25171DT     BB263593  63.574  77.408  29.510
25171DT     BB363594  63.551  77.309  29.330
25171DT     SC163595  63.659  77.090  29.427
25171DT     SC263596  63.852  77.059  29.336
25171DT     SC363597  63.685  76.840  29.507
25172DT     BB163598  63.455  77.537  29.229
25172DT     BB263599  63.731  77.449  29.013
25172DT     BB363600  63.668  77.313  28.870
25172DT     SC163601  63.662  77.119  29.045
25172DT     SC263602  63.820  76.979  29.002
25172DT     SC363603  63.568  76.926  29.200
25173DG     BB163604  63.808  77.632  28.654
25173DG     BB263605  63.956  77.322  28.541
25173DG     BB363606  63.829  77.224  28.424
25173DG     SC163607  63.699  77.070  28.654
25173DG     SC263608  63.715  76.775  28.698
25173DG     SC363609  63.521  76.898  28.884
25173DG     SC463610  63.575  77.135  28.731
25174DC     BB163611  63.858  77.176  28.192
25174DC     BB263612  63.936  76.824  28.207
25174DC     BB363613  63.774  76.713  28.139
25174DC     SC163614  63.641  76.756  28.361
25174DC     SC263615  63.627  76.573  28.472
25174DC     SC363616  63.453  76.842  28.525
25175DC     BB163617  63.889  76.644  27.891
25175DC     BB263618  63.813  76.327  28.044
25175DC     BB363619  63.622  76.266  27.990
25175DC     SC163620  63.513  76.441  28.153
25175DC     SC263621  63.419  76.338  28.316
25175DC     SC363622  63.372  76.648  28.236
25176DA     BB163623  63.873  75.945  27.893
25176DA     BB263624  63.598  75.815  28.098
25176DA     BB363625  63.419  75.803  27.983
25176DA     SC163626  63.323  76.089  28.057
25176DA     SC263627  63.142  76.194  28.193
25176DA     SC363628  63.186  76.404  28.053
25176DA     SC463629  63.364  76.209  27.959
25177DC     BB163630  63.351  75.623  27.956
25177DC     BB263631  63.084  75.647  28.197
25177DC     BB363632  62.903  75.674  28.100
25177DC     SC163633  62.960  75.924  28.045
25177DC     SC263634  62.833  76.054  28.161
25177DC     SC363635  63.013  76.142  27.907
25178DC     BB163636  62.862  75.435  28.193
25178DC     BB263637  62.604  75.642  28.337
25178DC     BB363638  62.452  75.670  28.200
25178DC     SC163639  62.597  75.839  28.061
25178DC     SC263640  62.515  76.037  28.082
25178DC     SC363641  62.732  75.943  27.860
25179DC     BB163642  62.343  75.532  28.386
25179DC     BB263643  62.154  75.838  28.362
25179DC     BB363644  62.032  75.833  28.195
25179DC     SC163645  62.236  75.874  28.035
25179DC     SC263646  62.221  76.070  27.949
25179DC     SC363647  62.415  75.832  27.846
25180DC     BB163648  61.878  75.837  28.397
25180DC     BB263649  61.788  76.121  28.193
25180DC     BB363650  61.689  76.057  28.023
25180DC     SC163651  61.913  75.972  27.915
25180DC     SC263652  61.965  76.097  27.749
25180DC     SC363653  62.093  75.807  27.815
25181DT     BB163654  61.480  76.167  28.138
25181DT     BB263655  61.496  76.318  27.811
25181DT     BB363656  61.409  76.192  27.671
25181DT     SC163657  61.617  76.032  27.675
25181DT     SC263658  61.723  76.046  27.488
25181DT     SC363659  61.763  75.815  27.711
25182DT     BB163660  61.193  76.355  27.654
25182DT     BB263661  61.299  76.316  27.311
25182DT     BB363662  61.212  76.146  27.230
25182DT     SC163663  61.375  75.990  27.363
25182DT     SC263664  61.513  75.896  27.227
25182DT     SC363665  61.460  75.807  27.534
25183DT     BB163666  61.021  76.283  27.073
25183DT     BB263667  61.186  76.070  26.834
25183DT     BB363668  61.086  75.889  26.821
25183DT     SC163669  61.184  75.810  27.051
25183DT     SC263670  61.325  75.651  27.018
25183DT     SC363671  61.193  75.732  27.303
25184DA     BB163672  61.082  76.008  26.416
25184DA     BB263673  61.195  75.659  26.421
25184DA     BB363674  61.029  75.528  26.448
25184DA     SC163675  61.049  75.526  26.758
25184DA     SC263676  61.112  75.365  26.938
25184DA     SC363677  60.980  75.520  27.095
25184DA     SC463678  60.961  75.634  26.839
25185DT     BB163679  60.944  75.381  26.291
25185DT     BB263680  61.073  75.079  26.442
25185DT     BB363681  60.917  74.966  26.518
25185DT     SC163682  60.886  75.129  26.721
25185DT     SC263683  60.948  75.030  26.902
25185DT     SC363684  60.774  75.304  26.884
25186DC     BB163685  60.922  74.767  26.314
25186DC     BB263686  60.960  74.577  26.619
25186DC     BB363687  60.775  74.516  26.688
25186DC     SC163688  60.718  74.758  26.772
25186DC     SC263689  60.715  74.760  26.987
25186DC     SC363690  60.596  74.991  26.794
25187DT     BB163691  60.809  74.247  26.613
25187DT     BB263692  60.738  74.229  26.966
25187DT     BB363693  60.534  74.209  26.996
25187DT     SC163694  60.493  74.461  26.937
25187DT     SC263695  60.434  74.567  27.115
25187DT     SC363696  60.405  74.676  26.811
25188DA     BB163697  60.700  73.888  27.210
25188DA     BB263698  60.465  74.058  27.434
25188DA     BB363699  60.264  74.007  27.384
25188DA     SC163700  60.228  74.245  27.186
25188DA     SC263701  60.100  74.459  27.176
25188DA     SC363702  60.139  74.446  26.923
25188DA     SC463703  60.262  74.219  27.031
25189DT     BB163704  60.134  73.887  27.513
25189DT     BB263705  59.927  74.160  27.627
25189DT     BB363706  59.738  74.145  27.545
25189DT     SC163707  59.825  74.226  27.311
25189DT     SC263708  59.746  74.422  27.269
25189DT     SC363709  59.885  74.223  27.054
25190DA     BB163710  59.667  74.173  27.957
25190DA     BB263711  59.451  74.419  27.793
25190DA     BB363712  59.283  74.322  27.703
25190DA     SC163713  59.423  74.280  27.429
25190DA     SC263714  59.404  74.368  27.196
25190DA     SC363715  59.530  74.155  27.127
25190DA     SC463716  59.501  74.141  27.406
25191DA     BB163717  59.116  74.539  27.884
25191DA     BB263718  58.988  74.676  27.569
25191DA     BB363719  58.834  74.550  27.490
25191DA     SC163720  59.029  74.376  27.322
25191DA     SC263721  59.082  74.338  27.081
25191DA     SC363722  59.186  74.117  27.159
25191DA     SC463723  59.087  74.242  27.390
25192DC     BB163724  58.647  74.625  27.481
25192DC     BB263725  58.642  74.678  27.124
25192DC     BB363726  58.527  74.533  27.032
25192DC     SC163727  58.714  74.352  27.065
25192DC     SC263728  58.798  74.301  26.874
25192DC     SC363729  58.836  74.134  27.149
25193DC     BB163730  58.337  74.719  26.983
25193DC     BB263731  58.424  74.589  26.658
25193DC     BB363732  58.312  74.419  26.618
25193DC     SC163733  58.456  74.275  26.784
25193DC     SC263734  58.573  74.134  26.672
25193DC     SC363735  58.520  74.126  26.991
25194DT     BB163736  58.169  74.560  26.436
25194DT     BB263737  58.309  74.283  26.251
25194DT     BB363738  58.185  74.118  26.265
25194DT     SC163739  58.261  74.073  26.512
25194DT     SC263740  58.378  73.893  26.519
25194DT     SC363741  58.250  74.045  26.774
25195DT     BB163742  58.118  74.154  26.007
25195DT     BB263743  58.252  73.820  26.023
25195DT     BB363744  58.103  73.686  26.076
25195DT     SC163745  58.109  73.767  26.325
25195DT     SC263746  58.191  73.611  26.449
25195DT     SC363747  58.030  73.872  26.554
25196DT     BB163748  58.121  73.598  25.826
25196DT     BB263749  58.191  73.311  26.034
25196DT     BB363750  58.014  73.223  26.095
25196DT     SC163751  57.968  73.415  26.267
25196DT     SC263752  57.989  73.338  26.467
25196DT     SC363753  57.852  73.620  26.386
25197DC     BB163754  58.093  73.032  25.935
25197DC     BB263755  58.054  72.878  26.259
25197DC     BB363756  57.855  72.833  26.293
25197DC     SC163757  57.797  73.086  26.336
25197DC     SC263758  57.750  73.113  26.544
25197DC     SC363759  57.689  73.324  26.306
25198DG     BB163760  58.109  72.517  26.341
25198DG     BB263761  57.891  72.564  26.626
25198DG     BB363762  57.706  72.509  26.579
25198DG     SC163763  57.623  72.786  26.480
25198DG     SC263764  57.421  72.966  26.608
25198DG     SC363765  57.504  73.072  26.345
25198DG     SC463766  57.647  72.825  26.326
25199DA     BB163767  57.752  72.343  26.879
25199DA     BB263768  57.451  72.508  27.008
25199DA     BB363769  57.277  72.434  26.908
25199DA     SC163770  57.285  72.651  26.685
25199DA     SC263771  57.152  72.850  26.616
25199DA     SC363772  57.264  72.822  26.387
25199DA     SC463773  57.365  72.616  26.549
25200DT     BB163774  57.168  72.345  27.022
25200DT     BB263775  56.896  72.582  27.032
25200DT     BB363776  56.750  72.527  26.897
25200DT     SC163777  56.895  72.607  26.694
25200DT     SC263778  56.805  72.783  26.608
25200DT     SC363779  57.036  72.600  26.471
25201DT     BB163780  56.573  72.431  27.093
25201DT     BB263781  56.370  72.661  26.903
25201DT     BB363782  56.277  72.562  26.747
25201DT     SC163783  56.502  72.551  26.611
25201DT     SC263784  56.488  72.680  26.440
25201DT     SC363785  56.712  72.451  26.488
25202DT     BB163786  56.007  72.538  26.855
25202DT     BB263787  55.951  72.694  26.535
25202DT     BB363788  55.910  72.549  26.392
25202DT     SC163789  56.161  72.475  26.382
25202DT     SC263790  56.245  72.533  26.193
25202DT     SC363791  56.376  72.324  26.404
25203DC     BB163792  55.623  72.589  26.367
25203DC     BB263793  55.742  72.629  26.029
25203DC     BB363794  55.728  72.449  25.928
25203DC     SC163795  55.936  72.353  26.056
25203DC     SC263796  56.101  72.333  25.919
25203DC     SC363797  56.081  72.199  26.214
25204DC     BB163798  55.507  72.524  25.770
25204DC     BB263799  55.760  72.435  25.529
25204DC     BB363800  55.743  72.235  25.479
25204DC     SC163801  55.847  72.161  25.708
25204DC     SC263802  56.041  72.076  25.674
25204DC     SC363803  55.868  72.050  25.946
25205DT     BB163804  55.651  72.309  25.235
25205DT     BB263805  55.943  72.109  25.166
25205DT     BB363806  55.891  71.909  25.156
25205DT     SC163807  55.866  71.895  25.417
25205DT     SC263808  56.025  71.773  25.497
25205DT     SC363809  55.756  71.863  25.655
25206DA     BB163810  56.119  72.019  24.823
25206DA     BB263811  56.259  71.710  24.960
25206DA     BB363812  56.128  71.546  24.922
25206DA     SC163813  55.970  71.578  25.188
25206DA     SC263814  55.944  71.454  25.403
25206DA     SC363815  55.726  71.588  25.429
25206DA     SC463816  55.838  71.669  25.185
25207DT     BB163817  56.204  71.419  24.808
25207DT     BB263818  56.258  71.158  25.050
25207DT     BB363819  56.106  71.017  25.037
25207DT     SC163820  55.936  71.179  25.157
25207DT     SC263821  55.891  71.102  25.352
25207DT     SC363822  55.726  71.333  25.195
25208DA     BB163823  56.464  70.798  25.012
25208DA     BB263824  56.244  70.623  25.249
25208DA     BB363825  56.086  70.525  25.144
25208DA     SC163826  55.892  70.767  25.161
25208DA     SC263827  55.680  70.826  25.278
25208DA     SC363828  55.652  71.005  25.096
25208DA     SC463829  55.892  70.871  25.038
25209DA     BB163830  56.171  70.225  25.281
25209DA     BB263831  55.836  70.207  25.430
25209DA     BB363832  55.695  70.138  25.287
25209DA     SC163833  55.621  70.422  25.185
25209DA     SC263834  55.426  70.577  25.195
25209DA     SC363835  55.534  70.694  24.994
25209DA     SC463836  55.703  70.480  25.060
25210DC     BB163837  55.563  69.913  25.260
25210DC     BB263838  55.243  70.046  25.363
25210DC     BB363839  55.110  70.039  25.206
25210DC     SC163840  55.226  70.242  25.088
25210DC     SC263841  55.096  70.413  25.095
25210DC     SC363842  55.358  70.382  24.907
25211DA     BB163843  54.879  69.809  25.479
25211DA     BB263844  54.657  70.073  25.353
25211DA     BB363845  54.577  70.019  25.163
25211DA     SC163846  54.807  70.151  25.001
25211DA     SC263847  54.837  70.348  24.851
25211DA     SC363848  55.047  70.226  24.767
25211DA     SC463849  54.933  70.059  24.962
25212DA     BB163850  54.275  70.063  25.294
25212DA     BB263851  54.230  70.340  25.058
25212DA     BB363852  54.171  70.266  24.867
25212DA     SC163853  54.462  70.238  24.760
25212DA     SC263854  54.608  70.348  24.591
25212DA     SC363855  54.748  70.133  24.602
25212DA     SC463856  54.535  70.096  24.780
25213DT     BB163857  53.982  70.311  24.792
25213DT     BB263858  54.093  70.561  24.557
25213DT     BB363859  54.080  70.487  24.364
25213DT     SC163860  54.291  70.335  24.399
25213DT     SC263861  54.454  70.411  24.280
25213DT     SC363862  54.441  70.119  24.421
25214DA     BB163863  53.886  70.858  24.378
25214DA     BB263864  54.121  70.863  24.096
25214DA     BB363865  54.047  70.742  23.937
25214DA     SC163866  54.189  70.483  24.035
25214DA     SC263867  54.378  70.337  23.962
25214DA     SC363868  54.270  70.158  24.111
25214DA     SC463869  54.106  70.385  24.132
25215DT     BB163870  53.999  70.836  23.768
25215DT     BB263871  54.287  70.730  23.579
25215DT     BB363872  54.233  70.581  23.446
25215DT     SC163873  54.218  70.404  23.638
25215DT     SC263874  54.378  70.262  23.618
25215DT     SC363875  54.115  70.226  23.805
25216DA     BB163876  54.437  70.878  23.232
25216DA     BB263877  54.589  70.555  23.149
25216DA     BB363878  54.459  70.443  23.022
25216DA     SC163879  54.312  70.300  23.256
25216DA     SC263880  54.297  70.071  23.352
25216DA     SC363881  54.078  70.152  23.459
25216DA     SC463882  54.178  70.369  23.313
25217DC     BB163883  54.525  70.408  22.840
25217DC     BB263884  54.607  70.061  22.893
25217DC     BB363885  54.464  69.940  22.805
25217DC     SC163886  54.291  69.993  22.995
25217DC     SC263887  54.260  69.817  23.114
25217DC     SC363888  54.074  70.082  23.115
25218DA     BB163889  54.850  69.825  22.694
25218DA     BB263890  54.669  69.528  22.811
25218DA     BB363891  54.520  69.471  22.669
25218DA     SC163892  54.296  69.645  22.798
25218DA     SC263893  54.085  69.608  22.926
25218DA     SC363894  54.024  69.847  22.854
25218DA     SC463895  54.276  69.794  22.742
25219DA     BB163896  54.701  69.214  22.749
25219DA     BB263897  54.385  69.066  22.864
25219DA     BB363898  54.257  69.028  22.698
25219DA     SC163899  54.117  69.305  22.710
25219DA     SC263900  53.893  69.397  22.769
25219DA     SC363901  53.963  69.602  22.633
25219DA     SC463902  54.179  69.423  22.620
25220DA     BB163903  54.287  68.775  22.907
25220DA     BB263904  53.922  68.799  22.932
25220DA     BB363905  53.832  68.759  22.743
25220DA     SC163906  53.833  69.056  22.652
25220DA     SC263907  53.666  69.237  22.611
25220DA     SC363908  53.851  69.347  22.470
25220DA     SC463909  53.960  69.108  22.568
25221DG     BB163910  53.712  68.560  22.945
25221DG     BB263911  53.406  68.727  22.846
25221DG     BB363912  53.356  68.673  22.662
25221DG     SC163913  53.514  68.898  22.527
25221DG     SC263914  53.398  69.127  22.374
25221DG     SC363915  53.692  69.120  22.345
25221DG     SC463916  53.668  68.873  22.490
25222DA     BB163917  53.043  68.603  22.797
25222DA     BB263918  52.887  68.828  22.553
25222DA     BB363919  52.888  68.740  22.359
25222DA     SC163920  53.163  68.862  22.279
25222DA     SC263921  53.249  69.035  22.121
25222DA     SC363922  53.475  68.917  22.147
25222DA     SC463923  53.295  68.774  22.307
25223DT     BB163924  52.710  68.676  22.260
25223DT     BB263925  52.699  68.938  22.012
25223DT     BB363926  52.752  68.863  21.827
25223DT     SC163927  53.005  68.852  21.895
25223DT     SC263928  53.115  68.999  21.783
25223DT     SC363929  53.243  68.752  21.950
25224DT     BB163930  52.490  68.860  21.718
25224DT     BB263931  52.679  69.058  21.482
25224DT     BB363932  52.755  68.936  21.333
25224DT     SC163933  52.939  68.840  21.495
25224DT     SC263934  53.132  68.912  21.434
25224DT     SC363935  53.076  68.668  21.640
25225DT     BB163936  52.576  69.028  21.141
25225DT     BB263937  52.901  69.097  21.000
25225DT     BB363938  52.966  68.935  20.888
25225DT     SC163939  53.020  68.797  21.105
25225DT     SC263940  53.233  68.775  21.124
25225DT     SC363941  53.010  68.607  21.288
25226DT     BB163942  52.927  69.083  20.668
25226DT     BB263943  53.276  68.992  20.659
25226DT     BB363944  53.299  68.807  20.569
25226DT     SC163945  53.208  68.684  20.783
25226DT     SC263946  53.369  68.576  20.877
25226DT     SC363947  53.053  68.537  20.937
25227DA     BB163948  53.561  69.098  20.419
25227DA     BB263949  53.753  68.795  20.496
25227DA     BB363950  53.703  68.639  20.360
25227DA     SC163951  53.474  68.525  20.537
25227DA     SC263952  53.431  68.321  20.674
25227DA     SC363953  53.183  68.383  20.653
25227DA     SC463954  53.325  68.580  20.511
25228DC     BB163955  53.848  68.605  20.276
25228DC     BB263956  53.916  68.281  20.419
25228DC     BB363957  53.834  68.133  20.300
25228DC     SC163958  53.592  68.188  20.385
25228DC     SC263959  53.521  68.027  20.508
25228DC     SC363960  53.339  68.264  20.382
25229DT     BB163961  54.084  68.077  20.239
25229DT     BB263962  53.944  67.763  20.349
25229DT     BB363963  53.838  67.675  20.195
25229DT     SC163964  53.640  67.845  20.224
25229DT     SC263965  53.468  67.742  20.303
25229DT     SC363966  53.468  68.038  20.170
25230DT     BB163967  54.032  67.482  20.137
25230DT     BB263968  53.731  67.286  20.170
25230DT     BB363969  53.634  67.274  19.988
25230DT     SC163970  53.549  67.522  20.007
25230DT     SC263971  53.336  67.522  20.037
25230DT     SC363972  53.517  67.778  19.953
25231DT     BB163973  53.706  66.997  19.874
25231DT     BB263974  53.346  66.995  19.845
25231DT     BB363975  53.291  67.049  19.653
25231DT     SC163976  53.349  67.301  19.698
25231DT     SC263977  53.167  67.416  19.704
25231DT     SC363978  53.467  67.536  19.678
25232DG     BB163979  53.129  66.661  19.603
25232DG     BB263980  52.879  66.905  19.511
25232DG     BB363981  52.895  66.949  19.318
25232DG     SC163982  53.093  67.179  19.362
25232DG     SC263983  53.039  67.468  19.312
25232DG     SC363984  53.325  67.423  19.371
25232DG     SC463985  53.250  67.147  19.365
25233DT     BB163986  52.732  66.909  19.093
25233DT     BB263987  52.600  67.243  19.063
25233DT     BB363988  52.664  67.329  18.886
25233DT     SC163989  52.905  67.366  18.983
25233DT     SC263990  52.939  67.577  19.012
25233DT     SC363991  53.166  67.346  19.013
25234DT     BB163992  52.417  67.313  18.730
25234DT     BB263993  52.492  67.665  18.735
25234DT     BB363994  52.597  67.718  18.564
25234DT     SC163995  52.816  67.606  18.655
25234DT     SC263996  52.961  67.759  18.700
25234DT     SC363997  53.022  67.442  18.673
25235DT     BB163998  52.380  67.852  18.449
25235DT     BB263999  52.638  68.103  18.476
25235DT     BB364000  52.750  68.108  18.302
25235DT     SC164001  52.873  67.885  18.367
25235DT     SC264002  53.079  67.928  18.414
25235DT     SC364003  52.955  67.634  18.357
25236DT     BB164004  52.637  68.346  18.244
25236DT     BB264005  52.992  68.412  18.262
25236DT     BB364006  53.080  68.377  18.078
25236DT     SC164007  53.063  68.117  18.112
25236DT     SC264008  53.261  68.036  18.139
25236DT     SC364009  52.993  67.866  18.073
25237DA     BB164010  53.188  68.748  18.236
25237DA     BB264011  53.493  68.572  18.133
25237DA     BB364012  53.506  68.564  17.920
25237DA     SC164013  53.356  68.293  17.898
25237DA     SC264014  53.409  68.057  17.837
25237DA     SC364015  53.157  68.031  17.797
25237DA     SC464016  53.196  68.297  17.876
25238DG     BB164017  53.761  68.705  18.011
25238DG     BB264018  53.913  68.412  17.864
25238DG     BB364019  53.911  68.426  17.666
25238DG     SC164020  53.638  68.291  17.634
25238DG     SC264021  53.587  68.026  17.507
25238DG     SC364022  53.333  68.165  17.565
25238DG     SC464023  53.506  68.381  17.640
25239DT     BB164024  54.092  68.420  17.593
25239DT     BB264025  54.104  68.095  17.436
25239DT     BB364026  54.060  68.112  17.235
25239DT     SC164027  53.805  68.147  17.286
25239DT     SC264028  53.695  67.974  17.221
25239DT     SC364029  53.568  68.261  17.300
25240DA     BB164030  54.405  67.881  17.304
25240DA     BB264031  54.194  67.707  17.060
25240DA     BB364032  54.189  67.814  16.876
25240DA     SC164033  53.940  67.983  16.953
25240DA     SC264034  53.700  68.001  16.885
25240DA     SC364035  53.709  68.235  16.990
25240DA     SC464036  53.965  68.126  17.022
25241DA     BB164037  54.273  67.513  16.773
25241DA     BB264038  53.977  67.526  16.558
25241DA     BB364039  54.007  67.664  16.398
25241DA     SC164040  53.890  67.907  16.553
25241DA     SC264041  53.688  68.052  16.544
25241DA     SC364042  53.827  68.220  16.680
25241DA     SC464043  53.993  67.998  16.637
25242DG     BB164044  53.967  67.421  16.201
25242DG     BB264045  53.684  67.613  16.085
25242DG     BB364046  53.745  67.751  15.954
25242DG     SC164047  53.794  67.966  16.166
25242DG     SC264048  53.641  68.220  16.197
25242DG     SC364049  53.879  68.218  16.374
25242DG     SC464050  53.938  67.973  16.237
25243DT     BB164051  53.696  67.770  15.709
25243DT     BB264052  53.464  68.046  15.706
25243DT     BB364053  53.555  68.214  15.625
25243DT     SC164054  53.696  68.253  15.842
25243DT     SC264055  53.626  68.431  15.941
25243DT     SC364056  53.905  68.277  16.001
25244DC     BB164057  53.429  68.214  15.362
25244DC     BB264058  53.355  68.543  15.490
25244DC     BB364059  53.498  68.678  15.426
25244DC     SC164060  53.674  68.583  15.597
25244DC     SC264061  53.710  68.729  15.751
25244DC     SC364062  53.892  68.468  15.690
25245DG     BB164063  53.162  68.843  15.256
25245DG     BB264064  53.335  69.088  15.458
25245DG     BB364065  53.482  69.171  15.352
25245DG     SC164066  53.692  68.964  15.435
25245DG     SC264067  53.932  69.017  15.605
25245DG     SC364068  53.942  68.745  15.489
25245DG     SC464069  53.709  68.831  15.348
25246DC     BB164070  53.491  69.397  15.298
25246DC     BB264071  53.736  69.510  15.537
25246DC     BB364072  53.915  69.552  15.440
25246DC     SC164073  53.969  69.297  15.411
25246DC     SC264074  54.135  69.245  15.537
25246DC     SC364075  54.016  69.066  15.294
25247DA     BB164076  53.803  69.874  15.683
25247DA     BB264077  54.151  69.788  15.760
25247DA     BB364078  54.279  69.848  15.600
25247DA     SC164079  54.259  69.578  15.448
25247DA     SC264080  54.406  69.383  15.396
25247DA     SC364081  54.239  69.333  15.208
25247DA     SC464082  54.144  69.564  15.336
25248DA     BB164083  54.409  69.971  15.872
25248DA     BB264084  54.704  69.770  15.791
25248DA     BB364085  54.805  69.851  15.621
25248DA     SC164086  54.646  69.679  15.416
25248DA     SC264087  54.691  69.488  15.261
25248DA     SC364088  54.479  69.564  15.139
25248DA     SC464089  54.513  69.742  15.353
25249DA     BB164090  55.033  69.815  15.851
25249DA     BB264091  55.204  69.597  15.611
25249DA     BB364092  55.280  69.711  15.447
25249DA     SC164093  55.022  69.680  15.275
25249DA     SC264094  54.953  69.562  15.066
25249DA     SC364095  54.759  69.730  15.060
25249DA     SC464096  54.910  69.794  15.288
25250DG     BB164097  55.539  69.583  15.554
25250DG     BB264098  55.543  69.432  15.225
25250DG     BB364099  55.605  69.565  15.091
25250DG     SC164100  55.324  69.672  15.031
25250DG     SC264101  55.176  69.642  14.773
25250DG     SC364102  55.034  69.826  14.955
25250DG     SC464103  55.266  69.792  15.119
25251DT     BB164104  55.788  69.531  14.979
25251DT     BB264105  55.664  69.452  14.649
25251DT     BB364106  55.681  69.617  14.526
25251DT     SC164107  55.478  69.736  14.642
25251DT     SC264108  55.312  69.743  14.505
25251DT     SC364109  55.340  69.913  14.780
25252DA     BB164110  55.876  69.310  14.313
25252DA     BB264111  55.648  69.479  14.079
25252DA     BB364112  55.728  69.668  14.022
25252DA     SC164113  55.588  69.824  14.252
25252DA     SC264114  55.404  69.990  14.277
25252DA     SC364115  55.510  70.044  14.504
25252DA     SC464116  55.669  69.844  14.389
25253DC     BB164117  55.803  69.722  13.817
25253DC     BB264118  55.523  69.930  13.723
25253DC     BB364119  55.581  70.128  13.716
25253DC     SC164120  55.586  70.144  13.978
25253DC     SC264121  55.425  70.270  14.045
25253DC     SC364122  55.677  70.175  14.224
25254DT     BB164123  55.589  70.155  13.432
25254DT     BB264124  55.359  70.412  13.537
25254DT     BB364125  55.460  70.590  13.567
25254DT     SC164126  55.563  70.503  13.792
25254DT     SC264127  55.475  70.610  13.957
25254DT     SC364128  55.742  70.426  13.970
25255DA     BB164129  55.154  70.692  13.299
25255DA     BB264130  55.138  70.927  13.580
25255DA     BB364131  55.292  71.074  13.562
25255DA     SC164132  55.500  70.911  13.727
25255DA     SC264133  55.612  70.925  13.949
25255DA     SC364134  55.787  70.767  13.849
25255DA     SC464135  55.599  70.813  13.646
25256DC     BB164136  55.235  71.263  13.533
25256DC     BB264137  55.295  71.370  13.872
25256DC     BB364138  55.466  71.487  13.881
25256DC     SC164139  55.620  71.276  13.854
25256DC     SC264140  55.724  71.240  14.039
25256DC     SC364141  55.796  71.109  13.751
25257DT     BB164142  55.289  71.669  13.935
25257DT     BB264143  55.508  71.654  14.221
25257DT     BB364144  55.681  71.760  14.184
25257DT     SC164145  55.772  71.572  14.026
25257DT     SC264146  55.940  71.475  14.120
25257DT     SC364147  55.857  71.450  13.808
25258DT     BB164148  55.560  71.882  14.372
25258DT     BB264149  55.884  71.787  14.501
25258DT     BB364150  56.031  71.908  14.420
25258DT     SC164151  56.017  71.784  14.189
25258DT     SC264152  56.197  71.671  14.158
25258DT     SC364153  55.976  71.742  13.932
25259DT     BB164154  56.019  71.945  14.670
25259DT     BB264155  56.359  71.851  14.593
25259DT     BB364156  56.453  72.005  14.491
25259DT     SC164157  56.322  71.949  14.270
25259DT     SC264158  56.458  71.868  14.125
25259DT     SC364159  56.158  71.977  14.065
25260DA     BB164160  56.683  71.826  14.804
25260DA     BB264161  56.897  71.885  14.513
25260DA     BB364162  56.913  72.094  14.473
25260DA     SC164163  56.670  72.101  14.280
25260DA     SC264164  56.628  72.132  14.036
25260DA     SC364165  56.388  72.190  14.105
25260DA     SC464166  56.526  72.135  14.343
25261DC     BB164167  57.087  72.177  14.502
25261DC     BB264168  57.170  72.255  14.159
25261DC     BB364169  57.130  72.454  14.121
25261DC     SC164170  56.871  72.409  14.113
25261DC     SC264171  56.801  72.431  13.911
25261DC     SC364172  56.616  72.418  14.177
25262DT     BB164173  57.398  72.560  14.131
25262DT     BB264174  57.276  72.688  13.817
25262DT     BB364175  57.192  72.876  13.845
25262DT     SC164176  56.979  72.772  13.957
25262DT     SC264177  56.810  72.798  13.826
25262DT     SC364178  56.797  72.716  14.140
25263DA     BB164179  57.479  72.997  13.554
25263DA     BB264180  57.158  73.139  13.446
25263DA     BB364181  57.115  73.317  13.555
25263DA     SC164182  56.960  73.169  13.781
25263DA     SC264183  56.725  73.150  13.862
25263DA     SC364184  56.829  73.071  14.083
25263DA     SC464185  57.044  73.124  13.911
25264DT     BB164186  57.108  73.551  13.480
25264DT     BB264187  56.748  73.575  13.475
25264DT     BB364188  56.685  73.710  13.619
25264DT     SC164189  56.733  73.538  13.812
25264DT     SC264190  56.547  73.472  13.897
25264DT     SC364191  56.841  73.431  14.027
25265DC     BB164192  56.616  73.918  13.440
25265DC     BB264193  56.309  73.849  13.617
25265DC     BB364194  56.294  73.972  13.783
25265DC     SC164195  56.474  73.831  13.913
25265DC     SC264196  56.378  73.725  14.074
25265DC     SC364197  56.698  73.769  14.038
25266DT     BB164198  56.097  74.118  13.663
25266DT     BB264199  55.947  73.992  13.967
25266DT     BB364200  55.983  74.123  14.123
25266DT     SC164201  56.233  74.046  14.140
25266DT     SC264202  56.261  73.936  14.323
25266DT     SC364203  56.497  74.055  14.135
25267DT     BB164204  55.723  74.182  14.112
25267DT     BB264205  55.779  74.062  14.448
25267DT     BB364206  55.847  74.217  14.567
25267DT     SC164207  56.085  74.207  14.458
25267DT     SC264208  56.227  74.132  14.601
25267DT     SC364209  56.299  74.281  14.323
25268DT     BB164210  55.609  74.205  14.686
25268DT     BB264211  55.848  74.154  14.951
25268DT     BB364212  55.917  74.337  15.020
25268DT     SC164213  56.067  74.370  14.807
25268DT     SC264214  56.274  74.354  14.862
25268DT     SC364215  56.161  74.473  14.583
25269DA     BB164216  55.791  74.106  15.348
25269DA     BB264217  56.122  74.243  15.425
25269DA     BB364218  56.109  74.453  15.461
25269DA     SC164219  56.159  74.533  15.165
25269DA     SC264220  56.339  74.641  15.030
25269DA     SC364221  56.154  74.686  14.858
25269DA     SC464222  56.030  74.552  15.071
25270DA     BB164223  56.262  74.362  15.738
25270DA     BB264224  56.537  74.583  15.634
25270DA     BB364225  56.482  74.787  15.663
25270DA     SC164226  56.363  74.820  15.377
25270DA     SC264227  56.421  74.941  15.166
25270DA     SC364228  56.173  74.911  15.106
25270DA     SC464229  56.206  74.793  15.358
25271DT     BB164230  56.580  74.902  15.805
25271DT     BB264231  56.774  75.101  15.575
25271DT     BB364232  56.695  75.292  15.563
25271DT     SC164233  56.493  75.209  15.418
25271DT     SC264234  56.514  75.284  15.217
25271DT     SC364235  56.246  75.154  15.345
25272DC     BB164236  56.903  75.403  15.708
25272DC     BB264237  56.903  75.590  15.400
25272DC     BB364238  56.777  75.753  15.416
25272DC     SC164239  56.564  75.600  15.396
25272DC     SC264240  56.468  75.637  15.207
25272DC     SC364241  56.339  75.479  15.459
25273DA     BB164242  57.143  75.917  15.291
25273DA     BB264243  56.881  76.050  15.071
25273DA     BB364244  56.767  76.199  15.172
25273DA     SC164245  56.556  75.998  15.282
25273DA     SC264246  56.316  75.944  15.244
25273DA     SC364247  56.326  75.832  15.475
25273DA     SC464248  56.582  75.935  15.428
25274DC     BB164249  56.771  76.407  15.115
25274DC     BB264250  56.447  76.410  14.957
25274DC     BB364251  56.313  76.516  15.073
25274DC     SC164252  56.295  76.319  15.245
25274DC     SC264253  56.100  76.229  15.232
25274DC     SC364254  56.314  76.185  15.472
25275DC     BB164255  56.308  76.734  14.901
25275DC     BB264256  55.964  76.627  14.919
25275DC     BB364257  55.868  76.724  15.075
25275DC     SC164258  55.989  76.574  15.253
25275DC     SC264259  55.846  76.442  15.344
25275DC     SC364260  56.144  76.505  15.455
25276DA     BB164261  55.638  76.776  14.730
25276DA     BB264262  55.418  76.649  14.994
25276DA     BB364263  55.377  76.803  15.137
25276DA     SC164264  55.619  76.732  15.320
25276DA     SC264265  55.656  76.633  15.546
25276DA     SC364266  55.888  76.744  15.533
25276DA     SC464267  55.757  76.809  15.293
25277DT     BB164268  55.196  76.849  15.141
25277DT     BB264269  55.118  76.680  15.450
25277DT     BB364270  55.109  76.817  15.605
25277DT     SC164271  55.370  76.840  15.611
25277DT     SC264272  55.445  76.751  15.791
25277DT     SC364273  55.610  76.948  15.593
25278DA     BB164274  54.787  76.547  15.588
25278DA     BB264275  54.918  76.555  15.930
25278DA     BB364276  54.878  76.744  16.021
25278DA     SC164277  55.145  76.873  15.928
25278DA     SC264278  55.358  76.951  16.032
25278DA     SC364279  55.388  77.090  15.818
25278DA     SC464280  55.145  76.953  15.789
25279DT     BB164281  54.783  76.697  16.147
25279DT     BB264282  55.021  76.759  16.411
25279DT     BB364283  55.002  76.954  16.479
25279DT     SC164284  55.120  77.048  16.265
25279DT     SC264285  55.313  77.127  16.318
25279DT     SC364286  55.157  77.181  16.040
25280DA     BB164287  55.029  76.659  16.783
25280DA     BB264288  55.248  76.941  16.868
25280DA     BB364289  55.132  77.116  16.906
25280DA     SC164290  55.139  77.214  16.611
25280DA     SC264291  55.244  77.400  16.481
25280DA     SC364292  55.063  77.351  16.305
25280DA     SC464293  55.019  77.170  16.514
25281DA     BB164294  55.323  77.099  17.174
25281DA     BB264295  55.435  77.438  17.089
25281DA     BB364296  55.277  77.578  17.121
25281DA     SC164297  55.165  77.555  16.831
25281DA     SC264298  55.152  77.697  16.627
25281DA     SC364299  54.962  77.541  16.555
25281DA     SC464300  55.049  77.448  16.805
25282DG     BB164301  55.472  77.715  17.326
25282DG     BB264302  55.442  77.998  17.103
25282DG     BB364303  55.274  78.097  17.141
25282DG     SC164304  55.105  77.934  16.945
25282DG     SC264305  54.980  78.037  16.694
25282DG     SC364306  54.886  77.763  16.754
25282DG     SC464307  55.034  77.800  16.996
25283DA     BB164308  55.442  78.408  17.184
25283DA     BB264309  55.245  78.559  16.914
25283DA     BB364310  55.052  78.614  16.985
25283DA     SC164311  54.921  78.342  16.911
25283DA     SC264312  54.756  78.255  16.745
25283DA     SC364313  54.729  78.057  16.905
25283DA     SC464314  54.917  78.228  17.024
25284DA     BB164315  55.104  78.932  16.884
25284DA     BB264316  54.819  78.896  16.656
25284DA     BB364317  54.636  78.924  16.762
25284DA     SC164318  54.602  78.623  16.833
25284DA     SC264319  54.452  78.434  16.769
25284DA     SC364320  54.530  78.325  16.988
25284DA     SC464321  54.662  78.573  16.973
25285DT     BB164322  54.486  79.102  16.740
25285DT     BB264323  54.236  78.919  16.555
25285DT     BB364324  54.066  78.894  16.671
25285DT     SC164325  54.184  78.709  16.816
25285DT     SC264326  54.094  78.518  16.774
25285DT     SC364327  54.287  78.587  17.025
25286DT     BB164328  53.900  79.087  16.539
25286DT     BB264329  53.711  78.781  16.513
25286DT     BB364330  53.580  78.765  16.672
25286DT     SC164331  53.775  78.704  16.837
25286DT     SC264332  53.757  78.498  16.897
25286DT     SC364333  53.944  78.721  17.039
25287DA     BB164334  53.337  78.719  16.334
25287DA     BB264335  53.267  78.438  16.559
25287DA     BB364336  53.144  78.501  16.721
25287DA     SC164337  53.383  78.574  16.906
25287DA     SC264338  53.488  78.487  17.115
25287DA     SC364339  53.591  78.721  17.137
25287DA     SC464340  53.436  78.725  16.902
25288DT     BB164341  52.953  78.425  16.737
25288DT     BB264342  53.026  78.195  17.005
25288DT     BB364343  52.945  78.265  17.182
25288DT     SC164344  53.132  78.449  17.205
25288DT     SC264345  53.261  78.399  17.369
25288DT     SC364346  53.246  78.686  17.219
25289DG     BB164347  52.800  77.893  17.106
25289DG     BB264348  52.952  77.914  17.434
25289DG     BB364349  52.828  78.004  17.561
25289DG     SC164350  52.934  78.285  17.502
25289DG     SC264351  53.082  78.460  17.693
25289DG     SC364352  53.011  78.609  17.448
25289DG     SC464353  52.869  78.370  17.383
25290DT     BB164354  52.778  77.889  17.717
25290DT     BB264355  52.972  78.038  17.983
25290DT     BB364356  52.853  78.167  18.093
25290DT     SC164357  52.859  78.348  17.903
25290DT     SC264358  52.976  78.516  17.968
25290DT     SC364359  52.777  78.510  17.713
25291DG     BB164360  53.049  77.882  18.312
25291DG     BB264361  53.108  78.217  18.436
25291DG     BB364362  52.943  78.286  18.524
25291DG     SC164363  52.829  78.409  18.268
25291DG     SC264364  52.792  78.701  18.214
25291DG     SC364365  52.664  78.538  18.003
25291DG     SC464366  52.737  78.319  18.173
25292DA     BB164367  53.194  78.355  18.752
25292DA     BB264368  53.094  78.708  18.738
25292DA     BB364369  52.899  78.733  18.822
25292DA     SC164370  52.751  78.693  18.551
25292DA     SC264371  52.620  78.831  18.390
25292DA     SC364372  52.526  78.608  18.306
25292DA     SC464373  52.703  78.544  18.514
25293DA     BB164374  53.091  78.955  18.971
25293DA     BB264375  52.855  79.204  18.842
25293DA     BB364376  52.665  79.183  18.938
25293DA     SC164377  52.553  78.985  18.726
25293DA     SC264378  52.380  78.985  18.546
25293DA     SC364379  52.389  78.730  18.565
25293DA     SC464380  52.572  78.828  18.754
25294DA     BB164381  52.731  79.503  18.980
25294DA     BB264382  52.417  79.566  18.800
25294DA     BB364383  52.250  79.510  18.920
25294DA     SC164384  52.240  79.218  18.811
25294DA     SC264385  52.091  79.080  18.667
25294DA     SC364386  52.205  78.878  18.777
25294DA     SC464387  52.322  79.106  18.893
25295DA     BB164388  52.156  79.820  18.853
25295DA     BB264389  51.857  79.675  18.698
25295DA     BB364390  51.723  79.603  18.848
25295DA     SC164391  51.844  79.316  18.853
25295DA     SC264392  51.777  79.086  18.785
25295DA     SC364393  51.959  79.007  18.948
25295DA     SC464394  51.961  79.287  18.960
25296DA     BB164395  51.503  79.797  18.693
25296DA     BB264396  51.309  79.494  18.627
25296DA     BB364397  51.208  79.430  18.804
25296DA     SC164398  51.441  79.246  18.899
25296DA     SC264399  51.484  79.002  18.924
25296DA     SC364400  51.670  79.072  19.086
25296DA     SC464401  51.550  79.310  18.998
25297DA     BB164402  50.935  79.443  18.617
25297DA     BB264403  50.899  79.083  18.676
25297DA     BB364404  50.822  79.047  18.872
25297DA     SC164405  51.102  79.028  19.005
25297DA     SC264406  51.246  78.853  19.109
25297DA     SC364407  51.368  79.049  19.222
25297DA     SC464408  51.164  79.163  19.067
25298DA     BB164409  50.592  78.875  18.709
25298DA     BB264410  50.714  78.579  18.888
25298DA     BB364411  50.643  78.580  19.089
25298DA     SC164412  50.888  78.734  19.201
25298DA     SC264413  51.085  78.687  19.348
25298DA     SC364414  51.096  78.942  19.379
25298DA     SC464415  50.878  78.894  19.209
25299DA     BB164416  50.535  78.281  19.003
25299DA     BB264417  50.757  78.148  19.262
25299DA     BB364418  50.673  78.181  19.456
25299DA     SC164419  50.811  78.457  19.496
25299DA     SC264420  50.991  78.554  19.638
25299DA     SC364421  50.884  78.781  19.583
25299DA     SC464422  50.729  78.588  19.452
25300DT     BB164423  50.624  78.020  19.556
25300DT     BB264424  50.903  78.029  19.785
25300DT     BB364425  50.841  78.101  19.969
25300DT     SC164426  50.828  78.347  19.877
25300DT     SC264427  50.984  78.465  19.967
25300DT     SC364428  50.727  78.580  19.806
25301DT     BB164429  50.867  77.852  20.071
25301DT     BB264430  51.083  78.058  20.274
25301DT     BB364431  50.975  78.142  20.429
25301DT     SC164432  50.860  78.314  20.267
25301DT     SC264433  50.933  78.512  20.309
25301DT     SC364434  50.672  78.439  20.132
25302DA     BB164435  51.325  77.962  20.574
25302DA     BB264436  51.302  78.300  20.715
25302DA     BB364437  51.145  78.309  20.860
25302DA     SC164438  50.928  78.394  20.654
25302DA     SC264439  50.793  78.596  20.601
25302DA     SC364440  50.635  78.435  20.479
25302DA     SC464441  50.842  78.277  20.584
25303DC     BB164442  51.208  78.342  21.032
25303DC     BB264443  51.093  78.683  21.060
25303DC     BB364444  50.916  78.689  21.167
25303DC     SC164445  50.780  78.594  20.964
25303DC     SC264446  50.652  78.748  20.886
25303DC     SC364447  50.631  78.431  20.820
25304DT     BB164448  51.052  78.800  21.372
25304DT     BB264449  50.784  79.031  21.307
25304DT     BB364450  50.613  78.972  21.407
25304DT     SC164451  50.570  78.778  21.236
25304DT     SC264452  50.396  78.823  21.118
25304DT     SC364453  50.541  78.534  21.139
25305DC     BB164454  50.634  79.172  21.599
25305DC     BB264455  50.301  79.215  21.466
25305DC     BB364456  50.167  79.098  21.572
25305DC     SC164457  50.253  78.880  21.455
25305DC     SC264458  50.101  78.805  21.323
25305DC     SC364459  50.362  78.642  21.422
25306DA     BB164460  49.985  79.477  21.619
25306DA     BB264461  49.722  79.246  21.511
25306DA     BB364462  49.656  79.126  21.675
25306DA     SC164463  49.862  78.898  21.622
25306DA     SC264464  49.859  78.662  21.543
25306DA     SC364465  50.089  78.643  21.655
25306DA     SC464466  50.003  78.906  21.699
25307DG     BB164467  49.347  79.237  21.681
25307DG     BB264468  49.264  78.900  21.580
25307DG     BB364469  49.226  78.788  21.741
25307DG     SC164470  49.516  78.698  21.777
25307DG     SC264471  49.619  78.420  21.744
25307DG     SC364472  49.827  78.596  21.859
25307DG     SC464473  49.615  78.788  21.866
25308DT     BB164474  49.006  78.673  21.814
25308DT     BB264475  49.086  78.338  21.707
25308DT     BB364476  49.106  78.214  21.871
25308DT     SC164477  49.339  78.317  21.931
25308DT     SC264478  49.493  78.172  21.895
25308DT     SC364479  49.527  78.446  22.065
25309DA     BB164480  48.840  78.044  21.600
25309DA     BB264481  49.105  77.800  21.671
25309DA     BB364482  49.077  77.715  21.865
25309DA     SC164483  49.251  77.928  22.010
25309DA     SC264484  49.471  77.939  22.126
25309DA     SC364485  49.380  78.152  22.236
25309DA     SC464486  49.176  78.058  22.069
25310DC     BB164487  49.058  77.558  21.822
25310DC     BB264488  49.388  77.454  21.924
25310DC     BB364489  49.384  77.384  22.119
25310DC     SC164490  49.363  77.628  22.214
25310DC     SC264491  49.546  77.680  22.315
25310DC     SC364492  49.264  77.839  22.337
25311DG     BB164493  49.567  77.182  21.806
25311DG     BB264494  49.783  77.229  22.092
25311DG     BB364495  49.715  77.124  22.247
25311DG     SC164496  49.537  77.349  22.353
25311DG     SC264497  49.575  77.496  22.610
25311DG     SC364498  49.315  77.566  22.486
25311DG     SC464499  49.387  77.361  22.299
25312DA     BB164500  50.062  77.091  22.212
25312DA     BB264501  50.086  77.185  22.566
25312DA     BB364502  49.982  77.044  22.687
25312DA     SC164503  49.712  77.198  22.677
25312DA     SC264504  49.568  77.328  22.833
25312DA     SC364505  49.379  77.283  22.665
25312DA     SC464506  49.608  77.158  22.561
25313DT     BB164507  50.104  76.979  22.782
25313DT     BB264508  50.000  77.115  23.099
25313DT     BB364509  49.868  76.986  23.192
25313DT     SC164510  49.674  77.054  23.029
25313DT     SC264511  49.525  77.165  23.137
25313DT     SC364512  49.488  77.034  22.842
25314DT     BB164513  50.062  76.925  23.366
25314DT     BB264514  49.783  77.019  23.573
25314DT     BB364515  49.657  76.857  23.600
25314DT     SC164516  49.563  76.879  23.356
25314DT     SC264517  49.359  76.946  23.363
25314DT     SC364518  49.508  76.820  23.105
25315DA     BB164519  49.738  76.977  23.996
25315DA     BB264520  49.375  76.927  23.970
25315DA     BB364521  49.329  76.719  23.967
25315DA     SC164522  49.343  76.695  23.657
25315DA     SC264523  49.185  76.659  23.468
25315DA     SC364524  49.392  76.588  23.335
25315DA     SC464525  49.483  76.653  23.592
25316DG     BB164526  49.161  76.743  24.238
25316DG     BB264527  48.882  76.650  24.028
25316DG     BB364528  48.868  76.452  24.018
25316DG     SC164529  49.051  76.427  23.774
25316DG     SC264530  48.968  76.338  23.501
25316DG     SC364531  49.262  76.360  23.520
25316DG     SC464532  49.208  76.412  23.796
25317DG     BB164533  48.558  76.440  24.148
25317DG     BB264534  48.451  76.308  23.828
25317DG     BB364535  48.471  76.110  23.827
25317DG     SC164536  48.758  76.114  23.721
25317DG     SC264537  48.848  76.015  23.454
25317DG     SC364538  49.080  76.082  23.626
25317DG     SC464539  48.879  76.122  23.826
25318DA     BB164540  48.138  76.088  23.727
25318DA     BB264541  48.241  75.923  23.416
25318DA     BB364542  48.285  75.717  23.452
25318DA     SC164543  48.586  75.767  23.511
25318DA     SC264544  48.806  75.719  23.403
25318DA     SC364545  48.906  75.754  23.636
25318DA     SC464546  48.629  75.791  23.664
25319DA     BB164547  48.069  75.688  23.208
25319DA     BB264548  48.339  75.531  23.016
25319DA     BB364549  48.373  75.332  23.084
25319DA     SC164550  48.587  75.415  23.294
25319DA     SC264551  48.833  75.390  23.327
25319DA     SC364552  48.785  75.439  23.574
25319DA     SC464553  48.537  75.446  23.444
25320DT     BB164554  48.334  75.199  22.955
25320DT     BB264555  48.675  75.113  22.875
25320DT     BB364556  48.728  74.938  22.972
25320DT     SC164557  48.748  75.062  23.202
25320DT     SC264558  48.954  75.071  23.261
25320DT     SC364559  48.700  75.130  23.453
25321DT     BB164560  48.722  74.813  22.734
25321DT     BB264561  49.055  74.753  22.860
25321DT     BB364562  49.054  74.586  22.984
25321DT     SC164563  48.938  74.720  23.177
25321DT     SC264564  49.077  74.748  23.339
25321DT     SC364565  48.756  74.793  23.354
25322DC     BB164566  49.187  74.451  22.792
25322DC     BB264567  49.396  74.421  23.085
25322DC     BB364568  49.333  74.261  23.200
25322DC     SC164569  49.125  74.395  23.286
25322DC     SC264570  49.150  74.441  23.495
25322DC     SC364571  48.873  74.462  23.328
25323DT     BB164572  49.551  74.111  23.126
25323DT     BB264573  49.564  74.112  23.487
25323DT     BB364574  49.452  73.956  23.562
25323DT     SC164575  49.227  74.081  23.508
25323DT     SC264576  49.133  74.141  23.692
25323DT     SC364577  48.993  74.135  23.399
25324DA     BB164578  49.828  73.903  23.742
25324DA     BB264579  49.576  73.881  24.008
25324DA     BB364580  49.476  73.692  24.000
25324DA     SC164581  49.250  73.793  23.811
25324DA     SC264582  49.006  73.840  23.824
25324DA     SC364583  49.009  73.819  23.568
25324DA     SC464584  49.273  73.775  23.652
25325DA     BB164585  49.566  73.650  24.318
25325DA     BB264586  49.209  73.642  24.403
25325DA     BB364587  49.128  73.449  24.361
25325DA     SC164588  49.044  73.520  24.070
25325DA     SC264589  48.833  73.557  23.942
25325DA     SC364590  48.976  73.513  23.734
25325DA     SC464591  49.149  73.489  23.953
25326DT     BB164592  49.056  73.310  24.517
25326DT     BB264593  48.705  73.365  24.458
25326DT     BB364594  48.620  73.196  24.373
25326DT     SC164595  48.731  73.249  24.141
25326DT     SC264596  48.578  73.306  24.000
25326DT     SC364597  48.883  73.223  23.927
25327DT     BB164598  48.488  73.134  24.605
25327DT     BB264599  48.227  73.169  24.359
25327DT     BB364600  48.194  72.987  24.265
25327DT     SC164601  48.415  73.010  24.125
25327DT     SC264602  48.365  73.042  23.918
25327DT     SC364603  48.657  72.960  24.033
25328DC     BB164604  47.960  72.974  24.396
25328DC     BB264605  47.873  72.961  24.046
25328DC     BB364606  47.882  72.766  23.978
25328DC     SC164607  48.145  72.771  23.977
25328DC     SC264608  48.215  72.767  23.773
25328DC     SC364609  48.394  72.711  24.038
25329DA     BB164610  47.526  72.957  23.869
25329DA     BB264611  47.668  72.797  23.572
25329DA     BB364612  47.653  72.585  23.588
25329DA     SC164613  47.931  72.551  23.724
25329DA     SC264614  48.155  72.458  23.665
25329DA     SC364615  48.193  72.448  23.919
25329DA     SC464616  47.935  72.551  23.884
25330DT     BB164617  47.549  72.534  23.458
25330DT     BB264618  47.802  72.379  23.253
25330DT     BB364619  47.812  72.176  23.293
25330DT     SC164620  47.934  72.219  23.521
25330DT     SC264621  48.137  72.150  23.507
25330DT     SC364622  47.980  72.224  23.780
25331DT     BB164623  47.705  72.146  23.052
25331DT     BB264624  48.007  71.948  23.045
25331DT     BB364625  47.971  71.762  23.130
25331DT     SC164626  47.969  71.864  23.372
25331DT     SC264627  48.143  71.797  23.479
25331DT     SC364628  47.881  71.936  23.610
25332DC     BB164629  47.983  71.650  22.883
25332DC     BB264630  48.225  71.465  23.077
25332DC     BB364631  48.132  71.309  23.176
25332DC     SC164632  48.025  71.474  23.351
25332DC     SC264633  48.117  71.444  23.543
25332DC     SC364634  47.843  71.607  23.487
25333DT     BB164635  48.238  71.118  23.007
25333DT     BB264636  48.338  71.008  23.336
25333DT     BB364637  48.193  70.885  23.416
25333DT     SC164638  48.036  71.090  23.465
25333DT     SC264639  48.023  71.121  23.677
25333DT     SC364640  47.827  71.251  23.453
25334DA     BB164641  48.546  70.661  23.445
25334DA     BB264642  48.381  70.649  23.773
25334DA     BB364643  48.214  70.516  23.767
25334DA     SC164644  48.011  70.737  23.687
25334DA     SC264645  47.819  70.858  23.790
25334DA     SC364646  47.750  70.913  23.549
25334DA     SC464647  47.984  70.760  23.530
25335DA     BB164648  48.367  70.378  24.024
25335DA     BB264649  48.070  70.459  24.223
25335DA     BB364650  47.912  70.322  24.180
25335DA     SC164651  47.791  70.495  23.951
25335DA     SC264652  47.586  70.631  23.911
25335DA     SC364653  47.641  70.604  23.662
25335DA     SC464654  47.842  70.466  23.801
25336DT     BB164655  47.850  70.194  24.326
25336DT     BB264656  47.538  70.359  24.401
25336DT     BB364657  47.380  70.250  24.324
25336DT     SC164658  47.435  70.329  24.079
25336DT     SC264659  47.281  70.462  24.011
25336DT     SC364660  47.504  70.319  23.825
25337DA     BB164661  47.295  70.325  24.727
25337DA     BB264662  46.997  70.411  24.533
25337DA     BB364663  46.899  70.234  24.464
25337DA     SC164664  47.056  70.222  24.196
25337DA     SC264665  47.009  70.254  23.953
25337DA     SC364666  47.224  70.119  23.915
25337DA     SC464667  47.192  70.135  24.193
25338DT     BB164668  46.717  70.190  24.538
25338DT     BB264669  46.526  70.269  24.242
25338DT     BB364670  46.468  70.094  24.147
25338DT     SC164671  46.710  70.053  24.056
25338DT     SC264672  46.712  70.081  23.842
25338DT     SC364673  46.945  69.938  24.017
25339DT     BB164674  46.201  70.117  24.228
25339DT     BB264675  46.179  70.087  23.869
25339DT     BB364676  46.165  69.887  23.815
25339DT     SC164677  46.420  69.848  23.865
25339DT     SC264678  46.525  69.814  23.680
25339DT     SC364679  46.639  69.753  23.978
25340DT     BB164680  45.888  69.888  23.751
25340DT     BB264681  46.043  69.761  23.451
25340DT     BB364682  46.052  69.554  23.458
25340DT     SC164683  46.249  69.561  23.631
25340DT     SC264684  46.429  69.492  23.537
25340DT     SC364685  46.383  69.527  23.856
25341DC     BB164686  45.846  69.510  23.271
25341DC     BB264687  46.128  69.335  23.131
25341DC     BB364688  46.130  69.139  23.198
25341DC     SC164689  46.214  69.212  23.435
25341DC     SC264690  46.416  69.145  23.463
25341DC     SC364691  46.217  69.250  23.696
25342DA     BB164692  46.154  69.121  22.780
25342DA     BB264693  46.422  68.912  22.917
25342DA     BB364694  46.341  68.730  22.995
25342DA     SC164695  46.300  68.844  23.282
25342DA     SC264696  46.399  68.813  23.509
25342DA     SC364697  46.180  68.916  23.595
25342DA     SC464698  46.157  68.909  23.316
25343DT     BB164699  46.393  68.562  22.904
25343DT     BB264700  46.623  68.445  23.156
25343DT     BB364701  46.535  68.294  23.267
25343DT     SC164702  46.383  68.465  23.395
25343DT     SC264703  46.448  68.478  23.600
25343DT     SC364704  46.167  68.589  23.482
25344DA     BB164705  46.911  68.161  23.134
25344DA     BB264706  46.886  68.094  23.494
25344DA     BB364707  46.750  67.933  23.530
25344DA     SC164708  46.502  68.118  23.560
25344DA     SC264709  46.348  68.193  23.741
25344DA     SC364710  46.186  68.253  23.552
25344DA     SC464711  46.414  68.147  23.428
25345DA     BB164712  47.009  67.811  23.693
25345DA     BB264713  46.800  67.818  23.994
25345DA     BB364714  46.658  67.659  23.990
25345DA     SC164715  46.438  67.826  23.847
25345DA     SC264716  46.216  67.924  23.903
25345DA     SC364717  46.177  67.930  23.649
25345DA     SC464718  46.432  67.819  23.687
25346DT     BB164719  46.669  67.500  24.128
25346DT     BB264720  46.389  67.603  24.331
25346DT     BB364721  46.227  67.479  24.296
25346DT     SC164722  46.180  67.592  24.064
25346DT     SC264723  45.997  67.705  24.075
25346DT     SC364724  46.153  67.622  23.803
25347DT     BB164725  46.248  67.343  24.540
25347DT     BB264726  45.914  67.478  24.543
25347DT     BB364727  45.782  67.342  24.459
25347DT     SC164728  45.868  67.396  24.217
25347DT     SC264729  45.715  67.500  24.108
25347DT     SC364730  45.979  67.362  23.980
25348DT     BB164731  45.670  67.279  24.704
25348DT     BB264732  45.395  67.402  24.505
25348DT     BB364733  45.307  67.247  24.401
25348DT     SC164734  45.507  67.238  24.231
25348DT     SC264735  45.440  67.306  24.039
25348DT     SC364736  45.716  67.147  24.098
25349DA     BB164737  45.017  67.465  24.607
25349DA     BB264738  44.915  67.439  24.256
25349DA     BB364739  44.851  67.241  24.212
25349DA     SC164740  45.133  67.143  24.125
25349DA     SC264741  45.247  67.074  23.914
25349DA     SC364742  45.416  66.957  24.068
25349DA     SC464743  45.226  67.075  24.237
25350DT     BB164744  44.690  67.264  24.168
25350DT     BB264745  44.739  67.217  23.814
25350DT     BB364746  44.705  67.020  23.763
25350DT     SC164747  44.934  66.945  23.867
25350DT     SC264748  45.068  66.886  23.710
25350DT     SC364749  45.107  66.825  24.026
25351DG     BB164750  44.501  67.302  23.548
25351DG     BB264751  44.681  67.070  23.337
25351DG     BB364752  44.592  66.892  23.341
25351DG     SC164753  44.754  66.789  23.580
25351DG     SC264754  44.955  66.568  23.573
25351DG     SC364755  44.900  66.652  23.851
25351DG     SC464756  44.701  66.817  23.728
25352DA     BB164757  44.635  66.946  23.004
25352DA     BB264758  44.817  66.628  22.985
25352DA     BB364759  44.684  66.465  23.019
25352DA     SC164760  44.731  66.459  23.327
25352DA     SC264761  44.841  66.311  23.494
25352DA     SC364762  44.695  66.431  23.667
25352DA     SC464763  44.631  66.545  23.419
25353DA     BB164764  44.826  66.378  22.737
25353DA     BB264765  44.937  66.075  22.911
25353DA     BB364766  44.772  65.945  22.945
25353DA     SC164767  44.703  66.065  23.223
25353DA     SC264768  44.715  65.995  23.463
25353DA     SC364769  44.543  66.181  23.504
25353DA     SC464770  44.596  66.184  23.228
25354DC     BB164771  44.771  65.771  22.849
25354DC     BB264772  44.846  65.562  23.133
25354DC     BB364773  44.674  65.466  23.197
25354DC     SC164774  44.582  65.687  23.306
25354DC     SC264775  44.585  65.667  23.520
25354DC     SC364776  44.427  65.894  23.351
25355DC     BB164777  44.768  65.232  23.099
25355DC     BB264778  44.704  65.164  23.447
25355DC     BB364779  44.506  65.108  23.473
25355DC     SC164780  44.424  65.355  23.442
25355DC     SC264781  44.350  65.430  23.629
25355DC     SC364782  44.301  65.564  23.338
25356DC     BB164783  44.595  64.861  23.522
25356DC     BB264784  44.406  64.950  23.816
25356DC     BB364785  44.205  64.911  23.785
25356DC     SC164786  44.179  65.120  23.628
25356DC     SC264787  44.059  65.268  23.727
25356DC     SC364788  44.135  65.263  23.412
25357DT     BB164789  44.242  64.718  23.961
25357DT     BB264790  43.976  64.920  24.097
25357DT     BB364791  43.796  64.867  24.011
25357DT     SC164792  43.857  64.988  23.787
25357DT     SC264793  43.733  65.162  23.763
25357DT     SC364794  43.914  65.025  23.532
25358DT     BB164795  43.743  64.771  24.249
25358DT     BB264796  43.472  64.998  24.178
25358DT     BB364797  43.332  64.905  24.058
25358DT     SC164798  43.487  64.926  23.847
25358DT     SC264799  43.403  65.068  23.710
25358DT     SC364800  43.639  64.857  23.643
25359DG     BB164801  43.136  65.029  24.394
25359DG     BB264802  42.957  65.127  24.095
25359DG     BB364803  42.863  64.970  24.018
25359DG     SC164804  43.097  64.883  23.841
25359DG     SC264805  43.103  64.888  23.543
25359DG     SC364806  43.341  64.749  23.650
25359DG     SC464807  43.207  64.784  23.901
25360DT     BB164808  42.624  64.935  24.000
25360DT     BB264809  42.568  64.968  23.645
25360DT     BB364810  42.535  64.782  23.561
25360DT     SC164811  42.789  64.721  23.578
25360DT     SC264812  42.874  64.713  23.380
25360DT     SC364813  43.010  64.596  23.650
25361DT     BB164814  42.236  64.773  23.525
25361DT     BB264815  42.354  64.689  23.195
25361DT     BB364816  42.360  64.483  23.172
25361DT     SC164817  42.574  64.464  23.322
25361DT     SC264818  42.742  64.408  23.199
25361DT     SC364819  42.732  64.398  23.523
25362DT     BB164820  42.116  64.424  23.006
25362DT     BB264821  42.381  64.274  22.813
25362DT     BB364822  42.394  64.072  22.855
25362DT     SC164823  42.506  64.120  23.088
25362DT     SC264824  42.711  64.057  23.083
25362DT     SC364825  42.541  64.129  23.349
25363DA     BB164826  42.347  64.061  22.437
25363DA     BB264827  42.641  63.856  22.517
25363DA     BB364828  42.580  63.664  22.588
25363DA     SC164829  42.573  63.750  22.887
25363DA     SC264830  42.704  63.705  23.095
25363DA     SC364831  42.495  63.788  23.219
25363DA     SC464832  42.434  63.804  22.946
25364DA     BB164833  42.772  63.546  22.347
25364DA     BB264834  42.979  63.394  22.608
25364DA     BB364835  42.890  63.214  22.679
25364DA     SC164836  42.728  63.353  22.905
25364DA     SC264837  42.731  63.364  23.154
25364DA     SC364838  42.488  63.444  23.133
25364DA     SC464839  42.579  63.401  22.871
25365DT     BB164840  42.985  63.035  22.644
25365DT     BB264841  43.107  62.988  22.981
25365DT     BB364842  42.997  62.840  23.075
25365DT     SC164843  42.792  63.000  23.105
25365DT     SC264844  42.768  63.048  23.314
25365DT     SC364845  42.548  63.098  23.081
25366DA     BB164846  43.403  62.744  23.118
25366DA     BB264847  43.247  62.724  23.450
25366DA     BB364848  43.125  62.550  23.464
25366DA     SC164849  42.867  62.692  23.364
25366DA     SC264850  42.648  62.764  23.458
25366DA     SC364851  42.568  62.768  23.214
25366DA     SC464852  42.836  62.687  23.206
25367DG     BB164853  43.317  62.471  23.696
25367DG     BB264854  43.018  62.508  23.896
25367DG     BB364855  42.910  62.341  23.887
25367DG     SC164856  42.749  62.427  23.642
25367DG     SC264857  42.456  62.487  23.637
25367DG     SC364858  42.568  62.482  23.363
25367DG     SC464859  42.806  62.395  23.496
25368DC     BB164860  42.868  62.214  24.071
25368DC     BB264861  42.523  62.300  24.134
25368DC     BB364862  42.400  62.144  24.078
25368DC     SC164863  42.432  62.200  23.824
25368DC     SC264864  42.248  62.277  23.743
25368DC     SC364865  42.501  62.173  23.571
25369DA     BB164866  42.303  62.251  24.470
25369DA     BB264867  41.992  62.242  24.275
25369DA     BB364868  41.935  62.040  24.235
25369DA     SC164869  42.091  62.024  23.966
25369DA     SC264870  42.038  62.011  23.723
25369DA     SC364871  42.276  61.921  23.697
25369DA     SC464872  42.242  61.969  23.971
25370DT     BB164873  41.774  61.998  24.317
25370DT     BB264874  41.574  62.007  24.016
25370DT     BB364875  41.541  61.814  23.948
25370DT     SC164876  41.786  61.795  23.858
25370DT     SC264877  41.784  61.792  23.643
25370DT     SC364878  42.035  61.710  23.831
25371DA     BB164879  41.196  62.055  23.965
25371DA     BB264880  41.212  61.893  23.637
25371DA     BB364881  41.180  61.683  23.656
25371DA     SC164882  41.481  61.615  23.690
25371DA     SC264883  41.661  61.502  23.560
25371DA     SC364884  41.781  61.478  23.785
25371DA     SC464885  41.539  61.609  23.840
25372DA     BB164886  40.981  61.798  23.422
25372DA     BB264887  41.148  61.557  23.203
25372DA     BB364888  41.101  61.358  23.262
25372DA     SC164889  41.343  61.331  23.455
25372DA     SC264890  41.558  61.205  23.465
25372DA     SC364891  41.551  61.254  23.717
25372DA     SC464892  41.320  61.370  23.609
25373DA     BB164893  41.036  61.368  22.940
25373DA     BB264894  41.277  61.093  22.909
25373DA     BB364895  41.199  60.915  22.997
25373DA     SC164896  41.319  60.973  23.279
25373DA     SC264897  41.497  60.880  23.426
25373DA     SC364898  41.373  60.998  23.617
25373DA     SC464899  41.226  61.052  23.384
25374DT     BB164900  41.164  60.772  22.875
25374DT     BB264901  41.433  60.555  22.975
25374DT     BB364902  41.362  60.406  23.100
25374DT     SC164903  41.340  60.575  23.301
25374DT     SC264904  41.487  60.527  23.450
25374DT     SC364905  41.230  60.721  23.490
25375DG     BB164906  41.527  60.203  22.786
25375DG     BB264907  41.650  60.077  23.102
25375DG     BB364908  41.515  59.956  23.184
25375DG     SC164909  41.373  60.179  23.337
25375DG     SC264910  41.365  60.210  23.634
25375DG     SC364911  41.180  60.400  23.503
25375DG     SC464912  41.254  60.258  23.265
25376DT     BB164913  41.543  59.724  23.223
25376DT     BB264914  41.590  59.720  23.581
25376DT     BB364915  41.420  59.646  23.673
25376DT     SC164916  41.289  59.870  23.630
25376DT     SC264917  41.258  59.971  23.817
25376DT     SC364918  41.108  60.037  23.537
25377DG     BB164919  41.714  59.387  23.791
25377DG     BB264920  41.535  59.519  24.076
25377DG     BB364921  41.364  59.420  24.100
25377DG     SC164922  41.202  59.608  23.921
25377DG     SC264923  40.983  59.790  24.011
25377DG     SC364924  40.999  59.781  23.716
25377DG     SC464925  41.194  59.578  23.764
25378DT     BB164926  41.316  59.294  24.286
25378DT     BB264927  41.085  59.512  24.457
25378DT     BB364928  40.892  59.439  24.439
25378DT     SC164929  40.878  59.518  24.189
25378DT     SC264930  40.739  59.681  24.173
25378DT     SC364931  40.856  59.507  23.926
25379DG     BB164932  40.973  59.467  24.837
25379DG     BB264933  40.669  59.643  24.751
25379DG     BB364934  40.519  59.513  24.729
25379DG     SC164935  40.570  59.469  24.430
25379DG     SC264936  40.388  59.550  24.207
25379DG     SC364937  40.609  59.381  24.107
25379DG     SC464938  40.673  59.354  24.385
25380DC     BB164939  40.351  59.530  24.858
25380DC     BB264940  40.104  59.672  24.638
25380DC     BB364941  39.974  59.525  24.573
25380DC     SC164942  40.153  59.427  24.409
25380DC     SC264943  40.094  59.465  24.206
25380DC     SC364944  40.324  59.257  24.300
25381DT     BB164945  39.793  59.644  24.727
25381DT     BB264946  39.650  59.644  24.396
25381DT     BB364947  39.559  59.462  24.358
25381DT     SC164948  39.791  59.344  24.325
25381DT     SC264949  39.816  59.291  24.118
25381DT     SC364950  39.994  59.180  24.365
25382DT     BB164951  39.326  59.589  24.376
25382DT     BB264952  39.323  59.435  24.049
25382DT     BB364953  39.261  59.238  24.065
25382DT     SC164954  39.492  59.165  24.166
25382DT     SC264955  39.597  59.044  24.024
25382DT     SC364956  39.669  59.073  24.338
25383DA     BB164957  39.023  59.419  23.769
25383DA     BB264958  39.149  59.102  23.635
25383DA     BB364959  39.050  58.938  23.728
25383DA     SC164960  39.259  58.910  23.957
25383DA     SC264961  39.435  58.748  24.027
25383DA     SC364962  39.415  58.857  24.258
25383DA     SC464963  39.230  58.989  24.094
25384DT     BB164964  38.924  58.816  23.618
25384DT     BB264965  39.145  58.532  23.598
25384DT     BB364966  39.080  58.382  23.725
25384DT     SC164967  39.166  58.513  23.935
25384DT     SC264968  39.335  58.410  24.020
25384DT     SC364969  39.163  58.644  24.165
25385DT     BB164970  38.990  58.224  23.517
25385DT     BB264971  39.227  58.016  23.692
25385DT     BB364972  39.132  57.911  23.843
25385DT     SC164973  39.115  58.126  23.992
25385DT     SC264974  39.246  58.105  24.162
25385DT     SC364975  39.011  58.326  24.129
25386DT     BB164976  39.154  57.678  23.703
25386DT     BB264977  39.325  57.615  24.014
25386DT     BB364978  39.190  57.548  24.156
25386DT     SC164979  39.091  57.789  24.187
25386DT     SC264980  39.146  57.864  24.381
25386DT     SC364981  38.919  57.989  24.187
25387DG     BB164982  39.490  57.277  24.111
25387DG     BB264983  39.453  57.382  24.455
25387DG     BB364984  39.295  57.293  24.536
25387DG     SC164985  39.099  57.514  24.456
25387DG     SC264986  38.955  57.697  24.642
25387DG     SC364987  38.853  57.727  24.366
25387DG     SC464988  39.027  57.505  24.313
25388DT     BB164989  39.346  57.186  24.693
25388DT     BB264990  39.225  57.390  24.965
25388DT     BB364991  39.038  57.324  25.025
25388DT     SC164992  38.924  57.429  24.813
25388DT     SC264993  38.803  57.597  24.873
25388DT     SC364994  38.792  57.447  24.586
25389DC     BB164995  39.184  57.268  25.229
25389DC     BB264996  38.924  57.488  25.349
25389DC     BB364997  38.746  57.383  25.368
25389DC     SC164998  38.710  57.380  25.108
25389DC     SC264999  38.544  57.507  25.057
25389DC     SC365000  38.683  57.289  24.862
25390DT     BB165001  38.807  57.442  25.609
25390DT     BB265002  38.477  57.577  25.552
25390DT     BB365003  38.338  57.424  25.551
25390DT     SC165004  38.414  57.345  25.313
25390DT     SC265005  38.259  57.387  25.170
25390DT     SC365006  38.513  57.192  25.122
25391DT     BB165007  38.260  57.527  25.780
25391DT     BB265008  37.961  57.513  25.578
25391DT     BB365009  37.881  57.323  25.584
25391DT     SC165010  38.068  57.231  25.424
25391DT     SC265011  37.982  57.182  25.233
25391DT     SC365012  38.274  57.090  25.339
25392DG     BB165013  37.584  57.568  25.721
25392DG     BB265014  37.461  57.346  25.463
25392DG     BB365015  37.431  57.165  25.539
25392DG     SC165016  37.715  57.067  25.478
25392DG     SC265017  37.789  56.854  25.281
25392DG     SC365018  38.023  56.933  25.444
25392DG     SC465019  37.830  57.090  25.587
25393DC     BB165020  37.220  57.045  25.566
25393DC     BB265021  37.245  56.797  25.305
25393DC     BB365022  37.279  56.610  25.387
25393DC     SC165023  37.529  56.671  25.440
25393DC     SC265024  37.659  56.557  25.312
25393DC     SC365025  37.749  56.719  25.577
25394DA     BB165026  36.932  56.530  25.159
25394DA     BB265027  37.177  56.270  25.076
25394DA     BB365028  37.185  56.124  25.231
25394DA     SC165029  37.410  56.268  25.390
25394DA     SC265030  37.651  56.232  25.443
25394DA     SC365031  37.612  56.396  25.636
25394DA     SC465032  37.366  56.371  25.505
25395DG     BB165033  37.086  55.893  25.032
25395DG     BB265034  37.419  55.761  25.086
25395DG     BB365035  37.420  55.640  25.243
25395DG     SC165036  37.482  55.862  25.445
25395DG     SC265037  37.735  55.889  25.602
25395DG     SC365038  37.531  56.083  25.695
25395DG     SC465039  37.361  55.943  25.511
25396DT     BB165040  37.470  55.411  25.234
25396DT     BB265041  37.807  55.417  25.363
25396DT     BB365042  37.811  55.337  25.554
25396DT     SC165043  37.702  55.554  25.655
25396DT     SC265044  37.847  55.658  25.775
25396DT     SC365045  37.528  55.711  25.775
25397DA     BB165046  38.102  55.155  25.315
25397DA     BB265047  38.262  55.272  25.624
25397DA     BB365048  38.203  55.149  25.789
25397DA     SC165049  37.958  55.325  25.864
25397DA     SC265050  37.890  55.478  26.048
25397DA     SC365051  37.650  55.438  25.967
25397DA     SC465052  37.816  55.286  25.799
25398DT     BB165053  38.349  55.069  25.851
25398DT     BB265054  38.383  55.269  26.149
25398DT     BB365055  38.299  55.170  26.310
25398DT     SC165056  38.057  55.224  26.227
25398DT     SC265057  37.965  55.366  26.361
25398DT     SC365058  37.811  55.188  26.138
25399DG     BB165059  38.686  55.289  26.367
25399DG     BB265060  38.467  55.399  26.633
25399DG     BB365061  38.416  55.245  26.747
25399DG     SC165062  38.167  55.175  26.582
25399DG     SC265063  37.884  55.197  26.674
25399DG     SC365064  37.900  55.058  26.413
25399DG     SC465065  38.182  55.075  26.458
25400DT     BB165066  38.471  55.278  26.927
25400DT     BB265067  38.159  55.332  27.100
25400DT     BB365068  38.089  55.153  27.178
25400DT     SC165069  38.015  55.070  26.940
25400DT     SC265070  37.800  55.065  26.930
25400DT     SC365071  38.004  54.924  26.721
25401DT     BB165072  38.152  55.254  27.414
25401DT     BB265073  37.804  55.161  27.443
25401DT     BB365074  37.789  54.959  27.486
25401DT     SC165075  37.851  54.893  27.239
25401DT     SC265076  37.678  54.811  27.141
25401DT     SC365077  37.983  54.791  27.035
25402DA     BB165078  37.557  55.156  27.776
25402DA     BB265079  37.359  54.876  27.646
25402DA     BB365080  37.436  54.691  27.719
25402DA     SC165081  37.629  54.649  27.479
25402DA     SC265082  37.650  54.497  27.283
25402DA     SC365083  37.896  54.568  27.279
25402DA     SC465084  37.780  54.704  27.495
25403DT     BB165085  37.328  54.568  27.857
25403DT     BB265086  37.238  54.307  27.625
25403DT     BB365087  37.351  54.138  27.662
25403DT     SC165088  37.564  54.247  27.553
25403DT     SC265089  37.609  54.147  27.368
25403DT     SC365090  37.807  54.346  27.529
25404DT     BB165091  37.144  53.990  27.784
25404DT     BB265092  37.256  53.775  27.516
25404DT     BB365093  37.406  53.649  27.585
25404DT     SC165094  37.581  53.845  27.584
25404DT     SC265095  37.725  53.811  27.429
25404DT     SC365096  37.755  54.022  27.673
25405DA     BB165097  37.126  53.382  27.421
25405DA     BB265098  37.454  53.294  27.283
25405DA     BB365099  37.570  53.189  27.428
25405DA     SC165100  37.701  53.446  27.544
25405DA     SC265101  37.926  53.553  27.547
25405DA     SC365102  37.839  53.684  27.750
25405DA     SC465103  37.629  53.517  27.669
25406DG     BB165104  37.574  52.943  27.231
25406DG     BB265105  37.929  53.013  27.219
25406DG     BB365106  38.021  52.923  27.370
25406DG     SC165107  37.988  53.157  27.564
25406DG     SC265108  38.209  53.326  27.674
25406DG     SC365109  37.952  53.387  27.808
25406DG     SC465110  37.856  53.166  27.654
25407DC     BB165111  38.180  52.759  27.341
25407DC     BB265112  38.481  52.945  27.414
25407DC     BB365113  38.554  52.891  27.599
25407DC     SC165114  38.366  53.027  27.722
25407DC     SC265115  38.454  53.198  27.819
25407DC     SC365116  38.157  53.079  27.873
25408DA     BB165117  38.872  52.851  27.329
25408DA     BB265118  38.991  53.049  27.613
25408DA     BB365119  39.022  52.924  27.783
25408DA     SC165120  38.734  52.961  27.894
25408DA     SC265121  38.624  53.073  28.087
25408DA     SC365122  38.427  52.915  28.040
25408DA     SC465123  38.623  52.854  27.849
25409DC     BB165124  39.210  52.902  27.849
25409DC     BB265125  39.176  53.114  28.139
25409DC     BB365126  39.164  52.998  28.310
25409DC     SC165127  38.917  52.928  28.254
25409DC     SC265128  38.783  53.020  28.396
25409DC     SC365129  38.709  52.778  28.194
25410DA     BB165130  39.459  53.290  28.365
25410DA     BB265131  39.235  53.298  28.655
25410DA     BB365132  39.267  53.127  28.778
25410DA     SC165133  39.054  52.952  28.633
25410DA     SC265134  38.830  52.856  28.683
25410DA     SC365135  38.879  52.693  28.491
25410DA     SC465136  39.104  52.860  28.512
25411DA     BB165137  39.296  53.371  28.992
25411DA     BB265138  39.011  53.222  29.167
25411DA     BB365139  39.071  53.043  29.268
25411DA     SC165140  39.006  52.857  29.028
25411DA     SC265141  38.838  52.681  28.971
25411DA     SC365142  39.008  52.606  28.793
25411DA     SC465143  39.125  52.824  28.925
25412DT     BB165144  39.059  53.054  29.458
25412DT     BB265145  38.769  52.844  29.497
25412DT     BB365146  38.826  52.654  29.557
25412DT     SC165147  38.913  52.596  29.316
25412DT     SC265148  38.784  52.449  29.227
25412DT     SC365149  39.079  52.532  29.121
25413DT     BB165150  38.724  52.706  29.801
25413DT     BB265151  38.553  52.408  29.692
25413DT     BB365152  38.665  52.240  29.739
25413DT     SC165153  38.834  52.290  29.544
25413DT     SC265154  38.811  52.141  29.390
25413DT     SC365155  39.059  52.348  29.419
25414DC     BB165156  38.489  52.176  29.935
25414DC     BB265157  38.497  51.886  29.720
25414DC     BB365158  38.652  51.760  29.777
25414DC     SC165159  38.831  51.921  29.671
25414DC     SC265160  38.917  51.828  29.498
25414DC     SC365161  39.035  52.087  29.653
25415DA     BB165162  38.306  51.525  29.762
25415DA     BB265163  38.568  51.352  29.573
25415DA     BB365164  38.712  51.267  29.705
25415DA     SC165165  38.895  51.518  29.706
25415DA     SC265166  39.120  51.583  29.620
25415DA     SC365167  39.110  51.771  29.794
25415DA     SC465168  38.870  51.628  29.821
25416DT     BB165169  38.724  51.068  29.711
25416DT     BB265170  39.033  51.042  29.525
25416DT     BB365171  39.189  50.999  29.654
25416DT     SC165172  39.192  51.246  29.745
25416DT     SC265173  39.371  51.344  29.677
25416DT     SC365174  39.173  51.449  29.911
25417DA     BB165175  39.189  50.733  29.331
25417DA     BB265176  39.527  50.869  29.369
25417DA     BB365177  39.620  50.790  29.543
25417DA     SC165178  39.520  51.018  29.730
25417DA     SC265179  39.618  51.211  29.854
25417DA     SC365180  39.404  51.201  29.996
25417DA     SC465181  39.381  50.995  29.807
25418DT     BB165182  39.764  50.691  29.497
25418DT     BB265183  40.017  50.923  29.608
25418DT     BB365184  40.085  50.870  29.795
25418DT     SC165185  39.866  50.958  29.909
25418DT     SC265186  39.911  51.134  30.024
25418DT     SC365187  39.639  50.958  30.044
25419DA     BB165188  40.401  50.946  29.528
25419DA     BB265189  40.469  51.121  29.843
25419DA     BB365190  40.512  50.980  29.998
25419DA     SC165191  40.216  50.954  30.090
25419DA     SC265192  40.078  51.019  30.287
25419DA     SC365193  39.914  50.839  30.206
25419DA     SC465194  40.128  50.837  30.024
25420DA     BB165195  40.764  51.193  30.011
25420DA     BB265196  40.665  51.249  30.360
25420DA     BB365197  40.706  51.075  30.477
25420DA     SC165198  40.425  50.949  30.431
25420DA     SC265199  40.219  50.902  30.564
25420DA     SC365200  40.164  50.732  30.380
25420DA     SC465201  40.409  50.847  30.307
25421DT     BB165202  40.852  51.080  30.622
25421DT     BB265203  40.636  51.073  30.911
25421DT     BB365204  40.640  50.885  30.997
25421DT     SC165205  40.491  50.785  30.806
25421DT     SC265206  40.296  50.736  30.885
25421DT     SC365207  40.417  50.637  30.601
25422DG     BB165208  40.772  51.126  31.301
25422DG     BB265209  40.504  50.911  31.416
25422DG     BB365210  40.576  50.730  31.459
25422DG     SC165211  40.534  50.620  31.176
25422DG     SC265212  40.341  50.406  31.099
25422DG     SC365213  40.519  50.473  30.873
25422DG     SC465214  40.650  50.638  31.068
25423DT     BB165215  40.583  50.625  31.675
25423DT     BB265216  40.320  50.380  31.643
25423DT     BB365217  40.401  50.191  31.627
25423DT     SC165218  40.476  50.234  31.380
25423DT     SC265219  40.357  50.114  31.247
25423DT     SC365220  40.633  50.266  31.170
25424DT     BB165221  40.332  50.112  31.889
25424DT     BB265222  40.183  49.857  31.681
25424DT     BB365223  40.316  49.701  31.653
25424DT     SC165224  40.460  49.843  31.485
25424DT     SC265225  40.438  49.762  31.287
25424DT     SC365226  40.665  49.973  31.382
25425DA     BB165227  39.969  49.513  31.797
25425DA     BB265228  40.078  49.328  31.499
25425DA     BB365229  40.247  49.206  31.546
25425DA     SC165230  40.456  49.424  31.472
25425DA     SC265231  40.626  49.464  31.294
25425DA     SC365232  40.732  49.628  31.460
25425DA     SC465233  40.508  49.520  31.590
25426DA     BB165234  40.068  48.951  31.428
25426DA     BB265235  40.326  48.906  31.171
25426DA     BB365236  40.494  48.803  31.252
25426DA     SC165237  40.643  49.062  31.340
25426DA     SC265238  40.846  49.189  31.272
25426DA     SC365239  40.832  49.295  31.506
25426DA     SC465240  40.618  49.115  31.489
25427DA     BB165241  40.456  48.580  31.007
25427DA     BB265242  40.789  48.674  30.887
25427DA     BB365243  40.940  48.576  31.001
25427DA     SC165244  40.965  48.804  31.211
25427DA     SC265245  41.131  48.978  31.277
25427DA     SC365246  41.005  48.986  31.500
25427DA     SC465247  40.874  48.793  31.343
25428DT     BB165248  41.079  48.416  30.922
25428DT     BB265249  41.371  48.627  30.899
25428DT     BB365250  41.510  48.570  31.041
25428DT     SC165251  41.370  48.679  31.234
25428DT     SC265252  41.473  48.852  31.308
25428DT     SC365253  41.226  48.701  31.454
25429DT     BB165254  41.690  48.446  30.858
25429DT     BB265255  41.890  48.700  31.020
25429DT     BB365256  41.986  48.620  31.184
25429DT     SC165257  41.764  48.618  31.324
25429DT     SC265258  41.776  48.765  31.480
25429DT     SC365259  41.557  48.527  31.460
25430DA     BB165260  42.274  48.808  30.947
25430DA     BB265261  42.308  48.936  31.289
25430DA     BB365262  42.401  48.789  31.414
25430DA     SC165263  42.132  48.659  31.502
25430DA     SC265264  41.994  48.643  31.709
25430DA     SC365265  41.886  48.440  31.597
25430DA     SC465266  42.078  48.535  31.416
25431DA     BB165267  42.574  49.058  31.457
25431DA     BB265268  42.469  49.041  31.808
25431DA     BB365269  42.571  48.882  31.908
25431DA     SC165270  42.353  48.669  31.844
25431DA     SC265271  42.180  48.539  31.969
25431DA     SC365272  42.185  48.380  31.768
25431DA     SC465273  42.371  48.582  31.711
25432DA     BB165274  42.603  49.152  32.086
25432DA     BB265275  42.436  48.963  32.352
25432DA     BB365276  42.564  48.807  32.423
25432DA     SC165277  42.457  48.595  32.223
25432DA     SC265278  42.320  48.387  32.230
25432DA     SC365279  42.426  48.334  32.002
25432DA     SC465280  42.535  48.579  32.083
25433DA     BB165281  42.459  48.973  32.685
25433DA     BB265282  42.325  48.652  32.801
25433DA     BB365283  42.485  48.519  32.850
25433DA     SC165284  42.502  48.395  32.565
25433DA     SC265285  42.451  48.177  32.455
25433DA     SC365286  42.609  48.257  32.270
25433DA     SC465287  42.605  48.462  32.461
25434DC     BB165288  42.493  48.475  33.034
25434DC     BB265289  42.383  48.132  33.009
25434DC     BB365290  42.546  48.005  33.015
25434DC     SC165291  42.614  48.067  32.769
25434DC     SC265292  42.579  47.897  32.641
25434DC     SC365293  42.754  48.160  32.566
25435DC     BB165294  42.482  47.926  33.268
25435DC     BB265295  42.503  47.617  33.083
25435DC     BB365296  42.699  47.549  33.082
25435DC     SC165297  42.770  47.731  32.907
25435DC     SC265298  42.813  47.636  32.719
25435DC     SC365299  42.892  47.940  32.802
25436DT     BB165300  42.654  47.342  33.267
25436DT     BB265301  42.798  47.172  32.983
25436DT     BB365302  43.004  47.166  33.001
25436DT     SC165303  43.025  47.420  32.939
25436DT     SC265304  43.117  47.439  32.746
25436DT     SC365305  43.079  47.677  32.962
25437DA     BB165306  42.902  46.762  32.945
25437DA     BB265307  43.172  46.839  32.710
25437DA     BB365308  43.360  46.847  32.812
25437DA     SC165309  43.342  47.152  32.873
25437DA     SC265310  43.455  47.361  32.800
25437DA     SC365311  43.363  47.462  33.017
25437DA     SC465312  43.277  47.196  33.013
25438DT     BB165313  43.516  46.702  32.778
25438DT     BB265314  43.728  46.918  32.581
25438DT     BB365315  43.896  46.970  32.689
25438DT     SC165316  43.759  47.137  32.838
25438DT     SC265317  43.816  47.339  32.792
25438DT     SC365318  43.646  47.245  33.051
25439DA     BB165319  44.027  46.822  32.321
25439DA     BB265320  44.194  47.143  32.378
25439DA     BB365321  44.347  47.122  32.525
25439DA     SC165322  44.160  47.190  32.764
25439DA     SC265323  44.130  47.376  32.928
25439DA     SC365324  44.006  47.204  33.071
25439DA     SC465325  44.088  47.068  32.839
25440DA     BB165326  44.506  47.262  32.277
25440DA     BB265327  44.573  47.540  32.507
25440DA     BB365328  44.719  47.483  32.651
25440DA     SC165329  44.510  47.379  32.857
25440DA     SC265330  44.422  47.447  33.081
25440DA     SC365331  44.345  47.203  33.101
25440DA     SC465332  44.472  47.223  32.852
25441DT     BB165333  44.875  47.582  32.635
25441DT     BB265334  44.828  47.787  32.928
25441DT     BB365335  44.940  47.713  33.085
25441DT     SC165336  44.772  47.514  33.121
25441DT     SC265337  44.667  47.542  33.306
25441DT     SC365338  44.678  47.268  33.133
25442DG     BB165339  45.031  48.103  33.013
25442DG     BB265340  44.946  48.045  33.359
25442DG     BB365341  45.096  47.953  33.452
25442DG     SC165342  44.994  47.671  33.387
25442DG     SC265343  44.894  47.471  33.585
25442DG     SC365344  44.923  47.349  33.317
25442DG     SC465345  45.039  47.602  33.250
25443DA     BB165346  45.043  48.208  33.676
25443DA     BB265347  44.983  47.959  33.938
25443DA     BB365348  45.165  47.862  33.991
25443DA     SC165349  45.133  47.633  33.783
25443DA     SC265350  45.088  47.388  33.784
25443DA     SC365351  45.188  47.389  33.548
25443DA     SC465352  45.200  47.655  33.638
25444DT     BB165353  45.205  47.900  34.162
25444DT     BB265354  45.131  47.574  34.300
25444DT     BB365355  45.305  47.464  34.316
25444DT     SC165356  45.312  47.421  34.057
25444DT     SC265357  45.271  47.214  34.018
25444DT     SC365358  45.396  47.426  33.807
25445DT     BB165359  45.263  47.499  34.571
25445DT     BB265360  45.285  47.141  34.526
25445DT     BB365361  45.483  47.084  34.512
25445DT     SC165362  45.503  47.179  34.269
25445DT     SC265363  45.523  47.015  34.130
25445DT     SC365364  45.582  47.328  34.066
25446DT     BB165365  45.447  46.976  34.751
25446DT     BB265366  45.574  46.707  34.546
25446DT     BB365367  45.780  46.720  34.533
25446DT     SC165368  45.765  46.923  34.367
25446DT     SC265369  45.830  46.860  34.172
25446DT     SC365370  45.791  47.166  34.270
25447DA     BB165371  45.712  46.324  34.663
25447DA     BB265372  45.960  46.310  34.393
25447DA     BB365373  46.148  46.382  34.461
25447DA     SC165374  46.093  46.677  34.379
25447DA     SC265375  46.174  46.839  34.208
25447DA     SC365376  46.078  47.020  34.364
25447DA     SC465377  46.028  46.774  34.489
25448DA     BB165378  46.323  46.093  34.383
25448DA     BB265379  46.533  46.288  34.154
25448DA     BB365380  46.689  46.385  34.262
25448DA     SC165381  46.525  46.645  34.314
25448DA     SC265382  46.528  46.883  34.240
25448DA     SC365383  46.390  46.929  34.451
25448DA     SC465384  46.442  46.653  34.451
25449DT     BB165385  46.971  46.359  34.290
25449DT     BB265386  47.050  46.649  34.090
25449DT     BB365387  47.147  46.791  34.207
25449DT     SC165388  46.922  46.857  34.326
25449DT     SC265389  46.864  47.054  34.264
25449DT     SC365390  46.744  46.891  34.516
25450DG     BB165391  47.514  46.748  33.982
25450DG     BB265392  47.409  47.094  33.979
25450DG     BB365393  47.493  47.192  34.130
25450DG     SC165394  47.268  47.133  34.328
25450DG     SC265395  47.081  47.333  34.447
25450DG     SC365396  47.048  47.070  34.577
25450DG     SC465397  47.274  46.998  34.415
25451DC     BB165398  47.683  47.412  34.152
25451DC     BB265399  47.435  47.668  34.202
25451DC     BB365400  47.462  47.758  34.387
25451DC     SC165401  47.363  47.550  34.512
25451DC     SC265402  47.172  47.602  34.597
25451DC     SC365403  47.347  47.339  34.669
25452DA     BB165404  47.445  48.051  34.093
25452DA     BB265405  47.187  48.124  34.343
25452DA     BB365406  47.276  48.206  34.519
25452DA     SC165407  47.314  47.929  34.657
25452DA     SC265408  47.218  47.805  34.851
25452DA     SC365409  47.432  47.664  34.840
25452DA     SC465410  47.454  47.854  34.635
25453DA     BB165411  47.029  48.382  34.409
25453DA     BB265412  46.871  48.300  34.730
25453DA     BB365413  46.975  48.395  34.890
25453DA     SC165414  47.169  48.157  34.938
25453DA     SC265415  47.208  47.983  35.113
25453DA     SC365416  47.442  47.961  35.010
25453DA     SC465417  47.310  48.159  34.861
25454DT     BB165418  46.851  48.484  34.944
25454DT     BB265419  46.791  48.295  35.245
25454DT     BB365420  46.907  48.369  35.400
25454DT     SC165421  47.123  48.259  35.299
25454DT     SC265422  47.187  48.098  35.427
25454DT     SC365423  47.363  48.236  35.193
25455DA     BB165424  46.499  48.286  35.486
25455DA     BB265425  46.711  48.149  35.752
25455DA     BB365426  46.810  48.307  35.857
25455DA     SC165427  47.060  48.306  35.673
25455DA     SC265428  47.301  48.243  35.689
25455DA     SC365429  47.334  48.394  35.485
25455DA     SC465430  47.060  48.405  35.547
25456DG     BB165431  46.653  48.148  36.069
25456DG     BB265432  46.985  48.099  36.203
25456DG     BB365433  47.052  48.268  36.284
25456DG     SC165434  47.178  48.371  36.025
25456DG     SC265435  47.470  48.408  35.975
25456DG     SC365436  47.311  48.524  35.755
25456DG     SC465437  47.089  48.458  35.924
25457DT     BB165438  47.094  48.267  36.488
25457DT     BB265439  47.454  48.287  36.497
25457DT     BB365440  47.513  48.482  36.529
25457DT     SC165441  47.453  48.550  36.283
25457DT     SC265442  47.634  48.591  36.174
25457DT     SC365443  47.334  48.670  36.081
25458DT     BB165444  47.587  48.427  36.788
25458DT     BB265445  47.882  48.577  36.644
25458DT     BB365446  47.872  48.783  36.662
25458DT     SC165447  47.694  48.799  36.470
25458DT     SC265448  47.784  48.892  36.298
25458DT     SC365449  47.466  48.848  36.347
25459DA     BB165450  48.244  48.698  36.844
25459DA     BB265451  48.300  48.974  36.609
25459DA     BB365452  48.225  49.157  36.690
25459DA     SC165453  47.941  49.125  36.566
25459DA     SC265454  47.805  49.233  36.388
25459DA     SC365455  47.603  49.128  36.508
25459DA     SC465456  47.829  49.053  36.656
25460DT     BB165457  48.350  49.338  36.759
25460DT     BB265458  48.271  49.550  36.478
25460DT     BB365459  48.150  49.706  36.539
25460DT     SC165460  47.941  49.548  36.557
25460DT     SC265461  47.801  49.596  36.402
25460DT     SC365462  47.740  49.414  36.663
25461DA     BB165463  48.468  49.916  36.358
25461DA     BB265464  48.158  50.047  36.213
25461DA     BB365465  48.064  50.183  36.349
25461DA     SC165466  47.892  49.964  36.488
25461DA     SC265467  47.652  49.898  36.502
25461DA     SC365468  47.719  49.773  36.715
25461DA     SC465469  47.954  49.893  36.619
25462DG     BB165470  48.097  50.415  36.135
25462DG     BB265471  47.735  50.399  36.125
25462DG     BB365472  47.658  50.517  36.265
25462DG     SC165473  47.655  50.301  36.482
25462DG     SC265474  47.411  50.181  36.605
25462DG     SC365475  47.656  50.095  36.749
25462DG     SC465476  47.785  50.282  36.574
25463DT     BB165477  47.526  50.698  36.216
25463DT     BB265478  47.202  50.563  36.298
25463DT     BB365479  47.133  50.646  36.475
25463DT     SC165480  47.299  50.500  36.617
25463DT     SC265481  47.188  50.354  36.729
25463DT     SC365482  47.497  50.437  36.779
25464DT     BB165483  46.950  50.785  36.333
25464DT     BB265484  46.757  50.585  36.564
25464DT     BB365485  46.738  50.684  36.744
25464DT     SC165486  46.986  50.632  36.809
25464DT     SC265487  46.990  50.491  36.972
25464DT     SC365488  47.240  50.670  36.870
25465DA     BB165489  46.366  50.550  36.606
25465DA     BB265490  46.406  50.442  36.954
25465DA     BB365491  46.391  50.609  37.086
25465DA     SC165492  46.696  50.671  37.082
25465DA     SC265493  46.889  50.657  37.239
25465DA     SC365494  47.003  50.825  37.082
25465DA     SC465495  46.749  50.776  36.973
25466DA     BB165496  46.184  50.386  37.198
25466DA     BB265497  46.386  50.391  37.504
25466DA     BB365498  46.358  50.575  37.608
25466DA     SC165499  46.592  50.721  37.465
25466DA     SC265500  46.819  50.808  37.523
25466DA     SC365501  46.794  50.954  37.313
25466DA     SC465502  46.557  50.805  37.332
25467DA     BB165503  46.314  50.332  37.819
25467DA     BB265504  46.591  50.482  38.007
25467DA     BB365505  46.531  50.670  38.089
25467DA     SC165506  46.623  50.836  37.843
25467DA     SC265507  46.803  51.000  37.788
25467DA     SC365508  46.652  51.068  37.592
25467DA     SC465509  46.515  50.865  37.728
25468DG     BB165510  46.625  50.495  38.322
25468DG     BB265511  46.872  50.757  38.349
25468DG     BB365512  46.789  50.922  38.424
25468DG     SC165513  46.709  51.035  38.151
25468DG     SC265514  46.820  51.281  38.024
25468DG     SC365515  46.589  51.179  37.871
25468DG     SC465516  46.567  50.994  38.089
25469DC     BB165517  46.879  50.970  38.585
25469DC     BB265518  47.057  51.270  38.492
25469DC     BB365519  46.942  51.436  38.534
25469DC     SC165520  46.786  51.390  38.328
25469DC     SC265521  46.819  51.541  38.179
25469DC     SC365522  46.570  51.334  38.188
25470DA     BB165523  47.337  51.477  38.677
25470DA     BB265524  47.240  51.788  38.509
25470DA     BB365525  47.088  51.888  38.620
25470DA     SC165526  46.853  51.748  38.471
25470DA     SC265527  46.675  51.810  38.308
25470DA     SC365528  46.556  51.597  38.388
25470DA     SC465529  46.795  51.612  38.534
25471DT     BB165530  47.134  52.060  38.705
25471DT     BB265531  46.938  52.276  38.492
25471DT     BB365532  46.764  52.333  38.590
25471DT     SC165533  46.657  52.096  38.554
25471DT     SC265534  46.495  52.111  38.413
25471DT     SC365535  46.554  51.859  38.608
25472DA     BB165536  46.932  52.702  38.477
25472DA     BB265537  46.576  52.713  38.388
25472DA     BB365538  46.457  52.741  38.562
25472DA     SC165539  46.421  52.437  38.616
25472DA     SC265540  46.238  52.268  38.607
25472DA     SC365541  46.386  52.128  38.762
25472DA     SC465542  46.527  52.366  38.714
25473DA     BB165543  46.322  53.011  38.417
25473DA     BB265544  45.995  52.846  38.439
25473DA     BB365545  45.916  52.865  38.636
25473DA     SC165546  46.043  52.601  38.740
25473DA     SC265547  45.967  52.374  38.809
25473DA     SC365548  46.192  52.357  38.930
25473DA     SC465549  46.188  52.610  38.809
25474DA     BB165550  45.639  53.004  38.506
25474DA     BB265551  45.447  52.724  38.643
25474DA     BB365552  45.406  52.756  38.850
25474DA     SC165553  45.663  52.611  38.948
25474DA     SC265554  45.723  52.400  39.067
25474DA     SC365555  45.945  52.517  39.120
25474DA     SC465556  45.795  52.701  38.972
25475DA     BB165557  45.081  52.719  38.781
25475DA     BB265558  45.080  52.426  39.002
25475DA     BB365559  45.065  52.487  39.206
25475DA     SC165560  45.373  52.503  39.249
25475DA     SC265561  45.549  52.379  39.374
25475DA     SC365562  45.690  52.592  39.348
25475DA     SC465563  45.444  52.645  39.223
25476DT     BB165564  44.888  52.450  39.339
25476DT     BB265565  45.038  52.185  39.532
25476DT     BB365566  45.074  52.250  39.725
25476DT     SC165567  45.279  52.394  39.647
25476DT     SC265568  45.460  52.307  39.722
25476DT     SC365569  45.430  52.605  39.599
25477DT     BB165570  44.863  52.104  39.844
25477DT     BB265571  45.157  51.992  40.021
25477DT     BB365572  45.186  52.109  40.189
25477DT     SC165573  45.274  52.309  40.044
25477DT     SC265574  45.485  52.336  40.079
25477DT     SC365575  45.288  52.548  39.934
25478DA     BB165576  45.184  51.715  40.333
25478DA     BB265577  45.485  51.878  40.464
25478DA     BB365578  45.435  52.009  40.624
25478DA     SC165579  45.395  52.257  40.442
25478DA     SC265580  45.509  52.474  40.397
25478DA     SC365581  45.284  52.550  40.300
25478DA     SC465582  45.246  52.286  40.387
25479DA     BB165583  45.660  51.830  40.780
25479DA     BB265584  45.856  52.138  40.811
25479DA     BB365585  45.778  52.260  40.967
25479DA     SC165586  45.584  52.416  40.781
25479DA     SC265587  45.562  52.647  40.688
25479DA     SC365588  45.316  52.586  40.649
25479DA     SC465589  45.434  52.360  40.765
25480DG     BB165590  46.062  52.217  41.074
25480DG     BB265591  46.086  52.573  41.013
25480DG     BB365592  46.004  52.673  41.164
25480DG     SC165593  45.724  52.678  41.041
25480DG     SC265594  45.579  52.921  40.945
25480DG     SC365595  45.400  52.685  40.946
25480DG     SC465596  45.624  52.557  41.071
25481DA     BB165597  46.304  52.835  41.141
25481DA     BB265598  46.125  53.149  41.080
25481DA     BB365599  46.033  53.218  41.260
25481DA     SC165600  45.765  53.069  41.209
25481DA     SC265601  45.529  53.127  41.152
25481DA     SC365602  45.471  52.894  41.243
25481DA     SC465603  45.749  52.921  41.271
25482DA     BB165604  46.203  53.468  41.140
25482DA     BB265605  45.883  53.647  41.131
25482DA     BB365606  45.816  53.689  41.329
25482DA     SC165607  45.654  53.425  41.357
25482DA     SC265608  45.415  53.356  41.369
25482DA     SC365609  45.504  53.139  41.474
25482DA     SC465610  45.729  53.299  41.422
25483DC     BB165611  45.811  53.869  41.357
25483DC     BB265612  45.453  53.908  41.359
25483DC     BB365613  45.383  53.911  41.554
25483DC     SC165614  45.418  53.652  41.578
25483DC     SC265615  45.226  53.555  41.589
25483DC     SC365616  45.511  53.421  41.665
25484DA     BB165617  45.225  54.247  41.358
25484DA     BB265618  44.952  54.084  41.540
25484DA     BB365619  44.973  54.116  41.750
25484DA     SC165620  45.142  53.858  41.796
25484DA     SC265621  45.113  53.636  41.907
25484DA     SC365622  45.370  53.627  41.909
25484DA     SC465623  45.302  53.872  41.790
25485DT     BB165624  44.836  54.232  41.852
25485DT     BB265625  44.669  53.965  42.028
25485DT     BB365626  44.727  53.965  42.227
25485DT     SC165627  44.961  53.863  42.167
25485DT     SC265628  44.972  53.661  42.240
25485DT     SC365629  45.223  53.841  42.141
25486DT     BB165630  44.484  54.069  42.317
25486DT     BB265631  44.523  53.763  42.505
25486DT     BB365632  44.626  53.801  42.681
25486DT     SC165633  44.853  53.824  42.552
25486DT     SC265634  44.980  53.657  42.600
25486DT     SC365635  45.074  53.931  42.456
25487DG     BB165636  44.269  53.648  42.808
25487DG     BB265637  44.546  53.468  42.954
25487DG     BB365638  44.618  53.569  43.110
25487DG     SC165639  44.819  53.729  42.943
25487DG     SC265640  45.117  53.707  42.958
25487DG     SC365641  45.037  53.936  42.789
25487DG     SC465642  44.773  53.868  42.877
25488DT     BB165643  44.615  53.491  43.327
25488DT     BB265644  44.961  53.399  43.371
25488DT     BB365645  45.056  53.536  43.494
25488DT     SC165646  45.063  53.715  43.302
25488DT     SC265647  45.267  53.743  43.238
25488DT     SC365648  45.017  53.938  43.169
25489DG     BB165649  45.098  53.170  43.667
25489DG     BB265650  45.417  53.335  43.629
25489DG     BB365651  45.440  53.472  43.771
25489DG     SC165652  45.312  53.698  43.610
25489DG     SC265653  45.452  53.941  43.506
25489DG     SC365654  45.160  53.964  43.469
25489DG     SC465655  45.154  53.720  43.618
25490DT     BB165656  45.603  53.450  43.909
25490DT     BB265657  45.831  53.705  43.795
25490DT     BB365658  45.819  53.871  43.919
25490DT     SC165659  45.589  53.942  43.814
25490DT     SC265660  45.616  54.121  43.698
25490DT     SC365661  45.332  53.997  43.793
25491DG     BB165662  46.206  53.744  43.919
25491DG     BB265663  46.183  54.097  43.843
25491DG     BB365664  46.151  54.200  44.010
25491DG     SC165665  45.846  54.183  43.992
25491DG     SC265666  45.661  54.413  43.945
25491DG     SC365667  45.510  54.168  44.014
25491DG     SC465668  45.771  54.058  44.058
25492DA     BB165669  46.422  54.396  43.915
25492DA     BB265670  46.209  54.694  43.918
25492DA     BB365671  46.171  54.756  44.119
25492DA     SC165672  45.912  54.586  44.149
25492DA     SC265673  45.667  54.625  44.168
25492DA     SC365674  45.658  54.389  44.267
25492DA     SC465675  45.928  54.438  44.210
25493DA     BB165676  46.287  55.045  44.008
25493DA     BB265677  45.962  55.190  44.097
25493DA     BB365678  45.948  55.216  44.309
25493DA     SC165679  45.824  54.936  44.360
25493DA     SC265680  45.604  54.842  44.431
25493DA     SC365681  45.737  54.631  44.492
25493DA     SC465682  45.924  54.815  44.393
25494DA     BB165683  45.879  55.534  44.239
25494DA     BB265684  45.555  55.484  44.405
25494DA     BB365685  45.579  55.490  44.617
25494DA     SC165686  45.626  55.184  44.644
25494DA     SC265687  45.505  54.986  44.736
25494DA     SC365688  45.735  54.873  44.740
25494DA     SC465689  45.778  55.131  44.640
25495DC     BB165690  45.499  55.651  44.746
25495DC     BB265691  45.227  55.459  44.887
25495DC     BB365692  45.266  55.417  45.086
25495DC     SC165693  45.444  55.235  45.021
25495DC     SC265694  45.368  55.040  45.071
25495DC     SC365695  45.676  55.111  44.999
25496DA     BB165696  44.888  55.598  45.097
25496DA     BB265697  44.865  55.286  45.289
25496DA     BB365698  44.955  55.310  45.481
25496DA     SC165699  45.237  55.218  45.387
25496DA     SC265700  45.388  55.022  45.421
25496DA     SC365701  45.575  55.179  45.342
25496DA     SC465702  45.340  55.331  45.336
25497DT     BB165703  44.841  55.305  45.662
25497DT     BB265704  44.944  54.974  45.762
25497DT     BB365705  45.071  54.986  45.925
25497DT     SC165706  45.269  55.070  45.775
25497DT     SC265707  45.419  54.916  45.763
25497DT     SC365708  45.457  55.227  45.678
25498DA     BB165709  44.766  54.715  46.020
25498DA     BB265710  45.087  54.554  46.093
25498DA     BB365711  45.173  54.635  46.271
25498DA     SC165712  45.332  54.857  46.122
25498DA     SC265713  45.570  54.911  46.070
25498DA     SC365714  45.487  55.150  46.032
25498DA     SC465715  45.261  55.000  46.104
25499DG     BB165716  45.148  54.339  46.346
25499DG     BB265717  45.509  54.362  46.351
25499DG     BB365718  45.569  54.445  46.522
25499DG     SC165719  45.560  54.731  46.414
25499DG     SC265720  45.796  54.909  46.370
25499DG     SC365721  45.543  55.058  46.335
25499DG     SC465722  45.424  54.814  46.424
25500DT     BB165723  45.688  54.325  46.628
25500DT     BB265724  46.011  54.480  46.583
25500DT     BB365725  46.054  54.602  46.745
25500DT     SC165726  45.886  54.785  46.661
25500DT     SC265727  45.995  54.958  46.596
25500DT     SC365728  45.677  54.946  46.656
25501DA     BB165729  46.377  54.346  46.666
25501DA     BB265730  46.508  54.685  46.711
25501DA     BB365731  46.494  54.743  46.916
25501DA     SC165732  46.212  54.870  46.886
25501DA     SC265733  46.110  55.097  46.891
25501DA     SC365734  45.889  54.975  46.938
25501DA     SC465735  46.085  54.775  46.917
25502DC     BB165736  46.664  54.769  47.011
25502DC     BB265737  46.652  55.129  47.035
25502DC     BB365738  46.596  55.185  47.226
25502DC     SC165739  46.346  55.118  47.180
25502DC     SC265740  46.225  55.295  47.171
25502DC     SC365741  46.116  54.991  47.201
25503DT     BB165742  46.852  55.268  47.295
25503DT     BB265743  46.647  55.557  47.362
25503DT     BB365744  46.575  55.550  47.556
25503DT     SC165745  46.401  55.364  47.493
25503DT     SC265746  46.203  55.446  47.502
25503DT     SC365747  46.278  55.131  47.489
25504DT     BB165748  46.748  55.749  47.659
25504DT     BB265749  46.419  55.870  47.744
25504DT     BB365750  46.366  55.802  47.932
25504DT     SC165751  46.321  55.560  47.841
25504DT     SC265752  46.110  55.519  47.847
25504DT     SC365753  46.345  55.300  47.806
25505DC     BB165754  46.400  56.051  48.061
25505DC     BB265755  46.058  55.963  48.133
25505DC     BB365756  46.048  55.858  48.311
25505DC     SC165757  46.145  55.642  48.198
25505DC     SC265758  45.991  55.492  48.186
25505DC     SC365759  46.308  55.442  48.144
25506DT     BB165760  45.935  56.072  48.445
25506DT     BB265761  45.696  55.805  48.486
25506DT     BB365762  45.739  55.696  48.657
25506DT     SC165763  45.943  55.579  48.540
25506DT     SC265764  45.898  55.372  48.508
25506DT     SC365765  46.192  55.507  48.488
25507DC     BB165766  45.520  55.804  48.766
25507DC     BB265767  45.466  55.447  48.781
25507DC     BB365768  45.553  55.370  48.952
25507DC     SC165769  45.794  55.392  48.849
25507DC     SC265770  45.873  55.196  48.809
25507DC     SC365771  46.043  55.472  48.816
25508DG     BB165772  45.159  55.274  48.926
25508DG     BB265773  45.365  54.983  48.982
25508DG     BB365774  45.427  54.979  49.171
25508DG     SC165775  45.682  55.140  49.118
25508DG     SC265776  45.962  55.037  49.139
25508DG     SC365777  45.959  55.330  49.099
25508DG     SC465778  45.676  55.299  49.126
25509DT     BB165779  45.367  54.815  49.274
25509DT     BB265780  45.672  54.627  49.315
25509DT     BB365781  45.755  54.666  49.500
25509DT     SC165782  45.838  54.903  49.423
25509DT     SC265783  46.053  54.902  49.409
25509DT     SC365784  45.863  55.165  49.410
25510DA     BB165785  45.734  54.248  49.456
25510DA     BB265786  46.066  54.330  49.589
25510DA     BB365787  46.051  54.392  49.792
25510DA     SC165788  46.017  54.694  49.723
25510DA     SC265789  46.150  54.904  49.745
25510DA     SC365790  45.925  55.024  49.719
25510DA     SC465791  45.868  54.750  49.707
25511DA     BB165792  46.275  54.154  49.853
25511DA     BB265793  46.495  54.415  49.987
25511DA     BB365794  46.430  54.474  50.181
25511DA     SC165795  46.245  54.701  50.076
25511DA     SC265796  46.239  54.950  50.077
25511DA     SC365797  45.988  54.925  50.030
25511DA     SC465798  46.091  54.664  50.049
25512DA     BB165799  46.738  54.402  50.289
25512DA     BB265800  46.771  54.754  50.386
25512DA     BB365801  46.669  54.790  50.570
25512DA     SC165802  46.400  54.866  50.434
25512DA     SC265803  46.260  55.070  50.401
25512DA     SC365804  46.068  54.906  50.356
25512DA     SC465805  46.293  54.748  50.410
25513DA     BB165806  46.958  54.909  50.685
25513DA     BB265807  46.790  55.233  50.728
25513DA     BB365808  46.672  55.232  50.905
25513DA     SC165809  46.415  55.131  50.764
25513DA     SC265810  46.190  55.221  50.702
25513DA     SC365811  46.119  54.975  50.686
25513DA     SC465812  46.389  54.972  50.760
25514DA     BB165813  46.848  55.502  50.980
25514DA     BB265814  46.532  55.687  50.975
25514DA     BB365815  46.422  55.652  51.154
25514DA     SC165816  46.267  55.408  51.040
25514DA     SC265817  46.033  55.353  50.972
25514DA     SC365818  46.104  55.108  50.998
25514DA     SC465819  46.330  55.262  51.063
25515DT     BB165820  46.393  55.806  51.282
25515DT     BB265821  46.045  55.861  51.203
25515DT     BB365822  45.925  55.788  51.356
25515DT     SC165823  45.968  55.540  51.282
25515DT     SC265824  45.786  55.458  51.200
25515DT     SC365825  46.048  55.289  51.289
25516DA     BB165826  45.809  56.184  51.276
25516DA     BB265827  45.508  55.975  51.280
25516DA     BB365828  45.461  55.916  51.480
25516DA     SC165829  45.628  55.654  51.467
25516DA     SC265830  45.586  55.408  51.463
25516DA     SC365831  45.829  55.385  51.541
25516DA     SC465832  45.781  55.660  51.517
25517DC     BB165833  45.293  55.986  51.559
25517DC     BB265834  45.104  55.679  51.540
25517DC     BB365835  45.092  55.592  51.727
25517DC     SC165836  45.342  55.513  51.715
25517DC     SC265837  45.348  55.298  51.697
25517DC     SC365838  45.598  55.490  51.773
25518DA     BB165839  44.698  55.618  51.583
25518DA     BB265840  44.752  55.276  51.703
25518DA     BB365841  44.756  55.271  51.916
25518DA     SC165842  45.063  55.314  51.937
25518DA     SC265843  45.264  55.182  52.003
25518DA     SC365844  45.379  55.409  52.032
25518DA     SC465845  45.117  55.465  51.950
25519DG     BB165846  44.508  55.081  51.895
25519DG     BB265847  44.737  54.840  52.038
25519DG     BB365848  44.740  54.860  52.236
25519DG     SC165849  44.967  55.065  52.237
25519DG     SC265850  45.242  55.023  52.346
25519DG     SC365851  45.200  55.307  52.274
25519DG     SC465852  44.931  55.221  52.225
25520DA     BB165853  44.676  54.520  52.251
25520DA     BB265854  44.993  54.468  52.427
25520DA     BB365855  44.975  54.526  52.631
25520DA     SC165856  45.064  54.820  52.582
25520DA     SC265857  45.260  54.965  52.634
25520DA     SC365858  45.100  55.161  52.592
25520DA     SC465859  44.949  54.929  52.553
25521DA     BB165860  45.091  54.223  52.660
25521DA     BB265861  45.383  54.374  52.822
25521DA     BB365862  45.334  54.437  53.020
25521DA     SC165863  45.248  54.723  52.934
25521DA     SC265864  45.332  54.957  52.960
25521DA     SC365865  45.092  55.028  52.906
25521DA     SC465866  45.093  54.747  52.900
25522DA     BB165867  45.603  54.255  53.046
25522DA     BB265868  45.760  54.556  53.185
25522DA     BB365869  45.680  54.599  53.378
25522DA     SC165870  45.453  54.782  53.270
25522DA     SC265871  45.394  55.024  53.271
25522DA     SC365872  45.155  54.946  53.220
25522DA     SC465873  45.311  54.713  53.239
25523DT     BB165874  45.811  54.585  53.498
25523DT     BB265875  45.851  54.938  53.564
25523DT     BB365876  45.742  54.990  53.733
25523DT     SC165877  45.516  54.977  53.601
25523DT     SC265878  45.435  55.175  53.577
25523DT     SC365879  45.275  54.898  53.529
25524DG     BB165880  46.134  55.097  53.777
25524DG     BB265881  45.911  55.372  53.847
25524DG     BB365882  45.823  55.345  54.024
25524DG     SC165883  45.585  55.191  53.910
25524DG     SC265884  45.301  55.284  53.906
25524DG     SC365885  45.320  55.001  53.822
25524DG     SC465886  45.596  55.032  53.894
25525DA     BB165887  45.930  55.668  54.102
25525DA     BB265888  45.583  55.768  54.163
25525DA     BB365889  45.514  55.687  54.349
25525DA     SC165890  45.404  55.426  54.222
25525DA     SC265891  45.181  55.322  54.177
25525DA     SC365892  45.311  55.101  54.160
25525DA     SC465893  45.502  55.299  54.216
25526DC     BB165894  45.470  55.810  54.516
25526DC     BB265895  45.111  55.781  54.499
25526DC     BB365896  45.043  55.658  54.651
25526DC     SC165897  45.128  55.444  54.526
25526DC     SC265898  44.960  55.329  54.458
25526DC     SC365899  45.266  55.225  54.476
25527DA     BB165900  44.817  56.009  54.710
25527DA     BB265901  44.582  55.727  54.708
25527DA     BB365902  44.592  55.622  54.893
25527DA     SC165903  44.812  55.424  54.797
25527DA     SC265904  44.830  55.181  54.741
25527DA     SC365905  45.082  55.213  54.776
25527DA     SC465906  44.965  55.463  54.824
25528DT     BB165907  44.427  55.615  55.042
25528DT     BB265908  44.321  55.279  54.963
25528DT     BB365909  44.368  55.151  55.118
25528DT     SC165910  44.623  55.153  55.053
25528DT     SC265911  44.678  54.960  54.975
25528DT     SC365912  44.883  55.193  55.069
25529DC     BB165913  44.106  55.130  55.185
25529DC     BB265914  44.209  54.793  55.109
25529DC     BB365915  44.288  54.704  55.278
25529DC     SC165916  44.509  54.843  55.258
25529DC     SC265917  44.671  54.712  55.203
25529DC     SC365918  44.701  55.014  55.318
25530DA     BB165919  44.001  54.465  55.087
25530DA     BB265920  44.305  54.266  55.140
25530DA     BB365921  44.330  54.223  55.348
25530DA     SC165922  44.501  54.477  55.404
25530DA     SC265923  44.738  54.531  55.460
25530DA     SC365924  44.645  54.755  55.545
25530DA     SC465925  44.424  54.609  55.452
25531DA     BB165926  44.350  53.935  55.202
25531DA     BB265927  44.689  53.914  55.342
25531DA     BB365928  44.679  53.879  55.552
25531DA     SC165929  44.681  54.181  55.627
25531DA     SC265930  44.836  54.344  55.734
25531DA     SC365931  44.626  54.486  55.775
25531DA     SC465932  44.538  54.254  55.644
25532DA     BB165933  44.879  53.648  55.439
25532DA     BB265934  45.132  53.790  55.663
25532DA     BB365935  45.085  53.746  55.867
25532DA     SC165936  44.918  54.005  55.910
25532DA     SC265937  44.938  54.218  56.037
25532DA     SC365938  44.684  54.236  56.009
25532DA     SC465939  44.760  53.997  55.883
25533DA     BB165940  45.393  53.643  55.842
25533DA     BB265941  45.472  53.881  56.109
25533DA     BB365942  45.395  53.811  56.295
25533DA     SC165943  45.121  53.955  56.265
25533DA     SC265944  45.000  54.146  56.370
25533DA     SC365945  44.788  54.038  56.273
25533DA     SC465946  45.001  53.871  56.198
25534DT     BB165947  45.529  53.765  56.431
25534DT     BB265948  45.476  54.048  56.648
25534DT     BB365949  45.367  53.990  56.814
25534DT     SC165950  45.145  53.977  56.674
25534DT     SC265951  45.014  54.136  56.734
25534DT     SC365952  44.931  53.878  56.557
25535DC     BB165953  45.591  54.019  56.959
25535DC     BB265954  45.350  54.232  57.122
25535DC     BB365955  45.238  54.122  57.257
25535DC     SC165956  45.101  54.009  57.064
25535DC     SC265957  44.898  54.082  57.068
25535DC     SC365958  45.004  53.823  56.905
25536DA     BB165959  45.385  54.467  57.444
25536DA     BB265960  45.028  54.436  57.525
25536DA     BB365961  44.997  54.275  57.661
25536DA     SC165962  44.952  54.063  57.438
25536DA     SC265963  44.763  53.928  57.347
25536DA     SC365964  44.946  53.776  57.250
25536DA     SC465965  45.080  53.981  57.387
25537DC     BB165966  44.935  54.327  57.836
25537DC     BB265967  44.597  54.202  57.809
25537DC     BB365968  44.580  54.022  57.910
25537DC     SC165969  44.709  53.895  57.719
25537DC     SC265970  44.572  53.765  57.615
25537DC     SC365971  44.895  53.754  57.597
25538DA     BB165972  44.270  54.265  58.055
25538DA     BB265973  44.128  53.933  57.988
25538DA     BB365974  44.193  53.794  58.136
25538DA     SC165975  44.445  53.705  57.976
25538DA     SC265976  44.524  53.502  57.854
25538DA     SC365977  44.759  53.602  57.882
25538DA     SC465978  44.583  53.783  58.004
25539DT     BB165979  44.064  53.703  58.292
25539DT     BB265980  44.055  53.366  58.165
25539DT     BB365981  44.169  53.242  58.285
25539DT     SC165982  44.392  53.339  58.187
25539DT     SC265983  44.489  53.190  58.066
25539DT     SC365984  44.625  53.463  58.175
25540DC     BB165985  43.965  53.097  58.457
25540DC     BB265986  44.159  52.822  58.328
25540DC     BB365987  44.305  52.767  58.465
25540DC     SC165988  44.449  52.978  58.406
25540DC     SC265989  44.628  52.917  58.303
25540DC     SC365990  44.576  53.208  58.435
25541DC     BB165991  44.201  52.513  58.611
25541DC     BB265992  44.525  52.406  58.494
25541DC     BB365993  44.664  52.421  58.647
25541DC     SC165994  44.673  52.682  58.623
25541DC     SC265995  44.864  52.741  58.543
25541DC     SC365996  44.649  52.938  58.683
25542DT     BB165997  44.700  52.137  58.733
25542DT     BB265998  45.035  52.240  58.645
25542DT     BB365999  45.137  52.300  58.815
25542DT     SC166000  45.003  52.526  58.825
25542DT     SC266001  45.135  52.689  58.777
25542DT     SC366002  44.842  52.715  58.913
25543DT     BB166003  45.304  52.072  58.834
25543DT     BB266004  45.534  52.348  58.805
25543DT     BB366005  45.588  52.415  58.993
25543DT     SC166006  45.355  52.532  59.026
25543DT     SC266007  45.381  52.745  59.022
25543DT     SC366008  45.117  52.588  59.125
25544DT     BB166009  45.837  52.311  58.960
25544DT     BB266010  45.891  52.664  59.014
25544DT     BB366011  45.904  52.703  59.216
25544DT     SC166012  45.645  52.675  59.247
25544DT     SC266013  45.557  52.866  59.291
25544DT     SC366014  45.414  52.577  59.330
25545DG     BB166015  46.240  52.836  59.028
25545DG     BB266016  46.084  53.097  59.224
25545DG     BB366017  46.124  53.070  59.417
25545DG     SC166018  45.878  52.894  59.469
25545DG     SC266019  45.644  52.966  59.640
25545DG     SC366020  45.631  52.682  59.556
25545DG     SC466021  45.890  52.736  59.447
25546DA     BB166022  46.219  53.400  59.400
25546DA     BB266023  45.971  53.482  59.657
25546DA     BB366024  46.036  53.414  59.848
25546DA     SC166025  45.900  53.136  59.823
25546DA     SC266026  45.709  53.014  59.926
25546DA     SC366027  45.825  52.801  59.840
25546DA     SC466028  45.988  53.015  59.762
25547DA     BB166029  45.972  53.729  59.913
25547DA     BB266030  45.726  53.606  60.155
25547DA     BB366031  45.824  53.527  60.327
25547DA     SC166032  45.841  53.237  60.215
25547DA     SC266033  45.738  53.015  60.262
25547DA     SC366034  45.939  52.918  60.135
25547DA     SC466035  45.974  53.196  60.134
25548DA     BB166036  45.624  53.739  60.477
25548DA     BB266037  45.477  53.450  60.648
25548DA     BB366038  45.608  53.381  60.802
25548DA     SC166039  45.759  53.180  60.618
25548DA     SC266040  45.778  52.933  60.591
25548DA     SC366041  45.996  52.984  60.466
25548DA     SC466042  45.892  53.232  60.544
25549DA     BB166043  45.334  53.420  60.977
25549DA     BB266044  45.350  53.060  61.044
25549DA     BB366045  45.502  53.017  61.188
25549DA     SC166046  45.726  52.976  60.976
25549DA     SC266047  45.862  52.787  60.885
25549DA     SC366048  46.024  52.969  60.806
25549DA     SC466049  45.815  53.104  60.936
25550DA     BB166050  45.239  52.872  61.312
25550DA     BB266051  45.428  52.559  61.282
25550DA     BB366052  45.582  52.551  61.430
25550DA     SC166053  45.797  52.684  61.248
25550DA     SC266054  46.006  52.618  61.130
25550DA     SC366055  46.060  52.869  61.126
25550DA     SC466056  45.813  52.844  61.256
25551DG     BB166057  45.416  52.301  61.491
25551DG     BB266058  45.723  52.136  61.396
25551DG     BB366059  45.855  52.146  61.545
25551DG     SC166060  45.977  52.411  61.451
25551DG     SC266061  46.254  52.449  61.349
25551DG     SC366062  46.120  52.710  61.388
25551DG     SC466063  45.912  52.548  61.502
25552DT     BB166064  45.916  51.966  61.621
25552DT     BB266065  46.253  51.940  61.495
25552DT     BB366066  46.387  51.999  61.641
25552DT     SC166067  46.327  52.252  61.605
25552DT     SC266068  46.494  52.353  61.515
25552DT     SC366069  46.239  52.496  61.656
25553DT     BB166070  46.457  51.742  61.661
25553DT     BB266071  46.764  51.916  61.588
25553DT     BB366072  46.846  51.992  61.763
25553DT     SC166073  46.666  52.184  61.772
25553DT     SC266074  46.762  52.373  61.732
25553DT     SC366075  46.465  52.332  61.857
25554DA     BB166076  47.151  51.773  61.577
25554DA     BB266077  47.289  52.099  61.671
25554DA     BB366078  47.319  52.109  61.882
25554DA     SC166079  47.037  52.225  61.941
25554DA     SC266080  46.938  52.440  62.018
25554DA     SC366081  46.732  52.301  62.080
25554DA     SC466082  46.919  52.120  61.974
25555DG     BB166083  47.621  52.152  61.812
25555DG     BB266084  47.563  52.476  61.963
25555DG     BB366085  47.580  52.462  62.161
25555DG     SC166086  47.284  52.397  62.205
25555DG     SC266087  47.084  52.572  62.343
25555DG     SC366088  46.971  52.304  62.289
25555DG     SC466089  47.237  52.244  62.202
25556DA     BB166090  47.802  52.726  62.138
25556DA     BB266091  47.583  52.929  62.351
25556DA     BB366092  47.602  52.869  62.555
25556DA     SC166093  47.373  52.659  62.540
25556DA     SC266094  47.142  52.631  62.629
25556DA     SC366095  47.175  52.382  62.581
25556DA     SC466096  47.413  52.508  62.504
25557DG     BB166097  47.687  53.164  62.579
25557DG     BB266098  47.385  53.184  62.778
25557DG     BB366099  47.420  53.116  62.961
25557DG     SC166100  47.347  52.826  62.893
25557DG     SC266101  47.113  52.674  62.999
25557DG     SC366102  47.295  52.496  62.849
25557DG     SC466103  47.462  52.728  62.838
25558DT     BB166104  47.390  53.251  63.113
25558DT     BB266105  47.082  53.133  63.259
25558DT     BB366106  47.122  53.020  63.428
25558DT     SC166107  47.204  52.817  63.283
25558DT     SC266108  47.062  52.656  63.300
25558DT     SC366109  47.363  52.633  63.181
25559DA     BB166110  46.827  53.310  63.504
25559DA     BB266111  46.711  52.987  63.636
25559DA     BB366112  46.827  52.931  63.805
25559DA     SC166113  47.038  52.774  63.639
25559DA     SC266114  47.107  52.536  63.605
25559DA     SC366115  47.328  52.634  63.519
25559DA     SC466116  47.169  52.854  63.591
25560DC     BB166117  46.727  52.925  63.962
25560DC     BB266118  46.719  52.567  64.001
25560DC     BB366119  46.864  52.507  64.137
25560DC     SC166120  47.055  52.546  63.962
25560DC     SC266121  47.138  52.356  63.903
25560DC     SC366122  47.271  52.647  63.848
25561DT     BB166123  46.673  52.455  64.326
25561DT     BB266124  46.858  52.146  64.299
25561DT     BB366125  47.022  52.150  64.425
25561DT     SC166126  47.151  52.314  64.266
25561DT     SC266127  47.316  52.210  64.175
25561DT     SC366128  47.272  52.531  64.179
25562DA     BB166129  46.825  51.795  64.538
25562DA     BB266130  47.179  51.713  64.491
25562DA     BB366131  47.294  51.783  64.656
25562DA     SC166132  47.354  52.060  64.529
25562DA     SC266133  47.551  52.181  64.434
25562DA     SC366134  47.413  52.394  64.474
25562DA     SC466135  47.254  52.181  64.562
25563DG     BB166136  47.380  51.484  64.727
25563DG     BB266137  47.710  51.602  64.638
25563DG     BB366138  47.799  51.682  64.797
25563DG     SC166139  47.692  51.964  64.745
25563DG     SC266140  47.855  52.203  64.670
25563DG     SC366141  47.576  52.281  64.730
25563DG     SC466142  47.550  52.006  64.806
25564DA     BB166143  48.074  51.473  64.748
25564DA     BB266144  48.288  51.765  64.694
25564DA     BB366145  48.345  51.851  64.881
25564DA     SC166146  48.103  52.047  64.892
25564DA     SC266147  48.063  52.292  64.874
25564DA     SC366148  47.841  52.244  64.993
25564DA     SC466149  47.970  51.997  64.968
25565DT     BB166150  48.539  51.845  64.929
25565DT     BB266151  48.607  52.192  64.855
25565DT     BB366152  48.628  52.299  65.031
25565DT     SC166153  48.369  52.294  65.074
25565DT     SC266154  48.289  52.492  65.050
25565DT     SC366155  48.138  52.242  65.190
25566DA     BB166156  48.928  52.366  64.747
25566DA     BB266157  48.798  52.689  64.860
25566DA     BB366158  48.853  52.724  65.063
25566DA     SC166159  48.597  52.592  65.182
25566DA     SC266160  48.391  52.665  65.302
25566DA     SC366161  48.373  52.420  65.377
25566DA     SC466162  48.605  52.436  65.219
25567DT     BB166163  48.935  52.857  65.034
25567DT     BB266164  48.702  53.088  65.185
25567DT     BB366165  48.740  53.104  65.388
25567DT     SC166166  48.634  52.868  65.434
25567DT     SC266167  48.449  52.894  65.542
25567DT     SC366168  48.612  52.616  65.506
25568DT     BB166169  48.776  53.325  65.272
25568DT     BB266170  48.542  53.383  65.540
25568DT     BB366171  48.636  53.363  65.722
25568DT     SC166172  48.642  53.102  65.700
25568DT     SC266173  48.507  53.015  65.844
25568DT     SC366174  48.736  52.857  65.678
25569DG     BB166175  48.423  53.714  65.679
25569DG     BB266176  48.370  53.559  66.001
25569DG     BB366177  48.537  53.569  66.109
25569DG     SC166178  48.648  53.303  66.008
25569DG     SC266179  48.687  53.055  66.170
25569DG     SC366180  48.809  53.026  65.903
25569DG     SC466181  48.738  53.301  65.875
25570DT     BB166182  48.566  53.692  66.301
25570DT     BB266183  48.620  53.448  66.561
25570DT     BB366184  48.822  53.430  66.600
25570DT     SC166185  48.860  53.294  66.379
25570DT     SC266186  48.907  53.090  66.428
25570DT     SC366187  48.949  53.230  66.139
25571DT     BB166188  48.918  53.618  66.855
25571DT     BB266189  49.087  53.311  66.942
25571DT     BB366190  49.286  53.322  66.888
25571DT     SC166191  49.228  53.292  66.634
25571DT     SC266192  49.298  53.099  66.567
25571DT     SC366193  49.205  53.345  66.377
25572DT     BB166194  49.505  53.413  67.140
25572DT     BB266195  49.672  53.120  67.013
25572DT     BB366196  49.835  53.175  66.898
25572DT     SC166197  49.680  53.249  66.700
25572DT     SC266198  49.704  53.113  66.536
25572DT     SC366199  49.562  53.404  66.522
25573DA     BB166200  50.099  52.958  67.168
25573DA     BB266201  50.185  52.838  66.832
25573DA     BB366202  50.331  52.966  66.743
25573DA     SC166203  50.121  53.153  66.609
25573DA     SC266204  50.040  53.205  66.379
25573DA     SC366205  49.951  53.422  66.482
25573DA     SC466206  50.074  53.283  66.691
25574DG     BB166207  50.583  52.749  66.715
25574DG     BB266208  50.525  52.781  66.360
25574DG     BB366209  50.650  52.915  66.282
25574DG     SC166210  50.462  53.152  66.328
25574DG     SC266211  50.329  53.314  66.114
25574DG     SC366212  50.290  53.438  66.380
25574DG     SC466213  50.468  53.231  66.467
25575DC     BB166214  50.835  52.880  66.110
25575DC     BB266215  50.666  53.007  65.818
25575DC     BB366216  50.756  53.182  65.755
25575DC     SC166217  50.650  53.318  65.952
25575DC     SC266218  50.502  53.453  65.874
25575DC     SC366219  50.631  53.464  66.171
25576DG     BB166220  50.785  52.929  65.436
25576DG     BB266221  50.623  53.238  65.342
25576DG     BB366222  50.760  53.378  65.306
25576DG     SC166223  50.770  53.479  65.595
25576DG     SC266224  50.679  53.747  65.689
25576DG     SC366225  50.820  53.601  65.905
25576DG     SC466226  50.871  53.410  65.698
25577DT     BB166227  50.780  53.471  65.102
25577DT     BB266228  50.624  53.791  65.160
25577DT     BB366229  50.767  53.939  65.168
25577DT     SC166230  50.844  53.863  65.407
25577DT     SC266231  50.788  54.013  65.551
25577DT     SC366232  50.997  53.771  65.601
25578DA     BB166233  50.461  54.045  64.905
25578DA     BB266234  50.517  54.325  65.135
25578DA     BB366235  50.700  54.424  65.087
25578DA     SC166236  50.872  54.249  65.279
25578DA     SC266237  50.997  54.277  65.493
25578DA     SC366238  51.124  54.065  65.424
25578DA     SC466239  50.941  54.117  65.217
25579DT     BB166240  50.668  54.596  65.032
25579DT     BB266241  50.785  54.760  65.332
25579DT     BB366242  50.977  54.832  65.303
25579DT     SC166243  51.079  54.591  65.320
25579DT     SC266244  51.192  54.575  65.503
25579DT     SC366245  51.204  54.369  65.252
25580DA     BB166246  50.710  55.106  65.478
25580DA     BB266247  51.023  55.106  65.669
25580DA     BB366248  51.181  55.190  65.553
25580DA     SC166249  51.269  54.918  65.431
25580DA     SC266250  51.463  54.762  65.449
25580DA     SC366251  51.382  54.668  65.224
25580DA     SC466252  51.204  54.874  65.291
25581DT     BB166253  51.224  55.325  65.643
25581DT     BB266254  51.545  55.207  65.756
25581DT     BB366255  51.693  55.261  65.622
25581DT     SC166256  51.616  55.078  65.451
25581DT     SC266257  51.765  54.923  65.439
25581DT     SC366258  51.521  54.967  65.230
25582DT     BB166259  51.769  55.425  65.812
25582DT     BB266260  52.062  55.230  65.733
25582DT     BB366261  52.153  55.306  65.563
25582DT     SC166262  51.967  55.205  65.408
25582DT     SC266263  52.051  55.045  65.292
25582DT     SC366264  51.768  55.192  65.236
25583DT     BB166265  52.357  55.411  65.712
25583DT     BB266266  52.523  55.206  65.465
25583DT     BB366267  52.555  55.316  65.292
25583DT     SC166268  52.301  55.300  65.226
25583DT     SC266269  52.280  55.172  65.054
25583DT     SC366270  52.054  55.373  65.171
25584DA     BB166271  52.939  55.172  65.386
25584DA     BB266272  52.877  55.098  65.032
25584DA     BB366273  52.895  55.276  64.915
25584DA     SC166274  52.594  55.351  64.939
25584DA     SC266275  52.394  55.361  64.791
25584DA     SC366276  52.296  55.519  64.968
25584DA     SC466277  52.551  55.449  65.060
25585DA     BB166278  53.116  55.104  64.740
25585DA     BB266279  52.889  55.138  64.454
25585DA     BB366280  52.908  55.331  64.367
25585DA     SC166281  52.686  55.459  64.543
25585DA     SC266282  52.455  55.548  64.512
25585DA     SC366283  52.495  55.672  64.733
25585DA     SC466284  52.731  55.529  64.680
25586DC     BB166285  52.978  55.336  64.185
25586DC     BB266286  52.663  55.401  64.023
25586DC     BB366287  52.652  55.600  63.966
25586DC     SC166288  52.611  55.677  64.214
25586DC     SC266289  52.409  55.748  64.235
25586DC     SC366290  52.650  55.794  64.447
25587DA     BB166291  52.542  55.327  63.666
25587DA     BB266292  52.283  55.585  63.693
25587DA     BB366293  52.358  55.774  63.627
25587DA     SC166294  52.458  55.861  63.908
25587DA     SC266295  52.397  56.029  64.082
25587DA     SC366296  52.635  55.994  64.170
25587DA     SC466297  52.610  55.826  63.947
25588DG     BB166298  52.103  55.696  63.473
25588DG     BB266299  51.986  56.001  63.628
25588DG     BB366300  52.078  56.158  63.548
25588DG     SC166301  52.311  56.155  63.747
25588DG     SC266302  52.369  56.364  63.952
25588DG     SC366303  52.591  56.168  63.935
25588DG     SC466304  52.440  56.066  63.714
25589DA     BB166305  51.744  56.260  63.541
25589DA     BB266306  51.843  56.565  63.718
25589DA     BB366307  51.968  56.685  63.594
25589DA     SC166308  52.233  56.556  63.695
25589DA     SC266309  52.429  56.623  63.834
25589DA     SC366310  52.550  56.427  63.720
25589DA     SC466311  52.291  56.431  63.612
25590DT     BB166312  51.896  56.856  63.533
25590DT     BB266313  52.111  57.078  63.720
25590DT     BB366314  52.264  57.146  63.599
25590DT     SC166315  52.388  56.915  63.612
25590DT     SC266316  52.568  56.937  63.727
25590DT     SC366317  52.494  56.686  63.536
25591DA     BB166318  52.114  57.534  63.698
25591DA     BB266319  52.479  57.556  63.734
25591DA     BB366320  52.571  57.580  63.544
25591DA     SC166321  52.606  57.275  63.495
25591DA     SC266322  52.793  57.110  63.483
25591DA     SC366323  52.628  56.962  63.354
25591DA     SC466324  52.489  57.198  63.415
25592DT     BB166325  52.693  57.780  63.424
25592DT     BB266326  53.026  57.647  63.457
25592DT     BB366327  53.104  57.605  63.269
25592DT     SC166328  52.954  57.392  63.246
25592DT     SC266329  53.078  57.216  63.255
25592DT     SC366330  52.771  57.226  63.153
25593DT     BB166331  53.294  57.833  63.223
25593DT     BB266332  53.505  57.544  63.184
25593DT     BB366333  53.523  57.496  62.983
25593DT     SC166334  53.280  57.397  62.978
25593DT     SC266335  53.290  57.183  62.954
25593DT     SC366336  53.026  57.366  62.914
25594DC     BB166337  53.791  57.589  62.944
25594DC     BB266338  53.807  57.242  62.850
25594DC     BB366339  53.777  57.222  62.646
25594DC     SC166340  53.520  57.268  62.672
25594DC     SC266341  53.411  57.087  62.631
25594DC     SC366342  53.285  57.385  62.647
25595DT     BB166343  54.043  57.161  62.599
25595DT     BB266344  53.862  56.876  62.472
25595DT     BB366345  53.813  56.906  62.273
25595DT     SC166346  53.624  57.077  62.337
25595DT     SC266347  53.432  56.989  62.294
25595DT     SC366348  53.489  57.303  62.355
25596DT     BB166349  53.997  56.720  62.203
25596DT     BB266350  53.686  56.598  62.067
25596DT     BB366351  53.654  56.679  61.880
25596DT     SC166352  53.590  56.911  61.982
25596DT     SC266353  53.380  56.947  61.953
25596DT     SC366354  53.600  57.169  62.040
25597DC     BB166355  53.704  56.436  61.772
25597DC     BB266356  53.373  56.520  61.657
25597DC     BB366357  53.385  56.634  61.484
25597DC     SC166358  53.459  56.846  61.619
25597DC     SC266359  53.301  56.992  61.616
25597DC     SC366360  53.609  57.046  61.704
25598DA     BB166361  53.124  56.315  61.409
25598DA     BB266362  52.959  56.624  61.300
25598DA     BB366363  53.048  56.695  61.119
25598DA     SC166364  53.258  56.873  61.264
25598DA     SC266365  53.303  57.116  61.296
25598DA     SC366366  53.542  57.043  61.354
25598DA     SC466367  53.402  56.807  61.295
25599DG     BB166368  52.761  56.657  61.005
25599DG     BB266369  52.778  57.017  60.970
25599DG     BB366370  52.874  57.065  60.803
25599DG     SC166371  53.150  57.072  60.934
25599DG     SC266372  53.320  57.315  60.971
25599DG     SC366373  53.470  57.070  61.040
25599DG     SC466374  53.236  56.937  60.941
25600DT     BB166375  52.770  57.175  60.646
25600DT     BB266376  52.913  57.504  60.685
25600DT     BB366377  53.052  57.539  60.536
25600DT     SC166378  53.227  57.380  60.652
25600DT     SC266379  53.389  57.498  60.730
25600DT     SC366380  53.389  57.177  60.691
25601DT     BB166381  52.876  57.712  60.440
25601DT     BB266382  53.175  57.904  60.500
25601DT     BB366383  53.305  57.885  60.340
25601DT     SC166384  53.372  57.642  60.414
25601DT     SC266385  53.575  57.642  60.484
25601DT     SC366386  53.401  57.380  60.407
25602DT     BB166387  53.245  58.137  60.293
25602DT     BB266388  53.603  58.131  60.333
25602DT     BB366389  53.693  58.072  60.156
25602DT     SC166390  53.622  57.822  60.194
25602DT     SC266391  53.797  57.704  60.236
25602DT     SC366392  53.505  57.589  60.156
25603DG     BB166393  53.841  58.434  60.271
25603DG     BB266394  54.105  58.195  60.205
25603DG     BB366395  54.127  58.171  60.009
25603DG     SC166396  53.925  57.942  59.989
25603DG     SC266397  53.988  57.658  59.921
25603DG     SC366398  53.695  57.703  59.928
25603DG     SC466399  53.770  57.977  59.965
25604DT     BB166400  54.313  58.224  59.918
25604DT     BB266401  54.456  57.900  59.849
25604DT     BB366402  54.431  57.854  59.648
25604DT     SC166403  54.176  57.803  59.685
25604DT     SC266404  54.142  57.591  59.662
25604DT     SC366405  53.914  57.822  59.664
25605DT     BB166406  54.695  57.892  59.612
25605DT     BB266407  54.634  57.555  59.499
25605DT     BB366408  54.571  57.557  59.301
25605DT     SC166409  54.333  57.643  59.370
25605DT     SC266410  54.188  57.488  59.337
25605DT     SC366411  54.122  57.801  59.389
25606DT     BB166412  54.810  57.455  59.227
25606DT     BB266413  54.566  57.220  59.102
25606DT     BB366414  54.498  57.281  58.916
25606DT     SC166415  54.352  57.471  59.023
25606DT     SC266416  54.144  57.421  59.001
25606DT     SC366417  54.262  57.711  59.082
25607DG     BB166418  54.652  56.906  58.875
25607DG     BB266419  54.316  56.926  58.745
25607DG     BB366420  54.317  57.016  58.567
25607DG     SC166421  54.283  57.298  58.681
25607DG     SC266422  54.044  57.473  58.645
25607DG     SC366423  54.265  57.622  58.772
25607DG     SC466424  54.413  57.382  58.721
25608DG     BB166425  54.175  56.745  58.455
25608DG     BB266426  53.895  56.957  58.372
25608DG     BB366427  53.930  57.052  58.201
25608DG     SC166428  54.064  57.293  58.334
25608DG     SC266429  53.957  57.572  58.340
25608DG     SC366430  54.233  57.563  58.445
25608DG     SC466431  54.221  57.289  58.361
25609DG     BB166432  53.654  56.915  58.095
25609DG     BB266433  53.530  57.252  58.059
25609DG     BB366434  53.599  57.332  57.891
25609DG     SC166435  53.852  57.447  58.020
25609DG     SC266436  53.915  57.737  58.055
25609DG     SC366437  54.148  57.569  58.124
25609DG     SC466438  53.983  57.356  58.027
25610DA     BB166439  53.265  57.408  57.833
25610DA     BB266440  53.353  57.764  57.812
25610DA     BB366441  53.454  57.805  57.629
25610DA     SC166442  53.738  57.754  57.747
25610DA     SC266443  53.940  57.888  57.805
25610DA     SC366444  54.066  57.665  57.795
25610DA     SC466445  53.798  57.606  57.735
25611DT     BB166446  53.364  57.922  57.491
25611DT     BB266447  53.569  58.215  57.538
25611DT     BB366448  53.704  58.233  57.382
25611DT     SC166449  53.851  58.037  57.477
25611DT     SC266450  54.038  58.117  57.549
25611DT     SC366451  53.974  57.804  57.493
25612DT     BB166452  53.565  58.443  57.278
25612DT     BB266453  53.899  58.571  57.325
25612DT     BB366454  54.015  58.529  57.159
25612DT     SC166455  54.035  58.276  57.227
25612DT     SC266456  54.237  58.234  57.287
25612DT     SC366457  54.010  58.014  57.216
25613DT     BB166458  54.013  58.792  57.074
25613DT     BB266459  54.363  58.711  57.104
25613DT     BB366460  54.433  58.631  56.927
25613DT     SC166461  54.312  58.402  56.974
25613DT     SC266462  54.459  58.251  57.015
25613DT     SC366463  54.147  58.199  56.946
25614DA     BB166464  54.694  58.946  57.020
25614DA     BB266465  54.898  58.650  56.946
25614DA     BB366466  54.899  58.611  56.736
25614DA     SC166467  54.651  58.424  56.744
25614DA     SC266468  54.602  58.181  56.714
25614DA     SC366469  54.361  58.256  56.672
25614DA     SC466470  54.507  58.490  56.719
25615DA     BB166471  55.222  58.621  56.790
25615DA     BB266472  55.230  58.271  56.680
25615DA     BB366473  55.211  58.260  56.468
25615DA     SC166474  54.900  58.239  56.473
25615DA     SC266475  54.726  58.067  56.425
25615DA     SC366476  54.565  58.266  56.403
25615DA     SC466477  54.816  58.376  56.462
25616DA     BB166478  55.483  58.086  56.513
25616DA     BB266479  55.299  57.803  56.369
25616DA     BB366480  55.280  57.827  56.158
25616DA     SC166481  55.008  57.978  56.176
25616DA     SC266482  54.769  57.935  56.120
25616DA     SC366483  54.744  58.191  56.125
25616DA     SC466484  55.013  58.139  56.182
25617DA     BB166485  55.408  57.528  56.185
25617DA     BB266486  55.103  57.408  56.019
25617DA     BB366487  55.105  57.461  55.813
25617DA     SC166488  54.961  57.733  55.855
25617DA     SC266489  54.739  57.834  55.804
25617DA     SC366490  54.857  58.060  55.836
25617DA     SC466491  55.053  57.863  55.878
25618DT     BB166492  55.111  57.312  55.704
25618DT     BB266493  54.769  57.328  55.589
25618DT     BB366494  54.762  57.415  55.401
25618DT     SC166495  54.805  57.654  55.502
25618DT     SC266496  54.626  57.772  55.483
25618DT     SC366497  54.922  57.884  55.553
25619DT     BB166498  54.700  57.173  55.313
25619DT     BB266499  54.428  57.385  55.205
25619DT     BB366500  54.480  57.482  55.030
25619DT     SC166501  54.640  57.646  55.157
25619DT     SC266502  54.556  57.844  55.155
25619DT     SC366503  54.861  57.768  55.234
25620DT     BB166504  54.302  57.324  54.914
25620DT     BB266505  54.197  57.660  54.833
25620DT     BB366506  54.304  57.731  54.671
25620DT     SC166507  54.519  57.766  54.818
25620DT     SC266508  54.555  57.977  54.841
25620DT     SC366509  54.765  57.739  54.909
25621DT     BB166510  54.084  57.708  54.514
25621DT     BB266511  54.183  58.053  54.479
25621DT     BB366512  54.324  58.071  54.328
25621DT     SC166513  54.511  57.968  54.481
25621DT     SC266514  54.654  58.120  54.532
25621DT     SC366515  54.696  57.801  54.569
25622DA     BB166516  54.024  58.349  54.237
25622DA     BB266517  54.346  58.521  54.210
25622DA     BB366518  54.449  58.460  54.033
25622DA     SC166519  54.599  58.226  54.171
25622DA     SC266520  54.833  58.170  54.238
25622DA     SC366521  54.752  57.927  54.243
25622DA     SC466522  54.530  58.080  54.168
25623DT     BB166523  54.479  58.595  53.881
25623DT     BB266524  54.833  58.644  53.935
25623DT     BB366525  54.940  58.545  53.788
25623DT     SC166526  54.892  58.312  53.898
25623DT     SC266527  55.075  58.233  53.981
25623DT     SC366528  54.802  58.066  53.929
25624DA     BB166529  55.083  58.940  53.785
25624DA     BB266530  55.374  58.717  53.793
25624DA     BB366531  55.404  58.627  53.602
25624DA     SC166532  55.227  58.379  53.664
25624DA     SC266533  55.260  58.135  53.703
25624DA     SC366534  55.011  58.113  53.645
25624DA     SC466535  55.072  58.386  53.624
25625DA     BB166536  55.708  58.752  53.633
25625DA     BB266537  55.833  58.408  53.616
25625DA     BB366538  55.828  58.337  53.415
25625DA     SC166539  55.541  58.219  53.437
25625DA     SC266540  55.433  57.994  53.442
25625DA     SC366541  55.219  58.118  53.375
25625DA     SC466542  55.418  58.314  53.395
25626DG     BB166543  56.140  58.302  53.436
25626DG     BB266544  56.062  57.952  53.396
25626DG     BB366545  56.045  57.908  53.202
25626DG     SC166546  55.745  57.968  53.190
25626DG     SC266547  55.527  57.769  53.143
25626DG     SC366548  55.421  58.045  53.136
25626DG     SC466549  55.697  58.118  53.158
25627DA     BB166550  56.277  57.648  53.241
25627DA     BB266551  56.026  57.403  53.135
25627DA     BB366552  56.006  57.404  52.922
25627DA     SC166553  55.781  57.618  52.920
25627DA     SC266554  55.537  57.629  52.869
25627DA     SC366555  55.574  57.881  52.841
25627DA     SC466556  55.825  57.772  52.905
25628DT     BB166557  56.066  57.237  52.799
25628DT     BB266558  55.733  57.119  52.729
25628DT     BB366559  55.685  57.157  52.531
25628DT     SC166560  55.651  57.412  52.580
25628DT     SC266561  55.442  57.461  52.564
25628DT     SC366562  55.687  57.673  52.572
25629DG     BB166563  55.650  56.753  52.576
25629DG     BB266564  55.347  56.896  52.442
25629DG     BB366565  55.368  56.929  52.247
25629DG     SC166566  55.478  57.212  52.281
25629DG     SC266567  55.341  57.465  52.198
25629DG     SC366568  55.620  57.518  52.282
25629DG     SC466569  55.636  57.233  52.299
25630DT     BB166570  55.238  56.826  52.103
25630DT     BB266571  55.012  57.092  52.013
25630DT     BB366572  55.060  57.165  51.825
25630DT     SC166573  55.270  57.291  51.919
25630DT     SC266574  55.236  57.503  51.911
25630DT     SC366575  55.522  57.358  51.957
25631DT     BB166576  54.834  57.050  51.734
25631DT     BB266577  54.799  57.400  51.653
25631DT     BB366578  54.889  57.439  51.471
25631DT     SC166579  55.129  57.424  51.577
25631DT     SC266580  55.218  57.620  51.580
25631DT     SC366581  55.373  57.339  51.625
25632DG     BB166582  54.499  57.556  51.465
25632DG     BB266583  54.721  57.822  51.361
25632DG     BB366584  54.783  57.790  51.175
25632DG     SC166585  55.029  57.628  51.260
25632DG     SC266586  55.314  57.711  51.224
25632DG     SC366587  55.296  57.431  51.316
25632DG     SC466588  55.015  57.470  51.280
25633DA     BB166589  54.679  58.115  51.128
25633DA     BB266590  55.016  58.205  51.017
25633DA     BB366591  55.054  58.127  50.822
25633DA     SC166592  55.173  57.859  50.926
25633DA     SC266593  55.395  57.746  50.934
25633DA     SC366594  55.262  57.530  50.967
25633DA     SC466595  55.072  57.735  50.944
25634DG     BB166596  55.094  58.427  50.751
25634DG     BB266597  55.430  58.318  50.675
25634DG     BB366598  55.435  58.235  50.494
25634DG     SC166599  55.375  57.953  50.595
25634DG     SC266600  55.562  57.720  50.587
25634DG     SC366601  55.290  57.634  50.668
25634DG     SC466602  55.222  57.906  50.609
25635DA     BB166603  55.698  58.450  50.409
25635DA     BB266604  55.915  58.164  50.337
25635DA     BB366605  55.866  58.079  50.148
25635DA     SC166606  55.659  57.878  50.263
25635DA     SC266607  55.640  57.632  50.296
25635DA     SC366608  55.387  57.674  50.313
25635DA     SC466609  55.505  57.925  50.269
25636DG     BB166610  56.159  58.148  50.049
25636DG     BB266611  56.191  57.788  50.023
25636DG     BB366612  56.123  57.727  49.846
25636DG     SC166613  55.835  57.687  49.943
25636DG     SC266614  55.693  57.426  49.966
25636DG     SC366615  55.507  57.652  50.009
25636DG     SC466616  55.733  57.810  49.936
25637DA     BB166617  56.424  57.559  49.781
25637DA     BB266618  56.247  57.239  49.757
25637DA     BB366619  56.156  57.219  49.565
25637DA     SC166620  55.886  57.348  49.652
25637DA     SC266621  55.651  57.276  49.691
25637DA     SC366622  55.592  57.524  49.664
25637DA     SC466623  55.870  57.507  49.631
25638DC     BB166624  56.221  57.073  49.424
25638DC     BB266625  55.942  56.848  49.466
25638DC     BB366626  55.821  56.854  49.299
25638DC     SC166627  55.723  57.088  49.369
25638DC     SC266628  55.517  57.065  49.426
25638DC     SC366629  55.667  57.345  49.361
25639DA     BB166630  55.910  56.452  49.368
25639DA     BB266631  55.547  56.479  49.325
25639DA     BB366632  55.499  56.510  49.120
25639DA     SC166633  55.508  56.820  49.138
25639DA     SC266634  55.347  57.011  49.129
25639DA     SC366635  55.552  57.155  49.075
25639DA     SC466636  55.648  56.893  49.105
25640DA     BB166637  55.310  56.253  49.189
25640DA     BB266638  55.024  56.465  49.102
25640DA     BB366639  55.012  56.490  48.891
25640DA     SC166640  55.188  56.747  48.887
25640DA     SC266641  55.158  56.991  48.845
25640DA     SC366642  55.411  56.995  48.805
25640DA     SC466643  55.346  56.728  48.865
25641DA     BB166644  54.710  56.386  48.959
25641DA     BB266645  54.592  56.704  48.820
25641DA     BB366646  54.610  56.703  48.607
25641DA     SC166647  54.897  56.824  48.606
25641DA     SC266648  55.007  57.038  48.542
25641DA     SC366649  55.223  56.901  48.534
25641DA     SC466650  55.020  56.721  48.606
25642DA     BB166651  54.296  56.787  48.646
25642DA     BB266652  54.379  57.097  48.468
25642DA     BB366653  54.408  57.057  48.261
25642DA     SC166654  54.714  57.006  48.288
25642DA     SC266655  54.926  57.118  48.222
25642DA     SC366656  55.034  56.887  48.254
25642DA     SC466657  54.761  56.854  48.312
25643DA     BB166658  54.188  57.300  48.250
25643DA     BB266659  54.437  57.489  48.059
25643DA     BB366660  54.454  57.411  47.861
25643DA     SC166661  54.681  57.210  47.934
25643DA     SC266662  54.924  57.181  47.888
25643DA     SC366663  54.887  56.936  47.954
25643DA     SC466664  54.637  57.061  47.977
25644DT     BB166665  54.397  57.529  47.717
25644DT     BB266666  54.724  57.609  47.588
25644DT     BB366667  54.760  57.500  47.415
25644DT     SC166668  54.800  57.280  47.553
25644DT     SC266669  55.008  57.226  47.543
25644DT     SC366670  54.767  57.035  47.644
25645DG     BB166671  54.798  57.894  47.317
25645DG     BB266672  55.086  57.703  47.209
25645DG     BB366673  55.042  57.602  47.044
25645DG     SC166674  54.943  57.354  47.192
25645DG     SC266675  55.073  57.085  47.191
25645DG     SC366676  54.808  57.073  47.322
25645DG     SC466677  54.789  57.345  47.235
25646DA     BB166678  55.327  57.742  46.896
25646DA     BB266679  55.463  57.407  46.835
25646DA     BB366680  55.365  57.316  46.669
25646DA     SC166681  55.145  57.181  46.842
25646DA     SC266682  55.081  56.951  46.914
25646DA     SC366683  54.849  57.052  46.961
25646DA     SC466684  55.007  57.262  46.864
25647DT     BB166685  55.465  57.276  46.484
25647DT     BB266686  55.490  56.918  46.522
25647DT     BB366687  55.357  56.824  46.394
25647DT     SC166688  55.153  56.889  46.546
25647DT     SC266689  55.074  56.712  46.640
25647DT     SC366690  54.927  57.000  46.624
25648DC     BB166691  55.551  56.736  46.208
25648DC     BB266692  55.381  56.433  46.303
25648DC     BB366693  55.222  56.398  46.176
25648DC     SC166694  55.079  56.587  46.288
25648DC     SC266695  54.916  56.498  46.397
25648DC     SC366696  54.944  56.811  46.318
25649DT     BB166697  55.341  56.185  46.026
25649DT     BB266698  55.035  56.040  46.151
25649DT     BB366699  54.884  56.064  46.013
25649DT     SC166700  54.860  56.319  46.072
25649DT     SC266701  54.673  56.352  46.173
25649DT     SC366702  54.863  56.581  46.045
25650DG     BB166703  54.906  55.657  46.048
25650DG     BB266704  54.569  55.773  46.109
25650DG     BB366705  54.475  55.802  45.937
25650DG     SC166706  54.563  56.094  45.908
25650DG     SC266707  54.384  56.333  45.920
25650DG     SC366708  54.657  56.409  45.835
25650DG     SC466709  54.701  56.126  45.834
25651DT     BB166710  54.282  55.682  45.865
25651DT     BB266711  54.027  55.930  45.926
25651DT     BB366712  53.956  56.004  45.747
25651DT     SC166713  54.173  56.146  45.710
25651DT     SC266714  54.126  56.355  45.730
25651DT     SC366715  54.397  56.233  45.602
25652DG     BB166716  53.642  55.851  45.956
25652DG     BB266717  53.583  56.195  45.859
25652DG     BB366718  53.529  56.204  45.668
25652DG     SC166719  53.815  56.231  45.563
25652DG     SC266720  53.931  56.471  45.428
25652DG     SC366721  54.117  56.241  45.412
25652DG     SC466722  53.899  56.098  45.531
25653DA     BB166723  53.273  56.391  45.797
25653DA     BB266724  53.378  56.673  45.587
25653DA     BB366725  53.323  56.639  45.384
25653DA     SC166726  53.592  56.500  45.310
25653DA     SC266727  53.793  56.549  45.171
25653DA     SC366728  53.833  56.296  45.175
25653DA     SC466729  53.598  56.340  45.323
25654DG     BB166730  53.178  56.901  45.449
25654DG     BB266731  53.401  57.030  45.195
25654DG     BB366732  53.333  56.981  45.014
25654DG     SC166733  53.485  56.715  45.002
25654DG     SC266734  53.709  56.649  44.816
25654DG     SC366735  53.621  56.409  44.964
25654DG     SC466736  53.415  56.583  45.061
25655DT     BB166737  53.289  57.139  44.894
25655DT     BB266738  53.558  57.130  44.653
25655DT     BB366739  53.495  57.036  44.480
25655DT     SC166740  53.507  56.800  44.595
25655DT     SC266741  53.669  56.687  44.510
25655DT     SC366742  53.430  56.568  44.693
25656DG     BB166743  53.633  57.408  44.388
25656DG     BB266744  53.784  57.154  44.179
25656DG     BB366745  53.655  57.095  44.040
25656DG     SC166746  53.535  56.872  44.211
25656DG     SC266747  53.558  56.579  44.159
25656DG     SC366748  53.367  56.632  44.378
25656DG     SC466749  53.412  56.906  44.308
25657DA     BB166750  53.911  57.158  43.814
25657DA     BB266751  53.893  56.811  43.696
25657DA     BB366752  53.720  56.782  43.575
25657DA     SC166753  53.538  56.698  43.813
25657DA     SC266754  53.425  56.491  43.896
25657DA     SC366755  53.274  56.651  44.028
25657DA     SC466756  53.453  56.814  43.887
25658DA     BB166757  53.937  56.668  43.354
25658DA     BB266758  53.754  56.350  43.361
25658DA     BB366759  53.573  56.366  43.251
25658DA     SC166760  53.403  56.455  43.496
25658DA     SC266761  53.222  56.361  43.639
25658DA     SC366762  53.174  56.605  43.703
25658DA     SC466763  53.388  56.613  43.522
25659DA     BB166764  53.681  56.102  43.079
25659DA     BB266765  53.382  55.923  43.192
25659DA     BB366766  53.212  55.984  43.078
25659DA     SC166767  53.133  56.213  43.273
25659DA     SC266768  52.951  56.262  43.436
25659DA     SC366769  53.022  56.508  43.411
25659DA     SC466770  53.191  56.360  43.243
25660DA     BB166771  53.163  55.662  43.002
25660DA     BB266772  52.838  55.683  43.170
25660DA     BB366773  52.694  55.775  43.042
25660DA     SC166774  52.752  56.063  43.142
25660DA     SC266775  52.636  56.239  43.276
25660DA     SC366776  52.799  56.403  43.166
25660DA     SC466777  52.861  56.150  43.062
25661DT     BB166778  52.519  55.670  42.952
25661DT     BB266779  52.269  55.818  43.167
25661DT     BB366780  52.152  55.950  43.059
25661DT     SC166781  52.345  56.129  43.054
25661DT     SC266782  52.290  56.296  43.177
25661DT     SC366783  52.531  56.291  42.960
25662DA     BB166784  51.877  55.691  43.240
25662DA     BB266785  51.768  56.034  43.310
25662DA     BB366786  51.678  56.120  43.136
25662DA     SC166787  51.944  56.240  43.028
25662DA     SC266788  52.046  56.465  42.997
25662DA     SC366789  52.201  56.350  42.828
25662DA     SC466790  52.030  56.150  42.925
25663DT     BB166791  51.479  56.165  43.140
25663DT     BB266792  51.518  56.522  43.170
25663DT     BB366793  51.473  56.614  42.990
25663DT     SC166794  51.701  56.535  42.885
25663DT     SC266795  51.829  56.706  42.856
25663DT     SC366796  51.871  56.412  42.726
25664DA     BB166797  51.249  56.804  43.288
25664DA     BB266798  51.417  57.063  43.091
25664DA     BB366799  51.325  57.083  42.900
25664DA     SC166800  51.510  56.875  42.762
25664DA     SC266801  51.693  56.874  42.592
25664DA     SC366802  51.638  56.625  42.564
25664DA     SC466803  51.460  56.722  42.758
25665DA     BB166804  51.314  57.394  43.001
25665DA     BB266805  51.521  57.475  42.709
25665DA     BB366806  51.404  57.467  42.531
25665DA     SC166807  51.464  57.167  42.476
25665DA     SC266808  51.593  57.032  42.310
25665DA     SC366809  51.444  56.836  42.385
25665DA     SC466810  51.361  57.058  42.535
25666DT     BB166811  51.371  57.639  42.429
25666DT     BB266812  51.594  57.570  42.154
25666DT     BB366813  51.486  57.518  41.986
25666DT     SC166814  51.433  57.280  42.084
25666DT     SC266815  51.540  57.131  41.972
25666DT     SC366816  51.296  57.075  42.178
25667DT     BB166817  51.540  57.758  41.865
25667DT     BB266818  51.661  57.511  41.632
25667DT     BB366819  51.509  57.454  41.504
25667DT     SC166820  51.395  57.311  41.692
25667DT     SC266821  51.414  57.102  41.645
25667DT     SC366822  51.216  57.228  41.867
25668DA     BB166823  51.828  57.567  41.257
25668DA     BB266824  51.711  57.238  41.145
25668DA     BB366825  51.527  57.256  41.039
25668DA     SC166826  51.349  57.220  41.292
25668DA     SC266827  51.194  57.049  41.385
25668DA     SC366828  51.101  57.241  41.528
25668DA     SC466829  51.304  57.353  41.371
25669DA     BB166830  51.701  57.092  40.816
25669DA     BB266831  51.454  56.824  40.852
25669DA     BB366832  51.273  56.875  40.751
25669DA     SC166833  51.144  57.010  41.001
25669DA     SC266834  50.958  56.964  41.159
25669DA     SC366835  50.968  57.215  41.213
25669DA     SC466836  51.166  57.168  41.019
25670DT     BB166837  51.232  56.762  40.604
25670DT     BB266838  50.968  56.577  40.766
25670DT     BB366839  50.784  56.647  40.702
25670DT     SC166840  50.806  56.864  40.847
25670DT     SC266841  50.664  56.856  41.009
25670DT     SC366842  50.826  57.119  40.911
25671DA     BB166843  50.813  56.228  40.684
25671DA     BB266844  50.501  56.317  40.855
25671DA     BB366845  50.363  56.404  40.717
25671DA     SC166846  50.459  56.695  40.766
25671DA     SC266847  50.371  56.903  40.872
25671DA     SC366848  50.548  57.025  40.732
25671DA     SC466849  50.574  56.753  40.670
25672DT     BB166850  50.222  56.297  40.706
25672DT     BB266851  49.992  56.508  40.887
25672DT     BB366852  49.881  56.622  40.754
25672DT     SC166853  50.085  56.780  40.707
25672DT     SC266854  50.047  56.974  40.791
25672DT     SC366855  50.279  56.902  40.577
25673DT     BB166856  49.683  56.468  40.832
25673DT     BB266857  49.574  56.805  40.900
25673DT     BB366858  49.502  56.893  40.726
25673DT     SC166859  49.745  56.924  40.632
25673DT     SC266860  49.795  57.133  40.630
25673DT     SC366861  49.956  56.898  40.475
25674DC     BB166862  49.260  56.874  40.835
25674DC     BB266863  49.300  57.223  40.756
25674DC     BB366864  49.253  57.257  40.557
25674DC     SC166865  49.479  57.149  40.478
25674DC     SC266866  49.606  57.303  40.397
25674DC     SC366867  49.647  56.983  40.361
25675DA     BB166868  49.031  57.531  40.786
25675DA     BB266869  49.191  57.715  40.512
25675DA     BB366870  49.097  57.669  40.326
25675DA     SC166871  49.287  57.431  40.262
25675DA     SC266872  49.468  57.378  40.099
25675DA     SC366873  49.420  57.133  40.155
25675DA     SC466874  49.240  57.284  40.309
25676DG     BB166875  49.031  57.974  40.312
25676DG     BB266876  49.247  57.962  40.022
25676DG     BB366877  49.144  57.899  39.864
25676DG     SC166878  49.205  57.603  39.912
25676DG     SC266879  49.371  57.427  39.737
25676DG     SC366880  49.234  57.269  39.946
25676DG     SC466881  49.107  57.518  40.006
25677DT     BB166882  49.110  58.027  39.680
25677DT     BB266883  49.338  57.875  39.446
25677DT     BB366884  49.233  57.760  39.309
25677DT     SC166885  49.193  57.572  39.488
25677DT     SC266886  49.308  57.398  39.435
25677DT     SC366887  49.067  57.408  39.652
25678DA     BB166888  49.473  58.019  39.082
25678DA     BB266889  49.523  57.679  38.955
25678DA     BB366890  49.353  57.615  38.843
25678DA     SC166891  49.208  57.490  39.089
25678DA     SC266892  49.148  57.262  39.171
25678DA     SC366893  48.975  57.383  39.316
25678DA     SC466894  49.106  57.583  39.170
25679DT     BB166895  49.373  57.584  38.644
25679DT     BB266896  49.367  57.223  38.659
25679DT     BB366897  49.185  57.153  38.592
25679DT     SC166898  49.066  57.226  38.815
25679DT     SC266899  49.010  57.051  38.926
25679DT     SC366900  48.904  57.352  38.979
25680DT     BB166901  49.307  57.063  38.371
25680DT     BB266902  49.155  56.771  38.517
25680DT     BB366903  48.957  56.756  38.456
25680DT     SC166904  48.885  56.951  38.616
25680DT     SC266905  48.765  56.871  38.776
25680DT     SC366906  48.793  57.185  38.697
25681DT     BB166907  49.019  56.544  38.295
25681DT     BB266908  48.763  56.418  38.515
25681DT     BB366909  48.576  56.457  38.436
25681DT     SC166910  48.593  56.711  38.500
25681DT     SC266911  48.454  56.755  38.658
25681DT     SC366912  48.607  56.973  38.474
25682DA     BB166913  48.588  56.048  38.527
25682DA     BB266914  48.281  56.186  38.671
25682DA     BB366915  48.138  56.226  38.517
25682DA     SC166916  48.233  56.519  38.471
25682DA     SC266917  48.147  56.749  38.510
25682DA     SC366918  48.318  56.822  38.333
25682DA     SC466919  48.345  56.543  38.358
25683DG     BB166920  47.964  56.022  38.674
25683DG     BB266921  47.755  56.312  38.727
25683DG     BB366922  47.637  56.341  38.569
25683DG     SC166923  47.837  56.521  38.423
25683DG     SC266924  47.802  56.812  38.366
25683DG     SC366925  48.039  56.706  38.226
25683DG     SC466926  47.946  56.454  38.327
25684DA     BB166927  47.381  56.350  38.799
25684DA     BB266928  47.299  56.691  38.694
25684DA     BB366929  47.196  56.688  38.506
25684DA     SC166930  47.456  56.711  38.336
25684DA     SC266931  47.567  56.880  38.190
25684DA     SC366932  47.696  56.681  38.093
25684DA     SC466933  47.525  56.574  38.288
25685DA     BB166934  47.000  56.866  38.695
25685DA     BB266935  47.056  57.139  38.457
25685DA     BB366936  46.952  57.100  38.275
25685DA     SC166937  47.191  56.951  38.142
25685DA     SC266938  47.353  56.991  37.957
25685DA     SC366939  47.387  56.737  37.960
25685DA     SC466940  47.197  56.792  38.158
25686DA     BB166941  46.865  57.401  38.363
25686DA     BB266942  47.008  57.510  38.044
25686DA     BB366943  46.886  57.444  37.882
25686DA     SC166944  47.038  57.175  37.845
25686DA     SC266945  47.190  57.070  37.677
25686DA     SC366946  47.122  56.847  37.784
25686DA     SC466947  46.982  57.046  37.924
25687DC     BB166948  46.822  57.587  37.799
25687DC     BB266949  47.021  57.563  37.500
25687DC     BB366950  46.914  57.466  37.351
25687DC     SC166951  46.949  57.234  37.467
25687DC     SC266952  47.082  57.113  37.348
25687DC     SC366953  46.894  57.006  37.589
25688DC     BB166954  46.912  57.704  37.242
25688DC     BB266955  47.053  57.486  36.991
25688DC     BB366956  46.902  57.385  36.892
25688DC     SC166957  46.863  57.226  37.098
25688DC     SC266958  46.928  57.027  37.048
25688DC     SC366959  46.743  57.109  37.301
25689DC     BB166960  46.955  57.538  36.681
25689DC     BB266961  46.976  57.201  36.555
25689DC     BB366962  46.787  57.131  36.507
25689DC     SC166963  46.725  57.100  36.760
25689DC     SC266964  46.711  56.890  36.804
25689DC     SC366965  46.603  57.131  36.992
25690DT     BB166966  46.828  57.154  36.234
25690DT     BB266967  46.718  56.813  36.274
25690DT     BB366968  46.511  56.804  36.266
25690DT     SC166969  46.489  56.905  36.507
25690DT     SC266970  46.417  56.754  36.642
25690DT     SC366971  46.427  57.072  36.701
25691DT     BB166972  46.470  56.700  35.994
25691DT     BB266973  46.280  56.469  36.195
25691DT     BB366974  46.082  56.529  36.203
25691DT     SC166975  46.139  56.724  36.369
25691DT     SC266976  46.057  56.679  36.563
25691DT     SC366977  46.167  56.968  36.465
25692DA     BB166978  46.029  56.137  36.055
25692DA     BB266979  45.801  56.173  36.340
25692DA     BB366980  45.626  56.279  36.282
25692DA     SC166981  45.742  56.559  36.355
25692DA     SC266982  45.704  56.735  36.527
25692DA     SC366983  45.822  56.893  36.362
25692DA     SC466984  45.816  56.641  36.239
25693DA     BB166985  45.455  56.019  36.396
25693DA     BB266986  45.309  56.244  36.647
25693DA     BB366987  45.149  56.356  36.561
25693DA     SC166988  45.331  56.593  36.473
25693DA     SC266989  45.367  56.831  36.537
25693DA     SC366990  45.474  56.856  36.304
25693DA     SC466991  45.392  56.588  36.324
25694DC     BB166992  44.962  56.323  36.631
25694DC     BB266993  44.937  56.626  36.826
25694DC     BB366994  44.813  56.761  36.731
25694DC     SC166995  44.997  56.817  36.552
25694DC     SC266996  45.068  57.018  36.584
25694DC     SC366997  45.118  56.838  36.319
25695DA     BB166998  44.698  56.717  37.131
25695DA     BB266999  44.721  57.076  37.058
25695DA     BB367000  44.560  57.137  36.932
25695DA     SC167001  44.715  57.084  36.667
25695DA     SC267002  44.815  57.218  36.482
25695DA     SC367003  44.804  57.001  36.346
25695DA     SC467004  44.699  56.939  36.599
25696DT     BB167005  44.437  57.259  37.013
25696DT     BB267006  44.536  57.554  36.830
25696DT     BB367007  44.400  57.592  36.678
25696DT     SC167008  44.494  57.394  36.534
25696DT     SC267009  44.596  57.474  36.362
25696DT     SC367010  44.504  57.166  36.402
25697DC     BB167011  44.301  57.806  36.816
25697DC     BB267012  44.392  57.943  36.495
25697DC     BB367013  44.235  57.920  36.362
25697DC     SC167014  44.283  57.664  36.336
25697DC     SC267015  44.359  57.625  36.138
25697DC     SC367016  44.248  57.403  36.346
25698DT     BB167017  44.156  58.192  36.366
25698DT     BB267018  44.208  58.124  36.015
25698DT     BB367019  44.032  58.058  35.929
25698DT     SC167020  44.055  57.823  36.042
25698DT     SC267021  44.098  57.675  35.891
25698DT     SC367022  44.002  57.614  36.195
25699DG     BB167023  44.088  58.402  35.705
25699DG     BB267024  44.040  58.117  35.488
25699DG     BB367025  43.845  58.083  35.463
25699DG     SC167026  43.822  57.895  35.703
25699DG     SC267027  43.763  57.602  35.691
25699DG     SC367028  43.756  57.700  35.970
25699DG     SC467029  43.790  57.956  35.847
25700DA     BB167030  43.862  58.096  35.109
25700DA     BB267031  43.760  57.745  35.087
25700DA     BB367032  43.547  57.729  35.096
25700DA     SC167033  43.538  57.700  35.405
25700DA     SC267034  43.486  57.522  35.572
25700DA     SC367035  43.452  57.716  35.737
25700DA     SC467036  43.520  57.834  35.492
25701DA     BB167037  43.593  57.566  34.817
25701DA     BB267038  43.463  57.271  34.991
25701DA     BB367039  43.250  57.279  35.002
25701DA     SC167040  43.247  57.427  35.276
25701DA     SC267041  43.185  57.377  35.512
25701DA     SC367042  43.170  57.631  35.541
25701DA     SC467043  43.241  57.588  35.273
25702DT     BB167044  43.169  57.140  34.907
25702DT     BB267045  43.078  56.942  35.195
25702DT     BB367046  42.877  56.968  35.238
25702DT     SC167047  42.922  57.206  35.338
25702DT     SC267048  42.891  57.201  35.551
25702DT     SC367049  42.913  57.468  35.368
25703DT     BB167050  42.867  56.720  35.159
25703DT     BB267051  42.741  56.720  35.497
25703DT     BB367052  42.543  56.781  35.499
25703DT     SC167053  42.612  57.031  35.458
25703DT     SC267054  42.572  57.145  35.635
25703DT     SC367055  42.634  57.266  35.341
25704DT     BB167056  42.500  56.530  35.563
25704DT     BB267057  42.354  56.725  35.830
25704DT     BB367058  42.167  56.793  35.773
25704DT     SC167059  42.273  56.974  35.615
25704DT     SC267060  42.238  57.170  35.697
25704DT     SC367061  42.335  57.105  35.395
25705DT     BB167062  42.071  56.619  35.949
25705DT     BB267063  41.937  56.939  36.049
25705DT     BB367064  41.768  56.983  35.937
25705DT     SC167065  41.913  57.040  35.726
25705DT     SC267066  41.903  57.251  35.688
25705DT     SC367067  42.013  57.026  35.483
25706DT     BB167068  41.613  56.937  36.155
25706DT     BB267069  41.528  57.272  36.052
25706DT     BB367070  41.381  57.267  35.907
25706DT     SC167071  41.553  57.187  35.725
25706DT     SC267072  41.584  57.346  35.582
25706DT     SC367073  41.670  57.036  35.544
25707DA     BB167074  41.241  57.528  36.203
25707DA     BB267075  41.202  57.695  35.880
25707DA     BB367076  41.040  57.610  35.771
25707DA     SC167077  41.215  57.398  35.627
25707DA     SC267078  41.298  57.353  35.396
25707DA     SC367079  41.334  57.112  35.478
25707DA     SC467080  41.229  57.254  35.696
25708DA     BB167081  40.944  57.924  35.760
25708DA     BB267082  40.972  57.900  35.396
25708DA     BB367083  40.806  57.793  35.315
25708DA     SC167084  40.946  57.516  35.332
25708DA     SC267085  41.039  57.346  35.175
25708DA     SC367086  41.017  57.182  35.370
25708DA     SC467087  40.923  57.429  35.465
25709DC     BB167088  40.692  57.897  35.203
25709DC     BB267089  40.800  57.755  34.889
25709DC     BB367090  40.661  57.617  34.822
25709DC     SC167091  40.737  57.440  35.000
25709DC     SC267092  40.837  57.277  34.901
25709DC     SC367093  40.729  57.277  35.207
25710DT     BB167094  40.616  57.797  34.637
25710DT     BB267095  40.709  57.498  34.459
25710DT     BB367096  40.545  57.372  34.442
25710DT     SC167097  40.563  57.302  34.695
25710DT     SC267098  40.627  57.097  34.707
25710DT     SC367099  40.500  57.272  34.949
25711DG     BB167100  40.696  57.453  34.073
25711DG     BB267101  40.656  57.098  34.126
25711DG     BB367102  40.464  57.048  34.111
25711DG     SC167103  40.404  57.092  34.408
25711DG     SC267104  40.330  56.880  34.605
25711DG     SC367105  40.298  57.149  34.723
25711DG     SC467106  40.359  57.237  34.457
25712DT     BB167107  40.403  56.913  33.956
25712DT     BB267108  40.331  56.611  34.140
25712DT     BB367109  40.126  56.591  34.166
25712DT     SC167110  40.123  56.779  34.349
25712DT     SC267111  40.081  56.691  34.541
25712DT     SC367112  40.068  57.007  34.470
25713DG     BB167113  40.248  56.254  33.971
25713DG     BB267114  40.049  56.172  34.261
25713DG     BB367115  39.856  56.198  34.221
25713DG     SC167116  39.852  56.491  34.310
25713DG     SC267117  39.705  56.601  34.545
25713DG     SC367118  39.815  56.819  34.379
25713DG     SC467119  39.887  56.605  34.203
25714DC     BB167120  39.697  56.028  34.218
25714DC     BB267121  39.516  56.093  34.523
25714DC     BB367122  39.331  56.175  34.480
25714DC     SC167123  39.439  56.407  34.420
25714DC     SC267124  39.385  56.551  34.570
25714DC     SC367125  39.512  56.618  34.280
25715DA     BB167126  39.244  55.847  34.726
25715DA     BB267127  39.061  56.135  34.859
25715DA     BB367128  38.891  56.178  34.737
25715DA     SC167129  39.044  56.376  34.552
25715DA     SC267130  39.047  56.621  34.506
25715DA     SC367131  39.158  56.557  34.284
25715DA     SC467132  39.110  56.316  34.418
25716DA     BB167133  38.725  56.153  35.021
25716DA     BB267134  38.626  56.503  34.975
25716DA     BB367135  38.470  56.518  34.831
25716DA     SC167136  38.662  56.553  34.589
25716DA     SC267137  38.727  56.733  34.429
25716DA     SC367138  38.811  56.542  34.280
25716DA     SC467139  38.707  56.420  34.510
25717DG     BB167140  38.301  56.642  35.063
25717DG     BB267141  38.308  56.936  34.853
25717DG     BB367142  38.164  56.926  34.716
25717DG     SC167143  38.337  56.783  34.509
25717DG     SC267144  38.427  56.895  34.247
25717DG     SC367145  38.492  56.607  34.265
25717DG     SC467146  38.344  56.623  34.510
25718DA     BB167147  38.068  57.241  34.824
25718DA     BB267148  38.123  57.374  34.486
25718DA     BB367149  37.963  57.318  34.358
25718DA     SC167150  38.098  57.055  34.263
25718DA     SC267151  38.200  56.964  34.054
25718DA     SC367152  38.162  56.733  34.159
25718DA     SC467153  38.064  56.920  34.344
25719DT     BB167154  37.839  57.464  34.285
25719DT     BB267155  37.964  57.463  33.946
25719DT     BB367156  37.829  57.370  33.821
25719DT     SC167157  37.895  57.133  33.912
25719DT     SC267158  38.000  57.024  33.759
25719DT     SC367159  37.876  56.898  34.030
25720DT     BB167160  37.761  57.610  33.711
25720DT     BB267161  37.865  57.409  33.430
25720DT     BB367162  37.705  57.300  33.358
25720DT     SC167163  37.717  57.133  33.561
25720DT     SC267164  37.785  56.941  33.492
25720DT     SC367165  37.648  57.002  33.779
25721DA     BB167166  37.843  57.501  33.017
25721DA     BB267167  37.800  57.149  32.922
25721DA     BB367168  37.593  57.106  32.890
25721DA     SC167169  37.541  57.020  33.185
25721DA     SC267170  37.490  56.810  33.310
25721DA     SC367171  37.402  56.965  33.494
25721DA     SC467172  37.489  57.133  33.287
25722DA     BB167173  37.678  56.997  32.587
25722DA     BB267174  37.548  56.667  32.679
25722DA     BB367175  37.335  56.663  32.659
25722DA     SC167176  37.281  56.753  32.952
25722DA     SC267177  37.190  56.653  33.162
25722DA     SC367178  37.152  56.896  33.236
25722DA     SC467179  37.264  56.910  32.979
25723DT     BB167180  37.217  56.543  32.502
25723DT     BB267181  37.091  56.290  32.726
25723DT     BB367182  36.886  56.311  32.749
25723DT     SC167183  36.917  56.521  32.903
25723DT     SC267184  36.860  56.470  33.104
25723DT     SC367185  36.905  56.770  32.989
25724DT     BB167186  36.792  56.089  32.579
25724DT     BB267187  36.632  56.020  32.895
25724DT     BB367188  36.440  56.098  32.895
25724DT     SC167189  36.531  56.343  32.923
25724DT     SC267190  36.481  56.415  33.119
25724DT     SC367191  36.582  56.596  32.869
25725DT     BB167192  36.282  55.850  32.859
25725DT     BB267193  36.146  55.991  33.162
25725DT     BB367194  35.976  56.101  33.119
25725DT     SC167195  36.119  56.297  33.019
25725DT     SC267196  36.108  56.467  33.149
25725DT     SC367197  36.217  56.468  32.844
25726DT     BB167198  35.774  55.914  33.218
25726DT     BB267199  35.710  56.215  33.406
25726DT     BB367200  35.561  56.325  33.314
25726DT     SC167201  35.725  56.404  33.125
25726DT     SC267202  35.765  56.614  33.148
25726DT     SC367203  35.831  56.436  32.886
25727DG     BB167204  35.416  56.246  33.686
25727DG     BB267205  35.415  56.602  33.619
25727DG     BB367206  35.252  56.651  33.516
25727DG     SC167207  35.382  56.608  33.242
25727DG     SC267208  35.442  56.820  33.041
25727DG     SC367209  35.486  56.550  32.927
25727DG     SC467210  35.377  56.462  33.176
25728DA     BB167211  35.236  56.880  33.764
25728DA     BB267212  35.256  57.148  33.514
25728DA     BB367213  35.069  57.168  33.412
25728DA     SC167214  35.143  56.968  33.186
25728DA     SC267215  35.194  56.976  32.942
25728DA     SC367216  35.136  56.726  32.942
25728DA     SC467217  35.102  56.814  33.206
25729DA     BB167218  35.191  57.448  33.518
25729DA     BB267219  35.174  57.553  33.167
25729DA     BB367220  34.971  57.564  33.103
25729DA     SC167221  34.961  57.269  33.003
25729DA     SC267222  34.947  57.148  32.786
25729DA     SC367223  34.864  56.949  32.925
25729DA     SC467224  34.910  57.157  33.107
25730DT     BB167225  34.982  57.716  33.067
25730DT     BB267226  34.948  57.686  32.709
25730DT     BB367227  34.747  57.675  32.659
25730DT     SC167228  34.731  57.427  32.744
25730DT     SC267229  34.706  57.295  32.575
25730DT     SC367230  34.658  57.218  32.886
25731DT     BB167231  34.825  57.898  32.561
25731DT     BB267232  34.668  57.719  32.290
25731DT     BB367233  34.462  57.721  32.314
25731DT     SC167234  34.475  57.543  32.506
25731DT     SC267235  34.392  57.357  32.437
25731DT     SC367236  34.455  57.435  32.746
25732DA     BB167237  34.538  57.853  31.921
25732DA     BB267238  34.258  57.616  31.908
25732DA     BB367239  34.083  57.704  31.993
25732DA     SC167240  34.141  57.600  32.280
25732DA     SC267241  34.046  57.433  32.439
25732DA     SC367242  34.169  57.566  32.621
25732DA     SC467243  34.224  57.697  32.379
25733DA     BB167244  33.914  57.643  31.707
25733DA     BB267245  33.676  57.441  31.901
25733DA     BB367246  33.538  57.568  32.002
25733DA     SC167247  33.710  57.590  32.260
25733DA     SC267248  33.701  57.511  32.497
25733DA     SC367249  33.868  57.700  32.545
25733DA     SC467250  33.813  57.714  32.270
25734DT     BB167251  33.301  57.602  31.962
25734DT     BB267252  33.183  57.421  32.252
25734DT     BB367253  33.095  57.552  32.386
25734DT     SC167254  33.329  57.644  32.461
25734DT     SC267255  33.370  57.580  32.663
25734DT     SC367256  33.529  57.811  32.501
25735DG     BB167257  32.761  57.320  32.307
25735DG     BB267258  32.816  57.341  32.664
25735DG     BB367259  32.732  57.506  32.736
25735DG     SC167260  32.980  57.681  32.695
25735DG     SC267261  33.146  57.802  32.911
25735DG     SC367262  33.227  57.905  32.645
25735DG     SC467263  33.000  57.755  32.555
25736DG     BB167264  32.524  57.346  32.947
25736DG     BB267265  32.708  57.504  33.216
25736DG     BB367266  32.627  57.680  33.259
25736DG     SC167267  32.798  57.836  33.060
25736DG     SC267268  33.007  58.038  33.128
25736DG     SC367269  32.954  58.036  32.837
25736DG     SC467270  32.746  57.853  32.909
25737DA     BB167271  32.609  57.579  33.591
25737DA     BB267272  32.831  57.854  33.689
25737DA     BB367273  32.722  58.037  33.701
25737DA     SC167274  32.774  58.116  33.405
25737DA     SC267275  32.905  58.288  33.280
25737DA     SC367276  32.747  58.237  33.085
25737DA     SC467277  32.665  58.072  33.296
25738DT     BB167278  32.707  58.118  33.880
25738DT     BB267279  32.945  58.383  33.826
25738DT     BB367280  32.846  58.563  33.798
25738DT     SC167281  32.773  58.494  33.555
25738DT     SC267282  32.879  58.615  33.412
25738DT     SC367283  32.619  58.431  33.351
25739DA     BB167284  33.142  58.612  34.089
25739DA     BB267285  33.175  58.885  33.846
25739DA     BB367286  33.015  59.024  33.869
25739DA     SC167287  32.829  58.881  33.666
25739DA     SC267288  32.737  58.924  33.438
25739DA     SC367289  32.558  58.750  33.499
25739DA     SC467290  32.726  58.771  33.723
25740DA     BB167291  33.276  59.220  33.885
25740DA     BB267292  33.138  59.391  33.591
25740DA     BB367293  32.969  59.508  33.647
25740DA     SC167294  32.764  59.280  33.595
25740DA     SC267295  32.583  59.228  33.432
25740DA     SC367296  32.496  59.066  33.610
25740DA     SC467297  32.725  59.186  33.719
25741DA     BB167298  33.154  59.727  33.488
25741DA     BB267299  32.872  59.765  33.257
25741DA     BB367300  32.712  59.869  33.352
25741DA     SC167301  32.575  59.611  33.458
25741DA     SC267302  32.367  59.480  33.414
25741DA     SC367303  32.404  59.380  33.647
25741DA     SC467304  32.615  59.561  33.606
25742DA     BB167305  32.749  60.050  33.080
25742DA     BB267306  32.401  59.963  33.001
25742DA     BB367307  32.268  60.069  33.130
25742DA     SC167308  32.261  59.846  33.347
25742DA     SC267309  32.099  59.678  33.435
25742DA     SC367310  32.250  59.671  33.642
25742DA     SC467311  32.367  59.856  33.467
25743DA     BB167312  32.138  60.158  32.840
25743DA     BB267313  31.828  59.996  32.952
25743DA     BB367314  31.730  60.116  33.098
25743DA     SC167315  31.873  59.981  33.339
25743DA     SC267316  31.814  59.830  33.529
25743DA     SC367317  32.028  59.917  33.639
25743DA     SC467318  32.010  60.048  33.392
25744DT     BB167319  31.549  60.202  33.055
25744DT     BB267320  31.347  59.982  33.257
25744DT     BB367321  31.286  60.080  33.429
25744DT     SC167322  31.526  60.060  33.535
25744DT     SC267323  31.519  59.922  33.700
25744DT     SC367324  31.760  60.129  33.635
25745DA     BB167325  30.937  59.926  33.254
25745DA     BB267326  30.938  59.829  33.608
25745DA     BB367327  30.893  59.998  33.731
25745DA     SC167328  31.191  60.081  33.766
25745DA     SC267329  31.362  60.085  33.948
25745DA     SC367330  31.484  60.257  33.802
25745DA     SC467331  31.251  60.188  33.661
25746DA     BB167332  30.661  59.795  33.844
25746DA     BB267333  30.828  59.818  34.170
25746DA     BB367334  30.784  60.006  34.263
25746DA     SC167335  31.030  60.152  34.140
25746DA     SC267336  31.247  60.246  34.218
25746DA     SC367337  31.243  60.383  34.001
25746DA     SC467338  31.009  60.229  34.000
25747DA     BB167339  30.695  59.802  34.503
25747DA     BB267340  30.958  59.960  34.705
25747DA     BB367341  30.895  60.153  34.769
25747DA     SC167342  31.014  60.301  34.522
25747DA     SC267343  31.202  60.457  34.473
25747DA     SC367344  31.071  60.515  34.260
25747DA     SC467345  30.917  60.324  34.396
25748DA     BB167346  30.984  60.010  35.048
25748DA     BB267347  31.236  60.275  35.076
25748DA     BB367348  31.143  60.460  35.125
25748DA     SC167349  31.102  60.547  34.829
25748DA     SC267350  31.194  60.718  34.672
25748DA     SC367351  30.980  60.677  34.536
25748DA     SC467352  30.963  60.509  34.759
25749DA     BB167353  31.379  60.426  35.348
25749DA     BB267354  31.516  60.738  35.213
25749DA     BB367355  31.393  60.903  35.267
25749DA     SC167356  31.216  60.885  35.011
25749DA     SC267357  31.177  61.017  34.803
25749DA     SC367358  30.955  60.889  34.788
25749DA     SC467359  31.082  60.796  35.020
25750DT     BB167360  31.484  61.017  35.374
25750DT     BB267361  31.532  61.279  35.131
25750DT     BB367362  31.388  61.425  35.155
25750DT     SC167363  31.204  61.273  35.046
25750DT     SC267364  31.149  61.353  34.854
25750DT     SC367365  30.985  61.128  35.020
25751DC     BB167366  31.579  61.586  35.252
25751DC     BB267367  31.437  61.770  34.977
25751DC     BB367368  31.270  61.874  35.040
25751DC     SC167369  31.127  61.655  35.049
25751DC     SC267370  30.979  61.660  34.892
25751DC     SC367371  30.981  61.457  35.145
25752DA     BB167372  31.518  62.154  34.848
25752DA     BB267373  31.178  62.196  34.716
25752DA     BB367374  31.053  62.291  34.861
25752DA     SC167375  30.957  62.024  34.989
25752DA     SC267376  30.747  61.891  35.003
25752DA     SC367377  30.855  61.780  35.207
25752DA     SC467378  31.041  61.968  35.115
25753DA     BB167379  30.995  62.505  34.616
25753DA     BB267380  30.643  62.407  34.638
25753DA     BB367381  30.550  62.500  34.806
25753DA     SC167382  30.614  62.266  35.001
25753DA     SC267383  30.489  62.087  35.122
25753DA     SC367384  30.695  62.076  35.275
25753DA     SC467385  30.751  62.275  35.085
25754DA     BB167386  30.334  62.609  34.582
25754DA     BB267387  30.077  62.421  34.764
25754DA     BB367388  30.018  62.526  34.939
25754DA     SC167389  30.229  62.390  35.122
25754DA     SC267390  30.233  62.226  35.310
25754DA     SC367391  30.465  62.322  35.363
25754DA     SC467392  30.371  62.463  35.139
25755DT     BB167393  29.829  62.596  34.948
25755DT     BB267394  29.705  62.349  35.180
25755DT     BB367395  29.682  62.433  35.368
25755DT     SC167396  29.941  62.431  35.408
25755DT     SC267397  29.989  62.286  35.560
25755DT     SC367398  30.186  62.519  35.451
25756DT     BB167399  29.419  62.415  35.328
25756DT     BB267400  29.482  62.226  35.629
25756DT     BB367401  29.484  62.353  35.793
25756DT     SC167402  29.721  62.445  35.727
25756DT     SC267403  29.866  62.377  35.870
25756DT     SC367404  29.910  62.614  35.653
25757DA     BB167405  29.238  62.019  35.858
25757DA     BB267406  29.458  62.061  36.149
25757DA     BB367407  29.402  62.235  36.259
25757DA     SC167408  29.593  62.425  36.103
25757DA     SC267409  29.802  62.553  36.147
25757DA     SC367410  29.734  62.694  35.943
25757DA     SC467411  29.533  62.501  35.975
25758DT     BB167412  29.345  62.188  36.424
25758DT     BB267413  29.627  62.310  36.612
25758DT     BB367414  29.585  62.498  36.688
25758DT     SC167415  29.615  62.609  36.452
25758DT     SC267416  29.794  62.729  36.451
25758DT     SC367417  29.558  62.738  36.229
25759DG     BB167418  29.685  62.254  36.999
25759DG     BB267419  29.871  62.564  37.009
25759DG     BB367420  29.754  62.711  37.074
25759DG     SC167421  29.655  62.788  36.795
25759DG     SC267422  29.713  63.044  36.652
25759DG     SC367423  29.510  62.886  36.506
25759DG     SC467424  29.525  62.715  36.735
25760DG     BB167425  29.954  62.778  37.334
25760DG     BB267426  29.993  63.110  37.195
25760DG     BB367427  29.841  63.225  37.251
25760DG     SC167428  29.666  63.153  37.011
25760DG     SC267429  29.584  63.339  36.792
25760DG     SC367430  29.440  63.081  36.771
25760DG     SC467431  29.569  63.026  37.020
25761DA     BB167432  30.031  63.495  37.404
25761DA     BB267433  29.894  63.742  37.171
25761DA     BB367434  29.706  63.815  37.241
25761DA     SC167435  29.539  63.599  37.092
25761DA     SC267436  29.380  63.589  36.900
25761DA     SC367437  29.303  63.366  37.002
25761DA     SC467438  29.504  63.464  37.172
25762DA     BB167439  29.807  64.140  37.242
25762DA     BB267440  29.551  64.214  36.990
25762DA     BB367441  29.364  64.255  37.084
25762DA     SC167442  29.268  63.959  37.077
25762DA     SC267443  29.096  63.824  36.958
25762DA     SC367444  29.125  63.656  37.150
25762DA     SC467445  29.300  63.868  37.206
25763DC     BB167446  29.255  64.461  37.090
25763DC     BB267447  29.004  64.378  36.845
25763DC     BB367448  28.817  64.370  36.934
25763DC     SC167449  28.873  64.139  37.047
25763DC     SC267450  28.754  63.985  36.955
25763DC     SC367451  28.918  63.959  37.234
25764DT     BB167452  28.732  64.609  36.819
25764DT     BB267453  28.486  64.369  36.710
25764DT     BB367454  28.329  64.363  36.846
25764DT     SC167455  28.474  64.229  37.019
25764DT     SC267456  28.399  64.028  37.035
25764DT     SC367457  28.605  64.171  37.241
25765DT     BB167458  28.167  64.490  36.666
25765DT     BB267459  27.991  64.185  36.743
25765DT     BB367460  27.869  64.213  36.908
25765DT     SC167461  28.075  64.209  37.071
25765DT     SC267462  28.069  64.029  37.189
25765DT     SC367463  28.253  64.289  37.248
25766DA     BB167464  27.628  64.050  36.608
25766DA     BB267465  27.561  63.863  36.916
25766DA     BB367466  27.443  63.980  37.050
25766DA     SC167467  27.688  64.106  37.194
25766DA     SC267468  27.798  64.093  37.417
25766DA     SC367469  27.905  64.318  37.355
25766DA     SC467470  27.744  64.247  37.137
25767DT     BB167471  27.238  63.932  37.099
25767DT     BB267472  27.295  63.820  37.437
25767DT     BB367473  27.221  63.959  37.571
25767DT     SC167474  27.422  64.121  37.525
25767DT     SC267475  27.549  64.130  37.699
25767DT     SC367476  27.555  64.336  37.448
25768DT     BB167477  26.973  63.824  37.656
25768DT     BB267478  27.136  63.893  37.970
25768DT     BB367479  27.065  64.070  38.049
25768DT     SC167480  27.203  64.211  37.876
25768DT     SC267481  27.361  64.315  37.978
25768DT     SC367482  27.257  64.376  37.677
25769DT     BB167483  26.873  63.980  38.267
25769DT     BB267484  27.096  64.198  38.446
25769DT     BB367485  27.012  64.387  38.464
25769DT     SC167486  27.062  64.441  38.212
25769DT     SC267487  27.215  64.591  38.199
25769DT     SC367488  27.021  64.498  37.957
25770DG     BB167489  27.033  64.299  38.868
25770DG     BB267490  27.200  64.613  38.800
25770DG     BB367491  27.068  64.762  38.806
25770DG     SC167492  26.997  64.743  38.508
25770DG     SC267493  27.057  64.949  38.301
25770DG     SC367494  26.880  64.738  38.192
25770DG     SC467495  26.879  64.645  38.463
25771DT     BB167496  27.078  64.939  38.959
25771DT     BB267497  27.218  65.194  38.745
25771DT     BB367498  27.074  65.337  38.702
25771DT     SC167499  26.953  65.175  38.535
25771DT     SC267500  26.979  65.248  38.334
25771DT     SC367501  26.765  65.023  38.428
25772DG     BB167502  27.405  65.504  38.868
25772DG     BB267503  27.322  65.653  38.548
25772DG     BB367504  27.167  65.776  38.569
25772DG     SC167505  26.957  65.560  38.514
25772DG     SC267506  26.776  65.548  38.277
25772DG     SC367507  26.700  65.345  38.479
25772DG     SC467508  26.901  65.474  38.637
25773DT     BB167509  27.219  65.952  38.512
25773DT     BB267510  27.048  65.984  38.196
25773DT     BB367511  26.867  66.080  38.223
25773DT     SC167512  26.761  65.864  38.330
25773DT     SC267513  26.614  65.783  38.195
25773DT     SC367514  26.649  65.704  38.507
25774DT     BB167515  26.994  66.259  38.088
25774DT     BB267516  26.697  66.186  37.898
25774DT     BB367517  26.534  66.282  37.981
25774DT     SC167518  26.524  66.111  38.180
25774DT     SC267519  26.349  65.988  38.160
25774DT     SC367520  26.533  66.015  38.425
25775DC     BB167521  26.550  66.423  37.762
25775DC     BB267522  26.213  66.293  37.769
25775DC     BB367523  26.096  66.407  37.896
25775DC     SC167524  26.208  66.300  38.108
25775DC     SC267525  26.065  66.175  38.208
25775DC     SC367526  26.346  66.279  38.331
25776DT     BB167527  25.973  66.506  37.679
25776DT     BB267528  25.706  66.375  37.883
25776DT     BB367529  25.649  66.516  38.024
25776DT     SC167530  25.865  66.470  38.167
25776DT     SC267531  25.809  66.373  38.351
25776DT     SC367532  26.096  66.512  38.288
25777DT     BB167533  25.415  66.572  37.891
25777DT     BB267534  25.308  66.487  38.225
25777DT     BB367535  25.310  66.655  38.345
25777DT     SC167536  25.572  66.650  38.361
25777DT     SC267537  25.630  66.597  38.561
25777DT     SC367538  25.824  66.724  38.334
25778DT     BB167539  25.031  66.688  38.350
25778DT     BB267540  25.121  66.671  38.699
25778DT     BB367541  25.161  66.861  38.771
25778DT     SC167542  25.392  66.869  38.647
25778DT     SC267543  25.551  66.861  38.792
25778DT     SC367544  25.582  66.944  38.480
25779DC     BB167545  24.923  66.884  38.919
25779DC     BB267546  25.182  66.937  39.164
25779DC     BB367547  25.227  67.139  39.176
25779DC     SC167548  25.357  67.132  38.949
25779DC     SC267549  25.568  67.158  38.986
25779DC     SC367550  25.421  67.182  38.698
25780DT     BB167551  25.104  67.163  39.421
25780DT     BB267552  25.444  67.270  39.480
25780DT     BB367553  25.462  67.472  39.443
25780DT     SC167554  25.453  67.434  39.184
25780DT     SC267555  25.646  67.476  39.099
25780DT     SC367556  25.368  67.444  38.934
25781DT     BB167557  25.483  67.534  39.713
25781DT     BB267558  25.784  67.668  39.568
25781DT     BB367559  25.753  67.863  39.508
25781DT     SC167560  25.614  67.785  39.300
25781DT     SC267561  25.725  67.825  39.120
25781DT     SC367562  25.410  67.751  39.136
25782DC     BB167563  25.906  67.958  39.715
25782DC     BB267564  26.065  68.089  39.418
25782DC     BB367565  25.980  68.271  39.367
25782DC     SC167566  25.764  68.153  39.275
25782DC     SC267567  25.757  68.173  39.061
25782DC     SC367568  25.511  68.082  39.251
25783DA     BB167569  26.394  68.328  39.384
25783DA     BB267570  26.275  68.466  39.065
25783DA     BB367571  26.173  68.650  39.098
25783DA     SC167572  25.893  68.517  39.132
25783DA     SC267573  25.679  68.504  39.005
25783DA     SC367574  25.574  68.437  39.230
25783DA     SC467575  25.847  68.479  39.280
25784DA     BB167576  26.390  68.748  38.874
25784DA     BB267577  26.103  68.829  38.660
25784DA     BB367578  26.011  69.009  38.726
25784DA     SC167579  25.811  68.866  38.917
25784DA     SC267580  25.566  68.822  38.929
25784DA     SC367581  25.606  68.782  39.179
25784DA     SC467582  25.856  68.847  39.070
25785DC     BB167583  26.021  69.159  38.601
25785DC     BB267584  25.677  69.146  38.492
25785DC     BB367585  25.568  69.298  38.580
25785DC     SC167586  25.565  69.172  38.811
25785DC     SC267587  25.365  69.104  38.853
25785DC     SC367588  25.610  69.119  39.065
25786DA     BB167589  25.506  69.285  38.167
25786DA     BB267590  25.180  69.302  38.333
25786DA     BB367591  25.149  69.495  38.418
25786DA     SC167592  25.272  69.420  38.693
25786DA     SC267593  25.193  69.385  38.927
25786DA     SC367594  25.438  69.424  38.994
25786DA     SC467595  25.429  69.448  38.715
25787DT     BB167596  25.013  69.561  38.335
25787DT     BB267597  24.776  69.536  38.606
25787DT     BB367598  24.768  69.715  38.710
25787DT     SC167599  25.000  69.667  38.824
25787DT     SC267600  24.969  69.630  39.034
25787DT     SC367601  25.253  69.694  38.892
25788DT     BB167602  24.534  69.710  38.603
25788DT     BB267603  24.478  69.747  38.957
25788DT     BB367604  24.512  69.943  39.014
25788DT     SC167605  24.772  69.912  38.995
25788DT     SC267606  24.859  69.917  39.192
25788DT     SC367607  25.020  69.943  38.912
25789DG     BB167608  24.142  69.815  39.129
25789DG     BB267609  24.317  69.981  39.399
25789DG     BB367610  24.323  70.177  39.365
25789DG     SC167611  24.586  70.168  39.210
25789DG     SC267612  24.846  70.286  39.297
25789DG     SC367613  24.862  70.192  39.017
25789DG     SC467614  24.582  70.143  39.051
25790DA     BB167615  24.193  70.230  39.690
25790DA     BB267616  24.474  70.451  39.771
25790DA     BB367617  24.452  70.639  39.672
25790DA     SC167618  24.611  70.550  39.419
25790DA     SC267619  24.830  70.601  39.312
25790DA     SC367620  24.725  70.505  39.098
25790DA     SC467621  24.527  70.488  39.296
25791DT     BB167622  24.401  70.846  39.763
25791DT     BB267623  24.724  71.001  39.718
25791DT     BB367624  24.712  71.146  39.571
25791DT     SC167625  24.703  70.964  39.382
25791DT     SC267626  24.887  70.969  39.269
25791DT     SC367627  24.613  70.820  39.180
25792DT     BB167628  24.706  71.397  39.729
25792DT     BB267629  24.982  71.453  39.503
25792DT     BB367630  24.916  71.557  39.337
25792DT     SC167631  24.799  71.343  39.240
25792DT     SC267632  24.905  71.276  39.065
25792DT     SC367633  24.608  71.182  39.155
25793DA     BB167634  25.227  71.810  39.467
25793DA     BB267635  25.285  71.745  39.111
25793DA     BB367636  25.156  71.867  38.991
25793DA     SC167637  24.928  71.656  38.980
25793DA     SC267638  24.823  71.505  38.811
25793DA     SC367639  24.623  71.497  38.972
25793DA     SC467640  24.813  71.664  39.093
25794DC     BB167641  25.233  72.020  38.866
25794DC     BB267642  25.194  71.838  38.557
25794DC     BB367643  25.040  71.919  38.446
25794DC     SC167644  24.859  71.812  38.604
25794DC     SC267645  24.755  71.656  38.498
25794DC     SC367646  24.661  71.792  38.777
25795DT     BB167647  25.225  72.010  38.276
25795DT     BB267648  25.011  71.801  38.075
25795DT     BB367649  24.847  71.909  38.010
25795DT     SC167650  24.737  71.902  38.248
25795DT     SC267651  24.563  71.775  38.242
25795DT     SC367652  24.638  71.983  38.478
25796DA     BB167653  25.029  71.705  37.691
25796DA     BB267654  24.668  71.642  37.678
25796DA     BB367655  24.564  71.819  37.620
25796DA     SC167656  24.524  71.920  37.911
25796DA     SC267657  24.335  71.950  38.072
25796DA     SC367658  24.491  72.114  38.193
25796DA     SC467659  24.635  72.020  37.971
25797DA     BB167660  24.447  71.599  37.406
25797DA     BB267661  24.115  71.675  37.542
25797DA     BB367662  24.052  71.869  37.480
25797DA     SC167663  24.174  72.015  37.726
25797DA     SC267664  24.092  72.133  37.930
25797DA     SC367665  24.325  72.240  37.936
25797DA     SC467666  24.324  72.072  37.712
25798DT     BB167667  23.893  71.889  37.352
25798DT     BB267668  23.656  72.017  37.592
25798DT     BB367669  23.629  72.220  37.563
25798DT     SC167670  23.862  72.273  37.672
25798DT     SC267671  23.832  72.371  37.861
25798DT     SC367672  24.111  72.357  37.696
25799DT     BB167673  23.373  72.205  37.440
25799DT     BB267674  23.320  72.428  37.719
25799DT     BB367675  23.351  72.623  37.659
25799DT     SC167676  23.611  72.590  37.656
25799DT     SC267677  23.700  72.702  37.816
25799DT     SC367678  23.858  72.573  37.564
25800DA     BB167679  22.960  72.649  37.816
25800DA     BB267680  23.156  72.915  37.974
25800DA     BB367681  23.179  73.080  37.840
25800DA     SC167682  23.444  72.974  37.716
25800DA     SC267683  23.685  73.036  37.717
25800DA     SC367684  23.701  72.894  37.503
25800DA     SC467685  23.433  72.883  37.584
25801DA     BB167686  23.048  73.261  38.083
25801DA     BB267687  23.370  73.435  38.102
25801DA     BB367688  23.384  73.583  37.949
25801DA     SC167689  23.513  73.391  37.741
25801DA     SC267690  23.735  73.361  37.631
25801DA     SC367691  23.606  73.228  37.454
25801DA     SC467692  23.415  73.313  37.641
25802DC     BB167693  23.394  73.772  38.009
25802DC     BB267694  23.748  73.809  37.952
25802DC     BB367695  23.781  73.922  37.781
25802DC     SC167696  23.713  73.721  37.627
25802DC     SC267697  23.888  73.649  37.523
25802DC     SC367698  23.580  73.578  37.449
25803DA     BB167699  24.005  74.055  38.110
25803DA     BB267700  24.230  74.010  37.824
25803DA     BB367701  24.192  74.159  37.676
25803DA     SC167702  23.982  73.988  37.522
25803DA     SC267703  23.965  73.870  37.304
25803DA     SC367704  23.712  73.881  37.341
25803DA     SC467705  23.828  74.006  37.563
25804DT     BB167706  24.339  74.249  37.665
25804DT     BB267707  24.447  74.116  37.348
25804DT     BB367708  24.386  74.240  37.194
25804DT     SC167709  24.138  74.157  37.215
25804DT     SC267710  24.087  74.041  37.042
25804DT     SC367711  23.878  74.161  37.258
25805DT     BB167712  24.642  74.274  37.183
25805DT     BB267713  24.544  74.155  36.857
25805DT     BB367714  24.460  74.309  36.748
25805DT     SC167715  24.238  74.299  36.887
25805DT     SC267716  24.080  74.223  36.763
25805DT     SC367717  24.043  74.372  37.049
25806DT     BB167718  24.678  74.270  36.616
25806DT     BB267719  24.409  74.230  36.378
25806DT     BB367720  24.337  74.415  36.322
25806DT     SC167721  24.213  74.446  36.551
25806DT     SC267722  24.001  74.435  36.520
25806DT     SC367723  24.148  74.545  36.787
25807DT     BB167724  24.448  74.353  36.094
25807DT     BB267725  24.102  74.424  36.016
25807DT     BB367726  24.073  74.629  36.005
25807DT     SC167727  24.084  74.652  36.266
25807DT     SC267728  23.889  74.703  36.342
25807DT     SC367729  24.168  74.725  36.505
25808DG     BB167730  23.954  74.462  35.652
25808DG     BB267731  23.700  74.681  35.788
25808DG     BB367732  23.753  74.870  35.760
25808DG     SC167733  23.905  74.894  36.025
25808DG     SC267734  23.826  75.063  36.258
25808DG     SC367735  24.096  74.948  36.297
25808DG     SC467736  24.060  74.854  36.029
25809DG     BB167737  23.472  74.920  35.592
25809DG     BB267738  23.389  75.163  35.847
25809DG     BB367739  23.480  75.335  35.809
25809DG     SC167740  23.732  75.265  35.968
25809DG     SC267741  23.823  75.398  36.219
25809DG     SC367742  24.030  75.214  36.117
25809DG     SC467743  23.852  75.189  35.894
25810DA     BB167744  23.172  75.504  35.829
25810DA     BB267745  23.301  75.712  36.102
25810DA     BB367746  23.429  75.865  36.025
25810DA     SC167747  23.688  75.693  36.050
25810DA     SC267748  23.895  75.690  36.189
25810DA     SC367749  23.995  75.548  36.000
25810DA     SC467750  23.732  75.607  35.922
25811DA     BB167751  23.238  76.099  36.174
25811DA     BB267752  23.530  76.195  36.373
25811DA     BB367753  23.658  76.325  36.261
25811DA     SC167754  23.829  76.093  36.143
25811DA     SC267755  24.061  76.005  36.167
25811DA     SC367756  24.020  75.892  35.940
25811DA     SC467757  23.785  76.032  36.001
25812DA     BB167758  23.634  76.554  36.504
25812DA     BB267759  23.995  76.517  36.557
25812DA     BB367760  24.103  76.634  36.415
25812DA     SC167761  24.123  76.406  36.204
25812DA     SC267762  24.299  76.258  36.107
25812DA     SC367763  24.134  76.223  35.914
25812DA     SC467764  24.007  76.398  36.093
25813DT     BB167765  24.227  76.813  36.467
25813DT     BB267766  24.546  76.647  36.435
25813DT     BB367767  24.647  76.719  36.269
25813DT     SC167768  24.490  76.586  36.106
25813DT     SC267769  24.603  76.428  36.013
25813DT     SC367770  24.313  76.537  35.917
25814DT     BB167771  24.827  76.855  36.427
25814DT     BB267772  25.029  76.629  36.231
25814DT     BB367773  25.084  76.719  36.053
25814DT     SC167774  24.842  76.689  35.954
25814DT     SC267775  24.848  76.542  35.796
25814DT     SC367776  24.605  76.748  35.856
25815DA     BB167777  25.419  76.560  36.244
25815DA     BB267778  25.416  76.441  35.897
25815DA     BB367779  25.468  76.599  35.764
25815DA     SC167780  25.173  76.691  35.722
25815DA     SC267781  25.004  76.690  35.539
25815DA     SC367782  24.888  76.875  35.673
25815DA     SC467783  25.117  76.806  35.819
25816DT     BB167784  25.619  76.556  35.682
25816DT     BB267785  25.475  76.478  35.361
25816DT     BB367786  25.493  76.641  35.234
25816DT     SC167787  25.301  76.769  35.359
25816DT     SC267788  25.129  76.781  35.231
25816DT     SC367789  25.177  76.953  35.501
25817DT     BB167790  25.655  76.475  35.119
25817DT     BB267791  25.410  76.563  34.869
25817DT     BB367792  25.454  76.749  34.789
25817DT     SC167793  25.369  76.871  35.005
25817DT     SC267794  25.187  76.976  34.961
25817DT     SC367795  25.371  77.017  35.225
25818DA     BB167796  25.373  76.460  34.493
25818DA     BB267797  25.189  76.766  34.412
25818DA     BB367798  25.324  76.922  34.356
25818DA     SC167799  25.355  77.032  34.646
25818DA     SC267800  25.289  77.235  34.774
25818DA     SC367801  25.475  77.167  34.937
25818DA     SC467802  25.476  76.974  34.734
25819DC     BB167803  25.305  76.974  34.178
25819DC     BB267804  25.159  77.299  34.235
25819DC     BB367805  25.305  77.445  34.222
25819DC     SC167806  25.402  77.379  34.457
25819DC     SC267807  25.361  77.536  34.598
25819DC     SC367808  25.571  77.293  34.641
25820DT     BB167809  25.209  77.528  33.981
25820DT     BB267810  25.216  77.829  34.180
25820DT     BB367811  25.403  77.916  34.169
25820DT     SC167812  25.507  77.735  34.328
25820DT     SC267813  25.557  77.825  34.516
25820DT     SC367814  25.658  77.535  34.411
25821DT     BB167815  25.331  78.129  33.994
25821DT     BB267816  25.486  78.301  34.271
25821DT     BB367817  25.688  78.325  34.235
25821DT     SC167818  25.735  78.072  34.285
25821DT     SC267819  25.845  78.054  34.469
25821DT     SC367820  25.807  77.820  34.248
25822DT     BB167821  25.688  78.605  34.167
25822DT     BB267822  25.932  78.587  34.432
25822DT     BB367823  26.121  78.561  34.352
25822DT     SC167824  26.072  78.310  34.295
25822DT     SC267825  26.189  78.184  34.424
25822DT     SC367826  26.035  78.090  34.155
25823DT     BB167827  26.225  78.831  34.388
25823DT     BB267828  26.471  78.626  34.555
25823DT     BB367829  26.625  78.580  34.425
25823DT     SC167830  26.475  78.406  34.297
25823DT     SC267831  26.548  78.208  34.336
25823DT     SC367832  26.340  78.291  34.102
25824DA     BB167833  26.844  78.756  34.740
25824DA     BB267834  27.007  78.436  34.664
25824DA     BB367835  27.130  78.455  34.491
25824DA     SC167836  26.905  78.374  34.292
25824DA     SC267837  26.850  78.181  34.144
25824DA     SC367838  26.697  78.346  34.020
25824DA     SC467839  26.816  78.492  34.228
25825DT     BB167840  27.365  78.444  34.482
25825DT     BB267841  27.380  78.111  34.345
25825DT     BB367842  27.454  78.117  34.152
25825DT     SC167843  27.228  78.213  34.059
25825DT     SC267844  27.131  78.063  33.939
25825DT     SC367845  27.055  78.378  33.948
25826DG     BB167846  27.732  77.881  34.340
25826DG     BB267847  27.595  77.713  34.050
25826DG     BB367848  27.691  77.771  33.886
25826DG     SC167849  27.503  78.006  33.830
25826DG     SC267850  27.317  78.029  33.597
25826DG     SC367851  27.329  78.283  33.748
25826DG     SC467852  27.535  78.148  33.895
25827DG     BB167853  27.779  77.460  33.828
25827DG     BB267854  27.567  77.483  33.536
25827DG     BB367855  27.670  77.557  33.382
25827DG     SC167856  27.602  77.849  33.446
25827DG     SC267857  27.434  78.030  33.278
25827DG     SC367858  27.565  78.180  33.497
25827DG     SC467859  27.697  77.931  33.545
25828DA     BB167860  27.541  77.282  33.233
25828DA     BB267861  27.365  77.499  32.996
25828DA     BB367862  27.502  77.577  32.851
25828DA     SC167863  27.570  77.832  33.016
25828DA     SC267864  27.529  78.077  33.001
25828DA     SC367865  27.728  78.100  33.161
25828DA     SC467866  27.697  77.825  33.114
25829DA     BB167867  27.234  77.448  32.723
25829DA     BB267868  27.180  77.784  32.585
25829DA     BB367869  27.331  77.831  32.442
25829DA     SC167870  27.522  77.960  32.650
25829DA     SC267871  27.607  78.188  32.706
25829DA     SC367872  27.797  78.065  32.827
25829DA     SC467873  27.633  77.866  32.718
25830DA     BB167874  27.014  77.894  32.368
25830DA     BB267875  27.136  78.235  32.313
25830DA     BB367876  27.285  78.237  32.160
25830DA     SC167877  27.523  78.195  32.356
25830DA     SC267878  27.716  78.328  32.443
25830DA     SC367879  27.818  78.100  32.503
25830DA     SC467880  27.570  78.044  32.384
25831DC     BB167881  27.201  78.334  32.069
25831DC     BB267882  27.423  78.618  32.091
25831DC     BB367883  27.580  78.596  31.957
25831DC     SC167884  27.694  78.416  32.110
25831DC     SC267885  27.874  78.498  32.194
25831DC     SC367886  27.792  78.185  32.190
25832DT     BB167887  27.458  78.792  31.835
25832DT     BB267888  27.798  78.904  31.880
25832DT     BB367889  27.920  78.818  31.736
25832DT     SC167890  27.914  78.586  31.858
25832DT     SC267891  28.108  78.544  31.942
25832DT     SC367892  27.868  78.330  31.903
25833DT     BB167893  27.940  79.054  31.599
25833DT     BB267894  28.283  78.955  31.655
25833DT     BB367895  28.346  78.829  31.503
25833DT     SC167896  28.206  78.629  31.600
25833DT     SC267897  28.340  78.481  31.679
25833DT     SC367898  28.025  78.439  31.618
25834DA     BB167899  28.640  79.130  31.489
25834DA     BB267900  28.816  78.808  31.491
25834DA     BB367901  28.806  78.718  31.299
25834DA     SC167902  28.544  78.562  31.358
25834DA     SC267903  28.473  78.325  31.392
25834DA     SC367904  28.237  78.408  31.335
25834DA     SC467905  28.405  78.632  31.318
25835DT     BB167906  28.981  78.688  31.168
25835DT     BB267907  29.013  78.334  31.228
25835DT     BB367908  28.959  78.228  31.058
25835DT     SC167909  28.704  78.276  31.099
25835DT     SC267910  28.606  78.093  31.154
25835DT     SC367911  28.460  78.367  31.062
25836DT     BB167912  29.219  78.163  31.018
25836DT     BB267913  29.047  77.847  31.048
25836DT     BB367914  28.975  77.788  30.864
25836DT     SC167915  28.781  77.965  30.874
25836DT     SC267916  28.593  77.864  30.898
25836DT     SC367917  28.633  78.174  30.813
25837DT     BB167918  29.157  77.606  30.896
25837DT     BB267919  28.845  77.428  30.861
25837DT     BB367920  28.793  77.416  30.661
25837DT     SC167921  28.721  77.668  30.655
25837DT     SC267922  28.507  77.681  30.634
25837DT     SC367923  28.718  77.924  30.591
25838DA     BB167924  28.757  77.057  30.883
25838DA     BB267925  28.454  77.105  30.681
25838DA     BB367926  28.501  77.090  30.474
25838DA     SC167927  28.557  77.394  30.439
25838DA     SC267928  28.450  77.590  30.327
25838DA     SC367929  28.682  77.699  30.344
25838DA     SC467930  28.708  77.444  30.458
25839DT     BB167931  28.411  76.956  30.423
25839DT     BB267932  28.174  77.127  30.212
25839DT     BB367933  28.248  77.141  30.019
25839DT     SC167934  28.416  77.331  30.090
25839DT     SC267935  28.354  77.517  30.001
25839DT     SC367936  28.643  77.456  30.136
25840DT     BB167937  28.073  76.952  29.938
25840DT     BB267938  28.025  77.221  29.702
25840DT     BB367939  28.166  77.207  29.551
25840DT     SC167940  28.355  77.297  29.709
25840DT     SC267941  28.413  77.494  29.645
25840DT     SC367942  28.577  77.304  29.850
25841DA     BB167943  27.829  77.185  29.288
25841DA     BB267944  28.060  77.424  29.133
25841DA     BB367945  28.216  77.320  29.031
25841DA     SC167946  28.406  77.314  29.277
25841DA     SC267947  28.621  77.419  29.347
25841DA     SC367948  28.638  77.226  29.515
25841DA     SC467949  28.399  77.185  29.373
25842DT     BB167950  28.284  77.276  28.770
25842DT     BB267951  28.565  77.502  28.767
25842DT     BB367952  28.740  77.397  28.734
25842DT     SC167953  28.739  77.303  28.979
25842DT     SC267954  28.900  77.392  29.090
25842DT     SC367955  28.729  77.131  29.179
25843DT     BB167956  28.811  77.447  28.440
25843DT     BB267957  29.107  77.558  28.614
25843DT     BB367958  29.250  77.408  28.613
25843DT     SC167959  29.119  77.271  28.794
25843DT     SC267960  29.229  77.272  28.978
25843DT     SC367961  28.983  77.074  28.906
25844DG     BB167962  29.450  77.707  28.413
25844DG     BB267963  29.639  77.595  28.700
25844DG     BB367964  29.745  77.434  28.653
25844DG     SC167965  29.524  77.236  28.731
25844DG     SC267966  29.534  77.042  28.958
25844DG     SC367967  29.298  76.992  28.787
25844DG     SC467968  29.416  77.193  28.621
25845DT     BB167969  29.971  77.433  28.662
25845DT     BB267970  30.020  77.255  28.972
25845DT     BB367971  30.088  77.063  28.934
25845DT     SC167972  29.850  76.986  28.855
25845DT     SC267973  29.768  76.849  28.999
25845DT     SC367974  29.657  76.898  28.698
25846DT     BB167975  30.316  77.148  29.038
25846DT     BB267976  30.212  76.872  29.246
25846DT     BB367977  30.271  76.693  29.161
25846DT     SC167978  30.082  76.709  28.979
25846DT     SC267979  29.934  76.557  29.017
25846DT     SC367980  29.966  76.728  28.744
25847DA     BB167981  30.369  76.724  29.569
25847DA     BB267982  30.203  76.402  29.511
25847DA     BB367983  30.329  76.274  29.396
25847DA     SC167984  30.216  76.368  29.122
25847DA     SC267985  30.075  76.274  28.938
25847DA     SC367986  30.178  76.460  28.793
25847DA     SC467987  30.291  76.489  29.048
25848DA     BB167988  30.234  76.102  29.657
25848DA     BB267989  30.091  75.865  29.416
25848DA     BB367990  30.247  75.765  29.310
25848DA     SC167991  30.258  75.974  29.080
25848DA     SC267992  30.199  75.986  28.838
25848DA     SC367993  30.359  76.186  28.829
25848DA     SC467994  30.362  76.096  29.095
25849DG     BB167995  30.099  75.527  29.438
25849DG     BB267996  30.039  75.440  29.092
25849DG     BB367997  30.203  75.360  29.013
25849DG     SC167998  30.319  75.627  28.919
25849DG     SC267999  30.355  75.712  28.635
25849DG     SC368000  30.484  75.904  28.819
25849DG     SC468001  30.411  75.711  29.019
25850DA     BB168002  29.990  75.105  28.913
25850DA     BB268003  30.086  75.164  28.564
25850DA     BB368004  30.283  75.092  28.528
25850DA     SC168005  30.422  75.361  28.600
25850DA     SC268006  30.545  75.542  28.481
25850DA     SC368007  30.638  75.603  28.712
25850DA     SC468008  30.469  75.382  28.752
25851DA     BB168009  30.136  74.926  28.284
25851DA     BB268010  30.357  75.103  28.052
25851DA     BB368011  30.554  75.020  28.058
25851DA     SC168012  30.654  75.212  28.281
25851DA     SC268013  30.813  75.403  28.302
25851DA     SC368014  30.812  75.349  28.553
25851DA     SC468015  30.641  75.162  28.433
25852DT     BB168016  30.629  74.920  27.893
25852DT     BB268017  30.862  75.174  27.789
25852DT     BB368018  31.056  75.116  27.835
25852DT     SC168019  31.018  75.167  28.090
25852DT     SC268020  31.135  75.339  28.146
25852DT     SC368021  30.995  75.129  28.350
25853DT     BB168022  31.111  75.069  27.571
25853DT     BB268023  31.365  75.304  27.674
25853DT     BB368024  31.528  75.202  27.753
25853DT     SC168025  31.398  75.150  27.975
25853DT     SC268026  31.484  75.263  28.136
25853DT     SC368027  31.280  75.013  28.167
25854DT     BB168028  31.678  75.257  27.531
25854DT     BB268029  31.875  75.386  27.804
25854DT     BB368030  31.996  75.236  27.880
25854DT     SC168031  31.792  75.121  27.999
25854DT     SC268032  31.812  75.143  28.212
25854DT     SC368033  31.611  74.939  28.060
25855DT     BB168034  32.226  75.344  27.769
25855DT     BB268035  32.306  75.316  28.119
25855DT     BB368036  32.387  75.129  28.159
25855DT     SC168037  32.152  75.014  28.139
25855DT     SC268038  32.090  74.946  28.333
25855DT     SC368039  31.959  74.858  28.050
25856DG     BB168040  32.694  75.377  28.273
25856DG     BB268041  32.618  75.141  28.536
25856DG     BB368042  32.708  74.967  28.499
25856DG     SC168043  32.474  74.853  28.338
25856DG     SC268044  32.302  74.622  28.419
25856DG     SC368045  32.245  74.704  28.140
25856DG     SC468046  32.468  74.880  28.180
25857DC     BB168047  32.897  74.846  28.626
25857DC     BB268048  32.706  74.586  28.789
25857DC     BB368049  32.753  74.402  28.707
25857DC     SC168050  32.614  74.455  28.490
25857DC     SC268051  32.439  74.330  28.486
25857DC     SC368052  32.557  74.500  28.237
25858DT     BB168053  32.927  74.287  28.918
25858DT     BB268054  32.665  74.042  28.882
25858DT     BB368055  32.725  73.892  28.753
25858DT     SC168056  32.693  74.048  28.544
25858DT     SC268057  32.525  73.979  28.429
25858DT     SC368058  32.749  74.191  28.330
25859DT     BB168059  32.775  73.681  28.947
25859DT     BB268060  32.524  73.541  28.729
25859DT     BB368061  32.614  73.429  28.580
25859DT     SC168062  32.693  73.645  28.454
25859DT     SC268063  32.584  73.665  28.270
25859DT     SC368064  32.853  73.826  28.348
25860DA     BB168065  32.324  73.193  28.763
25860DA     BB268066  32.260  73.194  28.402
25860DA     BB368067  32.400  73.068  28.301
25860DA     SC168068  32.606  73.296  28.253
25860DA     SC268069  32.695  73.427  28.060
25860DA     SC368070  32.893  73.481  28.214
25860DA     SC468071  32.721  73.317  28.363
25861DT     BB168072  32.308  72.936  28.224
25861DT     BB268073  32.327  73.067  27.888
25861DT     BB368074  32.478  72.972  27.784
25861DT     SC168075  32.663  73.107  27.913
25861DT     SC268076  32.757  73.246  27.779
25861DT     SC368077  32.868  73.158  28.071
25862DT     BB168078  32.263  72.900  27.665
25862DT     BB268079  32.464  73.069  27.418
25862DT     BB368080  32.618  72.946  27.356
25862DT     SC168081  32.750  72.985  27.580
25862DT     SC268082  32.926  73.102  27.540
25862DT     SC368083  32.866  72.934  27.811
25863DC     BB168084  32.471  72.970  27.148
25863DC     BB268085  32.800  73.085  27.053
25863DC     BB368086  32.926  72.923  27.026
25863DC     SC168087  32.945  72.886  27.285
25863DC     SC268088  33.144  72.936  27.350
25863DC     SC368089  32.925  72.771  27.522
25864DC     BB168090  32.907  73.005  26.782
25864DC     BB268091  33.260  72.999  26.856
25864DC     BB368092  33.330  72.805  26.846
25864DC     SC168093  33.218  72.744  27.075
25864DC     SC268094  33.371  72.714  27.224
25864DC     SC368095  33.060  72.627  27.251
25865DT     BB168096  33.454  72.883  26.626
25865DT     BB268097  33.714  72.745  26.834
25865DT     BB368098  33.717  72.539  26.815
25865DT     SC168099  33.501  72.515  26.962
25865DT     SC268100  33.552  72.425  27.151
25865DT     SC368101  33.253  72.458  27.032
25866DA     BB168102  34.112  72.660  26.739
25866DA     BB268103  34.127  72.378  26.973
25866DA     BB368104  34.082  72.195  26.872
25866DA     SC168105  33.776  72.211  26.928
25866DA     SC268106  33.608  72.090  27.067
25866DA     SC368107  33.434  72.191  26.907
25866DA     SC468108  33.684  72.281  26.817
25867DT     BB168109  34.228  72.038  26.838
25867DT     BB268110  34.099  71.803  27.080
25867DT     BB368111  34.005  71.646  26.983
25867DT     SC168112  33.798  71.795  26.924
25867DT     SC268113  33.628  71.728  27.038
25867DT     SC368114  33.619  71.926  26.781
25868DT     BB168115  34.210  71.454  27.027
25868DT     BB268116  33.916  71.297  27.164
25868DT     BB368117  33.822  71.182  27.019
25868DT     SC168118  33.729  71.397  26.900
25868DT     SC268119  33.515  71.405  26.926
25868DT     SC368120  33.688  71.579  26.714
25869DG     BB168121  33.911  70.902  27.305
25869DG     BB268122  33.560  70.892  27.219
25869DG     BB368123  33.533  70.786  27.053
25869DG     SC168124  33.565  71.026  26.866
25869DG     SC268125  33.350  71.144  26.695
25869DG     SC368126  33.614  71.264  26.631
25869DG     SC468127  33.711  71.066  26.815
25870DT     BB168128  33.412  70.584  27.038
25870DT     BB268129  33.109  70.703  26.883
25870DT     BB368130  33.100  70.640  26.686
25870DT     SC168131  33.280  70.817  26.614
25870DT     SC268132  33.187  70.968  26.493
25870DT     SC368133  33.506  70.918  26.522
25871DT     BB168134  32.902  70.452  26.737
25871DT     BB268135  32.758  70.665  26.484
25871DT     BB368136  32.802  70.592  26.296
25871DT     SC168137  33.050  70.675  26.314
25871DT     SC268138  33.081  70.838  26.177
25871DT     SC368139  33.314  70.670  26.326
25872DG     BB168140  32.397  70.612  26.324
25872DG     BB268141  32.517  70.786  26.031
25872DG     BB368142  32.559  70.655  25.887
25872DG     SC168143  32.850  70.616  25.974
25872DG     SC268144  33.092  70.698  25.819
25872DG     SC368145  33.167  70.533  26.053
25872DG     SC468146  32.884  70.503  26.082
25873DT     BB168147  32.449  70.661  25.697
25873DT     BB268148  32.696  70.803  25.475
25873DT     BB368149  32.777  70.654  25.356
25873DT     SC168150  32.919  70.561  25.555
25873DT     SC268151  33.127  70.601  25.519
25873DT     SC368152  33.009  70.395  25.740
25874DC     BB168153  32.642  70.749  25.137
25874DC     BB268154  32.988  70.752  25.036
25874DC     BB368155  33.039  70.568  24.956
25874DC     SC168156  33.045  70.457  25.193
25874DC     SC268157  33.249  70.409  25.245
25874DC     SC368158  32.983  70.298  25.395
25875DC     BB168159  33.046  70.664  24.694
25875DC     BB268160  33.374  70.522  24.743
25875DC     BB368161  33.373  70.323  24.688
25875DC     SC168162  33.243  70.255  24.905
25875DC     SC268163  33.374  70.143  25.035
25875DC     SC368164  33.052  70.164  25.062
25876DT     BB168165  33.517  70.369  24.454
25876DT     BB268166  33.716  70.128  24.634
25876DT     BB368167  33.659  69.936  24.582
25876DT     SC168168  33.439  69.954  24.724
25876DT     SC268169  33.454  69.824  24.895
25876DT     SC368170  33.183  69.963  24.785
25877DC     BB168171  33.890  69.899  24.439
25877DC     BB268172  33.892  69.635  24.685
25877DC     BB368173  33.793  69.469  24.612
25877DC     SC168174  33.559  69.584  24.645
25877DC     SC268175  33.453  69.485  24.804
25877DC     SC368176  33.324  69.689  24.589
25878DA     BB168177  34.167  69.363  24.765
25878DA     BB268178  33.915  69.139  24.909
25878DA     BB368179  33.846  69.001  24.762
25878DA     SC168180  33.612  69.182  24.667
25878DA     SC268181  33.362  69.183  24.679
25878DA     SC368182  33.374  69.347  24.481
25878DA     SC468183  33.640  69.282  24.544
25879DA     BB168184  33.931  68.837  25.029
25879DA     BB268185  33.584  68.719  25.033
25879DA     BB368186  33.549  68.589  24.868
25879DA     SC168187  33.456  68.816  24.677
25879DA     SC268188  33.244  68.892  24.570
25879DA     SC368189  33.396  69.017  24.405
25879DA     SC468190  33.567  68.885  24.584
25880DT     BB168191  33.510  68.450  24.948
25880DT     BB268192  33.159  68.441  24.863
25880DT     BB368193  33.132  68.339  24.685
25880DT     SC168194  33.224  68.541  24.546
25880DT     SC268195  33.063  68.630  24.434
25880DT     SC368196  33.379  68.682  24.386
25881DG     BB168197  32.905  68.168  24.977
25881DG     BB268198  32.712  68.224  24.675
25881DG     BB368199  32.759  68.087  24.539
25881DG     SC168200  32.986  68.251  24.415
25881DG     SC268201  32.988  68.368  24.141
25881DG     SC368202  33.254  68.394  24.269
25881DG     SC468203  33.133  68.237  24.476
25882DA     BB168204  32.417  68.017  24.504
25882DA     BB268205  32.434  68.083  24.144
25882DA     BB368206  32.526  67.919  24.043
25882DA     SC168207  32.814  68.036  24.065
25882DA     SC268208  32.986  68.133  23.913
25882DA     SC368209  33.153  68.078  24.100
25882DA     SC468210  32.902  67.993  24.192
25883DG     BB168211  32.260  67.863  23.874
25883DG     BB268212  32.468  67.937  23.587
25883DG     BB368213  32.561  67.772  23.526
25883DG     SC168214  32.806  67.814  23.705
25883DG     SC268215  33.083  67.874  23.612
25883DG     SC368216  33.079  67.819  23.902
25883DG     SC468217  32.804  67.755  23.854
25884DT     BB168218  32.535  67.637  23.309
25884DT     BB268219  32.839  67.724  23.136
25884DT     BB368220  32.964  67.559  23.127
25884DT     SC168221  33.028  67.584  23.380
25884DT     SC268222  33.233  67.648  23.397
25884DT     SC368223  33.051  67.528  23.637
25885DT     BB168224  32.925  67.482  22.847
25885DT     BB268225  33.283  67.516  22.870
25885DT     BB368226  33.369  67.331  22.908
25885DT     SC168227  33.290  67.338  23.158
25885DT     SC268228  33.461  67.362  23.286
25885DT     SC368229  33.164  67.272  23.381
25886DT     BB168230  33.476  67.271  22.642
25886DT     BB268231  33.767  67.240  22.852
25886DT     BB368232  33.794  67.043  22.907
25886DT     SC168233  33.595  67.054  23.078
25886DT     SC268234  33.672  67.044  23.278
25886DT     SC368235  33.362  67.004  23.191
25887DA     BB168236  34.169  67.129  22.736
25887DA     BB268237  34.237  66.971  23.060
25887DA     BB368238  34.215  66.759  23.045
25887DA     SC168239  33.914  66.760  23.122
25887DA     SC268240  33.772  66.688  23.314
25887DA     SC368241  33.578  66.693  23.147
25887DA     SC468242  33.806  66.768  23.003
25888DT     BB168243  34.387  66.598  23.059
25888DT     BB268244  34.304  66.482  23.391
25888DT     BB368245  34.235  66.287  23.383
25888DT     SC168246  34.004  66.364  23.285
25888DT     SC268247  33.851  66.335  23.433
25888DT     SC368248  33.803  66.393  23.117
25889DA     BB168249  34.551  66.249  23.659
25889DA     BB268250  34.258  66.089  23.811
25889DA     BB368251  34.230  65.893  23.731
25889DA     SC168252  34.044  65.987  23.501
25889DA     SC268253  33.803  65.968  23.439
25889DA     SC368254  33.881  66.025  23.201
25889DA     SC468255  34.112  66.023  23.360
25890DT     BB168256  34.257  65.699  23.848
25890DT     BB268257  33.905  65.630  23.886
25890DT     BB368258  33.853  65.463  23.776
25890DT     SC168259  33.866  65.598  23.551
25890DT     SC268260  33.668  65.621  23.470
25890DT     SC368261  33.946  65.673  23.311
25891DA     BB168262  33.715  65.406  24.166
25891DA     BB268263  33.436  65.343  23.937
25891DA     BB368264  33.462  65.155  23.839
25891DA     SC168265  33.617  65.276  23.597
25891DA     SC268266  33.578  65.316  23.354
25891DA     SC368267  33.833  65.331  23.337
25891DA     SC468268  33.777  65.281  23.607
25892DC     BB168269  33.329  65.024  23.882
25892DC     BB268270  33.147  65.046  23.571
25892DC     BB368271  33.195  64.885  23.450
25892DC     SC168272  33.429  64.987  23.392
25892DC     SC268273  33.432  65.048  23.186
25892DC     SC368274  33.691  65.014  23.377
25893DA     BB168275  32.779  64.934  23.480
25893DA     BB268276  32.867  64.901  23.126
25893DA     BB368277  32.927  64.701  23.083
25893DA     SC168278  33.228  64.752  23.140
25893DA     SC268279  33.441  64.767  23.010
25893DA     SC368280  33.557  64.725  23.235
25893DA     SC468281  33.281  64.724  23.289
25894DA     BB168282  32.697  64.767  22.860
25894DA     BB268283  32.957  64.703  22.610
25894DA     BB368284  33.004  64.495  22.603
25894DA     SC168285  33.230  64.513  22.815
25894DA     SC268286  33.479  64.494  22.823
25894DA     SC368287  33.448  64.452  23.074
25894DA     SC468288  33.190  64.487  22.969
25895DT     BB168289  32.959  64.419  22.439
25895DT     BB268290  33.295  64.380  22.313
25895DT     BB368291  33.359  64.185  22.341
25895DT     SC168292  33.393  64.224  22.598
25895DT     SC268293  33.604  64.221  22.643
25895DT     SC368294  33.363  64.200  22.859
25896DT     BB168295  33.339  64.162  22.077
25896DT     BB268296  33.681  64.074  22.154
25896DT     BB368297  33.692  63.876  22.211
25896DT     SC168298  33.588  63.930  22.446
25896DT     SC268299  33.738  63.906  22.598
25896DT     SC368300  33.419  63.930  22.648
25897DG     BB168301  33.942  63.940  21.896
25897DG     BB268302  34.112  63.778  22.171
25897DG     BB368303  34.060  63.586  22.179
25897DG     SC168304  33.821  63.633  22.364
25897DG     SC268305  33.796  63.539  22.646
25897DG     SC368306  33.540  63.651  22.550
25897DG     SC468307  33.678  63.667  22.299
25898DT     BB168308  34.210  63.435  22.152
25898DT     BB268309  34.249  63.305  22.486
25898DT     BB368310  34.147  63.126  22.505
25898DT     SC168311  33.916  63.250  22.513
25898DT     SC268312  33.833  63.233  22.711
25898DT     SC368313  33.673  63.326  22.445
25899DG     BB168314  34.537  63.051  22.600
25899DG     BB268315  34.314  62.928  22.856
25899DG     BB368316  34.230  62.758  22.796
25899DG     SC168317  33.990  62.895  22.663
25899DG     SC268318  33.706  62.877  22.753
25899DG     SC368319  33.725  63.012  22.490
25899DG     SC468320  34.002  62.939  22.510
25900DT     BB168321  34.263  62.564  22.903
25900DT     BB268322  33.947  62.515  23.070
25900DT     BB368323  33.835  62.374  22.969
25900DT     SC168324  33.778  62.543  22.777
25900DT     SC268325  33.570  62.594  22.786
25900DT     SC368326  33.769  62.652  22.537
25901DA     BB168327  33.845  62.235  23.365
25901DA     BB268328  33.496  62.224  23.254
25901DA     BB368329  33.466  62.059  23.122
25901DA     SC168330  33.530  62.223  22.865
25901DA     SC268331  33.407  62.311  22.667
25901DA     SC368332  33.637  62.324  22.555
25901DA     SC468333  33.682  62.222  22.812
25902DC     BB168334  33.345  61.898  23.177
25902DC     BB268335  33.064  61.982  22.967
25902DC     BB368336  33.054  61.851  22.807
25902DC     SC168337  33.256  61.968  22.689
25902DC     SC268338  33.187  62.072  22.514
25902DC     SC368339  33.496  62.004  22.584
25903DG     BB168340  32.699  61.825  23.005
25903DG     BB268341  32.649  61.891  22.653
25903DG     BB368342  32.672  61.723  22.549
25903DG     SC168343  32.973  61.763  22.506
25903DG     SC268344  33.107  61.816  22.245
25903DG     SC368345  33.307  61.765  22.457
25903DG     SC468346  33.075  61.706  22.615
25904DA     BB168347  32.366  61.807  22.412
25904DA     BB268348  32.518  61.811  22.078
25904DA     BB368349  32.555  61.612  22.011
25904DA     SC168350  32.843  61.601  22.129
25904DA     SC268351  33.078  61.596  22.043
25904DA     SC368352  33.139  61.503  22.274
25904DA     SC468353  32.861  61.542  22.277
25905DA     BB168354  32.383  61.726  21.756
25905DA     BB268355  32.677  61.651  21.550
25905DA     BB368356  32.696  61.440  21.522
25905DA     SC168357  32.876  61.399  21.773
25905DA     SC268358  33.114  61.341  21.822
25905DA     SC368359  33.028  61.276  22.055
25905DA     SC468360  32.803  61.363  21.911
25906DG     BB168361  32.666  61.496  21.213
25906DG     BB268362  33.001  61.360  21.198
25906DG     BB368363  32.994  61.161  21.195
25906DG     SC168364  33.003  61.131  21.499
25906DG     SC268365  33.226  61.011  21.657
25906DG     SC368366  32.991  61.061  21.829
25906DG     SC468367  32.865  61.132  21.581
25907DA     BB168368  33.189  61.130  20.896
25907DA     BB268369  33.443  60.934  21.073
25907DA     BB368370  33.382  60.731  21.090
25907DA     SC168371  33.239  60.770  21.363
25907DA     SC268372  33.273  60.704  21.601
25907DA     SC368373  33.023  60.753  21.630
25907DA     SC468374  33.082  60.805  21.361
25908DC     BB168375  33.470  60.520  20.980
25908DC     BB268376  33.639  60.396  21.273
25908DC     BB368377  33.549  60.221  21.338
25908DC     SC168378  33.344  60.352  21.435
25908DC     SC268379  33.349  60.342  21.650
25908DC     SC368380  33.096  60.436  21.469
25909DT     BB168381  33.741  60.005  21.247
25909DT     BB268382  33.722  59.957  21.604
25909DT     BB368383  33.586  59.808  21.649
25909DT     SC168384  33.383  59.966  21.596
25909DT     SC268385  33.280  60.013  21.779
25909DT     SC368386  33.168  60.063  21.479
25910DA     BB168387  33.937  59.684  21.838
25910DA     BB268388  33.672  59.700  22.091
25910DA     BB368389  33.546  59.528  22.078
25910DA     SC168390  33.347  59.658  21.878
25910DA     SC268391  33.111  59.740  21.879
25910DA     SC368392  33.124  59.717  21.624
25910DA     SC468393  33.374  59.636  21.721
25911DA     BB168394  33.642  59.550  22.383
25911DA     BB268395  33.289  59.609  22.460
25911DA     BB368396  33.178  59.428  22.445
25911DA     SC168397  33.106  59.469  22.145
25911DA     SC268398  32.903  59.519  22.009
25911DA     SC368399  33.037  59.424  21.812
25911DA     SC468400  33.205  59.405  22.035
25912DC     BB168401  33.123  59.416  22.601
25912DC     BB268402  32.781  59.509  22.533
25912DC     BB368403  32.668  59.340  22.495
25912DC     SC168404  32.774  59.313  22.256
25912DC     SC268405  32.625  59.356  22.107
25912DC     SC368406  32.910  59.209  22.055
25913DG     BB168407  32.528  59.603  22.777
25913DG     BB268408  32.280  59.521  22.527
25913DG     BB368409  32.220  59.333  22.550
25913DG     SC168410  32.435  59.216  22.365
25913DG     SC268411  32.386  59.085  22.101
25913DG     SC368412  32.668  59.053  22.185
25913DG     SC468413  32.577  59.176  22.427
25914DT     BB168414  32.026  59.320  22.585
25914DT     BB268415  31.897  59.179  22.280
25914DT     BB368416  31.880  58.973  22.299
25914DT     SC168417  32.140  58.943  22.276
25914DT     SC268418  32.185  58.848  22.088
25914DT     SC368419  32.389  58.881  22.338
25915DT     BB168420  31.616  59.008  22.306
25915DT     BB268421  31.670  58.773  22.038
25915DT     BB368422  31.686  58.581  22.114
25915DT     SC168423  31.927  58.629  22.205
25915DT     SC268424  32.070  58.516  22.090
25915DT     SC368425  32.127  58.661  22.374
25916DA     BB168426  31.390  58.555  21.817
25916DA     BB268427  31.624  58.278  21.764
25916DA     BB368428  31.593  58.126  21.911
25916DA     SC168429  31.799  58.245  22.112
25916DA     SC268430  32.024  58.186  22.203
25916DA     SC368431  31.965  58.346  22.395
25916DA     SC468432  31.744  58.347  22.223
25917DA     BB168433  31.559  57.925  21.650
25917DA     BB268434  31.850  57.740  21.775
25917DA     BB368435  31.794  57.614  21.937
25917DA     SC168436  31.852  57.828  22.155
25917DA     SC268437  32.018  57.866  22.338
25917DA     SC368438  31.844  58.026  22.436
25917DA     SC468439  31.730  57.922  22.201
25918DT     BB168440  31.804  57.411  21.914
25918DT     BB268441  32.100  57.359  22.113
25918DT     BB368442  32.049  57.274  22.295
25918DT     SC168443  31.953  57.502  22.383
25918DT     SC268444  32.081  57.578  22.539
25918DT     SC368445  31.781  57.681  22.473
25919DA     BB168446  32.355  57.049  22.121
25919DA     BB268447  32.449  57.120  22.469
25919DA     BB368448  32.330  57.004  22.603
25919DA     SC168449  32.108  57.220  22.631
25919DA     SC268450  32.023  57.376  22.806
25919DA     SC368451  31.809  57.385  22.666
25919DA     SC468452  31.983  57.211  22.531
25920DC     BB168453  32.434  56.886  22.697
25920DC     BB268454  32.420  57.054  23.016
25920DC     BB368455  32.277  56.966  23.136
25920DC     SC168456  32.082  57.077  22.999
25920DC     SC268457  31.986  57.227  23.120
25920DC     SC368458  31.870  57.101  22.844
25921DG     BB168459  32.632  56.952  23.335
25921DG     BB268460  32.370  57.089  23.543
25921DG     BB368461  32.254  56.943  23.611
25921DG     SC168462  32.060  56.952  23.375
25921DG     SC268463  31.774  57.036  23.385
25921DG     SC368464  31.840  56.920  23.121
25921DG     SC468465  32.092  56.863  23.245
25922DA     BB168466  32.305  57.074  23.930
25922DA     BB268467  31.944  57.116  23.974
25922DA     BB368468  31.851  56.928  24.014
25922DA     SC168469  31.795  56.866  23.714
25922DA     SC268470  31.597  56.849  23.563
25922DA     SC368471  31.751  56.712  23.410
25922DA     SC468472  31.906  56.781  23.634
25923DT     BB168473  31.766  56.888  24.200
25923DT     BB268474  31.420  56.906  24.098
25923DT     BB368475  31.339  56.716  24.089
25923DT     SC168476  31.467  56.662  23.867
25923DT     SC268477  31.326  56.650  23.705
25923DT     SC368478  31.634  56.547  23.698
25924DA     BB168479  31.074  56.926  24.338
25924DA     BB268480  30.871  56.749  24.089
25924DA     BB368481  30.860  56.541  24.137
25924DA     SC168482  31.111  56.464  23.970
25924DA     SC268483  31.162  56.338  23.760
25924DA     SC368484  31.400  56.320  23.854
25924DA     SC468485  31.253  56.462  24.046
25925DA     BB168486  30.531  56.582  24.125
25925DA     BB268487  30.524  56.338  23.852
25925DA     BB368488  30.539  56.140  23.929
25925DA     SC168489  30.849  56.131  23.913
25925DA     SC268490  31.024  56.013  23.779
25925DA     SC368491  31.183  56.072  23.972
25925DA     SC468492  30.932  56.176  24.044
25926DA     BB168493  30.260  56.083  23.761
25926DA     BB268494  30.445  55.832  23.567
25926DA     BB368495  30.464  55.652  23.680
25926DA     SC168496  30.735  55.734  23.809
25926DA     SC268497  30.975  55.666  23.795
25926DA     SC368498  30.999  55.780  24.024
25926DA     SC468499  30.730  55.809  23.952
25927DC     BB168500  30.366  55.468  23.623
25927DC     BB268501  30.660  55.299  23.500
25927DC     BB368502  30.714  55.148  23.631
25927DC     SC168503  30.810  55.321  23.803
25927DC     SC268504  31.024  55.303  23.810
25927DC     SC368505  30.839  55.459  24.026
25928DT     BB168506  30.624  54.940  23.464
25928DT     BB268507  30.971  54.859  23.524
25928DT     BB368508  30.988  54.738  23.690
25928DT     SC168509  30.943  54.940  23.852
25928DT     SC268510  31.123  54.987  23.959
25928DT     SC368511  30.825  55.092  24.032
25929DT     BB168512  31.044  54.507  23.543
25929DT     BB268513  31.325  54.538  23.767
25929DT     BB368514  31.287  54.436  23.943
25929DT     SC168515  31.121  54.622  24.024
25929DT     SC268516  31.209  54.727  24.191
25929DT     SC368517  30.898  54.740  24.100
25930DC     BB168518  31.463  54.229  23.882
25930DC     BB268519  31.582  54.356  24.197
25930DC     BB368520  31.490  54.255  24.353
25930DC     SC168521  31.266  54.385  24.315
25930DC     SC268522  31.232  54.520  24.479
25930DC     SC368523  31.012  54.431  24.258
25931DT     BB168524  31.723  54.126  24.409
25931DT     BB268525  31.639  54.298  24.714
25931DT     BB368526  31.513  54.180  24.829
25931DT     SC168527  31.309  54.230  24.672
25931DT     SC268528  31.167  54.354  24.776
25931DT     SC368529  31.112  54.190  24.501
25932DA     BB168530  31.834  54.313  25.064
25932DA     BB268531  31.523  54.383  25.245
25932DA     BB368532  31.437  54.202  25.317
25932DA     SC168533  31.265  54.154  25.062
25932DA     SC268534  31.023  54.158  24.999
25932DA     SC368535  31.094  54.013  24.799
25932DA     SC468536  31.328  54.063  24.945
25933DT     BB168537  31.431  54.189  25.507
25933DT     BB268538  31.076  54.245  25.543
25933DT     BB368539  30.979  54.065  25.574
25933DT     SC168540  31.006  53.998  25.322
25933DT     SC268541  30.814  54.001  25.226
25933DT     SC368542  31.083  53.865  25.107
25934DA     BB168543  30.861  54.342  25.867
25934DA     BB268544  30.560  54.189  25.724
25934DA     BB368545  30.542  53.986  25.788
25934DA     SC168546  30.701  53.871  25.546
25934DA     SC268547  30.653  53.734  25.343
25934DA     SC368548  30.905  53.685  25.342
25934DA     SC468549  30.859  53.851  25.564
25935DG     BB168550  30.277  54.098  25.901
25935DG     BB268551  30.135  53.866  25.663
25935DG     BB368552  30.139  53.681  25.737
25935DG     SC168553  30.416  53.615  25.624
25935DG     SC268554  30.475  53.414  25.412
25935DG     SC368555  30.725  53.516  25.533
25935DG     SC468556  30.545  53.650  25.712
25936DT     BB168557  29.955  53.585  25.764
25936DT     BB268558  29.957  53.346  25.494
25936DT     BB368559  30.011  53.159  25.565
25936DT     SC168560  30.262  53.231  25.586
25936DT     SC268561  30.379  53.127  25.439
25936DT     SC368562  30.496  53.288  25.694
25937DC     BB168563  29.758  53.087  25.525
25937DC     BB268564  29.954  52.854  25.331
25937DC     BB368565  30.020  52.699  25.452
25937DC     SC168566  30.200  52.853  25.565
25937DC     SC268567  30.396  52.791  25.503
25937DC     SC368568  30.329  52.990  25.750
25938DT     BB168569  29.848  52.546  25.320
25938DT     BB268570  30.169  52.386  25.277
25938DT     BB368571  30.211  52.268  25.441
25938DT     SC168572  30.266  52.478  25.588
25938DT     SC268573  30.477  52.483  25.630
25938DT     SC368574  30.249  52.656  25.782
25939DA     BB168575  30.266  52.043  25.090
25939DA     BB268576  30.560  51.996  25.304
25939DA     BB368577  30.510  51.877  25.474
25939DA     SC168578  30.434  52.121  25.652
25939DA     SC268579  30.525  52.238  25.852
25939DA     SC368580  30.288  52.331  25.880
25939DA     SC468581  30.280  52.167  25.653
25940DG     BB168582  30.730  51.695  25.353
25940DG     BB268583  30.898  51.772  25.665
25940DG     BB368584  30.823  51.661  25.811
25940DG     SC168585  30.605  51.862  25.887
25940DG     SC268586  30.589  52.015  26.143
25940DG     SC368587  30.342  52.050  25.983
25940DG     SC468588  30.463  51.855  25.813
25941DG     BB168589  31.116  51.514  25.885
25941DG     BB268590  31.090  51.664  26.213
25941DG     BB368591  30.986  51.544  26.334
25941DG     SC168592  30.715  51.668  26.264
25941DG     SC268593  30.541  51.825  26.449
25941DG     SC368594  30.400  51.765  26.195
25941DG     SC468595  30.633  51.609  26.140
25942DA     BB168596  31.242  51.540  26.578
25942DA     BB268597  31.016  51.687  26.827
25942DA     BB368598  30.893  51.536  26.914
25942DA     SC168599  30.664  51.569  26.705
25942DA     SC268600  30.430  51.655  26.700
25942DA     SC368601  30.405  51.516  26.486
25942DA     SC468602  30.668  51.475  26.575
25943DG     BB168603  31.019  51.597  27.198
25943DG     BB268604  30.684  51.706  27.279
25943DG     BB368605  30.577  51.552  27.344
25943DG     SC168606  30.476  51.473  27.066
25943DG     SC268607  30.193  51.490  26.971
25943DG     SC368608  30.362  51.346  26.775
25943DG     SC468609  30.563  51.371  26.978
25944DT     BB168610  30.487  51.536  27.560
25944DT     BB268611  30.140  51.610  27.494
25944DT     BB368612  30.026  51.438  27.513
25944DT     SC168613  30.115  51.344  27.284
25944DT     SC268614  29.956  51.346  27.140
25944DT     SC368615  30.237  51.187  27.111
25945DT     BB168616  29.923  51.543  27.738
25945DT     BB268617  29.638  51.482  27.525
25945DT     BB368618  29.572  51.288  27.550
25945DT     SC168619  29.774  51.193  27.412
25945DT     SC268620  29.702  51.116  27.224
25945DT     SC368621  29.994  51.060  27.353
25946DG     BB168622  29.274  51.556  27.615
25946DG     BB268623  29.176  51.302  27.377
25946DG     BB368624  29.136  51.132  27.472
25946DG     SC168625  29.423  51.026  27.455
25946DG     SC268626  29.514  50.789  27.298
25946DG     SC368627  29.731  50.889  27.473
25946DG     SC468628  29.526  51.064  27.572
25947DG     BB168629  28.854  51.164  27.318
25947DG     BB268630  28.929  50.844  27.166
25947DG     BB368631  28.894  50.698  27.296
25947DG     SC168632  29.177  50.701  27.413
25947DG     SC268633  29.380  50.483  27.387
25947DG     SC368634  29.472  50.690  27.577
25947DG     SC468635  29.210  50.798  27.535
25948DA     BB168636  28.709  50.555  27.038
25948DA     BB268637  28.908  50.248  27.063
25948DA     BB368638  28.856  50.140  27.241
25948DA     SC168639  29.071  50.280  27.417
25948DA     SC268640  29.285  50.219  27.530
25948DA     SC368641  29.244  50.426  27.675
25948DA     SC468642  29.027  50.412  27.498
25949DA     BB168643  28.792  49.871  27.049
25949DA     BB268644  29.040  49.683  27.243
25949DA     BB368645  28.957  49.623  27.430
25949DA     SC168646  29.049  49.879  27.582
25949DA     SC268647  29.215  49.940  27.758
25949DA     SC368648  29.072  50.150  27.792
25949DA     SC468649  28.946  50.002  27.589
25950DT     BB168650  28.885  49.397  27.519
25950DT     BB268651  29.154  49.354  27.756
25950DT     BB368652  29.079  49.358  27.949
25950DT     SC168653  29.046  49.618  27.939
25950DT     SC268654  29.187  49.713  28.070
25950DT     SC368655  28.926  49.853  27.939
25951DT     BB168656  29.067  49.064  28.039
25951DT     BB268657  29.260  49.217  28.302
25951DT     BB368658  29.138  49.261  28.464
25951DT     SC168659  29.032  49.465  28.338
25951DT     SC268660  29.096  49.648  28.431
25951DT     SC368661  28.851  49.618  28.221
25952DA     BB168662  29.426  49.021  28.660
25952DA     BB268663  29.400  49.333  28.851
25952DA     BB368664  29.229  49.328  28.978
25952DA     SC168665  29.038  49.455  28.768
25952DA     SC268666  28.917  49.671  28.735
25952DA     SC368667  28.767  49.539  28.574
25952DA     SC468668  28.956  49.356  28.673
25953DC     BB168669  29.245  49.326  29.196
25953DC     BB268670  29.160  49.673  29.241
25953DC     BB368671  28.973  49.690  29.328
25953DC     SC168672  28.853  49.625  29.104
25953DC     SC268673  28.750  49.797  29.026
25953DC     SC368674  28.707  49.490  28.930
25954DA     BB168675  29.253  49.923  29.533
25954DA     BB268676  28.963  50.133  29.455
25954DA     BB368677  28.797  50.079  29.578
25954DA     SC168678  28.685  49.870  29.376
25954DA     SC268679  28.488  49.847  29.225
25954DA     SC368680  28.540  49.596  29.229
25954DA     SC468681  28.733  49.718  29.392
25955DT     BB168682  28.754  50.217  29.684
25955DT     BB268683  28.452  50.314  29.512
25955DT     BB368684  28.287  50.234  29.609
25955DT     SC168685  28.338  49.994  29.515
25955DT     SC268686  28.187  49.940  29.372
25955DT     SC368687  28.399  49.738  29.510
25956DC     BB168688  28.239  50.484  29.676
25956DC     BB268689  27.940  50.372  29.507
25956DC     BB368690  27.820  50.267  29.639
25956DC     SC168691  27.978  50.058  29.629
25956DC     SC268692  27.879  49.898  29.526
25956DC     SC368693  28.147  49.871  29.707
25957DT     BB168694  27.650  50.476  29.639
25957DT     BB268695  27.446  50.193  29.546
25957DT     BB368696  27.380  50.094  29.716
25957DT     SC168697  27.617  49.989  29.756
25957DT     SC268698  27.609  49.778  29.720
25957DT     SC368699  27.848  49.935  29.872
25958DG     BB168700  27.030  50.204  29.531
25958DG     BB268701  27.027  49.852  29.614
25958DG     BB368702  26.981  49.828  29.806
25958DG     SC168703  27.271  49.840  29.903
25958DG     SC268704  27.425  49.615  30.024
25958DG     SC368705  27.575  49.869  30.046
25958DG     SC468706  27.335  49.982  29.939
25959DA     BB168707  26.711  49.607  29.738
25959DA     BB268708  26.875  49.338  29.926
25959DA     BB368709  26.839  49.362  30.135
25959DA     SC168710  27.093  49.535  30.184
25959DA     SC268711  27.313  49.511  30.298
25959DA     SC368712  27.318  49.768  30.297
25959DA     SC468713  27.077  49.695  30.175
25960DT     BB168714  26.713  49.223  30.265
25960DT     BB268715  26.994  49.061  30.424
25960DT     BB368716  27.002  49.113  30.624
25960DT     SC168717  27.093  49.352  30.565
25960DT     SC268718  27.298  49.368  30.629
25960DT     SC368719  27.105  49.615  30.545
25961DA     BB168720  27.006  48.695  30.618
25961DA     BB268721  27.289  48.806  30.823
25961DA     BB368722  27.220  48.870  31.015
25961DA     SC168723  27.182  49.167  30.928
25961DA     SC268724  27.290  49.387  30.973
25961DA     SC368725  27.069  49.489  30.889
25961DA     SC468726  27.037  49.211  30.874
25962DA     BB168727  27.447  48.653  31.097
25962DA     BB268728  27.626  48.932  31.254
25962DA     BB368729  27.532  48.987  31.438
25962DA     SC168730  27.343  49.197  31.308
25962DA     SC268731  27.316  49.444  31.305
25962DA     SC368732  27.076  49.397  31.227
25962DA     SC468733  27.197  49.147  31.261
25963DA     BB168734  27.844  48.943  31.516
25963DA     BB268735  27.843  49.296  31.616
25963DA     BB368736  27.734  49.321  31.797
25963DA     SC168737  27.462  49.373  31.655
25963DA     SC268738  27.306  49.565  31.619
25963DA     SC368739  27.130  49.385  31.569
25963DA     SC468740  27.366  49.247  31.629
25964DG     BB168741  28.013  49.428  31.860
25964DG     BB268742  27.829  49.738  31.898
25964DG     BB368743  27.732  49.738  32.072
25964DG     SC168744  27.478  49.609  31.958
25964DG     SC268745  27.211  49.741  31.933
25964DG     SC368746  27.193  49.452  31.871
25964DG     SC468747  27.467  49.450  31.955
25965DT     BB168748  27.787  49.888  32.189
25965DT     BB268749  27.501  50.108  32.175
25965DT     BB368750  27.378  50.074  32.337
25965DT     SC168751  27.289  49.850  32.234
25965DT     SC268752  27.083  49.874  32.177
25965DT     SC368753  27.241  49.592  32.205
25966DT     BB168754  27.462  50.311  32.408
25966DT     BB268755  27.103  50.336  32.399
25966DT     BB368756  27.022  50.259  32.574
25966DT     SC168757  27.069  50.013  32.496
25966DT     SC268758  26.882  49.915  32.453
25966DT     SC368759  27.170  49.769  32.491
25967DA     BB168760  26.859  50.638  32.493
25967DA     BB268761  26.585  50.411  32.580
25967DA     BB368762  26.593  50.361  32.787
25967DA     SC168763  26.771  50.110  32.745
25967DA     SC268764  26.748  49.862  32.761
25967DA     SC368765  27.004  49.860  32.778
25967DA     SC468766  26.931  50.129  32.756
25968DA     BB168767  26.281  50.464  32.765
25968DA     BB268768  26.183  50.132  32.888
25968DA     BB368769  26.229  50.113  33.095
25968DA     SC168770  26.514  49.998  33.046
25968DA     SC268771  26.632  49.780  33.075
25968DA     SC368772  26.847  49.920  33.066
25968DA     SC468773  26.636  50.102  33.040
25969DT     BB168774  26.078  50.099  33.235
25969DT     BB268775  26.121  49.751  33.319
25969DT     BB368776  26.213  49.734  33.503
25969DT     SC168777  26.445  49.803  33.403
25969DT     SC268778  26.577  49.633  33.404
25969DT     SC368779  26.666  49.941  33.360
25970DA     BB168780  25.866  49.499  33.552
25970DA     BB268781  26.148  49.302  33.679
25970DA     BB368782  26.210  49.375  33.870
25970DA     SC168783  26.418  49.575  33.753
25970DA     SC268784  26.666  49.600  33.744
25970DA     SC368785  26.619  49.847  33.694
25970DA     SC468786  26.368  49.726  33.724
25971DC     BB168787  26.188  49.272  34.087
25971DC     BB268788  26.536  49.184  34.126
25971DC     BB368789  26.620  49.295  34.280
25971DC     SC168790  26.626  49.511  34.131
25971DC     SC268791  26.831  49.558  34.083
25971DC     SC368792  26.576  49.755  34.045
25972DT     BB168793  26.633  49.092  34.494
25972DT     BB268794  26.974  49.204  34.466
25972DT     BB368795  27.012  49.352  34.606
25972DT     SC168796  26.877  49.529  34.466
25972DT     SC268797  27.013  49.674  34.385
25972DT     SC368798  26.691  49.704  34.401
25973DC     BB168799  27.169  49.195  34.790
25973DC     BB268800  27.388  49.467  34.701
25973DC     BB368801  27.371  49.620  34.840
25973DC     SC168802  27.139  49.693  34.742
25973DC     SC268803  27.159  49.883  34.644
25973DC     SC368804  26.880  49.741  34.727
25974DA     BB168805  27.777  49.529  34.808
25974DA     BB268806  27.740  49.891  34.762
25974DA     BB368807  27.703  49.986  34.950
25974DA     SC168808  27.393  49.963  34.928
25974DA     SC268809  27.199  50.115  34.895
25974DA     SC368810  27.058  49.925  34.994
25974DA     SC468811  27.323  49.833  34.993
25975DC     BB168812  27.841  50.105  35.003
25975DC     BB268813  27.664  50.410  34.929
25975DC     BB368814  27.594  50.496  35.104
25975DC     SC168815  27.404  50.317  35.125
25975DC     SC268816  27.213  50.411  35.090
25975DC     SC368817  27.259  50.118  35.220
25976DC     BB168818  27.775  50.676  35.046
25976DC     BB268819  27.463  50.856  35.065
25976DC     BB368820  27.418  50.898  35.263
25976DC     SC168821  27.349  50.649  35.308
25976DC     SC268822  27.136  50.638  35.339
25976DC     SC368823  27.351  50.405  35.410
25977DT     BB168824  27.466  51.139  35.179
25977DT     BB268825  27.133  51.150  35.317
25977DT     BB368826  27.142  51.163  35.523
25977DT     SC168827  27.210  50.911  35.545
25977DT     SC268828  27.048  50.801  35.633
25977DT     SC368829  27.353  50.696  35.600
25978DG     BB168830  26.920  51.470  35.373
25978DG     BB268831  26.750  51.304  35.646
25978DG     BB368832  26.833  51.356  35.819
25978DG     SC168833  27.038  51.129  35.817
25978DG     SC268834  27.046  50.899  36.007
25978DG     SC368835  27.288  50.904  35.838
25978DG     SC468836  27.179  51.152  35.746
25979DG     BB168837  26.542  51.474  35.930
25979DG     BB268838  26.570  51.235  36.200
25979DG     BB368839  26.687  51.308  36.344
25979DG     SC168840  26.945  51.192  36.225
25979DG     SC268841  27.113  50.978  36.347
25979DG     SC368842  27.248  51.098  36.113
25979DG     SC468843  27.026  51.279  36.118
25980DT     BB168844  26.631  51.378  36.580
25980DT     BB268845  26.782  51.112  36.772
25980DT     BB368846  26.950  51.182  36.871
25980DT     SC168847  27.089  51.186  36.648
25980DT     SC268848  27.240  51.033  36.656
25980DT     SC368849  27.229  51.278  36.445
25981DA     BB168850  26.743  51.043  37.215
25981DA     BB268851  27.084  50.911  37.241
25981DA     BB368852  27.216  51.060  37.316
25981DA     SC168853  27.292  51.169  37.035
25981DA     SC268854  27.492  51.171  36.886
25981DA     SC368855  27.378  51.369  36.769
25981DA     SC468856  27.206  51.291  36.977
25982DT     BB168857  27.330  51.070  37.530
25982DT     BB268858  27.654  50.979  37.402
25982DT     BB368859  27.785  51.138  37.420
25982DT     SC168860  27.672  51.264  37.220
25982DT     SC268861  27.807  51.268  37.053
25982DT     SC368862  27.540  51.449  37.085
25983DT     BB168863  27.934  51.031  37.637
25983DT     BB268864  28.181  51.087  37.379
25983DT     BB368865  28.264  51.275  37.401
25983DT     SC168866  28.049  51.390  37.306
25983DT     SC268867  28.092  51.474  37.113
25983DT     SC368868  27.832  51.540  37.295
25984DT     BB168869  28.501  51.168  37.490
25984DT     BB268870  28.593  51.359  37.198
25984DT     BB368871  28.635  51.554  37.253
25984DT     SC168872  28.381  51.609  37.285
25984DT     SC268873  28.316  51.744  37.130
25984DT     SC368874  28.154  51.676  37.403
25985DA     BB168875  28.949  51.403  37.020
25985DA     BB268876  28.851  51.728  36.882
25985DA     BB368877  28.914  51.886  37.011
25985DA     SC168878  28.651  51.890  37.176
25985DA     SC268879  28.455  52.041  37.207
25985DA     SC368880  28.417  51.913  37.426
25985DA     SC468881  28.645  51.799  37.309
25986DA     BB168882  29.043  51.984  36.727
25986DA     BB268883  28.837  52.285  36.761
25986DA     BB368884  28.918  52.414  36.910
25986DA     SC168885  28.753  52.289  37.143
25986DA     SC268886  28.564  52.356  37.292
25986DA     SC368887  28.647  52.168  37.446
25986DA     SC468888  28.820  52.169  37.226
25987DT     BB168889  28.990  52.590  36.850
25987DT     BB268890  28.722  52.794  36.981
25987DT     BB368891  28.784  52.890  37.154
25987DT     SC168892  28.765  52.667  37.292
25987DT     SC268893  28.601  52.683  37.430
25987DT     SC368894  28.836  52.460  37.438
25988DT     BB168895  28.801  53.134  37.027
25988DT     BB268896  28.576  53.194  37.302
25988DT     BB368897  28.683  53.249  37.470
25988DT     SC168898  28.764  53.002  37.509
25988DT     SC268899  28.670  52.923  37.685
25988DT     SC368900  28.926  52.795  37.532
25989DA     BB168901  28.396  53.550  37.421
25989DA     BB268902  28.381  53.440  37.770
25989DA     BB368903  28.546  53.517  37.880
25989DA     SC168904  28.730  53.273  37.823
25989DA     SC268905  28.829  53.083  37.950
25989DA     SC368906  28.998  53.068  37.758
25989DA     SC468907  28.826  53.281  37.695
25990DT     BB168908  28.511  53.653  38.029
25990DT     BB268909  28.564  53.425  38.303
25990DT     BB368910  28.746  53.465  38.394
25990DT     SC168911  28.879  53.356  38.196
25990DT     SC268912  28.969  53.173  38.263
25990DT     SC368913  29.041  53.332  37.990
25991DA     BB168914  28.445  53.449  38.685
25991DA     BB268915  28.722  53.235  38.795
25991DA     BB368916  28.887  53.354  38.858
25991DA     SC168917  29.021  53.361  38.577
25991DA     SC268918  29.223  53.267  38.466
25991DA     SC368919  29.190  53.454  38.293
25991DA     SC468920  28.984  53.484  38.480
25992DA     BB168921  28.836  53.152  39.107
25992DA     BB268922  29.178  53.032  39.050
25992DA     BB368923  29.319  53.179  39.111
25992DA     SC168924  29.333  53.317  38.832
25992DA     SC268925  29.498  53.341  38.646
25992DA     SC368926  29.357  53.544  38.576
25992DA     SC468927  29.234  53.440  38.805
25993DA     BB168928  29.417  52.907  39.263
25993DA     BB268929  29.733  52.948  39.082
25993DA     BB368930  29.842  53.115  39.160
25993DA     SC168931  29.717  53.320  38.963
25993DA     SC268932  29.790  53.457  38.768
25993DA     SC368933  29.584  53.602  38.818
25993DA     SC468934  29.585  53.399  39.012
25994DT     BB168935  30.004  53.066  39.243
25994DT     BB268936  30.227  53.192  38.988
25994DT     BB368937  30.303  53.375  39.046
25994DT     SC168938  30.076  53.495  38.994
25994DT     SC268939  30.099  53.622  38.822
25994DT     SC368940  29.852  53.630  39.032
25995DA     BB168941  30.626  53.131  38.935
25995DA     BB268942  30.670  53.457  38.772
25995DA     BB368943  30.725  53.605  38.915
25995DA     SC168944  30.433  53.689  38.979
25995DA     SC268945  30.285  53.886  38.940
25995DA     SC368946  30.143  53.792  39.132
25995DA     SC468947  30.359  53.615  39.101
25996DT     BB168948  30.912  53.688  38.907
25996DT     BB268949  30.812  54.012  38.784
25996DT     BB368950  30.820  54.152  38.936
25996DT     SC168951  30.602  54.057  39.046
25996DT     SC268952  30.443  54.200  39.024
25996DT     SC368953  30.442  53.944  39.223
25997DA     BB168954  31.050  54.321  38.627
25997DA     BB268955  30.818  54.579  38.746
25997DA     BB368956  30.884  54.656  38.934
25997DA     SC168957  30.721  54.451  39.102
25997DA     SC268958  30.523  54.451  39.253
25997DA     SC368959  30.615  54.229  39.342
25997DA     SC468960  30.795  54.315  39.145
25998DA     BB168961  30.872  54.953  38.788
25998DA     BB268962  30.618  55.049  39.035
25998DA     BB368963  30.711  55.096  39.221
25998DA     SC168964  30.692  54.806  39.332
25998DA     SC268965  30.566  54.684  39.509
25998DA     SC368966  30.752  54.508  39.492
25998DA     SC468967  30.818  54.709  39.308
25999DT     BB168968  30.711  55.296  39.302
25999DT     BB268969  30.463  55.237  39.558
25999DT     BB368970  30.553  55.235  39.744
25999DT     SC168971  30.656  54.997  39.701
25999DT     SC268972  30.558  54.853  39.828
25999DT     SC368973  30.834  54.807  39.665
26000DT     BB168974  30.445  55.479  39.809
26000DT     BB268975  30.328  55.257  40.069
26000DT     BB368976  30.466  55.250  40.223
26000DT     SC168977  30.629  55.100  40.082
26000DT     SC268978  30.635  54.902  40.166
26000DT     SC368979  30.844  55.024  39.950
26001DA     BB168980  30.094  55.338  40.394
26001DA     BB268981  30.241  55.059  40.582
26001DA     BB368982  30.399  55.130  40.706
26001DA     SC168983  30.620  55.085  40.492
26001DA     SC268984  30.814  54.933  40.455
26001DA     SC368985  30.898  55.112  40.292
26001DA     SC468986  30.656  55.209  40.396
26002DA     BB168987  30.215  54.971  40.924
26002DA     BB268988  30.506  54.754  40.980
26002DA     BB368989  30.655  54.857  41.092
26002DA     SC168990  30.801  54.969  40.841
26002DA     SC268991  31.018  54.934  40.723
26002DA     SC368992  30.975  55.165  40.619
26002DA     SC468993  30.757  55.115  40.789
26003DA     BB168994  30.617  54.584  41.267
26003DA     BB268995  30.972  54.518  41.198
26003DA     BB368996  31.095  54.648  41.313
26003DA     SC168997  31.106  54.869  41.095
26003DA     SC268998  31.275  54.966  40.938
26003DA     SC368999  31.118  55.168  40.926
26003DA     SC469000  30.996  54.986  41.101
26004DC     BB169001  31.204  54.561  41.445
26004DC     BB269002  31.519  54.596  41.274
26004DC     BB369003  31.628  54.752  41.357
26004DC     SC169004  31.474  54.931  41.242
26004DC     SC269005  31.586  55.033  41.089
26004DC     SC369006  31.303  55.129  41.214
26005DT     BB169007  31.793  54.567  41.459
26005DT     BB269008  32.006  54.783  41.263
26005DT     BB369009  32.062  54.947  41.375
26005DT     SC169010  31.825  55.055  41.350
26005DT     SC269011  31.838  55.229  41.224
26005DT     SC369012  31.588  55.152  41.415
26006DG     BB169013  32.402  54.759  41.252
26006DG     BB269014  32.408  55.111  41.169
26006DG     BB369015  32.450  55.218  41.332
26006DG     SC169016  32.158  55.250  41.417
26006DG     SC269017  32.004  55.506  41.422
26006DG     SC369018  31.851  55.288  41.550
26006DG     SC469019  32.092  55.139  41.511
26007DT     BB169020  32.632  55.340  41.341
26007DT     BB269021  32.499  55.673  41.305
26007DT     BB369022  32.495  55.768  41.490
26007DT     SC169023  32.288  55.626  41.567
26007DT     SC269024  32.115  55.753  41.580
26007DT     SC369025  32.142  55.455  41.704
26008DT     BB169026  32.699  55.925  41.410
26008DT     BB269027  32.437  56.155  41.503
26008DT     BB369028  32.445  56.193  41.707
26008DT     SC169029  32.344  55.957  41.762
26008DT     SC269030  32.145  55.981  41.840
26008DT     SC369031  32.323  55.711  41.856
26009DA     BB169032  32.440  56.565  41.514
26009DA     BB269033  32.188  56.573  41.780
26009DA     BB369034  32.281  56.585  41.971
26009DA     SC169035  32.297  56.277  42.011
26009DA     SC269036  32.190  56.104  42.156
26009DA     SC369037  32.393  55.959  42.096
26009DA     SC469038  32.431  56.203  41.963
26010DT     BB169039  32.254  56.753  42.079
26010DT     BB269040  32.027  56.613  42.321
26010DT     BB369041  32.126  56.581  42.500
26010DT     SC169042  32.250  56.371  42.403
26010DT     SC269043  32.174  56.193  42.498
26010DT     SC369044  32.446  56.214  42.322
26011DT     BB169045  31.993  56.789  42.612
26011DT     BB269046  31.916  56.507  42.824
26011DT     BB369047  32.063  56.485  42.968
26011DT     SC169048  32.231  56.386  42.792
26011DT     SC269049  32.263  56.177  42.833
26011DT     SC369050  32.444  56.363  42.638
26012DA     BB169051  31.695  56.492  43.168
26012DA     BB269052  31.884  56.202  43.289
26012DA     BB369053  32.043  56.266  43.416
26012DA     SC169054  32.250  56.289  43.184
26012DA     SC269055  32.455  56.169  43.107
26012DA     SC369056  32.507  56.385  42.978
26012DA     SC469057  32.266  56.432  43.113
26013DG     BB169058  31.896  56.092  43.627
26013DG     BB269059  32.198  55.894  43.607
26013DG     BB369060  32.340  55.975  43.720
26013DG     SC169061  32.450  56.153  43.497
26013DG     SC269062  32.719  56.128  43.369
26013DG     SC369063  32.584  56.376  43.281
26013DG     SC469064  32.388  56.299  43.475
26014DA     BB169065  32.368  55.659  43.855
26014DA     BB269066  32.718  55.646  43.745
26014DA     BB369067  32.840  55.767  43.871
26014DA     SC169068  32.807  56.023  43.697
26014DA     SC269069  32.948  56.164  43.547
26014DA     SC369070  32.772  56.346  43.586
26014DA     SC469071  32.687  56.124  43.734
26015DC     BB169072  32.968  55.670  43.972
26015DC     BB269073  33.257  55.768  43.779
26015DC     BB369074  33.361  55.918  43.878
26015DC     SC169075  33.179  56.096  43.814
26015DC     SC269076  33.263  56.235  43.671
26015DC     SC369077  32.989  56.277  43.840
26016DT     BB169078  33.545  55.733  43.916
26016DT     BB269079  33.713  56.000  43.740
26016DT     BB369080  33.770  56.147  43.874
26016DT     SC169081  33.523  56.233  43.897
26016DT     SC269082  33.506  56.427  43.804
26016DT     SC369083  33.290  56.292  44.005
26017DA     BB169084  34.091  56.036  43.625
26017DA     BB269085  34.067  56.402  43.629
26017DA     BB369086  34.125  56.478  43.820
26017DA     SC169087  33.837  56.470  43.938
26017DA     SC269088  33.661  56.633  44.007
26017DA     SC369089  33.563  56.439  44.143
26017DA     SC469090  33.792  56.337  44.017
26018DA     BB169091  34.311  56.651  43.613
26018DA     BB269092  34.148  56.948  43.753
26018DA     BB369093  34.215  56.983  43.952
26018DA     SC169094  33.990  56.813  44.083
26018DA     SC269095  33.786  56.851  44.222
26018DA     SC369096  33.808  56.604  44.286
26018DA     SC469097  34.021  56.658  44.111
26019DT     BB169098  34.315  57.143  43.976
26019DT     BB269099  34.062  57.329  44.154
26019DT     BB369100  34.102  57.326  44.357
26019DT     SC169101  34.021  57.077  44.377
26019DT     SC269102  33.837  57.070  44.487
26019DT     SC369103  34.027  56.817  44.419
26020DT     BB169104  34.175  57.586  44.346
26020DT     BB269105  33.916  57.575  44.597
26020DT     BB369106  33.997  57.525  44.780
26020DT     SC169107  34.025  57.274  44.709
26020DT     SC269108  33.886  57.153  44.820
26020DT     SC369109  34.139  57.044  44.649
26021DG     BB169110  33.827  57.892  44.848
26021DG     BB269111  33.716  57.650  45.094
26021DG     BB369112  33.855  57.629  45.235
26021DG     SC169113  34.002  57.402  45.089
26021DG     SC269114  34.020  57.119  45.181
26021DG     SC369115  34.198  57.167  44.949
26021DG     SC469116  34.117  57.439  44.985
26022DG     BB169117  33.650  57.725  45.482
26022DG     BB269118  33.690  57.391  45.616
26022DG     BB369119  33.852  57.384  45.732
26022DG     SC169120  34.041  57.306  45.504
26022DG     SC269121  34.183  57.045  45.475
26022DG     SC369122  34.280  57.240  45.275
26022DG     SC469123  34.111  57.422  45.418
26023DA     BB169124  33.659  57.253  45.993
26023DA     BB269125  33.860  56.947  45.992
26023DA     BB369126  34.044  56.979  46.095
26023DA     SC169127  34.199  57.068  45.840
26023DA     SC269128  34.380  56.978  45.693
26023DA     SC369129  34.411  57.221  45.617
26023DA     SC469130  34.204  57.225  45.806
26024DA     BB169131  33.948  56.719  46.271
26024DA     BB269132  34.244  56.545  46.141
26024DA     BB369133  34.419  56.609  46.246
26024DA     SC169134  34.483  56.840  46.048
26024DA     SC269135  34.655  56.893  45.875
26024DA     SC369136  34.580  57.137  45.905
26024DA     SC469137  34.423  56.985  46.082
26025DC     BB169138  34.515  56.473  46.359
26025DC     BB269139  34.789  56.419  46.131
26025DC     BB369140  34.960  56.512  46.203
26025DC     SC169141  34.868  56.749  46.135
26025DC     SC269142  34.984  56.825  45.971
26025DC     SC369143  34.781  56.997  46.157
26026DA     BB169144  35.040  56.114  46.101
26026DA     BB269145  35.291  56.327  45.941
26026DA     BB369146  35.426  56.405  46.087
26026DA     SC169147  35.259  56.662  46.139
26026DA     SC269148  35.278  56.907  46.096
26026DA     SC369149  35.103  56.933  46.282
26026DA     SC469150  35.151  56.658  46.258
26027DC     BB169151  35.590  56.342  46.053
26027DC     BB269152  35.728  56.649  45.921
26027DC     BB369153  35.833  56.748  46.069
26027DC     SC169154  35.611  56.825  46.186
26027DC     SC269155  35.588  57.038  46.162
26027DC     SC369156  35.423  56.851  46.369
26028DT     BB169157  36.030  56.681  45.915
26028DT     BB269158  36.044  57.041  45.941
26028DT     BB369159  36.131  57.095  46.120
26028DT     SC169160  35.914  57.032  46.253
26028DT     SC269161  35.821  57.211  46.328
26028DT     SC369162  35.754  56.908  46.423
26029DT     BB169163  36.320  57.174  45.960
26029DT     BB269164  36.228  57.465  46.152
26029DT     BB369165  36.315  57.457  46.339
26029DT     SC169166  36.145  57.274  46.419
26029DT     SC269167  36.013  57.359  46.566
26029DT     SC369168  36.052  57.043  46.505
26030DG     BB169169  36.415  57.805  46.151
26030DG     BB269170  36.291  57.864  46.485
26030DG     BB369171  36.428  57.811  46.619
26030DG     SC169172  36.331  57.521  46.641
26030DG     SC269173  36.206  57.396  46.882
26030DG     SC369174  36.263  57.193  46.675
26030DG     SC469175  36.390  57.412  46.540
26031DT     BB169176  36.528  57.958  46.760
26031DT     BB269177  36.379  57.872  47.077
26031DT     BB369178  36.513  57.764  47.191
26031DT     SC169179  36.476  57.549  47.045
26031DT     SC269180  36.371  57.401  47.161
26031DT     SC369181  36.527  57.348  46.882
26032DA     BB169182  36.408  58.080  47.449
26032DA     BB269183  36.379  57.769  47.642
26032DA     BB369184  36.573  57.698  47.696
26032DA     SC169185  36.607  57.523  47.442
26032DA     SC269186  36.614  57.280  47.384
26032DA     SC369187  36.732  57.355  47.169
26032DA     SC469188  36.680  57.589  47.315
26033DA     BB169189  36.472  57.701  48.015
26033DA     BB269190  36.523  57.338  48.020
26033DA     BB369191  36.729  57.292  48.050
26033DA     SC169192  36.796  57.285  47.746
26033DA     SC269193  36.858  57.114  47.575
26033DA     SC369194  36.949  57.313  47.440
26033DA     SC469195  36.848  57.421  47.678
26034DA     BB169196  36.620  57.114  48.304
26034DA     BB269197  36.752  56.819  48.131
26034DA     BB369198  36.963  56.806  48.158
26034DA     SC169199  37.030  56.970  47.903
26034DA     SC269200  37.129  56.929  47.677
26034DA     SC369201  37.172  57.182  47.673
26034DA     SC469202  37.049  57.129  47.919
26035DA     BB169203  36.869  56.510  48.258
26035DA     BB269204  37.070  56.377  47.981
26035DA     BB369205  37.278  56.390  48.027
26035DA     SC169206  37.314  56.672  47.902
26035DA     SC269207  37.427  56.773  47.704
26035DA     SC369208  37.412  56.994  47.833
26035DA     SC469209  37.297  56.799  47.999
26036DT     BB169210  37.352  56.223  48.038
26036DT     BB269211  37.533  56.234  47.727
26036DT     BB369212  37.732  56.281  47.762
26036DT     SC169213  37.672  56.533  47.808
26036DT     SC269214  37.748  56.655  47.648
26036DT     SC369215  37.644  56.762  47.936
26037DT     BB169216  37.770  56.033  47.688
26037DT     BB269217  37.972  56.232  47.465
26037DT     BB369218  38.150  56.282  47.557
26037DT     SC169219  38.030  56.461  47.708
26037DT     SC269220  38.091  56.658  47.646
26037DT     SC369221  37.939  56.583  47.922
26038DA     BB169222  38.232  56.121  47.178
26038DA     BB269223  38.432  56.426  47.218
26038DA     BB369224  38.587  56.394  47.360
26038DA     SC169225  38.417  56.488  47.603
26038DA     SC269226  38.412  56.681  47.761
26038DA     SC369227  38.277  56.526  47.914
26038DA     SC469228  38.336  56.376  47.685
26039DA     BB169229  38.786  56.501  47.116
26039DA     BB269230  38.894  56.769  47.342
26039DA     BB369231  39.027  56.692  47.490
26039DA     SC169232  38.802  56.627  47.694
26039DA     SC269233  38.723  56.712  47.915
26039DA     SC369234  38.607  56.484  47.938
26039DA     SC469235  38.739  56.479  47.690
26040DA     BB169236  39.260  56.919  47.397
26040DA     BB269237  39.246  57.055  47.737
26040DA     BB369238  39.363  56.936  47.870
26040DA     SC169239  39.127  56.749  47.948
26040DA     SC269240  38.985  56.704  48.148
26040DA     SC369241  38.932  56.480  48.035
26040DA     SC469242  39.107  56.614  47.862
26041DA     BB169243  39.556  57.199  47.967
26041DA     BB269244  39.429  57.156  48.308
26041DA     BB369245  39.541  57.007  48.411
26041DA     SC169246  39.356  56.772  48.325
26041DA     SC269247  39.192  56.618  48.432
26041DA     SC369248  39.230  56.468  48.228
26041DA     SC469249  39.395  56.693  48.191
26042DA     BB169250  39.612  57.229  48.654
26042DA     BB269251  39.424  57.016  48.886
26042DA     BB369252  39.548  56.857  48.958
26042DA     SC169253  39.468  56.660  48.731
26042DA     SC269254  39.336  56.449  48.708
26042DA     SC369255  39.466  56.416  48.489
26042DA     SC469256  39.560  56.657  48.599
26043DC     BB169257  39.614  56.840  49.167
26043DC     BB269258  39.385  56.575  49.256
26043DC     BB369259  39.489  56.398  49.285
26043DC     SC169260  39.524  56.367  49.027
26043DC     SC269261  39.406  56.200  48.959
26043DC     SC369262  39.645  56.344  48.794
26044DA     BB169263  39.257  56.456  49.628
26044DA     BB269264  39.196  56.115  49.509
26044DA     BB369265  39.362  55.989  49.555
26044DA     SC169266  39.509  56.045  49.286
26044DA     SC269267  39.566  55.920  49.078
26044DA     SC369268  39.746  56.100  49.043
26044DA     SC469269  39.616  56.165  49.283
26045DA     BB169270  39.124  55.811  49.691
26045DA     BB269271  39.212  55.547  49.453
26045DA     BB369272  39.392  55.449  49.514
26045DA     SC169273  39.579  55.639  49.354
26045DA     SC269274  39.727  55.626  49.154
26045DA     SC369275  39.841  55.835  49.250
26045DA     SC469276  39.637  55.767  49.431
26046DC     BB169277  39.377  55.257  49.568
26046DC     BB269278  39.527  55.119  49.270
26046DC     BB369279  39.720  55.056  49.310
26046DC     SC169280  39.808  55.303  49.316
26046DC     SC269281  39.934  55.338  49.145
26046DC     SC369282  39.913  55.527  49.407
26047DA     BB169283  39.514  54.742  49.125
26047DA     BB269284  39.833  54.788  48.950
26047DA     BB369285  39.994  54.716  49.070
26047DA     SC169286  40.045  54.990  49.210
26047DA     SC269287  40.220  55.167  49.210
26047DA     SC369288  40.119  55.238  49.435
26047DA     SC469289  39.969  55.017  49.349
26048DC     BB169290  40.091  54.561  49.000
26048DC     BB269291  40.387  54.739  48.896
26048DC     BB369292  40.541  54.704  49.031
26048DC     SC169293  40.431  54.864  49.209
26048DC     SC269294  40.552  55.041  49.230
26048DC     SC369295  40.318  54.945  49.432
26049DT     BB169296  40.650  54.564  48.835
26049DT     BB269297  40.893  54.818  48.918
26049DT     BB369298  41.006  54.757  49.080
26049DT     SC169299  40.809  54.804  49.246
26049DT     SC269300  40.857  54.973  49.369
26049DT     SC369301  40.618  54.761  49.424
26050DC     BB169302  41.194  54.744  48.899
26050DC     BB269303  41.317  54.972  49.150
26050DC     BB369304  41.396  54.866  49.309
26050DC     SC169305  41.156  54.803  49.395
26050DC     SC269306  41.116  54.908  49.579
26050DC     SC369307  40.947  54.657  49.463
26051DC     BB169308  41.628  54.956  49.221
26051DC     BB269309  41.610  55.064  49.565
26051DC     BB369310  41.668  54.910  49.691
26051DC     SC169311  41.441  54.783  49.653
26051DC     SC269312  41.326  54.789  49.835
26051DC     SC369313  41.271  54.595  49.580
26052DA     BB169314  41.885  55.254  49.796
26052DA     BB269315  41.755  55.104  50.104
26052DA     BB369316  41.860  54.924  50.149
26052DA     SC169317  41.664  54.741  49.991
26052DA     SC269318  41.492  54.567  50.042
26052DA     SC369319  41.524  54.494  49.798
26052DA     SC469320  41.699  54.709  49.838
26053DG     BB169321  41.945  55.065  50.416
26053DG     BB269322  41.754  54.798  50.569
26053DG     BB369323  41.867  54.635  50.585
26053DG     SC169324  41.789  54.524  50.311
26053DG     SC269325  41.629  54.277  50.261
26053DG     SC369326  41.740  54.384  50.008
26053DG     SC469327  41.874  54.567  50.182
26054DT     BB169328  41.932  54.536  50.787
26054DT     BB269329  41.719  54.245  50.794
26054DT     BB369330  41.831  54.075  50.754
26054DT     SC169331  41.846  54.135  50.499
26054DT     SC269332  41.728  53.995  50.385
26054DT     SC369333  41.949  54.200  50.265
26055DC     BB169334  41.819  53.990  51.017
26055DC     BB269335  41.681  53.715  50.828
26055DC     BB369336  41.832  53.585  50.772
26055DC     SC169337  41.916  53.751  50.587
26055DC     SC269338  41.873  53.669  50.392
26055DC     SC369339  42.073  53.916  50.454
26056DT     BB169340  41.740  53.405  50.951
26056DT     BB269341  41.731  53.231  50.635
26056DT     BB369342  41.915  53.144  50.597
26056DT     SC169343  42.022  53.377  50.538
26056DT     SC269344  42.064  53.384  50.327
26056DT     SC369345  42.178  53.589  50.551
26057DT     BB169346  41.798  52.908  50.641
26057DT     BB269347  41.936  52.882  50.309
26057DT     BB369348  42.135  52.825  50.320
26057DT     SC169349  42.208  53.064  50.398
26057DT     SC269350  42.320  53.160  50.241
26057DT     SC369351  42.304  53.257  50.550
26058DT     BB169352  42.057  52.589  50.223
26058DT     BB269353  42.310  52.703  49.993
26058DT     BB369354  42.498  52.653  50.065
26058DT     SC169355  42.488  52.843  50.245
26058DT     SC269356  42.629  52.998  50.194
26058DT     SC369357  42.482  52.962  50.480
26059DT     BB169358  42.519  52.463  49.873
26059DT     BB269359  42.813  52.666  49.828
26059DT     BB369360  42.964  52.601  49.953
26059DT     SC169361  42.847  52.706  50.163
26059DT     SC269362  42.963  52.874  50.233
26059DT     SC369363  42.726  52.725  50.397
26060DT     BB169364  43.110  52.482  49.748
26060DT     BB269365  43.349  52.702  49.905
26060DT     BB369366  43.446  52.603  50.058
26060DT     SC169367  43.235  52.619  50.213
26060DT     SC269368  43.276  52.756  50.375
26060DT     SC369369  43.029  52.546  50.361
26061DT     BB169370  43.691  52.566  49.922
26061DT     BB269371  43.789  52.734  50.226
26061DT     BB369372  43.833  52.594  50.373
26061DT     SC169373  43.579  52.541  50.410
26061DT     SC269374  43.518  52.614  50.603
26061DT     SC369375  43.353  52.406  50.418
26062DT     BB169376  44.111  52.632  50.359
26062DT     BB269377  44.031  52.693  50.706
26062DT     BB369378  44.043  52.517  50.813
26062DT     SC169379  43.816  52.431  50.712
26062DT     SC269380  43.666  52.429  50.866
26062DT     SC369381  43.645  52.283  50.578
26063DG     BB169382  44.314  52.764  50.995
26063DG     BB269383  44.080  52.628  51.235
26063DG     BB369384  44.132  52.442  51.284
26063DG     SC169385  43.969  52.311  51.061
26063DG     SC269386  43.729  52.137  51.098
26063DG     SC369387  43.817  52.136  50.816
26063DG     SC469388  44.036  52.290  50.917
26064DA     BB169389  44.121  52.536  51.620
26064DA     BB269390  43.860  52.286  51.682
26064DA     BB369391  43.945  52.091  51.697
26064DA     SC169392  43.916  52.029  51.393
26064DA     SC269393  43.779  51.879  51.248
26064DA     SC369394  43.962  51.917  51.072
26064DA     SC469395  44.040  52.064  51.298
26065DT     BB169396  43.942  51.987  51.878
26065DT     BB269397  43.683  51.754  51.787
26065DT     BB369398  43.764  51.566  51.753
26065DT     SC169399  43.863  51.642  51.523
26065DT     SC269400  43.758  51.544  51.363
26065DT     SC369401  44.040  51.700  51.335
26066DT     BB169402  43.660  51.465  51.988
26066DT     BB269403  43.527  51.251  51.731
26066DT     BB369404  43.657  51.094  51.694
26066DT     SC169405  43.822  51.252  51.564
26066DT     SC269406  43.819  51.202  51.355
26066DT     SC369407  44.041  51.387  51.503
26067DA     BB169408  43.285  50.917  51.769
26067DA     BB269409  43.414  50.778  51.456
26067DA     BB369410  43.570  50.638  51.496
26067DA     SC169411  43.797  50.851  51.481
26067DA     SC269412  43.986  50.908  51.329
26067DA     SC369413  44.083  51.034  51.530
26067DA     SC469414  43.841  50.922  51.618
26068DT     BB169415  43.539  50.443  51.450
26068DT     BB269416  43.742  50.442  51.152
26068DT     BB369417  43.919  50.342  51.187
26068DT     SC169418  44.014  50.543  51.327
26068DT     SC269419  44.174  50.636  51.217
26068DT     SC369420  44.107  50.682  51.531
26069DG     BB169421  43.722  50.178  50.873
26069DG     BB269422  44.059  50.276  50.785
26069DG     BB369423  44.189  50.144  50.858
26069DG     SC169424  44.224  50.289  51.126
26069DG     SC269425  44.473  50.424  51.221
26069DG     SC369426  44.271  50.411  51.437
26069DG     SC469427  44.125  50.254  51.246
26070DA     BB169428  44.278  50.189  50.532
26070DA     BB269429  44.608  50.297  50.650
26070DA     BB369430  44.714  50.133  50.736
26070DA     SC169431  44.608  50.184  51.024
26070DA     SC269432  44.698  50.263  51.243
26070DA     SC369433  44.492  50.150  51.345
26070DA     SC469434  44.474  50.107  51.069
26071DT     BB169435  44.841  50.131  50.634
26071DT     BB269436  45.087  50.256  50.868
26071DT     BB369437  45.170  50.098  50.974
26071DT     SC169438  44.953  50.072  51.119
26071DT     SC269439  44.995  50.134  51.321
26071DT     SC369440  44.736  49.965  51.224
26072DT     BB169441  45.370  50.178  50.833
26072DT     BB269442  45.477  50.194  51.177
26072DT     BB369443  45.518  50.004  51.247
26072DT     SC169444  45.263  49.945  51.264
26072DT     SC269445  45.207  49.930  51.471
26072DT     SC369446  45.032  49.827  51.218
26073DA     BB169447  45.838  50.264  51.336
26073DA     BB269448  45.757  50.072  51.637
26073DA     BB369449  45.811  49.867  51.611
26073DA     SC169450  45.534  49.783  51.497
26073DA     SC269451  45.338  49.646  51.569
26073DA     SC369452  45.280  49.634  51.320
26073DA     SC469453  45.515  49.786  51.337
26074DA     BB169454  45.973  49.925  51.893
26074DA     BB269455  45.767  49.661  52.042
26074DA     BB369456  45.831  49.470  51.975
26074DA     SC169457  45.640  49.464  51.730
26074DA     SC269458  45.436  49.339  51.658
26074DA     SC369459  45.499  49.414  51.421
26074DA     SC469460  45.697  49.519  51.590
26075DA     BB169461  45.848  49.413  52.299
26075DA     BB269462  45.596  49.152  52.246
26075DA     BB369463  45.685  48.980  52.155
26075DA     SC169464  45.631  49.075  51.864
26075DA     SC269465  45.485  49.010  51.673
26075DA     SC369466  45.651  49.141  51.528
26075DA     SC469467  45.746  49.160  51.791
26076DT     BB169468  45.687  48.818  52.263
26076DT     BB269469  45.424  48.647  52.085
26076DT     BB369470  45.506  48.504  51.960
26076DT     SC169471  45.586  48.687  51.790
26076DT     SC269472  45.470  48.673  51.610
26076DT     SC369473  45.747  48.837  51.645
26077DT     BB169474  45.399  48.332  52.128
26077DT     BB269475  45.254  48.255  51.807
26077DT     BB369476  45.383  48.137  51.697
26077DT     SC169477  45.540  48.342  51.647
26077DT     SC269478  45.526  48.393  51.438
26077DT     SC369479  45.754  48.496  51.645
26078DA     BB169480  44.989  47.988  51.701
26078DA     BB269481  45.111  47.991  51.356
26078DA     BB369482  45.266  47.847  51.331
26078DA     SC169483  45.495  48.046  51.400
26078DA     SC269484  45.682  48.161  51.282
26078DA     SC369485  45.784  48.191  51.515
26078DA     SC469486  45.543  48.054  51.554
26079DA     BB169487  45.052  47.786  51.089
26079DA     BB269488  45.334  47.844  50.861
26079DA     BB369489  45.478  47.688  50.880
26079DA     SC169490  45.642  47.834  51.101
26079DA     SC269491  45.865  47.943  51.123
26079DA     SC369492  45.833  47.909  51.376
26079DA     SC469493  45.604  47.802  51.254
26080DC     BB169494  45.497  47.582  50.726
26080DC     BB269495  45.823  47.698  50.625
26080DC     BB369496  45.968  47.565  50.688
26080DC     SC169497  45.947  47.648  50.936
26080DC     SC269498  46.126  47.755  50.991
26080DC     SC369499  45.899  47.646  51.195
26081DA     BB169500  46.049  47.589  50.275
26081DA     BB269501  46.370  47.624  50.448
26081DA     BB369502  46.438  47.434  50.517
26081DA     SC169503  46.300  47.459  50.795
26081DA     SC269504  46.368  47.489  51.033
26081DA     SC369505  46.135  47.398  51.090
26081DA     SC469506  46.152  47.399  50.810
26082DA     BB169507  46.726  47.478  50.348
26082DA     BB269508  46.905  47.460  50.668
26082DA     BB369509  46.930  47.257  50.727
26082DA     SC169510  46.665  47.245  50.889
26082DA     SC269511  46.595  47.230  51.128
26082DA     SC369512  46.370  47.147  51.036
26082DA     SC469513  46.533  47.194  50.812
26083DA     BB169514  47.262  47.308  50.746
26083DA     BB269515  47.243  47.228  51.103
26083DA     BB369516  47.241  47.017  51.132
26083DA     SC169517  46.931  46.994  51.123
26083DA     SC269518  46.745  46.944  51.282
26083DA     SC369519  46.608  46.891  51.072
26083DA     SC469520  46.863  46.964  50.981
26084DC     BB169521  47.409  46.891  51.226
26084DC     BB269522  47.243  46.832  51.541
26084DC     BB369523  47.190  46.633  51.557
26084DC     SC169524  46.992  46.664  51.387
26084DC     SC269525  46.805  46.646  51.491
26084DC     SC369526  46.845  46.637  51.170
26085DC     BB169527  47.393  46.551  51.745
26085DC     BB269528  47.085  46.457  51.908
26085DC     BB369529  47.038  46.260  51.863
26085DC     SC169530  46.962  46.325  51.620
26085DC     SC269531  46.749  46.303  51.604
26085DC     SC369532  46.957  46.337  51.357
26086DA     BB169533  47.037  46.252  52.284
26086DA     BB269534  46.722  46.102  52.174
26086DA     BB369535  46.754  45.901  52.110
26086DA     SC169536  46.807  45.977  51.813
26086DA     SC269537  46.694  45.952  51.593
26086DA     SC369538  46.926  45.993  51.491
26086DA     SC469539  46.960  46.003  51.770
26087DT     BB169540  46.673  45.715  52.216
26087DT     BB269541  46.407  45.655  51.980
26087DT     BB369542  46.445  45.481  51.874
26087DT     SC169543  46.630  45.600  51.730
26087DT     SC269544  46.560  45.621  51.528
26087DT     SC369545  46.866  45.657  51.628
26088DA     BB169546  46.061  45.438  52.032
26088DA     BB269547  46.040  45.377  51.672
26088DA     BB369548  46.116  45.182  51.625
26088DA     SC169549  46.408  45.280  51.579
26088DA     SC269550  46.565  45.307  51.388
26088DA     SC369551  46.750  45.306  51.566
26088DA     SC469552  46.508  45.276  51.705
26089DT     BB169553  45.982  45.069  51.554
26089DT     BB269554  46.093  45.097  51.211
26089DT     BB369555  46.195  44.926  51.156
26089DT     SC169556  46.406  44.997  51.295
26089DT     SC269557  46.566  45.047  51.161
26089DT     SC369558  46.595  44.992  51.479
26090DA     BB169559  45.906  45.088  50.895
26090DA     BB269560  46.218  45.028  50.711
26090DA     BB369561  46.257  44.819  50.698
26090DA     SC169562  46.425  44.810  50.960
26090DA     SC269563  46.663  44.777  51.026
26090DA     SC369564  46.569  44.718  51.258
26090DA     SC469565  46.347  44.775  51.097
26091DA     BB169566  46.288  45.002  50.423
26091DA     BB269567  46.627  44.863  50.416
26091DA     BB369568  46.620  44.651  50.402
26091DA     SC169569  46.620  44.605  50.709
26091DA     SC269570  46.776  44.515  50.883
26091DA     SC369571  46.565  44.485  51.026
26091DA     SC469572  46.478  44.593  50.783
26092DT     BB169573  46.698  44.634  50.259
26092DT     BB269574  46.998  44.479  50.385
26092DT     BB369575  46.971  44.274  50.398
26092DT     SC169576  46.820  44.298  50.611
26092DT     SC269577  46.925  44.221  50.782
26092DT     SC369578  46.608  44.287  50.767
26093DT     BB169579  47.139  44.261  50.193
26093DT     BB269580  47.281  44.043  50.443
26093DT     BB369581  47.190  43.858  50.435
26093DT     SC169582  46.973  43.951  50.550
26093DT     SC269583  46.957  43.869  50.749
26093DT     SC369584  46.721  44.021  50.586
26094DT     BB169585  47.410  43.743  50.320
26094DT     BB269586  47.347  43.537  50.609
26094DT     BB369587  47.212  43.388  50.562
26094DT     SC169588  47.012  43.558  50.561
26094DT     SC269589  46.884  43.518  50.729
26094DT     SC369590  46.810  43.702  50.473
26095DA     BB169591  47.536  43.176  50.724
26095DA     BB269592  47.232  43.052  50.888
26095DA     BB369593  47.125  42.922  50.757
26095DA     SC169594  46.952  43.150  50.634
26095DA     SC269595  46.713  43.223  50.639
26095DA     SC369596  46.770  43.351  50.424
26095DA     SC469597  47.006  43.221  50.501
26096DA     BB169598  47.146  42.707  51.005
26096DA     BB269599  46.780  42.712  51.020
26096DA     BB369600  46.698  42.592  50.863
26096DA     SC169601  46.681  42.825  50.659
26096DA     SC269602  46.504  42.962  50.548
26096DA     SC369603  46.684  43.017  50.374
26096DA     SC469604  46.807  42.847  50.561
26097DA     BB169605  46.546  42.463  51.122
26097DA     BB269606  46.232  42.568  50.965
26097DA     BB369607  46.184  42.440  50.802
26097DA     SC169608  46.334  42.613  50.590
26097DA     SC269609  46.276  42.759  50.397
26097DA     SC369610  46.518  42.721  50.322
26097DA     SC469611  46.487  42.576  50.560
26098DG     BB169612  45.937  42.405  50.980
26098DG     BB269613  45.770  42.554  50.696
26098DG     BB369614  45.745  42.418  50.553
26098DG     SC169615  46.013  42.475  50.417
26098DG     SC269616  46.050  42.594  50.145
26098DG     SC369617  46.308  42.497  50.254
26098DG     SC469618  46.143  42.396  50.465
26099DG     BB169619  45.429  42.495  50.577
26099DG     BB269620  45.452  42.593  50.229
26099DG     BB369621  45.446  42.431  50.113
26099DG     SC169622  45.749  42.390  50.114
26099DG     SC269623  45.931  42.419  49.878
26099DG     SC369624  46.075  42.303  50.109
26099DG     SC469625  45.815  42.301  50.229
26100DT     BB169626  45.283  42.405  49.973
26100DT     BB269627  45.443  42.459  49.654
26100DT     BB369628  45.484  42.278  49.564
26100DT     SC169629  45.685  42.234  49.727
26100DT     SC269630  45.870  42.247  49.617
26100DT     SC369631  45.833  42.121  49.914
26101DG     BB169632  45.234  42.450  49.286
26101DG     BB269633  45.533  42.325  49.126
26101DG     BB369634  45.517  42.129  49.094
26101DG     SC169635  45.637  42.051  49.364
26101DG     SC269636  45.898  41.911  49.406
26101DG     SC369637  45.747  41.929  49.659
26101DG     SC469638  45.541  42.035  49.491
26102DT     BB169639  45.502  41.997  48.876
26102DT     BB269640  45.832  41.852  48.863
26102DT     BB369641  45.821  41.648  48.895
26102DT     SC169642  45.778  41.683  49.152
26102DT     SC269643  45.951  41.617  49.262
26102DT     SC369644  45.658  41.679  49.386
26103DT     BB169645  45.859  41.552  48.622
26103DT     BB269646  46.119  41.383  48.807
26103DT     BB369647  46.053  41.197  48.867
26103DT     SC169648  45.902  41.301  49.054
26103DT     SC269649  45.984  41.253  49.247
26103DT     SC369650  45.687  41.369  49.191
26104DT     BB169651  46.202  41.038  48.678
26104DT     BB269652  46.306  40.909  48.998
26104DT     BB369653  46.188  40.747  49.051
26104DT     SC169654  45.986  40.904  49.110
26104DT     SC269655  45.954  40.903  49.323
26104DT     SC369656  45.747  41.015  49.100
26105DT     BB169657  46.387  40.554  49.002
26105DT     BB269658  46.299  40.506  49.349
26105DT     BB369659  46.148  40.366  49.365
26105DT     SC169660  45.969  40.538  49.279
26105DT     SC269661  45.837  40.590  49.440
26105DT     SC369662  45.785  40.649  49.126
26106DA     BB169663  46.456  40.246  49.621
26106DA     BB269664  46.143  40.247  49.813
26106DA     BB369665  46.023  40.079  49.760
26106DA     SC169666  45.870  40.230  49.534
26106DA     SC269667  45.640  40.317  49.493
26106DA     SC369668  45.706  40.315  49.245
26106DA     SC469669  45.930  40.220  49.385
26107DT     BB169670  45.994  39.949  49.902
26107DT     BB269671  45.653  40.043  49.974
26107DT     BB369672  45.523  39.904  49.894
26107DT     SC169673  45.562  39.995  49.651
26107DT     SC269674  45.384  40.093  49.582
26107DT     SC369675  45.635  40.003  49.398
26108DT     BB169676  45.476  39.836  50.146
26108DT     BB269677  45.155  39.931  50.012
26108DT     BB369678  45.070  39.771  49.911
26108DT     SC169679  45.234  39.802  49.708
26108DT     SC269680  45.124  39.873  49.537
26108DT     SC369681  45.424  39.751  49.532
26109DA     BB169682  44.801  39.947  50.180
26109DA     BB269683  44.633  39.907  49.857
26109DA     BB369684  44.596  39.700  49.818
26109DA     SC169685  44.865  39.655  49.670
26109DA     SC269686  44.943  39.610  49.437
26109DA     SC369687  45.158  39.523  49.547
26109DA     SC469688  44.990  39.604  49.757
26110DG     BB169689  44.317  39.829  49.807
26110DG     BB269690  44.333  39.715  49.464
26110DG     BB369691  44.303  39.518  49.457
26110DG     SC169692  44.600  39.448  49.486
26110DG     SC269693  44.771  39.320  49.278
26110DG     SC369694  44.913  39.334  49.537
26110DG     SC469695  44.661  39.430  49.633
26111DT     BB169696  44.133  39.443  49.350
26111DT     BB269697  44.282  39.297  49.056
26111DT     BB369698  44.292  39.092  49.076
26111DT     SC169699  44.493  39.110  49.244
26111DT     SC269700  44.672  39.036  49.151
26111DT     SC369701  44.632  39.092  49.468
26112DT     BB169702  44.091  39.063  48.895
26112DT     BB269703  44.358  38.858  48.763
26112DT     BB369704  44.348  38.669  48.845
26112DT     SC169705  44.443  38.754  49.074
26112DT     SC269706  44.641  38.676  49.103
26112DT     SC369707  44.456  38.812  49.331
26113DA     BB169708  44.354  38.599  48.431
26113DA     BB269709  44.598  38.371  48.582
26113DA     BB369710  44.499  38.209  48.678
26113DA     SC169711  44.480  38.352  48.954
26113DA     SC269712  44.581  38.330  49.181
26113DA     SC369713  44.380  38.467  49.261
26113DA     SC469714  44.347  38.437  48.984
26114DA     BB169715  44.680  37.998  48.491
26114DA     BB269716  44.820  37.860  48.801
26114DA     BB369717  44.684  37.722  48.889
26114DA     SC169718  44.540  37.936  49.063
26114DA     SC269719  44.522  37.995  49.305
26114DA     SC369720  44.309  38.121  49.237
26114DA     SC469721  44.410  38.007  49.001
26115DT     BB169722  44.712  37.493  48.905
26115DT     BB269723  44.783  37.485  49.259
26115DT     BB369724  44.627  37.394  49.360
26115DT     SC169725  44.474  37.605  49.332
26115DT     SC269726  44.446  37.699  49.524
26115DT     SC369727  44.273  37.758  49.256
26116DA     BB169728  44.956  37.165  49.488
26116DA     BB269729  44.772  37.262  49.789
26116DA     BB369730  44.599  37.138  49.814
26116DA     SC169731  44.411  37.327  49.653
26116DA     SC269732  44.219  37.479  49.699
26116DA     SC369733  44.167  37.456  49.448
26116DA     SC469734  44.395  37.299  49.495
26117DG     BB169735  44.716  37.032  50.089
26117DG     BB269736  44.429  37.203  50.229
26117DG     BB369737  44.272  37.080  50.233
26117DG     SC169738  44.174  37.159  49.954
26117DG     SC269739  43.920  37.305  49.893
26117DG     SC369740  44.049  37.207  49.644
26117DG     SC469741  44.229  37.080  49.827
26118DC     BB169742  44.164  37.005  50.429
26118DC     BB269743  43.866  37.209  50.421
26118DC     BB369744  43.702  37.092  50.374
26118DC     SC169745  43.774  37.078  50.122
26118DC     SC269746  43.636  37.191  50.002
26118DC     SC369747  43.853  36.977  49.892
26119DC     BB169748  43.610  37.110  50.631
26119DC     BB269749  43.341  37.241  50.430
26119DC     BB369750  43.215  37.087  50.372
26119DC     SC169751  43.389  37.002  50.195
26119DC     SC269752  43.314  37.040  49.997
26119DC     SC369753  43.561  36.844  50.072
26120DT     BB169754  43.028  37.182  50.542
26120DT     BB269755  42.866  37.182  50.220
26120DT     BB369756  42.781  36.997  50.184
26120DT     SC169757  43.015  36.889  50.136
26120DT     SC269758  43.029  36.841  49.927
26120DT     SC369759  43.227  36.734  50.161
26121DT     BB169760  42.543  37.116  50.217
26121DT     BB269761  42.528  36.968  49.888
26121DT     BB369762  42.470  36.770  49.902
26121DT     SC169763  42.706  36.699  49.991
26121DT     SC269764  42.807  36.582  49.841
26121DT     SC369765  42.893  36.606  50.153
26122DA     BB169766  42.233  36.966  49.617
26122DA     BB269767  42.349  36.651  49.471
26122DA     BB369768  42.250  36.486  49.563
26122DA     SC169769  42.465  36.448  49.785
26122DA     SC269770  42.640  36.282  49.845
26122DA     SC369771  42.629  36.385  50.080
26122DA     SC469772  42.442  36.525  49.924
26123DA     BB169773  42.189  36.419  49.247
26123DA     BB269774  42.361  36.100  49.300
26123DA     BB369775  42.239  35.968  49.414
26123DA     SC169776  42.352  36.061  49.689
26123DA     SC269777  42.496  35.969  49.870
26123DA     SC369778  42.392  36.150  50.018
26123DA     SC469779  42.275  36.180  49.765
26124DT     BB169780  42.162  35.796  49.328
26124DT     BB269781  42.372  35.558  49.499
26124DT     BB369782  42.264  35.461  49.646
26124DT     SC169783  42.269  35.672  49.802
26124DT     SC269784  42.395  35.632  49.972
26124DT     SC369785  42.186  35.878  49.944
26125DT     BB169786  42.238  35.216  49.506
26125DT     BB269787  42.383  35.117  49.821
26125DT     BB369788  42.234  35.070  49.956
26125DT     SC169789  42.176  35.324  49.992
26125DT     SC269790  42.235  35.384  50.190
26125DT     SC369791  42.040  35.550  49.992
26126DA     BB169792  42.463  34.716  49.963
26126DA     BB269793  42.408  34.814  50.312
26126DA     BB369794  42.211  34.762  50.374
26126DA     SC169795  42.086  35.034  50.291
26126DA     SC269796  41.989  35.235  50.403
26126DA     SC369797  41.877  35.282  50.177
26126DA     SC469798  42.024  35.045  50.143
26127DC     BB169799  42.155  34.599  50.529
26127DC     BB269800  42.073  34.829  50.795
26127DC     BB369801  41.870  34.824  50.833
26127DC     SC169802  41.817  34.960  50.615
26127DC     SC269803  41.748  35.156  50.669
26127DC     SC369804  41.723  35.019  50.377
26128DC     BB169805  41.892  34.682  51.076
26128DC     BB269806  41.722  34.986  51.168
26128DC     BB369807  41.517  34.958  51.157
26128DC     SC169808  41.522  34.967  50.895
26128DC     SC269809  41.427  35.147  50.827
26128DC     SC369810  41.498  34.890  50.643
26129DC     BB169811  41.499  34.963  51.429
26129DC     BB269812  41.287  35.234  51.319
26129DC     BB369813  41.096  35.163  51.283
26129DC     SC169814  41.171  35.048  51.059
26129DC     SC269815  41.085  35.153  50.892
26129DC     SC369816  41.222  34.859  50.882
26130DC     BB169817  41.028  35.303  51.498
26130DC     BB269818  40.827  35.437  51.230
26130DC     BB369819  40.658  35.322  51.204
26130DC     SC169820  40.796  35.131  51.088
26130DC     SC269821  40.744  35.123  50.879
26130DC     SC369822  40.905  34.895  51.045
26131DT     BB169823  40.539  35.535  51.299
26131DT     BB269824  40.390  35.477  50.975
26131DT     BB369825  40.243  35.332  50.991
26131DT     SC169826  40.422  35.142  51.011
26131DT     SC269827  40.419  35.021  50.833
26131DT     SC369828  40.562  34.943  51.113
26132DA     BB169829  40.112  35.672  50.780
26132DA     BB269830  40.015  35.373  50.592
26132DA     BB369831  39.863  35.266  50.695
26132DA     SC169832  40.062  35.087  50.853
26132DA     SC269833  40.132  34.847  50.858
26132DA     SC369834  40.220  34.898  51.093
26132DA     SC469835  40.109  35.138  50.998
26133DA     BB169836  39.737  35.300  50.394
26133DA     BB269837  39.714  34.934  50.386
26133DA     BB369838  39.563  34.867  50.520
26133DA     SC169839  39.756  34.837  50.762
26133DA     SC269840  39.855  34.653  50.898
26133DA     SC369841  39.895  34.833  51.076
26133DA     SC469842  39.770  34.963  50.861
26134DT     BB169843  39.400  34.781  50.442
26134DT     BB269844  39.466  34.442  50.547
26134DT     BB369845  39.349  34.394  50.710
26134DT     SC169846  39.499  34.539  50.870
26134DT     SC269847  39.608  34.409  51.003
26134DT     SC369848  39.572  34.729  51.037
26135DT     BB169849  39.167  34.232  50.569
26135DT     BB269850  39.277  34.018  50.837
26135DT     BB369851  39.153  34.040  51.001
26135DT     SC169852  39.260  34.273  51.060
26135DT     SC269853  39.374  34.256  51.241
26135DT     SC369854  39.282  34.533  51.100
26136DG     BB169855  39.080  33.639  50.929
26136DG     BB269856  39.167  33.688  51.277
26136DG     BB369857  39.006  33.741  51.381
26136DG     SC169858  39.045  34.041  51.336
26136DG     SC269859  39.113  34.243  51.546
26136DG     SC369860  39.046  34.375  51.290
26136DG     SC469861  38.981  34.109  51.206
26137DT     BB169862  38.869  33.618  51.575
26137DT     BB269863  38.988  33.807  51.858
26137DT     BB369864  38.833  33.919  51.938
26137DT     SC169865  38.845  34.091  51.740
26137DT     SC269866  38.921  34.279  51.812
26137DT     SC369867  38.774  34.230  51.527
26138DC     BB169868  38.777  33.762  52.177
26138DC     BB269869  38.857  34.090  52.306
26138DC     BB369870  38.683  34.198  52.335
26138DC     SC169871  38.656  34.238  52.077
26138DC     SC269872  38.691  34.445  52.032
26138DC     SC369873  38.554  34.229  51.834
26139DA     BB169874  38.889  34.211  52.698
26139DA     BB269875  38.812  34.556  52.601
26139DA     BB369876  38.606  34.599  52.638
26139DA     SC169877  38.511  34.511  52.355
26139DA     SC269878  38.421  34.619  52.149
26139DA     SC369879  38.333  34.385  52.090
26139DA     SC469880  38.464  34.359  52.337
26140DA     BB169881  38.777  34.831  52.781
26140DA     BB269882  38.611  35.060  52.547
26140DA     BB369883  38.406  35.085  52.602
26140DA     SC169884  38.304  34.850  52.426
26140DA     SC269885  38.169  34.820  52.218
26140DA     SC369886  38.134  34.580  52.300
26140DA     SC469887  38.292  34.705  52.494
26141DG     BB169888  38.538  35.359  52.598
26141DG     BB269889  38.302  35.408  52.328
26141DG     BB369890  38.119  35.433  52.402
26141DG     SC169891  38.050  35.135  52.398
26141DG     SC269892  37.845  35.005  52.225
26141DG     SC369893  37.949  34.814  52.426
26141DG     SC469894  38.086  35.045  52.525
26142DT     BB169895  38.054  35.602  52.343
26142DT     BB269896  37.802  35.512  52.102
26142DT     BB369897  37.617  35.502  52.194
26142DT     SC169898  37.677  35.274  52.308
26142DT     SC269899  37.560  35.116  52.220
26142DT     SC369900  37.728  35.096  52.497
26143DT     BB169901  37.572  35.716  52.050
26143DT     BB269902  37.310  35.484  51.961
26143DT     BB369903  37.160  35.488  52.104
26143DT     SC169904  37.307  35.353  52.274
26143DT     SC269905  37.224  35.156  52.300
26143DT     SC369906  37.446  35.296  52.491
26144DT     BB169907  37.007  35.613  51.923
26144DT     BB269908  36.813  35.326  52.023
26144DT     BB369909  36.707  35.369  52.195
26144DT     SC169910  36.923  35.353  52.343
26144DT     SC269911  36.911  35.178  52.468
26144DT     SC369912  37.119  35.424  52.504
26145DA     BB169913  36.431  35.217  51.919
26145DA     BB269914  36.374  35.046  52.238
26145DA     BB369915  36.280  35.177  52.377
26145DA     SC169916  36.547  35.284  52.495
26145DA     SC269917  36.674  35.268  52.709
26145DA     SC369918  36.794  35.480  52.631
26145DA     SC469919  36.609  35.417  52.430
26146DT     BB169920  36.087  35.139  52.438
26146DT     BB269921  36.167  35.029  52.773
26146DT     BB369922  36.116  35.175  52.909
26146DT     SC169923  36.323  35.321  52.841
26146DT     SC269924  36.465  35.323  53.003
26146DT     SC369925  36.464  35.524  52.748
26147DA     BB169926  35.938  34.820  53.041
26147DA     BB269927  36.108  34.972  53.328
26147DA     BB369928  36.000  35.143  53.397
26147DA     SC169929  36.153  35.343  53.214
26147DA     SC269930  36.318  35.528  53.241
26147DA     SC369931  36.240  35.605  53.009
26147DA     SC469932  36.090  35.376  53.070
26148DA     BB169933  36.020  34.981  53.682
26148DA     BB269934  36.198  35.272  53.816
26148DA     BB369935  36.062  35.432  53.852
26148DA     SC169936  36.094  35.557  53.569
26148DA     SC269937  36.194  35.762  53.468
26148DA     SC369938  36.042  35.712  53.267
26148DA     SC469939  35.991  35.510  53.455
26149DA     BB169940  36.192  35.425  54.156
26149DA     BB269941  36.294  35.774  54.104
26149DA     BB369942  36.126  35.904  54.123
26149DA     SC169943  36.053  35.893  53.820
26149DA     SC269944  36.057  36.046  53.624
26149DA     SC369945  35.887  35.884  53.520
26149DA     SC469946  35.947  35.781  53.774
26150DA     BB169947  36.302  36.070  54.354
26150DA     BB269948  36.276  36.368  54.142
26150DA     BB369949  36.083  36.458  54.162
26150DA     SC169950  35.957  36.295  53.929
26150DA     SC269951  35.872  36.339  53.698
26150DA     SC369952  35.744  36.118  53.726
26150DA     SC469953  35.884  36.157  53.966
26151DG     BB169954  36.203  36.732  54.281
26151DG     BB269955  36.068  36.879  53.980
26151DG     BB369956  35.880  36.935  54.010
26151DG     SC169957  35.761  36.666  53.924
26151DG     SC269958  35.593  36.619  53.682
26151DG     SC369959  35.597  36.379  53.856
26151DG     SC469960  35.741  36.551  54.034
26152DT     BB169961  35.784  37.164  54.009
26152DT     BB269962  35.617  37.162  53.689
26152DT     BB369963  35.412  37.161  53.717
26152DT     SC169964  35.415  36.908  53.787
26152DT     SC269965  35.321  36.790  53.633
26152DT     SC369966  35.389  36.691  53.934
26153DA     BB169967  35.482  37.486  53.463
26153DA     BB269968  35.217  37.283  53.311
26153DA     BB369969  35.032  37.314  53.413
26153DA     SC169970  35.077  37.083  53.616
26153DA     SC269971  34.981  36.857  53.662
26153DA     SC369972  35.084  36.884  53.896
26153DA     SC469973  35.147  37.119  53.756
26154DG     BB169974  34.934  37.412  53.135
26154DG     BB269975  34.719  37.122  53.159
26154DG     BB369976  34.558  37.166  53.267
26154DG     SC169977  34.685  37.085  53.534
26154DG     SC269978  34.603  36.854  53.704
26154DG     SC369979  34.799  37.024  53.845
26154DG     SC469980  34.767  37.194  53.617
26155DT     BB169981  34.358  37.156  53.177
26155DT     BB269982  34.227  36.853  53.324
26155DT     BB369983  34.093  36.900  53.475
26155DT     SC169984  34.288  36.968  53.637
26155DT     SC269985  34.303  36.824  53.795
26155DT     SC369986  34.441  37.117  53.792
26156DT     BB169987  33.883  36.822  53.319
26156DT     BB269988  33.851  36.622  53.618
26156DT     BB369989  33.741  36.725  53.760
26156DT     SC169990  33.943  36.884  53.812
26156DT     SC269991  34.019  36.841  54.009
26156DT     SC369992  34.087  37.104  53.833
26157DA     BB169993  33.548  36.354  53.724
26157DA     BB269994  33.599  36.418  54.082
26157DA     BB369995  33.460  36.564  54.151
26157DA     SC169996  33.649  36.805  54.094
26157DA     SC269997  33.780  36.972  54.224
26157DA     SC369998  33.778  37.111  54.009
26157DA     SC469999  33.636  36.877  53.951
26158DT     BB170000  33.296  36.522  54.293
26158DT     BB270001  33.449  36.678  54.580
26158DT     BB370002  33.347  36.852  54.628
26158DT     SC170003  33.453  36.979  54.424
26158DT     SC270004  33.592  37.127  54.496
26158DT     SC370005  33.472  37.109  54.195
26159DC     BB170006  33.225  36.745  54.855
26159DC     BB270007  33.407  37.031  54.979
26159DC     BB370008  33.287  37.199  54.974
26159DC     SC170009  33.311  37.218  54.714
26159DC     SC270010  33.429  37.391  54.666
26159DC     SC370011  33.246  37.223  54.458
26160DT     BB170012  33.266  37.197  55.247
26160DT     BB270013  33.411  37.518  55.168
26160DT     BB370014  33.262  37.656  55.132
26160DT     SC170015  33.210  37.552  54.897
26160DT     SC270016  33.271  37.689  54.743
26160DT     SC370017  33.078  37.432  54.703
26161DT     BB170018  33.323  37.777  55.368
26161DT     BB270019  33.365  38.035  55.119
26161DT     BB370020  33.186  38.133  55.087
26161DT     SC170021  33.091  37.930  54.951
26161DT     SC270022  33.073  37.985  54.744
26161DT     SC370023  32.937  37.726  54.883
26162DA     BB170024  33.502  38.399  55.150
26162DA     BB270025  33.317  38.507  54.852
26162DA     BB370026  33.127  38.585  54.907
26162DA     SC170027  32.981  38.311  54.884
26162DA     SC270028  32.812  38.203  54.735
26162DA     SC370029  32.773  38.041  54.930
26162DA     SC470030  32.970  38.221  55.017
26163DA     BB170031  33.259  38.812  54.715
26163DA     BB270032  32.964  38.772  54.502
26163DA     BB370033  32.791  38.851  54.598
26163DA     SC170034  32.714  38.582  54.735
26163DA     SC270035  32.535  38.410  54.716
26163DA     SC370036  32.603  38.342  54.954
26163DA     SC470037  32.770  38.556  54.883
26164DT     BB170038  32.718  39.001  54.510
26164DT     BB270039  32.417  38.847  54.384
26164DT     BB370040  32.257  38.895  54.506
26164DT     SC170041  32.338  38.729  54.692
26164DT     SC270042  32.203  38.563  54.704
26164DT     SC370043  32.427  38.640  54.924
26165DG     BB170044  32.150  39.033  54.136
26165DG     BB270045  31.882  38.839  54.283
26165DG     BB370046  31.783  38.949  54.415
26165DG     SC170047  31.961  38.869  54.651
26165DG     SC270048  31.877  38.706  54.887
26165DG     SC370049  32.147  38.818  54.928
26165DG     SC470050  32.093  38.954  54.682
26166DA     BB170051  31.458  38.901  54.269
26166DA     BB270052  31.327  38.757  54.580
26166DA     BB370053  31.274  38.911  54.717
26166DA     SC170054  31.553  38.921  54.853
26166DA     SC270055  31.653  38.860  55.073
26166DA     SC370056  31.843  39.020  55.008
26166DA     SC470057  31.661  39.025  54.795
26167DA     BB170058  30.936  38.826  54.758
26167DA     BB270059  30.998  38.764  55.114
26167DA     BB370060  30.976  38.945  55.226
26167DA     SC170061  31.275  39.026  55.200
26167DA     SC270062  31.475  39.044  55.348
26167DA     SC370063  31.570  39.199  55.167
26167DA     SC470064  31.316  39.120  55.076
26168DA     BB170065  30.718  38.851  55.453
26168DA     BB270066  30.956  38.886  55.730
26168DA     BB370067  30.948  39.084  55.809
26168DA     SC170068  31.170  39.194  55.621
26168DA     SC270069  31.406  39.273  55.640
26168DA     SC370070  31.363  39.390  55.416
26168DA     SC470071  31.124  39.260  55.482
26169DT     BB170072  30.863  39.187  56.046
26169DT     BB270073  31.198  39.216  56.177
26169DT     BB370074  31.240  39.414  56.219
26169DT     SC170075  31.268  39.470  55.964
26169DT     SC270076  31.475  39.512  55.922
26169DT     SC370077  31.225  39.579  55.728
26170DA     BB170078  31.317  39.209  56.573
26170DA     BB270079  31.622  39.390  56.479
26170DA     BB370080  31.605  39.596  56.534
26170DA     SC170081  31.485  39.684  56.261
26170DA     SC270082  31.555  39.817  56.062
26170DA     SC370083  31.304  39.837  56.012
26170DA     SC470084  31.324  39.686  56.248
26171DT     BB170085  31.735  39.632  56.655
26171DT     BB270086  31.957  39.795  56.423
26171DT     BB370087  31.942  40.001  56.444
26171DT     SC170088  31.710  40.005  56.322
26171DT     SC270089  31.732  40.100  56.131
26171DT     SC370090  31.452  40.039  56.281
26172DT     BB170091  32.181  39.939  56.516
26172DT     BB270092  32.212  40.162  56.234
26172DT     BB370093  32.174  40.356  56.292
26172DT     SC170094  31.916  40.310  56.306
26172DT     SC270095  31.816  40.415  56.148
26172DT     SC370096  31.674  40.282  56.406
26173DT     BB170097  32.422  40.356  56.228
26173DT     BB270098  32.263  40.603  56.019
26173DT     BB370099  32.224  40.774  56.128
26173DT     SC170100  32.023  40.658  56.252
26173DT     SC270101  31.838  40.747  56.186
26173DT     SC370102  31.876  40.557  56.446
26174DT     BB170103  32.408  40.864  55.969
26174DT     BB270104  32.123  41.080  55.922
26174DT     BB370105  32.112  41.218  56.076
26174DT     SC170106  32.025  41.036  56.243
26174DT     SC270107  31.819  41.076  56.292
26174DT     SC370108  32.015  40.873  56.451
26175DT     BB170109  32.180  41.392  55.890
26175DT     BB270110  31.874  41.520  56.031
26175DT     BB370111  31.914  41.623  56.206
26175DT     SC170112  31.955  41.400  56.338
26175DT     SC270113  31.795  41.371  56.479
26175DT     SC370114  32.078  41.213  56.477
26176DT     BB170115  31.856  41.845  56.070
26176DT     BB270116  31.638  41.853  56.357
26176DT     BB370117  31.738  41.933  56.520
26176DT     SC170118  31.876  41.713  56.553
26176DT     SC270119  31.813  41.615  56.734
26176DT     SC370120  32.083  41.550  56.568
26177DC     BB170121  31.586  42.153  56.494
26177DC     BB270122  31.535  42.047  56.835
26177DC     BB370123  31.685  42.124  56.956
26177DC     SC170124  31.859  41.951  56.863
26177DC     SC270125  31.908  41.809  57.017
26177DC     SC370126  32.071  41.854  56.741
26178DG     BB170127  31.332  42.257  57.111
26178DG     BB270128  31.539  42.107  57.367
26178DG     BB370129  31.682  42.234  57.422
26178DG     SC170130  31.883  42.137  57.213
26178DG     SC270131  32.139  41.995  57.269
26178DG     SC370132  32.120  42.069  56.984
26178DG     SC470133  31.882  42.204  57.068
26179DT     BB170134  31.696  42.319  57.630
26179DT     BB270135  31.983  42.147  57.765
26179DT     BB370136  32.147  42.273  57.766
26179DT     SC170137  32.177  42.249  57.507
26179DT     SC270138  32.356  42.137  57.465
26179DT     SC370139  32.188  42.314  57.251
26180DA     BB170140  32.130  42.147  58.169
26180DA     BB270141  32.479  42.116  58.062
26180DA     BB370142  32.572  42.308  58.054
26180DA     SC170143  32.498  42.358  57.756
26180DA     SC270144  32.616  42.373  57.537
26180DA     SC370145  32.407  42.500  57.457
26180DA     SC470146  32.361  42.436  57.726
26181DT     BB170147  32.744  42.402  58.197
26181DT     BB270148  33.014  42.381  57.959
26181DT     BB370149  33.073  42.571  57.903
26181DT     SC170150  32.860  42.602  57.753
26181DT     SC270151  32.918  42.603  57.546
26181DT     SC370152  32.632  42.699  57.663
26182DA     BB170153  33.442  42.418  58.039
26182DA     BB270154  33.503  42.561  57.707
26182DA     BB370155  33.522  42.773  57.719
26182DA     SC170156  33.219  42.827  57.673
26182DA     SC270157  33.074  42.923  57.495
26182DA     SC370158  32.900  42.954  57.682
26182DA     SC470159  33.125  42.839  57.803
26183DT     BB170160  33.710  42.880  57.679
26183DT     BB270161  33.614  43.002  57.354
26183DT     BB370162  33.585  43.207  57.361
26183DT     SC170163  33.356  43.179  57.486
26183DT     SC270164  33.195  43.234  57.355
26183DT     SC370165  33.174  43.194  57.675
26184DA     BB170166  33.843  43.118  57.045
26184DA     BB270167  33.577  43.334  56.915
26184DA     BB370168  33.604  43.534  56.983
26184DA     SC170169  33.433  43.497  57.240
26184DA     SC270170  33.213  43.575  57.328
26184DA     SC370171  33.306  43.512  57.559
26184DA     SC470172  33.509  43.453  57.375
26185DT     BB170173  33.637  43.648  56.842
26185DT     BB270174  33.316  43.813  56.841
26185DT     BB370175  33.330  43.995  56.937
26185DT     SC170176  33.339  43.879  57.172
26185DT     SC270177  33.157  43.920  57.279
26185DT     SC370178  33.430  43.802  57.407
26186DA     BB170179  33.139  44.037  56.565
26186DA     BB270180  32.943  44.219  56.816
26186DA     BB370181  33.049  44.393  56.881
26186DA     SC170182  33.193  44.248  57.115
26186DA     SC270183  33.186  44.248  57.365
26186DA     SC370184  33.420  44.143  57.351
26186DA     SC470185  33.338  44.184  57.086
26187DA     BB170186  32.767  44.544  56.797
26187DA     BB270187  32.748  44.666  57.143
26187DA     BB370188  32.889  44.822  57.174
26187DA     SC170189  33.117  44.632  57.266
26187DA     SC270190  33.239  44.578  57.477
26187DA     SC370191  33.420  44.481  57.323
26187DA     SC470192  33.219  44.578  57.154
26188DA     BB170193  32.643  45.032  57.277
26188DA     BB270194  32.815  45.062  57.600
26188DA     BB370195  32.976  45.202  57.585
26188DA     SC170196  33.187  44.989  57.505
26188DA     SC270197  33.388  44.881  57.607
26188DA     SC370198  33.453  44.822  57.366
26188DA     SC470199  33.211  44.963  57.348
26189DT     BB170200  33.014  45.446  57.680
26189DT     BB270201  33.252  45.349  57.933
26189DT     BB370202  33.436  45.434  57.893
26189DT     SC170203  33.480  45.264  57.698
26189DT     SC270204  33.637  45.129  57.755
26189DT     SC370205  33.523  45.171  57.455
26190DC     BB170206  33.469  45.679  58.087
26190DC     BB270207  33.758  45.477  58.162
26190DC     BB370208  33.925  45.552  58.064
26190DC     SC170209  33.841  45.458  57.834
26190DC     SC270210  33.969  45.297  57.772
26190DC     SC370211  33.756  45.453  57.584
26191DA     BB170212  34.063  45.554  58.461
26191DA     BB270213  34.306  45.363  58.264
26191DA     BB370214  34.440  45.495  58.163
26191DA     SC170215  34.265  45.514  57.906
26191DA     SC270216  34.276  45.438  57.669
26191DA     SC370217  34.102  45.621  57.623
26191DA     SC470218  34.158  45.634  57.898
26192DA     BB170219  34.650  45.306  58.320
26192DA     BB270220  34.758  45.191  57.989
26192DA     BB370221  34.885  45.336  57.898
26192DA     SC170222  34.652  45.486  57.756
26192DA     SC270223  34.568  45.519  57.524
26192DA     SC370224  34.446  45.724  57.618
26192DA     SC470225  34.585  45.610  57.834
26193DA     BB170226  35.038  45.053  57.887
26193DA     BB270227  35.021  45.089  57.522
26193DA     BB370228  35.153  45.243  57.457
26193DA     SC170229  34.941  45.469  57.478
26193DA     SC270230  34.811  45.616  57.323
26193DA     SC370231  34.778  45.768  57.527
26193DA     SC470232  34.933  45.551  57.616
26194DA     BB170233  35.206  44.975  57.281
26194DA     BB270234  35.117  45.183  56.992
26194DA     BB370235  35.267  45.330  56.957
26194DA     SC170236  35.133  45.545  57.137
26194DA     SC270237  35.016  45.763  57.108
26194DA     SC370238  35.072  45.803  57.355
26194DA     SC470239  35.179  45.552  57.291
26195DT     BB170240  35.333  45.294  56.800
26195DT     BB270241  35.187  45.573  56.624
26195DT     BB370242  35.321  45.730  56.616
26195DT     SC170243  35.280  45.787  56.869
26195DT     SC270244  35.174  45.974  56.883
26195DT     SC370245  35.326  45.822  57.126
26196DA     BB170246  35.153  45.647  56.240
26196DA     BB270247  35.139  46.009  56.298
26196DA     BB370248  35.335  46.093  56.293
26196DA     SC170249  35.383  46.058  56.599
26196DA     SC270250  35.405  46.203  56.800
26196DA     SC370251  35.522  46.002  56.908
26196DA     SC470252  35.455  45.922  56.648
26197DT     BB170253  35.360  46.210  56.151
26197DT     BB270254  35.367  46.517  56.341
26197DT     BB370255  35.563  46.577  56.371
26197DT     SC170256  35.601  46.390  56.552
26197DT     SC270257  35.621  46.482  56.745
26197DT     SC370258  35.698  46.176  56.670
26198DT     BB170259  35.515  46.774  56.198
26198DT     BB270260  35.633  46.940  56.496
26198DT     BB370261  35.840  46.942  56.498
26198DT     SC170262  35.850  46.687  56.561
26198DT     SC270263  35.921  46.666  56.763
26198DT     SC370264  35.899  46.429  56.543
26199DA     BB170265  35.714  47.337  56.562
26199DA     BB270266  35.972  47.260  56.811
26199DA     BB370267  36.164  47.252  56.719
26199DA     SC170268  36.149  46.947  56.658
26199DA     SC270269  36.259  46.738  56.737
26199DA     SC370270  36.177  46.636  56.516
26199DA     SC470271  36.091  46.903  56.515
26200DA     BB170272  36.245  47.473  56.952
26200DA     BB270273  36.498  47.234  57.069
26200DA     BB370274  36.665  47.233  56.937
26200DA     SC170275  36.552  47.007  56.755
26200DA     SC270276  36.603  46.768  56.705
26200DA     SC370277  36.468  46.806  56.490
26200DA     SC470278  36.466  47.050  56.627
26201DA     BB170279  36.857  47.299  57.202
26201DA     BB270280  37.032  46.983  57.139
26201DA     BB370281  37.174  47.008  56.982
26201DA     SC170282  36.975  46.928  56.756
26201DA     SC270283  36.941  46.738  56.598
26201DA     SC370284  36.801  46.903  56.462
26201DA     SC470285  36.893  47.046  56.685
26202DA     BB170286  37.407  46.896  57.192
26202DA     BB270287  37.459  46.613  56.964
26202DA     BB370288  37.584  46.671  56.801
26202DA     SC170289  37.348  46.760  56.619
26202DA     SC270290  37.236  46.681  56.410
26202DA     SC370291  37.147  46.921  56.392
26202DA     SC470292  37.303  46.914  56.625
26203DT     BB170293  37.781  46.590  56.775
26203DT     BB270294  37.696  46.370  56.502
26203DT     BB370295  37.778  46.441  56.326
26203DT     SC170296  37.598  46.631  56.310
26203DT     SC270297  37.465  46.590  56.146
26203DT     SC370298  37.492  46.873  56.302
26204DT     BB170299  37.952  46.236  56.332
26204DT     BB270300  37.777  46.199  56.019
26204DT     BB370301  37.869  46.312  55.872
26204DT     SC170302  37.771  46.534  55.972
26204DT     SC270303  37.624  46.614  55.838
26204DT     SC370304  37.761  46.773  56.084
26205DT     BB170305  37.938  46.079  55.774
26205DT     BB270306  37.754  46.243  55.510
26205DT     BB370307  37.879  46.372  55.407
26205DT     SC170308  37.874  46.546  55.603
26205DT     SC270309  37.765  46.720  55.542
26205DT     SC370310  37.958  46.699  55.801
26206DT     BB170311  37.847  46.195  55.217
26206DT     BB270312  37.744  46.509  55.073
26206DT     BB370313  37.910  46.617  55.012
26206DT     SC170314  37.970  46.679  55.259
26206DT     SC270315  37.937  46.889  55.290
26206DT     SC370316  38.104  46.693  55.487
26207DA     BB170317  37.633  46.604  54.695
26207DA     BB270318  37.757  46.947  54.723
26207DA     BB370319  37.961  46.958  54.660
26207DA     SC170320  38.077  46.905  54.944
26207DA     SC270321  38.201  47.032  55.119
26207DA     SC370322  38.269  46.802  55.209
26207DA     SC470323  38.109  46.753  54.984
26208DT     BB170324  38.026  47.057  54.478
26208DT     BB270325  38.196  47.337  54.630
26208DT     BB370326  38.401  47.312  54.614
26208DT     SC170327  38.402  47.130  54.802
26208DT     SC270328  38.499  47.208  54.977
26208DT     SC370329  38.431  46.896  54.921
26209DG     BB170330  38.406  47.656  54.367
26209DG     BB270331  38.662  47.690  54.620
26209DG     BB370332  38.831  47.605  54.558
26209DG     SC170333  38.764  47.329  54.672
26209DG     SC270334  38.907  47.193  54.896
26209DG     SC370335  38.714  47.010  54.767
26209DG     SC470336  38.681  47.226  54.582
26210DG     BB170337  39.109  47.860  54.516
26210DG     BB270338  39.283  47.694  54.787
26210DG     BB370339  39.423  47.573  54.714
26210DG     SC170340  39.237  47.330  54.693
26210DG     SC270341  39.259  47.080  54.854
26210DG     SC370342  39.058  47.050  54.639
26210DG     SC470343  39.152  47.309  54.559
26211DA     BB170344  39.733  47.697  54.877
26211DA     BB270345  39.763  47.387  55.070
26211DA     BB370346  39.884  47.246  54.965
26211DA     SC170347  39.645  47.115  54.815
26211DA     SC270348  39.522  46.898  54.817
26211DA     SC370349  39.442  46.964  54.582
26211DA     SC470350  39.607  47.174  54.670
26212DA     BB170351  40.065  47.240  55.239
26212DA     BB270352  39.955  46.892  55.281
26212DA     BB370353  40.074  46.762  55.162
26212DA     SC170354  39.887  46.778  54.914
26212DA     SC270355  39.730  46.628  54.792
26212DA     SC370356  39.759  46.791  54.596
26212DA     SC470357  39.920  46.890  54.804
26213DT     BB170358  40.177  46.638  55.265
26213DT     BB270359  39.966  46.352  55.203
26213DT     BB370360  40.054  46.228  55.062
26213DT     SC170361  39.993  46.394  54.868
26213DT     SC270362  39.842  46.305  54.743
26213DT     SC370363  40.023  46.563  54.668
26214DT     BB170364  40.080  46.068  55.268
26214DT     BB270365  39.884  45.885  55.027
26214DT     BB370366  40.008  45.800  54.885
26214DT     SC170367  40.048  46.032  54.769
26214DT     SC270368  39.952  46.033  54.577
26214DT     SC370369  40.173  46.247  54.680
26215DT     BB170370  39.940  45.572  54.999
26215DT     BB270371  39.847  45.536  54.652
26215DT     BB370372  40.012  45.482  54.540
26215DT     SC170373  40.110  45.725  54.553
26215DT     SC270374  40.101  45.816  54.359
26215DT     SC370375  40.274  45.924  54.611
26216DA     BB170376  39.704  45.210  54.453
26216DA     BB270377  39.847  45.326  54.135
26216DA     BB370378  40.040  45.241  54.105
26216DA     SC170379  40.192  45.474  54.245
26216DA     SC270380  40.344  45.660  54.180
26216DA     SC370381  40.413  45.663  54.427
26216DA     SC470382  40.223  45.459  54.402
26217DG     BB170383  39.918  45.111  53.847
26217DG     BB270384  40.159  45.323  53.680
26217DG     BB370385  40.337  45.234  53.676
26217DG     SC170386  40.430  45.351  53.943
26217DG     SC270387  40.651  45.547  53.981
26217DG     SC370388  40.556  45.445  54.241
26217DG     SC470389  40.396  45.272  54.078
26218DA     BB170390  40.339  45.289  53.334
26218DA     BB270391  40.641  45.494  53.369
26218DA     BB370392  40.813  45.370  53.392
26218DA     SC170393  40.796  45.363  53.703
26218DA     SC270394  40.924  45.453  53.897
26218DA     SC370395  40.806  45.271  54.034
26218DA     SC470396  40.713  45.243  53.770
26219DA     BB170397  40.902  45.558  53.144
26219DA     BB270398  41.172  45.678  53.362
26219DA     BB370399  41.324  45.530  53.379
26219DA     SC170400  41.198  45.395  53.630
26219DA     SC270401  41.250  45.372  53.873
26219DA     SC370402  41.091  45.171  53.867
26219DA     SC470403  41.098  45.272  53.605
26220DA     BB170404  41.462  45.812  53.298
26220DA     BB270405  41.646  45.779  53.614
26220DA     BB370406  41.785  45.617  53.602
26220DA     SC170407  41.585  45.405  53.711
26220DA     SC270408  41.554  45.268  53.917
26220DA     SC370409  41.407  45.117  53.771
26220DA     SC470410  41.498  45.323  53.603
26221DT     BB170411  41.939  45.691  53.620
26221DT     BB270412  42.009  45.570  53.953
26221DT     BB370413  42.118  45.394  53.943
26221DT     SC170414  41.906  45.258  53.870
26221DT     SC270415  41.848  45.126  54.030
26221DT     SC370416  41.745  45.110  53.723
26222DA     BB170417  42.289  45.670  54.212
26222DA     BB270418  42.275  45.341  54.373
26222DA     BB370419  42.413  45.207  54.281
26222DA     SC170420  42.208  45.100  54.073
26222DA     SC270421  42.084  44.888  54.028
26222DA     SC370422  42.055  44.980  53.790
26222DA     SC470423  42.201  45.174  53.930
26223DG     BB170424  42.524  45.201  54.570
26223DG     BB270425  42.432  44.851  54.547
26223DG     BB370426  42.570  44.752  54.444
26223DG     SC170427  42.436  44.797  54.172
26223DG     SC270428  42.313  44.586  54.000
26223DG     SC370429  42.328  44.845  53.857
26223DG     SC470430  42.473  44.929  54.089
26224DT     BB170431  42.683  44.593  54.540
26224DT     BB270432  42.539  44.298  54.390
26224DT     BB370433  42.665  44.225  54.243
26224DT     SC170434  42.598  44.418  54.078
26224DT     SC270435  42.482  44.336  53.916
26224DT     SC370436  42.618  44.630  53.923
26225DA     BB170437  42.566  43.910  54.501
26225DA     BB270438  42.516  43.794  54.157
26225DA     BB370439  42.705  43.764  54.060
26225DA     SC170440  42.721  44.054  53.948
26225DA     SC270441  42.708  44.167  53.726
26225DA     SC370442  42.828  44.362  53.842
26225DA     SC470443  42.797  44.164  54.038
26226DA     BB170444  42.556  43.478  54.008
26226DA     BB270445  42.594  43.548  53.650
26226DA     BB370446  42.799  43.526  53.592
26226DA     SC170447  42.871  43.824  53.646
26226DA     SC270448  42.931  44.026  53.512
26226DA     SC370449  43.030  44.116  53.731
26226DA     SC470450  42.928  43.861  53.791
26227DA     BB170451  42.639  43.339  53.376
26227DA     BB270452  42.789  43.551  53.117
26227DA     BB370453  42.998  43.513  53.102
26227DA     SC170454  43.077  43.731  53.309
26227DA     SC270455  43.190  43.953  53.309
26227DA     SC370456  43.227  43.912  53.560
26227DA     SC470457  43.091  43.686  53.463
26228DG     BB170458  42.920  43.441  52.810
26228DG     BB270459  43.143  43.714  52.729
26228DG     BB370460  43.332  43.653  52.742
26228DG     SC170461  43.362  43.725  53.038
26228DG     SC270462  43.538  43.939  53.149
26228DG     SC370463  43.422  43.774  53.366
26228DG     SC470464  43.322  43.617  53.149
26229DA     BB170465  43.402  43.769  52.414
26229DA     BB270466  43.672  43.982  52.540
26229DA     BB370467  43.845  43.865  52.583
26229DA     SC170468  43.765  43.812  52.879
26229DA     SC270469  43.843  43.879  53.107
26229DA     SC370470  43.714  43.673  53.189
26229DA     SC470471  43.680  43.679  52.911
26230DT     BB170472  44.064  43.849  52.469
26230DT     BB270473  44.259  44.019  52.720
26230DT     BB370474  44.388  43.886  52.812
26230DT     SC170475  44.192  43.777  52.948
26230DT     SC270476  44.213  43.827  53.157
26230DT     SC370477  44.020  43.597  53.035
26231DC     BB170478  44.668  43.933  52.686
26231DC     BB270479  44.736  43.966  53.039
26231DC     BB370480  44.812  43.788  53.113
26231DC     SC170481  44.576  43.675  53.106
26231DC     SC270482  44.506  43.643  53.307
26231DC     SC370483  44.382  43.509  53.040
26232DA     BB170484  45.131  44.042  53.228
26232DA     BB270485  45.029  43.859  53.529
26232DA     BB370486  45.115  43.663  53.530
26232DA     SC170487  44.875  43.531  53.382
26232DA     SC270488  44.692  43.371  53.435
26232DA     SC370489  44.677  43.335  53.182
26232DA     SC470490  44.883  43.521  53.222
26233DC     BB170491  45.268  43.596  53.677
26233DC     BB270492  45.038  43.402  53.877
26233DC     BB370493  45.079  43.200  53.855
26233DC     SC170494  44.972  43.196  53.616
26233DC     SC270495  44.789  43.083  53.622
26233DC     SC370496  44.950  43.170  53.354
26234DA     BB170497  45.060  43.298  54.262
26234DA     BB270498  44.840  43.010  54.202
26234DA     BB370499  44.956  42.834  54.168
26234DA     SC170500  44.968  42.874  53.859
26234DA     SC270501  44.875  42.764  53.655
26234DA     SC370502  45.065  42.882  53.530
26234DA     SC470503  45.094  42.954  53.800
26235DT     BB170504  44.929  42.706  54.301
26235DT     BB270505  44.726  42.482  54.104
26235DT     BB370506  44.840  42.324  54.035
26235DT     SC170507  44.956  42.477  53.856
26235DT     SC270508  44.890  42.418  53.659
26235DT     SC370509  45.144  42.608  53.726
26236DA     BB170510  44.489  42.182  54.217
26236DA     BB270511  44.528  42.016  53.892
26236DA     BB370512  44.690  41.877  53.898
26236DA     SC170513  44.902  42.084  53.804
26236DA     SC270514  45.041  42.126  53.602
26236DA     SC370515  45.190  42.265  53.758
26236DA     SC470516  44.982  42.165  53.917
26237DT     BB170517  44.641  41.690  53.879
26237DT     BB270518  44.765  41.645  53.544
26237DT     BB370519  44.947  41.546  53.548
26237DT     SC170520  45.071  41.762  53.632
26237DT     SC270521  45.199  41.836  53.476
26237DT     SC370522  45.209  41.924  53.787
26238DC     BB170523  44.831  41.320  53.451
26238DC     BB270524  45.094  41.393  53.216
26238DC     BB370525  45.272  41.308  53.280
26238DC     SC170526  45.301  41.491  53.466
26238DC     SC270527  45.467  41.619  53.415
26238DC     SC370528  45.323  41.600  53.705
26239DG     BB170529  45.200  41.150  52.911
26239DG     BB270530  45.531  41.296  52.930
26239DG     BB370531  45.654  41.171  53.023
26239DG     SC170532  45.597  41.283  53.302
26239DG     SC270533  45.790  41.431  53.475
26239DG     SC370534  45.543  41.368  53.624
26239DG     SC470535  45.476  41.222  53.387
26240DA     BB170536  45.857  41.216  52.748
26240DA     BB270537  46.118  41.352  52.965
26240DA     BB370538  46.215  41.195  53.073
26240DA     SC170539  46.022  41.210  53.316
26240DA     SC270540  46.031  41.281  53.555
26240DA     SC370541  45.821  41.136  53.585
26240DA     SC470542  45.893  41.114  53.315
26241DG     BB170543  46.454  41.314  52.921
26241DG     BB270544  46.563  41.397  53.256
26241DG     BB370545  46.643  41.237  53.343
26241DG     SC170546  46.378  41.138  53.461
26241DG     SC270547  46.309  41.126  53.751
26241DG     SC370548  46.103  40.990  53.588
26241DG     SC470549  46.285  41.041  53.373
26242DA     BB170550  46.893  41.464  53.406
26242DA     BB270551  46.850  41.403  53.765
26242DA     BB370552  46.925  41.211  53.817
26242DA     SC170553  46.653  41.066  53.772
26242DA     SC270554  46.478  40.955  53.911
26242DA     SC370555  46.407  40.840  53.693
26242DA     SC470556  46.625  41.003  53.627
26243DA     BB170557  47.075  41.410  54.028
26243DA     BB270558  46.911  41.215  54.292
26243DA     BB370559  46.999  41.021  54.307
26243DA     SC170560  46.802  40.890  54.104
26243DA     SC270561  46.615  40.725  54.109
26243DA     SC370562  46.660  40.698  53.857
26243DA     SC470563  46.847  40.886  53.950
26244DT     BB170564  47.087  40.991  54.471
26244DT     BB270565  46.842  40.766  54.612
26244DT     BB370566  46.906  40.570  54.592
26244DT     SC170567  46.850  40.570  54.336
26244DT     SC270568  46.681  40.442  54.300
26244DT     SC370569  46.883  40.558  54.074
26245DT     BB170570  46.943  40.572  54.855
26245DT     BB270571  46.716  40.299  54.794
26245DT     BB370572  46.822  40.129  54.740
26245DT     SC170573  46.869  40.225  54.501
26245DT     SC270574  46.757  40.112  54.355
26245DT     SC370575  47.001  40.317  54.291
26246DG     BB170576  46.591  40.045  55.066
26246DG     BB270577  46.539  39.807  54.799
26246DG     BB370578  46.692  39.680  54.790
26246DG     SC170579  46.854  39.851  54.595
26246DG     SC270580  46.921  39.780  54.313
26246DG     SC370581  47.068  40.022  54.398
26246DG     SC470582  46.953  39.962  54.654
26247DG     BB170583  46.465  39.450  54.829
26247DG     BB270584  46.570  39.329  54.504
26247DG     BB370585  46.738  39.224  54.522
26247DG     SC170586  46.923  39.465  54.485
26247DG     SC270587  47.106  39.511  54.253
26247DG     SC370588  47.154  39.710  54.467
26247DG     SC470589  46.966  39.551  54.613
26248DC     BB170590  46.732  39.022  54.466
26248DC     BB270591  46.918  39.024  54.156
26248DC     BB370592  47.112  38.960  54.190
26248DC     SC170593  47.176  39.189  54.302
26248DC     SC270594  47.311  39.296  54.173
26248DC     SC370595  47.251  39.363  54.485
26249DC     BB170596  47.050  38.734  54.062
26249DC     BB270597  47.336  38.863  53.885
26249DC     BB370598  47.510  38.806  53.980
26249DC     SC170599  47.472  38.980  54.172
26249DC     SC270600  47.619  39.136  54.157
26249DC     SC370601  47.429  39.079  54.413
26250DA     BB170602  47.555  38.693  53.577
26250DA     BB270603  47.861  38.868  53.679
26250DA     BB370604  47.977  38.744  53.809
26250DA     SC170605  47.843  38.851  54.069
26250DA     SC270606  47.907  38.992  54.265
26250DA     SC370607  47.707  38.882  54.383
26250DA     SC470608  47.716  38.771  54.126
26251DA     BB170609  48.237  38.779  53.601
26251DA     BB270610  48.423  38.936  53.875
26251DA     BB370611  48.504  38.787  54.005
26251DA     SC170612  48.255  38.782  54.192
26251DA     SC270613  48.198  38.851  54.425
26251DA     SC370614  48.001  38.688  54.403
26251DA     SC470615  48.140  38.675  54.160
26252DT     BB170616  48.731  38.729  54.036
26252DT     BB270617  48.769  38.887  54.358
26252DT     BB370618  48.797  38.743  54.504
26252DT     SC170619  48.544  38.675  54.497
26252DT     SC270620  48.449  38.736  54.680
26252DT     SC370621  48.327  38.529  54.463
26253DG     BB170622  49.147  38.956  54.537
26253DG     BB270623  48.982  38.932  54.858
26253DG     BB370624  49.029  38.759  54.945
26253DG     SC170625  48.795  38.605  54.822
26253DG     SC270626  48.562  38.492  54.970
26253DG     SC370627  48.562  38.401  54.688
26253DG     SC470628  48.815  38.535  54.679
26254DA     BB170629  49.130  38.933  55.229
26254DA     BB270630  48.870  38.767  55.427
26254DA     BB370631  48.935  38.572  55.485
26254DA     SC170632  48.816  38.431  55.234
26254DA     SC270633  48.630  38.275  55.181
26254DA     SC370634  48.760  38.224  54.966
26254DA     SC470635  48.913  38.413  55.107
26255DT     BB170636  48.961  38.541  55.681
26255DT     BB270637  48.658  38.351  55.730
26255DT     BB370638  48.704  38.150  55.754
26255DT     SC170639  48.753  38.123  55.498
26255DT     SC270640  48.599  38.002  55.408
26255DT     SC370641  48.884  38.077  55.274
26256DA     BB170642  48.443  38.297  56.046
26256DA     BB270643  48.303  37.987  55.909
26256DA     BB370644  48.418  37.819  55.971
26256DA     SC170645  48.608  37.828  55.725
26256DA     SC270646  48.653  37.692  55.521
26256DA     SC370647  48.880  37.812  55.515
26256DA     SC470648  48.745  37.913  55.739
26257DA     BB170649  48.102  37.765  56.025
26257DA     BB270650  48.146  37.470  55.811
26257DA     BB370651  48.274  37.328  55.907
26257DA     SC170652  48.535  37.443  55.782
26257DA     SC270653  48.704  37.374  55.613
26257DA     SC370654  48.857  37.547  55.725
26257DA     SC470655  48.615  37.554  55.866
26258DA     BB170656  48.003  37.176  55.798
26258DA     BB270657  48.234  36.955  55.619
26258DA     BB370658  48.351  36.842  55.757
26258DA     SC170659  48.581  37.051  55.772
26258DA     SC270660  48.819  37.069  55.699
26258DA     SC370661  48.837  37.254  55.876
26258DA     SC470662  48.573  37.162  55.888
26259DA     BB170663  48.233  36.608  55.556
26259DA     BB270664  48.582  36.507  55.503
26259DA     BB370665  48.661  36.420  55.681
26259DA     SC170666  48.769  36.689  55.794
26259DA     SC270667  48.990  36.797  55.834
26259DA     SC370668  48.863  36.949  55.998
26259DA     SC470669  48.672  36.773  55.892
26260DT     BB170670  48.709  36.213  55.697
26260DT     BB270671  49.068  36.239  55.714
26260DT     BB370672  49.132  36.207  55.908
26260DT     SC170673  49.049  36.444  55.983
26260DT     SC270674  49.219  36.569  56.026
26260DT     SC370675  48.912  36.631  56.110
26261DA     BB170676  49.364  35.893  55.735
26261DA     BB270677  49.591  36.072  55.960
26261DA     BB370678  49.560  36.011  56.162
26261DA     SC170679  49.347  36.230  56.221
26261DA     SC270680  49.329  36.438  56.359
26261DA     SC370681  49.076  36.406  56.337
26261DA     SC470682  49.193  36.192  56.198
26262DT     BB170683  49.700  35.870  56.327
26262DT     BB270684  49.804  36.146  56.535
26262DT     BB370685  49.724  36.126  56.725
26262DT     SC170686  49.487  36.198  56.640
26262DT     SC270687  49.438  36.392  56.721
26262DT     SC370688  49.230  36.186  56.582
26263DA     BB170689  50.133  36.144  56.838
26263DA     BB270690  49.957  36.389  57.047
26263DA     BB370691  49.862  36.291  57.211
26263DA     SC170692  49.594  36.245  57.061
26263DA     SC270693  49.359  36.331  57.070
26263DA     SC370694  49.298  36.117  56.942
26263DA     SC470695  49.575  36.106  56.982
26264DA     BB170696  50.028  36.491  57.424
26264DA     BB270697  49.705  36.629  57.528
26264DA     BB370698  49.614  36.504  57.675
26264DA     SC170699  49.460  36.331  57.468
26264DA     SC270700  49.223  36.295  57.398
26264DA     SC370701  49.308  36.073  57.299
26264DA     SC470702  49.531  36.197  57.415
26265DT     BB170703  49.583  36.565  57.887
26265DT     BB270704  49.229  36.625  57.857
26265DT     BB370705  49.123  36.480  57.961
26265DT     SC170706  49.172  36.301  57.776
26265DT     SC270707  48.989  36.254  57.672
26265DT     SC370708  49.264  36.082  57.660
26266DT     BB170709  49.051  36.656  58.165
26266DT     BB270710  48.736  36.535  58.037
26266DT     BB370711  48.679  36.364  58.139
26266DT     SC170712  48.857  36.219  58.013
26266DT     SC270713  48.757  36.084  57.879
26266DT     SC370714  49.068  36.066  57.971
26267DG     BB170715  48.376  36.631  58.196
26267DG     BB270716  48.252  36.319  58.062
26267DG     BB370717  48.233  36.185  58.207
26267DG     SC170718  48.518  36.077  58.178
26267DG     SC270719  48.592  35.803  58.084
26267DG     SC370720  48.829  35.948  58.186
26267DG     SC470721  48.636  36.146  58.260
26268DT     BB170722  48.032  36.096  58.265
26268DT     BB270723  48.060  35.770  58.114
26268DT     BB370724  48.089  35.626  58.260
26268DT     SC170725  48.339  35.701  58.294
26268DT     SC270726  48.470  35.546  58.220
26268DT     SC370727  48.556  35.795  58.409
26269DA     BB170728  47.775  35.511  58.011
26269DA     BB270729  48.009  35.231  58.036
26269DA     BB370730  47.995  35.139  58.228
26269DA     SC170731  48.214  35.319  58.357
26269DA     SC270732  48.447  35.293  58.443
26269DA     SC370733  48.402  35.510  58.572
26269DA     SC470734  48.166  35.453  58.430
26270DT     BB170735  47.939  34.973  58.205
26270DT     BB270736  48.256  34.813  58.269
26270DT     BB370737  48.263  34.746  58.465
26270DT     SC170738  48.297  34.990  58.555
26270DT     SC270739  48.497  35.010  58.632
26270DT     SC370740  48.252  35.216  58.684
26271DT     BB170741  48.256  34.514  58.345
26271DT     BB270742  48.558  34.512  58.542
26271DT     BB370743  48.514  34.465  58.739
26271DT     SC170744  48.414  34.703  58.782
26271DT     SC270745  48.544  34.812  58.914
26271DT     SC370746  48.239  34.893  58.838
26272DG     BB170747  48.802  34.230  58.571
26272DG     BB270748  48.905  34.366  58.890
26272DG     BB370749  48.807  34.274  59.037
26272DG     SC170750  48.573  34.471  59.037
26272DG     SC270751  48.504  34.662  59.256
26272DG     SC370752  48.291  34.656  59.051
26272DG     SC470753  48.448  34.443  58.941
26273DC     BB170754  48.927  34.177  59.167
26273DC     BB270755  48.904  34.378  59.466
26273DC     BB370756  48.763  34.297  59.594
26273DC     SC170757  48.565  34.384  59.445
26273DC     SC270758  48.462  34.542  59.549
26273DC     SC370759  48.353  34.383  59.288
26274DG     BB170760  49.116  34.320  59.797
26274DG     BB270761  48.844  34.459  59.991
26274DG     BB370762  48.734  34.312  60.069
26274DG     SC170763  48.544  34.293  59.830
26274DG     SC270764  48.254  34.363  59.830
26274DG     SC370765  48.330  34.232  59.576
26274DG     SC470766  48.582  34.197  59.708
26275DC     BB170767  48.714  34.271  60.295
26275DC     BB270768  48.375  34.374  60.363
26275DC     BB370769  48.254  34.208  60.386
26275DC     SC170770  48.254  34.163  60.127
26275DC     SC270771  48.059  34.203  60.048
26275DC     SC370772  48.296  34.042  59.896
26276DA     BB170773  48.178  34.407  60.750
26276DA     BB270774  47.852  34.308  60.616
26276DA     BB370775  47.818  34.100  60.650
26276DA     SC170776  47.943  34.010  60.379
26276DA     SC270777  47.865  33.913  60.163
26276DA     SC370778  48.110  33.842  60.131
26276DA     SC470779  48.100  33.973  60.378
26277DC     BB170780  47.660  33.985  60.803
26277DC     BB270781  47.430  33.870  60.550
26277DC     BB370782  47.436  33.663  60.539
26277DC     SC170783  47.667  33.668  60.415
26277DC     SC270784  47.640  33.605  60.211
26277DC     SC370785  47.923  33.630  60.366
26278DA     BB170786  47.019  33.696  60.619
26278DA     BB270787  47.048  33.474  60.329
26278DA     BB370788  47.095  33.275  60.392
26278DA     SC170789  47.403  33.317  60.377
26278DA     SC270790  47.593  33.238  60.235
26278DA     SC370791  47.742  33.308  60.433
26278DA     SC470792  47.478  33.364  60.511
26279DA     BB170793  46.821  33.136  60.241
26279DA     BB270794  47.047  32.951  60.019
26279DA     BB370795  47.107  32.768  60.110
26279DA     SC170796  47.359  32.888  60.247
26279DA     SC270797  47.606  32.873  60.225
26279DA     SC370798  47.614  32.963  60.465
26279DA     SC470799  47.342  32.944  60.397
26280DA     BB170800  46.991  32.605  59.843
26280DA     BB270801  47.336  32.504  59.772
26280DA     BB370802  47.387  32.331  59.885
26280DA     SC170803  47.497  32.491  60.128
26280DA     SC270804  47.717  32.537  60.235
26280DA     SC370805  47.581  32.600  60.443
26280DA     SC470806  47.394  32.525  60.247
26281DA     BB170807  47.462  32.230  59.586
26281DA     BB270808  47.809  32.210  59.703
26281DA     BB370809  47.837  32.036  59.823
26281DA     SC170810  47.768  32.180  60.090
26281DA     SC270811  47.887  32.253  60.297
26281DA     SC370812  47.655  32.258  60.405
26281DA     SC470813  47.615  32.175  60.140
26282DG     BB170814  48.036  32.015  59.593
26282DG     BB270815  48.272  32.049  59.865
26282DG     BB370816  48.284  31.878  59.966
26282DG     SC170817  48.059  31.949  60.161
26282DG     SC270818  48.091  31.998  60.454
26282DG     SC370819  47.805  31.986  60.379
26282DG     SC470820  47.908  31.912  60.123
26283DA     BB170821  48.612  31.962  59.911
26283DA     BB270822  48.666  31.951  60.273
26283DA     BB370823  48.650  31.750  60.345
26283DA     SC170824  48.345  31.769  60.403
26283DA     SC270825  48.195  31.775  60.602
26283DA     SC370826  48.010  31.704  60.439
26283DA     SC470827  48.244  31.724  60.286
26284DA     BB170828  48.934  31.865  60.464
26284DA     BB270829  48.797  31.785  60.794
26284DA     BB370830  48.781  31.573  60.818
26284DA     SC170831  48.490  31.559  60.708
26284DA     SC270832  48.261  31.513  60.796
26284DA     SC370833  48.199  31.464  60.552
26284DA     SC470834  48.472  31.531  60.551
26285DC     BB170835  48.896  31.492  60.952
26285DC     BB270836  48.642  31.412  61.196
26285DC     BB370837  48.593  31.211  61.184
26285DC     SC170838  48.458  31.250  60.963
26285DC     SC270839  48.248  31.223  61.002
26285DC     SC370840  48.386  31.233  60.709
26286DA     BB170841  48.693  31.255  61.592
26286DA     BB270842  48.375  31.073  61.576
26286DA     BB370843  48.408  30.870  61.517
26286DA     SC170844  48.376  30.928  61.213
26286DA     SC270845  48.213  30.877  61.032
26286DA     SC370846  48.406  30.929  60.871
26286DA     SC470847  48.509  30.963  61.130
26287DA     BB170848  48.258  30.748  61.797
26287DA     BB270849  48.004  30.596  61.581
26287DA     BB370850  48.073  30.408  61.507
26287DA     SC170851  48.201  30.529  61.250
26287DA     SC270852  48.158  30.528  61.004
26287DA     SC370853  48.404  30.598  60.982
26287DA     SC470854  48.356  30.570  61.257
26288DG     BB170855  47.839  30.240  61.654
26288DG     BB270856  47.726  30.182  61.315
26288DG     BB370857  47.807  30.015  61.244
26288DG     SC170858  48.054  30.155  61.130
26288DG     SC270859  48.123  30.181  60.840
26288DG     SC370860  48.347  30.271  61.010
26288DG     SC470861  48.183  30.174  61.223
26289DT     BB170862  47.682  29.831  61.180
26289DT     BB270863  47.688  29.880  60.823
26289DT     BB370864  47.809  29.738  60.734
26289DT     SC170865  48.026  29.861  60.816
26289DT     SC270866  48.128  29.947  60.648
26289DT     SC370867  48.252  29.905  60.944
26290DA     BB170868  47.432  29.797  60.562
26290DA     BB270869  47.689  29.829  60.303
26290DA     BB370870  47.780  29.640  60.265
26290DA     SC170871  48.005  29.679  60.476
26290DA     SC270872  48.252  29.715  60.478
26290DA     SC370873  48.242  29.632  60.720
26290DA     SC470874  47.979  29.623  60.624
26291DA     BB170875  47.685  29.809  60.003
26291DA     BB270876  48.037  29.786  59.905
26291DA     BB370877  48.092  29.583  59.871
26291DA     SC170878  48.183  29.534  60.165
26291DA     SC270879  48.397  29.495  60.287
26291DA     SC370880  48.249  29.397  60.473
26291DA     SC470881  48.074  29.476  60.268
26292DA     BB170882  48.187  29.799  59.638
26292DA     BB270883  48.522  29.663  59.703
26292DA     BB370884  48.527  29.455  59.658
26292DA     SC170885  48.449  29.366  59.946
26292DA     SC270886  48.557  29.253  60.140
26292DA     SC370887  48.318  29.203  60.218
26292DA     SC470888  48.293  29.343  59.977
26293DT     BB170889  48.639  29.446  59.533
26293DT     BB270890  48.901  29.272  59.710
26293DT     BB370891  48.877  29.067  59.690
26293DT     SC170892  48.676  29.066  59.859
26293DT     SC270893  48.736  28.967  60.040
26293DT     SC370894  48.431  29.038  59.954
26294DA     BB170895  49.275  29.158  59.588
26294DA     BB270896  49.278  28.862  59.804
26294DA     BB370897  49.202  28.692  59.700
26294DA     SC170898  48.908  28.739  59.789
26294DA     SC270899  48.741  28.631  59.939
26294DA     SC370900  48.565  28.760  59.804
26294DA     SC470901  48.814  28.827  59.692
26295DC     BB170902  49.324  28.524  59.640
26295DC     BB270903  49.191  28.283  59.874
26295DC     BB370904  49.071  28.146  59.775
26295DC     SC170905  48.878  28.322  59.751
26295DC     SC270906  48.713  28.265  59.876
26295DC     SC370907  48.703  28.485  59.639
26296DA     BB170908  49.344  27.884  59.963
26296DA     BB270909  49.009  27.752  60.029
26296DA     BB370910  48.934  27.650  59.856
26296DA     SC170911  48.798  27.903  59.737
26296DA     SC270912  48.566  27.987  59.698
26296DA     SC370913  48.673  28.144  59.526
26296DA     SC470914  48.883  27.992  59.633
26297DA     BB170915  48.887  27.370  60.038
26297DA     BB270916  48.528  27.397  59.968
26297DA     BB370917  48.483  27.314  59.777
26297DA     SC170918  48.521  27.583  59.625
26297DA     SC270919  48.378  27.749  59.506
26297DA     SC370920  48.596  27.825  59.393
26297DA     SC470921  48.667  27.615  59.564
26298DC     BB170922  48.362  27.123  59.737
26298DC     BB270923  48.062  27.290  59.627
26298DC     BB370924  48.032  27.256  59.425
26298DC     SC170925  48.223  27.423  59.360
26298DC     SC270926  48.138  27.598  59.268
26298DC     SC370927  48.451  27.514  59.263
26299DG     BB170928  47.696  27.109  59.605
26299DG     BB270929  47.611  27.347  59.346
26299DG     BB370930  47.618  27.259  59.168
26299DG     SC170931  47.913  27.323  59.120
26299DG     SC270932  48.021  27.508  58.912
26299DG     SC370933  48.240  27.359  59.044
26299DG     SC470934  48.024  27.220  59.172
26300DA     BB170935  47.299  27.385  59.121
26300DA     BB270936  47.417  27.575  58.831
26300DA     BB370937  47.439  27.447  58.662
26300DA     SC170938  47.737  27.379  58.723
26300DA     SC270939  47.961  27.428  58.625
26300DA     SC370940  48.041  27.223  58.758
26300DA     SC470941  47.767  27.249  58.812
26301DA     BB170942  47.252  27.689  58.550
26301DA     BB270943  47.522  27.754  58.311
26301DA     BB370944  47.529  27.600  58.163
26301DA     SC170945  47.729  27.423  58.322
26301DA     SC270946  47.967  27.351  58.303
26301DA     SC370947  47.900  27.160  58.461
26301DA     SC470948  47.668  27.310  58.419
26302DA     BB170949  47.521  27.879  57.992
26302DA     BB270950  47.842  27.773  57.851
26302DA     BB370951  47.814  27.607  57.720
26302DA     SC170952  47.854  27.393  57.942
26302DA     SC270953  48.024  27.221  58.004
26302DA     SC370954  47.835  27.112  58.139
26302DA     SC470955  47.723  27.339  58.019
26303DC     BB170956  47.857  27.651  57.548
26303DC     BB270957  48.164  27.461  57.526
26303DC     BB370958  48.128  27.280  57.434
26303DC     SC170959  48.011  27.184  57.649
26303DC     SC270960  48.136  27.032  57.736
26303DC     SC370961  47.824  27.087  57.807
26304DA     BB170962  48.454  27.463  57.241
26304DA     BB270963  48.544  27.114  57.311
26304DA     BB370964  48.434  26.982  57.184
26304DA     SC170965  48.197  26.949  57.383
26304DA     SC270966  48.103  26.770  57.529
26304DA     SC370967  47.888  26.910  57.526
26304DA     SC470968  48.073  27.049  57.368
26305DC     BB170969  48.530  26.871  57.037
26305DC     BB270970  48.505  26.550  57.200
26305DC     BB370971  48.359  26.435  57.108
26305DC     SC170972  48.168  26.576  57.219
26305DC     SC270973  48.066  26.456  57.365
26305DC     SC370974  47.959  26.737  57.242
26306DT     BB170975  48.537  26.262  56.972
26306DT     BB270976  48.327  26.038  57.162
26306DT     BB370977  48.162  25.983  57.049
26306DT     SC170978  48.050  26.218  57.083
26306DT     SC270979  47.878  26.196  57.210
26306DT     SC370980  47.949  26.455  57.028
26307DA     BB170981  48.324  25.609  57.155
26307DA     BB270982  47.968  25.601  57.241
26307DA     BB370983  47.850  25.572  57.066
26307DA     SC170984  47.817  25.876  57.009
26307DA     SC270985  47.635  26.047  57.015
26307DA     SC370986  47.786  26.184  56.858
26307DA     SC470987  47.924  25.945  56.911
26308DG     BB170988  47.747  25.304  57.194
26308DG     BB270989  47.434  25.485  57.208
26308DG     BB370990  47.335  25.463  57.036
26308DG     SC170991  47.463  25.708  56.904
26308DG     SC270992  47.321  25.959  56.827
26308DG     SC370993  47.597  25.958  56.721
26308DG     SC470994  47.600  25.690  56.824
26309DT     BB170995  47.142  25.370  57.040
26309DT     BB270996  46.930  25.660  57.010
26309DT     BB370997  46.855  25.673  56.817
26309DT     SC170998  47.086  25.755  56.724
26309DT     SC270999  47.071  25.962  56.666
26309DT     SC371000  47.311  25.759  56.587
26310DT     BB171001  46.640  25.623  56.950
26310DT     BB271002  46.590  25.944  56.794
26310DT     BB371003  46.541  25.919  56.594
26310DT     SC171004  46.789  25.858  56.533
26310DT     SC271005  46.874  26.017  56.416
26310DT     SC371006  46.997  25.719  56.451
26311DT     BB171007  46.320  26.014  56.689
26311DT     BB271008  46.422  26.243  56.430
26311DT     BB371009  46.373  26.165  56.244
26311DT     SC171010  46.571  25.992  56.256
26311DT     SC271011  46.721  26.046  56.112
26311DT     SC371012  46.699  25.762  56.266
26312DA     BB171013  46.270  26.571  56.302
26312DA     BB271014  46.431  26.533  55.974
26312DA     BB371015  46.307  26.418  55.844
26312DA     SC171016  46.434  26.146  55.924
26312DA     SC271017  46.580  25.972  55.819
26312DA     SC371018  46.488  25.815  56.001
26312DA     SC471019  46.364  26.064  56.043
26313DC     BB171020  46.252  26.520  55.704
26313DC     BB271021  46.444  26.362  55.444
26313DC     BB371022  46.328  26.222  55.345
26313DC     SC171023  46.345  26.054  55.546
26313DC     SC271024  46.466  25.885  55.488
26313DC     SC371025  46.274  25.901  55.748
26314DG     BB171026  46.457  26.485  55.061
26314DG     BB271027  46.513  26.143  54.956
26314DG     BB371028  46.342  26.063  54.894
26314DG     SC171029  46.261  25.958  55.170
26314DG     SC271030  46.241  25.671  55.249
26314DG     SC371031  46.132  25.847  55.461
26314DG     SC471032  46.178  26.053  55.268
26315DT     BB171033  46.291  25.992  54.672
26315DT     BB271034  46.294  25.633  54.705
26315DT     BB371035  46.101  25.559  54.699
26315DT     SC171036  46.053  25.644  54.943
26315DT     SC271037  46.035  25.475  55.075
26315DT     SC371038  45.946  25.779  55.143
26316DG     BB171039  46.253  25.368  54.367
26316DG     BB271040  46.088  25.129  54.583
26316DG     BB371041  45.893  25.129  54.548
26316DG     SC171042  45.830  25.347  54.753
26316DG     SC271043  45.674  25.311  55.005
26316DG     SC371044  45.728  25.598  54.954
26316DG     SC471045  45.835  25.500  54.707
26317DT     BB171046  45.737  24.945  54.448
26317DT     BB271047  45.571  24.835  54.749
26317DT     BB371048  45.371  24.889  54.743
26317DT     SC171049  45.430  25.140  54.793
26317DT     SC271050  45.363  25.191  54.991
26317DT     SC371051  45.454  25.401  54.761
26318DG     BB171052  45.331  24.480  54.763
26318DG     BB271053  45.138  24.638  55.025
26318DG     BB371054  44.961  24.694  54.954
26318DG     SC171055  45.056  24.972  54.866
26318DG     SC271056  44.969  25.232  54.984
26318DG     SC371057  45.130  25.275  54.739
26318DG     SC471058  45.117  24.990  54.719
26319DG     BB171059  44.787  24.505  55.170
26319DG     BB271060  44.661  24.816  55.308
26319DG     BB371061  44.496  24.871  55.212
26319DG     SC171062  44.644  25.033  54.999
26319DG     SC271063  44.632  25.330  54.965
26319DG     SC371064  44.775  25.203  54.739
26319DG     SC471065  44.694  24.960  54.866
26320DT     BB171066  44.292  24.888  55.316
26320DT     BB271067  44.267  25.247  55.347
26320DT     BB371068  44.127  25.320  55.213
26320DT     SC171069  44.292  25.287  55.011
26320DT     SC271070  44.354  25.479  54.938
26320DT     SC371071  44.391  25.196  54.785
26321DG     BB171072  44.024  25.433  55.590
26321DG     BB271073  44.046  25.716  55.367
26321DG     BB371074  43.884  25.725  55.252
26321DG     SC171075  44.003  25.550  55.030
26321DG     SC271076  44.071  25.640  54.754
26321DG     SC371077  44.094  25.346  54.777
26321DG     SC471078  43.986  25.391  55.039
26322DA     BB171079  43.881  26.049  55.364
26322DA     BB271080  43.906  26.165  55.016
26322DA     BB371081  43.721  26.136  54.915
26322DA     SC171082  43.792  25.851  54.813
26322DA     SC271083  43.845  25.741  54.596
26322DA     SC371084  43.783  25.522  54.715
26322DA     SC471085  43.749  25.726  54.904
26323DA     BB171086  43.789  26.450  54.861
26323DA     BB271087  43.790  26.363  54.504
26323DA     BB371088  43.591  26.326  54.437
26323DA     SC171089  43.601  26.021  54.499
26323DA     SC271090  43.607  25.807  54.372
26323DA     SC371091  43.525  25.699  54.589
26323DA     SC471092  43.549  25.973  54.643
26324DT     BB171093  43.532  26.450  54.309
26324DT     BB271094  43.553  26.232  54.022
26324DT     BB371095  43.365  26.160  53.974
26324DT     SC171096  43.367  25.995  54.178
26324DT     SC271097  43.382  25.793  54.106
26324DT     SC371098  43.299  25.883  54.407
26325DC     BB171099  43.390  26.314  53.762
26325DC     BB271100  43.338  25.981  53.633
26325DC     BB371101  43.135  25.937  53.632
26325DC     SC171102  43.133  25.903  53.892
26325DC     SC271103  43.104  25.695  53.937
26325DC     SC371104  43.075  25.941  54.147
26326DT     BB171105  43.174  25.949  53.376
26326DT     BB271106  43.044  25.619  53.439
26326DT     BB371107  42.839  25.627  53.462
26326DT     SC171108  42.862  25.731  53.701
26326DT     SC271109  42.799  25.588  53.849
26326DT     SC371110  42.843  25.905  53.899
26327DA     BB171111  42.969  25.321  53.203
26327DA     BB271112  42.722  25.182  53.435
26327DA     BB371113  42.529  25.265  53.396
26327DA     SC171114  42.565  25.502  53.594
26327DA     SC271115  42.472  25.575  53.814
26327DA     SC371116  42.556  25.808  53.750
26327DA     SC471117  42.623  25.640  53.536
26328DT     BB171118  42.430  25.133  53.347
26328DT     BB271119  42.215  25.119  53.637
26328DT     BB371120  42.047  25.235  53.606
26328DT     SC171121  42.183  25.457  53.641
26328DT     SC271122  42.123  25.550  53.825
26328DT     SC371123  42.295  25.690  53.589
26329DA     BB171124  41.921  24.855  53.740
26329DA     BB271125  41.726  25.109  53.919
26329DA     BB371126  41.590  25.206  53.786
26329DA     SC171127  41.790  25.431  53.707
26329DA     SC271128  41.815  25.677  53.744
26329DA     SC371129  41.970  25.671  53.539
26329DA     SC471130  41.882  25.407  53.577
26330DA     BB171131  41.333  25.124  53.992
26330DA     BB271132  41.254  25.481  54.019
26330DA     BB371133  41.153  25.548  53.843
26330DA     SC171134  41.414  25.630  53.695
26330DA     SC271135  41.527  25.840  53.622
26330DA     SC371136  41.655  25.689  53.458
26330DA     SC471137  41.482  25.520  53.600
26331DG     BB171138  40.850  25.633  53.969
26331DG     BB271139  40.932  25.969  53.861
26331DG     BB371140  40.860  26.001  53.679
26331DG     SC171141  41.111  25.901  53.535
26331DG     SC271142  41.298  26.068  53.372
26331DG     SC371143  41.362  25.781  53.345
26331DG     SC471144  41.124  25.746  53.499
26332DG     BB171145  40.630  26.266  53.726
26332DG     BB271146  40.845  26.470  53.518
26332DG     BB371147  40.783  26.463  53.329
26332DG     SC171148  40.954  26.220  53.255
26332DG     SC271149  41.184  26.219  53.065
26332DG     SC371150  41.112  25.943  53.145
26332DG     SC471151  40.894  26.073  53.277
26333DA     BB171152  40.760  26.815  53.302
26333DA     BB271153  41.019  26.817  53.042
26333DA     BB371154  40.933  26.773  52.851
26333DA     SC171155  40.975  26.466  52.875
26333DA     SC271156  41.118  26.291  52.769
26333DA     SC371157  40.943  26.125  52.856
26333DA     SC471158  40.855  26.379  52.936
26334DG     BB171159  41.039  27.055  52.772
26334DG     BB271160  41.253  26.862  52.552
26334DG     BB371161  41.156  26.820  52.384
26334DG     SC171162  41.038  26.558  52.487
26334DG     SC271163  41.106  26.284  52.388
26334DG     SC371164  40.876  26.275  52.574
26334DG     SC471165  40.898  26.560  52.563
26335DT     BB171166  41.237  26.895  52.201
26335DT     BB271167  41.378  26.596  52.056
26335DT     BB371168  41.253  26.523  51.909
26335DT     SC171169  41.084  26.431  52.088
26335DT     SC271170  41.089  26.216  52.088
26335DT     SC371171  40.861  26.401  52.226
26336DG     BB171172  41.617  26.589  51.738
26336DG     BB271173  41.499  26.254  51.670
26336DG     BB371174  41.361  26.258  51.527
26336DG     SC171175  41.126  26.294  51.720
26336DG     SC271176  40.909  26.095  51.772
26336DG     SC371177  40.848  26.354  51.901
26336DG     SC471178  41.082  26.442  51.762
26337DA     BB171179  41.544  26.016  51.352
26337DA     BB271180  41.257  25.788  51.361
26337DA     BB371181  41.112  25.846  51.216
26337DA     SC171182  40.955  26.031  51.411
26337DA     SC271183  40.734  26.033  51.527
26337DA     SC371184  40.772  26.286  51.551
26337DA     SC471185  40.996  26.186  51.415
26338DT     BB171186  41.056  25.730  51.026
26338DT     BB271187  40.738  25.607  51.144
26338DT     BB371188  40.584  25.699  51.041
26338DT     SC171189  40.618  25.923  51.174
26338DT     SC271190  40.451  25.954  51.305
26338DT     SC371191  40.673  26.176  51.224
26339DA     BB171192  40.494  25.293  50.970
26339DA     BB271193  40.189  25.451  51.097
26339DA     BB371194  40.092  25.560  50.942
26339DA     SC171195  40.240  25.827  51.004
26339DA     SC271196  40.185  26.051  51.097
26339DA     SC371197  40.400  26.130  50.982
26339DA     SC471198  40.376  25.856  50.924
26340DA     BB171199  39.830  25.375  51.013
26340DA     BB271200  39.667  25.683  51.125
26340DA     BB371201  39.588  25.790  50.958
26340DA     SC171202  39.846  25.958  50.914
26340DA     SC271203  39.919  26.195  50.939
26340DA     SC371204  40.108  26.133  50.776
26340DA     SC471205  39.955  25.900  50.811
26341DT     BB171206  39.394  25.807  50.957
26341DT     BB271207  39.388  26.150  51.070
26341DT     BB371208  39.343  26.275  50.912
26341DT     SC171209  39.584  26.247  50.811
26341DT     SC271210  39.692  26.432  50.831
26341DT     SC371211  39.777  26.183  50.643
26342DA     BB171212  39.126  26.343  51.265
26342DA     BB271213  39.268  26.661  51.149
26342DA     BB371214  39.173  26.722  50.968
26342DA     SC171215  39.378  26.578  50.784
26342DA     SC271216  39.559  26.640  50.625
26342DA     SC371217  39.529  26.404  50.529
26342DA     SC471218  39.343  26.428  50.738
26343DG     BB171219  39.141  26.945  51.175
26343DG     BB271220  39.340  27.124  50.932
26343DG     BB371221  39.230  27.168  50.773
26343DG     SC171222  39.296  26.908  50.625
26343DG     SC271223  39.455  26.886  50.373
26343DG     SC371224  39.331  26.626  50.443
26343DG     SC471225  39.204  26.779  50.650
26344DT     BB171226  39.221  27.362  50.743
26344DT     BB271227  39.424  27.406  50.448
26344DT     BB371228  39.304  27.407  50.279
26344DT     SC171229  39.271  27.147  50.293
26344DT     SC271230  39.374  27.053  50.130
26344DT     SC371231  39.152  26.913  50.319
26345DG     BB171232  39.526  27.749  50.294
26345DG     BB271233  39.555  27.583  49.974
26345DG     BB371234  39.389  27.612  49.868
26345DG     SC171235  39.248  27.362  49.976
26345DG     SC271236  39.177  27.119  49.818
26345DG     SC371237  39.057  27.108  50.088
26345DG     SC471238  39.161  27.374  50.110
26346DG     BB171239  39.576  27.746  49.634
26346DG     BB271240  39.460  27.479  49.420
26346DG     BB371241  39.280  27.524  49.348
26346DG     SC171242  39.128  27.394  49.580
26346DG     SC271243  38.954  27.152  49.562
26346DG     SC371244  38.929  27.280  49.827
26346DG     SC471245  39.094  27.482  49.709
26347DT     BB171246  39.246  27.551  49.131
26347DT     BB271247  39.068  27.248  49.047
26347DT     BB371248  38.866  27.289  49.023
26347DT     SC171249  38.833  27.310  49.283
26347DT     SC271250  38.716  27.144  49.354
26347DT     SC371251  38.779  27.417  49.518
26348DT     BB171252  38.894  27.253  48.758
26348DT     BB271253  38.637  27.020  48.854
26348DT     BB371254  38.452  27.114  48.855
26348DT     SC171255  38.509  27.240  49.078
26348DT     SC271256  38.387  27.161  49.237
26348DT     SC371257  38.558  27.437  49.247
26349DA     BB171258  38.419  26.763  48.628
26349DA     BB271259  38.138  26.773  48.863
26349DA     BB371260  37.997  26.922  48.804
26349DA     SC171261  38.130  27.149  48.971
26349DA     SC271262  38.077  27.283  49.175
26349DA     SC371263  38.251  27.449  49.085
26349DA     SC471264  38.240  27.240  48.898
26350DG     BB171265  37.807  26.677  48.792
26350DG     BB271266  37.633  26.857  49.054
26350DG     BB371267  37.521  27.001  48.975
26350DG     SC171268  37.742  27.213  48.985
26350DG     SC271269  37.741  27.457  49.156
26350DG     SC371270  37.965  27.464  48.963
26350DG     SC471271  37.842  27.226  48.861
26351DT     BB171272  37.292  27.006  48.988
26351DT     BB271273  37.238  27.270  49.228
26351DT     BB371274  37.172  27.441  49.131
26351DT     SC171275  37.413  27.490  49.037
26351DT     SC271276  37.493  27.664  49.134
26351DT     SC371277  37.609  27.526  48.865
26352DA     BB171278  36.886  27.374  49.431
26352DA     BB271279  36.985  27.726  49.450
26352DA     BB371280  36.897  27.837  49.291
26352DA     SC171281  37.135  27.793  49.096
26352DA     SC271282  37.317  27.930  48.993
26352DA     SC371283  37.331  27.742  48.818
26352DA     SC471284  37.128  27.667  48.996
26353DT     BB171285  36.749  27.986  49.327
26353DT     BB271286  36.962  28.271  49.268
26353DT     BB371287  36.912  28.360  49.088
26353DT     SC171288  37.027  28.168  48.951
26353DT     SC271289  37.204  28.244  48.855
26353DT     SC371290  37.056  27.964  48.787
26354DC     BB171291  36.802  28.571  49.221
26354DC     BB271292  37.054  28.719  49.009
26354DC     BB371293  36.974  28.761  48.823
26354DC     SC171294  36.978  28.507  48.756
26354DC     SC271295  37.127  28.476  48.604
26354DC     SC371296  36.893  28.267  48.687
26355DT     BB171297  36.988  29.020  48.888
26355DT     BB271298  37.181  28.990  48.585
26355DT     BB371299  37.056  29.002  48.420
26355DT     SC171300  36.967  28.758  48.461
26355DT     SC271301  37.039  28.629  48.305
26355DT     SC371302  36.800  28.561  48.513
26356DA     BB171303  37.375  29.269  48.371
26356DA     BB271304  37.339  29.078  48.061
26356DA     BB371305  37.164  29.138  47.956
26356DA     SC171306  36.980  28.928  48.094
26356DA     SC271307  36.858  28.720  48.030
26356DA     SC371308  36.716  28.763  48.239
26356DA     SC471309  36.902  28.973  48.227
26357DA     BB171310  37.387  29.171  47.717
26357DA     BB271311  37.189  28.929  47.526
26357DA     BB371312  37.009  29.019  47.455
26357DA     SC171313  36.842  28.940  47.706
26357DA     SC271314  36.656  28.783  47.762
26357DA     SC371315  36.620  28.933  47.967
26357DA     SC471316  36.835  29.045  47.827
26358DT     BB171317  36.976  29.054  47.250
26358DT     BB271318  36.728  28.797  47.198
26358DT     BB371319  36.540  28.882  47.178
26358DT     SC171320  36.527  28.931  47.436
26358DT     SC271321  36.378  28.804  47.525
26358DT     SC371322  36.511  29.065  47.663
26359DC     BB171323  36.517  28.848  46.897
26359DC     BB271324  36.220  28.689  47.025
26359DC     BB371325  36.065  28.826  47.033
26359DC     SC171326  36.168  28.943  47.244
26359DC     SC271327  36.045  28.903  47.416
26359DC     SC371328  36.277  29.128  47.397
26360DA     BB171329  35.890  28.522  46.798
26360DA     BB271330  35.652  28.600  47.066
26360DA     BB371331  35.547  28.780  47.022
26360DA     SC171332  35.752  28.964  47.166
26360DA     SC271333  35.760  29.106  47.372
26360DA     SC371334  35.957  29.224  47.257
26360DA     SC471335  35.871  29.026  47.078
26361DT     BB171336  35.326  28.793  46.976
26361DT     BB271337  35.228  28.926  47.297
26361DT     BB371338  35.167  29.122  47.276
26361DT     SC171339  35.414  29.205  47.247
26361DT     SC271340  35.472  29.319  47.421
26361DT     SC371341  35.629  29.311  47.138
26362DT     BB171342  34.901  29.057  47.315
26362DT     BB271343  34.973  29.296  47.574
26362DT     BB371344  34.938  29.488  47.505
26362DT     SC171345  35.157  29.485  47.362
26362DT     SC271346  35.300  29.621  47.447
26362DT     SC371347  35.316  29.489  47.151
26363DT     BB171348  34.714  29.509  47.660
26363DT     BB271349  34.923  29.783  47.766
26363DT     BB371350  34.888  29.948  47.647
26363DT     SC171351  35.021  29.842  47.447
26363DT     SC271352  35.204  29.951  47.417
26363DT     SC371353  35.072  29.741  47.209
26364DT     BB171354  34.756  30.076  47.851
26364DT     BB271355  35.025  30.299  47.763
26364DT     BB371356  34.965  30.427  47.611
26364DT     SC171357  34.983  30.235  47.433
26364DT     SC271358  35.148  30.275  47.301
26364DT     SC371359  34.912  30.059  47.249
26365DT     BB171360  34.955  30.638  47.785
26365DT     BB271361  35.189  30.740  47.530
26365DT     BB371362  35.088  30.830  47.373
26365DT     SC171363  34.999  30.599  47.287
26365DT     SC271364  35.095  30.551  47.100
26365DT     SC371365  34.831  30.407  47.221
26366DT     BB171366  35.189  31.071  47.449
26366DT     BB271367  35.304  31.023  47.110
26366DT     BB371368  35.162  31.093  46.977
26366DT     SC171369  35.008  30.885  47.020
26366DT     SC271370  35.004  30.761  46.844
26366DT     SC371371  34.799  30.742  47.094
26367DT     BB171372  35.340  31.281  46.928
26367DT     BB271373  35.287  31.113  46.613
26367DT     BB371374  35.118  31.188  46.520
26367DT     SC171375  34.960  31.060  46.686
26367DT     SC271376  34.858  30.903  46.581
26367DT     SC371377  34.780  31.018  46.874
26368DT     BB171378  35.308  31.262  46.365
26368DT     BB271379  35.090  31.054  46.167
26368DT     BB371380  34.920  31.160  46.113
26368DT     SC171381  34.821  31.141  46.355
26368DT     SC271382  34.651  31.010  46.352
26368DT     SC371383  34.732  31.212  46.593
26369DG     BB171384  35.135  30.954  45.828
26369DG     BB271385  34.782  30.877  45.822
26369DG     BB371386  34.679  31.036  45.760
26369DG     SC171387  34.641  31.151  46.041
26369DG     SC271388  34.382  31.176  46.187
26369DG     SC371389  34.598  31.316  46.332
26369DG     SC471390  34.753  31.250  46.100
26370DA     BB171391  34.561  30.742  45.605
26370DA     BB271392  34.226  30.845  45.712
26370DA     BB371393  34.176  31.035  45.628
26370DA     SC171394  34.289  31.197  45.869
26370DA     SC271395  34.200  31.337  46.055
26370DA     SC371396  34.437  31.434  46.069
26370DA     SC471397  34.442  31.246  45.861
26371DA     BB171398  33.915  30.845  45.553
26371DA     BB271399  33.711  31.104  45.714
26371DA     BB371400  33.717  31.284  45.599
26371DA     SC171401  33.962  31.401  45.750
26371DA     SC271402  34.010  31.587  45.909
26371DA     SC371403  34.254  31.563  45.833
26371DA     SC471404  34.108  31.372  45.689
26372DA     BB171405  33.380  31.277  45.588
26372DA     BB271406  33.378  31.610  45.742
26372DA     BB371407  33.426  31.759  45.597
26372DA     SC171408  33.732  31.749  45.652
26372DA     SC271409  33.906  31.895  45.754
26372DA     SC371410  34.074  31.752  45.623
26372DA     SC471411  33.820  31.649  45.562
26373DG     BB171412  33.138  31.926  45.599
26373DG     BB271413  33.335  32.204  45.721
26373DG     BB371414  33.397  32.315  45.568
26373DG     SC171415  33.657  32.158  45.528
26373DG     SC271416  33.933  32.261  45.575
26373DG     SC371417  33.940  31.996  45.443
26373DG     SC471418  33.656  32.030  45.431
26374DT     BB171419  33.342  32.571  45.485
26374DT     BB271420  33.645  32.733  45.595
26374DT     BB371421  33.754  32.798  45.431
26374DT     SC171422  33.831  32.553  45.376
26374DT     SC271423  34.042  32.534  45.415
26374DT     SC371424  33.861  32.326  45.245
26375DT     BB171425  33.699  33.083  45.449
26375DT     BB271426  34.059  33.063  45.468
26375DT     BB371427  34.141  33.089  45.280
26375DT     SC171428  34.069  32.847  45.206
26375DT     SC271429  34.244  32.724  45.185
26375DT     SC371430  33.948  32.654  45.075
26376DG     BB171431  34.296  33.376  45.521
26376DG     BB271432  34.556  33.179  45.365
26376DG     BB371433  34.586  33.241  45.178
26376DG     SC171434  34.379  33.052  45.056
26376DG     SC271435  34.437  32.823  44.873
26376DG     SC371436  34.146  32.872  44.891
26376DG     SC471437  34.226  33.100  45.045
26377DC     BB171438  34.772  33.300  45.152
26377DC     BB271439  34.910  33.028  44.959
26377DC     BB371440  34.908  33.076  44.758
26377DC     SC171441  34.649  33.038  44.743
26377DC     SC271442  34.610  32.862  44.625
26377DC     SC371443  34.392  33.088  44.708
26378DT     BB171444  35.157  33.065  44.816
26378DT     BB271445  35.106  32.829  44.548
26378DT     BB371446  35.087  32.929  44.368
26378DT     SC171447  34.844  33.007  44.429
26378DT     SC271448  34.703  32.906  44.302
26378DT     SC371449  34.641  33.166  44.484
26379DA     BB171450  35.351  32.598  44.350
26379DA     BB271451  35.137  32.596  44.052
26379DA     BB371452  35.182  32.764  43.928
26379DA     SC171453  34.971  32.950  44.063
26379DA     SC271454  34.753  33.055  44.003
26379DA     SC371455  34.803  33.218  44.195
26379DA     SC471456  35.021  33.042  44.185
26380DT     BB171457  35.261  32.724  43.757
26380DT     BB271458  34.988  32.820  43.542
26380DT     BB371459  35.021  33.010  43.467
26380DT     SC171460  34.961  33.121  43.697
26380DT     SC271461  34.775  33.226  43.679
26380DT     SC371462  34.988  33.257  43.921
26381DA     BB171463  34.973  32.803  43.100
26381DA     BB271464  34.776  33.111  43.072
26381DA     BB371465  34.904  33.277  43.035
26381DA     SC171466  34.944  33.345  43.336
26381DA     SC271467  34.876  33.525  43.495
26381DA     SC371468  35.071  33.441  43.640
26381DA     SC471469  35.070  33.279  43.411
26382DC     BB171470  34.935  33.414  42.833
26382DC     BB271471  34.769  33.710  42.955
26382DC     BB371472  34.906  33.863  42.981
26382DC     SC171473  35.001  33.751  43.199
26382DC     SC271474  34.947  33.870  43.370
26382DC     SC371475  35.171  33.635  43.364
26383DC     BB171476  34.850  34.030  42.746
26383DC     BB271477  34.814  34.262  43.021
26383DC     BB371478  34.992  34.362  43.052
26383DC     SC171479  35.101  34.150  43.163
26383DC     SC271480  35.129  34.186  43.373
26383DC     SC371481  35.264  33.947  43.202
26384DT     BB171482  34.921  34.619  42.938
26384DT     BB271483  35.022  34.701  43.275
26384DT     BB371484  35.222  34.752  43.279
26384DT     SC171485  35.294  34.501  43.252
26384DT     SC271486  35.384  34.433  43.435
26384DT     SC371487  35.400  34.283  43.148
26385DT     BB171488  35.187  35.033  43.311
26385DT     BB271489  35.389  34.939  43.595
26385DT     BB371490  35.589  34.959  43.549
26385DT     SC171491  35.585  34.742  43.401
26385DT     SC271492  35.699  34.588  43.497
26385DT     SC371493  35.601  34.587  43.188
26386DA     BB171494  35.542  35.184  43.900
26386DA     BB271495  35.824  34.955  43.953
26386DA     BB371496  35.997  35.026  43.850
26386DA     SC171497  35.935  34.870  43.588
26386DA     SC271498  36.029  34.676  43.462
26386DA     SC371499  35.902  34.772  43.261
26386DA     SC471500  35.850  34.946  43.474
26387DA     BB171501  36.142  35.008  44.146
26387DA     BB271502  36.362  34.751  44.002
26387DA     BB371503  36.516  34.842  43.887
26387DA     SC171504  36.355  34.836  43.621
26387DA     SC271505  36.364  34.716  43.403
26387DA     SC371506  36.220  34.909  43.314
26387DA     SC471507  36.267  34.966  43.584
26388DC     BB171508  36.719  34.829  43.948
26388DC     BB271509  36.810  34.576  43.707
26388DC     BB371510  36.931  34.658  43.560
26388DC     SC171511  36.726  34.779  43.449
26388DC     SC271512  36.684  34.688  43.259
26388DC     SC371513  36.570  34.973  43.362
26389DC     BB171514  37.137  34.518  43.663
26389DC     BB271515  37.101  34.400  43.324
26389DC     BB371516  37.208  34.522  43.195
26389DC     SC171517  37.028  34.713  43.214
26389DC     SC271518  36.924  34.731  43.027
26389DC     SC371519  36.920  34.947  43.269
26390DA     BB171520  37.260  34.109  43.149
26390DA     BB271521  37.174  34.257  42.825
26390DA     BB371522  37.334  34.380  42.755
26390DA     SC171523  37.226  34.639  42.888
26390DA     SC271524  37.125  34.856  42.816
26390DA     SC371525  37.195  34.942  43.048
26390DA     SC471526  37.279  34.674  43.036
26391DT     BB171527  37.370  34.300  42.615
26391DT     BB271528  37.233  34.545  42.388
26391DT     BB371529  37.381  34.679  42.332
26391DT     SC171530  37.370  34.799  42.565
26391DT     SC271531  37.285  34.995  42.541
26391DT     SC371532  37.445  34.888  42.802
26392DT     BB171533  37.314  34.551  42.122
26392DT     BB271534  37.266  34.900  42.048
26392DT     BB371535  37.449  34.992  42.019
26392DT     SC171536  37.499  34.990  42.277
26392DT     SC271537  37.493  35.191  42.353
26392DT     SC371538  37.616  34.934  42.506
26393DT     BB171539  37.355  35.003  41.778
26393DT     BB271540  37.447  35.342  41.859
26393DT     BB371541  37.651  35.367  41.840
26393DT     SC171542  37.697  35.235  42.062
26393DT     SC271543  37.769  35.371  42.212
26393DT     SC371544  37.783  35.048  42.226
26394DT     BB171545  37.603  35.511  41.619
26394DT     BB271546  37.818  35.723  41.816
26394DT     BB371547  38.016  35.673  41.783
26394DT     SC171548  37.993  35.455  41.928
26394DT     SC271549  38.106  35.478  42.110
26394DT     SC371550  37.989  35.200  41.993
26395DG     BB171551  38.018  36.065  41.656
26395DG     BB271552  38.297  36.006  41.878
26395DG     BB371553  38.448  35.923  41.778
26395DG     SC171554  38.355  35.635  41.829
26395DG     SC271555  38.498  35.433  41.996
26395DG     SC371556  38.272  35.309  41.849
26395DG     SC471557  38.253  35.567  41.727
26396DA     BB171558  38.715  36.163  41.851
26396DA     BB271559  38.922  35.907  42.011
26396DA     BB371560  39.038  35.803  41.865
26396DA     SC171561  38.824  35.582  41.817
26396DA     SC271562  38.796  35.339  41.863
26396DA     SC371563  38.617  35.345  41.678
26396DA     SC471564  38.717  35.606  41.699
26397DT     BB171565  39.293  35.801  41.810
26397DT     BB271566  39.358  35.476  41.952
26397DT     BB371567  39.418  35.345  41.804
26397DT     SC171568  39.174  35.324  41.712
26397DT     SC271569  39.098  35.127  41.753
26397DT     SC371570  38.968  35.341  41.547
26398DA     BB171571  39.757  35.305  42.056
26398DA     BB271572  39.641  34.964  41.985
26398DA     BB371573  39.715  34.899  41.795
26398DA     SC171574  39.468  35.003  41.637
26398DA     SC271575  39.274  34.907  41.513
26398DA     SC371576  39.259  35.136  41.399
26398DA     SC471577  39.476  35.152  41.576
26399DT     BB171578  39.873  34.728  41.756
26399DT     BB271579  39.631  34.483  41.649
26399DT     BB371580  39.659  34.437  41.449
26399DT     SC171581  39.554  34.666  41.375
26399DT     SC271582  39.364  34.629  41.280
26399DT     SC371583  39.532  34.906  41.268
26400DT     BB171584  39.761  34.188  41.511
26400DT     BB271585  39.473  34.121  41.304
26400DT     BB371586  39.530  34.115  41.105
26400DT     SC171587  39.553  34.376  41.096
26400DT     SC271588  39.396  34.457  40.973
26400DT     SC371589  39.662  34.614  41.070
26401DA     BB171590  39.308  33.775  41.201
26401DA     BB271591  39.166  33.921  40.896
26401DA     BB371592  39.293  33.884  40.729
26401DA     SC171593  39.455  34.147  40.765
26401DA     SC271594  39.483  34.365  40.645
26401DA     SC371595  39.703  34.385  40.776
26401DA     SC471596  39.589  34.141  40.854
26402DA     BB171597  38.996  33.788  40.641
26402DA     BB271598  39.026  34.032  40.368
26402DA     BB371599  39.169  33.965  40.224
26402DA     SC171600  39.409  34.108  40.362
26402DA     SC271601  39.560  34.301  40.315
26402DA     SC371602  39.719  34.191  40.485
26402DA     SC471603  39.494  34.024  40.469
26403DA     BB171604  38.904  34.037  40.048
26403DA     BB271605  39.118  34.268  39.861
26403DA     BB371606  39.257  34.160  39.740
26403DA     SC171607  39.478  34.151  39.959
26403DA     SC271608  39.703  34.252  39.999
26403DA     SC371609  39.737  34.060  40.165
26403DA     SC471610  39.481  34.024  40.057
26404DA     BB171611  39.129  34.356  39.508
26404DA     BB271612  39.470  34.473  39.441
26404DA     BB371613  39.581  34.322  39.339
26404DA     SC171614  39.690  34.192  39.599
26404DA     SC271615  39.909  34.170  39.717
26404DA     SC371616  39.801  33.971  39.838
26404DA     SC471617  39.606  34.070  39.662
26405DT     BB171618  39.647  34.334  39.126
26405DT     BB271619  40.001  34.376  39.183
26405DT     BB371620  40.102  34.203  39.130
26405DT     SC171621  40.018  34.079  39.346
26405DT     SC271622  40.184  34.047  39.479
26405DT     SC371623  39.894  33.903  39.499
26406DA     BB171624  40.320  34.457  38.864
26406DA     BB271625  40.573  34.254  39.033
26406DA     BB371626  40.589  34.062  38.941
26406DA     SC171627  40.376  33.929  39.124
26406DA     SC271628  40.369  33.759  39.307
26406DA     SC371629  40.120  33.737  39.250
26406DA     SC471630  40.223  33.929  39.073
26407DA     BB171631  40.934  34.054  38.839
26407DA     BB271632  40.994  33.774  39.068
26407DA     BB371633  40.966  33.588  38.967
26407DA     SC171634  40.664  33.567  39.039
26407DA     SC271635  40.518  33.427  39.185
26407DA     SC371636  40.326  33.507  39.036
26407DA     SC471637  40.558  33.627  38.934
26408DT     BB171638  41.136  33.363  38.874
26408DT     BB271639  41.042  33.152  39.151
26408DT     BB371640  40.954  32.978  39.081
26408DT     SC171641  40.732  33.104  39.021
26408DT     SC271642  40.576  33.041  39.154
26408DT     SC371643  40.535  33.205  38.877
26409DA     BB171644  41.267  32.812  39.308
26409DA     BB271645  40.953  32.671  39.435
26409DA     BB371646  40.894  32.504  39.317
26409DA     SC171647  40.723  32.674  39.120
26409DA     SC271648  40.482  32.706  39.066
26409DA     SC371649  40.566  32.801  38.842
26409DA     SC471650  40.795  32.728  38.987
26410DC     BB171651  40.890  32.340  39.417
26410DC     BB271652  40.533  32.349  39.468
26410DC     BB371653  40.441  32.206  39.351
26410DC     SC171654  40.476  32.349  39.134
26410DC     SC271655  40.286  32.422  39.065
26410DC     SC371656  40.562  32.421  38.895
26411DG     BB171657  40.370  32.261  39.753
26411DG     BB271658  40.070  32.282  39.552
26411DG     BB371659  40.026  32.104  39.476
26411DG     SC171660  40.192  32.144  39.222
26411DG     SC271661  40.084  32.167  38.944
26411DG     SC371662  40.379  32.146  38.941
26411DG     SC471663  40.346  32.102  39.222
26412DT     BB171664  39.867  32.110  39.538
26412DT     BB271665  39.667  32.135  39.238
26412DT     BB371666  39.646  31.949  39.152
26412DT     SC171667  39.892  31.953  39.062
26412DT     SC271668  39.890  31.972  38.848
26412DT     SC371669  40.145  31.887  39.029
26413DA     BB171670  39.302  32.200  39.180
26413DA     BB271671  39.317  32.047  38.847
26413DA     BB371672  39.295  31.836  38.861
26413DA     SC171673  39.601  31.782  38.886
26413DA     SC271674  39.782  31.681  38.748
26413DA     SC371675  39.909  31.656  38.970
26413DA     SC471676  39.663  31.774  39.034
26414DC     BB171677  39.148  31.796  38.778
26414DC     BB271678  39.293  31.625  38.495
26414DC     BB371679  39.303  31.422  38.532
26414DC     SC171680  39.505  31.453  38.697
26414DC     SC271681  39.682  31.370  38.608
26414DC     SC371682  39.646  31.452  38.919
26415DC     BB171683  39.109  31.398  38.353
26415DC     BB271684  39.368  31.175  38.238
26415DC     BB371685  39.353  30.993  38.337
26415DC     SC171686  39.453  31.096  38.557
26415DC     SC271687  39.649  31.016  38.591
26415DC     SC371688  39.471  31.177  38.807
26416DA     BB171689  39.363  30.901  37.928
26416DA     BB271690  39.596  30.674  38.098
26416DA     BB371691  39.488  30.526  38.208
26416DA     SC171692  39.478  30.694  38.470
26416DA     SC271693  39.579  30.686  38.698
26416DA     SC371694  39.386  30.840  38.767
26416DA     SC471695  39.350  30.788  38.493
26417DT     BB171696  39.491  30.323  38.152
26417DT     BB271697  39.696  30.201  38.423
26417DT     BB371698  39.579  30.097  38.559
26417DT     SC171699  39.477  30.320  38.653
26417DT     SC271700  39.550  30.352  38.853
26417DT     SC371701  39.300  30.505  38.715
26418DA     BB171702  39.879  29.816  38.467
26418DA     BB271703  39.845  29.820  38.832
26418DA     BB371704  39.669  29.714  38.891
26418DA     SC171705  39.486  29.966  38.883
26418DA     SC271706  39.365  30.111  39.046
26418DA     SC371707  39.223  30.183  38.845
26418DA     SC471708  39.408  29.996  38.746
26419DG     BB171709  39.831  29.486  39.058
26419DG     BB271710  39.655  29.619  39.345
26419DG     BB371711  39.481  29.525  39.367
26419DG     SC171712  39.325  29.720  39.190
26419DG     SC271713  39.111  29.907  39.281
26419DG     SC371714  39.127  29.901  38.986
26419DG     SC471715  39.317  29.692  39.032
26420DC     BB171716  39.384  29.357  39.555
26420DC     BB271717  39.158  29.579  39.727
26420DC     BB371718  38.963  29.520  39.695
26420DC     SC171719  38.967  29.613  39.450
26420DC     SC271720  38.839  29.785  39.436
26420DC     SC371721  38.959  29.618  39.186
26421DA     BB171722  38.952  29.502  40.119
26421DA     BB271723  38.663  29.703  40.017
26421DA     BB371724  38.502  29.576  39.958
26421DA     SC171725  38.587  29.568  39.659
26421DA     SC271726  38.503  29.656  39.441
26421DA     SC371727  38.650  29.474  39.334
26421DA     SC471728  38.684  29.448  39.612
26422DT     BB171729  38.297  29.550  40.067
26422DT     BB271730  38.112  29.757  39.837
26422DT     BB371731  37.977  29.641  39.731
26422DT     SC171732  38.169  29.539  39.583
26422DT     SC271733  38.150  29.614  39.382
26422DT     SC371734  38.332  29.362  39.476
26423DG     BB171735  37.762  29.928  39.922
26423DG     BB271736  37.702  29.933  39.566
26423DG     BB371737  37.573  29.790  39.516
26423DG     SC171738  37.789  29.578  39.470
26423DG     SC271739  37.860  29.454  39.207
26423DG     SC371740  37.998  29.316  39.429
26423DG     SC471741  37.838  29.488  39.593
26424DT     BB171742  37.399  29.855  39.428
26424DT     BB271743  37.457  29.768  39.082
26424DT     BB371744  37.357  29.593  39.036
26424DT     SC171745  37.533  29.448  39.167
26424DT     SC271746  37.648  29.333  39.028
26424DT     SC371747  37.635  29.286  39.348
26425DT     BB171748  37.213  29.756  38.891
26425DT     BB271749  37.344  29.512  38.661
26425DT     BB371750  37.231  29.339  38.669
26425DT     SC171751  37.337  29.270  38.899
26425DT     SC271752  37.463  29.098  38.871
26425DT     SC371753  37.357  29.212  39.155
26426DA     BB171754  37.287  29.465  38.271
26426DA     BB271755  37.360  29.107  38.290
26426DA     BB371756  37.180  28.996  38.324
26426DA     SC171757  37.204  29.006  38.634
26426DA     SC271758  37.251  28.847  38.821
26426DA     SC371759  37.140  29.022  38.971
26426DA     SC471760  37.131  29.126  38.711
26427DG     BB171761  37.259  28.863  38.054
26427DG     BB271762  37.282  28.566  38.260
26427DG     BB371763  37.101  28.490  38.290
26427DG     SC171764  37.048  28.653  38.544
26427DG     SC271765  37.022  28.543  38.820
26427DG     SC371766  36.949  28.830  38.814
26427DG     SC471767  36.982  28.798  38.531
26428DA     BB171768  37.220  28.182  38.177
26428DA     BB271769  37.135  28.028  38.498
26428DA     BB371770  36.925  27.992  38.510
26428DA     SC171771  36.860  28.268  38.638
26428DA     SC271772  36.784  28.355  38.859
26428DA     SC371773  36.713  28.564  38.729
26428DA     SC471774  36.822  28.389  38.540
26429DT     BB171775  36.849  27.796  38.514
26429DT     BB271776  36.764  27.793  38.865
26429DT     BB371777  36.559  27.804  38.888
26429DT     SC171778  36.557  28.059  38.826
26429DT     SC271779  36.509  28.175  39.000
26429DT     SC371780  36.507  28.282  38.695
26430DC     BB171781  36.555  27.545  38.966
26430DC     BB271782  36.409  27.727  39.241
26430DC     BB371783  36.206  27.752  39.210
26430DC     SC171784  36.248  27.937  39.029
26430DC     SC271785  36.185  28.127  39.105
26430DC     SC371786  36.251  28.059  38.795
26431DT     BB171787  36.166  27.576  39.408
26431DT     BB271788  35.996  27.876  39.514
26431DT     BB371789  35.805  27.882  39.433
26431DT     SC171790  35.899  27.943  39.196
26431DT     SC271791  35.845  28.146  39.148
26431DT     SC371792  35.956  27.924  38.939
26432DT     BB171793  35.725  27.841  39.681
26432DT     BB271794  35.569  28.151  39.579
26432DT     BB371795  35.397  28.111  39.471
26432DT     SC171796  35.536  28.039  39.261
26432DT     SC271797  35.511  28.185  39.105
26432DT     SC371798  35.634  27.887  39.068
26433DA     BB171799  35.335  28.396  39.774
26433DA     BB271800  35.192  28.523  39.461
26433DA     BB371801  35.019  28.410  39.406
26433DA     SC171802  35.178  28.204  39.236
26433DA     SC271803  35.204  28.144  38.995
26433DA     SC371804  35.292  27.919  39.082
26433DA     SC471805  35.229  28.070  39.310
26434DT     BB171806  34.881  28.519  39.410
26434DT     BB271807  34.830  28.541  39.053
26434DT     BB371808  34.687  28.404  38.993
26434DT     SC171809  34.856  28.205  39.020
26434DT     SC271810  34.905  28.127  38.825
26434DT     SC371811  34.964  27.982  39.109
26435DA     BB171812  34.609  28.788  38.836
26435DA     BB271813  34.574  28.541  38.567
26435DA     BB371814  34.403  28.419  38.601
26435DA     SC171815  34.558  28.203  38.762
26435DA     SC271816  34.631  27.966  38.731
26435DA     SC371817  34.652  27.961  38.987
26435DA     SC471818  34.564  28.219  38.922
26436DT     BB171819  34.266  28.440  38.472
26436DT     BB271820  34.302  28.121  38.306
26436DT     BB371821  34.159  27.988  38.376
26436DT     SC171822  34.289  27.956  38.602
26436DT     SC271823  34.370  27.757  38.609
26436DT     SC371824  34.342  27.961  38.860
26437DT     BB171825  34.015  28.007  38.144
26437DT     BB271826  34.067  27.652  38.186
26437DT     BB371827  33.918  27.572  38.305
26437DT     SC171828  34.025  27.677  38.521
26437DT     SC271829  34.105  27.520  38.644
26437DT     SC371830  34.052  27.825  38.737
26438DC     BB171831  33.762  27.444  38.100
26438DC     BB271832  33.822  27.177  38.334
26438DC     BB371833  33.667  27.167  38.472
26438DC     SC171834  33.755  27.381  38.597
26438DC     SC271835  33.832  27.324  38.790
26438DC     SC371836  33.764  27.626  38.694
26439DA     BB171837  33.629  26.767  38.331
26439DA     BB271838  33.637  26.746  38.697
26439DA     BB371839  33.445  26.792  38.778
26439DA     SC171840  33.503  27.097  38.806
26439DA     SC271841  33.539  27.262  38.989
26439DA     SC371842  33.478  27.439  38.814
26439DA     SC471843  33.461  27.192  38.683
26440DC     BB171844  33.267  26.647  38.900
26440DC     BB271845  33.349  26.773  39.228
26440DC     BB371846  33.187  26.876  39.307
26440DC     SC171847  33.231  27.081  39.149
26440DC     SC271848  33.301  27.247  39.266
26440DC     SC371849  33.194  27.261  38.960
26441DA     BB171850  33.246  26.592  39.613
26441DA     BB271851  33.249  26.923  39.772
26441DA     BB371852  33.050  26.991  39.805
26441DA     SC171853  33.029  27.137  39.531
26441DA     SC271854  33.018  27.371  39.447
26441DA     SC371855  32.919  27.268  39.233
26441DA     SC471856  32.968  27.054  39.407
26442DT     BB171857  32.979  27.018  40.002
26442DT     BB271858  33.016  27.376  40.003
26442DT     BB371859  32.830  27.467  40.000
26442DT     SC171860  32.797  27.408  39.746
26442DT     SC271861  32.804  27.588  39.629
26442DT     SC371862  32.695  27.301  39.527
26443DT     BB171863  32.889  27.540  40.247
26443DT     BB271864  32.840  27.848  40.065
26443DT     BB371865  32.639  27.895  40.059
26443DT     SC171866  32.593  27.709  39.880
26443DT     SC271867  32.545  27.801  39.691
26443DT     SC371868  32.496  27.490  39.768
26444DA     BB171869  32.887  28.214  40.171
26444DA     BB271870  32.658  28.329  39.908
26444DA     BB371871  32.459  28.339  39.983
26444DA     SC171872  32.388  28.047  39.900
26444DA     SC271873  32.243  27.933  39.733
26444DA     SC371874  32.262  27.728  39.886
26444DA     SC471875  32.411  27.931  40.009
26445DG     BB171876  32.522  28.621  39.883
26445DG     BB271877  32.249  28.547  39.658
26445DG     BB371878  32.076  28.557  39.755
26445DG     SC171879  32.077  28.263  39.839
26445DG     SC271880  31.887  28.053  39.745
26445DG     SC371881  32.056  27.951  39.965
26445DG     SC471882  32.149  28.222  39.976
26446DT     BB171883  31.939  28.700  39.689
26446DT     BB271884  31.684  28.499  39.531
26446DT     BB371885  31.524  28.473  39.660
26446DT     SC171886  31.658  28.301  39.805
26446DT     SC271887  31.574  28.105  39.780
26446DT     SC371888  31.781  28.194  40.013
26447DC     BB171889  31.380  28.641  39.505
26447DC     BB271890  31.180  28.341  39.524
26447DC     BB371891  31.062  28.345  39.694
26447DC     SC171892  31.268  28.292  39.847
26447DC     SC271893  31.248  28.093  39.928
26447DC     SC371894  31.453  28.321  40.033
26448DA     BB171895  30.795  28.270  39.379
26448DA     BB271896  30.720  28.030  39.645
26448DA     BB371897  30.618  28.126  39.806
26448DA     SC171898  30.879  28.198  39.960
26448DA     SC271899  30.993  28.129  40.171
26448DA     SC371900  31.119  28.352  40.151
26448DA     SC471901  30.945  28.341  39.931
26449DC     BB171902  30.413  28.084  39.854
26449DC     BB271903  30.476  27.895  40.155
26449DC     BB371904  30.421  28.006  40.321
26449DC     SC171905  30.633  28.159  40.298
26449DC     SC271906  30.768  28.119  40.461
26449DC     SC371907  30.781  28.374  40.262
26450DT     BB171908  30.196  27.852  40.367
26450DT     BB271909  30.379  27.835  40.678
26450DT     BB371910  30.323  27.991  40.801
26450DT     SC171911  30.460  28.163  40.658
26450DT     SC271912  30.630  28.231  40.771
26450DT     SC371913  30.514  28.369  40.502
26451DG     BB171914  30.242  27.651  41.012
26451DG     BB271915  30.447  27.879  41.205
26451DG     BB371916  30.334  28.023  41.281
26451DG     SC171917  30.365  28.210  41.041
26451DG     SC271918  30.509  28.472  41.039
26451DG     SC371919  30.362  28.431  40.786
26451DG     SC471920  30.262  28.197  40.919
26452DT     BB171921  30.308  28.053  41.504
26452DT     BB271922  30.514  28.344  41.560
26452DT     BB371923  30.394  28.511  41.588
26452DT     SC171924  30.339  28.522  41.331
26452DT     SC271925  30.433  28.695  41.246
26452DT     SC371926  30.199  28.518  41.107
26453DA     BB171927  30.659  28.497  41.914
26453DA     BB271928  30.669  28.836  41.774
26453DA     BB371929  30.490  28.943  41.824
26453DA     SC171930  30.337  28.855  41.568
26453DA     SC271931  30.254  28.959  41.357
26453DA     SC371932  30.097  28.757  41.342
26453DA     SC471933  30.247  28.722  41.577
26454DA     BB171934  30.708  29.160  41.940
26454DA     BB271935  30.572  29.397  41.695
26454DA     BB371936  30.383  29.471  41.760
26454DA     SC171937  30.219  29.249  41.619
26454DA     SC271938  30.062  29.229  41.425
26454DA     SC371939  29.985  29.011  41.536
26454DA     SC471940  30.183  29.117  41.704
26455DT     BB171941  30.369  29.667  41.806
26455DT     BB271942  30.189  29.765  41.510
26455DT     BB371943  29.990  29.799  41.556
26455DT     SC171944  29.942  29.541  41.575
26455DT     SC271945  29.818  29.480  41.411
26455DT     SC371946  29.878  29.308  41.679
26456DT     BB171947  30.030  30.064  41.523
26456DT     BB271948  29.769  29.980  41.288
26456DT     BB371949  29.585  29.988  41.382
26456DT     SC171950  29.630  29.762  41.508
26456DT     SC271951  29.501  29.610  41.429
26456DT     SC371952  29.670  29.592  41.705
26457DA     BB171953  29.574  30.211  41.028
26457DA     BB271954  29.285  29.985  41.031
26457DA     BB371955  29.141  30.050  41.174
26457DA     SC171956  29.261  29.881  41.407
26457DA     SC271957  29.198  29.681  41.541
26457DA     SC371958  29.368  29.767  41.712
26457DA     SC471959  29.371  29.952  41.501
26458DC     BB171960  28.983  30.100  41.094
26458DC     BB271961  28.791  29.811  41.194
26458DC     BB371962  28.675  29.857  41.359
26458DC     SC171963  28.884  29.851  41.518
26458DC     SC271964  28.870  29.680  41.648
26458DC     SC371965  29.070  29.932  41.686
26459DA     BB171966  28.452  29.668  41.057
26459DA     BB271967  28.381  29.502  41.377
26459DA     BB371968  28.269  29.631  41.504
26459DA     SC171969  28.520  29.757  41.638
26459DA     SC271970  28.631  29.754  41.862
26459DA     SC371971  28.745  29.971  41.786
26459DA     SC471972  28.579  29.892  41.573
26460DG     BB171973  28.091  29.382  41.477
26460DG     BB271974  28.150  29.364  41.833
26460DG     BB371975  28.041  29.502  41.927
26460DG     SC171976  28.257  29.719  41.909
26460DG     SC271977  28.406  29.837  42.140
26460DG     SC371978  28.462  29.986  41.890
26460DG     SC471979  28.261  29.814  41.781
26461DT     BB171980  27.894  29.438  42.067
26461DT     BB271981  28.042  29.529  42.383
26461DT     BB371982  27.958  29.706  42.452
26461DT     SC171983  28.094  29.847  42.277
26461DT     SC271984  28.243  29.963  42.379
26461DT     SC371985  28.146  30.006  42.073
26462DT     BB171986  27.818  29.572  42.644
26462DT     BB271987  28.006  29.820  42.827
26462DT     BB371988  27.899  29.998  42.834
26462DT     SC171989  27.956  30.050  42.583
26462DT     SC271990  28.091  30.217  42.573
26462DT     SC371991  27.922  30.095  42.325
26463DA     BB171992  27.987  29.916  43.237
26463DA     BB271993  28.081  30.264  43.172
26463DA     BB371994  27.907  30.387  43.161
26463DA     SC171995  27.873  30.352  42.853
26463DA     SC271996  27.897  30.492  42.648
26463DA     SC371997  27.747  30.316  42.536
26463DA     SC471998  27.778  30.233  42.802
26464DG     BB171999  28.017  30.548  43.409
26464DG     BB272000  28.040  30.818  43.169
26464DG     BB372001  27.866  30.913  43.157
26464DG     SC172002  27.755  30.735  42.934
26464DG     SC272003  27.697  30.820  42.654
26464DG     SC372004  27.595  30.547  42.705
26464DG     SC472005  27.676  30.601  42.974
26465DG     BB172006  28.017  31.192  43.244
26465DG     BB272007  27.928  31.314  42.915
26465DG     BB372008  27.743  31.386  42.917
26465DG     SC172009  27.610  31.120  42.846
26465DG     SC272010  27.466  31.058  42.593
26465DG     SC372011  27.431  30.840  42.790
26465DG     SC472012  27.569  31.020  42.964
26466DA     BB172013  27.899  31.653  42.771
26466DA     BB272014  27.684  31.613  42.477
26466DA     BB372015  27.486  31.680  42.520
26466DA     SC172016  27.387  31.401  42.616
26466DA     SC272017  27.232  31.223  42.536
26466DA     SC372018  27.230  31.144  42.780
26466DA     SC472019  27.398  31.368  42.773
26467DT     BB172020  27.453  31.817  42.415
26467DT     BB272021  27.225  31.648  42.192
26467DT     BB372022  27.030  31.682  42.251
26467DT     SC172023  27.053  31.517  42.453
26467DT     SC272024  26.933  31.342  42.416
26467DT     SC372025  27.061  31.428  42.701
26468DA     BB172026  27.095  31.739  41.837
26468DA     BB272027  26.792  31.539  41.884
26468DA     BB372028  26.638  31.656  41.973
26468DA     SC172029  26.717  31.582  42.265
26468DA     SC272030  26.623  31.447  42.453
26468DA     SC372031  26.779  31.585  42.602
26468DA     SC472032  26.820  31.679  42.341
26469DT     BB172033  26.499  31.676  41.859
26469DT     BB272034  26.259  31.469  42.033
26469DT     BB372035  26.138  31.587  42.153
26469DT     SC172036  26.331  31.620  42.328
26469DT     SC272037  26.281  31.515  42.509
26469DT     SC372038  26.513  31.739  42.477
26470DA     BB172039  25.874  31.354  41.920
26470DA     BB272040  25.755  31.345  42.267
26470DA     BB372041  25.670  31.534  42.321
26470DA     SC172042  25.938  31.650  42.429
26470DA     SC272043  26.037  31.713  42.649
26470DA     SC372044  26.200  31.856  42.512
26470DA     SC472045  26.029  31.734  42.326
26471DA     BB172046  25.368  31.398  42.407
26471DA     BB272047  25.414  31.525  42.748
26471DA     BB372048  25.353  31.729  42.760
26471DA     SC172049  25.635  31.842  42.693
26471DA     SC272050  25.818  31.965  42.811
26471DA     SC372051  25.898  32.030  42.576
26471DA     SC472052  25.669  31.872  42.539
26472DT     BB172053  25.156  31.837  42.873
26472DT     BB272054  25.342  31.981  43.147
26472DT     BB372055  25.336  32.188  43.135
26472DT     SC172056  25.508  32.189  42.936
26472DT     SC272057  25.695  32.272  43.003
26472DT     SC372058  25.607  32.225  42.694
26473DA     BB172059  25.185  32.133  43.524
26473DA     BB272060  25.454  32.381  43.551
26473DA     BB372061  25.384  32.573  43.490
26473DA     SC172062  25.464  32.536  43.192
26473DA     SC272063  25.632  32.628  43.033
26473DA     SC372064  25.476  32.542  42.849
26473DA     SC472065  25.352  32.476  43.092
26474DT     BB172066  25.360  32.748  43.629
26474DT     BB272067  25.653  32.926  43.516
26474DT     BB372068  25.596  33.098  43.415
26474DT     SC172069  25.523  32.959  43.204
26474DT     SC272070  25.660  32.997  43.043
26474DT     SC372071  25.370  32.855  43.017
26475DT     BB172072  25.680  33.257  43.623
26475DT     BB272073  25.869  33.375  43.339
26475DT     BB372074  25.763  33.523  43.241
26475DT     SC172075  25.599  33.347  43.137
26475DT     SC272076  25.634  33.333  42.925
26475DT     SC372077  25.375  33.217  43.083
26476DA     BB172078  26.145  33.675  43.317
26476DA     BB272079  26.069  33.738  42.964
26476DA     BB372080  25.928  33.897  42.946
26476DA     SC172081  25.679  33.710  42.954
26476DA     SC272082  25.502  33.632  42.797
26476DA     SC372083  25.369  33.573  43.008
26476DA     SC472084  25.612  33.682  43.097
26477DT     BB172085  25.984  34.079  42.860
26477DT     BB272086  25.809  34.037  42.548
26477DT     BB372087  25.642  34.161  42.543
26477DT     SC172088  25.512  34.005  42.709
26477DT     SC272089  25.351  33.908  42.604
26477DT     SC372090  25.386  33.923  42.926
26478DT     BB172091  25.757  34.341  42.363
26478DT     BB272092  25.449  34.242  42.202
26478DT     BB372093  25.296  34.370  42.258
26478DT     SC172094  25.281  34.260  42.496
26478DT     SC272095  25.096  34.151  42.512
26478DT     SC372096  25.290  34.233  42.758
26479DT     BB172097  25.282  34.513  42.012
26479DT     BB272098  24.946  34.391  42.058
26479DT     BB372099  24.832  34.532  42.157
26479DT     SC172100  24.950  34.478  42.386
26479DT     SC272101  24.810  34.381  42.517
26479DT     SC372102  25.094  34.510  42.604
26480DT     BB172103  24.684  34.609  41.930
26480DT     BB272104  24.433  34.504  42.167
26480DT     BB372105  24.369  34.666  42.279
26480DT     SC172106  24.591  34.667  42.419
26480DT     SC272107  24.548  34.605  42.621
26480DT     SC372108  24.821  34.748  42.520
26481DG     BB172109  24.043  34.506  42.095
26481DG     BB272110  23.996  34.530  42.453
26481DG     BB372111  23.952  34.718  42.503
26481DG     SC172112  24.244  34.802  42.543
26481DG     SC272113  24.370  34.878  42.802
26481DG     SC372114  24.552  34.933  42.576
26481DG     SC472115  24.326  34.857  42.417
26482DT     BB172116  23.764  34.754  42.596
26482DT     BB272117  23.863  34.809  42.938
26482DT     BB372118  23.864  35.011  42.980
26482DT     SC172119  24.087  35.046  42.845
26482DT     SC272120  24.247  35.092  42.981
26482DT     SC372121  24.254  35.132  42.660
26483DG     BB172122  23.617  34.822  43.243
26483DG     BB272123  23.864  35.026  43.413
26483DG     BB372124  23.813  35.218  43.401
26483DG     SC172125  23.964  35.267  43.139
26483DG     SC272126  24.204  35.441  43.105
26483DG     SC372127  24.101  35.351  42.843
26483DG     SC472128  23.888  35.241  43.000
26484DT     BB172129  23.774  35.325  43.582
26484DT     BB272130  24.071  35.528  43.611
26484DT     BB372131  24.030  35.721  43.549
26484DT     SC172132  24.029  35.648  43.297
26484DT     SC272133  24.202  35.731  43.198
26484DT     SC372134  23.942  35.603  43.052
26485DT     BB172135  24.045  35.803  43.806
26485DT     BB272136  24.292  36.000  43.633
26485DT     BB372137  24.203  36.169  43.551
26485DT     SC172138  24.091  36.027  43.361
26485DT     SC272139  24.184  36.075  43.173
26485DT     SC372140  23.905  35.915  43.212
26486DC     BB172141  24.332  36.312  43.736
26486DC     BB272142  24.441  36.447  43.420
26486DC     BB372143  24.305  36.588  43.353
26486DC     SC172144  24.133  36.402  43.285
26486DC     SC272145  24.118  36.393  43.071
26486DC     SC372146  23.912  36.258  43.282
26487DT     BB172147  24.497  36.760  43.405
26487DT     BB272148  24.424  36.801  43.054
26487DT     BB372149  24.259  36.924  43.030
26487DT     SC172150  24.095  36.734  43.106
26487DT     SC272151  23.979  36.668  42.938
26487DT     SC372152  23.917  36.602  43.249
26488DC     BB172153  24.440  37.084  42.933
26488DC     BB272154  24.198  37.039  42.669
26488DC     BB372155  24.034  37.161  42.702
26488DC     SC172156  23.947  37.005  42.894
26488DC     SC272157  23.767  36.906  42.829
26488DC     SC372158  23.874  36.923  43.134
26489DC     BB172159  24.134  37.273  42.492
26489DC     BB272160  23.794  37.186  42.407
26489DC     BB372161  23.663  37.323  42.490
26489DC     SC172162  23.695  37.221  42.729
26489DC     SC272163  23.514  37.122  42.789
26489DC     SC372164  23.761  37.200  42.984
26490DG     BB172165  23.610  37.283  42.086
26490DG     BB272166  23.299  37.254  42.268
26490DG     BB372167  23.244  37.433  42.337
26490DG     SC172168  23.394  37.404  42.602
26490DG     SC272169  23.269  37.383  42.873
26490DG     SC372170  23.562  37.414  42.894
26490DG     SC472171  23.547  37.451  42.611
26491DA     BB172172  22.937  37.361  42.188
26491DA     BB272173  22.771  37.410  42.511
26491DA     BB372174  22.768  37.617  42.562
26491DA     SC172175  23.038  37.609  42.716
26491DA     SC272176  23.116  37.626  42.952
26491DA     SC372177  23.345  37.682  42.850
26491DA     SC472178  23.172  37.643  42.634
26492DA     BB172179  22.442  37.564  42.594
26492DA     BB272180  22.476  37.673  42.942
26492DA     BB372181  22.500  37.885  42.952
26492DA     SC172182  22.811  37.874  42.938
26492DA     SC272183  23.004  37.918  43.089
26492DA     SC372184  23.142  37.938  42.874
26492DA     SC472185  22.879  37.884  42.793
26493DA     BB172186  22.240  37.877  43.159
26493DA     BB272187  22.459  38.023  43.415
26493DA     BB372188  22.487  38.231  43.378
26493DA     SC172189  22.740  38.190  43.201
26493DA     SC272190  22.986  38.234  43.217
26493DA     SC372191  22.985  38.216  42.961
26493DA     SC472192  22.719  38.177  43.043
26494DT     BB172193  22.410  38.387  43.507
26494DT     BB272194  22.725  38.482  43.655
26494DT     BB372195  22.785  38.666  43.580
26494DT     SC172196  22.854  38.559  43.351
26494DT     SC272197  23.068  38.564  43.331
26494DT     SC372198  22.857  38.507  43.092
26495DA     BB172199  22.793  38.731  43.997
26495DA     BB272200  23.113  38.848  43.863
26495DA     BB372201  23.088  39.036  43.765
26495DA     SC172202  23.031  38.911  43.486
26495DA     SC272203  23.144  38.893  43.264
26495DA     SC372204  22.911  38.844  43.171
26495DA     SC472205  22.877  38.883  43.447
26496DA     BB172206  23.325  39.163  43.966
26496DA     BB272207  23.528  39.222  43.666
26496DA     BB372208  23.466  39.401  43.569
26496DA     SC172209  23.259  39.258  43.386
26496DA     SC272210  23.233  39.203  43.144
26496DA     SC372211  22.983  39.177  43.197
26496DA     SC472212  23.107  39.248  43.438
26497DA     BB172213  23.781  39.510  43.594
26497DA     BB272214  23.795  39.504  43.227
26497DA     BB372215  23.705  39.680  43.146
26497DA     SC172216  23.421  39.555  43.125
26497DA     SC272217  23.265  39.480  42.946
26497DA     SC372218  23.082  39.501  43.124
26497DA     SC472219  23.322  39.575  43.250
26498DG     BB172220  23.984  39.754  43.020
26498DG     BB272221  23.809  39.685  42.711
26498DG     BB372222  23.718  39.849  42.647
26498DG     SC172223  23.458  39.792  42.798
26498DG     SC272224  23.193  39.728  42.675
26498DG     SC372225  23.166  39.772  42.966
26498DG     SC472226  23.442  39.845  42.948
26499DG     BB172227  23.892  39.821  42.374
26499DG     BB272228  23.575  39.754  42.214
26499DG     BB372229  23.485  39.925  42.166
26499DG     SC172230  23.337  39.949  42.433
26499DG     SC272231  23.041  39.932  42.471
26499DG     SC372232  23.175  40.019  42.720
26499DG     SC472233  23.408  40.024  42.555
26500DT     BB172234  23.453  39.928  41.976
26500DT     BB272235  23.100  39.856  41.966
26500DT     BB372236  22.992  40.031  41.951
26500DT     SC172237  23.036  40.090  42.203
26500DT     SC272238  22.852  40.073  42.313
26500DT     SC372239  23.123  40.217  42.417
26501DT     BB172240  22.949  39.908  41.730
26501DT     BB272241  22.628  39.950  41.888
26501DT     BB372242  22.563  40.145  41.866
26501DT     SC172243  22.732  40.230  42.048
26501DT     SC272244  22.624  40.291  42.223
26501DT     SC372245  22.934  40.359  42.158
26502DT     BB172246  22.397  40.006  41.729
26502DT     BB272247  22.201  40.187  41.972
26502DT     BB372248  22.185  40.385  41.916
26502DT     SC172249  22.432  40.434  41.987
26502DT     SC272250  22.433  40.560  42.162
26502DT     SC372251  22.687  40.499  41.970
26503DA     BB172252  21.811  40.220  42.019
26503DA     BB272253  21.843  40.548  42.181
26503DA     BB372254  21.838  40.703  42.034
26503DA     SC172255  22.146  40.707  41.992
26503DA     SC272256  22.337  40.859  42.041
26503DA     SC372257  22.462  40.729  41.859
26503DA     SC472258  22.206  40.615  41.875
26504DA     BB172259  21.601  40.811  42.236
26504DA     BB272260  21.800  41.116  42.275
26504DA     BB372261  21.790  41.235  42.099
26504DA     SC172262  22.038  41.104  41.966
26504DA     SC272263  22.272  41.169  41.908
26504DA     SC372264  22.264  40.972  41.743
26504DA     SC472265  22.013  40.979  41.869
26505DA     BB172266  21.692  41.474  42.305
26505DA     BB272267  21.986  41.665  42.199
26505DA     BB372268  21.953  41.752  42.007
26505DA     SC172269  22.069  41.509  41.850
26505DA     SC272270  22.269  41.458  41.711
26505DA     SC372271  22.130  41.263  41.619
26505DA     SC472272  21.966  41.395  41.804
26506DA     BB172273  22.035  42.029  42.163
26506DA     BB272274  22.318  42.055  41.931
26506DA     BB372275  22.251  42.124  41.741
26506DA     SC172276  22.201  41.839  41.628
26506DA     SC272277  22.301  41.688  41.457
26506DA     SC372278  22.076  41.566  41.462
26506DA     SC472279  22.053  41.778  41.644
26507DA     BB172280  22.490  42.336  41.806
26507DA     BB272281  22.655  42.211  41.504
26507DA     BB372282  22.556  42.285  41.330
26507DA     SC172283  22.361  42.043  41.309
26507DA     SC272284  22.325  41.848  41.158
26507DA     SC372285  22.088  41.841  41.257
26507DA     SC472286  22.218  42.056  41.381
26508DA     BB172287  22.870  42.357  41.284
26508DA     BB272288  22.848  42.152  40.981
26508DA     BB372289  22.730  42.251  40.833
26508DA     SC172290  22.463  42.121  40.925
26508DA     SC272291  22.299  41.954  40.839
26508DA     SC372292  22.134  42.060  41.004
26508DA     SC472293  22.374  42.202  41.033
26509DC     BB172294  22.833  42.288  40.693
26509DC     BB272295  22.692  42.050  40.462
26509DC     BB372296  22.549  42.142  40.344
26509DC     SC172297  22.377  42.145  40.543
26509DC     SC272298  22.217  42.007  40.501
26509DC     SC372299  22.215  42.237  40.729
26510DA     BB172300  22.814  41.935  40.089
26510DA     BB272301  22.472  41.867  39.977
26510DA     BB372302  22.386  42.042  39.890
26510DA     SC172303  22.265  42.145  40.157
26510DA     SC272304  22.039  42.173  40.258
26510DA     SC372305  22.152  42.340  40.416
26510DA     SC472306  22.354  42.246  40.244
26511DT     BB172307  22.342  42.065  39.676
26511DT     BB272308  21.982  42.055  39.697
26511DT     BB372309  21.903  42.244  39.665
26511DT     SC172310  21.977  42.323  39.904
26511DT     SC272311  21.803  42.353  40.027
26511DT     SC372312  22.102  42.459  40.093
26512DA     BB172313  21.693  42.037  39.361
26512DA     BB272314  21.444  42.240  39.539
26512DA     BB372315  21.456  42.444  39.475
26512DA     SC172316  21.662  42.526  39.693
26512DA     SC272317  21.666  42.666  39.899
26512DA     SC372318  21.920  42.670  39.867
26512DA     SC472319  21.818  42.517  39.655
26513DC     BB172320  21.298  42.576  39.342
26513DC     BB272321  21.174  42.776  39.615
26513DC     BB372322  21.231  42.973  39.590
26513DC     SC172323  21.478  42.918  39.661
26513DC     SC272324  21.519  43.008  39.852
26513DC     SC372325  21.740  42.890  39.647
26514DA     BB172326  20.813  43.032  39.616
26514DA     BB272327  20.965  43.267  39.852
26514DA     BB372328  21.038  43.439  39.748
26514DA     SC172329  21.322  43.320  39.702
26514DA     SC272330  21.554  43.360  39.783
26514DA     SC372331  21.628  43.235  39.572
26514DA     SC472332  21.348  43.241  39.564
26515DA     BB172333  20.850  43.637  39.944
26515DA     BB272334  21.161  43.782  40.075
26515DA     BB372335  21.232  43.935  39.944
26515DA     SC172336  21.407  43.742  39.774
26515DA     SC272337  21.650  43.699  39.736
26515DA     SC372338  21.575  43.584  39.519
26515DA     SC472339  21.341  43.677  39.643
26516DA     BB172340  21.226  44.136  40.207
26516DA     BB272341  21.590  44.163  40.175
26516DA     BB372342  21.641  44.305  40.025
26516DA     SC172343  21.648  44.097  39.794
26516DA     SC272344  21.819  43.990  39.647
26516DA     SC372345  21.622  43.936  39.492
26516DA     SC472346  21.513  44.074  39.711
26517DT     BB172347  21.741  44.489  40.075
26517DT     BB272348  22.066  44.384  39.958
26517DT     BB372349  22.116  44.487  39.786
26517DT     SC172350  21.950  44.342  39.643
26517DT     SC272351  22.061  44.214  39.511
26517DT     SC372352  21.745  44.279  39.490
26518DC     BB172353  22.301  44.628  39.925
26518DC     BB272354  22.488  44.459  39.667
26518DC     BB372355  22.491  44.574  39.495
26518DC     SC172356  22.241  44.514  39.441
26518DC     SC272357  22.234  44.387  39.267
26518DC     SC372358  21.982  44.543  39.399
26519DT     BB172359  22.747  44.604  39.551
26519DT     BB272360  22.737  44.449  39.226
26519DT     BB372361  22.711  44.593  39.080
26519DT     SC172362  22.458  44.621  39.142
26519DT     SC272363  22.335  44.543  38.984
26519DT     SC372364  22.233  44.733  39.226
26520DA     BB172365  23.014  44.311  39.006
26520DA     BB272366  22.801  44.339  38.709
26520DA     BB372367  22.825  44.531  38.618
26520DA     SC172368  22.595  44.664  38.780
26520DA     SC272369  22.366  44.753  38.737
26520DA     SC372370  22.397  44.882  38.957
26520DA     SC472371  22.634  44.737  38.918
26521DT     BB172372  22.895  44.509  38.455
26521DT     BB272373  22.603  44.593  38.261
26521DT     BB372374  22.614  44.790  38.199
26521DT     SC172375  22.557  44.878  38.439
26521DT     SC272376  22.360  44.966  38.438
26521DT     SC372377  22.583  45.000  38.671
26522DA     BB172378  22.519  44.541  37.875
26522DA     BB272379  22.300  44.834  37.860
26522DA     BB372380  22.411  45.007  37.803
26522DA     SC172381  22.480  45.089  38.095
26522DA     SC272382  22.419  45.270  38.256
26522DA     SC372383  22.634  45.204  38.380
26522DA     SC472384  22.618  45.034  38.157
26523DT     BB172385  22.378  45.096  37.620
26523DT     BB272386  22.220  45.399  37.734
26523DT     BB372387  22.352  45.558  37.719
26523DT     SC172388  22.487  45.475  37.929
26523DT     SC272389  22.456  45.612  38.092
26523DT     SC372390  22.686  45.385  38.076
26524DG     BB172391  22.061  45.697  37.460
26524DG     BB272392  22.152  45.959  37.692
26524DG     BB372393  22.313  46.055  37.626
26524DG     SC172394  22.511  45.870  37.769
26524DG     SC272395  22.691  45.947  37.995
26524DG     SC372396  22.756  45.676  37.896
26524DG     SC472397  22.562  45.738  37.694
26525DA     BB172398  22.192  46.403  37.611
26525DA     BB272399  22.443  46.518  37.852
26525DA     BB372400  22.624  46.570  37.751
26525DA     SC172401  22.748  46.286  37.776
26525DA     SC272402  22.934  46.176  37.900
26525DA     SC372403  22.918  45.992  37.721
26525DA     SC472404  22.723  46.183  37.655
26526DA     BB172405  22.648  46.905  37.855
26526DA     BB272406  22.958  46.825  38.033
26526DA     BB372407  23.127  46.851  37.905
26526DA     SC172408  23.124  46.558  37.801
26526DA     SC272409  23.265  46.353  37.823
26526DA     SC372410  23.148  46.274  37.609
26526DA     SC472411  23.041  46.527  37.667
26527DT     BB172412  23.324  47.028  37.904
26527DT     BB272413  23.567  46.800  38.043
26527DT     BB372414  23.722  46.771  37.909
26527DT     SC172415  23.572  46.618  37.757
26527DT     SC272416  23.643  46.415  37.770
26527DT     SC372417  23.438  46.531  37.548
26528DT     BB172418  23.927  46.930  38.043
26528DT     BB272419  24.070  46.599  38.027
26528DT     BB372420  24.194  46.584  37.862
26528DT     SC172421  23.989  46.571  37.699
26528DT     SC272422  23.976  46.373  37.616
26528DT     SC372423  23.820  46.635  37.507
26529DT     BB172424  24.407  46.578  38.031
26529DT     BB272425  24.419  46.265  37.853
26529DT     BB372426  24.530  46.286  37.679
26529DT     SC172427  24.335  46.416  37.562
26529DT     SC272428  24.251  46.294  37.406
26529DT     SC372429  24.202  46.612  37.445
26530DA     BB172430  24.612  45.951  37.917
26530DA     BB272431  24.569  45.843  37.569
26530DA     BB372432  24.731  45.914  37.449
26530DA     SC172433  24.589  46.180  37.372
26530DA     SC272434  24.488  46.282  37.168
26530DA     SC372435  24.517  46.505  37.291
26530DA     SC472436  24.616  46.308  37.464
26531DT     BB172437  24.764  45.768  37.412
26531DT     BB272438  24.669  45.788  37.065
26531DT     BB372439  24.820  45.880  36.956
26531DT     SC172440  24.756  46.116  37.052
26531DT     SC272441  24.670  46.236  36.895
26531DT     SC372442  24.776  46.345  37.182
26532DT     BB172443  24.819  45.640  36.867
26532DT     BB272444  24.775  45.854  36.580
26532DT     BB372445  24.954  45.945  36.533
26532DT     SC172446  24.933  46.110  36.736
26532DT     SC272447  24.897  46.309  36.664
26532DT     SC372448  24.987  46.230  36.965
26533DC     BB172449  24.956  45.787  36.322
26533DC     BB272450  24.991  46.120  36.188
26533DC     BB372451  25.188  46.181  36.201
26533DC     SC172452  25.168  46.219  36.460
26533DC     SC272453  25.178  46.430  36.502
26533DC     SC372454  25.210  46.191  36.719
26534DA     BB172455  25.076  46.242  35.800
26534DA     BB272456  25.244  46.546  35.917
26534DA     BB372457  25.453  46.513  35.936
26534DA     SC172458  25.437  46.422  36.233
26534DA     SC272459  25.505  46.509  36.457
26534DA     SC372460  25.486  46.265  36.535
26534DA     SC472461  25.421  46.264  36.262
26535DA     BB172462  25.476  46.777  35.739
26535DA     BB272463  25.656  46.942  36.012
26535DA     BB372464  25.857  46.870  36.023
26535DA     SC172465  25.789  46.641  36.222
26535DA     SC272466  25.834  46.586  36.461
26535DA     SC372467  25.778  46.344  36.395
26535DA     SC472468  25.753  46.497  36.161
26536DA     BB172469  25.916  47.192  36.004
26536DA     BB272470  26.073  47.160  36.334
26536DA     BB372471  26.264  47.066  36.317
26536DA     SC172472  26.152  46.778  36.356
26536DA     SC272473  26.160  46.599  36.529
26536DA     SC372474  26.094  46.440  36.339
26536DA     SC472475  26.112  46.695  36.224
26537DT     BB172476  26.405  47.178  36.366
26537DT     BB272477  26.479  47.022  36.682
26537DT     BB372478  26.642  46.895  36.662
26537DT     SC172479  26.497  46.716  36.537
26537DT     SC272480  26.472  46.543  36.663
26537DT     SC372481  26.411  46.557  36.345
26538DG     BB172482  26.703  47.169  36.958
26538DG     BB272483  26.762  46.831  37.072
26538DG     BB372484  26.934  46.764  36.998
26538DG     SC172485  26.807  46.648  36.744
26538DG     SC272486  26.789  46.359  36.673
26538DG     SC372487  26.705  46.529  36.446
26538DG     SC472488  26.792  46.743  36.615
26539DA     BB172489  26.999  46.681  37.329
26539DA     BB272490  27.048  46.331  37.229
26539DA     BB372491  27.231  46.310  37.121
26539DA     SC172492  27.101  46.359  36.843
26539DA     SC272493  27.049  46.227  36.637
26539DA     SC372494  27.037  46.455  36.519
26539DA     SC472495  27.099  46.510  36.787
26540DA     BB172496  27.294  46.075  37.349
26540DA     BB272497  27.322  45.838  37.071
26540DA     BB372498  27.506  45.867  36.966
26540DA     SC172499  27.387  46.071  36.764
26540DA     SC272500  27.331  46.079  36.521
26540DA     SC372501  27.338  46.334  36.549
26540DA     SC472502  27.397  46.227  36.802
26541DT     BB172503  27.685  45.724  36.962
26541DT     BB272504  27.639  45.606  36.624
26541DT     BB372505  27.791  45.679  36.503
26541DT     SC172506  27.684  45.918  36.500
26541DT     SC272507  27.607  45.960  36.304
26541DT     SC372508  27.655  46.178  36.539
26542DG     BB172509  27.848  45.274  36.466
26542DG     BB272510  27.824  45.429  36.140
26542DG     BB372511  28.000  45.506  36.089
26542DG     SC172512  27.945  45.780  36.215
26542DG     SC272513  27.911  46.037  36.068
26542DG     SC372514  27.925  46.084  36.360
26542DG     SC472515  27.982  45.803  36.369
26543DT     BB172516  28.131  45.436  35.906
26543DT     BB272517  28.072  45.706  35.674
26543DT     BB372518  28.241  45.825  35.659
26543DT     SC172519  28.194  45.933  35.894
26543DT     SC272520  28.136  46.139  35.867
26543DT     SC372521  28.225  46.001  36.146
26544DG     BB172522  28.174  45.693  35.279
26544DG     BB272523  28.204  46.053  35.288
26544DG     BB372524  28.396  46.105  35.295
26544DG     SC172525  28.409  46.103  35.601
26544DG     SC272526  28.451  46.342  35.776
26544DG     SC372527  28.465  46.092  35.934
26544DG     SC472528  28.446  45.967  35.677
26545DT     BB172529  28.502  46.224  35.130
26545DT     BB272530  28.530  46.549  35.285
26545DT     BB372531  28.725  46.582  35.345
26545DT     SC172532  28.699  46.418  35.548
26545DT     SC272533  28.701  46.531  35.732
26545DT     SC372534  28.736  46.210  35.706
26546DT     BB172535  28.787  46.765  35.139
26546DT     BB272536  28.862  46.948  35.441
26546DT     BB372537  29.060  46.918  35.494
26546DT     SC172538  29.009  46.675  35.579
26546DT     SC272539  29.028  46.670  35.794
26546DT     SC372540  29.015  46.412  35.597
26547DA     BB172541  29.040  47.340  35.477
26547DA     BB272542  29.191  47.252  35.799
26547DA     BB372543  29.396  47.198  35.773
26547DA     SC172544  29.337  46.896  35.732
26547DA     SC272545  29.372  46.682  35.857
26547DA     SC372546  29.340  46.568  35.629
26547DA     SC472547  29.316  46.844  35.582
26548DA     BB172548  29.484  47.436  35.992
26548DA     BB272549  29.601  47.168  36.213
26548DA     BB372550  29.799  47.109  36.160
26548DA     SC172551  29.706  46.888  35.961
26548DA     SC272552  29.707  46.639  35.948
26548DA     SC372553  29.678  46.673  35.695
26548DA     SC472554  29.689  46.930  35.806
26549DA     BB172555  29.862  47.176  36.472
26549DA     BB272556  29.925  46.818  36.514
26549DA     BB372557  30.122  46.768  36.448
26549DA     SC172558  30.034  46.707  36.156
26549DA     SC272559  30.013  46.507  36.008
26549DA     SC372560  30.019  46.675  35.814
26549DA     SC472561  30.041  46.827  36.049
26550DA     BB172562  30.075  46.658  36.742
26550DA     BB272563  30.109  46.327  36.589
26550DA     BB372564  30.312  46.292  36.533
26550DA     SC172565  30.279  46.408  36.246
26550DA     SC272566  30.276  46.322  36.012
26550DA     SC372567  30.326  46.565  35.945
26550DA     SC472568  30.312  46.564  36.225
26551DT     BB172569  30.312  46.167  36.624
26551DT     BB272570  30.305  45.924  36.357
26551DT     BB372571  30.497  45.893  36.286
26551DT     SC172572  30.496  46.123  36.160
26551DT     SC272573  30.490  46.088  35.948
26551DT     SC372574  30.562  46.369  36.093
26552DT     BB172575  30.398  45.682  36.387
26552DT     BB272576  30.481  45.607  36.044
26552DT     BB372577  30.687  45.603  36.021
26552DT     SC172578  30.701  45.865  36.032
26552DT     SC272579  30.754  45.942  35.838
26552DT     SC372580  30.762  46.106  36.117
26553DA     BB172581  30.468  45.285  35.841
26553DA     BB272582  30.719  45.410  35.605
26553DA     BB372583  30.916  45.373  35.679
26553DA     SC172584  30.937  45.645  35.828
26553DA     SC272585  31.065  45.858  35.806
26553DA     SC372586  31.007  45.895  36.053
26553DA     SC472587  30.893  45.649  35.982
26554DA     BB172588  30.917  45.255  35.371
26554DA     BB272589  31.199  45.482  35.313
26554DA     BB372590  31.370  45.418  35.424
26554DA     SC172591  31.301  45.587  35.676
26554DA     SC272592  31.390  45.788  35.793
26554DA     SC372593  31.260  45.702  35.997
26554DA     SC472594  31.214  45.517  35.791
26555DG     BB172595  31.498  45.401  35.141
26555DG     BB272596  31.720  45.653  35.275
26555DG     BB372597  31.858  45.567  35.389
26555DG     SC172598  31.693  45.586  35.646
26555DG     SC272599  31.757  45.755  35.884
26555DG     SC372600  31.532  45.573  35.942
26555DG     SC472601  31.593  45.467  35.683
26556DA     BB172602  32.101  45.736  35.203
26556DA     BB272603  32.224  45.900  35.506
26556DA     BB372604  32.340  45.763  35.622
26556DA     SC172605  32.098  45.662  35.790
26556DA     SC272606  32.016  45.679  36.025
26556DA     SC372607  31.876  45.472  35.969
26556DA     SC472608  32.020  45.532  35.736
26557DC     BB172609  32.541  45.795  35.645
26557DC     BB272610  32.530  45.903  35.989
26557DC     BB372611  32.600  45.752  36.113
26557DC     SC172612  32.377  45.616  36.084
26557DC     SC272613  32.268  45.617  36.269
26557DC     SC372614  32.213  45.420  36.018
26558DT     BB172615  32.829  45.890  36.159
26558DT     BB272616  32.693  45.832  36.488
26558DT     BB372617  32.756  45.648  36.559
26558DT     SC172618  32.590  45.521  36.399
26558DT     SC272619  32.434  45.431  36.516
26558DT     SC372620  32.503  45.364  36.207
26559DA     BB172621  32.851  45.926  36.859
26559DA     BB272622  32.679  45.644  37.018
26559DA     BB372623  32.808  45.474  37.028
26559DA     SC172624  32.717  45.359  36.754
26559DA     SC272625  32.587  45.164  36.670
26559DA     SC372626  32.704  45.207  36.446
26559DA     SC472627  32.801  45.401  36.624
26560DT     BB172628  32.875  45.405  37.210
26560DT     BB272629  32.669  45.110  37.224
26560DT     BB372630  32.783  44.942  37.185
26560DT     SC172631  32.794  44.999  36.929
26560DT     SC272632  32.678  44.855  36.819
26560DT     SC372633  32.892  45.062  36.692
26561DT     BB172634  32.792  44.849  37.452
26561DT     BB272635  32.659  44.568  37.269
26561DT     BB372636  32.813  44.445  37.207
26561DT     SC172637  32.884  44.614  37.019
26561DT     SC272638  32.838  44.529  36.826
26561DT     SC372639  33.029  44.785  36.881
26562DC     BB172640  32.766  44.238  37.396
26562DC     BB272641  32.748  44.069  37.077
26562DC     BB372642  32.934  43.996  37.026
26562DC     SC172643  33.021  44.236  36.964
26562DC     SC272644  33.048  44.249  36.751
26562DC     SC372645  33.163  44.457  36.971
26563DC     BB172646  32.867  43.728  37.077
26563DC     BB272647  32.969  43.730  36.731
26563DC     BB372648  33.172  43.692  36.717
26563DC     SC172649  33.231  43.934  36.800
26563DC     SC272650  33.315  44.047  36.637
26563DC     SC372651  33.325  44.129  36.950
26564DG     BB172652  32.981  43.406  36.500
26564DG     BB272653  33.228  43.581  36.301
26564DG     BB372654  33.409  43.511  36.342
26564DG     SC172655  33.462  43.710  36.569
26564DG     SC272656  33.665  43.928  36.567
26564DG     SC372657  33.544  43.900  36.835
26564DG     SC472658  33.416  43.672  36.718
26565DG     BB172659  33.415  43.455  36.026
26565DG     BB272660  33.687  43.693  36.018
26565DG     BB372661  33.856  43.605  36.074
26565DG     SC172662  33.818  43.669  36.371
26565DG     SC272663  33.988  43.854  36.534
26565DG     SC372664  33.799  43.705  36.706
26565DG     SC472665  33.737  43.567  36.463
26566DA     BB172666  33.941  43.769  35.787
26566DA     BB272667  34.199  43.948  35.976
26566DA     BB372668  34.355  43.814  36.034
26566DA     SC172669  34.223  43.740  36.307
26566DA     SC272670  34.266  43.780  36.549
26566DA     SC372671  34.113  43.578  36.588
26566DA     SC472672  34.126  43.612  36.310
26567DA     BB172673  34.486  44.080  35.895
26567DA     BB272674  34.672  44.116  36.209
26567DA     BB372675  34.809  43.954  36.233
26567DA     SC172676  34.607  43.774  36.387
26567DA     SC272677  34.577  43.688  36.619
26567DA     SC372678  34.426  43.510  36.512
26567DA     SC472679  34.518  43.672  36.301
26568DA     BB172680  34.983  44.230  36.283
26568DA     BB272681  35.072  44.082  36.607
26568DA     BB372682  35.194  43.909  36.579
26568DA     SC172683  34.954  43.712  36.568
26568DA     SC272684  34.858  43.531  36.711
26568DA     SC372685  34.742  43.452  36.496
26568DA     SC472686  34.892  43.678  36.424
26569DG     BB172687  35.408  44.066  36.747
26569DG     BB272688  35.379  43.784  36.971
26569DG     BB372689  35.486  43.631  36.903
26569DG     SC172690  35.258  43.513  36.736
26569DG     SC272691  35.121  43.253  36.786
26569DG     SC372692  35.036  43.369  36.528
26569DG     SC472693  35.237  43.564  36.586
26570DA     BB172694  35.684  43.581  37.202
26570DA     BB272695  35.569  43.234  37.232
26570DA     BB372696  35.679  43.107  37.100
26570DA     SC172697  35.480  43.140  36.863
26570DA     SC272698  35.313  43.000  36.741
26570DA     SC372699  35.337  43.173  36.553
26570DA     SC472700  35.509  43.257  36.757
26571DT     BB172701  35.861  42.923  37.137
26571DT     BB272702  35.649  42.642  37.063
26571DT     BB372703  35.715  42.546  36.892
26571DT     SC172704  35.620  42.737  36.739
26571DT     SC272705  35.453  42.662  36.627
26571DT     SC372706  35.614  42.937  36.567
26572DC     BB172707  35.854  42.301  36.999
26572DC     BB272708  35.610  42.163  36.772
26572DC     BB372709  35.697  42.125  36.589
26572DC     SC172710  35.700  42.380  36.529
26572DC     SC272711  35.558  42.418  36.371
26572DC     SC372712  35.791  42.621  36.469
26573DT     BB172713  35.709  41.841  36.612
26573DT     BB272714  35.513  41.894  36.315
26573DT     BB372715  35.636  41.894  36.148
26573DT     SC172716  35.728  42.133  36.206
26573DT     SC272717  35.656  42.274  36.061
26573DT     SC372718  35.897  42.325  36.271
26574DA     BB172719  35.324  41.624  36.078
26574DA     BB272720  35.344  41.851  35.791
26574DA     BB372721  35.513  41.804  35.670
26574DA     SC172722  35.705  41.997  35.820
26574DA     SC272723  35.824  42.211  35.774
26574DA     SC372724  35.978  42.143  35.969
26574DA     SC472725  35.790  41.936  35.943
26575DG     BB172726  35.288  41.766  35.464
26575DG     BB272727  35.452  42.046  35.304
26575DG     BB372728  35.611  41.982  35.203
26575DG     SC172729  35.804  42.012  35.438
26575DG     SC272730  36.029  42.207  35.456
26575DG     SC372731  36.039  42.014  35.680
26575DG     SC472732  35.823  41.890  35.539
26576DG     BB172733  35.468  42.122  34.945
26576DG     BB272734  35.760  42.335  34.932
26576DG     BB372735  35.910  42.240  34.843
26576DG     SC172736  36.019  42.120  35.103
26576DG     SC272737  36.281  42.186  35.230
26576DG     SC372738  36.154  41.955  35.365
26576DG     SC472739  35.962  41.978  35.153
26577DT     BB172740  35.993  42.315  34.656
26577DT     BB272741  36.310  42.451  34.765
26577DT     BB372742  36.463  42.320  34.716
26577DT     SC172743  36.395  42.156  34.909
26577DT     SC272744  36.547  42.160  35.062
26577DT     SC372745  36.313  41.938  35.032
26578DA     BB172746  36.582  42.689  34.553
26578DA     BB272747  36.867  42.555  34.740
26578DA     BB372748  36.959  42.396  34.632
26578DA     SC172749  36.785  42.173  34.761
26578DA     SC272750  36.815  41.984  34.921
26578DA     SC372751  36.598  41.891  34.821
26578DA     SC472752  36.649  42.131  34.685
26579DA     BB172753  37.239  42.571  34.661
26579DA     BB272754  37.376  42.290  34.853
26579DA     BB372755  37.439  42.135  34.722
26579DA     SC172756  37.165  41.987  34.725
26579DA     SC272757  37.071  41.774  34.815
26579DA     SC372758  36.884  41.808  34.642
26579DA     SC472759  37.059  42.025  34.610
26580DT     BB172760  37.644  42.083  34.702
26580DT     BB272761  37.626  41.780  34.897
26580DT     BB372762  37.642  41.615  34.773
26580DT     SC172763  37.398  41.647  34.684
26580DT     SC272764  37.274  41.487  34.757
26580DT     SC372765  37.198  41.692  34.518
26581DT     BB172766  37.892  41.567  34.871
26581DT     BB272767  37.705  41.266  34.942
26581DT     BB372768  37.716  41.137  34.781
26581DT     SC172769  37.547  41.283  34.643
26581DT     SC272770  37.361  41.177  34.621
26581DT     SC372771  37.452  41.438  34.452
26582DA     BB172772  37.815  40.934  35.133
26582DA     BB272773  37.566  40.735  34.953
26582DA     BB372774  37.653  40.645  34.780
26582DA     SC172775  37.582  40.883  34.592
26582DA     SC272776  37.427  40.927  34.401
26582DA     SC372777  37.583  41.123  34.347
26582DA     SC472778  37.692  40.999  34.574
26583DA     BB172779  37.516  40.390  34.932
26583DA     BB272780  37.317  40.346  34.627
26583DA     BB372781  37.439  40.271  34.469
26583DA     SC172782  37.516  40.553  34.362
26583DA     SC272783  37.470  40.693  34.162
26583DA     SC372784  37.681  40.822  34.229
26583DA     SC472785  37.651  40.619  34.419
26584DT     BB172786  37.400  40.086  34.402
26584DT     BB272787  37.251  40.182  34.088
26584DT     BB372788  37.385  40.150  33.933
26584DT     SC172789  37.526  40.360  34.001
26584DT     SC272790  37.503  40.513  33.852
26584DT     SC372791  37.729  40.506  34.084
26585DT     BB172792  37.241  39.933  33.845
26585DT     BB272793  37.259  40.151  33.558
26585DT     BB372794  37.432  40.113  33.451
26585DT     SC172795  37.580  40.234  33.631
26585DT     SC272796  37.657  40.417  33.548
26585DT     SC372797  37.762  40.272  33.818
26586DA     BB172798  37.120  40.088  33.172
26586DA     BB272799  37.378  40.307  33.031
26586DA     BB372800  37.544  40.191  32.963
26586DA     SC172801  37.697  40.207  33.234
26586DA     SC272802  37.902  40.316  33.324
26586DA     SC372803  37.889  40.140  33.510
26586DA     SC472804  37.672  40.089  33.340
26587DA     BB172805  37.483  40.354  32.686
26587DA     BB272806  37.819  40.498  32.719
26587DA     BB372807  37.967  40.356  32.662
26587DA     SC172808  38.001  40.240  32.948
26587DA     SC272809  38.175  40.239  33.128
26587DA     SC372810  38.051  40.034  33.219
26587DA     SC472811  37.911  40.113  32.988
26588DA     BB172812  38.044  40.615  32.481
26588DA     BB272813  38.365  40.614  32.656
26588DA     BB372814  38.487  40.452  32.588
26588DA     SC172815  38.384  40.251  32.801
26588DA     SC272816  38.472  40.135  33.004
26588DA     SC372817  38.279  39.970  32.968
26588DA     SC472818  38.258  40.159  32.762
26589DA     BB172819  38.670  40.720  32.569
26589DA     BB272820  38.898  40.549  32.799
26589DA     BB372821  38.994  40.386  32.700
26589DA     SC172822  38.777  40.178  32.780
26589DA     SC272823  38.757  39.980  32.930
26589DA     SC372824  38.556  39.915  32.785
26589DA     SC472825  38.656  40.154  32.677
26590DT     BB172826  39.165  40.422  32.698
26590DT     BB272827  39.271  40.175  32.939
26590DT     BB372828  39.331  40.003  32.842
26590DT     SC172829  39.083  39.936  32.790
26590DT     SC272830  39.030  39.763  32.906
26590DT     SC372831  38.865  39.880  32.653
26591DA     BB172832  39.625  40.120  33.120
26591DA     BB272833  39.569  39.759  33.156
26591DA     BB372834  39.646  39.655  32.986
26591DA     SC172835  39.379  39.668  32.826
26591DA     SC272836  39.201  39.510  32.751
26591DA     SC372837  39.142  39.691  32.580
26591DA     SC472838  39.358  39.792  32.726
26592DC     BB172839  39.802  39.536  33.014
26592DC     BB272840  39.631  39.221  32.973
26592DC     BB372841  39.671  39.143  32.785
26592DC     SC172842  39.510  39.316  32.671
26592DC     SC272843  39.336  39.214  32.596
26592DC     SC372844  39.426  39.515  32.519
26593DT     BB172845  39.844  38.948  32.880
26593DT     BB272846  39.603  38.761  32.688
26593DT     BB372847  39.665  38.748  32.490
26593DT     SC172848  39.600  38.998  32.445
26593DT     SC272849  39.429  39.005  32.315
26593DT     SC372850  39.624  39.254  32.387
26594DC     BB172851  39.748  38.476  32.499
26594DC     BB272852  39.514  38.483  32.225
26594DC     BB372853  39.614  38.521  32.047
26594DC     SC172854  39.645  38.774  32.109
26594DC     SC272855  39.522  38.894  31.980
26594DC     SC372856  39.762  39.002  32.168
26595DT     BB172857  39.599  38.256  31.945
26595DT     BB272858  39.447  38.456  31.686
26595DT     BB372859  39.590  38.514  31.549
26595DT     SC172860  39.688  38.692  31.715
26595DT     SC272861  39.644  38.890  31.642
26595DT     SC372862  39.859  38.816  31.874
26596DA     BB172863  39.296  38.331  31.312
26596DA     BB272864  39.369  38.657  31.161
26596DA     BB372865  39.554  38.650  31.055
26596DA     SC172866  39.725  38.738  31.300
26596DA     SC272867  39.857  38.937  31.371
26596DA     SC372868  39.975  38.777  31.533
26596DA     SC472869  39.787  38.622  31.392
26597DT     BB172870  39.562  38.670  30.843
26597DT     BB272871  39.686  39.009  30.840
26597DT     BB372872  39.884  39.012  30.779
26597DT     SC172873  39.964  38.918  31.011
26597DT     SC272874  40.072  39.071  31.116
26597DT     SC372875  40.071  38.756  31.189
26598DA     BB172876  39.676  39.286  30.540
26598DA     BB272877  39.973  39.455  30.675
26598DA     BB372878  40.149  39.387  30.575
26598DA     SC172879  40.203  39.157  30.777
26598DA     SC272880  40.371  39.102  30.954
26598DA     SC372881  40.292  38.860  30.924
26598DA     SC472882  40.142  39.012  30.743
26599DA     BB172883  40.176  39.710  30.538
26599DA     BB272884  40.487  39.684  30.730
26599DA     BB372885  40.642  39.598  30.610
26599DA     SC172886  40.579  39.306  30.694
26599DA     SC272887  40.686  39.126  30.830
26599DA     SC372888  40.533  38.965  30.701
26599DA     SC472889  40.477  39.222  30.602
26600DA     BB172890  40.778  39.872  30.723
26600DA     BB272891  41.028  39.655  30.880
26600DA     BB372892  41.159  39.573  30.733
26600DA     SC172893  40.985  39.319  30.685
26600DA     SC272894  41.001  39.074  30.729
26600DA     SC372895  40.822  39.050  30.546
26600DA     SC472896  40.875  39.325  30.568
26601DT     BB172897  41.335  39.631  30.753
26601DT     BB272898  41.470  39.323  30.882
26601DT     BB372899  41.567  39.219  30.730
26601DT     SC172900  41.338  39.147  30.623
26601DT     SC272901  41.311  38.936  30.650
26601DT     SC372902  41.142  39.125  30.449
26602DT     BB172903  41.792  39.281  30.856
26602DT     BB272904  41.793  38.921  30.833
26602DT     BB372905  41.863  38.862  30.648
26602DT     SC172906  41.639  38.931  30.532
26602DT     SC272907  41.535  38.755  30.466
26602DT     SC372908  41.470  39.058  30.374
26603DT     BB172909  42.090  38.778  30.767
26603DT     BB272910  41.964  38.488  30.593
26603DT     BB372911  42.028  38.490  30.397
26603DT     SC172912  41.856  38.678  30.335
26603DT     SC272913  41.704  38.597  30.207
26603DT     SC372914  41.762  38.912  30.256
26604DC     BB172915  42.199  38.286  30.450
26604DC     BB272916  41.992  38.164  30.181
26604DC     BB372917  42.070  38.224  29.999
26604DC     SC172918  41.986  38.470  30.034
26604DC     SC272919  41.827  38.511  29.896
26604DC     SC372920  41.991  38.731  30.068
26605DG     BB172921  42.053  37.816  29.989
26605DG     BB272922  41.886  37.962  29.703
26605DG     BB372923  42.020  38.020  29.569
26605DG     SC172924  42.052  38.302  29.685
26605DG     SC272925  41.970  38.556  29.552
26605DG     SC372926  42.127  38.610  29.797
26605DG     SC472927  42.161  38.326  29.800
26606DA     BB172928  41.830  37.837  29.346
26606DA     BB272929  41.771  38.141  29.149
26606DA     BB372930  41.945  38.192  29.037
26606DA     SC172931  42.065  38.373  29.259
26606DA     SC272932  42.107  38.616  29.296
26606DA     SC372933  42.276  38.539  29.473
26606DA     SC472934  42.167  38.306  29.364
26607DT     BB172935  41.917  38.181  28.853
26607DT     BB272936  41.905  38.536  28.791
26607DT     BB372937  42.086  38.601  28.716
26607DT     SC172938  42.199  38.583  28.952
26607DT     SC272939  42.242  38.781  29.026
26607DT     SC372940  42.360  38.504  29.145
26608DC     BB172941  41.948  38.634  28.497
26608DC     BB272942  42.087  38.958  28.573
26608DC     BB372943  42.284  38.967  28.509
26608DC     SC172944  42.364  38.816  28.709
26608DC     SC272945  42.480  38.935  28.845
26608DC     SC372946  42.466  38.611  28.839
26609DG     BB172947  42.064  39.271  28.349
26609DG     BB272948  42.367  39.391  28.506
26609DG     BB372949  42.524  39.348  28.392
26609DG     SC172950  42.574  39.075  28.522
26609DG     SC272951  42.811  39.000  28.688
26609DG     SC372952  42.645  38.763  28.628
26609DG     SC472953  42.499  38.946  28.463
26610DA     BB172954  42.599  39.685  28.435
26610DA     BB272955  42.925  39.592  28.574
26610DA     BB372956  43.053  39.518  28.420
26610DA     SC172957  42.966  39.221  28.458
26610DA     SC272958  43.066  39.009  28.543
26610DA     SC372959  42.881  38.892  28.409
26610DA     SC472960  42.845  39.167  28.367
26611DA     BB172961  43.264  39.750  28.526
26611DA     BB272962  43.502  39.480  28.597
26611DA     BB372963  43.592  39.411  28.416
26611DA     SC172964  43.377  39.192  28.365
26611DA     SC272965  43.363  38.943  28.368
26611DA     SC372966  43.155  38.973  28.222
26611DA     SC472967  43.251  39.231  28.274
26612DT     BB172968  43.797  39.441  28.374
26612DT     BB272969  43.904  39.100  28.425
26612DT     BB372970  43.946  39.011  28.243
26612DT     SC172971  43.691  38.989  28.186
26612DT     SC272972  43.635  38.781  28.190
26612DT     SC372973  43.461  39.022  28.062
26613DA     BB172974  44.290  38.950  28.475
26613DA     BB272975  44.199  38.627  28.325
26613DA     BB372976  44.250  38.625  28.118
26613DA     SC172977  43.974  38.733  28.024
26613DA     SC272978  43.775  38.648  27.901
26613DA     SC372979  43.721  38.895  27.857
26613DA     SC472980  43.959  38.892  28.006
26614DC     BB172981  44.400  38.498  28.047
26614DC     BB272982  44.184  38.260  27.884
26614DC     BB372983  44.194  38.284  27.679
26614DC     SC172984  44.050  38.503  27.689
26614DC     SC272985  43.857  38.465  27.601
26614DC     SC372986  43.982  38.757  27.667
26615DT     BB172987  44.340  38.053  27.647
26615DT     BB272988  44.054  38.005  27.433
26615DT     BB372989  44.094  38.083  27.245
26615DT     SC172990  44.066  38.329  27.332
26615DT     SC272991  43.886  38.414  27.249
26615DT     SC372992  44.125  38.578  27.395
26616DC     BB172993  44.123  37.833  27.126
26616DC     BB272994  43.868  37.993  26.928
26616DC     BB372995  43.954  38.099  26.773
26616DC     SC172996  44.034  38.288  26.936
26616DC     SC272997  43.921  38.467  26.897
26616DC     SC372998  44.194  38.448  27.071
26617DT     BB172999  43.886  37.916  26.564
26617DT     BB273000  43.746  38.229  26.452
26617DT     BB373001  43.884  38.330  26.334
26617DT     SC173002  44.026  38.397  26.544
26617DT     SC273003  44.009  38.609  26.577
26617DT     SC373004  44.229  38.413  26.712
26618DT     BB173005  43.765  38.281  26.075
26618DT     BB273006  43.783  38.640  26.093
26618DT     BB373007  43.959  38.706  26.006
26618DT     SC173008  44.100  38.627  26.212
26618DT     SC273009  44.175  38.798  26.318
26618DT     SC373010  44.277  38.493  26.355
26619DT     BB173011  43.844  38.811  25.764
26619DT     BB273012  44.011  39.094  25.912
26619DT     BB373013  44.203  39.111  25.837
26619DT     SC173014  44.285  38.908  25.982
26619DT     SC273015  44.418  38.979  26.136
26619DT     SC373016  44.381  38.670  26.045
26620DA     BB173017  44.017  39.480  25.787
26620DA     BB273018  44.333  39.536  25.965
26620DA     BB373019  44.497  39.520  25.830
26620DA     SC173020  44.538  39.215  25.877
26620DA     SC273021  44.706  39.065  25.986
26620DA     SC373022  44.604  38.880  25.841
26620DA     SC473023  44.462  39.113  25.778
26621DT     BB173024  44.585  39.680  25.818
26621DT     BB273025  44.867  39.586  26.024
26621DT     BB373026  45.029  39.539  25.904
26621DT     SC173027  44.922  39.309  25.835
26621DT     SC273028  45.034  39.149  25.924
26621DT     SC373029  44.817  39.119  25.686
26622DA     BB173030  45.107  39.792  26.232
26622DA     BB273031  45.355  39.522  26.226
26622DA     BB373032  45.483  39.542  26.056
26622DA     SC173033  45.305  39.366  25.872
26622DA     SC273034  45.317  39.141  25.764
26622DA     SC373035  45.136  39.231  25.605
26622DA     SC473036  45.194  39.440  25.783
26623DA     BB173037  45.665  39.501  26.326
26623DA     BB273038  45.807  39.212  26.150
26623DA     BB373039  45.917  39.277  25.979
26623DA     SC173040  45.674  39.261  25.785
26623DA     SC273041  45.600  39.120  25.594
26623DA     SC373042  45.446  39.316  25.535
26623DA     SC473043  45.587  39.394  25.765
26624DA     BB173044  46.129  39.080  26.137
26624DA     BB273045  46.145  38.887  25.825
26624DA     BB373046  46.246  38.999  25.674
26624DA     SC173047  45.987  39.131  25.564
26624DA     SC273048  45.846  39.118  25.359
26624DA     SC373049  45.756  39.348  25.431
26624DA     SC473050  45.945  39.273  25.625
26625DA     BB173051  46.439  38.729  25.651
26625DA     BB273052  46.339  38.707  25.299
26625DA     BB373053  46.440  38.855  25.184
26625DA     SC173054  46.218  39.070  25.221
26625DA     SC273055  46.045  39.183  25.081
26625DA     SC373056  46.044  39.363  25.263
26625DA     SC473057  46.233  39.172  25.344
26626DA     BB173058  46.562  38.615  24.980
26626DA     BB273059  46.384  38.776  24.702
26626DA     BB373060  46.496  38.942  24.629
26626DA     SC173061  46.360  39.148  24.819
26626DA     SC273062  46.200  39.339  24.801
26626DA     SC373063  46.292  39.411  25.029
26626DA     SC473064  46.430  39.177  24.961
26627DT     BB173065  46.610  38.967  24.419
26627DT     BB273066  46.367  39.189  24.271
26627DT     BB373067  46.450  39.377  24.244
26627DT     SC173068  46.434  39.430  24.501
26627DT     SC273069  46.285  39.581  24.534
26627DT     SC373070  46.508  39.484  24.748
26628DA     BB173071  46.316  39.286  23.856
26628DA     BB273072  46.182  39.616  23.942
26628DA     BB373073  46.332  39.765  23.920
26628DA     SC173074  46.432  39.743  24.214
26628DA     SC273075  46.427  39.881  24.421
26628DA     SC373076  46.622  39.734  24.499
26628DA     SC473077  46.553  39.642  24.244
26629DT     BB173078  46.311  39.912  23.774
26629DT     BB273079  46.210  40.174  24.001
26629DT     BB373080  46.363  40.312  24.022
26629DT     SC173081  46.501  40.148  24.174
26629DT     SC273082  46.504  40.223  24.375
26629DT     SC373083  46.696  39.991  24.256
26630DG     BB173084  46.012  40.479  23.906
26630DG     BB273085  46.143  40.631  24.206
26630DG     BB373086  46.296  40.749  24.161
26630DG     SC173087  46.507  40.529  24.190
26630DG     SC273088  46.719  40.516  24.399
26630DG     SC373089  46.761  40.308  24.193
26630DG     SC473090  46.542  40.439  24.062
26631DG     BB173091  46.106  40.953  24.319
26631DG     BB273092  46.379  40.980  24.554
26631DG     BB373093  46.522  41.096  24.478
26631DG     SC173094  46.671  40.866  24.342
26631DG     SC273095  46.943  40.765  24.415
26631DG     SC373096  46.849  40.641  24.164
26631DG     SC473097  46.630  40.824  24.193
26632DG     BB173098  46.465  41.243  24.759
26632DG     BB273099  46.812  41.174  24.832
26632DG     BB373100  46.929  41.298  24.729
26632DG     SC173101  46.952  41.116  24.485
26632DG     SC273102  47.200  40.979  24.390
26632DG     SC373103  46.982  40.950  24.193
26632DG     SC473104  46.842  41.127  24.369
26633DT     BB173105  47.043  41.412  24.846
26633DT     BB273106  47.374  41.278  24.793
26633DT     BB373107  47.473  41.389  24.649
26633DT     SC173108  47.330  41.282  24.456
26633DT     SC273109  47.455  41.154  24.337
26633DT     SC373110  47.161  41.262  24.255
26634DA     BB173111  47.720  41.346  24.986
26634DA     BB273112  47.921  41.277  24.687
26634DA     BB373113  47.957  41.457  24.578
26634DA     SC173114  47.703  41.427  24.400
26634DA     SC273115  47.651  41.379  24.161
26634DA     SC373116  47.423  41.486  24.211
26634DA     SC473117  47.568  41.498  24.450
26635DA     BB173118  48.269  41.355  24.608
26635DA     BB273119  48.287  41.359  24.241
26635DA     BB373120  48.296  41.560  24.170
26635DA     SC173121  47.988  41.591  24.143
26635DA     SC273122  47.820  41.610  23.960
26635DA     SC373123  47.666  41.710  24.140
26635DA     SC473124  47.908  41.651  24.269
26636DG     BB173125  48.576  41.488  24.043
26636DG     BB273126  48.411  41.564  23.730
26636DG     BB373127  48.415  41.760  23.698
26636DG     SC173128  48.151  41.815  23.842
26636DG     SC273129  47.898  41.910  23.715
26636DG     SC373130  47.876  41.915  24.010
26636DG     SC473131  48.154  41.844  24.000
26637DG     BB173132  48.586  41.741  23.406
26637DG     BB273133  48.299  41.894  23.247
26637DG     BB373134  48.314  42.092  23.258
26637DG     SC173135  48.166  42.112  23.525
26637DG     SC273136  47.899  42.238  23.569
26637DG     SC373137  48.027  42.169  23.827
26637DG     SC473138  48.250  42.101  23.661
26638DA     BB173139  48.281  42.150  22.905
26638DA     BB273140  47.979  42.353  22.956
26638DA     BB373141  48.032  42.552  23.010
26638DA     SC173142  48.032  42.496  23.316
26638DA     SC273143  47.894  42.556  23.515
26638DA     SC373144  48.101  42.492  23.652
26638DA     SC473145  48.171  42.453  23.384
26639DT     BB173146  48.011  42.766  22.883
26639DT     BB273147  47.732  42.896  23.072
26639DT     BB373148  47.790  43.065  23.177
26639DT     SC173149  47.922  42.920  23.352
26639DT     SC273150  47.821  42.927  23.541
26639DT     SC373151  48.123  42.822  23.491
26640DA     BB173152  47.470  43.239  22.960
26640DA     BB273153  47.416  43.325  23.313
26640DA     BB373154  47.537  43.492  23.368
26640DA     SC173155  47.778  43.317  23.459
26640DA     SC273156  47.891  43.256  23.673
26640DA     SC373157  48.091  43.193  23.526
26640DA     SC473158  47.892  43.284  23.351
26641DA     BB173159  47.260  43.649  23.465
26641DA     BB273160  47.392  43.637  23.807
26641DA     BB373161  47.528  43.798  23.840
26641DA     SC173162  47.778  43.636  23.751
26641DA     SC273163  47.982  43.538  23.856
26641DA     SC373164  48.080  43.538  23.619
26641DA     SC473165  47.822  43.646  23.596
26642DG     BB173166  47.324  43.876  24.058
26642DG     BB273167  47.598  43.788  24.277
26642DG     BB373168  47.723  43.943  24.296
26642DG     SC173169  47.897  43.862  24.057
26642DG     SC273170  48.181  43.772  24.070
26642DG     SC373171  48.097  43.815  23.790
26642DG     SC473172  47.858  43.915  23.911
26643DA     BB173173  47.674  43.863  24.624
26643DA     BB273174  48.034  43.804  24.657
26643DA     BB373175  48.140  43.989  24.653
26643DA     SC173176  48.180  43.988  24.345
26643DA     SC273177  48.368  43.960  24.183
26643DA     SC373178  48.214  44.076  24.015
26643DA     SC473179  48.070  44.063  24.255
26644DC     BB173180  48.219  44.005  24.809
26644DC     BB273181  48.556  43.942  24.697
26644DC     BB373182  48.653  44.121  24.659
26644DC     SC173183  48.519  44.156  24.436
26644DC     SC273184  48.651  44.133  24.269
26644DC     SC373185  48.354  44.262  24.260
26645DA     BB173186  48.888  43.867  24.900
26645DA     BB273187  49.098  44.000  24.630
26645DA     BB373188  49.132  44.208  24.658
26645DA     SC173189  48.884  44.297  24.493
26645DA     SC273190  48.838  44.409  24.274
26645DA     SC373191  48.607  44.461  24.373
26645DA     SC473192  48.747  44.321  24.572
26646DT     BB173193  49.317  44.261  24.696
26646DT     BB273194  49.389  44.415  24.378
26646DT     BB373195  49.378  44.621  24.395
26646DT     SC173196  49.116  44.615  24.403
26646DT     SC273197  49.037  44.699  24.222
26646DT     SC373198  48.870  44.642  24.493
26647DG     BB173199  49.759  44.545  24.266
26647DG     BB273200  49.597  44.791  24.057
26647DG     BB373201  49.599  44.969  24.146
26647DG     SC173202  49.333  44.927  24.291
26647DG     SC273203  49.081  45.078  24.240
26647DG     SC373204  49.055  44.907  24.481
26647DG     SC473205  49.333  44.858  24.435
26648DG     BB173206  49.770  45.114  23.897
26648DG     BB273207  49.479  45.322  23.847
26648DG     BB373208  49.487  45.481  23.966
26648DG     SC173209  49.341  45.345  24.198
26648DG     SC273210  49.070  45.418  24.301
26648DG     SC373211  49.201  45.221  24.479
26648DG     SC473212  49.426  45.262  24.306
26649DT     BB173213  49.502  45.701  23.892
26649DT     BB273214  49.163  45.812  23.949
26649DT     BB373215  49.157  45.940  24.111
26649DT     SC173216  49.187  45.741  24.280
26649DT     SC273217  49.004  45.712  24.389
26649DT     SC373218  49.293  45.587  24.466
26650DT     BB173219  49.109  46.140  23.939
26650DT     BB273220  48.826  46.137  24.163
26650DT     BB373221  48.869  46.248  24.333
26650DT     SC173222  49.024  46.058  24.426
26650DT     SC273223  48.931  45.968  24.598
26650DT     SC373224  49.241  45.933  24.510
26651DT     BB173225  48.694  46.427  24.240
26651DT     BB273226  48.568  46.333  24.565
26651DT     BB373227  48.660  46.446  24.712
26651DT     SC173228  48.883  46.308  24.689
26651DT     SC273229  48.911  46.189  24.866
26651DT     SC373230  49.136  46.252  24.641
26652DT     BB173231  48.422  46.554  24.735
26652DT     BB273232  48.501  46.426  25.063
26652DT     BB373233  48.622  46.560  25.164
26652DT     SC173234  48.831  46.492  25.019
26652DT     SC273235  48.971  46.385  25.142
26652DT     SC373236  49.031  46.510  24.849
26653DC     BB173237  48.411  46.607  25.316
26653DC     BB273238  48.671  46.510  25.547
26653DC     BB373239  48.790  46.674  25.591
26653DC     SC173240  48.907  46.662  25.357
26653DC     SC273241  49.111  46.599  25.382
26653DC     SC373242  48.985  46.731  25.114
26654DG     BB173243  48.643  46.539  25.948
26654DG     BB273244  49.002  46.581  25.962
26654DG     BB373245  49.047  46.774  25.983
26654DG     SC173246  49.060  46.829  25.682
26654DG     SC273247  49.304  46.902  25.527
26654DG     SC373248  49.062  46.930  25.360
26654DG     SC473249  48.926  46.872  25.605
26655DG     BB173250  49.210  46.729  26.274
26655DG     BB273251  49.506  46.853  26.106
26655DG     BB373252  49.511  47.052  26.115
26655DG     SC173253  49.355  47.092  25.854
26655DG     SC273254  49.463  47.209  25.602
26655DG     SC373255  49.170  47.172  25.584
26655DG     SC473256  49.195  47.098  25.860
26656DC     BB173257  49.674  47.199  26.233
26656DC     BB273258  49.867  47.320  25.953
26656DC     BB373259  49.827  47.521  25.922
26656DC     SC173260  49.593  47.465  25.816
26656DC     SC273261  49.597  47.509  25.606
26656DC     SC373262  49.331  47.456  25.784
26657DG     BB173263  50.230  47.531  25.999
26657DG     BB273264  50.156  47.695  25.685
26657DG     BB373265  50.098  47.883  25.719
26657DG     SC173266  49.801  47.813  25.744
26657DG     SC273267  49.585  47.895  25.555
26657DG     SC373268  49.471  47.769  25.798
26657DG     SC473269  49.743  47.772  25.888
26658DA     BB173270  50.341  47.992  25.496
26658DA     BB273271  50.080  48.131  25.278
26658DA     BB373272  50.016  48.320  25.352
26658DA     SC173273  49.788  48.201  25.527
26658DA     SC273274  49.539  48.197  25.528
26658DA     SC373275  49.561  48.138  25.777
26658DA     SC473276  49.823  48.167  25.680
26659DA     BB173277  50.092  48.387  25.044
26659DA     BB273278  49.739  48.475  25.000
26659DA     BB373279  49.697  48.663  25.091
26659DA     SC173280  49.619  48.539  25.366
26659DA     SC273281  49.413  48.509  25.503
26659DA     SC373282  49.573  48.478  25.701
26659DA     SC473283  49.735  48.524  25.476
26660DT     BB173284  49.648  48.776  24.964
26660DT     BB273285  49.296  48.782  25.044
26660DT     BB373286  49.253  48.948  25.160
26660DT     SC173287  49.363  48.837  25.371
26660DT     SC273288  49.210  48.788  25.514
26660DT     SC373289  49.528  48.798  25.573
26661DA     BB173290  48.989  48.885  24.836
26661DA     BB273291  48.794  48.947  25.140
26661DA     BB373292  48.821  49.149  25.206
26661DA     SC173293  49.063  49.081  25.390
26661DA     SC273294  49.112  49.072  25.634
26661DA     SC373295  49.359  49.089  25.564
26661DA     SC473296  49.210  49.094  25.326
26662DC     BB173297  48.665  49.229  25.196
26662DC     BB273298  48.600  49.252  25.550
26662DC     BB373299  48.663  49.436  25.621
26662DC     SC173300  48.915  49.364  25.609
26662DC     SC273301  48.993  49.342  25.808
26662DC     SC373302  49.169  49.359  25.536
26663DA     BB173303  48.270  49.357  25.748
26663DA     BB273304  48.464  49.471  26.037
26663DA     BB373305  48.511  49.678  26.017
26663DA     SC173306  48.781  49.628  25.871
26663DA     SC273307  49.025  49.651  25.919
26663DA     SC373308  49.055  49.647  25.664
26663DA     SC473309  48.779  49.625  25.710
26664DA     BB173310  48.374  49.673  26.315
26664DA     BB273311  48.694  49.803  26.440
26664DA     BB373312  48.718  50.007  26.382
26664DA     SC173313  48.863  49.940  26.115
26664DA     SC273314  49.092  49.962  26.019
26664DA     SC373315  48.977  49.939  25.791
26664DA     SC473316  48.773  49.926  25.983
26665DA     BB173317  48.768  50.030  26.706
26665DA     BB273318  49.101  50.159  26.624
26665DA     BB373319  49.087  50.358  26.548
26665DA     SC173320  49.061  50.269  26.251
26665DA     SC273321  49.199  50.278  26.043
26665DA     SC373322  48.977  50.243  25.919
26665DA     SC473323  48.913  50.249  26.192
26666DG     BB173324  49.269  50.414  26.793
26666DG     BB273325  49.505  50.509  26.536
26666DG     BB373326  49.463  50.692  26.470
26666DG     SC173327  49.274  50.596  26.250
26666DG     SC273328  49.321  50.618  25.956
26666DG     SC373329  49.045  50.526  26.011
26666DG     SC473330  49.118  50.575  26.284
26667DC     BB173331  49.607  50.849  26.495
26667DC     BB273332  49.730  50.893  26.159
26667DC     BB373333  49.641  51.059  26.072
26667DC     SC173334  49.415  50.930  26.039
26667DC     SC273335  49.383  50.894  25.829
26667DC     SC373336  49.161  50.864  26.063
26668DA     BB173337  50.056  51.105  26.023
26668DA     BB273338  49.897  51.170  25.699
26668DA     BB373339  49.794  51.357  25.703
26668DA     SC173340  49.524  51.235  25.799
26668DA     SC273341  49.297  51.195  25.705
26668DA     SC373342  49.221  51.179  25.950
26668DA     SC473343  49.497  51.230  25.957
26669DT     BB173344  49.858  51.522  25.588
26669DT     BB273345  49.594  51.512  25.343
26669DT     BB373346  49.461  51.666  25.376
26669DT     SC173347  49.358  51.544  25.584
26669DT     SC273348  49.158  51.480  25.537
26669DT     SC373349  49.288  51.494  25.833
26670DT     BB173350  49.545  51.826  25.159
26670DT     BB273351  49.191  51.784  25.102
26670DT     BB373352  49.086  51.936  25.195
26670DT     SC173353  49.124  51.828  25.432
26670DT     SC273354  48.937  51.753  25.507
26670DT     SC373355  49.207  51.798  25.680
26671DT     BB173356  49.019  52.094  24.962
26671DT     BB273357  48.698  52.024  25.112
26671DT     BB373358  48.644  52.179  25.238
26671DT     SC173359  48.815  52.101  25.420
26671DT     SC273360  48.709  52.023  25.590
26671DT     SC373361  49.022  52.104  25.584
26672DG     BB173362  48.342  52.168  24.963
26672DG     BB273363  48.212  52.143  25.299
26672DG     BB373364  48.199  52.325  25.380
26672DG     SC173365  48.482  52.319  25.497
26672DG     SC273366  48.551  52.313  25.788
26672DG     SC373367  48.793  52.355  25.622
26672DG     SC473368  48.604  52.370  25.408
26673DT     BB173369  48.004  52.405  25.441
26673DT     BB273370  48.022  52.367  25.800
26673DT     BB373371  48.057  52.551  25.888
26673DT     SC173372  48.308  52.549  25.812
26673DT     SC273373  48.435  52.525  25.985
26673DT     SC373374  48.531  52.619  25.690
26674DA     BB173375  47.736  52.354  26.072
26674DA     BB273376  47.965  52.472  26.334
26674DA     BB373377  47.955  52.685  26.350
26674DA     SC173378  48.184  52.735  26.144
26674DA     SC273379  48.419  52.817  26.146
26674DA     SC373380  48.384  52.861  25.896
26674DA     SC473381  48.142  52.756  25.991
26675DC     BB173382  47.887  52.744  26.515
26675DC     BB273383  48.197  52.866  26.654
26675DC     BB373384  48.207  53.072  26.634
26675DC     SC173385  48.258  53.052  26.377
26675DC     SC273386  48.461  53.112  26.340
26675DC     SC373387  48.229  53.076  26.116
26676DT     BB173388  48.166  53.098  26.901
26676DT     BB273389  48.473  53.279  26.839
26676DT     BB373390  48.430  53.473  26.781
26676DT     SC173391  48.355  53.394  26.542
26676DT     SC273392  48.498  53.461  26.397
26676DT     SC373393  48.201  53.348  26.333
26677DT     BB173394  48.504  53.589  27.026
26677DT     BB273395  48.703  53.768  26.783
26677DT     BB373396  48.599  53.934  26.717
26677DT     SC173397  48.440  53.786  26.570
26677DT     SC273398  48.482  53.821  26.362
26677DT     SC373399  48.219  53.673  26.480
26678DT     BB173400  48.745  54.138  26.863
26678DT     BB273401  48.772  54.245  26.519
26678DT     BB373402  48.620  54.378  26.474
26678DT     SC173403  48.444  54.184  26.464
26678DT     SC273404  48.380  54.155  26.261
26678DT     SC373405  48.233  54.036  26.524
26679DT     BB173406  48.773  54.623  26.473
26679DT     BB273407  48.628  54.611  26.143
26679DT     BB373408  48.450  54.717  26.140
26679DT     SC173409  48.325  54.526  26.270
26679DT     SC273410  48.185  54.430  26.139
26679DT     SC373411  48.193  54.401  26.462
26680DT     BB173412  48.559  54.924  25.992
26680DT     BB273413  48.290  54.796  25.788
26680DT     BB373414  48.114  54.896  25.833
26680DT     SC173415  48.088  54.765  26.059
26680DT     SC273416  47.921  54.630  26.045
26680DT     SC373417  48.071  54.719  26.318
26681DT     BB173418  48.143  54.998  25.592
26681DT     BB273419  47.831  54.818  25.584
26681DT     BB373420  47.679  54.936  25.662
26681DT     SC173421  47.767  54.900  25.907
26681DT     SC273422  47.626  54.778  26.015
26681DT     SC373423  47.866  54.953  26.146
26682DA     BB173424  47.591  54.743  25.298
26682DA     BB273425  47.319  54.682  25.536
26682DA     BB373426  47.214  54.864  25.576
26682DA     SC173427  47.392  54.941  25.819
26682DA     SC273428  47.369  54.958  26.067
26682DA     SC373429  47.575  55.111  26.055
26682DA     SC473430  47.520  55.035  25.790
26683DA     BB173431  47.000  54.629  25.498
26683DA     BB273432  46.855  54.694  25.829
26683DA     BB373433  46.768  54.889  25.834
26683DA     SC173434  47.028  55.028  25.934
26683DA     SC273435  47.110  55.138  26.142
26683DA     SC373436  47.284  55.249  25.990
26683DA     SC473437  47.127  55.088  25.823
26684DA     BB173438  46.541  54.680  25.945
26684DA     BB273439  46.545  54.883  26.251
26684DA     BB373440  46.464  55.077  26.212
26684DA     SC173441  46.739  55.203  26.139
26684DA     SC273442  46.898  55.369  26.237
26684DA     SC373443  46.992  55.389  25.999
26684DA     SC473444  46.782  55.203  25.984
26685DA     BB173445  46.294  54.973  26.472
26685DA     BB273446  46.423  55.271  26.644
26685DA     BB373447  46.333  55.447  26.564
26685DA     SC173448  46.553  55.490  26.348
26685DA     SC273449  46.738  55.652  26.303
26685DA     SC373450  46.726  55.567  26.061
26685DA     SC473451  46.529  55.426  26.203
26686DT     BB173452  46.220  55.544  26.685
26686DT     BB273453  46.440  55.824  26.741
26686DT     BB373454  46.378  55.986  26.628
26686DT     SC173455  46.471  55.878  26.408
26686DT     SC273456  46.642  55.989  26.340
26686DT     SC373457  46.476  55.772  26.167
26687DT     BB173458  46.297  56.103  26.855
26687DT     BB273459  46.527  56.339  26.707
26687DT     BB373460  46.428  56.456  26.568
26687DT     SC173461  46.421  56.259  26.395
26687DT     SC273462  46.552  56.304  26.231
26687DT     SC373463  46.325  56.073  26.235
26688DA     BB173464  46.633  56.712  26.830
26688DA     BB273465  46.706  56.818  26.487
26688DA     BB373466  46.535  56.910  26.399
26688DA     SC173467  46.422  56.645  26.281
26688DA     SC273468  46.391  56.542  26.056
26688DA     SC373469  46.219  56.391  26.172
26688DA     SC473470  46.318  56.562  26.371
26689DA     BB173471  46.754  57.149  26.345
26689DA     BB273472  46.685  57.105  25.987
26689DA     BB373473  46.494  57.187  25.938
26689DA     SC173474  46.339  56.923  25.989
26689DA     SC273475  46.218  56.751  25.855
26689DA     SC373476  46.104  56.688  26.076
26689DA     SC473477  46.278  56.899  26.136
26690DT     BB173478  46.486  57.349  25.817
26690DT     BB273479  46.361  57.180  25.523
26690DT     BB373480  46.160  57.221  25.499
26690DT     SC173481  46.095  57.059  25.695
26690DT     SC273482  45.995  56.887  25.616
26690DT     SC373483  46.001  56.976  25.927
26691DT     BB173484  46.181  57.410  25.280
26691DT     BB273485  45.951  57.164  25.151
26691DT     BB373486  45.756  57.224  25.188
26691DT     SC173487  45.777  57.162  25.442
26691DT     SC273488  45.654  56.991  25.484
26691DT     SC373489  45.784  57.190  25.704
26692DT     BB173490  45.680  57.314  24.919
26692DT     BB273491  45.424  57.073  24.999
26692DT     BB373492  45.258  57.169  25.078
26692DT     SC173493  45.380  57.208  25.307
26692DT     SC273494  45.289  57.085  25.458
26692DT     SC373495  45.491  57.333  25.511
26693DT     BB173496  45.078  57.156  24.846
26693DT     BB273497  44.886  56.999  25.107
26693DT     BB373498  44.760  57.137  25.196
26693DT     SC173499  44.959  57.249  25.324
26693DT     SC273500  44.941  57.207  25.534
26693DT     SC373501  45.135  57.430  25.400
26694DG     BB173502  44.492  56.862  25.051
26694DG     BB273503  44.438  56.918  25.404
26694DG     BB373504  44.324  57.078  25.431
26694DG     SC173505  44.558  57.275  25.443
26694DG     SC273506  44.644  57.431  25.682
26694DG     SC373507  44.790  57.520  25.441
26694DG     SC473508  44.612  57.339  25.307
26695DT     BB173509  44.110  57.073  25.530
26695DT     BB273510  44.188  57.204  25.857
26695DT     BB373511  44.109  57.395  25.877
26695DT     SC173512  44.296  57.496  25.723
26695DT     SC273513  44.428  57.618  25.842
26695DT     SC373514  44.411  57.616  25.518
26696DT     BB173515  43.929  57.292  26.049
26696DT     BB273516  44.103  57.545  26.238
26696DT     BB373517  44.013  57.729  26.210
26696DT     SC173518  44.114  57.751  25.969
26696DT     SC273519  44.263  57.906  25.968
26696DT     SC373520  44.128  57.771  25.706
26697DT     BB173521  43.943  57.698  26.461
26697DT     BB273522  44.128  58.008  26.452
26697DT     BB373523  44.003  58.162  26.393
26697DT     SC173524  44.006  58.081  26.144
26697DT     SC273525  44.116  58.222  26.024
26697DT     SC373526  43.922  57.988  25.912
26698DT     BB173527  44.042  58.233  26.641
26698DT     BB273528  44.143  58.518  26.443
26698DT     BB373529  43.977  58.627  26.386
26698DT     SC173530  43.910  58.447  26.207
26698DT     SC273531  43.940  58.529  26.010
26698DT     SC373532  43.772  58.261  26.081
26699DG     BB173533  44.245  58.864  26.580
26699DG     BB273534  44.131  59.016  26.272
26699DG     BB373535  43.946  59.086  26.296
26699DG     SC173536  43.810  58.825  26.209
26699DG     SC273537  43.648  58.787  25.962
26699DG     SC373538  43.629  58.550  26.138
26699DG     SC473539  43.779  58.714  26.319
26700DA     BB173540  44.055  59.396  26.172
26700DA     BB273541  43.796  59.391  25.913
26700DA     BB373542  43.605  59.435  25.998
26700DA     SC173543  43.535  59.138  26.056
26700DA     SC273544  43.377  58.965  25.971
26700DA     SC373545  43.419  58.846  26.194
26700DA     SC473546  43.574  59.079  26.201
26701DT     BB173547  43.489  59.622  25.964
26701DT     BB273548  43.226  59.480  25.762
26701DT     BB373549  43.050  59.472  25.871
26701DT     SC173550  43.137  59.268  26.011
26701DT     SC273551  43.025  59.092  25.957
26701DT     SC373552  43.215  59.125  26.217
26702DC     BB173553  42.905  59.700  25.756
26702DC     BB273554  42.669  59.429  25.718
26702DC     BB373555  42.541  59.424  25.880
26702DC     SC173556  42.727  59.324  26.036
26702DC     SC273557  42.677  59.120  26.084
26702DC     SC373558  42.900  59.302  26.233
26703DT     BB173559  42.296  59.540  25.763
26703DT     BB273560  42.182  59.223  25.891
26703DT     BB373561  42.103  59.248  26.081
26703DT     SC173562  42.342  59.275  26.186
26703DT     SC273563  42.386  59.103  26.307
26703DT     SC373564  42.547  59.385  26.309
26704DG     BB173565  41.774  59.103  25.880
26704DG     BB273566  41.843  58.902  26.173
26704DG     BB373567  41.762  58.987  26.333
26704DG     SC173568  42.009  59.155  26.400
26704DG     SC273569  42.184  59.123  26.640
26704DG     SC373570  42.254  59.369  26.491
26704DG     SC473571  42.023  59.301  26.334
26705DA     BB173572  41.606  58.685  26.401
26705DA     BB273573  41.789  58.659  26.718
26705DA     BB373574  41.696  58.781  26.867
26705DA     SC173575  41.868  59.033  26.802
26705DA     SC273576  42.049  59.165  26.910
26705DA     SC373577  41.979  59.353  26.750
26705DA     SC473578  41.808  59.138  26.696
26706DG     BB173579  41.672  58.507  27.004
26706DG     BB273580  41.901  58.660  27.239
26706DG     BB373581  41.801  58.775  27.366
26706DG     SC173582  41.822  59.027  27.194
26706DG     SC273583  41.977  59.273  27.261
26706DG     SC373584  41.809  59.316  27.021
26706DG     SC473585  41.710  59.055  27.084
26707DT     BB173586  41.813  58.723  27.570
26707DT     BB273587  42.034  58.978  27.697
26707DT     BB373588  41.925  59.125  27.793
26707DT     SC173589  41.842  59.224  27.565
26707DT     SC273590  41.933  59.416  27.533
26707DT     SC373591  41.679  59.297  27.371
26708DT     BB173592  42.036  59.027  28.012
26708DT     BB273593  42.128  59.376  28.006
26708DT     BB373594  41.974  59.491  28.082
26708DT     SC173595  41.832  59.461  27.864
26708DT     SC273596  41.822  59.649  27.759
26708DT     SC373597  41.635  59.389  27.703
26709DA     BB173598  42.333  59.596  28.273
26709DA     BB273599  42.164  59.904  28.169
26709DA     BB373600  41.992  59.939  28.290
26709DA     SC173601  41.798  59.785  28.102
26709DA     SC273602  41.610  59.837  27.947
26709DA     SC373603  41.546  59.590  27.974
26709DA     SC473604  41.774  59.629  28.133
26710DC     BB173605  41.999  60.097  28.406
26710DC     BB273606  41.765  60.300  28.221
26710DC     BB373607  41.581  60.300  28.315
26710DC     SC173608  41.530  60.056  28.233
26710DC     SC273609  41.372  60.062  28.087
26710DC     SC373610  41.480  59.797  28.240
26711DT     BB173611  41.616  60.558  28.402
26711DT     BB273612  41.304  60.567  28.220
26711DT     BB373613  41.147  60.520  28.347
26711DT     SC173614  41.212  60.266  28.346
26711DT     SC273615  41.062  60.155  28.239
26711DT     SC373616  41.290  60.030  28.433
26712DC     BB173617  41.058  60.782  28.354
26712DC     BB273618  40.772  60.594  28.239
26712DC     BB373619  40.661  60.529  28.401
26712DC     SC173620  40.838  60.343  28.458
26712DC     SC273621  40.755  60.150  28.416
26712DC     SC373622  41.022  60.208  28.590
26713DT     BB173623  40.465  60.709  28.345
26713DT     BB273624  40.297  60.390  28.340
26713DT     BB373625  40.234  60.341  28.531
26713DT     SC173626  40.478  60.282  28.606
26713DT     SC273627  40.494  60.070  28.637
26713DT     SC373628  40.707  60.293  28.737
26714DC     BB173629  39.982  60.385  28.450
26714DC     BB273630  39.982  60.044  28.567
26714DC     BB373631  39.950  60.040  28.772
26714DC     SC173632  40.194  60.122  28.820
26714DC     SC273633  40.307  59.962  28.909
26714DC     SC373634  40.393  60.275  28.902
26715DA     BB173635  39.693  59.773  28.575
26715DA     BB273636  39.849  59.597  28.856
26715DA     BB373637  39.773  59.670  29.041
26715DA     SC173638  39.991  59.889  29.073
26715DA     SC273639  40.187  59.935  29.220
26715DA     SC373640  40.162  60.178  29.144
26715DA     SC473641  39.958  60.036  29.015
26716DA     BB173642  39.735  59.345  29.065
26716DA     BB273643  39.947  59.366  29.364
26716DA     BB373644  39.841  59.461  29.523
26716DA     SC173645  39.938  59.747  29.449
26716DA     SC273646  40.091  59.921  29.543
26716DA     SC373647  39.962  60.086  29.395
26716DA     SC473648  39.845  59.834  29.351
26717DC     BB173649  39.803  59.349  29.674
26717DC     BB273650  40.035  59.498  29.907
26717DC     BB373651  39.935  59.626  30.034
26717DC     SC173652  39.911  59.807  29.846
26717DC     SC273653  40.036  59.976  29.893
26717DC     SC373654  39.800  59.971  29.671
26718DA     BB173655  40.145  59.369  30.294
26718DA     BB273656  40.200  59.711  30.412
26718DA     BB373657  40.025  59.786  30.508
26718DA     SC173658  39.905  59.908  30.248
26718DA     SC273659  39.862  60.135  30.154
26718DA     SC373660  39.694  60.016  30.000
26718DA     SC473661  39.805  59.816  30.163
26719DA     BB173662  40.201  59.851  30.791
26719DA     BB273663  40.116  60.205  30.751
26719DA     BB373664  39.920  60.243  30.826
26719DA     SC173665  39.778  60.191  30.554
26719DA     SC273666  39.658  60.323  30.380
26719DA     SC373667  39.558  60.099  30.307
26719DA     SC473668  39.726  60.042  30.525
26720DT     BB173669  39.852  60.369  31.022
26720DT     BB273670  39.735  60.658  30.841
26720DT     BB373671  39.529  60.675  30.861
26720DT     SC173672  39.489  60.477  30.694
26720DT     SC273673  39.403  60.553  30.512
26720DT     SC373674  39.412  60.242  30.602
26721DA     BB173675  39.656  61.053  30.996
26721DA     BB273676  39.398  61.111  30.741
26721DA     BB373677  39.204  61.081  30.824
26721DA     SC173678  39.192  60.779  30.750
26721DA     SC273679  39.067  60.633  30.591
26721DA     SC373680  39.135  60.441  30.747
26721DA     SC473681  39.243  60.674  30.860
26722DC     BB173682  39.071  61.242  30.844
26722DC     BB273683  38.860  61.152  30.565
26722DC     BB373684  38.679  61.080  30.633
26722DC     SC173685  38.788  60.852  30.705
26722DC     SC273686  38.718  60.696  30.575
26722DC     SC373687  38.871  60.654  30.857
26723DG     BB173688  38.602  61.397  30.390
26723DG     BB273689  38.415  61.104  30.289
26723DG     BB373690  38.258  61.079  30.408
26723DG     SC173691  38.408  60.905  30.610
26723DG     SC273692  38.358  60.616  30.664
26723DG     SC373693  38.547  60.728  30.862
26723DG     SC473694  38.486  60.975  30.731
26724DA     BB173695  38.071  61.061  30.117
26724DA     BB273696  37.957  60.725  30.209
26724DA     BB373697  37.809  60.737  30.363
26724DA     SC173698  38.015  60.719  30.596
26724DA     SC273699  38.080  60.555  30.772
26724DA     SC373700  38.183  60.757  30.893
26724DA     SC473701  38.071  60.857  30.656
26725DA     BB173702  37.628  60.557  30.152
26725DA     BB273703  37.618  60.296  30.409
26725DA     BB373704  37.478  60.348  30.562
26725DA     SC173705  37.688  60.496  30.738
26725DA     SC273706  37.803  60.462  30.956
26725DA     SC373707  37.848  60.714  30.949
26725DA     SC473708  37.705  60.655  30.715
26726DA     BB173709  37.327  60.056  30.504
26726DA     BB273710  37.409  59.962  30.849
26726DA     BB373711  37.269  60.048  30.985
26726DA     SC173712  37.436  60.307  31.029
26726DA     SC273713  37.569  60.413  31.212
26726DA     SC373714  37.537  60.631  31.082
26726DA     SC473715  37.404  60.433  30.934
26727DT     BB173716  37.113  59.934  31.113
26727DT     BB273717  37.297  59.960  31.422
26727DT     BB373718  37.196  60.083  31.554
26727DT     SC173719  37.267  60.298  31.420
26727DT     SC273720  37.407  60.412  31.537
26727DT     SC373721  37.248  60.518  31.276
26728DC     BB173722  37.119  59.872  31.717
26728DC     BB273723  37.318  60.085  31.928
26728DC     BB373724  37.197  60.224  32.023
26728DC     SC173725  37.171  60.363  31.802
26728DC     SC273726  37.275  60.550  31.822
26728DC     SC373727  37.058  60.478  31.593
26729DT     BB173728  37.264  60.084  32.233
26729DT     BB273729  37.395  60.416  32.287
26729DT     BB373730  37.247  60.540  32.362
26729DT     SC173731  37.131  60.556  32.127
26729DT     SC273732  37.155  60.755  32.049
26729DT     SC373733  36.949  60.531  31.937
26730DA     BB173734  37.658  60.534  32.489
26730DA     BB273735  37.549  60.878  32.424
26730DA     BB373736  37.389  60.931  32.554
26730DA     SC173737  37.167  60.837  32.358
26730DA     SC273738  36.990  60.940  32.216
26730DA     SC373739  36.880  60.708  32.219
26730DA     SC473740  37.114  60.686  32.373
26731DG     BB173741  37.644  61.113  32.523
26731DG     BB273742  37.385  61.345  32.426
26731DG     BB373743  37.260  61.375  32.578
26731DG     SC173744  37.073  61.146  32.502
26731DG     SC273745  36.791  61.173  32.407
26731DG     SC373746  36.857  60.890  32.459
26731DG     SC473747  37.103  60.999  32.558
26732DT     BB173748  37.268  61.555  32.604
26732DT     BB273749  36.936  61.668  32.517
26732DT     BB373750  36.811  61.650  32.681
26732DT     SC173751  36.797  61.390  32.653
26732DT     SC273752  36.600  61.335  32.589
26732DT     SC373753  36.824  61.133  32.706
26733DT     BB173754  36.815  61.919  32.707
26733DT     BB273755  36.464  61.836  32.700
26733DT     BB373756  36.399  61.785  32.890
26733DT     SC173757  36.518  61.551  32.876
26733DT     SC273758  36.370  61.396  32.864
26733DT     SC373759  36.684  61.354  32.931
26734DG     BB173760  36.159  62.111  32.817
26734DG     BB273761  35.960  61.832  32.932
26734DG     BB373762  35.965  61.822  33.131
26734DG     SC173763  36.212  61.640  33.139
26734DG     SC273764  36.218  61.357  33.234
26734DG     SC373765  36.492  61.458  33.186
26734DG     SC473766  36.357  61.707  33.141
26735DA     BB173767  35.612  61.827  33.169
26735DA     BB273768  35.617  61.497  33.329
26735DA     BB373769  35.663  61.515  33.536
26735DA     SC173770  35.970  61.486  33.495
26735DA     SC273771  36.148  61.319  33.544
26735DA     SC373772  36.312  61.515  33.517
26735DA     SC473773  36.056  61.621  33.475
26736DC     BB173774  35.520  61.469  33.692
26736DC     BB273775  35.667  61.153  33.786
26736DC     BB373776  35.756  61.169  33.972
26736DC     SC173777  35.958  61.304  33.873
26736DC     SC273778  36.135  61.183  33.881
26736DC     SC373779  36.125  61.503  33.829
26737DT     BB173780  35.558  61.015  34.064
26737DT     BB273781  35.861  60.835  34.142
26737DT     BB373782  35.938  60.901  34.322
26737DT     SC173783  36.024  61.123  34.212
26737DT     SC273784  36.239  61.121  34.206
26737DT     SC373785  36.051  61.381  34.161
26738DA     BB173786  35.919  60.483  34.289
26738DA     BB273787  36.251  60.576  34.414
26738DA     BB373788  36.237  60.654  34.612
26738DA     SC173789  36.202  60.949  34.519
26738DA     SC273790  36.334  61.161  34.523
26738DA     SC373791  36.108  61.278  34.489
26738DA     SC473792  36.052  61.004  34.499
26739DA     BB173793  36.474  60.425  34.613
26739DA     BB273794  36.691  60.689  34.746
26739DA     BB373795  36.627  60.746  34.942
26739DA     SC173796  36.437  60.971  34.840
26739DA     SC273797  36.427  61.220  34.843
26739DA     SC373798  36.176  61.191  34.798
26739DA     SC473799  36.283  60.932  34.813
26740DT     BB173800  36.748  60.704  35.084
26740DT     BB273801  36.848  61.038  35.177
26740DT     BB373802  36.740  61.100  35.342
26740DT     SC173803  36.525  61.139  35.197
26740DT     SC273804  36.485  61.349  35.182
26740DT     SC373805  36.279  61.111  35.106
26741DT     BB173806  36.941  61.063  35.550
26741DT     BB273807  36.829  61.400  35.612
26741DT     BB373808  36.676  61.399  35.751
26741DT     SC173809  36.505  61.310  35.573
26741DT     SC273810  36.363  61.464  35.526
26741DT     SC373811  36.333  61.150  35.453
26742DT     BB173812  36.804  61.479  36.020
26742DT     BB273813  36.529  61.712  35.998
26742DT     BB373814  36.368  61.641  36.108
26742DT     SC173815  36.312  61.461  35.925
26742DT     SC273816  36.128  61.514  35.827
26742DT     SC373817  36.277  61.226  35.812
26743DC     BB173818  36.370  61.805  36.367
26743DC     BB273819  36.037  61.862  36.241
26743DC     BB373820  35.903  61.736  36.335
26743DC     SC173821  35.988  61.530  36.196
26743DC     SC273822  35.835  61.469  36.057
26743DC     SC373823  36.097  61.296  36.139
26744DT     BB173824  35.774  61.927  36.512
26744DT     BB273825  35.501  61.793  36.318
26744DT     BB373826  35.413  61.636  36.419
26744DT     SC173827  35.613  61.476  36.363
26744DT     SC273828  35.548  61.326  36.223
26744DT     SC373829  35.821  61.318  36.396
26745DA     BB173830  35.106  61.901  36.318
26745DA     BB273831  35.006  61.568  36.204
26745DA     BB373832  34.944  61.448  36.369
26745DA     SC173833  35.228  61.331  36.422
26745DA     SC273834  35.344  61.112  36.401
26745DA     SC373835  35.513  61.208  36.568
26745DA     SC473836  35.321  61.409  36.528
26746DT     BB173837  34.758  61.397  36.365
26746DT     BB273838  34.810  61.053  36.269
26746DT     BB373839  34.786  60.930  36.434
26746DT     SC173840  35.019  61.003  36.531
26746DT     SC273841  35.156  60.837  36.519
26746DT     SC373842  35.198  61.107  36.694
26747DG     BB173843  34.531  60.813  36.140
26747DG     BB273844  34.730  60.536  36.261
26747DG     BB373845  34.660  60.474  36.436
26747DG     SC173846  34.835  60.663  36.601
26747DG     SC273847  35.057  60.582  36.784
26747DG     SC373848  34.998  60.871  36.812
26747DG     SC473849  34.781  60.810  36.635
26748DA     BB173850  34.658  60.158  36.294
26748DA     BB273851  34.882  60.036  36.558
26748DA     BB373852  34.774  60.011  36.741
26748DA     SC173853  34.830  60.300  36.842
26748DA     SC273854  34.964  60.410  37.021
26748DA     SC373855  34.808  60.610  36.987
26748DA     SC473856  34.722  60.413  36.807
26749DT     BB173857  34.741  59.819  36.824
26749DT     BB273858  34.975  59.848  37.097
26749DT     BB373859  34.872  59.872  37.275
26749DT     SC173860  34.813  60.121  37.218
26749DT     SC273861  34.923  60.252  37.348
26749DT     SC373862  34.671  60.336  37.162
26750DA     BB173863  35.122  59.542  37.351
26750DA     BB273864  35.164  59.777  37.630
26750DA     BB373865  34.997  59.766  37.762
26750DA     SC173866  34.835  59.987  37.616
26750DA     SC273867  34.761  60.222  37.660
26750DA     SC373868  34.586  60.179  37.477
26750DA     SC473869  34.733  59.941  37.501
26751DA     BB173870  35.225  59.710  37.995
26751DA     BB273871  35.115  60.021  38.154
26751DA     BB373872  34.934  59.989  38.262
26751DA     SC173873  34.749  60.060  38.023
26751DA     SC273874  34.592  60.244  37.959
26751DA     SC373875  34.493  60.074  37.794
26751DA     SC473876  34.700  59.940  37.928
26752DT     BB173877  34.938  60.007  38.464
26752DT     BB273878  34.772  60.327  38.479
26752DT     BB373879  34.577  60.303  38.544
26752DT     SC173880  34.504  60.206  38.312
26752DT     SC273881  34.375  60.347  38.213
26752DT     SC373882  34.414  60.035  38.132
26753DT     BB173883  34.649  60.419  38.777
26753DT     BB273884  34.383  60.626  38.647
26753DT     BB373885  34.199  60.548  38.704
26753DT     SC173886  34.218  60.354  38.528
26753DT     SC273887  34.074  60.386  38.371
26753DT     SC373888  34.237  60.111  38.427
26754DA     BB173889  34.215  60.956  38.801
26754DA     BB273890  33.903  60.893  38.618
26754DA     BB373891  33.766  60.784  38.741
26754DA     SC173892  33.864  60.505  38.645
26754DA     SC273893  33.778  60.316  38.506
26754DA     SC373894  33.956  60.174  38.625
26754DA     SC473895  33.980  60.433  38.730
26755DA     BB173896  33.588  61.040  38.643
26755DA     BB273897  33.365  60.794  38.487
26755DA     BB373898  33.253  60.690  38.636
26755DA     SC173899  33.462  60.462  38.668
26755DA     SC273900  33.479  60.219  38.615
26755DA     SC373901  33.667  60.215  38.790
26755DA     SC473902  33.575  60.480  38.781
26756DT     BB173903  33.069  60.724  38.626
26756DT     BB273904  32.974  60.403  38.490
26756DT     BB373905  32.900  60.282  38.641
26756DT     SC173906  33.141  60.240  38.736
26756DT     SC273907  33.198  60.035  38.699
26756DT     SC373908  33.346  60.240  38.902
26757DT     BB173909  32.663  60.314  38.526
26757DT     BB273910  32.717  59.958  38.531
26757DT     BB373911  32.663  59.880  38.715
26757DT     SC173912  32.878  59.977  38.828
26757DT     SC273913  33.010  59.816  38.882
26757DT     SC373914  33.032  60.121  38.987
26758DC     BB173915  32.459  59.771  38.586
26758DC     BB273916  32.632  59.495  38.742
26758DC     BB373917  32.572  59.476  38.939
26758DC     SC173918  32.712  59.686  39.010
26758DC     SC273919  32.878  59.623  39.132
26758DC     SC373920  32.771  59.927  39.101
26759DA     BB173921  32.547  59.104  38.746
26759DA     BB273922  32.721  59.057  39.065
26759DA     BB373923  32.585  59.079  39.228
26759DA     SC173924  32.634  59.385  39.260
26759DA     SC273925  32.741  59.538  39.424
26759DA     SC373926  32.599  59.722  39.315
26759DA     SC473927  32.536  59.485  39.179
26760DT     BB173928  32.560  58.921  39.326
26760DT     BB273929  32.743  59.020  39.621
26760DT     BB373930  32.611  59.083  39.768
26760DT     SC173931  32.568  59.310  39.643
26760DT     SC273932  32.656  59.471  39.755
26760DT     SC373933  32.442  59.502  39.513
26761DT     BB173934  32.661  58.857  39.906
26761DT     BB273935  32.736  59.123  40.138
26761DT     BB373936  32.563  59.183  40.235
26761DT     SC173937  32.477  59.308  40.022
26761DT     SC273938  32.482  59.521  40.057
26761DT     SC373939  32.326  59.372  39.816
26762DT     BB173940  32.649  59.065  40.464
26762DT     BB273941  32.586  59.407  40.558
26762DT     BB373942  32.387  59.431  40.610
26762DT     SC173943  32.312  59.420  40.359
26762DT     SC273944  32.243  59.614  40.297
26762DT     SC373945  32.195  59.336  40.138
26763DA     BB173946  32.614  59.587  40.927
26763DA     BB273947  32.357  59.834  40.839
26763DA     BB373948  32.165  59.769  40.906
26763DA     SC173949  32.097  59.621  40.640
26763DA     SC273950  31.941  59.650  40.448
26763DA     SC373951  31.981  59.401  40.404
26763DA     SC473952  32.134  59.465  40.630
26764DA     BB173953  32.166  60.065  41.050
26764DA     BB273954  31.870  60.143  40.848
26764DA     BB373955  31.698  60.044  40.926
26764DA     SC173956  31.735  59.789  40.752
26764DA     SC273957  31.621  59.679  40.560
26764DA     SC373958  31.745  59.467  40.634
26764DA     SC473959  31.820  59.667  40.814
26765DA     BB173960  31.576  60.350  40.924
26765DA     BB273961  31.320  60.226  40.694
26765DA     BB373962  31.174  60.111  40.799
26765DA     SC173963  31.324  59.841  40.759
26765DA     SC273964  31.291  59.630  40.630
26765DA     SC373965  31.456  59.527  40.798
26765DA     SC473966  31.427  59.795  40.873
26766DA     BB173967  30.962  60.321  40.658
26766DA     BB273968  30.811  60.031  40.493
26766DA     BB373969  30.691  59.921  40.631
26766DA     SC173970  30.922  59.734  40.722
26766DA     SC273971  30.985  59.494  40.699
26766DA     SC373972  31.135  59.535  40.904
26766DA     SC473973  31.008  59.779  40.851
26767DA     BB173974  30.451  59.962  40.406
26767DA     BB273975  30.440  59.596  40.377
26767DA     BB373976  30.334  59.512  40.542
26767DA     SC173977  30.588  59.478  40.718
26767DA     SC273978  30.728  59.291  40.806
26767DA     SC373979  30.810  59.461  40.979
26767DA     SC473980  30.626  59.598  40.818
26768DA     BB173981  30.146  59.368  40.311
26768DA     BB273982  30.262  59.046  40.441
26768DA     BB373983  30.158  58.996  40.620
26768DA     SC173984  30.365  59.133  40.808
26768DA     SC273985  30.536  59.063  40.975
26768DA     SC373986  30.519  59.304  41.062
26768DA     SC473987  30.338  59.286  40.848
26769DT     BB173988  30.023  58.831  40.630
26769DT     BB273989  30.243  58.612  40.814
26769DT     BB373990  30.176  58.591  41.008
26769DT     SC173991  30.260  58.832  41.071
26769DT     SC273992  30.427  58.816  41.206
26769DT     SC373993  30.255  59.085  41.147
26770DA     BB173994  30.230  58.206  40.853
26770DA     BB273995  30.407  58.226  41.174
26770DA     BB373996  30.268  58.223  41.336
26770DA     SC173997  30.239  58.533  41.347
26770DA     SC273998  30.302  58.719  41.500
26770DA     SC373999  30.119  58.853  41.380
26770DA     SC474000  30.120  58.599  41.261
26771DT     BB174001  30.278  58.067  41.453
26771DT     BB274002  30.441  58.233  41.729
26771DT     BB374003  30.305  58.269  41.880
26771DT     SC174004  30.195  58.466  41.745
26771DT     SC274005  30.241  58.653  41.842
26771DT     SC374006  30.015  58.606  41.614
26772DC     BB174007  30.442  58.086  42.010
26772DC     BB274008  30.457  58.381  42.218
26772DC     BB374009  30.285  58.396  42.332
26772DC     SC174010  30.144  58.473  42.124
26772DC     SC274011  30.090  58.680  42.148
26772DC     SC374012  29.961  58.472  41.935
26773DA     BB174013  30.631  58.444  42.566
26773DA     BB274014  30.396  58.712  42.650
26773DA     BB374015  30.227  58.633  42.754
26773DA     SC174016  30.060  58.583  42.496
26773DA     SC274017  29.857  58.677  42.387
26773DA     SC374018  29.848  58.455  42.259
26773DA     SC474019  30.071  58.438  42.428
26774DT     BB174020  30.210  58.690  42.936
26774DT     BB274021  29.925  58.907  42.893
26774DT     BB374022  29.753  58.811  42.956
26774DT     SC174023  29.750  58.660  42.741
26774DT     SC274024  29.584  58.718  42.616
26774DT     SC374025  29.757  58.445  42.589
26775DA     BB174026  29.755  59.178  43.162
26775DA     BB274027  29.419  59.132  43.021
26775DA     BB374028  29.313  58.983  43.131
26775DA     SC174029  29.408  58.747  42.952
26775DA     SC274030  29.308  58.591  42.785
26775DA     SC374031  29.512  58.443  42.833
26775DA     SC474032  29.540  58.669  42.996
26776DT     BB174033  29.133  59.020  43.265
26776DT     BB274034  28.885  58.878  43.044
26776DT     BB374035  28.814  58.700  43.122
26776DT     SC174036  29.035  58.574  43.058
26776DT     SC274037  28.994  58.435  42.899
26776DT     SC374038  29.261  58.440  43.083
26777DT     BB174039  28.556  58.793  43.215
26777DT     BB274040  28.473  58.519  42.995
26777DT     BB374041  28.456  58.344  43.103
26777DT     SC174042  28.717  58.326  43.130
26777DT     SC274043  28.789  58.160  43.013
26777DT     SC374044  28.955  58.317  43.244
26778DT     BB174045  28.171  58.324  43.095
26778DT     BB274046  28.285  58.017  42.944
26778DT     BB374047  28.300  57.869  43.088
26778DT     SC174048  28.519  57.974  43.186
26778DT     SC274049  28.686  57.846  43.142
26778DT     SC374050  28.684  58.090  43.356
26779DC     BB174051  28.080  57.741  42.985
26779DC     BB274052  28.348  57.501  42.959
26779DC     BB374053  28.361  57.389  43.133
26779DC     SC174054  28.469  57.590  43.263
26779DC     SC274055  28.675  57.544  43.306
26779DC     SC374056  28.501  57.782  43.441
26780DT     BB174057  28.278  57.199  42.975
26780DT     BB274058  28.600  57.092  43.099
26780DT     BB374059  28.578  57.008  43.287
26780DT     SC174060  28.545  57.244  43.397
26780DT     SC274061  28.716  57.292  43.518
26780DT     SC374062  28.431  57.445  43.525
26781DA     BB174063  28.814  56.791  43.015
26781DA     BB274064  28.994  56.818  43.333
26781DA     BB374065  28.894  56.706  43.485
26781DA     SC174066  28.716  56.944  43.578
26781DA     SC274067  28.696  57.092  43.777
26781DA     SC374068  28.458  57.140  43.692
26781DA     SC474069  28.571  56.959  43.510
26782DT     BB174070  29.007  56.586  43.530
26782DT     BB274071  29.087  56.717  43.856
26782DT     BB374072  28.966  56.630  43.999
26782DT     SC174073  28.760  56.774  43.924
26782DT     SC274074  28.713  56.917  44.077
26782DT     SC374075  28.522  56.836  43.828
26783DA     BB174076  29.369  56.612  44.118
26783DA     BB274077  29.170  56.728  44.403
26783DA     BB374078  29.048  56.570  44.478
26783DA     SC174079  28.805  56.637  44.296
26783DA     SC274080  28.574  56.728  44.322
26783DA     SC374081  28.528  56.620  44.094
26783DA     SC474082  28.795  56.561  44.154
26784DG     BB174083  29.208  56.621  44.739
26784DG     BB274084  28.882  56.705  44.870
26784DG     BB374085  28.783  56.539  44.917
26784DG     SC174086  28.656  56.508  44.640
26784DG     SC274087  28.365  56.533  44.577
26784DG     SC374088  28.515  56.431  44.343
26784DG     SC474089  28.735  56.425  44.528
26785DT     BB174090  28.721  56.491  45.128
26785DT     BB274091  28.365  56.550  45.115
26785DT     BB374092  28.263  56.370  45.108
26785DT     SC174093  28.329  56.333  44.857
26785DT     SC274094  28.154  56.352  44.734
26785DT     SC374095  28.438  56.225  44.642
26786DT     BB174096  28.179  56.399  45.367
26786DT     BB274097  27.874  56.356  45.179
26786DT     BB374098  27.830  56.155  45.161
26786DT     SC174099  28.019  56.121  44.982
26786DT     SC274100  27.929  56.083  44.790
26786DT     SC374101  28.240  56.034  44.868
26787DA     BB174102  27.486  56.343  45.310
26787DA     BB274103  27.385  56.130  45.029
26787DA     BB374104  27.390  55.924  45.086
26787DA     SC174105  27.685  55.882  44.995
26787DA     SC274106  27.808  55.761  44.816
26787DA     SC374107  28.012  55.781  44.969
26787DA     SC474108  27.800  55.904  45.106
26788DG     BB174109  27.088  55.934  45.014
26788DG     BB274110  27.186  55.696  44.760
26788DG     BB374111  27.198  55.514  44.839
26788DG     SC174112  27.493  55.541  44.916
26788DG     SC274113  27.720  55.388  44.798
26788DG     SC374114  27.810  55.544  45.032
26788DG     SC474115  27.531  55.603  45.059
26789DA     BB174116  26.990  55.408  44.580
26789DA     BB274117  27.245  55.168  44.471
26789DA     BB374118  27.250  55.000  44.602
26789DA     SC174119  27.465  55.124  44.791
26789DA     SC274120  27.704  55.085  44.849
26789DA     SC374121  27.653  55.217  45.062
26789DA     SC474122  27.413  55.207  44.918
26790DT     BB174123  27.191  54.811  44.537
26790DT     BB274124  27.519  54.662  44.521
26790DT     BB374125  27.545  54.532  44.681
26790DT     SC174126  27.576  54.731  44.848
26790DT     SC274127  27.780  54.738  44.915
26790DT     SC374128  27.531  54.895  45.051
26791DT     BB174129  27.517  54.290  44.533
26791DT     BB274130  27.836  54.251  44.696
26791DT     BB374131  27.811  54.155  44.878
26791DT     SC174132  27.712  54.372  44.987
26791DT     SC274133  27.851  54.450  45.131
26791DT     SC374134  27.540  54.536  45.103
26792DA     BB174135  28.097  53.914  44.687
26792DA     BB274136  28.225  53.989  45.023
26792DA     BB374137  28.126  53.869  45.168
26792DA     SC174138  27.900  54.077  45.221
26792DA     SC274139  27.830  54.230  45.405
26792DA     SC374140  27.601  54.231  45.288
26792DA     SC474141  27.765  54.064  45.135
26793DG     BB174142  28.407  53.747  45.237
26793DG     BB274143  28.352  53.912  45.555
26793DG     BB374144  28.246  53.794  45.675
26793DG     SC174145  27.975  53.902  45.580
26793DG     SC274146  27.782  54.060  45.745
26793DG     SC374147  27.661  53.982  45.486
26793DG     SC474148  27.904  53.833  45.454
26794DT     BB174149  28.328  53.716  45.870
26794DT     BB274150  28.153  53.925  46.106
26794DT     BB374151  28.004  53.817  46.200
26794DT     SC174152  27.852  53.826  45.986
26794DT     SC274153  27.682  53.952  46.023
26794DT     SC374154  27.714  53.745  45.776
26795DG     BB174155  28.250  53.962  46.489
26795DG     BB274156  27.905  54.048  46.554
26795DG     BB374157  27.809  53.891  46.629
26795DG     SC174158  27.723  53.783  46.356
26795DG     SC274159  27.443  53.768  46.253
26795DG     SC374160  27.629  53.625  46.073
26795DG     SC474161  27.820  53.683  46.278
26796DA     BB174162  27.710  54.108  46.879
26796DA     BB274163  27.358  54.046  46.794
26796DA     BB374164  27.298  53.854  46.866
26796DA     SC174165  27.375  53.705  46.604
26796DA     SC274166  27.259  53.591  46.416
26796DA     SC374167  27.484  53.474  46.374
26796DA     SC474168  27.523  53.642  46.596
26797DT     BB174169  27.159  53.847  47.013
26797DT     BB274170  26.884  53.733  46.809
26797DT     BB374171  26.849  53.532  46.843
26797DT     SC174172  27.061  53.463  46.705
26797DT     SC274173  27.000  53.367  46.523
26797DT     SC374174  27.298  53.363  46.649
26798DA     BB174175  26.479  53.724  46.896
26798DA     BB274176  26.425  53.437  46.675
26798DA     BB374177  26.430  53.255  46.786
26798DA     SC174178  26.736  53.212  46.747
26798DA     SC274179  26.886  53.055  46.624
26798DA     SC374180  27.067  53.131  46.789
26798DA     SC474181  26.834  53.270  46.860
26799DA     BB174182  26.134  53.203  46.650
26799DA     BB274183  26.277  52.906  46.491
26799DA     BB374184  26.292  52.746  46.631
26799DA     SC174185  26.580  52.821  46.723
26799DA     SC274186  26.810  52.727  46.703
26799DA     SC374187  26.866  52.875  46.905
26799DA     SC474188  26.594  52.918  46.850
26800DA     BB174189  26.122  52.588  46.400
26800DA     BB274190  26.408  52.360  46.372
26800DA     BB374191  26.410  52.223  46.536
26800DA     SC174192  26.586  52.404  46.717
26800DA     SC274193  26.818  52.403  46.809
26800DA     SC374194  26.729  52.568  46.983
26800DA     SC474195  26.511  52.505  46.818
26801DG     BB174196  26.389  52.019  46.305
26801DG     BB274197  26.717  51.924  46.423
26801DG     BB374198  26.700  51.805  46.582
26801DG     SC174199  26.701  52.034  46.785
26801DG     SC274200  26.915  52.090  46.985
26801DG     SC374201  26.679  52.262  47.033
26801DG     SC474202  26.562  52.103  46.825
26802DA     BB174203  26.915  51.608  46.399
26802DA     BB274204  27.160  51.629  46.671
26802DA     BB374205  27.097  51.509  46.836
26802DA     SC174206  26.941  51.740  46.975
26802DA     SC274207  26.963  51.881  47.179
26802DA     SC374208  26.712  51.926  47.151
26802DA     SC474209  26.784  51.754  46.941
26803DT     BB174210  27.214  51.368  46.869
26803DT     BB274211  27.366  51.506  47.166
26803DT     BB374212  27.281  51.421  47.334
26803DT     SC174213  27.062  51.563  47.305
26803DT     SC274214  27.050  51.708  47.463
26803DT     SC374215  26.808  51.622  47.266
26804DT     BB174216  27.515  51.303  47.362
26804DT     BB274217  27.465  51.488  47.667
26804DT     BB374218  27.344  51.380  47.796
26804DT     SC174219  27.130  51.435  47.654
26804DT     SC274220  27.003  51.568  47.765
26804DT     SC374221  26.918  51.400  47.502
26805DT     BB174222  27.564  51.354  47.938
26805DT     BB274223  27.325  51.509  48.159
26805DT     BB374224  27.200  51.366  48.241
26805DT     SC174225  27.069  51.341  48.015
26805DT     SC274226  26.870  51.421  48.039
26805DT     SC374227  26.971  51.233  47.795
26806DT     BB174228  27.328  51.417  48.465
26806DT     BB274229  26.979  51.477  48.537
26806DT     BB374230  26.884  51.297  48.579
26806DT     SC174231  26.884  51.230  48.325
26806DT     SC274232  26.683  51.235  48.250
26806DT     SC374233  26.937  51.096  48.104
26807DT     BB174234  26.872  51.384  48.828
26807DT     BB274235  26.531  51.314  48.737
26807DT     BB374236  26.491  51.112  48.759
26807DT     SC174237  26.627  51.054  48.542
26807DT     SC274238  26.491  50.988  48.388
26807DT     SC374239  26.813  50.952  48.386
26808DA     BB174240  26.191  51.328  48.960
26808DA     BB274241  26.029  51.072  48.753
26808DA     BB374242  26.063  50.878  48.836
26808DA     SC174243  26.323  50.827  48.673
26808DA     SC274244  26.398  50.681  48.485
26808DA     SC374245  26.636  50.729  48.570
26808DA     SC474246  26.463  50.868  48.741
26809DA     BB174247  25.733  50.863  48.818
26809DA     BB274248  25.777  50.574  48.596
26809DA     BB374249  25.836  50.403  48.708
26809DA     SC174250  26.141  50.457  48.677
26809DA     SC274251  26.336  50.357  48.558
26809DA     SC374252  26.480  50.484  48.728
26809DA     SC474253  26.213  50.543  48.792
26810DA     BB174254  25.574  50.261  48.562
26810DA     BB274255  25.808  50.022  48.412
26810DA     BB374256  25.871  49.879  48.557
26810DA     SC174257  26.118  50.045  48.650
26810DA     SC274258  26.366  50.030  48.634
26810DA     SC374259  26.368  50.193  48.833
26810DA     SC474260  26.098  50.145  48.774
26811DT     BB174261  25.818  49.667  48.550
26811DT     BB274262  26.141  49.547  48.443
26811DT     BB374263  26.234  49.446  48.598
26811DT     SC174264  26.288  49.671  48.722
26811DT     SC274265  26.501  49.706  48.716
26811DT     SC374266  26.288  49.859  48.907
26812DT     BB174267  26.194  49.196  48.484
26812DT     BB274268  26.552  49.219  48.527
26812DT     BB374269  26.605  49.146  48.713
26812DT     SC174270  26.514  49.362  48.832
26812DT     SC274271  26.679  49.475  48.911
26812DT     SC374272  26.367  49.517  48.987
26813DC     BB174273  26.714  48.930  48.594
26813DC     BB274274  26.985  49.081  48.779
26813DC     BB374275  26.985  49.011  48.974
26813DC     SC174276  26.778  49.161  49.035
26813DC     SC274277  26.840  49.318  49.168
26813DC     SC374278  26.534  49.228  49.109
26814DT     BB174279  27.206  48.884  48.904
26814DT     BB274280  27.300  49.097  49.180
26814DT     BB374281  27.253  49.005  49.360
26814DT     SC174282  26.998  49.056  49.327
26814DT     SC274283  26.935  49.203  49.471
26814DT     SC374284  26.739  49.016  49.294
26815DA     BB174285  27.647  49.154  49.353
26815DA     BB274286  27.485  49.263  49.664
26815DA     BB374287  27.452  49.096  49.792
26815DA     SC174288  27.168  49.033  49.680
26815DA     SC274289  26.932  49.047  49.758
26815DA     SC374290  26.882  48.879  49.571
26815DA     SC474291  27.158  48.928  49.559
26816DA     BB174292  27.605  49.316  49.981
26816DA     BB274293  27.311  49.296  50.199
26816DA     BB374294  27.304  49.107  50.297
26816DA     SC174295  27.133  48.972  50.075
26816DA     SC274296  26.900  48.886  50.047
26816DA     SC374297  26.995  48.751  49.851
26816DA     SC474298  27.211  48.895  49.957
26817DA     BB174299  27.279  49.307  50.557
26817DA     BB274300  26.960  49.142  50.629
26817DA     BB374301  26.994  48.944  50.702
26817DA     SC174302  26.985  48.813  50.420
26817DA     SC274303  26.834  48.662  50.291
26817DA     SC374304  27.039  48.614  50.145
26817DA     SC474305  27.124  48.796  50.341
26818DT     BB174306  26.950  48.888  50.902
26818DT     BB274307  26.660  48.686  50.831
26818DT     BB374308  26.707  48.486  50.851
26818DT     SC174309  26.839  48.486  50.625
26818DT     SC274310  26.731  48.370  50.479
26818DT     SC374311  27.039  48.466  50.454
26819DG     BB174312  26.413  48.520  51.140
26819DG     BB274313  26.340  48.245  50.916
26819DG     BB374314  26.442  48.083  50.972
26819DG     SC174315  26.686  48.148  50.800
26819DG     SC274316  26.781  47.992  50.563
26819DG     SC374317  26.979  48.199  50.639
26819DG     SC474318  26.803  48.239  50.862
26820DA     BB174319  26.153  47.875  50.995
26820DA     BB274320  26.282  47.659  50.729
26820DA     BB374321  26.421  47.517  50.808
26820DA     SC174322  26.669  47.699  50.764
26820DA     SC274323  26.871  47.704  50.617
26820DA     SC374324  26.970  47.861  50.794
26820DA     SC474325  26.714  47.794  50.886
26821DA     BB174326  26.224  47.293  50.668
26821DA     BB274327  26.507  47.209  50.450
26821DA     BB374328  26.645  47.084  50.553
26821DA     SC174329  26.815  47.320  50.663
26821DA     SC274330  27.042  47.416  50.626
26821DA     SC374331  27.011  47.526  50.856
26821DA     SC474332  26.777  47.378  50.808
26822DT     BB174333  26.664  46.906  50.479
26822DT     BB274334  26.981  46.966  50.318
26822DT     BB374335  27.134  46.881  50.428
26822DT     SC174336  27.119  47.070  50.609
26822DT     SC274337  27.296  47.193  50.598
26822DT     SC374338  27.082  47.188  50.842
26823DA     BB174339  27.148  46.792  50.017
26823DA     BB274340  27.477  46.913  50.124
26823DA     BB374341  27.569  46.771  50.254
26823DA     SC174342  27.452  46.895  50.514
26823DA     SC274343  27.535  47.022  50.712
26823DA     SC374344  27.319  46.945  50.826
26823DA     SC474345  27.312  46.837  50.568
26824DA     BB174346  27.778  46.857  50.017
26824DA     BB274347  27.994  46.968  50.292
26824DA     BB374348  28.059  46.801  50.407
26824DA     SC174349  27.820  46.814  50.606
26824DA     SC274350  27.782  46.872  50.846
26824DA     SC374351  27.564  46.738  50.822
26824DA     SC474352  27.690  46.726  50.572
26825DG     BB174353  28.317  46.939  50.311
26825DG     BB274354  28.364  46.982  50.667
26825DG     BB374355  28.413  46.808  50.750
26825DG     SC174356  28.124  46.724  50.806
26825DG     SC274357  27.999  46.693  51.075
26825DG     SC374358  27.819  46.592  50.863
26825DG     SC474359  28.044  46.644  50.693
26826DA     BB174360  28.669  46.999  50.888
26826DA     BB274361  28.556  46.901  51.222
26826DA     BB374362  28.600  46.695  51.258
26826DA     SC174363  28.327  46.593  51.149
26826DA     SC274364  28.120  46.489  51.240
26826DA     SC374365  28.078  46.411  50.999
26826DA     SC474366  28.320  46.552  50.993
26827DA     BB174367  28.749  46.818  51.527
26827DA     BB274368  28.519  46.612  51.725
26827DA     BB374369  28.577  46.407  51.716
26827DA     SC174370  28.401  46.343  51.467
26827DA     SC274371  28.195  46.212  51.416
26827DA     SC374372  28.277  46.218  51.172
26827DA     SC474373  28.469  46.357  51.322
26828DT     BB174374  28.650  46.303  51.885
26828DT     BB274375  28.354  46.106  51.945
26828DT     BB374376  28.387  45.909  51.888
26828DT     SC174377  28.370  45.972  51.634
26828DT     SC274378  28.190  45.887  51.552
26828DT     SC374379  28.439  46.006  51.382
26829DG     BB174380  28.295  45.882  52.286
26829DG     BB274381  28.083  45.667  52.087
26829DG     BB374382  28.180  45.500  52.041
26829DG     SC174383  28.299  45.611  51.782
26829DG     SC274384  28.233  45.519  51.505
26829DG     SC374385  28.462  45.706  51.502
26829DG     SC474386  28.439  45.687  51.787
26830DT     BB174387  28.109  45.298  52.110
26830DT     BB274388  27.963  45.173  51.804
26830DT     BB374389  28.087  45.031  51.719
26830DT     SC174390  28.255  45.216  51.637
26830DT     SC274391  28.246  45.230  51.423
26830DT     SC374392  28.477  45.356  51.612
26831DA     BB174393  27.702  44.871  51.748
26831DA     BB274394  27.819  44.823  51.404
26831DA     BB374395  27.967  44.669  51.396
26831DA     SC174396  28.207  44.863  51.438
26831DA     SC274397  28.398  44.952  51.305
26831DA     SC374398  28.504  45.007  51.532
26831DA     SC474399  28.257  44.888  51.589
26832DA     BB174400  27.750  44.582  51.171
26832DA     BB274401  28.024  44.611  50.930
26832DA     BB374402  28.162  44.450  50.954
26832DA     SC174403  28.341  44.602  51.158
26832DA     SC274404  28.569  44.702  51.165
26832DA     SC374405  28.546  44.687  51.420
26832DA     SC474406  28.308  44.583  51.315
26833DC     BB174407  28.166  44.341  50.805
26833DC     BB274408  28.488  44.448  50.681
26833DC     BB374409  28.633  44.311  50.736
26833DC     SC174410  28.631  44.395  50.984
26833DC     SC274411  28.816  44.497  51.026
26833DC     SC374412  28.601  44.395  51.246
26834DT     BB174413  28.641  44.246  50.479
26834DT     BB274414  28.980  44.339  50.562
26834DT     BB374415  29.078  44.178  50.648
26834DT     SC174416  28.948  44.208  50.873
26834DT     SC274417  29.084  44.278  51.025
26834DT     SC374418  28.787  44.157  51.076
26835DT     BB174419  29.222  44.156  50.422
26835DT     BB274420  29.468  44.191  50.683
26835DT     BB374421  29.508  44.007  50.768
26835DT     SC174422  29.280  44.007  50.897
26835DT     SC274423  29.317  44.029  51.108
26835DT     SC374424  29.037  43.936  50.972
26836DT     BB174425  29.752  44.001  50.647
26836DT     BB274426  29.825  43.960  50.998
26836DT     BB374427  29.815  43.760  51.050
26836DT     SC174428  29.552  43.763  51.040
26836DT     SC274429  29.474  43.742  51.240
26836DT     SC374430  29.306  43.707  50.964
26837DG     BB174431  30.193  43.879  51.146
26837DG     BB274432  30.031  43.718  51.427
26837DG     BB374433  30.036  43.521  51.404
26837DG     SC174434  29.771  43.506  51.252
26837DG     SC274435  29.519  43.379  51.349
26837DG     SC374436  29.495  43.456  51.065
26837DG     SC474437  29.772  43.522  51.092
26838DA     BB174438  30.171  43.508  51.723
26838DA     BB274439  29.888  43.303  51.835
26838DA     BB374440  29.911  43.102  51.768
26838DA     SC174441  29.756  43.149  51.502
26838DA     SC274442  29.538  43.081  51.400
26838DA     SC374443  29.647  43.141  51.176
26838DA     SC474444  29.842  43.190  51.372
26839DA     BB174445  29.866  43.053  52.088
26839DA     BB274446  29.568  42.861  51.995
26839DA     BB374447  29.623  42.672  51.914
26839DA     SC174448  29.634  42.774  51.620
26839DA     SC274449  29.503  42.745  51.410
26839DA     SC374450  29.715  42.828  51.291
26839DA     SC474451  29.775  42.827  51.565
26840DT     BB174452  29.569  42.524  52.019
26840DT     BB274453  29.302  42.411  51.804
26840DT     BB374454  29.366  42.250  51.691
26840DT     SC174455  29.509  42.405  51.536
26840DT     SC274456  29.420  42.412  51.340
26840DT     SC374457  29.720  42.511  51.416
26841DT     BB174458  29.205  42.100  51.841
26841DT     BB274459  29.096  42.042  51.502
26841DT     BB374460  29.214  41.896  51.414
26841DT     SC174461  29.415  42.063  51.388
26841DT     SC274462  29.444  42.107  51.179
26841DT     SC374463  29.654  42.171  51.418
26842DA     BB174464  28.813  41.785  51.358
26842DA     BB274465  28.985  41.755  51.035
26842DA     BB374466  29.116  41.587  51.036
26842DA     SC174467  29.362  41.747  51.139
26842DA     SC274468  29.582  41.825  51.051
26842DA     SC374469  29.650  41.847  51.297
26842DA     SC474470  29.386  41.753  51.298
26843DA     BB174471  28.946  41.508  50.765
26843DA     BB274472  29.264  41.526  50.583
26843DA     BB374473  29.383  41.354  50.624
26843DA     SC174474  29.529  41.482  50.867
26843DA     SC274475  29.758  41.563  50.923
26843DA     SC374476  29.684  41.538  51.168
26843DA     SC474477  29.465  41.458  51.013
26844DT     BB174478  29.422  41.219  50.474
26844DT     BB274479  29.767  41.312  50.422
26844DT     BB374480  29.892  41.168  50.503
26844DT     SC174481  29.841  41.249  50.747
26844DT     SC274482  30.017  41.342  50.829
26844DT     SC374483  29.757  41.247  50.997
26845DA     BB174484  30.016  41.225  50.106
26845DA     BB274485  30.313  41.246  50.321
26845DA     BB374486  30.368  41.052  50.391
26845DA     SC174487  30.194  41.069  50.649
26845DA     SC274488  30.231  41.088  50.895
26845DA     SC374489  29.991  40.999  50.917
26845DA     SC474490  30.044  41.011  50.641
26846DT     BB174491  30.544  40.974  50.329
26846DT     BB274492  30.722  41.023  50.639
26846DT     BB374493  30.744  40.842  50.737
26846DT     SC174494  30.492  40.842  50.810
26846DT     SC274495  30.479  40.872  51.022
26846DT     SC374496  30.239  40.768  50.830
26847DA     BB174497  31.116  41.033  50.711
26847DA     BB274498  31.064  40.929  51.059
26847DA     BB374499  31.080  40.717  51.076
26847DA     SC174500  30.777  40.665  51.028
26847DA     SC274501  30.580  40.588  51.159
26847DA     SC374502  30.475  40.535  50.931
26847DA     SC474503  30.730  40.638  50.876
26848DT     BB174504  31.227  40.660  51.181
26848DT     BB274505  31.037  40.558  51.470
26848DT     BB374506  31.015  40.352  51.472
26848DT     SC174507  30.836  40.362  51.280
26848DT     SC274508  30.644  40.309  51.359
26848DT     SC374509  30.722  40.325  51.045
26849DT     BB174510  31.182  40.356  51.678
26849DT     BB274511  30.885  40.191  51.799
26849DT     BB374512  30.888  39.991  51.746
26849DT     SC174513  30.830  40.048  51.497
26849DT     SC274514  30.631  39.980  51.452
26849DT     SC374515  30.854  40.069  51.235
26850DT     BB174516  30.928  39.942  52.003
26850DT     BB274517  30.632  39.755  51.917
26850DT     BB374518  30.686  39.574  51.831
26850DT     SC174519  30.752  39.692  51.606
26850DT     SC274520  30.610  39.639  51.453
26850DT     SC374521  30.900  39.778  51.405
26851DT     BB174522  30.616  39.428  52.057
26851DT     BB274523  30.425  39.274  51.792
26851DT     BB374524  30.535  39.122  51.705
26851DT     SC174525  30.688  39.293  51.579
26851DT     SC274526  30.647  39.284  51.368
26851DT     SC374527  30.903  39.426  51.506
26852DT     BB174528  30.383  38.920  51.824
26852DT     BB274529  30.363  38.847  51.471
26852DT     BB374530  30.518  38.721  51.416
26852DT     SC174531  30.692  38.917  51.429
26852DT     SC274532  30.760  38.966  51.231
26852DT     SC374533  30.900  39.059  51.508
26853DA     BB174534  30.167  38.539  51.279
26853DA     BB274535  30.406  38.542  51.001
26853DA     BB374536  30.557  38.394  51.031
26853DA     SC174537  30.749  38.586  51.183
26853DA     SC274538  30.969  38.697  51.142
26853DA     SC374539  30.980  38.723  51.397
26853DA     SC474540  30.738  38.591  51.343
26854DT     BB174541  30.565  38.238  50.903
26854DT     BB274542  30.859  38.342  50.722
26854DT     BB374543  31.021  38.226  50.778
26854DT     SC174544  31.042  38.352  51.007
26854DT     SC274545  31.221  38.471  51.007
26854DT     SC374546  31.043  38.394  51.267
26855DT     BB174547  31.010  38.106  50.536
26855DT     BB274548  31.347  38.234  50.558
26855DT     BB374549  31.469  38.097  50.654
26855DT     SC174550  31.365  38.157  50.887
26855DT     SC274551  31.511  38.260  51.007
26855DT     SC374552  31.235  38.130  51.115
26856DA     BB174553  31.659  38.201  50.295
26856DA     BB274554  31.910  38.217  50.562
26856DA     BB374555  31.964  38.021  50.624
26856DA     SC174556  31.746  38.005  50.846
26856DA     SC274557  31.737  38.002  51.095
26856DA     SC374558  31.504  37.900  51.065
26856DA     SC474559  31.605  37.940  50.807
26857DA     BB174560  32.274  38.120  50.561
26857DA     BB274561  32.355  38.048  50.911
26857DA     BB374562  32.375  37.838  50.941
26857DA     SC174563  32.075  37.795  51.013
26857DA     SC274564  31.941  37.737  51.215
26857DA     SC374565  31.758  37.668  51.048
26857DA     SC474566  31.975  37.756  50.894
26858DT     BB174567  32.571  37.721  50.987
26858DT     BB274568  32.501  37.646  51.332
26858DT     BB374569  32.465  37.443  51.355
26858DT     SC174570  32.227  37.464  51.246
26858DT     SC274571  32.077  37.432  51.397
26858DT     SC374572  32.028  37.432  51.077
26859DT     BB174573  32.724  37.339  51.473
26859DT     BB274574  32.479  37.220  51.709
26859DT     BB374575  32.428  37.024  51.665
26859DT     SC174576  32.284  37.099  51.459
26859DT     SC274577  32.076  37.066  51.501
26859DT     SC374578  32.203  37.126  51.209
26860DT     BB174579  32.579  36.855  51.873
26860DT     BB274580  32.236  36.754  51.921
26860DT     BB374581  32.200  36.577  51.820
26860DT     SC174582  32.196  36.700  51.589
26860DT     SC274583  31.995  36.700  51.511
26860DT     SC374584  32.263  36.771  51.344
26861DC     BB174585  32.193  36.389  52.046
26861DC     BB274586  31.868  36.350  51.893
26861DC     BB374587  31.871  36.190  51.762
26861DC     SC174588  32.007  36.328  51.584
26861DC     SC274589  31.881  36.371  51.415
26861DC     SC374590  32.204  36.401  51.425
26862DT     BB174591  31.717  36.029  51.929
26862DT     BB274592  31.524  36.053  51.625
26862DT     BB374593  31.575  35.899  51.496
26862DT     SC174594  31.803  36.015  51.435
26862DT     SC274595  31.795  36.083  51.231
26862DT     SC374596  32.062  36.056  51.413
26863DA     BB174597  31.160  35.909  51.540
26863DA     BB274598  31.236  35.903  51.182
26863DA     BB374599  31.304  35.709  51.124
26863DA     SC174600  31.604  35.772  51.174
26863DA     SC274601  31.811  35.805  51.039
26863DA     SC374602  31.937  35.754  51.257
26863DA     SC474603  31.664  35.737  51.319
26864DG     BB174604  31.057  35.734  50.941
26864DG     BB274605  31.308  35.726  50.681
26864DG     BB374606  31.364  35.538  50.646
26864DG     SC174607  31.589  35.541  50.854
26864DG     SC274608  31.881  35.523  50.795
26864DG     SC374609  31.830  35.502  51.086
26864DG     SC474610  31.555  35.500  51.005
26865DT     BB174611  31.330  35.448  50.449
26865DT     BB274612  31.664  35.448  50.313
26865DT     BB374613  31.743  35.257  50.320
26865DT     SC174614  31.782  35.275  50.579
26865DT     SC274615  31.993  35.285  50.619
26865DT     SC374616  31.760  35.225  50.837
26866DT     BB174617  31.718  35.240  50.051
26866DT     BB274618  32.069  35.184  50.115
26866DT     BB374619  32.102  34.983  50.154
26866DT     SC174620  31.998  35.004  50.394
26866DT     SC274621  32.153  34.982  50.541
26866DT     SC374622  31.835  34.967  50.597
26867DA     BB174623  32.369  35.115  49.860
26867DA     BB274624  32.561  34.938  50.117
26867DA     BB374625  32.525  34.728  50.105
26867DA     SC174626  32.286  34.733  50.304
26867DA     SC274627  32.236  34.654  50.535
26867DA     SC374628  31.990  34.673  50.467
26867DA     SC474629  32.138  34.750  50.242
26868DA     BB174630  32.848  34.756  50.101
26868DA     BB274631  32.845  34.555  50.407
26868DA     BB374632  32.795  34.352  50.362
26868DA     SC174633  32.489  34.394  50.401
26868DA     SC274634  32.312  34.325  50.564
26868DA     SC374635  32.147  34.380  50.376
26868DA     SC474636  32.402  34.432  50.272
26869DT     BB174637  32.933  34.256  50.406
26869DT     BB274638  32.793  34.100  50.700
26869DT     BB374639  32.714  33.915  50.651
26869DT     SC174640  32.507  34.026  50.534
26869DT     SC274641  32.331  33.988  50.651
26869DT     SC374642  32.336  34.096  50.346
26870DC     BB174643  32.913  33.847  50.799
26870DC     BB274644  32.622  33.697  50.950
26870DC     BB374645  32.566  33.528  50.843
26870DC     SC174646  32.467  33.674  50.649
26870DC     SC274647  32.253  33.656  50.648
26870DC     SC374648  32.434  33.779  50.409
26871DC     BB174649  32.654  33.392  51.053
26871DC     BB274650  32.317  33.273  51.002
26871DC     BB374651  32.315  33.126  50.856
26871DC     SC174652  32.349  33.303  50.665
26871DC     SC274653  32.168  33.318  50.549
26871DC     SC374654  32.459  33.434  50.464
26872DA     BB174655  32.114  32.963  51.186
26872DA     BB274656  31.916  32.887  50.887
26872DA     BB374657  32.011  32.735  50.772
26872DA     SC174658  32.174  32.935  50.598
26872DA     SC274659  32.177  33.014  50.362
26872DA     SC374660  32.417  33.090  50.411
26872DA     SC474661  32.322  32.974  50.648
26873DT     BB174662  31.930  32.538  50.750
26873DT     BB274663  31.828  32.564  50.405
26873DT     BB374664  31.955  32.453  50.285
26873DT     SC174665  32.145  32.633  50.308
26873DT     SC274666  32.172  32.732  50.118
26873DT     SC374667  32.376  32.743  50.370
26874DA     BB174668  31.582  32.290  50.178
26874DA     BB274669  31.760  32.358  49.865
26874DA     BB374670  31.908  32.208  49.829
26874DA     SC174671  32.134  32.361  49.978
26874DA     SC274672  32.346  32.479  49.920
26874DA     SC374673  32.409  32.445  50.166
26874DA     SC474674  32.156  32.328  50.134
26875DA     BB174675  31.773  32.137  49.527
26875DA     BB274676  32.090  32.234  49.371
26875DA     BB374677  32.229  32.073  49.379
26875DA     SC174678  32.351  32.159  49.652
26875DA     SC274679  32.566  32.253  49.737
26875DA     SC374680  32.490  32.164  49.966
26875DA     SC474681  32.287  32.096  49.785
26876DT     BB174682  32.316  31.935  49.198
26876DT     BB274683  32.645  32.083  49.189
26876DT     BB374684  32.786  31.945  49.250
26876DT     SC174685  32.713  31.970  49.501
26876DT     SC274686  32.870  32.069  49.611
26876DT     SC374687  32.619  31.908  49.740
26877DA     BB174688  32.955  32.029  48.869
26877DA     BB274689  33.228  32.061  49.111
26877DA     BB374690  33.308  31.869  49.159
26877DA     SC174691  33.116  31.823  49.400
26877DA     SC274692  33.132  31.810  49.648
26877DA     SC374693  32.908  31.685  49.636
26877DA     SC474694  32.978  31.746  49.371
26878DG     BB174695  33.610  31.922  49.039
26878DG     BB274696  33.710  31.902  49.386
26878DG     BB374697  33.765  31.716  49.430
26878DG     SC174698  33.485  31.626  49.513
26878DG     SC274699  33.400  31.549  49.789
26878DG     SC374700  33.187  31.488  49.592
26878DG     SC474701  33.386  31.567  49.401
26879DG     BB174702  34.088  31.783  49.517
26879DG     BB274703  33.992  31.690  49.853
26879DG     BB374704  34.031  31.497  49.884
26879DG     SC174705  33.757  31.401  49.787
26879DG     SC274706  33.547  31.273  49.956
26879DG     SC374707  33.475  31.259  49.669
26879DG     SC474708  33.737  31.369  49.632
26880DA     BB174709  34.202  31.602  50.160
26880DA     BB274710  33.963  31.424  50.373
26880DA     BB374711  34.010  31.217  50.381
26880DA     SC174712  33.832  31.141  50.138
26880DA     SC274713  33.620  31.016  50.096
26880DA     SC374714  33.702  30.999  49.854
26880DA     SC474715  33.901  31.140  49.993
26881DT     BB174716  34.047  31.182  50.549
26881DT     BB274717  33.734  31.019  50.624
26881DT     BB374718  33.757  30.814  50.613
26881DT     SC174719  33.762  30.821  50.351
26881DT     SC274720  33.583  30.731  50.273
26881DT     SC374721  33.851  30.796  50.104
26882DT     BB174722  33.706  30.864  50.859
26882DT     BB274723  33.444  30.645  50.742
26882DT     BB374724  33.515  30.452  50.725
26882DT     SC174725  33.648  30.511  50.507
26882DT     SC274726  33.557  30.413  50.339
26882DT     SC374727  33.851  30.549  50.343
26883DA     BB174728  33.139  30.499  50.915
26883DA     BB274729  33.119  30.227  50.670
26883DA     BB374730  33.243  30.063  50.730
26883DA     SC174731  33.494  30.166  50.577
26883DA     SC274732  33.629  30.100  50.378
26883DA     SC374733  33.814  30.244  50.481
26883DA     SC474734  33.597  30.259  50.658
26884DA     BB174735  32.947  29.938  50.661
26884DA     BB274736  33.123  29.725  50.421
26884DA     BB374737  33.249  29.586  50.524
26884DA     SC174738  33.497  29.773  50.522
26884DA     SC274739  33.721  29.782  50.411
26884DA     SC374740  33.786  29.942  50.601
26884DA     SC474741  33.519  29.869  50.649
26885DT     BB174742  33.196  29.407  50.502
26885DT     BB274743  33.466  29.302  50.288
26885DT     BB374744  33.611  29.204  50.399
26885DT     SC174745  33.697  29.430  50.501
26885DT     SC274746  33.892  29.473  50.422
26885DT     SC374747  33.754  29.616  50.679
26886DT     BB174748  33.534  28.969  50.290
26886DT     BB274749  33.887  28.989  50.220
26886DT     BB374750  33.995  28.915  50.381
26886DT     SC174751  33.947  29.131  50.522
26886DT     SC274752  34.129  29.243  50.546
26886DT     SC374753  33.856  29.286  50.715
26887DA     BB174754  34.138  28.707  50.046
26887DA     BB274755  34.429  28.828  50.234
26887DA     BB374756  34.456  28.712  50.411
26887DA     SC174757  34.280  28.897  50.588
26887DA     SC274758  34.312  29.058  50.776
26887DA     SC374759  34.062  29.022  50.822
26887DA     SC474760  34.124  28.860  50.602
26888DG     BB174761  34.735  28.638  50.290
26888DG     BB274762  34.859  28.815  50.581
26888DG     BB374763  34.860  28.694  50.738
26888DG     SC174764  34.576  28.765  50.826
26888DG     SC274765  34.500  28.910  51.075
26888DG     SC374766  34.260  28.804  50.939
26888DG     SC474767  34.453  28.681  50.766
26889DT     BB174768  35.050  28.636  50.844
26889DT     BB274769  35.027  28.830  51.147
26889DT     BB374770  34.973  28.708  51.305
26889DT     SC174771  34.725  28.695  51.221
26889DT     SC274772  34.597  28.803  51.357
26889DT     SC374773  34.499  28.594  51.129
26890DT     BB174774  35.225  28.724  51.408
26890DT     BB274775  35.011  28.838  51.676
26890DT     BB374776  34.945  28.676  51.787
26890DT     SC174777  34.776  28.606  51.598
26890DT     SC274778  34.575  28.641  51.666
26890DT     SC374779  34.661  28.464  51.409
26891DA     BB174780  35.111  28.945  52.063
26891DA     BB274781  34.781  28.845  52.188
26891DA     BB374782  34.787  28.645  52.261
26891DA     SC174783  34.710  28.517  51.988
26891DA     SC274784  34.515  28.397  51.889
26891DA     SC374785  34.682  28.310  51.715
26891DA     SC474786  34.829  28.472  51.891
26892DA     BB174787  34.663  28.789  52.530
26892DA     BB274788  34.368  28.576  52.483
26892DA     BB374789  34.411  28.376  52.544
26892DA     SC174790  34.506  28.285  52.262
26892DA     SC274791  34.425  28.136  52.079
26892DA     SC374792  34.669  28.136  51.999
26892DA     SC474793  34.663  28.297  52.229
26893DA     BB174794  34.142  28.432  52.723
26893DA     BB274795  33.987  28.157  52.538
26893DA     BB374796  34.064  27.969  52.605
26893DA     SC174797  34.295  27.963  52.397
26893DA     SC274798  34.357  27.833  52.193
26893DA     SC374799  34.596  27.917  52.237
26893DA     SC474800  34.437  28.025  52.441
26894DA     BB174801  33.741  27.921  52.634
26894DA     BB274802  33.784  27.649  52.391
26894DA     BB374803  33.883  27.483  52.482
26894DA     SC174804  34.169  27.580  52.407
26894DA     SC274805  34.352  27.510  52.253
26894DA     SC374806  34.505  27.650  52.404
26894DA     SC474807  34.247  27.670  52.514
26895DA     BB174808  33.617  27.336  52.358
26895DA     BB274809  33.850  27.134  52.159
26895DA     BB374810  33.948  26.991  52.283
26895DA     SC174811  34.187  27.177  52.351
26895DA     SC274812  34.431  27.191  52.299
26895DA     SC374813  34.445  27.342  52.507
26895DA     SC474814  34.176  27.267  52.484
26896DG     BB174815  33.813  26.791  52.087
26896DG     BB274816  34.156  26.716  52.002
26896DG     BB374817  34.234  26.593  52.138
26896DG     SC174818  34.336  26.819  52.318
26896DG     SC274819  34.622  26.884  52.372
26896DG     SC374820  34.443  27.040  52.549
26896DG     SC474821  34.239  26.878  52.431
26897DA     BB174822  34.327  26.389  51.872
26897DA     BB274823  34.679  26.423  51.969
26897DA     BB374824  34.720  26.303  52.141
26897DA     SC174825  34.654  26.529  52.345
26897DA     SC274826  34.777  26.673  52.507
26897DA     SC374827  34.549  26.707  52.619
26897DA     SC474828  34.504  26.536  52.401
26898DT     BB174829  34.847  26.144  52.123
26898DT     BB274830  35.128  26.297  52.290
26898DT     BB374831  35.149  26.218  52.480
26898DT     SC174832  34.943  26.354  52.568
26898DT     SC274833  35.011  26.506  52.704
26898DT     SC374834  34.704  26.407  52.668
26899DA     BB174835  35.522  26.185  52.290
26899DA     BB274836  35.574  26.344  52.616
26899DA     BB374837  35.553  26.201  52.773
26899DA     SC174838  35.248  26.249  52.811
26899DA     SC274839  35.097  26.350  52.982
26899DA     SC374840  34.912  26.214  52.869
26899DA     SC474841  35.147  26.156  52.728
26900DA     BB174842  35.845  26.331  52.837
26900DA     BB274843  35.697  26.444  53.153
26900DA     BB374844  35.672  26.279  53.286
26900DA     SC174845  35.384  26.213  53.189
26900DA     SC274846  35.151  26.226  53.278
26900DA     SC374847  35.094  26.054  53.096
26900DA     SC474848  35.368  26.105  53.071
26901DT     BB174849  35.779  26.287  53.447
26901DT     BB274850  35.511  26.375  53.672
26901DT     BB374851  35.454  26.209  53.781
26901DT     SC174852  35.329  26.106  53.574
26901DT     SC274853  35.117  26.112  53.608
26901DT     SC374854  35.269  25.940  53.379
26902DT     BB174855  35.563  26.336  53.985
26902DT     BB274856  35.220  26.280  54.081
26902DT     BB374857  35.197  26.089  54.155
26902DT     SC174858  35.213  25.985  53.915
26902DT     SC274859  35.021  25.906  53.858
26902DT     SC374860  35.302  25.844  53.711
26903DA     BB174861  35.028  26.367  54.419
26903DA     BB274862  34.785  26.099  54.363
26903DA     BB374863  34.849  25.920  54.459
26903DA     SC174864  35.005  25.814  54.211
26903DA     SC274865  34.982  25.630  54.044
26903DA     SC374866  35.233  25.666  54.002
26903DA     SC474867  35.161  25.850  54.200
26904DA     BB174868  34.544  25.958  54.571
26904DA     BB274869  34.472  25.633  54.418
26904DA     BB374870  34.566  25.476  54.529
26904DA     SC174871  34.829  25.482  54.363
26904DA     SC274872  34.947  25.337  54.199
26904DA     SC374873  35.157  25.470  54.262
26904DA     SC474874  34.948  25.576  54.417
26905DT     BB174875  34.443  25.356  54.613
26905DT     BB274876  34.496  25.076  54.392
26905DT     BB374877  34.621  24.937  54.481
26905DT     SC174878  34.831  25.089  54.440
26905DT     SC274879  34.958  24.997  54.292
26905DT     SC374880  35.041  25.240  54.490
26906DA     BB174881  34.277  24.747  54.333
26906DA     BB274882  34.571  24.557  54.224
26906DA     BB374883  34.660  24.456  54.389
26906DA     SC174884  34.853  24.691  54.459
26906DA     SC274885  35.098  24.738  54.449
26906DA     SC374886  35.049  24.922  54.621
26906DA     SC474887  34.802  24.799  54.567
26907DT     BB174888  34.652  24.269  54.377
26907DT     BB274889  35.001  24.210  54.305
26907DT     BB374890  35.099  24.151  54.476
26907DT     SC174891  35.096  24.395  54.572
26907DT     SC274892  35.296  24.475  54.573
26907DT     SC374893  35.042  24.599  54.731
26908DG     BB174894  35.154  23.866  54.190
26908DG     BB274895  35.468  23.968  54.337
26908DG     BB374896  35.488  23.887  54.517
26908DG     SC174897  35.352  24.119  54.664
26908DG     SC274898  35.484  24.307  54.854
26908DG     SC374899  35.191  24.345  54.855
26908DG     SC474900  35.193  24.116  54.684
26909DA     BB174901  35.800  23.776  54.409
26909DA     BB274902  35.961  23.954  54.686
26909DA     BB374903  35.928  23.851  54.870
26909DA     SC174904  35.667  24.005  54.938
26909DA     SC274905  35.591  24.175  55.104
26909DA     SC374906  35.354  24.094  55.047
26909DA     SC474907  35.528  23.940  54.890
26910DC     BB174908  36.086  23.758  54.973
26910DC     BB274909  36.108  23.994  55.245
26910DC     BB374910  36.028  23.911  55.417
26910DC     SC174911  35.783  23.943  55.327
26910DC     SC274912  35.684  24.096  55.442
26910DC     SC374913  35.540  23.885  55.242
26911DA     BB174914  36.413  24.022  55.548
26911DA     BB274915  36.174  24.148  55.796
26911DA     BB374916  36.106  23.989  55.921
26911DA     SC174917  35.862  23.920  55.740
26911DA     SC274918  35.614  23.938  55.750
26911DA     SC374919  35.614  23.759  55.567
26911DA     SC474920  35.883  23.807  55.627
26912DA     BB174921  36.209  24.169  56.181
26912DA     BB274922  35.860  24.182  56.293
26912DA     BB374923  35.807  24.001  56.391
26912DA     SC174924  35.707  23.860  56.133
26912DA     SC274925  35.489  23.786  56.035
26912DA     SC374926  35.632  23.632  55.887
26912DA     SC474927  35.812  23.771  56.051
26913DT     BB174928  35.761  23.996  56.600
26913DT     BB274929  35.404  23.965  56.560
26913DT     BB374930  35.344  23.773  56.612
26913DT     SC174931  35.440  23.675  56.388
26913DT     SC274932  35.277  23.613  56.262
26913DT     SC374933  35.588  23.532  56.224
26914DC     BB174934  35.230  23.871  56.837
26914DC     BB274935  34.960  23.709  56.661
26914DC     BB374936  34.954  23.508  56.710
26914DC     SC174937  35.164  23.458  56.562
26914DC     SC274938  35.105  23.342  56.390
26914DC     SC374939  35.409  23.385  56.494
26915DA     BB174940  34.573  23.678  56.754
26915DA     BB274941  34.540  23.371  56.555
26915DA     BB374942  34.570  23.199  56.679
26915DA     SC174943  34.877  23.186  56.627
26915DA     SC274944  35.037  23.037  56.507
26915DA     SC374945  35.216  23.144  56.658
26915DA     SC474946  34.973  23.263  56.731
26916DT     BB174947  34.416  23.090  56.697
26916DT     BB274948  34.528  22.819  56.487
26916DT     BB374949  34.596  22.662  56.604
26916DT     SC174950  34.817  22.792  56.661
26916DT     SC274951  34.984  22.696  56.565
26916DT     SC374952  35.003  22.916  56.801
26917DA     BB174953  34.320  22.509  56.328
26917DA     BB274954  34.618  22.296  56.321
26917DA     BB374955  34.630  22.179  56.499
26917DA     SC174956  34.799  22.389  56.655
26917DA     SC274957  35.031  22.412  56.741
26917DA     SC374958  34.934  22.591  56.897
26917DA     SC474959  34.719  22.497  56.744
26918DA     BB174960  34.652  21.932  56.282
26918DA     BB274961  34.980  21.857  56.427
26918DA     BB374962  34.958  21.761  56.616
26918DA     SC174963  34.959  22.027  56.778
26918DA     SC274964  35.111  22.145  56.938
26918DA     SC374965  34.901  22.275  57.008
26918DA     SC474966  34.818  22.096  56.809
26919DA     BB174967  35.150  21.529  56.482
26919DA     BB274968  35.394  21.603  56.746
26919DA     BB374969  35.333  21.514  56.930
26919DA     SC174970  35.172  21.763  57.026
26919DA     SC274971  35.192  21.939  57.201
26919DA     SC374972  34.940  21.974  57.165
26919DA     SC474973  35.016  21.768  56.990
26920DG     BB174974  35.601  21.354  56.914
26920DG     BB274975  35.681  21.547  57.209
26920DG     BB374976  35.605  21.459  57.370
26920DG     SC174977  35.338  21.607  57.355
26920DG     SC274978  35.238  21.809  57.552
26920DG     SC374979  35.027  21.737  57.358
26920DG     SC474980  35.219  21.544  57.268
26921DT     BB174981  35.734  21.373  57.546
26921DT     BB274982  35.683  21.628  57.796
26921DT     BB374983  35.559  21.557  57.946
26921DT     SC174984  35.348  21.577  57.792
26921DT     SC274985  35.222  21.736  57.865
26921DT     SC374986  35.136  21.509  57.650
26922DT     BB174987  35.772  21.547  58.114
26922DT     BB274988  35.535  21.765  58.277
26922DT     BB374989  35.404  21.653  58.392
26922DT     SC174990  35.276  21.570  58.179
26922DT     SC274991  35.080  21.659  58.175
26922DT     SC374992  35.178  21.408  57.995
26923DT     BB174993  35.527  21.754  58.607
26923DT     BB274994  35.181  21.848  58.645
26923DT     BB374995  35.075  21.695  58.735
26923DT     SC174996  35.078  21.552  58.515
26923DT     SC274997  34.878  21.542  58.434
26923DT     SC374998  35.128  21.355  58.348
26924DA     BB174999  35.001  22.062  58.922
26924DA     BB275000  34.679  21.898  58.857
26924DA     BB375001  34.655  21.730  58.986
26924DA     SC175002  34.784  21.528  58.787
26924DA     SC275003  34.711  21.338  58.644
26924DA     SC375004  34.958  21.269  58.645
26924DA     SC475005  34.942  21.501  58.801
26925DC     BB175006  34.515  21.757  59.097
26925DC     BB275007  34.286  21.522  58.947
26925DC     BB375008  34.289  21.344  59.051
26925DC     SC175009  34.522  21.279  58.949
26925DC     SC275010  34.497  21.113  58.813
26925DC     SC375011  34.779  21.219  58.934
26926DA     BB175012  33.893  21.470  58.997
26926DA     BB275013  33.912  21.114  58.913
26926DA     BB375014  33.941  20.998  59.089
26926DA     SC175015  34.252  21.006  59.071
26926DA     SC275016  34.438  20.848  59.023
26926DA     SC375017  34.588  21.019  59.143
26926DA     SC475018  34.328  21.124  59.150
26927DT     BB175019  33.795  20.878  59.143
26927DT     BB275020  33.953  20.564  59.062
26927DT     BB375021  34.023  20.474  59.235
26927DT     SC175022  34.224  20.642  59.251
26927DT     SC275023  34.408  20.538  59.210
26927DT     SC375024  34.381  20.833  59.343
26928DC     BB175025  33.820  20.280  59.246
26928DC     BB275026  34.123  20.084  59.263
26928DC     BB375027  34.180  20.060  59.461
26928DC     SC175028  34.265  20.307  59.475
26928DC     SC275029  34.480  20.308  59.490
26928DC     SC375030  34.284  20.559  59.551
26929DC     BB175031  34.095  19.785  59.501
26929DC     BB275032  34.441  19.778  59.602
26929DC     BB375033  34.456  19.809  59.806
26929DC     SC175034  34.405  20.065  59.778
26929DC     SC275035  34.582  20.178  59.823
26929DC     SC375036  34.281  20.297  59.800
26930DA     BB175037  34.659  19.435  59.793
26930DA     BB275038  34.874  19.662  59.984
26930DA     BB375039  34.804  19.678  60.186
26930DA     SC175040  34.619  19.921  60.129
26930DA     SC275041  34.611  20.164  60.184
26930DA     SC375042  34.361  20.148  60.127
26930DA     SC475043  34.466  19.890  60.091
26931DT     BB175044  34.909  19.597  60.393
26931DT     BB275045  35.025  19.922  60.499
26931DT     BB375046  34.927  19.979  60.673
26931DT     SC175047  34.707  20.032  60.541
26931DT     SC275048  34.673  20.244  60.541
26931DT     SC375049  34.456  20.017  60.462
26932DG     BB175050  35.322  19.977  60.776
26932DG     BB275051  35.171  20.298  60.845
26932DG     BB375052  35.074  20.291  61.018
26932DG     SC175053  34.809  20.201  60.895
26932DG     SC275054  34.557  20.361  60.885
26932DG     SC375055  34.509  20.083  60.797
26932DG     SC475056  34.781  20.044  60.877
26933DA     BB175057  35.259  20.572  61.080
26933DA     BB275058  34.949  20.764  61.116
26933DA     BB375059  34.856  20.721  61.303
26933DA     SC175060  34.684  20.487  61.192
26933DA     SC275061  34.443  20.440  61.145
26933DA     SC375062  34.511  20.193  61.152
26933DA     SC475063  34.745  20.338  61.202
26934DT     BB175064  34.852  20.871  61.406
26934DT     BB275065  34.499  20.938  61.371
26934DT     BB375066  34.397  20.869  61.538
26934DT     SC175067  34.421  20.620  61.458
26934DT     SC275068  34.228  20.545  61.400
26934DT     SC375069  34.493  20.366  61.455
26935DA     BB175070  34.292  21.263  61.433
26935DA     BB275071  33.985  21.070  61.492
26935DA     BB375072  33.967  21.022  61.698
26935DA     SC175073  34.118  20.751  61.674
26935DA     SC275074  34.064  20.508  61.687
26935DA     SC375075  34.315  20.475  61.729
26935DA     SC475076  34.277  20.752  61.700
26936DA     BB175077  33.677  21.158  61.628
26936DA     BB275078  33.527  20.843  61.741
26936DA     BB375079  33.546  20.823  61.952
26936DA     SC175080  33.819  20.674  61.938
26936DA     SC275081  33.907  20.445  61.981
26936DA     SC375082  34.137  20.558  61.997
26936DA     SC475083  33.953  20.763  61.945
26937DT     BB175084  33.379  20.828  62.066
26937DT     BB275085  33.371  20.479  62.156
26937DT     BB375086  33.436  20.454  62.351
26937DT     SC175087  33.686  20.495  62.281
26937DT     SC275088  33.796  20.310  62.299
26937DT     SC375089  33.925  20.606  62.265
26938DC     BB175090  33.181  20.407  62.458
26938DC     BB275091  33.373  20.120  62.565
26938DC     BB375092  33.460  20.159  62.749
26938DC     SC175093  33.639  20.316  62.639
26938DC     SC275094  33.833  20.222  62.649
26938DC     SC375095  33.776  20.534  62.582
26939DT     BB175096  33.285  19.998  62.909
26939DT     BB275097  33.613  19.870  62.987
26939DT     BB375098  33.689  19.968  63.153
26939DT     SC175099  33.739  20.183  63.012
26939DT     SC275100  33.952  20.207  62.991
26939DT     SC375101  33.728  20.433  62.928
26940DC     BB175102  33.654  19.754  63.336
26940DC     BB275103  34.007  19.825  63.353
26940DC     BB375104  34.044  19.962  63.503
26940DC     SC175105  33.948  20.159  63.358
26940DC     SC275106  34.109  20.289  63.300
26940DC     SC375107  33.792  20.357  63.281
26941DG     BB175108  34.263  19.631  63.595
26941DG     BB275109  34.471  19.927  63.580
26941DG     BB375110  34.453  20.032  63.748
26941DG     SC175111  34.217  20.200  63.648
26941DG     SC275112  34.222  20.494  63.594
26941DG     SC375113  33.946  20.388  63.577
26941DG     SC475114  34.068  20.145  63.669
26942DG     BB175115  34.773  19.995  63.767
26942DG     BB275116  34.788  20.355  63.733
26942DG     BB375117  34.751  20.441  63.909
26942DG     SC175118  34.449  20.456  63.866
26942DG     SC275119  34.289  20.706  63.834
26942DG     SC375120  34.112  20.471  63.861
26942DG     SC475121  34.358  20.332  63.911
26943DT     BB175122  34.902  20.554  63.970
26943DT     BB275123  34.773  20.886  63.914
26943DT     BB375124  34.694  20.962  64.090
26943DT     SC175125  34.482  20.808  64.070
26943DT     SC275126  34.310  20.930  64.027
26943DT     SC375127  34.305  20.621  64.127
26944DT     BB175128  34.900  21.119  64.068
26944DT     BB275129  34.611  21.336  64.079
26944DT     BB375130  34.548  21.358  64.275
26944DT     SC175131  34.444  21.117  64.277
26944DT     SC275132  34.230  21.132  64.283
26944DT     SC375133  34.404  20.865  64.343
26945DT     BB175134  34.635  21.601  64.237
26945DT     BB275135  34.290  21.637  64.335
26945DT     BB375136  34.272  21.618  64.540
26945DT     SC175137  34.307  21.358  64.527
26945DT     SC275138  34.122  21.259  64.576
26945DT     SC375139  34.414  21.120  64.562
26946DT     BB175140  34.221  21.878  64.542
26946DT     BB275141  33.940  21.727  64.709
26946DT     BB375142  33.986  21.692  64.908
26946DT     SC175143  34.138  21.487  64.844
26946DT     SC275144  34.044  21.305  64.911
26946DT     SC375145  34.352  21.336  64.817
26947DA     BB175146  33.623  21.905  64.907
26947DA     BB275147  33.585  21.619  65.134
26947DA     BB375148  33.696  21.652  65.313
26947DA     SC175149  33.955  21.517  65.206
26947DA     SC275150  34.086  21.309  65.248
26947DA     SC375151  34.281  21.433  65.136
26947DA     SC475152  34.064  21.611  65.134
26948DA     BB175153  33.407  21.595  65.466
26948DA     BB275154  33.570  21.310  65.630
26948DA     BB375155  33.697  21.378  65.788
26948DA     SC175156  33.949  21.401  65.607
26948DA     SC275157  34.167  21.285  65.578
26948DA     SC375158  34.244  21.500  65.461
26948DA     SC475159  33.978  21.544  65.538
26949DT     BB175160  33.657  21.338  65.996
26949DT     BB275161  33.911  21.086  66.040
26949DT     BB375162  34.066  21.161  66.154
26949DT     SC175163  34.155  21.304  65.952
26949DT     SC275164  34.342  21.222  65.883
26949DT     SC375165  34.222  21.514  65.807
26950DA     BB175166  33.953  20.808  66.350
26950DA     BB275167  34.316  20.796  66.302
26950DA     BB375168  34.413  20.927  66.440
26950DA     SC175169  34.408  21.173  66.249
26950DA     SC275170  34.571  21.308  66.118
26950DA     SC375171  34.389  21.489  66.116
26950DA     SC475172  34.282  21.273  66.260
26951DT     BB175173  34.545  20.858  66.609
26951DT     BB275174  34.858  20.949  66.453
26951DT     BB375175  34.944  21.107  66.554
26951DT     SC175176  34.772  21.276  66.451
26951DT     SC275177  34.873  21.406  66.312
26951DT     SC375178  34.577  21.454  66.435
26952DG     BB175179  35.218  20.807  66.571
26952DG     BB275180  35.364  21.109  66.434
26952DG     BB375181  35.413  21.233  66.582
26952DG     SC175182  35.141  21.374  66.586
26952DG     SC275183  35.090  21.658  66.510
26952DG     SC375184  34.849  21.537  66.632
26952DG     SC475185  35.024  21.315  66.678
26953DA     BB175186  35.721  21.242  66.431
26953DA     BB275187  35.686  21.604  66.382
26953DA     BB375188  35.723  21.708  66.564
26953DA     SC175189  35.425  21.704  66.654
26953DA     SC275190  35.239  21.867  66.683
26953DA     SC375191  35.134  21.690  66.836
26953DA     SC475192  35.377  21.581  66.747
26954DT     BB175193  35.877  21.819  66.558
26954DT     BB275194  35.703  22.134  66.540
26954DT     BB375195  35.705  22.227  66.725
26954DT     SC175196  35.524  22.062  66.819
26954DT     SC275197  35.340  22.168  66.850
26954DT     SC375198  35.412  21.874  66.967
26955DT     BB175199  35.867  22.396  66.606
26955DT     BB275200  35.595  22.598  66.730
26955DT     BB375201  35.625  22.642  66.930
26955DT     SC175202  35.560  22.399  67.002
26955DT     SC275203  35.372  22.403  67.106
26955DT     SC375204  35.582  22.156  67.103
26956DA     BB175205  35.528  22.986  66.710
26956DA     BB275206  35.327  22.985  67.016
26956DA     BB375207  35.450  23.021  67.186
26956DA     SC175208  35.510  22.721  67.238
26956DA     SC275209  35.452  22.548  67.409
26956DA     SC375210  35.657  22.422  67.320
26956DA     SC475211  35.642  22.658  67.171
26957DG     BB175212  35.254  23.259  67.215
26957DG     BB275213  35.177  23.100  67.531
26957DG     BB375214  35.318  23.142  67.664
26957DG     SC175215  35.492  22.900  67.593
26957DG     SC275216  35.547  22.665  67.769
26957DG     SC375217  35.716  22.657  67.526
26957DG     SC475218  35.601  22.914  67.477
26958DG     BB175219  35.096  23.279  67.870
26958DG     BB275220  35.195  23.032  68.115
26958DG     BB375221  35.359  23.093  68.209
26958DG     SC175222  35.552  22.962  68.010
26958DG     SC275223  35.735  22.733  68.067
26958DG     SC375224  35.791  22.849  67.801
26958DG     SC475225  35.598  23.045  67.882
26959DT     BB175226  35.389  23.157  68.449
26959DT     BB275227  35.576  22.877  68.578
26959DT     BB375228  35.771  22.934  68.615
26959DT     SC175229  35.829  22.934  68.359
26959DT     SC275230  35.962  22.771  68.316
26959DT     SC375231  35.899  23.022  68.121
26960DG     BB175232  35.678  22.844  69.012
26960DG     BB275233  35.986  22.677  68.920
26960DG     BB375234  36.140  22.800  68.947
26960DG     SC175235  36.127  22.918  68.665
26960DG     SC275236  36.333  22.884  68.451
26960DG     SC375237  36.130  23.084  68.371
26960DG     SC475238  36.034  23.046  68.638
26961DA     BB175239  36.335  22.589  69.166
26961DA     BB275240  36.607  22.571  68.920
26961DA     BB375241  36.738  22.738  68.943
26961DA     SC175242  36.583  22.917  68.741
26961DA     SC275243  36.619  23.012  68.513
26961DA     SC375244  36.437  23.180  68.576
26961DA     SC475245  36.469  23.013  68.799
26962DA     BB175246  36.981  22.516  68.977
26962DA     BB275247  37.124  22.649  68.667
26962DA     BB375248  37.234  22.828  68.706
26962DA     SC175249  36.990  23.016  68.660
26962DA     SC275250  36.916  23.185  68.492
26962DA     SC375251  36.761  23.271  68.677
26962DA     SC475252  36.902  23.056  68.788
26963DT     BB175253  37.431  22.823  68.674
26963DT     BB275254  37.426  23.008  68.364
26963DT     BB375255  37.496  23.200  68.396
26963DT     SC175256  37.272  23.270  68.514
26963DT     SC275257  37.166  23.409  68.388
26963DT     SC375258  37.106  23.351  68.702
26964DT     BB175259  37.702  23.118  68.254
26964DT     BB275260  37.568  23.401  68.075
26964DT     BB375261  37.638  23.577  68.158
26964DT     SC175262  37.478  23.553  68.364
26964DT     SC275263  37.326  23.705  68.354
26964DT     SC375264  37.397  23.523  68.613
26965DA     BB175265  37.684  23.574  67.739
26965DA     BB275266  37.535  23.894  67.838
26965DA     BB375267  37.677  24.013  67.943
26965DA     SC175268  37.598  23.904  68.223
26965DA     SC275269  37.485  23.988  68.429
26965DA     SC375270  37.601  23.792  68.548
26965DA     SC475271  37.680  23.777  68.279
26966DT     BB175272  37.730  24.174  67.853
26966DT     BB275273  37.559  24.408  68.068
26966DT     BB375274  37.693  24.492  68.201
26966DT     SC175275  37.701  24.272  68.344
26966DT     SC275276  37.605  24.306  68.533
26966DT     SC375277  37.796  24.055  68.459
26967DA     BB175278  37.511  24.827  68.020
26967DA     BB275279  37.509  24.884  68.382
26967DA     BB375280  37.704  24.937  68.451
26967DA     SC175281  37.789  24.643  68.510
26967DA     SC275282  37.837  24.501  68.709
26967DA     SC375283  37.963  24.350  68.546
26967DA     SC475284  37.864  24.562  68.393
26968DA     BB175285  37.585  25.223  68.584
26968DA     BB275286  37.688  25.100  68.913
26968DA     BB375287  37.896  25.137  68.944
26968DA     SC175288  37.986  24.863  68.827
26968DA     SC275289  38.086  24.650  68.910
26968DA     SC375290  38.156  24.611  68.667
26968DA     SC475291  38.022  24.858  68.670
26969DT     BB175292  37.997  25.288  69.098
26969DT     BB275293  38.097  25.033  69.333
26969DT     BB375294  38.303  25.018  69.338
26969DT     SC175295  38.308  24.895  69.106
26969DT     SC275296  38.367  24.690  69.136
26969DT     SC375297  38.359  24.846  68.852
26970DA     BB175298  38.188  25.075  69.736
26970DA     BB275299  38.398  24.775  69.722
26970DA     BB375300  38.604  24.828  69.703
26970DA     SC175301  38.602  24.827  69.392
26970DA     SC275302  38.697  24.689  69.208
26970DA     SC375303  38.657  24.896  69.060
26970DA     SC475304  38.570  24.966  69.318
26971DA     BB175305  38.599  24.631  69.958
26971DA     BB275306  38.808  24.407  69.757
26971DA     BB375307  39.008  24.482  69.745
26971DA     SC175308  38.957  24.648  69.487
26971DA     SC275309  39.024  24.640  69.247
26971DA     SC375310  38.959  24.888  69.242
26971DA     SC475311  38.913  24.801  69.505
26972DA     BB175312  39.008  24.171  69.835
26972DA     BB275313  39.201  24.115  69.528
26972DA     BB375314  39.394  24.203  69.545
26972DA     SC175315  39.306  24.477  69.426
26972DA     SC275316  39.344  24.608  69.217
26972DA     SC375317  39.269  24.811  69.355
26972DA     SC475318  39.258  24.591  69.528
26973DT     BB175319  39.493  24.070  69.530
26973DT     BB275320  39.617  24.140  69.199
26973DT     BB375321  39.791  24.251  69.211
26973DT     SC175322  39.658  24.468  69.275
26973DT     SC275323  39.667  24.608  69.112
26973DT     SC375324  39.573  24.675  69.415
26974DA     BB175325  39.802  23.924  68.943
26974DA     BB275326  39.943  24.220  68.778
26974DA     BB375327  40.125  24.277  68.873
26974DA     SC175328  39.988  24.470  69.075
26974DA     SC275329  39.974  24.716  69.115
26974DA     SC375330  39.903  24.652  69.353
26974DA     SC475331  39.947  24.410  69.218
26975DA     BB175332  40.189  24.261  68.551
26975DA     BB275333  40.296  24.610  68.582
26975DA     BB375334  40.474  24.623  68.699
26975DA     SC175335  40.322  24.659  68.968
26975DA     SC275336  40.284  24.839  69.137
26975DA     SC375337  40.224  24.648  69.297
26975DA     SC475338  40.289  24.526  69.053
26976DT     BB175339  40.623  24.683  68.603
26976DT     BB275340  40.655  25.009  68.754
26976DT     BB375341  40.801  25.004  68.902
26976DT     SC175342  40.642  24.875  69.066
26976DT     SC275343  40.586  25.004  69.228
26976DT     SC375344  40.547  24.683  69.220
26977DG     BB175345  40.929  25.290  68.639
26977DG     BB275346  40.936  25.414  68.978
26977DG     BB375347  41.097  25.343  69.073
26977DG     SC175348  40.956  25.091  69.175
26977DG     SC275349  40.896  25.028  69.461
26977DG     SC375350  40.840  24.795  69.287
26977DG     SC475351  40.956  24.960  69.083
26978DT     BB175352  41.284  25.470  69.155
26978DT     BB275353  41.226  25.460  69.511
26978DT     BB375354  41.361  25.331  69.601
26978DT     SC175355  41.232  25.121  69.511
26978DT     SC275356  41.138  25.019  69.676
26978DT     SC375357  41.182  24.899  69.378
26979DA     BB175358  41.441  25.682  69.823
26979DA     BB275359  41.397  25.411  70.067
26979DA     BB375360  41.574  25.292  70.078
26979DA     SC175361  41.482  25.092  69.857
26979DA     SC275362  41.409  24.854  69.842
26979DA     SC375363  41.469  24.873  69.594
26979DA     SC475364  41.526  25.124  69.706
26980DC     BB175365  41.726  25.273  70.258
26980DC     BB275366  41.614  24.949  70.368
26980DC     BB375367  41.761  24.807  70.333
26980DC     SC175368  41.711  24.807  70.075
26980DC     SC275369  41.621  24.619  70.021
26980DC     SC375370  41.745  24.837  69.816
26981DG     BB175371  41.722  24.783  70.741
26981DG     BB275372  41.677  24.459  70.588
26981DG     BB375373  41.854  24.375  70.554
26981DG     SC175374  41.885  24.495  70.274
26981DG     SC275375  41.886  24.343  70.017
26981DG     SC375376  41.961  24.625  69.972
26981DG     SC475377  41.954  24.639  70.258
26982DG     BB175378  41.769  24.120  70.743
26982DG     BB275379  41.782  23.924  70.439
26982DG     BB375380  41.968  23.862  70.407
26982DG     SC175381  42.049  24.107  70.243
26982DG     SC275382  42.116  24.110  69.952
26982DG     SC375383  42.178  24.371  70.077
26982DG     SC475384  42.108  24.235  70.319
26983DA     BB175385  41.801  23.567  70.375
26983DA     BB275386  41.921  23.543  70.029
26983DA     BB375387  42.128  23.493  70.026
26983DA     SC175388  42.225  23.789  70.027
26983DA     SC275389  42.335  23.947  69.869
26983DA     SC375390  42.398  24.081  70.079
26983DA     SC475391  42.255  23.857  70.169
26984DT     BB175392  42.130  23.344  69.946
26984DT     BB275393  42.266  23.465  69.635
26984DT     BB375394  42.472  23.446  69.635
26984DT     SC175395  42.498  23.650  69.798
26984DT     SC275396  42.587  23.815  69.692
26984DT     SC375397  42.558  23.790  70.014
26985DT     BB175398  42.395  23.282  69.455
26985DT     BB275399  42.621  23.512  69.294
26985DT     BB375400  42.817  23.469  69.346
26985DT     SC175401  42.783  23.571  69.586
26985DT     SC275402  42.897  23.753  69.602
26985DT     SC375403  42.766  23.588  69.848
26986DG     BB175404  42.751  23.490  68.943
26986DG     BB275405  43.036  23.687  69.047
26986DG     BB375406  43.186  23.568  69.100
26986DG     SC175407  43.101  23.548  69.393
26986DG     SC275408  43.250  23.658  69.627
26986DG     SC375409  43.025  23.489  69.716
26986DG     SC475410  42.997  23.434  69.436
26987DA     BB175411  43.368  23.774  68.886
26987DA     BB275412  43.603  23.844  69.159
26987DA     BB375413  43.719  23.671  69.202
26987DA     SC175414  43.522  23.562  69.416
26987DA     SC275415  43.516  23.531  69.664
26987DA     SC375416  43.329  23.361  69.618
26987DA     SC475417  43.408  23.459  69.367
26988DA     BB175418  43.980  23.873  69.157
26988DA     BB275419  44.082  23.794  69.500
26988DA     BB375420  44.166  23.597  69.509
26988DA     SC175421  43.894  23.458  69.570
26988DA     SC275422  43.786  23.342  69.762
26988DA     SC375423  43.630  23.239  69.585
26988DA     SC475424  43.809  23.404  69.445
26989DA     BB175425  44.450  23.723  69.643
26989DA     BB275426  44.386  23.517  69.940
26989DA     BB375427  44.448  23.316  69.905
26989DA     SC175428  44.172  23.223  69.797
26989DA     SC275429  43.985  23.076  69.871
26989DA     SC375430  43.918  23.070  69.623
26989DA     SC475431  44.148  23.231  69.638
26990DA     BB175432  44.656  23.321  70.174
26990DA     BB275433  44.450  23.058  70.324
26990DA     BB375434  44.507  22.867  70.249
26990DA     SC175435  44.307  22.872  70.012
26990DA     SC275436  44.098  22.754  69.944
26990DA     SC375437  44.153  22.834  69.707
26990DA     SC475438  44.359  22.930  69.871
26991DC     BB175439  44.614  22.686  70.367
26991DC     BB275440  44.317  22.485  70.399
26991DC     BB375441  44.337  22.312  70.286
26991DC     SC175442  44.299  22.444  70.062
26991DC     SC275443  44.108  22.389  69.979
26991DC     SC375444  44.346  22.547  69.824
26992DG     BB175445  44.285  22.165  70.665
26992DG     BB275446  44.040  22.026  70.439
26992DG     BB375447  44.119  21.873  70.339
26992DG     SC175448  44.224  22.046  70.109
26992DG     SC275449  44.127  22.039  69.826
26992DG     SC375450  44.370  22.206  69.850
26992DG     SC475451  44.370  22.110  70.120
26993DA     BB175452  43.848  21.686  70.443
26993DA     BB275453  43.745  21.642  70.094
26993DA     BB375454  43.862  21.490  70.001
26993DA     SC175455  44.081  21.686  69.899
26993DA     SC275456  44.159  21.778  69.681
26993DA     SC375457  44.377  21.833  69.805
26993DA     SC475458  44.208  21.711  69.993
26994DA     BB175459  43.558  21.393  69.943
26994DA     BB275460  43.638  21.438  69.588
26994DA     BB375461  43.764  21.280  69.520
26994DA     SC175462  44.029  21.430  69.586
26994DA     SC275463  44.217  21.536  69.461
26994DA     SC375464  44.349  21.512  69.679
26994DA     SC475465  44.094  21.405  69.730
26995DC     BB175466  43.677  21.185  69.393
26995DC     BB275467  43.860  21.316  69.111
26995DC     BB375468  44.007  21.183  69.054
26995DC     SC175469  44.156  21.248  69.261
26995DC     SC275470  44.330  21.355  69.192
26995DC     SC375471  44.290  21.226  69.487
26996DT     BB175472  43.846  21.179  68.855
26996DT     BB275473  44.166  21.287  68.726
26996DT     BB375474  44.292  21.124  68.706
26996DT     SC175475  44.331  21.113  68.966
26996DT     SC275476  44.533  21.172  69.010
26996DT     SC375477  44.329  21.023  69.213
26997DT     BB175478  44.248  21.213  68.473
26997DT     BB275479  44.605  21.222  68.521
26997DT     BB375480  44.682  21.030  68.515
26997DT     SC175481  44.589  20.977  68.754
26997DT     SC275482  44.753  20.959  68.892
26997DT     SC375483  44.448  20.863  68.946
26998DG     BB175484  44.860  21.320  68.282
26998DG     BB275485  45.099  21.126  68.472
26998DG     BB375486  45.104  20.939  68.404
26998DG     SC175487  44.884  20.839  68.592
26998DG     SC275488  44.919  20.643  68.815
26998DG     SC375489  44.632  20.700  68.769
26998DG     SC475490  44.731  20.849  68.545
26999DT     BB175491  45.278  20.907  68.353
26999DT     BB275492  45.393  20.651  68.580
26999DT     BB375493  45.341  20.464  68.508
26999DT     SC175494  45.090  20.500  68.576
26999DT     SC275495  45.041  20.369  68.739
26999DT     SC375496  44.829  20.529  68.555
27000DA     BB175497  45.757  20.432  68.585
27000DA     BB275498  45.600  20.120  68.695
27000DA     BB375499  45.535  20.006  68.527
27000DA     SC175500  45.251  20.132  68.520
27000DA     SC275501  45.017  20.061  68.566
27000DA     SC375502  44.949  20.262  68.421
27000DA     SC475503  45.229  20.261  68.426
27001DA     BB175504  45.718  19.704  68.578
27001DA     BB275505  45.406  19.512  68.584
27001DA     BB375506  45.346  19.461  68.386
27001DA     SC175507  45.173  19.717  68.347
27001DA     SC275508  44.932  19.775  68.327
27001DA     SC375509  45.014  19.993  68.219
27001DA     SC475510  45.244  19.845  68.280
27002DA     BB175511  45.336  19.095  68.380
27002DA     BB275512  44.976  19.103  68.311
27002DA     BB375513  44.941  19.104  68.100
27002DA     SC175514  44.941  19.414  68.076
27002DA     SC275515  44.776  19.595  68.030
27002DA     SC375516  44.980  19.738  67.970
27002DA     SC475517  45.080  19.486  68.041
27003DA     BB175518  44.744  18.808  68.060
27003DA     BB275519  44.460  19.015  67.954
27003DA     BB375520  44.461  19.039  67.742
27003DA     SC175521  44.633  19.298  67.747
27003DA     SC275522  44.602  19.541  67.702
27003DA     SC375523  44.857  19.548  67.676
27003DA     SC475524  44.792  19.282  67.734
27004DG     BB175525  44.173  18.886  67.678
27004DG     BB275526  44.061  19.217  67.585
27004DG     BB375527  44.080  19.243  67.389
27004DG     SC175528  44.365  19.353  67.408
27004DG     SC275529  44.450  19.632  67.343
27004DG     SC375530  44.685  19.458  67.389
27004DG     SC475531  44.489  19.251  67.404
27005DG     BB175532  43.753  19.298  67.334
27005DG     BB275533  43.848  19.635  67.243
27005DG     BB375534  43.886  19.645  67.048
27005DG     SC175535  44.183  19.577  67.077
27005DG     SC275536  44.411  19.761  67.020
27005DG     SC375537  44.508  19.485  67.070
27005DG     SC475538  44.228  19.423  67.076
27006DC     BB175539  43.764  19.777  66.905
27006DC     BB275540  43.993  20.051  66.861
27006DC     BB375541  44.076  20.044  66.671
27006DC     SC175542  44.231  19.844  66.738
27006DC     SC275543  44.436  19.911  66.744
27006DC     SC375544  44.337  19.602  66.741
27007DA     BB175545  43.923  20.426  66.746
27007DA     BB275546  44.268  20.462  66.626
27007DA     BB375547  44.278  20.421  66.417
27007DA     SC175548  44.336  20.117  66.454
27007DA     SC275549  44.526  19.960  66.421
27007DA     SC375550  44.348  19.776  66.421
27007DA     SC475551  44.210  20.018  66.456
27008DA     BB175552  44.422  20.710  66.450
27008DA     BB275553  44.722  20.549  66.314
27008DA     BB375554  44.698  20.512  66.105
27008DA     SC175555  44.579  20.227  66.145
27008DA     SC275556  44.648  19.991  66.105
27008DA     SC375557  44.397  19.937  66.117
27008DA     SC475558  44.419  20.214  66.154
27009DT     BB175559  44.819  20.609  66.011
27009DT     BB275560  45.035  20.335  65.920
27009DT     BB375561  44.993  20.273  65.727
27009DT     SC175562  44.772  20.154  65.806
27009DT     SC275563  44.797  19.941  65.791
27009DT     SC375564  44.516  20.098  65.830
27010DA     BB175565  45.403  20.330  65.793
27010DA     BB275566  45.355  20.007  65.627
27010DA     BB375567  45.290  20.036  65.426
27010DA     SC175568  44.987  20.031  65.497
27010DA     SC275569  44.792  19.880  65.462
27010DA     SC375570  44.649  20.088  65.509
27010DA     SC475571  44.916  20.172  65.528
27011DA     BB175572  45.545  19.831  65.407
27011DA     BB275573  45.314  19.599  65.242
27011DA     BB375574  45.260  19.673  65.049
27011DA     SC175575  45.012  19.830  65.151
27011DA     SC275576  44.763  19.814  65.133
27011DA     SC375577  44.763  20.061  65.199
27011DA     SC475578  45.032  19.984  65.191
27012DC     BB175579  45.322  19.566  64.907
27012DC     BB275580  45.003  19.431  64.806
27012DC     BB375581  44.931  19.535  64.642
27012DC     SC175582  44.867  19.741  64.791
27012DC     SC275583  44.652  19.757  64.803
27012DC     SC375584  44.865  19.986  64.888
27013DT     BB175585  44.985  19.325  64.477
27013DT     BB275586  44.635  19.393  64.421
27013DT     BB375587  44.614  19.538  64.275
27013DT     SC175588  44.688  19.727  64.442
27013DT     SC275589  44.519  19.852  64.488
27013DT     SC375590  44.830  19.922  64.548
27014DC     BB175591  44.528  19.358  64.081
27014DC     BB275592  44.265  19.605  64.094
27014DC     BB375593  44.306  19.759  63.962
27014DC     SC175594  44.490  19.857  64.121
27014DC     SC275595  44.422  20.044  64.202
27014DC     SC375596  44.727  19.933  64.209
27015DC     BB175597  44.112  19.679  63.778
27015DC     BB275598  44.025  20.020  63.856
27015DC     BB375599  44.121  20.150  63.726
27015DC     SC175600  44.350  20.115  63.850
27015DC     SC275601  44.404  20.296  63.953
27015DC     SC375602  44.601  20.046  63.892
27016DA     BB175603  43.714  20.248  63.715
27016DA     BB275604  43.903  20.558  63.769
27016DA     BB375605  44.001  20.617  63.589
27016DA     SC175606  44.263  20.461  63.651
27016DA     SC275607  44.499  20.513  63.710
27016DA     SC375608  44.551  20.275  63.628
27016DA     SC475609  44.275  20.311  63.594
27017DA     BB175610  43.840  20.891  63.665
27017DA     BB275611  44.168  21.053  63.686
27017DA     BB375612  44.248  21.084  63.491
27017DA     SC175613  44.397  20.810  63.483
27017DA     SC275614  44.632  20.728  63.488
27017DA     SC375615  44.538  20.512  63.387
27017DA     SC475616  44.319  20.685  63.419
27018DT     BB175617  44.268  21.268  63.438
27018DT     BB275618  44.627  21.285  63.464
27018DT     BB375619  44.713  21.273  63.276
27018DT     SC175620  44.663  21.015  63.262
27018DT     SC275621  44.849  20.906  63.272
27018DT     SC375622  44.562  20.786  63.179
27019DT     BB175623  44.777  21.534  63.293
27019DT     BB275624  45.091  21.368  63.229
27019DT     BB375625  45.116  21.341  63.025
27019DT     SC175626  44.941  21.146  63.021
27019DT     SC275627  45.041  20.960  62.983
27019DT     SC375628  44.722  21.010  62.963
27020DA     BB175629  45.467  21.531  63.159
27020DA     BB275630  45.567  21.246  62.951
27020DA     BB375631  45.531  21.288  62.745
27020DA     SC175632  45.243  21.171  62.746
27020DA     SC275633  45.124  20.973  62.652
27020DA     SC375634  44.910  21.109  62.690
27020DA     SC475635  45.121  21.272  62.777
27021DG     BB175636  45.841  21.258  62.687
27021DG     BB275637  45.737  20.977  62.486
27021DG     BB375638  45.688  21.039  62.303
27021DG     SC175639  45.394  21.090  62.371
27021DG     SC275640  45.160  20.938  62.264
27021DG     SC375641  45.071  21.176  62.417
27021DG     SC475642  45.352  21.233  62.428
27022DT     BB175643  45.800  20.980  62.100
27022DT     BB275644  45.565  20.747  61.957
27022DT     BB375645  45.468  20.833  61.796
27022DT     SC175646  45.320  20.982  61.954
27022DT     SC275647  45.116  20.914  61.945
27022DT     SC375648  45.218  21.196  62.069
27023DT     BB175649  45.607  20.687  61.599
27023DT     BB275650  45.260  20.615  61.530
27023DT     BB375651  45.185  20.753  61.395
27023DT     SC175652  45.175  20.939  61.579
27023DT     SC275653  44.969  20.983  61.625
27023DT     SC375654  45.225  21.164  61.708
27024DT     BB175655  45.180  20.575  61.175
27024DT     BB275656  44.839  20.690  61.203
27024DT     BB375657  44.811  20.858  61.085
27024DT     SC175658  44.941  21.009  61.256
27024DT     SC275659  44.804  21.144  61.352
27024DT     SC375660  45.127  21.167  61.356
27025DT     BB175661  44.662  20.726  60.886
27025DT     BB275662  44.443  20.989  61.000
27025DT     BB375663  44.471  21.159  60.886
27025DT     SC175664  44.698  21.212  61.006
27025DT     SC275665  44.675  21.387  61.128
27025DT     SC375666  44.957  21.251  61.042
27026DC     BB175667  44.229  21.127  60.757
27026DC     BB275668  44.205  21.450  60.914
27026DC     BB375669  44.277  21.596  60.786
27026DC     SC175670  44.525  21.524  60.830
27026DC     SC275671  44.625  21.677  60.943
27026DC     SC375672  44.768  21.433  60.785
27027DG     BB175673  43.895  21.682  60.896
27027DG     BB275674  44.121  21.954  60.970
27027DG     BB375675  44.164  22.055  60.804
27027DG     SC175676  44.406  21.882  60.732
27027DG     SC275677  44.691  21.973  60.729
27027DG     SC375678  44.665  21.702  60.613
27027DG     SC475679  44.385  21.750  60.644
27028DT     BB175680  44.112  22.242  60.821
27028DT     BB275681  44.431  22.403  60.864
27028DT     BB375682  44.497  22.479  60.683
27028DT     SC175683  44.560  22.239  60.597
27028DT     SC275684  44.774  22.221  60.583
27028DT     SC375685  44.558  22.019  60.451
27029DG     BB175686  44.493  22.724  61.011
27029DG     BB275687  44.813  22.719  60.843
27029DG     BB375688  44.799  22.810  60.667
27029DG     SC175689  44.724  22.555  60.515
27029DG     SC275690  44.891  22.418  60.308
27029DG     SC375691  44.620  22.300  60.320
27029DG     SC475692  44.569  22.514  60.503
27030DA     BB175693  45.087  22.917  60.830
27030DA     BB275694  45.272  22.829  60.525
27030DA     BB375695  45.203  22.945  60.361
27030DA     SC175696  44.986  22.740  60.274
27030DA     SC275697  44.946  22.583  60.085
27030DA     SC375698  44.700  22.590  60.158
27030DA     SC475699  44.838  22.759  60.334
27031DT     BB175700  45.341  23.027  60.323
27031DT     BB275701  45.403  22.876  60.001
27031DT     BB375702  45.298  22.977  59.854
27031DT     SC175703  45.071  22.870  59.931
27031DT     SC275704  45.003  22.732  59.780
27031DT     SC375705  44.826  22.849  60.025
27032DC     BB175706  45.532  23.076  59.771
27032DC     BB275707  45.383  22.932  59.475
27032DC     BB375708  45.250  23.066  59.391
27032DC     SC175709  45.072  23.020  59.578
27032DC     SC275710  44.905  22.914  59.494
27032DC     SC375711  44.910  23.061  59.783
27033DA     BB175712  45.504  22.978  59.066
27033DA     BB275713  45.160  22.953  58.944
27033DA     BB375714  45.076  23.147  58.918
27033DA     SC175715  44.960  23.162  59.206
27033DA     SC275716  44.735  23.160  59.315
27033DA     SC375717  44.854  23.267  59.515
27033DA     SC475718  45.051  23.230  59.319
27034DA     BB175719  45.010  23.066  58.599
27034DA     BB275720  44.654  23.110  58.676
27034DA     BB375721  44.603  23.317  58.673
27034DA     SC175722  44.661  23.360  58.976
27034DA     SC275723  44.532  23.406  59.184
27034DA     SC375724  44.754  23.489  59.280
27034DA     SC475725  44.809  23.409  59.017
27035DG     BB175726  44.402  23.254  58.438
27035DG     BB275727  44.153  23.348  58.683
27035DG     BB375728  44.128  23.545  58.682
27035DG     SC175729  44.344  23.600  58.892
27035DG     SC275730  44.299  23.705  59.167
27035DG     SC375731  44.587  23.697  59.104
27035DG     SC475732  44.495  23.622  58.843
27036DT     BB175733  43.933  23.632  58.630
27036DT     BB275734  43.812  23.730  58.956
27036DT     BB375735  43.831  23.935  58.979
27036DT     SC175736  44.091  23.915  59.012
27036DT     SC275737  44.140  23.962  59.216
27036DT     SC375738  44.349  23.944  58.969
27037DA     BB175739  43.443  23.811  59.081
27037DA     BB275740  43.571  24.024  59.351
27037DA     BB375741  43.583  24.227  59.286
27037DA     SC175742  43.875  24.203  59.182
27037DA     SC275743  44.101  24.287  59.246
27037DA     SC375744  44.167  24.233  59.004
27037DA     SC475745  43.896  24.164  59.028
27038DA     BB175746  43.412  24.248  59.565
27038DA     BB275747  43.681  24.466  59.685
27038DA     BB375748  43.674  24.655  59.585
27038DA     SC175749  43.864  24.567  59.355
27038DA     SC275750  44.096  24.617  59.278
27038DA     SC375751  44.019  24.524  59.051
27038DA     SC475752  43.797  24.507  59.222
27039DC     BB175753  43.632  24.808  59.696
27039DC     BB275754  43.961  24.956  59.701
27039DC     BB375755  43.970  25.114  59.567
27039DC     SC175756  43.977  24.950  59.362
27039DC     SC275757  44.172  24.959  59.271
27039DC     SC375758  43.906  24.828  59.139
27040DA     BB175759  44.104  25.278  59.931
27040DA     BB275760  44.343  25.375  59.671
27040DA     BB375761  44.260  25.527  59.547
27040DA     SC175762  44.137  25.328  59.342
27040DA     SC275763  44.175  25.258  59.106
27040DA     SC375764  43.935  25.170  59.114
27040DA     SC475765  43.985  25.281  59.367
27041DG     BB175766  44.488  25.736  59.632
27041DG     BB275767  44.582  25.716  59.283
27041DG     BB375768  44.480  25.851  59.177
27041DG     SC175769  44.246  25.663  59.117
27041DG     SC275770  44.171  25.557  58.849
27041DG     SC375771  43.964  25.491  59.049
27041DG     SC475772  44.124  25.656  59.221
27042DT     BB175773  44.573  26.038  59.059
27042DT     BB275774  44.552  25.918  58.719
27042DT     BB375775  44.405  26.021  58.617
27042DT     SC175776  44.215  25.889  58.741
27042DT     SC275777  44.117  25.757  58.602
27042DT     SC375778  44.007  25.840  58.896
27043DA     BB175779  44.752  26.046  58.385
27043DA     BB275780  44.480  25.936  58.166
27043DA     BB375781  44.349  26.099  58.122
27043DA     SC175782  44.161  26.045  58.364
27043DA     SC275783  43.928  25.963  58.402
27043DA     SC375784  43.948  26.076  58.632
27043DA     SC475785  44.192  26.122  58.501
27044DA     BB175786  44.416  26.000  57.817
27044DA     BB275787  44.057  25.937  57.779
27044DA     BB375788  43.952  26.121  57.755
27044DA     SC175789  43.900  26.158  58.060
27044DA     SC275790  43.706  26.150  58.217
27044DA     SC375791  43.856  26.286  58.375
27044DA     SC475792  44.008  26.243  58.144
27045DC     BB175793  43.863  26.157  57.579
27045DC     BB275794  43.523  26.107  57.688
27045DC     BB375795  43.428  26.289  57.710
27045DC     SC175796  43.558  26.339  57.932
27045DC     SC275797  43.421  26.332  58.098
27045DC     SC375798  43.720  26.457  58.104
27046DA     BB175799  43.173  26.071  57.456
27046DA     BB275800  42.965  26.218  57.720
27046DA     BB375801  42.937  26.426  57.686
27046DA     SC175802  43.186  26.512  57.851
27046DA     SC275803  43.234  26.628  58.067
27046DA     SC375804  43.468  26.670  57.969
27046DA     SC475805  43.326  26.529  57.773
27047DG     BB175806  42.620  26.389  57.656
27047DG     BB275807  42.607  26.592  57.955
27047DG     BB375808  42.603  26.785  57.906
27047DG     SC175809  42.907  26.817  57.906
27047DG     SC275810  43.066  26.981  58.098
27047DG     SC375811  43.237  26.883  57.877
27047DG     SC475812  42.988  26.787  57.771
27048DA     BB175813  42.307  26.853  58.090
27048DA     BB275814  42.489  27.085  58.309
27048DA     BB375815  42.502  27.277  58.218
27048DA     SC175816  42.772  27.219  58.074
27048DA     SC275817  43.010  27.291  58.092
27048DA     SC375818  43.032  27.206  57.851
27048DA     SC475819  42.765  27.161  57.924
27049DA     BB175820  42.363  27.388  58.495
27049DA     BB275821  42.676  27.569  58.559
27049DA     BB375822  42.680  27.751  58.448
27049DA     SC175823  42.818  27.625  58.199
27049DA     SC275824  43.040  27.636  58.086
27049DA     SC375825  42.916  27.545  57.880
27049DA     SC475826  42.723  27.569  58.082
27050DA     BB175827  42.739  27.841  58.751
27050DA     BB275828  43.068  27.946  58.628
27050DA     BB375829  43.051  28.127  58.516
27050DA     SC175830  43.009  27.982  58.243
27050DA     SC275831  43.135  27.948  58.031
27050DA     SC375832  42.907  27.894  57.928
27050DA     SC475833  42.858  27.953  58.197
27051DT     BB175834  43.145  28.246  58.603
27051DT     BB275835  43.426  28.252  58.376
27051DT     BB375836  43.408  28.412  58.246
27051DT     SC175837  43.220  28.288  58.109
27051DT     SC275838  43.297  28.234  57.916
27051DT     SC375839  42.985  28.236  58.003
27052DC     BB175840  43.614  28.477  58.386
27052DC     BB275841  43.725  28.469  58.043
27052DC     BB375842  43.663  28.641  57.944
27052DC     SC175843  43.416  28.554  57.932
27052DC     SC275844  43.367  28.507  57.727
27052DC     SC375845  43.156  28.540  57.971
27053DA     BB175846  44.069  28.548  57.880
27053DA     BB275847  43.915  28.632  57.558
27053DA     BB375848  43.864  28.839  57.552
27053DA     SC175849  43.577  28.797  57.665
27053DA     SC275850  43.343  28.812  57.582
27053DA     SC375851  43.278  28.831  57.830
27053DA     SC475852  43.558  28.809  57.824
27054DC     BB175853  43.963  28.939  57.425
27054DC     BB275854  43.697  28.999  57.189
27054DC     BB375855  43.621  29.190  57.215
27054DC     SC175856  43.495  29.119  57.434
27054DC     SC275857  43.283  29.120  57.398
27054DC     SC375858  43.427  29.110  57.689
27055DC     BB175859  43.740  29.274  56.984
27055DC     BB275860  43.393  29.363  56.940
27055DC     BB375861  43.358  29.550  57.020
27055DC     SC175862  43.367  29.456  57.265
27055DC     SC275863  43.170  29.462  57.351
27055DC     SC375864  43.448  29.417  57.513
27056DA     BB175865  43.214  29.583  56.627
27056DA     BB275866  42.955  29.720  56.848
27056DA     BB375867  43.012  29.913  56.917
27056DA     SC175868  43.156  29.808  57.171
27056DA     SC275869  43.121  29.810  57.418
27056DA     SC375870  43.372  29.760  57.434
27056DA     SC475871  43.314  29.778  57.160
27057DT     BB175872  42.909  30.101  56.859
27057DT     BB275873  42.741  30.158  57.173
27057DT     BB375874  42.826  30.320  57.269
27057DT     SC175875  43.037  30.180  57.337
27057DT     SC275876  43.036  30.148  57.549
27057DT     SC375877  43.288  30.102  57.351
27058DA     BB175878  42.416  30.412  57.255
27058DA     BB275879  42.528  30.466  57.600
27058DA     BB375880  42.638  30.648  57.615
27058DA     SC175881  42.913  30.515  57.560
27058DA     SC275882  43.122  30.464  57.686
27058DA     SC375883  43.233  30.446  57.455
27058DA     SC475884  42.964  30.510  57.407
27059DT     BB175885  42.563  30.814  57.724
27059DT     BB275886  42.784  30.784  58.007
27059DT     BB375887  42.925  30.936  58.003
27059DT     SC175888  43.057  30.819  57.808
27059DT     SC275889  43.245  30.747  57.883
27059DT     SC375890  43.164  30.779  57.571
27060DG     BB175891  42.731  30.981  58.360
27060DG     BB275892  43.090  30.969  58.407
27060DG     BB375893  43.170  31.146  58.365
27060DG     SC175894  43.214  31.083  58.069
27060DG     SC275895  43.479  31.054  57.934
27060DG     SC375896  43.259  31.056  57.736
27060DG     SC475897  43.097  31.115  57.965
27061DT     BB175898  43.278  31.278  58.520
27061DT     BB275899  43.623  31.233  58.423
27061DT     BB375900  43.692  31.403  58.327
27061DT     SC175901  43.558  31.345  58.110
27061DT     SC275902  43.695  31.291  57.953
27061DT     SC375903  43.382  31.365  57.914
27062DT     BB175904  43.846  31.473  58.544
27062DT     BB275905  44.080  31.454  58.270
27062DT     BB375906  44.091  31.636  58.173
27062DT     SC175907  43.858  31.597  58.058
27062DT     SC275908  43.886  31.567  57.847
27062DT     SC375909  43.604  31.631  57.994
27063DT     BB175910  44.340  31.689  58.277
27063DT     BB275911  44.386  31.707  57.919
27063DT     BB375912  44.347  31.899  57.853
27063DT     SC175913  44.089  31.865  57.880
27063DT     SC275914  43.996  31.859  57.686
27063DT     SC375915  43.842  31.897  57.969
27064DT     BB175916  44.614  31.944  57.808
27064DT     BB275917  44.458  32.001  57.488
27064DT     BB375918  44.397  32.199  57.474
27064DT     SC175919  44.194  32.156  57.635
27064DT     SC275920  44.010  32.168  57.523
27064DT     SC375921  44.037  32.172  57.846
27065DT     BB175922  44.595  32.242  57.296
27065DT     BB275923  44.293  32.331  57.121
27065DT     BB375924  44.244  32.528  57.161
27065DT     SC175925  44.160  32.467  57.402
27065DT     SC275926  43.946  32.489  57.411
27065DT     SC375927  44.145  32.459  57.665
27066DT     BB175928  44.313  32.584  56.909
27066DT     BB275929  43.970  32.693  56.937
27066DT     BB375930  43.963  32.885  57.014
27066DT     SC175931  44.021  32.798  57.255
27066DT     SC275932  43.849  32.820  57.382
27066DT     SC375933  44.152  32.764  57.481
27067DT     BB175934  43.885  32.953  56.771
27067DT     BB275935  43.622  33.066  56.992
27067DT     BB375936  43.672  33.249  57.074
27067DT     SC175937  43.846  33.137  57.236
27067DT     SC275938  43.773  33.149  57.438
27067DT     SC375939  44.076  33.076  57.350
27068DG     BB175940  43.313  33.275  56.884
27068DG     BB275941  43.295  33.401  57.223
27068DG     BB375942  43.381  33.580  57.233
27068DG     SC175943  43.660  33.471  57.296
27068DG     SC275944  43.808  33.506  57.553
27068DG     SC375945  43.982  33.385  57.346
27068DG     SC475946  43.758  33.434  57.175
27069DA     BB175947  43.086  33.675  57.388
27069DA     BB275948  43.276  33.784  57.682
27069DA     BB375949  43.380  33.966  57.640
27069DA     SC175950  43.638  33.824  57.540
27069DA     SC275951  43.873  33.793  57.618
27069DA     SC375952  43.925  33.738  57.372
27069DA     SC475953  43.650  33.794  57.383
27070DA     BB175954  43.221  34.063  57.913
27070DA     BB275955  43.552  34.127  58.059
27070DA     BB375956  43.637  34.304  57.976
27070DA     SC175957  43.782  34.154  57.745
27070DA     SC275958  44.016  34.098  57.679
27070DA     SC375959  43.920  34.065  57.443
27070DA     SC475960  43.703  34.140  57.605
27071DT     BB175961  43.664  34.467  58.094
27071DT     BB275962  44.023  34.442  58.122
27071DT     BB375963  44.113  34.585  58.003
27071DT     SC175964  44.058  34.449  57.785
27071DT     SC275965  44.240  34.371  57.702
27071DT     SC375966  43.954  34.388  57.551
27072DG     BB175967  44.245  34.651  58.383
27072DG     BB275968  44.520  34.619  58.151
27072DG     BB375969  44.543  34.787  58.048
27072DG     SC175970  44.353  34.703  57.823
27072DG     SC275971  44.430  34.648  57.540
27072DG     SC375972  44.136  34.652  57.570
27072DG     SC475973  44.197  34.736  57.837
27073DT     BB175974  44.726  34.895  58.066
27073DT     BB275975  44.885  34.820  57.751
27073DT     BB375976  44.864  34.980  57.622
27073DT     SC175977  44.612  34.923  57.579
27073DT     SC275978  44.588  34.851  57.377
27073DT     SC375979  44.349  34.946  57.575
27074DA     BB175980  45.265  34.854  57.638
27074DA     BB275981  45.168  34.887  57.286
27074DA     BB375982  45.142  35.092  57.235
27074DA     SC175983  44.839  35.097  57.307
27074DA     SC275984  44.621  35.115  57.187
27074DA     SC375985  44.525  35.187  57.414
27074DA     SC475986  44.799  35.141  57.456
27075DA     BB175987  45.346  34.980  57.004
27075DA     BB275988  45.090  35.084  56.763
27075DA     BB375989  45.079  35.297  56.754
27075DA     SC175990  44.862  35.319  56.975
27075DA     SC275991  44.621  35.380  56.992
27075DA     SC375992  44.669  35.420  57.241
27075DA     SC475993  44.912  35.340  57.127
27076DA     BB175994  45.118  35.229  56.433
27076DA     BB275995  44.798  35.400  56.379
27076DA     BB375996  44.821  35.610  56.404
27076DA     SC175997  44.754  35.606  56.707
27076DA     SC275998  44.570  35.683  56.857
27076DA     SC375999  44.743  35.668  57.045
27076DA     SC476000  44.877  35.592  56.811
27077DT     BB176001  44.805  35.749  56.242
27077DT     BB276002  44.487  35.892  56.335
27077DT     BB376003  44.515  36.082  56.413
27077DT     SC176004  44.608  35.984  56.638
27077DT     SC276005  44.466  36.021  56.796
27077DT     SC376006  44.775  35.931  56.835
27078DA     BB176007  44.244  36.185  56.101
27078DA     BB276008  44.117  36.343  56.406
27078DA     BB376009  44.227  36.520  56.450
27078DA     SC176010  44.438  36.376  56.627
27078DA     SC276011  44.501  36.365  56.868
27078DA     SC376012  44.727  36.277  56.784
27078DA     SC476013  44.572  36.324  56.555
27079DT     BB176014  44.163  36.771  56.443
27079DT     BB276015  44.130  36.801  56.801
27079DT     BB376016  44.273  36.930  56.875
27079DT     SC176017  44.462  36.750  56.845
27079DT     SC276018  44.528  36.684  57.038
27079DT     SC376019  44.681  36.633  56.757
27080DA     BB176020  43.926  37.122  57.020
27080DA     BB276021  44.143  37.057  57.308
27080DA     BB376022  44.295  37.206  57.321
27080DA     SC176023  44.499  37.050  57.147
27080DA     SC276024  44.716  36.930  57.179
27080DA     SC376025  44.746  36.961  56.926
27080DA     SC476026  44.500  37.080  56.989
27081DA     BB176027  44.172  37.237  57.619
27081DA     BB276028  44.493  37.106  57.741
27081DA     BB376029  44.639  37.261  57.746
27081DA     SC176030  44.741  37.208  57.457
27081DA     SC276031  44.946  37.118  57.347
27081DA     SC376032  44.863  37.240  57.138
27081DA     SC476033  44.673  37.292  57.338
27082DG     BB176034  44.616  37.152  58.028
27082DG     BB276035  44.952  37.041  57.954
27082DG     BB376036  45.079  37.194  57.968
27082DG     SC176037  45.049  37.278  57.675
27082DG     SC276038  45.262  37.263  57.467
27082DG     SC376039  45.026  37.409  57.366
27082DG     SC476040  44.933  37.381  57.635
27083DA     BB176041  45.226  36.942  58.147
27083DA     BB276042  45.519  36.973  57.929
27083DA     BB376043  45.619  37.158  57.964
27083DA     SC176044  45.458  37.314  57.748
27083DA     SC276045  45.500  37.417  57.525
27083DA     SC376046  45.287  37.553  57.571
27083DA     SC476047  45.324  37.390  57.796
27084DA     BB176048  45.849  36.926  57.983
27084DA     BB276049  46.018  37.108  57.713
27084DA     BB376050  46.092  37.295  57.784
27084DA     SC176051  45.833  37.453  57.713
27084DA     SC276052  45.762  37.627  57.549
27084DA     SC376053  45.568  37.672  57.711
27084DA     SC476054  45.721  37.467  57.827
27085DT     BB176055  46.286  37.315  57.788
27085DT     BB276056  46.315  37.545  57.511
27085DT     BB376057  46.345  37.737  57.582
27085DT     SC176058  46.094  37.758  57.654
27085DT     SC276059  45.994  37.899  57.526
27085DT     SC376060  45.881  37.785  57.807
27086DT     BB176061  46.610  37.736  57.507
27086DT     BB276062  46.473  38.026  57.342
27086DT     BB376063  46.485  38.191  57.466
27086DT     SC176064  46.287  38.104  57.615
27086DT     SC276065  46.116  38.231  57.586
27086DT     SC376066  46.155  38.015  57.825
27087DT     BB176067  46.689  38.302  57.317
27087DT     BB276068  46.431  38.554  57.319
27087DT     BB376069  46.454  38.678  57.483
27087DT     SC176070  46.361  38.494  57.645
27087DT     SC276071  46.169  38.554  57.719
27087DT     SC376072  46.353  38.316  57.840
27088DT     BB176073  46.535  38.876  57.318
27088DT     BB276074  46.247  39.011  57.489
27088DT     BB376075  46.306  39.097  57.668
27088DT     SC176076  46.340  38.862  57.780
27088DT     SC276077  46.189  38.831  57.929
27088DT     SC376078  46.460  38.657  57.894
27089DG     BB176079  46.098  39.354  57.433
27089DG     BB276080  45.957  39.330  57.765
27089DG     BB376081  46.072  39.430  57.894
27089DG     SC176082  46.249  39.189  57.960
27089DG     SC276083  46.263  39.048  58.223
27089DG     SC376084  46.475  38.952  58.040
27089DG     SC476085  46.379  39.161  57.870
27090DA     BB176086  45.751  39.532  57.963
27090DA     BB276087  45.803  39.428  58.311
27090DA     BB376088  45.949  39.552  58.404
27090DA     SC176089  46.188  39.369  58.326
27090DA     SC276090  46.349  39.217  58.441
27090DA     SC376091  46.495  39.247  58.232
27090DA     SC476092  46.265  39.401  58.189
27091DT     BB176093  45.865  39.631  58.529
27091DT     BB276094  46.024  39.466  58.808
27091DT     BB376095  46.189  39.575  58.870
27091DT     SC176096  46.329  39.494  58.663
27091DT     SC276097  46.484  39.361  58.729
27091DT     SC376098  46.466  39.503  58.438
27092DC     BB176099  46.046  39.638  59.084
27092DC     BB276100  46.352  39.500  59.215
27092DC     BB376101  46.499  39.646  59.218
27092DC     SC176102  46.531  39.630  58.958
27092DC     SC276103  46.722  39.541  58.914
27092DC     SC376104  46.533  39.699  58.703
27093DA     BB176105  46.494  39.497  59.612
27093DA     BB276106  46.844  39.514  59.506
27093DA     BB376107  46.911  39.717  59.502
27093DA     SC176108  46.832  39.764  59.205
27093DA     SC276109  46.946  39.799  58.987
27093DA     SC376110  46.724  39.899  58.909
27093DA     SC476111  46.685  39.824  59.176
27094DA     BB176112  47.159  39.624  59.707
27094DA     BB276113  47.396  39.730  59.447
27094DA     BB376114  47.418  39.942  59.450
27094DA     SC176115  47.190  39.993  59.245
27094DA     SC276116  47.167  40.070  59.009
27094DA     SC376117  46.923  40.122  59.071
27094DA     SC476118  47.042  40.019  59.303
27095DA     BB176119  47.746  39.890  59.484
27095DA     BB276120  47.793  40.062  59.163
27095DA     BB376121  47.783  40.273  59.190
27095DA     SC176122  47.476  40.290  59.141
27095DA     SC276123  47.322  40.378  58.966
27095DA     SC376124  47.143  40.373  59.150
27095DA     SC476125  47.380  40.281  59.269
27096DC     BB176126  47.953  40.399  59.162
27096DC     BB276127  47.849  40.538  58.845
27096DC     BB376128  47.790  40.735  58.870
27096DC     SC176129  47.565  40.662  58.984
27096DC     SC276130  47.401  40.708  58.852
27096DC     SC376131  47.378  40.634  59.167
27097DT     BB176132  48.017  40.830  58.745
27097DT     BB276133  47.745  40.969  58.554
27097DT     BB376134  47.686  41.150  58.635
27097DT     SC176135  47.567  41.031  58.836
27097DT     SC276136  47.354  41.055  58.817
27097DT     SC376137  47.511  40.956  59.082
27098DT     BB176138  47.797  41.287  58.426
27098DT     BB276139  47.451  41.390  58.427
27098DT     BB376140  47.426  41.552  58.554
27098DT     SC176141  47.446  41.399  58.766
27098DT     SC276142  47.255  41.387  58.864
27098DT     SC376143  47.540  41.298  58.991
27099DT     BB176144  47.393  41.721  58.341
27099DT     BB276145  47.093  41.762  58.537
27099DT     BB376146  47.122  41.907  58.682
27099DT     SC176147  47.269  41.745  58.827
27099DT     SC276148  47.162  41.692  59.006
27099DT     SC376149  47.478  41.645  58.952
27100DA     BB176150  46.773  42.018  58.476
27100DA     BB276151  46.699  42.026  58.835
27100DA     BB376152  46.790  42.197  58.925
27100DA     SC176153  47.054  42.049  58.996
27100DA     SC276154  47.172  41.969  59.201
27100DA     SC376155  47.383  41.968  59.054
27100DA     SC476156  47.174  42.056  58.889
27101DT     BB176157  46.672  42.353  59.004
27101DT     BB276158  46.721  42.269  59.351
27101DT     BB376159  46.847  42.407  59.440
27101DT     SC176160  47.057  42.305  59.321
27101DT     SC276161  47.182  42.208  59.467
27101DT     SC376162  47.268  42.285  59.165
27102DT     BB176163  46.637  42.512  59.579
27102DT     BB276164  46.872  42.411  59.833
27102DT     BB376165  47.007  42.564  59.869
27102DT     SC176166  47.134  42.516  59.645
27102DT     SC276167  47.328  42.434  59.688
27102DT     SC376168  47.231  42.552  59.402
27103DT     BB176169  46.887  42.602  60.107
27103DT     BB276170  47.232  42.532  60.187
27103DT     BB376171  47.343  42.707  60.178
27103DT     SC176172  47.339  42.706  59.915
27103DT     SC276173  47.536  42.663  59.841
27103DT     SC376174  47.288  42.781  59.668
27104DT     BB176175  47.360  42.689  60.443
27104DT     BB276176  47.702  42.692  60.327
27104DT     BB376177  47.765  42.887  60.297
27104DT     SC176178  47.624  42.907  60.077
27104DT     SC276179  47.757  42.916  59.908
27104DT     SC376180  47.442  42.990  59.905
27105DA     BB176181  48.043  42.674  60.529
27105DA     BB276182  48.223  42.846  60.260
27105DA     BB376183  48.225  43.057  60.296
27105DA     SC176184  47.963  43.110  60.137
27105DA     SC276185  47.895  43.220  59.923
27105DA     SC376186  47.661  43.231  60.027
27105DA     SC476187  47.825  43.109  60.219
27106DT     BB176188  48.397  43.125  60.327
27106DT     BB276189  48.438  43.295  60.012
27106DT     BB376190  48.401  43.497  60.035
27106DT     SC176191  48.143  43.456  60.051
27106DT     SC276192  48.047  43.535  59.874
27106DT     SC376193  47.898  43.449  60.149
27107DG     BB176194  48.775  43.448  59.879
27107DG     BB276195  48.579  43.682  59.686
27107DG     BB376196  48.569  43.857  59.781
27107DG     SC176197  48.315  43.785  59.936
27107DG     SC276198  48.047  43.911  59.902
27107DG     SC376199  48.049  43.732  60.137
27107DG     SC476200  48.329  43.711  60.078
27108DC     BB176201  48.654  44.035  59.691
27108DC     BB276202  48.359  44.218  59.593
27108DC     BB376203  48.321  44.370  59.728
27108DC     SC176204  48.231  44.199  59.906
27108DC     SC276205  48.019  44.225  59.930
27108DC     SC376206  48.213  44.059  60.129
27109DT     BB176207  48.403  44.560  59.550
27109DT     BB276208  48.070  44.664  59.642
27109DT     BB376209  48.078  44.782  59.812
27109DT     SC176210  48.122  44.573  59.965
27109DT     SC276211  47.949  44.536  60.087
27109DT     SC376212  48.244  44.409  60.131
27110DC     BB176213  48.025  45.014  59.671
27110DC     BB276214  47.767  45.004  59.923
27110DC     BB376215  47.834  45.097  60.096
27110DC     SC176216  47.987  44.892  60.156
27110DC     SC276217  47.907  44.791  60.329
27110DC     SC376218  48.204  44.750  60.205
27111DG     BB176219  47.504  45.316  59.993
27111DG     BB276220  47.482  45.203  60.335
27111DG     BB376221  47.591  45.321  60.453
27111DG     SC176222  47.847  45.157  60.423
27111DG     SC276223  47.982  45.001  60.639
27111DG     SC376224  48.151  45.013  60.396
27111DG     SC476225  47.947  45.190  60.302
27112DA     BB176226  47.310  45.364  60.654
27112DA     BB276227  47.488  45.214  60.937
27112DA     BB376228  47.622  45.356  61.024
27112DA     SC176229  47.863  45.275  60.844
27112DA     SC276230  48.083  45.160  60.871
27112DA     SC376231  48.146  45.275  60.651
27112DA     SC476232  47.884  45.356  60.707
27113DT     BB176233  47.583  45.415  61.210
27113DT     BB276234  47.844  45.222  61.368
27113DT     BB376235  48.001  45.346  61.421
27113DT     SC176236  48.080  45.365  61.172
27113DT     SC276237  48.267  45.260  61.148
27113DT     SC376238  48.139  45.471  60.938
27114DA     BB176239  47.882  45.104  61.743
27114DA     BB276240  48.246  45.077  61.704
27114DA     BB376241  48.341  45.259  61.763
27114DA     SC176242  48.332  45.384  61.478
27114DA     SC276243  48.493  45.444  61.298
27114DA     SC376244  48.308  45.599  61.212
27114DA     SC476245  48.205  45.475  61.441
27115DT     BB176246  48.444  45.224  61.903
27115DT     BB276247  48.761  45.247  61.733
27115DT     BB376248  48.841  45.436  61.758
27115DT     SC176249  48.671  45.539  61.586
27115DT     SC276250  48.776  45.598  61.408
27115DT     SC376251  48.475  45.687  61.490
27116DA     BB176252  49.121  45.132  61.840
27116DA     BB276253  49.278  45.381  61.621
27116DA     BB376254  49.307  45.565  61.727
27116DA     SC176255  49.031  45.683  61.644
27116DA     SC276256  48.945  45.865  61.497
27116DA     SC376257  48.731  45.849  61.637
27116DA     SC476258  48.907  45.659  61.743
27117DA     BB176259  49.606  45.504  61.603
27117DA     BB276260  49.577  45.829  61.436
27117DA     BB376261  49.588  45.987  61.579
27117DA     SC176262  49.280  45.998  61.627
27117DA     SC276263  49.091  46.153  61.578
27117DA     SC376264  48.968  46.028  61.765
27117DA     SC476265  49.221  45.909  61.747
27118DA     BB176266  49.829  46.096  61.379
27118DA     BB276267  49.632  46.402  61.337
27118DA     BB376268  49.644  46.523  61.512
27118DA     SC176269  49.394  46.395  61.647
27118DA     SC276270  49.161  46.462  61.704
27118DA     SC376271  49.167  46.267  61.871
27118DA     SC476272  49.418  46.270  61.745
27119DT     BB176273  49.746  46.717  61.523
27119DT     BB276274  49.450  46.923  61.536
27119DT     BB376275  49.427  47.001  61.727
27119DT     SC176276  49.347  46.770  61.821
27119DT     SC276277  49.138  46.781  61.871
27119DT     SC376278  49.342  46.548  61.963
27120DA     BB176279  49.424  47.356  61.497
27120DA     BB276280  49.132  47.369  61.718
27120DA     BB376281  49.191  47.423  61.916
27120DA     SC176282  49.234  47.129  62.009
27120DA     SC276283  49.125  46.967  62.164
27120DA     SC376284  49.349  46.842  62.160
27120DA     SC476285  49.381  47.067  61.995
27121DT     BB176286  49.139  47.619  62.025
27121DT     BB276287  48.885  47.475  62.236
27121DT     BB376288  48.948  47.474  62.433
27121DT     SC176289  49.112  47.274  62.387
27121DT     SC276290  49.039  47.098  62.488
27121DT     SC376291  49.336  47.137  62.364
27122DC     BB176292  48.774  47.676  62.502
27122DC     BB276293  48.682  47.400  62.715
27122DC     BB376294  48.793  47.406  62.890
27122DC     SC176295  49.008  47.320  62.766
27122DC     SC276296  49.053  47.120  62.832
27122DC     SC376297  49.253  47.316  62.668
27123DA     BB176298  48.384  47.365  62.973
27123DA     BB276299  48.567  47.107  63.158
27123DA     BB376300  48.677  47.194  63.318
27123DA     SC176301  48.935  47.238  63.149
27123DA     SC276302  49.166  47.145  63.137
27123DA     SC376303  49.225  47.362  63.013
27123DA     SC476304  48.952  47.380  63.074
27124DG     BB176305  48.494  46.993  63.460
27124DG     BB276306  48.812  46.840  63.541
27124DG     BB376307  48.900  46.942  63.687
27124DG     SC176308  49.049  47.132  63.498
27124DG     SC276309  49.344  47.143  63.458
27124DG     SC376310  49.211  47.369  63.321
27124DG     SC476311  48.977  47.267  63.451
27125DC     BB176312  48.936  46.836  63.859
27125DC     BB276313  49.293  46.788  63.847
27125DC     BB376314  49.387  46.930  63.965
27125DC     SC176315  49.344  47.118  63.788
27125DC     SC276316  49.530  47.176  63.698
27125DC     SC376317  49.251  47.340  63.678
27126DT     BB176318  49.444  46.734  64.139
27126DT     BB276319  49.764  46.880  64.057
27126DT     BB376320  49.799  47.045  64.176
27126DT     SC176321  49.628  47.190  64.039
27126DT     SC276322  49.734  47.340  63.928
27126DT     SC376323  49.415  47.335  63.983
27127DA     BB176324  50.138  46.800  64.217
27127DA     BB276325  50.254  47.141  64.148
27127DA     BB376326  50.227  47.265  64.320
27127DA     SC176327  49.941  47.358  64.238
27127DA     SC276328  49.831  47.568  64.161
27127DA     SC376329  49.613  47.458  64.239
27127DA     SC476330  49.817  47.273  64.294
27128DA     BB176331  50.549  47.327  64.283
27128DA     BB276332  50.458  47.678  64.230
27128DA     BB376333  50.412  47.772  64.416
27128DA     SC176334  50.109  47.703  64.405
27128DA     SC276335  49.893  47.825  64.375
27128DA     SC376336  49.786  47.618  64.483
27128DA     SC476337  50.061  47.567  64.475
27129DT     BB176338  50.534  47.923  64.488
27129DT     BB276339  50.310  48.194  64.410
27129DT     BB376340  50.224  48.267  64.583
27129DT     SC176341  50.065  48.059  64.601
27129DT     SC276342  49.863  48.120  64.562
27129DT     SC376343  49.954  47.839  64.695
27130DA     BB176344  50.386  48.582  64.360
27130DA     BB276345  50.040  48.667  64.445
27130DA     BB376346  50.024  48.712  64.653
27130DA     SC176347  49.960  48.419  64.737
27130DA     SC276348  49.765  48.291  64.824
27130DA     SC376349  49.940  48.119  64.902
27130DA     SC476350  50.084  48.325  64.779
27131DT     BB176351  49.975  48.895  64.692
27131DT     BB276352  49.634  48.830  64.790
27131DT     BB376353  49.617  48.838  64.996
27131DT     SC176354  49.735  48.605  65.023
27131DT     SC276355  49.591  48.459  65.090
27131DT     SC376356  49.913  48.423  65.092
27132DC     BB176357  49.482  49.064  64.958
27132DC     BB276358  49.258  48.852  65.146
27132DC     BB376359  49.299  48.868  65.348
27132DC     SC176360  49.516  48.722  65.323
27132DC     SC276361  49.486  48.532  65.418
27132DC     SC376362  49.771  48.653  65.324
27133DT     BB176363  49.070  49.009  65.382
27133DT     BB276364  49.040  48.734  65.614
27133DT     BB376365  49.131  48.783  65.793
27133DT     SC176366  49.370  48.752  65.691
27133DT     SC276367  49.463  48.578  65.776
27133DT     SC376368  49.614  48.809  65.607
27134DT     BB176369  48.888  48.815  65.922
27134DT     BB276370  49.063  48.575  66.127
27134DT     BB376371  49.175  48.673  66.270
27134DT     SC176372  49.354  48.745  66.092
27134DT     SC276373  49.537  48.638  66.127
27134DT     SC376374  49.503  48.899  65.938
27135DC     BB176375  49.004  48.612  66.487
27135DC     BB276376  49.325  48.487  66.594
27135DC     BB376377  49.427  48.634  66.699
27135DC     SC176378  49.482  48.765  66.479
27135DC     SC276379  49.693  48.752  66.439
27135DC     SC376380  49.485  48.958  66.299
27136DC     BB176381  49.388  48.520  66.957
27136DC     BB276382  49.747  48.551  66.930
27136DC     BB376383  49.808  48.732  67.008
27136DC     SC176384  49.718  48.863  66.799
27136DC     SC276385  49.884  48.939  66.686
27136DC     SC376386  49.575  49.029  66.653
27137DA     BB176387  50.039  48.442  67.202
27137DA     BB276388  50.268  48.698  67.074
27137DA     BB376389  50.260  48.873  67.197
27137DA     SC176390  50.035  49.009  67.031
27137DA     SC276391  50.011  49.204  66.878
27137DA     SC376392  49.760  49.188  66.931
27137DA     SC476393  49.883  48.983  67.077
27138DA     BB176394  50.579  48.811  67.195
27138DA     BB276395  50.620  49.139  67.036
27138DA     BB376396  50.595  49.295  67.180
27138DA     SC176397  50.289  49.323  67.131
27138DA     SC276398  50.133  49.490  67.031
27138DA     SC376399  49.951  49.371  67.167
27138DA     SC476400  50.190  49.237  67.224
27139DT     BB176401  50.750  49.388  67.201
27139DT     BB276402  50.648  49.688  67.028
27139DT     BB376403  50.591  49.832  67.164
27139DT     SC176404  50.364  49.708  67.212
27139DT     SC276405  50.201  49.823  67.132
27139DT     SC376406  50.176  49.578  67.342
27140DT     BB176407  50.809  49.947  67.079
27140DT     BB276408  50.546  50.189  67.024
27140DT     BB376409  50.503  50.288  67.201
27140DT     SC176410  50.377  50.079  67.297
27140DT     SC276411  50.166  50.122  67.307
27140DT     SC376412  50.317  49.875  67.453
27141DA     BB176413  50.560  50.565  66.889
27141DA     BB276414  50.258  50.660  67.075
27141DA     BB376415  50.311  50.733  67.268
27141DA     SC176416  50.293  50.454  67.405
27141DA     SC276417  50.145  50.338  67.569
27141DA     SC376418  50.343  50.178  67.604
27141DA     SC476419  50.427  50.366  67.414
27142DA     BB176420  50.127  50.987  67.167
27142DA     BB276421  49.913  50.925  67.459
27142DA     BB376422  50.011  50.988  67.637
27142DA     SC176423  50.145  50.712  67.691
27142DA     SC276424  50.124  50.526  67.855
27142DA     SC376425  50.360  50.460  67.780
27142DA     SC476426  50.293  50.688  67.632
27143DA     BB176427  49.734  51.163  67.683
27143DA     BB276428  49.687  50.976  67.995
27143DA     BB376429  49.821  51.048  68.145
27143DA     SC176430  50.048  50.848  68.074
27143DA     SC276431  50.157  50.648  68.176
27143DA     SC376432  50.352  50.699  68.016
27143DA     SC476433  50.159  50.897  67.968
27144DG     BB176434  49.564  51.121  68.312
27144DG     BB276435  49.695  50.873  68.541
27144DG     BB376436  49.831  50.956  68.660
27144DG     SC176437  50.066  50.896  68.473
27144DG     SC276438  50.290  50.707  68.529
27144DG     SC376439  50.343  50.864  68.284
27144DG     SC476440  50.104  51.002  68.360
27145DA     BB176441  49.657  50.834  68.938
27145DA     BB276442  49.951  50.642  69.043
27145DA     BB376443  50.094  50.770  69.136
27145DA     SC176444  50.245  50.836  68.872
27145DA     SC276445  50.467  50.785  68.769
27145DA     SC376446  50.421  50.989  68.620
27145DA     SC476447  50.199  50.966  68.790
27146DT     BB176448  50.137  50.750  69.339
27146DT     BB276449  50.462  50.598  69.300
27146DT     BB376450  50.610  50.735  69.345
27146DT     SC176451  50.574  50.862  69.119
27146DT     SC276452  50.744  50.831  68.991
27146DT     SC376453  50.513  51.055  68.949
27147DT     BB176454  50.670  50.611  69.584
27147DT     BB276455  50.984  50.616  69.407
27147DT     BB376456  51.085  50.793  69.447
27147DT     SC176457  50.923  50.929  69.292
27147DT     SC276458  51.031  50.993  69.117
27147DT     SC376459  50.743  51.105  69.215
27148DT     BB176460  51.274  50.672  69.615
27148DT     BB276461  51.473  50.836  69.362
27148DT     BB376462  51.517  51.029  69.422
27148DT     SC176463  51.272  51.109  69.369
27148DT     SC276464  51.275  51.240  69.198
27148DT     SC376465  51.029  51.204  69.406
27149DA     BB176466  51.895  50.865  69.338
27149DA     BB276467  51.873  51.185  69.160
27149DA     BB376468  51.899  51.348  69.297
27149DA     SC176469  51.595  51.375  69.359
27149DA     SC276470  51.411  51.538  69.314
27149DA     SC376471  51.292  51.426  69.511
27149DA     SC476472  51.538  51.294  69.485
27150DA     BB176473  52.142  51.442  69.093
27150DA     BB276474  51.945  51.745  69.027
27150DA     BB376475  51.968  51.885  69.187
27150DA     SC176476  51.726  51.777  69.349
27150DA     SC276477  51.497  51.853  69.412
27150DA     SC376478  51.512  51.678  69.599
27150DA     SC476479  51.755  51.663  69.460
27151DC     BB176480  52.064  52.069  69.154
27151DC     BB276481  51.764  52.268  69.149
27151DC     BB376482  51.751  52.382  69.321
27151DC     SC176483  51.684  52.172  69.464
27151DC     SC276484  51.479  52.191  69.525
27151DC     SC376485  51.696  51.983  69.647
27152DT     BB176486  51.802  52.598  69.169
27152DT     BB276487  51.483  52.665  69.324
27152DT     BB376488  51.511  52.749  69.511
27152DT     SC176489  51.582  52.518  69.612
27152DT     SC276490  51.429  52.449  69.748
27152DT     SC376491  51.730  52.332  69.726
27153DA     BB176492  51.237  52.971  69.283
27153DA     BB276493  51.091  52.910  69.614
27153DA     BB376494  51.193  53.025  69.762
27153DA     SC176495  51.401  52.802  69.826
27153DA     SC276496  51.453  52.647  70.014
27153DA     SC376497  51.685  52.627  69.907
27153DA     SC476498  51.540  52.804  69.745
27154DT     BB176499  51.083  53.153  69.841
27154DT     BB276500  51.044  52.991  70.160
27154DT     BB376501  51.172  53.075  70.299
27154DT     SC176502  51.379  52.954  70.193
27154DT     SC276503  51.450  52.803  70.329
27154DT     SC376504  51.610  52.919  70.072
27155DG     BB176505  50.791  53.106  70.443
27155DG     BB276506  51.014  52.958  70.687
27155DG     BB376507  51.126  53.099  70.771
27155DG     SC176508  51.351  53.078  70.564
27155DG     SC276509  51.628  52.980  70.615
27155DG     SC376510  51.606  53.096  70.344
27155DG     SC476511  51.342  53.167  70.431
27156DC     BB176512  51.114  53.146  70.990
27156DC     BB276513  51.422  53.003  71.112
27156DC     BB376514  51.560  53.152  71.149
27156DC     SC176515  51.604  53.185  70.892
27156DC     SC276516  51.802  53.116  70.844
27156DC     SC376517  51.615  53.300  70.655
27157DA     BB176518  51.540  52.929  71.503
27157DA     BB276519  51.894  52.969  71.417
27157DA     BB376520  51.958  53.168  71.459
27157DA     SC176521  51.890  53.276  71.175
27157DA     SC276522  52.012  53.356  70.973
27157DA     SC376523  51.791  53.469  70.909
27157DA     SC476524  51.744  53.340  71.153
27158DT     BB176525  52.098  53.206  71.610
27158DT     BB276526  52.378  53.272  71.392
27158DT     BB376527  52.421  53.475  71.392
27158DT     SC176528  52.211  53.527  71.242
27158DT     SC276529  52.277  53.587  71.046
27158DT     SC376530  51.978  53.624  71.166
27159DG     BB176531  52.758  53.280  71.510
27159DG     BB276532  52.823  53.501  71.231
27159DG     BB376533  52.836  53.689  71.295
27159DG     SC176534  52.537  53.747  71.262
27159DG     SC276535  52.417  53.937  71.066
27159DG     SC376536  52.213  53.839  71.257
27159DG     SC476537  52.438  53.715  71.383
27160DT     BB176538  53.019  53.790  71.266
27160DT     BB276539  52.936  54.014  70.995
27160DT     BB376540  52.902  54.204  71.068
27160DT     SC176541  52.668  54.134  71.165
27160DT     SC276542  52.512  54.229  71.051
27160DT     SC376543  52.476  54.084  71.339
27161DA     BB176544  53.169  54.214  70.745
27161DA     BB276545  52.910  54.468  70.690
27161DA     BB376546  52.934  54.629  70.827
27161DA     SC176547  52.749  54.504  71.044
27161DA     SC276548  52.524  54.549  71.142
27161DA     SC376549  52.604  54.405  71.339
27161DA     SC476550  52.817  54.413  71.157
27162DA     BB176551  52.919  54.777  70.536
27162DA     BB276552  52.627  54.955  70.668
27162DA     BB376553  52.687  55.096  70.817
27162DA     SC176554  52.658  54.896  71.053
27162DA     SC276555  52.507  54.863  71.250
27162DA     SC376556  52.698  54.720  71.346
27162DA     SC476557  52.788  54.812  71.097
27163DC     BB176558  52.656  55.275  70.768
27163DC     BB276559  52.379  55.337  70.991
27163DC     BB376560  52.445  55.439  71.159
27163DC     SC176561  52.556  55.221  71.256
27163DC     SC276562  52.445  55.156  71.429
27163DC     SC376563  52.741  55.054  71.343
27164DA     BB176564  52.117  55.652  71.004
27164DA     BB276565  52.066  55.612  71.365
27164DA     BB376566  52.201  55.737  71.473
27164DA     SC176567  52.424  55.521  71.493
27164DA     SC276568  52.529  55.379  71.670
27164DA     SC376569  52.724  55.355  71.506
27164DA     SC476570  52.536  55.519  71.378
27165DA     BB176571  51.925  55.849  71.617
27165DA     BB276572  52.064  55.733  71.936
27165DA     BB376573  52.215  55.867  72.004
27165DA     SC176574  52.447  55.716  71.862
27165DA     SC276575  52.644  55.576  71.926
27165DA     SC376576  52.735  55.634  71.694
27165DA     SC476577  52.487  55.764  71.714
27166DA     BB176578  52.035  55.882  72.282
27166DA     BB276579  52.326  55.745  72.458
27166DA     BB376580  52.472  55.896  72.489
27166DA     SC176581  52.622  55.839  72.222
27166DA     SC276582  52.841  55.744  72.151
27166DA     SC376583  52.799  55.866  71.929
27166DA     SC476584  52.578  55.924  72.093
27167DT     BB176585  52.523  55.971  72.684
27167DT     BB276586  52.840  55.802  72.711
27167DT     BB376587  52.995  55.939  72.693
27167DT     SC176588  52.957  55.959  72.434
27167DT     SC276589  53.123  55.869  72.331
27167DT     SC376590  52.900  56.064  72.199
27168DC     BB176591  53.057  55.925  72.962
27168DC     BB276592  53.363  55.833  72.794
27168DC     BB376593  53.475  56.002  72.753
27168DC     SC176594  53.314  56.071  72.557
27168DC     SC276595  53.417  56.047  72.369
27168DC     SC376596  53.140  56.209  72.415
27169DA     BB176597  53.727  55.735  72.954
27169DA     BB276598  53.900  55.846  72.650
27169DA     BB376599  53.969  56.047  72.673
27169DA     SC176600  53.710  56.175  72.559
27169DA     SC276601  53.640  56.300  72.354
27169DA     SC376602  53.442  56.380  72.495
27169DA     SC476603  53.594  56.215  72.663
27170DT     BB176604  54.160  56.067  72.671
27170DT     BB276605  54.183  56.204  72.338
27170DT     BB376606  54.212  56.409  72.348
27170DT     SC176607  53.962  56.449  72.414
27170DT     SC276608  53.859  56.545  72.252
27170DT     SC376609  53.751  56.519  72.556
27171DA     BB176610  54.495  56.233  72.094
27171DA     BB276611  54.342  56.517  71.918
27171DA     BB376612  54.409  56.701  72.003
27171DA     SC176613  54.177  56.719  72.209
27171DA     SC276614  53.974  56.859  72.247
27171DA     SC376615  53.986  56.774  72.489
27171DA     SC476616  54.202  56.656  72.355
27172DT     BB176617  54.506  56.798  71.881
27172DT     BB276618  54.256  57.049  71.813
27172DT     BB376619  54.297  57.220  71.922
27172DT     SC176620  54.214  57.108  72.144
27172DT     SC276621  54.030  57.201  72.207
27172DT     SC376622  54.218  57.010  72.389
27173DA     BB176623  54.220  57.303  71.517
27173DA     BB276624  54.022  57.533  71.723
27173DA     BB376625  54.150  57.672  71.822
27173DA     SC176626  54.188  57.496  72.075
27173DA     SC276627  54.120  57.501  72.315
27173DA     SC376628  54.314  57.337  72.352
27173DA     SC476629  54.314  57.396  72.078
27174DC     BB176630  54.116  57.840  71.763
27174DC     BB276631  53.956  57.964  72.061
27174DC     BB376632  54.092  58.068  72.177
27174DC     SC176633  54.207  57.845  72.256
27174DC     SC276634  54.165  57.813  72.465
27174DC     SC376635  54.391  57.659  72.290
27175DA     BB176636  53.749  58.305  72.127
27175DA     BB276637  53.843  58.313  72.481
27175DA     BB376638  54.021  58.426  72.508
27175DA     SC176639  54.210  58.181  72.476
27175DA     SC276640  54.362  58.045  72.620
27175DA     SC376641  54.472  57.973  72.400
27175DA     SC476642  54.266  58.150  72.329
27176DA     BB176643  53.835  58.591  72.728
27176DA     BB276644  54.082  58.497  72.982
27176DA     BB376645  54.260  58.614  72.960
27176DA     SC176646  54.398  58.411  72.768
27176DA     SC276647  54.590  58.252  72.775
27176DA     SC376648  54.582  58.264  72.519
27176DA     SC476649  54.377  58.433  72.610
27177DG     BB176650  54.217  58.735  73.251
27177DG     BB276651  54.530  58.570  73.324
27177DG     BB376652  54.682  58.687  73.273
27177DG     SC176653  54.700  58.580  72.987
27177DG     SC276654  54.926  58.421  72.873
27177DG     SC376655  54.735  58.500  72.661
27177DG     SC476656  54.612  58.648  72.872
27178DA     BB176657  54.841  58.681  73.594
27178DA     BB276658  55.143  58.530  73.451
27178DA     BB376659  55.267  58.680  73.364
27178DA     SC176660  55.138  58.659  73.082
27178DA     SC276661  55.201  58.578  72.855
27178DA     SC376662  55.009  58.725  72.771
27178DA     SC476663  55.015  58.757  73.049
27179DA     BB176664  55.528  58.585  73.559
27179DA     BB276665  55.706  58.490  73.253
27179DA     BB376666  55.799  58.661  73.165
27179DA     SC176667  55.555  58.733  72.986
27179DA     SC276668  55.497  58.730  72.743
27179DA     SC376669  55.312  58.896  72.807
27179DA     SC476670  55.447  58.836  73.045
27180DA     BB176671  56.091  58.499  73.180
27180DA     BB276672  56.094  58.503  72.814
27180DA     BB376673  56.169  58.690  72.742
27180DA     SC176674  55.888  58.824  72.729
27180DA     SC276675  55.729  58.903  72.554
27180DA     SC376676  55.626  59.046  72.740
27180DA     SC476677  55.839  58.906  72.858
27181DA     BB176678  56.386  58.508  72.578
27181DA     BB276679  56.232  58.631  72.269
27181DA     BB376680  56.307  58.825  72.221
27181DA     SC176681  56.085  58.976  72.379
27181DA     SC276682  55.887  59.120  72.328
27181DA     SC376683  55.908  59.200  72.570
27181DA     SC476684  56.115  59.015  72.532
27182DA     BB176685  56.360  58.662  71.947
27182DA     BB276686  56.126  58.896  71.789
27182DA     BB376687  56.220  59.086  71.760
27182DA     SC176688  56.130  59.200  72.035
27182DA     SC276689  55.971  59.373  72.120
27182DA     SC376690  56.112  59.367  72.334
27182DA     SC476691  56.230  59.183  72.159
27183DT     BB176692  56.232  59.124  71.581
27183DT     BB276693  55.968  59.369  71.571
27183DT     BB376694  56.049  59.560  71.573
27183DT     SC176695  56.106  59.541  71.829
27183DT     SC276696  55.979  59.673  71.941
27183DT     SC376697  56.248  59.530  72.051
27184DT     BB176698  55.956  59.561  71.330
27184DT     BB276699  55.797  59.839  71.495
27184DT     BB376700  55.925  60.002  71.499
27184DT     SC176701  56.071  59.892  71.687
27184DT     SC276702  56.045  60.002  71.870
27184DT     SC376703  56.278  59.786  71.810
27185DT     BB176704  55.746  60.093  71.334
27185DT     BB276705  55.763  60.334  71.602
27185DT     BB376706  55.927  60.457  71.576
27185DT     SC176707  56.092  60.268  71.652
27185DT     SC276708  56.176  60.319  71.843
27185DT     SC376709  56.285  60.089  71.643
27186DG     BB176710  55.584  60.675  71.611
27186DG     BB276711  55.843  60.796  71.832
27186DG     BB376712  55.981  60.895  71.728
27186DG     SC176713  56.153  60.647  71.674
27186DG     SC276714  56.427  60.598  71.781
27186DG     SC376715  56.355  60.395  71.578
27186DG     SC476716  56.122  60.559  71.544
27187DT     BB176717  56.011  61.101  71.769
27187DT     BB276718  56.333  61.105  71.932
27187DT     BB376719  56.480  61.160  71.797
27187DT     SC176720  56.472  60.924  71.681
27187DT     SC276721  56.654  60.818  71.723
27187DT     SC376722  56.437  60.740  71.495
27188DA     BB176723  56.533  61.425  72.119
27188DA     BB276724  56.865  61.298  72.027
27188DA     BB376725  56.931  61.388  71.846
27188DA     SC176726  56.809  61.169  71.663
27188DA     SC276727  56.891  60.985  71.515
27188DA     SC376728  56.660  60.997  71.406
27188DA     SC476729  56.661  61.193  71.607
27189DA     BB176730  57.211  61.492  72.003
27189DA     BB276731  57.407  61.297  71.763
27189DA     BB376732  57.427  61.403  71.579
27189DA     SC176733  57.171  61.280  71.452
27189DA     SC276734  57.114  61.120  71.269
27189DA     SC376735  56.882  61.227  71.275
27189DA     SC476736  57.033  61.360  71.470
27190DT     BB176737  57.624  61.504  71.483
27190DT     BB276738  57.674  61.257  71.224
27190DT     BB376739  57.639  61.342  71.038
27190DT     SC176740  57.380  61.339  71.077
27190DT     SC276741  57.290  61.193  70.946
27190DT     SC376742  57.133  61.425  71.110
27191DG     BB176743  58.037  61.243  70.986
27191DG     BB276744  57.837  61.106  70.717
27191DG     BB376745  57.812  61.243  70.575
27191DG     SC176746  57.555  61.357  70.698
27191DG     SC276747  57.282  61.341  70.580
27191DG     SC376748  57.284  61.520  70.815
27191DG     SC476749  57.567  61.475  70.806
27192DT     BB176750  57.892  61.234  70.343
27192DT     BB276751  57.584  61.148  70.176
27192DT     BB376752  57.517  61.308  70.064
27192DT     SC176753  57.437  61.435  70.280
27192DT     SC276754  57.222  61.442  70.283
27192DT     SC376755  57.421  61.620  70.467
27193DT     BB176756  57.583  61.179  69.834
27193DT     BB276757  57.229  61.241  69.806
27193DT     BB376758  57.197  61.427  69.721
27193DT     SC176759  57.264  61.549  69.944
27193DT     SC276760  57.089  61.640  70.031
27193DT     SC376761  57.396  61.701  70.113
27194DA     BB176762  56.971  61.131  69.529
27194DA     BB276763  56.748  61.410  69.614
27194DA     BB376764  56.791  61.578  69.490
27194DA     SC176765  56.999  61.701  69.687
27194DA     SC276766  57.016  61.899  69.837
27194DA     SC376767  57.269  61.860  69.826
27194DA     SC476768  57.153  61.661  69.665
27195DT     BB176769  56.647  61.616  69.385
27195DT     BB276770  56.541  61.915  69.557
27195DT     BB376771  56.612  62.082  69.458
27195DT     SC176772  56.856  62.042  69.548
27195DT     SC276773  56.906  62.195  69.691
27195DT     SC376774  57.114  61.992  69.550
27196DT     BB176775  56.360  62.125  69.388
27196DT     BB276776  56.462  62.428  69.554
27196DT     BB376777  56.563  62.551  69.421
27196DT     SC176778  56.777  62.400  69.431
27196DT     SC276779  56.934  62.505  69.533
27196DT     SC376780  56.970  62.238  69.353
27197DT     BB176781  56.349  62.720  69.412
27197DT     BB276782  56.626  62.932  69.505
27197DT     BB376783  56.723  62.999  69.336
27197DT     SC176784  56.835  62.765  69.297
27197DT     SC276785  57.046  62.780  69.335
27197DT     SC376786  56.897  62.535  69.183
27198DT     BB176787  56.622  63.259  69.355
27198DT     BB276788  56.979  63.307  69.345
27198DT     BB376789  57.043  63.326  69.148
27198DT     SC176790  57.013  63.068  69.106
27198DT     SC276791  57.207  62.977  69.082
27198DT     SC376792  56.922  62.842  69.005
27199DG     BB176793  57.159  63.685  69.310
27199DG     BB276794  57.437  63.522  69.145
27199DG     BB376795  57.430  63.556  68.949
27199DG     SC176796  57.258  63.311  68.887
27199DG     SC276797  57.345  63.071  68.731
27199DG     SC376798  57.054  63.062  68.786
27199DG     SC476799  57.099  63.324  68.893
27200DG     BB176800  57.728  63.702  68.950
27200DG     BB276801  57.838  63.427  68.742
27200DG     BB376802  57.802  63.468  68.551
27200DG     SC176803  57.521  63.346  68.552
27200DG     SC276804  57.435  63.102  68.403
27200DG     SC376805  57.202  63.240  68.522
27200DG     SC476806  57.397  63.439  68.592
27201DT     BB176807  57.969  63.486  68.397
27201DT     BB276808  57.934  63.171  68.224
27201DT     BB376809  57.850  63.201  68.038
27201DT     SC176810  57.613  63.241  68.143
27201DT     SC276811  57.484  63.076  68.093
27201DT     SC376812  57.389  63.362  68.212
27202DT     BB176813  58.090  63.146  67.924
27202DT     BB276814  57.863  62.904  67.782
27202DT     BB376815  57.770  62.985  67.615
27202DT     SC176816  57.615  63.135  67.764
27202DT     SC276817  57.412  63.064  67.752
27202DT     SC376818  57.505  63.351  67.870
27203DA     BB176819  57.932  62.611  67.515
27203DA     BB276820  57.583  62.619  67.402
27203DA     BB376821  57.563  62.745  67.231
27203DA     SC176822  57.501  63.001  67.398
27203DA     SC276823  57.306  63.150  67.442
27203DA     SC376824  57.482  63.323  67.516
27203DA     SC476825  57.625  63.095  67.439
27204DT     BB176826  57.512  62.657  67.065
27204DT     BB276827  57.170  62.772  67.058
27204DT     BB376828  57.150  62.925  66.920
27204DT     SC176829  57.270  63.095  67.080
27204DT     SC276830  57.127  63.240  67.151
27204DT     SC376831  57.449  63.265  67.173
27205DA     BB176832  56.856  62.636  66.849
27205DA     BB276833  56.693  62.964  66.860
27205DA     BB376834  56.740  63.077  66.685
27205DA     SC176835  56.992  63.211  66.809
27205DA     SC276836  57.062  63.438  66.884
27205DA     SC376837  57.302  63.350  66.861
27205DA     SC476838  57.134  63.138  66.786
27206DT     BB176839  56.590  63.111  66.579
27206DT     BB276840  56.558  63.460  66.661
27206DT     BB376841  56.636  63.576  66.509
27206DT     SC176842  56.882  63.518  66.581
27206DT     SC276843  56.976  63.694  66.662
27206DT     SC376844  57.127  63.422  66.570
27207DA     BB176845  56.255  63.705  66.625
27207DA     BB276846  56.477  63.997  66.610
27207DA     BB376847  56.528  64.041  66.407
27207DA     SC176848  56.782  63.862  66.406
27207DA     SC276849  57.029  63.892  66.399
27207DA     SC376850  57.037  63.648  66.319
27207DA     SC476851  56.766  63.709  66.357
27208DC     BB176852  56.463  64.198  66.374
27208DC     BB276853  56.776  64.378  66.361
27208DC     BB376854  56.842  64.389  66.165
27208DC     SC176855  56.915  64.137  66.166
27208DC     SC276856  57.130  64.125  66.161
27208DC     SC376857  56.924  63.881  66.104
27209DA     BB176858  56.856  64.765  66.354
27209DA     BB276859  57.170  64.715  66.172
27209DA     BB376860  57.135  64.719  65.962
27209DA     SC176861  57.087  64.413  65.939
27209DA     SC276862  57.203  64.214  65.842
27209DA     SC376863  56.973  64.101  65.851
27209DA     SC476864  56.935  64.360  65.951
27210DG     BB176865  57.338  64.956  65.976
27210DG     BB276866  57.532  64.745  65.755
27210DG     BB376867  57.460  64.756  65.570
27210DG     SC176868  57.263  64.524  65.607
27210DG     SC276869  57.277  64.260  65.469
27210DG     SC376870  57.023  64.288  65.618
27210DG     SC476871  57.117  64.555  65.663
27211DT     BB176872  57.570  64.846  65.383
27211DT     BB276873  57.645  64.552  65.189
27211DT     BB376874  57.516  64.538  65.028
27211DT     SC176875  57.318  64.462  65.183
27211DT     SC276876  57.272  64.256  65.143
27211DT     SC376877  57.086  64.464  65.308
27212DT     BB176878  57.693  64.625  64.815
27212DT     BB276879  57.571  64.308  64.694
27212DT     BB376880  57.404  64.338  64.576
27212DT     SC176881  57.254  64.385  64.786
27212DT     SC276882  57.116  64.223  64.813
27212DT     SC376883  57.099  64.514  64.956
27213DA     BB176884  57.642  64.130  64.293
27213DA     BB276885  57.316  63.963  64.298
27213DA     BB376886  57.174  64.073  64.183
27213DA     SC176887  57.076  64.245  64.422
27213DA     SC276888  56.870  64.268  64.561
27213DA     SC376889  56.961  64.500  64.622
27213DA     SC476890  57.148  64.387  64.446
27214DC     BB176891  57.075  64.007  63.981
27214DC     BB276892  56.757  63.919  64.128
27214DC     BB376893  56.611  64.051  64.064
27214DC     SC176894  56.702  64.241  64.220
27214DC     SC276895  56.560  64.277  64.378
27214DC     SC376896  56.807  64.470  64.297
27215DT     BB176897  56.490  63.863  63.898
27215DT     BB276898  56.231  63.959  64.130
27215DT     BB376899  56.125  64.120  64.055
27215DT     SC176900  56.322  64.285  64.110
27215DT     SC276901  56.263  64.415  64.270
27215DT     SC376902  56.518  64.458  64.074
27216DC     BB176903  55.922  63.951  64.022
27216DC     BB276904  55.799  64.205  64.247
27216DC     BB376905  55.729  64.367  64.139
27216DC     SC176906  55.974  64.445  64.084
27216DC     SC276907  56.016  64.628  64.191
27216DC     SC376908  56.190  64.506  63.946
27217DA     BB176909  55.463  64.234  64.436
27217DA     BB276910  55.507  64.597  64.469
27217DA     BB376911  55.417  64.698  64.305
27217DA     SC176912  55.675  64.695  64.131
27217DA     SC276913  55.842  64.859  64.046
27217DA     SC376914  55.899  64.681  63.871
27217DA     SC476915  55.695  64.572  64.029
27218DT     BB176916  55.292  64.795  64.374
27218DT     BB276917  55.453  65.115  64.332
27218DT     BB376918  55.393  65.202  64.154
27218DT     SC176919  55.542  65.038  64.013
27218DT     SC276920  55.705  65.147  63.926
27218DT     SC376921  55.609  64.849  63.842
27219DG     BB176922  55.336  65.445  64.477
27219DG     BB276923  55.514  65.612  64.210
27219DG     BB376924  55.390  65.653  64.060
27219DG     SC176925  55.436  65.387  63.916
27219DG     SC276926  55.569  65.352  63.651
27219DG     SC376927  55.448  65.098  63.742
27219DG     SC476928  55.345  65.261  63.954
27220DA     BB176929  55.531  65.968  64.093
27220DA     BB276930  55.630  65.955  63.740
27220DA     BB376931  55.459  65.971  63.614
27220DA     SC176932  55.410  65.664  63.599
27220DA     SC276933  55.428  65.482  63.429
27220DA     SC376934  55.270  65.351  63.583
27220DA     SC476935  55.311  65.599  63.708
27221DT     BB176936  55.432  66.138  63.496
27221DT     BB276937  55.503  65.984  63.178
27221DT     BB376938  55.327  65.955  63.072
27221DT     SC176939  55.259  65.753  63.225
27221DT     SC276940  55.270  65.571  63.112
27221DT     SC376941  55.123  65.608  63.398
27222DA     BB176942  55.574  66.166  62.806
27222DA     BB276943  55.435  65.881  62.624
27222DA     BB376944  55.230  65.916  62.575
27222DA     SC176945  55.120  65.788  62.836
27222DA     SC276946  54.993  65.584  62.902
27222DA     SC376947  54.937  65.712  63.117
27222DA     SC476948  55.095  65.885  62.962
27223DT     BB176949  55.167  65.941  62.374
27223DT     BB276950  55.010  65.618  62.340
27223DT     BB376951  54.804  65.639  62.337
27223DT     SC176952  54.798  65.684  62.596
27223DT     SC276953  54.705  65.517  62.695
27223DT     SC376954  54.760  65.809  62.825
27224DG     BB176955  54.910  65.452  61.992
27224DG     BB276956  54.656  65.267  62.170
27224DG     BB376957  54.478  65.350  62.140
27224DG     SC176958  54.499  65.538  62.381
27224DG     SC276959  54.331  65.526  62.628
27224DG     SC376960  54.497  65.772  62.625
27224DG     SC476961  54.567  65.682  62.362
27225DT     BB176962  54.335  65.231  62.048
27225DT     BB276963  54.115  65.152  62.323
27225DT     BB376964  53.948  65.274  62.317
27225DT     SC176965  54.086  65.479  62.406
27225DT     SC276966  54.023  65.526  62.606
27225DT     SC376967  54.201  65.716  62.413
27226DA     BB176968  53.835  64.871  62.360
27226DA     BB276969  53.646  65.071  62.603
27226DA     BB376970  53.502  65.192  62.504
27226DA     SC176971  53.694  65.435  62.472
27226DA     SC276972  53.717  65.666  62.564
27226DA     SC376973  53.861  65.713  62.357
27226DA     SC476974  53.779  65.445  62.336
27227DA     BB176975  53.305  65.044  62.724
27227DA     BB276976  53.215  65.379  62.842
27227DA     BB376977  53.090  65.477  62.700
27227DA     SC176978  53.327  65.608  62.546
27227DA     SC276979  53.421  65.836  62.512
27227DA     SC376980  53.535  65.736  62.305
27227DA     SC476981  53.388  65.528  62.421
27228DT     BB176982  52.874  65.523  62.728
27228DT     BB276983  52.903  65.881  62.761
27228DT     BB376984  52.831  65.974  62.591
27228DT     SC176985  53.045  65.907  62.454
27228DT     SC276986  53.161  66.083  62.412
27228DT     SC376987  53.197  65.794  62.271
27229DT     BB176988  52.543  66.074  62.657
27229DT     BB276989  52.696  66.374  62.528
27229DT     BB376990  52.647  66.398  62.328
27229DT     SC176991  52.813  66.207  62.256
27229DT     SC276992  52.979  66.294  62.150
27229DT     SC376993  52.901  65.979  62.158
27230DA     BB176994  52.446  66.781  62.408
27230DA     BB276995  52.680  66.850  62.135
27230DA     BB376996  52.589  66.808  61.946
27230DA     SC176997  52.685  66.512  61.938
27230DA     SC276998  52.846  66.374  61.808
27230DA     SC376999  52.709  66.173  61.889
27230DA     SC477000  52.586  66.400  61.998
27231DG     BB177001  52.580  67.117  61.798
27231DG     BB277002  52.835  66.977  61.583
27231DG     BB377003  52.754  66.917  61.412
27231DG     SC177004  52.692  66.634  61.511
27231DG     SC277005  52.819  66.383  61.413
27231DG     SC377006  52.592  66.323  61.593
27231DG     SC477007  52.552  66.606  61.584
27232DC     BB177008  52.805  67.005  61.186
27232DC     BB277009  53.029  66.743  61.079
27232DC     BB377010  52.942  66.633  60.927
27232DC     SC177011  52.782  66.512  61.096
27232DC     SC277012  52.838  66.305  61.113
27232DC     SC377013  52.559  66.435  61.215
27233DA     BB177014  53.328  66.756  60.824
27233DA     BB277015  53.305  66.393  60.775
27233DA     BB377016  53.184  66.349  60.604
27233DA     SC177017  52.919  66.333  60.765
27233DA     SC277018  52.756  66.157  60.835
27233DA     SC377019  52.591  66.352  60.868
27233DA     SC477020  52.831  66.467  60.778
27234DA     BB177021  53.461  66.185  60.561
27234DA     BB277022  53.253  65.884  60.565
27234DA     BB377023  53.136  65.872  60.387
27234DA     SC177024  52.894  66.026  60.505
27234DA     SC277025  52.659  65.977  60.574
27234DA     SC377026  52.621  66.230  60.550
27234DA     SC477027  52.890  66.186  60.483
27235DT     BB177028  53.184  65.724  60.287
27235DT     BB277029  52.892  65.526  60.360
27235DT     BB377030  52.756  65.539  60.204
27235DT     SC177031  52.686  65.782  60.275
27235DT     SC277032  52.485  65.779  60.351
27235DT     SC377033  52.651  66.043  60.264
27236DT     BB177034  52.819  65.286  60.147
27236DT     BB277035  52.462  65.285  60.203
27236DT     BB377036  52.363  65.338  60.029
27236DT     SC177037  52.430  65.590  60.059
27236DT     SC277038  52.255  65.705  60.106
27236DT     SC377039  52.541  65.825  60.012
27237DC     BB177040  52.283  65.084  60.014
27237DC     BB277041  51.980  65.279  60.020
27237DC     BB377042  51.933  65.344  59.829
27237DC     SC177043  52.123  65.525  59.836
27237DC     SC277044  52.035  65.721  59.844
27237DC     SC377045  52.345  65.655  59.775
27238DA     BB177046  51.602  65.165  60.011
27238DA     BB277047  51.498  65.488  59.873
27238DA     BB377048  51.493  65.479  59.659
27238DA     SC177049  51.788  65.573  59.625
27238DA     SC277050  51.909  65.774  59.541
27238DA     SC377051  52.111  65.618  59.517
27238DA     SC477052  51.901  65.459  59.616
27239DC     BB177053  51.327  65.505  59.612
27239DC     BB277054  51.370  65.839  59.483
27239DC     BB377055  51.399  65.833  59.278
27239DC     SC177056  51.645  65.746  59.308
27239DC     SC277057  51.783  65.901  59.249
27239DC     SC377058  51.855  65.588  59.295
27240DG     BB177059  51.101  66.083  59.406
27240DG     BB277060  51.333  66.247  59.182
27240DG     BB377061  51.309  66.178  58.997
27240DG     SC177062  51.512  65.951  59.029
27240DG     SC277063  51.774  65.928  58.887
27240DG     SC377064  51.713  65.680  59.036
27240DG     SC477065  51.462  65.810  59.086
27241DA     BB177066  51.303  66.518  58.934
27241DA     BB277067  51.576  66.474  58.694
27241DA     BB377068  51.507  66.367  58.523
27241DA     SC177069  51.578  66.087  58.638
27241DA     SC277070  51.744  65.906  58.593
27241DA     SC377071  51.581  65.754  58.720
27241DA     SC477072  51.463  66.008  58.718
27242DG     BB177073  51.594  66.625  58.369
27242DG     BB277074  51.823  66.397  58.205
27242DG     BB377075  51.728  66.297  58.062
27242DG     SC177076  51.642  66.067  58.246
27242DG     SC277077  51.737  65.785  58.230
27242DG     SC377078  51.514  65.810  58.423
27242DG     SC477079  51.504  66.079  58.326
27243DA     BB177080  51.973  66.394  57.831
27243DA     BB277081  52.055  66.043  57.765
27243DA     BB377082  51.908  65.956  57.636
27243DA     SC177083  51.727  65.857  57.869
27243DA     SC277084  51.660  65.640  57.972
27243DA     SC377085  51.461  65.770  58.067
27243DA     SC477086  51.609  65.955  57.918
27244DA     BB177087  52.168  65.878  57.449
27244DA     BB277088  52.080  65.526  57.503
27244DA     BB377089  51.915  65.472  57.378
27244DA     SC177090  51.700  65.546  57.590
27244DA     SC277091  51.535  65.427  57.735
27244DA     SC377092  51.415  65.653  57.749
27244DA     SC477093  51.639  65.694  57.585
27245DT     BB177094  51.950  65.337  57.236
27245DT     BB277095  51.785  65.061  57.400
27245DT     BB377096  51.602  65.025  57.311
27245DT     SC177097  51.496  65.236  57.424
27245DT     SC277098  51.353  65.174  57.573
27245DT     SC377099  51.383  65.473  57.451
27246DA     BB177100  51.829  64.675  57.356
27246DA     BB277101  51.490  64.613  57.483
27246DA     BB377102  51.350  64.608  57.322
27246DA     SC177103  51.287  64.912  57.337
27246DA     SC277104  51.096  65.058  57.403
27246DA     SC377105  51.211  65.239  57.262
27246DA     SC477106  51.373  65.011  57.244
27247DC     BB177107  51.288  64.450  57.327
27247DC     BB277108  50.957  64.530  57.445
27247DC     BB377109  50.830  64.560  57.284
27247DC     SC177110  50.936  64.795  57.233
27247DC     SC277111  50.794  64.949  57.280
27247DC     SC377112  51.065  64.987  57.106
27248DG     BB177113  50.680  64.278  57.539
27248DG     BB277114  50.431  64.524  57.450
27248DG     BB377115  50.372  64.497  57.262
27248DG     SC177116  50.586  64.680  57.142
27248DG     SC277117  50.537  64.940  57.004
27248DG     SC377118  50.820  64.857  56.976
27248DG     SC477119  50.729  64.618  57.104
27249DC     BB177120  50.160  64.432  57.195
27249DC     BB277121  50.030  64.727  57.033
27249DC     BB377122  50.039  64.705  56.828
27249DC     SC177123  50.299  64.743  56.827
27249DC     SC277124  50.343  64.932  56.735
27249DC     SC377125  50.557  64.696  56.796
27250DT     BB177126  49.755  64.622  56.732
27250DT     BB277127  49.828  64.893  56.506
27250DT     BB377128  49.902  64.818  56.327
27250DT     SC177129  50.134  64.764  56.437
27250DT     SC277130  50.284  64.897  56.357
27250DT     SC377131  50.341  64.626  56.525
27251DT     BB177132  49.671  64.796  56.082
27251DT     BB277133  49.931  64.983  55.917
27251DT     BB377134  50.037  64.860  55.789
27251DT     SC177135  50.161  64.745  55.989
27251DT     SC277136  50.368  64.801  55.987
27251DT     SC377137  50.240  64.558  56.158
27252DA     BB177138  49.922  65.128  55.475
27252DA     BB277139  50.287  65.102  55.457
27252DA     BB377140  50.344  64.931  55.341
27252DA     SC177141  50.354  64.739  55.585
27252DA     SC277142  50.526  64.616  55.717
27252DA     SC377143  50.333  64.467  55.794
27252DA     SC477144  50.220  64.656  55.620
27253DG     BB177145  50.486  65.122  55.134
27253DG     BB277146  50.785  64.971  55.269
27253DG     BB377147  50.832  64.809  55.165
27253DG     SC177148  50.667  64.619  55.339
27253DG     SC277149  50.775  64.404  55.515
27253DG     SC377150  50.480  64.386  55.495
27253DG     SC477151  50.513  64.594  55.302
27254DA     BB177152  51.132  64.969  55.160
27254DA     BB277153  51.280  64.686  55.339
27254DA     BB377154  51.306  64.520  55.208
27254DA     SC177155  51.026  64.397  55.269
27254DA     SC277156  50.935  64.197  55.386
27254DA     SC377157  50.722  64.239  55.249
27254DA     SC477158  50.904  64.439  55.174
27255DT     BB177159  51.476  64.493  55.204
27255DT     BB277160  51.479  64.193  55.403
27255DT     BB377161  51.474  64.026  55.280
27255DT     SC177162  51.220  64.063  55.227
27255DT     SC277163  51.104  63.907  55.319
27255DT     SC377164  50.999  64.111  55.090
27256DC     BB177165  51.713  64.005  55.378
27256DC     BB277166  51.546  63.695  55.458
27256DC     BB377167  51.542  63.572  55.292
27256DC     SC177168  51.354  63.716  55.180
27256DC     SC277169  51.170  63.604  55.176
27256DC     SC377170  51.232  63.874  55.007
27257DA     BB177171  51.686  63.356  55.623
27257DA     BB277172  51.437  63.150  55.452
27257DA     BB377173  51.513  63.082  55.264
27257DA     SC177174  51.404  63.326  55.104
27257DA     SC277175  51.227  63.370  54.934
27257DA     SC377176  51.360  63.583  54.881
27257DA     SC477177  51.501  63.452  55.085
27258DA     BB177178  51.437  62.778  55.375
27258DA     BB277179  51.217  62.742  55.084
27258DA     BB377180  51.332  62.704  54.909
27258DA     SC177181  51.362  63.004  54.834
27258DA     SC277182  51.279  63.160  54.657
27258DA     SC377183  51.478  63.308  54.723
27258DA     SC477184  51.492  63.082  54.888
27259DA     BB177185  51.155  62.422  54.855
27259DA     BB277186  51.043  62.566  54.537
27259DA     BB377187  51.193  62.541  54.387
27259DA     SC177188  51.332  62.813  54.447
27259DA     SC277189  51.361  63.034  54.336
27259DA     SC377190  51.561  63.065  54.494
27259DA     SC477191  51.453  62.812  54.553
27260DC     BB177192  51.187  62.402  54.193
27260DC     BB277193  51.131  62.670  53.958
27260DC     BB377194  51.297  62.693  53.836
27260DC     SC177195  51.433  62.807  54.029
27260DC     SC277196  51.461  63.016  53.983
27260DC     SC377197  51.620  62.848  54.211
27261DT     BB177198  51.181  62.580  53.604
27261DT     BB277199  51.274  62.914  53.502
27261DT     BB377200  51.465  62.912  53.423
27261DT     SC177201  51.573  62.887  53.661
27261DT     SC277202  51.675  63.069  53.712
27261DT     SC377203  51.707  62.784  53.863
27262DT     BB177204  51.367  62.952  53.170
27262DT     BB277205  51.583  63.235  53.232
27262DT     BB377206  51.777  63.189  53.177
27262DT     SC177207  51.810  63.038  53.389
27262DT     SC277208  51.949  63.133  53.524
27262DT     SC377209  51.851  62.824  53.538
27263DG     BB177210  51.652  63.520  52.976
27263DG     BB277211  51.958  63.580  53.160
27263DG     BB377212  52.112  63.500  53.064
27263DG     SC177213  52.090  63.228  53.204
27263DG     SC277214  52.288  63.112  53.395
27263DG     SC377215  52.082  62.913  53.323
27263DG     SC477216  51.995  63.116  53.141
27264DA     BB177217  52.230  63.816  53.119
27264DA     BB277218  52.507  63.670  53.311
27264DA     BB377219  52.645  63.573  53.180
27264DA     SC177220  52.504  63.296  53.197
27264DA     SC277221  52.550  63.071  53.294
27264DA     SC377222  52.374  62.986  53.129
27264DA     SC477223  52.393  63.263  53.086
27265DT     BB177224  52.794  63.659  53.197
27265DT     BB277225  52.966  63.407  53.390
27265DT     BB377226  53.078  63.286  53.264
27265DT     SC177227  52.863  63.163  53.178
27265DT     SC277228  52.862  62.961  53.251
27265DT     SC377229  52.674  63.078  53.014
27266DA     BB177230  53.281  63.425  53.607
27266DA     BB277231  53.333  63.063  53.574
27266DA     BB377232  53.451  63.021  53.402
27266DA     SC177233  53.206  62.991  53.212
27266DA     SC277234  53.090  62.808  53.087
27266DA     SC377235  52.993  62.997  52.942
27266DA     SC477236  53.158  63.122  53.132
27267DA     BB177237  53.571  62.864  53.664
27267DA     BB277238  53.521  62.560  53.466
27267DA     BB377239  53.649  62.560  53.295
27267DA     SC177240  53.443  62.701  53.110
27267DA     SC277241  53.302  62.642  52.913
27267DA     SC377242  53.290  62.895  52.871
27267DA     SC477243  53.449  62.861  53.100
27268DG     BB177244  53.704  62.303  53.456
27268DG     BB277245  53.592  62.152  53.147
27268DG     BB377246  53.729  62.177  53.006
27268DG     SC177247  53.616  62.444  52.908
27268DG     SC277248  53.490  62.493  52.641
27268DG     SC377249  53.530  62.747  52.788
27268DG     SC477250  53.666  62.579  52.976
27269DT     BB177251  53.790  62.006  52.939
27269DT     BB277252  53.655  61.994  52.604
27269DT     BB377253  53.793  62.071  52.470
27269DT     SC177254  53.744  62.317  52.548
27269DT     SC277255  53.643  62.423  52.391
27269DT     SC377256  53.782  62.557  52.651
27270DT     BB177257  53.822  61.822  52.388
27270DT     BB277258  53.747  62.010  52.089
27270DT     BB377259  53.918  62.103  52.019
27270DT     SC177260  53.908  62.283  52.210
27270DT     SC277261  53.859  62.474  52.125
27270DT     SC377262  53.976  62.423  52.423
27271DA     BB177263  53.791  61.890  51.678
27271DA     BB277264  53.877  62.228  51.566
27271DA     BB377265  54.089  62.252  51.559
27271DA     SC177266  54.112  62.356  51.851
27271DA     SC277267  54.165  62.570  51.968
27271DA     SC377268  54.216  62.423  52.172
27271DA     SC477269  54.140  62.247  51.966
27272DA     BB177270  54.075  62.343  51.232
27272DA     BB277271  54.220  62.666  51.325
27272DA     BB377272  54.432  62.649  51.346
27272DA     SC177273  54.421  62.581  51.649
27272DA     SC277274  54.482  62.689  51.865
27272DA     SC377275  54.480  62.451  51.962
27272DA     SC477276  54.416  62.425  51.690
27273DT     BB177277  54.606  62.741  51.207
27273DT     BB277278  54.705  63.002  51.436
27273DT     BB377279  54.895  62.964  51.509
27273DT     SC177280  54.805  62.773  51.666
27273DT     SC277281  54.820  62.837  51.871
27273DT     SC377282  54.769  62.534  51.769
27274DA     BB177283  54.952  63.351  51.351
27274DA     BB277284  55.079  63.357  51.695
27274DA     BB377285  55.273  63.267  51.704
27274DA     SC177286  55.165  62.981  51.761
27274DA     SC277287  55.162  62.819  51.951
27274DA     SC377288  55.117  62.641  51.772
27274DA     SC477289  55.139  62.885  51.635
27275DC     BB177290  55.468  63.377  51.751
27275DC     BB277291  55.494  63.256  52.090
27275DC     BB377292  55.654  63.126  52.107
27275DC     SC177293  55.523  62.936  51.983
27275DC     SC277294  55.476  62.779  52.122
27275DC     SC377295  55.459  62.758  51.799
27276DC     BB177296  55.807  63.309  52.250
27276DC     BB277297  55.777  63.024  52.469
27276DC     BB377298  55.933  62.892  52.435
27276DC     SC177299  55.823  62.810  52.211
27276DC     SC277300  55.755  62.607  52.235
27276DC     SC377301  55.790  62.763  51.953
27277DT     BB177302  56.034  62.964  52.673
27277DT     BB277303  55.974  62.609  52.698
27277DT     BB377304  56.136  62.504  52.624
27277DT     SC177305  56.069  62.561  52.377
27277DT     SC277306  56.002  62.382  52.278
27277DT     SC377307  56.083  62.661  52.133
27278DC     BB177308  56.172  62.437  52.876
27278DC     BB277309  56.125  62.127  52.698
27278DC     BB377310  56.303  62.067  52.612
27278DC     SC177311  56.282  62.250  52.425
27278DC     SC277312  56.244  62.154  52.236
27278DC     SC377313  56.337  62.462  52.277
27279DT     BB177314  56.274  61.883  52.791
27279DT     BB277315  56.286  61.712  52.473
27279DT     BB377316  56.483  61.696  52.409
27279DT     SC177317  56.490  61.950  52.344
27279DT     SC277318  56.499  61.969  52.130
27279DT     SC377319  56.559  62.205  52.343
27280DT     BB177320  56.414  61.455  52.455
27280DT     BB277321  56.516  61.468  52.109
27280DT     BB377322  56.722  61.478  52.097
27280DT     SC177323  56.723  61.729  52.171
27280DT     SC277324  56.781  61.853  52.005
27280DT     SC377325  56.769  61.945  52.316
27281DC     BB177326  56.686  61.239  52.000
27281DC     BB277327  56.874  61.417  51.749
27281DC     BB377328  57.074  61.424  51.802
27281DC     SC177329  57.027  61.606  51.985
27281DC     SC277330  57.113  61.793  51.923
27281DC     SC377331  57.010  61.721  52.222
27282DT     BB177332  57.117  61.250  51.604
27282DT     BB277333  57.344  61.523  51.537
27282DT     BB377334  57.517  61.500  51.648
27282DT     SC177335  57.394  61.574  51.868
27282DT     SC277336  57.468  61.766  51.930
27282DT     SC377337  57.293  61.563  52.112
27283DC     BB177338  57.671  61.419  51.431
27283DC     BB277339  57.859  61.694  51.571
27283DC     BB377340  57.990  61.623  51.715
27283DC     SC177341  57.795  61.588  51.886
27283DC     SC277342  57.813  61.731  52.046
27283DC     SC377343  57.626  61.467  52.049
27284DA     BB177344  58.264  61.824  51.462
27284DA     BB277345  58.337  61.934  51.804
27284DA     BB377346  58.449  61.784  51.908
27284DA     SC177347  58.197  61.640  52.021
27284DA     SC277348  58.087  61.607  52.242
27284DA     SC377349  57.971  61.406  52.132
27284DA     SC477350  58.136  61.518  51.935
27285DA     BB177351  58.695  62.005  51.973
27285DA     BB277352  58.621  61.965  52.330
27285DA     BB377353  58.721  61.793  52.408
27285DA     SC177354  58.485  61.599  52.349
27285DA     SC277355  58.316  61.469  52.479
27285DA     SC377356  58.292  61.327  52.267
27285DA     SC477357  58.486  61.522  52.208
27286DT     BB177358  58.886  61.802  52.557
27286DT     BB277359  58.684  61.701  52.838
27286DT     BB377360  58.739  61.511  52.900
27286DT     SC177361  58.620  61.400  52.695
27286DT     SC277362  58.447  61.291  52.763
27286DT     SC377363  58.586  61.264  52.471
27287DA     BB177364  58.738  61.768  53.229
27287DA     BB277365  58.538  61.473  53.314
27287DA     BB377366  58.664  61.305  53.349
27287DA     SC177367  58.658  61.209  53.053
27287DA     SC277368  58.563  61.018  52.923
27287DA     SC377369  58.738  61.080  52.745
27287DA     SC477370  58.775  61.261  52.956
27288DC     BB177371  58.645  61.253  53.520
27288DC     BB277372  58.450  60.957  53.455
27288DC     BB377373  58.571  60.790  53.456
27288DC     SC177374  58.672  60.851  53.221
27288DC     SC277375  58.603  60.709  53.075
27288DC     SC377376  58.847  60.919  53.036
27289DT     BB177377  58.427  60.750  53.665
27289DT     BB277378  58.378  60.462  53.455
27289DT     BB377379  58.540  60.334  53.470
27289DT     SC177380  58.689  60.493  53.324
27289DT     SC277381  58.727  60.400  53.134
27289DT     SC377382  58.884  60.657  53.255
27290DT     BB177383  58.359  60.190  53.585
27290DT     BB277384  58.494  59.984  53.322
27290DT     BB377385  58.676  59.905  53.380
27290DT     SC177386  58.796  60.136  53.346
27290DT     SC277387  58.928  60.124  53.177
27290DT     SC377388  58.928  60.358  53.401
27291DG     BB177389  58.435  59.590  53.287
27291DG     BB277390  58.758  59.560  53.127
27291DG     BB377391  58.894  59.499  53.259
27291DG     SC177392  58.971  59.782  53.346
27291DG     SC277393  59.235  59.914  53.299
27291DG     SC377394  59.067  60.076  53.480
27291DG     SC477395  58.890  59.851  53.465
27292DT     BB177396  59.007  59.296  53.250
27292DT     BB277397  59.339  59.399  53.153
27292DT     BB377398  59.466  59.389  53.316
27292DT     SC177399  59.362  59.606  53.421
27292DT     SC277400  59.505  59.766  53.412
27292DT     SC377401  59.235  59.763  53.591
27293DT     BB177402  59.598  59.160  53.227
27293DT     BB277403  59.865  59.397  53.278
27293DT     BB377404  59.935  59.383  53.472
27293DT     SC177405  59.724  59.506  53.566
27293DT     SC277406  59.780  59.701  53.638
27293DT     SC377407  59.501  59.550  53.701
27294DA     BB177408  60.278  59.342  53.235
27294DA     BB277409  60.354  59.591  53.493
27294DA     BB377410  60.387  59.496  53.680
27294DA     SC177411  60.090  59.512  53.769
27294DA     SC277412  59.954  59.635  53.939
27294DA     SC377413  59.781  59.448  53.905
27294DA     SC477414  59.995  59.386  53.736
27295DT     BB177415  60.574  59.503  53.763
27295DT     BB277416  60.499  59.740  54.024
27295DT     BB377417  60.487  59.643  54.206
27295DT     SC177418  60.252  59.543  54.145
27295DT     SC277419  60.101  59.635  54.267
27295DT     SC377420  60.065  59.365  54.092
27296DT     BB177421  60.726  59.749  54.286
27296DT     BB277422  60.496  59.847  54.546
27296DT     BB377423  60.485  59.699  54.690
27296DT     SC177424  60.340  59.547  54.533
27296DT     SC277425  60.140  59.535  54.610
27296DT     SC377426  60.268  59.342  54.384
27297DA     BB177427  60.578  60.042  54.915
27297DA     BB277428  60.302  59.874  55.086
27297DA     BB377429  60.373  59.701  55.190
27297DA     SC177430  60.327  59.508  54.951
27297DA     SC277431  60.174  59.320  54.892
27297DA     SC377432  60.352  59.256  54.719
27297DA     SC477433  60.449  59.484  54.850
27298DT     BB177434  60.389  59.669  55.424
27298DT     BB277435  60.113  59.439  55.454
27298DT     BB377436  60.183  59.250  55.503
27298DT     SC177437  60.269  59.211  55.258
27298DT     SC277438  60.148  59.061  55.163
27298DT     SC377439  60.435  59.169  55.057
27299DT     BB177440  60.121  59.229  55.796
27299DT     BB277441  59.958  58.938  55.659
27299DT     BB377442  60.081  58.773  55.678
27299DT     SC177443  60.235  58.856  55.482
27299DT     SC277444  60.210  58.726  55.312
27299DT     SC377445  60.449  58.941  55.354
27300DT     BB177446  59.956  58.625  55.906
27300DT     BB277447  59.951  58.384  55.638
27300DT     BB377448  60.115  58.259  55.652
27300DT     SC177449  60.276  58.447  55.565
27300DT     SC277450  60.346  58.394  55.368
27300DT     SC377451  60.471  58.624  55.560
27301DT     BB177452  59.971  58.031  55.742
27301DT     BB277453  60.126  57.922  55.435
27301DT     BB377454  60.309  57.834  55.475
27301DT     SC177455  60.420  58.068  55.522
27301DT     SC277456  60.560  58.113  55.365
27301DT     SC377457  60.540  58.264  55.651
27302DT     BB177458  60.198  57.601  55.407
27302DT     BB277459  60.473  57.644  55.178
27302DT     BB377460  60.648  57.574  55.264
27302DT     SC177461  60.664  57.784  55.420
27302DT     SC277462  60.830  57.907  55.359
27302DT     SC377463  60.670  57.930  55.640
27303DT     BB177464  60.632  57.378  55.086
27303DT     BB277465  60.951  57.535  55.025
27303DT     BB377466  61.093  57.459  55.155
27303DT     SC177467  60.994  57.597  55.356
27303DT     SC277468  61.132  57.752  55.412
27303DT     SC377469  60.879  57.650  55.587
27304DA     BB177470  61.244  57.438  54.764
27304DA     BB277471  61.502  57.588  54.977
27304DA     BB377472  61.587  57.440  55.106
27304DA     SC177473  61.384  57.489  55.337
27304DA     SC277474  61.386  57.586  55.567
27304DA     SC377475  61.169  57.454  55.602
27304DA     SC477476  61.251  57.399  55.340
27305DA     BB177477  61.870  57.546  54.974
27305DA     BB277478  61.972  57.641  55.313
27305DA     BB377479  62.029  57.468  55.425
27305DA     SC177480  61.744  57.417  55.537
27305DA     SC277481  61.627  57.431  55.757
27305DA     SC377482  61.453  57.274  55.652
27305DA     SC477483  61.647  57.318  55.455
27306DA     BB177484  62.318  57.623  55.478
27306DA     BB277485  62.237  57.618  55.835
27306DA     BB377486  62.281  57.426  55.918
27306DA     SC177487  61.996  57.312  55.865
27306DA     SC277488  61.797  57.244  55.998
27306DA     SC377489  61.729  57.110  55.790
27306DA     SC477490  61.972  57.234  55.727
27307DA     BB177491  62.465  57.597  56.130
27307DA     BB277492  62.237  57.481  56.393
27307DA     BB377493  62.285  57.281  56.449
27307DA     SC177494  62.093  57.150  56.242
27307DA     SC277495  61.879  57.023  56.244
27307DA     SC377496  61.948  56.944  56.010
27307DA     SC477497  62.154  57.112  56.099
27308DT     BB177498  62.346  57.262  56.632
27308DT     BB277499  62.034  57.131  56.758
27308DT     BB377500  62.051  56.928  56.791
27308DT     SC177501  62.040  56.877  56.534
27308DT     SC277502  61.854  56.780  56.488
27308DT     SC377503  62.113  56.796  56.294
27309DC     BB177504  62.010  57.045  57.010
27309DC     BB277505  61.729  56.826  56.954
27309DC     BB377506  61.786  56.629  56.984
27309DC     SC177507  61.916  56.624  56.756
27309DC     SC277508  61.812  56.495  56.618
27309DC     SC377509  62.116  56.605  56.585
27310DT     BB177510  61.589  56.752  57.096
27310DT     BB277511  61.459  56.461  56.927
27310DT     BB377512  61.554  56.290  56.998
27310DT     SC177513  61.773  56.347  56.864
27310DT     SC277514  61.797  56.205  56.704
27310DT     SC377515  62.024  56.409  56.815
27311DT     BB177516  61.297  56.319  57.003
27311DT     BB277517  61.376  56.004  56.847
27311DT     BB377518  61.485  55.885  56.977
27311DT     SC177519  61.701  56.029  56.939
27311DT     SC277520  61.845  55.913  56.830
27311DT     SC377521  61.905  56.189  56.990
27312DA     BB177522  61.167  55.678  56.779
27312DA     BB277523  61.463  55.462  56.798
27312DA     BB377524  61.508  55.418  57.002
27312DA     SC177525  61.699  55.661  57.038
27312DA     SC277526  61.943  55.701  57.068
27312DA     SC377527  61.873  55.930  57.161
27312DA     SC477528  61.635  55.797  57.094
27313DT     BB177529  61.484  55.229  57.073
27313DT     BB277530  61.831  55.145  57.123
27313DT     BB377531  61.879  55.158  57.324
27313DT     SC177532  61.880  55.421  57.314
27313DT     SC277533  62.082  55.492  57.336
27313DT     SC377534  61.813  55.671  57.361
27314DA     BB177535  61.998  54.760  57.248
27314DA     BB277536  62.272  54.918  57.433
27314DA     BB377537  62.223  54.932  57.640
27314DA     SC177538  62.093  55.214  57.616
27314DA     SC277539  62.144  55.448  57.686
27314DA     SC377540  61.894  55.491  57.651
27314DA     SC477541  61.935  55.221  57.589
27315DA     BB177542  62.504  54.764  57.716
27315DA     BB277543  62.618  55.061  57.899
27315DA     BB377544  62.530  55.067  58.093
27315DA     SC177545  62.283  55.233  58.001
27315DA     SC277546  62.194  55.464  58.033
27315DA     SC377547  61.968  55.365  57.962
27315DA     SC477548  62.152  55.152  57.957
27316DA     BB177549  62.840  55.085  58.210
27316DA     BB277550  62.753  55.415  58.346
27316DA     BB377551  62.644  55.394  58.527
27316DA     SC177552  62.366  55.392  58.388
27316DA     SC277553  62.167  55.541  58.371
27316DA     SC377554  62.039  55.330  58.301
27316DA     SC477555  62.304  55.249  58.348
27317DG     BB177556  62.880  55.551  58.657
27317DG     BB277557  62.625  55.801  58.712
27317DG     BB377558  62.523  55.759  58.878
27317DG     SC177559  62.314  55.587  58.736
27317DG     SC277560  62.024  55.653  58.706
27317DG     SC377561  62.079  55.377  58.617
27317DG     SC477562  62.342  55.431  58.717
27318DA     BB177563  62.592  56.086  58.969
27318DA     BB277564  62.233  56.156  58.988
27318DA     BB377565  62.150  56.071  59.165
27318DA     SC177566  62.078  55.800  59.030
27318DA     SC277567  61.872  55.676  58.962
27318DA     SC377568  62.022  55.468  58.963
27318DA     SC477569  62.187  55.682  59.038
27319DT     BB177570  62.080  56.195  59.306
27319DT     BB277571  61.729  56.137  59.248
27319DT     BB377572  61.652  56.015  59.397
27319DT     SC177573  61.769  55.803  59.295
27319DT     SC277574  61.619  55.672  59.213
27319DT     SC377575  61.928  55.594  59.272
27320DA     BB177576  61.400  56.351  59.385
27320DA     BB277577  61.188  56.052  59.381
27320DA     BB377578  61.183  55.962  59.575
27320DA     SC177579  61.426  55.775  59.520
27320DA     SC277580  61.468  55.532  59.487
27320DA     SC377581  61.711  55.586  59.547
27320DA     SC477582  61.572  55.829  59.561
27321DC     BB177583  61.006  55.957  59.696
27321DC     BB277584  60.931  55.607  59.646
27321DC     BB377585  60.971  55.502  59.820
27321DC     SC177586  61.230  55.516  59.778
27321DC     SC277587  61.306  55.321  59.729
27321DC     SC377588  61.484  55.578  59.814
27322DG     BB177589  60.574  55.434  59.750
27322DG     BB277590  60.754  55.123  59.790
27322DG     BB377591  60.783  55.086  59.984
27322DG     SC177592  61.050  55.234  59.997
27322DG     SC277593  61.318  55.110  60.045
27322DG     SC377594  61.336  55.405  60.053
27322DG     SC477595  61.051  55.391  60.030
27323DT     BB177596  60.694  54.904  60.094
27323DT     BB277597  60.987  54.695  60.125
27323DT     BB377598  61.054  54.697  60.321
27323DT     SC177599  61.153  54.938  60.292
27323DT     SC277600  61.368  54.928  60.296
27323DT     SC377601  61.190  55.197  60.327
27324DG     BB177602  60.976  54.305  60.236
27324DG     BB277603  61.313  54.348  60.359
27324DG     BB377604  61.311  54.364  60.557
27324DG     SC177605  61.281  54.669  60.556
27324DG     SC277606  61.485  54.865  60.650
27324DG     SC377607  61.228  55.000  60.592
27324DG     SC477608  61.134  54.732  60.552
27325DA     BB177609  61.547  54.111  60.557
27325DA     BB277610  61.787  54.337  60.719
27325DA     BB377611  61.742  54.357  60.926
27325DA     SC177612  61.556  54.603  60.887
27325DA     SC277613  61.559  54.847  60.938
27325DA     SC377614  61.304  54.835  60.910
27325DA     SC477615  61.399  54.575  60.867
27326DA     BB177616  62.056  54.269  60.939
27326DA     BB277617  62.116  54.594  61.098
27326DA     BB377618  62.047  54.592  61.300
27326DA     SC177619  61.761  54.694  61.228
27326DA     SC277620  61.626  54.901  61.260
27326DA     SC377621  61.423  54.750  61.217
27326DA     SC477622  61.648  54.583  61.200
27327DT     BB177623  62.185  54.612  61.430
27327DT     BB277624  62.112  54.954  61.517
27327DT     BB377625  62.009  54.961  61.696
27327DT     SC177626  61.788  54.877  61.582
27327DT     SC277627  61.644  55.037  61.579
27327DT     SC377628  61.581  54.724  61.525
27328DG     BB177629  62.346  55.189  61.703
27328DG     BB277630  62.052  55.377  61.799
27328DG     BB377631  61.996  55.325  61.983
27328DG     SC177632  61.812  55.099  61.891
27328DG     SC277633  61.515  55.092  61.917
27328DG     SC377634  61.618  54.830  61.826
27328DG     SC477635  61.874  54.952  61.872
27329DT     BB177636  61.997  55.480  62.103
27329DT     BB277637  61.644  55.543  62.150
27329DT     BB377638  61.578  55.451  62.323
27329DT     SC177639  61.585  55.215  62.209
27329DT     SC277640  61.384  55.143  62.182
27329DT     SC377641  61.653  54.965  62.159
27330DT     BB177642  61.557  55.699  62.392
27330DT     BB277643  61.228  55.556  62.435
27330DT     BB377644  61.222  55.445  62.610
27330DT     SC177645  61.361  55.251  62.502
27330DT     SC277646  61.234  55.079  62.476
27330DT     SC377647  61.558  55.081  62.459
27331DA     BB177648  60.894  55.709  62.585
27331DA     BB277649  60.771  55.379  62.687
27331DA     BB377650  60.836  55.333  62.885
27331DA     SC177651  61.098  55.194  62.793
27331DA     SC277652  61.193  54.963  62.787
27331DA     SC377653  61.421  55.078  62.768
27331DA     SC477654  61.231  55.284  62.783
27332DT     BB177655  60.697  55.321  63.018
27332DT     BB277656  60.707  54.963  63.066
27332DT     BB377657  60.812  54.918  63.239
27332DT     SC177658  61.041  54.972  63.123
27332DT     SC277659  61.152  54.789  63.096
27332DT     SC377660  61.271  55.089  63.070
27333DT     BB177661  60.582  54.851  63.367
27333DT     BB277662  60.791  54.559  63.402
27333DT     BB377663  60.913  54.579  63.568
27333DT     SC177664  61.067  54.752  63.444
27333DT     SC277665  61.258  54.662  63.406
27333DT     SC377666  61.190  54.978  63.386
27334DC     BB177667  60.768  54.396  63.718
27334DC     BB277668  61.106  54.269  63.727
27334DC     BB377669  61.208  54.352  63.887
27334DC     SC177670  61.232  54.582  63.763
27334DC     SC277671  61.438  54.613  63.710
27334DC     SC377672  61.205  54.838  63.709
27335DC     BB177673  61.202  54.118  64.039
27335DC     BB277674  61.553  54.198  64.017
27335DC     BB377675  61.608  54.322  64.174
27335DC     SC177676  61.490  54.528  64.062
27335DC     SC277677  61.639  54.668  63.996
27335DC     SC377678  61.322  54.728  64.025
27336DA     BB177679  61.879  54.002  64.194
27336DA     BB277680  62.074  54.313  64.206
27336DA     BB377681  62.057  54.404  64.398
27336DA     SC177682  61.809  54.576  64.321
27336DA     SC277683  61.756  54.816  64.283
27336DA     SC377684  61.512  54.748  64.323
27336DA     SC477685  61.664  54.514  64.351
27337DC     BB177686  62.223  54.419  64.528
27337DC     BB277687  62.281  54.772  64.478
27337DC     BB377688  62.224  54.877  64.647
27337DC     SC177689  61.970  54.847  64.588
27337DC     SC277690  61.887  55.037  64.531
27337DC     SC377691  61.718  54.771  64.608
27338DA     BB177692  62.617  54.995  64.562
27338DA     BB277693  62.416  55.298  64.603
27338DA     BB377694  62.372  55.330  64.810
27338DA     SC177695  62.105  55.169  64.802
27338DA     SC277696  61.861  55.216  64.817
27338DA     SC377697  61.838  54.968  64.878
27338DA     SC477698  62.112  55.013  64.839
27339DT     BB177699  62.451  55.492  64.900
27339DT     BB277700  62.146  55.686  64.909
27339DT     BB377701  62.070  55.688  65.102
27339DT     SC177702  61.986  55.441  65.080
27339DT     SC277703  61.771  55.439  65.074
27339DT     SC377704  61.962  55.182  65.125
27340DT     BB177705  62.141  55.946  65.113
27340DT     BB277706  61.785  55.943  65.172
27340DT     BB377707  61.747  55.906  65.372
27340DT     SC177708  61.807  55.652  65.346
27340DT     SC277709  61.629  55.534  65.366
27340DT     SC377710  61.933  55.423  65.377
27341DG     BB177711  61.572  56.260  65.273
27341DG     BB277712  61.336  56.034  65.428
27341DG     BB377713  61.362  56.033  65.625
27341DG     SC177714  61.566  55.805  65.621
27341DG     SC277715  61.526  55.531  65.733
27341DG     SC377716  61.807  55.571  65.651
27341DG     SC477717  61.721  55.840  65.603
27342DA     BB177718  61.023  56.089  65.627
27342DA     BB277719  60.976  55.781  65.819
27342DA     BB377720  61.038  55.809  66.021
27342DA     SC177721  61.331  55.717  65.968
27342DA     SC277722  61.477  55.523  66.026
27342DA     SC377723  61.672  55.680  65.972
27342DA     SC477724  61.439  55.830  65.931
27343DG     BB177725  60.744  55.731  66.063
27343DG     BB277726  60.893  55.446  66.228
27343DG     BB377727  60.953  55.497  66.411
27343DG     SC177728  61.233  55.583  66.323
27343DG     SC277729  61.489  55.449  66.396
27343DG     SC377730  61.540  55.706  66.259
27343DG     SC477731  61.256  55.735  66.277
27344DG     BB177732  60.760  55.254  66.506
27344DG     BB277733  61.060  55.103  66.640
27344DG     BB377734  61.107  55.186  66.814
27344DG     SC177735  61.281  55.406  66.691
27344DG     SC277736  61.576  55.434  66.723
27344DG     SC377737  61.462  55.671  66.589
27344DG     SC477738  61.212  55.543  66.647
27345DT     BB177739  61.109  55.059  66.976
27345DT     BB277740  61.462  55.028  67.045
27345DT     BB377741  61.515  55.155  67.200
27345DT     SC177742  61.501  55.365  67.043
27345DT     SC277743  61.699  55.442  67.009
27345DT     SC377744  61.421  55.596  66.944
27346DT     BB177745  61.544  54.935  67.345
27346DT     BB277746  61.862  55.105  67.370
27346DT     BB377747  61.853  55.250  67.517
27346DT     SC177748  61.710  55.408  67.364
27346DT     SC277749  61.828  55.578  67.306
27346DT     SC377750  61.506  55.551  67.276
27347DG     BB177751  62.159  54.999  67.617
27347DG     BB277752  62.264  55.345  67.627
27347DG     BB377753  62.197  55.432  67.793
27347DG     SC177754  61.933  55.523  67.667
27347DG     SC277755  61.852  55.806  67.617
27347DG     SC377756  61.626  55.621  67.568
27347DG     SC477757  61.807  55.425  67.671
27348DT     BB177758  62.331  55.514  67.965
27348DT     BB277759  62.298  55.870  67.923
27348DT     BB377760  62.174  55.948  68.069
27348DT     SC177761  61.961  55.852  67.950
27348DT     SC277762  61.845  56.014  67.869
27348DT     SC377763  61.744  55.708  67.908
27349DA     BB177764  62.518  56.186  68.130
27349DA     BB277765  62.232  56.415  68.121
27349DA     BB377766  62.126  56.409  68.306
27349DA     SC177767  61.933  56.183  68.215
27349DA     SC277768  61.691  56.158  68.159
27349DA     SC377769  61.727  55.908  68.202
27349DA     SC477770  61.975  56.031  68.247
27350DT     BB177771  62.106  56.579  68.484
27350DT     BB277772  61.767  56.675  68.406
27350DT     BB377773  61.641  56.620  68.560
27350DT     SC177774  61.651  56.368  68.489
27350DT     SC277775  61.461  56.308  68.409
27350DT     SC377776  61.700  56.109  68.499
27351DT     BB177777  61.592  56.880  68.692
27351DT     BB277778  61.260  56.766  68.610
27351DT     BB377779  61.176  56.670  68.773
27351DT     SC177780  61.326  56.458  68.735
27351DT     SC277781  61.203  56.294  68.669
27351DT     SC377782  61.507  56.271  68.778
27352DA     BB177783  60.895  56.962  68.668
27352DA     BB277784  60.719  56.641  68.686
27352DA     BB377785  60.685  56.586  68.890
27352DA     SC177786  60.952  56.428  68.916
27352DA     SC277787  61.024  56.190  68.941
27352DA     SC377788  61.244  56.287  69.030
27352DA     SC477789  61.081  56.507  68.971
27353DA     BB177790  60.383  56.566  68.773
27353DA     BB277791  60.397  56.209  68.856
27353DA     BB377792  60.374  56.181  69.066
27353DA     SC177793  60.679  56.195  69.125
27353DA     SC277794  60.861  56.039  69.198
27353DA     SC377795  60.987  56.252  69.266
27353DA     SC477796  60.742  56.338  69.163
27354DA     BB177797  60.151  55.984  68.935
27354DA     BB277798  60.332  55.711  69.099
27354DA     BB377799  60.300  55.716  69.309
27354DA     SC177800  60.547  55.897  69.366
27354DA     SC277801  60.771  55.876  69.474
27354DA     SC377802  60.764  56.132  69.493
27354DA     SC477803  60.523  56.056  69.370
27355DT     BB177804  60.207  55.566  69.372
27355DT     BB277805  60.486  55.404  69.534
27355DT     BB377806  60.480  55.440  69.738
27355DT     SC177807  60.562  55.687  69.705
27355DT     SC277808  60.762  55.706  69.783
27355DT     SC377809  60.562  55.950  69.708
27356DT     BB177810  60.413  55.183  69.766
27356DT     BB277811  60.709  55.225  69.968
27356DT     BB377812  60.658  55.298  70.155
27356DT     SC177813  60.615  55.538  70.057
27356DT     SC277814  60.767  55.672  70.127
27356DT     SC377815  60.488  55.758  69.987
27357DT     BB177816  60.709  55.056  70.269
27357DT     BB277817  60.918  55.287  70.451
27357DT     BB377818  60.812  55.369  70.608
27357DT     SC177819  60.675  55.523  70.446
27357DT     SC277820  60.734  55.728  70.476
27357DT     SC377821  60.471  55.628  70.316
27358DT     BB177822  60.951  55.221  70.793
27358DT     BB277823  61.001  55.563  70.897
27358DT     BB377824  60.848  55.621  71.024
27358DT     SC177825  60.679  55.640  70.824
27358DT     SC277826  60.631  55.847  70.791
27358DT     SC377827  60.470  55.594  70.670
27359DA     BB177828  61.205  55.709  71.225
27359DA     BB277829  60.994  56.008  71.236
27359DA     BB377830  60.835  55.982  71.376
27359DA     SC177831  60.637  55.865  71.167
27359DA     SC277832  60.426  55.935  71.053
27359DA     SC377833  60.392  55.685  71.008
27359DA     SC477834  60.633  55.705  71.151
27360DC     BB177835  60.839  56.100  71.533
27360DC     BB277836  60.572  56.318  71.427
27360DC     BB377837  60.399  56.273  71.532
27360DC     SC177838  60.360  56.055  71.392
27360DC     SC277839  60.189  56.081  71.265
27360DC     SC377840  60.334  55.799  71.333
27361DA     BB177841  60.473  56.684  71.552
27361DA     BB277842  60.123  56.636  71.454
27361DA     BB377843  60.008  56.567  71.621
27361DA     SC177844  60.054  56.266  71.558
27361DA     SC277845  59.920  56.071  71.478
27361DA     SC377846  60.106  55.927  71.580
27361DA     SC477847  60.179  56.194  71.629
27362DT     BB177848  59.876  56.690  71.677
27362DT     BB277849  59.589  56.512  71.551
27362DT     BB377850  59.495  56.411  71.705
27362DT     SC177851  59.684  56.229  71.713
27362DT     SC277852  59.605  56.042  71.641
27362DT     SC377853  59.883  56.082  71.802
27363DA     BB177854  59.213  56.634  71.490
27363DA     BB277855  59.080  56.295  71.536
27363DA     BB377856  59.024  56.265  71.740
27363DA     SC177857  59.302  56.154  71.825
27363DA     SC277858  59.401  55.936  71.895
27363DA     SC377859  59.590  56.077  71.996
27363DA     SC477860  59.409  56.259  71.882
27364DA     BB177861  58.745  56.177  71.591
27364DA     BB277862  58.784  55.849  71.750
27364DA     BB377863  58.740  55.862  71.959
27364DA     SC177864  59.032  55.925  72.043
27364DA     SC277865  59.218  55.811  72.164
27364DA     SC377866  59.314  56.047  72.198
27364DA     SC477867  59.075  56.079  72.054
27365DA     BB177868  58.535  55.615  71.883
27365DA     BB277869  58.719  55.411  72.126
27365DA     BB377870  58.666  55.467  72.325
27365DA     SC177871  58.892  55.679  72.351
27365DA     SC277872  59.105  55.708  72.477
27365DA     SC377873  59.077  55.958  72.427
27365DA     SC477874  58.856  55.831  72.311
27366DC     BB177875  58.559  55.336  72.450
27366DC     BB277876  58.832  55.250  72.670
27366DC     BB377877  58.808  55.343  72.853
27366DC     SC177878  58.879  55.575  72.753
27366DC     SC277879  59.071  55.631  72.833
27366DC     SC377880  58.865  55.827  72.677
27367DA     BB177881  58.854  54.938  72.955
27367DA     BB277882  59.079  55.130  73.171
27367DA     BB377883  58.969  55.227  73.325
27367DA     SC177884  58.922  55.488  73.162
27367DA     SC277885  58.999  55.725  73.167
27367DA     SC377886  58.791  55.774  73.025
27367DA     SC477887  58.788  55.498  73.075
27368DT     BB177888  58.983  55.175  73.540
27368DT     BB277889  59.174  55.464  73.642
27368DT     BB377890  59.056  55.590  73.755
27368DT     SC177891  58.927  55.673  73.543
27368DT     SC277892  58.979  55.878  73.502
27368DT     SC377893  58.729  55.717  73.374
27369DT     BB177894  59.176  55.526  74.003
27369DT     BB277895  59.214  55.884  73.980
27369DT     BB377896  59.052  55.978  74.069
27369DT     SC177897  58.896  55.919  73.866
27369DT     SC277898  58.847  56.098  73.759
27369DT     SC377899  58.698  55.812  73.728
27370DA     BB177900  59.388  56.147  74.253
27370DA     BB277901  59.174  56.423  74.142
27370DA     BB377902  59.006  56.443  74.272
27370DA     SC177903  58.824  56.251  74.107
27370DA     SC277904  58.622  56.267  73.962
27370DA     SC377905  58.594  56.016  74.009
27370DA     SC477906  58.823  56.096  74.149
27371DG     BB177907  59.111  56.732  74.335
27371DG     BB277908  58.804  56.833  74.173
27371DG     BB377909  58.655  56.835  74.304
27371DG     SC177910  58.575  56.544  74.256
27371DG     SC277911  58.320  56.450  74.133
27371DG     SC377912  58.474  56.222  74.243
27371DG     SC477913  58.646  56.429  74.342
27372DA     BB177914  58.590  57.160  74.202
27372DA     BB277915  58.254  57.061  74.095
27372DA     BB377916  58.123  57.045  74.263
27372DA     SC177917  58.184  56.743  74.312
27372DA     SC277918  58.064  56.526  74.290
27372DA     SC377919  58.242  56.436  74.452
27372DA     SC477920  58.302  56.707  74.414
27373DA     BB177921  57.948  57.249  74.078
27373DA     BB277922  57.688  56.990  74.074
27373DA     BB377923  57.585  56.986  74.260
27373DA     SC177924  57.775  56.776  74.388
27373DA     SC277925  57.765  56.537  74.460
27373DA     SC377926  57.970  56.593  74.605
27373DA     SC477927  57.901  56.830  74.472
27374DA     BB177928  57.336  57.015  74.053
27374DA     BB277929  57.217  56.693  74.182
27374DA     BB377930  57.132  56.719  74.376
27374DA     SC177931  57.399  56.666  74.527
27374DA     SC277932  57.497  56.489  74.672
27374DA     SC377933  57.661  56.672  74.749
27374DA     SC477934  57.490  56.794  74.563
27375DT     BB177935  56.945  56.682  74.384
27375DT     BB277936  56.969  56.366  74.556
27375DT     BB377937  56.922  56.391  74.756
27375DT     SC177938  57.154  56.505  74.804
27375DT     SC277939  57.275  56.374  74.925
27375DT     SC377940  57.330  56.689  74.871
27376DA     BB177941  56.708  56.071  74.593
27376DA     BB277942  56.856  55.960  74.909
27376DA     BB377943  56.757  56.053  75.074
27376DA     SC177944  56.950  56.297  75.083
27376DA     SC277945  57.128  56.386  75.233
27376DA     SC377946  57.086  56.610  75.116
27376DA     SC477947  56.908  56.428  74.999
27377DA     BB177948  56.751  55.734  75.147
27377DA     BB277949  56.932  55.825  75.453
27377DA     BB377950  56.803  55.931  75.586
27377DA     SC177951  56.877  56.211  75.474
27377DA     SC277952  57.002  56.413  75.550
27377DA     SC377953  56.872  56.538  75.367
27377DA     SC477954  56.785  56.271  75.356
27378DA     BB177955  56.919  55.695  75.783
27378DA     BB277956  57.042  55.963  76.001
27378DA     BB377957  56.879  56.058  76.100
27378DA     SC177958  56.837  56.273  75.879
27378DA     SC277959  56.869  56.519  75.852
27378DA     SC377960  56.703  56.498  75.657
27378DA     SC477961  56.731  56.240  75.762
27379DA     BB177962  57.053  55.990  76.374
27379DA     BB277963  57.054  56.349  76.446
27379DA     BB377964  56.863  56.411  76.518
27379DA     SC177965  56.752  56.480  76.236
27379DA     SC277966  56.688  56.684  76.108
27379DA     SC377967  56.552  56.525  75.961
27379DA     SC477968  56.672  56.365  76.157
27380DG     BB177969  56.989  56.501  76.799
27380DG     BB277970  56.874  56.830  76.704
27380DG     BB377971  56.684  56.854  76.759
27380DG     SC177972  56.568  56.746  76.498
27380DG     SC277973  56.415  56.904  76.295
27380DG     SC377974  56.407  56.615  76.232
27380DG     SC477975  56.541  56.589  76.484
27381DC     BB177976  56.573  57.011  76.938
27381DC     BB277977  56.418  57.256  76.723
27381DC     BB377978  56.212  57.237  76.731
27381DC     SC177979  56.218  57.020  76.583
27381DC     SC277980  56.133  57.062  76.390
27381DC     SC377981  56.191  56.767  76.512
27382DC     BB177982  56.139  57.467  76.902
27382DC     BB277983  55.942  57.522  76.606
27382DC     BB377984  55.752  57.443  76.632
27382DC     SC177985  55.840  57.198  76.603
27382DC     SC277986  55.768  57.117  76.417
27382DC     SC377987  55.900  56.947  76.659
27383DA     BB177988  55.659  57.842  76.531
27383DA     BB277989  55.459  57.627  76.311
27383DA     BB377990  55.288  57.553  76.414
27383DA     SC177991  55.431  57.296  76.515
27383DA     SC277992  55.421  57.050  76.472
27383DA     SC377993  55.537  57.026  76.700
27383DA     SC477994  55.502  57.301  76.659
27384DC     BB177995  55.080  57.610  76.364
27384DC     BB277996  54.999  57.301  76.195
27384DC     BB377997  54.862  57.194  76.307
27384DC     SC177998  55.047  57.123  76.479
27384DC     SC277999  55.086  56.913  76.460
27384DC     SC378000  55.179  57.101  76.707
27385DT     BB178001  54.665  57.249  76.126
27385DT     BB278002  54.683  56.889  76.134
27385DT     BB378003  54.559  56.815  76.282
27385DT     SC178004  54.726  56.890  76.470
27385DT     SC278005  54.815  56.715  76.560
27385DT     SC378006  54.823  57.016  76.680
27386DC     BB178007  54.402  56.724  76.085
27386DC     BB278008  54.494  56.431  76.276
27386DC     BB378009  54.365  56.408  76.436
27386DC     SC178010  54.479  56.605  76.566
27386DC     SC278011  54.586  56.526  76.736
27386DC     SC378012  54.511  56.838  76.687
27387DT     BB178013  54.272  56.198  76.303
27387DT     BB278014  54.382  56.068  76.621
27387DT     BB378015  54.234  56.093  76.763
27387DT     SC178016  54.283  56.350  76.781
27387DT     SC278017  54.371  56.393  76.972
27387DT     SC378018  54.248  56.611  76.767
27388DG     BB178019  54.346  55.703  76.738
27388DG     BB278020  54.355  55.824  77.079
27388DG     BB378021  54.170  55.838  77.151
27388DG     SC178022  54.129  56.126  77.057
27388DG     SC278023  54.099  56.365  77.233
27388DG     SC378024  54.043  56.435  76.951
27388DG     SC478025  54.071  56.153  76.910
27389DA     BB178026  54.304  55.658  77.412
27389DA     BB278027  54.204  55.923  77.644
27389DA     BB378028  53.993  55.921  77.673
27389DA     SC178029  53.934  56.119  77.440
27389DA     SC278030  53.855  56.354  77.413
27389DA     SC378031  53.796  56.284  77.173
27389DA     SC478032  53.904  56.056  77.295
27390DA     BB178033  54.097  55.912  77.984
27390DA     BB278034  53.909  56.223  78.035
27390DA     BB378035  53.699  56.183  78.037
27390DA     SC178036  53.663  56.225  77.731
27390DA     SC278037  53.556  56.391  77.579
27390DA     SC378038  53.563  56.204  77.403
27390DA     SC478039  53.675  56.096  77.636
27391DA     BB178040  53.720  56.345  78.324
27391DA     BB278041  53.483  56.586  78.184
27391DA     BB378042  53.286  56.503  78.180
27391DA     SC178043  53.317  56.386  77.893
27391DA     SC278044  53.225  56.429  77.665
27391DA     SC378045  53.299  56.190  77.612
27391DA     SC478046  53.369  56.234  77.880
27392DA     BB178047  53.203  56.775  78.350
27392DA     BB278048  52.977  56.859  78.073
27392DA     BB378049  52.802  56.738  78.081
27392DA     SC178050  52.919  56.513  77.902
27392DA     SC278051  52.883  56.422  77.672
27392DA     SC378052  53.000  56.211  77.759
27392DA     SC478053  52.993  56.390  77.975
27393DA     BB178054  52.625  57.022  78.083
27393DA     BB278055  52.475  56.914  77.767
27393DA     BB378056  52.320  56.771  77.803
27393DA     SC178057  52.509  56.525  77.783
27393DA     SC278058  52.548  56.334  77.628
27393DA     SC378059  52.663  56.221  77.827
27393DA     SC478060  52.575  56.471  77.920
27394DT     BB178061  52.106  56.809  77.766
27394DT     BB278062  52.083  56.611  77.466
27394DT     BB378063  51.972  56.440  77.502
27394DT     SC178064  52.171  56.330  77.634
27394DT     SC278065  52.251  56.166  77.520
27394DT     SC378066  52.310  56.226  77.833
27395DA     BB178067  51.792  56.620  77.170
27395DA     BB278068  51.858  56.269  77.084
27395DA     BB378069  51.717  56.142  77.181
27395DA     SC178070  51.891  56.100  77.435
27395DA     SC278071  52.022  55.916  77.542
27395DA     SC378072  52.003  56.055  77.757
27395DA     SC478073  51.868  56.201  77.559
27396DA     BB178074  51.682  56.046  76.872
27396DA     BB278075  51.802  55.718  76.983
27396DA     BB378076  51.648  55.615  77.089
27396DA     SC178077  51.731  55.726  77.367
27396DA     SC278078  51.833  55.639  77.577
27396DA     SC378079  51.733  55.847  77.688
27396DA     SC478080  51.660  55.861  77.418
27397DT     BB178081  51.604  55.465  76.998
27397DT     BB278082  51.769  55.232  77.219
27397DT     BB378083  51.632  55.150  77.349
27397DT     SC178084  51.620  55.371  77.490
27397DT     SC278085  51.712  55.339  77.682
27397DT     SC378086  51.523  55.590  77.601
27398DA     BB178087  51.889  54.872  77.164
27398DA     BB278088  51.881  54.806  77.525
27398DA     BB378089  51.689  54.734  77.583
27398DA     SC178090  51.575  55.017  77.645
27398DA     SC278091  51.505  55.148  77.845
27398DA     SC378092  51.372  55.292  77.679
27398DA     SC478093  51.497  55.093  77.526
27399DT     BB178094  51.723  54.580  77.641
27399DT     BB278095  51.663  54.646  77.991
27399DT     BB378096  51.465  54.607  78.037
27399DT     SC178097  51.386  54.827  77.918
27399DT     SC278098  51.316  54.967  78.066
27399DT     SC378099  51.265  54.986  77.746
27400DA     BB178100  51.729  54.427  78.314
27400DA     BB278101  51.457  54.591  78.499
27400DA     BB378102  51.272  54.489  78.464
27400DA     SC178103  51.194  54.664  78.219
27400DA     SC278104  51.025  54.838  78.162
27400DA     SC378105  51.074  54.777  77.918
27400DA     SC478106  51.238  54.611  78.073
27401DA     BB178107  51.263  54.480  78.795
27401DA     BB278108  50.944  54.658  78.775
27401DA     BB378109  50.789  54.526  78.709
27401DA     SC178110  50.830  54.591  78.407
27401DA     SC278111  50.707  54.709  78.226
27401DA     SC378112  50.855  54.574  78.065
27401DA     SC478113  50.931  54.497  78.324
27402DA     BB178114  50.621  54.613  78.985
27402DA     BB278115  50.353  54.736  78.767
27402DA     BB378116  50.237  54.573  78.693
27402DA     SC178117  50.410  54.534  78.437
27402DA     SC278118  50.386  54.568  78.192
27402DA     SC378119  50.582  54.404  78.170
27402DA     SC478120  50.531  54.429  78.445
27403DA     BB178121  49.963  54.720  78.819
27403DA     BB278122  49.829  54.738  78.478
27403DA     BB378123  49.747  54.550  78.421
27403DA     SC178124  50.012  54.443  78.298
27403DA     SC278125  50.102  54.390  78.072
27403DA     SC378126  50.275  54.246  78.197
27403DA     SC478127  50.109  54.358  78.394
27404DT     BB178128  49.530  54.512  78.388
27404DT     BB278129  49.545  54.495  78.028
27404DT     BB378130  49.515  54.300  77.965
27404DT     SC178131  49.757  54.231  78.040
27404DT     SC278132  49.877  54.190  77.866
27404DT     SC378133  49.950  54.108  78.171
27405DA     BB178134  49.226  54.516  77.748
27405DA     BB278135  49.406  54.305  77.508
27405DA     BB378136  49.341  54.102  77.524
27405DA     SC178137  49.555  54.024  77.735
27405DA     SC278138  49.760  53.882  77.746
27405DA     SC378139  49.724  53.886  78.000
27405DA     SC478140  49.515  54.037  77.890
27406DC     BB178141  49.228  53.998  77.366
27406DC     BB278142  49.501  53.793  77.249
27406DC     BB378143  49.469  53.596  77.303
27406DC     SC178144  49.531  53.645  77.553
27406DC     SC278145  49.719  53.551  77.600
27406DC     SC378146  49.507  53.670  77.814
27407DA     BB178147  49.533  53.578  76.888
27407DA     BB278148  49.753  53.329  77.043
27407DA     BB378149  49.641  53.157  77.101
27407DA     SC178150  49.580  53.264  77.387
27407DA     SC278151  49.646  53.210  77.622
27407DA     SC378152  49.434  53.339  77.689
27407DA     SC478153  49.443  53.346  77.408
27408DT     BB178154  49.666  52.963  77.007
27408DT     BB278155  49.851  52.813  77.278
27408DT     BB378156  49.733  52.672  77.375
27408DT     SC178157  49.592  52.860  77.492
27408DT     SC278158  49.635  52.860  77.703
27408DT     SC378159  49.385  53.009  77.560
27409DC     BB178160  49.875  52.458  77.269
27409DC     BB278161  49.903  52.417  77.627
27409DC     BB378162  49.746  52.302  77.697
27409DC     SC178163  49.578  52.502  77.670
27409DC     SC278164  49.518  52.572  77.865
27409DC     SC378165  49.373  52.645  77.584
27410DC     BB178166  49.917  52.096  77.742
27410DC     BB278167  49.773  52.169  78.064
27410DC     BB378168  49.596  52.064  78.089
27410DC     SC178169  49.469  52.225  77.926
27410DC     SC278170  49.328  52.343  78.038
27410DC     SC378171  49.334  52.310  77.715
27411DA     BB178172  49.849  52.014  78.419
27411DA     BB278173  49.517  52.109  78.541
27411DA     BB378174  49.379  51.948  78.515
27411DA     SC178175  49.288  52.039  78.232
27411DA     SC278176  49.084  52.134  78.125
27411DA     SC378177  49.184  52.049  77.905
27411DA     SC478178  49.366  51.977  78.105
27412DA     BB178179  49.350  52.036  78.828
27412DA     BB278180  48.998  52.104  78.749
27412DA     BB378181  48.893  51.921  78.716
27412DA     SC178182  48.949  51.917  78.409
27412DA     SC278183  48.819  51.946  78.198
27412DA     SC378184  49.015  51.823  78.086
27412DA     SC478185  49.079  51.838  78.358
27413DT     BB178186  48.759  51.885  78.845
27413DT     BB278187  48.473  51.950  78.634
27413DT     BB378188  48.393  51.771  78.566
27413DT     SC178189  48.590  51.739  78.396
27413DT     SC278190  48.516  51.764  78.195
27413DT     SC378191  48.802  51.635  78.277
27414DG     BB178192  48.089  51.956  78.767
27414DG     BB278193  47.984  51.854  78.436
27414DG     BB378194  47.943  51.659  78.435
27414DG     SC178195  48.229  51.575  78.363
27414DG     SC278196  48.314  51.447  78.107
27414DG     SC378197  48.535  51.446  78.304
27414DG     SC478198  48.334  51.549  78.480
27415DA     BB178199  47.626  51.722  78.300
27415DA     BB278200  47.708  51.523  78.004
27415DA     BB378201  47.688  51.314  78.047
27415DA     SC178202  47.984  51.281  78.137
27415DA     SC278203  48.191  51.170  78.053
27415DA     SC378204  48.273  51.185  78.296
27415DA     SC478205  48.017  51.298  78.294
27416DT     BB178206  47.536  51.190  77.956
27416DT     BB278207  47.757  51.023  77.726
27416DT     BB378208  47.784  50.826  77.784
27416DT     SC178209  47.942  50.897  77.981
27416DT     SC278210  48.144  50.835  77.937
27416DT     SC378211  48.033  50.932  78.226
27417DC     BB178212  47.634  50.742  77.573
27417DC     BB278213  47.955  50.585  77.526
27417DC     BB378214  47.961  50.404  77.627
27417DC     SC178215  47.985  50.526  77.859
27417DC     SC278216  48.182  50.492  77.937
27417DC     SC378217  47.929  50.607  78.103
27418DA     BB178218  48.094  50.382  77.231
27418DA     BB278219  48.345  50.227  77.449
27418DA     BB378220  48.270  50.044  77.529
27418DA     SC178221  48.149  50.177  77.783
27418DA     SC278222  48.194  50.182  78.029
27418DA     SC378223  47.951  50.260  78.051
27418DA     SC478224  47.995  50.223  77.777
27419DT     BB178225  48.382  49.949  77.467
27419DT     BB278226  48.555  49.874  77.775
27419DT     BB378227  48.467  49.711  77.868
27419DT     SC178228  48.262  49.856  77.945
27419DT     SC278229  48.269  49.881  78.158
27419DT     SC378230  48.014  49.943  77.968
27420DA     BB178231  48.894  49.731  77.852
27420DA     BB278232  48.787  49.627  78.187
27420DA     BB378233  48.685  49.439  78.177
27420DA     SC178234  48.404  49.566  78.139
27420DA     SC278235  48.193  49.591  78.271
27420DA     SC378236  48.081  49.634  78.044
27420DA     SC478237  48.352  49.589  77.989
27421DA     BB178238  48.912  49.405  78.415
27421DA     BB278239  48.633  49.303  78.629
27421DA     BB378240  48.552  49.118  78.562
27421DA     SC178241  48.343  49.250  78.373
27421DA     SC278242  48.095  49.278  78.363
27421DA     SC378243  48.131  49.323  78.113
27421DA     SC478244  48.386  49.274  78.220
27422DA     BB178245  48.604  49.026  78.877
27422DA     BB278246  48.247  48.945  78.895
27422DA     BB378247  48.205  48.766  78.785
27422DA     SC178248  48.146  48.915  78.518
27422DA     SC278249  47.949  48.963  78.374
27422DA     SC378250  48.121  49.006  78.188
27422DA     SC478251  48.269  48.936  78.416
27423DA     BB178252  48.068  48.633  79.062
27423DA     BB278253  47.753  48.598  78.876
27423DA     BB378254  47.761  48.427  78.749
27423DA     SC178255  47.874  48.583  78.505
27423DA     SC278256  47.795  48.656  78.280
27423DA     SC378257  48.044  48.677  78.222
27423DA     SC478258  48.033  48.588  78.488
27424DT     BB178259  47.640  48.231  78.772
27424DT     BB278260  47.411  48.289  78.499
27424DT     BB378261  47.450  48.157  78.345
27424DT     SC178262  47.666  48.290  78.275
27424DT     SC278263  47.632  48.386  78.086
27424DT     SC378264  47.919  48.344  78.229
27425DT     BB178265  47.226  47.987  78.388
27425DT     BB278266  47.190  48.089  78.044
27425DT     BB378267  47.284  47.953  77.919
27425DT     SC178268  47.521  48.043  77.986
27425DT     SC278269  47.609  48.145  77.819
27425DT     SC378270  47.766  48.049  78.086
27426DT     BB178271  47.046  47.839  77.825
27426DT     BB278272  47.215  47.949  77.525
27426DT     BB378273  47.335  47.797  77.452
27426DT     SC178274  47.512  47.836  77.641
27426DT     SC278275  47.691  47.919  77.555
27426DT     SC378276  47.665  47.790  77.852
27427DA     BB178277  47.095  47.914  77.128
27427DA     BB278278  47.442  47.909  77.012
27427DA     BB378279  47.508  47.708  76.983
27427DA     SC178280  47.617  47.677  77.273
27427DA     SC278281  47.839  47.656  77.385
27427DA     SC378282  47.707  47.557  77.582
27427DA     SC478283  47.518  47.616  77.384
27428DT     BB178284  47.552  47.637  76.792
27428DT     BB278285  47.911  47.639  76.828
27428DT     BB378286  47.981  47.445  76.847
27428DT     SC178287  47.894  47.429  77.094
27428DT     SC278288  48.061  47.424  77.229
27428DT     SC378289  47.755  47.348  77.303
27429DA     BB178290  48.205  47.612  76.533
27429DA     BB278291  48.441  47.457  76.767
27429DA     BB378292  48.437  47.245  76.746
27429DA     SC178293  48.216  47.203  76.961
27429DA     SC278294  48.198  47.108  77.191
27429DA     SC378295  47.947  47.091  77.142
27429DA     SC478296  48.064  47.199  76.911
27430DT     BB178297  48.605  47.138  76.672
27430DT     BB278298  48.713  47.006  76.990
27430DT     BB378299  48.672  46.803  76.999
27430DT     SC178300  48.416  46.847  77.034
27430DT     SC278301  48.360  46.793  77.234
27430DT     SC378302  48.156  46.848  76.988
27431DC     BB178303  48.938  46.751  76.979
27431DC     BB278304  48.836  46.599  77.291
27431DC     BB378305  48.766  46.408  77.257
27431DC     SC178306  48.541  46.500  77.157
27431DC     SC278307  48.380  46.456  77.292
27431DC     SC378308  48.349  46.550  76.984
27432DA     BB178309  49.051  46.407  77.565
27432DA     BB278310  48.754  46.227  77.681
27432DA     BB378311  48.737  46.039  77.581
27432DA     SC178312  48.563  46.152  77.349
27432DA     SC278313  48.327  46.134  77.270
27432DA     SC378314  48.418  46.217  77.044
27432DA     SC478315  48.639  46.203  77.217
27433DC     BB178316  48.753  45.902  77.699
27433DC     BB278317  48.406  45.806  77.703
27433DC     BB378318  48.375  45.645  77.575
27433DC     SC178319  48.395  45.800  77.364
27433DC     SC278320  48.202  45.816  77.270
27433DC     SC378321  48.486  45.901  77.138
27434DA     BB178322  48.205  45.570  77.953
27434DA     BB278323  47.957  45.490  77.694
27434DA     BB378324  48.015  45.315  77.587
27434DA     SC178325  48.174  45.472  77.370
27434DA     SC278326  48.151  45.524  77.127
27434DA     SC378327  48.403  45.572  77.135
27434DA     SC478328  48.331  45.495  77.395
27435DA     BB178329  47.709  45.238  77.678
27435DA     BB278330  47.636  45.208  77.320
27435DA     BB378331  47.728  45.033  77.240
27435DA     SC178332  47.991  45.177  77.161
27435DA     SC278333  48.109  45.246  76.952
27435DA     SC378334  48.319  45.258  77.098
27435DA     SC478335  48.111  45.177  77.268
27436DG     BB178336  47.434  44.952  77.171
27436DG     BB278337  47.556  44.975  76.831
27436DG     BB378338  47.653  44.808  76.783
27436DG     SC178339  47.925  44.908  76.879
27436DG     SC278340  48.162  44.967  76.707
27436DG     SC378341  48.235  44.979  76.993
27436DG     SC478342  47.967  44.885  77.032
27437DG     BB178343  47.443  44.763  76.533
27437DG     BB278344  47.730  44.798  76.316
27437DG     BB378345  47.827  44.625  76.303
27437DG     SC178346  48.009  44.680  76.542
27437DG     SC278347  48.305  44.721  76.532
27437DG     SC378348  48.212  44.699  76.812
27437DG     SC478349  47.960  44.638  76.689
27438DA     BB178350  47.805  44.662  75.959
27438DA     BB278351  48.171  44.661  75.936
27438DA     BB378352  48.246  44.463  75.957
27438DA     SC178353  48.277  44.481  76.266
27438DA     SC278354  48.463  44.491  76.432
27438DA     SC378355  48.287  44.414  76.602
27438DA     SC478356  48.154  44.432  76.356
27439DA     BB178357  48.387  44.554  75.677
27439DA     BB278358  48.707  44.505  75.848
27439DA     BB378359  48.748  44.297  75.872
27439DA     SC178360  48.610  44.276  76.149
27439DA     SC278361  48.677  44.241  76.387
27439DA     SC378362  48.433  44.170  76.424
27439DA     SC478363  48.455  44.234  76.152
27440DG     BB178364  48.990  44.395  75.710
27440DG     BB278365  49.165  44.299  76.012
27440DG     BB378366  49.185  44.101  76.019
27440DG     SC178367  48.921  44.055  76.166
27440DG     SC278368  48.891  43.953  76.445
27440DG     SC378369  48.629  43.966  76.309
27440DG     SC478370  48.787  44.036  76.081
27441DT     BB178371  49.384  44.015  76.019
27441DT     BB278372  49.418  43.908  76.362
27441DT     BB378373  49.390  43.703  76.374
27441DT     SC178374  49.131  43.728  76.342
27441DT     SC278375  49.031  43.678  76.526
27441DT     SC378376  48.891  43.705  76.235
27442DA     BB178377  49.749  43.797  76.569
27442DA     BB278378  49.555  43.578  76.790
27442DA     BB378379  49.557  43.378  76.716
27442DA     SC178380  49.299  43.414  76.545
27442DA     SC278381  49.063  43.334  76.549
27442DA     SC378382  49.059  43.398  76.300
27442DA     SC478383  49.317  43.459  76.392
27443DA     BB178384  49.662  43.320  77.021
27443DA     BB278385  49.366  43.109  77.064
27443DA     BB378386  49.391  42.924  76.961
27443DA     SC178387  49.265  43.027  76.695
27443DA     SC278388  49.057  42.989  76.563
27443DA     SC378389  49.189  43.086  76.366
27443DA     SC478390  49.364  43.089  76.585
27444DA     BB178391  49.316  42.805  77.257
27444DA     BB278392  49.026  42.645  77.100
27444DA     BB378393  49.087  42.475  76.987
27444DA     SC178394  49.128  42.633  76.723
27444DA     SC278395  49.018  42.651  76.499
27444DA     SC378396  49.241  42.749  76.421
27444DA     SC478397  49.275  42.691  76.693
27445DA     BB178398  48.858  42.333  77.175
27445DA     BB278399  48.682  42.250  76.864
27445DA     BB378400  48.778  42.087  76.765
27445DA     SC178401  48.965  42.269  76.596
27445DA     SC278402  48.992  42.335  76.357
27445DA     SC378403  49.230  42.402  76.423
27445DA     SC478404  49.110  42.303  76.656
27446DA     BB178405  48.472  41.975  76.780
27446DA     BB278406  48.479  41.962  76.414
27446DA     BB378407  48.599  41.799  76.348
27446DA     SC178408  48.862  41.965  76.336
27446DA     SC278409  49.017  42.054  76.162
27446DA     SC378410  49.189  42.070  76.351
27446DA     SC478411  48.956  41.966  76.467
27447DT     BB178412  48.505  41.656  76.254
27447DT     BB278413  48.629  41.729  75.923
27447DT     BB378414  48.777  41.594  75.871
27447DT     SC178415  48.950  41.712  76.030
27447DT     SC278416  49.100  41.810  75.911
27447DT     SC378417  49.119  41.750  76.229
27448DT     BB178418  48.606  41.478  75.698
27448DT     BB278419  48.893  41.562  75.497
27448DT     BB378420  49.034  41.411  75.508
27448DT     SC178421  49.105  41.484  75.750
27448DT     SC278422  49.303  41.568  75.745
27448DT     SC378423  49.143  41.474  76.011
27449DA     BB178424  48.973  41.469  75.096
27449DA     BB278425  49.335  41.458  75.152
27449DA     BB378426  49.399  41.258  75.189
27449DA     SC178427  49.364  41.278  75.497
27449DA     SC278428  49.509  41.284  75.700
27449DA     SC378429  49.299  41.213  75.828
27449DA     SC478430  49.222  41.232  75.559
27450DA     BB178431  49.615  41.292  74.936
27450DA     BB278432  49.886  41.231  75.175
27450DA     BB378433  49.904  41.022  75.214
27450DA     SC178434  49.708  41.025  75.455
27450DA     SC278435  49.720  40.999  75.703
27450DA     SC378436  49.469  40.948  75.689
27450DA     SC478437  49.553  40.995  75.426
27451DT     BB178438  50.081  40.876  75.150
27451DT     BB278439  50.228  40.845  75.478
27451DT     BB378440  50.204  40.652  75.549
27451DT     SC178441  49.949  40.694  75.599
27451DT     SC278442  49.918  40.697  75.812
27451DT     SC378443  49.687  40.672  75.586
27452DT     BB178444  50.474  40.563  75.511
27452DT     BB278445  50.414  40.506  75.862
27452DT     BB378446  50.347  40.312  75.892
27452DT     SC178447  50.110  40.371  75.797
27452DT     SC278448  49.966  40.367  75.958
27452DT     SC378449  49.898  40.370  75.641
27453DG     BB178450  50.689  40.335  76.114
27453DG     BB278451  50.411  40.220  76.315
27453DG     BB378452  50.383  40.025  76.286
27453DG     SC178453  50.188  40.063  76.053
27453DG     SC278454  49.898  39.995  76.054
27453DG     SC378455  49.988  40.068  75.782
27453DG     SC478456  50.247  40.074  75.904
27454DG     BB178457  50.426  39.980  76.608
27454DG     BB278458  50.084  39.863  76.614
27454DG     BB378459  50.077  39.671  76.563
27454DG     SC178460  50.045  39.726  76.264
27454DG     SC278461  49.803  39.666  76.100
27454DG     SC378462  50.028  39.750  75.928
27454DG     SC478463  50.176  39.743  76.173
27455DA     BB178464  49.894  39.631  76.854
27455DA     BB278465  49.613  39.499  76.659
27455DA     BB378466  49.653  39.298  76.598
27455DA     SC178467  49.785  39.381  76.329
27455DA     SC278468  49.731  39.367  76.085
27455DA     SC378469  49.983  39.400  76.049
27455DA     SC478470  49.944  39.401  76.327
27456DT     BB178471  49.539  39.151  76.676
27456DT     BB278472  49.346  39.081  76.379
27456DT     BB378473  49.411  38.905  76.292
27456DT     SC178474  49.627  39.022  76.199
27456DT     SC278475  49.614  39.037  75.985
27456DT     SC378476  49.882  39.080  76.162
27457DA     BB178477  48.997  38.859  76.338
27457DA     BB278478  49.080  38.762  75.995
27457DA     BB378479  49.175  38.571  75.993
27457DA     SC178480  49.463  38.686  76.018
27457DA     SC278481  49.666  38.707  75.875
27457DA     SC378482  49.793  38.739  76.095
27457DA     SC478483  49.524  38.702  76.165
27458DG     BB178484  48.936  38.458  75.817
27458DG     BB278485  49.193  38.413  75.567
27458DG     BB378486  49.282  38.237  75.592
27458DG     SC178487  49.496  38.344  75.783
27458DG     SC278488  49.789  38.361  75.726
27458DG     SC378489  49.733  38.424  76.010
27458DG     SC478490  49.466  38.348  75.940
27459DC     BB178491  49.279  38.053  75.438
27459DC     BB278492  49.612  38.076  75.301
27459DC     BB378493  49.728  37.919  75.371
27459DC     SC178494  49.750  38.031  75.607
27459DC     SC278495  49.953  38.096  75.636
27459DC     SC378496  49.727  38.067  75.867
27460DC     BB178497  49.725  37.787  75.126
27460DC     BB278498  50.075  37.837  75.196
27460DC     BB378499  50.150  37.675  75.302
27460DC     SC178500  50.031  37.755  75.522
27460DC     SC278501  50.178  37.822  75.663
27460DC     SC378502  49.868  37.756  75.730
27461DC     BB178503  50.289  37.592  75.082
27461DC     BB278504  50.541  37.638  75.336
27461DC     BB378505  50.564  37.464  75.446
27461DC     SC178506  50.338  37.506  75.574
27461DC     SC278507  50.381  37.553  75.779
27461DC     SC378508  50.091  37.471  75.659
27462DC     BB178509  50.801  37.438  75.326
27462DC     BB278510  50.875  37.441  75.679
27462DC     BB378511  50.855  37.251  75.758
27462DC     SC178512  50.593  37.267  75.749
27462DC     SC278513  50.516  37.278  75.950
27462DC     SC378514  50.343  37.215  75.683
27463DT     BB178515  51.119  37.253  75.780
27463DT     BB278516  50.999  37.186  76.113
27463DT     BB378517  50.960  36.984  76.136
27463DT     SC178518  50.741  37.003  75.993
27463DT     SC278519  50.570  36.975  76.121
27463DT     SC378520  50.569  36.966  75.797
27464DA     BB178521  51.203  37.106  76.455
27464DA     BB278522  50.929  36.906  76.593
27464DA     BB378523  50.956  36.700  76.544
27464DA     SC178524  50.795  36.716  76.278
27464DA     SC278525  50.578  36.633  76.189
27464DA     SC378526  50.681  36.673  75.958
27464DA     SC478527  50.877  36.746  76.144
27465DA     BB178528  50.926  36.655  76.871
27465DA     BB278529  50.638  36.439  76.801
27465DA     BB378530  50.704  36.249  76.729
27465DA     SC178531  50.699  36.333  76.430
27465DA     SC278532  50.565  36.282  76.226
27465DA     SC378533  50.767  36.371  76.095
27465DA     SC478534  50.835  36.391  76.367
27466DT     BB178535  50.686  36.053  76.841
27466DT     BB278536  50.422  35.911  76.641
27466DT     BB378537  50.496  35.754  76.527
27466DT     SC178538  50.616  35.919  76.363
27466DT     SC278539  50.518  35.915  76.172
27466DT     SC378540  50.810  36.042  76.232
27467DT     BB178541  50.387  35.531  76.679
27467DT     BB278542  50.264  35.471  76.346
27467DT     BB378543  50.393  35.344  76.245
27467DT     SC178544  50.569  35.536  76.212
27467DT     SC278545  50.577  35.591  76.004
27467DT     SC378546  50.794  35.672  76.231
27468DG     BB178547  50.051  35.114  76.240
27468DG     BB278548  50.180  35.155  75.904
27468DG     BB378549  50.321  35.019  75.869
27468DG     SC178550  50.550  35.194  75.971
27468DG     SC278551  50.771  35.307  75.806
27468DG     SC378552  50.823  35.350  76.094
27468DG     SC478553  50.588  35.189  76.127
27469DT     BB178554  50.310  34.844  75.703
27469DT     BB278555  50.524  34.987  75.450
27469DT     BB378556  50.701  34.880  75.439
27469DT     SC178557  50.789  34.987  75.663
27469DT     SC278558  50.952  35.120  75.619
27469DT     SC378559  50.872  35.007  75.912
27470DT     BB178560  50.620  34.784  75.200
27470DT     BB278561  50.929  34.958  75.132
27470DT     BB378562  51.090  34.831  75.160
27470DT     SC178563  51.066  34.847  75.421
27470DT     SC278564  51.233  34.957  75.501
27470DT     SC378565  51.025  34.775  75.672
27471DC     BB178566  51.107  34.855  74.901
27471DC     BB278567  51.422  34.973  75.032
27471DC     BB378568  51.546  34.813  75.075
27471DC     SC178569  51.407  34.754  75.290
27471DC     SC278570  51.525  34.797  75.464
27471DC     SC378571  51.254  34.619  75.457
27472DT     BB178572  51.678  34.911  74.873
27472DT     BB278573  51.910  34.908  75.150
27472DT     BB378574  51.987  34.718  75.175
27472DT     SC178575  51.762  34.632  75.281
27472DT     SC278576  51.793  34.593  75.490
27472DT     SC378577  51.540  34.495  75.313
27473DA     BB178578  52.294  35.005  75.167
27473DA     BB278579  52.349  34.784  75.454
27473DA     BB378580  52.407  34.589  75.388
27473DA     SC178581  52.116  34.480  75.374
27473DA     SC278582  51.975  34.315  75.497
27473DA     SC378583  51.828  34.315  75.287
27473DA     SC478584  52.039  34.492  75.234
27474DC     BB178585  52.587  34.536  75.434
27474DC     BB278586  52.498  34.296  75.688
27474DC     BB378587  52.513  34.104  75.612
27474DC     SC178588  52.292  34.133  75.474
27474DC     SC278589  52.138  34.009  75.559
27474DC     SC378590  52.128  34.151  75.268
27475DC     BB178591  52.734  34.064  75.763
27475DC     BB278592  52.508  33.800  75.860
27475DC     BB378593  52.528  33.639  75.732
27475DC     SC178594  52.398  33.765  75.542
27475DC     SC278595  52.207  33.670  75.512
27475DC     SC378596  52.349  33.882  75.311
27476DA     BB178597  52.559  33.502  76.127
27476DA     BB278598  52.318  33.289  75.950
27476DA     BB378599  52.420  33.162  75.811
27476DA     SC178600  52.398  33.363  75.574
27476DA     SC278601  52.275  33.381  75.358
27476DA     SC378602  52.456  33.551  75.293
27476DA     SC478603  52.520  33.466  75.552
27477DT     BB178604  52.406  32.979  75.853
27477DT     BB278605  52.173  32.890  75.592
27477DT     BB378606  52.274  32.800  75.435
27477DT     SC178607  52.371  33.030  75.355
27477DT     SC278608  52.280  33.086  75.169
27477DT     SC378609  52.545  33.219  75.297
27478DT     BB178610  52.149  32.585  75.516
27478DT     BB278611  52.055  32.625  75.170
27478DT     BB378612  52.204  32.550  75.048
27478DT     SC178613  52.358  32.757  75.095
27478DT     SC278614  52.373  32.877  74.916
27478DT     SC378615  52.563  32.900  75.177
27479DA     BB178616  51.831  32.394  74.931
27479DA     BB278617  52.008  32.508  74.630
27479DA     BB378618  52.173  32.380  74.589
27479DA     SC178619  52.376  32.546  74.756
27479DA     SC278620  52.573  32.694  74.714
27479DA     SC378621  52.633  32.648  74.959
27479DA     SC478622  52.397  32.505  74.910
27480DA     BB178623  52.024  32.368  74.293
27480DA     BB278624  52.337  32.497  74.152
27480DA     BB378625  52.487  32.346  74.153
27480DA     SC178626  52.596  32.423  74.434
27480DA     SC278627  52.802  32.525  74.530
27480DA     SC378628  52.728  32.418  74.751
27480DA     SC478629  52.534  32.347  74.562
27481DA     BB178630  52.519  32.398  73.825
27481DA     BB278631  52.869  32.489  73.888
27481DA     BB378632  52.987  32.313  73.917
27481DA     SC178633  52.946  32.306  74.225
27481DA     SC278634  53.082  32.344  74.430
27481DA     SC378635  52.901  32.209  74.551
27481DA     SC478636  52.823  32.219  74.282
27482DG     BB178637  53.161  32.388  73.661
27482DG     BB278638  53.427  32.423  73.904
27482DG     BB378639  53.514  32.247  73.936
27482DG     SC178640  53.325  32.167  74.164
27482DG     SC278641  53.402  32.133  74.451
27482DG     SC378642  53.125  32.040  74.403
27482DG     SC478643  53.189  32.091  74.129
27483DT     BB178644  53.734  32.202  73.887
27483DT     BB278645  53.877  32.210  74.218
27483DT     BB378646  53.922  32.018  74.281
27483DT     SC178647  53.668  31.965  74.324
27483DT     SC278648  53.634  31.946  74.535
27483DT     SC378649  53.431  31.851  74.301
27484DA     BB178650  54.255  32.266  74.334
27484DA     BB278651  54.194  32.086  74.647
27484DA     BB378652  54.246  31.880  74.626
27484DA     SC178653  53.962  31.792  74.534
27484DA     SC278654  53.772  31.659  74.625
27484DA     SC378655  53.696  31.638  74.381
27484DA     SC478656  53.932  31.789  74.376
27485DT     BB178657  54.380  31.845  74.736
27485DT     BB278658  54.192  31.653  74.977
27485DT     BB378659  54.211  31.450  74.937
27485DT     SC178660  54.049  31.468  74.731
27485DT     SC278661  53.865  31.366  74.776
27485DT     SC378662  53.963  31.461  74.482
27486DT     BB178663  54.348  31.454  75.159
27486DT     BB278664  54.089  31.209  75.210
27486DT     BB378665  54.142  31.030  75.119
27486DT     SC178666  54.089  31.127  74.881
27486DT     SC278667  53.914  31.030  74.802
27486DT     SC378668  54.125  31.209  74.633
27487DG     BB178669  54.075  30.950  75.515
27487DG     BB278670  53.898  30.718  75.302
27487DG     BB378671  54.024  30.585  75.227
27487DG     SC178672  54.090  30.752  74.978
27487DG     SC278673  54.020  30.682  74.697
27487DG     SC378674  54.201  30.916  74.705
27487DG     SC478675  54.210  30.858  74.986
27488DT     BB178676  54.036  30.343  75.268
27488DT     BB278677  53.912  30.210  74.957
27488DT     BB378678  54.068  30.128  74.848
27488DT     SC178679  54.158  30.365  74.783
27488DT     SC278680  54.127  30.398  74.573
27488DT     SC378681  54.319  30.574  74.766
27489DA     BB178682  53.835  29.769  74.863
27489DA     BB278683  53.931  29.815  74.512
27489DA     BB378684  54.131  29.746  74.480
27489DA     SC178685  54.262  30.022  74.539
27489DA     SC278686  54.381  30.200  74.412
27489DA     SC378687  54.471  30.274  74.641
27489DA     SC478688  54.308  30.051  74.690
27490DA     BB178689  54.053  29.512  74.235
27490DA     BB278690  54.241  29.718  73.996
27490DA     BB378691  54.447  29.662  73.997
27490DA     SC178692  54.526  29.867  74.217
27490DA     SC278693  54.658  30.078  74.234
27490DA     SC378694  54.671  30.026  74.485
27490DA     SC478695  54.524  29.816  74.369
27491DC     BB178696  54.575  29.558  73.819
27491DC     BB278697  54.731  29.865  73.714
27491DC     BB378698  54.935  29.856  73.748
27491DC     SC178699  54.902  29.888  74.006
27491DC     SC278700  54.975  30.082  74.064
27491DC     SC378701  54.904  29.838  74.265
27492DC     BB178702  54.988  29.837  73.478
27492DC     BB278703  55.152  30.140  73.584
27492DC     BB378704  55.344  30.098  73.648
27492DC     SC178705  55.256  29.993  73.872
27492DC     SC278706  55.309  30.122  74.036
27492DC     SC378707  55.206  29.815  74.060
27493DC     BB178708  55.427  30.225  73.428
27493DC     BB278709  55.565  30.411  73.705
27493DC     BB378710  55.744  30.325  73.765
27493DC     SC178711  55.618  30.126  73.881
27493DC     SC278712  55.639  30.143  74.094
27493DC     SC378713  55.537  29.881  73.933
27494DT     BB178714  55.838  30.548  73.668
27494DT     BB278715  55.932  30.544  74.016
27494DT     BB378716  56.100  30.425  74.043
27494DT     SC178717  55.959  30.206  74.014
27494DT     SC278718  55.947  30.103  74.203
27494DT     SC378719  55.872  29.978  73.914
27495DG     BB178720  56.125  30.804  74.191
27495DG     BB278721  56.202  30.552  74.439
27495DG     BB378722  56.379  30.470  74.400
27495DG     SC178723  56.264  30.249  74.221
27495DG     SC278724  56.264  29.957  74.282
27495DG     SC378725  56.174  30.007  74.005
27495DG     SC478726  56.245  30.278  74.065
27496DT     BB178727  56.479  30.497  74.552
27496DT     BB278728  56.503  30.166  74.692
27496DT     BB378729  56.670  30.069  74.618
27496DT     SC178730  56.554  30.030  74.386
27496DT     SC278731  56.512  29.821  74.361
27496DT     SC378732  56.506  30.045  74.127
27497DA     BB178733  56.599  30.040  75.036
27497DA     BB278734  56.683  29.709  74.902
27497DA     BB378735  56.884  29.707  74.830
27497DA     SC178736  56.805  29.791  74.540
27497DA     SC278737  56.800  29.688  74.314
27497DA     SC378738  56.798  29.929  74.226
27497DA     SC478739  56.806  29.948  74.506
27498DA     BB178740  56.822  29.444  75.023
27498DA     BB278741  56.942  29.248  74.738
27498DA     BB378742  57.146  29.296  74.695
27498DA     SC178743  57.077  29.524  74.495
27498DA     SC278744  57.092  29.564  74.249
27498DA     SC378745  57.075  29.813  74.310
27498DA     SC478746  57.066  29.673  74.553
27499DT     BB178747  57.236  29.152  74.723
27499DT     BB278748  57.342  29.085  74.384
27499DT     BB378749  57.523  29.178  74.347
27499DT     SC178750  57.408  29.413  74.331
27499DT     SC278751  57.415  29.482  74.127
27499DT     SC378752  57.345  29.663  74.387
27500DG     BB178753  57.610  28.781  74.276
27500DG     BB278754  57.752  28.990  74.017
27500DG     BB378755  57.915  29.081  74.085
27500DG     SC178756  57.766  29.326  74.191
27500DG     SC278757  57.788  29.604  74.085
27500DG     SC378758  57.632  29.599  74.336
27500DG     SC478759  57.709  29.323  74.340
27501DC     BB178760  58.205  29.066  74.050
27501DC     BB278761  58.272  29.375  73.877
27501DC     BB378762  58.380  29.502  73.999
27501DC     SC178763  58.168  29.556  74.144
27501DC     SC278764  58.108  29.760  74.109
27501DC     SC378765  58.007  29.571  74.352
27502DG     BB178766  58.733  29.483  73.751
27502DG     BB278767  58.658  29.831  73.815
27502DG     BB378768  58.756  29.893  73.977
27502DG     SC178769  58.532  29.816  74.171
27502DG     SC278770  58.367  30.006  74.332
27502DG     SC378771  58.316  29.726  74.414
27502DG     SC478772  58.529  29.668  74.232
27503DG     BB178773  58.980  30.152  73.866
27503DG     BB278774  58.782  30.384  74.061
27503DG     BB378775  58.867  30.414  74.238
27503DG     SC178776  58.720  30.183  74.376
27503DG     SC278777  58.515  30.210  74.592
27503DG     SC378778  58.591  29.927  74.553
27503DG     SC478779  58.784  30.037  74.372
27504DA     BB178780  58.873  30.764  74.197
27504DA     BB278781  58.643  30.805  74.480
27504DA     BB378782  58.751  30.804  74.664
27504DA     SC178783  58.727  30.496  74.704
27504DA     SC278784  58.609  30.339  74.857
27504DA     SC378785  58.784  30.167  74.784
27504DA     SC478786  58.846  30.404  74.647
27505DT     BB178787  58.755  30.975  74.777
27505DT     BB278788  58.518  30.863  75.025
27505DT     BB378789  58.616  30.820  75.202
27505DT     SC178790  58.714  30.597  75.104
27505DT     SC278791  58.620  30.429  75.201
27505DT     SC378792  58.888  30.419  75.019
27506DA     BB178793  58.291  31.073  75.279
27506DA     BB278794  58.274  30.791  75.513
27506DA     BB378795  58.427  30.808  75.661
27506DA     SC178796  58.637  30.645  75.498
27506DA     SC278797  58.749  30.423  75.512
27506DA     SC378798  58.925  30.525  75.356
27506DA     SC478799  58.736  30.727  75.402
27507DC     BB178800  58.365  30.837  75.843
27507DC     BB278801  58.438  30.506  75.968
27507DC     BB378802  58.611  30.509  76.080
27507DC     SC178803  58.760  30.529  75.865
27507DC     SC278804  58.869  30.346  75.837
27507DC     SC378805  58.930  30.628  75.689
27508DT     BB178806  58.469  30.480  76.314
27508DT     BB278807  58.702  30.204  76.316
27508DT     BB378808  58.880  30.263  76.403
27508DT     SC178809  58.948  30.401  76.190
27508DT     SC278810  59.114  30.303  76.093
27508DT     SC378811  59.011  30.606  76.037
27509DA     BB178812  58.767  29.918  76.614
27509DA     BB278813  59.117  29.876  76.514
27509DA     BB378814  59.245  29.995  76.637
27509DA     SC178815  59.233  30.244  76.450
27509DA     SC278816  59.387  30.367  76.297
27509DA     SC378817  59.223  30.563  76.323
27509DA     SC478818  59.120  30.354  76.480
27510DT     BB178819  59.383  29.907  76.771
27510DT     BB278820  59.676  29.972  76.571
27510DT     BB378821  59.790  30.121  76.659
27510DT     SC178822  59.620  30.306  76.583
27510DT     SC278823  59.711  30.429  76.432
27510DT     SC378824  59.442  30.500  76.597
27511DT     BB178825  59.977  29.936  76.726
27511DT     BB278826  60.152  30.174  76.520
27511DT     BB378827  60.223  30.330  76.636
27511DT     SC178828  59.983  30.433  76.660
27511DT     SC278829  59.974  30.617  76.550
27511DT     SC378830  59.759  30.516  76.770
27512DT     BB178831  60.460  30.227  76.583
27512DT     BB278832  60.471  30.564  76.457
27512DT     BB378833  60.515  30.696  76.610
27512DT     SC178834  60.273  30.675  76.709
27512DT     SC278835  60.167  30.860  76.679
27512DT     SC378836  60.078  30.619  76.877
27513DT     BB178837  60.737  30.719  76.475
27513DT     BB278838  60.598  31.051  76.491
27513DT     BB378839  60.641  31.137  76.675
27513DT     SC178840  60.461  30.989  76.795
27513DT     SC278841  60.297  31.113  76.859
27513DT     SC378842  60.356  30.810  76.958
27514DA     BB178843  60.718  31.387  76.343
27514DA     BB278844  60.531  31.577  76.594
27514DA     BB378845  60.651  31.607  76.768
27514DA     SC178846  60.554  31.348  76.910
27514DA     SC278847  60.414  31.286  77.107
27514DA     SC378848  60.535  31.060  77.096
27514DA     SC478849  60.641  31.214  76.888
27515DA     BB178850  60.532  31.901  76.684
27515DA     BB278851  60.390  31.911  77.022
27515DA     BB378852  60.545  31.925  77.168
27515DA     SC178853  60.575  31.617  77.201
27515DA     SC278854  60.527  31.445  77.375
27515DA     SC378855  60.695  31.299  77.248
27515DA     SC478856  60.683  31.542  77.109
27516DT     BB178857  60.541  32.085  77.261
27516DT     BB278858  60.433  31.955  77.580
27516DT     BB378859  60.596  31.928  77.704
27516DT     SC178860  60.671  31.714  77.573
27516DT     SC278861  60.641  31.540  77.696
27516DT     SC378862  60.818  31.553  77.425
27517DT     BB178863  60.523  32.144  77.853
27517DT     BB278864  60.556  31.879  78.095
27517DT     BB378865  60.753  31.864  78.158
27517DT     SC178866  60.824  31.751  77.931
27517DT     SC278867  60.874  31.545  77.967
27517DT     SC378868  60.944  31.714  77.700
27518DG     BB178869  60.567  31.948  78.516
27518DG     BB278870  60.783  31.660  78.550
27518DG     BB378871  60.971  31.718  78.577
27518DG     SC178872  61.038  31.723  78.278
27518DG     SC278873  61.229  31.542  78.138
27518DG     SC378874  61.139  31.759  77.959
27518DG     SC478875  61.011  31.857  78.195
27519DG     BB178876  61.032  31.582  78.889
27519DG     BB278877  61.283  31.375  78.732
27519DG     BB378878  61.459  31.467  78.736
27519DG     SC178879  61.419  31.609  78.468
27519DG     SC278880  61.573  31.558  78.218
27519DG     SC378881  61.399  31.795  78.188
27519DG     SC478882  61.347  31.752  78.466
27520DA     BB178883  61.641  31.204  78.901
27520DA     BB278884  61.856  31.160  78.608
27520DA     BB378885  62.018  31.299  78.613
27520DA     SC178886  61.866  31.519  78.454
27520DA     SC278887  61.877  31.625  78.228
27520DA     SC378888  61.744  31.817  78.334
27520DA     SC478889  61.784  31.629  78.538
27521DA     BB178890  62.239  31.047  78.594
27521DA     BB278891  62.342  31.177  78.267
27521DA     BB378892  62.488  31.331  78.292
27521DA     SC178893  62.279  31.561  78.304
27521DA     SC278894  62.207  31.753  78.161
27521DA     SC378895  62.108  31.849  78.377
27521DA     SC478896  62.225  31.605  78.449
27522DT     BB178897  62.692  31.307  78.224
27522DT     BB278898  62.657  31.511  77.929
27522DT     BB378899  62.762  31.688  77.953
27522DT     SC178900  62.581  31.783  78.116
27522DT     SC278901  62.476  31.945  78.020
27522DT     SC378902  62.469  31.875  78.337
27523DT     BB178903  62.949  31.603  77.772
27523DT     BB278904  62.821  31.910  77.633
27523DT     BB378905  62.929  32.071  77.706
27523DT     SC178906  62.810  32.055  77.940
27523DT     SC278907  62.680  32.224  77.966
27523DT     SC378908  62.777  32.020  78.199
27524DA     BB178909  62.916  32.097  77.289
27524DA     BB278910  62.816  32.422  77.425
27524DA     BB378911  62.986  32.525  77.504
27524DA     SC178912  62.955  32.409  77.790
27524DA     SC278913  62.891  32.491  78.017
27524DA     SC378914  63.011  32.282  78.104
27524DA     SC478915  63.035  32.274  77.825
27525DG     BB178916  62.900  32.732  77.291
27525DG     BB278917  62.841  32.937  77.583
27525DG     BB378918  63.011  33.017  77.646
27525DG     SC178919  63.081  32.785  77.833
27525DG     SC278920  63.092  32.796  78.131
27525DG     SC378921  63.197  32.538  78.031
27525DG     SC478922  63.163  32.660  77.774
27526DT     BB178923  63.033  33.233  77.647
27526DT     BB278924  63.007  33.306  78.000
27526DT     BB378925  63.194  33.344  78.078
27526DT     SC178926  63.258  33.090  78.072
27526DT     SC278927  63.270  33.014  78.273
27526DT     SC378928  63.383  32.867  78.008
27527DT     BB178929  63.116  33.599  78.099
27527DT     BB278930  63.208  33.501  78.434
27527DT     BB378931  63.411  33.525  78.462
27527DT     SC178932  63.463  33.311  78.318
27527DT     SC278933  63.538  33.155  78.447
27527DT     SC378934  63.555  33.159  78.123
27528DT     BB178935  63.340  33.722  78.620
27528DT     BB278936  63.536  33.500  78.827
27528DT     BB378937  63.738  33.538  78.799
27528DT     SC178938  63.736  33.420  78.565
27528DT     SC278939  63.848  33.236  78.577
27528DT     SC378940  63.756  33.386  78.304
27529DA     BB178941  63.631  33.516  79.205
27529DA     BB278942  63.933  33.314  79.152
27529DA     BB378943  64.099  33.440  79.108
27529DA     SC178944  64.056  33.433  78.801
27529DA     SC278945  64.169  33.337  78.600
27529DA     SC378946  64.036  33.512  78.467
27529DA     SC478947  63.966  33.550  78.736
27530DT     BB178948  64.217  33.421  79.239
27530DT     BB278949  64.470  33.243  79.054
27530DT     BB378950  64.612  33.375  78.982
27530DT     SC178951  64.448  33.461  78.795
27530DT     SC278952  64.518  33.395  78.603
27530DT     SC378953  64.293  33.623  78.656
27531DA     BB178954  64.811  33.062  79.179
27531DA     BB278955  64.984  33.125  78.862
27531DA     BB378956  65.088  33.311  78.869
27531DA     SC178957  64.849  33.477  78.759
27531DA     SC278958  64.791  33.600  78.550
27531DA     SC378959  64.617  33.722  78.694
27531DA     SC478960  64.747  33.542  78.865
27532DG     BB178961  65.349  33.144  78.819
27532DG     BB278962  65.369  33.342  78.518
27532DG     BB378963  65.449  33.520  78.558
27532DG     SC178964  65.180  33.654  78.620
27532DG     SC278965  65.051  33.870  78.460
27532DG     SC378966  64.907  33.827  78.714
27532DG     SC478967  65.123  33.648  78.770
27533DT     BB178968  65.659  33.606  78.479
27533DT     BB278969  65.550  33.851  78.238
27533DT     BB378970  65.578  34.041  78.312
27533DT     SC178971  65.373  34.018  78.474
27533DT     SC278972  65.214  34.147  78.407
27533DT     SC378973  65.233  34.003  78.697
27534DC     BB178974  65.808  34.110  78.157
27534DC     BB278975  65.577  34.377  78.085
27534DC     BB378976  65.607  34.534  78.216
27534DC     SC178977  65.491  34.403  78.412
27534DC     SC278978  65.303  34.496  78.459
27534DC     SC378979  65.459  34.278  78.642
27535DA     BB178980  65.642  34.728  77.844
27535DA     BB278981  65.406  34.924  78.045
27535DA     BB378982  65.511  35.042  78.188
27535DA     SC178983  65.502  34.825  78.410
27535DA     SC278984  65.388  34.791  78.630
27535DA     SC378985  65.573  34.619  78.676
27535DA     SC478986  65.626  34.723  78.421
27536DT     BB178987  65.522  35.265  78.184
27536DT     BB278988  65.288  35.319  78.453
27536DT     BB378989  65.388  35.392  78.620
27536DT     SC178990  65.489  35.155  78.672
27536DT     SC278991  65.399  35.077  78.851
27536DT     SC378992  65.667  34.964  78.708
27537DA     BB178993  65.076  35.663  78.549
27537DA     BB278994  65.060  35.564  78.902
27537DA     BB378995  65.214  35.662  79.013
27537DA     SC178996  65.421  35.433  78.971
27537DA     SC278997  65.533  35.258  79.109
27537DA     SC378998  65.708  35.252  78.922
27537DA     SC478999  65.521  35.445  78.845
27538DA     BB179000  64.955  35.750  79.192
27538DA     BB279001  65.108  35.563  79.468
27538DA     BB379002  65.270  35.674  79.551
27538DA     SC179003  65.484  35.549  79.364
27538DA     SC279004  65.677  35.392  79.383
27538DA     SC379005  65.756  35.495  79.161
27538DA     SC479006  65.517  35.626  79.227
27539DG     BB179007  65.094  35.653  79.804
27539DG     BB279008  65.372  35.454  79.922
27539DG     BB379009  65.517  35.572  79.989
27539DG     SC179010  65.657  35.594  79.718
27539DG     SC279011  65.927  35.484  79.651
27539DG     SC379012  65.826  35.655  79.432
27539DG     SC479013  65.613  35.709  79.616
27540DA     BB179014  65.491  35.363  80.259
27540DA     BB279015  65.842  35.269  80.213
27540DA     BB379016  65.971  35.429  80.273
27540DA     SC179017  65.981  35.559  79.990
27540DA     SC279018  66.148  35.590  79.808
27540DA     SC379019  65.994  35.779  79.727
27540DA     SC479020  65.873  35.673  79.957
27541DG     BB179021  66.068  35.207  80.461
27541DG     BB279022  66.376  35.248  80.276
27541DG     BB379023  66.475  35.407  80.345
27541DG     SC179024  66.341  35.604  80.152
27541DG     SC279025  66.476  35.751  79.931
27541DG     SC379026  66.200  35.850  79.970
27541DG     SC479027  66.204  35.674  80.196
27542DT     BB179028  66.666  35.373  80.427
27542DT     BB279029  66.885  35.508  80.175
27542DT     BB379030  66.949  35.697  80.230
27542DT     SC179031  66.716  35.802  80.173
27542DT     SC279032  66.735  35.928  79.999
27542DT     SC379033  66.484  35.924  80.204
27543DT     BB179034  67.193  35.592  80.277
27543DT     BB279035  67.255  35.862  80.046
27543DT     BB379036  67.276  36.040  80.150
27543DT     SC179037  67.017  36.054  80.194
27543DT     SC279038  66.934  36.216  80.080
27543DT     SC379039  66.788  36.061  80.324
27544DA     BB179040  67.622  36.019  79.912
27544DA     BB279041  67.485  36.358  79.875
27544DA     BB379042  67.526  36.473  80.049
27544DA     SC179043  67.261  36.396  80.192
27544DA     SC279044  67.047  36.506  80.258
27544DA     SC379045  67.022  36.312  80.424
27544DA     SC479046  67.264  36.268  80.290
27545DA     BB179047  67.678  36.705  79.858
27545DA     BB279048  67.429  36.949  79.972
27545DA     BB379049  67.483  37.025  80.164
27545DA     SC179050  67.324  36.809  80.321
27545DA     SC279051  67.120  36.796  80.463
27545DA     SC379052  67.220  36.577  80.552
27545DA     SC479053  67.403  36.676  80.364
27546DT     BB179054  67.557  37.245  80.220
27546DT     BB279055  67.249  37.351  80.375
27546DT     BB379056  67.279  37.379  80.578
27546DT     SC179057  67.284  37.120  80.621
27546DT     SC279058  67.107  37.062  80.729
27546DT     SC379059  67.373  36.882  80.689
27547DC     BB179060  67.281  37.669  80.583
27547DC     BB279061  67.017  37.583  80.814
27547DC     BB379062  67.092  37.576  81.007
27547DC     SC179063  67.211  37.347  80.961
27547DC     SC279064  67.112  37.191  81.071
27547DC     SC379065  67.403  37.168  80.931
27548DA     BB179066  66.767  37.839  81.030
27548DA     BB279067  66.723  37.587  81.293
27548DA     BB379068  66.851  37.629  81.458
27548DA     SC179069  67.087  37.457  81.349
27548DA     SC279070  67.201  37.243  81.408
27548DA     SC379071  67.397  37.333  81.267
27548DA     SC479072  67.198  37.531  81.259
27549DA     BB179073  66.565  37.608  81.606
27549DA     BB279074  66.703  37.322  81.789
27549DA     BB379075  66.836  37.389  81.942
27549DA     SC179076  67.089  37.380  81.760
27549DA     SC279077  67.297  37.244  81.740
27549DA     SC379078  67.390  37.444  81.609
27549DA     SC479079  67.129  37.515  81.682
27550DA     BB179080  66.627  37.186  82.083
27550DA     BB279081  66.920  36.984  82.169
27550DA     BB379082  67.036  37.082  82.319
27550DA     SC179083  67.216  37.234  82.115
27550DA     SC279084  67.453  37.228  82.038
27550DA     SC379085  67.410  37.467  81.954
27550DA     SC479086  67.170  37.381  82.071
27551DT     BB179087  67.028  36.971  82.443
27551DT     BB279088  67.369  36.856  82.423
27551DT     BB379089  67.490  36.972  82.545
27551DT     SC179090  67.482  37.172  82.375
27551DT     SC279091  67.676  37.196  82.284
27551DT     SC379092  67.433  37.411  82.275
27552DT     BB179093  67.499  36.748  82.672
27552DT     BB279094  67.841  36.833  82.597
27552DT     BB379095  67.908  36.980  82.727
27552DT     SC179096  67.769  37.164  82.603
27552DT     SC279097  67.903  37.298  82.501
27552DT     SC379098  67.589  37.352  82.559
27553DT     BB179099  68.056  36.787  82.825
27553DT     BB279100  68.287  37.049  82.735
27553DT     BB379101  68.290  37.194  82.882
27553DT     SC179102  68.057  37.288  82.806
27553DT     SC279103  68.084  37.482  82.718
27553DT     SC379104  67.802  37.354  82.814
27554DC     BB179105  68.533  37.105  82.944
27554DC     BB279106  68.576  37.457  82.876
27554DC     BB379107  68.528  37.568  83.044
27554DC     SC179108  68.271  37.528  83.006
27554DC     SC279109  68.178  37.713  82.948
27554DC     SC379110  68.024  37.446  83.047
27555DA     BB179111  68.908  37.693  82.916
27555DA     BB279112  68.703  37.991  82.972
27555DA     BB379113  68.672  38.022  83.181
27555DA     SC179114  68.410  37.855  83.192
27555DA     SC279115  68.166  37.895  83.225
27555DA     SC379116  68.154  37.647  83.286
27555DA     SC479117  68.423  37.699  83.229
27556DA     BB179118  68.790  38.318  83.098
27556DA     BB279119  68.470  38.454  83.213
27556DA     BB379120  68.460  38.450  83.426
27556DA     SC179121  68.331  38.167  83.439
27556DA     SC279122  68.110  38.067  83.499
27556DA     SC379123  68.240  37.848  83.528
27556DA     SC479124  68.429  38.041  83.453
27557DA     BB179125  68.390  38.765  83.369
27557DA     BB279126  68.068  38.700  83.531
27557DA     BB379127  68.094  38.679  83.742
27557DA     SC179128  68.137  38.371  83.730
27557DA     SC279129  68.014  38.164  83.798
27557DA     SC379130  68.243  38.049  83.785
27557DA     SC479131  68.288  38.317  83.718
27558DT     BB179132  68.011  38.815  83.853
27558DT     BB279133  67.740  38.613  83.978
27558DT     BB379134  67.781  38.551  84.171
27558DT     SC179135  67.956  38.375  84.086
27558DT     SC279136  67.879  38.176  84.117
27558DT     SC379137  68.186  38.252  84.047
27559DC     BB179138  67.592  38.720  84.258
27559DC     BB279139  67.492  38.396  84.383
27559DC     BB379140  67.591  38.355  84.560
27559DC     SC179141  67.815  38.306  84.434
27559DC     SC279142  67.860  38.096  84.446
27559DC     SC379143  68.066  38.329  84.356
27560DT     BB179144  67.360  38.391  84.695
27560DT     BB279145  67.466  38.058  84.782
27560DT     BB379146  67.599  38.065  84.940
27560DT     SC179147  67.791  38.152  84.784
27560DT     SC279148  67.940  37.999  84.761
27560DT     SC379149  67.976  38.311  84.682
27561DT     BB179150  67.418  37.970  85.134
27561DT     BB279151  67.694  37.739  85.155
27561DT     BB379152  67.831  37.805  85.295
27561DT     SC179153  67.919  37.993  85.134
27561DT     SC279154  68.118  37.944  85.070
27561DT     SC379155  67.973  38.232  85.038
27562DT     BB179156  67.762  37.612  85.485
27562DT     BB279157  68.116  37.562  85.433
27562DT     BB379158  68.224  37.678  85.566
27562DT     SC179159  68.171  37.896  85.430
27562DT     SC279160  68.352  37.967  85.337
27562DT     SC379161  68.077  38.136  85.372
27563DA     BB179162  68.367  37.286  85.605
27563DA     BB279163  68.656  37.507  85.558
27563DA     BB379164  68.695  37.617  85.736
27563DA     SC179165  68.513  37.857  85.657
27563DA     SC279166  68.542  38.096  85.590
27563DA     SC379167  68.296  38.123  85.658
27563DA     SC479168  68.360  37.854  85.705
27564DT     BB179169  68.865  37.579  85.829
27564DT     BB279170  69.036  37.881  85.728
27564DT     BB379171  69.045  38.013  85.887
27564DT     SC179172  68.791  38.074  85.862
27564DT     SC279173  68.773  38.276  85.791
27564DT     SC379174  68.535  38.097  85.919
27565DT     BB179175  69.304  37.959  85.889
27565DT     BB279176  69.282  38.316  85.842
27565DT     BB379177  69.259  38.410  86.025
27565DT     SC179178  69.009  38.334  86.042
27565DT     SC279179  68.880  38.505  86.022
27565DT     SC379180  68.792  38.213  86.131
27566DA     BB179181  69.564  38.589  85.798
27566DA     BB279182  69.345  38.853  85.928
27566DA     BB379183  69.370  38.873  86.139
27566DA     SC179184  69.145  38.669  86.209
27566DA     SC279185  68.917  38.673  86.309
27566DA     SC379186  68.954  38.424  86.354
27566DA     SC479187  69.188  38.516  86.230
27567DT     BB179188  69.441  39.038  86.187
27567DT     BB279189  69.143  39.180  86.331
27567DT     BB379190  69.149  39.163  86.537
27567DT     SC179191  69.095  38.907  86.525
27567DT     SC279192  68.897  38.871  86.602
27567DT     SC379193  69.125  38.646  86.550
27568DG     BB179194  69.105  39.559  86.449
27568DG     BB279195  68.860  39.451  86.691
27568DG     BB379196  68.944  39.435  86.870
27568DG     SC179197  69.026  39.142  86.833
27568DG     SC279198  68.916  38.909  86.984
27568DG     SC379199  69.147  38.828  86.818
27568DG     SC479200  69.167  39.109  86.766
27569DA     BB179201  68.692  39.639  87.002
27569DA     BB279202  68.594  39.375  87.236
27569DA     BB379203  68.732  39.364  87.398
27569DA     SC179204  68.917  39.156  87.259
27569DA     SC279205  68.979  38.916  87.287
27569DA     SC379206  69.186  38.974  87.148
27569DA     SC479207  69.040  39.213  87.172
27570DA     BB179208  68.470  39.402  87.600
27570DA     BB279209  68.551  39.074  87.744
27570DA     BB379210  68.713  39.092  87.882
27570DA     SC179211  68.932  39.039  87.668
27570DA     SC279212  69.095  38.859  87.611
27570DA     SC379213  69.221  39.041  87.481
27570DA     SC479214  68.996  39.167  87.594
27571DT     BB179215  68.697  39.063  88.104
27571DT     BB279216  68.857  38.740  88.114
27571DT     BB379217  69.043  38.756  88.205
27571DT     SC179218  69.146  38.870  87.992
27571DT     SC279219  69.285  38.734  87.899
27571DT     SC379220  69.258  39.052  87.837
27572DA     BB179221  68.845  38.452  88.414
27572DA     BB279222  69.175  38.323  88.318
27572DA     BB379223  69.326  38.407  88.443
27572DA     SC179224  69.380  38.650  88.256
27572DA     SC279225  69.561  38.731  88.106
27572DA     SC379226  69.451  38.961  88.130
27572DA     SC479227  69.297  38.786  88.285
27573DG     BB179228  69.375  38.111  88.514
27573DG     BB279229  69.692  38.172  88.351
27573DG     BB379230  69.818  38.259  88.479
27573DG     SC179231  69.733  38.544  88.406
27573DG     SC279232  69.903  38.748  88.269
27573DG     SC379233  69.651  38.869  88.366
27573DG     SC479234  69.611  38.612  88.485
27574DT     BB179235  69.994  38.155  88.522
27574DT     BB279236  70.240  38.345  88.339
27574DT     BB379237  70.341  38.472  88.467
27574DT     SC179238  70.136  38.634  88.482
27574DT     SC279239  70.183  38.819  88.381
27574DT     SC379240  69.934  38.771  88.583
27575DT     BB179241  70.546  38.311  88.426
27575DT     BB279242  70.664  38.638  88.332
27575DT     BB379243  70.724  38.743  88.500
27575DT     SC179244  70.475  38.785  88.572
27575DT     SC279245  70.429  38.994  88.550
27575DT     SC379246  70.253  38.776  88.715
27576DG     BB179247  71.043  38.728  88.246
27576DG     BB279248  70.980  39.066  88.359
27576DG     BB379249  71.048  39.089  88.545
27576DG     SC179250  70.785  39.004  88.677
27576DG     SC279251  70.605  39.179  88.838
27576DG     SC379252  70.520  38.896  88.855
27576DG     SC479253  70.761  38.848  88.708
27577DC     BB179254  71.221  39.231  88.607
27577DC     BB279255  71.043  39.495  88.777
27577DC     BB379256  71.069  39.478  88.981
27577DC     SC179257  70.904  39.274  88.993
27577DC     SC279258  70.724  39.333  89.095
27577DC     SC379259  70.815  39.029  89.032
27578DT     BB179260  71.261  39.692  89.022
27578DT     BB279261  70.996  39.774  89.254
27578DT     BB379262  71.038  39.693  89.440
27578DT     SC179263  70.976  39.452  89.357
27578DT     SC279264  70.794  39.388  89.452
27578DT     SC379265  71.002  39.197  89.294
27579DA     BB179266  70.998  40.098  89.557
27579DA     BB279267  70.783  39.903  89.781
27579DA     BB379268  70.900  39.813  89.936
27579DA     SC179269  70.953  39.551  89.778
27579DA     SC279270  70.886  39.311  89.790
27579DA     SC379271  71.093  39.267  89.645
27579DA     SC479272  71.087  39.544  89.689
27580DA     BB179273  70.706  39.964  90.163
27580DA     BB279274  70.591  39.631  90.262
27580DA     BB379275  70.727  39.543  90.401
27580DA     SC179276  70.900  39.405  90.182
27580DA     SC279277  70.946  39.173  90.103
27580DA     SC379278  71.158  39.273  89.998
27580DA     SC479279  71.027  39.486  90.126
27581DA     BB179280  70.457  39.515  90.581
27581DA     BB279281  70.499  39.152  90.552
27581DA     BB379282  70.647  39.083  90.690
27581DA     SC179283  70.883  39.114  90.491
27581DA     SC279284  71.038  38.966  90.364
27581DA     SC379285  71.189  39.172  90.346
27581DA     SC479286  70.964  39.253  90.492
27582DG     BB179287  70.399  38.926  90.775
27582DG     BB279288  70.598  38.647  90.659
27582DG     BB379289  70.731  38.597  90.798
27582DG     SC179290  70.949  38.786  90.694
27582DG     SC279291  71.208  38.704  90.572
27582DG     SC379292  71.202  38.996  90.621
27582DG     SC479293  70.953  38.936  90.749
27583DT     BB179294  70.713  38.405  90.866
27583DT     BB279295  70.994  38.242  90.710
27583DT     BB379296  71.151  38.227  90.845
27583DT     SC179297  71.206  38.482  90.821
27583DT     SC279298  71.394  38.506  90.719
27583DT     SC379299  71.238  38.736  90.885
27584DA     BB179300  71.079  37.853  90.669
27584DA     BB279301  71.439  37.919  90.653
27584DA     BB379302  71.526  37.904  90.848
27584DA     SC179303  71.485  38.205  90.916
27584DA     SC279304  71.627  38.408  90.948
27584DA     SC379305  71.426  38.504  91.074
27584DA     SC479306  71.350  38.247  90.992
27585DA     BB179307  71.722  37.698  90.685
27585DA     BB279308  71.999  37.918  90.778
27585DA     BB379309  72.048  37.893  90.984
27585DA     SC179310  71.854  38.116  91.083
27585DA     SC279311  71.870  38.344  91.182
27585DA     SC379312  71.629  38.304  91.261
27585DA     SC479313  71.705  38.071  91.124
27586DT     BB179314  72.230  37.812  91.037
27586DT     BB279315  72.383  38.118  91.149
27586DT     BB379316  72.395  38.120  91.355
27586DT     SC179317  72.138  38.168  91.378
27586DT     SC279318  72.108  38.368  91.451
27586DT     SC379319  71.884  38.134  91.440
27587DA     BB179320  72.776  38.205  91.206
27587DA     BB279321  72.695  38.459  91.458
27587DA     BB379322  72.707  38.376  91.654
27587DA     SC179323  72.409  38.289  91.663
27587DA     SC279324  72.201  38.355  91.783
27587DA     SC379325  72.114  38.122  91.719
27587DA     SC479326  72.374  38.139  91.614
27588DT     BB179327  72.844  38.453  91.759
27588DT     BB279328  72.629  38.648  91.973
27588DT     BB379329  72.607  38.555  92.156
27588DT     SC179330  72.446  38.375  92.054
27588DT     SC279331  72.247  38.406  92.129
27588DT     SC379332  72.353  38.140  91.976
27589DG     BB179333  72.735  38.939  92.187
27589DG     BB279334  72.446  38.874  92.395
27589DG     BB379335  72.499  38.766  92.553
27589DG     SC179336  72.451  38.497  92.415
27589DG     SC279337  72.240  38.298  92.486
27589DG     SC379338  72.428  38.185  92.288
27589DG     SC479339  72.571  38.430  92.332
27590DC     BB179340  72.458  38.860  92.717
27590DC     BB279341  72.183  38.671  92.854
27590DC     BB379342  72.254  38.529  92.986
27590DC     SC179343  72.341  38.378  92.790
27590DC     SC279344  72.220  38.200  92.778
27590DC     SC379345  72.506  38.246  92.633
27591DT     BB179346  72.147  38.681  93.175
27591DT     BB279347  72.005  38.353  93.228
27591DT     BB379348  72.137  38.236  93.337
27591DT     SC179349  72.292  38.203  93.128
27591DT     SC279350  72.280  37.999  93.061
27591DT     SC379351  72.505  38.215  92.972
27592DA     BB179352  71.775  38.213  93.550
27592DA     BB279353  71.905  37.872  93.516
27592DA     BB379354  72.071  37.842  93.646
27592DA     SC179355  72.283  37.931  93.437
27592DA     SC279356  72.464  37.826  93.301
27592DA     SC379357  72.558  38.064  93.279
27592DA     SC479358  72.326  38.086  93.436
27593DG     BB179359  71.909  37.614  93.798
27593DG     BB279360  72.171  37.400  93.669
27593DG     BB379361  72.326  37.401  93.793
27593DG     SC179362  72.464  37.639  93.658
27593DG     SC279363  72.723  37.629  93.509
27593DG     SC379364  72.633  37.909  93.547
27593DG     SC479365  72.428  37.787  93.706
27594DC     BB179366  72.407  37.214  93.913
27594DC     BB279367  72.701  37.134  93.720
27594DC     BB379368  72.871  37.186  93.826
27594DC     SC179369  72.833  37.441  93.778
27594DC     SC279370  72.985  37.512  93.643
27594DC     SC379371  72.786  37.697  93.821
27595DG     BB179372  72.892  36.790  93.736
27595DG     BB279373  73.186  36.969  93.622
27595DG     BB379374  73.307  37.004  93.775
27595DG     SC179375  73.180  37.273  93.847
27595DG     SC279376  73.310  37.541  93.823
27595DG     SC379377  73.052  37.562  93.965
27595DG     SC479378  73.056  37.276  93.948
27596DG     BB179379  73.515  36.848  93.586
27596DG     BB279380  73.703  37.157  93.586
27596DG     BB379381  73.804  37.175  93.756
27596DG     SC179382  73.579  37.321  93.904
27596DG     SC279383  73.585  37.604  93.997
27596DG     SC379384  73.346  37.464  94.101
27596DG     SC479385  73.469  37.234  93.981
27597DA     BB179386  74.039  37.247  93.514
27597DA     BB279387  74.100  37.567  93.681
27597DA     BB379388  74.190  37.536  93.872
27597DA     SC179389  73.919  37.522  94.025
27597DA     SC279390  73.792  37.660  94.188
27597DA     SC379391  73.665  37.444  94.242
27597DA     SC479392  73.853  37.376  94.045
27598DA     BB179393  74.381  37.761  93.724
27598DA     BB279394  74.319  37.971  94.018
27598DA     BB379395  74.411  37.886  94.190
27598DA     SC179396  74.162  37.720  94.272
27598DA     SC279397  73.991  37.720  94.453
27598DA     SC379398  73.950  37.475  94.388
27598DA     SC479399  74.152  37.569  94.217
27599DG     BB179400  74.584  38.153  94.214
27599DG     BB279401  74.426  38.181  94.538
27599DG     BB379402  74.520  38.066  94.670
27599DG     SC179403  74.347  37.820  94.615
27599DG     SC279404  74.155  37.694  94.807
27599DG     SC379405  74.189  37.525  94.566
27599DG     SC479406  74.390  37.718  94.499
27600DA     BB179407  74.622  38.307  94.940
27600DA     BB279408  74.433  38.123  95.195
27600DA     BB379409  74.551  37.963  95.273
27600DA     SC179410  74.448  37.755  95.065
27600DA     SC279411  74.304  37.552  95.063
27600DA     SC379412  74.421  37.495  94.842
27600DA     SC479413  74.534  37.737  94.930
27601DA     BB179414  74.586  38.026  95.637
27601DA     BB279415  74.396  37.721  95.709
27601DA     BB379416  74.528  37.556  95.737
27601DA     SC179417  74.526  37.472  95.437
27601DA     SC279418  74.438  37.284  95.299
27601DA     SC379419  74.611  37.359  95.124
27601DA     SC479420  74.641  37.533  95.342
27602DT     BB179421  74.606  37.396  95.953
27602DT     BB279422  74.395  37.120  95.856
27602DT     BB379423  74.510  36.953  95.818
27602DT     SC179424  74.592  37.052  95.589
27602DT     SC279425  74.506  36.939  95.427
27602DT     SC379426  74.753  37.147  95.403
27603DT     BB179427  74.448  36.799  96.056
27603DT     BB279428  74.339  36.588  95.785
27603DT     BB379429  74.488  36.454  95.735
27603DT     SC179430  74.628  36.641  95.616
27603DT     SC279431  74.628  36.606  95.403
27603DT     SC379432  74.825  36.808  95.563
27604DA     BB179433  74.131  36.247  95.795
27604DA     BB279434  74.265  36.150  95.468
27604DA     BB379435  74.433  36.021  95.492
27604DA     SC179436  74.641  36.252  95.495
27604DA     SC279437  74.822  36.340  95.348
27604DA     SC379438  74.912  36.453  95.560
27604DA     SC479439  74.682  36.313  95.638
27605DT     BB179440  74.398  35.854  95.421
27605DT     BB279441  74.600  35.890  95.124
27605DT     BB379442  74.781  35.793  95.151
27605DT     SC179443  74.869  35.984  95.308
27605DT     SC279444  75.025  36.093  95.209
27605DT     SC379445  74.957  36.106  95.525
27606DC     BB179446  74.684  35.627  94.972
27606DC     BB279447  74.993  35.748  94.831
27606DC     BB379448  75.153  35.642  94.910
27606DC     SC179449  75.135  35.769  95.139
27606DC     SC279450  75.305  35.899  95.161
27606DC     SC379451  75.098  35.813  95.396
27607DA     BB179452  75.181  35.648  94.491
27607DA     BB279453  75.509  35.737  94.629
27607DA     BB379454  75.601  35.566  94.718
27607DA     SC179455  75.481  35.617  95.000
27607DA     SC279456  75.563  35.687  95.225
27607DA     SC379457  75.346  35.583  95.314
27607DA     SC479458  75.342  35.546  95.036
27608DA     BB179459  75.845  35.657  94.516
27608DA     BB279460  76.053  35.695  94.816
27608DA     BB379461  76.109  35.503  94.891
27608DA     SC179462  75.863  35.479  95.080
27608DA     SC279463  75.817  35.482  95.325
27608DA     SC379464  75.598  35.364  95.265
27608DA     SC479465  75.732  35.405  95.023
27609DA     BB179466  76.417  35.621  94.868
27609DA     BB279467  76.445  35.575  95.230
27609DA     BB379468  76.478  35.369  95.277
27609DA     SC179469  76.175  35.303  95.304
27609DA     SC279470  76.015  35.243  95.486
27609DA     SC379471  75.868  35.150  95.297
27609DA     SC479472  76.099  35.249  95.173
27610DA     BB179473  76.738  35.490  95.437
27610DA     BB279474  76.588  35.355  95.744
27610DA     BB379475  76.617  35.144  95.754
27610DA     SC179476  76.351  35.076  95.608
27610DA     SC279477  76.130  34.975  95.664
27610DA     SC379478  76.107  34.934  95.412
27610DA     SC479479  76.356  35.058  95.448
27611DG     BB179480  76.769  35.214  96.015
27611DG     BB279481  76.498  35.028  96.167
27611DG     BB379482  76.536  34.833  96.157
27611DG     SC179483  76.400  34.796  95.885
27611DG     SC279484  76.150  34.640  95.834
27611DG     SC379485  76.276  34.724  95.580
27611DG     SC479486  76.485  34.817  95.752
27612DT     BB179487  76.559  34.716  96.340
27612DT     BB279488  76.245  34.537  96.347
27612DT     BB379489  76.274  34.341  96.286
27612DT     SC179490  76.297  34.415  96.035
27612DT     SC279491  76.126  34.347  95.924
27612DT     SC379492  76.403  34.456  95.797
27613DG     BB179493  76.114  34.325  96.661
27613DG     BB279494  75.923  34.126  96.426
27613DG     BB379495  76.016  33.954  96.392
27613DG     SC179496  76.180  34.060  96.157
27613DG     SC279497  76.153  33.976  95.872
27613DG     SC379498  76.391  34.148  95.909
27613DG     SC479499  76.323  34.127  96.186
27614DT     BB179500  75.920  33.762  96.446
27614DT     BB279501  75.820  33.643  96.120
27614DT     BB379502  75.948  33.493  96.057
27614DT     SC179503  76.138  33.667  96.004
27614DT     SC279504  76.166  33.679  95.791
27614DT     SC379505  76.368  33.794  96.017
27615DG     BB179506  75.567  33.350  96.058
27615DG     BB279507  75.727  33.305  95.737
27615DG     BB379508  75.854  33.152  95.745
27615DG     SC179509  76.093  33.323  95.832
27615DG     SC279510  76.338  33.376  95.670
27615DG     SC379511  76.370  33.476  95.947
27615DG     SC479512  76.118  33.348  95.988
27616DT     BB179513  75.813  32.999  95.616
27616DT     BB279514  76.067  33.047  95.364
27616DT     BB379515  76.224  32.916  95.396
27616DT     SC179516  76.311  33.058  95.599
27616DT     SC279517  76.496  33.152  95.547
27616DT     SC379518  76.376  33.123  95.846
27617DA     BB179519  76.085  32.937  94.999
27617DA     BB279520  76.450  32.969  95.000
27617DA     BB379521  76.540  32.785  95.062
27617DA     SC179522  76.544  32.861  95.364
27617DA     SC279523  76.714  32.919  95.537
27617DA     SC379524  76.532  32.857  95.707
27617DA     SC479525  76.418  32.817  95.453
27618DT     BB179526  76.625  32.751  94.928
27618DT     BB279527  76.954  32.811  95.063
27618DT     BB379528  77.027  32.638  95.151
27618DT     SC179529  76.868  32.667  95.358
27618DT     SC279530  76.985  32.717  95.531
27618DT     SC379531  76.677  32.618  95.532
27619DT     BB179532  77.182  32.673  94.951
27619DT     BB279533  77.396  32.650  95.240
27619DT     BB379534  77.408  32.453  95.304
27619DT     SC179535  77.166  32.464  95.406
27619DT     SC279536  77.179  32.457  95.621
27619DT     SC379537  76.911  32.411  95.445
27620DA     BB179538  77.798  32.616  95.275
27620DA     BB279539  77.774  32.424  95.587
27620DA     BB379540  77.756  32.216  95.545
27620DA     SC179541  77.445  32.220  95.538
27620DA     SC279542  77.256  32.134  95.677
27620DA     SC379543  77.115  32.162  95.465
27620DA     SC479544  77.374  32.243  95.396
27621DA     BB179545  78.027  32.154  95.738
27621DA     BB279546  77.820  31.930  95.942
27621DA     BB379547  77.794  31.743  95.844
27621DA     SC179548  77.534  31.829  95.696
27621DA     SC279549  77.291  31.775  95.705
27621DA     SC379550  77.282  31.871  95.467
27621DA     SC479551  77.550  31.891  95.548
27622DC     BB179552  77.886  31.515  95.893
27622DC     BB279553  77.578  31.368  96.011
27622DC     BB379554  77.515  31.222  95.879
27622DC     SC179555  77.435  31.402  95.705
27622DC     SC279556  77.220  31.401  95.695
27622DC     SC379557  77.420  31.542  95.483
27623DA     BB179558  77.533  30.968  96.221
27623DA     BB279559  77.204  30.910  96.070
27623DA     BB379560  77.220  30.774  95.906
27623DA     SC179561  77.265  30.997  95.694
27623DA     SC279562  77.141  31.099  95.503
27623DA     SC379563  77.370  31.181  95.423
27623DA     SC479564  77.417  31.038  95.660
27624DT     BB179565  77.137  30.545  95.886
27624DT     BB279566  76.857  30.630  95.674
27624DT     BB379567  76.883  30.546  95.486
27624DT     SC179568  77.065  30.724  95.423
27624DT     SC279569  76.987  30.856  95.272
27624DT     SC379570  77.299  30.827  95.356
27625DT     BB179571  76.687  30.340  95.515
27625DT     BB279572  76.576  30.527  95.227
27625DT     BB379573  76.653  30.442  95.054
27625DT     SC179574  76.891  30.540  95.102
27625DT     SC279575  76.936  30.694  94.959
27625DT     SC379576  77.150  30.549  95.155
27626DA     BB179577  76.239  30.480  95.004
27626DA     BB279578  76.402  30.633  94.713
27626DA     BB379579  76.478  30.482  94.583
27626DA     SC179580  76.758  30.471  94.719
27626DA     SC279581  76.993  30.535  94.663
27626DA     SC379582  77.059  30.371  94.849
27626DA     SC479583  76.779  30.364  94.837
27627DA     BB179584  76.299  30.667  94.386
27627DA     BB279585  76.610  30.735  94.204
27627DA     BB379586  76.668  30.564  94.091
27627DA     SC179587  76.842  30.442  94.319
27627DA     SC279588  77.084  30.404  94.366
27627DA     SC379589  77.002  30.230  94.536
27627DA     SC479590  76.771  30.338  94.419
27628DT     BB179591  76.665  30.600  93.911
27628DT     BB279592  77.022  30.618  93.862
27628DT     BB379593  77.091  30.440  93.783
27628DT     SC179594  77.066  30.318  94.014
27628DT     SC279595  77.261  30.274  94.093
27628DT     SC379596  76.981  30.148  94.197
27629DT     BB179597  77.131  30.585  93.568
27629DT     BB279598  77.453  30.445  93.649
27629DT     BB379599  77.466  30.251  93.576
27629DT     SC179600  77.309  30.161  93.766
27629DT     SC279601  77.424  30.039  93.901
27629DT     SC379602  77.101  30.051  93.884
27630DT     BB179603  77.639  30.355  93.407
27630DT     BB279604  77.818  30.090  93.573
27630DT     BB379605  77.772  29.908  93.485
27630DT     SC179606  77.535  29.904  93.598
27630DT     SC279607  77.530  29.749  93.747
27630DT     SC379608  77.273  29.903  93.625
27631DT     BB179609  78.019  29.904  93.378
27631DT     BB279610  77.994  29.592  93.557
27631DT     BB379611  77.906  29.449  93.438
27631DT     SC179612  77.669  29.557  93.470
27631DT     SC279613  77.546  29.428  93.589
27631DT     SC379614  77.441  29.678  93.412
27632DA     BB179615  78.263  29.270  93.568
27632DA     BB279616  77.995  29.025  93.615
27632DA     BB379617  77.937  28.942  93.428
27632DA     SC179618  77.716  29.155  93.375
27632DA     SC279619  77.467  29.164  93.367
27632DA     SC379620  77.500  29.379  93.231
27632DA     SC479621  77.757  29.286  93.291
27633DA     BB179622  77.999  28.635  93.550
27633DA     BB279623  77.646  28.553  93.495
27633DA     BB379624  77.612  28.503  93.291
27633DA     SC179625  77.545  28.795  93.205
27633DA     SC279626  77.345  28.924  93.131
27633DA     SC379627  77.515  29.091  93.035
27633DA     SC479628  77.666  28.886  93.151
27634DT     BB179629  77.558  28.291  93.200
27634DT     BB279630  77.211  28.365  93.135
27634DT     BB379631  77.176  28.371  92.931
27634DT     SC179632  77.295  28.604  92.910
27634DT     SC279633  77.148  28.755  92.864
27634DT     SC379634  77.469  28.788  92.838
27635DA     BB179635  76.892  28.087  93.056
27635DA     BB279636  76.714  28.336  92.853
27635DA     BB379637  76.747  28.299  92.645
27635DA     SC179638  76.998  28.483  92.628
27635DA     SC279639  77.060  28.701  92.525
27635DA     SC379640  77.302  28.621  92.550
27635DA     SC479641  77.141  28.414  92.651
27636DA     BB179642  76.420  28.293  92.631
27636DA     BB279643  76.442  28.591  92.417
27636DA     BB379644  76.490  28.535  92.217
27636DA     SC179645  76.798  28.557  92.259
27636DA     SC279646  76.984  28.706  92.186
27636DA     SC379647  77.138  28.511  92.249
27636DA     SC479648  76.877  28.424  92.304
27637DA     BB179649  76.226  28.717  92.186
27637DA     BB279650  76.437  28.946  91.992
27637DA     BB379651  76.477  28.865  91.799
27637DA     SC179652  76.738  28.720  91.888
27637DA     SC279653  76.983  28.742  91.850
27637DA     SC379654  76.996  28.497  91.927
27637DA     SC479655  76.725  28.567  91.937
27638DT     BB179656  76.407  28.978  91.692
27638DT     BB279657  76.715  29.124  91.573
27638DT     BB379658  76.775  29.031  91.398
27638DT     SC179659  76.854  28.818  91.529
27638DT     SC279660  77.068  28.805  91.523
27638DT     SC379661  76.867  28.567  91.611
27639DA     BB179662  76.792  29.453  91.405
27639DA     BB279663  77.104  29.322  91.263
27639DA     BB379664  77.065  29.225  91.077
27639DA     SC179665  77.018  28.945  91.204
27639DA     SC279666  77.134  28.724  91.211
27639DA     SC379667  76.905  28.629  91.277
27639DA     SC479668  76.867  28.905  91.242
27640DC     BB179669  77.154  29.318  90.972
27640DC     BB279670  77.405  29.074  90.885
27640DC     BB379671  77.342  28.961  90.724
27640DC     SC179672  77.173  28.827  90.873
27640DC     SC279673  77.242  28.624  90.894
27640DC     SC379674  76.946  28.733  90.968
27641DA     BB179675  77.730  29.101  90.637
27641DA     BB279676  77.712  28.748  90.540
27641DA     BB379677  77.590  28.725  90.367
27641DA     SC179678  77.328  28.680  90.529
27641DA     SC279679  77.170  28.494  90.577
27641DA     SC379680  77.002  28.678  90.638
27641DA     SC479681  77.238  28.810  90.561
27642DT     BB179682  77.665  28.669  90.170
27642DT     BB279683  77.527  28.336  90.155
27642DT     BB379684  77.367  28.331  90.024
27642DT     SC179685  77.212  28.455  90.195
27642DT     SC279686  77.062  28.319  90.267
27642DT     SC379687  77.058  28.641  90.301
27643DA     BB179688  77.602  28.027  89.843
27643DA     BB279689  77.262  27.893  89.869
27643DA     BB379690  77.139  27.971  89.713
27643DA     SC179691  77.042  28.216  89.879
27643DA     SC279692  76.831  28.294  89.986
27643DA     SC379693  76.939  28.527  89.981
27643DA     SC479694  77.126  28.352  89.866
27644DG     BB179695  77.078  27.684  89.562
27644DG     BB279696  76.736  27.744  89.665
27644DG     BB379697  76.638  27.841  89.521
27644DG     SC179698  76.710  28.120  89.625
27644DG     SC279699  76.520  28.319  89.738
27644DG     SC379700  76.787  28.440  89.698
27644DG     SC479701  76.846  28.188  89.574
27645DT     BB179702  76.438  27.764  89.378
27645DT     BB279703  76.174  27.946  89.544
27645DT     BB379704  76.101  28.094  89.419
27645DT     SC179705  76.313  28.243  89.458
27645DT     SC279706  76.259  28.416  89.574
27645DT     SC379707  76.535  28.377  89.409
27646DG     BB179708  75.775  27.860  89.496
27646DG     BB279709  75.711  28.205  89.582
27646DG     BB379710  75.661  28.307  89.419
27646DG     SC179711  75.948  28.386  89.350
27646DG     SC279712  76.061  28.662  89.356
27646DG     SC379713  76.252  28.473  89.233
27646DG     SC479714  76.035  28.288  89.258
27647DT     BB179715  75.463  28.401  89.407
27647DT     BB279716  75.550  28.746  89.469
27647DT     BB379717  75.543  28.853  89.292
27647DT     SC179718  75.769  28.746  89.209
27647DT     SC279719  75.923  28.896  89.209
27647DT     SC379720  75.938  28.607  89.064
27648DA     BB179721  75.333  29.043  89.600
27648DA     BB279722  75.558  29.288  89.444
27648DA     BB379723  75.489  29.338  89.249
27648DA     SC179724  75.653  29.115  89.107
27648DA     SC279725  75.849  29.099  88.954
27648DA     SC379726  75.760  28.865  88.896
27648DA     SC479727  75.580  28.973  89.083
27649DT     BB179728  75.449  29.510  89.250
27649DT     BB279729  75.729  29.624  89.054
27649DT     BB379730  75.674  29.643  88.856
27649DT     SC179731  75.677  29.382  88.822
27649DT     SC279732  75.842  29.329  88.695
27649DT     SC379733  75.593  29.137  88.774
27650DT     BB179734  75.702  29.897  88.908
27650DT     BB279735  75.920  29.832  88.628
27650DT     BB379736  75.810  29.828  88.452
27650DT     SC179737  75.711  29.592  88.510
27650DT     SC279738  75.792  29.446  88.375
27650DT     SC379739  75.535  29.405  88.568
27651DA     BB179740  76.141  30.083  88.403
27651DA     BB279741  76.119  29.865  88.108
27651DA     BB379742  75.951  29.919  87.988
27651DA     SC179743  75.755  29.725  88.132
27651DA     SC279744  75.632  29.514  88.079
27651DA     SC379745  75.480  29.578  88.275
27651DA     SC479746  75.670  29.783  88.256
27652DT     BB179747  75.986  29.996  87.808
27652DT     BB279748  75.878  29.713  87.612
27652DT     BB379749  75.690  29.749  87.533
27652DT     SC179750  75.576  29.711  87.766
27652DT     SC279751  75.462  29.529  87.761
27652DT     SC379752  75.440  29.759  87.987
27653DT     BB179753  75.787  29.790  87.277
27653DT     BB279754  75.536  29.535  87.233
27653DT     BB379755  75.352  29.622  87.200
27653DT     SC179756  75.329  29.689  87.453
27653DT     SC279757  75.174  29.570  87.544
27653DT     SC379758  75.307  29.838  87.669
27654DC     BB179759  75.342  29.566  86.923
27654DC     BB279760  75.035  29.423  87.048
27654DC     BB379761  74.883  29.563  87.040
27654DC     SC179762  74.981  29.692  87.247
27654DC     SC279763  74.849  29.667  87.415
27654DC     SC379764  75.087  29.886  87.391
27655DG     BB179765  74.728  29.274  86.792
27655DG     BB279766  74.488  29.363  87.047
27655DG     BB379767  74.389  29.527  86.992
27655DG     SC179768  74.588  29.720  87.123
27655DG     SC279769  74.533  29.897  87.357
27655DG     SC379770  74.796  29.960  87.236
27655DG     SC479771  74.714  29.771  87.038
27656DT     BB179772  74.145  29.554  86.938
27656DT     BB279773  74.032  29.717  87.240
27656DT     BB379774  73.982  29.914  87.200
27656DT     SC179775  74.235  29.982  87.183
27656DT     SC279776  74.286  30.107  87.351
27656DT     SC379777  74.462  30.069  87.082
27657DC     BB179778  73.699  29.881  87.213
27657DC     BB279779  73.768  30.134  87.461
27657DC     BB379780  73.752  30.322  87.376
27657DC     SC179781  73.981  30.294  87.251
27657DC     SC279782  74.126  30.426  87.337
27657DC     SC379783  74.154  30.272  87.053
27658DT     BB179784  73.512  30.380  87.505
27658DT     BB279785  73.737  30.640  87.613
27658DT     BB379786  73.726  30.801  87.484
27658DT     SC179787  73.863  30.673  87.300
27658DT     SC279788  74.057  30.764  87.279
27658DT     SC379789  73.921  30.555  87.072
27659DT     BB179790  73.599  30.945  87.676
27659DT     BB279791  73.898  31.133  87.602
27659DT     BB379792  73.862  31.262  87.444
27659DT     SC179793  73.868  31.065  87.271
27659DT     SC279794  74.045  31.082  87.149
27659DT     SC379795  73.788  30.894  87.087
27660DA     BB179796  74.044  31.450  87.771
27660DA     BB279797  74.235  31.530  87.468
27660DA     BB379798  74.123  31.662  87.343
27660DA     SC179799  73.987  31.432  87.182
27660DA     SC279800  73.996  31.338  86.951
27660DA     SC379801  73.766  31.237  87.006
27660DA     SC479802  73.844  31.379  87.234
27661DA     BB179803  74.420  31.787  87.384
27661DA     BB279804  74.449  31.764  87.019
27661DA     BB379805  74.318  31.903  86.925
27661DA     SC179806  74.080  31.704  86.907
27661DA     SC279807  73.957  31.579  86.729
27661DA     SC379808  73.769  31.559  86.902
27661DA     SC479809  73.974  31.703  87.028
27662DA     BB179810  74.616  31.940  86.797
27662DA     BB279811  74.456  31.864  86.476
27662DA     BB379812  74.323  32.021  86.420
27662DA     SC179813  74.076  31.894  86.561
27662DA     SC279814  73.861  31.787  86.494
27662DA     SC379815  73.783  31.842  86.733
27662DA     SC479816  74.046  31.938  86.712
27663DA     BB179817  74.514  31.973  86.159
27663DA     BB279818  74.203  31.904  85.977
27663DA     BB379819  74.089  32.083  85.955
27663DA     SC179820  73.929  32.042  86.219
27663DA     SC279821  73.695  31.988  86.287
27663DA     SC379822  73.759  32.088  86.514
27663DA     SC479823  73.988  32.110  86.353
27664DG     BB179824  74.130  32.003  85.660
27664DG     BB279825  73.769  31.978  85.668
27664DG     BB379826  73.688  32.159  85.659
27664DG     SC179827  73.684  32.199  85.963
27664DG     SC279828  73.440  32.217  86.134
27664DG     SC379829  73.684  32.284  86.289
27664DG     SC479830  73.812  32.262  86.034
27665DT     BB179831  73.564  32.206  85.494
27665DT     BB279832  73.235  32.208  85.642
27665DT     BB379833  73.176  32.403  85.679
27665DT     SC179834  73.337  32.421  85.886
27665DT     SC279835  73.220  32.428  86.067
27665DT     SC379836  73.535  32.502  86.039
27666DT     BB179837  73.000  32.381  85.477
27666DT     BB279838  72.800  32.478  85.761
27666DT     BB379839  72.802  32.684  85.782
27666DT     SC179840  73.047  32.679  85.878
27666DT     SC279841  73.043  32.731  86.086
27666DT     SC379842  73.306  32.721  85.898
27667DT     BB179843  72.547  32.695  85.695
27667DT     BB279844  72.540  32.863  86.014
27667DT     BB379845  72.590  33.062  85.991
27667DT     SC179846  72.844  33.002  85.957
27667DT     SC279847  72.956  33.070  86.127
27667DT     SC379848  73.080  32.978  85.842
27668DT     BB179849  72.331  33.143  86.031
27668DT     BB279850  72.520  33.330  86.275
27668DT     BB379851  72.589  33.506  86.191
27668DT     SC179852  72.773  33.378  86.055
27668DT     SC279853  72.967  33.426  86.135
27668DT     SC379854  72.909  33.283  85.850
27669DA     BB179855  72.384  33.641  86.534
27669DA     BB279856  72.711  33.807  86.530
27669DA     BB379857  72.713  33.964  86.385
27669DA     SC179858  72.817  33.782  86.155
27669DA     SC279859  73.025  33.754  86.021
27669DA     SC379860  72.876  33.634  85.851
27669DA     SC479861  72.707  33.712  86.061
27670DC     BB179862  72.724  34.188  86.428
27670DC     BB279863  73.068  34.233  86.330
27670DC     BB379864  73.077  34.341  86.154
27670DC     SC179865  72.998  34.135  86.012
27670DC     SC279866  73.162  34.065  85.891
27670DC     SC379867  72.850  33.984  85.855
27671DA     BB179868  73.321  34.581  86.401
27671DA     BB279869  73.511  34.520  86.093
27671DA     BB379870  73.443  34.650  85.937
27671DA     SC179871  73.229  34.451  85.831
27671DA     SC279872  73.193  34.310  85.628
27671DA     SC379873  72.946  34.308  85.698
27671DA     SC479874  73.080  34.464  85.890
27672DT     BB179875  73.567  34.812  85.850
27672DT     BB279876  73.645  34.636  85.545
27672DT     BB379877  73.549  34.726  85.385
27672DT     SC179878  73.317  34.625  85.457
27672DT     SC279879  73.257  34.476  85.315
27672DT     SC379880  73.067  34.613  85.539
27673DC     BB179881  73.788  34.818  85.298
27673DC     BB279882  73.662  34.616  85.027
27673DC     BB379883  73.541  34.731  84.903
27673DC     SC179884  73.346  34.728  85.079
27673DC     SC279885  73.184  34.609  85.003
27673DC     SC379886  73.168  34.814  85.253
27674DT     BB179887  73.738  34.700  84.732
27674DT     BB279888  73.447  34.563  84.569
27674DT     BB379889  73.337  34.715  84.482
27674DT     SC179890  73.246  34.793  84.715
27674DT     SC279891  73.036  34.748  84.729
27674DT     SC379892  73.201  34.946  84.926
27675DA     BB179893  73.404  34.390  84.223
27675DA     BB279894  73.049  34.482  84.207
27675DA     BB379895  73.026  34.671  84.112
27675DA     SC179896  73.044  34.834  84.377
27675DA     SC279897  72.891  34.969  84.522
27675DA     SC379898  73.106  35.072  84.616
27675DA     SC479899  73.188  34.887  84.422
27676DA     BB179900  72.818  34.474  83.952
27676DA     BB279901  72.556  34.712  84.048
27676DA     BB379902  72.581  34.896  83.943
27676DA     SC179903  72.761  35.025  84.162
27676DA     SC279904  72.744  35.207  84.331
27676DA     SC379905  73.001  35.203  84.331
27676DA     SC479906  72.920  35.008  84.147
27677DA     BB179907  72.265  34.844  83.857
27677DA     BB279908  72.186  35.168  84.010
27677DA     BB379909  72.253  35.328  83.885
27677DA     SC179910  72.534  35.346  84.019
27677DA     SC279911  72.658  35.505  84.165
27677DA     SC379912  72.869  35.386  84.081
27677DA     SC479913  72.653  35.260  83.954
27678DT     BB179914  72.122  35.472  83.768
27678DT     BB279915  72.181  35.765  83.971
27678DT     BB379916  72.298  35.900  83.867
27678DT     SC179917  72.513  35.755  83.903
27678DT     SC279918  72.646  35.856  84.039
27678DT     SC379919  72.723  35.605  83.849
27679DA     BB179920  71.970  36.165  83.936
27679DA     BB279921  72.271  36.349  84.035
27679DA     BB379922  72.368  36.431  83.863
27679DA     SC179923  72.549  36.183  83.816
27679DA     SC279924  72.791  36.126  83.834
27679DA     SC379925  72.735  35.931  83.677
27679DA     SC479926  72.495  36.069  83.717
27680DA     BB179927  72.354  36.755  83.977
27680DA     BB279928  72.720  36.753  83.994
27680DA     BB379929  72.803  36.809  83.805
27680DA     SC179930  72.819  36.517  83.699
27680DA     SC279931  72.995  36.349  83.645
27680DA     SC379932  72.815  36.235  83.502
27680DA     SC479933  72.693  36.462  83.614
27681DT     BB179934  72.918  36.994  83.773
27681DT     BB279935  73.240  36.833  83.778
27681DT     BB379936  73.323  36.835  83.588
27681DT     SC179937  73.161  36.647  83.505
27681DT     SC279938  73.272  36.466  83.472
27681DT     SC379939  72.971  36.526  83.368
27682DT     BB179940  73.497  37.007  83.690
27682DT     BB279941  73.692  36.724  83.582
27682DT     BB379942  73.733  36.739  83.379
27682DT     SC179943  73.486  36.672  83.317
27682DT     SC279944  73.486  36.476  83.228
27682DT     SC379945  73.241  36.689  83.221
27683DA     BB179946  74.065  36.646  83.621
27683DA     BB279947  74.048  36.407  83.343
27683DA     BB379948  74.088  36.505  83.158
27683DA     SC179949  73.790  36.574  83.102
27683DA     SC279950  73.612  36.504  82.942
27683DA     SC379951  73.498  36.726  83.004
27683DA     SC479952  73.736  36.717  83.152
27684DA     BB179953  74.273  36.235  83.186
27684DA     BB279954  74.106  36.129  82.877
27684DA     BB379955  74.161  36.257  82.715
27684DA     SC179956  73.926  36.455  82.760
27684DA     SC279957  73.715  36.520  82.644
27684DA     SC379958  73.729  36.735  82.783
27684DA     SC479959  73.953  36.582  82.854
27685DT     BB179960  74.245  36.157  82.601
27685DT     BB279961  73.987  36.150  82.348
27685DT     BB379962  74.019  36.301  82.211
27685DT     SC179963  73.935  36.483  82.380
27685DT     SC279964  73.747  36.562  82.313
27685DT     SC379965  73.937  36.693  82.540
27686DA     BB179966  73.961  35.936  82.007
27686DA     BB279967  73.750  36.192  81.851
27686DA     BB379968  73.870  36.333  81.746
27686DA     SC179969  73.900  36.525  81.989
27686DA     SC279970  73.821  36.751  82.057
27686DA     SC379971  74.017  36.748  82.223
27686DA     SC479972  74.028  36.504  82.085
27687DT     BB179973  73.854  36.340  81.548
27687DT     BB279974  73.670  36.650  81.529
27687DT     BB379975  73.796  36.804  81.472
27687DT     SC179976  73.907  36.811  81.710
27687DT     SC279977  73.851  36.994  81.809
27687DT     SC379978  74.091  36.795  81.899
27688DA     BB179979  73.466  36.814  81.213
27688DA     BB279980  73.519  37.152  81.344
27688DA     BB379981  73.692  37.240  81.255
27688DA     SC179982  73.886  37.138  81.476
27688DA     SC279983  74.022  37.234  81.662
27688DA     SC379984  74.157  37.017  81.648
27688DA     SC479985  73.959  36.997  81.451
27689DT     BB179986  73.660  37.395  81.142
27689DT     BB279987  73.780  37.641  81.377
27689DT     BB379988  73.970  37.704  81.324
27689DT     SC179989  74.076  37.480  81.409
27689DT     SC279990  74.194  37.518  81.585
27689DT     SC379991  74.203  37.248  81.406
27690DC     BB179992  73.847  37.928  81.269
27690DC     BB279993  74.095  38.010  81.518
27690DC     BB379994  74.280  38.031  81.429
27690DC     SC179995  74.305  37.772  81.400
27690DC     SC279996  74.459  37.700  81.532
27690DC     SC379997  74.329  37.536  81.284
27691DA     BB179998  74.192  38.356  81.680
27691DA     BB279999  74.529  38.236  81.759
27691DA     BB380000  74.664  38.283  81.599
27691DA     SC180001  74.617  38.015  81.449
27691DA     SC280002  74.745  37.807  81.398
27691DA     SC380003  74.575  37.773  81.209
27691DA     SC480004  74.503  38.012  81.336
27692DT     BB180005  74.789  38.398  81.658
27692DT     BB280006  75.066  38.168  81.664
27692DT     BB380007  75.177  38.186  81.490
27692DT     SC180008  74.994  38.060  81.351
27692DT     SC280009  75.070  37.868  81.291
27692DT     SC380010  74.807  38.014  81.170
27693DC     BB180011  75.363  38.295  81.644
27693DC     BB280012  75.528  38.021  81.479
27693DC     BB380013  75.589  38.079  81.289
27693DC     SC180014  75.344  38.067  81.198
27693DC     SC280015  75.326  37.902  81.061
27693DC     SC380016  75.113  38.144  81.095
27694DA     BB180017  75.929  37.916  81.477
27694DA     BB280018  75.906  37.770  81.142
27694DA     BB380019  75.959  37.914  80.994
27694DA     SC180020  75.669  38.019  80.956
27694DA     SC280021  75.492  38.012  80.780
27694DA     SC380022  75.391  38.213  80.902
27694DA     SC480023  75.622  38.144  81.045
27695DT     BB180024  76.137  37.899  80.875
27695DT     BB280025  75.976  37.808  80.565
27695DT     BB380026  75.981  37.967  80.434
27695DT     SC180027  75.793  38.093  80.567
27695DT     SC280028  75.613  38.097  80.450
27695DT     SC380029  75.673  38.278  80.712
27696DA     BB180030  76.156  37.659  80.206
27696DA     BB280031  75.896  37.813  79.998
27696DA     BB380032  75.964  37.999  79.920
27696DA     SC180033  75.855  38.167  80.159
27696DA     SC280034  75.674  38.333  80.200
27696DA     SC380035  75.810  38.399  80.407
27696DA     SC480036  75.955  38.194  80.282
27697DT     BB180037  76.006  38.040  79.704
27697DT     BB280038  75.707  38.233  79.644
27697DT     BB380039  75.756  38.432  79.614
27697DT     SC180040  75.803  38.468  79.870
27697DT     SC280041  75.651  38.594  79.953
27697DT     SC380042  75.933  38.519  80.093
27698DA     BB180043  75.522  38.319  79.286
27698DA     BB280044  75.378  38.626  79.427
27698DA     BB380045  75.497  38.795  79.375
27698DA     SC180046  75.676  38.776  79.629
27698DA     SC280047  75.713  38.906  79.839
27698DA     SC380048  75.938  38.783  79.851
27698DA     SC480049  75.812  38.691  79.618
27699DC     BB180050  75.412  38.927  79.259
27699DC     BB280051  75.351  39.172  79.517
27699DC     BB380052  75.487  39.327  79.501
27699DC     SC180053  75.679  39.179  79.600
27699DC     SC280054  75.732  39.251  79.796
27699DC     SC380055  75.906  39.045  79.617
27700DA     BB180056  75.089  39.456  79.540
27700DA     BB280057  75.296  39.636  79.782
27700DA     BB380058  75.427  39.772  79.682
27700DA     SC180059  75.659  39.566  79.655
27700DA     SC280060  75.887  39.531  79.750
27700DA     SC380061  75.927  39.382  79.545
27700DA     SC480062  75.665  39.478  79.520
27701DT     BB180063  75.386  39.942  79.729
27701DT     BB280064  75.672  40.003  79.939
27701DT     BB380065  75.817  40.106  79.833
27701DT     SC180066  75.883  39.890  79.699
27701DT     SC280067  76.079  39.825  79.760
27701DT     SC380068  75.920  39.725  79.496
27702DT     BB180069  75.755  40.311  79.988
27702DT     BB280070  76.109  40.262  80.035
27702DT     BB380071  76.214  40.356  79.883
27702DT     SC180072  76.148  40.169  79.711
27702DT     SC280073  76.322  40.053  79.661
27702DT     SC380074  76.041  40.052  79.501
27703DT     BB180075  76.295  40.541  80.061
27703DT     BB280076  76.601  40.409  79.923
27703DT     BB380077  76.648  40.510  79.748
27703DT     SC180078  76.461  40.384  79.615
27703DT     SC280079  76.551  40.248  79.475
27703DT     SC380080  76.241  40.342  79.475
27704DC     BB180081  76.852  40.634  79.876
27704DC     BB280082  77.008  40.470  79.596
27704DC     BB380083  76.999  40.593  79.429
27704DC     SC180084  76.744  40.542  79.396
27704DC     SC280085  76.717  40.423  79.219
27704DC     SC380086  76.483  40.580  79.379
27705DG     BB180087  77.392  40.509  79.497
27705DG     BB280088  77.298  40.434  79.156
27705DG     BB380089  77.289  40.602  79.049
27705DG     SC180090  76.994  40.655  79.111
27705DG     SC280091  76.770  40.648  78.914
27705DG     SC380092  76.678  40.754  79.175
27705DG     SC480093  76.956  40.739  79.242
27706DC     BB180094  77.421  40.625  78.883
27706DC     BB280095  77.198  40.582  78.604
27706DC     BB380096  77.150  40.766  78.522
27706DC     SC180097  76.990  40.822  78.722
27706DC     SC280098  76.786  40.822  78.653
27706DC     SC380099  76.890  40.944  78.934
27707DT     BB180100  77.298  40.689  78.318
27707DT     BB280101  76.977  40.769  78.175
27707DT     BB380102  76.963  40.973  78.142
27707DT     SC180103  76.931  41.020  78.398
27707DT     SC280104  76.729  41.086  78.434
27707DT     SC380105  76.977  41.110  78.642
27708DA     BB180106  76.852  40.769  77.792
27708DA     BB280107  76.603  41.031  77.855
27708DA     BB380108  76.688  41.223  77.818
27708DA     SC180109  76.786  41.262  78.111
27708DA     SC280110  76.728  41.405  78.308
27708DA     SC380111  76.963  41.347  78.393
27708DA     SC480112  76.935  41.216  78.146
27709DT     BB180113  76.620  41.334  77.662
27709DT     BB280114  76.445  41.588  77.851
27709DT     BB380115  76.557  41.762  77.855
27709DT     SC180116  76.725  41.660  78.028
27709DT     SC280117  76.700  41.759  78.218
27709DT     SC380118  76.949  41.570  78.133
27710DT     BB180119  76.402  41.907  77.665
27710DT     BB280120  76.414  42.131  77.948
27710DT     BB380121  76.578  42.256  77.932
27710DT     SC180122  76.743  42.063  77.997
27710DT     SC280123  76.825  42.103  78.192
27710DT     SC380124  76.937  41.886  77.979
27711DA     BB180125  76.276  42.553  77.963
27711DA     BB280126  76.537  42.644  78.203
27711DA     BB380127  76.701  42.738  78.103
27711DA     SC180128  76.855  42.472  78.054
27711DA     SC280129  77.063  42.362  78.136
27711DA     SC380130  77.048  42.220  77.923
27711DA     SC480131  76.829  42.395  77.915
27712DT     BB180132  76.768  42.961  78.119
27712DT     BB280133  77.054  42.897  78.329
27712DT     BB380134  77.228  42.935  78.224
27712DT     SC180135  77.202  42.714  78.085
27712DT     SC280136  77.356  42.574  78.144
27712DT     SC380137  77.170  42.552  77.880
27713DT     BB180138  77.280  43.167  78.364
27713DT     BB280139  77.571  42.960  78.421
27713DT     BB380140  77.711  42.993  78.272
27713DT     SC180141  77.570  42.856  78.098
27713DT     SC280142  77.672  42.673  78.052
27713DT     SC380143  77.426  42.801  77.884
27714DT     BB180144  77.865  43.119  78.454
27714DT     BB280145  78.069  42.849  78.331
27714DT     BB380146  78.167  42.907  78.158
27714DT     SC180147  77.947  42.888  78.017
27714DT     SC280148  77.964  42.721  77.882
27714DT     SC380149  77.742  42.957  77.866
27715DC     BB180150  78.389  42.905  78.305
27715DC     BB280151  78.453  42.675  78.034
27715DC     BB380152  78.516  42.779  77.866
27715DC     SC180153  78.273  42.866  77.818
27715DC     SC280154  78.198  42.772  77.641
27715DC     SC380155  78.071  43.032  77.786
27716DC     BB180156  78.760  42.676  77.908
27716DC     BB280157  78.673  42.576  77.572
27716DC     BB380158  78.719  42.728  77.439
27716DC     SC180159  78.513  42.870  77.517
27716DC     SC280160  78.366  42.876  77.359
27716DC     SC380161  78.372  43.068  77.620
27717DT     BB180162  78.930  42.585  77.342
27717DT     BB280163  78.728  42.653  77.052
27717DT     BB380164  78.779  42.837  76.972
27717DT     SC180165  78.655  42.964  77.166
27717DT     SC280166  78.480  43.061  77.087
27717DT     SC380167  78.616  43.120  77.375
27718DT     BB180168  78.909  42.726  76.754
27718DT     BB280169  78.659  42.940  76.607
27718DT     BB380170  78.735  43.131  76.583
27718DT     SC180171  78.716  43.180  76.840
27718DT     SC280172  78.561  43.326  76.873
27718DT     SC380173  78.787  43.236  77.087
27719DG     BB180174  78.630  43.012  76.206
27719DG     BB280175  78.473  43.326  76.293
27719DG     BB380176  78.602  43.475  76.269
27719DG     SC180177  78.712  43.459  76.555
27719DG     SC280178  78.679  43.666  76.767
27719DG     SC380179  78.869  43.456  76.853
27719DG     SC480180  78.835  43.361  76.585
27720DC     BB180181  78.560  43.634  76.125
27720DC     BB280182  78.454  43.897  76.350
27720DC     BB380183  78.605  44.037  76.369
27720DC     SC180184  78.745  43.877  76.523
27720DC     SC280185  78.748  43.955  76.723
27720DC     SC380186  78.943  43.724  76.606
27721DA     BB180187  78.233  44.211  76.285
27721DA     BB280188  78.378  44.380  76.576
27721DA     BB380189  78.545  44.500  76.517
27721DA     SC180190  78.753  44.273  76.560
27721DA     SC280191  78.939  44.220  76.718
27721DA     SC380192  79.022  44.061  76.535
27721DA     SC480193  78.790  44.180  76.434
27722DA     BB180194  78.345  44.687  76.695
27722DA     BB280195  78.631  44.727  76.921
27722DA     BB380196  78.784  44.842  76.826
27722DA     SC180197  78.930  44.595  76.706
27722DA     SC280198  79.144  44.473  76.740
27722DA     SC380199  79.105  44.380  76.504
27722DA     SC480200  78.888  44.550  76.557
27723DT     BB180201  78.808  44.998  76.916
27723DT     BB280202  79.126  44.917  77.065
27723DT     BB380203  79.280  44.997  76.952
27723DT     SC180204  79.250  44.813  76.767
27723DT     SC280205  79.420  44.681  76.770
27723DT     SC380206  79.199  44.703  76.534
27724DA     BB180207  79.336  45.111  77.353
27724DA     BB280208  79.655  44.982  77.225
27724DA     BB380209  79.740  45.121  77.086
27724DA     SC180210  79.603  44.994  76.838
27724DA     SC280211  79.670  44.863  76.636
27724DA     SC380212  79.447  44.941  76.536
27724DA     SC480213  79.460  45.054  76.793
27725DG     BB180214  79.977  45.128  77.289
27725DG     BB280215  80.159  44.985  77.011
27725DG     BB380216  80.215  45.128  76.886
27725DG     SC180217  79.960  45.115  76.716
27725DG     SC280218  79.943  45.024  76.432
27725DG     SC380219  79.686  45.141  76.522
27725DG     SC480220  79.835  45.204  76.758
27726DT     BB180221  80.431  45.173  76.845
27726DT     BB280222  80.471  45.030  76.516
27726DT     BB380223  80.478  45.180  76.374
27726DT     SC180224  80.219  45.220  76.393
27726DT     SC280225  80.123  45.154  76.213
27726DT     SC380226  79.989  45.341  76.441
27727DA     BB180227  80.806  44.927  76.319
27727DA     BB280228  80.639  44.969  75.995
27727DA     BB380229  80.675  45.165  75.919
27727DA     SC180230  80.422  45.289  76.052
27727DA     SC280231  80.201  45.380  75.980
27727DA     SC380232  80.199  45.498  76.208
27727DA     SC480233  80.440  45.356  76.197
27728DT     BB180234  80.770  45.156  75.764
27728DT     BB280235  80.498  45.238  75.541
27728DT     BB380236  80.506  45.438  75.490
27728DT     SC180237  80.416  45.509  75.726
27728DT     SC280238  80.216  45.588  75.706
27728DT     SC380239  80.407  45.619  75.966
27729DT     BB180240  80.565  45.334  75.261
27729DT     BB280241  80.273  45.538  75.203
27729DT     BB380242  80.328  45.737  75.190
27729DT     SC180243  80.365  45.753  75.449
27729DT     SC280244  80.212  45.877  75.536
27729DT     SC380245  80.486  45.785  75.681
27730DA     BB180246  80.069  45.617  74.878
27730DA     BB280247  79.952  45.937  75.012
27730DA     BB380248  80.092  46.092  74.967
27730DA     SC180249  80.254  46.055  75.230
27730DA     SC280250  80.294  46.180  75.442
27730DA     SC380251  80.503  46.034  75.466
27730DA     SC480252  80.380  45.955  75.226
27731DA     BB180253  79.816  46.230  74.850
27731DA     BB280254  79.881  46.509  75.079
27731DA     BB380255  80.047  46.624  75.010
27731DA     SC180256  80.258  46.460  75.169
27731DA     SC280257  80.409  46.493  75.365
27731DA     SC380258  80.541  46.295  75.271
27731DA     SC480259  80.327  46.336  75.094
27732DT     BB180260  80.024  46.821  74.939
27732DT     BB280261  80.177  46.991  75.217
27732DT     BB380262  80.365  47.059  75.164
27732DT     SC180263  80.465  46.817  75.177
27732DT     SC280264  80.598  46.803  75.345
27732DT     SC380265  80.577  46.590  75.102
27733DA     BB180266  80.186  47.417  75.298
27733DA     BB280267  80.515  47.395  75.459
27733DA     BB380268  80.669  47.447  75.321
27733DA     SC180269  80.711  47.155  75.222
27733DA     SC280270  80.886  46.977  75.239
27733DA     SC380271  80.772  46.874  75.034
27733DA     SC480272  80.627  47.107  75.093
27734DA     BB180273  80.779  47.687  75.529
27734DA     BB280274  81.095  47.503  75.556
27734DA     BB380275  81.221  47.548  75.389
27734DA     SC180276  81.113  47.314  75.214
27734DA     SC280277  81.196  47.096  75.126
27734DA     SC380278  81.007  47.117  74.954
27734DA     SC480279  80.990  47.346  75.115
27735DT     BB180280  81.417  47.663  75.397
27735DT     BB280281  81.630  47.374  75.362
27735DT     BB380282  81.724  47.377  75.178
27735DT     SC180283  81.503  47.307  75.055
27735DT     SC280284  81.524  47.107  74.979
27735DT     SC380285  81.294  47.319  74.895
27736DT     BB180286  81.973  47.443  75.285
27736DT     BB280287  82.029  47.132  75.111
27736DT     BB380288  82.083  47.169  74.915
27736DT     SC180289  81.837  47.233  74.851
27736DT     SC280290  81.756  47.081  74.722
27736DT     SC380291  81.631  47.376  74.771
27737DA     BB180292  82.365  46.910  75.084
27737DA     BB280293  82.249  46.763  74.769
27737DA     BB380294  82.332  46.868  74.603
27737DA     SC180295  82.095  47.070  74.582
27737DA     SC280296  81.907  47.117  74.425
27737DA     SC380297  81.901  47.349  74.535
27737DA     SC480298  82.109  47.208  74.662
27738DG     BB180299  82.431  46.582  74.561
27738DG     BB280300  82.216  46.607  74.270
27738DG     BB380301  82.307  46.711  74.127
27738DG     SC180302  82.198  46.981  74.221
27738DG     SC280303  82.005  47.154  74.073
27738DG     SC380304  82.114  47.296  74.308
27738DG     SC480305  82.281  47.064  74.331
27739DA     BB180306  82.201  46.434  73.957
27739DA     BB280307  82.012  46.653  73.733
27739DA     BB380308  82.145  46.764  73.608
27739DA     SC180309  82.168  47.004  73.805
27739DA     SC280310  82.095  47.243  73.814
27739DA     SC380311  82.278  47.271  73.991
27739DA     SC480312  82.288  47.002  73.911
27740DT     BB180313  82.107  46.713  73.451
27740DT     BB280314  81.945  47.016  73.341
27740DT     BB380315  82.083  47.140  73.249
27740DT     SC180316  82.189  47.206  73.480
27740DT     SC280317  82.143  47.412  73.523
27740DT     SC380318  82.367  47.232  73.673
27741DA     BB180319  81.739  47.097  73.011
27741DA     BB280320  81.826  47.453  73.025
27741DA     BB380321  82.006  47.490  72.916
27741DA     SC180322  82.193  47.447  73.160
27741DA     SC280323  82.340  47.585  73.306
27741DA     SC380324  82.454  47.363  73.366
27741DA     SC480325  82.251  47.299  73.184
27742DT     BB180326  81.986  47.599  72.757
27742DT     BB280327  82.149  47.896  72.881
27742DT     BB380328  82.342  47.907  72.808
27742DT     SC180329  82.423  47.718  72.971
27742DT     SC280330  82.553  47.804  73.120
27742DT     SC380331  82.519  47.488  73.057
27743DT     BB180332  82.276  48.109  72.634
27743DT     BB280333  82.553  48.242  72.823
27743DT     BB380334  82.732  48.190  72.733
27743DT     SC180335  82.711  47.943  72.819
27743DT     SC280336  82.861  47.906  72.969
27743DT     SC380337  82.687  47.680  72.816
27744DT     BB180338  82.782  48.445  72.632
27744DT     BB280339  83.078  48.369  72.823
27744DT     BB380340  83.218  48.275  72.704
27744DT     SC180341  83.081  48.050  72.708
27744DT     SC280342  83.189  47.904  72.823
27744DT     SC380343  82.940  47.844  72.624
27745DA     BB180344  83.429  48.598  72.868
27745DA     BB280345  83.633  48.298  72.918
27745DA     BB380346  83.726  48.241  72.734
27745DA     SC180347  83.494  48.053  72.646
27745DA     SC280348  83.455  47.809  72.618
27745DA     SC380349  83.260  47.878  72.466
27745DA     SC480350  83.378  48.117  72.554
27746DT     BB180351  83.935  48.251  72.711
27746DT     BB280352  83.997  47.897  72.735
27746DT     BB380353  84.047  47.821  72.548
27746DT     SC180354  83.797  47.836  72.468
27746DT     SC280355  83.718  47.637  72.445
27746DT     SC380356  83.585  47.909  72.329
27747DA     BB180357  84.345  47.698  72.815
27747DA     BB280358  84.233  47.404  72.628
27747DA     BB380359  84.308  47.410  72.428
27747DA     SC180360  84.060  47.561  72.315
27747DA     SC280361  83.868  47.512  72.164
27747DA     SC380362  83.850  47.767  72.138
27747DA     SC480363  84.067  47.721  72.310
27748DC     BB180364  84.436  47.270  72.379
27748DC     BB280365  84.213  47.076  72.173
27748DC     BB380366  84.254  47.110  71.973
27748DC     SC180367  84.140  47.346  71.982
27748DC     SC280368  83.957  47.341  71.868
27748DC     SC380369  84.110  47.608  71.972
27749DA     BB180370  84.252  46.695  72.034
27749DA     BB280371  84.044  46.767  71.740
27749DA     BB380372  84.167  46.822  71.574
27749DA     SC180373  84.160  47.126  71.639
27749DA     SC280374  84.061  47.333  71.542
27749DA     SC380375  84.238  47.458  71.680
27749DA     SC480376  84.278  47.185  71.731
27750DT     BB180377  84.174  46.699  71.414
27750DT     BB280378  83.975  46.903  71.192
27750DT     BB380379  84.098  46.996  71.054
27750DT     SC180380  84.185  47.166  71.234
27750DT     SC280381  84.108  47.362  71.189
27750DT     SC380382  84.349  47.294  71.395
27751DA     BB180383  83.801  46.802  70.829
27751DA     BB280384  83.824  47.148  70.708
27751DA     BB380385  84.001  47.174  70.592
27751DA     SC180386  84.178  47.259  70.833
27751DA     SC280387  84.290  47.466  70.916
27751DA     SC380388  84.436  47.307  71.054
27751DA     SC480389  84.259  47.144  70.910
27752DC     BB180390  83.987  47.213  70.389
27752DC     BB280391  84.074  47.563  70.408
27752DC     BB380392  84.266  47.592  70.337
27752DC     SC180393  84.370  47.490  70.555
27752DC     SC280394  84.467  47.645  70.668
27752DC     SC380395  84.504  47.327  70.714
27753DA     BB180396  84.017  47.860  70.133
27753DA     BB280397  84.303  48.049  70.265
27753DA     BB380398  84.479  48.006  70.152
27753DA     SC180399  84.567  47.769  70.333
27753DA     SC280400  84.748  47.719  70.497
27753DA     SC380401  84.692  47.473  70.454
27753DA     SC480402  84.518  47.621  70.292
27754DT     BB180403  84.555  48.155  70.049
27754DT     BB280404  84.836  48.217  70.267
27754DT     BB380405  85.009  48.141  70.182
27754DT     SC180406  84.939  47.895  70.240
27754DT     SC280407  85.068  47.818  70.393
27754DT     SC380408  84.869  47.643  70.207
27755DA     BB180409  85.065  48.538  70.306
27755DA     BB280410  85.342  48.335  70.436
27755DA     BB380411  85.471  48.276  70.277
27755DA     SC180412  85.319  48.010  70.220
27755DA     SC280413  85.359  47.766  70.247
27755DA     SC380414  85.174  47.737  70.072
27755DA     SC480415  85.203  48.013  70.109
27756DG     BB180416  85.660  48.430  70.464
27756DG     BB280417  85.817  48.106  70.491
27756DG     BB380418  85.924  48.068  70.327
27756DG     SC180419  85.693  47.936  70.176
27756DG     SC280420  85.677  47.648  70.098
27756DG     SC380421  85.458  47.804  69.973
27756DG     SC480422  85.596  48.028  70.087
27757DG     BB180423  86.167  48.030  70.540
27757DG     BB280424  86.187  47.691  70.415
27757DG     BB380425  86.281  47.688  70.240
27757DG     SC180426  86.026  47.727  70.074
27757DG     SC280427  85.905  47.526  69.889
27757DG     SC380428  85.770  47.788  69.864
27757DG     SC480429  85.976  47.875  70.042
27758DT     BB180430  86.462  47.580  70.224
27758DT     BB280431  86.365  47.293  70.028
27758DT     BB380432  86.421  47.321  69.830
27758DT     SC180433  86.226  47.492  69.791
27758DT     SC280434  86.079  47.405  69.661
27758DT     SC380435  86.101  47.718  69.738
27759DT     BB180436  86.619  47.138  69.858
27759DT     BB280437  86.426  47.018  69.578
27759DT     BB380438  86.491  47.108  69.403
27759DT     SC180439  86.374  47.334  69.467
27759DT     SC280440  86.208  47.368  69.335
27759DT     SC380441  86.344  47.588  69.530
27760DA     BB180442  86.509  46.696  69.316
27760DA     BB280443  86.334  46.859  69.038
27760DA     BB380444  86.473  46.965  68.915
27760DA     SC180445  86.447  47.232  69.073
27760DA     SC280446  86.352  47.460  69.036
27760DA     SC380447  86.506  47.533  69.227
27760DA     SC480448  86.551  47.258  69.193
27761DG     BB180449  86.402  46.781  68.664
27761DG     BB280450  86.275  47.090  68.524
27761DG     BB380451  86.420  47.186  68.429
27761DG     SC180452  86.510  47.344  68.676
27761DG     SC280453  86.487  47.639  68.713
27761DG     SC380454  86.648  47.517  68.930
27761DG     SC480455  86.620  47.279  68.773
27762DC     BB180456  86.426  47.232  68.196
27762DC     BB280457  86.341  47.583  68.198
27762DC     BB380458  86.507  47.696  68.150
27762DC     SC180459  86.612  47.657  68.388
27762DC     SC280460  86.609  47.841  68.499
27762DC     SC380461  86.779  47.576  68.575
27763DT     BB180462  86.398  47.753  67.909
27763DT     BB280463  86.452  48.075  68.063
27763DT     BB380464  86.644  48.141  68.023
27763DT     SC180465  86.747  47.972  68.194
27763DT     SC280466  86.825  48.080  68.363
27763DT     SC380467  86.888  47.771  68.290
27764DA     BB180468  86.362  48.439  67.938
27764DA     BB280469  86.628  48.587  68.141
27764DA     BB380470  86.808  48.605  68.027
27764DA     SC180471  86.917  48.326  68.109
27764DA     SC280472  87.102  48.234  68.249
27764DA     SC380473  87.069  48.018  68.115
27764DA     SC480474  86.882  48.201  68.014
27765DA     BB180475  86.762  48.904  68.151
27765DA     BB280476  87.091  48.864  68.307
27765DA     BB380477  87.245  48.871  68.159
27765DA     SC180478  87.245  48.564  68.108
27765DA     SC280479  87.396  48.370  68.150
27765DA     SC380480  87.261  48.252  67.967
27765DA     SC480481  87.150  48.508  67.991
27766DA     BB180482  87.352  49.097  68.373
27766DA     BB280483  87.658  48.896  68.400
27766DA     BB380484  87.774  48.913  68.222
27766DA     SC180485  87.640  48.669  68.083
27766DA     SC280486  87.703  48.437  68.015
27766DA     SC380487  87.503  48.451  67.855
27766DA     SC480488  87.512  48.697  67.989
27767DC     BB180489  87.961  49.012  68.218
27767DC     BB280490  88.170  48.720  68.180
27767DC     BB380491  88.243  48.710  67.986
27767DC     SC180492  88.010  48.632  67.895
27767DC     SC280493  88.023  48.427  67.832
27767DC     SC380494  87.783  48.633  67.759
27768DA     BB180495  88.611  48.702  68.196
27768DA     BB280496  88.625  48.431  67.950
27768DA     BB380497  88.668  48.509  67.756
27768DA     SC180498  88.369  48.547  67.679
27768DA     SC280499  88.204  48.445  67.522
27768DA     SC380500  88.072  48.663  67.551
27768DA     SC480501  88.302  48.690  67.709
27769DA     BB180502  88.953  48.320  67.706
27769DA     BB280503  88.783  48.153  67.427
27769DA     BB380504  88.809  48.265  67.247
27769DA     SC180505  88.551  48.434  67.286
27769DA     SC280506  88.326  48.455  67.181
27769DA     SC380507  88.318  48.686  67.292
27769DA     SC480508  88.566  48.575  67.362
27770DG     BB180509  88.979  48.035  67.084
27770DG     BB280510  88.681  48.017  66.881
27770DG     BB380511  88.699  48.136  66.722
27770DG     SC180512  88.581  48.381  66.861
27770DG     SC280513  88.322  48.514  66.793
27770DG     SC380514  88.475  48.675  66.989
27770DG     SC480515  88.679  48.479  66.943
27771DA     BB180516  88.624  47.870  66.511
27771DA     BB280517  88.318  48.039  66.403
27771DA     BB380518  88.361  48.179  66.248
27771DA     SC180519  88.409  48.417  66.443
27771DA     SC280520  88.296  48.630  66.505
27771DA     SC380521  88.524  48.701  66.597
27771DA     SC480522  88.559  48.443  66.493
27772DT     BB180523  88.279  48.136  66.078
27772DT     BB280524  88.017  48.383  66.099
27772DT     BB380525  88.060  48.543  65.976
27772DT     SC180526  88.242  48.632  66.143
27772DT     SC280527  88.173  48.815  66.233
27772DT     SC380528  88.477  48.703  66.239
27773DA     BB180529  87.670  48.403  65.917
27773DA     BB280530  87.657  48.767  65.960
27773DA     BB380531  87.739  48.865  65.789
27773DA     SC180532  88.028  48.874  65.902
27773DA     SC280533  88.188  49.046  65.986
27773DA     SC380534  88.370  48.870  65.940
27773DA     SC480535  88.127  48.752  65.865
27774DA     BB180536  87.448  49.007  65.827
27774DA     BB280537  87.632  49.322  65.861
27774DA     BB380538  87.712  49.382  65.673
27774DA     SC180539  87.983  49.233  65.714
27774DA     SC280540  88.222  49.292  65.752
27774DA     SC380541  88.273  49.055  65.669
27774DA     SC480542  87.994  49.083  65.657
27775DG     BB180543  87.536  49.634  65.718
27775DG     BB280544  87.856  49.803  65.722
27775DG     BB380545  87.917  49.837  65.535
27775DG     SC180546  88.066  49.570  65.510
27775DG     SC280547  88.361  49.537  65.485
27775DG     SC380548  88.222  49.280  65.441
27775DG     SC480549  87.986  49.442  65.458
27776DC     BB180550  87.946  50.047  65.447
27776DC     BB280551  88.305  50.072  65.442
27776DC     BB380552  88.375  50.053  65.247
27776DC     SC180553  88.331  49.794  65.249
27776DC     SC280554  88.519  49.690  65.248
27776DC     SC380555  88.229  49.560  65.184
27777DG     BB180556  88.507  50.417  65.374
27777DG     BB280557  88.779  50.217  65.246
27777DG     BB380558  88.781  50.224  65.047
27777DG     SC180559  88.597  49.983  65.012
27777DG     SC280560  88.673  49.719  64.894
27777DG     SC380561  88.381  49.735  64.936
27777DG     SC480562  88.438  50.006  65.008
27778DT     BB180563  88.954  50.309  64.942
27778DT     BB280564  89.114  50.009  64.818
27778DT     BB380565  89.078  49.989  64.616
27778DT     SC180566  88.830  49.914  64.659
27778DT     SC280567  88.809  49.706  64.609
27778DT     SC380568  88.567  49.916  64.656
27779DA     BB180569  89.483  49.942  64.711
27779DA     BB280570  89.381  49.663  64.496
27779DA     BB380571  89.347  49.732  64.297
27779DA     SC180572  89.045  49.790  64.344
27779DA     SC280573  88.825  49.696  64.272
27779DA     SC380574  88.728  49.924  64.339
27779DA     SC480575  89.004  49.939  64.390
27780DC     BB180576  89.462  49.649  64.205
27780DC     BB280577  89.237  49.426  64.033
27780DC     BB380578  89.179  49.509  63.852
27780DC     SC180579  89.019  49.678  63.973
27780DC     SC280580  88.815  49.626  63.930
27780DC     SC380581  88.916  49.906  64.057
27781DT     BB180582  89.325  49.315  63.760
27781DT     BB280583  89.004  49.277  63.601
27781DT     BB380584  88.987  49.410  63.444
27781DT     SC180585  88.952  49.612  63.608
27781DT     SC280586  88.749  49.682  63.593
27781DT     SC380587  88.994  49.839  63.734
27782DG     BB180588  88.930  49.036  63.290
27782DG     BB280589  88.670  49.264  63.183
27782DG     BB380590  88.739  49.383  63.040
27782DG     SC180591  88.838  49.599  63.233
27782DG     SC280592  88.728  49.875  63.260
27782DG     SC380593  88.976  49.845  63.417
27782DG     SC480594  88.986  49.588  63.292
27783DT     BB180595  88.665  49.389  62.815
27783DT     BB280596  88.480  49.699  62.807
27783DT     BB380597  88.588  49.843  62.705
27783DT     SC180598  88.753  49.874  62.907
27783DT     SC280599  88.720  50.067  62.996
27783DT     SC380600  88.976  49.874  63.047
27784DT     BB180601  88.433  49.838  62.466
27784DT     BB280602  88.426  50.185  62.565
27784DT     BB380603  88.582  50.287  62.476
27784DT     SC180604  88.756  50.180  62.640
27784DT     SC280605  88.831  50.331  62.774
27784DT     SC380606  88.961  50.038  62.727
27785DA     BB180607  88.245  50.511  62.366
27785DA     BB280608  88.491  50.746  62.502
27785DA     BB380609  88.646  50.783  62.360
27785DA     SC180610  88.828  50.551  62.460
27785DA     SC280611  89.045  50.526  62.580
27785DA     SC380612  89.048  50.288  62.483
27785DA     SC480613  88.812  50.408  62.389
27786DA     BB180614  88.563  51.096  62.412
27786DA     BB280615  88.903  51.147  62.538
27786DA     BB380616  89.041  51.161  62.375
27786DA     SC180617  89.102  50.856  62.368
27786DA     SC280618  89.293  50.704  62.422
27786DA     SC380619  89.174  50.534  62.271
27786DA     SC480620  89.013  50.765  62.270
27787DA     BB180621  89.109  51.433  62.542
27787DA     BB280622  89.447  51.297  62.584
27787DA     BB380623  89.556  51.310  62.401
27787DA     SC180624  89.468  51.029  62.301
27787DA     SC280625  89.572  50.805  62.263
27787DA     SC380626  89.371  50.760  62.110
27787DA     SC480627  89.336  51.020  62.209
27788DA     BB180628  89.761  51.455  62.610
27788DA     BB280629  90.002  51.194  62.521
27788DA     BB380630  90.079  51.227  62.325
27788DA     SC180631  89.861  51.056  62.185
27788DA     SC280632  89.846  50.838  62.063
27788DA     SC380633  89.628  50.931  61.965
27788DA     SC480634  89.729  51.132  62.133
27789DG     BB180635  90.349  51.240  62.478
27789DG     BB280636  90.425  50.949  62.278
27789DG     BB380637  90.480  51.004  62.096
27789DG     SC180638  90.196  50.999  61.981
27789DG     SC280639  90.094  50.810  61.775
27789DG     SC380640  89.897  51.024  61.829
27789DG     SC480641  90.106  51.132  61.992
27790DA     BB180642  90.766  50.808  62.136
27790DA     BB280643  90.674  50.609  61.842
27790DA     BB380644  90.716  50.718  61.663
27790DA     SC180645  90.434  50.849  61.648
27790DA     SC280646  90.231  50.834  61.505
27790DA     SC380647  90.171  51.065  61.600
27790DA     SC480648  90.416  50.993  61.718
27791DG     BB180649  90.927  50.497  61.568
27791DG     BB280650  90.694  50.446  61.296
27791DG     BB380651  90.736  50.569  61.146
27791DG     SC180652  90.556  50.795  61.249
27791DG     SC280653  90.308  50.895  61.116
27791DG     SC380654  90.385  51.070  61.342
27791DG     SC480655  90.617  50.902  61.351
27792DT     BB180656  90.813  50.511  60.920
27792DT     BB280657  90.509  50.565  60.733
27792DT     BB380658  90.530  50.733  60.612
27792DT     SC180659  90.506  50.893  60.819
27792DT     SC280660  90.318  50.998  60.806
27792DT     SC380661  90.566  51.075  61.000
27793DG     BB180662  90.453  50.432  60.347
27793DG     BB280663  90.221  50.706  60.302
27793DG     BB380664  90.305  50.848  60.192
27793DG     SC180665  90.424  50.998  60.431
27793DG     SC280666  90.345  51.269  60.526
27793DG     SC380667  90.586  51.175  60.668
27793DG     SC480668  90.570  50.956  60.484
27794DT     BB180669  90.222  50.908  59.991
27794DT     BB280670  90.062  51.220  60.074
27794DT     BB380671  90.173  51.378  60.000
27794DT     SC180672  90.354  51.350  60.187
27794DT     SC280673  90.344  51.517  60.323
27794DT     SC380674  90.586  51.303  60.303
27795DT     BB180675  89.974  51.412  59.826
27795DT     BB280676  90.000  51.727  60.001
27795DT     BB380677  90.145  51.845  59.913
27795DT     SC180678  90.338  51.700  60.017
27795DT     SC280679  90.440  51.814  60.167
27795DT     SC380680  90.546  51.539  60.034
27796DG     BB180681  89.787  52.036  59.937
27796DG     BB280682  90.056  52.236  60.073
27796DG     BB380683  90.167  52.310  59.926
27796DG     SC180684  90.359  52.071  59.917
27796DG     SC280685  90.648  52.076  59.990
27796DG     SC380686  90.575  51.817  59.866
27796DG     SC480687  90.323  51.946  59.823
27797DA     BB180688  90.118  52.606  60.098
27797DA     BB280689  90.481  52.652  60.120
27797DA     BB380690  90.561  52.703  59.929
27797DA     SC180691  90.616  52.409  59.846
27797DA     SC280692  90.813  52.261  59.808
27797DA     SC380693  90.653  52.115  59.672
27797DA     SC480694  90.501  52.332  59.764
27798DG     BB180695  90.657  52.966  60.070
27798DG     BB280696  90.986  52.847  59.979
27798DG     BB380697  91.025  52.893  59.789
27798DG     SC180698  90.907  52.633  59.677
27798DG     SC280699  91.061  52.415  59.543
27798DG     SC380700  90.770  52.368  59.520
27798DG     SC480701  90.752  52.627  59.642
27799DT     BB180702  91.194  53.049  59.697
27799DT     BB280703  91.435  52.822  59.555
27799DT     BB380704  91.425  52.828  59.348
27799DT     SC180705  91.201  52.691  59.347
27799DT     SC280706  91.238  52.495  59.265
27799DT     SC380707  90.947  52.630  59.310
27800DA     BB180708  91.837  52.931  59.379
27800DA     BB280709  91.817  52.665  59.127
27800DA     BB380710  91.757  52.746  58.939
27800DA     SC180711  91.453  52.704  58.990
27800DA     SC280712  91.270  52.558  58.903
27800DA     SC380713  91.111  52.735  59.000
27800DA     SC480714  91.371  52.826  59.055
27801DC     BB180715  91.884  52.782  58.711
27801DC     BB280716  91.725  52.506  58.541
27801DC     BB380717  91.612  52.576  58.382
27801DC     SC180718  91.426  52.665  58.544
27801DC     SC280719  91.248  52.546  58.521
27801DC     SC380720  91.266  52.833  58.669
27802DT     BB180721  91.786  52.500  58.155
27802DT     BB280722  91.474  52.334  58.082
27802DT     BB380723  91.361  52.449  57.953
27802DT     SC180724  91.298  52.616  58.146
27802DT     SC280725  91.089  52.596  58.193
27802DT     SC380726  91.282  52.840  58.285
27803DT     BB180727  91.404  52.281  57.735
27803DT     BB280728  91.046  52.285  57.775
27803DT     BB380729  90.964  52.436  57.660
27803DT     SC180730  91.047  52.620  57.829
27803DT     SC280731  90.878  52.705  57.931
27803DT     SC380732  91.178  52.827  57.925
27804DT     BB180733  90.863  52.247  57.496
27804DT     BB280734  90.575  52.431  57.613
27804DT     BB380735  90.542  52.595  57.491
27804DT     SC180736  90.745  52.724  57.596
27804DT     SC280737  90.672  52.889  57.713
27804DT     SC380738  90.978  52.846  57.616
27805DC     BB180739  90.327  52.463  57.408
27805DC     BB280740  90.201  52.776  57.535
27805DC     BB380741  90.214  52.923  57.389
27805DC     SC180742  90.474  52.942  57.421
27805DC     SC280743  90.520  53.132  57.511
27805DC     SC380744  90.732  52.933  57.367
27806DC     BB180745  89.948  52.909  57.377
27806DC     BB280746  90.019  53.255  57.448
27806DC     BB380747  90.059  53.357  57.272
27806DC     SC180748  90.297  53.247  57.253
27806DC     SC280749  90.447  53.397  57.287
27806DC     SC380750  90.497  53.103  57.160
27807DG     BB180751  89.747  53.546  57.453
27807DG     BB280752  90.008  53.780  57.361
27807DG     BB380753  89.998  53.819  57.166
27807DG     SC180754  90.185  53.590  57.086
27807DG     SC280755  90.458  53.620  56.968
27807DG     SC380756  90.370  53.337  56.962
27807DG     SC480757  90.123  53.445  57.058
27808DT     BB180758  89.950  54.027  57.078
27808DT     BB280759  90.273  54.130  56.955
27808DT     BB380760  90.278  54.117  56.748
27808DT     SC180761  90.295  53.855  56.758
27808DT     SC280762  90.491  53.794  56.692
27808DT     SC380763  90.233  53.601  56.725
27809DT     BB180764  90.262  54.394  56.706
27809DT     BB280765  90.560  54.297  56.526
27809DT     BB380766  90.512  54.250  56.330
27809DT     SC180767  90.405  54.021  56.403
27809DT     SC280768  90.530  53.860  56.334
27809DT     SC380769  90.225  53.833  56.442
27810DT     BB180770  90.623  54.484  56.224
27810DT     BB280771  90.794  54.220  56.048
27810DT     BB380772  90.690  54.172  55.875
27810DT     SC180773  90.505  54.046  56.012
27810DT     SC280774  90.520  53.835  55.974
27810DT     SC380775  90.269  53.986  56.113
27811DA     BB180776  91.084  54.248  55.753
27811DA     BB280777  90.982  53.927  55.606
27811DA     BB380778  90.850  53.960  55.442
27811DA     SC180779  90.592  53.948  55.616
27811DA     SC280780  90.398  53.794  55.648
27811DA     SC380781  90.280  53.998  55.749
27811DA     SC480782  90.535  54.086  55.674
27812DT     BB180783  90.912  53.910  55.254
27812DT     BB280784  90.711  53.612  55.221
27812DT     BB380785  90.553  53.647  55.093
27812DT     SC180786  90.427  53.787  55.276
27812DT     SC280787  90.253  53.679  55.342
27812DT     SC380788  90.313  53.992  55.397
27813DA     BB180789  90.747  53.302  54.958
27813DA     BB280790  90.388  53.229  54.976
27813DA     BB380791  90.284  53.326  54.817
27813DA     SC180792  90.228  53.585  54.978
27813DA     SC280793  90.031  53.701  55.079
27813DA     SC380794  90.178  53.911  55.076
27813DA     SC480795  90.334  53.705  54.966
27814DT     BB180796  90.198  53.210  54.674
27814DT     BB280797  89.856  53.260  54.780
27814DT     BB380798  89.760  53.388  54.650
27814DT     SC180799  89.886  53.596  54.750
27814DT     SC280800  89.747  53.719  54.858
27814DT     SC380801  90.045  53.806  54.765
27815DG     BB180802  89.547  53.041  54.653
27815DG     BB280803  89.335  53.326  54.720
27815DG     BB380804  89.293  53.421  54.550
27815DG     SC180805  89.536  53.607  54.566
27815DG     SC280806  89.528  53.903  54.605
27815DG     SC380807  89.802  53.813  54.540
27815DG     SC480808  89.674  53.559  54.501
27816DG     BB180809  88.972  53.374  54.607
27816DG     BB280810  88.944  53.735  54.620
27816DG     BB380811  88.926  53.808  54.436
27816DG     SC180812  89.227  53.840  54.393
27816DG     SC280813  89.374  54.099  54.364
27816DG     SC380814  89.551  53.870  54.303
27816DG     SC480815  89.311  53.717  54.332
27817DC     BB180816  88.744  53.917  54.375
27817DC     BB280817  88.863  54.258  54.371
27817DC     BB380818  88.893  54.320  54.176
27817DC     SC180819  89.113  54.177  54.156
27817DC     SC280820  89.283  54.309  54.147
27817DC     SC380821  89.282  53.993  54.074
27818DT     BB180822  88.676  54.480  54.196
27818DT     BB280823  88.944  54.703  54.105
27818DT     BB380824  88.965  54.708  53.899
27818DT     SC180825  89.078  54.471  53.897
27818DT     SC280826  89.286  54.492  53.846
27818DT     SC380827  89.117  54.215  53.848
27819DG     BB180828  88.900  55.088  54.029
27819DG     BB280829  89.195  55.068  53.820
27819DG     BB380830  89.142  55.057  53.629
27819DG     SC180831  89.127  54.751  53.625
27819DG     SC280832  89.308  54.569  53.473
27819DG     SC380833  89.082  54.419  53.590
27819DG     SC480834  88.990  54.680  53.664
27820DG     BB180835  89.323  55.325  53.582
27820DG     BB280836  89.524  55.123  53.360
27820DG     BB380837  89.436  55.110  53.182
27820DG     SC180838  89.274  54.860  53.251
27820DG     SC280839  89.310  54.589  53.131
27820DG     SC380840  89.067  54.599  53.300
27820DG     SC480841  89.130  54.878  53.318
27821DT     BB180842  89.538  55.189  53.012
27821DT     BB280843  89.642  54.888  52.842
27821DT     BB380844  89.515  54.848  52.684
27821DT     SC180845  89.326  54.766  52.847
27821DT     SC280846  89.301  54.553  52.824
27821DT     SC380847  89.096  54.755  52.974
27822DA     BB180848  89.908  54.839  52.536
27822DA     BB280849  89.735  54.537  52.420
27822DA     BB380850  89.592  54.587  52.269
27822DA     SC180851  89.359  54.629  52.471
27822DA     SC280852  89.146  54.515  52.532
27822DA     SC380853  89.078  54.740  52.634
27822DA     SC480854  89.335  54.778  52.527
27823DA     BB180855  89.758  54.357  52.102
27823DA     BB280856  89.444  54.169  52.087
27823DA     BB380857  89.312  54.257  51.944
27823DA     SC180858  89.175  54.446  52.150
27823DA     SC280859  88.953  54.468  52.261
27823DA     SC380860  89.022  54.711  52.306
27823DA     SC480861  89.236  54.594  52.167
27824DA     BB180862  89.314  53.949  51.832
27824DA     BB280863  88.953  53.944  51.900
27824DA     BB380864  88.849  54.058  51.753
27824DA     SC180865  88.864  54.324  51.913
27824DA     SC280866  88.707  54.475  52.035
27824DA     SC380867  88.889  54.654  52.006
27824DA     SC480868  88.988  54.422  51.883
27825DA     BB180869  88.687  53.774  51.736
27825DA     BB280870  88.389  53.963  51.838
27825DA     BB380871  88.318  54.082  51.676
27825DA     SC180872  88.488  54.331  51.753
27825DA     SC280873  88.449  54.561  51.843
27825DA     SC380874  88.681  54.616  51.747
27825DA     SC480875  88.633  54.346  51.685
27826DT     BB180876  88.147  54.032  51.613
27826DT     BB280877  87.965  54.310  51.755
27826DT     BB380878  87.927  54.451  51.609
27826DT     SC180879  88.177  54.532  51.611
27826DT     SC280880  88.187  54.730  51.696
27826DT     SC380881  88.423  54.582  51.529
27827DA     BB180882  87.572  54.360  51.814
27827DA     BB280883  87.606  54.725  51.798
27827DA     BB380884  87.574  54.793  51.598
27827DA     SC180885  87.874  54.774  51.518
27827DA     SC280886  88.061  54.930  51.464
27827DA     SC380887  88.170  54.728  51.350
27827DA     SC480888  87.925  54.637  51.451
27828DG     BB180889  87.351  54.948  51.746
27828DG     BB280890  87.545  55.233  51.637
27828DG     BB380891  87.510  55.270  51.445
27828DG     SC180892  87.734  55.088  51.343
27828DG     SC280893  87.981  55.177  51.202
27828DG     SC380894  87.957  54.883  51.196
27828DG     SC480895  87.702  54.934  51.316
27829DC     BB180896  87.422  55.458  51.387
27829DC     BB280897  87.702  55.630  51.239
27829DC     BB380898  87.690  55.621  51.033
27829DC     SC180899  87.764  55.369  51.032
27829DC     SC280900  87.961  55.352  50.948
27829DC     SC380901  87.755  55.108  50.998
27830DA     BB180902  87.742  56.025  51.135
27830DA     BB280903  87.983  55.943  50.871
27830DA     BB380904  87.883  55.918  50.684
27830DA     SC180905  87.836  55.613  50.721
27830DA     SC280906  87.920  55.400  50.621
27830DA     SC380907  87.707  55.295  50.719
27830DA     SC480908  87.698  55.566  50.788
27831DA     BB180909  88.094  56.147  50.568
27831DA     BB280910  88.217  55.894  50.333
27831DA     BB380911  88.083  55.874  50.169
27831DA     SC180912  87.914  55.650  50.303
27831DA     SC280913  87.873  55.405  50.272
27831DA     SC380914  87.660  55.444  50.408
27831DA     SC480915  87.785  55.694  50.388
27832DA     BB180916  88.344  55.936  49.971
27832DA     BB280917  88.296  55.603  49.825
27832DA     BB380918  88.137  55.607  49.683
27832DA     SC180919  87.916  55.535  49.890
27832DA     SC280920  87.768  55.341  49.941
27832DA     SC380921  87.623  55.512  50.067
27832DA     SC480922  87.839  55.656  49.962
27833DT     BB180923  88.164  55.579  49.463
27833DT     BB280924  88.033  55.243  49.448
27833DT     BB380925  87.850  55.243  49.352
27833DT     SC180926  87.730  55.347  49.561
27833DT     SC280927  87.601  55.200  49.650
27833DT     SC380928  87.597  55.519  49.711
27834DC     BB180929  87.942  55.127  49.109
27834DC     BB280930  87.683  54.902  49.219
27834DC     BB380931  87.501  54.957  49.136
27834DC     SC180932  87.480  55.161  49.300
27834DC     SC280933  87.321  55.124  49.440
27834DC     SC380934  87.463  55.410  49.386
27835DC     BB180935  87.494  54.744  48.955
27835DC     BB280936  87.193  54.706  49.151
27835DC     BB380937  87.037  54.807  49.061
27835DC     SC180938  87.132  55.039  49.139
27835DC     SC280939  87.003  55.123  49.289
27835DC     SC380940  87.234  55.282  49.126
27836DT     BB180941  86.923  54.570  48.992
27836DT     BB280942  86.678  54.733  49.200
27836DT     BB380943  86.556  54.854  49.084
27836DT     SC180944  86.746  55.034  49.059
27836DT     SC280945  86.692  55.210  49.169
27836DT     SC380946  86.927  55.189  48.947
27837DC     BB180947  86.377  54.675  49.147
27837DC     BB280948  86.253  54.987  49.278
27837DC     BB380949  86.159  55.094  49.128
27837DC     SC180950  86.388  55.159  49.019
27837DC     SC280951  86.423  55.370  49.046
27837DC     SC380952  86.583  55.175  48.842
27838DT     BB180953  85.978  55.035  49.297
27838DT     BB280954  85.986  55.395  49.278
27838DT     BB380955  85.898  55.458  49.101
27838DT     SC180956  86.106  55.384  48.961
27838DT     SC280957  86.208  55.558  48.886
27838DT     SC380958  86.254  55.253  48.785
27839DT     BB180959  85.767  55.541  49.301
27839DT     BB280960  85.858  55.831  49.107
27839DT     BB380961  85.751  55.834  48.929
27839DT     SC180962  85.900  55.642  48.828
27839DT     SC280963  86.022  55.722  48.670
27839DT     SC380964  85.968  55.408  48.728
27840DA     BB180965  85.781  56.205  49.138
27840DA     BB280966  85.827  56.262  48.779
27840DA     BB380967  85.649  56.212  48.673
27840DA     SC180968  85.732  55.916  48.624
27840DA     SC280969  85.800  55.773  48.432
27840DA     SC380970  85.735  55.575  48.582
27840DA     SC480971  85.685  55.807  48.732
27841DA     BB180972  85.703  56.519  48.557
27841DA     BB280973  85.690  56.371  48.221
27841DA     BB380974  85.492  56.308  48.175
27841DA     SC180975  85.531  56.021  48.287
27841DA     SC280976  85.547  55.788  48.198
27841DA     SC380977  85.488  55.714  48.436
27841DA     SC480978  85.492  55.995  48.441
27842DG     BB180979  85.464  56.512  47.926
27842DG     BB280980  85.420  56.212  47.729
27842DG     BB380981  85.229  56.157  47.731
27842DG     SC180982  85.256  55.981  47.980
27842DG     SC280983  85.228  55.684  47.989
27842DG     SC380984  85.245  55.797  48.262
27842DG     SC480985  85.235  56.048  48.124
27843DC     BB180986  85.036  56.148  47.542
27843DC     BB280987  85.020  55.792  47.486
27843DC     BB380988  84.839  55.718  47.555
27843DC     SC180989  84.917  55.738  47.805
27843DC     SC280990  84.945  55.541  47.887
27843DC     SC380991  84.926  55.817  48.056
27844DT     BB180992  84.688  55.676  47.302
27844DT     BB280993  84.683  55.350  47.456
27844DT     BB380994  84.508  55.324  47.562
27844DT     SC180995  84.592  55.482  47.754
27844DT     SC280996  84.629  55.365  47.931
27844DT     SC380997  84.605  55.688  47.918
27845DA     BB180998  84.519  54.994  47.305
27845DA     BB280999  84.472  54.867  47.646
27845DA     BB381000  84.269  54.894  47.707
27845DA     SC181001  84.319  55.175  47.832
27845DA     SC281002  84.326  55.278  48.059
27845DA     SC381003  84.291  55.501  47.937
27845DA     SC481004  84.296  55.303  47.738
27846DT     BB181005  84.171  54.730  47.740
27846DT     BB281006  84.187  54.747  48.100
27846DT     BB381007  84.004  54.806  48.176
27846DT     SC181008  84.043  55.054  48.100
27846DT     SC281009  84.073  55.178  48.274
27846DT     SC381010  84.011  55.283  47.973
27847DT     BB181011  84.017  54.563  48.262
27847DT     BB281012  83.992  54.772  48.556
27847DT     BB381013  83.795  54.831  48.584
27847DT     SC181014  83.810  55.003  48.386
27847DT     SC281015  83.804  55.203  48.465
27847DT     SC381016  83.763  55.120  48.155
27848DA     BB181017  84.010  54.695  48.924
27848DA     BB281018  83.832  55.005  49.007
27848DA     BB381019  83.621  54.974  48.998
27848DA     SC181020  83.598  55.055  48.698
27848DA     SC281021  83.504  55.243  48.565
27848DA     SC381022  83.510  55.079  48.367
27848DA     SC481023  83.609  54.938  48.589
27849DA     BB181024  83.691  55.122  49.285
27849DA     BB281025  83.449  55.376  49.179
27849DA     BB381026  83.253  55.292  49.168
27849DA     SC181027  83.280  55.211  48.869
27849DA     SC281028  83.184  55.280  48.649
27849DA     SC381029  83.260  55.049  48.566
27849DA     SC481030  83.334  55.062  48.836
27850DA     BB181031  83.185  55.553  49.363
27850DA     BB281032  82.934  55.649  49.114
27850DA     BB381033  82.769  55.514  49.118
27850DA     SC181034  82.890  55.322  48.905
27850DA     SC281035  82.844  55.256  48.669
27850DA     SC381036  82.983  55.047  48.721
27850DA     SC481037  82.978  55.199  48.958
27851DT     BB181038  82.550  55.550  49.196
27851DT     BB281039  82.382  55.545  48.876
27851DT     BB381040  82.267  55.374  48.859
27851DT     SC181041  82.480  55.225  48.820
27851DT     SC281042  82.482  55.155  48.617
27851DT     SC381043  82.664  55.041  48.859
27852DT     BB181044  81.985  55.468  48.914
27852DT     BB281045  81.948  55.296  48.599
27852DT     BB381046  81.884  55.102  48.632
27852DT     SC181047  82.121  55.029  48.715
27852DT     SC281048  82.210  54.897  48.570
27852DT     SC381049  82.313  54.942  48.874
27853DA     BB181050  81.560  55.216  48.379
27853DA     BB281051  81.688  54.901  48.244
27853DA     BB381052  81.610  54.735  48.354
27853DA     SC181053  81.844  54.729  48.559
27853DA     SC281054  82.036  54.580  48.614
27853DA     SC381055  82.035  54.698  48.842
27853DA     SC481056  81.826  54.812  48.695
27854DA     BB181057  81.486  54.604  48.070
27854DA     BB281058  81.716  54.321  48.116
27854DA     BB381059  81.631  54.178  48.249
27854DA     SC181060  81.755  54.305  48.504
27854DA     SC281061  81.932  54.249  48.672
27854DA     SC381062  81.814  54.419  48.823
27854DA     SC481063  81.667  54.414  48.584
27855DA     BB181064  81.680  53.960  48.005
27855DA     BB281065  81.915  53.787  48.228
27855DA     BB381066  81.809  53.664  48.366
27855DA     SC181067  81.785  53.885  48.583
27855DA     SC281068  81.878  53.933  48.809
27855DA     SC381069  81.677  54.090  48.837
27855DA     SC481070  81.653  53.977  48.581
27856DA     BB181071  82.009  53.436  48.243
27856DA     BB281072  82.148  53.404  48.581
27856DA     BB381073  82.016  53.291  48.705
27856DA     SC181074  81.859  53.539  48.806
27856DA     SC281075  81.832  53.667  49.019
27856DA     SC381076  81.615  53.755  48.915
27856DA     SC481077  81.727  53.582  48.725
27857DA     BB181078  82.292  53.122  48.749
27857DA     BB281079  82.269  53.213  49.103
27857DA     BB381080  82.119  53.097  49.200
27857DA     SC181081  81.890  53.300  49.144
27857DA     SC281082  81.748  53.458  49.275
27857DA     SC381083  81.588  53.448  49.074
27857DA     SC481084  81.803  53.280  49.010
27858DT     BB181085  82.179  52.967  49.342
27858DT     BB281086  82.065  53.161  49.624
27858DT     BB381087  81.893  53.077  49.703
27858DT     SC181088  81.748  53.166  49.504
27858DT     SC281089  81.616  53.321  49.575
27858DT     SC381090  81.592  53.167  49.291
27859DT     BB181091  82.038  52.998  49.916
27859DT     BB281092  81.776  53.205  50.053
27859DT     BB381093  81.606  53.091  50.086
27859DT     SC181094  81.552  53.082  49.830
27859DT     SC281095  81.375  53.199  49.791
27859DT     SC381096  81.511  52.986  49.588
27860DC     BB181097  81.660  53.124  50.344
27860DC     BB281098  81.330  53.261  50.297
27860DC     BB381099  81.189  53.109  50.305
27860DC     SC181100  81.255  53.024  50.066
27860DC     SC281101  81.095  53.065  49.928
27860DC     SC381102  81.345  52.865  49.875
27861DA     BB181103  81.083  53.431  50.553
27861DA     BB281104  80.791  53.341  50.349
27861DA     BB381105  80.712  53.153  50.413
27861DA     SC181106  80.885  52.985  50.217
27861DA     SC281107  80.851  52.847  50.012
27861DA     SC381108  81.077  52.741  50.071
27861DA     SC481109  81.026  52.930  50.271
27862DC     BB181110  80.541  53.172  50.482
27862DC     BB281111  80.362  53.019  50.209
27862DC     BB381112  80.317  52.822  50.255
27862DC     SC181113  80.566  52.748  50.215
27862DC     SC281114  80.577  52.627  50.038
27862DC     SC381115  80.807  52.654  50.263
27863DA     BB181116  79.959  53.006  50.133
27863DA     BB281117  79.987  52.685  49.957
27863DA     BB381118  79.951  52.524  50.091
27863DA     SC181119  80.250  52.492  50.171
27863DA     SC281120  80.434  52.327  50.136
27863DA     SC381121  80.544  52.437  50.340
27863DA     SC481122  80.302  52.572  50.300
27864DA     BB181123  79.720  52.430  49.872
27864DA     BB281124  79.906  52.117  49.832
27864DA     BB381125  79.870  51.987  49.997
27864DA     SC181126  80.109  52.093  50.165
27864DA     SC281127  80.331  52.011  50.243
27864DA     SC381128  80.314  52.196  50.420
27864DA     SC481129  80.079  52.213  50.268
27865DT     BB181130  79.757  51.794  49.984
27865DT     BB281131  80.044  51.578  50.010
27865DT     BB381132  80.044  51.481  50.193
27865DT     SC181133  80.119  51.700  50.317
27865DT     SC281134  80.321  51.676  50.389
27865DT     SC381135  80.113  51.907  50.480
27866DC     BB181136  79.970  51.233  50.088
27866DC     BB281137  80.281  51.167  50.257
27866DC     BB381138  80.245  51.113  50.453
27866DC     SC181139  80.188  51.360  50.520
27866DC     SC281140  80.344  51.437  50.648
27866DC     SC381141  80.051  51.570  50.603
27867DC     BB181142  80.315  50.855  50.398
27867DC     BB281143  80.543  50.959  50.658
27867DC     BB381144  80.460  50.922  50.843
27867DC     SC181145  80.296  51.126  50.819
27867DC     SC281146  80.354  51.281  50.957
27867DC     SC381147  80.072  51.263  50.798
27868DA     BB181148  80.850  50.777  50.813
27868DA     BB281149  80.824  50.976  51.119
27868DA     BB381150  80.705  50.873  51.264
27868DA     SC181151  80.437  51.002  51.172
27868DA     SC281152  80.272  51.167  51.260
27868DA     SC381153  80.109  51.062  51.091
27868DA     SC481154  80.351  50.923  51.062
27869DA     BB181155  80.986  50.977  51.395
27869DA     BB281156  80.773  51.159  51.631
27869DA     BB381157  80.665  51.022  51.754
27869DA     SC181158  80.419  51.007  51.564
27869DA     SC281159  80.181  51.081  51.563
27869DA     SC381160  80.148  50.903  51.381
27869DA     SC481161  80.418  50.890  51.453
27870DC     BB181162  80.722  51.062  51.904
27870DC     BB281163  80.421  51.211  52.036
27870DC     BB381164  80.304  51.065  52.126
27870DC     SC181165  80.230  50.971  51.893
27870DC     SC281166  80.021  51.014  51.861
27870DC     SC381167  80.199  50.804  51.690
27871DA     BB181168  80.348  51.391  52.389
27871DA     BB281169  79.996  51.287  52.391
27871DA     BB381170  79.975  51.098  52.488
27871DA     SC181171  80.009  50.933  52.226
27871DA     SC281172  79.868  50.791  52.077
27871DA     SC381173  80.090  50.694  51.993
27871DA     SC481174  80.158  50.885  52.187
27872DA     BB181175  79.752  51.254  52.678
27872DA     BB281176  79.506  51.005  52.569
27872DA     BB381177  79.540  50.819  52.668
27872DA     SC181178  79.730  50.709  52.448
27872DA     SC281179  79.727  50.532  52.272
27872DA     SC381180  79.983  50.551  52.277
27872DA     SC481181  79.888  50.735  52.466
27873DT     BB181182  79.406  50.727  52.822
27873DT     BB281183  79.274  50.460  52.618
27873DT     BB381184  79.352  50.278  52.681
27873DT     SC181185  79.584  50.331  52.572
27873DT     SC281186  79.615  50.202  52.403
27873DT     SC381187  79.843  50.379  52.550
27874DC     BB181188  79.119  50.180  52.817
27874DC     BB281189  79.196  49.915  52.584
27874DC     BB381190  79.318  49.775  52.675
27874DC     SC181191  79.526  49.935  52.659
27874DC     SC281192  79.666  49.856  52.515
27874DC     SC381193  79.727  50.088  52.733
27875DC     BB181194  79.122  49.570  52.714
27875DC     BB281195  79.380  49.402  52.526
27875DC     BB381196  79.513  49.310  52.655
27875DC     SC181197  79.622  49.540  52.719
27875DC     SC281198  79.821  49.550  52.638
27875DC     SC381199  79.698  49.747  52.864
27876DT     BB181200  79.424  49.044  52.610
27876DT     BB281201  79.776  49.031  52.530
27876DT     BB381202  79.884  48.977  52.697
27876DT     SC181203  79.854  49.216  52.803
27876DT     SC281204  80.043  49.318  52.804
27876DT     SC381205  79.778  49.405  52.971
27877DA     BB181206  80.004  48.701  52.405
27877DA     BB281207  80.308  48.843  52.553
27877DA     BB381208  80.344  48.757  52.745
27877DA     SC181209  80.183  48.974  52.899
27877DA     SC281210  80.230  49.163  53.055
27877DA     SC381211  79.983  49.142  53.122
27877DA     SC481212  80.028  48.945  52.928
27878DT     BB181213  80.513  48.632  52.781
27878DT     BB281214  80.705  48.876  52.964
27878DT     BB381215  80.711  48.826  53.164
27878DT     SC181216  80.463  48.904  53.199
27878DT     SC281217  80.460  49.082  53.320
27878DT     SC381218  80.205  48.893  53.253
27879DT     BB181219  80.976  48.750  53.147
27879DT     BB281220  80.972  49.007  53.401
27879DT     BB381221  80.938  48.922  53.586
27879DT     SC181222  80.684  48.885  53.531
27879DT     SC281223  80.564  49.018  53.652
27879DT     SC381224  80.455  48.762  53.485
27880DA     BB181225  81.277  49.165  53.612
27880DA     BB281226  81.052  49.255  53.887
27880DA     BB381227  81.053  49.103  54.037
27880DA     SC181228  80.817  48.944  53.911
27880DA     SC281229  80.579  48.894  53.966
27880DA     SC381230  80.605  48.697  53.803
27880DA     SC481231  80.853  48.826  53.808
27881DT     BB181232  81.124  49.160  54.205
27881DT     BB281233  80.808  49.181  54.379
27881DT     BB381234  80.783  49.015  54.500
27881DT     SC181235  80.730  48.862  54.293
27881DT     SC281236  80.523  48.805  54.298
27881DT     SC381237  80.753  48.669  54.115
27882DC     BB181238  80.819  49.180  54.706
27882DC     BB281239  80.496  49.029  54.762
27882DC     BB381240  80.519  48.845  54.854
27882DC     SC181241  80.602  48.734  54.631
27882DC     SC281242  80.452  48.597  54.559
27882DC     SC381243  80.759  48.613  54.457
27883DA     BB181244  80.240  49.071  55.071
27883DA     BB281245  80.096  48.739  55.011
27883DA     BB381246  80.195  48.593  55.131
27883DA     SC181247  80.410  48.526  54.916
27883DA     SC281248  80.467  48.336  54.765
27883DA     SC381249  80.700  48.443  54.752
27883DA     SC481250  80.548  48.607  54.922
27884DG     BB181251  79.909  48.552  55.245
27884DG     BB281252  79.947  48.225  55.094
27884DG     BB381253  80.052  48.107  55.214
27884DG     SC181254  80.323  48.185  55.095
27884DG     SC281255  80.505  48.006  54.939
27884DG     SC381256  80.638  48.263  55.002
27884DG     SC481257  80.401  48.311  55.155
27885DA     BB181258  79.790  47.887  55.171
27885DA     BB281259  80.021  47.642  55.026
27885DA     BB381260  80.139  47.552  55.180
27885DA     SC181261  80.368  47.761  55.161
27885DA     SC281262  80.606  47.769  55.084
27885DA     SC381263  80.625  47.979  55.230
27885DA     SC481264  80.361  47.889  55.258
27886DA     BB181265  80.012  47.305  55.011
27886DA     BB281266  80.358  47.212  54.937
27886DA     BB381267  80.454  47.136  55.112
27886DA     SC181268  80.561  47.414  55.202
27886DA     SC281269  80.781  47.531  55.220
27886DA     SC381270  80.662  47.687  55.385
27886DA     SC481271  80.470  47.500  55.303
27887DA     BB181272  80.500  46.928  54.866
27887DA     BB281273  80.858  46.987  54.922
27887DA     BB381274  80.917  46.907  55.111
27887DA     SC181275  80.861  47.170  55.268
27887DA     SC281276  80.993  47.347  55.384
27887DA     SC381277  80.774  47.401  55.506
27887DA     SC481278  80.716  47.187  55.334
27888DA     BB181279  81.121  46.816  54.869
27888DA     BB281280  81.382  46.969  55.076
27888DA     BB381281  81.402  46.864  55.261
27888DA     SC181282  81.195  47.041  55.411
27888DA     SC281283  81.196  47.212  55.592
27888DA     SC381284  80.946  47.157  55.618
27888DA     SC481285  81.042  46.991  55.412
27889DT     BB181286  81.558  46.807  55.253
27889DT     BB281287  81.700  47.010  55.515
27889DT     BB381288  81.680  46.914  55.698
27889DT     SC181289  81.424  46.971  55.707
27889DT     SC281290  81.388  47.116  55.862
27889DT     SC381291  81.162  46.938  55.714
27890DA     BB181292  82.083  47.035  55.659
27890DA     BB281293  81.973  47.112  56.000
27890DA     BB381294  81.943  46.932  56.111
27890DA     SC181295  81.643  46.906  56.032
27890DA     SC281296  81.420  46.927  56.144
27890DA     SC381297  81.332  46.789  55.946
27890DA     SC481298  81.607  46.819  55.902
27891DA     BB181299  82.161  47.026  56.356
27891DA     BB281300  81.889  46.997  56.601
27891DA     BB381301  81.862  46.793  56.658
27891DA     SC181302  81.652  46.734  56.436
27891DA     SC281303  81.408  46.686  56.421
27891DA     SC381304  81.462  46.587  56.191
27891DA     SC481305  81.706  46.676  56.296
27892DT     BB181306  81.912  46.671  56.873
27892DT     BB281307  81.569  46.637  56.979
27892DT     BB381308  81.514  46.437  56.979
27892DT     SC181309  81.498  46.433  56.717
27892DT     SC281310  81.292  46.413  56.658
27892DT     SC381311  81.550  46.370  56.466
27893DT     BB181312  81.520  46.382  57.266
27893DT     BB281313  81.185  46.289  57.171
27893DT     BB381314  81.176  46.086  57.131
27893DT     SC181315  81.299  46.118  56.901
27893DT     SC281316  81.162  46.081  56.740
27893DT     SC381317  81.484  46.099  56.714
27894DT     BB181318  81.037  46.023  57.365
27894DT     BB281319  80.823  45.901  57.102
27894DT     BB381320  80.869  45.704  57.059
27894DT     SC181321  81.089  45.774  56.934
27894DT     SC281322  81.066  45.737  56.723
27894DT     SC381323  81.345  45.796  56.876
27895DA     BB181324  80.457  45.737  57.121
27895DA     BB281325  80.510  45.554  56.808
27895DA     BB381326  80.581  45.357  56.848
27895DA     SC181327  80.881  45.436  56.839
27895DA     SC281328  81.078  45.398  56.690
27895DA     SC381329  81.219  45.462  56.895
27895DA     SC481330  80.952  45.477  56.977
27896DA     BB181331  80.325  45.297  56.652
27896DA     BB281332  80.563  45.134  56.426
27896DA     BB381333  80.626  44.947  56.507
27896DA     SC181334  80.870  45.066  56.658
27896DA     SC281335  81.119  45.060  56.641
27896DA     SC381336  81.117  45.135  56.886
27896DA     SC481337  80.848  45.112  56.811
27897DA     BB181338  80.527  44.836  56.212
27897DA     BB281339  80.869  44.713  56.161
27897DA     BB381340  80.903  44.538  56.278
27897DA     SC181341  81.008  44.694  56.526
27897DA     SC281342  81.225  44.726  56.645
27897DA     SC381343  81.081  44.799  56.844
27897DA     SC481344  80.901  44.734  56.639
27898DA     BB181345  80.992  44.376  55.997
27898DA     BB281346  81.322  44.319  56.147
27898DA     BB381347  81.314  44.155  56.284
27898DA     SC181348  81.246  44.333  56.530
27898DA     SC281349  81.357  44.408  56.739
27898DA     SC381350  81.120  44.457  56.824
27898DA     SC481351  81.090  44.355  56.565
27899DA     BB181352  81.559  43.972  56.125
27899DA     BB281353  81.765  43.999  56.427
27899DA     BB381354  81.714  43.844  56.565
27899DA     SC181355  81.498  44.012  56.712
27899DA     SC281356  81.468  44.121  56.935
27899DA     SC381357  81.217  44.117  56.880
27899DA     SC481358  81.346  44.000  56.660
27900DG     BB181359  82.006  43.684  56.566
27900DG     BB281360  82.026  43.804  56.907
27900DG     BB381361  81.958  43.665  57.032
27900DG     SC181362  81.668  43.762  57.022
27900DG     SC281363  81.517  43.884  57.249
27900DG     SC381364  81.338  43.830  57.019
27900DG     SC481365  81.570  43.705  56.909
27901DA     BB181366  82.253  43.674  57.218
27901DA     BB281367  82.068  43.802  57.508
27901DA     BB381368  81.980  43.641  57.616
27901DA     SC181369  81.712  43.649  57.457
27901DA     SC281370  81.475  43.712  57.499
27901DA     SC381371  81.422  43.568  57.293
27901DA     SC481372  81.700  43.554  57.328
27902DA     BB181373  82.146  43.804  57.839
27902DA     BB281374  81.821  43.870  57.997
27902DA     BB381375  81.748  43.695  58.093
27902DA     SC181376  81.593  43.593  57.844
27902DA     SC281377  81.355  43.565  57.773
27902DA     SC381378  81.448  43.399  57.600
27902DA     SC481379  81.669  43.492  57.744
27903DT     BB181380  81.739  43.739  58.258
27903DT     BB281381  81.380  43.766  58.277
27903DT     BB381382  81.299  43.587  58.343
27903DT     SC181383  81.341  43.473  58.110
27903DT     SC281384  81.152  43.437  58.013
27903DT     SC381385  81.437  43.307  57.929
27904DC     BB181386  81.246  43.739  58.546
27904DC     BB281387  80.928  43.606  58.439
27904DC     BB381388  80.906  43.412  58.507
27904DC     SC181389  81.075  43.322  58.328
27904DC     SC281390  80.969  43.204  58.182
27904DC     SC381391  81.290  43.210  58.223
27905DA     BB181392  80.562  43.638  58.600
27905DA     BB281393  80.456  43.316  58.460
27905DA     BB381394  80.497  43.158  58.596
27905DA     SC181395  80.781  43.100  58.481
27905DA     SC281396  80.894  42.920  58.351
27905DA     SC381397  81.112  43.020  58.441
27905DA     SC481398  80.905  43.176  58.549
27906DG     BB181399  80.187  43.101  58.602
27906DG     BB281400  80.285  42.781  58.465
27906DG     BB381401  80.341  42.658  58.611
27906DG     SC181402  80.635  42.744  58.603
27906DG     SC281403  80.865  42.573  58.519
27906DG     SC381404  80.960  42.828  58.634
27906DG     SC481405  80.682  42.868  58.692
27907DC     BB181406  80.234  42.443  58.696
27907DC     BB281407  80.464  42.199  58.563
27907DC     BB381408  80.573  42.113  58.716
27907DC     SC181409  80.720  42.329  58.742
27907DC     SC281410  80.921  42.287  58.676
27907DC     SC381411  80.828  42.544  58.850
27908DT     BB181412  80.441  41.851  58.736
27908DT     BB281413  80.787  41.767  58.677
27908DT     BB381414  80.884  41.734  58.858
27908DT     SC181415  80.890  41.992  58.910
27908DT     SC281416  81.094  42.062  58.898
27908DT     SC381417  80.845  42.222  59.030
27909DT     BB181418  80.901  41.451  58.835
27909DT     BB281419  81.244  41.561  58.861
27909DT     BB381420  81.304  41.557  59.059
27909DT     SC181421  81.166  41.774  59.113
27909DT     SC281422  81.300  41.937  59.151
27909DT     SC381423  80.984  41.931  59.220
27910DA     BB181424  81.573  41.361  58.809
27910DA     BB281425  81.756  41.611  59.004
27910DA     BB381426  81.773  41.549  59.207
27910DA     SC181427  81.509  41.689  59.297
27910DA     SC281428  81.443  41.883  59.438
27910DA     SC381429  81.213  41.770  59.450
27910DA     SC481430  81.374  41.602  59.294
27911DA     BB181431  82.053  41.644  59.076
27911DA     BB281432  82.053  41.897  59.342
27911DA     BB381433  82.073  41.804  59.533
27911DA     SC181434  81.766  41.774  59.577
27911DA     SC281435  81.590  41.873  59.724
27911DA     SC381436  81.453  41.664  59.666
27911DA     SC481437  81.697  41.637  59.530
27912DT     BB181438  82.208  41.879  59.571
27912DT     BB281439  82.071  42.093  59.827
27912DT     BB381440  82.067  41.993  60.008
27912DT     SC181441  81.862  41.848  59.932
27912DT     SC281442  81.688  41.906  60.044
27912DT     SC381443  81.718  41.637  59.867
27913DT     BB181444  82.243  42.176  60.052
27913DT     BB281445  81.993  42.216  60.308
27913DT     BB381446  82.017  42.070  60.454
27913DT     SC181447  81.916  41.886  60.297
27913DT     SC281448  81.724  41.825  60.373
27913DT     SC381449  81.899  41.668  60.149
27914DT     BB181450  82.095  42.273  60.601
27914DT     BB281451  81.829  42.116  60.788
27914DT     BB381452  81.901  41.950  60.889
27914DT     SC181453  81.913  41.810  60.667
27914DT     SC281454  81.763  41.656  60.673
27914DT     SC381455  82.013  41.672  60.466
27915DA     BB181456  81.701  42.184  61.175
27915DA     BB281457  81.593  41.837  61.219
27915DA     BB381458  81.748  41.721  61.307
27915DA     SC181459  81.872  41.635  61.035
27915DA     SC281460  81.893  41.427  60.899
27915DA     SC381461  82.086  41.548  60.781
27915DA     SC481462  81.990  41.727  60.975
27916DT     BB181463  81.730  41.644  61.501
27916DT     BB281464  81.683  41.298  61.408
27916DT     BB381465  81.854  41.190  61.449
27916DT     SC181466  81.978  41.294  61.242
27916DT     SC281467  82.006  41.142  61.092
27916DT     SC381468  82.154  41.430  61.101
27917DT     BB181469  81.740  41.065  61.666
27917DT     BB281470  81.849  40.793  61.455
27917DT     BB381471  82.045  40.743  61.499
27917DT     SC181472  82.136  40.957  61.378
27917DT     SC281473  82.239  40.898  61.198
27917DT     SC381474  82.254  41.189  61.340
27918DG     BB181475  81.830  40.401  61.561
27918DG     BB281476  82.112  40.341  61.341
27918DG     BB381477  82.278  40.323  61.448
27918DG     SC181478  82.345  40.622  61.440
27918DG     SC281479  82.577  40.746  61.299
27918DG     SC381480  82.437  40.945  61.468
27918DG     SC481481  82.286  40.718  61.553
27919DT     BB181482  82.398  40.133  61.451
27919DT     BB281483  82.681  40.222  61.246
27919DT     BB381484  82.846  40.257  61.365
27919DT     SC181485  82.751  40.489  61.444
27919DT     SC281486  82.871  40.647  61.360
27919DT     SC381487  82.657  40.677  61.602
27920DA     BB181488  82.966  39.981  61.072
27920DA     BB281489  83.217  40.247  61.084
27920DA     BB381490  83.336  40.229  61.260
27920DA     SC181491  83.152  40.411  61.432
27920DA     SC281492  83.163  40.638  61.537
27920DA     SC381493  82.973  40.554  61.688
27920DA     SC481494  83.036  40.341  61.517
27921DC     BB181495  83.544  40.177  61.253
27921DC     BB281496  83.675  40.504  61.332
27921DC     BB381497  83.751  40.505  61.524
27921DC     SC181498  83.511  40.507  61.628
27921DC     SC281499  83.475  40.698  61.721
27921DC     SC381500  83.299  40.430  61.765
27922DT     BB181501  84.018  40.508  61.440
27922DT     BB281502  83.992  40.797  61.653
27922DT     BB381503  84.035  40.745  61.849
27922DT     SC181504  83.803  40.626  61.877
27922DT     SC281505  83.681  40.740  62.013
27922DT     SC381506  83.626  40.435  61.917
27923DT     BB181507  84.290  40.867  61.853
27923DT     BB281508  84.117  41.021  62.129
27923DT     BB381509  84.151  40.913  62.303
27923DT     SC181510  83.988  40.723  62.225
27923DT     SC281511  83.812  40.725  62.349
27923DT     SC381512  83.901  40.485  62.151
27924DT     BB181513  84.330  41.099  62.419
27924DT     BB281514  84.070  41.065  62.666
27924DT     BB381515  84.119  40.916  62.800
27924DT     SC181516  84.063  40.728  62.625
27924DT     SC281517  83.886  40.623  62.686
27924DT     SC381518  84.096  40.525  62.460
27925DG     BB181519  84.080  41.249  63.034
27925DG     BB281520  83.871  40.980  63.155
27925DG     BB381521  83.979  40.854  63.265
27925DG     SC181522  84.057  40.676  63.028
27925DG     SC281523  83.972  40.394  62.985
27925DG     SC381524  84.179  40.472  62.789
27925DG     SC481525  84.189  40.712  62.945
27926DT     BB181526  83.936  40.819  63.484
27926DT     BB281527  83.772  40.498  63.468
27926DT     BB381528  83.898  40.350  63.538
27926DT     SC181529  84.042  40.358  63.319
27926DT     SC281530  84.011  40.176  63.207
27926DT     SC381531  84.248  40.392  63.158
27927DA     BB181532  83.524  40.327  63.721
27927DA     BB281533  83.611  39.995  63.594
27927DA     BB381534  83.766  39.908  63.712
27927DA     SC181535  83.997  40.022  63.538
27927DA     SC281536  84.169  39.935  63.380
27927DA     SC381537  84.293  40.155  63.427
27927DA     SC481538  84.059  40.164  63.581
27928DG     BB181539  83.529  39.716  63.718
27928DG     BB281540  83.767  39.503  63.549
27928DG     BB381541  83.901  39.434  63.679
27928DG     SC181542  84.095  39.668  63.640
27928DG     SC281543  84.367  39.652  63.518
27928DG     SC381544  84.320  39.919  63.638
27928DG     SC481545  84.078  39.799  63.731
27929DC     BB181546  83.892  39.248  63.671
27929DC     BB281547  84.202  39.157  63.511
27929DC     BB381548  84.348  39.124  63.653
27929DC     SC181549  84.374  39.381  63.697
27929DC     SC281550  84.565  39.447  63.623
27929DC     SC381551  84.371  39.613  63.823
27930DA     BB181552  84.328  38.826  63.353
27930DA     BB281553  84.679  38.913  63.412
27930DA     BB381554  84.739  38.853  63.608
27930DA     SC181555  84.662  39.124  63.740
27930DA     SC281556  84.779  39.319  63.842
27930DA     SC381557  84.554  39.369  63.955
27930DA     SC481558  84.514  39.138  63.801
27931DT     BB181559  84.867  38.717  63.608
27931DT     BB281560  85.147  38.910  63.731
27931DT     BB381561  85.170  38.880  63.934
27931DT     SC181562  84.962  39.032  63.987
27931DT     SC281563  85.028  39.213  64.081
27931DT     SC381564  84.723  39.104  64.073
27932DT     BB181565  85.391  38.722  63.898
27932DT     BB281566  85.502  38.974  64.132
27932DT     BB381567  85.458  38.915  64.325
27932DT     SC181568  85.203  38.968  64.293
27932DT     SC281569  85.150  39.139  64.412
27932DT     SC381570  84.943  38.931  64.274
27933DG     BB181571  85.868  38.948  64.344
27933DG     BB281572  85.714  39.131  64.615
27933DG     BB381573  85.668  39.007  64.764
27933DG     SC181574  85.388  38.943  64.657
27933DG     SC281575  85.130  39.018  64.787
27933DG     SC381576  85.084  38.835  64.559
27933DG     SC481577  85.370  38.822  64.554
27934DC     BB181578  85.761  39.004  64.990
27934DC     BB281579  85.487  39.147  65.176
27934DC     BB381580  85.396  39.001  65.291
27934DC     SC181581  85.280  38.895  65.081
27934DC     SC281582  85.068  38.931  65.091
27934DC     SC381583  85.217  38.720  64.894
27935DT     BB181584  85.502  39.098  65.529
27935DT     BB281585  85.145  39.101  65.583
27935DT     BB381586  85.084  38.919  65.662
27935DT     SC181587  85.111  38.800  65.429
27935DT     SC281588  84.916  38.749  65.353
27935DT     SC381589  85.200  38.636  65.244
27936DT     BB181590  85.040  39.033  65.907
27936DT     BB281591  84.722  38.888  65.818
27936DT     BB381592  84.714  38.691  65.880
27936DT     SC181593  84.874  38.615  65.686
27936DT     SC281594  84.763  38.497  65.544
27936DT     SC381595  85.086  38.518  65.563
27937DT     BB181596  84.538  38.762  66.073
27937DT     BB281597  84.367  38.508  65.883
27937DT     BB381598  84.417  38.320  65.955
27937DT     SC181599  84.654  38.332  65.843
27937DT     SC281600  84.663  38.191  65.681
27937DT     SC381601  84.916  38.340  65.818
27938DT     BB181602  84.169  38.294  66.064
27938DT     BB281603  84.202  38.008  65.848
27938DT     BB381604  84.295  37.853  65.949
27938DT     SC181605  84.528  37.971  65.932
27938DT     SC281606  84.655  37.860  65.798
27938DT     SC381607  84.752  38.089  66.005
27939DT     BB181608  84.060  37.710  65.970
27939DT     BB281609  84.287  37.483  65.806
27939DT     BB381610  84.392  37.374  65.947
27939DT     SC181611  84.543  37.581  66.005
27939DT     SC281612  84.743  37.546  65.936
27939DT     SC381613  84.652  37.778  66.143
27940DT     BB181614  84.251  37.136  65.904
27940DT     BB281615  84.596  37.046  65.847
27940DT     BB381616  84.682  36.982  66.024
27940DT     SC181617  84.697  37.229  66.114
27940DT     SC281618  84.903  37.290  66.122
27940DT     SC381619  84.655  37.440  66.266
27941DC     BB181620  84.687  36.701  65.965
27941DC     BB281621  85.032  36.778  66.036
27941DC     BB381622  85.074  36.742  66.235
27941DC     SC181623  84.946  36.959  66.309
27941DC     SC281624  85.087  37.103  66.382
27941DC     SC381625  84.766  37.114  66.423
27942DC     BB181626  85.222  36.511  66.182
27942DC     BB281627  85.452  36.723  66.362
27942DC     BB381628  85.439  36.685  66.565
27942DC     SC181629  85.210  36.812  66.582
27942DC     SC281630  85.238  36.995  66.693
27942DC     SC381631  84.953  36.857  66.622
27943DA     BB181632  85.842  36.657  66.461
27943DA     BB281633  85.819  36.875  66.756
27943DA     BB381634  85.781  36.758  66.931
27943DA     SC181635  85.471  36.777  66.906
27943DA     SC281636  85.283  36.887  67.027
27943DA     SC381637  85.134  36.713  66.912
27943DA     SC481638  85.396  36.660  66.826
27944DA     BB181639  86.044  36.926  67.029
27944DA     BB281640  85.834  37.062  67.297
27944DA     BB381641  85.802  36.915  67.448
27944DA     SC181642  85.542  36.803  67.318
27944DA     SC281643  85.298  36.801  67.367
27944DA     SC381644  85.289  36.600  67.207
27944DA     SC481645  85.558  36.679  67.217
27945DA     BB181646  85.916  37.155  67.642
27945DA     BB281647  85.596  37.142  67.821
27945DA     BB381648  85.590  36.971  67.949
27945DA     SC181649  85.465  36.784  67.735
27945DA     SC281650  85.246  36.670  67.694
27945DA     SC381651  85.379  36.515  67.539
27945DA     SC481652  85.565  36.697  67.644
27946DC     BB181653  85.589  36.992  68.160
27946DC     BB281654  85.243  36.903  68.212
27946DC     BB381655  85.231  36.715  68.298
27946DC     SC181656  85.292  36.599  68.070
27946DC     SC281657  85.119  36.495  67.995
27946DC     SC381658  85.424  36.457  67.892
27947DA     BB181659  85.007  36.955  68.559
27947DA     BB281660  84.804  36.658  68.485
27947DA     BB381661  84.876  36.490  68.595
27947DA     SC181662  85.072  36.397  68.373
27947DA     SC281663  85.092  36.208  68.212
27947DA     SC381664  85.340  36.271  68.199
27947DA     SC481665  85.223  36.451  68.380
27948DG     BB181666  84.596  36.472  68.742
27948DG     BB281667  84.571  36.154  68.571
27948DG     BB381668  84.656  36.011  68.681
27948DG     SC181669  84.934  36.048  68.558
27948DG     SC281670  85.078  35.850  68.387
27948DG     SC381671  85.256  36.074  68.460
27948DG     SC481672  85.035  36.154  68.624
27949DC     BB181673  84.542  35.827  68.774
27949DC     BB281674  84.649  35.563  68.551
27949DC     BB381675  84.781  35.438  68.649
27949DC     SC181676  84.974  35.615  68.633
27949DC     SC281677  85.124  35.545  68.496
27949DC     SC381678  85.158  35.788  68.707
27950DT     BB181679  84.591  35.241  68.660
27950DT     BB281680  84.868  35.088  68.487
27950DT     BB381681  84.998  35.002  68.623
27950DT     SC181682  85.091  35.237  68.695
27950DT     SC281683  85.294  35.257  68.626
27950DT     SC381684  85.148  35.446  68.845
27951DC     BB181685  84.914  34.760  68.538
27951DC     BB281686  85.271  34.755  68.489
27951DC     BB381687  85.366  34.694  68.662
27951DC     SC181688  85.323  34.926  68.776
27951DC     SC281689  85.510  35.031  68.798
27951DC     SC381690  85.231  35.106  68.946
27952DG     BB181691  85.477  34.444  68.361
27952DG     BB281692  85.764  34.573  68.537
27952DG     BB381693  85.786  34.478  68.711
27952DG     SC181694  85.611  34.672  68.869
27952DG     SC281695  85.704  34.857  69.084
27952DG     SC381696  85.409  34.854  69.068
27952DG     SC481697  85.453  34.646  68.877
27953DA     BB181698  86.117  34.417  68.618
27953DA     BB281699  86.237  34.587  68.920
27953DA     BB381700  86.212  34.462  69.090
27953DA     SC181701  85.927  34.568  69.158
27953DA     SC281702  85.819  34.707  69.335
27953DA     SC381703  85.600  34.599  69.256
27953DA     SC481704  85.802  34.489  69.096
27954DA     BB181705  86.537  34.507  69.145
27954DA     BB281706  86.450  34.655  69.469
27954DA     BB381707  86.404  34.502  69.610
27954DA     SC181708  86.100  34.497  69.544
27954DA     SC281709  85.886  34.562  69.654
27954DA     SC381710  85.775  34.404  69.486
27954DA     SC481711  86.050  34.393  69.432
27955DT     BB181712  86.529  34.442  69.797
27955DT     BB281713  86.309  34.588  70.043
27955DT     BB381714  86.218  34.439  70.154
27955DT     SC181715  86.058  34.378  69.956
27955DT     SC281716  85.857  34.436  70.006
27955DT     SC381717  85.943  34.238  69.763
27956DT     BB181718  86.372  34.464  70.401
27956DT     BB281719  86.031  34.504  70.511
27956DT     BB381720  85.955  34.323  70.574
27956DT     SC181721  85.931  34.238  70.327
27956DT     SC281722  85.722  34.223  70.277
27956DT     SC381723  85.968  34.093  70.110
27957DA     BB181724  85.889  34.575  70.902
27957DA     BB281725  85.570  34.412  70.825
27957DA     BB381726  85.569  34.212  70.899
27957DA     SC181727  85.682  34.088  70.637
27957DA     SC281728  85.601  33.942  70.452
27957DA     SC381729  85.849  33.896  70.406
27957DA     SC481730  85.842  34.071  70.626
27958DA     BB181731  85.298  34.322  71.039
27958DA     BB281732  85.118  34.072  70.839
27958DA     BB381733  85.140  33.879  70.926
27958DA     SC181734  85.395  33.808  70.762
27958DA     SC281735  85.458  33.653  70.577
27958DA     SC381736  85.699  33.687  70.658
27958DA     SC481737  85.537  33.841  70.828
27959DT     BB181738  84.978  33.818  70.979
27959DT     BB281739  84.932  33.580  70.712
27959DT     BB381740  84.979  33.390  70.778
27959DT     SC181741  85.236  33.442  70.771
27959DT     SC281742  85.328  33.330  70.612
27959DT     SC381743  85.484  33.481  70.853
27960DT     BB181744  84.727  33.375  70.736
27960DT     BB281745  84.878  33.121  70.528
27960DT     BB381746  84.930  32.957  70.644
27960DT     SC181747  85.136  33.085  70.746
27960DT     SC281748  85.318  32.997  70.671
27960DT     SC381749  85.293  33.200  70.923
27961DT     BB181750  84.741  32.862  70.497
27961DT     BB281751  85.026  32.647  70.444
27961DT     BB381752  85.050  32.519  70.605
27961DT     SC181753  85.145  32.713  70.754
27961DT     SC281754  85.354  32.679  70.791
27961DT     SC381755  85.165  32.888  70.951
27962DG     BB181756  85.020  32.302  70.261
27962DG     BB281757  85.303  32.198  70.460
27962DG     BB381758  85.241  32.092  70.617
27962DG     SC181759  85.209  32.335  70.801
27962DG     SC281760  85.372  32.393  71.044
27962DG     SC381761  85.144  32.580  71.023
27962DG     SC481762  85.069  32.413  70.802
27963DA     BB181763  85.464  31.836  70.528
27963DA     BB281764  85.626  31.858  70.856
27963DA     BB381765  85.506  31.763  71.004
27963DA     SC181766  85.350  32.022  71.078
27963DA     SC281767  85.334  32.179  71.271
27963DA     SC381768  85.109  32.248  71.170
27963DA     SC481769  85.212  32.050  71.001
27964DT     BB181770  85.563  31.579  71.105
27964DT     BB281771  85.643  31.727  71.424
27964DT     BB381772  85.498  31.678  71.564
27964DT     SC181773  85.327  31.847  71.458
27964DT     SC281774  85.296  32.011  71.593
27964DT     SC381775  85.112  31.939  71.336
27965DA     BB181776  85.857  31.560  71.746
27965DA     BB281777  85.671  31.760  71.990
27965DA     BB381778  85.511  31.646  72.073
27965DA     SC181779  85.304  31.736  71.859
27965DA     SC281780  85.099  31.879  71.849
27965DA     SC381781  85.045  31.750  71.634
27965DA     SC481782  85.287  31.644  71.728
27966DA     BB181783  85.652  31.732  72.357
27966DA     BB281784  85.340  31.904  72.440
27966DA     BB381785  85.191  31.764  72.500
27966DA     SC181786  85.078  31.723  72.213
27966DA     SC281787  84.870  31.779  72.087
27966DA     SC381788  84.943  31.593  71.925
27966DA     SC481789  85.140  31.603  72.125
27967DT     BB181790  85.130  31.773  72.688
27967DT     BB281791  84.807  31.920  72.623
27967DT     BB381792  84.659  31.777  72.640
27967DT     SC181793  84.725  31.669  72.411
27967DT     SC281794  84.570  31.706  72.266
27967DT     SC381795  84.811  31.492  72.235
27968DT     BB181796  84.583  31.899  72.866
27968DT     BB281797  84.287  31.896  72.659
27968DT     BB381798  84.188  31.716  72.681
27968DT     SC181799  84.367  31.590  72.535
27968DT     SC281800  84.278  31.532  72.348
27968DT     SC381801  84.559  31.422  72.468
27969DG     BB181802  83.921  32.007  72.783
27969DG     BB281803  83.779  31.779  72.541
27969DG     BB381804  83.723  31.611  72.631
27969DG     SC181805  83.993  31.471  72.593
27969DG     SC281806  84.045  31.233  72.420
27969DG     SC381807  84.281  31.296  72.587
27969DG     SC481808  84.106  31.490  72.705
27970DA     BB181809  83.400  31.641  72.493
27970DA     BB281810  83.436  31.316  72.326
27970DA     BB381811  83.406  31.157  72.465
27970DA     SC181812  83.707  31.137  72.543
27970DA     SC281813  83.895  30.977  72.511
27970DA     SC381814  84.004  31.096  72.711
27970DA     SC481815  83.757  31.223  72.669
27971DA     BB181816  83.165  31.036  72.266
27971DA     BB281817  83.367  30.732  72.227
27971DA     BB381818  83.340  30.603  72.395
27971DA     SC181819  83.577  30.725  72.556
27971DA     SC281820  83.805  30.656  72.631
27971DA     SC381821  83.783  30.844  72.805
27971DA     SC481822  83.544  30.846  72.658
27972DA     BB181823  83.253  30.367  72.179
27972DA     BB281824  83.543  30.174  72.293
27972DA     BB381825  83.499  30.075  72.476
27972DA     SC181826  83.599  30.309  72.655
27972DA     SC281827  83.789  30.354  72.810
27972DA     SC381828  83.640  30.540  72.906
27972DA     SC481829  83.491  30.418  72.702
27973DT     BB181830  83.489  29.865  72.485
27973DT     BB281831  83.805  29.816  72.652
27973DT     BB381832  83.773  29.760  72.849
27973DT     SC181833  83.705  30.005  72.915
27973DT     SC281834  83.858  30.090  73.041
27973DT     SC381835  83.559  30.208  72.999
27974DG     BB181836  83.995  29.464  72.678
27974DG     BB281837  84.150  29.586  72.981
27974DG     BB381838  84.059  29.507  73.140
27974DG     SC181839  83.853  29.732  73.164
27974DG     SC281840  83.834  29.930  73.387
27974DG     SC381841  83.600  29.951  73.207
27974DG     SC481842  83.715  29.720  73.083
27975DA     BB181843  84.377  29.415  73.244
27975DA     BB281844  84.334  29.612  73.550
27975DA     BB381845  84.206  29.509  73.687
27975DA     SC181846  83.945  29.642  73.580
27975DA     SC281847  83.777  29.807  73.659
27975DA     SC381848  83.623  29.706  73.481
27975DA     SC481849  83.865  29.564  73.464
27976DT     BB181850  84.283  29.440  73.863
27976DT     BB281851  84.131  29.686  74.078
27976DT     BB381852  83.974  29.602  74.183
27976DT     SC181853  83.821  29.603  73.970
27976DT     SC281854  83.664  29.747  73.995
27976DT     SC381855  83.674  29.515  73.770
27977DA     BB181856  84.217  29.775  74.478
27977DA     BB281857  83.873  29.883  74.542
27977DA     BB381858  83.759  29.724  74.627
27977DA     SC181859  83.662  29.614  74.353
27977DA     SC281860  83.448  29.600  74.225
27977DA     SC381861  83.563  29.413  74.093
27977DA     SC481862  83.750  29.499  74.283
27978DA     BB181863  83.692  29.937  74.872
27978DA     BB281864  83.339  29.909  74.778
27978DA     BB381865  83.255  29.729  74.855
27978DA     SC181866  83.323  29.559  74.604
27978DA     SC281867  83.201  29.450  74.416
27978DA     SC381868  83.412  29.308  74.388
27978DA     SC481869  83.463  29.480  74.603
27979DA     BB181870  83.031  29.929  74.991
27979DA     BB281871  82.780  29.760  74.785
27979DA     BB381872  82.726  29.573  74.872
27979DA     SC181873  82.943  29.411  74.719
27979DA     SC281874  82.952  29.240  74.537
27979DA     SC381875  83.186  29.185  74.628
27979DA     SC481876  83.085  29.390  74.791
27980DT     BB181877  82.539  29.554  74.937
27980DT     BB281878  82.424  29.350  74.662
27980DT     BB381879  82.403  29.154  74.723
27980DT     SC181880  82.663  29.118  74.723
27980DT     SC281881  82.717  28.984  74.563
27980DT     SC381882  82.907  29.070  74.811
27981DA     BB181883  82.064  29.293  74.520
27981DA     BB281884  82.164  28.972  74.374
27981DA     BB381885  82.126  28.813  74.510
27981DA     SC181886  82.406  28.826  74.644
27981DA     SC281887  82.613  28.687  74.654
27981DA     SC381888  82.668  28.820  74.866
27981DA     SC481889  82.422  28.919  74.774
27982DA     BB181890  81.990  28.726  74.226
27982DA     BB281891  82.212  28.435  74.240
27982DA     BB381892  82.153  28.304  74.397
27982DA     SC181893  82.335  28.438  74.611
27982DA     SC281894  82.540  28.381  74.740
27982DA     SC381895  82.465  28.566  74.902
27982DA     SC481896  82.270  28.555  74.700
27983DA     BB181897  82.168  28.103  74.137
27983DA     BB281898  82.419  27.915  74.328
27983DA     BB381899  82.326  27.811  74.490
27983DA     SC181900  82.364  28.044  74.693
27983DA     SC281901  82.501  28.091  74.896
27983DA     SC381902  82.326  28.272  74.947
27983DA     SC481903  82.245  28.150  74.707
27984DT     BB181904  82.323  27.610  74.486
27984DT     BB281905  82.571  27.557  74.742
27984DT     BB381906  82.479  27.500  74.919
27984DT     SC181907  82.396  27.745  74.963
27984DT     SC281908  82.502  27.827  75.131
27984DT     SC381909  82.232  27.948  74.999
27985DA     BB181910  82.771  27.206  74.845
27985DA     BB281911  82.810  27.319  75.192
27985DA     BB381912  82.654  27.240  75.313
27985DA     SC181913  82.464  27.482  75.269
27985DA     SC281914  82.373  27.672  75.403
27985DA     SC381915  82.190  27.685  75.223
27985DA     SC481916  82.358  27.473  75.148
27986DT     BB181917  82.697  27.102  75.463
27986DT     BB281918  82.662  27.333  75.739
27986DT     BB381919  82.487  27.294  75.842
27986DT     SC181920  82.342  27.402  75.651
27986DT     SC281921  82.257  27.586  75.722
27986DT     SC381922  82.166  27.425  75.456
27987DG     BB181923  82.801  27.271  76.098
27987DG     BB281924  82.550  27.505  76.213
27987DG     BB381925  82.396  27.406  76.291
27987DG     SC181926  82.244  27.384  76.026
27987DG     SC281927  81.985  27.518  75.961
27987DG     SC381928  82.060  27.325  75.750
27987DG     SC481929  82.273  27.259  75.930
27988DA     BB181930  82.466  27.640  76.529
27988DA     BB281931  82.125  27.768  76.491
27988DA     BB381932  81.984  27.628  76.569
27988DA     SC181933  81.946  27.479  76.299
27988DA     SC281934  81.767  27.452  76.127
27988DA     SC381935  81.896  27.243  76.055
27988DA     SC481936  82.039  27.352  76.270
27989DT     BB181937  81.917  27.720  76.687
27989DT     BB281938  81.597  27.771  76.529
27989DT     BB381939  81.467  27.618  76.581
27989DT     SC181940  81.590  27.450  76.421
27989DT     SC281941  81.461  27.403  76.255
27989DT     SC381942  81.728  27.241  76.339
27990DA     BB181943  81.309  28.013  76.599
27990DA     BB281944  81.067  27.792  76.435
27990DA     BB381945  80.997  27.643  76.571
27990DA     SC181946  81.219  27.437  76.498
27990DA     SC281947  81.235  27.217  76.381
27990DA     SC381948  81.457  27.190  76.506
27990DA     SC481949  81.353  27.438  76.586
27991DA     BB181950  80.714  27.766  76.457
27991DA     BB281951  80.630  27.424  76.357
27991DA     BB381952  80.590  27.304  76.529
27991DA     SC181953  80.885  27.209  76.562
27991DA     SC281954  81.015  26.998  76.535
27991DA     SC381955  81.189  27.111  76.686
27991DA     SC481956  80.980  27.296  76.658
27992DT     BB181957  80.401  27.235  76.565
27992DT     BB281958  80.460  26.887  76.491
27992DT     BB381959  80.470  26.778  76.667
27992DT     SC181960  80.709  26.872  76.721
27992DT     SC281961  80.854  26.714  76.702
27992DT     SC381962  80.903  27.001  76.846
27993DA     BB181963  80.183  26.576  76.437
27993DA     BB281964  80.414  26.324  76.569
27993DA     BB381965  80.377  26.291  76.777
27993DA     SC181966  80.578  26.509  76.872
27993DA     SC281967  80.799  26.517  76.988
27993DA     SC381968  80.738  26.761  77.042
27993DA     SC481969  80.521  26.657  76.897
27994DT     BB181970  80.299  26.107  76.850
27994DT     BB281971  80.603  25.985  77.001
27994DT     BB381972  80.589  25.997  77.207
27994DT     SC181973  80.622  26.257  77.203
27994DT     SC281974  80.813  26.306  77.287
27994DT     SC381975  80.571  26.514  77.233
27995DA     BB181976  80.699  25.600  77.127
27995DA     BB281977  80.921  25.724  77.391
27995DA     BB381978  80.817  25.735  77.577
27995DA     SC181979  80.723  26.029  77.534
27995DA     SC281980  80.770  26.254  77.631
27995DA     SC381981  80.544  26.322  77.530
27995DA     SC481982  80.579  26.051  77.465
27996DT     BB181983  80.865  25.608  77.739
27996DT     BB281984  81.024  25.857  77.947
27996DT     BB381985  80.900  25.906  78.105
27996DT     SC181986  80.744  26.048  77.949
27996DT     SC281987  80.766  26.256  77.996
27996DT     SC381988  80.529  26.125  77.818
27997DA     BB181989  81.252  25.794  78.312
27997DA     BB281990  81.142  26.113  78.456
27997DA     BB381991  80.977  26.083  78.588
27997DA     SC181992  80.762  26.122  78.367
27997DA     SC281993  80.588  26.290  78.307
27997DA     SC381994  80.480  26.100  78.171
27997DA     SC481995  80.710  25.990  78.290
27998DG     BB181996  81.120  26.181  78.875
27998DG     BB281997  80.874  26.447  78.868
27998DG     BB381998  80.713  26.392  78.971
27998DG     SC181999  80.572  26.265  78.730
27998DG     SC282000  80.323  26.365  78.600
27998DG     SC382001  80.399  26.100  78.493
27998DG     SC482002  80.600  26.111  78.697
27999DT     BB182003  80.571  26.471  79.229
27999DT     BB282004  80.303  26.660  79.079
27999DT     BB382005  80.121  26.571  79.120
27999DT     SC182006  80.167  26.380  78.946
27999DT     SC282007  80.034  26.403  78.778
27999DT     SC382008  80.210  26.139  78.847
28000DC     BB182009  79.976  26.738  79.352
28000DC     BB282010  79.744  26.755  79.075
28000DC     BB382011  79.590  26.620  79.104
28000DC     SC182012  79.745  26.417  79.043
28000DC     SC282013  79.684  26.335  78.854
28000DC     SC382014  79.882  26.193  79.067
28001DA     BB182015  79.401  26.986  79.044
28001DA     BB282016  79.275  26.753  78.791
28001DA     BB382017  79.128  26.623  78.876
28001DA     SC182018  79.332  26.404  78.959
28001DA     SC282019  79.392  26.172  78.891
28001DA     SC382020  79.502  26.154  79.122
28001DA     SC482021  79.394  26.413  79.107
28002DA     BB182022  79.007  26.757  78.610
28002DA     BB282023  79.000  26.416  78.477
28002DA     BB382024  78.846  26.302  78.572
28002DA     SC182025  79.030  26.197  78.799
28002DA     SC282026  79.132  25.980  78.868
28002DA     SC382027  79.158  26.089  79.099
28002DA     SC482028  79.036  26.282  78.935
28003DG     BB182029  78.808  26.304  78.269
28003DG     BB282030  78.874  25.952  78.317
28003DG     BB382031  78.718  25.864  78.402
28003DG     SC182032  78.815  25.914  78.688
28003DG     SC282033  78.901  25.704  78.883
28003DG     SC382034  78.882  25.969  79.014
28003DG     SC482035  78.775  26.050  78.761
28004DT     BB182036  78.655  25.724  78.287
28004DT     BB282037  78.757  25.427  78.464
28004DT     BB382038  78.603  25.360  78.585
28004DT     SC182039  78.645  25.553  78.758
28004DT     SC282040  78.724  25.469  78.940
28004DT     SC382041  78.603  25.768  78.905
28005DC     BB182042  78.594  25.164  78.411
28005DC     BB282043  78.645  25.007  78.732
28005DC     BB382044  78.464  24.991  78.832
28005DC     SC182045  78.464  25.248  78.888
28005DC     SC282046  78.494  25.275  79.099
28005DC     SC382047  78.389  25.501  78.891
28006DT     BB182048  78.481  24.730  78.788
28006DT     BB282049  78.451  24.762  79.146
28006DT     BB382050  78.252  24.780  79.198
28006DT     SC182051  78.244  25.028  79.113
28006DT     SC282052  78.224  25.161  79.281
28006DT     SC382053  78.176  25.239  78.970
28007DT     BB182054  78.265  24.532  79.300
28007DT     BB282055  78.156  24.739  79.575
28007DT     BB382056  77.950  24.762  79.568
28007DT     SC182057  77.968  24.930  79.367
28007DT     SC282058  77.914  25.127  79.435
28007DT     SC382059  77.939  25.032  79.126
28008DT     BB182060  77.949  24.608  79.782
28008DT     BB282061  77.784  24.913  79.883
28008DT     BB382062  77.585  24.909  79.825
28008DT     SC182063  77.649  24.952  79.574
28008DT     SC282064  77.584  25.149  79.517
28008DT     SC382065  77.676  24.913  79.315
28009DT     BB182066  77.542  24.890  80.083
28009DT     BB282067  77.358  25.182  79.976
28009DT     BB382068  77.177  25.125  79.894
28009DT     SC182069  77.294  25.042  79.674
28009DT     SC282070  77.242  25.173  79.512
28009DT     SC382071  77.377  24.879  79.484
28010DA     BB182072  77.136  25.437  80.175
28010DA     BB282073  76.941  25.521  79.877
28010DA     BB382074  76.775  25.389  79.857
28010DA     SC182075  76.929  25.182  79.683
28010DA     SC282076  76.928  25.101  79.447
28010DA     SC382077  77.048  24.894  79.538
28010DA     SC482078  77.002  25.060  79.760
28011DT     BB182079  76.613  25.475  79.876
28011DT     BB282080  76.504  25.453  79.532
28011DT     BB382081  76.375  25.293  79.509
28011DT     SC182082  76.574  25.122  79.522
28011DT     SC282083  76.603  25.031  79.329
28011DT     SC382084  76.726  24.925  79.610
28012DT     BB182085  76.169  25.465  79.484
28012DT     BB282086  76.151  25.259  79.188
28012DT     BB382087  76.047  25.085  79.229
28012DT     SC182088  76.249  24.985  79.362
28012DT     SC282089  76.334  24.821  79.251
28012DT     SC382090  76.392  24.890  79.562
28013DC     BB182091  75.825  25.169  79.089
28013DC     BB282092  75.907  24.851  78.940
28013DC     BB382093  75.814  24.698  79.044
28013DC     SC182094  75.984  24.720  79.243
28013DC     SC282095  76.111  24.546  79.247
28013DC     SC382096  76.079  24.764  79.485
28014DA     BB182097  75.696  24.634  78.645
28014DA     BB282098  75.815  24.314  78.778
28014DA     BB382099  75.671  24.230  78.910
28014DA     SC182100  75.790  24.365  79.164
28014DA     SC282101  75.912  24.296  79.370
28014DA     SC382102  75.833  24.519  79.468
28014DA     SC482103  75.730  24.508  79.207
28015DT     BB182104  75.564  24.050  78.865
28015DT     BB282105  75.743  23.835  79.092
28015DT     BB382106  75.623  23.787  79.254
28015DT     SC182107  75.654  24.026  79.357
28015DT     SC282108  75.773  24.012  79.536
28015DT     SC382109  75.595  24.268  79.446
28016DA     BB182110  75.753  23.416  79.105
28016DA     BB282111  75.815  23.418  79.467
28016DA     BB382112  75.631  23.394  79.573
28016DA     SC182113  75.573  23.699  79.593
28016DA     SC282114  75.568  23.875  79.770
28016DA     SC382115  75.424  24.008  79.605
28016DA     SC482116  75.484  23.765  79.477
28017DT     BB182117  75.590  23.219  79.689
28017DT     BB282118  75.639  23.371  80.012
28017DT     BB382119  75.457  23.397  80.107
28017DT     SC182120  75.395  23.599  79.951
28017DT     SC282121  75.397  23.780  80.067
28017DT     SC382122  75.268  23.744  79.771
28018DC     BB182123  75.502  23.191  80.288
28018DC     BB282124  75.444  23.481  80.495
28018DC     BB382125  75.241  23.500  80.534
28018DC     SC182126  75.194  23.586  80.291
28018DC     SC282127  75.139  23.794  80.299
28018DC     SC382128  75.098  23.596  80.046
28019DA     BB182129  75.429  23.506  80.910
28019DA     BB282130  75.207  23.797  80.891
28019DA     BB382131  75.004  23.737  80.914
28019DA     SC182132  74.956  23.696  80.609
28019DA     SC282133  74.827  23.805  80.426
28019DA     SC382134  74.851  23.582  80.303
28019DA     SC482135  74.981  23.549  80.549
28020DG     BB182136  75.015  23.924  81.161
28020DG     BB282137  74.784  24.119  80.961
28020DG     BB382138  74.600  24.049  80.983
28020DG     SC182139  74.621  23.851  80.751
28020DG     SC282140  74.469  23.864  80.494
28020DG     SC382141  74.617  23.609  80.516
28020DG     SC482142  74.678  23.704  80.779
28021DT     BB182143  74.452  24.180  81.064
28021DT     BB282144  74.268  24.269  80.767
28021DT     BB382145  74.090  24.163  80.760
28021DT     SC182146  74.214  23.942  80.692
28021DT     SC282147  74.166  23.893  80.489
28021DT     SC382148  74.305  23.695  80.705
28022DA     BB182149  74.039  24.575  80.691
28022DA     BB282150  73.865  24.389  80.427
28022DA     BB382151  73.694  24.289  80.506
28022DA     SC182152  73.848  24.027  80.573
28022DA     SC282153  73.856  23.792  80.491
28022DA     SC382154  73.960  23.737  80.719
28022DA     SC482155  73.910  24.013  80.721
28023DC     BB182156  73.547  24.357  80.429
28023DC     BB282157  73.471  24.074  80.219
28023DC     BB382158  73.330  23.954  80.311
28023DC     SC182159  73.507  23.860  80.479
28023DC     SC282160  73.546  23.653  80.434
28023DC     SC382161  73.630  23.807  80.707
28024DT     BB182162  73.165  24.041  80.123
28024DT     BB282163  73.161  23.681  80.092
28024DT     BB382164  73.029  23.600  80.230
28024DT     SC182165  73.197  23.644  80.427
28024DT     SC282166  73.272  23.456  80.500
28024DT     SC382167  73.296  23.742  80.651
28025DA     BB182168  72.939  23.442  79.852
28025DA     BB282169  72.957  23.165  80.090
28025DA     BB382170  72.788  23.168  80.221
28025DA     SC182171  72.927  23.345  80.435
28025DA     SC282172  73.014  23.320  80.668
28025DA     SC382173  72.996  23.576  80.681
28025DA     SC482174  72.907  23.505  80.424
28026DG     BB182175  72.736  22.887  80.099
28026DG     BB282176  72.794  22.780  80.440
28026DG     BB382177  72.630  22.805  80.548
28026DG     SC182178  72.700  23.090  80.634
28026DG     SC282179  72.765  23.179  80.911
28026DG     SC382180  72.736  23.412  80.730
28026DG     SC482181  72.654  23.213  80.541
28027DT     BB182182  72.530  22.633  80.639
28027DT     BB282183  72.621  22.672  80.985
28027DT     BB382184  72.462  22.749  81.092
28027DT     SC182185  72.499  22.988  80.991
28027DT     SC282186  72.571  23.120  81.145
28027DT     SC382187  72.455  23.210  80.856
28028DT     BB182188  72.437  22.508  81.206
28028DT     BB282189  72.483  22.737  81.481
28028DT     BB382190  72.301  22.822  81.534
28028DT     SC182191  72.303  22.977  81.323
28028DT     SC282192  72.332  23.181  81.385
28028DT     SC382193  72.231  23.083  81.093
28029DT     BB182194  72.322  22.675  81.753
28029DT     BB282195  72.290  23.015  81.870
28029DT     BB382196  72.091  23.070  81.874
28029DT     SC182197  72.084  23.093  81.612
28029DT     SC282198  72.064  23.301  81.560
28029DT     SC382199  72.018  23.049  81.361
28030DA     BB182200  72.276  23.163  82.240
28030DA     BB282201  72.085  23.456  82.129
28030DA     BB382202  71.875  23.418  82.142
28030DA     SC182203  71.852  23.307  81.853
28030DA     SC282204  71.751  23.377  81.636
28030DA     SC382205  71.765  23.129  81.572
28030DA     SC482206  71.868  23.148  81.832
28031DT     BB182207  71.774  23.523  82.274
28031DT     BB282208  71.599  23.735  82.040
28031DT     BB382209  71.403  23.671  82.019
28031DT     SC182210  71.478  23.466  81.873
28031DT     SC282211  71.413  23.495  81.671
28031DT     SC382212  71.518  23.216  81.798
28032DG     BB182213  71.389  24.059  82.141
28032DG     BB282214  71.184  24.005  81.848
28032DG     BB382215  71.013  23.916  81.900
28032DG     SC182216  71.123  23.632  81.867
28032DG     SC282217  71.037  23.434  81.661
28032DG     SC382218  71.216  23.308  81.860
28032DG     SC482219  71.194  23.562  81.992
28033DA     BB182220  70.848  24.170  81.727
28033DA     BB282221  70.688  23.921  81.510
28033DA     BB382222  70.531  23.822  81.615
28033DA     SC182223  70.713  23.593  81.723
28033DA     SC282224  70.744  23.349  81.686
28033DA     SC382225  70.860  23.349  81.914
28033DA     SC482226  70.780  23.614  81.867
28034DG     BB182227  70.342  23.936  81.392
28034DG     BB282228  70.289  23.586  81.317
28034DG     BB382229  70.152  23.510  81.439
28034DG     SC182230  70.354  23.426  81.654
28034DG     SC282231  70.420  23.146  81.731
28034DG     SC382232  70.545  23.339  81.917
28034DG     SC482233  70.394  23.531  81.768
28035DT     BB182234  69.943  23.429  81.374
28035DT     BB282235  69.991  23.073  81.409
28035DT     BB382236  69.891  23.004  81.577
28035DT     SC182237  70.073  23.107  81.736
28035DT     SC282238  70.186  22.949  81.828
28035DT     SC382239  70.184  23.259  81.921
28036DT     BB182240  69.671  22.880  81.444
28036DT     BB282241  69.804  22.614  81.648
28036DT     BB382242  69.708  22.611  81.831
28036DT     SC182243  69.839  22.824  81.912
28036DT     SC282244  69.978  22.768  82.067
28036DT     SC382245  69.886  23.070  81.994
28037DC     BB182246  69.533  22.380  81.794
28037DC     BB282247  69.717  22.296  82.093
28037DC     BB382248  69.611  22.355  82.260
28037DC     SC182249  69.669  22.607  82.220
28037DC     SC282250  69.804  22.675  82.373
28037DC     SC382251  69.638  22.864  82.169
28038DA     BB182252  69.663  21.945  82.348
28038DA     BB282253  69.778  22.132  82.641
28038DA     BB382254  69.612  22.194  82.760
28038DA     SC182255  69.578  22.466  82.614
28038DA     SC282256  69.611  22.708  82.665
28038DA     SC382257  69.452  22.750  82.467
28038DA     SC482258  69.477  22.472  82.489
28039DA     BB182259  69.757  22.037  83.012
28039DA     BB282260  69.797  22.365  83.171
28039DA     BB382261  69.618  22.422  83.271
28039DA     SC182262  69.498  22.569  83.024
28039DA     SC282263  69.448  22.804  82.955
28039DA     SC382264  69.289  22.698  82.784
28039DA     SC482265  69.403  22.484  82.926
28040DC     BB182266  69.630  22.440  83.467
28040DC     BB282267  69.647  22.800  83.466
28040DC     BB382268  69.467  22.880  83.530
28040DC     SC182269  69.352  22.822  83.301
28040DC     SC282270  69.310  23.004  83.195
28040DC     SC382271  69.187  22.712  83.127
28041DA     BB182272  69.799  23.045  83.724
28041DA     BB282273  69.591  23.318  83.595
28041DA     BB382274  69.410  23.333  83.708
28041DA     SC182275  69.250  23.141  83.524
28041DA     SC282276  69.062  23.155  83.360
28041DA     SC382277  69.035  22.903  83.400
28041DA     SC482278  69.248  22.985  83.564
28042DA     BB182279  69.548  23.627  83.693
28042DA     BB282280  69.238  23.732  83.528
28042DA     BB382281  69.076  23.731  83.667
28042DA     SC182282  68.994  23.437  83.607
28042DA     SC282283  68.805  23.317  83.497
28042DA     SC382284  68.886  23.112  83.629
28042DA     SC482285  69.059  23.322  83.698
28043DA     BB182286  69.070  24.024  83.527
28043DA     BB282287  68.731  23.937  83.418
28043DA     BB382288  68.598  23.934  83.585
28043DA     SC182289  68.643  23.633  83.647
28043DA     SC282290  68.513  23.420  83.632
28043DA     SC382291  68.684  23.328  83.800
28043DA     SC482292  68.758  23.595  83.752
28044DA     BB182293  68.449  24.129  83.371
28044DA     BB282294  68.171  23.890  83.383
28044DA     BB382295  68.069  23.905  83.570
28044DA     SC182296  68.244  23.690  83.711
28044DA     SC282297  68.217  23.458  83.798
28044DA     SC382298  68.426  23.508  83.938
28044DA     SC482299  68.374  23.741  83.791
28045DT     BB182300  67.895  23.965  83.549
28045DT     BB282301  67.730  23.652  83.617
28045DT     BB382302  67.661  23.649  83.813
28045DT     SC182303  67.903  23.614  83.906
28045DT     SC282304  67.920  23.415  83.988
28045DT     SC382305  68.128  23.659  84.037
28046DA     BB182306  67.367  23.529  83.539
28046DA     BB282307  67.372  23.289  83.816
28046DA     BB382308  67.298  23.381  83.994
28046DA     SC182309  67.576  23.480  84.090
28046DA     SC282310  67.739  23.428  84.272
28046DA     SC382311  67.835  23.661  84.225
28046DA     SC482312  67.621  23.628  84.047
28047DA     BB182313  67.138  23.097  83.958
28047DA     BB282314  67.262  23.014  84.293
28047DA     BB382315  67.171  23.141  84.439
28047DA     SC182316  67.393  23.359  84.424
28047DA     SC282317  67.576  23.446  84.569
28047DA     SC382318  67.566  23.655  84.420
28047DA     SC482319  67.370  23.481  84.321
28048DT     BB182320  67.075  23.039  84.546
28048DT     BB282321  67.270  23.073  84.847
28048DT     BB382322  67.195  23.227  84.963
28048DT     SC182323  67.298  23.408  84.803
28048DT     SC282324  67.459  23.509  84.903
28048DT     SC382325  67.313  23.607  84.631
28049DA     BB182326  67.217  22.898  85.227
28049DA     BB282327  67.335  23.192  85.411
28049DA     BB382328  67.172  23.322  85.456
28049DA     SC182329  67.200  23.489  85.195
28049DA     SC282330  67.270  23.719  85.130
28049DA     SC382331  67.141  23.675  84.913
28049DA     SC482332  67.113  23.443  85.068
28050DA     BB182333  67.210  23.327  85.806
28050DA     BB282334  67.240  23.693  85.799
28050DA     BB382335  67.047  23.783  85.791
28050DA     SC182336  67.035  23.789  85.480
28050DA     SC282337  67.042  23.960  85.299
28050DA     SC382338  66.935  23.779  85.152
28050DA     SC482339  66.967  23.664  85.406
28051DT     BB182340  66.858  23.928  85.966
28051DT     BB282341  66.897  24.250  85.808
28051DT     BB382342  66.716  24.311  85.727
28051DT     SC182343  66.738  24.141  85.529
28051DT     SC282344  66.773  24.249  85.346
28051DT     SC382345  66.687  23.937  85.369
28052DC     BB182346  66.584  24.523  85.922
28052DC     BB282347  66.590  24.702  85.609
28052DC     BB382348  66.404  24.694  85.520
28052DC     SC182349  66.439  24.444  85.449
28052DC     SC282350  66.461  24.433  85.235
28052DC     SC382351  66.404  24.183  85.434
28053DA     BB182352  66.457  25.112  85.535
28053DA     BB282353  66.371  25.030  85.188
28053DA     BB382354  66.161  25.003  85.169
28053DA     SC182355  66.170  24.697  85.226
28053DA     SC282356  66.136  24.484  85.100
28053DA     SC382357  66.102  24.377  85.331
28053DA     SC482358  66.150  24.649  85.378
28054DA     BB182359  66.188  25.231  84.933
28054DA     BB282360  66.076  24.975  84.695
28054DA     BB382361  65.864  24.952  84.706
28054DA     SC182362  65.875  24.729  84.922
28054DA     SC282363  65.829  24.484  84.937
28054DA     SC382364  65.810  24.524  85.190
28054DA     SC482365  65.866  24.774  85.076
28055DT     BB182366  65.757  25.004  84.544
28055DT     BB282367  65.683  24.669  84.431
28055DT     BB382368  65.487  24.622  84.475
28055DT     SC182369  65.542  24.591  84.730
28055DT     SC282370  65.527  24.383  84.781
28055DT     SC382371  65.541  24.630  84.990
28056DT     BB182372  65.413  24.641  84.210
28056DT     BB282373  65.314  24.307  84.305
28056DT     BB382374  65.122  24.310  84.382
28056DT     SC182375  65.206  24.416  84.607
28056DT     SC282376  65.188  24.272  84.766
28056DT     SC382377  65.236  24.590  84.803
28057DC     BB182378  65.000  24.193  84.156
28057DC     BB282379  64.905  23.975  84.426
28057DC     BB382380  64.726  24.038  84.509
28057DC     SC182381  64.843  24.239  84.629
28057DC     SC282382  64.843  24.205  84.842
28057DC     SC382383  64.906  24.487  84.695
28058DC     BB182384  64.551  23.835  84.396
28058DC     BB282385  64.501  23.804  84.752
28058DC     BB382386  64.338  23.918  84.811
28058DC     SC182387  64.476  24.140  84.787
28058DC     SC282388  64.511  24.224  84.982
28058DC     SC382389  64.551  24.378  84.699
28059DA     BB182390  64.241  23.537  84.955
28059DA     BB282391  64.219  23.770  85.237
28059DA     BB382392  64.036  23.879  85.229
28059DA     SC182393  64.153  24.113  85.060
28059DA     SC282394  64.210  24.353  85.093
28059DA     SC382395  64.200  24.369  84.837
28059DA     SC482396  64.141  24.102  84.900
28060DT     BB182397  63.911  23.847  85.379
28060DT     BB282398  64.000  24.150  85.553
28060DT     BB382399  63.847  24.288  85.538
28060DT     SC182400  63.907  24.340  85.287
28060DT     SC282401  63.988  24.539  85.273
28060DT     SC382402  63.885  24.358  85.025
28061DG     BB182403  64.003  24.194  85.902
28061DG     BB282404  64.021  24.548  85.829
28061DG     BB382405  63.839  24.628  85.836
28061DG     SC182406  63.778  24.577  85.541
28061DG     SC282407  63.743  24.786  85.330
28061DG     SC382408  63.670  24.519  85.226
28061DG     SC482409  63.712  24.438  85.498
28062DT     BB182410  63.883  24.751  85.950
28062DT     BB282411  63.865  25.052  85.751
28062DT     BB382412  63.668  25.117  85.739
28062DT     SC182413  63.607  24.926  85.570
28062DT     SC282414  63.569  25.012  85.376
28062DT     SC382415  63.491  24.712  85.469
28063DC     BB182416  63.795  25.296  85.870
28063DC     BB282417  63.643  25.463  85.588
28063DC     BB382418  63.439  25.482  85.619
28063DC     SC182419  63.400  25.227  85.570
28063DC     SC282420  63.295  25.206  85.383
28063DC     SC382421  63.334  24.974  85.606
28064DT     BB182422  63.502  25.734  85.641
28064DT     BB282423  63.247  25.720  85.386
28064DT     BB382424  63.060  25.706  85.473
28064DT     SC182425  63.100  25.454  85.536
28064DT     SC282426  62.971  25.330  85.416
28064DT     SC382427  63.132  25.237  85.681
28065DA     BB182428  63.047  26.022  85.197
28065DA     BB282429  62.748  25.815  85.147
28065DA     BB382430  62.611  25.842  85.308
28065DA     SC182431  62.729  25.610  85.479
28065DA     SC282432  62.660  25.382  85.554
28065DA     SC382433  62.838  25.410  85.736
28065DA     SC482434  62.844  25.647  85.585
28066DT     BB182435  62.430  25.933  85.275
28066DT     BB282436  62.224  25.638  85.302
28066DT     BB382437  62.123  25.638  85.482
28066DT     SC182438  62.341  25.574  85.614
28066DT     SC282439  62.323  25.373  85.688
28066DT     SC382440  62.543  25.592  85.782
28067DC     BB182441  61.889  25.694  85.354
28067DC     BB282442  61.820  25.391  85.539
28067DC     BB382443  61.758  25.438  85.730
28067DC     SC182444  62.002  25.501  85.803
28067DC     SC282445  62.076  25.354  85.942
28067DC     SC382446  62.208  25.645  85.885
28068DG     BB182447  61.467  25.213  85.557
28068DG     BB282448  61.564  25.079  85.878
28068DG     BB382449  61.482  25.186  86.024
28068DG     SC182450  61.715  25.383  86.044
28068DG     SC282451  61.901  25.411  86.276
28068DG     SC382452  61.944  25.628  86.079
28068DG     SC482453  61.715  25.513  85.952
28069DA     BB182454  61.373  24.881  86.147
28069DA     BB282455  61.547  24.945  86.463
28069DA     BB382456  61.441  25.091  86.578
28069DA     SC182457  61.596  25.332  86.457
28069DA     SC282458  61.764  25.500  86.533
28069DA     SC382459  61.685  25.640  86.332
28069DA     SC482460  61.533  25.404  86.328
28070DT     BB182461  61.358  25.032  86.749
28070DT     BB282462  61.585  25.199  86.974
28070DT     BB382463  61.497  25.370  87.050
28070DT     SC182464  61.530  25.497  86.823
28070DT     SC282465  61.678  25.651  86.848
28070DT     SC382466  61.473  25.624  86.599
28071DA     BB182467  61.616  25.162  87.396
28071DA     BB282468  61.726  25.509  87.435
28071DA     BB382469  61.560  25.635  87.481
28071DA     SC182470  61.496  25.701  87.183
28071DA     SC282471  61.510  25.898  87.031
28071DA     SC382472  61.340  25.771  86.886
28071DA     SC482473  61.390  25.607  87.108
28072DA     BB182474  61.726  25.734  87.753
28072DA     BB282475  61.724  26.073  87.613
28072DA     BB382476  61.536  26.166  87.647
28072DA     SC182477  61.411  26.068  87.379
28072DA     SC282478  61.339  26.167  87.162
28072DA     SC382479  61.199  25.954  87.135
28072DA     SC482480  61.330  25.929  87.382
28073DC     BB182481  61.508  26.338  87.780
28073DC     BB282482  61.474  26.583  87.517
28073DC     BB382483  61.279  26.650  87.507
28073DC     SC182484  61.200  26.426  87.394
28073DC     SC282485  61.146  26.464  87.190
28073DC     SC382486  61.074  26.197  87.358
28074DA     BB182487  61.527  26.985  87.531
28074DA     BB282488  61.302  27.031  87.245
28074DA     BB382489  61.105  27.077  87.313
28074DA     SC182490  61.013  26.780  87.323
28074DA     SC282491  60.857  26.631  87.198
28074DA     SC382492  60.865  26.481  87.406
28074DA     SC482493  61.030  26.701  87.462
28075DG     BB182494  61.181  27.315  87.138
28075DG     BB282495  60.911  27.185  86.935
28075DG     BB382496  60.736  27.233  87.016
28075DG     SC182497  60.718  26.982  87.189
28075DG     SC282498  60.519  26.761  87.157
28075DG     SC382499  60.675  26.727  87.406
28075DG     SC482500  60.783  26.983  87.335
28076DT     BB182501  60.636  27.334  86.888
28076DT     BB282502  60.380  27.101  86.787
28076DT     BB382503  60.210  27.127  86.903
28076DT     SC182504  60.323  27.010  87.108
28076DT     SC282505  60.228  26.820  87.143
28076DT     SC382506  60.425  26.975  87.349
28077DT     BB182507  60.123  27.209  86.674
28077DT     BB282508  59.898  26.947  86.776
28077DT     BB382509  59.766  27.018  86.919
28077DT     SC182510  59.953  27.015  87.104
28077DT     SC282511  59.909  26.861  87.247
28077DT     SC382512  60.123  27.102  87.286
28078DT     BB182513  59.584  26.999  86.730
28078DT     BB282514  59.448  26.813  87.007
28078DT     BB382515  59.361  26.942  87.143
28078DT     SC182516  59.595  27.021  87.230
28078DT     SC282517  59.625  26.949  87.431
28078DT     SC382518  59.799  27.179  87.284
28079DT     BB182519  59.100  26.876  87.071
28079DT     BB282520  59.103  26.829  87.428
28079DT     BB382521  59.055  27.006  87.523
28079DT     SC182522  59.293  27.106  87.472
28079DT     SC282523  59.404  27.123  87.656
28079DT     SC382524  59.480  27.263  87.373
28080DT     BB182525  58.770  26.966  87.602
28080DT     BB282526  58.926  27.058  87.914
28080DT     BB382527  58.906  27.262  87.945
28080DT     SC182528  59.090  27.315  87.766
28080DT     SC282529  59.266  27.392  87.864
28080DT     SC382530  59.204  27.408  87.546
28081DT     BB182531  58.673  27.303  88.152
28081DT     BB282532  58.947  27.478  88.309
28081DT     BB382533  58.929  27.681  88.275
28081DT     SC182534  59.007  27.654  88.026
28081DT     SC282535  59.202  27.742  88.002
28081DT     SC382536  59.001  27.658  87.762
28082DT     BB182537  58.836  27.776  88.540
28082DT     BB282538  59.142  27.960  88.487
28082DT     BB382539  59.100  28.147  88.409
28082DT     SC182540  59.047  28.045  88.173
28082DT     SC282541  59.200  28.103  88.034
28082DT     SC382542  58.912  27.977  87.956
28083DG     BB182543  59.301  28.214  88.756
28083DG     BB282544  59.464  28.375  88.476
28083DG     BB382545  59.373  28.547  88.435
28083DG     SC182546  59.174  28.423  88.238
28083DG     SC282547  59.165  28.473  87.944
28083DG     SC382548  58.929  28.317  88.032
28083DG     SC482549  59.035  28.366  88.293
28084DA     BB182550  59.694  28.661  88.451
28084DA     BB282551  59.668  28.774  88.103
28084DA     BB382552  59.548  28.950  88.091
28084DA     SC182553  59.282  28.795  88.048
28084DA     SC282554  59.117  28.759  87.864
28084DA     SC382555  58.954  28.693  88.051
28084DA     SC482556  59.195  28.759  88.178
28085DA     BB182557  59.825  29.016  87.932
28085DA     BB282558  59.612  29.077  87.640
28085DA     BB382559  59.498  29.256  87.667
28085DA     SC182560  59.256  29.111  87.798
28085DA     SC282561  59.020  29.057  87.739
28085DA     SC382562  58.985  29.028  87.992
28085DA     SC482563  59.254  29.100  87.958
28086DG     BB182564  59.653  29.323  87.408
28086DG     BB282565  59.320  29.338  87.269
28086DG     BB382566  59.233  29.510  87.318
28086DG     SC182567  59.112  29.402  87.578
28086DG     SC282568  58.821  29.366  87.633
28086DG     SC382569  58.981  29.324  87.879
28086DG     SC482570  59.198  29.410  87.713
28087DG     BB182571  59.193  29.581  86.998
28087DG     BB282572  58.838  29.587  87.064
28087DG     BB382573  58.786  29.764  87.138
28087DG     SC182574  58.831  29.683  87.430
28087DG     SC282575  58.620  29.655  87.639
28087DG     SC382576  58.890  29.635  87.759
28087DG     SC482577  58.977  29.702  87.494
28088DA     BB182578  58.537  29.804  86.892
28088DA     BB282579  58.277  29.830  87.150
28088DA     BB382580  58.276  30.026  87.234
28088DA     SC182581  58.477  29.956  87.461
28088DA     SC282582  58.473  29.928  87.709
28088DA     SC382583  58.727  29.963  87.696
28088DA     SC482584  58.633  29.982  87.432
28089DC     BB182585  58.110  30.184  87.209
28089DC     BB282586  57.973  30.151  87.542
28089DC     BB382587  58.012  30.322  87.651
28089DC     SC182588  58.264  30.256  87.681
28089DC     SC282589  58.300  30.205  87.887
28089DC     SC382590  58.527  30.266  87.663
28090DT     BB182591  57.747  30.421  87.642
28090DT     BB282592  57.819  30.395  87.995
28090DT     BB382593  57.896  30.574  88.064
28090DT     SC182594  58.128  30.528  87.950
28090DT     SC282595  58.276  30.490  88.102
28090DT     SC382596  58.336  30.555  87.790
28091DT     BB182597  57.664  30.633  88.200
28091DT     BB282598  57.919  30.631  88.455
28091DT     BB382599  58.002  30.820  88.473
28091DT     SC182600  58.137  30.790  88.250
28091DT     SC282601  58.347  30.774  88.295
28091DT     SC382602  58.219  30.830  88.002
28092DA     BB182603  57.887  30.680  88.850
28092DA     BB282604  58.234  30.797  88.872
28092DA     BB382605  58.241  31.010  88.864
28092DA     SC182606  58.269  31.023  88.555
28092DA     SC282607  58.444  31.083  88.387
28092DA     SC382608  58.249  31.110  88.223
28092DA     SC482609  58.134  31.035  88.468
28093DT     BB182610  58.306  31.087  89.024
28093DT     BB282611  58.632  31.179  88.898
28093DT     BB382612  58.635  31.381  88.854
28093DT     SC182613  58.493  31.345  88.637
28093DT     SC282614  58.617  31.380  88.464
28093DT     SC382615  58.293  31.360  88.466
28094DT     BB182616  58.796  31.398  89.063
28094DT     BB282617  58.985  31.534  88.788
28094DT     BB382618  58.933  31.732  88.758
28094DT     SC182619  58.704  31.665  88.649
28094DT     SC282620  58.709  31.711  88.439
28094DT     SC382621  58.444  31.641  88.612
28095DC     BB182622  59.175  31.784  88.850
28095DC     BB282623  59.163  31.939  88.525
28095DC     BB382624  59.071  32.125  88.539
28095DC     SC182625  58.834  32.014  88.564
28095DC     SC282626  58.719  32.053  88.386
28095DC     SC382627  58.603  31.945  88.669
28096DG     BB182628  59.441  32.171  88.375
28096DG     BB282629  59.186  32.331  88.175
28096DG     BB382630  59.130  32.502  88.261
28096DG     SC182631  58.908  32.373  88.428
28096DG     SC282632  58.615  32.420  88.395
28096DG     SC382633  58.670  32.263  88.639
28096DG     SC482634  58.943  32.315  88.572
28097DC     BB182635  59.161  32.686  88.156
28097DC     BB282636  58.826  32.777  88.058
28097DC     BB382637  58.752  32.922  88.186
28097DC     SC182638  58.715  32.745  88.376
28097DC     SC282639  58.504  32.715  88.406
28097DC     SC382640  58.739  32.621  88.608
28098DT     BB182641  58.777  33.112  87.992
28098DT     BB282642  58.431  33.132  88.090
28098DT     BB382643  58.410  33.260  88.252
28098DT     SC182644  58.511  33.082  88.416
28098DT     SC282645  58.356  33.010  88.547
28098DT     SC382646  58.675  32.968  88.588
28099DT     BB182647  58.296  33.457  88.096
28099DT     BB282648  58.056  33.404  88.360
28099DT     BB382649  58.101  33.525  88.522
28099DT     SC182650  58.302  33.371  88.590
28099DT     SC282651  58.256  33.269  88.774
28099DT     SC382652  58.550  33.294  88.640
28100DG     BB182653  57.722  33.644  88.419
28100DG     BB282654  57.741  33.565  88.771
28100DG     BB382655  57.819  33.718  88.871
28100DG     SC182656  58.108  33.620  88.842
28100DG     SC282657  58.285  33.526  89.063
28100DG     SC382658  58.437  33.553  88.811
28100DG     SC482659  58.192  33.664  88.713
28101DT     BB182660  57.708  33.845  89.033
28101DT     BB282661  57.861  33.718  89.335
28101DT     BB382662  57.992  33.859  89.412
28101DT     SC182663  58.169  33.806  89.225
28101DT     SC282664  58.339  33.707  89.314
28101DT     SC382665  58.329  33.840  89.018
28102DT     BB182666  57.823  33.919  89.619
28102DT     BB282667  58.129  33.813  89.779
28102DT     BB382668  58.256  33.975  89.802
28102DT     SC182669  58.316  33.974  89.546
28102DT     SC282670  58.520  33.911  89.521
28102DT     SC382671  58.336  34.054  89.296
28103DT     BB182672  58.211  33.973  90.068
28103DT     BB282673  58.567  33.930  90.035
28103DT     BB382674  58.660  34.114  90.021
28103DT     SC182675  58.577  34.147  89.774
28103DT     SC282676  58.746  34.135  89.641
28103DT     SC382677  58.451  34.248  89.566
28104DA     BB182678  58.845  33.873  90.310
28104DA     BB282679  59.103  34.006  90.086
28104DA     BB382680  59.129  34.215  90.118
28104DA     SC182681  58.918  34.299  89.906
28104DA     SC282682  58.915  34.408  89.681
28104DA     SC382683  58.668  34.457  89.731
28104DA     SC482684  58.767  34.321  89.956
28105DA     BB182685  59.425  34.080  90.134
28105DA     BB282686  59.509  34.299  89.851
28105DA     BB382687  59.514  34.502  89.914
28105DA     SC182688  59.214  34.555  89.851
28105DA     SC282689  59.081  34.686  89.686
28105DA     SC382690  58.889  34.666  89.856
28105DA     SC482691  59.108  34.534  89.970
28106DT     BB182692  59.678  34.558  89.891
28106DT     BB282693  59.615  34.771  89.606
28106DT     BB382694  59.583  34.965  89.669
28106DT     SC182695  59.343  34.906  89.757
28106DT     SC282696  59.196  35.001  89.632
28106DT     SC382697  59.142  34.870  89.923
28107DT     BB182698  59.814  35.005  89.553
28107DT     BB282699  59.586  35.235  89.395
28107DT     BB382700  59.558  35.401  89.515
28107DT     SC182701  59.405  35.266  89.681
28107DT     SC282702  59.203  35.336  89.664
28107DT     SC382703  59.321  35.151  89.902
28108DT     BB182704  59.700  35.535  89.335
28108DT     BB282705  59.389  35.717  89.364
28108DT     BB382706  59.396  35.844  89.527
28108DT     SC182707  59.366  35.643  89.694
28108DT     SC282708  59.172  35.655  89.786
28108DT     SC382709  59.419  35.470  89.886
28109DT     BB182710  59.419  36.062  89.366
28109DT     BB282711  59.132  36.134  89.572
28109DT     BB382712  59.193  36.222  89.750
28109DT     SC182713  59.280  35.992  89.842
28109DT     SC282714  59.153  35.927  90.003
28109DT     SC382715  59.446  35.807  89.932
28110DA     BB182716  58.912  36.499  89.602
28110DA     BB282717  58.827  36.432  89.952
28110DA     BB382718  58.963  36.532  90.082
28110DA     SC182719  59.162  36.294  90.098
28110DA     SC282720  59.237  36.127  90.267
28110DA     SC382721  59.443  36.098  90.117
28110DA     SC482722  59.283  36.291  89.992
28111DC     BB182723  58.913  36.708  90.221
28111DC     BB282724  58.914  36.517  90.527
28111DC     BB382725  59.077  36.571  90.643
28111DC     SC182726  59.242  36.440  90.487
28111DC     SC282727  59.318  36.268  90.592
28111DC     SC382728  59.439  36.392  90.318
28112DG     BB182729  58.758  36.659  90.885
28112DG     BB282730  58.993  36.441  91.054
28112DG     BB382731  59.143  36.548  91.128
28112DG     SC182732  59.316  36.527  90.876
28112DG     SC282733  59.575  36.381  90.853
28112DG     SC382734  59.522  36.541  90.610
28112DG     SC482735  59.298  36.637  90.761
28113DT     BB182736  59.187  36.562  91.352
28113DT     BB282737  59.473  36.343  91.377
28113DT     BB382738  59.645  36.455  91.403
28113DT     SC182739  59.645  36.529  91.152
28113DT     SC282740  59.810  36.436  91.049
28113DT     SC382741  59.634  36.685  90.939
28114DT     BB182742  59.659  36.369  91.660
28114DT     BB282743  59.971  36.264  91.511
28114DT     BB382744  60.110  36.417  91.523
28114DT     SC182745  59.991  36.551  91.331
28114DT     SC282746  60.116  36.551  91.156
28114DT     SC382747  59.861  36.744  91.207
28115DC     BB182748  60.239  36.270  91.706
28115DC     BB282749  60.480  36.324  91.443
28115DC     BB382750  60.574  36.506  91.470
28115DC     SC182751  60.362  36.638  91.389
28115DC     SC282752  60.403  36.729  91.198
28115DC     SC382753  60.154  36.800  91.393
28116DT     BB182754  60.794  36.368  91.535
28116DT     BB282755  60.892  36.573  91.254
28116DT     BB382756  60.947  36.761  91.320
28116DT     SC182757  60.697  36.829  91.363
28116DT     SC282758  60.638  36.978  91.219
28116DT     SC382759  60.478  36.901  91.490
28117DA     BB182760  61.242  36.604  91.068
28117DA     BB282761  61.163  36.944  90.955
28117DA     BB382762  61.239  37.088  91.094
28117DA     SC182763  60.979  37.096  91.265
28117DA     SC282764  60.794  37.257  91.311
28117DA     SC382765  60.752  37.116  91.521
28117DA     SC482766  60.970  36.997  91.391
28118DA     BB182767  61.352  37.183  90.804
28118DA     BB282768  61.167  37.494  90.863
28118DA     BB382769  61.261  37.608  91.017
28118DA     SC182770  61.095  37.480  91.246
28118DA     SC282771  60.915  37.549  91.405
28118DA     SC382772  60.990  37.347  91.545
28118DA     SC482773  61.157  37.351  91.320
28119DA     BB182774  61.223  37.814  90.766
28119DA     BB282775  61.021  38.016  90.997
28119DA     BB382776  61.145  38.104  91.146
28119DA     SC182777  61.114  37.867  91.346
28119DA     SC282778  61.004  37.824  91.566
28119DA     SC382779  61.167  37.626  91.585
28119DA     SC482780  61.224  37.750  91.340
28120DG     BB182781  61.008  38.342  91.011
28120DG     BB282782  60.871  38.386  91.343
28120DG     BB382783  61.010  38.460  91.464
28120DG     SC182784  61.116  38.186  91.551
28120DG     SC282785  61.094  38.069  91.825
28120DG     SC382786  61.269  37.903  91.653
28120DG     SC482787  61.231  38.116  91.465
28121DT     BB182788  60.975  38.649  91.551
28121DT     BB282789  60.909  38.566  91.896
28121DT     BB382790  61.078  38.599  92.011
28121DT     SC182791  61.194  38.383  91.916
28121DT     SC282792  61.207  38.235  92.071
28121DT     SC382793  61.367  38.230  91.789
28122DT     BB182794  60.963  38.819  92.122
28122DT     BB282795  61.056  38.614  92.404
28122DT     BB382796  61.252  38.653  92.459
28122DT     SC182797  61.344  38.520  92.252
28122DT     SC282798  61.440  38.340  92.320
28122DT     SC382799  61.468  38.469  92.025
28123DA     BB182800  61.032  38.702  92.813
28123DA     BB282801  61.320  38.488  92.890
28123DA     BB382802  61.498  38.604  92.899
28123DA     SC182803  61.567  38.567  92.598
28123DA     SC282804  61.738  38.448  92.461
28123DA     SC382805  61.672  38.612  92.274
28123DA     SC482806  61.513  38.679  92.495
28124DT     BB182807  61.606  38.634  93.082
28124DT     BB282808  61.880  38.412  93.006
28124DT     BB382809  62.051  38.522  92.967
28124DT     SC182810  61.961  38.592  92.731
28124DT     SC282811  62.077  38.495  92.578
28124DT     SC382812  61.875  38.744  92.533
28125DA     BB182813  62.152  38.240  93.259
28125DA     BB282814  62.403  38.220  92.993
28125DA     BB382815  62.534  38.389  93.002
28125DA     SC182816  62.362  38.564  92.811
28125DA     SC282817  62.379  38.655  92.579
28125DA     SC382818  62.200  38.823  92.655
28125DA     SC482819  62.252  38.660  92.877
28126DT     BB182820  62.722  38.351  93.046
28126DT     BB282821  62.856  38.402  92.715
28126DT     BB382822  62.952  38.585  92.705
28126DT     SC182823  62.723  38.713  92.700
28126DT     SC282824  62.694  38.800  92.505
28126DT     SC382825  62.527  38.874  92.773
28127DT     BB182826  63.179  38.447  92.692
28127DT     BB282827  63.178  38.653  92.395
28127DT     BB382828  63.251  38.842  92.440
28127DT     SC182829  63.028  38.907  92.562
28127DT     SC282830  62.924  39.055  92.446
28127DT     SC382831  62.861  38.978  92.754
28128DC     BB182832  63.470  38.777  92.301
28128DC     BB282833  63.350  39.080  92.146
28128DC     BB382834  63.419  39.245  92.250
28128DC     SC182835  63.249  39.203  92.446
28128DC     SC282836  63.100  39.359  92.445
28128DC     SC382837  63.156  39.150  92.687
28129DT     BB182838  63.594  39.303  92.049
28129DT     BB282839  63.404  39.607  92.092
28129DT     BB382840  63.490  39.724  92.239
28129DT     SC182841  63.399  39.567  92.429
28129DT     SC282842  63.246  39.669  92.540
28129DT     SC382843  63.397  39.397  92.631
28130DT     BB182844  63.601  39.912  92.062
28130DT     BB282845  63.405  40.114  92.289
28130DT     BB382846  63.522  40.172  92.450
28130DT     SC182847  63.511  39.932  92.555
28130DT     SC282848  63.391  39.938  92.734
28130DT     SC382849  63.589  39.696  92.645
28131DT     BB182850  63.562  40.445  92.372
28131DT     BB282851  63.420  40.471  92.703
28131DT     BB382852  63.571  40.480  92.844
28131DT     SC182853  63.620  40.223  92.818
28131DT     SC282854  63.559  40.120  92.997
28131DT     SC382855  63.749  40.000  92.763
28132DC     BB182856  63.541  40.754  92.900
28132DC     BB282857  63.496  40.594  93.220
28132DC     BB382858  63.678  40.579  93.318
28132DC     SC182859  63.755  40.384  93.161
28132DC     SC282860  63.763  40.201  93.274
28132DC     SC382861  63.895  40.250  92.982
28133DA     BB182862  63.409  40.761  93.583
28133DA     BB282863  63.567  40.480  93.758
28133DA     BB382864  63.769  40.529  93.810
28133DA     SC182865  63.890  40.417  93.546
28133DA     SC282866  64.031  40.225  93.475
28133DA     SC382867  64.080  40.364  93.265
28133DA     SC482868  63.908  40.520  93.423
28134DA     BB182869  63.641  40.432  94.092
28134DA     BB282870  63.892  40.165  94.086
28134DA     BB382871  64.086  40.244  94.128
28134DA     SC182872  64.154  40.299  93.830
28134DA     SC282873  64.309  40.209  93.656
28134DA     SC382874  64.272  40.432  93.536
28134DA     SC482875  64.120  40.445  93.771
28135DT     BB182876  64.150  40.175  94.284
28135DT     BB282877  64.395  39.955  94.137
28135DT     BB382878  64.582  40.043  94.142
28135DT     SC182879  64.519  40.206  93.946
28135DT     SC282880  64.631  40.153  93.770
28135DT     SC382881  64.469  40.430  93.816
28136DA     BB182882  64.595  39.650  94.290
28136DA     BB282883  64.869  39.693  94.051
28136DA     BB382884  65.018  39.824  94.132
28136DA     SC182885  64.890  40.082  94.013
28136DA     SC282886  64.942  40.250  93.836
28136DA     SC382887  64.778  40.402  93.961
28136DA     SC482888  64.786  40.162  94.106
28137DC     BB182889  65.186  39.741  94.165
28137DC     BB282890  65.370  39.896  93.895
28137DC     BB382891  65.483  40.053  93.968
28137DC     SC182892  65.270  40.205  93.993
28137DC     SC282893  65.278  40.363  93.848
28137DC     SC382894  65.082  40.351  94.106
28138DT     BB182895  65.711  39.908  93.937
28138DT     BB282896  65.772  40.211  93.751
28138DT     BB382897  65.847  40.357  93.877
28138DT     SC182898  65.611  40.397  93.984
28138DT     SC282899  65.537  40.590  93.925
28138DT     SC382900  65.419  40.407  94.165
28139DA     BB182901  66.131  40.341  93.567
28139DA     BB282902  66.046  40.694  93.619
28139DA     BB382903  66.139  40.767  93.796
28139DA     SC182904  65.900  40.695  93.981
28139DA     SC282905  65.724  40.815  94.111
28139DA     SC382906  65.703  40.597  94.245
28139DA     SC482907  65.903  40.551  94.053
28140DG     BB182908  66.300  40.977  93.621
28140DG     BB282909  66.103  41.219  93.804
28140DG     BB382910  66.192  41.264  93.976
28140DG     SC182911  66.055  41.041  94.134
28140DG     SC282912  65.856  41.079  94.354
28140DG     SC382913  65.938  40.796  94.334
28140DG     SC482914  66.123  40.896  94.140
28141DA     BB182915  66.175  41.603  93.896
28141DA     BB282916  65.965  41.664  94.191
28141DA     BB382917  66.086  41.677  94.366
28141DA     SC182918  66.067  41.374  94.431
28141DA     SC282919  65.961  41.228  94.603
28141DA     SC382920  66.132  41.051  94.530
28141DA     SC482921  66.183  41.278  94.372
28142DT     BB182922  66.092  41.853  94.459
28142DT     BB282923  65.880  41.761  94.735
28142DT     BB382924  65.994  41.731  94.905
28142DT     SC182925  66.082  41.501  94.815
28142DT     SC282926  65.998  41.342  94.933
28142DT     SC382927  66.248  41.315  94.729
28143DA     BB182928  65.676  41.991  94.992
28143DA     BB282929  65.684  41.729  95.249
28143DA     BB382930  65.852  41.757  95.378
28143DA     SC182931  66.043  41.580  95.209
28143DA     SC282932  66.156  41.359  95.230
28143DA     SC382933  66.315  41.446  95.048
28143DA     SC482934  66.132  41.653  95.097
28144DC     BB182935  65.804  41.799  95.557
28144DC     BB282936  65.892  41.480  95.703
28144DC     BB382937  66.077  41.494  95.795
28144DC     SC182938  66.201  41.493  95.565
28144DC     SC282939  66.308  41.308  95.542
28144DC     SC382940  66.350  41.574  95.363
28145DT     BB182941  65.956  41.484  96.039
28145DT     BB282942  66.194  41.212  96.046
28145DT     BB382943  66.379  41.282  96.108
28145DT     SC182944  66.422  41.396  95.875
28145DT     SC282945  66.578  41.290  95.772
28145DT     SC382946  66.464  41.584  95.695
28146DT     BB182947  66.358  41.165  96.358
28146DT     BB282948  66.666  41.033  96.225
28146DT     BB382949  66.824  41.159  96.273
28146DT     SC182950  66.748  41.334  96.093
28146DT     SC282951  66.891  41.337  95.932
28146DT     SC382952  66.662  41.559  95.987
28147DT     BB182953  66.937  40.994  96.476
28147DT     BB282954  67.209  41.044  96.244
28147DT     BB382955  67.320  41.210  96.299
28147DT     SC182956  67.133  41.373  96.213
28147DT     SC282957  67.205  41.476  96.038
28147DT     SC382958  66.945  41.558  96.215
28148DT     BB182959  67.540  41.063  96.397
28148DT     BB282960  67.680  41.275  96.140
28148DT     BB382961  67.745  41.453  96.223
28148DT     SC182962  67.498  41.540  96.248
28148DT     SC282963  67.465  41.701  96.109
28148DT     SC382964  67.275  41.624  96.360
28149DT     BB182965  68.005  41.379  96.189
28149DT     BB282966  67.969  41.683  95.998
28149DT     BB382967  68.006  41.847  96.119
28149DT     SC182968  67.774  41.821  96.239
28149DT     SC282969  67.646  41.984  96.183
28149DT     SC382970  67.596  41.780  96.430
28150DT     BB182971  68.216  41.867  95.966
28150DT     BB282972  68.031  42.173  95.920
28150DT     BB382973  68.071  42.305  96.075
28150DT     SC182974  67.923  42.167  96.241
28150DT     SC282975  67.747  42.280  96.290
28150DT     SC382976  67.855  42.018  96.448
28151DA     BB182977  68.080  42.464  95.682
28151DA     BB282978  67.878  42.681  95.897
28151DA     BB382979  68.000  42.774  96.045
28151DA     SC182980  67.959  42.548  96.255
28151DA     SC282981  67.843  42.518  96.474
28151DA     SC382982  68.000  42.318  96.507
28151DA     SC482983  68.066  42.428  96.258
28152DT     BB182984  67.985  42.937  96.009
28152DT     BB282985  67.784  43.029  96.295
28152DT     BB382986  67.907  43.086  96.452
28152DT     SC182987  67.974  42.837  96.500
28152DT     SC282988  67.887  42.775  96.687
28152DT     SC382989  68.122  42.621  96.526
28153DG     BB182990  67.635  43.379  96.362
28153DG     BB282991  67.636  43.297  96.714
28153DG     BB382992  67.799  43.371  96.800
28153DG     SC182993  67.969  43.121  96.750
28153DG     SC282994  68.075  42.936  96.958
28153DG     SC382995  68.189  42.872  96.693
28153DG     SC482996  68.050  43.109  96.612
28154DC     BB182997  67.776  43.515  96.954
28154DC     BB282998  67.859  43.325  97.249
28154DC     BB382999  68.054  43.366  97.306
28154DC     SC183000  68.150  43.221  97.110
28154DC     SC283001  68.241  43.043  97.190
28154DC     SC383002  68.279  43.156  96.889
28155DT     BB183003  67.959  43.504  97.517
28155DT     BB283004  68.173  43.252  97.661
28155DT     BB383005  68.370  43.318  97.662
28155DT     SC183006  68.392  43.278  97.403
28155DT     SC283007  68.525  43.113  97.368
28155DT     SC383008  68.427  43.329  97.147
28156DT     BB183009  68.350  43.342  97.927
28156DT     BB283010  68.627  43.116  97.874
28156DT     BB383011  68.800  43.224  97.840
28156DT     SC183012  68.723  43.286  97.597
28156DT     SC283013  68.846  43.183  97.454
28156DT     SC383014  68.649  43.432  97.390
28157DT     BB183015  68.874  43.135  98.076
28157DT     BB283016  69.129  43.021  97.848
28157DT     BB383017  69.265  43.173  97.813
28157DT     SC183018  69.095  43.300  97.658
28157DT     SC283019  69.164  43.291  97.454
28157DT     SC383020  68.934  43.488  97.569
28158DT     BB183021  69.424  43.017  97.950
28158DT     BB283022  69.588  43.068  97.632
28158DT     BB383023  69.685  43.251  97.631
28158DT     SC183024  69.457  43.380  97.605
28158DT     SC283025  69.447  43.467  97.408
28158DT     SC383026  69.255  43.540  97.659
28159DA     BB183027  69.941  42.944  97.498
28159DA     BB283028  69.967  43.227  97.266
28159DA     BB383029  70.063  43.392  97.361
28159DA     SC183030  69.798  43.517  97.466
28159DA     SC283031  69.658  43.719  97.419
28159DA     SC383032  69.557  43.677  97.652
28159DA     SC483033  69.749  43.476  97.613
28160DA     BB183034  70.250  43.367  97.089
28160DA     BB283035  70.154  43.714  97.017
28160DA     BB383036  70.249  43.847  97.153
28160DA     SC183037  70.018  43.839  97.361
28160DA     SC283038  69.842  43.993  97.447
28160DA     SC383039  69.832  43.835  97.649
28160DA     SC483040  70.028  43.730  97.479
28161DC     BB183041  70.409  43.992  97.099
28161DC     BB283042  70.210  44.292  97.126
28161DC     BB383043  70.266  44.399  97.294
28161DC     SC183044  70.145  44.229  97.453
28161DC     SC283045  69.973  44.324  97.541
28161DC     SC383046  70.108  44.046  97.640
28162DT     BB183047  70.412  44.605  97.161
28162DT     BB283048  70.170  44.786  97.357
28162DT     BB383049  70.250  44.835  97.542
28162DT     SC183050  70.225  44.587  97.626
28162DT     SC283051  70.072  44.578  97.777
28162DT     SC383052  70.290  44.347  97.713
28163DA     BB183053  70.119  45.205  97.392
28163DA     BB283054  69.984  45.170  97.731
28163DA     BB383055  70.136  45.205  97.876
28163DA     SC183056  70.223  44.907  97.893
28163DA     SC283057  70.211  44.720  98.058
28163DA     SC383058  70.401  44.615  97.922
28163DA     SC483059  70.342  44.858  97.796
28164DC     BB183060  70.123  45.369  97.999
28164DC     BB283061  70.023  45.189  98.295
28164DC     BB383062  70.180  45.180  98.429
28164DC     SC183063  70.302  44.998  98.284
28164DC     SC283064  70.299  44.810  98.388
28164DC     SC383065  70.485  44.883  98.133
28165DA     BB183066  69.841  45.322  98.630
28165DA     BB283067  69.985  45.048  98.828
28165DA     BB383068  70.166  45.112  98.921
28165DA     SC183069  70.348  45.020  98.685
28165DA     SC283070  70.518  44.843  98.641
28165DA     SC383071  70.595  44.994  98.448
28165DA     SC483072  70.382  45.129  98.571
28166DA     BB183073  69.997  44.994  99.175
28166DA     BB283074  70.272  44.756  99.219
28166DA     BB383075  70.444  44.855  99.296
28166DA     SC183076  70.562  44.921  99.016
28166DA     SC283077  70.756  44.850  98.876
28166DA     SC383078  70.719  45.070  98.749
28166DA     SC483079  70.524  45.063  98.951
28167DT     BB183080  70.504  44.806  99.480
28167DT     BB283081  70.797  44.618  99.385
28167DT     BB383082  70.967  44.731  99.417
28167DT     SC183083  70.918  44.880  99.207
28167DT     SC283084  71.064  44.839  99.054
28167DT     SC383085  70.863  45.093  99.061
28168DT     BB183086  71.039  44.580  99.636
28168DT     BB283087  71.327  44.562  99.419
28168DT     BB383088  71.453  44.722  99.456
28168DT     SC183089  71.292  44.889  99.333
28168DT     SC283090  71.384  44.954  99.149
28168DT     SC383091  71.127  45.090  99.293
28169DC     BB183092  71.647  44.569  99.589
28169DC     BB283093  71.830  44.726  99.321
28169DC     BB383094  71.905  44.909  99.383
28169DC     SC183095  71.668  45.020  99.371
28169DC     SC283096  71.664  45.161  99.209
28169DC     SC383097  71.445  45.140  99.447
28170DA     BB183098  72.242  44.705  99.237
28170DA     BB283099  72.233  45.035  99.076
28170DA     BB383100  72.299  45.185  99.212
28170DA     SC183101  72.014  45.245  99.322
28170DA     SC283102  71.848  45.430  99.312
28170DA     SC383103  71.746  45.323  99.522
28170DA     SC483104  71.967  45.164  99.453
28171DA     BB183105  72.511  45.256  98.972
28171DA     BB283106  72.348  45.584  98.948
28171DA     BB383107  72.418  45.713  99.103
28171DA     SC183108  72.195  45.631  99.304
28171DA     SC283109  71.994  45.734  99.409
28171DA     SC383110  72.017  45.551  99.587
28171DA     SC483111  72.228  45.510  99.406
28172DA     BB183112  72.470  45.895  98.838
28172DA     BB283113  72.235  46.136  98.983
28172DA     BB383114  72.327  46.241  99.145
28172DA     SC183115  72.235  46.038  99.362
28172DA     SC283116  72.074  46.033  99.553
28172DA     SC383117  72.214  45.834  99.637
28172DA     SC483118  72.335  45.918  99.398
28173DG     BB183119  72.259  46.479  98.961
28173DG     BB283120  72.046  46.571  99.239
28173DG     BB383121  72.154  46.659  99.381
28173DG     SC183122  72.219  46.398  99.527
28173DG     SC283123  72.123  46.321  99.799
28173DG     SC383124  72.326  46.129  99.700
28173DG     SC483125  72.348  46.315  99.484
28174DT     BB183126  72.115  46.868  99.438
28174DT     BB283127  71.953  46.829  99.758
28174DT     BB383128  72.086  46.873  99.911
28174DT     SC183129  72.213  46.645  99.876
28174DT     SC283130  72.176  46.517 100.045
28174DT     SC383131  72.406  46.475  99.821
28175DA     BB183132  71.750  47.112  99.987
28175DA     BB283133  71.839  46.944 100.301
28175DA     BB383134  72.012  47.034 100.386
28175DA     SC183135  72.212  46.844 100.242
28175DA     SC283136  72.368  46.659 100.303
28175DA     SC383137  72.484  46.711 100.080
28175DA     SC483138  72.272  46.893 100.100
28176DA     BB183139  71.827  47.074 100.658
28176DA     BB283140  72.065  46.857 100.835
28176DA     BB383141  72.239  46.967 100.889
28176DA     SC183142  72.393  46.902 100.626
28176DA     SC283143  72.589  46.765 100.557
28176DA     SC383144  72.593  46.914 100.348
28176DA     SC483145  72.379  47.005 100.505
28177DA     BB183146  72.170  46.859 101.192
28177DA     BB283147  72.491  46.681 101.183
28177DA     BB383148  72.652  46.816 101.222
28177DA     SC183149  72.697  46.887 100.922
28177DA     SC283150  72.869  46.847 100.747
28177DA     SC383151  72.765  47.048 100.627
28177DA     SC483152  72.619  47.015 100.864
28178DA     BB183153  72.706  46.584 101.441
28178DA     BB283154  73.024  46.525 101.267
28178DA     BB383155  73.163  46.680 101.314
28178DA     SC183156  73.080  46.860 101.074
28178DA     SC283157  73.177  46.937 100.858
28178DA     SC383158  73.004  47.126 100.870
28178DA     SC483159  72.966  46.971 101.101
28179DT     BB183160  73.304  46.609 101.402
28179DT     BB283161  73.540  46.627 101.129
28179DT     BB383162  73.660  46.794 101.150
28179DT     SC183163  73.466  46.954 101.075
28179DT     SC283164  73.512  47.037 100.882
28179DT     SC383165  73.283  47.144 101.085
28180DT     BB183166  73.824  46.599 101.182
28180DT     BB283167  73.953  46.794 100.908
28180DT     BB383168  74.044  46.966 100.979
28180DT     SC183169  73.812  47.077 101.031
28180DT     SC283170  73.780  47.240 100.895
28180DT     SC383171  73.613  47.183 101.167
28181DA     BB183172  74.278  46.759 100.695
28181DA     BB283173  74.282  47.117 100.615
28181DA     BB383174  74.388  47.226 100.765
28181DA     SC183175  74.136  47.279 100.939
28181DA     SC283176  73.994  47.474 101.003
28181DA     SC383177  73.918  47.328 101.200
28181DA     SC483178  74.102  47.174 101.056
28182DA     BB183179  74.540  47.330 100.492
28182DA     BB283180  74.443  47.669 100.594
28182DA     BB383181  74.558  47.731 100.763
28182DA     SC183182  74.354  47.623 100.971
28182DA     SC283183  74.193  47.716 101.138
28182DA     SC383184  74.204  47.485 101.248
28182DA     SC483185  74.375  47.473 101.026
28183DT     BB183186  74.693  47.883 100.743
28183DT     BB283187  74.507  48.133 100.925
28183DT     BB383188  74.591  48.161 101.112
28183DT     SC183189  74.491  47.935 101.199
28183DT     SC283190  74.337  47.976 101.343
28183DT     SC383191  74.479  47.689 101.293
28184DA     BB183192  74.568  48.544 100.942
28184DA     BB283193  74.428  48.564 101.280
28184DA     BB383194  74.584  48.557 101.425
28184DA     SC183195  74.576  48.247 101.454
28184DA     SC283196  74.508  48.079 101.625
28184DA     SC383197  74.657  47.916 101.495
28184DA     SC483198  74.675  48.161 101.360
28185DT     BB183199  74.620  48.721 101.540
28185DT     BB283200  74.477  48.593 101.846
28185DT     BB383201  74.628  48.542 101.978
28185DT     SC183202  74.685  48.326 101.841
28185DT     SC283203  74.628  48.152 101.955
28185DT     SC383204  74.821  48.153 101.694
28186DT     BB183205  74.558  48.754 102.126
28186DT     BB283206  74.533  48.474 102.352
28186DT     BB383207  74.718  48.433 102.435
28186DT     SC183208  74.804  48.326 102.212
28186DT     SC283209  74.828  48.114 102.239
28186DT     SC383210  74.948  48.288 101.994
28187DT     BB183211  74.619  48.528 102.664
28187DT     BB283212  74.735  48.196 102.744
28187DT     BB383213  74.937  48.199 102.785
28187DT     SC183214  74.996  48.226 102.531
28187DT     SC283215  75.089  48.045 102.460
28187DT     SC383216  75.088  48.331 102.307
28188DG     BB183217  74.757  48.045 103.118
28188DG     BB283218  75.032  47.836 103.010
28188DG     BB383219  75.205  47.918 103.065
28188DG     SC183220  75.238  48.082 102.809
28188DG     SC283221  75.448  48.042 102.601
28188DG     SC383222  75.295  48.290 102.549
28188DG     SC483223  75.174  48.229 102.801
28189DT     BB183224  75.368  47.832 103.226
28189DT     BB283225  75.635  47.726 103.009
28189DT     BB383226  75.795  47.856 103.024
28189DT     SC183227  75.669  48.038 102.883
28189DT     SC283228  75.765  48.059 102.691
28189DT     SC383229  75.551  48.265 102.820
28190DT     BB183230  75.985  47.705 103.196
28190DT     BB283231  76.187  47.787 102.909
28190DT     BB383232  76.293  47.961 102.944
28190DT     SC183233  76.078  48.108 102.913
28190DT     SC283234  76.095  48.222 102.731
28190DT     SC383235  75.881  48.274 102.968
28191DA     BB183236  76.632  47.715 102.863
28191DA     BB283237  76.666  48.011 102.649
28191DA     BB383238  76.749  48.174 102.760
28191DA     SC183239  76.473  48.285 102.850
28191DA     SC283240  76.331  48.485 102.804
28191DA     SC383241  76.215  48.428 103.026
28191DA     SC483242  76.414  48.234 102.991
28192DG     BB183243  77.007  48.184 102.571
28192DG     BB283244  76.866  48.500 102.468
28192DG     BB383245  76.936  48.647 102.583
28192DG     SC183246  76.712  48.623 102.791
28192DG     SC283247  76.502  48.828 102.846
28192DG     SC383248  76.494  48.612 103.048
28192DG     SC483249  76.730  48.522 102.914
28193DT     BB183250  77.055  48.813 102.496
28193DT     BB283251  76.805  49.074 102.489
28193DT     BB383252  76.843  49.212 102.638
28193DT     SC183253  76.756  49.047 102.823
28193DT     SC283254  76.570  49.121 102.903
28193DT     SC383255  76.755  48.890 103.035
28194DA     BB183256  76.776  49.390 102.265
28194DA     BB283257  76.562  49.555 102.514
28194DA     BB383258  76.681  49.672 102.647
28194DA     SC183259  76.721  49.442 102.852
28194DA     SC283260  76.647  49.385 103.084
28194DA     SC383261  76.848  49.226 103.087
28194DA     SC483262  76.852  49.349 102.835
28195DA     BB183263  76.438  49.860 102.536
28195DA     BB283264  76.343  49.898 102.888
28195DA     BB383265  76.491  50.011 102.993
28195DA     SC183266  76.657  49.761 103.076
28195DA     SC283267  76.709  49.636 103.286
28195DA     SC383268  76.910  49.543 103.156
28195DA     SC483269  76.777  49.716 102.979
28196DT     BB183270  76.422  50.169 103.052
28196DT     BB283271  76.412  50.089 103.404
28196DT     BB383272  76.579  50.166 103.499
28196DT     SC183273  76.733  49.980 103.397
28196DT     SC283274  76.797  49.846 103.553
28196DT     SC383275  76.925  49.866 103.256
28197DT     BB183276  76.422  50.353 103.616
28197DT     BB283277  76.590  50.191 103.891
28197DT     BB383278  76.775  50.279 103.922
28197DT     SC183279  76.876  50.161 103.711
28197DT     SC283280  77.018  50.012 103.773
28197DT     SC383281  76.984  50.129 103.472
28198DA     BB183282  76.593  50.302 104.301
28198DA     BB283283  76.930  50.167 104.351
28198DA     BB383284  77.075  50.322 104.334
28198DA     SC183285  77.117  50.283 104.028
28198DA     SC283286  77.296  50.199 103.875
28198DA     SC383287  77.173  50.330 103.692
28198DA     SC483288  77.027  50.371 103.928
28199DT     BB183289  77.202  50.402 104.503
28199DT     BB283290  77.509  50.242 104.401
28199DT     BB383291  77.644  50.383 104.333
28199DT     SC183292  77.511  50.412 104.108
28199DT     SC283293  77.627  50.331 103.946
28199DT     SC383294  77.369  50.525 103.917
28200DA     BB183295  77.854  50.172 104.627
28200DA     BB283296  78.061  50.177 104.324
28200DA     BB383297  78.152  50.369 104.300
28200DA     SC183298  77.920  50.484 104.128
28200DA     SC283299  77.881  50.552 103.891
28200DA     SC383300  77.683  50.687 103.984
28200DA     SC483301  77.802  50.562 104.205
28201DT     BB183302  78.361  50.391 104.315
28201DT     BB283303  78.421  50.421 103.961
28201DT     BB383304  78.473  50.616 103.914
28201DT     SC183305  78.225  50.697 103.942
28201DT     SC283306  78.145  50.750 103.750
28201DT     SC383307  78.015  50.825 104.037
28202DC     BB183308  78.727  50.533 103.868
28202DC     BB283309  78.620  50.681 103.557
28202DC     BB383310  78.657  50.885 103.559
28202DC     SC183311  78.455  50.927 103.721
28202DC     SC283312  78.299  51.031 103.615
28202DC     SC383313  78.320  50.998 103.936
28203DC     BB183314  78.849  50.836 103.379
28203DC     BB283315  78.625  51.068 103.218
28203DC     BB383316  78.674  51.262 103.270
28203DC     SC183317  78.571  51.232 103.510
28203DC     SC283318  78.393  51.352 103.526
28203DC     SC383319  78.553  51.216 103.772
28204DT     BB183320  78.754  51.284 103.019
28204DT     BB283321  78.504  51.540 103.062
28204DT     BB383322  78.589  51.709 103.147
28204DT     SC183323  78.601  51.594 103.383
28204DT     SC283324  78.461  51.688 103.516
28204DT     SC383325  78.702  51.490 103.603
28205DT     BB183326  78.546  51.813 102.910
28205DT     BB283327  78.370  52.026 103.142
28205DT     BB383328  78.501  52.162 103.227
28205DT     SC183329  78.606  51.976 103.380
28205DT     SC283330  78.551  52.013 103.585
28205DT     SC383331  78.783  51.811 103.484
28206DA     BB183332  78.150  52.343 103.084
28206DA     BB283333  78.217  52.466 103.423
28206DA     BB383334  78.390  52.591 103.423
28206DA     SC183335  78.587  52.358 103.483
28206DA     SC283336  78.731  52.281 103.671
28206DA     SC383337  78.859  52.148 103.493
28206DA     SC483338  78.655  52.284 103.357
28207DA     BB183339  78.156  52.762 103.575
28207DA     BB283340  78.387  52.776 103.860
28207DA     BB383341  78.555  52.899 103.813
28207DA     SC183342  78.726  52.664 103.701
28207DA     SC283343  78.930  52.536 103.768
28207DA     SC383344  78.943  52.469 103.520
28207DA     SC483345  78.718  52.635 103.544
28208DC     BB183346  78.561  53.049 103.918
28208DC     BB283347  78.848  52.962 104.119
28208DC     BB383348  79.018  53.052 104.042
28208DC     SC183349  79.027  52.882 103.843
28208DC     SC283350  79.197  52.752 103.868
28208DC     SC383351  79.024  52.788 103.596
28209DA     BB183352  79.009  53.152 104.451
28209DA     BB283353  79.352  53.051 104.369
28209DA     BB383354  79.447  53.201 104.252
28209DA     SC183355  79.359  53.079 103.979
28209DA     SC283356  79.465  52.964 103.786
28209DA     SC383357  79.255  53.033 103.655
28209DA     SC483358  79.222  53.133 103.915
28210DA     BB183359  79.697  53.215 104.479
28210DA     BB283360  79.932  53.125 104.213
28210DA     BB383361  79.977  53.295 104.092
28210DA     SC183362  79.746  53.243 103.890
28210DA     SC283363  79.722  53.172 103.652
28210DA     SC383364  79.488  53.276 103.666
28210DA     SC483365  79.605  53.314 103.918
28211DT     BB183366  80.183  53.426 104.073
28211DT     BB283367  80.279  53.306 103.747
28211DT     BB383368  80.268  53.460 103.609
28211DT     SC183369  80.006  53.447 103.605
28211DT     SC283370  79.941  53.370 103.415
28211DT     SC383371  79.753  53.517 103.634
28212DT     BB183372  80.551  53.521 103.577
28212DT     BB283373  80.444  53.453 103.240
28212DT     BB383374  80.393  53.630 103.144
28212DT     SC183375  80.168  53.647 103.279
28212DT     SC283376  80.003  53.613 103.146
28212DT     SC383377  79.984  53.738 103.444
28213DA     BB183378  80.671  53.449 102.888
28213DA     BB283379  80.379  53.541 102.686
28213DA     BB383380  80.378  53.751 102.648
28213DA     SC183381  80.210  53.820 102.900
28213DA     SC283382  79.980  53.902 102.952
28213DA     SC383383  80.078  53.971 103.180
28213DA     SC483384  80.290  53.857 103.035
28214DA     BB183385  80.354  53.641 102.341
28214DA     BB283386  80.032  53.816 102.324
28214DA     BB383387  80.062  54.026 102.304
28214DA     SC183388  80.062  54.080 102.610
28214DA     SC283389  79.915  54.191 102.778
28214DA     SC383390  80.124  54.202 102.925
28214DA     SC483391  80.204  54.078 102.686
28215DT     BB183392  80.003  54.108 102.134
28215DT     BB283393  79.713  54.278 102.263
28215DT     BB383394  79.753  54.480 102.285
28215DT     SC183395  79.899  54.436 102.499
28215DT     SC283396  79.797  54.512 102.672
28215DT     SC383397  80.109  54.425 102.658
28216DA     BB183398  79.400  54.462 102.057
28216DA     BB283399  79.346  54.707 102.324
28216DA     BB383400  79.452  54.887 102.283
28216DA     SC183401  79.710  54.798 102.433
28216DA     SC283402  79.832  54.859 102.641
28216DA     SC383403  80.034  54.745 102.532
28216DA     SC483404  79.824  54.724 102.347
28217DT     BB183405  79.361  55.092 102.227
28217DT     BB283406  79.426  55.255 102.542
28217DT     BB383407  79.573  55.399 102.518
28217DT     SC183408  79.761  55.216 102.502
28217DT     SC283409  79.884  55.225 102.678
28217DT     SC383410  79.956  55.069 102.404
28218DT     BB183411  79.417  55.658 102.515
28218DT     BB283412  79.656  55.711 102.780
28218DT     BB383413  79.820  55.815 102.708
28218DT     SC183414  79.910  55.602 102.584
28218DT     SC283415  80.090  55.534 102.681
28218DT     SC383416  79.986  55.443 102.388
28219DT     BB183417  79.780  56.100 102.812
28219DT     BB283418  80.100  56.005 102.947
28219DT     BB383419  80.253  56.081 102.829
28219DT     SC183420  80.208  55.901 102.643
28219DT     SC283421  80.372  55.763 102.636
28219DT     SC383422  80.143  55.797 102.409
28220DT     BB183423  80.337  56.281 103.013
28220DT     BB283424  80.621  56.062 102.976
28220DT     BB383425  80.747  56.134 102.828
28220DT     SC183426  80.583  56.055 102.639
28220DT     SC283427  80.671  55.891 102.532
28220DT     SC383428  80.416  56.065 102.435
28221DG     BB183429  80.933  56.080 103.184
28221DG     BB283430  81.086  55.887 102.919
28221DG     BB383431  81.198  56.006 102.805
28221DG     SC183432  80.970  56.076 102.612
28221DG     SC283433  80.953  55.997 102.325
28221DG     SC383434  80.740  56.189 102.394
28221DG     SC483435  80.876  56.201 102.646
28222DC     BB183436  81.372  55.933 102.809
28222DC     BB283437  81.398  55.783 102.482
28222DC     BB383438  81.487  55.916 102.351
28222DC     SC183439  81.268  56.060 102.336
28222DC     SC283440  81.181  56.038 102.140
28222DC     SC383441  81.104  56.265 102.358
28223DT     BB183442  81.664  55.730 102.369
28223DT     BB283443  81.577  55.751 102.020
28223DT     BB383444  81.671  55.914 101.933
28223DT     SC183445  81.504  56.081 102.049
28223DT     SC283446  81.376  56.169 101.900
28223DT     SC383447  81.414  56.274 102.204
28224DT     BB183448  81.804  55.725 101.812
28224DT     BB283449  81.659  55.926 101.550
28224DT     BB383450  81.774  56.095 101.519
28224DT     SC183451  81.683  56.206 101.739
28224DT     SC283452  81.556  56.372 101.688
28224DT     SC383453  81.680  56.310 101.981
28225DT     BB183454  81.836  55.978 101.292
28225DT     BB283455  81.701  56.299 101.198
28225DT     BB383456  81.847  56.445 101.215
28225DT     SC183457  81.830  56.444 101.477
28225DT     SC283458  81.742  56.629 101.543
28225DT     SC383459  81.897  56.414 101.730
28226DA     BB183460  81.656  56.468 100.842
28226DA     BB283461  81.674  56.805 100.984
28226DA     BB383462  81.876  56.875 100.983
28226DA     SC183463  81.941  56.765 101.267
28226DA     SC283464  81.987  56.857 101.494
28226DA     SC383465  82.094  56.629 101.542
28226DA     SC483466  82.004  56.618 101.277
28227DT     BB183467  81.897  57.020 100.872
28227DT     BB283468  81.941  57.272 101.127
28227DT     BB383469  82.143  57.311 101.153
28227DT     SC183470  82.179  57.085 101.282
28227DT     SC283471  82.219  57.126 101.489
28227DT     SC383472  82.267  56.843 101.339
28228DA     BB183473  81.933  57.672 101.107
28228DA     BB283474  82.164  57.709 101.389
28228DA     BB383475  82.366  57.717 101.319
28228DA     SC183476  82.410  57.409 101.340
28228DA     SC283477  82.541  57.251 101.480
28228DA     SC383478  82.508  57.085 101.288
28228DA     SC483479  82.379  57.321 101.209
28229DA     BB183480  82.362  57.991 101.504
28229DA     BB283481  82.645  57.850 101.689
28229DA     BB383482  82.821  57.853 101.568
28229DA     SC183483  82.773  57.570 101.448
28229DA     SC283484  82.876  57.343 101.464
28229DA     SC383485  82.756  57.296 101.241
28229DA     SC483486  82.692  57.560 101.309
28230DC     BB183487  82.992  57.981 101.607
28230DC     BB283488  83.228  57.728 101.708
28230DC     BB383489  83.366  57.695 101.558
28230DC     SC183490  83.191  57.562 101.415
28230DC     SC283491  83.246  57.354 101.410
28230DC     SC383492  83.029  57.498 101.217
28231DT     BB183493  83.609  57.848 101.649
28231DT     BB283494  83.749  57.524 101.575
28231DT     BB383495  83.826  57.522 101.383
28231DT     SC183496  83.586  57.512 101.278
28231DT     SC283497  83.555  57.318 101.188
28231DT     SC383498  83.372  57.581 101.140
28232DA     BB183499  84.201  57.420 101.564
28232DA     BB283500  84.152  57.177 101.293
28232DA     BB383501  84.214  57.261 101.107
28232DA     SC183502  83.933  57.377 101.038
28232DA     SC283503  83.751  57.332 100.874
28232DA     SC383504  83.674  57.572 100.926
28232DA     SC483505  83.902  57.528 101.083
28233DC     BB183506  84.407  57.203 100.959
28233DC     BB283507  84.209  57.024 100.717
28233DC     BB383508  84.213  57.123 100.535
28233DC     SC183509  84.050  57.309 100.624
28233DC     SC283510  83.860  57.289 100.525
28233DC     SC383511  83.960  57.546 100.697
28234DA     BB183512  84.335  56.734 100.440
28234DA     BB283513  84.060  56.821 100.214
28234DA     BB383514  84.129  56.949 100.059
28234DA     SC183515  84.067  57.211 100.215
28234DA     SC283516  83.906  57.401 100.201
28234DA     SC383517  84.075  57.529 100.346
28234DA     SC483518  84.185  57.274 100.305
28235DT     BB183519  84.125  56.878  99.871
28235DT     BB283520  83.836  57.065  99.764
28235DT     BB383521  83.894  57.221  99.640
28235DT     SC183522  83.986  57.359  99.844
28235DT     SC283523  83.859  57.530  99.876
28235DT     SC383524  84.155  57.485 100.002
28236DA     BB183525  83.587  57.002  99.458
28236DA     BB283526  83.498  57.357  99.443
28236DA     BB383527  83.622  57.458  99.301
28236DA     SC183528  83.841  57.534  99.509
28236DA     SC283529  83.926  57.740  99.621
28236DA     SC383530  84.138  57.603  99.667
28236DA     SC483531  83.964  57.433  99.527
28237DA     BB183532  83.324  57.545  99.198
28237DA     BB283533  83.425  57.891  99.260
28237DA     BB383534  83.563  57.956  99.110
28237DA     SC183535  83.815  57.867  99.267
28237DA     SC283536  84.007  57.974  99.386
28237DA     SC383537  84.124  57.748  99.358
28237DA     SC483538  83.872  57.719  99.239
28238DC     BB183539  83.503  58.101  98.984
28238DC     BB283540  83.703  58.366  99.125
28238DC     BB383541  83.866  58.404  99.002
28238DC     SC183542  83.987  58.186  99.082
28238DC     SC283543  84.158  58.238  99.201
28238DC     SC383544  84.098  57.947  99.074
28239DT     BB183545  83.757  58.642  98.914
28239DT     BB283546  84.078  58.736  99.050
28239DT     BB383547  84.224  58.722  98.904
28239DT     SC183548  84.224  58.460  98.918
28239DT     SC283549  84.409  58.393  99.005
28239DT     SC383550  84.196  58.207  98.847
28240DA     BB183551  84.255  59.106  99.067
28240DA     BB283552  84.590  58.956  99.067
28240DA     BB383553  84.669  58.953  98.869
28240DA     SC183554  84.556  58.671  98.802
28240DA     SC283555  84.645  58.441  98.763
28240DA     SC383556  84.421  58.397  98.646
28240DA     SC483557  84.412  58.664  98.732
28241DC     BB183558  84.829  59.066  98.834
28241DC     BB283559  85.069  58.796  98.824
28241DC     BB383560  85.125  58.758  98.629
28241DC     SC183561  84.896  58.640  98.578
28241DC     SC283562  84.929  58.429  98.551
28241DC     SC383563  84.660  58.591  98.471
28242DC     BB183564  85.358  58.860  98.699
28242DC     BB283565  85.432  58.528  98.580
28242DC     BB383566  85.447  58.528  98.374
28242DC     SC183567  85.187  58.547  98.347
28242DC     SC283568  85.110  58.363  98.268
28242DC     SC383569  84.950  58.644  98.283
28243DT     BB183570  85.706  58.489  98.414
28243DT     BB283571  85.600  58.213  98.206
28243DT     BB383572  85.597  58.272  98.008
28243DT     SC183573  85.377  58.410  98.044
28243DT     SC283574  85.215  58.314  97.941
28243DT     SC383575  85.213  58.616  98.058
28244DA     BB183576  85.819  57.916  98.033
28244DA     BB283577  85.583  57.882  97.755
28244DA     BB383578  85.643  58.004  97.591
28244DA     SC183579  85.480  58.252  97.684
28244DA     SC283580  85.278  58.379  97.610
28244DA     SC383581  85.371  58.571  97.753
28244DA     SC483582  85.554  58.360  97.777
28245DA     BB183583  85.628  57.724  97.413
28245DA     BB283584  85.376  57.888  97.203
28245DA     BB383585  85.468  58.025  97.069
28245DA     SC183586  85.447  58.267  97.264
28245DA     SC283587  85.319  58.481  97.279
28245DA     SC383588  85.503  58.556  97.441
28245DA     SC483589  85.571  58.296  97.361
28246DA     BB183590  85.324  57.865  96.811
28246DA     BB283591  85.147  58.177  96.732
28246DA     BB383592  85.274  58.309  96.624
28246DA     SC183593  85.385  58.450  96.878
28246DA     SC283594  85.367  58.674  96.988
28246DA     SC383595  85.583  58.608  97.109
28246DA     SC483596  85.520  58.392  96.943
28247DA     BB183597  85.050  58.325  96.373
28247DA     BB283598  85.012  58.683  96.446
28247DA     BB383599  85.166  58.795  96.350
28247DA     SC183600  85.361  58.778  96.592
28247DA     SC283601  85.456  58.932  96.763
28247DA     SC383602  85.639  58.755  96.792
28247DA     SC483603  85.467  58.657  96.594
28248DA     BB183604  84.925  58.971  96.207
28248DA     BB283605  85.047  59.260  96.396
28248DA     BB383606  85.213  59.349  96.297
28248DA     SC183607  85.425  59.177  96.446
28248DA     SC283608  85.602  59.211  96.619
28248DA     SC383609  85.701  58.991  96.531
28248DA     SC483610  85.472  59.039  96.377
28249DA     BB183611  85.018  59.604  96.330
28249DA     BB283612  85.277  59.745  96.547
28249DA     BB383613  85.439  59.820  96.431
28249DA     SC183614  85.598  59.552  96.435
28249DA     SC283615  85.807  59.464  96.537
28249DA     SC383616  85.795  59.283  96.356
28249DA     SC483617  85.573  59.449  96.315
28250DT     BB183618  85.441  59.986  96.467
28250DT     BB283619  85.730  59.977  96.682
28250DT     BB383620  85.900  60.024  96.574
28250DT     SC183621  85.901  59.788  96.458
28250DT     SC283622  86.068  59.673  96.531
28250DT     SC383623  85.889  59.603  96.270
28251DG     BB183624  85.837  60.239  96.914
28251DG     BB283625  86.168  60.094  96.902
28251DG     BB383626  86.280  60.190  96.768
28251DG     SC183627  86.200  60.008  96.535
28251DG     SC283628  86.380  59.821  96.389
28251DG     SC383629  86.118  59.842  96.253
28251DG     SC483630  86.069  60.045  96.449
28252DT     BB183631  86.434  60.263  96.855
28252DT     BB283632  86.705  60.063  96.727
28252DT     BB383633  86.788  60.155  96.561
28252DT     SC183634  86.583  60.085  96.411
28252DT     SC283635  86.646  59.936  96.269
28252DT     SC383636  86.370  60.106  96.258
28253DA     BB183637  87.098  60.056  96.827
28253DA     BB283638  87.202  59.956  96.490
28253DA     BB383639  87.245  60.128  96.371
28253DA     SC183640  86.955  60.154  96.261
28253DA     SC283641  86.836  60.124  96.044
28253DA     SC383642  86.654  60.273  96.146
28253DA     SC483643  86.853  60.250  96.342
28254DT     BB183644  87.443  60.176  96.307
28254DT     BB283645  87.401  60.096  95.957
28254DT     BB383646  87.393  60.270  95.845
28254DT     SC183647  87.149  60.321  95.927
28254DT     SC283648  87.012  60.296  95.763
28254DT     SC383649  86.947  60.443  96.045
28255DA     BB183650  87.705  60.063  95.653
28255DA     BB283651  87.479  60.181  95.390
28255DA     BB383652  87.510  60.388  95.353
28255DA     SC183653  87.298  60.482  95.560
28255DA     SC283654  87.073  60.590  95.559
28255DA     SC383655  87.123  60.652  95.802
28255DA     SC483656  87.348  60.513  95.710
28256DA     BB183657  87.564  60.315  95.032
28256DA     BB283658  87.271  60.517  94.947
28256DA     BB383659  87.323  60.724  94.940
28256DA     SC183660  87.257  60.776  95.240
28256DA     SC283661  87.085  60.898  95.373
28256DA     SC383662  87.255  60.889  95.564
28256DA     SC483663  87.377  60.761  95.346
28257DA     BB183664  87.195  60.712  94.638
28257DA     BB283665  86.944  60.955  94.751
28257DA     BB383666  87.027  61.151  94.753
28257DA     SC183667  87.125  61.134  95.047
28257DA     SC283668  87.067  61.235  95.268
28257DA     SC383669  87.302  61.164  95.340
28257DA     SC483670  87.276  61.083  95.073
28258DA     BB183671  86.761  61.200  94.572
28258DA     BB283672  86.652  61.436  94.831
28258DA     BB383673  86.762  61.618  94.817
28258DA     SC183674  86.986  61.526  95.012
28258DA     SC283675  87.065  61.581  95.242
28258DA     SC383676  87.286  61.473  95.170
28258DA     SC483677  87.116  61.456  94.948
28259DC     BB183678  86.654  61.765  94.771
28259DC     BB283679  86.655  61.925  95.094
28259DC     BB383680  86.790  62.083  95.095
28259DC     SC183681  86.994  61.918  95.107
28259DC     SC283682  87.087  61.934  95.300
28259DC     SC383683  87.214  61.791  95.039
28260DT     BB183684  86.576  62.241  95.101
28260DT     BB283685  86.773  62.341  95.387
28260DT     BB383686  86.920  62.475  95.328
28260DT     SC183687  87.062  62.283  95.219
28260DT     SC283688  87.240  62.252  95.335
28260DT     SC383689  87.186  62.140  95.035
28261DC     BB183690  86.780  62.663  95.454
28261DC     BB283691  87.109  62.682  95.599
28261DC     BB383692  87.233  62.797  95.479
28261DC     SC183693  87.254  62.604  95.302
28261DC     SC283694  87.454  62.525  95.306
28261DC     SC383695  87.233  62.474  95.074
28262DC     BB183696  87.226  62.999  95.660
28262DC     BB283697  87.577  62.933  95.614
28262DC     BB383698  87.649  63.038  95.451
28262DC     SC183699  87.532  62.874  95.283
28262DC     SC283700  87.682  62.758  95.180
28262DC     SC383701  87.370  62.785  95.095
28263DT     BB183702  87.785  63.223  95.606
28263DT     BB283703  88.038  63.090  95.386
28263DT     BB383704  88.044  63.200  95.211
28263DT     SC183705  87.823  63.089  95.125
28263DT     SC283706  87.868  62.959  94.959
28263DT     SC383707  87.573  63.063  95.044
28264DG     BB183708  88.424  63.248  95.359
28264DG     BB283709  88.433  63.130  95.017
28264DG     BB383710  88.405  63.282  94.892
28264DG     SC183711  88.100  63.254  94.886
28264DG     SC283712  87.936  63.173  94.651
28264DG     SC383713  87.764  63.266  94.872
28264DG     SC483714  88.013  63.332  94.996
28265DT     BB183715  88.563  63.361  94.734
28265DT     BB283716  88.424  63.226  94.430
28265DT     BB383717  88.340  63.378  94.317
28265DT     SC183718  88.133  63.394  94.479
28265DT     SC283719  87.958  63.322  94.377
28265DT     SC383720  87.962  63.493  94.653
28266DC     BB183721  88.542  63.366  94.133
28266DC     BB283722  88.242  63.304  93.943
28266DC     BB383723  88.161  63.484  93.879
28266DC     SC183724  88.072  63.537  94.120
28266DC     SC283725  87.857  63.525  94.121
28266DC     SC383726  88.040  63.660  94.352
28267DA     BB183727  88.199  63.231  93.548
28267DA     BB283728  87.855  63.359  93.555
28267DA     BB383729  87.852  63.565  93.498
28267DA     SC183730  87.885  63.671  93.789
28267DA     SC283731  87.747  63.791  93.958
28267DA     SC383732  87.971  63.852  94.067
28267DA     SC483733  88.035  63.700  93.841
28268DT     BB183734  87.758  63.598  93.336
28268DT     BB283735  87.464  63.742  93.488
28268DT     BB383736  87.469  63.948  93.472
28268DT     SC183737  87.651  63.966  93.660
28268DT     SC283738  87.564  64.055  93.835
28268DT     SC383739  87.881  64.017  93.779
28269DA     BB183740  87.100  63.791  93.346
28269DA     BB283741  87.037  64.064  93.583
28269DA     BB383742  87.089  64.251  93.495
28269DA     SC183743  87.382  64.246  93.598
28269DA     SC283744  87.522  64.368  93.764
28269DA     SC383745  87.722  64.280  93.631
28269DA     SC483746  87.494  64.183  93.501
28270DA     BB183747  86.785  64.284  93.611
28270DA     BB283748  86.924  64.552  93.819
28270DA     BB383749  86.979  64.719  93.698
28270DA     SC183750  87.270  64.621  93.651
28270DA     SC283751  87.501  64.687  93.720
28270DA     SC383752  87.578  64.550  93.518
28270DA     SC483753  87.299  64.532  93.521
28271DC     BB183754  86.876  64.882  93.727
28271DC     BB283755  87.132  65.071  93.898
28271DC     BB383756  87.215  65.210  93.769
28271DC     SC183757  87.349  65.024  93.641
28271DC     SC283758  87.559  65.046  93.682
28271DC     SC383759  87.429  64.866  93.446
28272DT     BB183760  87.089  65.399  93.911
28272DT     BB283761  87.436  65.498  93.916
28272DT     BB383762  87.481  65.607  93.746
28272DT     SC183763  87.480  65.391  93.597
28272DT     SC283764  87.680  65.348  93.533
28272DT     SC383765  87.410  65.219  93.410
28273DT     BB183766  87.494  65.834  93.895
28273DT     BB283767  87.812  65.823  93.724
28273DT     BB383768  87.795  65.912  93.539
28273DT     SC183769  87.665  65.706  93.442
28273DT     SC283770  87.790  65.604  93.299
28273DT     SC383771  87.471  65.562  93.337
28274DA     BB183772  88.120  66.113  93.716
28274DA     BB283773  88.222  66.023  93.375
28274DA     BB383774  88.129  66.153  93.234
28274DA     SC183775  87.880  65.971  93.194
28274DA     SC283776  87.784  65.826  93.015
28274DA     SC383777  87.562  65.851  93.142
28274DA     SC483778  87.752  66.000  93.286
28275DC     BB183779  88.234  66.315  93.105
28275DC     BB283780  88.213  66.141  92.789
28275DC     BB383781  88.080  66.238  92.664
28275DC     SC183782  87.874  66.146  92.799
28275DC     SC283783  87.768  66.002  92.679
28275DC     SC383784  87.657  66.143  92.949
28276DT     BB183785  88.266  66.375  92.481
28276DT     BB283786  88.055  66.189  92.255
28276DT     BB383787  87.900  66.310  92.188
28276DT     SC183788  87.776  66.292  92.418
28276DT     SC283789  87.597  66.175  92.394
28276DT     SC383790  87.667  66.363  92.648
28277DA     BB183791  88.061  66.204  91.810
28277DA     BB283792  87.701  66.137  91.791
28277DA     BB383793  87.594  66.317  91.752
28277DA     SC183794  87.553  66.387  92.052
28277DA     SC283795  87.365  66.397  92.215
28277DA     SC383796  87.518  66.549  92.353
28277DA     SC483797  87.663  66.481  92.122
28278DG     BB183798  87.480  66.213  91.467
28278DG     BB283799  87.162  66.220  91.638
28278DG     BB383800  87.073  66.396  91.609
28278DG     SC183801  87.200  66.527  91.855
28278DG     SC283802  87.054  66.617  92.100
28278DG     SC383803  87.336  66.709  92.105
28278DG     SC483804  87.342  66.600  91.840
28279DT     BB183805  86.863  66.431  91.494
28279DT     BB283806  86.648  66.474  91.780
28279DT     BB383807  86.582  66.670  91.791
28279DT     SC183808  86.816  66.751  91.877
28279DT     SC283809  86.800  66.812  92.083
28279DT     SC383810  87.048  66.878  91.884
28280DC     BB183811  86.345  66.570  91.727
28280DC     BB283812  86.301  66.724  92.050
28280DC     BB383813  86.263  66.926  92.028
28280DC     SC183814  86.513  66.976  91.969
28280DC     SC283815  86.604  67.086  92.130
28280DC     SC383816  86.726  67.049  91.831
28281DT     BB183817  86.045  66.832  92.125
28281DT     BB283818  86.164  67.077  92.361
28281DT     BB383819  86.126  67.268  92.291
28281DT     SC183820  86.320  67.251  92.115
28281DT     SC283821  86.479  67.384  92.172
28281DT     SC383822  86.445  67.242  91.883
28282DT     BB183823  85.978  67.245  92.499
28282DT     BB283824  86.191  67.531  92.555
28282DT     BB383825  86.126  67.691  92.442
28282DT     SC183826  86.221  67.585  92.222
28282DT     SC283827  86.390  67.701  92.154
28282DT     SC383828  86.229  67.479  91.980
28283DT     BB183829  86.074  67.774  92.680
28283DT     BB283830  86.286  68.026  92.532
28283DT     BB383831  86.176  68.142  92.400
28283DT     SC183832  86.171  67.950  92.221
28283DT     SC283833  86.293  68.007  92.053
28283DT     SC383834  86.079  67.764  92.059
28284DA     BB183835  86.390  68.392  92.662
28284DA     BB283836  86.433  68.519  92.321
28284DA     BB383837  86.250  68.603  92.250
28284DA     SC183838  86.148  68.337  92.125
28284DA     SC283839  86.108  68.243  91.898
28284DA     SC383840  85.954  68.075  92.016
28284DA     SC483841  86.055  68.243  92.217
28285DA     BB183842  86.446  68.862  92.192
28285DA     BB283843  86.351  68.832  91.839
28285DA     BB383844  86.152  68.902  91.810
28285DA     SC183845  86.022  68.623  91.857
28285DA     SC283846  85.903  68.450  91.722
28285DA     SC383847  85.813  68.366  91.947
28285DA     SC483848  85.975  68.587  92.006
28286DA     BB183849  86.290  69.097  91.581
28286DA     BB283850  86.075  68.932  91.334
28286DA     BB383851  85.876  69.005  91.349
28286DA     SC183852  85.786  68.788  91.554
28286DA     SC283853  85.636  68.589  91.559
28286DA     SC383854  85.638  68.619  91.813
28286DA     SC483855  85.798  68.824  91.710
28287DT     BB183856  85.791  69.117  91.195
28287DT     BB283857  85.572  68.859  91.069
28287DT     BB383858  85.376  68.900  91.122
28287DT     SC183859  85.421  68.828  91.371
28287DT     SC283860  85.316  68.645  91.412
28287DT     SC383861  85.445  68.843  91.633
28288DC     BB183862  85.315  68.968  90.865
28288DC     BB283863  85.081  68.705  90.948
28288DC     BB383864  84.913  68.786  91.039
28288DC     SC183865  85.044  68.826  91.263
28288DC     SC283866  84.970  68.691  91.414
28288DC     SC383867  85.156  68.952  91.466
28289DT     BB183868  84.769  68.736  90.815
28289DT     BB283869  84.593  68.563  91.079
28289DT     BB383870  84.461  68.692  91.172
28289DT     SC183871  84.657  68.813  91.298
28289DT     SC283872  84.646  68.768  91.508
28289DT     SC383873  84.823  69.004  91.373
28290DT     BB183874  84.251  68.565  91.056
28290DT     BB283875  84.184  68.546  91.410
28290DT     BB383876  84.085  68.716  91.473
28290DT     SC183877  84.305  68.859  91.459
28290DT     SC283878  84.368  68.912  91.657
28290DT     SC383879  84.476  69.044  91.382
28291DG     BB183880  83.832  68.411  91.568
28291DG     BB283881  83.892  68.623  91.855
28291DG     BB383882  83.778  68.786  91.844
28291DG     SC183883  83.984  68.950  91.688
28291DG     SC283884  84.129  69.191  91.789
28291DG     SC383885  84.178  69.151  91.500
28291DG     SC483886  83.984  68.943  91.528
28292DA     BB183887  83.676  68.709  92.166
28292DA     BB283888  83.804  69.031  92.285
28292DA     BB383889  83.671  69.188  92.230
28292DA     SC183890  83.812  69.246  91.959
28292DA     SC283891  83.951  69.427  91.858
28292DA     SC383892  83.883  69.325  91.632
28292DA     SC483893  83.757  69.169  91.828
28293DT     BB183894  83.577  69.284  92.377
28293DT     BB283895  83.768  69.590  92.360
28293DT     BB383896  83.656  69.738  92.268
28293DT     SC183897  83.692  69.630  92.032
28293DT     SC283898  83.821  69.756  91.915
28293DT     SC383899  83.639  69.512  91.802
28294DA     BB183900  83.803  69.891  92.630
28294DA     BB283901  83.870  70.138  92.368
28294DA     BB383902  83.690  70.233  92.307
28294DA     SC183903  83.628  70.028  92.082
28294DA     SC283904  83.623  70.024  91.833
28294DA     SC383905  83.473  69.817  91.859
28294DA     SC483906  83.535  69.902  92.119
28295DG     BB183907  83.832  70.495  92.402
28295DG     BB283908  83.801  70.587  92.054
28295DG     BB383909  83.618  70.657  92.018
28295DG     SC183910  83.499  70.384  91.949
28295DG     SC283911  83.399  70.299  91.681
28295DG     SC383912  83.330  70.099  91.887
28295DG     SC483913  83.438  70.294  92.067
28296DT     BB183914  83.569  70.877  91.952
28296DT     BB283915  83.483  70.830  91.605
28296DT     BB383916  83.279  70.848  91.580
28296DT     SC183917  83.237  70.611  91.686
28296DT     SC283918  83.170  70.475  91.534
28296DT     SC383919  83.153  70.426  91.854
28297DA     BB183920  83.419  71.134  91.303
28297DA     BB283921  83.174  70.926  91.126
28297DA     BB383922  82.976  70.983  91.181
28297DA     SC183923  82.957  70.782  91.418
28297DA     SC283924  82.834  70.573  91.472
28297DA     SC383925  82.889  70.628  91.717
28297DA     SC483926  83.000  70.835  91.563
28298DT     BB183927  82.809  71.091  91.045
28298DT     BB283928  82.609  70.795  90.993
28298DT     BB383929  82.426  70.816  91.088
28298DT     SC183930  82.535  70.777  91.324
28298DT     SC283931  82.471  70.587  91.401
28298DT     SC383932  82.615  70.822  91.571
28299DA     BB183933  82.312  70.729  90.694
28299DA     BB283934  82.136  70.493  90.912
28299DA     BB383935  81.968  70.589  91.004
28299DA     SC183936  82.127  70.683  91.254
28299DA     SC283937  82.138  70.629  91.497
28299DA     SC383938  82.248  70.859  91.523
28299DA     SC483939  82.193  70.829  91.249
28300DA     BB183940  81.817  70.334  90.870
28300DA     BB283941  81.742  70.227  91.213
28300DA     BB383942  81.580  70.340  91.292
28300DA     SC183943  81.762  70.561  91.414
28300DA     SC283944  81.831  70.638  91.641
28300DA     SC383945  81.893  70.858  91.525
28300DA     SC483946  81.792  70.690  91.324
28301DC     BB183947  81.427  70.233  91.329
28301DC     BB283948  81.470  70.225  91.688
28301DC     BB383949  81.337  70.355  91.778
28301DC     SC183950  81.478  70.564  91.703
28301DC     SC283951  81.569  70.654  91.875
28301DC     SC383952  81.543  70.789  91.582
28302DA     BB183953  81.344  69.974  91.953
28302DA     BB283954  81.372  70.226  92.218
28302DA     BB383955  81.188  70.331  92.240
28302DA     SC183956  81.263  70.554  92.037
28302DA     SC283957  81.319  70.797  92.042
28302DA     SC383958  81.258  70.796  91.793
28302DA     SC483959  81.220  70.533  91.884
28303DT     BB183960  81.116  70.299  92.405
28303DT     BB283961  81.183  70.623  92.549
28303DT     BB383962  81.013  70.741  92.539
28303DT     SC183963  81.045  70.780  92.282
28303DT     SC283964  81.100  70.985  92.247
28303DT     SC383965  80.998  70.774  92.022
28304DA     BB183966  81.164  70.747  92.931
28304DA     BB283967  81.093  71.093  92.830
28304DA     BB383968  80.882  71.126  92.822
28304DA     SC183969  80.856  71.046  92.523
28304DA     SC283970  80.809  71.158  92.305
28304DA     SC383971  80.748  70.924  92.221
28304DA     SC483972  80.822  70.893  92.490
28305DC     BB183973  80.804  71.253  92.955
28305DC     BB283974  80.739  71.524  92.725
28305DC     BB383975  80.537  71.533  92.681
28305DC     SC183976  80.554  71.322  92.526
28305DC     SC283977  80.526  71.382  92.321
28305DC     SC383978  80.515  71.078  92.433
28306DG     BB183979  80.639  71.895  92.837
28306DG     BB283980  80.467  71.931  92.520
28306DG     BB383981  80.271  71.909  92.547
28306DG     SC183982  80.275  71.606  92.502
28306DG     SC283983  80.150  71.461  92.273
28306DG     SC383984  80.245  71.271  92.478
28306DG     SC483985  80.300  71.509  92.627
28307DG     BB183986  80.236  72.207  92.418
28307DG     BB283987  80.047  72.045  92.155
28307DG     BB383988  79.860  72.016  92.215
28307DG     SC183989  79.916  71.739  92.335
28307DG     SC283990  79.809  71.479  92.233
28307DG     SC383991  79.946  71.443  92.493
28307DG     SC483992  79.963  71.729  92.487
28308DT     BB183993  79.704  72.111  92.107
28308DT     BB283994  79.556  71.836  91.927
28308DT     BB383995  79.382  71.775  92.022
28308DT     SC183996  79.518  71.658  92.213
28308DT     SC283997  79.496  71.444  92.196
28308DT     SC383998  79.611  71.603  92.454
28309DA     BB183999  79.303  71.833  91.614
28309DA     BB284000  79.156  71.512  91.713
28309DA     BB384001  78.986  71.544  91.837
28309DA     SC184002  79.147  71.539  92.103
28309DA     SC284003  79.171  71.389  92.301
28309DA     SC384004  79.264  71.596  92.420
28309DA     SC484005  79.200  71.679  92.160
28310DT     BB184006  78.813  71.491  91.762
28310DT     BB284007  78.753  71.203  91.972
28310DT     BB384008  78.619  71.252  92.122
28310DT     SC184009  78.801  71.388  92.253
28310DT     SC284010  78.852  71.283  92.434
28310DT     SC384011  78.927  71.591  92.365
28311DC     BB184012  78.404  71.115  92.006
28311DC     BB284013  78.418  70.981  92.341
28311DC     BB384014  78.300  71.094  92.467
28311DC     SC184015  78.477  71.288  92.471
28311DC     SC284016  78.567  71.299  92.665
28311DC     SC384017  78.585  71.526  92.435
28312DA     BB184018  78.134  70.711  92.533
28312DA     BB284019  78.195  70.858  92.863
28312DA     BB384020  78.043  71.000  92.910
28312DA     SC184021  78.197  71.241  92.788
28312DA     SC284022  78.313  71.447  92.870
28312DA     SC384023  78.283  71.534  92.630
28312DA     SC484024  78.168  71.278  92.635
28313DT     BB184025  77.878  70.981  93.075
28313DT     BB284026  78.030  71.211  93.307
28313DT     BB384027  77.914  71.382  93.324
28313DT     SC184028  77.994  71.468  93.089
28313DT     SC284029  78.120  71.641  93.116
28313DT     SC384030  77.986  71.545  92.837
28314DA     BB184031  77.958  71.252  93.720
28314DA     BB284032  78.051  71.607  93.710
28314DA     BB384033  77.876  71.729  93.700
28314DA     SC184034  77.868  71.735  93.389
28314DA     SC284035  77.906  71.900  93.206
28314DA     SC384036  77.769  71.740  93.060
28314DA     SC484037  77.780  71.623  93.315
28315DG     BB184038  77.984  71.843  93.967
28315DG     BB284039  78.023  72.143  93.770
28315DG     BB384040  77.850  72.242  93.762
28315DG     SC184041  77.750  72.099  93.511
28315DG     SC284042  77.708  72.224  93.243
28315DG     SC384043  77.601  71.948  93.249
28315DG     SC484044  77.668  71.963  93.527
28316DC     BB184045  77.850  72.436  93.842
28316DC     BB284046  77.844  72.638  93.543
28316DC     BB384047  77.652  72.708  93.508
28316DC     SC184048  77.573  72.472  93.425
28316DC     SC284049  77.535  72.479  93.214
28316DC     SC384050  77.441  72.243  93.416
28317DT     BB184051  77.757  72.940  93.571
28317DT     BB284052  77.620  72.984  93.241
28317DT     BB384053  77.417  73.021  93.253
28317DT     SC184054  77.366  72.769  93.308
28317DT     SC284055  77.265  72.678  93.141
28317DT     SC384056  77.288  72.555  93.440
28318DT     BB184057  77.477  73.268  93.178
28318DT     BB284058  77.235  73.154  92.936
28318DT     BB384059  77.044  73.180  93.010
28318DT     SC184060  77.070  72.975  93.171
28318DT     SC284061  76.944  72.814  93.104
28318DT     SC384062  77.087  72.835  93.395
28319DT     BB184063  77.005  73.386  92.838
28319DT     BB284064  76.731  73.162  92.770
28319DT     BB384065  76.574  73.201  92.900
28319DT     SC184066  76.701  73.086  93.099
28319DT     SC284067  76.601  72.903  93.151
28319DT     SC384068  76.822  73.056  93.331
28320DA     BB184069  76.393  73.223  92.520
28320DA     BB284070  76.179  73.012  92.731
28320DA     BB384071  76.069  73.133  92.869
28320DA     SC184072  76.285  73.116  93.092
28320DA     SC284073  76.310  73.011  93.317
28320DA     SC384074  76.496  73.184  93.355
28320DA     SC484075  76.396  73.232  93.097
28321DT     BB184076  75.839  73.172  92.869
28321DT     BB284077  75.761  72.962  93.152
28321DT     BB384078  75.701  73.079  93.312
28321DT     SC184079  75.947  73.157  93.358
28321DT     SC284080  76.016  73.070  93.543
28321DT     SC384081  76.157  73.315  93.384
28322DG     BB184082  75.370  72.844  93.250
28322DG     BB284083  75.477  72.825  93.595
28322DG     BB384084  75.405  72.980  93.697
28322DG     SC184085  75.646  73.160  93.640
28322DG     SC284086  75.843  73.258  93.842
28322DG     SC384087  75.884  73.391  93.581
28322DG     SC484088  75.646  73.251  93.508
28323DG     BB184089  75.247  72.778  93.905
28323DG     BB284090  75.463  72.910  94.163
28323DG     BB384091  75.385  73.078  94.237
28323DG     SC184092  75.524  73.262  94.037
28323DG     SC284093  75.736  73.462  94.100
28323DG     SC384094  75.645  73.490  93.820
28323DG     SC484095  75.452  73.293  93.897
28324DA     BB184096  75.426  72.930  94.547
28324DA     BB284097  75.645  73.205  94.651
28324DA     BB384098  75.529  73.378  94.697
28324DA     SC184099  75.540  73.494  94.409
28324DA     SC284100  75.647  73.686  94.291
28324DA     SC384101  75.468  73.648  94.111
28324DA     SC484102  75.421  73.455  94.308
28325DT     BB184103  75.530  73.438  94.886
28325DT     BB284104  75.740  73.728  94.841
28325DT     BB384105  75.625  73.900  94.846
28325DT     SC184106  75.531  73.853  94.605
28325DT     SC284107  75.611  73.998  94.468
28325DT     SC384108  75.361  73.800  94.411
28326DC     BB184109  75.725  73.962  95.091
28326DC     BB284110  75.797  74.253  94.889
28326DC     BB384111  75.636  74.382  94.892
28326DC     SC184112  75.498  74.227  94.731
28326DC     SC284113  75.478  74.323  94.539
28326DC     SC384114  75.308  74.067  94.643
28327DG     BB184115  75.944  74.606  95.041
28327DG     BB284116  75.777  74.780  94.771
28327DG     BB384117  75.611  74.866  94.838
28327DG     SC184118  75.433  74.624  94.782
28327DG     SC284119  75.214  74.610  94.580
28327DG     SC384120  75.213  74.370  94.753
28327DG     SC484121  75.417  74.511  94.895
28328DA     BB184122  75.708  75.182  94.714
28328DA     BB284123  75.412  75.195  94.498
28328DA     BB384124  75.241  75.257  94.611
28328DA     SC184125  75.157  74.968  94.689
28328DA     SC284126  74.973  74.808  94.636
28328DA     SC384127  75.040  74.690  94.853
28328DA     SC484128  75.213  74.909  94.828
28329DT     BB184129  75.133  75.454  94.584
28329DT     BB284130  74.847  75.316  94.412
28329DT     BB384131  74.679  75.328  94.533
28329DT     SC184132  74.764  75.129  94.682
28329DT     SC284133  74.638  74.957  94.650
28329DT     SC384134  74.848  74.996  94.894
28330DT     BB184135  74.565  75.534  94.384
28330DT     BB284136  74.320  75.269  94.374
28330DT     BB384137  74.189  75.288  94.533
28330DT     SC184138  74.369  75.200  94.702
28330DT     SC284139  74.311  75.005  94.773
28330DT     SC384140  74.538  75.195  94.904
28331DT     BB184141  73.992  75.366  94.361
28331DT     BB284142  73.861  75.072  94.523
28331DT     BB384143  73.763  75.126  94.698
28331DT     SC184144  73.991  75.168  94.821
28331DT     SC284145  74.021  75.016  94.971
28331DT     SC384146  74.186  75.294  94.947
28332DT     BB184147  73.544  75.057  94.568
28332DT     BB284148  73.550  74.847  94.861
28332DT     BB384149  73.471  74.948  95.023
28332DT     SC184150  73.688  75.095  95.047
28332DT     SC284151  73.792  75.039  95.226
28332DT     SC384152  73.845  75.306  95.051
28333DG     BB184153  73.283  74.594  94.959
28333DG     BB284154  73.394  74.627  95.301
28333DG     BB384155  73.276  74.754  95.399
28333DG     SC184156  73.442  75.002  95.328
28333DG     SC284157  73.597  75.170  95.520
28333DG     SC384158  73.588  75.296  95.252
28333DG     SC484159  73.409  75.080  95.192
28334DG     BB184160  73.237  74.504  95.601
28334DG     BB284161  73.376  74.720  95.855
28334DG     BB384162  73.238  74.849  95.918
28334DG     SC184163  73.305  75.062  95.709
28334DG     SC284164  73.423  75.331  95.765
28334DG     SC384165  73.339  75.309  95.482
28334DG     SC484166  73.232  75.057  95.567
28335DT     BB184167  73.179  74.841  96.122
28335DT     BB284168  73.326  75.142  96.257
28335DT     BB384169  73.182  75.290  96.271
28335DT     SC184170  73.187  75.330  96.012
28335DT     SC284171  73.275  75.522  95.971
28335DT     SC384172  73.105  75.342  95.761
28336DA     BB184173  73.352  75.268  96.655
28336DA     BB284174  73.336  75.623  96.563
28336DA     BB384175  73.135  75.693  96.575
28336DA     SC184176  73.068  75.626  96.279
28336DA     SC284177  73.021  75.749  96.067
28336DA     SC384178  72.912  75.531  95.988
28336DA     SC484179  73.003  75.482  96.249
28337DT     BB184180  73.062  75.839  96.726
28337DT     BB284181  73.027  76.121  96.503
28337DT     BB384182  72.827  76.162  96.471
28337DT     SC184183  72.802  75.954  96.313
28337DT     SC284184  72.772  76.021  96.110
28337DT     SC384185  72.720  75.720  96.220
28338DT     BB184186  72.809  76.395  96.636
28338DT     BB284187  72.691  76.510  96.315
28338DT     BB384188  72.485  76.490  96.304
28338DT     SC184189  72.503  76.230  96.274
28338DT     SC284190  72.445  76.178  96.074
28338DT     SC384191  72.478  75.972  96.322
28339DT     BB184192  72.418  76.768  96.334
28339DT     BB284193  72.261  76.677  96.023
28339DT     BB384194  72.066  76.619  96.057
28339DT     SC184195  72.143  76.389  96.157
28339DT     SC284196  72.089  76.230  96.022
28339DT     SC384197  72.181  76.194  96.330
28340DA     BB184198  72.037  76.917  95.763
28340DA     BB284199  71.849  76.626  95.643
28340DA     BB384200  71.661  76.612  95.744
28340DA     SC184201  71.770  76.432  95.973
28340DA     SC284202  71.745  76.196  96.050
28340DA     SC384203  71.830  76.282  96.276
28340DA     SC484204  71.823  76.505  96.106
28341DA     BB184205  71.558  76.606  95.435
28341DA     BB284206  71.429  76.271  95.506
28341DA     BB384207  71.249  76.283  95.620
28341DA     SC184208  71.394  76.272  95.895
28341DA     SC284209  71.418  76.113  96.085
28341DA     SC384210  71.488  76.318  96.222
28341DA     SC484211  71.434  76.412  95.964
28342DA     BB184212  71.169  76.093  95.369
28342DA     BB284213  71.100  75.834  95.619
28342DA     BB384214  70.921  75.880  95.726
28342DA     SC184215  71.068  76.039  95.949
28342DA     SC284216  71.119  76.012  96.192
28342DA     SC384217  71.154  76.266  96.192
28342DA     SC484218  71.083  76.198  95.930
28343DG     BB184219  70.861  75.606  95.603
28343DG     BB284220  70.849  75.510  95.952
28343DG     BB384221  70.677  75.569  96.033
28343DG     SC184222  70.784  75.842  96.119
28343DG     SC284223  70.822  75.935  96.401
28343DG     SC384224  70.862  76.158  96.210
28343DG     SC484225  70.775  75.965  96.017
28344DT     BB184226  70.560  75.419  96.106
28344DT     BB284227  70.593  75.461  96.463
28344DT     BB384228  70.432  75.568  96.537
28344DT     SC184229  70.525  75.793  96.438
28344DT     SC284230  70.589  75.920  96.600
28344DT     SC384231  70.541  76.012  96.292
28345DG     BB184232  70.455  75.212  96.734
28345DG     BB284233  70.433  75.490  96.964
28345DG     BB384234  70.246  75.558  96.970
28345DG     SC184235  70.285  75.758  96.742
28345DG     SC284236  70.278  76.056  96.767
28345DG     SC384237  70.286  75.974  96.483
28345DG     SC484238  70.260  75.711  96.592
28346DT     BB184239  70.126  75.550  97.157
28346DT     BB284240  70.121  75.897  97.256
28346DT     BB384241  69.938  75.981  97.209
28346DT     SC184242  69.998  75.991  96.954
28346DT     SC284243  70.025  76.196  96.895
28346DT     SC384244  69.989  75.943  96.695
28347DT     BB184245  69.857  75.986  97.473
28347DT     BB284246  69.824  76.329  97.365
28347DT     BB384247  69.637  76.360  97.283
28347DT     SC184248  69.703  76.231  97.064
28347DT     SC284249  69.716  76.371  96.901
28347DT     SC384250  69.703  76.048  96.875
28348DT     BB184251  69.548  76.505  97.501
28348DT     BB284252  69.500  76.727  97.222
28348DT     BB384253  69.313  76.697  97.138
28348DT     SC184254  69.391  76.472  97.027
28348DT     SC284255  69.400  76.499  96.813
28348DT     SC384256  69.405  76.215  96.971
28349DA     BB184257  69.335  77.108  97.216
28349DA     BB284258  69.224  77.066  96.869
28349DA     BB384259  69.020  77.005  96.863
28349DA     SC184260  69.087  76.701  96.866
28349DA     SC284261  69.074  76.507  96.709
28349DA     SC384262  69.084  76.362  96.920
28349DA     SC484263  69.093  76.627  97.009
28350DG     BB184264  68.984  77.269  96.705
28350DG     BB284265  68.901  77.042  96.436
28350DG     BB384266  68.711  76.985  96.452
28350DG     SC184267  68.772  76.742  96.628
28350DG     SC284268  68.737  76.456  96.550
28350DG     SC384269  68.801  76.480  96.838
28350DG     SC484270  68.777  76.761  96.787
28351DT     BB184271  68.562  77.034  96.293
28351DT     BB284272  68.523  76.714  96.132
28351DT     BB384273  68.342  76.629  96.186
28351DT     SC184274  68.433  76.568  96.424
28351DT     SC284275  68.454  76.354  96.440
28351DT     SC384276  68.459  76.565  96.687
28352DA     BB184277  68.378  76.622  95.769
28352DA     BB284278  68.278  76.287  95.880
28352DA     BB384279  68.074  76.288  95.942
28352DA     SC184280  68.140  76.353  96.239
28352DA     SC284281  68.132  76.237  96.460
28352DA     SC384282  68.136  76.473  96.561
28352DA     SC484283  68.142  76.508  96.283
28353DA     BB184284  68.077  76.042  95.728
28353DA     BB284285  67.968  75.827  96.004
28353DA     BB384286  67.764  75.865  96.052
28353DA     SC184287  67.829  76.084  96.263
28353DA     SC284288  67.817  76.110  96.511
28353DA     SC384289  67.826  76.362  96.464
28353DA     SC484290  67.835  76.236  96.213
28354DT     BB184291  67.640  75.719  96.017
28354DT     BB284292  67.580  75.626  96.360
28354DT     BB384293  67.397  75.699  96.422
28354DT     SC184294  67.491  75.943  96.440
28354DT     SC284295  67.501  76.001  96.647
28354DT     SC384296  67.524  76.200  96.392
28355DA     BB184297  67.401  75.290  96.514
28355DA     BB284298  67.281  75.469  96.810
28355DA     BB384299  67.081  75.539  96.779
28355DA     SC184300  67.170  75.814  96.663
28355DA     SC284301  67.166  76.053  96.733
28355DA     SC384302  67.195  76.105  96.483
28355DA     SC484303  67.187  75.825  96.504
28356DA     BB184304  67.015  75.376  97.059
28356DA     BB284305  66.908  75.696  97.203
28356DA     BB384306  66.714  75.749  97.130
28356DA     SC184307  66.822  75.908  96.886
28356DA     SC284308  66.835  76.146  96.811
28356DA     SC384309  66.867  76.049  96.576
28356DA     SC484310  66.840  75.829  96.747
28357DT     BB184311  66.535  75.754  97.256
28357DT     BB284312  66.504  76.113  97.275
28357DT     BB384313  66.342  76.176  97.163
28357DT     SC184314  66.471  76.136  96.938
28357DT     SC284315  66.514  76.325  96.846
28357DT     SC384316  66.534  76.035  96.702
28358DT     BB184317  66.172  76.232  97.383
28358DT     BB284318  66.179  76.543  97.201
28358DT     BB384319  66.023  76.549  97.065
28358DT     SC184320  66.145  76.380  96.905
28358DT     SC284321  66.207  76.483  96.727
28358DT     SC384322  66.195  76.162  96.767
28359DA     BB184323  65.969  76.903  97.284
28359DA     BB284324  65.957  76.993  96.929
28359DA     BB384325  65.768  76.941  96.845
28359DA     SC184326  65.859  76.656  96.758
28359DA     SC284327  65.906  76.535  96.545
28359DA     SC384328  65.874  76.321  96.683
28359DA     SC484329  65.834  76.535  96.860
28360DG     BB184330  65.730  77.246  96.785
28360DG     BB284331  65.745  77.134  96.441
28360DG     BB384332  65.564  77.076  96.380
28360DG     SC184333  65.602  76.785  96.469
28360DG     SC284334  65.619  76.548  96.288
28360DG     SC384335  65.601  76.464  96.571
28360DG     SC484336  65.562  76.744  96.618
28361DG     BB184337  65.586  77.299  96.143
28361DG     BB284338  65.576  77.020  95.914
28361DG     BB384339  65.388  76.964  95.882
28361DG     SC184340  65.382  76.765  96.114
28361DG     SC284341  65.358  76.468  96.089
28361DG     SC384342  65.333  76.553  96.372
28361DG     SC484343  65.339  76.817  96.259
28362DT     BB184344  65.316  76.976  95.684
28362DT     BB284345  65.311  76.629  95.588
28362DT     BB384346  65.118  76.555  95.599
28362DT     SC184347  65.129  76.547  95.861
28362DT     SC284348  65.132  76.341  95.926
28362DT     SC384349  65.074  76.599  96.114
28363DT     BB184350  65.127  76.549  95.335
28363DT     BB284351  65.054  76.210  95.435
28363DT     BB384352  64.851  76.189  95.470
28363DT     SC184353  64.869  76.319  95.698
28363DT     SC284354  64.837  76.182  95.860
28363DT     SC384355  64.834  76.505  95.881
28364DT     BB184356  64.845  76.044  95.248
28364DT     BB284357  64.710  75.829  95.504
28364DT     BB384358  64.509  75.869  95.532
28364DT     SC184359  64.563  76.091  95.659
28364DT     SC284360  64.511  76.069  95.867
28364DT     SC384361  64.573  76.349  95.716
28365DT     BB184362  64.453  75.634  95.413
28365DT     BB284363  64.290  75.615  95.735
28365DT     BB384364  64.104  75.704  95.725
28365DT     SC184365  64.210  75.944  95.722
28365DT     SC284366  64.166  76.044  95.908
28365DT     SC384367  64.277  76.185  95.639
28366DA     BB184368  64.042  75.322  95.887
28366DA     BB284369  63.865  75.563  96.099
28366DA     BB384370  63.690  75.635  95.999
28366DA     SC184371  63.834  75.876  95.865
28366DA     SC284372  63.835  76.124  95.885
28366DA     SC384373  63.936  76.122  95.649
28366DA     SC484374  63.894  75.854  95.718
28367DA     BB184375  63.536  75.534  96.274
28367DA     BB284376  63.435  75.883  96.324
28367DA     BB384377  63.273  75.933  96.194
28367DA     SC184378  63.458  76.032  95.964
28367DA     SC284379  63.517  76.249  95.855
28367DA     SC384380  63.596  76.104  95.658
28367DA     SC484381  63.500  75.925  95.851
28368DG     BB184382  63.107  75.990  96.454
28368DG     BB284383  63.111  76.330  96.329
28368DG     BB384384  62.964  76.355  96.197
28368DG     SC184385  63.133  76.272  95.956
28368DG     SC284386  63.218  76.450  95.731
28368DG     SC384387  63.282  76.168  95.672
28368DG     SC484388  63.139  76.118  95.915
28369DA     BB184389  62.873  76.629  96.387
28369DA     BB284390  62.928  76.848  96.098
28369DA     BB384391  62.766  76.830  95.960
28369DA     SC184392  62.897  76.600  95.797
28369DA     SC284393  62.997  76.568  95.570
28369DA     SC384394  62.955  76.318  95.610
28369DA     SC484395  62.862  76.449  95.839
28370DT     BB184396  62.662  76.991  95.938
28370DT     BB284397  62.791  77.080  95.613
28370DT     BB384398  62.654  77.030  95.467
28370DT     SC184399  62.711  76.775  95.488
28370DT     SC284400  62.814  76.710  95.311
28370DT     SC384401  62.682  76.517  95.536
28371DA     BB184402  62.783  77.426  95.419
28371DA     BB284403  62.808  77.257  95.095
28371DA     BB384404  62.614  77.220  95.015
28371DA     SC184405  62.586  76.940  95.147
28371DA     SC284406  62.581  76.701  95.073
28371DA     SC384407  62.468  76.655  95.299
28371DA     SC484408  62.516  76.932  95.291
28372DT     BB184409  62.585  77.315  94.859
28372DT     BB284410  62.603  77.034  94.633
28372DT     BB384411  62.413  76.970  94.584
28372DT     SC184412  62.382  76.858  94.819
28372DT     SC284413  62.380  76.644  94.797
28372DT     SC384414  62.286  76.808  95.060
28373DT     BB184415  62.456  77.070  94.341
28373DT     BB284416  62.373  76.724  94.285
28373DT     BB384417  62.168  76.700  94.281
28373DT     SC184418  62.153  76.726  94.542
28373DT     SC284419  62.099  76.537  94.630
28373DT     SC384420  62.090  76.825  94.778
28374DC     BB184421  62.177  76.660  94.014
28374DC     BB284422  62.013  76.366  94.143
28374DC     BB384423  61.810  76.401  94.163
28374DC     SC184424  61.848  76.550  94.376
28374DC     SC284425  61.772  76.447  94.549
28374DC     SC384426  61.851  76.761  94.533
28375DA     BB184427  61.848  76.047  93.940
28375DA     BB284428  61.608  75.985  94.210
28375DA     BB384429  61.423  76.082  94.169
28375DA     SC184430  61.501  76.346  94.315
28375DA     SC284431  61.435  76.468  94.522
28375DA     SC384432  61.539  76.674  94.409
28375DA     SC484433  61.568  76.462  94.227
28376DT     BB184434  61.256  75.970  94.133
28376DT     BB284435  61.096  76.029  94.451
28376DT     BB384436  60.939  76.161  94.428
28376DT     SC184437  61.103  76.364  94.401
28376DT     SC284438  61.087  76.492  94.574
28376DT     SC384439  61.229  76.569  94.293
28377DA     BB184440  60.796  75.825  94.633
28377DA     BB284441  60.692  76.124  94.818
28377DA     BB384442  60.536  76.225  94.714
28377DA     SC184443  60.729  76.408  94.552
28377DA     SC284444  60.792  76.649  94.544
28377DA     SC384445  60.880  76.597  94.308
28377DA     SC484446  60.776  76.356  94.407
28378DT     BB184447  60.370  76.228  94.807
28378DT     BB284448  60.382  76.575  94.907
28378DT     BB384449  60.262  76.688  94.783
28378DT     SC184450  60.436  76.674  94.588
28378DT     SC284451  60.524  76.868  94.556
28378DT     SC384452  60.541  76.616  94.353
28379DT     BB184453  60.102  76.713  94.994
28379DT     BB284454  60.186  77.051  94.898
28379DT     BB384455  60.062  77.114  94.745
28379DT     SC184456  60.190  76.966  94.570
28379DT     SC284457  60.299  77.094  94.435
28379DT     SC384458  60.237  76.779  94.391
28380DC     BB184459  59.955  77.273  94.927
28380DC     BB284460  60.065  77.492  94.662
28380DC     BB384461  59.924  77.496  94.510
28380DC     SC184462  59.995  77.258  94.427
28380DC     SC284463  60.092  77.275  94.236
28380DC     SC384464  59.980  77.001  94.368
28381DG     BB184465  59.963  77.884  94.633
28381DG     BB284466  59.998  77.857  94.274
28381DG     BB384467  59.819  77.843  94.189
28381DG     SC184468  59.809  77.538  94.203
28381DG     SC284469  59.813  77.351  93.971
28381DG     SC384470  59.755  77.205  94.221
28381DG     SC484471  59.749  77.468  94.335
28382DT     BB184472  59.731  78.001  94.044
28382DT     BB284473  59.763  77.831  93.727
28382DT     BB384474  59.577  77.767  93.663
28382DT     SC184475  59.574  77.572  93.838
28382DT     SC284476  59.593  77.383  93.736
28382DT     SC384477  59.500  77.424  94.044
28383DA     BB184478  59.740  77.985  93.345
28383DA     BB284479  59.621  77.665  93.211
28383DA     BB384480  59.408  77.665  93.196
28383DA     SC184481  59.365  77.548  93.481
28383DA     SC284482  59.285  77.335  93.583
28383DA     SC384483  59.245  77.474  93.794
28383DA     SC484484  59.345  77.652  93.602
28384DA     BB184485  59.483  77.583  92.890
28384DA     BB284486  59.303  77.269  92.951
28384DA     BB384487  59.092  77.303  92.947
28384DA     SC184488  59.071  77.360  93.252
28384DA     SC284489  58.975  77.250  93.454
28384DA     SC384490  58.984  77.484  93.560
28384DA     SC484491  59.082  77.513  93.299
28385DC     BB184492  59.008  77.213  92.806
28385DC     BB284493  58.851  76.955  93.003
28385DC     BB384494  58.651  77.000  93.033
28385DC     SC184495  58.711  77.185  93.209
28385DC     SC284496  58.649  77.121  93.404
28385DC     SC384497  58.732  77.423  93.321
28386DA     BB184498  58.717  76.604  92.908
28386DA     BB284499  58.484  76.601  93.192
28386DA     BB384500  58.297  76.687  93.135
28386DA     SC184501  58.377  76.976  93.218
28386DA     SC284502  58.315  77.141  93.395
28386DA     SC384503  58.414  77.317  93.237
28386DA     SC484504  58.441  77.071  93.105
28387DG     BB184505  58.229  76.405  93.238
28387DG     BB284506  58.029  76.594  93.474
28387DG     BB384507  57.869  76.668  93.382
28387DG     SC184508  58.007  76.929  93.301
28387DG     SC284509  57.941  77.202  93.403
28387DG     SC384510  58.132  77.217  93.178
28387DG     SC484511  58.086  76.935  93.162
28388DG     BB184512  57.678  76.512  93.605
28388DG     BB284513  57.533  76.834  93.682
28388DG     BB384514  57.402  76.885  93.541
28388DG     SC184515  57.608  77.027  93.365
28388DG     SC284516  57.618  77.320  93.308
28388DG     SC384517  57.811  77.174  93.139
28388DG     SC484518  57.689  76.943  93.256
28389DT     BB184519  57.125  76.904  93.523
28389DT     BB284520  57.070  77.259  93.481
28389DT     BB384521  57.009  77.298  93.287
28389DT     SC184522  57.252  77.261  93.195
28389DT     SC284523  57.333  77.450  93.129
28389DT     SC384524  57.453  77.157  93.060
28390DT     BB184525  56.635  77.304  93.175
28390DT     BB284526  56.746  77.602  93.005
28390DT     BB384527  56.761  77.566  92.801
28390DT     SC184528  56.981  77.427  92.834
28390DT     SC284529  57.147  77.536  92.752
28390DT     SC384530  57.148  77.223  92.835
28391DA     BB184531  56.420  77.828  92.571
28391DA     BB284532  56.727  77.914  92.390
28391DA     BB384533  56.742  77.798  92.211
28391DA     SC184534  56.901  77.567  92.346
28391DA     SC284535  57.132  77.473  92.339
28391DA     SC384536  57.027  77.261  92.436
28391DA     SC484537  56.816  77.443  92.405
28392DA     BB184538  56.756  78.041  91.929
28392DA     BB284539  57.110  77.956  91.886
28392DA     BB384540  57.134  77.816  91.727
28392DA     SC184541  57.109  77.566  91.910
28392DA     SC284542  57.256  77.384  91.995
28392DA     SC384543  57.038  77.256  92.039
28392DA     SC484544  56.962  77.502  91.929
28393DC     BB184545  57.246  77.857  91.523
28393DC     BB284546  57.550  77.693  91.630
28393DC     BB384547  57.584  77.525  91.514
28393DC     SC184548  57.394  77.392  91.637
28393DC     SC284549  57.483  77.236  91.756
28393DC     SC384550  57.170  77.260  91.676
28394DT     BB184551  57.790  77.662  91.413
28394DT     BB284552  57.935  77.371  91.569
28394DT     BB384553  57.932  77.211  91.437
28394DT     SC184554  57.674  77.177  91.471
28394DT     SC284555  57.640  76.994  91.578
28394DT     SC384556  57.416  77.165  91.416
28395DG     BB184557  58.297  77.296  91.595
28395DG     BB284558  58.204  76.949  91.642
28395DG     BB384559  58.219  76.851  91.470
28395DG     SC184560  57.931  76.909  91.384
28395DG     SC284561  57.713  76.707  91.355
28395DG     SC384562  57.628  76.970  91.250
28395DG     SC484563  57.900  77.043  91.302
28396DT     BB184564  58.346  76.704  91.486
28396DT     BB284565  58.132  76.413  91.480
28396DT     BB384566  58.119  76.339  91.288
28396DT     SC184567  57.960  76.535  91.214
28396DT     SC284568  57.763  76.457  91.178
28396DT     SC384569  57.872  76.748  91.087
28397DA     BB184570  58.208  76.031  91.559
28397DA     BB284571  57.942  75.914  91.335
28397DA     BB384572  58.019  75.882  91.139
28397DA     SC184573  57.957  76.171  91.041
28397DA     SC284574  57.801  76.283  90.883
28397DA     SC384575  57.967  76.478  90.888
28397DA     SC484576  58.074  76.281  91.057
28398DG     BB184577  57.925  75.588  91.183
28398DG     BB284578  57.712  75.657  90.899
28398DG     BB384579  57.815  75.638  90.731
28398DG     SC184580  57.907  75.930  90.724
28398DG     SC284581  57.825  76.135  90.523
28398DG     SC384582  58.042  76.237  90.696
28398DG     SC484583  58.042  75.970  90.799
28399DT     BB184584  57.780  75.474  90.558
28399DT     BB284585  57.635  75.674  90.295
28399DT     BB384586  57.773  75.701  90.143
28399DT     SC184587  57.907  75.875  90.286
28399DT     SC284588  57.884  76.071  90.201
28399DT     SC384589  58.106  75.985  90.421
28400DT     BB184590  57.664  75.515  89.950
28400DT     BB284591  57.682  75.824  89.764
28400DT     BB384592  57.861  75.835  89.662
28400DT     SC184593  57.993  75.887  89.882
28400DT     SC284594  58.063  76.091  89.878
28400DT     SC384595  58.163  75.860  90.082
28401DC     BB184596  57.764  75.778  89.394
28401DC     BB284597  57.931  76.096  89.358
28401DC     BB384598  58.127  76.067  89.299
28401DC     SC184599  58.196  75.988  89.539
28401DC     SC284600  58.323  76.136  89.629
28401DC     SC384601  58.282  75.833  89.734
28402DG     BB184602  57.974  76.290  88.991
28402DG     BB284603  58.270  76.446  89.129
28402DG     BB384604  58.433  76.363  89.051
28402DG     SC184605  58.456  76.146  89.266
28402DG     SC284606  58.673  76.122  89.469
28402DG     SC384607  58.499  75.883  89.473
28402DG     SC484608  58.378  76.007  89.245
28403DA     BB184609  58.529  76.685  88.976
28403DA     BB284610  58.824  76.645  89.191
28403DA     BB384611  58.974  76.531  89.091
28403DA     SC184612  58.872  76.258  89.200
28403DA     SC284613  58.950  76.083  89.361
28403DA     SC384614  58.786  75.928  89.239
28403DA     SC484615  58.767  76.176  89.111
28404DG     BB184616  59.121  76.793  89.146
28404DG     BB284617  59.321  76.578  89.356
28404DG     BB384618  59.451  76.476  89.245
28404DG     SC184619  59.261  76.240  89.198
28404DG     SC284620  59.297  75.963  89.301
28404DG     SC384621  59.073  75.975  89.109
28404DG     SC484622  59.161  76.245  89.073
28405DC     BB184623  59.645  76.510  89.292
28405DC     BB284624  59.739  76.204  89.459
28405DC     BB384625  59.836  76.078  89.327
28405DC     SC184626  59.610  76.017  89.208
28405DC     SC284627  59.560  75.812  89.251
28405DC     SC384628  59.427  75.996  89.019
28406DA     BB184629  60.061  76.116  89.680
28406DA     BB284630  60.038  75.760  89.596
28406DA     BB384631  60.156  75.717  89.423
28406DA     SC184632  59.923  75.767  89.223
28406DA     SC284633  59.780  75.633  89.069
28406DA     SC384634  59.734  75.856  88.950
28406DA     SC484635  59.908  75.915  89.162
28407DA     BB184636  60.288  75.490  89.623
28407DA     BB284637  60.177  75.238  89.381
28407DA     BB384638  60.303  75.239  89.209
28407DA     SC184639  60.131  75.446  89.054
28407DA     SC284640  59.981  75.449  88.855
28407DA     SC384641  60.022  75.703  88.854
28407DA     SC484642  60.169  75.602  89.070
28408DA     BB184643  60.346  74.916  89.271
28408DA     BB284644  60.197  74.850  88.942
28408DA     BB384645  60.340  74.885  88.788
28408DA     SC184646  60.261  75.184  88.750
28408DA     SC284647  60.148  75.325  88.578
28408DA     SC384648  60.264  75.523  88.694
28408DA     SC484649  60.343  75.294  88.835
28409DA     BB184650  60.277  74.575  88.690
28409DA     BB284651  60.154  74.715  88.375
28409DA     BB384652  60.317  74.765  88.246
28409DA     SC184653  60.343  75.056  88.352
28409DA     SC284654  60.302  75.287  88.268
28409DA     SC384655  60.461  75.362  88.455
28409DA     SC484656  60.446  75.082  88.473
28410DT     BB184657  60.342  74.661  88.070
28410DT     BB284658  60.219  74.923  87.854
28410DT     BB384659  60.376  75.010  87.752
28410DT     SC184660  60.455  75.139  87.967
28410DT     SC284661  60.419  75.349  87.942
28410DT     SC384662  60.607  75.215  88.169
28411DT     BB184663  60.282  74.893  87.531
28411DT     BB284664  60.282  75.246  87.456
28411DT     BB384665  60.468  75.304  87.387
28411DT     SC184666  60.570  75.291  87.629
28411DT     SC284667  60.615  75.490  87.698
28411DT     SC384668  60.721  75.214  87.831
28412DT     BB184669  60.346  75.333  87.155
28412DT     BB284670  60.488  75.657  87.230
28412DT     BB384671  60.687  75.661  87.174
28412DT     SC184672  60.756  75.514  87.381
28412DT     SC284673  60.868  75.634  87.520
28412DT     SC384674  60.848  75.310  87.521
28413DG     BB184675  60.487  75.964  86.988
28413DG     BB284676  60.781  76.083  87.162
28413DG     BB384677  60.945  76.037  87.059
28413DG     SC184678  60.983  75.766  87.196
28413DG     SC284679  61.209  75.691  87.377
28413DG     SC384680  61.044  75.454  87.311
28413DG     SC484681  60.911  75.637  87.135
28414DA     BB184682  61.028  76.372  87.088
28414DA     BB284683  61.339  76.280  87.258
28414DA     BB384684  61.481  76.204  87.118
28414DA     SC184685  61.390  75.908  87.151
28414DA     SC284686  61.480  75.697  87.247
28414DA     SC384687  61.308  75.579  87.098
28414DA     SC484688  61.277  75.853  87.050
28415DC     BB184689  61.651  76.309  87.080
28415DC     BB284690  61.877  76.093  87.260
28415DC     BB384691  61.988  75.980  87.127
28415DC     SC184692  61.782  75.826  87.074
28415DC     SC284693  61.817  75.630  87.156
28415DC     SC384694  61.588  75.707  86.940
28416DT     BB184695  62.214  76.126  87.179
28416DT     BB284696  62.307  75.785  87.254
28416DT     BB384697  62.376  75.691  87.083
28416DT     SC184698  62.133  75.670  86.987
28416DT     SC284699  62.074  75.463  86.988
28416DT     SC384700  61.925  75.702  86.828
28417DT     BB184701  62.628  75.698  87.182
28417DT     BB284702  62.561  75.349  87.123
28417DT     BB384703  62.608  75.300  86.927
28417DT     SC184704  62.393  75.420  86.837
28417DT     SC284705  62.255  75.273  86.763
28417DT     SC384706  62.240  75.592  86.708
28418DT     BB184707  62.815  75.163  87.026
28418DT     BB284708  62.622  74.921  86.841
28418DT     BB384709  62.675  74.927  86.641
28418DT     SC184710  62.543  75.151  86.605
28418DT     SC284711  62.371  75.114  86.482
28418DT     SC384712  62.496  75.405  86.551
28419DG     BB184713  62.709  74.553  86.799
28419DG     BB284714  62.508  74.556  86.498
28419DG     BB384715  62.625  74.579  86.339
28419DG     SC184716  62.610  74.885  86.342
28419DG     SC284717  62.479  75.057  86.136
28419DG     SC384718  62.633  75.221  86.328
28419DG     SC484719  62.717  74.967  86.429
28420DC     BB184720  62.607  74.428  86.215
28420DC     BB284721  62.426  74.572  85.938
28420DC     BB384722  62.558  74.637  85.793
28420DC     SC184723  62.627  74.845  85.937
28420DC     SC284724  62.553  75.024  85.844
28420DC     SC384725  62.776  75.011  86.079
28421DT     BB184726  62.471  74.433  85.646
28421DT     BB284727  62.422  74.724  85.438
28421DT     BB384728  62.598  74.771  85.339
28421DT     SC184729  62.704  74.868  85.558
28421DT     SC284730  62.723  75.082  85.540
28421DT     SC384731  62.867  74.897  85.764
28422DA     BB184732  62.301  74.748  85.043
28422DA     BB284733  62.491  75.056  84.987
28422DA     BB384734  62.684  75.011  84.907
28422DA     SC184735  62.822  74.991  85.185
28422DA     SC284736  62.988  75.120  85.319
28422DA     SC384737  63.021  74.903  85.451
28422DA     SC484738  62.829  74.846  85.255
28423DA     BB184739  62.598  75.221  84.666
28423DA     BB284740  62.886  75.426  84.763
28423DA     BB384741  63.067  75.340  84.689
28423DA     SC184742  63.118  75.169  84.944
28423DA     SC284743  63.279  75.165  85.134
28423DA     SC384744  63.206  74.921  85.164
28423DA     SC484745  63.060  75.019  84.946
28424DT     BB184746  63.178  75.437  84.542
28424DT     BB284747  63.445  75.548  84.757
28424DT     BB384748  63.615  75.435  84.723
28424DT     SC184749  63.514  75.229  84.850
28424DT     SC284750  63.622  75.200  85.034
28424DT     SC384751  63.421  74.987  84.896
28425DC     BB184752  63.734  75.646  84.598
28425DC     BB284753  63.962  75.559  84.864
28425DC     BB384754  64.093  75.412  84.799
28425DC     SC184755  63.907  75.228  84.813
28425DC     SC284756  63.953  75.093  84.975
28425DC     SC384757  63.737  75.041  84.739
28426DT     BB184758  64.288  75.597  84.799
28426DT     BB284759  64.410  75.337  85.016
28426DT     BB384760  64.504  75.190  84.905
28426DT     SC184761  64.273  75.097  84.820
28426DT     SC284762  64.237  74.904  84.907
28426DT     SC384763  64.078  75.031  84.655
28427DT     BB184764  64.741  75.274  85.001
28427DT     BB284765  64.728  74.923  85.086
28427DT     BB384766  64.796  74.809  84.927
28427DT     SC184767  64.574  74.849  84.793
28427DT     SC284768  64.464  74.665  84.782
28427DT     SC384769  64.410  74.930  84.603
28428DT     BB184770  65.029  74.753  85.060
28428DT     BB284771  64.894  74.429  84.976
28428DT     BB384772  64.957  74.373  84.787
28428DT     SC184773  64.790  74.541  84.674
28428DT     SC284774  64.634  74.430  84.574
28428DT     SC384775  64.701  74.745  84.532
28429DT     BB184776  65.146  74.183  84.875
28429DT     BB284777  64.936  73.995  84.650
28429DT     BB384778  65.012  74.004  84.457
28429DT     SC184779  64.929  74.251  84.428
28429DT     SC284780  64.768  74.256  84.285
28429DT     SC384781  64.935  74.512  84.392
28430DA     BB184782  64.990  73.586  84.514
28430DA     BB284783  64.830  73.659  84.192
28430DA     BB384784  64.977  73.694  84.042
28430DA     SC184785  64.990  74.001  84.092
28430DA     SC284786  64.924  74.210  83.973
28430DA     SC384787  65.092  74.327  84.128
28430DA     SC484788  65.100  74.055  84.196
28431DG     BB184789  64.888  73.440  83.861
28431DG     BB284790  64.789  73.693  83.622
28431DG     BB384791  64.939  73.731  83.497
28431DG     SC184792  65.060  73.952  83.671
28431DG     SC284793  65.073  74.242  83.601
28431DG     SC384794  65.230  74.186  83.845
28431DG     SC484795  65.167  73.913  83.784
28432DA     BB184796  64.727  73.671  83.228
28432DA     BB284797  64.772  74.016  83.112
28432DA     BB384798  64.955  74.035  83.005
28432DA     SC184799  65.123  74.111  83.255
28432DA     SC284800  65.240  74.311  83.346
28432DA     SC384801  65.372  74.145  83.489
28432DA     SC484802  65.196  73.991  83.335
28433DA     BB184803  64.744  74.158  82.790
28433DA     BB284804  64.930  74.472  82.817
28433DA     BB384805  65.115  74.458  82.711
28433DA     SC184806  65.276  74.356  82.957
28433DA     SC284807  65.454  74.441  83.109
28433DA     SC384808  65.497  74.194  83.164
28433DA     SC484809  65.288  74.197  82.976
28434DT     BB184810  65.130  74.575  82.558
28434DT     BB284811  65.361  74.811  82.702
28434DT     BB384812  65.552  74.777  82.629
28434DT     SC184813  65.579  74.563  82.779
28434DT     SC284814  65.725  74.602  82.933
28434DT     SC384815  65.612  74.311  82.848
28435DT     BB184816  65.529  75.004  82.487
28435DT     BB284817  65.829  75.050  82.683
28435DT     BB384818  65.990  74.967  82.585
28435DT     SC184819  65.913  74.724  82.646
28435DT     SC284820  66.049  74.639  82.789
28435DT     SC384821  65.828  74.476  82.618
28436DC     BB184822  66.091  75.214  82.517
28436DC     BB284823  66.365  75.054  82.687
28436DC     BB384824  66.479  74.946  82.552
28436DC     SC184825  66.296  74.758  82.537
28436DC     SC284826  66.371  74.579  82.630
28436DC     SC384827  66.112  74.599  82.436
28437DG     BB184828  66.757  75.213  82.694
28437DG     BB284829  66.885  74.875  82.714
28437DG     BB384830  66.959  74.820  82.538
28437DG     SC184831  66.695  74.706  82.434
28437DG     SC284832  66.638  74.418  82.378
28437DG     SC384833  66.418  74.590  82.281
28437DG     SC484834  66.593  74.803  82.358
28438DA     BB184835  67.279  74.731  82.668
28438DA     BB284836  67.234  74.383  82.562
28438DA     BB384837  67.287  74.361  82.357
28438DA     SC184838  67.000  74.418  82.251
28438DA     SC284839  66.816  74.291  82.141
28438DA     SC384840  66.729  74.521  82.067
28438DA     SC484841  66.964  74.570  82.213
28439DC     BB184842  67.467  74.243  82.279
28439DC     BB284843  67.276  73.959  82.165
28439DC     BB384844  67.280  73.949  81.959
28439DC     SC184845  67.112  74.149  81.937
28439DC     SC284846  66.924  74.077  81.863
28439DC     SC384847  67.016  74.387  81.876
28440DT     BB184848  67.446  73.730  81.967
28440DT     BB284849  67.152  73.617  81.790
28440DT     BB384850  67.174  73.652  81.587
28440DT     SC184851  67.132  73.909  81.619
28440DT     SC284852  66.943  73.961  81.533
28440DT     SC384853  67.175  74.169  81.620
28441DC     BB184854  67.191  73.388  81.569
28441DC     BB284855  66.908  73.481  81.365
28441DC     BB384856  66.972  73.538  81.177
28441DC     SC184857  67.060  73.768  81.268
28441DC     SC284858  66.936  73.927  81.194
28441DC     SC384859  67.227  73.962  81.332
28442DA     BB184860  66.654  73.264  81.169
28442DA     BB284861  66.574  73.543  80.945
28442DA     BB384862  66.702  73.540  80.774
28442DA     SC184863  66.920  73.721  80.904
28442DA     SC284864  67.009  73.952  80.875
28442DA     SC384865  67.216  73.866  80.999
28442DA     SC484866  67.041  73.648  80.981
28443DT     BB184867  66.604  73.513  80.627
28443DT     BB284868  66.627  73.847  80.492
28443DT     BB384869  66.777  73.855  80.350
28443DT     SC184870  66.964  73.849  80.534
28443DT     SC284871  67.062  74.040  80.543
28443DT     SC384872  67.169  73.765  80.677
28444DT     BB184873  66.580  73.881  80.176
28444DT     BB284874  66.790  74.169  80.124
28444DT     BB384875  66.948  74.120  80.000
28444DT     SC184876  67.069  73.990  80.194
28444DT     SC284877  67.245  74.098  80.254
28444DT     SC384878  67.175  73.791  80.331
28445DT     BB184879  66.829  74.268  79.816
28445DT     BB284880  67.159  74.410  79.850
28445DT     BB384881  67.293  74.303  79.734
28445DT     SC184882  67.294  74.104  79.905
28445DT     SC284883  67.484  74.095  80.004
28445DT     SC384884  67.259  73.862  80.003
28446DC     BB184885  67.304  74.514  79.569
28446DC     BB284886  67.646  74.457  79.666
28446DC     BB384887  67.731  74.313  79.544
28446DC     SC184888  67.600  74.121  79.666
28446DC     SC284889  67.737  74.001  79.779
28446DC     SC384890  67.432  73.921  79.705
28447DA     BB184891  67.986  74.646  79.552
28447DA     BB284892  68.189  74.347  79.608
28447DA     BB384893  68.207  74.234  79.428
28447DA     SC184894  67.955  74.059  79.485
28447DA     SC284895  67.905  73.822  79.543
28447DA     SC384896  67.668  73.873  79.457
28447DA     SC484897  67.815  74.110  79.426
28448DA     BB184898  68.526  74.263  79.502
28448DA     BB284899  68.539  73.897  79.511
28448DA     BB384900  68.531  73.817  79.313
28448DA     SC184901  68.220  73.795  79.309
28448DA     SC284902  68.049  73.614  79.311
28448DA     SC384903  67.890  73.792  79.217
28448DA     SC484904  68.137  73.919  79.250
28449DA     BB184905  68.807  73.661  79.407
28449DA     BB284906  68.632  73.346  79.340
28449DA     BB384907  68.619  73.312  79.129
28449DA     SC184908  68.345  73.456  79.098
28449DA     SC284909  68.108  73.395  79.049
28449DA     SC384910  68.079  73.642  78.984
28449DA     SC484911  68.348  73.613  79.061
28450DA     BB184912  68.764  73.017  79.191
28450DA     BB284913  68.465  72.857  79.051
28450DA     BB384914  68.469  72.866  78.838
28450DA     SC184915  68.315  73.137  78.824
28450DA     SC284916  68.091  73.218  78.751
28450DA     SC384917  68.202  73.449  78.737
28450DA     SC484918  68.403  73.272  78.820
28451DA     BB184919  68.435  72.534  78.840
28451DA     BB284920  68.117  72.580  78.663
28451DA     BB384921  68.152  72.618  78.456
28451DA     SC184922  68.164  72.927  78.490
28451DA     SC284923  68.026  73.125  78.428
28451DA     SC384924  68.241  73.261  78.462
28451DA     SC484925  68.308  72.994  78.514
28452DT     BB184926  68.094  72.481  78.305
28452DT     BB284927  67.808  72.667  78.188
28452DT     BB384928  67.849  72.752  78.004
28452DT     SC184929  68.003  72.935  78.113
28452DT     SC284930  67.907  73.127  78.098
28452DT     SC384931  68.218  73.075  78.173
28453DA     BB184932  67.489  72.541  77.965
28453DA     BB284933  67.437  72.880  77.834
28453DA     BB384934  67.535  72.902  77.646
28453DA     SC184935  67.802  73.004  77.769
28453DA     SC284936  67.931  73.217  77.779
28453DA     SC384937  68.132  73.068  77.836
28453DA     SC484938  67.915  72.894  77.802
28454DT     BB184939  67.417  72.932  77.495
28454DT     BB284940  67.488  73.283  77.455
28454DT     BB384941  67.618  73.312  77.297
28454DT     SC184942  67.821  73.223  77.438
28454DT     SC284943  67.955  73.386  77.481
28454DT     SC384944  68.023  73.071  77.514
28455DC     BB184945  67.412  73.418  77.168
28455DC     BB284946  67.664  73.676  77.171
28455DC     BB384947  67.798  73.646  77.016
28455DC     SC184948  67.911  73.447  77.143
28455DC     SC284949  68.109  73.505  77.205
28455DC     SC384950  67.993  73.202  77.198
28456DA     BB184951  67.662  74.044  77.001
28456DA     BB284952  68.028  74.046  76.978
28456DA     BB384953  68.092  73.972  76.789
28456DA     SC184954  68.111  73.676  76.883
28456DA     SC284955  68.290  73.508  76.927
28456DA     SC384956  68.103  73.334  76.903
28456DA     SC484957  67.981  73.583  76.864
28457DG     BB184958  68.220  74.254  76.761
28457DG     BB284959  68.527  74.063  76.760
28457DG     BB384960  68.560  73.988  76.579
28457DG     SC184961  68.407  73.729  76.631
28457DG     SC284962  68.525  73.455  76.646
28457DG     SC384963  68.230  73.442  76.647
28457DG     SC484964  68.249  73.724  76.601
28458DT     BB184965  68.740  74.045  76.453
28458DT     BB284966  68.943  73.749  76.488
28458DT     BB384967  68.935  73.636  76.314
28458DT     SC184968  68.693  73.553  76.370
28458DT     SC284969  68.699  73.343  76.418
28458DT     SC384970  68.432  73.515  76.350
28459DA     BB184971  69.341  73.695  76.401
28459DA     BB284972  69.287  73.336  76.346
28459DA     BB384973  69.259  73.297  76.138
28459DA     SC184974  68.949  73.329  76.150
28459DA     SC284975  68.748  73.184  76.130
28459DA     SC384976  68.621  73.401  76.080
28459DA     SC484977  68.889  73.475  76.118
28460DG     BB184978  69.508  73.124  76.190
28460DG     BB284979  69.274  72.857  76.121
28460DG     BB384980  69.250  72.837  75.924
28460DG     SC184981  69.018  73.035  75.907
28460DG     SC284982  68.735  72.968  75.838
28460DG     SC384983  68.775  73.261  75.848
28460DG     SC484984  69.050  73.190  75.884
28461DC     BB184985  69.303  72.652  75.845
28461DC     BB284986  68.979  72.505  75.785
28461DC     BB384987  68.930  72.521  75.585
28461DC     SC184988  68.879  72.777  75.610
28461DC     SC284989  68.667  72.810  75.588
28461DC     SC384990  68.896  73.038  75.577
28462DA     BB184991  68.871  72.136  75.745
28462DA     BB284992  68.570  72.237  75.562
28462DA     BB384993  68.610  72.246  75.352
28462DA     SC184994  68.693  72.546  75.357
28462DA     SC284995  68.602  72.764  75.275
28462DA     SC384996  68.843  72.849  75.298
28462DA     SC484997  68.849  72.580  75.377
28463DC     BB184998  68.508  72.126  75.278
28463DC     BB284999  68.275  72.353  75.121
28463DC     BB385000  68.334  72.391  74.927
28463DC     SC185001  68.528  72.548  75.007
28463DC     SC285002  68.482  72.751  74.955
28463DC     SC385003  68.772  72.640  75.049
28464DT     BB185004  68.121  72.250  74.869
28464DT     BB285005  68.077  72.565  74.699
28464DT     BB385006  68.185  72.567  74.523
28464DT     SC185007  68.411  72.598  74.654
28464DT     SC285008  68.488  72.795  74.617
28464DT     SC385009  68.653  72.548  74.747
28465DT     BB185010  67.953  72.551  74.395
28465DT     BB285011  68.114  72.842  74.257
28465DT     BB385012  68.246  72.786  74.107
28465DT     SC185013  68.419  72.696  74.283
28465DT     SC285014  68.591  72.825  74.285
28465DT     SC385015  68.573  72.530  74.417
28466DT     BB185016  68.079  72.881  73.913
28466DT     BB285017  68.392  73.048  73.850
28466DT     BB385018  68.512  72.931  73.729
28466DT     SC185019  68.567  72.768  73.927
28466DT     SC285020  68.774  72.791  73.983
28466DT     SC385021  68.579  72.548  74.072
28467DG     BB185022  68.468  73.272  73.505
28467DG     BB285023  68.818  73.184  73.539
28467DG     BB385024  68.864  73.041  73.409
28467DG     SC185025  68.796  72.812  73.600
28467DG     SC285026  68.989  72.617  73.717
28467DG     SC385027  68.711  72.536  73.775
28467DG     SC485028  68.646  72.756  73.603
28468DA     BB185029  69.132  73.228  73.272
28468DA     BB285030  69.371  72.969  73.375
28468DA     BB385031  69.371  72.808  73.234
28468DA     SC185032  69.150  72.646  73.383
28468DA     SC285033  69.133  72.435  73.514
28468DA     SC385034  68.883  72.446  73.461
28468DA     SC485035  68.998  72.670  73.338
28469DT     BB185036  69.542  72.758  73.102
28469DT     BB285037  69.650  72.469  73.289
28469DT     BB385038  69.611  72.297  73.182
28469DT     SC185039  69.354  72.313  73.235
28469DT     SC285040  69.299  72.153  73.368
28469DT     SC385041  69.094  72.338  73.198
28470DA     BB185042  70.015  72.284  73.290
28470DA     BB285043  69.860  71.967  73.392
28470DA     BB385044  69.824  71.844  73.221
28470DA     SC185045  69.538  71.955  73.172
28470DA     SC285046  69.303  71.873  73.190
28470DA     SC385047  69.245  72.066  73.030
28470DA     SC485048  69.522  72.079  73.071
28471DT     BB185049  69.927  71.673  73.209
28471DT     BB285050  69.653  71.457  73.302
28471DT     BB385051  69.582  71.358  73.135
28471DT     SC185052  69.463  71.574  73.046
28471DT     SC285053  69.250  71.550  73.061
28471DT     SC385054  69.404  71.779  72.891
28472DA     BB185055  69.654  71.094  73.453
28472DA     BB285056  69.316  71.032  73.325
28472DA     BB385057  69.325  70.939  73.133
28472DA     SC185058  69.323  71.208  72.976
28472DA     SC285059  69.167  71.333  72.827
28472DA     SC385060  69.376  71.458  72.747
28472DA     SC485061  69.465  71.273  72.938
28473DT     BB185062  69.252  70.778  73.146
28473DT     BB285063  68.946  70.854  72.972
28473DT     BB385064  68.961  70.795  72.774
28473DT     SC185065  69.117  70.999  72.717
28473DT     SC285066  69.011  71.137  72.591
28473DT     SC385067  69.330  71.135  72.644
28474DA     BB185068  68.605  70.670  72.960
28474DA     BB285069  68.523  70.819  72.636
28474DA     BB385070  68.595  70.696  72.477
28474DA     SC185071  68.871  70.838  72.459
28474DA     SC285072  68.992  70.988  72.300
28474DA     SC385073  69.204  70.910  72.421
28474DA     SC485074  68.992  70.777  72.546
28475DA     BB185075  68.280  70.759  72.411
28475DA     BB285076  68.402  70.899  72.095
28475DA     BB385077  68.481  70.745  71.971
28475DA     SC185078  68.770  70.771  72.080
28475DA     SC285079  68.992  70.850  71.999
28475DA     SC385080  69.090  70.709  72.190
28475DA     SC485081  68.812  70.677  72.204
28476DC     BB185082  68.382  70.724  71.817
28476DC     BB285083  68.622  70.857  71.583
28476DC     BB385084  68.728  70.703  71.495
28476DC     SC185085  68.868  70.663  71.713
28476DC     SC285086  69.072  70.724  71.678
28476DC     SC385087  68.967  70.544  71.927
28477DA     BB185088  68.582  70.938  71.178
28477DA     BB285089  68.935  70.867  71.110
28477DA     BB385090  68.959  70.663  71.052
28477DA     SC185091  69.007  70.560  71.342
28477DA     SC285092  69.196  70.469  71.477
28477DA     SC385093  69.014  70.376  71.631
28477DA     SC485094  68.879  70.510  71.425
28478DA     BB185095  69.109  70.774  70.774
28478DA     BB285096  69.409  70.589  70.876
28478DA     BB385097  69.385  70.381  70.833
28478DA     SC185098  69.263  70.312  71.110
28478DA     SC285099  69.329  70.187  71.316
28478DA     SC385100  69.078  70.178  71.367
28478DA     SC485101  69.102  70.316  71.124
28479DG     BB185102  69.633  70.376  70.624
28479DG     BB285103  69.782  70.151  70.865
28479DG     BB385104  69.729  69.963  70.825
28479DG     SC185105  69.478  69.972  71.000
28479DG     SC285106  69.434  69.816  71.251
28479DG     SC385107  69.185  69.953  71.166
28479DG     SC485108  69.340  70.022  70.936
28480DA     BB185109  70.062  69.829  70.801
28480DA     BB285110  70.000  69.607  71.087
28480DA     BB385111  69.903  69.429  71.022
28480DA     SC185112  69.616  69.542  71.063
28480DA     SC285113  69.423  69.504  71.217
28480DA     SC385114  69.282  69.616  71.034
28480DA     SC485115  69.545  69.612  70.937
28481DT     BB185116  69.987  69.186  71.010
28481DT     BB285117  69.806  69.076  71.303
28481DT     BB385118  69.667  68.932  71.250
28481DT     SC185119  69.509  69.113  71.144
28481DT     SC285120  69.332  69.133  71.265
28481DT     SC385121  69.370  69.246  70.963
28482DT     BB185122  69.807  68.705  71.358
28482DT     BB285123  69.490  68.704  71.532
28482DT     BB385124  69.357  68.579  71.434
28482DT     SC185125  69.321  68.755  71.242
28482DT     SC285126  69.123  68.837  71.256
28482DT     SC385127  69.323  68.864  71.002
28483DA     BB185128  69.366  68.469  71.835
28483DA     BB285129  69.015  68.518  71.741
28483DA     BB385130  68.946  68.353  71.624
28483DA     SC185131  69.024  68.482  71.352
28483DA     SC285132  68.908  68.578  71.153
28483DA     SC385133  69.130  68.537  71.030
28483DA     SC485134  69.170  68.448  71.293
28484DG     BB185135  68.759  68.359  71.863
28484DG     BB285136  68.515  68.436  71.607
28484DG     BB385137  68.463  68.270  71.511
28484DG     SC185138  68.683  68.294  71.299
28484DG     SC285139  68.641  68.346  71.008
28484DG     SC385140  68.924  68.279  71.064
28484DG     SC485141  68.826  68.229  71.328
28485DC     BB185142  68.271  68.239  71.527
28485DC     BB285143  68.150  68.312  71.195
28485DC     BB385144  68.133  68.137  71.086
28485DC     SC185145  68.393  68.122  71.055
28485DC     SC285146  68.442  68.159  70.849
28485DC     SC385147  68.640  68.031  71.072
28486DA     BB185148  67.791  68.379  71.058
28486DA     BB285149  67.875  68.259  70.722
28486DA     BB385150  67.839  68.049  70.708
28486DA     SC185151  68.127  67.969  70.796
28486DA     SC285152  68.330  67.868  70.692
28486DA     SC385153  68.400  67.812  70.933
28486DA     SC485154  68.152  67.942  70.952
28487DT     BB185155  67.700  68.004  70.588
28487DT     BB285156  67.897  67.847  70.330
28487DT     BB385157  67.890  67.641  70.350
28487DT     SC185158  68.052  67.648  70.557
28487DT     SC285159  68.241  67.562  70.501
28487DT     SC385160  68.140  67.622  70.804
28488DA     BB185161  67.769  67.693  69.949
28488DA     BB285162  68.008  67.415  69.952
28488DA     BB385163  67.916  67.239  70.029
28488DA     SC185164  67.997  67.296  70.324
28488DA     SC285165  68.153  67.201  70.494
28488DA     SC385166  68.006  67.321  70.666
28488DA     SC485167  67.893  67.376  70.416
28489DA     BB185168  67.972  67.036  69.751
28489DA     BB285169  68.166  66.804  69.959
28489DA     BB385170  68.036  66.665  70.055
28489DA     SC185171  67.996  66.841  70.309
28489DA     SC285172  68.062  66.836  70.549
28489DA     SC385173  67.869  67.000  70.585
28489DA     SC485174  67.871  66.941  70.311
28490DT     BB185175  67.977  66.391  70.030
28490DT     BB285176  68.149  66.288  70.329
28490DT     BB385177  68.015  66.206  70.464
28490DT     SC185178  67.920  66.443  70.525
28490DT     SC285179  67.977  66.493  70.726
28490DT     SC385180  67.750  66.643  70.551
28491DT     BB185181  68.045  65.893  70.449
28491DT     BB285182  68.099  65.959  70.799
28491DT     BB385183  67.926  65.919  70.906
28491DT     SC185184  67.812  66.139  70.818
28491DT     SC285185  67.793  66.279  70.981
28491DT     SC385186  67.643  66.298  70.694
28492DT     BB185187  67.991  65.658  71.039
28492DT     BB285188  67.917  65.877  71.316
28492DT     BB385189  67.721  65.852  71.376
28492DT     SC185190  67.632  65.984  71.167
28492DT     SC285191  67.550  66.172  71.231
28492DT     SC385192  67.507  66.035  70.941
28493DA     BB185193  67.943  65.795  71.726
28493DA     BB285194  67.689  66.049  71.797
28493DA     BB385195  67.499  65.958  71.828
28493DA     SC185196  67.414  65.975  71.529
28493DA     SC285197  67.250  66.101  71.391
28493DA     SC385198  67.282  65.914  71.218
28493DA     SC485199  67.447  65.849  71.435
28494DT     BB185200  67.417  65.974  72.012
28494DT     BB285201  67.180  66.231  71.924
28494DT     BB385202  66.989  66.151  71.916
28494DT     SC185203  67.040  66.033  71.687
28494DT     SC285204  66.928  66.128  71.531
28494DT     SC385205  67.077  65.841  71.510
28495DT     BB185206  66.945  66.295  72.134
28495DT     BB285207  66.708  66.415  71.890
28495DT     BB385208  66.540  66.294  71.889
28495DT     SC185209  66.668  66.103  71.763
28495DT     SC285210  66.591  66.086  71.563
28495DT     SC385211  66.778  65.868  71.714
28496DG     BB185212  66.461  66.689  71.942
28496DG     BB285213  66.272  66.547  71.669
28496DG     BB385214  66.125  66.433  71.740
28496DG     SC185215  66.294  66.178  71.746
28496DG     SC285216  66.252  65.936  71.576
28496DG     SC385217  66.455  65.884  71.785
28496DG     SC485218  66.380  66.145  71.877
28497DT     BB185219  65.962  66.502  71.674
28497DT     BB285220  65.862  66.253  71.432
28497DT     BB385221  65.738  66.113  71.522
28497DT     SC185222  65.940  66.002  71.647
28497DT     SC285223  65.977  65.807  71.563
28497DT     SC385224  66.096  65.919  71.843
28498DT     BB185225  65.577  66.230  71.359
28498DT     BB285226  65.562  65.879  71.277
28498DT     BB385227  65.445  65.779  71.416
28498DT     SC185228  65.634  65.793  71.597
28498DT     SC285229  65.713  65.596  71.633
28498DT     SC385230  65.759  65.856  71.820
28499DA     BB185231  65.347  65.679  71.018
28499DA     BB285232  65.359  65.371  71.217
28499DA     BB385233  65.199  65.368  71.358
28499DA     SC185234  65.363  65.506  71.584
28499DA     SC285235  65.462  65.445  71.805
28499DA     SC385236  65.462  65.697  71.851
28499DA     SC485237  65.353  65.667  71.595
28500DG     BB185238  65.136  65.106  71.203
28500DG     BB285239  65.177  64.955  71.529
28500DG     BB385240  65.016  64.990  71.641
28500DG     SC185241  65.122  65.253  71.757
28500DG     SC285242  65.195  65.301  72.042
28500DG     SC385243  65.198  65.554  71.888
28500DG     SC485244  65.094  65.389  71.678
28501DA     BB185245  64.966  64.645  71.715
28501DA     BB285246  64.982  64.711  72.075
28501DA     BB385247  64.798  64.792  72.144
28501DA     SC185248  64.883  65.088  72.098
28501DA     SC285249  64.938  65.287  72.237
28501DA     SC385250  64.889  65.423  72.025
28501DA     SC485251  64.846  65.154  71.957
28502DT     BB185252  64.626  64.692  72.285
28502DT     BB285253  64.696  64.887  72.581
28502DT     BB385254  64.538  65.015  72.620
28502DT     SC185255  64.607  65.174  72.423
28502DT     SC285256  64.681  65.359  72.504
28502DT     SC385257  64.596  65.307  72.195
28503DG     BB185258  64.520  64.792  72.968
28503DG     BB285259  64.537  65.145  73.047
28503DG     BB385260  64.354  65.224  73.042
28503DG     SC185261  64.366  65.297  72.745
28503DG     SC285262  64.371  65.574  72.633
28503DG     SC385263  64.337  65.373  72.418
28503DG     SC485264  64.319  65.189  72.637
28504DA     BB185265  64.398  65.351  73.364
28504DA     BB285266  64.366  65.693  73.238
28504DA     BB385267  64.160  65.744  73.214
28504DA     SC185268  64.146  65.646  72.919
28504DA     SC285269  64.122  65.747  72.692
28504DA     SC385270  64.045  65.514  72.618
28504DA     SC485271  64.099  65.495  72.893
28505DA     BB185272  64.269  65.989  73.397
28505DA     BB285273  64.178  66.209  73.119
28505DA     BB385274  63.966  66.233  73.110
28505DA     SC185275  63.922  65.993  72.918
28505DA     SC285276  63.855  65.956  72.680
28505DA     SC385277  63.798  65.717  72.755
28505DA     SC485278  63.892  65.849  72.984
28506DA     BB185279  64.092  66.533  73.106
28506DA     BB285280  63.922  66.573  72.783
28506DA     BB385281  63.711  66.582  72.811
28506DA     SC185282  63.669  66.275  72.782
28506DA     SC285283  63.567  66.118  72.617
28506DA     SC385284  63.559  65.952  72.813
28506DA     SC485285  63.671  66.187  72.916
28507DA     BB185286  63.782  66.844  72.626
28507DA     BB285287  63.545  66.706  72.382
28507DA     BB385288  63.346  66.719  72.456
28507DA     SC185289  63.352  66.439  72.591
28507DA     SC285290  63.247  66.215  72.557
28507DA     SC385291  63.308  66.171  72.802
28507DA     SC485292  63.397  66.431  72.745
28508DT     BB185293  63.219  66.843  72.364
28508DT     BB285294  63.007  66.595  72.211
28508DT     BB385295  62.831  66.577  72.318
28508DT     SC185296  62.952  66.445  72.510
28508DT     SC285297  62.885  66.240  72.509
28508DT     SC385298  63.047  66.386  72.749
28509DA     BB185299  62.665  66.664  71.936
28509DA     BB285300  62.475  66.380  72.069
28509DA     BB385301  62.333  66.447  72.214
28509DA     SC185302  62.528  66.414  72.455
28509DA     SC285303  62.552  66.265  72.653
28509DA     SC385304  62.699  66.451  72.750
28509DA     SC485305  62.615  66.541  72.498
28510DA     BB185306  62.036  66.329  72.063
28510DA     BB285307  61.984  66.107  72.350
28510DA     BB385308  61.874  66.208  72.502
28510DA     SC185309  62.128  66.315  72.647
28510DA     SC285310  62.249  66.275  72.862
28510DA     SC385311  62.354  66.506  72.822
28510DA     SC485312  62.181  66.461  72.605
28511DT     BB185313  61.630  66.178  72.598
28511DT     BB285314  61.739  66.006  72.897
28511DT     BB385315  61.692  66.119  73.064
28511DT     SC185316  61.887  66.288  73.015
28511DT     SC285317  62.040  66.265  73.164
28511DT     SC385318  62.011  66.513  72.958
28512DT     BB185319  61.472  65.960  73.160
28512DT     BB285320  61.710  65.953  73.430
28512DT     BB385321  61.668  66.105  73.565
28512DT     SC185322  61.763  66.287  73.403
28512DT     SC285323  61.946  66.366  73.484
28512DT     SC385324  61.772  66.497  73.243
28513DT     BB185325  61.585  65.919  73.744
28513DT     BB285326  61.863  66.086  73.903
28513DT     BB385327  61.796  66.254  74.003
28513DT     SC185328  61.764  66.386  73.779
28513DT     SC285329  61.912  66.542  73.766
28513DT     SC385330  61.647  66.515  73.581
28514DA     BB185331  62.046  66.009  74.235
28514DA     BB285332  62.172  66.354  74.249
28514DA     BB385333  62.039  66.477  74.362
28514DA     SC185334  61.869  66.561  74.115
28514DA     SC285335  61.829  66.767  73.980
28514DA     SC385336  61.614  66.651  73.903
28514DA     SC485337  61.739  66.473  74.080
28515DT     BB185338  62.133  66.529  74.494
28515DT     BB285339  62.178  66.869  74.383
28515DT     BB385340  62.032  66.990  74.465
28515DT     SC185341  61.850  66.895  74.302
28515DT     SC285342  61.793  67.048  74.161
28515DT     SC385343  61.633  66.772  74.216
28516DA     BB185344  62.424  67.144  74.494
28516DA     BB285345  62.202  67.406  74.368
28516DA     BB385346  62.063  67.465  74.519
28516DA     SC185347  61.847  67.258  74.435
28516DA     SC285348  61.621  67.260  74.329
28516DA     SC385349  61.593  67.026  74.432
28516DA     SC485350  61.848  67.115  74.508
28517DT     BB185351  62.095  67.634  74.558
28517DT     BB285352  61.800  67.774  74.405
28517DT     BB385353  61.650  67.796  74.546
28517DT     SC185354  61.603  67.538  74.548
28517DT     SC285355  61.411  67.500  74.459
28517DT     SC385356  61.583  67.290  74.635
28518DA     BB185357  61.700  68.151  74.326
28518DA     BB285358  61.342  68.075  74.344
28518DA     BB385359  61.271  68.101  74.543
28518DA     SC185360  61.326  67.807  74.628
28518DA     SC285361  61.193  67.603  74.685
28518DA     SC385362  61.407  67.522  74.801
28518DA     SC485363  61.468  67.774  74.696
28519DA     BB185364  61.056  68.287  74.376
28519DA     BB285365  60.795  68.069  74.513
28519DA     BB385366  60.767  68.108  74.721
28519DA     SC185367  60.975  67.896  74.814
28519DA     SC285368  60.974  67.675  74.929
28519DA     SC385369  61.221  67.724  74.980
28519DA     SC485370  61.126  67.945  74.836
28520DT     BB185371  60.595  68.185  74.774
28520DT     BB285372  60.459  67.891  74.932
28520DT     BB385373  60.475  67.907  75.137
28520DT     SC185374  60.732  67.859  75.129
28520DT     SC285375  60.772  67.666  75.215
28520DT     SC385376  60.992  67.895  75.154
28521DA     BB185377  60.070  67.819  75.064
28521DA     BB285378  60.188  67.592  75.328
28521DA     BB385379  60.210  67.698  75.512
28521DA     SC185380  60.508  67.773  75.460
28521DA     SC285381  60.732  67.713  75.552
28521DA     SC385382  60.811  67.933  75.446
28521DA     SC485383  60.537  67.914  75.389
28522DG     BB185384  59.994  67.502  75.629
28522DG     BB285385  60.270  67.394  75.837
28522DG     BB385386  60.287  67.515  75.994
28522DG     SC185387  60.479  67.709  75.854
28522DG     SC285388  60.765  67.754  75.925
28522DG     SC385389  60.674  67.952  75.726
28522DG     SC485390  60.418  67.831  75.771
28523DA     BB185391  60.278  67.231  76.195
28523DA     BB285392  60.612  67.311  76.324
28523DA     BB385393  60.601  67.469  76.467
28523DA     SC185394  60.640  67.696  76.258
28523DA     SC285395  60.815  67.862  76.197
28523DA     SC385396  60.625  67.990  76.082
28523DA     SC485397  60.508  67.761  76.193
28524DT     BB185398  60.650  67.423  76.653
28524DT     BB285399  60.971  67.587  76.653
28524DT     BB385400  60.959  67.766  76.757
28524DT     SC185401  60.831  67.881  76.558
28524DT     SC285402  60.959  68.027  76.466
28524DT     SC385403  60.639  68.000  76.423
28525DG     BB185404  61.249  67.535  76.927
28525DG     BB285405  61.373  67.864  76.840
28525DG     BB385406  61.308  67.998  76.972
28525DG     SC185407  61.051  68.062  76.820
28525DG     SC285408  60.986  68.322  76.689
28525DG     SC385409  60.751  68.142  76.689
28525DG     SC485410  60.920  67.975  76.848
28526DA     BB185411  61.643  68.085  76.989
28526DA     BB285412  61.556  68.426  76.885
28526DA     BB385413  61.461  68.530  77.045
28526DA     SC185414  61.173  68.445  76.963
28526DA     SC285415  60.969  68.552  76.869
28526DA     SC385416  60.844  68.348  76.963
28526DA     SC485417  61.114  68.311  77.030
28527DA     BB185418  61.701  68.741  76.967
28527DA     BB285419  61.435  68.982  76.895
28527DA     BB385420  61.346  69.051  77.076
28527DA     SC185421  61.127  68.830  77.081
28527DA     SC285422  60.880  68.814  77.051
28527DA     SC385423  60.900  68.591  77.176
28527DA     SC485424  61.160  68.695  77.162
28528DG     BB185425  61.443  69.333  76.982
28528DG     BB285426  61.088  69.401  76.968
28528DG     BB385427  61.021  69.447  77.150
28528DG     SC185428  60.955  69.158  77.225
28528DG     SC285429  60.682  69.046  77.271
28528DG     SC385430  60.890  68.850  77.348
28528DG     SC485431  61.069  69.067  77.293
28529DA     BB185432  60.884  69.737  77.014
28529DA     BB285433  60.549  69.627  77.116
28529DA     BB385434  60.521  69.659  77.325
28529DA     SC185435  60.625  69.377  77.406
28529DA     SC285436  60.532  69.165  77.499
28529DA     SC385437  60.773  69.112  77.567
28529DA     SC485438  60.781  69.363  77.441
28530DT     BB185439  60.383  69.796  77.387
28530DT     BB285440  60.134  69.556  77.491
28530DT     BB385441  60.129  69.544  77.698
28530DT     SC185442  60.353  69.408  77.704
28530DT     SC285443  60.312  69.206  77.765
28530DT     SC385444  60.605  69.346  77.754
28531DC     BB185445  59.889  69.675  77.706
28531DC     BB285446  59.826  69.362  77.872
28531DC     BB385447  59.869  69.378  78.074
28531DC     SC185448  60.127  69.373  78.027
28531DC     SC285449  60.209  69.188  78.101
28531DC     SC385450  60.379  69.451  78.016
28532DC     BB185451  59.605  69.367  78.122
28532DC     BB285452  59.745  69.093  78.310
28532DC     BB385453  59.810  69.160  78.495
28532DC     SC185454  60.020  69.276  78.388
28532DC     SC285455  60.197  69.169  78.447
28532DC     SC385456  60.188  69.465  78.313
28533DA     BB185457  59.564  68.826  78.557
28533DA     BB285458  59.870  68.778  78.752
28533DA     BB385459  59.872  68.909  78.920
28533DA     SC185460  60.017  69.139  78.771
28533DA     SC285461  60.241  69.250  78.775
28533DA     SC385462  60.123  69.446  78.658
28533DA     SC485463  59.926  69.251  78.700
28534DG     BB185464  59.885  68.644  79.086
28534DG     BB285465  60.207  68.775  79.186
28534DG     BB385466  60.184  68.907  79.333
28534DG     SC185467  60.153  69.147  79.146
28534DG     SC285468  60.344  69.375  79.119
28534DG     SC385469  60.094  69.429  78.971
28534DG     SC485470  60.007  69.185  79.093
28535DC     BB185471  60.267  68.882  79.553
28535DC     BB285472  60.545  69.112  79.548
28535DC     BB385473  60.499  69.281  79.658
28535DC     SC185474  60.341  69.371  79.469
28535DC     SC285475  60.429  69.545  79.378
28535DC     SC385476  60.121  69.450  79.346
28536DA     BB185477  60.861  69.149  79.826
28536DA     BB285478  60.899  69.506  79.750
28536DA     BB385479  60.796  69.624  79.896
28536DA     SC185480  60.529  69.631  79.737
28536DA     SC285481  60.393  69.798  79.611
28536DA     SC385482  60.198  69.635  79.645
28536DA     SC485483  60.420  69.517  79.769
28537DC     BB185484  60.901  69.752  80.033
28537DC     BB285485  60.821  70.060  79.863
28537DC     BB385486  60.686  70.169  79.975
28537DC     SC185487  60.489  70.009  79.908
28537DC     SC285488  60.353  70.112  79.777
28537DC     SC385489  60.294  69.833  79.930
28538DA     BB185490  61.010  70.408  79.867
28538DA     BB285491  60.702  70.582  79.771
28538DA     BB385492  60.602  70.656  79.944
28538DA     SC185493  60.430  70.400  79.984
28538DA     SC285494  60.191  70.332  79.963
28538DA     SC385495  60.254  70.136  80.117
28538DA     SC485496  60.489  70.286  80.081
28539DT     BB185497  60.599  70.828  79.926
28539DT     BB285498  60.250  70.857  79.839
28539DT     BB385499  60.139  70.902  80.008
28539DT     SC185500  60.161  70.656  80.097
28539DT     SC285501  59.969  70.559  80.087
28539DT     SC385502  60.227  70.453  80.253
28540DA     BB185503  60.060  71.112  79.647
28540DA     BB285504  59.744  70.998  79.796
28540DA     BB385505  59.712  71.095  79.983
28540DA     SC185506  59.855  70.874  80.149
28540DA     SC285507  59.793  70.695  80.312
28540DA     SC385508  60.040  70.701  80.381
28540DA     SC485509  60.012  70.893  80.179
28541DC     BB185510  59.572  71.177  79.952
28541DC     BB285511  59.353  70.987  80.166
28541DC     BB385512  59.352  71.068  80.356
28541DC     SC185513  59.589  70.970  80.408
28541DC     SC285514  59.572  70.814  80.555
28541DC     SC385515  59.847  70.960  80.465
28542DA     BB185516  58.956  71.008  80.223
28542DA     BB285517  58.982  70.889  80.569
28542DA     BB385518  59.008  71.054  80.702
28542DA     SC185519  59.319  71.046  80.689
28542DA     SC285520  59.508  70.988  80.840
28542DA     SC385521  59.652  71.128  80.681
28542DA     SC485522  59.391  71.138  80.579
28543DA     BB185523  58.743  70.930  80.860
28543DA     BB285524  58.953  70.901  81.159
28543DA     BB385525  58.982  71.092  81.249
28543DA     SC185526  59.240  71.157  81.088
28543DA     SC285527  59.484  71.181  81.133
28543DA     SC385528  59.491  71.312  80.913
28543DA     SC485529  59.223  71.237  80.950
28544DA     BB185530  58.862  70.962  81.533
28544DA     BB285531  59.185  71.040  81.689
28544DA     BB385532  59.195  71.246  81.742
28544DA     SC185533  59.318  71.334  81.470
28544DA     SC285534  59.537  71.420  81.386
28544DA     SC385535  59.403  71.505  81.184
28544DA     SC485536  59.218  71.380  81.354
28545DA     BB185537  59.263  71.144  82.050
28545DA     BB285538  59.587  71.314  82.019
28545DA     BB385539  59.564  71.524  82.051
28545DA     SC185540  59.514  71.589  81.751
28545DA     SC285541  59.634  71.704  81.565
28545DA     SC385542  59.403  71.723  81.455
28545DA     SC485543  59.362  71.592  81.700
28546DG     BB185544  59.759  71.485  82.292
28546DG     BB285545  59.977  71.694  82.092
28546DG     BB385546  59.934  71.886  82.124
28546DG     SC185547  59.725  71.902  81.901
28546DG     SC285548  59.749  72.062  81.649
28546DG     SC385549  59.477  71.950  81.678
28546DG     SC485550  59.573  71.866  81.934
28547DC     BB185551  60.086  72.016  82.208
28547DC     BB285552  60.184  72.208  81.919
28547DC     BB385553  60.099  72.397  81.927
28547DC     SC185554  59.864  72.302  81.861
28547DC     SC285555  59.813  72.368  81.662
28547DC     SC385556  59.609  72.238  81.877
28548DT     BB185557  60.345  72.487  81.975
28548DT     BB285558  60.236  72.668  81.683
28548DT     BB385559  60.123  72.832  81.739
28548DT     SC185560  59.917  72.679  81.798
28548DT     SC285561  59.760  72.713  81.655
28548DT     SC385562  59.729  72.561  81.940
28549DG     BB185563  60.434  72.968  81.513
28549DG     BB285564  60.118  73.098  81.394
28549DG     BB385565  60.056  73.245  81.513
28549DG     SC185566  59.901  73.060  81.701
28549DG     SC285567  59.604  73.054  81.735
28549DG     SC385568  59.737  72.885  81.938
28549DG     SC485569  59.977  72.994  81.826
28550DT     BB185570  60.032  73.465  81.447
28550DT     BB285571  59.673  73.499  81.432
28550DT     BB385572  59.605  73.606  81.596
28550DT     SC185573  59.642  73.401  81.755
28550DT     SC285574  59.451  73.325  81.819
28550DT     SC385575  59.737  73.253  81.952
28551DA     BB185576  59.442  73.833  81.280
28551DA     BB285577  59.171  73.777  81.520
28551DA     BB385578  59.192  73.909  81.687
28551DA     SC185579  59.364  73.709  81.853
28551DA     SC285580  59.338  73.570  82.058
28551DA     SC385581  59.595  73.566  82.063
28551DA     SC485582  59.524  73.720  81.840
28552DT     BB185583  59.053  74.084  81.741
28552DT     BB285584  58.890  73.923  82.020
28552DT     BB385585  58.946  74.014  82.197
28552DT     SC185586  59.182  73.900  82.190
28552DT     SC285587  59.196  73.754  82.346
28552DT     SC385588  59.444  73.873  82.176
28553DC     BB185589  58.702  74.153  82.241
28553DC     BB285590  58.744  73.959  82.542
28553DC     BB385591  58.846  74.070  82.684
28553DC     SC185592  59.074  74.039  82.557
28553DC     SC285593  59.202  73.911  82.672
28553DC     SC385594  59.293  74.097  82.423
28554DG     BB185595  58.491  73.989  82.872
28554DG     BB285596  58.771  73.890  83.079
28554DG     BB385597  58.842  74.049  83.176
28554DG     SC185598  59.041  74.124  82.956
28554DG     SC285599  59.339  74.113  82.977
28554DG     SC385600  59.256  74.248  82.727
28554DG     SC485601  58.993  74.222  82.838
28555DG     BB185602  58.787  73.917  83.479
28555DG     BB285603  59.146  73.922  83.525
28555DG     BB385604  59.202  74.098  83.599
28555DG     SC185605  59.242  74.229  83.326
28555DG     SC285606  59.503  74.318  83.210
28555DG     SC385607  59.277  74.410  83.043
28555DG     SC485608  59.118  74.302  83.255
28556DA     BB185609  59.368  73.935  83.860
28556DA     BB285610  59.688  74.077  83.749
28556DA     BB385611  59.707  74.278  83.818
28556DA     SC185612  59.577  74.403  83.564
28556DA     SC285613  59.649  74.540  83.368
28556DA     SC385614  59.400  74.600  83.345
28556DA     SC485615  59.419  74.430  83.567
28557DT     BB185616  59.855  74.333  83.962
28557DT     BB285617  60.078  74.492  83.727
28557DT     BB385618  60.076  74.697  83.754
28557DT     SC185619  59.840  74.717  83.640
28557DT     SC285620  59.861  74.817  83.451
28557DT     SC385621  59.583  74.766  83.609
28558DA     BB185622  60.474  74.571  83.761
28558DA     BB285623  60.446  74.847  83.521
28558DA     BB385624  60.425  75.033  83.624
28558DA     SC185625  60.115  75.022  83.630
28558DA     SC285626  59.924  75.143  83.523
28558DA     SC385627  59.784  75.050  83.717
28558DA     SC485628  60.045  74.956  83.758
28559DA     BB185629  60.672  75.080  83.421
28559DA     BB285630  60.463  75.340  83.268
28559DA     BB385631  60.453  75.511  83.396
28559DA     SC185632  60.199  75.413  83.546
28559DA     SC285633  59.958  75.476  83.563
28559DA     SC385634  59.960  75.344  83.783
28559DA     SC485635  60.220  75.327  83.681
28560DT     BB185636  60.524  75.637  83.305
28560DT     BB285637  60.219  75.814  83.227
28560DT     BB385638  60.188  75.964  83.366
28560DT     SC185639  60.115  75.791  83.549
28560DT     SC285640  59.904  75.813  83.587
28560DT     SC385641  60.115  75.651  83.772
28561DA     BB185642  60.142  76.092  82.969
28561DA     BB285643  59.859  76.217  83.165
28561DA     BB385644  59.923  76.368  83.301
28561DA     SC185645  59.981  76.170  83.533
28561DA     SC285646  59.884  76.114  83.756
28561DA     SC385647  60.113  76.009  83.806
28561DA     SC485648  60.130  76.112  83.546
28562DC     BB185649  59.845  76.521  83.255
28562DC     BB285650  59.620  76.550  83.536
28562DC     BB385651  59.704  76.671  83.681
28562DC     SC185652  59.871  76.482  83.754
28562DC     SC285653  59.817  76.411  83.949
28562DC     SC385654  60.097  76.355  83.797
28563DT     BB185655  59.523  76.857  83.614
28563DT     BB285656  59.483  76.819  83.970
28563DT     BB385657  59.620  76.939  84.070
28563DT     SC185658  59.817  76.775  84.012
28563DT     SC285659  59.883  76.677  84.191
28563DT     SC385660  60.042  76.685  83.909
28564DT     BB185661  59.427  77.124  84.145
28564DT     BB285662  59.588  77.042  84.457
28564DT     BB385663  59.750  77.167  84.488
28564DT     SC185664  59.893  77.041  84.309
28564DT     SC285665  60.052  76.933  84.407
28564DT     SC385666  60.032  76.995  84.089
28565DT     BB185667  59.631  77.343  84.687
28565DT     BB285668  59.938  77.239  84.847
28565DT     BB385669  60.088  77.376  84.807
28565DT     SC185670  60.114  77.289  84.561
28565DT     SC285671  60.302  77.188  84.541
28565DT     SC385672  60.112  77.286  84.298
28566DA     BB185673  60.111  77.406  85.232
28566DA     BB285674  60.456  77.366  85.117
28566DA     BB385675  60.535  77.553  85.050
28566DA     SC185676  60.444  77.514  84.755
28566DA     SC285677  60.550  77.473  84.533
28566DA     SC385678  60.330  77.560  84.435
28566DA     SC485679  60.300  77.572  84.713
28567DT     BB185680  60.719  77.721  85.147
28567DT     BB285681  60.974  77.634  84.907
28567DT     BB385682  61.021  77.799  84.791
28567DT     SC185683  60.798  77.777  84.655
28567DT     SC285684  60.842  77.715  84.454
28567DT     SC385685  60.560  77.836  84.558
28568DG     BB185686  61.401  77.761  84.962
28568DG     BB285687  61.428  77.761  84.601
28568DG     BB385688  61.445  77.948  84.535
28568DG     SC185689  61.144  77.992  84.505
28568DG     SC285690  60.997  78.030  84.248
28568DG     SC385691  60.820  78.082  84.480
28568DG     SC485692  61.061  78.047  84.631
28569DT     BB185693  61.645  78.065  84.410
28569DT     BB285694  61.512  78.048  84.075
28569DT     BB385695  61.475  78.239  84.005
28569DT     SC185696  61.261  78.262  84.155
28569DT     SC285697  61.085  78.261  84.031
28569DT     SC385698  61.098  78.350  84.343
28570DA     BB185699  61.705  78.032  83.729
28570DA     BB285700  61.409  78.161  83.555
28570DA     BB385701  61.429  78.371  83.522
28570DA     SC185702  61.292  78.451  83.790
28570DA     SC285703  61.079  78.557  83.864
28570DA     SC385704  61.203  78.607  84.083
28570DA     SC485705  61.387  78.474  83.918
28571DG     BB185706  61.387  78.230  83.258
28571DG     BB285707  61.078  78.419  83.271
28571DG     BB385708  61.114  78.610  83.230
28571DG     SC185709  61.165  78.688  83.521
28571DG     SC285710  60.994  78.868  83.687
28571DG     SC385711  61.247  78.805  83.827
28571DG     SC485712  61.314  78.676  83.580
28572DC     BB185713  61.003  78.640  83.089
28572DC     BB285714  60.749  78.853  83.232
28572DC     BB385715  60.806  79.052  83.216
28572DC     SC185716  60.981  79.025  83.410
28572DC     SC285717  60.913  79.134  83.583
28572DC     SC385718  61.212  79.017  83.537
28573DA     BB185719  60.407  78.970  83.101
28573DA     BB285720  60.412  79.268  83.315
28573DA     BB385721  60.513  79.428  83.216
28573DA     SC185722  60.793  79.355  83.332
28573DA     SC285723  60.955  79.450  83.495
28573DA     SC385724  61.129  79.303  83.377
28573DA     SC485725  60.886  79.258  83.244
28574DC     BB185726  60.399  79.568  83.180
28574DC     BB285727  60.531  79.805  83.417
28574DC     BB385728  60.663  79.934  83.323
28574DC     SC185729  60.848  79.749  83.310
28574DC     SC285730  61.009  79.800  83.443
28574DC     SC385731  61.020  79.576  83.209
28575DT     BB185732  60.482  80.139  83.335
28575DT     BB285733  60.778  80.276  83.488
28575DT     BB385734  60.901  80.358  83.343
28575DT     SC185735  60.977  80.121  83.262
28575DT     SC285736  61.183  80.090  83.314
28575DT     SC385737  61.012  79.912  83.105
28576DT     BB185738  60.841  80.626  83.407
28576DT     BB285739  61.201  80.613  83.427
28576DT     BB385740  61.284  80.659  83.243
28576DT     SC185741  61.218  80.424  83.145
28576DT     SC285742  61.397  80.308  83.114
28576DT     SC385743  61.103  80.242  82.994
28577DC     BB185744  61.370  80.918  83.315
28577DC     BB285745  61.671  80.756  83.199
28577DC     BB385746  61.696  80.790  82.996
28577DC     SC185747  61.507  80.619  82.936
28577DC     SC285748  61.594  80.446  82.843
28577DC     SC385749  61.279  80.523  82.844
28578DC     BB185750  61.904  80.969  83.036
28578DC     BB285751  62.045  80.716  82.822
28578DC     BB385752  62.014  80.766  82.623
28578DC     SC185753  61.760  80.701  82.638
28578DC     SC285754  61.726  80.523  82.522
28578DC     SC385755  61.498  80.724  82.635
28579DG     BB185756  62.416  80.725  82.675
28579DG     BB285757  62.297  80.522  82.400
28579DG     BB385758  62.269  80.636  82.239
28579DG     SC185759  61.978  80.702  82.306
28579DG     SC285760  61.738  80.615  82.152
28579DG     SC385761  61.664  80.812  82.359
28579DG     SC485762  61.947  80.830  82.398
28580DG     BB185763  62.478  80.437  82.088
28580DG     BB285764  62.203  80.354  81.868
28580DG     BB385765  62.184  80.495  81.728
28580DG     SC185766  61.991  80.667  81.893
28580DG     SC285767  61.704  80.718  81.830
28580DG     SC385768  61.795  80.889  82.053
28580DG     SC485769  62.051  80.777  81.992
28581DA     BB185770  62.190  80.234  81.501
28581DA     BB285771  61.861  80.333  81.375
28581DA     BB385772  61.878  80.507  81.252
28581DA     SC185773  61.835  80.707  81.486
28581DA     SC285774  61.661  80.868  81.563
28581DA     SC385775  61.849  80.977  81.698
28581DA     SC485776  61.966  80.762  81.562
28582DT     BB185777  61.837  80.488  81.057
28582DT     BB285778  61.520  80.661  81.060
28582DT     BB385779  61.543  80.850  80.978
28582DT     SC185780  61.663  80.938  81.195
28582DT     SC285781  61.535  81.077  81.297
28582DT     SC385782  61.852  81.034  81.352
28583DT     BB185783  61.409  80.771  80.757
28583DT     BB285784  61.225  81.058  80.875
28583DT     BB385785  61.308  81.231  80.798
28583DT     SC185786  61.512  81.216  80.962
28583DT     SC285787  61.498  81.375  81.107
28583DT     SC385788  61.760  81.192  81.049
28584DA     BB185789  60.898  81.246  80.710
28584DA     BB285790  60.993  81.570  80.854
28584DA     BB385791  61.105  81.684  80.713
28584DA     SC185792  61.381  81.575  80.808
28584DA     SC285793  61.582  81.660  80.927
28584DA     SC385794  61.704  81.460  80.823
28584DA     SC485795  61.439  81.445  80.732
28585DT     BB185796  61.025  81.856  80.636
28585DT     BB285797  61.233  82.089  80.817
28585DT     BB385798  61.376  82.169  80.691
28585DT     SC185799  61.515  81.947  80.694
28585DT     SC285800  61.698  81.979  80.801
28585DT     SC385801  61.632  81.727  80.608
28586DA     BB185802  61.187  82.502  80.865
28586DA     BB285803  61.549  82.555  80.892
28586DA     BB385804  61.631  82.609  80.703
28586DA     SC185805  61.692  82.316  80.617
28586DA     SC285806  61.892  82.173  80.581
28586DA     SC385807  61.736  82.025  80.441
28586DA     SC485808  61.579  82.238  80.533
28587DA     BB185809  61.753  82.877  80.857
28587DA     BB285810  62.089  82.758  80.768
28587DA     BB385811  62.132  82.804  80.565
28587DA     SC185812  62.020  82.535  80.455
28587DA     SC285813  62.110  82.327  80.350
28587DA     SC385814  61.871  82.292  80.264
28587DA     SC485815  61.866  82.532  80.409
28588DT     BB185816  62.286  82.953  80.497
28588DT     BB285817  62.530  82.711  80.386
28588DT     BB385818  62.543  82.715  80.179
28588DT     SC185819  62.315  82.588  80.154
28588DT     SC285820  62.351  82.390  80.080
28588DT     SC385821  62.064  82.540  80.089
28589DA     BB185822  62.941  82.772  80.301
28589DA     BB285823  62.942  82.502  80.053
28589DA     BB385824  62.922  82.582  79.856
28589DA     SC185825  62.611  82.566  79.855
28589DA     SC285826  62.434  82.434  79.741
28589DA     SC385827  62.277  82.626  79.806
28589DA     SC485828  62.530  82.696  79.904
28590DA     BB185829  63.199  82.415  79.794
28590DA     BB285830  63.006  82.217  79.553
28590DA     BB385831  62.981  82.325  79.371
28590DA     SC185832  62.714  82.459  79.457
28590DA     SC285833  62.473  82.445  79.396
28590DA     SC385834  62.453  82.677  79.505
28590DA     SC485835  62.723  82.603  79.528
28591DA     BB185836  63.109  82.051  79.249
28591DA     BB285837  62.794  82.008  79.066
28591DA     BB385838  62.788  82.137  78.896
28591DA     SC185839  62.653  82.371  79.050
28591DA     SC285840  62.431  82.486  79.054
28591DA     SC385841  62.557  82.680  79.165
28591DA     SC485842  62.749  82.482  79.117
28592DC     BB185843  62.786  82.045  78.731
28592DC     BB285844  62.438  82.104  78.653
28592DC     BB385845  62.422  82.256  78.513
28592DC     SC185846  62.478  82.439  78.694
28592DC     SC285847  62.302  82.556  78.733
28592DC     SC385848  62.604  82.632  78.820
28593DT     BB185849  62.346  82.063  78.352
28593DT     BB285850  62.076  82.301  78.347
28593DT     BB385851  62.119  82.454  78.215
28593DT     SC185852  62.292  82.560  78.382
28593DT     SC285853  62.214  82.746  78.457
28593DT     SC385854  62.521  82.645  78.481
28594DA     BB185855  61.735  82.307  78.130
28594DA     BB285856  61.716  82.673  78.138
28594DA     BB385857  61.813  82.756  77.966
28594DA     SC185858  62.091  82.779  78.104
28594DA     SC285859  62.242  82.959  78.187
28594DA     SC385860  62.428  82.783  78.173
28594DA     SC485861  62.193  82.655  78.088
28595DA     BB185862  61.524  82.912  77.922
28595DA     BB285863  61.708  83.228  77.944
28595DA     BB385864  61.816  83.264  77.763
28595DA     SC185865  62.074  83.120  77.859
28595DA     SC285866  62.307  83.183  77.923
28595DA     SC385867  62.364  82.937  77.877
28595DA     SC485868  62.090  82.964  77.823
28596DT     BB185869  61.769  83.427  77.613
28596DT     BB285870  62.050  83.640  77.690
28596DT     BB385871  62.187  83.636  77.534
28596DT     SC185872  62.270  83.396  77.602
28596DT     SC285873  62.470  83.410  77.679
28596DT     SC385874  62.319  83.138  77.588
28597DA     BB185875  62.118  84.054  77.550
28597DA     BB285876  62.482  84.008  77.549
28597DA     BB385877  62.552  83.971  77.351
28597DA     SC185878  62.525  83.662  77.373
28597DA     SC285879  62.676  83.464  77.385
28597DA     SC385880  62.471  83.329  77.309
28597DA     SC485881  62.387  83.596  77.324
28598DA     BB185882  62.761  84.233  77.372
28598DA     BB285883  63.040  83.996  77.346
28598DA     BB385884  63.080  83.952  77.141
28598DA     SC185885  62.888  83.708  77.131
28598DA     SC285886  62.905  83.460  77.113
28598DA     SC385887  62.661  83.469  77.035
28598DA     SC485888  62.737  83.734  77.083
28599DA     BB185889  63.383  84.049  77.217
28599DA     BB285890  63.490  83.705  77.150
28599DA     BB385891  63.512  83.673  76.940
28599DA     SC185892  63.219  83.577  76.899
28599DA     SC285893  63.100  83.365  76.845
28599DA     SC385894  62.905  83.516  76.776
28599DA     SC485895  63.109  83.688  76.860
28600DA     BB185896  63.789  83.579  77.072
28600DA     BB285897  63.705  83.245  76.945
28600DA     BB385898  63.730  83.238  76.733
28600DA     SC185899  63.437  83.323  76.672
28600DA     SC285900  63.230  83.218  76.578
28600DA     SC385901  63.153  83.459  76.534
28600DA     SC485902  63.407  83.479  76.652
28601DA     BB185903  63.882  82.990  76.874
28601DA     BB285904  63.660  82.779  76.672
28601DA     BB385905  63.710  82.796  76.465
28601DA     SC185906  63.513  83.031  76.413
28601DA     SC285907  63.300  83.069  76.290
28601DA     SC385908  63.363  83.318  76.299
28601DA     SC485909  63.571  83.181  76.427
28602DT     BB185910  63.755  82.639  76.428
28602DT     BB285911  63.467  82.555  76.227
28602DT     BB385912  63.505  82.597  76.028
28602DT     SC185913  63.478  82.855  76.070
28602DT     SC285914  63.298  82.925  75.975
28602DT     SC385915  63.538  83.111  76.088
28603DA     BB185916  63.337  82.216  76.093
28603DA     BB285917  63.161  82.379  75.815
28603DA     BB385918  63.290  82.398  75.646
28603DA     SC185919  63.395  82.679  75.729
28603DA     SC285920  63.374  82.915  75.648
28603DA     SC385921  63.588  82.958  75.784
28603DA     SC485922  63.529  82.686  75.818
28604DT     BB185923  63.229  82.298  75.509
28604DT     BB285924  63.123  82.568  75.293
28604DT     BB385925  63.271  82.609  75.155
28604DT     SC185926  63.418  82.729  75.336
28604DT     SC285927  63.424  82.940  75.295
28604DT     SC385928  63.621  82.780  75.496
28605DT     BB185929  63.112  82.499  74.970
28605DT     BB285930  63.190  82.826  74.839
28605DT     BB385931  63.372  82.821  74.739
28605DT     SC185932  63.504  82.812  74.966
28605DT     SC285933  63.609  82.997  74.995
28605DT     SC385934  63.661  82.722  75.158
28606DA     BB185935  63.104  82.989  74.461
28606DA     BB285936  63.408  83.195  74.459
28606DA     BB385937  63.566  83.093  74.358
28606DA     SC185938  63.675  82.956  74.615
28606DA     SC285939  63.876  82.972  74.762
28606DA     SC385940  63.812  82.737  74.842
28606DA     SC485941  63.619  82.810  74.651
28607DT     BB185942  63.652  83.153  74.161
28607DT     BB285943  63.969  83.276  74.283
28607DT     BB385944  64.120  83.145  74.229
28607DT     SC185945  64.047  82.972  74.412
28607DT     SC285946  64.196  82.965  74.567
28607DT     SC385947  63.958  82.749  74.520
28608DG     BB185948  64.253  83.481  74.026
28608DG     BB285949  64.521  83.343  74.226
28608DG     BB385950  64.611  83.196  74.127
28608DG     SC185951  64.427  82.977  74.236
28608DG     SC285952  64.507  82.756  74.420
28608DG     SC385953  64.232  82.716  74.321
28608DG     SC485954  64.291  82.944  74.158
28609DA     BB185955  64.949  83.326  74.139
28609DA     BB285956  65.065  83.035  74.330
28609DA     BB385957  65.114  82.875  74.198
28609DA     SC185958  64.830  82.750  74.203
28609DA     SC285959  64.720  82.545  74.293
28609DA     SC385960  64.535  82.594  74.122
28609DA     SC485961  64.726  82.796  74.090
28610DA     BB185962  65.434  82.853  74.316
28610DA     BB285963  65.353  82.517  74.440
28610DA     BB385964  65.381  82.373  74.285
28610DA     SC185965  65.088  82.391  74.182
28610DA     SC285966  64.884  82.248  74.179
28610DA     SC385967  64.806  82.400  73.987
28610DA     SC485968  65.058  82.496  74.063
28611DT     BB185969  65.551  82.193  74.268
28611DT     BB285970  65.326  81.927  74.360
28611DT     BB385971  65.303  81.796  74.202
28611DT     SC185972  65.149  81.965  74.074
28611DT     SC285973  64.948  81.890  74.069
28611DT     SC385974  65.064  82.130  73.886
28612DG     BB185975  65.445  81.576  74.512
28612DG     BB285976  65.136  81.437  74.384
28612DG     BB385977  65.173  81.327  74.222
28612DG     SC185978  65.141  81.560  74.027
28612DG     SC285979  64.925  81.590  73.823
28612DG     SC385980  65.133  81.797  73.786
28612DG     SC485981  65.269  81.650  73.992
28613DA     BB185982  64.987  81.102  74.397
28613DA     BB285983  64.746  81.091  74.121
28613DA     BB385984  64.825  80.980  73.958
28613DA     SC185985  64.953  81.227  73.820
28613DA     SC285986  64.916  81.364  73.614
28613DA     SC385987  65.159  81.440  73.646
28613DA     SC485988  65.106  81.262  73.856
28614DA     BB185989  64.530  80.859  74.019
28614DA     BB285990  64.450  80.943  73.671
28614DA     BB385991  64.557  80.816  73.537
28614DA     SC185992  64.803  81.005  73.515
28614DA     SC285993  64.907  81.152  73.343
28614DA     SC385994  65.119  81.136  73.486
28614DA     SC485995  64.925  80.981  73.617
28615DT     BB185996  64.445  80.702  73.437
28615DT     BB285997  64.486  80.858  73.115
28615DT     BB385998  64.622  80.751  73.001
28615DT     SC185999  64.824  80.843  73.142
28615DT     SC286000  64.940  80.978  73.020
28615DT     SC386001  65.033  80.848  73.302
28616DA     BB186002  64.284  80.780  72.753
28616DA     BB286003  64.577  80.858  72.546
28616DA     BB386004  64.685  80.680  72.500
28616DA     SC186005  64.871  80.698  72.748
28616DA     SC286006  65.111  80.744  72.796
28616DA     SC386007  65.067  80.628  73.021
28616DA     SC486008  64.824  80.622  72.882
28617DA     BB186009  64.661  80.732  72.163
28617DA     BB286010  65.027  80.740  72.143
28617DA     BB386011  65.105  80.542  72.133
28617DA     SC186012  65.134  80.512  72.442
28617DA     SC286013  65.318  80.498  72.609
28617DA     SC386014  65.143  80.392  72.763
28617DA     SC486015  65.011  80.447  72.522
28618DA     BB186016  65.276  80.579  71.832
28618DA     BB286017  65.592  80.518  72.008
28618DA     BB386018  65.633  80.308  72.016
28618DA     SC186019  65.487  80.266  72.288
28618DA     SC286020  65.548  80.214  72.524
28618DA     SC386021  65.304  80.140  72.549
28618DA     SC486022  65.332  80.224  72.283
28619DA     BB186023  65.938  80.326  71.857
28619DA     BB286024  66.098  80.215  72.168
28619DA     BB386025  66.108  80.002  72.174
28619DA     SC186026  65.833  79.970  72.318
28619DA     SC286027  65.750  79.900  72.542
28619DA     SC386028  65.526  79.860  72.423
28619DA     SC486029  65.703  79.950  72.226
28620DG     BB186030  66.425  80.012  72.180
28620DG     BB286031  66.380  79.889  72.517
28620DG     BB386032  66.381  79.690  72.517
28620DG     SC186033  66.079  79.663  72.475
28620DG     SC286034  65.884  79.553  72.672
28620DG     SC386035  65.755  79.597  72.409
28620DG     SC486036  66.022  79.660  72.325
28621DC     BB186037  66.534  79.591  72.632
28621DC     BB286038  66.343  79.492  72.921
28621DC     BB386039  66.302  79.289  72.913
28621DC     SC186040  66.120  79.325  72.728
28621DC     SC286041  65.925  79.286  72.810
28621DC     SC386042  65.997  79.311  72.495
28622DC     BB186043  66.465  79.290  73.116
28622DC     BB286044  66.153  79.159  73.240
28622DC     BB386045  66.136  78.958  73.190
28622DC     SC186046  66.083  79.017  72.940
28622DC     SC286047  65.878  78.970  72.897
28622DC     SC386048  66.108  79.031  72.678
28623DA     BB186049  66.044  79.056  73.590
28623DA     BB286050  65.777  78.846  73.453
28623DA     BB386051  65.848  78.649  73.417
28623DA     SC186052  65.935  78.708  73.124
28623DA     SC286053  65.862  78.646  72.894
28623DA     SC386054  66.098  78.717  72.822
28623DA     SC486055  66.086  78.756  73.099
28624DT     BB186056  65.752  78.559  73.519
28624DT     BB286057  65.551  78.400  73.266
28624DT     BB386058  65.638  78.221  73.208
28624DT     SC186059  65.822  78.347  73.070
28624DT     SC286060  65.790  78.314  72.860
28624DT     SC386061  66.060  78.433  72.994
28625DT     BB186062  65.425  78.138  73.326
28625DT     BB286063  65.415  77.998  72.994
28625DT     BB386064  65.544  77.837  72.981
28625DT     SC186065  65.753  77.996  72.975
28625DT     SC286066  65.842  77.990  72.779
28625DT     SC386067  65.979  78.112  73.046
28626DT     BB186068  65.321  77.704  72.964
28626DT     BB286069  65.512  77.608  72.673
28626DT     BB386070  65.654  77.467  72.725
28626DT     SC186071  65.804  77.648  72.840
28626DT     SC286072  65.983  77.678  72.724
28626DT     SC386073  65.935  77.780  73.028
28627DA     BB186074  65.442  77.317  72.393
28627DA     BB286075  65.799  77.260  72.334
28627DA     BB386076  65.873  77.107  72.464
28627DA     SC186077  65.954  77.305  72.690
28627DA     SC286078  66.164  77.392  72.793
28627DA     SC386079  66.016  77.454  72.993
28627DA     SC486080  65.845  77.335  72.805
28628DG     BB186081  65.949  76.933  72.209
28628DG     BB286082  66.286  76.961  72.337
28628DG     BB386083  66.317  76.823  72.477
28628DG     SC186084  66.222  77.000  72.708
28628DG     SC286085  66.393  77.105  72.929
28628DG     SC386086  66.107  77.159  72.982
28628DG     SC486087  66.067  77.000  72.747
28629DA     BB186088  66.611  76.667  72.330
28629DA     BB286089  66.814  76.743  72.626
28629DA     BB386090  66.782  76.597  72.778
28629DA     SC186091  66.548  76.752  72.912
28629DA     SC286092  66.507  76.876  73.125
28629DA     SC386093  66.258  76.839  73.074
28629DA     SC486094  66.398  76.718  72.864
28630DA     BB186095  67.114  76.483  72.817
28630DA     BB286096  67.111  76.606  73.162
28630DA     BB386097  67.034  76.457  73.293
28630DA     SC186098  66.739  76.552  73.269
28630DA     SC286099  66.568  76.663  73.413
28630DA     SC386100  66.396  76.569  73.247
28630DA     SC486101  66.647  76.484  73.156
28631DG     BB186102  67.302  76.374  73.501
28631DG     BB286103  67.103  76.525  73.763
28631DG     BB386104  67.010  76.383  73.867
28631DG     SC186105  66.761  76.382  73.689
28631DG     SC286106  66.487  76.470  73.770
28631DG     SC386107  66.482  76.341  73.504
28631DG     SC486108  66.757  76.286  73.561
28632DG     BB186109  67.144  76.425  74.190
28632DG     BB286110  66.814  76.536  74.290
28632DG     BB386111  66.713  76.385  74.371
28632DG     SC186112  66.593  76.292  74.105
28632DG     SC286113  66.304  76.302  74.030
28632DG     SC386114  66.460  76.150  73.829
28632DG     SC486115  66.675  76.187  74.016
28633DA     BB186116  66.652  76.574  74.656
28633DA     BB286117  66.293  76.570  74.583
28633DA     BB386118  66.204  76.390  74.656
28633DA     SC186119  66.247  76.232  74.391
28633DA     SC286120  66.108  76.140  74.206
28633DA     SC386121  66.309  75.990  74.156
28633DA     SC486122  66.383  76.147  74.377
28634DC     BB186123  66.071  76.413  74.800
28634DC     BB286124  65.782  76.367  74.589
28634DC     BB386125  65.698  76.181  74.624
28634DC     SC186126  65.891  76.060  74.493
28634DC     SC286127  65.812  75.979  74.310
28634DC     SC386128  66.098  75.904  74.444
28635DA     BB186129  65.425  76.497  74.622
28635DA     BB286130  65.300  76.233  74.401
28635DA     BB386131  65.238  76.064  74.515
28635DA     SC186132  65.516  75.925  74.505
28635DA     SC286133  65.618  75.724  74.398
28635DA     SC386134  65.800  75.745  74.578
28635DA     SC486135  65.618  75.954  74.625
28636DC     BB186136  65.074  76.055  74.478
28636DC     BB286137  65.091  75.761  74.269
28636DC     BB386138  65.057  75.591  74.383
28636DC     SC186139  65.296  75.605  74.490
28636DC     SC286140  65.417  75.443  74.417
28636DC     SC386141  65.486  75.631  74.671
28637DC     BB186142  64.848  75.597  74.232
28637DC     BB286143  65.001  75.275  74.177
28637DC     BB386144  64.957  75.148  74.334
28637DC     SC186145  65.127  75.271  74.492
28637DC     SC286146  65.295  75.142  74.531
28637DC     SC386147  65.221  75.412  74.694
28638DA     BB186148  64.890  74.966  73.960
28638DA     BB286149  65.067  74.728  74.176
28638DA     BB386150  64.940  74.662  74.334
28638DA     SC186151  65.028  74.887  74.531
28638DA     SC286152  65.159  74.907  74.742
28638DA     SC386153  65.038  75.131  74.772
28638DA     SC486154  64.941  75.023  74.532
28639DT     BB186155  64.893  74.478  74.327
28639DT     BB286156  65.082  74.364  74.613
28639DT     BB386157  64.957  74.346  74.777
28639DT     SC186158  64.948  74.606  74.809
28639DT     SC286159  65.054  74.660  74.988
28639DT     SC386160  64.851  74.851  74.823
28640DT     BB186161  64.954  74.069  74.765
28640DT     BB286162  65.048  74.135  75.106
28640DT     BB386163  64.879  74.154  75.224
28640DT     SC186164  64.827  74.392  75.127
28640DT     SC286165  64.860  74.540  75.279
28640DT     SC386166  64.702  74.586  75.000
28641DA     BB186167  65.074  73.845  75.439
28641DA     BB286168  64.965  74.092  75.688
28641DA     BB386169  64.757  74.069  75.729
28641DA     SC186170  64.667  74.269  75.509
28641DA     SC286171  64.566  74.497  75.497
28641DA     SC386172  64.499  74.432  75.258
28641DA     SC486173  64.633  74.210  75.364
28642DT     BB186174  64.643  73.988  75.933
28642DT     BB286175  64.530  74.311  76.044
28642DT     BB386176  64.323  74.321  76.036
28642DT     SC186177  64.326  74.342  75.774
28642DT     SC286178  64.264  74.541  75.718
28642DT     SC386179  64.287  74.285  75.520
28643DT     BB186180  64.267  74.299  76.319
28643DT     BB286181  64.111  74.610  76.224
28643DT     BB386182  63.911  74.578  76.179
28643DT     SC186183  63.973  74.468  75.949
28643DT     SC286184  63.913  74.597  75.789
28643DT     SC386185  63.996  74.286  75.760
28644DA     BB186186  63.928  74.888  76.458
28644DA     BB286187  63.725  75.002  76.176
28644DA     BB386188  63.532  74.911  76.181
28644DA     SC186189  63.616  74.667  76.006
28644DA     SC286190  63.571  74.581  75.777
28644DA     SC386191  63.652  74.355  75.868
28644DA     SC486192  63.668  74.536  76.082
28645DA     BB186193  63.482  75.229  76.153
28645DA     BB286194  63.314  75.149  75.837
28645DA     BB386195  63.128  75.052  75.874
28645DA     SC186196  63.249  74.765  75.869
28645DA     SC286197  63.241  74.564  75.721
28645DA     SC386198  63.320  74.434  75.928
28645DA     SC486199  63.297  74.702  76.009
28646DT     BB186200  63.016  75.159  75.808
28646DT     BB286201  62.922  74.960  75.521
28646DT     BB386202  62.758  74.843  75.567
28646DT     SC186203  62.905  74.679  75.711
28646DT     SC286204  62.919  74.490  75.611
28646DT     SC386205  62.997  74.548  75.920
28647DC     BB186206  62.654  75.006  75.396
28647DC     BB286207  62.580  74.675  75.271
28647DC     BB386208  62.422  74.593  75.377
28647DC     SC186209  62.575  74.548  75.586
28647DC     SC286210  62.604  74.336  75.608
28647DC     SC386211  62.671  74.562  75.831
28648DC     BB186212  62.269  74.630  75.160
28648DC     BB286213  62.213  74.284  75.248
28648DC     BB386214  62.068  74.271  75.396
28648DC     SC186215  62.236  74.356  75.579
28648DC     SC286216  62.282  74.194  75.713
28648DC     SC386217  62.344  74.508  75.765
28649DA     BB186218  61.847  74.025  75.119
28649DA     BB286219  61.818  73.856  75.443
28649DA     BB386220  61.668  73.950  75.562
28649DA     SC186221  61.865  74.149  75.697
28649DA     SC286222  61.964  74.186  75.923
28649DA     SC386223  62.011  74.424  75.841
28649DA     SC486224  61.884  74.293  75.628
28650DT     BB186225  61.361  73.916  75.673
28650DT     BB286226  61.458  73.849  76.014
28650DT     BB386227  61.378  73.993  76.139
28650DT     SC186228  61.553  74.171  76.058
28650DT     SC286229  61.691  74.214  76.218
28650DT     SC386230  61.653  74.390  75.949
28651DT     BB186231  61.088  73.907  76.311
28651DT     BB286232  61.308  74.004  76.580
28651DT     BB386233  61.255  74.190  76.652
28651DT     SC186234  61.357  74.310  76.442
28651DT     SC286235  61.533  74.419  76.501
28651DT     SC386236  61.373  74.452  76.220
28652DT     BB186237  61.113  74.136  76.918
28652DT     BB286238  61.394  74.342  77.011
28652DT     BB386239  61.334  74.539  77.031
28652DT     SC186240  61.318  74.569  76.771
28652DT     SC286241  61.475  74.701  76.705
28652DT     SC386242  61.215  74.613  76.532
28653DT     BB186243  61.358  74.534  77.308
28653DT     BB286244  61.593  74.786  77.199
28653DT     BB386245  61.500  74.970  77.193
28653DT     SC186246  61.371  74.907  76.973
28653DT     SC286247  61.449  75.022  76.809
28653DT     SC386248  61.171  74.854  76.809
28654DC     BB186249  61.655  75.030  77.399
28654DC     BB286250  61.745  75.264  77.141
28654DC     BB386251  61.614  75.424  77.141
28654DC     SC186252  61.425  75.279  77.030
28654DC     SC286253  61.392  75.347  76.829
28654DC     SC386254  61.196  75.152  76.998
28655DT     BB186255  61.826  75.552  77.225
28655DT     BB286256  61.727  75.715  76.918
28655DT     BB386257  61.572  75.847  76.955
28655DT     SC186258  61.400  75.649  76.978
28655DT     SC286259  61.265  75.652  76.810
28655DT     SC386260  61.224  75.485  77.085
28656DG     BB186261  61.886  76.035  76.776
28656DG     BB286262  61.576  76.089  76.598
28656DG     BB386263  61.462  76.219  76.697
28656DG     SC186264  61.321  76.005  76.865
28656DG     SC286265  61.031  75.933  76.848
28656DG     SC386266  61.160  75.800  77.078
28656DG     SC486267  61.386  75.960  77.004
28657DA     BB186268  61.449  76.368  76.388
28657DA     BB286269  61.084  76.334  76.392
28657DA     BB386270  60.999  76.473  76.531
28657DA     SC186271  61.008  76.276  76.771
28657DA     SC286272  60.846  76.148  76.911
28657DA     SC386273  61.037  76.134  77.083
28657DA     SC486274  61.138  76.280  76.865
28658DT     BB186275  60.892  76.598  76.446
28658DT     BB286276  60.575  76.465  76.552
28658DT     BB386277  60.503  76.573  76.714
28658DT     SC186278  60.676  76.459  76.876
28658DT     SC286279  60.571  76.328  77.011
28658DT     SC386280  60.877  76.431  77.044
28659DT     BB186281  60.325  76.654  76.541
28659DT     BB286282  60.138  76.500  76.808
28659DT     BB386283  60.117  76.633  76.965
28659DT     SC186284  60.367  76.599  77.037
28659DT     SC286285  60.374  76.493  77.224
28659DT     SC386286  60.621  76.652  77.087
28660DT     BB186287  59.873  76.619  76.885
28660DT     BB286288  59.869  76.519  77.232
28660DT     BB386289  59.881  76.686  77.354
28660DT     SC186290  60.137  76.717  77.300
28660DT     SC286291  60.252  76.671  77.476
28660DT     SC386292  60.360  76.824  77.211
28661DA     BB186293  59.574  76.423  77.471
28661DA     BB286294  59.765  76.521  77.768
28661DA     BB386295  59.733  76.728  77.812
28661DA     SC186296  59.972  76.827  77.640
28661DA     SC286297  60.196  76.929  77.678
28661DA     SC386298  60.179  77.006  77.434
28661DA     SC486299  59.942  76.867  77.487
28662DT     BB186300  59.646  76.752  77.973
28662DT     BB286301  59.924  76.885  78.160
28662DT     BB386302  59.912  77.092  78.166
28662DT     SC186303  59.991  77.111  77.916
28662DT     SC286304  60.188  77.195  77.909
28662DT     SC386305  59.986  77.165  77.658
28663DT     BB186306  59.844  77.075  78.425
28663DT     BB286307  60.131  77.294  78.421
28663DT     BB386308  60.071  77.488  78.381
28663DT     SC186309  60.032  77.433  78.128
28663DT     SC286310  60.180  77.532  78.008
28663DT     SC386311  59.907  77.398  77.898
28664DT     BB186312  60.115  77.565  78.640
28664DT     BB286313  60.312  77.797  78.447
28664DT     BB386314  60.196  77.959  78.391
28664DT     SC186315  60.070  77.817  78.210
28664DT     SC286316  60.128  77.885  78.014
28664DT     SC386317  59.875  77.694  78.082
28665DC     BB186318  60.320  78.126  78.571
28665DC     BB286319  60.360  78.294  78.254
28665DC     BB386320  60.196  78.416  78.218
28665DC     SC186321  60.045  78.209  78.160
28665DC     SC286322  60.000  78.210  77.950
28665DC     SC386323  59.850  78.032  78.176
28666DT     BB186324  60.340  78.645  78.267
28666DT     BB286325  60.208  78.694  77.935
28666DT     BB386326  60.020  78.780  77.945
28666DT     SC186327  59.912  78.554  78.023
28666DT     SC286328  59.786  78.477  77.866
28666DT     SC386329  59.787  78.378  78.174
28667DT     BB186330  60.109  79.029  77.859
28667DT     BB286331  59.848  78.944  77.625
28667DT     BB386332  59.665  79.012  77.695
28667DT     SC186333  59.654  78.819  77.873
28667DT     SC286334  59.498  78.681  77.819
28667DT     SC386335  59.646  78.698  78.107
28668DT     BB186336  59.649  79.222  77.513
28668DT     BB286337  59.345  79.035  77.457
28668DT     BB386338  59.195  79.106  77.581
28668DT     SC186339  59.302  78.989  77.790
28668DT     SC286340  59.177  78.827  77.854
28668DT     SC386341  59.417  78.960  78.026
28669DA     BB186342  59.023  79.126  77.197
28669DA     BB286343  58.785  78.952  77.415
28669DA     BB386344  58.685  79.091  77.542
28669DA     SC186345  58.893  79.068  77.772
28669DA     SC286346  58.903  78.976  78.003
28669DA     SC386347  59.105  79.132  78.035
28669DA     SC486348  59.016  79.173  77.772
28670DC     BB186349  58.470  79.137  77.527
28670DC     BB286350  58.372  78.947  77.817
28670DC     BB386351  58.316  79.076  77.970
28670DC     SC186352  58.565  79.139  78.019
28670DC     SC286353  58.624  79.057  78.209
28670DC     SC386354  58.785  79.284  78.043
28671DT     BB186355  58.050  79.012  77.940
28671DT     BB286356  58.126  78.925  78.282
28671DT     BB386357  58.097  79.089  78.404
28671DT     SC186358  58.317  79.203  78.318
28671DT     SC286359  58.464  79.204  78.476
28671DT     SC386360  58.478  79.378  78.203
28672DC     BB186361  57.882  78.964  78.504
28672DC     BB286362  58.099  79.021  78.788
28672DC     BB386363  58.066  79.210  78.864
28672DC     SC186364  58.195  79.322  78.665
28672DC     SC286365  58.380  79.405  78.736
28672DC     SC386366  58.241  79.468  78.450
28673DA     BB186367  58.059  78.916  79.164
28673DA     BB286368  58.283  79.186  79.270
28673DA     BB386369  58.171  79.362  79.315
28673DA     SC186370  58.188  79.477  79.027
28673DA     SC286371  58.300  79.667  78.910
28673DA     SC386372  58.123  79.632  78.727
28673DA     SC486373  58.069  79.441  78.925
28674DT     BB186374  58.189  79.403  79.491
28674DT     BB286375  58.405  79.689  79.449
28674DT     BB386376  58.293  79.863  79.455
28674DT     SC186377  58.199  79.820  79.213
28674DT     SC286378  58.282  79.965  79.078
28674DT     SC386379  58.028  79.773  79.018
28675DA     BB186380  58.622  79.891  79.715
28675DA     BB286381  58.609  80.195  79.511
28675DA     BB386382  58.442  80.316  79.568
28675DA     SC186383  58.247  80.185  79.364
28675DA     SC286384  58.129  80.250  79.154
28675DA     SC386385  57.972  80.054  79.205
28675DA     SC486386  58.160  80.060  79.414
28676DA     BB186387  58.689  80.531  79.587
28676DA     BB286388  58.507  80.726  79.335
28676DA     BB386389  58.334  80.816  79.422
28676DA     SC186390  58.147  80.576  79.354
28676DA     SC286391  57.957  80.529  79.200
28676DA     SC386392  57.903  80.335  79.359
28676DA     SC486393  58.129  80.462  79.465
28677DC     BB186394  58.331  81.012  79.434
28677DC     BB286395  58.091  81.070  79.170
28677DC     BB386396  57.906  81.114  79.252
28677DC     SC186397  57.867  80.863  79.318
28677DC     SC286398  57.711  80.780  79.195
28677DC     SC386399  57.829  80.648  79.467
28678DA     BB186400  57.995  81.417  78.975
28678DA     BB286401  57.656  81.297  78.907
28678DA     BB386402  57.521  81.365  79.058
28678DA     SC186403  57.560  81.114  79.239
28678DA     SC286404  57.427  80.916  79.311
28678DA     SC386405  57.595  80.899  79.504
28678DA     SC486406  57.674  81.121  79.352
28679DC     BB186407  57.379  81.494  79.006
28679DC     BB286408  57.103  81.261  79.016
28679DC     BB386409  56.991  81.293  79.187
28679DC     SC186410  57.174  81.179  79.337
28679DC     SC286411  57.099  80.992  79.411
28679DC     SC386412  57.360  81.149  79.522
28680DG     BB186413  56.745  81.330  78.864
28680DG     BB286414  56.616  81.092  79.104
28680DG     BB386415  56.536  81.189  79.258
28680DG     SC186416  56.796  81.198  79.419
28680DG     SC286417  56.849  81.055  79.676
28680DG     SC386418  57.068  81.244  79.613
28680DG     SC486419  56.896  81.321  79.397
28681DA     BB186420  56.248  81.000  79.209
28681DA     BB286421  56.276  80.864  79.548
28681DA     BB386422  56.210  81.007  79.692
28681DA     SC186423  56.491  81.134  79.732
28681DA     SC286424  56.665  81.144  79.911
28681DA     SC386425  56.753  81.350  79.785
28681DA     SC486426  56.530  81.260  79.640
28682DA     BB186427  56.013  80.761  79.788
28682DA     BB286428  56.180  80.778  80.114
28682DA     BB386429  56.107  80.945  80.226
28682DA     SC186430  56.323  81.141  80.119
28682DA     SC286431  56.523  81.262  80.207
28682DA     SC386432  56.493  81.418  80.005
28682DA     SC486433  56.287  81.228  79.988
28683DA     BB186434  56.044  80.718  80.457
28683DA     BB286435  56.279  80.897  80.674
28683DA     BB386436  56.186  81.072  80.756
28683DA     SC186437  56.278  81.258  80.524
28683DA     SC286438  56.437  81.447  80.490
28683DA     SC386439  56.297  81.501  80.282
28683DA     SC486440  56.177  81.276  80.399
28684DA     BB186441  56.278  80.941  81.043
28684DA     BB286442  56.486  81.239  81.093
28684DA     BB386443  56.366  81.404  81.155
28684DA     SC186444  56.312  81.505  80.866
28684DA     SC286445  56.376  81.699  80.723
28684DA     SC386446  56.171  81.637  80.582
28684DA     SC486447  56.180  81.451  80.792
28685DA     BB186448  56.588  81.405  81.394
28685DA     BB286449  56.682  81.740  81.278
28685DA     BB386450  56.537  81.883  81.341
28685DA     SC186451  56.364  81.856  81.083
28685DA     SC286452  56.307  81.993  80.883
28685DA     SC386453  56.105  81.838  80.859
28685DA     SC486454  56.243  81.750  81.086
28686DT     BB186455  56.604  82.013  81.464
28686DT     BB286456  56.621  82.288  81.231
28686DT     BB386457  56.462  82.416  81.262
28686DT     SC186458  56.295  82.249  81.147
28686DT     SC286459  56.230  82.330  80.959
28686DT     SC386460  56.094  82.082  81.116
28687DT     BB186461  56.651  82.575  81.346
28687DT     BB286462  56.489  82.753  81.078
28687DT     BB386463  56.316  82.844  81.148
28687DT     SC186464  56.189  82.614  81.155
28687DT     SC286465  56.038  82.611  81.002
28687DT     SC386466  56.061  82.405  81.250
28688DT     BB186467  56.459  83.056  81.103
28688DT     BB286468  56.158  83.101  80.910
28688DT     BB386469  56.004  83.166  81.033
28688DT     SC186470  55.976  82.926  81.138
28688DT     SC286471  55.789  82.842  81.073
28688DT     SC386472  55.974  82.732  81.316
28689DG     BB186473  56.057  83.418  80.717
28689DG     BB286474  55.709  83.327  80.760
28689DG     BB386475  55.634  83.421  80.919
28689DG     SC186476  55.709  83.200  81.117
28689DG     SC286477  55.518  83.026  81.266
28689DG     SC386478  55.795  82.987  81.364
28689DG     SC486479  55.854  83.204  81.186
28690DC     BB186480  55.472  83.568  80.899
28690DC     BB286481  55.190  83.399  81.047
28690DC     BB386482  55.159  83.469  81.240
28690DC     SC186483  55.366  83.334  81.330
28690DC     SC286484  55.298  83.174  81.456
28690DC     SC386485  55.602  83.284  81.436
28691DG     BB186486  54.797  83.586  81.078
28691DG     BB286487  54.741  83.414  81.391
28691DG     BB386488  54.762  83.540  81.543
28691DG     SC186489  55.062  83.487  81.576
28691DG     SC286490  55.192  83.354  81.810
28691DG     SC386491  55.395  83.468  81.627
28691DG     SC486492  55.166  83.575  81.492
28692DA     BB186493  54.437  83.499  81.706
28692DA     BB286494  54.593  83.379  82.015
28692DA     BB386495  54.649  83.544  82.139
28692DA     SC186496  54.935  83.568  82.018
28692DA     SC286497  55.170  83.528  82.091
28692DA     SC386498  55.235  83.684  81.899
28692DA     SC486499  54.955  83.669  81.895
28693DA     BB186500  54.464  83.437  82.406
28693DA     BB286501  54.775  83.400  82.597
28693DA     BB386502  54.830  83.585  82.687
28693DA     SC186503  55.003  83.679  82.446
28693DA     SC286504  55.244  83.716  82.396
28693DA     SC386505  55.161  83.864  82.204
28693DA     SC486506  54.931  83.768  82.333
28694DT     BB186507  54.831  83.637  82.918
28694DT     BB286508  55.190  83.618  82.956
28694DT     BB386509  55.267  83.806  82.997
28694DT     SC186510  55.235  83.882  82.749
28694DT     SC286511  55.428  83.905  82.656
28694DT     SC386512  55.147  84.017  82.540
28695DA     BB186513  55.412  83.563  83.306
28695DA     BB286514  55.699  83.742  83.164
28695DA     BB386515  55.702  83.944  83.233
28695DA     SC186516  55.531  84.053  82.996
28695DA     SC286517  55.565  84.197  82.796
28695DA     SC386518  55.310  84.227  82.800
28695DA     SC486519  55.372  84.060  83.016
28696DA     BB186520  56.005  83.860  83.321
28696DA     BB286521  56.125  84.118  83.090
28696DA     BB386522  56.102  84.312  83.176
28696DA     SC186523  55.817  84.357  83.061
28696DA     SC286524  55.709  84.501  82.888
28696DA     SC386525  55.490  84.450  83.012
28696DA     SC486526  55.692  84.314  83.152
28697DT     BB186527  56.269  84.413  83.217
28697DT     BB286528  56.244  84.647  82.944
28697DT     BB386529  56.185  84.832  83.015
28697DT     SC186530  55.938  84.749  83.048
28697DT     SC286531  55.810  84.845  82.904
28697DT     SC386532  55.712  84.683  83.167
28698DT     BB186533  56.434  84.926  82.969
28698DT     BB286534  56.219  85.143  82.777
28698DT     BB386535  56.151  85.299  82.896
28698DT     SC186536  55.984  85.140  83.023
28698DT     SC286537  55.783  85.192  82.969
28698DT     SC386538  55.871  85.005  83.218
28699DT     BB186539  56.312  85.470  82.760
28699DT     BB286540  55.982  85.610  82.725
28699DT     BB386541  55.940  85.734  82.886
28699DT     SC186542  55.904  85.528  83.045
28699DT     SC286543  55.695  85.514  83.096
28699DT     SC386544  55.939  85.360  83.245
28700DT     BB186545  55.962  85.944  82.719
28700DT     BB286546  55.631  85.972  82.860
28700DT     BB386547  55.639  86.074  83.040
28700DT     SC186548  55.740  85.864  83.162
28700DT     SC286549  55.595  85.783  83.298
28700DT     SC386550  55.911  85.712  83.294
28701DT     BB186551  55.519  86.278  82.917
28701DT     BB286552  55.303  86.198  83.193
28701DT     BB386553  55.369  86.293  83.365
28701DT     SC186554  55.568  86.124  83.391
28701DT     SC286555  55.534  85.998  83.562
28701DT     SC386556  55.815  86.031  83.404
28702DC     BB186557  55.155  86.452  83.345
28702DC     BB286558  55.129  86.301  83.672
28702DC     BB386559  55.241  86.409  83.808
28702DC     SC186560  55.465  86.310  83.713
28702DC     SC286561  55.552  86.177  83.857
28702DC     SC386562  55.702  86.299  83.598
28703DT     BB186563  55.010  86.490  83.912
28703DT     BB286564  55.185  86.332  84.185
28703DT     BB386565  55.316  86.466  84.272
28703DT     SC186566  55.483  86.446  84.072
28703DT     SC286567  55.661  86.343  84.137
28703DT     SC386568  55.629  86.513  83.862
28704DT     BB186569  55.149  86.464  84.479
28704DT     BB286570  55.469  86.366  84.615
28704DT     BB386571  55.583  86.534  84.655
28704DT     SC186572  55.633  86.572  84.400
28704DT     SC286573  55.840  86.531  84.361
28704DT     SC386574  55.637  86.685  84.162
28705DA     BB186575  55.577  86.279  84.989
28705DA     BB286576  55.924  86.378  84.926
28705DA     BB386577  55.952  86.584  84.974
28705DA     SC186578  55.884  86.686  84.688
28705DA     SC286579  56.003  86.790  84.496
28705DA     SC386580  55.771  86.867  84.419
28705DA     SC486581  55.731  86.726  84.658
28706DA     BB186582  56.194  86.441  85.144
28706DA     BB286583  56.424  86.652  84.952
28706DA     BB386584  56.408  86.855  85.014
28706DA     SC186585  56.188  86.927  84.807
28706DA     SC286586  56.167  87.065  84.600
28706DA     SC386587  55.915  87.058  84.645
28706DA     SC486588  56.035  86.913  84.853
28707DG     BB186589  56.711  86.825  85.086
28707DG     BB286590  56.752  87.083  84.836
28707DG     BB386591  56.712  87.261  84.916
28707DG     SC186592  56.414  87.252  84.847
28707DG     SC286593  56.273  87.429  84.652
28707DG     SC386594  56.079  87.267  84.805
28707DG     SC486595  56.312  87.186  84.951
28708DA     BB186596  57.024  87.390  84.808
28708DA     BB286597  56.855  87.651  84.613
28708DA     BB386598  56.788  87.807  84.742
28708DA     SC186599  56.508  87.680  84.792
28708DA     SC286600  56.271  87.727  84.732
28708DA     SC386601  56.212  87.576  84.931
28708DA     SC486602  56.492  87.584  84.920
28709DT     BB186603  56.869  88.029  84.757
28709DT     BB286604  56.589  88.187  84.594
28709DT     BB386605  56.482  88.300  84.731
28709DT     SC186606  56.378  88.085  84.839
28709DT     SC286607  56.168  88.076  84.793
28709DT     SC386608  56.320  87.900  85.018
28710DA     BB186609  56.565  88.606  84.449
28710DA     BB286610  56.204  88.617  84.514
28710DA     BB386611  56.165  88.719  84.697
28710DA     SC186612  56.176  88.461  84.871
28710DA     SC286613  56.017  88.318  85.000
28710DA     SC386614  56.225  88.233  85.123
28710DA     SC486615  56.317  88.421  84.936
28711DT     BB186616  56.058  88.924  84.723
28711DT     BB286617  55.743  88.783  84.830
28711DT     BB386618  55.708  88.831  85.028
28711DT     SC186619  55.886  88.656  85.110
28711DT     SC286620  55.786  88.493  85.208
28711DT     SC386621  56.103  88.557  85.222
28712DT     BB186622  55.510  89.005  84.957
28712DT     BB286623  55.347  88.761  85.166
28712DT     BB386624  55.360  88.817  85.364
28712DT     SC186625  55.614  88.750  85.375
28712DT     SC286626  55.636  88.576  85.500
28712DT     SC386627  55.875  88.771  85.402
28713DC     BB186628  55.101  88.855  85.341
28713DC     BB286629  55.141  88.606  85.599
28713DC     BB386630  55.184  88.698  85.780
28713DC     SC186631  55.430  88.749  85.704
28713DC     SC286632  55.566  88.627  85.818
28713DC     SC386633  55.646  88.884  85.638
28714DA     BB186634  54.880  88.406  85.801
28714DA     BB286635  55.124  88.344  86.068
28714DA     BB386636  55.116  88.500  86.213
28714DA     SC186637  55.332  88.675  86.073
28714DA     SC286638  55.567  88.747  86.114
28714DA     SC386639  55.517  88.936  85.948
28714DA     SC486640  55.281  88.786  85.968
28715DA     BB186641  55.096  88.216  86.375
28715DA     BB286642  55.398  88.327  86.550
28715DA     BB386643  55.355  88.494  86.675
28715DA     SC186644  55.419  88.706  86.456
28715DA     SC286645  55.593  88.878  86.410
28715DA     SC386646  55.420  88.983  86.253
28715DA     SC486647  55.297  88.757  86.364
28716DA     BB186648  55.505  88.285  86.879
28716DA     BB286649  55.751  88.552  86.931
28716DA     BB386650  55.664  88.712  87.042
28716DA     SC186651  55.567  88.867  86.791
28716DA     SC286652  55.624  89.079  86.671
28716DA     SC386653  55.390  89.059  86.568
28716DA     SC486654  55.418  88.838  86.738
28717DC     BB186655  55.736  88.744  87.222
28717DC     BB286656  55.915  89.048  87.147
28717DC     BB386657  55.807  89.212  87.215
28717DC     SC186658  55.635  89.190  87.018
28717DC     SC286659  55.661  89.356  86.883
28717DC     SC386660  55.407  89.154  86.890
28718DA     BB186661  56.191  89.255  87.380
28718DA     BB286662  56.099  89.575  87.227
28718DA     BB386663  55.954  89.675  87.347
28718DA     SC186664  55.710  89.549  87.201
28718DA     SC286665  55.528  89.623  87.047
28718DA     SC386666  55.405  89.411  87.123
28718DA     SC486667  55.649  89.413  87.261
28719DT     BB186668  56.002  89.853  87.442
28719DT     BB286669  55.817  90.070  87.221
28719DT     BB386670  55.645  90.137  87.315
28719DT     SC186671  55.528  89.904  87.285
28719DT     SC286672  55.369  89.922  87.142
28719DT     SC386673  55.414  89.675  87.346
28720DG     BB186674  55.862  90.464  87.203
28720DG     BB286675  55.524  90.478  87.076
28720DG     BB386676  55.399  90.532  87.222
28720DG     SC186677  55.345  90.245  87.314
28720DG     SC286678  55.085  90.100  87.292
28720DG     SC386679  55.278  89.945  87.454
28720DG     SC486680  55.441  90.179  87.424
28721DA     BB186681  55.287  90.776  87.005
28721DA     BB286682  54.950  90.632  87.016
28721DA     BB386683  54.852  90.686  87.198
28721DA     SC186684  54.951  90.436  87.355
28721DA     SC286685  54.853  90.228  87.450
28721DA     SC386686  55.063  90.220  87.596
28721DA     SC486687  55.088  90.450  87.438
28722DA     BB186688  54.633  90.781  86.976
28722DA     BB286689  54.404  90.541  87.132
28722DA     BB386690  54.334  90.616  87.319
28722DA     SC186691  54.563  90.486  87.484
28722DA     SC286692  54.588  90.302  87.651
28722DA     SC386693  54.807  90.419  87.716
28722DA     SC486694  54.694  90.575  87.511
28723DC     BB186695  54.147  90.650  87.321
28723DC     BB286696  54.054  90.367  87.524
28723DC     BB386697  54.019  90.428  87.719
28723DC     SC186698  54.276  90.455  87.764
28723DC     SC286699  54.341  90.302  87.901
28723DC     SC386700  54.508  90.567  87.820
28724DT     BB186701  53.766  90.376  87.665
28724DT     BB286702  53.846  90.172  87.951
28724DT     BB386703  53.829  90.284  88.124
28724DT     SC186704  54.054  90.410  88.074
28724DT     SC286705  54.204  90.348  88.215
28724DT     SC386706  54.222  90.606  88.020
28725DT     BB186707  53.619  90.132  88.169
28725DT     BB286708  53.831  90.088  88.458
28725DT     BB386709  53.802  90.245  88.591
28725DT     SC186710  53.939  90.409  88.439
28725DT     SC286711  54.125  90.458  88.535
28725DT     SC386712  53.994  90.615  88.283
28726DA     BB186713  53.775  89.878  88.794
28726DA     BB286714  53.990  90.102  88.989
28726DA     BB386715  53.874  90.258  89.077
28726DA     SC186716  53.911  90.452  88.837
28726DA     SC286717  54.029  90.666  88.789
28726DA     SC386718  53.865  90.690  88.593
28726DA     SC486719  53.799  90.450  88.722
28727DA     BB186720  54.026  90.148  89.349
28727DA     BB286721  54.158  90.487  89.391
28727DA     BB386722  54.004  90.619  89.456
28727DA     SC186723  53.919  90.701  89.168
28727DA     SC286724  53.931  90.903  89.022
28727DA     SC386725  53.743  90.792  88.887
28727DA     SC486726  53.802  90.616  89.098
28728DA     BB186727  54.205  90.697  89.712
28728DA     BB286728  54.194  91.045  89.598
28728DA     BB386729  54.009  91.136  89.654
28728DA     SC186730  53.863  91.058  89.390
28728DA     SC286731  53.775  91.173  89.188
28728DA     SC386732  53.631  90.963  89.156
28728DA     SC486733  53.782  90.920  89.389
28729DT     BB186734  53.969  91.306  89.817
28729DT     BB286735  53.902  91.575  89.586
28729DT     BB386736  53.702  91.629  89.597
28729DT     SC186737  53.629  91.414  89.465
28729DT     SC286738  53.558  91.471  89.270
28729DT     SC386739  53.515  91.183  89.412
28730DT     BB186740  53.708  91.883  89.759
28730DT     BB286741  53.532  91.983  89.460
28730DT     BB386742  53.328  91.972  89.492
28730DT     SC186743  53.331  91.710  89.477
28730DT     SC286744  53.233  91.648  89.296
28730DT     SC386745  53.307  91.457  89.547
28731DT     BB186746  53.248  92.261  89.529
28731DT     BB286747  53.040  92.153  89.254
28731DT     BB386748  52.852  92.100  89.324
28731DT     SC186749  52.945  91.876  89.424
28731DT     SC286750  52.868  91.710  89.310
28731DT     SC386751  53.011  91.691  89.600
28732DT     BB186752  52.710  92.330  89.228
28732DT     BB286753  52.545  92.051  89.069
28732DT     BB386754  52.383  91.990  89.183
28732DT     SC186755  52.540  91.877  89.360
28732DT     SC286756  52.518  91.663  89.349
28732DT     SC386757  52.661  91.827  89.589
28733DG     BB186758  52.239  92.087  88.816
28733DG     BB286759  52.147  91.750  88.909
28733DG     BB386760  51.992  91.754  89.033
28733DG     SC186761  52.162  91.770  89.286
28733DG     SC286762  52.184  91.559  89.496
28733DG     SC386763  52.316  91.809  89.584
28733DG     SC486764  52.205  91.914  89.342
28734DA     BB186765  51.875  91.526  88.806
28734DA     BB286766  51.849  91.278  89.075
28734DA     BB386767  51.683  91.323  89.201
28734DA     SC186768  51.848  91.499  89.397
28734DA     SC286769  51.930  91.487  89.632
28734DA     SC386770  51.953  91.742  89.616
28734DA     SC486771  51.853  91.657  89.367
28735DA     BB186772  51.646  91.010  89.117
28735DA     BB286773  51.664  90.938  89.476
28735DA     BB386774  51.487  91.006  89.574
28735DA     SC186775  51.602  91.288  89.638
28735DA     SC286776  51.675  91.417  89.838
28735DA     SC386777  51.642  91.625  89.692
28735DA     SC486778  51.574  91.405  89.531
28736DA     BB186779  51.517  90.695  89.669
28736DA     BB286780  51.531  90.826  90.011
28736DA     BB386781  51.339  90.899  90.070
28736DA     SC186782  51.393  91.189  89.970
28736DA     SC286783  51.430  91.415  90.069
28736DA     SC386784  51.364  91.505  89.838
28736DA     SC486785  51.348  91.225  89.819
28737DT     BB186786  51.254  90.802  90.213
28737DT     BB286787  51.297  91.050  90.471
28737DT     BB386788  51.119  91.153  90.501
28737DT     SC186789  51.152  91.288  90.278
28737DT     SC286790  51.193  91.494  90.325
28737DT     SC386791  51.108  91.379  90.034
28738DG     BB186792  51.216  90.989  90.861
28738DG     BB286793  51.147  91.342  90.893
28738DG     BB386794  50.951  91.373  90.893
28738DG     SC186795  50.931  91.404  90.589
28738DG     SC286796  50.860  91.654  90.443
28738DG     SC386797  50.868  91.423  90.258
28738DG     SC486798  50.907  91.274  90.500
28739DA     BB186799  50.991  91.555  91.188
28739DA     BB286800  50.849  91.852  91.028
28739DA     BB386801  50.636  91.835  91.016
28739DA     SC186802  50.639  91.700  90.735
28739DA     SC286803  50.575  91.759  90.501
28739DA     SC386804  50.571  91.506  90.460
28739DA     SC486805  50.641  91.539  90.730
28740DG     BB186806  50.632  92.093  91.191
28740DG     BB286807  50.478  92.237  90.898
28740DG     BB386808  50.283  92.197  90.897
28740DG     SC186809  50.313  91.935  90.743
28740DG     SC286810  50.214  91.882  90.466
28740DG     SC386811  50.310  91.632  90.593
28740DG     SC486812  50.337  91.799  90.825
28741DT     BB186813  50.135  92.360  90.907
28741DT     BB286814  50.015  92.366  90.567
28741DT     BB386815  49.829  92.275  90.555
28741DT     SC186816  49.937  92.037  90.579
28741DT     SC286817  49.918  91.931  90.392
28741DT     SC386818  49.995  91.799  90.678
28742DT     BB186819  49.720  92.517  90.516
28742DT     BB286820  49.623  92.322  90.228
28742DT     BB386821  49.452  92.213  90.270
28742DT     SC186822  49.588  92.043  90.417
28742DT     SC286823  49.596  91.853  90.318
28742DT     SC386824  49.670  91.908  90.628
28743DA     BB186825  49.394  92.424  89.912
28743DA     BB286826  49.302  92.073  89.856
28743DA     BB386827  49.119  92.028  89.956
28743DA     SC186828  49.257  91.937  90.220
28743DA     SC286829  49.293  91.724  90.345
28743DA     SC386830  49.336  91.875  90.548
28743DA     SC486831  49.279  92.048  90.334
28744DG     BB186832  49.044  91.964  89.665
28744DG     BB286833  49.015  91.629  89.799
28744DG     BB386834  48.842  91.610  89.896
28744DG     SC186835  48.956  91.700  90.166
28744DG     SC286836  48.987  91.530  90.409
28744DG     SC386837  49.043  91.814  90.471
28744DG     SC486838  48.956  91.856  90.202
28745DG     BB186839  48.800  91.365  89.689
28745DG     BB286840  48.792  91.155  89.983
28745DG     BB386841  48.615  91.169  90.072
28745DG     SC186842  48.695  91.404  90.251
28745DG     SC286843  48.722  91.398  90.548
28745DG     SC386844  48.744  91.675  90.447
28745DG     SC486845  48.677  91.554  90.196
28746DG     BB186846  48.619  90.848  90.032
28746DG     BB286847  48.601  90.831  90.393
28746DG     BB386848  48.416  90.870  90.453
28746DG     SC186849  48.460  91.172  90.477
28746DG     SC286850  48.460  91.330  90.730
28746DG     SC386851  48.468  91.509  90.494
28746DG     SC486852  48.435  91.264  90.348
28747DA     BB186853  48.464  90.578  90.633
28747DA     BB286854  48.391  90.761  90.942
28747DA     BB386855  48.184  90.811  90.952
28747DA     SC186856  48.219  91.086  90.811
28747DA     SC286857  48.205  91.328  90.872
28747DA     SC386858  48.176  91.368  90.621
28747DA     SC486859  48.201  91.091  90.652
28748DT     BB186860  48.080  90.725  91.093
28748DT     BB286861  48.035  91.014  91.304
28748DT     BB386862  47.845  91.092  91.276
28748DT     SC186863  47.912  91.194  91.044
28748DT     SC286864  47.918  91.409  91.060
28748DT     SC386865  47.916  91.238  90.784
28749DA     BB186866  47.874  91.036  91.693
28749DA     BB286867  47.745  91.375  91.636
28749DA     BB386868  47.541  91.366  91.573
28749DA     SC186869  47.610  91.354  91.270
28749DA     SC286870  47.590  91.502  91.070
28749DA     SC386871  47.613  91.286  90.933
28749DA     SC486872  47.624  91.209  91.203
28750DC     BB186873  47.365  91.437  91.693
28750DC     BB286874  47.303  91.736  91.501
28750DC     BB386875  47.130  91.715  91.390
28750DC     SC186876  47.249  91.555  91.220
28750DC     SC286877  47.269  91.656  91.030
28750DC     SC386878  47.306  91.338  91.082
28751DT     BB186879  46.960  91.883  91.549
28751DT     BB286880  46.939  92.028  91.220
28751DT     BB386881  46.779  91.948  91.117
28751DT     SC186882  46.907  91.722  91.077
28751DT     SC286883  46.956  91.703  90.869
28751DT     SC386884  46.968  91.466  91.089
28752DT     BB186885  46.619  92.177  91.136
28752DT     BB286886  46.650  92.120  90.781
28752DT     BB386887  46.496  91.998  90.716
28752DT     SC186888  46.607  91.786  90.823
28752DT     SC286889  46.678  91.656  90.667
28752DT     SC386890  46.643  91.576  90.979
28753DT     BB186891  46.380  92.209  90.589
28753DT     BB286892  46.443  91.968  90.328
28753DT     BB386893  46.284  91.836  90.314
28753DT     SC186894  46.357  91.711  90.533
28753DT     SC286895  46.429  91.515  90.483
28753DT     SC386896  46.350  91.619  90.780
28754DC     BB186897  46.230  91.954  90.082
28754DC     BB286898  46.287  91.607  90.002
28754DC     BB386899  46.114  91.498  90.031
28754DC     SC186900  46.144  91.507  90.292
28754DC     SC286901  46.193  91.310  90.365
28754DC     SC386902  46.097  91.562  90.545
28755DC     BB186903  46.114  91.479  89.769
28755DC     BB286904  46.124  91.139  89.891
28755DC     BB386905  45.933  91.076  89.941
28755DC     SC186906  45.935  91.221  90.160
28755DC     SC286907  45.943  91.091  90.331
28755DC     SC386908  45.869  91.406  90.335
28756DA     BB186909  46.140  90.800  89.700
28756DA     BB286910  45.996  90.623  89.987
28756DA     BB386911  45.783  90.618  89.972
28756DA     SC186912  45.742  90.883  90.130
28756DA     SC286913  45.652  90.954  90.351
28756DA     SC386914  45.628  91.186  90.244
28756DA     SC486915  45.733  91.020  90.045
28757DT     BB186916  45.729  90.448  89.955
28757DT     BB286917  45.590  90.412  90.286
28757DT     BB386918  45.385  90.445  90.281
28757DT     SC186919  45.420  90.704  90.256
28757DT     SC286920  45.356  90.802  90.437
28757DT     SC386921  45.413  90.946  90.152
28758DT     BB186922  45.372  90.187  90.328
28758DT     BB286923  45.187  90.344  90.596
28758DT     BB386924  44.996  90.391  90.531
28758DT     SC186925  45.085  90.594  90.390
28758DT     SC286926  45.021  90.778  90.481
28758DT     SC386927  45.142  90.746  90.182
28759DT     BB186928  44.916  90.197  90.692
28759DT     BB286929  44.735  90.490  90.800
28759DT     BB386930  44.569  90.519  90.680
28759DT     SC186931  44.717  90.608  90.483
28759DT     SC286932  44.682  90.818  90.456
28759DT     SC386933  44.832  90.622  90.246
28760DG     BB186934  44.443  90.490  91.068
28760DG     BB286935  44.312  90.786  90.906
28760DG     BB386936  44.164  90.736  90.783
28760DG     SC186937  44.347  90.694  90.541
28760DG     SC286938  44.351  90.861  90.293
28760DG     SC386939  44.520  90.620  90.261
28760DG     SC486940  44.412  90.550  90.517
28761DA     BB186941  43.959  90.973  90.941
28761DA     BB286942  43.913  91.149  90.623
28761DA     BB386943  43.772  91.046  90.500
28761DA     SC186944  43.988  90.871  90.358
28761DA     SC286945  44.089  90.852  90.131
28761DA     SC386946  44.159  90.617  90.205
28761DA     SC486947  44.021  90.728  90.422
28762DA     BB186948  43.611  91.335  90.490
28762DA     BB286949  43.664  91.334  90.127
28762DA     BB386950  43.526  91.202  90.032
28762DA     SC186951  43.713  90.954  90.048
28762DA     SC286952  43.844  90.811  89.892
28762DA     SC386953  43.840  90.637  90.079
28762DA     SC486954  43.698  90.858  90.177
28763DT     BB186955  43.377  91.277  89.904
28763DT     BB286956  43.534  91.173  89.596
28763DT     BB386957  43.431  91.013  89.515
28763DT     SC186958  43.531  90.848  89.694
28763DT     SC286959  43.668  90.714  89.599
28763DT     SC386960  43.542  90.678  89.895
28764DG     BB186961  43.438  91.311  89.239
28764DG     BB286962  43.568  91.002  89.105
28764DG     BB386963  43.418  90.879  89.059
28764DG     SC186964  43.409  90.747  89.335
28764DG     SC286965  43.479  90.463  89.395
28764DG     SC386966  43.359  90.595  89.631
28764DG     SC486967  43.318  90.812  89.449
28765DC     BB186968  43.411  90.827  88.863
28765DC     BB286969  43.529  90.486  88.873
28765DC     BB386970  43.368  90.356  88.869
28765DC     SC186971  43.309  90.408  89.119
28765DC     SC286972  43.352  90.236  89.240
28765DC     SC386973  43.175  90.492  89.331
28766DA     BB186974  43.674  90.257  88.597
28766DA     BB286975  43.577  89.955  88.780
28766DA     BB386976  43.379  89.896  88.726
28766DA     SC186977  43.241  90.062  88.950
28766DA     SC286978  43.118  90.019  89.162
28766DA     SC386979  43.026  90.256  89.133
28766DA     SC486980  43.194  90.211  88.914
28767DA     BB186981  43.570  89.629  88.700
28767DA     BB286982  43.337  89.472  88.935
28767DA     BB386983  43.145  89.448  88.844
28767DA     SC186984  43.037  89.723  88.939
28767DA     SC286985  42.868  89.809  89.101
28767DA     SC386986  42.877  90.026  88.964
28767DA     SC486987  43.056  89.849  88.840
28768DT     BB186988  43.092  89.266  88.815
28768DT     BB286989  42.827  89.249  89.059
28768DT     BB386990  42.643  89.275  88.967
28768DT     SC186991  42.685  89.532  88.938
28768DT     SC286992  42.552  89.641  89.068
28768DT     SC386993  42.722  89.766  88.822
28769DT     BB186994  42.565  89.003  88.975
28769DT     BB286995  42.282  89.173  89.121
28769DT     BB386996  42.147  89.225  88.972
28769DT     SC186997  42.301  89.420  88.889
28769DT     SC286998  42.209  89.609  88.937
28769DT     SC386999  42.456  89.564  88.732
28770DA     BB187000  41.862  88.989  89.192
28770DA     BB287001  41.694  89.306  89.118
28770DA     BB387002  41.617  89.304  88.918
28770DA     SC187003  41.875  89.426  88.792
28770DA     SC287004  41.945  89.640  88.686
28770DA     SC387005  42.137  89.503  88.585
28770DA     SC487006  41.986  89.323  88.738
28771DT     BB187007  41.368  89.295  88.808
28771DT     BB287008  41.361  89.644  88.717
28771DT     BB387009  41.349  89.663  88.512
28771DT     SC187010  41.601  89.597  88.482
28771DT     SC287011  41.713  89.769  88.418
28771DT     SC387012  41.815  89.461  88.409
28772DA     BB187013  41.007  89.886  88.621
28772DA     BB287014  41.207  90.101  88.400
28772DA     BB387015  41.174  90.048  88.196
28772DA     SC187016  41.406  89.842  88.186
28772DA     SC287017  41.631  89.821  88.080
28772DA     SC387018  41.605  89.569  88.121
28772DA     SC487019  41.371  89.688  88.220
28773DC     BB187020  41.076  90.182  88.053
28773DC     BB287021  41.379  90.284  87.887
28773DC     BB387022  41.385  90.204  87.696
28773DC     SC187023  41.443  89.966  87.789
28773DC     SC287024  41.646  89.916  87.737
28773DC     SC387025  41.420  89.709  87.845
28774DT     BB187026  41.341  90.451  87.590
28774DT     BB287027  41.657  90.346  87.450
28774DT     BB387028  41.624  90.237  87.278
28774DT     SC187029  41.545  90.028  87.416
28774DT     SC287030  41.692  89.872  87.400
28774DT     SC387031  41.389  89.837  87.510
28775DC     BB187032  41.721  90.444  87.133
28775DC     BB287033  41.934  90.166  87.049
28775DC     BB387034  41.851  90.056  86.895
28775DC     SC187035  41.672  89.951  87.055
28775DC     SC287036  41.714  89.742  87.082
28775DC     SC387037  41.437  89.892  87.160
28776DA     BB187038  42.247  90.148  86.793
28776DA     BB287039  42.197  89.788  86.744
28776DA     BB387040  42.078  89.753  86.571
28776DA     SC187041  41.808  89.757  86.726
28776DA     SC287042  41.630  89.595  86.792
28776DA     SC387043  41.481  89.801  86.820
28776DA     SC487044  41.730  89.897  86.736
28777DA     BB187045  42.337  89.566  86.509
28777DA     BB287046  42.105  89.282  86.515
28777DA     BB387047  41.987  89.279  86.337
28777DA     SC187048  41.759  89.453  86.456
28777DA     SC287049  41.521  89.423  86.527
28777DA     SC387050  41.503  89.677  86.503
28777DA     SC487051  41.767  89.612  86.434
28778DT     BB187052  42.019  89.127  86.228
28778DT     BB287053  41.714  88.954  86.312
28778DT     BB387054  41.576  88.974  86.159
28778DT     SC187055  41.527  89.223  86.226
28778DT     SC287056  41.328  89.237  86.307
28778DT     SC387057  41.512  89.486  86.211
28779DT     BB187058  41.625  88.720  86.135
28779DT     BB287059  41.271  88.747  86.200
28779DT     BB387060  41.171  88.796  86.026
28779DT     SC187061  41.255  89.044  86.038
28779DT     SC287062  41.090  89.174  86.083
28779DT     SC387063  41.380  89.268  85.973
28780DT     BB187064  41.091  88.563  86.088
28780DT     BB287065  40.798  88.772  86.078
28780DT     BB387066  40.748  88.814  85.881
28780DT     SC187067  40.946  88.985  85.860
28780DT     SC287068  40.867  89.184  85.846
28780DT     SC387069  41.171  89.094  85.776
28781DT     BB187070  40.548  88.663  85.948
28781DT     BB287071  40.401  88.971  85.830
28781DT     BB387072  40.401  88.974  85.623
28781DT     SC187073  40.659  89.021  85.615
28781DT     SC287074  40.693  89.222  85.545
28781DT     SC387075  40.916  88.987  85.567
28782DA     BB187076  40.017  89.071  85.765
28782DA     BB287077  40.105  89.309  85.501
28782DA     BB387078  40.104  89.213  85.311
28782DA     SC187079  40.405  89.133  85.322
28782DA     SC287080  40.617  89.196  85.208
28782DA     SC387081  40.706  88.971  85.292
28782DA     SC487082  40.441  88.989  85.383
28783DT     BB187083  39.960  89.260  85.165
28783DT     BB287084  40.178  89.439  84.940
28783DT     BB387085  40.216  89.324  84.772
28783DT     SC187086  40.379  89.168  84.906
28783DT     SC287087  40.581  89.202  84.839
28783DT     SC387088  40.479  88.952  85.019
28784DA     BB187089  40.076  89.687  84.617
28784DA     BB287090  40.382  89.602  84.435
28784DA     BB387091  40.343  89.447  84.293
28784DA     SC187092  40.411  89.216  84.491
28784DA     SC287093  40.589  89.045  84.520
28784DA     SC387094  40.418  88.920  84.664
28784DA     SC487095  40.290  89.153  84.576
28785DT     BB187096  40.357  89.488  84.092
28785DT     BB287097  40.668  89.315  84.034
28785DT     BB387098  40.633  89.138  83.931
28785DT     SC187099  40.537  89.023  84.147
28785DT     SC287100  40.674  88.871  84.213
28785DT     SC387101  40.367  88.906  84.311
28786DA     BB187102  40.934  89.353  83.736
28786DA     BB287103  41.048  89.006  83.775
28786DA     BB387104  40.942  88.878  83.642
28786DA     SC187105  40.716  88.813  83.846
28786DA     SC287106  40.639  88.618  83.980
28786DA     SC387107  40.415  88.743  83.996
28786DA     SC487108  40.585  88.906  83.843
28787DA     BB187109  41.255  88.806  83.582
28787DA     BB287110  41.171  88.461  83.672
28787DA     BB387111  41.049  88.373  83.520
28787DA     SC187112  40.781  88.459  83.651
28787DA     SC287113  40.589  88.350  83.767
28787DA     SC387114  40.459  88.564  83.709
28787DA     SC487115  40.717  88.599  83.605
28788DT     BB187116  41.132  88.230  83.427
28788DT     BB287117  40.932  87.958  83.555
28788DT     BB387118  40.786  87.907  83.418
28788DT     SC187119  40.645  88.121  83.477
28788DT     SC287120  40.466  88.062  83.580
28788DT     SC387121  40.524  88.353  83.451
28789DG     BB187122  40.991  87.550  83.441
28789DG     BB287123  40.636  87.489  83.466
28789DG     BB387124  40.554  87.489  83.285
28789DG     SC187125  40.495  87.789  83.283
28789DG     SC287126  40.224  87.915  83.286
28789DG     SC387127  40.434  88.118  83.240
28789DG     SC487128  40.607  87.890  83.230
28790DA     BB187129  40.387  87.149  83.252
28790DA     BB287130  40.056  87.298  83.200
28790DA     BB387131  40.025  87.341  82.993
28790DA     SC187132  40.138  87.630  83.011
28790DA     SC287133  40.052  87.863  82.997
28790DA     SC387134  40.295  87.929  82.948
28790DA     SC487135  40.295  87.650  82.980
28791DA     BB187136  39.729  87.144  82.893
28791DA     BB287137  39.544  87.455  82.830
28791DA     BB387138  39.560  87.510  82.625
28791DA     SC187139  39.815  87.684  82.666
28791DA     SC287140  39.876  87.926  82.660
28791DA     SC387141  40.117  87.843  82.629
28791DA     SC487142  39.957  87.613  82.646
28792DA     BB187143  39.220  87.514  82.551
28792DA     BB287144  39.242  87.876  82.504
28792DA     BB387145  39.287  87.922  82.301
28792DA     SC187146  39.595  87.920  82.342
28792DA     SC287147  39.782  88.085  82.343
28792DA     SC387148  39.934  87.883  82.303
28792DA     SC487149  39.673  87.782  82.315
28793DG     BB187150  39.013  88.075  82.285
28793DG     BB287151  39.227  88.365  82.260
28793DG     BB387152  39.271  88.400  82.069
28793DG     SC187153  39.521  88.224  82.068
28793DG     SC287154  39.803  88.319  82.037
28793DG     SC387155  39.789  88.024  82.025
28793DG     SC487156  39.506  88.069  82.033
28794DC     BB187157  39.211  88.587  81.991
28794DC     BB287158  39.525  88.764  81.986
28794DC     BB387159  39.599  88.772  81.793
28794DC     SC187160  39.670  88.520  81.801
28794DC     SC287161  39.884  88.506  81.803
28794DC     SC387162  39.679  88.263  81.742
28795DA     BB187163  39.606  89.137  82.001
28795DA     BB287164  39.933  89.083  81.845
28795DA     BB387165  39.918  89.098  81.632
28795DA     SC187166  39.861  88.795  81.592
28795DA     SC287167  39.979  88.596  81.496
28795DA     SC387168  39.746  88.491  81.480
28795DA     SC487169  39.708  88.747  81.588
28796DA     BB187170  40.166  89.290  81.725
28796DA     BB287171  40.371  89.091  81.495
28796DA     BB387172  40.312  89.126  81.293
28796DA     SC187173  40.103  88.895  81.288
28796DA     SC287174  40.078  88.672  81.180
28796DA     SC387175  39.828  88.699  81.230
28796DA     SC487176  39.952  88.932  81.327
28797DA     BB187177  40.636  89.184  81.268
28797DA     BB287178  40.643  88.923  81.009
28797DA     BB387179  40.551  88.994  80.830
28797DA     SC187180  40.267  88.893  80.908
28797DA     SC287181  40.108  88.716  80.834
28797DA     SC387182  39.929  88.857  80.951
28797DA     SC487183  40.170  88.995  80.985
28798DA     BB187184  40.833  88.921  80.659
28798DA     BB287185  40.635  88.696  80.447
28798DA     BB387186  40.528  88.808  80.300
28798DA     SC187187  40.275  88.844  80.477
28798DA     SC287188  40.039  88.763  80.481
28798DA     SC387189  39.993  88.966  80.631
28798DA     SC487190  40.266  88.977  80.568
28799DA     BB187191  40.662  88.649  80.019
28799DA     BB287192  40.326  88.534  79.929
28799DA     BB387193  40.225  88.682  79.814
28799DA     SC187194  40.097  88.822  80.060
28799DA     SC287195  39.870  88.850  80.160
28799DA     SC387196  39.971  89.052  80.282
28799DA     SC487197  40.178  88.945  80.125
28800DT     BB187198  40.149  88.696  79.556
28800DT     BB287199  39.801  88.631  79.624
28800DT     BB387200  39.686  88.794  79.569
28800DT     SC187201  39.766  88.930  79.779
28800DT     SC287202  39.601  88.954  79.916
28800DT     SC387203  39.880  89.119  79.924
28801DG     BB187204  39.530  88.503  79.325
28801DG     BB287205  39.272  88.652  79.531
28801DG     BB387206  39.206  88.820  79.446
28801DG     SC187207  39.411  89.000  79.585
28801DG     SC287208  39.351  89.209  79.789
28801DG     SC387209  39.633  89.224  79.704
28801DG     SC487210  39.553  89.024  79.515
28802DA     BB187211  38.904  88.670  79.495
28802DA     BB287212  38.810  88.945  79.719
28802DA     BB387213  38.762  89.119  79.606
28802DA     SC187214  39.052  89.232  79.609
28802DA     SC287215  39.174  89.423  79.713
28802DA     SC387216  39.349  89.384  79.529
28802DA     SC487217  39.148  89.193  79.486
28803DT     BB187218  38.599  89.147  79.645
28803DT     BB287219  38.655  89.431  79.861
28803DT     BB387220  38.638  89.606  79.752
28803DT     SC187221  38.871  89.568  79.638
28803DT     SC287222  39.012  89.713  79.712
28803DT     SC387223  39.052  89.525  79.451
28804DT     BB187224  38.436  89.620  79.910
28804DT     BB287225  38.631  89.916  79.973
28804DT     BB387226  38.602  90.054  79.821
28804DT     SC187227  38.752  89.914  79.656
28804DT     SC287228  38.934  90.021  79.617
28804DT     SC387229  38.822  89.769  79.447
28805DA     BB187230  38.563  90.231  80.202
28805DA     BB287231  38.774  90.446  79.993
28805DA     BB387232  38.658  90.533  79.836
28805DA     SC187233  38.714  90.303  79.634
28805DA     SC287234  38.842  90.269  79.423
28805DA     SC387235  38.690  90.066  79.387
28805DA     SC487236  38.608  90.181  79.629
28806DA     BB187237  38.783  90.815  79.958
28806DA     BB287238  38.928  90.873  79.626
28806DA     BB387239  38.776  90.930  79.488
28806DA     SC187240  38.714  90.639  79.397
28806DA     SC287241  38.745  90.498  79.193
28806DA     SC387242  38.561  90.350  79.293
28806DA     SC487243  38.598  90.560  79.475
28807DA     BB187244  38.950  91.210  79.418
28807DA     BB287245  38.976  91.092  79.072
28807DA     BB387246  38.795  91.133  78.966
28807DA     SC187247  38.663  90.861  79.036
28807DA     SC287248  38.599  90.651  78.918
28807DA     SC387249  38.442  90.611  79.116
28807DA     SC487250  38.571  90.854  79.167
28808DG     BB187251  38.938  91.333  78.753
28808DG     BB287252  38.855  91.073  78.515
28808DG     BB387253  38.675  91.108  78.437
28808DG     SC187254  38.524  90.950  78.651
28808DG     SC287255  38.373  90.696  78.608
28808DG     SC387256  38.325  90.802  78.880
28808DG     SC487257  38.477  91.025  78.785
28809DA     BB187258  38.811  91.089  78.118
28809DA     BB287259  38.607  90.792  78.049
28809DA     BB387260  38.409  90.849  77.994
28809DA     SC187261  38.300  90.843  78.285
28809DA     SC287262  38.143  90.703  78.420
28809DA     SC387263  38.130  90.906  78.577
28809DA     SC487264  38.304  90.980  78.369
28810DA     BB187265  38.517  90.652  77.765
28810DA     BB287266  38.249  90.427  77.874
28810DA     BB387267  38.059  90.502  77.813
28810DA     SC187268  38.013  90.665  78.075
28810DA     SC287269  37.864  90.654  78.275
28810DA     SC387270  37.923  90.902  78.306
28810DA     SC487271  38.061  90.818  78.077
28811DA     BB187272  38.100  90.191  77.734
28811DA     BB287273  37.806  90.132  77.946
28811DA     BB387274  37.633  90.220  77.858
28811DA     SC187275  37.667  90.493  78.002
28811DA     SC287276  37.552  90.623  78.181
28811DA     SC387277  37.672  90.827  78.083
28811DA     SC487278  37.749  90.608  77.925
28812DT     BB187279  37.546  90.083  77.840
28812DT     BB287280  37.298  90.152  78.092
28812DT     BB387281  37.141  90.260  78.010
28812DT     SC187282  37.286  90.479  78.004
28812DT     SC287283  37.209  90.619  78.148
28812DT     SC387284  37.417  90.687  77.909
28813DG     BB187285  37.017  89.920  78.201
28813DG     BB287286  36.826  90.211  78.301
28813DG     BB387287  36.704  90.266  78.154
28813DG     SC187288  36.906  90.453  78.022
28813DG     SC287289  36.884  90.751  78.004
28813DG     SC387290  37.110  90.652  77.841
28813DG     SC487291  37.007  90.394  77.913
28814DT     BB187292  36.487  90.259  78.181
28814DT     BB287293  36.397  90.609  78.194
28814DT     BB387294  36.321  90.669  78.012
28814DT     SC187295  36.560  90.671  77.903
28814DT     SC287296  36.619  90.873  77.863
28814DT     SC387297  36.761  90.607  77.744
28815DA     BB187298  36.006  90.782  78.270
28815DA     BB287299  36.069  91.068  78.049
28815DA     BB387300  35.985  91.032  77.856
28815DA     SC187301  36.243  90.902  77.741
28815DA     SC287302  36.420  90.958  77.574
28815DA     SC387303  36.468  90.706  77.570
28815DA     SC487304  36.257  90.742  77.752
28816DA     BB187305  35.792  91.314  77.864
28816DA     BB287306  35.978  91.441  77.575
28816DA     BB387307  35.895  91.364  77.394
28816DA     SC187308  36.079  91.113  77.387
28816DA     SC287309  36.269  91.028  77.251
28816DA     SC387310  36.207  90.797  77.345
28816DA     SC487311  36.024  90.979  77.456
28817DA     BB187312  35.848  91.677  77.278
28817DA     BB287313  36.091  91.602  77.014
28817DA     BB387314  35.995  91.503  76.851
28817DA     SC187315  36.047  91.217  76.963
28817DA     SC287316  36.188  91.020  76.906
28817DA     SC387317  36.023  90.886  77.050
28817DA     SC487318  35.933  91.152  77.055
28818DG     BB187319  36.079  91.746  76.674
28818DG     BB287320  36.293  91.500  76.518
28818DG     BB387321  36.195  91.407  76.373
28818DG     SC187322  36.086  91.186  76.555
28818DG     SC287323  36.159  90.897  76.542
28818DG     SC387324  35.933  90.941  76.729
28818DG     SC487325  35.947  91.209  76.630
28819DA     BB187326  36.478  91.495  76.209
28819DA     BB287327  36.547  91.140  76.148
28819DA     BB387328  36.416  91.063  75.998
28819DA     SC187329  36.197  90.974  76.200
28819DA     SC287330  36.103  90.760  76.288
28819DA     SC387331  35.899  90.901  76.356
28819DA     SC487332  36.079  91.078  76.233
28820DT     BB187333  36.529  91.019  75.892
28820DT     BB287334  36.499  90.663  75.937
28820DT     BB387335  36.355  90.587  75.809
28820DT     SC187336  36.161  90.685  75.956
28820DT     SC287337  36.055  90.524  76.051
28820DT     SC387338  35.953  90.831  76.027
28821DA     BB187339  36.720  90.372  75.837
28821DA     BB287340  36.438  90.137  75.850
28821DA     BB387341  36.333  90.137  75.664
28821DA     SC187342  36.134  90.361  75.748
28821DA     SC287343  35.892  90.382  75.802
28821DA     SC387344  35.924  90.632  75.754
28821DA     SC487345  36.174  90.513  75.713
28822DT     BB187346  36.351  89.978  75.599
28822DT     BB287347  36.009  89.869  75.634
28822DT     BB387348  35.904  89.909  75.460
28822DT     SC187349  35.893  90.165  75.516
28822DT     SC287350  35.691  90.219  75.564
28822DT     SC387351  35.932  90.425  75.497
28823DA     BB187352  35.837  89.502  75.545
28823DA     BB287353  35.514  89.653  75.459
28823DA     BB387354  35.505  89.693  75.249
28823DA     SC187355  35.619  89.982  75.276
28823DA     SC287356  35.536  90.216  75.250
28823DA     SC387357  35.784  90.279  75.225
28823DA     SC487358  35.778  90.000  75.261
28824DA     BB187359  35.225  89.510  75.236
28824DA     BB287360  35.049  89.808  75.115
28824DA     BB387361  35.088  89.838  74.907
28824DA     SC187362  35.337  90.018  74.954
28824DA     SC287363  35.399  90.258  74.925
28824DA     SC387364  35.642  90.174  74.931
28824DA     SC487365  35.481  89.946  74.959
28825DT     BB187366  34.936  89.815  74.739
28825DT     BB287367  34.894  90.167  74.674
28825DT     BB387368  34.978  90.215  74.491
28825DT     SC187369  35.221  90.199  74.589
28825DT     SC287370  35.308  90.396  74.597
28825DT     SC387371  35.468  90.116  74.626
28826DG     BB187372  34.586  90.321  74.440
28826DG     BB287373  34.805  90.597  74.358
28826DG     BB387374  34.874  90.576  74.173
28826DG     SC187375  35.120  90.415  74.257
28826DG     SC287376  35.404  90.505  74.237
28826DG     SC387377  35.390  90.219  74.312
28826DG     SC487378  35.109  90.255  74.268
28827DC     BB187379  34.829  90.724  74.004
28827DC     BB287380  35.144  90.899  73.982
28827DC     BB387381  35.246  90.840  73.812
28827DC     SC187382  35.310  90.610  73.921
28827DC     SC287383  35.522  90.606  73.960
28827DC     SC387384  35.324  90.350  73.961
28828DT     BB187385  35.194  91.082  73.708
28828DT     BB287386  35.554  91.055  73.702
28828DT     BB387387  35.614  90.957  73.530
28828DT     SC187388  35.536  90.725  73.624
28828DT     SC287389  35.708  90.603  73.666
28828DT     SC387390  35.401  90.500  73.648
28829DA     BB187391  35.833  91.313  73.566
28829DA     BB287392  36.069  91.041  73.494
28829DA     BB387393  36.049  90.978  73.291
28829DA     SC187394  35.836  90.760  73.354
28829DA     SC287395  35.822  90.511  73.357
28829DA     SC387396  35.569  90.546  73.343
28829DA     SC487397  35.682  90.802  73.344
28830DT     BB187398  36.203  91.011  73.169
28830DT     BB287399  36.316  90.670  73.141
28830DT     BB387400  36.258  90.591  72.959
28830DT     SC187401  36.009  90.567  73.040
28830DT     SC287402  35.961  90.359  73.063
28830DT     SC387403  35.749  90.604  73.054
28831DA     BB187404  36.672  90.522  72.973
28831DA     BB287405  36.512  90.207  72.873
28831DA     BB387406  36.449  90.218  72.670
28831DA     SC187407  36.165  90.326  72.739
28831DA     SC287408  35.930  90.244  72.733
28831DA     SC387409  35.865  90.492  72.739
28831DA     SC487410  36.145  90.485  72.742
28832DT     BB187411  36.537  90.100  72.510
28832DT     BB287412  36.264  89.867  72.473
28832DT     BB387413  36.164  89.904  72.295
28832DT     SC187414  36.050  90.119  72.395
28832DT     SC287415  35.840  90.082  72.421
28832DT     SC387416  35.985  90.372  72.430
28833DT     BB187417  36.266  89.679  72.167
28833DT     BB287418  35.908  89.638  72.145
28833DT     BB387419  35.837  89.727  71.972
28833DT     SC187420  35.866  89.967  72.074
28833DT     SC287421  35.672  90.053  72.110
28833DT     SC387422  35.954  90.213  72.108
28834DT     BB187423  35.791  89.483  71.854
28834DT     BB287424  35.470  89.647  71.850
28834DT     BB387425  35.451  89.761  71.678
28834DT     SC187426  35.613  89.944  71.771
28834DT     SC287427  35.502  90.124  71.814
28834DT     SC387428  35.825  90.101  71.793
28835DT     BB187429  35.271  89.582  71.581
28835DT     BB287430  35.094  89.897  71.584
28835DT     BB387431  35.129  89.999  71.408
28835DT     SC187432  35.372  90.063  71.485
28835DT     SC287433  35.381  90.275  71.523
28835DT     SC387434  35.635  90.077  71.489
28836DC     BB187435  34.876  89.947  71.344
28836DC     BB287436  34.902  90.307  71.335
28836DC     BB387437  34.975  90.367  71.151
28836DC     SC187438  35.218  90.289  71.213
28836DC     SC287439  35.345  90.461  71.237
28836DC     SC387440  35.445  90.154  71.205
28837DG     BB187441  34.618  90.550  71.221
28837DG     BB287442  34.875  90.789  71.135
28837DG     BB387443  34.910  90.784  70.939
28837DG     SC187444  35.126  90.568  70.958
28837DG     SC287445  35.416  90.605  70.897
28837DG     SC387446  35.353  90.319  70.939
28837DG     SC487447  35.083  90.414  70.951
28838DG     BB187448  34.836  91.102  70.934
28838DG     BB287449  35.174  91.155  70.818
28838DG     BB387450  35.185  91.121  70.622
28838DG     SC187451  35.249  90.823  70.652
28838DG     SC287452  35.506  90.690  70.579
28838DG     SC387453  35.301  90.489  70.648
28838DG     SC487454  35.128  90.718  70.662
28839DT     BB187455  35.240  91.281  70.485
28839DT     BB287456  35.577  91.187  70.393
28839DT     BB387457  35.577  91.101  70.205
28839DT     SC187458  35.474  90.879  70.298
28839DT     SC287459  35.621  90.722  70.289
28839DT     SC387460  35.303  90.681  70.336
28840DT     BB187461  35.694  91.323  70.099
28840DT     BB287462  35.917  91.053  70.011
28840DT     BB387463  35.856  90.966  69.833
28840DT     SC187464  35.656  90.845  69.952
28840DT     SC287465  35.693  90.634  69.957
28840DT     SC387466  35.409  90.778  70.015
28841DT     BB187467  36.066  91.078  69.696
28841DT     BB287468  36.099  90.724  69.637
28841DT     BB387469  35.988  90.669  69.471
28841DT     SC187470  35.764  90.689  69.605
28841DT     SC287471  35.680  90.493  69.633
28841DT     SC387472  35.525  90.774  69.677
28842DT     BB187473  36.218  90.634  69.331
28842DT     BB287474  36.049  90.316  69.310
28842DT     BB387475  35.917  90.316  69.151
28842DT     SC187476  35.747  90.468  69.281
28842DT     SC287477  35.572  90.353  69.331
28842DT     SC387478  35.598  90.676  69.344
28843DT     BB187479  36.084  90.148  69.029
28843DT     BB287480  35.768  89.974  69.037
28843DT     BB387481  35.651  90.033  68.877
28843DT     SC187482  35.598  90.264  68.990
28843DT     SC287483  35.391  90.269  69.049
28843DT     SC387484  35.590  90.524  69.030
28844DC     BB187485  35.694  89.791  68.772
28844DC     BB287486  35.334  89.821  68.789
28844DC     BB387487  35.264  89.922  68.623
28844DC     SC187488  35.350  90.152  68.715
28844DC     SC287489  35.182  90.275  68.769
28844DC     SC387490  35.488  90.376  68.733
28845DA     BB187491  35.041  89.566  68.650
28845DA     BB287492  34.805  89.842  68.595
28845DA     BB387493  34.818  89.912  68.394
28845DA     SC187494  35.036  90.126  68.456
28845DA     SC287495  35.053  90.374  68.466
28845DA     SC387496  35.306  90.338  68.442
28845DA     SC487497  35.190  90.082  68.438
28846DA     BB187498  34.489  89.857  68.371
28846DA     BB287499  34.448  90.215  68.300
28846DA     BB387500  34.498  90.257  68.097
28846DA     SC187501  34.797  90.316  68.159
28846DA     SC287502  34.950  90.513  68.161
28846DA     SC387503  35.140  90.341  68.145
28846DA     SC487504  34.901  90.193  68.147
28847DG     BB187505  34.199  90.358  68.014
28847DG     BB287506  34.362  90.677  67.965
28847DG     BB387507  34.427  90.692  67.777
28847DG     SC187508  34.701  90.570  67.837
28847DG     SC287509  34.963  90.712  67.823
28847DG     SC387510  35.003  90.422  67.862
28847DG     SC487511  34.719  90.411  67.828
28848DG     BB187512  34.243  90.966  67.661
28848DG     BB287513  34.559  91.142  67.635
28848DG     BB387514  34.632  91.123  67.451
28848DG     SC187515  34.787  90.866  67.513
28848DG     SC287516  35.085  90.839  67.516
28848DG     SC387517  34.954  90.574  67.540
28848DG     SC487518  34.714  90.725  67.495
28849DT     BB187519  34.676  91.304  67.266
28849DT     BB287520  35.032  91.338  67.316
28849DT     BB387521  35.133  91.270  67.149
28849DT     SC187522  35.085  91.020  67.213
28849DT     SC287523  35.269  90.925  67.273
28849DT     SC387524  34.992  90.773  67.199
28850DG     BB187525  35.235  91.656  67.216
28850DG     BB287526  35.522  91.436  67.226
28850DG     BB387527  35.580  91.392  67.041
28850DG     SC187528  35.401  91.145  67.016
28850DG     SC287529  35.494  90.862  66.996
28850DG     SC387530  35.203  90.882  66.947
28850DG     SC487531  35.251  91.163  66.961
28851DT     BB187532  35.765  91.446  67.021
28851DT     BB287533  35.934  91.128  67.041
28851DT     BB387534  35.975  91.058  66.851
28851DT     SC187535  35.724  90.992  66.813
28851DT     SC287536  35.706  90.778  66.808
28851DT     SC387537  35.481  90.990  66.710
28852DA     BB187538  36.275  91.036  67.151
28852DA     BB287539  36.249  90.713  66.980
28852DA     BB387540  36.308  90.732  66.776
28852DA     SC187541  36.022  90.796  66.673
28852DA     SC287542  35.846  90.685  66.535
28852DA     SC387543  35.752  90.921  66.502
28852DA     SC487544  35.980  90.951  66.663
28853DT     BB187545  36.440  90.629  66.771
28853DT     BB287546  36.291  90.370  66.570
28853DT     BB387547  36.325  90.408  66.369
28853DT     SC187548  36.145  90.599  66.367
28853DT     SC287549  35.976  90.536  66.250
28853DT     SC387550  36.039  90.839  66.345
28854DA     BB187551  36.427  90.010  66.464
28854DA     BB287552  36.230  90.009  66.155
28854DA     BB387553  36.342  90.093  65.995
28854DA     SC187554  36.241  90.383  66.044
28854DA     SC287555  36.093  90.549  65.931
28854DA     SC387556  36.214  90.724  66.073
28854DA     SC487557  36.329  90.478  66.140
28855DA     BB187558  36.263  89.808  65.850
28855DA     BB287559  36.099  90.006  65.589
28855DA     BB387560  36.245  90.096  65.461
28855DA     SC187561  36.267  90.357  65.629
28855DA     SC287562  36.205  90.597  65.605
28855DA     SC387563  36.379  90.639  65.789
28855DA     SC487564  36.380  90.363  65.743
28856DA     BB187565  36.076  89.948  65.218
28856DA     BB287566  36.014  90.281  65.079
28856DA     BB387567  36.187  90.353  64.978
28856DA     SC187568  36.305  90.493  65.229
28856DA     SC287569  36.344  90.726  65.309
28856DA     SC387570  36.514  90.621  65.470
28856DA     SC487571  36.407  90.409  65.320
28857DT     BB187572  36.185  90.379  64.772
28857DT     BB287573  36.169  90.739  64.774
28857DT     BB387574  36.352  90.818  64.718
28857DT     SC187575  36.458  90.759  64.951
28857DT     SC287576  36.496  90.940  65.060
28857DT     SC387577  36.615  90.647  65.131
28858DT     BB187578  36.242  90.893  64.484
28858DT     BB287579  36.371  91.199  64.626
28858DT     BB387580  36.570  91.221  64.575
28858DT     SC187581  36.643  91.037  64.747
28858DT     SC287582  36.750  91.129  64.909
28858DT     SC387583  36.743  90.812  64.843
28859DT     BB187584  36.491  91.420  64.416
28859DT     BB287585  36.735  91.570  64.635
28859DT     BB387586  36.926  91.537  64.562
28859DT     SC187587  36.920  91.286  64.637
28859DT     SC287588  37.058  91.257  64.800
28859DT     SC387589  36.921  91.022  64.624
28860DG     BB187590  36.871  91.938  64.605
28860DG     BB287591  37.179  91.829  64.761
28860DG     BB387592  37.317  91.795  64.622
28860DG     SC187593  37.241  91.502  64.582
28860DG     SC287594  37.410  91.266  64.651
28860DG     SC387595  37.172  91.182  64.498
28860DG     SC487596  37.128  91.465  64.475
28861DA     BB187597  37.534  92.005  64.800
28861DA     BB287598  37.778  91.732  64.830
28861DA     BB387599  37.881  91.705  64.645
28861DA     SC187600  37.679  91.495  64.535
28861DA     SC287601  37.675  91.251  64.486
28861DA     SC387602  37.474  91.305  64.335
28861DA     SC487603  37.557  91.550  64.446
28862DA     BB187604  38.156  91.743  64.825
28862DA     BB287605  38.253  91.405  64.722
28862DA     BB387606  38.327  91.407  64.522
28862DA     SC187607  38.050  91.354  64.392
28862DA     SC287608  37.935  91.169  64.270
28862DA     SC387609  37.776  91.352  64.185
28862DA     SC487610  37.963  91.482  64.349
28863DT     BB187611  38.531  91.365  64.478
28863DT     BB287612  38.479  91.035  64.342
28863DT     BB387613  38.504  91.039  64.137
28863DT     SC187614  38.273  91.158  64.102
28863DT     SC287615  38.135  91.021  64.009
28863DT     SC387616  38.096  91.341  64.036
28864DT     BB187617  38.741  90.905  64.158
28864DT     BB287618  38.542  90.699  63.939
28864DT     BB387619  38.565  90.760  63.743
28864DT     SC187620  38.415  90.972  63.783
28864DT     SC287621  38.229  90.949  63.677
28864DT     SC387622  38.342  91.224  63.804
28865DG     BB187623  38.670  90.367  63.762
28865DG     BB287624  38.425  90.426  63.503
28865DG     BB387625  38.513  90.506  63.343
28865DG     SC187626  38.474  90.795  63.436
28865DG     SC287627  38.298  90.999  63.306
28865DG     SC387628  38.465  91.123  63.516
28865DG     SC487629  38.585  90.863  63.528
28866DA     BB187630  38.356  90.254  63.165
28866DA     BB287631  38.187  90.504  62.958
28866DA     BB387632  38.324  90.590  62.819
28866DA     SC187633  38.409  90.822  63.008
28866DA     SC287634  38.381  91.069  63.022
28866DA     SC387635  38.584  91.064  63.179
28866DA     SC487636  38.537  90.798  63.103
28867DG     BB187637  38.133  90.477  62.597
28867DG     BB287638  38.090  90.827  62.515
28867DG     BB387639  38.241  90.888  62.401
28867DG     SC187640  38.418  90.973  62.636
28867DG     SC287641  38.498  91.252  62.704
28867DG     SC387642  38.645  91.057  62.871
28867DG     SC487643  38.516  90.865  62.703
28868DA     BB187644  38.026  91.013  62.146
28868DA     BB287645  38.162  91.351  62.185
28868DA     BB387646  38.348  91.368  62.082
28868DA     SC187647  38.520  91.283  62.327
28868DA     SC287648  38.681  91.389  62.485
28868DA     SC387649  38.760  91.150  62.533
28868DA     SC487650  38.556  91.127  62.342
28869DT     BB187651  38.405  91.495  61.880
28869DT     BB287652  38.587  91.756  62.049
28869DT     BB387653  38.788  91.746  61.998
28869DT     SC187654  38.825  91.536  62.150
28869DT     SC287655  38.946  91.591  62.319
28869DT     SC387656  38.880  91.289  62.223
28870DA     BB187657  38.716  92.147  61.875
28870DA     BB287658  39.008  92.155  62.097
28870DA     BB387659  39.184  92.099  61.990
28870DA     SC187660  39.158  91.796  62.056
28870DA     SC287661  39.277  91.627  62.195
28870DA     SC387662  39.162  91.453  62.044
28870DA     SC487663  39.079  91.704  61.951
28871DA     BB187664  39.327  92.389  62.076
28871DA     BB287665  39.568  92.196  62.275
28871DA     BB387666  39.730  92.131  62.152
28871DA     SC187667  39.596  91.862  62.074
28871DA     SC287668  39.630  91.619  62.120
28871DA     SC387669  39.490  91.580  61.909
28871DA     SC487670  39.508  91.858  61.940
28872DT     BB187671  39.919  92.206  62.191
28872DT     BB287672  40.040  91.909  62.357
28872DT     BB387673  40.177  91.812  62.237
28872DT     SC187674  39.987  91.722  62.079
28872DT     SC287675  39.969  91.509  62.104
28872DT     SC387676  39.842  91.684  61.863
28873DA     BB187677  40.319  91.865  62.626
28873DA     BB287678  40.365  91.513  62.533
28873DA     BB387679  40.521  91.494  62.390
28873DA     SC187680  40.332  91.522  62.144
28873DA     SC287681  40.245  91.376  61.961
28873DA     SC387682  40.195  91.596  61.838
28873DA     SC487683  40.310  91.669  62.083
28874DG     BB187684  40.608  91.319  62.624
28874DG     BB287685  40.576  91.059  62.375
28874DG     BB387686  40.732  91.064  62.252
28874DG     SC187687  40.601  91.258  62.055
28874DG     SC287688  40.520  91.195  61.775
28874DG     SC387689  40.496  91.485  61.829
28874DG     SC487690  40.618  91.415  62.078
28875DT     BB187691  40.848  90.894  62.249
28875DT     BB287692  40.767  90.749  61.928
28875DT     BB387693  40.914  90.797  61.790
28875DT     SC187694  40.826  91.043  61.771
28875DT     SC287695  40.738  91.073  61.577
28875DT     SC387696  40.821  91.307  61.786
28876DG     BB187697  40.889  90.390  61.804
28876DG     BB287698  40.875  90.511  61.463
28876DG     BB387699  41.057  90.559  61.400
28876DG     SC187700  41.041  90.849  61.496
28876DG     SC287701  41.035  91.092  61.322
28876DG     SC387702  41.064  91.167  61.607
28876DG     SC487703  41.086  90.884  61.646
28877DT     BB187704  41.165  90.452  61.229
28877DT     BB287705  41.149  90.699  60.966
28877DT     BB387706  41.334  90.787  60.941
28877DT     SC187707  41.305  90.929  61.160
28877DT     SC287708  41.280  91.136  61.109
28877DT     SC387709  41.347  91.020  61.404
28878DT     BB187710  41.394  90.653  60.701
28878DT     BB287711  41.431  91.001  60.613
28878DT     BB387712  41.626  91.061  60.644
28878DT     SC187713  41.592  91.066  60.905
28878DT     SC287714  41.596  91.269  60.973
28878DT     SC387715  41.620  91.005  61.160
28879DT     BB187716  41.693  91.069  60.371
28879DT     BB287717  41.772  91.401  60.488
28879DT     BB387718  41.969  91.409  60.551
28879DT     SC187719  41.913  91.277  60.771
28879DT     SC287720  41.931  91.409  60.940
28879DT     SC387721  41.913  91.086  60.952
28880DT     BB187722  42.049  91.556  60.330
28880DT     BB287723  42.149  91.759  60.610
28880DT     BB387724  42.341  91.708  60.669
28880DT     SC187725  42.256  91.486  60.781
28880DT     SC287726  42.274  91.502  60.994
28880DT     SC387727  42.225  91.229  60.828
28881DA     BB187728  42.325  92.125  60.617
28881DA     BB287729  42.476  92.057  60.944
28881DA     BB387730  42.673  91.979  60.920
28881DA     SC187731  42.582  91.682  60.913
28881DA     SC287732  42.599  91.480  61.059
28881DA     SC387733  42.549  91.347  60.846
28881DA     SC487734  42.551  91.616  60.769
28882DT     BB187735  42.821  92.091  60.986
28882DT     BB287736  42.894  91.896  61.280
28882DT     BB387737  43.064  91.782  61.248
28882DT     SC187738  42.933  91.615  61.094
28882DT     SC287739  42.914  91.425  61.194
28882DT     SC387740  42.861  91.480  60.879
28883DC     BB187741  43.199  91.942  61.418
28883DC     BB287742  43.230  91.611  61.559
28883DC     BB387743  43.390  91.513  61.473
28883DC     SC187744  43.256  91.473  61.250
28883DC     SC287745  43.211  91.264  61.230
28883DC     SC387746  43.189  91.487  60.996
28884DT     BB187747  43.516  91.538  61.706
28884DT     BB287748  43.503  91.183  61.644
28884DT     BB387749  43.661  91.127  61.522
28884DT     SC187750  43.545  91.231  61.311
28884DT     SC287751  43.482  91.074  61.179
28884DT     SC387752  43.503  91.388  61.104
28885DA     BB187753  43.635  90.881  61.861
28885DA     BB287754  43.656  90.668  61.563
28885DA     BB387755  43.851  90.678  61.478
28885DA     SC187756  43.783  90.916  61.289
28885DA     SC287757  43.753  90.954  61.044
28885DA     SC387758  43.793  91.202  61.099
28885DA     SC487759  43.811  91.064  61.343
28886DC     BB187760  43.917  90.518  61.489
28886DC     BB287761  43.888  90.436  61.138
28886DC     BB387762  44.067  90.477  61.041
28886DC     SC187763  44.021  90.735  61.049
28886DC     SC287764  43.982  90.807  60.850
28886DC     SC387765  44.050  90.991  61.108
28887DA     BB187766  43.894  90.101  60.953
28887DA     BB287767  43.991  90.266  60.641
28887DA     BB387768  44.203  90.283  60.629
28887DA     SC187769  44.213  90.563  60.765
28887DA     SC287770  44.263  90.798  60.700
28887DA     SC387771  44.300  90.838  60.950
28887DA     SC487772  44.233  90.567  60.924
28888DA     BB187773  44.088  90.155  60.348
28888DA     BB287774  44.257  90.437  60.186
28888DA     BB387775  44.468  90.423  60.212
28888DA     SC187776  44.471  90.587  60.476
28888DA     SC287777  44.550  90.811  60.553
28888DA     SC387778  44.541  90.710  60.789
28888DA     SC487779  44.460  90.506  60.614
28889DT     BB187780  44.540  90.403  60.054
28889DT     BB287781  44.701  90.724  60.029
28889DT     BB387782  44.896  90.712  60.098
28889DT     SC187783  44.815  90.702  60.348
28889DT     SC287784  44.869  90.884  60.448
28889DT     SC387785  44.772  90.610  60.592
28890DT     BB187786  44.985  90.731  59.845
28890DT     BB287787  45.164  90.989  60.022
28890DT     BB387788  45.331  90.909  60.115
28890DT     SC187789  45.184  90.797  60.301
28890DT     SC287790  45.218  90.896  60.489
28890DT     SC387791  45.070  90.610  60.449
28891DA     BB187792  45.541  91.200  59.885
28891DA     BB287793  45.678  91.224  60.224
28891DA     BB387794  45.821  91.070  60.257
28891DA     SC187795  45.614  90.866  60.368
28891DA     SC287796  45.558  90.761  60.587
28891DA     SC387797  45.438  90.582  60.447
28891DA     SC487798  45.546  90.765  60.264
28892DA     BB187799  46.091  91.276  60.337
28892DA     BB287800  46.099  91.130  60.673
28892DA     BB387801  46.220  90.955  60.675
28892DA     SC187802  45.986  90.761  60.609
28892DA     SC287803  45.855  90.583  60.725
28892DA     SC387804  45.792  90.504  60.489
28892DA     SC487805  45.959  90.727  60.454
28893DA     BB187806  46.426  91.074  60.919
28893DA     BB287807  46.307  90.805  61.138
28893DA     BB387808  46.423  90.628  61.108
28893DA     SC187809  46.237  90.514  60.887
28893DA     SC287810  46.076  90.325  60.860
28893DA     SC387811  46.110  90.359  60.608
28893DA     SC487812  46.272  90.550  60.734
28894DG     BB187813  46.519  90.641  61.409
28894DG     BB287814  46.321  90.340  61.441
28894DG     BB387815  46.434  90.181  61.402
28894DG     SC187816  46.373  90.180  61.102
28894DG     SC287817  46.219  89.972  60.955
28894DG     SC387818  46.344  90.162  60.767
28894DG     SC487819  46.466  90.266  61.004
28895DT     BB187820  46.469  90.026  61.559
28895DT     BB287821  46.246  89.766  61.445
28895DT     BB387822  46.354  89.611  61.362
28895DT     SC187823  46.403  89.750  61.145
28895DT     SC287824  46.295  89.665  60.980
28895DT     SC387825  46.537  89.880  60.959
28896DT     BB187826  46.272  89.482  61.576
28896DT     BB287827  46.149  89.291  61.295
28896DT     BB387828  46.298  89.166  61.224
28896DT     SC187829  46.425  89.367  61.112
28896DT     SC287830  46.411  89.350  60.898
28896DT     SC387831  46.614  89.543  61.061
28897DT     BB187832  46.138  88.985  61.321
28897DT     BB287833  46.182  88.897  60.974
28897DT     BB387834  46.361  88.795  60.950
28897DT     SC187835  46.500  89.017  60.976
28897DT     SC287836  46.588  89.068  60.787
28897DT     SC387837  46.669  89.193  61.075
28898DT     BB187838  46.205  88.589  60.905
28898DT     BB287839  46.420  88.606  60.616
28898DT     BB387840  46.601  88.516  60.657
28898DT     SC187841  46.678  88.720  60.804
28898DT     SC287842  46.836  88.825  60.703
28898DT     SC387843  46.752  88.860  61.015
28899DA     BB187844  46.468  88.336  60.302
28899DA     BB287845  46.823  88.417  60.257
28899DA     BB387846  46.944  88.282  60.369
28899DA     SC187847  46.948  88.461  60.624
28899DA     SC287848  47.113  88.600  60.749
28899DA     SC387849  46.951  88.578  60.947
28899DA     SC487850  46.835  88.435  60.735
28900DT     BB187851  47.083  88.116  60.287
28900DT     BB287852  47.398  88.273  60.364
28900DT     BB387853  47.492  88.171  60.518
28900DT     SC187854  47.328  88.272  60.696
28900DT     SC287855  47.434  88.411  60.821
28900DT     SC387856  47.142  88.286  60.882
28901DT     BB187857  47.706  88.002  60.378
28901DT     BB287858  47.899  88.178  60.627
28901DT     BB387859  47.927  88.058  60.793
28901DT     SC187860  47.679  88.094  60.870
28901DT     SC287861  47.676  88.214  61.049
28901DT     SC387862  47.428  88.042  60.933
28902DA     BB187863  48.339  88.124  60.712
28902DA     BB287864  48.291  88.202  61.067
28902DA     BB387865  48.294  88.023  61.183
28902DA     SC187866  47.987  87.977  61.165
28902DA     SC287867  47.789  87.986  61.316
28902DA     SC387868  47.673  87.839  61.141
28902DA     SC487869  47.933  87.885  61.045
28903DA     BB187870  48.541  88.152  61.366
28903DA     BB287871  48.313  88.149  61.653
28903DA     BB387872  48.313  87.957  61.746
28903DA     SC187873  48.078  87.848  61.574
28903DA     SC287874  47.839  87.783  61.607
28903DA     SC387875  47.867  87.650  61.389
28903DA     SC487876  48.115  87.770  61.438
28904DA     BB187877  48.385  88.135  62.009
28904DA     BB287878  48.066  88.022  62.150
28904DA     BB387879  48.085  87.823  62.226
28904DA     SC187880  48.001  87.687  61.959
28904DA     SC287881  47.807  87.557  61.871
28904DA     SC387882  47.970  87.476  61.690
28904DA     SC487883  48.118  87.647  61.856
28905DA     BB187884  47.959  87.989  62.474
28905DA     BB287885  47.672  87.764  62.450
28905DA     BB387886  47.723  87.570  62.525
28905DA     SC187887  47.815  87.461  62.249
28905DA     SC287888  47.737  87.295  62.080
28905DA     SC387889  47.979  87.298  61.995
28905DA     SC487890  47.971  87.476  62.211
28906DA     BB187891  47.450  87.653  62.681
28906DA     BB287892  47.303  87.351  62.535
28906DA     BB387893  47.386  87.176  62.626
28906DA     SC187894  47.617  87.149  62.420
28906DA     SC287895  47.683  86.995  62.235
28906DA     SC387896  47.919  87.091  62.265
28906DA     SC487897  47.757  87.220  62.455
28907DT     BB187898  47.260  87.076  62.724
28907DT     BB287899  47.233  86.796  62.500
28907DT     BB387900  47.346  86.638  62.570
28907DT     SC187901  47.569  86.755  62.496
28907DT     SC287902  47.655  86.647  62.331
28907DT     SC387903  47.806  86.870  62.512
28908DT     BB187904  47.120  86.503  62.642
28908DT     BB287905  47.296  86.270  62.430
28908DT     BB387906  47.430  86.159  62.543
28908DT     SC187907  47.595  86.363  62.562
28908DT     SC287908  47.772  86.322  62.447
28908DT     SC387909  47.738  86.556  62.669
28909DT     BB187910  47.276  85.923  62.541
28909DT     BB287911  47.597  85.815  62.416
28909DT     BB387912  47.717  85.752  62.573
28909DT     SC187913  47.759  86.000  62.649
28909DT     SC287914  47.965  86.052  62.611
28909DT     SC387915  47.759  86.217  62.799
28910DT     BB187916  47.695  85.471  62.524
28910DT     BB287917  48.051  85.529  62.524
28910DT     BB387918  48.128  85.499  62.714
28910DT     SC187919  48.028  85.727  62.798
28910DT     SC287920  48.188  85.865  62.836
28910DT     SC387921  47.881  85.898  62.936
28911DA     BB187922  48.364  85.249  62.473
28911DA     BB287923  48.592  85.448  62.679
28911DA     BB387924  48.597  85.374  62.879
28911DA     SC187925  48.366  85.557  62.979
28911DA     SC287926  48.338  85.753  63.130
28911DA     SC387927  48.091  85.685  63.139
28911DA     SC487928  48.216  85.498  62.972
28912DT     BB187929  48.772  85.283  62.961
28912DT     BB287930  48.866  85.560  63.171
28912DT     BB387931  48.830  85.514  63.370
28912DT     SC187932  48.572  85.545  63.339
28912DT     SC287933  48.508  85.720  63.445
28912DT     SC387934  48.314  85.488  63.329
28913DT     BB187935  49.100  85.485  63.426
28913DT     BB287936  48.988  85.737  63.658
28913DT     BB387937  48.920  85.648  63.832
28913DT     SC187938  48.699  85.568  63.715
28913DT     SC287939  48.532  85.679  63.794
28913DT     SC387940  48.513  85.408  63.617
28914DT     BB187941  49.141  85.729  63.977
28914DT     BB287942  48.861  85.868  64.157
28914DT     BB387943  48.792  85.731  64.297
28914DT     SC187944  48.680  85.584  64.110
28914DT     SC287945  48.466  85.598  64.128
28914DT     SC387946  48.629  85.378  63.955
28915DT     BB187947  48.896  85.875  64.512
28915DT     BB287948  48.542  85.850  64.582
28915DT     BB387949  48.504  85.679  64.691
28915DT     SC187950  48.536  85.527  64.479
28915DT     SC287951  48.346  85.445  64.421
28915DT     SC387952  48.636  85.345  64.317
28916DA     BB187953  48.331  86.001  64.894
28916DA     BB287954  48.075  85.742  64.853
28916DA     BB387955  48.111  85.580  64.987
28916DA     SC187956  48.287  85.421  64.785
28916DA     SC287957  48.270  85.211  64.651
28916DA     SC387958  48.526  85.223  64.638
28916DA     SC487959  48.446  85.445  64.790
28917DA     BB187960  47.805  85.666  65.038
28917DA     BB287961  47.719  85.329  64.923
28917DA     BB387962  47.772  85.184  65.070
28917DA     SC187963  48.058  85.137  64.956
28917DA     SC287964  48.182  84.956  64.838
28917DA     SC387965  48.393  85.077  64.919
28917DA     SC487966  48.177  85.226  65.017
28918DT     BB187967  47.623  85.117  65.108
28918DT     BB287968  47.674  84.804  64.936
28918DT     BB387969  47.750  84.663  65.066
28918DT     SC187970  47.987  84.775  65.062
28918DT     SC287971  48.125  84.646  64.959
28918DT     SC387972  48.204  84.899  65.145
28919DT     BB187973  47.523  84.593  64.981
28919DT     BB287974  47.754  84.332  64.890
28919DT     BB387975  47.815  84.229  65.060
28919DT     SC187976  47.971  84.427  65.133
28919DT     SC287977  48.176  84.368  65.113
28919DT     SC387978  48.069  84.626  65.276
28920DA     BB187979  47.726  84.020  64.692
28920DA     BB287980  48.028  83.881  64.848
28920DA     BB387981  47.983  83.804  65.041
28920DA     SC187982  48.043  84.071  65.189
28920DA     SC287983  48.215  84.160  65.346
28920DA     SC387984  48.040  84.338  65.405
28920DA     SC487985  47.920  84.172  65.213
28921DC     BB187986  48.018  83.644  65.020
28921DC     BB287987  48.297  83.622  65.248
28921DC     BB387988  48.229  83.585  65.440
28921DC     SC187989  48.147  83.833  65.467
28921DC     SC287990  48.271  83.934  65.610
28921DC     SC387991  47.984  84.038  65.500
28922DA     BB187992  48.519  83.287  65.368
28922DA     BB287993  48.573  83.417  65.707
28922DA     BB387994  48.418  83.350  65.837
28922DA     SC187995  48.235  83.596  65.785
28922DA     SC287996  48.155  83.796  65.911
28922DA     SC387997  47.967  83.805  65.736
28922DA     SC487998  48.126  83.584  65.668
28923DA     BB187999  48.646  83.213  66.048
28923DA     BB288000  48.520  83.433  66.313
28923DA     BB388001  48.340  83.353  66.396
28923DA     SC188002  48.153  83.504  66.198
28923DA     SC288003  47.988  83.691  66.207
28923DA     SC388004  47.898  83.594  65.987
28923DA     SC488005  48.111  83.428  66.063
28924DC     BB188006  48.305  83.261  66.612
28924DC     BB288007  48.120  83.541  66.746
28924DC     BB388008  47.923  83.486  66.777
28924DC     SC188009  47.871  83.495  66.520
28924DC     SC288010  47.742  83.662  66.479
28924DC     SC388011  47.805  83.416  66.278
28925DA     BB188012  48.032  83.626  67.159
28925DA     BB288013  47.719  83.794  67.069
28925DA     BB388014  47.554  83.662  67.096
28925DA     SC188015  47.564  83.551  66.805
28925DA     SC288016  47.426  83.564  66.598
28925DA     SC388017  47.550  83.351  66.527
28925DA     SC488018  47.651  83.418  66.780
28926DA     BB188019  47.433  83.903  67.286
28926DA     BB288020  47.157  83.931  67.047
28926DA     BB388021  47.014  83.775  67.080
28926DA     SC188022  47.149  83.577  66.882
28926DA     SC288023  47.100  83.475  66.660
28926DA     SC388024  47.271  83.296  66.726
28926DA     SC488025  47.258  83.474  66.942
28927DA     BB188026  46.812  84.033  67.096
28927DA     BB288027  46.641  83.892  66.804
28927DA     BB388028  46.519  83.726  66.862
28927DA     SC188029  46.743  83.515  66.818
28927DA     SC288030  46.793  83.329  66.659
28927DA     SC388031  46.951  83.243  66.841
28927DA     SC488032  46.835  83.477  66.944
28928DT     BB188033  46.324  83.749  66.841
28928DT     BB288034  46.288  83.537  66.551
28928DT     BB388035  46.207  83.355  66.606
28928DT     SC188036  46.434  83.277  66.712
28928DT     SC288037  46.518  83.119  66.592
28928DT     SC388038  46.610  83.199  66.892
28929DT     BB188039  45.976  83.426  66.486
28929DT     BB288040  46.072  83.117  66.325
28929DT     BB388041  46.003  82.956  66.435
28929DT     SC188042  46.187  82.991  66.618
28929DT     SC288043  46.329  82.829  66.608
28929DT     SC388044  46.299  83.041  66.852
28930DG     BB188045  45.844  82.919  66.060
28930DG     BB288046  46.014  82.617  66.162
28930DG     BB388047  45.899  82.513  66.287
28930DG     SC188048  46.007  82.650  66.539
28930DG     SC288049  46.169  82.520  66.753
28930DG     SC388050  46.088  82.793  66.833
28930DG     SC488051  45.937  82.784  66.590
28931DG     BB188052  45.905  82.254  66.083
28931DG     BB288053  46.074  82.076  66.349
28931DG     BB388054  45.941  82.001  66.475
28931DG     SC188055  45.934  82.249  66.655
28931DG     SC288056  46.031  82.264  66.937
28931DG     SC388057  45.887  82.511  66.862
28931DG     SC488058  45.831  82.367  66.621
28932DT     BB188059  45.922  81.782  66.506
28932DT     BB288060  46.079  81.743  66.829
28932DT     BB388061  45.934  81.713  66.974
28932DT     SC188062  45.866  81.967  66.969
28932DT     SC288063  45.927  82.061  67.152
28932DT     SC388064  45.720  82.184  66.935
28933DG     BB188065  46.189  81.396  66.985
28933DG     BB288066  46.151  81.547  67.312
28933DG     BB388067  45.979  81.490  67.393
28933DG     SC188068  45.819  81.723  67.275
28933DG     SC288069  45.694  81.946  67.430
28933DG     SC388070  45.609  81.954  67.146
28933DG     SC488071  45.753  81.706  67.130
28934DT     BB188072  45.984  81.380  67.576
28934DT     BB288073  45.876  81.628  67.815
28934DT     BB388074  45.677  81.597  67.863
28934DT     SC188075  45.598  81.695  67.633
28934DT     SC288076  45.500  81.883  67.665
28934DT     SC388077  45.488  81.708  67.393
28935DT     BB188078  45.758  81.512  68.104
28935DT     BB288079  45.529  81.782  68.174
28935DT     BB388080  45.335  81.711  68.176
28935DT     SC188081  45.331  81.693  67.915
28935DT     SC288082  45.197  81.841  67.835
28935DT     SC388083  45.316  81.587  67.674
28936DT     BB188084  45.330  81.740  68.445
28936DT     BB288085  45.049  81.934  68.328
28936DT     BB388086  44.883  81.812  68.306
28936DT     SC188087  44.981  81.705  68.087
28936DT     SC288088  44.864  81.769  67.918
28936DT     SC388089  45.076  81.524  67.920
28937DA     BB188090  44.757  82.133  68.546
28937DA     BB288091  44.508  82.088  68.280
28937DA     BB388092  44.390  81.915  68.318
28937DA     SC188093  44.576  81.723  68.159
28937DA     SC288094  44.569  81.592  67.947
28937DA     SC388095  44.758  81.453  68.050
28937DA     SC488096  44.692  81.647  68.241
28938DT     BB188097  44.181  81.927  68.366
28938DT     BB288098  44.056  81.811  68.048
28938DT     BB388099  43.981  81.619  68.067
28938DT     SC188100  44.222  81.517  68.081
28938DT     SC288101  44.262  81.404  67.903
28938DT     SC388102  44.433  81.392  68.177
28939DA     BB188103  43.671  81.840  67.891
28939DA     BB288104  43.717  81.535  67.692
28939DA     BB388105  43.635  81.367  67.794
28939DA     SC188106  43.900  81.297  67.941
28939DA     SC288107  44.073  81.117  67.934
28939DA     SC388108  44.135  81.196  68.170
28939DA     SC488109  43.923  81.360  68.087
28940DA     BB188110  43.471  81.329  67.512
28940DA     BB288111  43.643  81.008  67.476
28940DA     BB388112  43.554  80.862  67.604
28940DA     SC188113  43.743  80.922  67.844
28940DA     SC288114  43.929  80.809  67.966
28940DA     SC388115  43.875  80.971  68.157
28940DA     SC488116  43.693  81.030  67.952
28941DA     BB188117  43.540  80.703  67.318
28941DA     BB288118  43.756  80.450  67.471
28941DA     BB388119  43.645  80.330  67.608
28941DA     SC188120  43.705  80.512  67.854
28941DA     SC288121  43.837  80.500  68.064
28941DA     SC388122  43.685  80.689  68.147
28941DA     SC488123  43.599  80.628  67.887
28942DT     BB188124  43.626  80.142  67.560
28942DT     BB288125  43.859  80.010  67.802
28942DT     BB388126  43.756  79.928  67.961
28942DT     SC188127  43.696  80.165  68.056
28942DT     SC288128  43.804  80.199  68.239
28942DT     SC388129  43.552  80.373  68.132
28943DC     BB188130  43.827  79.681  67.876
28943DC     BB288131  43.951  79.700  68.214
28943DC     BB388132  43.802  79.646  68.348
28943DC     SC188133  43.678  79.875  68.314
28943DC     SC288134  43.695  79.992  68.494
28943DC     SC388135  43.491  80.048  68.248
28944DA     BB188136  44.137  79.411  68.441
28944DA     BB288137  44.016  79.562  68.752
28944DA     BB388138  43.836  79.467  68.815
28944DA     SC188139  43.649  79.663  68.661
28944DA     SC288140  43.487  79.844  68.716
28944DA     SC388141  43.394  79.804  68.480
28944DA     SC488142  43.605  79.622  68.512
28945DT     BB188143  43.834  79.356  68.990
28945DT     BB288144  43.656  79.599  69.189
28945DT     BB388145  43.462  79.536  69.220
28945DT     SC188146  43.394  79.596  68.974
28945DT     SC288147  43.261  79.765  68.976
28945DT     SC388148  43.313  79.567  68.725
28946DA     BB188149  43.632  79.634  69.590
28946DA     BB288150  43.311  79.808  69.562
28946DA     BB388151  43.149  79.670  69.583
28946DA     SC188152  43.129  79.609  69.279
28946DA     SC288153  42.970  79.654  69.092
28946DA     SC388154  43.087  79.458  68.973
28946DA     SC488155  43.213  79.484  69.222
28947DG     BB188156  43.098  79.867  69.811
28947DG     BB288157  42.804  79.940  69.613
28947DG     BB388158  42.667  79.800  69.641
28947DG     SC188159  42.767  79.621  69.414
28947DG     SC288160  42.620  79.560  69.161
28947DG     SC388161  42.862  79.392  69.185
28947DG     SC488162  42.881  79.512  69.445
28948DA     BB188163  42.498  80.095  69.677
28948DA     BB288164  42.274  79.987  69.407
28948DA     BB388165  42.155  79.822  69.470
28948DA     SC188166  42.357  79.607  69.373
28948DA     SC288167  42.371  79.434  69.193
28948DA     SC388168  42.552  79.326  69.339
28948DA     SC488169  42.466  79.554  69.478
28949DC     BB188170  42.007  79.890  69.454
28949DC     BB288171  41.897  79.697  69.170
28949DC     BB388172  41.808  79.521  69.234
28949DC     SC188173  42.041  79.416  69.294
28949DC     SC288174  42.085  79.257  69.156
28949DC     SC388175  42.237  79.313  69.436
28950DA     BB188176  41.597  79.733  68.930
28950DA     BB288177  41.602  79.375  68.849
28950DA     BB388178  41.493  79.265  68.995
28950DA     SC188179  41.740  79.214  69.177
28950DA     SC288180  41.883  79.022  69.245
28950DA     SC388181  41.950  79.168  69.445
28950DA     SC488182  41.768  79.320  69.295
28951DA     BB188183  41.339  79.151  68.724
28951DA     BB288184  41.431  78.813  68.834
28951DA     BB388185  41.312  78.755  69.002
28951DA     SC188186  41.513  78.865  69.213
28951DA     SC288187  41.670  78.774  69.384
28951DA     SC388188  41.658  79.007  69.490
28951DA     SC488189  41.491  79.016  69.264
28952DT     BB188190  41.154  78.599  69.000
28952DT     BB288191  41.329  78.350  69.194
28952DT     BB388192  41.243  78.334  69.382
28952DT     SC188193  41.351  78.560  69.459
28952DT     SC288194  41.503  78.520  69.606
28952DT     SC388195  41.371  78.810  69.543
28953DT     BB188196  41.099  78.086  69.344
28953DT     BB288197  41.296  78.020  69.639
28953DT     BB388198  41.186  78.064  69.809
28953DT     SC188199  41.215  78.322  69.770
28953DT     SC288200  41.344  78.403  69.923
28953DT     SC388201  41.154  78.575  69.724
28954DT     BB188202  41.133  77.795  69.886
28954DT     BB288203  41.292  77.937  70.177
28954DT     BB388204  41.149  78.012  70.306
28954DT     SC188205  41.107  78.219  70.152
28954DT     SC288206  41.181  78.397  70.248
28954DT     SC388207  40.983  78.389  69.992
28955DT     BB188208  41.181  77.805  70.490
28955DT     BB288209  41.243  78.103  70.683
28955DT     BB388210  41.066  78.172  70.766
28955DT     SC188211  40.984  78.264  70.534
28955DT     SC288212  40.984  78.479  70.539
28955DT     SC388213  40.838  78.293  70.316
28956DA     BB188214  41.347  78.144  71.075
28956DA     BB288215  41.189  78.474  71.097
28956DA     BB388216  40.991  78.456  71.173
28956DA     SC188217  40.860  78.426  70.892
28956DA     SC288218  40.713  78.560  70.741
28956DA     SC388219  40.662  78.337  70.627
28956DA     SC488220  40.840  78.277  70.835
28957DA     BB188221  41.103  78.679  71.387
28957DA     BB288222  40.838  78.903  71.268
28957DA     BB388223  40.649  78.843  71.347
28957DA     SC188224  40.582  78.656  71.107
28957DA     SC288225  40.422  78.651  70.916
28957DA     SC388226  40.469  78.399  70.909
28957DA     SC488227  40.624  78.501  71.120
28958DA     BB188228  40.626  79.155  71.459
28958DA     BB288229  40.322  79.191  71.257
28958DA     BB388230  40.157  79.096  71.353
28958DA     SC188231  40.203  78.822  71.214
28958DA     SC288232  40.090  78.681  71.042
28958DA     SC388233  40.226  78.487  71.140
28958DA     SC488234  40.295  78.714  71.290
28959DA     BB188235  39.980  79.385  71.347
28959DA     BB288236  39.729  79.216  71.140
28959DA     BB388237  39.597  79.102  71.262
28959DA     SC188238  39.767  78.842  71.246
28959DA     SC288239  39.749  78.616  71.143
28959DA     SC388240  39.926  78.546  71.315
28959DA     SC488241  39.876  78.818  71.362
28960DA     BB188242  39.315  79.263  71.150
28960DA     BB288243  39.199  78.945  71.010
28960DA     BB388244  39.096  78.832  71.158
28960DA     SC188245  39.351  78.682  71.256
28960DA     SC288246  39.444  78.451  71.247
28960DA     SC388247  39.591  78.525  71.444
28960DA     SC488248  39.433  78.747  71.378
28961DC     BB188249  38.858  78.774  71.172
28961DC     BB288250  38.901  78.433  71.062
28961DC     BB388251  38.851  78.302  71.215
28961DC     SC188252  39.074  78.355  71.344
28961DC     SC288253  39.202  78.183  71.338
28961DC     SC388254  39.237  78.439  71.533
28962DC     BB188255  38.614  78.221  71.093
28962DC     BB288256  38.804  77.917  71.129
28962DC     BB388257  38.759  77.827  71.310
28962DC     SC188258  38.900  78.004  71.442
28962DC     SC288259  39.076  77.910  71.523
28962DC     SC388260  38.959  78.200  71.609
28963DG     BB188261  38.692  77.570  71.003
28963DG     BB288262  38.915  77.428  71.250
28963DG     BB388263  38.811  77.368  71.409
28963DG     SC188264  38.831  77.636  71.555
28963DG     SC288265  38.980  77.687  71.809
28963DG     SC388266  38.815  77.922  71.734
28963DG     SC488267  38.719  77.748  71.528
28964DA     BB188268  38.999  77.088  71.348
28964DA     BB288269  39.135  77.112  71.688
28964DA     BB388270  38.986  77.059  71.831
28964DA     SC188271  38.881  77.350  71.866
28964DA     SC288272  38.883  77.527  72.041
28964DA     SC388273  38.686  77.628  71.913
28964DA     SC488274  38.759  77.396  71.773
28965DA     BB188275  39.241  76.871  71.912
28965DA     BB288276  39.226  77.032  72.241
28965DA     BB388277  39.053  76.966  72.349
28965DA     SC188278  38.870  77.193  72.242
28965DA     SC288279  38.757  77.397  72.332
28965DA     SC388280  38.604  77.378  72.127
28965DA     SC488281  38.784  77.164  72.109
28966DT     BB188282  39.084  76.857  72.511
28966DT     BB288283  38.989  77.106  72.755
28966DT     BB388284  38.799  77.065  72.827
28966DT     SC188285  38.688  77.149  72.605
28966DT     SC288286  38.583  77.333  72.643
28966DT     SC388287  38.551  77.147  72.380
28967DT     BB188288  38.889  76.971  73.075
28967DT     BB288289  38.653  77.229  73.163
28967DT     BB388290  38.464  77.148  73.182
28967DT     SC188291  38.438  77.127  72.921
28967DT     SC288292  38.291  77.267  72.852
28967DT     SC388293  38.410  77.018  72.683
28968DG     BB188294  38.519  77.292  73.563
28968DG     BB288295  38.206  77.412  73.428
28968DG     BB388296  38.064  77.275  73.453
28968DG     SC188297  38.118  77.135  73.186
28968DG     SC288298  37.932  77.126  72.952
28968DG     SC388299  38.163  76.945  72.911
28968DG     SC488300  38.227  77.017  73.181
28969DC     BB188301  37.859  77.291  73.592
28969DC     BB288302  37.614  77.346  73.333
28969DC     BB388303  37.493  77.179  73.313
28969DC     SC188304  37.683  77.045  73.192
28969DC     SC288305  37.629  77.017  72.985
28969DC     SC388306  37.864  76.860  73.144
28970DG     BB188307  37.243  77.488  73.401
28970DG     BB288308  37.143  77.320  73.097
28970DG     BB388309  37.041  77.155  73.140
28970DG     SC188310  37.289  76.976  73.149
28970DG     SC288311  37.354  76.755  72.958
28970DG     SC388312  37.541  76.754  73.187
28970DG     SC488313  37.369  76.960  73.287
28971DA     BB188314  36.821  77.292  72.919
28971DA     BB288315  36.856  76.996  72.705
28971DA     BB388316  36.753  76.830  72.791
28971DA     SC188317  36.999  76.729  72.952
28971DA     SC288318  37.156  76.535  72.947
28971DA     SC388319  37.207  76.596  73.191
28971DA     SC488320  37.016  76.782  73.103
28972DA     BB188321  36.649  76.852  72.483
28972DA     BB288322  36.780  76.511  72.443
28972DA     BB388323  36.660  76.373  72.552
28972DA     SC188324  36.828  76.394  72.812
28972DA     SC288325  36.985  76.250  72.943
28972DA     SC388326  36.933  76.408  73.139
28972DA     SC488327  36.783  76.502  72.922
28973DT     BB188328  36.572  76.252  72.441
28973DT     BB288329  36.769  75.961  72.521
28973DT     BB388330  36.669  75.844  72.660
28973DT     SC188331  36.725  76.012  72.854
28973DT     SC288332  36.866  75.922  72.989
28973DT     SC388333  36.690  76.188  73.047
28974DA     BB188334  36.775  75.589  72.343
28974DA     BB288335  36.870  75.423  72.657
28974DA     BB388336  36.696  75.353  72.759
28974DA     SC188337  36.657  75.615  72.923
28974DA     SC288338  36.678  75.689  73.160
28974DA     SC388339  36.526  75.884  73.091
28974DA     SC488340  36.561  75.728  72.861
28975DT     BB188341  36.652  75.143  72.785
28975DT     BB288342  36.733  75.125  73.136
28975DT     BB388343  36.560  75.106  73.248
28975DT     SC188344  36.499  75.359  73.211
28975DT     SC288345  36.520  75.465  73.397
28975DT     SC388346  36.368  75.573  73.132
28976DT     BB188347  36.598  74.834  73.310
28976DT     BB288348  36.572  74.994  73.632
28976DT     BB388349  36.374  74.996  73.694
28976DT     SC188350  36.314  75.187  73.524
28976DT     SC288351  36.273  75.368  73.633
28976DT     SC388352  36.202  75.313  73.322
28977DT     BB188353  36.418  74.802  73.886
28977DT     BB288354  36.293  75.085  74.071
28977DT     BB388355  36.086  75.077  74.082
28977DT     SC188356  36.062  75.150  73.831
28977DT     SC288357  35.980  75.349  73.823
28977DT     SC388358  36.001  75.141  73.575
28978DT     BB188359  36.121  75.024  74.340
28978DT     BB288360  35.926  75.328  74.330
28978DT     BB388361  35.725  75.282  74.309
28978DT     SC188362  35.757  75.220  74.056
28978DT     SC288363  35.660  75.368  73.933
28978DT     SC388364  35.764  75.077  73.834
28979DT     BB188365  35.729  75.381  74.547
28979DT     BB288366  35.502  75.587  74.357
28979DT     BB388367  35.319  75.492  74.337
28979DT     SC188368  35.416  75.326  74.159
28979DT     SC288369  35.330  75.369  73.967
28979DT     SC388370  35.492  75.100  74.046
28980DA     BB188371  35.309  75.903  74.443
28980DA     BB288372  35.066  75.840  74.176
28980DA     BB388373  34.910  75.713  74.247
28980DA     SC188374  35.053  75.450  74.161
28980DA     SC288375  35.024  75.271  73.990
28980DA     SC388376  35.173  75.129  74.143
28980DA     SC488377  35.147  75.377  74.270
28981DT     BB188378  34.753  75.802  74.247
28981DT     BB288379  34.594  75.625  73.975
28981DT     BB388380  34.471  75.476  74.050
28981DT     SC188381  34.678  75.325  74.109
28981DT     SC288382  34.682  75.155  73.979
28981DT     SC388383  34.852  75.188  74.252
28982DA     BB188384  34.245  75.703  73.779
28982DA     BB288385  34.184  75.348  73.708
28982DA     BB388386  34.064  75.262  73.862
28982DA     SC188387  34.307  75.173  74.035
28982DA     SC288388  34.418  74.960  74.101
28982DA     SC388389  34.519  75.096  74.294
28982DA     SC488390  34.359  75.274  74.148
28983DA     BB188391  33.874  75.172  73.607
28983DA     BB288392  33.924  74.824  73.713
28983DA     BB388393  33.807  74.781  73.886
28983DA     SC188394  34.029  74.862  74.087
28983DA     SC288395  34.180  74.749  74.251
28983DA     SC388396  34.204  74.981  74.358
28983DA     SC488397  34.030  75.014  74.140
28984DT     BB188398  33.644  74.648  73.878
28984DT     BB288399  33.796  74.376  74.060
28984DT     BB388400  33.713  74.363  74.249
28984DT     SC188401  33.847  74.574  74.330
28984DT     SC288402  33.997  74.513  74.472
28984DT     SC388403  33.896  74.817  74.420
28985DA     BB188404  33.672  73.976  74.091
28985DA     BB288405  33.809  73.941  74.430
28985DA     BB388406  33.657  73.975  74.575
28985DA     SC188407  33.713  74.281  74.597
28985DA     SC288408  33.808  74.440  74.764
28985DA     SC388409  33.684  74.621  74.631
28985DA     SC488410  33.628  74.379  74.502
28986DC     BB188411  33.578  73.820  74.705
28986DC     BB288412  33.732  73.930  75.012
28986DC     BB388413  33.590  74.012  75.137
28986DC     SC188414  33.577  74.231  74.992
28986DC     SC288415  33.662  74.395  75.102
28986DC     SC388416  33.479  74.419  74.835
28987DA     BB188417  33.748  73.717  75.396
28987DA     BB288418  33.732  74.028  75.591
28987DA     BB388419  33.532  74.064  75.656
28987DA     SC188420  33.455  74.231  75.405
28987DA     SC288421  33.403  74.469  75.350
28987DA     SC388422  33.289  74.374  75.140
28987DA     SC488423  33.388  74.153  75.281
28988DT     BB188424  33.413  74.054  75.892
28988DT     BB288425  33.385  74.411  75.936
28988DT     BB388426  33.185  74.466  75.939
28988DT     SC188427  33.164  74.434  75.680
28988DT     SC288428  33.140  74.626  75.586
28988DT     SC388429  33.085  74.338  75.447
28989DT     BB188430  33.087  74.513  76.247
28989DT     BB288431  33.002  74.827  76.090
28989DT     BB388432  32.799  74.832  76.048
28989DT     SC188433  32.829  74.668  75.846
28989DT     SC288434  32.794  74.774  75.662
28989DT     SC388435  32.806  74.452  75.696
28990DA     BB188436  32.777  75.182  76.300
28990DA     BB288437  32.636  75.279  75.976
28990DA     BB388438  32.428  75.231  75.968
28990DA     SC188439  32.473  74.947  75.850
28990DA     SC288440  32.434  74.829  75.634
28990DA     SC388441  32.451  74.614  75.772
28990DA     SC488442  32.486  74.825  75.953
28991DG     BB188443  32.360  75.538  75.935
28991DG     BB288444  32.283  75.433  75.597
28991DG     BB388445  32.091  75.385  75.583
28991DG     SC188446  32.134  75.091  75.657
28991DG     SC288447  32.093  74.857  75.476
28991DG     SC388448  32.141  74.768  75.754
28991DG     SC488449  32.130  75.049  75.811
28992DT     BB188450  31.990  75.496  75.444
28992DT     BB288451  31.977  75.260  75.172
28992DT     BB388452  31.789  75.173  75.162
28992DT     SC188453  31.840  75.023  75.372
28992DT     SC288454  31.858  74.818  75.310
28992DT     SC388455  31.823  74.922  75.615
28993DA     BB188456  31.962  75.311  74.802
28993DA     BB288457  31.846  74.966  74.757
28993DA     BB388458  31.633  74.957  74.768
28993DA     SC188459  31.627  74.907  75.075
28993DA     SC288460  31.570  74.720  75.230
28993DA     SC388461  31.545  74.903  75.408
28993DA     SC488462  31.615  75.035  75.171
28994DT     BB188463  31.600  74.901  74.617
28994DT     BB288464  31.500  74.568  74.715
28994DT     BB388465  31.296  74.565  74.754
28994DT     SC188466  31.331  74.689  74.983
28994DT     SC288467  31.290  74.554  75.145
28994DT     SC388468  31.315  74.876  75.169
28995DA     BB188469  31.423  74.249  74.505
28995DA     BB288470  31.208  74.113  74.768
28995DA     BB388471  31.007  74.180  74.741
28995DA     SC188472  31.043  74.434  74.918
28995DA     SC288473  30.964  74.517  75.140
28995DA     SC388474  31.026  74.750  75.052
28995DA     SC488475  31.086  74.570  74.845
28996DG     BB188476  30.969  73.874  74.729
28996DG     BB288477  30.770  73.936  75.024
28996DG     BB388478  30.593  74.011  74.972
28996DG     SC188479  30.686  74.303  74.983
28996DG     SC288480  30.594  74.509  75.178
28996DG     SC388481  30.759  74.631  74.965
28996DG     SC488482  30.750  74.368  74.851
28997DT     BB188483  30.414  73.901  75.018
28997DT     BB288484  30.275  74.096  75.289
28997DT     BB388485  30.121  74.215  75.218
28997DT     SC188486  30.291  74.380  75.104
28997DT     SC288487  30.290  74.568  75.209
28997DT     SC388488  30.418  74.514  74.916
28998DT     BB188489  29.946  74.056  75.346
28998DT     BB288490  29.881  74.386  75.476
28998DT     BB388491  29.751  74.487  75.351
28998DT     SC188492  29.939  74.526  75.172
28998DT     SC288493  29.989  74.735  75.166
28998DT     SC388494  30.072  74.514  74.945
28999DA     BB188495  29.607  74.511  75.744
28999DA     BB288496  29.601  74.848  75.599
28999DA     BB388497  29.447  74.863  75.453
28999DA     SC188498  29.629  74.777  75.216
28999DA     SC288499  29.730  74.882  75.014
28999DA     SC388500  29.753  74.642  74.926
28999DA     SC488501  29.633  74.621  75.179
29000DC     BB188502  29.310  74.984  75.500
29000DC     BB288503  29.396  75.246  75.267
29000DC     BB388504  29.273  75.236  75.101
29000DC     SC188505  29.399  75.026  75.009
29000DC     SC288506  29.509  75.081  74.832
29000DC     SC388507  29.445  74.778  74.929
29001DA     BB188508  29.265  75.631  75.244
29001DA     BB288509  29.319  75.643  74.882
29001DA     BB388510  29.140  75.591  74.778
29001DA     SC188511  29.206  75.287  74.766
29001DA     SC288512  29.268  75.119  74.593
29001DA     SC388513  29.188  74.944  74.763
29001DA     SC488514  29.150  75.194  74.885
29002DT     BB188515  29.053  75.733  74.671
29002DT     BB288516  29.142  75.605  74.346
29002DT     BB388517  28.978  75.512  74.259
29002DT     SC188518  29.003  75.304  74.417
29002DT     SC288519  29.067  75.134  74.301
29002DT     SC388520  28.946  75.125  74.602
29003DA     BB188521  29.130  75.787  73.980
29003DA     BB288522  29.079  75.467  73.808
29003DA     BB388523  28.870  75.431  73.780
29003DA     SC188524  28.836  75.278  74.048
29003DA     SC288525  28.792  75.044  74.123
29003DA     SC388526  28.716  75.151  74.344
29003DA     SC488527  28.791  75.363  74.177
29004DT     BB188528  28.800  75.429  73.592
29004DT     BB288529  28.749  75.073  73.565
29004DT     BB388530  28.548  75.029  73.583
29004DT     SC188531  28.553  75.071  73.842
29004DT     SC288532  28.528  74.884  73.945
29004DT     SC388533  28.501  75.179  74.077
29005DT     BB188534  28.533  74.972  73.317
29005DT     BB288535  28.412  74.673  73.479
29005DT     BB388536  28.209  74.691  73.516
29005DT     SC188537  28.252  74.856  73.715
29005DT     SC288538  28.202  74.758  73.901
29005DT     SC388539  28.249  75.077  73.860
29006DA     BB188540  28.246  74.328  73.306
29006DA     BB288541  28.037  74.264  73.601
29006DA     BB388542  27.842  74.346  73.572
29006DA     SC188543  27.913  74.621  73.697
29006DA     SC288544  27.858  74.750  73.904
29006DA     SC388545  27.935  74.956  73.771
29006DA     SC488546  27.964  74.737  73.598
29007DT     BB188547  27.653  74.226  73.547
29007DT     BB288548  27.518  74.293  73.875
29007DT     BB388549  27.354  74.419  73.860
29007DT     SC188550  27.507  74.626  73.812
29007DT     SC288551  27.501  74.760  73.981
29007DT     SC388552  27.616  74.831  73.686
29008DT     BB188553  27.147  74.224  73.906
29008DT     BB288554  27.088  74.474  74.160
29008DT     BB388555  26.952  74.614  74.091
29008DT     SC188556  27.133  74.724  73.937
29008DT     SC288557  27.184  74.919  74.013
29008DT     SC388558  27.257  74.806  73.718
29009DT     BB188559  26.723  74.529  74.244
29009DT     BB288560  26.770  74.873  74.341
29009DT     BB388561  26.654  74.997  74.223
29009DT     SC188562  26.816  74.967  74.019
29009DT     SC288563  26.920  75.152  73.983
29009DT     SC388564  26.905  74.900  73.780
29010DA     BB188565  26.556  75.093  74.618
29010DA     BB288566  26.652  75.403  74.446
29010DA     BB388567  26.494  75.469  74.319
29010DA     SC188568  26.597  75.313  74.070
29010DA     SC288569  26.699  75.366  73.849
29010DA     SC388570  26.621  75.132  73.779
29010DA     SC488571  26.539  75.165  74.046
29011DA     BB188572  26.548  75.732  74.497
29011DA     BB288573  26.649  75.897  74.185
29011DA     BB388574  26.477  75.948  74.070
29011DA     SC188575  26.471  75.680  73.913
29011DA     SC288576  26.513  75.602  73.680
29011DA     SC388577  26.374  75.396  73.746
29011DA     SC488578  26.381  75.561  73.973
29012DG     BB188579  26.625  76.209  74.119
29012DG     BB288580  26.665  76.192  73.760
29012DG     BB388581  26.496  76.245  73.670
29012DG     SC188582  26.381  75.961  73.664
29012DG     SC288583  26.331  75.798  73.419
29012DG     SC388584  26.217  75.667  73.658
29012DG     SC488585  26.296  75.909  73.789
29013DG     BB188586  26.702  76.449  73.533
29013DG     BB288587  26.609  76.289  73.223
29013DG     BB388588  26.430  76.353  73.164
29013DG     SC188589  26.275  76.136  73.315
29013DG     SC288590  26.116  75.916  73.190
29013DG     SC388591  26.073  75.925  73.483
29013DG     SC488592  26.232  76.162  73.466
29014DA     BB188593  26.608  76.394  72.873
29014DA     BB288594  26.365  76.180  72.700
29014DA     BB388595  26.179  76.281  72.679
29014DA     SC188596  26.063  76.175  72.947
29014DA     SC288597  25.885  76.017  73.022
29014DA     SC388598  25.897  76.141  73.246
29014DA     SC488599  26.084  76.266  73.078
29015DC     BB188600  26.134  76.317  72.500
29015DC     BB288601  25.866  76.078  72.467
29015DC     BB388602  25.683  76.174  72.487
29015DC     SC188603  25.714  76.197  72.746
29015DC     SC288604  25.574  76.068  72.847
29015DC     SC388605  25.744  76.308  72.984
29016DT     BB188606  25.642  76.142  72.221
29016DT     BB288607  25.351  75.994  72.375
29016DT     BB388608  25.208  76.140  72.410
29016DT     SC188609  25.344  76.235  72.613
29016DT     SC288610  25.239  76.192  72.796
29016DT     SC388611  25.483  76.403  72.762
29017DT     BB188612  25.051  76.046  72.206
29017DT     BB288613  24.831  76.045  72.492
29017DT     BB388614  24.739  76.230  72.511
29017DT     SC188615  24.960  76.339  72.602
29017DT     SC288616  24.934  76.387  72.810
29017DT     SC388617  25.171  76.496  72.618
29018DG     BB188618  24.426  75.970  72.469
29018DG     BB288619  24.377  76.184  72.757
29018DG     BB388620  24.307  76.361  72.699
29018DG     SC188621  24.584  76.486  72.662
29018DG     SC288622  24.700  76.707  72.825
29018DG     SC388623  24.871  76.648  72.591
29018DG     SC488624  24.657  76.472  72.520
29019DA     BB188625  24.039  76.334  72.925
29019DA     BB288626  24.144  76.641  73.095
29019DA     BB388627  24.082  76.813  72.984
29019DA     SC188628  24.345  76.830  72.818
29019DA     SC288629  24.543  76.980  72.801
29019DA     SC388630  24.577  76.875  72.569
29019DA     SC488631  24.348  76.753  72.676
29020DT     BB188632  23.927  76.956  73.052
29020DT     BB288633  24.152  77.226  73.136
29020DT     BB388634  24.131  77.380  72.999
29020DT     SC188635  24.262  77.245  72.816
29020DT     SC288636  24.453  77.338  72.781
29020DT     SC388637  24.312  77.116  72.591
29021DT     BB188638  23.987  77.557  73.170
29021DT     BB288639  24.272  77.753  73.066
29021DT     BB388640  24.225  77.863  72.897
29021DT     SC188641  24.238  77.649  72.745
29021DT     SC288642  24.410  77.663  72.617
29021DT     SC388643  24.163  77.456  72.583
29022DT     BB188644  24.210  78.107  73.033
29022DT     BB288645  24.459  78.163  72.778
29022DT     BB388646  24.368  78.236  72.607
29022DT     SC188647  24.271  78.000  72.547
29022DT     SC288648  24.371  77.923  72.373
29022DT     SC388649  24.096  77.808  72.501
29023DT     BB188650  24.477  78.481  72.654
29023DT     BB288651  24.599  78.388  72.327
29023DT     BB388652  24.464  78.447  72.182
29023DT     SC188653  24.299  78.252  72.245
29023DT     SC288654  24.295  78.108  72.085
29023DT     SC388655  24.083  78.128  72.329
29024DC     BB188656  24.646  78.627  72.113
29024DC     BB288657  24.588  78.433  71.814
29024DC     BB388658  24.423  78.506  71.714
29024DC     SC188659  24.259  78.400  71.889
29024DC     SC288660  24.152  78.237  71.798
29024DC     SC388661  24.076  78.381  72.078
29025DG     BB188662  24.750  78.495  71.472
29025DG     BB288663  24.466  78.332  71.320
29025DG     BB388664  24.336  78.469  71.255
29025DG     SC188665  24.180  78.480  71.518
29025DG     SC288666  23.898  78.389  71.559
29025DG     SC388667  23.998  78.532  71.798
29025DG     SC488668  24.226  78.582  71.632
29026DA     BB188669  24.353  78.285  70.962
29026DA     BB288670  23.990  78.239  70.970
29026DA     BB388671  23.891  78.423  70.923
29026DA     SC188672  23.873  78.517  71.220
29026DA     SC288673  23.697  78.550  71.393
29026DA     SC388674  23.868  78.702  71.508
29026DA     SC488675  23.993  78.609  71.275
29027DA     BB188676  23.736  78.240  70.692
29027DA     BB288677  23.419  78.335  70.850
29027DA     BB388678  23.369  78.537  70.802
29027DA     SC188679  23.515  78.657  71.049
29027DA     SC288680  23.453  78.770  71.262
29027DA     SC388681  23.694  78.857  71.263
29027DA     SC488682  23.668  78.703  71.030
29028DT     BB188683  23.197  78.612  70.663
29028DT     BB288684  22.984  78.747  70.921
29028DT     BB388685  22.982  78.953  70.910
29028DT     SC188686  23.222  78.970  71.013
29028DT     SC288687  23.210  79.054  71.210
29028DT     SC388688  23.480  79.022  71.034
29029DT     BB188689  22.715  79.022  70.773
29029DT     BB288690  22.700  79.221  71.073
29029DT     BB388691  22.760  79.415  71.033
29029DT     SC188692  23.012  79.342  71.019
29029DT     SC288693  23.118  79.423  71.188
29029DT     SC388694  23.252  79.298  70.921
29030DT     BB188695  22.500  79.581  71.018
29030DT     BB288696  22.690  79.751  71.273
29030DT     BB388697  22.786  79.916  71.192
29030DT     SC188698  22.964  79.763  71.073
29030DT     SC288699  23.155  79.790  71.167
29030DT     SC388700  23.102  79.647  70.881
29031DA     BB188701  22.570  80.092  71.506
29031DA     BB288702  22.921  80.190  71.547
29031DA     BB388703  22.969  80.350  71.415
29031DA     SC188704  23.061  80.163  71.184
29031DA     SC288705  23.274  80.101  71.070
29031DA     SC388706  23.125  80.022  70.877
29031DA     SC488707  22.951  80.121  71.074
29032DC     BB188708  23.020  80.536  71.494
29032DC     BB288709  23.375  80.499  71.443
29032DC     BB388710  23.437  80.623  71.289
29032DC     SC188711  23.333  80.463  71.109
29032DC     SC288712  23.490  80.368  70.998
29032DC     SC388713  23.177  80.378  70.914
29033DA     BB188714  23.676  80.667  71.631
29033DA     BB288715  23.895  80.607  71.343
29033DA     BB388716  23.897  80.778  71.215
29033DA     SC188717  23.659  80.680  71.040
29033DA     SC288718  23.623  80.597  70.807
29033DA     SC388719  23.378  80.660  70.844
29033DA     SC488720  23.512  80.727  71.081
29034DG     BB188721  24.191  80.745  71.292
29034DG     BB288722  24.223  80.678  70.937
29034DG     BB388723  24.218  80.848  70.835
29034DG     SC188724  23.913  80.848  70.801
29034DG     SC288725  23.766  80.816  70.544
29034DG     SC388726  23.581  80.889  70.763
29034DG     SC488727  23.822  80.916  70.914
29035DG     BB188728  24.502  80.743  70.725
29035DG     BB288729  24.343  80.742  70.400
29035DG     BB388730  24.336  80.927  70.328
29035DG     SC188731  24.064  80.991  70.453
29035DG     SC288732  23.809  81.040  70.304
29035DG     SC388733  23.777  81.102  70.591
29035DG     SC488734  24.059  81.052  70.601
29036DA     BB188735  24.473  80.771  70.053
29036DA     BB288736  24.188  80.885  69.852
29036DA     BB388737  24.202  81.095  69.817
29036DA     SC188738  24.038  81.173  70.070
29036DA     SC288739  23.815  81.270  70.122
29036DA     SC388740  23.917  81.329  70.350
29036DA     SC488741  24.120  81.202  70.205
29037DA     BB188742  24.161  80.968  69.519
29037DA     BB288743  23.856  81.170  69.500
29037DA     BB388744  23.906  81.377  69.481
29037DA     SC188745  23.908  81.431  69.787
29037DA     SC288746  23.770  81.554  69.954
29037DA     SC388747  23.979  81.546  70.103
29037DA     SC488748  24.049  81.416  69.864
29038DT     BB188749  23.847  81.438  69.322
29038DT     BB288750  23.572  81.635  69.448
29038DT     BB388751  23.630  81.833  69.465
29038DT     SC188752  23.772  81.782  69.679
29038DT     SC288753  23.677  81.870  69.851
29038DT     SC388754  23.981  81.757  69.839
29039DA     BB188755  23.261  81.791  69.266
29039DA     BB288756  23.227  82.052  69.521
29039DA     BB388757  23.342  82.224  69.467
29039DA     SC188758  23.599  82.129  69.615
29039DA     SC288759  23.730  82.195  69.816
29039DA     SC388760  23.923  82.065  69.707
29039DA     SC488761  23.707  82.045  69.530
29040DT     BB188762  23.231  82.358  69.442
29040DT     BB288763  23.317  82.552  69.733
29040DT     BB388764  23.460  82.694  69.684
29040DT     SC188765  23.649  82.511  69.672
29040DT     SC288766  23.785  82.538  69.837
29040DT     SC388767  23.838  82.356  69.574
29041DA     BB188768  23.151  82.900  69.880
29041DA     BB288769  23.469  83.017  70.021
29041DA     BB388770  23.570  83.142  69.881
29041DA     SC188771  23.728  82.908  69.750
29041DA     SC288772  23.964  82.828  69.739
29041DA     SC388773  23.889  82.700  69.529
29041DA     SC488774  23.663  82.837  69.621
29042DG     BB188775  23.553  83.382  70.088
29042DG     BB288776  23.914  83.363  70.082
29042DG     BB388777  23.985  83.469  69.929
29042DG     SC188778  23.976  83.236  69.731
29042DG     SC288779  24.213  83.103  69.606
29042DG     SC388780  23.961  83.009  69.482
29042DG     SC488781  23.842  83.210  69.647
29043DT     BB188782  24.124  83.671  69.938
29043DT     BB288783  24.445  83.537  69.842
29043DT     BB388784  24.495  83.602  69.652
29043DT     SC188785  24.323  83.437  69.542
29043DT     SC288786  24.429  83.282  69.437
29043DT     SC388787  24.114  83.350  69.406
29044DA     BB188788  24.826  83.712  69.883
29044DA     BB288789  24.953  83.534  69.589
29044DA     BB388790  24.947  83.661  69.417
29044DA     SC188791  24.661  83.572  69.332
29044DA     SC288792  24.556  83.441  69.149
29044DA     SC388793  24.339  83.562  69.214
29044DA     SC488794  24.537  83.659  69.387
29045DA     BB188795  25.263  83.577  69.402
29045DA     BB288796  25.189  83.425  69.077
29045DA     BB388797  25.170  83.576  68.927
29045DA     SC188798  24.863  83.612  68.967
29045DA     SC288799  24.654  83.563  68.841
29045DA     SC388800  24.545  83.738  68.994
29045DA     SC488801  24.815  83.725  69.071
29046DA     BB188802  25.390  83.379  68.789
29046DA     BB288803  25.149  83.334  68.516
29046DA     BB388804  25.142  83.509  68.394
29046DA     SC188805  24.913  83.643  68.557
29046DA     SC288806  24.673  83.699  68.526
29046DA     SC388807  24.708  83.867  68.717
29046DA     SC488808  24.956  83.742  68.677
29047DA     BB188809  25.194  83.276  68.169
29047DA     BB288810  24.880  83.383  68.014
29047DA     BB388811  24.905  83.571  67.917
29047DA     SC188812  24.825  83.739  68.167
29047DA     SC288813  24.635  83.884  68.238
29047DA     SC388814  24.800  83.980  68.410
29047DA     SC488815  24.943  83.786  68.265
29048DA     BB188816  24.782  83.406  67.659
29048DA     BB288817  24.511  83.653  67.651
29048DA     BB388818  24.581  83.838  67.570
29048DA     SC188819  24.664  83.955  67.846
29048DA     SC288820  24.588  84.136  68.000
29048DA     SC388821  24.824  84.121  68.101
29048DA     SC488822  24.816  83.932  67.894
29049DA     BB188823  24.333  83.819  67.345
29049DA     BB288824  24.204  84.136  67.477
29049DA     BB388825  24.316  84.299  67.399
29049DA     SC188826  24.523  84.300  67.633
29049DA     SC288827  24.582  84.445  67.826
29049DA     SC388828  24.807  84.323  67.823
29049DA     SC488829  24.657  84.214  67.613
29050DA     BB188830  24.038  84.448  67.271
29050DA     BB288831  24.098  84.733  67.494
29050DA     BB388832  24.240  84.866  67.408
29050DA     SC188833  24.486  84.728  67.538
29050DA     SC288834  24.655  84.778  67.715
29050DA     SC388835  24.797  84.597  67.602
29050DA     SC488836  24.560  84.613  67.453
29051DT     BB188837  24.208  85.094  67.322
29051DT     BB288838  24.359  85.259  67.605
29051DT     BB388839  24.533  85.354  67.547
29051DT     SC188840  24.662  85.126  67.531
29051DT     SC288841  24.808  85.116  67.689
29051DT     SC388842  24.795  84.922  67.429
29052DC     BB188843  24.430  85.619  67.557
29052DC     BB288844  24.708  85.624  67.787
29052DC     BB388845  24.880  85.684  67.689
29052DC     SC188846  24.902  85.452  67.569
29052DC     SC288847  25.073  85.347  67.648
29052DC     SC388848  24.913  85.272  67.376
29053DC     BB188849  24.871  85.921  67.822
29053DC     BB288850  25.188  85.775  67.913
29053DC     BB388851  25.333  85.827  67.774
29053DC     SC188852  25.235  85.659  67.597
29053DC     SC288853  25.373  85.497  67.570
29053DC     SC388854  25.124  85.569  67.376
29054DA     BB188855  25.459  85.894  68.168
29054DA     BB288856  25.719  85.703  67.993
29054DA     BB388857  25.816  85.827  67.849
29054DA     SC188858  25.622  85.752  67.617
29054DA     SC288859  25.630  85.622  67.404
29054DA     SC388860  25.422  85.757  67.339
29054DA     SC488861  25.494  85.847  67.594
29055DT     BB188862  25.986  85.841  67.897
29055DT     BB288863  26.125  85.629  67.641
29055DT     BB388864  26.192  85.745  67.482
29055DT     SC188865  25.946  85.788  67.400
29055DT     SC288866  25.914  85.684  67.215
29055DT     SC388867  25.725  85.917  67.339
29056DA     BB188868  26.483  85.467  67.604
29056DA     BB288869  26.455  85.454  67.239
29056DA     BB388870  26.533  85.632  67.152
29056DA     SC188871  26.260  85.782  67.155
29056DA     SC288872  26.091  85.862  66.990
29056DA     SC388873  26.012  86.018  67.177
29056DA     SC488874  26.227  85.873  67.284
29057DC     BB188875  26.690  85.608  67.046
29057DC     BB288876  26.541  85.663  66.722
29057DC     BB388877  26.582  85.855  66.657
29057DC     SC188878  26.407  85.957  66.824
29057DC     SC288879  26.240  86.035  66.714
29057DC     SC388880  26.308  86.098  67.024
29058DT     BB188881  26.760  85.761  66.472
29058DT     BB288882  26.530  85.960  66.278
29058DT     BB388883  26.591  86.158  66.277
29058DT     SC188884  26.511  86.193  66.524
29058DT     SC288885  26.339  86.323  66.526
29058DT     SC388886  26.519  86.242  66.783
29059DT     BB188887  26.683  86.150  66.013
29059DT     BB288888  26.449  86.425  66.015
29059DT     BB388889  26.547  86.601  66.063
29059DT     SC188890  26.564  86.532  66.315
29059DT     SC288891  26.435  86.658  66.433
29059DT     SC388892  26.669  86.465  66.548
29060DC     BB188893  26.541  86.704  65.802
29060DC     BB288894  26.380  86.959  66.000
29060DC     BB388895  26.520  87.095  66.069
29060DC     SC188896  26.609  86.924  66.248
29060DC     SC288897  26.555  86.992  66.444
29060DC     SC388898  26.773  86.762  66.376
29061DA     BB188899  26.242  87.343  65.875
29061DA     BB288900  26.300  87.487  66.208
29061DA     BB388901  26.486  87.592  66.211
29061DA     SC188902  26.652  87.345  66.302
29061DA     SC288903  26.774  87.270  66.506
29061DA     SC388904  26.898  87.110  66.348
29061DA     SC488905  26.719  87.254  66.188
29062DA     BB188906  26.312  87.855  66.316
29062DA     BB288907  26.507  87.843  66.626
29062DA     BB388908  26.697  87.936  66.598
29062DA     SC188909  26.840  87.673  66.513
29062DA     SC288910  27.011  87.517  66.607
29062DA     SC388911  27.043  87.439  66.364
29062DA     SC488912  26.846  87.639  66.356
29063DA     BB188913  26.611  88.123  66.856
29063DA     BB288914  26.896  87.979  67.036
29063DA     BB388915  27.077  88.075  66.976
29063DA     SC188916  27.136  87.874  66.746
29063DA     SC288917  27.301  87.693  66.697
29063DA     SC388918  27.233  87.727  66.451
29063DA     SC488919  27.082  87.911  66.599
29064DT     BB188920  27.188  88.196  67.112
29064DT     BB288921  27.450  87.954  67.172
29064DT     BB388922  27.626  88.017  67.082
29064DT     SC188923  27.536  87.953  66.844
29064DT     SC288924  27.644  87.783  66.770
29064DT     SC388925  27.455  87.979  66.594
29065DA     BB188926  27.710  87.928  67.481
29065DA     BB288927  27.955  87.752  67.273
29065DA     BB388928  28.099  87.889  67.196
29065DA     SC188929  27.939  87.949  66.936
29065DA     SC288930  27.960  87.903  66.692
29065DA     SC388931  27.797  88.099  66.662
29065DA     SC488932  27.839  88.074  66.938
29066DA     BB188933  28.272  87.653  67.334
29066DA     BB288934  28.411  87.593  67.000
29066DA     BB388935  28.545  87.750  66.946
29066DA     SC188936  28.326  87.925  66.811
29066DA     SC288937  28.264  87.997  66.580
29066DA     SC388938  28.133  88.185  66.696
29066DA     SC488939  28.252  88.035  66.901
29067DA     BB188940  28.693  87.467  66.897
29067DA     BB288941  28.724  87.574  66.548
29067DA     BB388942  28.861  87.737  66.532
29067DA     SC188943  28.644  87.956  66.568
29067DA     SC288944  28.534  88.132  66.429
29067DA     SC388945  28.471  88.241  66.653
29067DA     SC488946  28.616  88.009  66.717
29068DA     BB188947  28.926  87.504  66.312
29068DA     BB288948  28.891  87.772  66.064
29068DA     BB388949  29.045  87.917  66.090
29068DA     SC188950  28.880  88.093  66.286
29068DA     SC288951  28.770  88.317  66.285
29068DA     SC388952  28.779  88.300  66.541
29068DA     SC488953  28.897  88.065  66.444
29069DG     BB188954  29.060  87.818  65.799
29069DG     BB288955  29.005  88.169  65.731
29069DG     BB388956  29.168  88.273  65.776
29069DG     SC188957  29.086  88.324  66.067
29069DG     SC288958  29.016  88.589  66.185
29069DG     SC388959  29.036  88.381  66.395
29069DG     SC488960  29.126  88.217  66.179
29070DT     BB188961  29.255  88.372  65.621
29070DT     BB288962  29.203  88.720  65.697
29070DT     BB388963  29.368  88.797  65.795
29070DT     SC188964  29.304  88.674  66.018
29070DT     SC288965  29.242  88.820  66.164
29070DT     SC388966  29.318  88.510  66.224
29071DT     BB188967  29.465  88.936  65.572
29071DT     BB288968  29.464  89.187  65.831
29071DT     BB388969  29.645  89.185  65.933
29071DT     SC188970  29.579  88.964  66.060
29071DT     SC288971  29.547  89.009  66.268
29071DT     SC388972  29.585  88.713  66.140
29072DA     BB188973  29.662  89.593  65.814
29072DA     BB288974  29.749  89.587  66.171
29072DA     BB388975  29.952  89.527  66.197
29072DA     SC188976  29.886  89.224  66.220
29072DA     SC288977  29.887  89.048  66.396
29072DA     SC388978  29.892  88.882  66.200
29072DA     SC488979  29.889  89.137  66.085
29073DT     BB188980  30.160  89.656  66.273
29073DT     BB288981  30.174  89.509  66.602
29073DT     BB388982  30.345  89.394  66.622
29073DT     SC188983  30.243  89.203  66.473
29073DT     SC288984  30.203  89.031  66.595
29073DT     SC388985  30.212  89.036  66.271
29074DT     BB188986  30.512  89.570  66.789
29074DT     BB288987  30.490  89.266  66.982
29074DT     BB388988  30.655  89.147  66.944
29074DT     SC188989  30.562  89.078  66.709
29074DT     SC288990  30.504  88.871  66.712
29074DT     SC388991  30.543  89.053  66.447
29075DT     BB188992  30.775  89.195  67.193
29075DT     BB288993  30.726  88.837  67.183
29075DT     BB388994  30.894  88.745  67.104
29075DT     SC188995  30.831  88.823  66.861
29075DT     SC288996  30.773  88.652  66.745
29075DT     SC388997  30.847  88.946  66.628
29076DT     BB188998  30.945  88.651  67.350
29076DT     BB288999  30.907  88.358  67.143
29076DT     BB389000  31.088  88.311  67.053
29076DT     SC189001  31.064  88.511  66.884
29076DT     SC289002  31.030  88.433  66.686
29076DT     SC389003  31.115  88.737  66.759
29077DA     BB189004  30.896  87.984  67.233
29077DA     BB289005  30.993  87.891  66.892
29077DA     BB389006  31.205  87.876  66.876
29077DA     SC189007  31.245  88.173  66.794
29077DA     SC289008  31.312  88.301  66.591
29077DA     SC389009  31.364  88.492  66.753
29077DA     SC489010  31.273  88.280  66.911
29078DA     BB189011  31.071  87.605  66.751
29078DA     BB289012  31.248  87.695  66.443
29078DA     BB389013  31.458  87.678  66.471
29078DA     SC189014  31.495  87.972  66.563
29078DA     SC289015  31.598  88.182  66.475
29078DA     SC389016  31.599  88.260  66.720
29078DA     SC489017  31.489  88.002  66.721
29079DA     BB189018  31.392  87.509  66.197
29079DA     BB289019  31.631  87.732  66.032
29079DA     BB389020  31.829  87.693  66.101
29079DA     SC189021  31.815  87.900  66.333
29079DA     SC289022  31.916  88.120  66.390
29079DA     SC389023  31.850  88.065  66.632
29079DA     SC489024  31.766  87.847  66.477
29080DG     BB189025  31.874  87.637  65.798
29080DG     BB289026  32.107  87.912  65.829
29080DG     BB389027  32.276  87.849  65.914
29080DG     SC189028  32.183  87.906  66.200
29080DG     SC289029  32.296  88.112  66.383
29080DG     SC389030  32.105  87.937  66.526
29080DG     SC489031  32.103  87.792  66.279
29081DT     BB189032  32.497  87.837  65.813
29081DT     BB289033  32.668  88.108  65.978
29081DT     BB389034  32.804  88.033  66.114
29081DT     SC189035  32.613  87.968  66.282
29081DT     SC289036  32.623  88.097  66.454
29081DT     SC389037  32.454  87.821  66.432
29082DA     BB189038  33.066  88.271  65.882
29082DA     BB289039  33.135  88.352  66.233
29082DA     BB389040  33.258  88.202  66.321
29082DA     SC189041  33.018  88.030  66.421
29082DA     SC289042  32.913  87.969  66.638
29082DA     SC389043  32.809  87.772  66.510
29082DA     SC489044  32.965  87.914  66.324
29083DA     BB189045  33.494  88.428  66.409
29083DA     BB289046  33.427  88.349  66.760
29083DA     BB389047  33.539  88.177  66.820
29083DA     SC189048  33.316  87.974  66.744
29083DA     SC289049  33.157  87.822  66.861
29083DA     SC389050  33.140  87.699  66.637
29083DA     SC489051  33.320  87.911  66.596
29084DT     BB189052  33.714  88.175  66.973
29084DT     BB289053  33.521  88.034  67.243
29084DT     BB389054  33.589  87.843  67.286
29084DT     SC189055  33.475  87.745  67.071
29084DT     SC289056  33.310  87.620  67.129
29084DT     SC389057  33.447  87.630  66.835
29085DT     BB189058  33.702  87.930  67.521
29085DT     BB289059  33.466  87.676  67.621
29085DT     BB389060  33.558  87.490  67.621
29085DT     SC189061  33.553  87.479  67.359
29085DT     SC289062  33.414  87.328  67.296
29085DT     SC389063  33.639  87.468  67.110
29086DC     BB189064  33.532  87.507  67.884
29086DC     BB289065  33.352  87.209  67.789
29086DC     BB389066  33.483  87.050  67.771
29086DC     SC189067  33.576  87.141  67.544
29086DC     SC289068  33.514  87.012  67.384
29086DC     SC389069  33.745  87.238  67.365
29087DA     BB189070  33.140  86.962  67.996
29087DA     BB289071  33.194  86.692  67.754
29087DA     BB389072  33.368  86.580  67.805
29087DA     SC189073  33.561  86.756  67.635
29087DA     SC289074  33.696  86.732  67.427
29087DA     SC389075  33.830  86.932  67.516
29087DA     SC489076  33.633  86.879  67.708
29088DT     BB189077  33.317  86.415  67.844
29088DT     BB289078  33.455  86.250  67.554
29088DT     BB389079  33.642  86.173  67.599
29088DT     SC189080  33.751  86.412  67.592
29088DT     SC289081  33.879  86.427  67.420
29088DT     SC389082  33.874  86.631  67.672
29089DG     BB189083  33.413  85.861  67.470
29089DG     BB289084  33.734  85.866  67.302
29089DG     BB389085  33.875  85.795  67.424
29089DG     SC189086  33.942  86.068  67.545
29089DG     SC289087  34.199  86.216  67.511
29089DG     SC389088  34.028  86.348  67.713
29089DG     SC489089  33.861  86.118  67.673
29090DG     BB189090  33.964  85.540  67.221
29090DG     BB289091  34.295  85.685  67.210
29090DG     BB389092  34.402  85.622  67.366
29090DG     SC189093  34.315  85.851  67.549
29090DG     SC289094  34.492  86.068  67.654
29090DG     SC389095  34.225  86.077  67.783
29090DG     SC489096  34.182  85.835  67.637
29091DG     BB189097  34.655  85.463  67.195
29091DG     BB289098  34.883  85.701  67.344
29091DG     BB389099  34.949  85.632  67.519
29091DG     SC189100  34.723  85.759  67.682
29091DG     SC289101  34.752  85.978  67.882
29091DG     SC389102  34.479  85.865  67.889
29091DG     SC489103  34.587  85.676  67.703
29092DT     BB189104  35.185  85.562  67.591
29092DT     BB289105  35.276  85.845  67.794
29092DT     BB389106  35.284  85.790  67.994
29092DT     SC189107  35.022  85.784  68.010
29092DT     SC289108  34.955  85.946  68.134
29092DT     SC389109  34.778  85.691  68.043
29093DA     BB189110  35.671  85.950  67.941
29093DA     BB289111  35.528  86.110  68.239
29093DA     BB389112  35.539  85.979  68.406
29093DA     SC189113  35.260  85.852  68.356
29093DA     SC289114  35.034  85.852  68.463
29093DA     SC389115  34.993  85.636  68.330
29093DA     SC489116  35.254  85.718  68.266
29094DA     BB189117  35.702  86.222  68.562
29094DA     BB289118  35.422  86.239  68.797
29094DA     BB389119  35.439  86.085  68.944
29094DA     SC189120  35.274  85.877  68.781
29094DA     SC289121  35.052  85.765  68.795
29094DA     SC389122  35.152  85.590  68.637
29094DA     SC489123  35.355  85.778  68.684
29095DA     BB189124  35.417  86.336  69.154
29095DA     BB289125  35.102  86.187  69.269
29095DA     BB389126  35.141  86.023  69.401
29095DA     SC189127  35.145  85.810  69.174
29095DA     SC289128  35.004  85.620  69.097
29095DA     SC389129  35.215  85.539  68.976
29095DA     SC489130  35.287  85.776  69.107
29096DC     BB189131  35.083  86.042  69.593
29096DC     BB289132  34.794  85.829  69.565
29096DC     BB389133  34.830  85.648  69.658
29096DC     SC189134  34.984  85.569  69.460
29096DC     SC289135  34.886  85.411  69.352
29096DC     SC389136  35.199  85.492  69.329
29097DC     BB189137  34.655  85.732  69.837
29097DC     BB289138  34.517  85.427  69.700
29097DC     BB389139  34.599  85.263  69.796
29097DC     SC189140  34.826  85.292  69.667
29097DC     SC289141  34.850  85.130  69.528
29097DC     SC389142  35.083  85.335  69.623
29098DT     BB189143  34.356  85.246  69.883
29098DT     BB289144  34.421  84.937  69.709
29098DT     BB389145  34.530  84.809  69.830
29098DT     SC189146  34.749  84.948  69.794
29098DT     SC289147  34.888  84.834  69.675
29098DT     SC389148  34.959  85.100  69.847
29099DT     BB189149  34.304  84.690  69.806
29099DT     BB289150  34.554  84.460  69.682
29099DT     BB389151  34.656  84.374  69.840
29099DT     SC189152  34.790  84.595  69.884
29099DT     SC289153  34.997  84.565  69.831
29099DT     SC389154  34.880  84.811  70.006
29100DA     BB189155  34.530  84.112  69.531
29100DA     BB289156  34.877  84.037  69.620
29100DA     BB389157  34.889  83.964  69.820
29100DA     SC189158  34.929  84.245  69.947
29100DA     SC289159  35.111  84.371  70.061
29100DA     SC389160  34.923  84.518  70.154
29100DA     SC489161  34.798  84.324  69.996
29101DT     BB189162  34.946  83.796  69.815
29101DT     BB289163  35.272  83.849  69.961
29101DT     BB389164  35.265  83.812  70.165
29101DT     SC189165  35.140  84.038  70.209
29101DT     SC289166  35.271  84.173  70.313
29101DT     SC389167  34.950  84.207  70.281
29102DT     BB189168  35.404  83.588  70.118
29102DT     BB289169  35.593  83.760  70.372
29102DT     BB389170  35.515  83.718  70.559
29102DT     SC189171  35.310  83.876  70.518
29102DT     SC289172  35.325  84.049  70.644
29102DT     SC389173  35.060  83.955  70.484
29103DA     BB189174  35.922  83.617  70.604
29103DA     BB289175  35.828  83.816  70.898
29103DA     BB389176  35.710  83.698  71.032
29103DA     SC189177  35.438  83.780  70.904
29103DA     SC289178  35.240  83.918  70.965
29103DA     SC389179  35.117  83.784  70.783
29103DA     SC489180  35.379  83.686  70.788
29104DA     BB189181  35.927  83.758  71.285
29104DA     BB289182  35.654  83.918  71.470
29104DA     BB389183  35.533  83.771  71.566
29104DA     SC189184  35.337  83.741  71.327
29104DA     SC289185  35.100  83.796  71.274
29104DA     SC389186  35.120  83.620  71.089
29104DA     SC489187  35.369  83.627  71.218
29105DT     BB189188  35.511  83.724  71.801
29105DT     BB289189  35.184  83.871  71.840
29105DT     BB389190  35.044  83.723  71.880
29105DT     SC189191  35.046  83.642  71.631
29105DT     SC289192  34.859  83.691  71.538
29105DT     SC389193  35.081  83.486  71.421
29106DA     BB189194  34.980  83.972  72.216
29106DA     BB289195  34.651  83.909  72.068
29106DA     BB389196  34.579  83.718  72.126
29106DA     SC189197  34.703  83.569  71.883
29106DA     SC289198  34.624  83.455  71.676
29106DA     SC389199  34.853  83.339  71.676
29106DA     SC489200  34.850  83.507  71.901
29107DG     BB189201  34.328  83.849  72.275
29107DG     BB289202  34.139  83.685  72.014
29107DG     BB389203  34.090  83.501  72.072
29107DG     SC189204  34.343  83.371  71.960
29107DG     SC289205  34.356  83.178  71.733
29107DG     SC389206  34.618  83.198  71.868
29107DG     SC489207  34.473  83.362  72.053
29108DA     BB189208  33.759  83.576  71.998
29108DA     BB289209  33.756  83.314  71.742
29108DA     BB389210  33.728  83.122  71.831
29108DA     SC189211  34.032  83.067  71.867
29108DA     SC289212  34.205  82.915  71.770
29108DA     SC389213  34.339  82.966  71.983
29108DA     SC489214  34.100  83.110  72.007
29109DA     BB189215  33.490  83.123  71.611
29109DA     BB289216  33.663  82.839  71.456
29109DA     BB389217  33.629  82.661  71.569
29109DA     SC189218  33.880  82.700  71.749
29109DA     SC289219  34.103  82.592  71.781
29109DA     SC389220  34.103  82.707  72.011
29109DA     SC489221  33.861  82.779  71.888
29110DG     BB189222  33.521  82.593  71.293
29110DG     BB289223  33.796  82.358  71.300
29110DG     BB389224  33.748  82.201  71.412
29110DG     SC189225  33.854  82.322  71.672
29110DG     SC289226  34.088  82.224  71.829
29110DG     SC389227  33.941  82.431  71.979
29110DG     SC489228  33.756  82.411  71.762
29111DT     BB189229  33.756  82.032  71.308
29111DT     BB289230  34.055  81.876  71.436
29111DT     BB389231  34.005  81.738  71.582
29111DT     SC189232  33.955  81.928  71.756
29111DT     SC289233  34.106  81.926  71.909
29111DT     SC389234  33.822  82.082  71.924
29112DA     BB189235  34.274  81.585  71.297
29112DA     BB289236  34.397  81.500  71.631
29112DA     BB389237  34.269  81.356  71.723
29112DA     SC189238  34.086  81.567  71.858
29112DA     SC289239  34.037  81.649  72.088
29112DA     SC389240  33.819  81.740  71.988
29112DA     SC489241  33.955  81.615  71.777
29113DT     BB189242  34.356  81.195  71.750
29113DT     BB289243  34.383  81.214  72.109
29113DT     BB389244  34.232  81.103  72.197
29113DT     SC189245  34.053  81.285  72.139
29113DT     SC289246  33.987  81.381  72.320
29113DT     SC389247  33.841  81.400  72.031
29114DT     BB189248  34.417  80.923  72.269
29114DT     BB289249  34.253  81.010  72.578
29114DT     BB389250  34.082  80.896  72.602
29114DT     SC189251  33.953  81.035  72.421
29114DT     SC289252  33.800  81.152  72.517
29114DT     SC389253  33.824  81.095  72.199
29115DC     BB189254  34.199  80.742  72.798
29115DC     BB289255  33.897  80.863  72.953
29115DC     BB389256  33.740  80.734  72.913
29115DC     SC189257  33.722  80.819  72.666
29115DC     SC289258  33.539  80.930  72.642
29115DC     SC389259  33.727  80.818  72.402
29116DT     BB189260  33.735  80.628  73.171
29116DT     BB289261  33.397  80.742  73.119
29116DT     BB389262  33.283  80.590  73.036
29116DT     SC189263  33.397  80.623  72.802
29116DT     SC289264  33.254  80.706  72.664
29116DT     SC389265  33.538  80.573  72.585
29117DT     BB189266  33.143  80.534  73.271
29117DT     BB289267  32.883  80.600  73.030
29117DT     BB389268  32.827  80.425  72.936
29117DT     SC189269  33.047  80.424  72.792
29117DT     SC289270  32.997  80.463  72.586
29117DT     SC389271  33.279  80.347  72.695
29118DG     BB189272  32.478  80.549  73.110
29118DG     BB289273  32.429  80.482  72.758
29118DG     BB389274  32.404  80.287  72.729
29118DG     SC189275  32.702  80.230  72.691
29118DG     SC289276  32.833  80.140  72.438
29118DG     SC389277  33.023  80.128  72.664
29118DG     SC489278  32.792  80.197  72.819
29119DT     BB189279  32.206  80.182  72.646
29119DT     BB289280  32.307  80.103  72.309
29119DT     BB389281  32.337  79.899  72.290
29119DT     SC189282  32.564  79.912  72.422
29119DT     SC289283  32.727  79.873  72.287
29119DT     SC389284  32.744  79.872  72.610
29120DC     BB189285  32.103  79.859  72.143
29120DC     BB289286  32.364  79.728  71.931
29120DC     BB389287  32.394  79.527  71.971
29120DC     SC189288  32.518  79.582  72.195
29120DC     SC289289  32.726  79.533  72.175
29120DC     SC389290  32.571  79.593  72.454
29121DT     BB189291  32.276  79.454  71.735
29121DT     BB289292  32.605  79.308  71.720
29121DT     BB389293  32.604  79.120  71.807
29121DT     SC189294  32.592  79.223  72.048
29121DT     SC289295  32.778  79.188  72.149
29121DT     SC389296  32.501  79.283  72.288
29122DA     BB189297  32.781  79.097  71.428
29122DA     BB289298  33.002  78.930  71.669
29122DA     BB389299  32.917  78.745  71.732
29122DA     SC189300  32.766  78.869  71.974
29122DA     SC289301  32.780  78.864  72.223
29122DA     SC389302  32.536  78.944  72.218
29122DA     SC489303  32.614  78.918  71.950
29123DG     BB189304  33.183  78.649  71.612
29123DG     BB289305  33.245  78.550  71.955
29123DG     BB389306  33.148  78.380  71.995
29123DG     SC189307  32.892  78.520  72.088
29123DG     SC289308  32.784  78.520  72.367
29123DG     SC389309  32.590  78.640  72.179
29123DG     SC489310  32.779  78.556  71.981
29124DA     BB189311  33.458  78.282  72.111
29124DA     BB289312  33.310  78.216  72.440
29124DA     BB389313  33.189  78.041  72.433
29124DA     SC189314  32.928  78.195  72.360
29124DA     SC289315  32.711  78.253  72.469
29124DA     SC389316  32.625  78.290  72.230
29124DA     SC489317  32.893  78.212  72.204
29125DT     BB189318  33.250  77.887  72.538
29125DT     BB289319  33.001  77.905  72.799
29125DT     BB389320  32.855  77.762  72.767
29125DT     SC189321  32.750  77.901  72.571
29125DT     SC289322  32.558  77.977  72.632
29125DT     SC389323  32.671  77.967  72.328
29126DT     BB189324  32.947  77.604  72.973
29126DT     BB289325  32.599  77.658  73.052
29126DT     BB389326  32.483  77.513  72.961
29126DT     SC189327  32.512  77.628  72.726
29126DT     SC289328  32.324  77.713  72.665
29126DT     SC389329  32.582  77.663  72.474
29127DT     BB189330  32.429  77.362  73.194
29127DT     BB289331  32.101  77.439  73.065
29127DT     BB389332  32.038  77.289  72.937
29127DT     SC189333  32.200  77.372  72.748
29127DT     SC289334  32.085  77.456  72.587
29127DT     SC389335  32.398  77.373  72.574
29128DT     BB189336  31.848  77.167  73.113
29128DT     BB289337  31.654  77.252  72.821
29128DT     BB389338  31.650  77.092  72.689
29128DT     SC189339  31.898  77.138  72.615
29128DT     SC289340  31.899  77.210  72.412
29128DT     SC389341  32.156  77.102  72.577
29129DA     BB189342  31.247  77.186  72.751
29129DA     BB289343  31.305  77.179  72.389
29129DA     BB389344  31.317  76.977  72.320
29129DA     SC189345  31.626  76.958  72.358
29129DA     SC289346  31.829  76.943  72.214
29129DA     SC389347  31.945  76.851  72.423
29129DA     SC489348  31.680  76.901  72.498
29130DT     BB189349  31.176  76.921  72.197
29130DT     BB289350  31.378  76.941  71.899
29130DT     BB389351  31.431  76.751  71.836
29130DT     SC189352  31.607  76.728  72.030
29130DT     SC289353  31.805  76.731  71.946
29130DT     SC389354  31.727  76.638  72.247
29131DC     BB189355  31.269  76.805  71.637
29131DC     BB289356  31.591  76.742  71.486
29131DC     BB389357  31.620  76.538  71.465
29131DC     SC189358  31.665  76.510  71.722
29131DC     SC289359  31.873  76.463  71.754
29131DC     SC389360  31.636  76.433  71.972
29132DC     BB189361  31.600  76.605  71.215
29132DC     BB289362  31.923  76.447  71.249
29132DC     BB389363  31.900  76.241  71.254
29132DC     SC189364  31.809  76.249  71.499
29132DC     SC289365  31.954  76.162  71.632
29132DC     SC389366  31.644  76.224  71.704
29133DC     BB189367  32.012  76.245  71.013
29133DC     BB289368  32.219  76.023  71.209
29133DC     BB389369  32.135  75.834  71.214
29133DC     SC189370  31.950  75.912  71.383
29133DC     SC289371  31.985  75.821  71.575
29133DC     SC389372  31.712  75.968  71.482
29134DA     BB189373  32.532  75.781  71.088
29134DA     BB289374  32.466  75.538  71.354
29134DA     BB389375  32.340  75.381  71.282
29134DA     SC189376  32.075  75.523  71.362
29134DA     SC289377  31.893  75.493  71.529
29134DA     SC389378  31.753  75.641  71.373
29134DA     SC489379  32.004  75.616  71.251
29135DA     BB189380  32.578  75.173  71.386
29135DA     BB289381  32.331  75.030  71.616
29135DA     BB389382  32.201  74.897  71.511
29135DA     SC189383  31.991  75.116  71.442
29135DA     SC289384  31.758  75.176  71.507
29135DA     SC389385  31.753  75.310  71.288
29135DA     SC489386  32.007  75.192  71.301
29136DT     BB189387  32.199  74.683  71.548
29136DT     BB289388  31.893  74.682  71.739
29136DT     BB389389  31.741  74.594  71.629
29136DT     SC189390  31.718  74.806  71.476
29136DT     SC289391  31.531  74.903  71.517
29136DT     SC389392  31.721  74.957  71.260
29137DT     BB189393  31.751  74.382  71.795
29137DT     BB289394  31.414  74.509  71.824
29137DT     BB389395  31.295  74.426  71.677
29137DT     SC189396  31.403  74.578  71.492
29137DT     SC289397  31.259  74.722  71.425
29137DT     SC389398  31.537  74.648  71.276
29138DC     BB189399  31.190  74.315  71.886
29138DC     BB289400  30.926  74.506  71.731
29138DC     BB389401  30.847  74.401  71.571
29138DC     SC189402  31.057  74.454  71.423
29138DC     SC289403  31.001  74.590  71.266
29138DC     SC389404  31.275  74.417  71.279
29139DT     BB189405  30.663  74.423  71.745
29139DT     BB289406  30.538  74.576  71.444
29139DT     BB389407  30.492  74.430  71.304
29139DT     SC189408  30.746  74.389  71.252
29139DT     SC289409  30.791  74.460  71.054
29139DT     SC389410  30.979  74.266  71.233
29140DC     BB189411  30.280  74.552  71.370
29140DC     BB289412  30.306  74.574  71.011
29140DC     BB389413  30.274  74.388  70.926
29140DC     SC189414  30.511  74.304  71.001
29140DC     SC289415  30.636  74.280  70.827
29140DC     SC389416  30.697  74.163  71.123
29141DA     BB189417  30.044  74.684  70.732
29141DA     BB289418  30.191  74.465  70.478
29141DA     BB389419  30.103  74.271  70.488
29141DA     SC189420  30.314  74.159  70.688
29141DA     SC289421  30.501  73.995  70.686
29141DA     SC389422  30.474  73.992  70.941
29141DA     SC489423  30.280  74.170  70.845
29142DA     BB189424  30.047  74.323  70.165
29142DA     BB289425  30.235  74.015  70.099
29142DA     BB389426  30.119  73.844  70.153
29142DA     SC189427  30.227  73.833  70.445
29142DA     SC289428  30.375  73.686  70.581
29142DA     SC389429  30.261  73.794  70.784
29142DA     SC489430  30.143  73.911  70.558
29143DC     BB189431  30.040  73.705  70.009
29143DC     BB289432  30.258  73.427  70.085
29143DC     BB389433  30.154  73.281  70.187
29143DC     SC189434  30.156  73.424  70.408
29143DC     SC289435  30.284  73.329  70.553
29143DC     SC389436  30.068  73.563  70.614
29144DA     BB189437  30.307  73.058  69.864
29144DA     BB289438  30.375  72.864  70.168
29144DA     BB389439  30.197  72.767  70.235
29144DA     SC189440  30.109  73.002  70.419
29144DA     SC289441  30.089  73.048  70.664
29144DA     SC389442  29.929  73.236  70.595
29144DA     SC489443  30.011  73.113  70.356
29145DG     BB189444  30.320  72.470  70.196
29145DG     BB289445  30.282  72.446  70.555
29145DG     BB389446  30.101  72.377  70.600
29145DG     SC189447  29.972  72.654  70.612
29145DG     SC289448  29.862  72.786  70.857
29145DG     SC389449  29.793  72.940  70.614
29145DG     SC489450  29.912  72.718  70.478
29146DC     BB189451  30.025  72.154  70.710
29146DC     BB289452  29.938  72.272  71.040
29146DC     BB389453  29.734  72.261  71.067
29146DC     SC189454  29.694  72.470  70.914
29146DC     SC289455  29.626  72.635  71.034
29146DC     SC389456  29.610  72.616  70.711
29147DT     BB189457  29.706  72.019  71.241
29147DT     BB289458  29.539  72.275  71.432
29147DT     BB389459  29.335  72.269  71.396
29147DT     SC189460  29.366  72.378  71.159
29147DT     SC289461  29.285  72.577  71.162
29147DT     SC389462  29.364  72.407  70.897
29148DT     BB189463  29.221  72.135  71.645
29148DT     BB289464  29.046  72.450  71.632
29148DT     BB389465  28.861  72.425  71.543
29148DT     SC189466  28.969  72.404  71.305
29148DT     SC289467  28.919  72.578  71.188
29148DT     SC389468  29.042  72.301  71.073
29149DG     BB189469  28.729  72.550  71.916
29149DG     BB289470  28.603  72.767  71.655
29149DG     BB389471  28.432  72.694  71.583
29149DG     SC189472  28.568  72.525  71.367
29149DG     SC289473  28.548  72.569  71.072
29149DG     SC389474  28.684  72.313  71.131
29149DG     SC489475  28.614  72.376  71.402
29150DT     BB189476  28.225  72.808  71.594
29150DT     BB289477  28.230  72.943  71.260
29150DT     BB389478  28.082  72.853  71.145
29150DT     SC189479  28.222  72.632  71.125
29150DT     SC289480  28.290  72.609  70.922
29150DT     SC389481  28.290  72.379  71.150
29151DC     BB189482  27.990  73.097  71.157
29151DC     BB289483  28.066  73.035  70.810
29151DC     BB389484  27.911  72.931  70.721
29151DC     SC189485  27.981  72.708  70.841
29151DC     SC289486  28.059  72.571  70.695
29151DC     SC389487  27.970  72.496  70.998
29152DT     BB189488  27.935  73.160  70.613
29152DT     BB289489  27.990  72.916  70.353
29152DT     BB389490  27.811  72.825  70.302
29152DT     SC189491  27.811  72.683  70.523
29152DT     SC289492  27.844  72.476  70.474
29152DT     SC389493  27.736  72.590  70.758
29153DG     BB189494  28.042  72.979  69.999
29153DG     BB289495  27.939  72.638  69.937
29153DG     BB389496  27.744  72.632  69.901
29153DG     SC189497  27.665  72.594  70.194
29153DG     SC289498  27.541  72.350  70.313
29153DG     SC389499  27.542  72.573  70.507
29153DG     SC489500  27.641  72.724  70.285
29154DA     BB189501  27.857  72.446  69.632
29154DA     BB289502  27.639  72.171  69.735
29154DA     BB389503  27.434  72.222  69.702
29154DA     SC189504  27.393  72.345  69.984
29154DA     SC289505  27.269  72.289  70.194
29154DA     SC389506  27.294  72.538  70.250
29154DA     SC489507  27.417  72.503  70.001
29155DT     BB189508  27.334  72.119  69.562
29155DT     BB289509  27.124  71.928  69.786
29155DT     BB389510  26.933  72.007  69.787
29155DT     SC189511  27.009  72.211  69.933
29155DT     SC289512  26.924  72.194  70.130
29155DT     SC389513  27.060  72.460  70.004
29156DT     BB189514  26.836  71.795  69.642
29156DT     BB289515  26.632  71.800  69.940
29156DT     BB389516  26.469  71.924  69.911
29156DT     SC189517  26.619  72.139  69.935
29156DT     SC289518  26.570  72.239  70.119
29156DT     SC389519  26.741  72.364  69.873
29157DG     BB189520  26.318  71.557  70.002
29157DG     BB289521  26.180  71.813  70.217
29157DG     BB389522  26.036  71.912  70.121
29157DG     SC189523  26.225  72.123  70.005
29157DG     SC289524  26.227  72.413  70.074
29157DG     SC389525  26.405  72.358  69.844
29157DG     SC489526  26.295  72.094  69.864
29158DA     BB189527  25.860  71.841  70.407
29158DA     BB289528  25.807  72.200  70.461
29158DA     BB389529  25.664  72.275  70.322
29158DA     SC189530  25.876  72.351  70.108
29158DA     SC289531  25.973  72.558  70.009
29158DA     SC389532  26.044  72.408  69.814
29158DA     SC489533  25.910  72.241  69.995
29159DA     BB189534  25.557  72.375  70.614
29159DA     BB289535  25.580  72.716  70.480
29159DA     BB389536  25.429  72.748  70.332
29159DA     SC189537  25.607  72.655  70.095
29159DA     SC289538  25.719  72.757  69.897
29159DA     SC389539  25.724  72.519  69.802
29159DA     SC489540  25.599  72.500  70.052
29160DA     BB189541  25.395  73.004  70.536
29160DA     BB289542  25.445  73.216  70.241
29160DA     BB389543  25.278  73.201  70.110
29160DA     SC189544  25.396  72.965  69.946
29160DA     SC289545  25.487  72.927  69.717
29160DA     SC389546  25.440  72.679  69.762
29160DA     SC489547  25.359  72.816  69.992
29161DC     BB189548  25.161  73.361  70.086
29161DC     BB289549  25.256  73.442  69.747
29161DC     BB389550  25.109  73.380  69.616
29161DC     SC189551  25.180  73.129  69.642
29161DC     SC289552  25.269  73.061  69.459
29161DC     SC389553  25.167  72.873  69.703
29162DT     BB189554  25.014  73.638  69.568
29162DT     BB289555  25.084  73.510  69.238
29162DT     BB389556  24.916  73.413  69.163
29162DT     SC189557  24.956  73.206  69.320
29162DT     SC289558  25.016  73.037  69.201
29162DT     SC389559  24.915  73.027  69.509
29163DG     BB189560  24.985  73.710  68.890
29163DG     BB289561  24.956  73.388  68.727
29163DG     BB389562  24.764  73.340  68.707
29163DG     SC189563  24.746  73.196  68.977
29163DG     SC289564  24.703  72.904  69.017
29163DG     SC389565  24.685  73.050  69.274
29163DG     SC489566  24.708  73.281  69.107
29164DA     BB189567  24.819  73.286  68.366
29164DA     BB289568  24.714  72.936  68.400
29164DA     BB389569  24.501  72.924  68.409
29164DA     SC189570  24.488  72.945  68.720
29164DA     SC289571  24.433  72.798  68.913
29164DA     SC389572  24.399  73.016  69.043
29164DA     SC489573  24.471  73.092  68.783
29165DG     BB189574  24.532  72.749  68.153
29165DG     BB289575  24.395  72.491  68.366
29165DG     BB389576  24.197  72.507  68.373
29165DG     SC189577  24.196  72.695  68.614
29165DG     SC289578  24.091  72.632  68.886
29165DG     SC389579  24.159  72.919  68.864
29165DG     SC489580  24.205  72.853  68.589
29166DC     BB189581  24.059  72.346  68.295
29166DC     BB289582  23.932  72.202  68.601
29166DC     BB389583  23.738  72.268  68.635
29166DC     SC189584  23.823  72.505  68.708
29166DC     SC289585  23.790  72.531  68.919
29166DC     SC389586  23.860  72.766  68.708
29167DT     BB189587  23.616  72.025  68.564
29167DT     BB289588  23.486  72.090  68.894
29167DT     BB389589  23.312  72.202  68.880
29167DT     SC189590  23.447  72.420  68.822
29167DT     SC289591  23.436  72.557  68.987
29167DT     SC389592  23.535  72.628  68.687
29168DA     BB189593  23.146  71.875  69.098
29168DA     BB289594  23.040  72.179  69.273
29168DA     BB389595  22.873  72.268  69.173
29168DA     SC189596  23.048  72.449  68.990
29168DA     SC289597  23.099  72.691  68.965
29168DA     SC389598  23.175  72.630  68.728
29168DA     SC489599  23.089  72.391  68.846
29169DA     BB189600  22.638  72.263  69.438
29169DA     BB289601  22.645  72.630  69.440
29169DA     BB389602  22.497  72.707  69.307
29169DA     SC189603  22.687  72.717  69.061
29169DA     SC289604  22.798  72.890  68.921
29169DA     SC389605  22.820  72.704  68.745
29169DA     SC489606  22.689  72.588  68.964
29170DG     BB189607  22.294  72.868  69.527
29170DG     BB289608  22.435  73.163  69.372
29170DG     BB389609  22.310  73.234  69.234
29170DG     SC189610  22.427  73.067  69.006
29170DG     SC289611  22.575  73.173  68.769
29170DG     SC389612  22.518  72.885  68.737
29170DG     SC489613  22.369  72.920  68.979
29171DG     BB189614  22.277  73.528  69.386
29171DG     BB289615  22.466  73.661  69.107
29171DG     BB389616  22.343  73.724  68.965
29171DG     SC189617  22.331  73.455  68.820
29171DG     SC289618  22.440  73.398  68.548
29171DG     SC389619  22.280  73.170  68.648
29171DG     SC489620  22.221  73.347  68.864
29172DC     BB189621  22.368  73.921  68.923
29172DC     BB289622  22.558  73.898  68.617
29172DC     BB389623  22.435  73.932  68.454
29172DC     SC189624  22.326  73.694  68.478
29172DC     SC289625  22.388  73.571  68.313
29172DC     SC389626  22.145  73.507  68.517
29173DT     BB189627  22.593  74.134  68.451
29173DT     BB289628  22.642  73.962  68.137
29173DT     BB389629  22.487  74.006  68.008
29173DT     SC189630  22.323  73.850  68.139
29173DT     SC289631  22.276  73.678  68.019
29173DT     SC389632  22.116  73.773  68.284
29174DT     BB189633  22.688  74.119  67.893
29174DT     BB289634  22.554  73.887  67.652
29174DT     BB389635  22.384  73.966  67.565
29174DT     SC189636  22.242  73.920  67.781
29174DT     SC289637  22.100  73.764  67.741
29174DT     SC389638  22.095  73.965  67.995
29175DA     BB189639  22.654  73.810  67.282
29175DA     BB289640  22.317  73.693  67.199
29175DA     BB389641  22.196  73.855  67.132
29175DA     SC189642  22.089  73.925  67.416
29175DA     SC289643  21.874  73.912  67.541
29175DA     SC389644  21.977  74.088  67.697
29175DA     SC489645  22.170  74.036  67.501
29176DT     BB189646  22.143  73.842  66.951
29176DT     BB289647  21.794  73.770  67.005
29176DT     BB389648  21.681  73.942  66.980
29176DT     SC189649  21.762  74.038  67.210
29176DT     SC289650  21.597  74.039  67.349
29176DT     SC389651  21.877  74.197  67.386
29177DA     BB189652  21.504  73.649  66.737
29177DA     BB289653  21.236  73.814  66.925
29177DA     BB389654  21.201  74.010  66.847
29177DA     SC189655  21.404  74.149  67.038
29177DA     SC289656  21.397  74.304  67.233
29177DA     SC389657  21.642  74.354  67.175
29177DA     SC489658  21.554  74.167  66.985
29178DT     BB189659  21.022  74.056  66.749
29178DT     BB289660  20.878  74.260  67.010
29178DT     BB389661  20.886  74.460  66.955
29178DT     SC189662  21.143  74.471  67.003
29178DT     SC289663  21.179  74.593  67.177
29178DT     SC389664  21.402  74.499  66.962
29179DT     BB189665  20.613  74.472  66.905
29179DT     BB289666  20.669  74.737  67.144
29179DT     BB389667  20.716  74.912  67.045
29179DT     SC189668  20.958  74.826  66.990
29179DT     SC289669  21.101  74.938  67.105
29179DT     SC389670  21.168  74.748  66.851
29180DA     BB189671  20.397  75.015  67.297
29180DA     BB289672  20.659  75.268  67.343
29180DA     BB389673  20.664  75.401  67.176
29180DA     SC189674  20.871  75.232  67.018
29180DA     SC289675  21.110  75.251  66.947
29180DA     SC389676  21.051  75.074  66.771
29180DA     SC489677  20.815  75.122  66.914
29181DT     BB189678  20.609  75.604  67.195
29181DT     BB289679  20.943  75.739  67.175
29181DT     BB389680  20.972  75.831  66.992
29181DT     SC189681  20.991  75.599  66.870
29181DT     SC289682  21.194  75.570  66.805
29181DT     SC389683  20.937  75.398  66.708
29182DT     BB189684  20.962  76.083  67.102
29182DT     BB289685  21.281  76.071  66.934
29182DT     BB389686  21.260  76.131  66.737
29182DT     SC189687  21.147  75.903  66.672
29182DT     SC289688  21.280  75.791  66.546
29182DT     SC389689  20.964  75.732  66.590
29183DA     BB189690  21.569  76.363  66.900
29183DA     BB289691  21.689  76.222  66.584
29183DA     BB389692  21.598  76.322  66.419
29183DA     SC189693  21.357  76.125  66.401
29183DA     SC289694  21.274  75.948  66.246
29183DA     SC389695  21.047  75.985  66.360
29183DA     SC489696  21.224  76.163  66.483
29184DT     BB189697  21.716  76.431  66.298
29184DT     BB289698  21.718  76.200  66.021
29184DT     BB389699  21.596  76.270  65.869
29184DT     SC189700  21.380  76.204  66.003
29184DT     SC289701  21.283  76.039  65.905
29184DT     SC389702  21.152  76.228  66.134
29185DT     BB189703  21.816  76.324  65.723
29185DT     BB289704  21.622  76.101  65.517
29185DT     BB389705  21.483  76.208  65.407
29185DT     SC189706  21.332  76.244  65.619
29185DT     SC289707  21.151  76.129  65.598
29185DT     SC389708  21.202  76.366  65.813
29186DT     BB189709  21.630  76.158  65.188
29186DT     BB289710  21.302  76.026  65.113
29186DT     BB389711  21.181  76.177  65.039
29186DT     SC189712  21.152  76.281  65.279
29186DT     SC289713  20.950  76.251  65.346
29186DT     SC389714  21.166  76.454  65.477
29187DG     BB189715  21.193  75.883  64.757
29187DG     BB289716  20.852  75.971  64.842
29187DG     BB389717  20.802  76.142  64.752
29187DG     SC189718  20.898  76.320  64.982
29187DG     SC289719  20.725  76.488  65.157
29187DG     SC389720  21.011  76.546  65.205
29187DG     SC489721  21.051  76.369  64.984
29188DA     BB189722  20.524  75.971  64.635
29188DA     BB289723  20.305  76.211  64.804
29188DA     BB389724  20.299  76.395  64.696
29188DA     SC189725  20.538  76.522  64.850
29188DA     SC289726  20.574  76.705  65.016
29188DA     SC389727  20.819  76.698  64.938
29188DA     SC489728  20.685  76.503  64.788
29189DA     BB189729  19.977  76.334  64.716
29189DA     BB289730  19.950  76.649  64.903
29189DA     BB389731  19.967  76.815  64.771
29189DA     SC189732  20.276  76.838  64.801
29189DA     SC289733  20.441  76.995  64.903
29189DA     SC389734  20.612  76.886  64.746
29189DA     SC489735  20.367  76.759  64.694
29190DC     BB189736  19.808  76.926  64.753
29190DC     BB289737  19.929  77.204  64.949
29190DC     BB389738  19.988  77.358  64.824
29190DC     SC189739  20.207  77.230  64.756
29190DC     SC289740  20.378  77.331  64.840
29190DC     SC389741  20.386  77.105  64.608
29191DT     BB189742  19.769  77.506  64.896
29191DT     BB289743  20.050  77.718  64.975
29191DT     BB389744  20.102  77.831  64.810
29191DT     SC189745  20.212  77.624  64.692
29191DT     SC289746  20.425  77.651  64.686
29191DT     SC389747  20.255  77.433  64.515
29192DA     BB189748  20.058  78.088  65.138
29192DA     BB289749  20.377  78.167  64.975
29192DA     BB389750  20.343  78.269  64.791
29192DA     SC189751  20.333  78.010  64.620
29192DA     SC289752  20.474  77.898  64.447
29192DA     SC389753  20.260  77.770  64.385
29192DA     SC489754  20.189  77.942  64.595
29193DT     BB189755  20.406  78.451  64.787
29193DT     BB289756  20.690  78.396  64.571
29193DT     BB389757  20.647  78.460  64.379
29193DT     SC189758  20.494  78.252  64.335
29193DT     SC289759  20.589  78.123  64.192
29193DT     SC389760  20.279  78.108  64.285
29194DA     BB189761  21.012  78.625  64.501
29194DA     BB289762  21.056  78.487  64.164
29194DA     BB389763  20.955  78.608  64.020
29194DA     SC189764  20.689  78.449  64.038
29194DA     SC289765  20.556  78.295  63.893
29194DA     SC389766  20.358  78.356  64.045
29194DA     SC489767  20.578  78.501  64.142
29195DA     BB189768  21.255  78.597  63.886
29195DA     BB289769  21.097  78.450  63.590
29195DA     BB389770  20.987  78.598  63.482
29195DA     SC189771  20.721  78.547  63.635
29195DA     SC289772  20.496  78.451  63.587
29195DA     SC389773  20.418  78.581  63.794
29195DA     SC489774  20.692  78.637  63.766
29196DA     BB189775  21.170  78.495  63.227
29196DA     BB289776  20.857  78.412  63.055
29196DA     BB389777  20.763  78.589  62.983
29196DA     SC189778  20.595  78.634  63.241
29196DA     SC289779  20.356  78.622  63.310
29196DA     SC389780  20.426  78.771  63.507
29196DA     SC489781  20.658  78.728  63.356
29197DA     BB189782  20.762  78.451  62.678
29197DA     BB289783  20.397  78.478  62.678
29197DA     BB389784  20.337  78.677  62.631
29197DA     SC189785  20.332  78.771  62.927
29197DA     SC289786  20.161  78.837  63.097
29197DA     SC389787  20.356  78.953  63.218
29197DA     SC489788  20.465  78.838  62.987
29198DC     BB189789  20.229  78.757  62.433
29198DC     BB289790  19.904  78.808  62.580
29198DC     BB389791  19.860  79.011  62.587
29198DC     SC189792  20.025  79.046  62.788
29198DC     SC289793  19.913  79.091  62.966
29198DC     SC389794  20.232  79.134  62.928
29199DT     BB189795  19.669  79.038  62.362
29199DT     BB289796  19.485  79.172  62.641
29199DT     BB389797  19.505  79.378  62.646
29199DT     SC189798  19.750  79.360  62.737
29199DT     SC289799  19.756  79.428  62.941
29199DT     SC389800  20.013  79.382  62.749
29200DA     BB189801  19.085  79.340  62.638
29200DA     BB289802  19.166  79.560  62.919
29200DA     BB389803  19.207  79.758  62.849
29200DA     SC189804  19.513  79.709  62.816
29200DA     SC289805  19.725  79.782  62.925
29200DA     SC389806  19.838  79.710  62.706
29200DA     SC489807  19.565  79.659  62.672
29201DT     BB189808  19.079  79.924  62.898
29201DT     BB289809  19.296  80.065  63.149
29201DT     BB389810  19.381  80.241  63.080
29201DT     SC189811  19.544  80.109  62.922
29201DT     SC289812  19.745  80.129  62.997
29201DT     SC389813  19.661  80.022  62.702
29202DT     BB189814  19.225  80.380  63.252
29202DT     BB289815  19.564  80.464  63.344
29202DT     BB389816  19.630  80.623  63.229
29202DT     SC189817  19.659  80.469  63.018
29202DT     SC289818  19.869  80.445  62.975
29202DT     SC389819  19.624  80.371  62.776
29203DA     BB189820  19.699  80.699  63.635
29203DA     BB289821  20.012  80.756  63.452
29203DA     BB389822  19.998  80.935  63.336
29203DA     SC189823  19.890  80.791  63.082
29203DA     SC289824  19.971  80.735  62.853
29203DA     SC389825  19.723  80.709  62.794
29203DA     SC489826  19.731  80.781  63.065
29204DT     BB189827  20.119  81.067  63.393
29204DT     BB289828  20.352  81.030  63.119
29204DT     BB389829  20.322  81.182  62.981
29204DT     SC189830  20.103  81.068  62.892
29204DT     SC289831  20.138  80.993  62.693
29204DT     SC389832  19.849  81.031  62.835
29205DT     BB189833  20.556  81.259  63.069
29205DT     BB289834  20.598  81.203  62.715
29205DT     BB389835  20.528  81.367  62.609
29205DT     SC189836  20.279  81.299  62.653
29205DT     SC289837  20.189  81.234  62.469
29205DT     SC389838  20.030  81.310  62.742
29206DA     BB189839  20.908  81.228  62.490
29206DA     BB289840  20.697  81.273  62.193
29206DA     BB389841  20.657  81.480  62.161
29206DA     SC189842  20.396  81.480  62.331
29206DA     SC289843  20.151  81.501  62.292
29206DA     SC389844  20.137  81.564  62.540
29206DA     SC489845  20.409  81.519  62.486
29207DA     BB189846  20.761  81.336  61.885
29207DA     BB289847  20.444  81.453  61.743
29207DA     BB389848  20.440  81.667  61.738
29207DA     SC189849  20.310  81.696  62.019
29207DA     SC289850  20.091  81.766  62.115
29207DA     SC389851  20.221  81.801  62.333
29207DA     SC489852  20.409  81.712  62.145
29208DA     BB189853  20.349  81.542  61.446
29208DA     BB289854  20.045  81.742  61.490
29208DA     BB389855  20.094  81.950  61.492
29208DA     SC189856  20.132  81.963  61.801
29208DA     SC289857  20.015  82.062  61.997
29208DA     SC389858  20.240  82.035  62.118
29208DA     SC489859  20.281  81.939  61.858
29209DC     BB189860  20.015  82.017  61.356
29209DC     BB289861  19.771  82.220  61.527
29209DC     BB389862  19.847  82.410  61.560
29209DC     SC189863  20.001  82.321  61.754
29209DC     SC289864  19.929  82.397  61.942
29209DC     SC389865  20.219  82.261  61.890
29210DT     BB189866  19.685  82.504  61.370
29210DT     BB289867  19.623  82.720  61.651
29210DT     BB389868  19.766  82.870  61.659
29210DT     SC189869  19.948  82.702  61.747
29210DT     SC289870  19.994  82.749  61.952
29210DT     SC389871  20.167  82.556  61.757
29211DT     BB189872  19.609  83.085  61.555
29211DT     BB289873  19.745  83.223  61.859
29211DT     BB389874  19.925  83.318  61.820
29211DT     SC189875  20.049  83.088  61.795
29211DT     SC289876  20.184  83.062  61.961
29211DT     SC389877  20.184  82.889  61.686
29212DG     BB189878  19.718  83.652  61.952
29212DG     BB289879  20.031  83.619  62.131
29212DG     BB389880  20.179  83.700  62.024
29212DG     SC189881  20.245  83.441  61.875
29212DG     SC289882  20.497  83.283  61.902
29212DG     SC389883  20.332  83.180  61.679
29212DG     SC489884  20.168  83.408  61.739
29213DG     BB189885  20.267  83.931  62.255
29213DG     BB289886  20.581  83.754  62.281
29213DG     BB389887  20.710  83.825  62.148
29213DG     SC189888  20.628  83.631  61.927
29213DG     SC289889  20.797  83.413  61.813
29213DG     SC389890  20.548  83.446  61.656
29213DG     SC489891  20.508  83.671  61.828
29214DC     BB189892  20.901  83.921  62.212
29214DC     BB289893  21.135  83.655  62.141
29214DC     BB389894  21.242  83.699  61.969
29214DC     SC189895  21.035  83.642  61.817
29214DC     SC289896  21.075  83.461  61.707
29214DC     SC389897  20.838  83.673  61.645
29215DT     BB189898  21.445  83.729  62.133
29215DT     BB289899  21.545  83.470  61.903
29215DT     BB389900  21.615  83.555  61.727
29215DT     SC189901  21.372  83.616  61.650
29215DT     SC289902  21.317  83.493  61.483
29215DT     SC389903  21.162  83.760  61.581
29216DG     BB189904  21.893  83.304  61.890
29216DG     BB289905  21.827  83.227  61.543
29216DG     BB389906  21.911  83.363  61.425
29216DG     SC189907  21.668  83.548  61.423
29216DG     SC289908  21.496  83.609  61.186
29216DG     SC389909  21.426  83.784  61.415
29216DG     SC489910  21.653  83.659  61.538
29217DA     BB189911  22.049  83.090  61.258
29217DA     BB289912  21.890  83.203  60.947
29217DA     BB389913  21.991  83.375  60.871
29217DA     SC189914  21.810  83.578  61.023
29217DA     SC289915  21.635  83.746  60.967
29217DA     SC389916  21.689  83.848  61.196
29217DA     SC489917  21.860  83.627  61.168
29218DT     BB189918  22.104  83.371  60.690
29218DT     BB289919  21.870  83.557  60.488
29218DT     BB389920  21.941  83.748  60.455
29218DT     SC189921  21.883  83.821  60.700
29218DT     SC289922  21.720  83.961  60.697
29218DT     SC389923  21.915  83.903  60.949
29219DT     BB189924  22.023  83.717  60.181
29219DT     BB289925  21.793  83.994  60.170
29219DT     BB389926  21.896  84.173  60.192
29219DT     SC189927  21.931  84.131  60.449
29219DT     SC289928  21.812  84.271  60.561
29219DT     SC389929  22.051  84.088  60.679
29220DT     BB189930  21.889  84.269  59.917
29220DT     BB289931  21.724  84.528  60.107
29220DT     BB389932  21.861  84.674  60.160
29220DT     SC189933  21.967  84.520  60.344
29220DT     SC289934  21.920  84.598  60.539
29220DT     SC389935  22.145  84.374  60.473
29221DA     BB189936  21.563  84.893  59.964
29221DA     BB289937  21.612  85.048  60.293
29221DA     BB389938  21.784  85.175  60.290
29221DA     SC189939  21.980  84.951  60.379
29221DA     SC289940  22.116  84.894  60.581
29221DA     SC389941  22.254  84.747  60.422
29221DA     SC489942  22.055  84.866  60.264
29222DA     BB189943  21.558  85.377  60.400
29222DA     BB289944  21.753  85.394  60.710
29222DA     BB389945  21.923  85.520  60.684
29222DA     SC189946  22.111  85.290  60.592
29222DA     SC289947  22.308  85.166  60.681
29222DA     SC389948  22.351  85.100  60.437
29222DA     SC489949  22.122  85.261  60.434
29223DT     BB189950  21.918  85.677  60.793
29223DT     BB289951  22.165  85.570  61.033
29223DT     BB389952  22.346  85.664  60.996
29223DT     SC189953  22.391  85.513  60.787
29223DT     SC289954  22.555  85.379  60.830
29223DT     SC389955  22.432  85.441  60.536
29224DA     BB189956  22.243  85.702  61.400
29224DA     BB289957  22.592  85.590  61.381
29224DA     BB389958  22.718  85.749  61.314
29224DA     SC189959  22.691  85.677  61.013
29224DA     SC289960  22.835  85.585  60.831
29224DA     SC389961  22.663  85.689  60.671
29224DA     SC489962  22.574  85.750  60.929
29225DT     BB189963  22.850  85.816  61.445
29225DT     BB289964  23.142  85.671  61.292
29225DT     BB389965  23.250  85.817  61.192
29225DT     SC189966  23.074  85.824  60.997
29225DT     SC289967  23.162  85.742  60.819
29225DT     SC389968  22.889  85.916  60.833
29226DT     BB189969  23.441  85.804  61.384
29226DT     BB289970  23.617  85.736  61.077
29226DT     BB389971  23.679  85.913  60.990
29226DT     SC189972  23.435  85.969  60.911
29226DT     SC289973  23.424  85.954  60.697
29226DT     SC389974  23.204  86.094  60.889
29227DA     BB189975  24.003  85.651  61.014
29227DA     BB289976  23.990  85.785  60.673
29227DA     BB389977  24.054  85.989  60.671
29227DA     SC189978  23.769  86.105  60.714
29227DA     SC289979  23.600  86.233  60.582
29227DA     SC389980  23.499  86.294  60.810
29227DA     SC489981  23.722  86.133  60.865
29228DC     BB189982  24.208  86.007  60.573
29228DC     BB289983  24.063  86.172  60.287
29228DC     BB389984  24.096  86.376  60.298
29228DC     SC189985  23.913  86.402  60.485
29228DC     SC289986  23.744  86.509  60.404
29228DC     SC389987  23.802  86.455  60.718
29229DC     BB189988  24.246  86.317  60.097
29229DC     BB289989  24.020  86.572  59.978
29229DC     BB389990  24.085  86.758  60.040
29229DC     SC189991  24.004  86.713  60.286
29229DC     SC289992  23.835  86.839  60.329
29229DC     SC389993  24.012  86.676  60.547
29230DT     BB189994  24.127  86.780  59.786
29230DT     BB289995  23.925  87.066  59.873
29230DT     BB389996  24.043  87.212  59.962
29230DT     SC189997  24.058  87.075  60.185
29230DT     SC289998  23.946  87.177  60.338
29230DT     SC389999  24.160  86.938  60.386
29231DT     BB190000  24.009  87.347  59.737
29231DT     BB290001  23.916  87.578  59.999
29231DT     BB390002  24.085  87.666  60.079
29231DT     SC190003  24.147  87.446  60.209
29231DT     SC290004  24.120  87.478  60.420
29231DT     SC390005  24.281  87.232  60.284
29232DA     BB190006  23.849  87.999  59.974
29232DA     BB290007  23.978  88.060  60.312
29232DA     BB390008  24.185  88.111  60.304
29232DA     SC190009  24.283  87.817  60.332
29232DA     SC290010  24.399  87.677  60.503
29232DA     SC390011  24.457  87.522  60.307
29232DA     SC490012  24.310  87.735  60.197
29233DC     BB190013  24.281  88.317  60.348
29233DC     BB290014  24.431  88.229  60.664
29233DC     BB390015  24.637  88.221  60.645
29233DC     SC190016  24.624  87.992  60.516
29233DC     SC290017  24.703  87.836  60.641
29233DC     SC390018  24.646  87.815  60.323
29234DT     BB190019  24.707  88.470  60.775
29234DT     BB290020  24.901  88.226  60.956
29234DT     BB390021  25.089  88.209  60.873
29234DT     SC190022  24.996  88.075  60.668
29234DT     SC290023  25.063  87.871  60.679
29234DT     SC390024  24.933  88.013  60.419
29235DA     BB190025  25.184  88.295  61.274
29235DA     BB290026  25.379  87.999  61.179
29235DA     BB390027  25.548  88.056  61.062
29235DA     SC190028  25.399  88.031  60.790
29235DA     SC290029  25.402  87.881  60.591
29235DA     SC390030  25.286  88.074  60.469
29235DA     SC490031  25.328  88.162  60.731
29236DA     BB190032  25.730  87.895  61.287
29236DA     BB290033  25.828  87.665  61.019
29236DA     BB390034  25.983  87.751  60.900
29236DA     SC190035  25.786  87.884  60.698
29236DA     SC290036  25.719  87.854  60.460
29236DA     SC390037  25.633  88.095  60.476
29236DA     SC490038  25.740  88.035  60.728
29237DC     BB190039  26.178  87.669  60.897
29237DC     BB290040  26.148  87.512  60.574
29237DC     BB390041  26.262  87.615  60.435
29237DC     SC190042  26.088  87.811  60.425
29237DC     SC290043  25.989  87.809  60.234
29237DC     SC390044  25.985  88.052  60.448
29238DG     BB190045  26.399  87.231  60.436
29238DG     BB290046  26.306  87.337  60.103
29238DG     BB390047  26.450  87.449  60.025
29238DG     SC190048  26.338  87.712  60.132
29238DG     SC290049  26.226  87.935  59.968
29238DG     SC390050  26.254  88.017  60.250
29238DG     SC490051  26.382  87.762  60.278
29239DT     BB190052  26.551  87.381  59.844
29239DT     BB290053  26.400  87.598  59.598
29239DT     BB390054  26.532  87.748  59.545
29239DT     SC190055  26.491  87.874  59.772
29239DT     SC290056  26.383  88.056  59.734
29239DT     SC390057  26.538  87.980  60.009
29240DA     BB190058  26.374  87.559  59.207
29240DA     BB290059  26.335  87.921  59.167
29240DA     BB390060  26.524  88.013  59.133
29240DA     SC190061  26.581  88.064  59.435
29240DA     SC290062  26.595  88.259  59.590
29240DA     SC390063  26.728  88.102  59.743
29240DA     SC490064  26.662  87.951  59.516
29241DA     BB190065  26.324  88.117  58.898
29241DA     BB290066  26.390  88.453  59.030
29241DA     BB390067  26.592  88.510  58.990
29241DA     SC190068  26.703  88.397  59.257
29241DA     SC290069  26.797  88.486  59.470
29241DA     SC390070  26.898  88.251  59.500
29241DA     SC490071  26.758  88.246  59.256
29242DT     BB190072  26.584  88.649  58.884
29242DT     BB290073  26.687  88.896  59.126
29242DT     BB390074  26.891  88.926  59.114
29242DT     SC190075  26.940  88.698  59.233
29242DT     SC290076  27.021  88.736  59.429
29242DT     SC390077  27.027  88.452  59.273
29243DG     BB190078  26.694  89.281  59.066
29243DG     BB290079  26.952  89.303  59.319
29243DG     BB390080  27.131  89.309  59.232
29243DG     SC190081  27.168  89.005  59.231
29243DG     SC290082  27.371  88.853  59.389
29243DG     SC390083  27.234  88.676  59.195
29243DG     SC490084  27.114  88.921  59.106
29244DA     BB190085  27.185  89.591  59.429
29244DA     BB290086  27.476  89.427  59.581
29244DA     BB390087  27.639  89.423  59.443
29244DA     SC190088  27.562  89.147  59.322
29244DA     SC290089  27.651  88.914  59.322
29244DA     SC390090  27.507  88.881  59.112
29244DA     SC490091  27.467  89.147  59.192
29245DT     BB190092  27.806  89.532  59.484
29245DT     BB290093  28.017  89.254  59.574
29245DT     BB390094  28.150  89.214  59.420
29245DT     SC190095  27.962  89.103  59.275
29245DT     SC290096  27.996  88.892  59.262
29245DT     SC390097  27.793  89.063  59.076
29246DT     BB190098  28.355  89.315  59.567
29246DT     BB290099  28.455  88.977  59.491
29246DT     BB390100  28.551  88.971  59.307
29246DT     SC190101  28.323  88.999  59.179
29246DT     SC290102  28.276  88.816  59.077
29246DT     SC390103  28.136  89.103  59.025
29247DA     BB190104  28.793  88.778  59.590
29247DA     BB290105  28.758  88.558  59.299
29247DA     BB390106  28.870  88.634  59.134
29247DA     SC190107  28.635  88.802  59.020
29247DA     SC290108  28.484  88.797  58.821
29247DA     SC390109  28.442  89.045  58.873
29247DA     SC490110  28.622  88.955  59.068
29248DC     BB190111  29.008  88.520  59.086
29248DC     BB290112  28.856  88.394  58.784
29248DC     BB390113  28.934  88.493  58.619
29248DC     SC190114  28.795  88.709  58.673
29248DC     SC290115  28.642  88.734  58.524
29248DC     SC390116  28.739  88.959  58.737
29249DT     BB190117  29.047  88.262  58.568
29249DT     BB290118  28.851  88.339  58.276
29249DT     BB390119  28.954  88.470  58.153
29249DT     SC190120  28.906  88.671  58.315
29249DT     SC290121  28.769  88.807  58.221
29249DT     SC390122  28.949  88.869  58.483
29250DA     BB190123  28.804  88.142  57.934
29250DA     BB290124  28.722  88.451  57.755
29250DA     BB390125  28.900  88.541  57.677
29250DA     SC190126  28.952  88.715  57.929
29250DA     SC290127  28.944  88.957  57.991
29250DA     SC390128  29.096  88.890  58.187
29250DA     SC490129  29.047  88.654  58.043
29251DA     BB190130  28.745  88.533  57.383
29251DA     BB290131  28.779  88.897  57.367
29251DA     BB390132  28.977  88.951  57.309
29251DA     SC190133  29.085  88.965  57.600
29251DA     SC290134  29.163  89.141  57.760
29251DA     SC390135  29.279  88.948  57.883
29251DA     SC490136  29.151  88.833  57.662
29252DC     BB190137  29.037  89.045  57.110
29252DC     BB290138  29.108  89.375  57.235
29252DC     BB390139  29.312  89.412  57.226
29252DC     SC190140  29.357  89.256  57.433
29252DC     SC290141  29.417  89.376  57.601
29252DC     SC390142  29.448  89.055  57.576
29253DA     BB190143  29.174  89.742  57.000
29253DA     BB290144  29.412  89.877  57.244
29253DA     BB390145  29.613  89.845  57.178
29253DA     SC190146  29.642  89.570  57.320
29253DA     SC290147  29.767  89.474  57.513
29253DA     SC390148  29.723  89.246  57.403
29253DA     SC490149  29.605  89.438  57.235
29254DA     BB190150  29.686  90.176  57.193
29254DA     BB290151  29.935  90.102  57.451
29254DA     BB390152  30.120  90.046  57.362
29254DA     SC190153  30.053  89.742  57.356
29254DA     SC290154  30.129  89.534  57.470
29254DA     SC390155  30.026  89.410  57.270
29254DA     SC490156  29.985  89.683  57.222
29255DA     BB190157  30.277  90.291  57.529
29255DA     BB290158  30.467  90.033  57.707
29255DA     BB390159  30.638  89.974  57.592
29255DA     SC190160  30.489  89.745  57.443
29255DA     SC290161  30.492  89.495  57.439
29255DA     SC390162  30.378  89.518  57.210
29255DA     SC490163  30.421  89.780  57.302
29256DG     BB190164  30.815  90.077  57.828
29256DG     BB290165  30.894  89.726  57.864
29256DG     BB390166  31.050  89.679  57.749
29256DG     SC190167  30.881  89.609  57.504
29256DG     SC290168  30.851  89.337  57.384
29256DG     SC390169  30.728  89.543  57.211
29256DG     SC490170  30.843  89.725  57.400
29257DG     BB190171  31.173  89.582  58.027
29257DG     BB290172  31.168  89.251  57.881
29257DG     BB390173  31.328  89.225  57.766
29257DG     SC190174  31.193  89.331  57.512
29257DG     SC290175  31.127  89.171  57.269
29257DG     SC390176  31.083  89.459  57.221
29257DG     SC490177  31.199  89.488  57.481
29258DT     BB190178  31.408  89.077  57.836
29258DT     BB290179  31.343  88.825  57.587
29258DT     BB390180  31.499  88.818  57.451
29258DT     SC190181  31.419  89.040  57.336
29258DT     SC290182  31.344  88.996  57.140
29258DT     SC390183  31.420  89.290  57.253
29259DG     BB190184  31.337  88.479  57.623
29259DG     BB290185  31.378  88.451  57.265
29259DG     BB390186  31.571  88.452  57.218
29259DG     SC190187  31.588  88.756  57.189
29259DG     SC290188  31.638  88.905  56.935
29259DG     SC390189  31.648  89.087  57.168
29259DG     SC490190  31.622  88.844  57.318
29260DT     BB190191  31.565  88.305  57.127
29260DT     BB290192  31.670  88.400  56.795
29260DT     BB390193  31.875  88.429  56.791
29260DT     SC190194  31.852  88.658  56.917
29260DT     SC290195  31.901  88.819  56.783
29260DT     SC390196  31.878  88.841  57.105
29261DA     BB190197  31.772  88.177  56.467
29261DA     BB290198  32.031  88.411  56.355
29261DA     BB390199  32.216  88.369  56.452
29261DA     SC190200  32.162  88.562  56.690
29261DA     SC290201  32.250  88.779  56.775
29261DA     SC390202  32.146  88.709  57.000
29261DA     SC490203  32.092  88.500  56.821
29262DT     BB190204  32.403  88.277  56.361
29262DT     BB290205  32.618  88.567  56.377
29262DT     BB390206  32.761  88.540  56.525
29262DT     SC190207  32.585  88.583  56.714
29262DT     SC290208  32.627  88.771  56.810
29262DT     SC390209  32.430  88.540  56.923
29263DA     BB190210  33.035  88.603  56.205
29263DA     BB290211  33.150  88.816  56.481
29263DA     BB390212  33.258  88.700  56.624
29263DA     SC190213  33.008  88.633  56.796
29263DA     SC290214  32.917  88.692  57.020
29263DA     SC390215  32.774  88.480  56.996
29263DA     SC490216  32.929  88.497  56.762
29264DA     BB190217  33.533  88.897  56.596
29264DA     BB290218  33.492  88.989  56.948
29264DA     BB390219  33.580  88.841  57.074
29264DA     SC190220  33.320  88.672  57.100
29264DA     SC290221  33.152  88.618  57.276
29264DA     SC390222  33.091  88.417  57.127
29264DA     SC490223  33.298  88.553  56.994
29265DG     BB190224  33.785  89.055  57.190
29265DG     BB290225  33.605  89.000  57.500
29265DG     BB390226  33.687  88.848  57.599
29265DG     SC190227  33.511  88.636  57.467
29265DG     SC290228  33.302  88.471  57.604
29265DG     SC390229  33.349  88.374  57.328
29265DG     SC490230  33.559  88.568  57.330
29266DG     BB190231  33.749  89.042  57.861
29266DG     BB290232  33.519  88.831  58.044
29266DG     BB390233  33.615  88.672  58.115
29266DG     SC190234  33.565  88.500  57.868
29266DG     SC290235  33.394  88.255  57.856
29266DG     SC390236  33.546  88.290  57.604
29266DG     SC490237  33.670  88.505  57.747
29267DC     BB190238  33.636  88.632  58.338
29267DC     BB290239  33.399  88.363  58.382
29267DC     BB390240  33.500  88.183  58.404
29267DC     SC190241  33.557  88.174  58.148
29267DC     SC290242  33.445  88.015  58.056
29267DC     SC390243  33.698  88.171  57.926
29268DC     BB190244  33.442  88.171  58.674
29268DC     BB290245  33.310  87.862  58.542
29268DC     BB390246  33.457  87.716  58.543
29268DC     SC190247  33.579  87.825  58.338
29268DC     SC290248  33.557  87.698  58.166
29268DC     SC390249  33.765  87.944  58.194
29269DT     BB190250  33.348  87.575  58.759
29269DT     BB290251  33.367  87.329  58.496
29269DT     BB390252  33.550  87.232  58.503
29269DT     SC190253  33.674  87.440  58.403
29269DT     SC290254  33.741  87.395  58.204
29269DT     SC390255  33.838  87.646  58.385
29270DA     BB190256  33.269  86.920  58.512
29270DA     BB290257  33.511  86.843  58.247
29270DA     BB390258  33.693  86.772  58.332
29270DA     SC190259  33.823  87.055  58.352
29270DA     SC290260  34.007  87.181  58.242
29270DA     SC390261  34.000  87.331  58.450
29270DA     SC490262  33.804  87.135  58.490
29271DG     BB190263  33.645  86.504  58.176
29271DG     BB290264  33.940  86.607  57.994
29271DG     BB390265  34.103  86.544  58.088
29271DG     SC190266  34.131  86.795  58.260
29271DG     SC290267  34.351  86.997  58.242
29271DG     SC390268  34.181  87.048  58.478
29271DG     SC490269  34.056  86.802  58.401
29272DT     BB190270  34.240  86.403  57.988
29272DT     BB290271  34.512  86.623  57.898
29272DT     BB390272  34.672  86.593  58.026
29272DT     SC190273  34.550  86.721  58.220
29272DT     SC290274  34.651  86.908  58.257
29272DT     SC390275  34.435  86.767  58.453
29273DA     BB190276  34.807  86.573  57.630
29273DA     BB290277  35.029  86.799  57.815
29273DA     BB390278  35.154  86.688  57.948
29273DA     SC190279  34.955  86.707  58.187
29273DA     SC290280  34.944  86.820  58.409
29273DA     SC390281  34.768  86.643  58.468
29273DA     SC490282  34.849  86.587  58.205
29274DA     BB190283  35.387  86.854  57.788
29274DA     BB290284  35.481  86.999  58.112
29274DA     BB390285  35.587  86.855  58.229
29274DA     SC190286  35.331  86.743  58.367
29274DA     SC290287  35.228  86.744  58.594
29274DA     SC390288  35.095  86.541  58.512
29274DA     SC490289  35.259  86.617  58.298
29275DT     BB190290  35.792  86.881  58.276
29275DT     BB290291  35.746  86.970  58.623
29275DT     BB390292  35.805  86.813  58.744
29275DT     SC190293  35.590  86.676  58.686
29275DT     SC290294  35.463  86.665  58.860
29275DT     SC390295  35.436  86.482  58.593
29276DG     BB190296  36.049  87.121  58.862
29276DG     BB290297  35.877  86.977  59.145
29276DG     BB390298  35.972  86.813  59.206
29276DG     SC190299  35.813  86.624  59.023
29276DG     SC290300  35.621  86.414  59.113
29276DG     SC390301  35.673  86.393  58.823
29276DG     SC490302  35.866  86.597  58.875
29277DG     BB190303  36.018  86.943  59.505
29277DG     BB290304  35.803  86.679  59.627
29277DG     BB390305  35.911  86.515  59.664
29277DG     SC190306  35.879  86.401  59.382
29277DG     SC290307  35.729  86.153  59.309
29277DG     SC390308  35.882  86.256  59.077
29277DG     SC490309  35.985  86.442  59.269
29278DT     BB190310  35.913  86.442  59.863
29278DT     BB290311  35.690  86.160  59.834
29278DT     BB390312  35.799  85.984  59.831
29278DT     SC190313  35.876  86.028  59.584
29278DT     SC290314  35.782  85.886  59.453
29278DT     SC390315  36.034  86.074  59.378
29279DA     BB190316  35.460  86.000  60.080
29279DA     BB290317  35.448  85.694  59.878
29279DA     BB390318  35.605  85.562  59.934
29279DA     SC190319  35.808  85.676  59.727
29279DA     SC290320  35.918  85.601  59.516
29279DA     SC390321  36.091  85.785  59.566
29279DA     SC490322  35.905  85.794  59.776
29280DG     BB190323  35.319  85.445  59.934
29280DG     BB290324  35.474  85.227  59.691
29280DG     BB390325  35.613  85.116  59.778
29280DG     SC190326  35.839  85.317  59.731
29280DG     SC290327  36.075  85.277  59.552
29280DG     SC390328  36.106  85.523  59.713
29280DG     SC490329  35.865  85.431  59.840
29281DT     BB190330  35.555  84.953  59.735
29281DT     BB290331  35.813  84.827  59.517
29281DT     BB390332  35.970  84.752  59.630
29281DT     SC190333  36.053  84.993  59.690
29281DT     SC290334  36.240  85.032  59.591
29281DT     SC390335  36.114  85.206  59.834
29282DG     BB190336  35.834  84.463  59.374
29282DG     BB290337  36.194  84.493  59.364
29282DG     BB390338  36.273  84.414  59.528
29282DG     SC190339  36.263  84.675  59.688
29282DG     SC290340  36.499  84.833  59.781
29282DG     SC390341  36.249  84.939  59.898
29282DG     SC490342  36.131  84.710  59.771
29283DT     BB190343  36.408  84.232  59.529
29283DT     BB290344  36.730  84.376  59.605
29283DT     BB390345  36.779  84.341  59.803
29283DT     SC190346  36.609  84.523  59.885
29283DT     SC290347  36.717  84.691  59.965
29283DT     SC390348  36.401  84.631  60.005
29284DA     BB190349  37.114  84.186  59.600
29284DA     BB290350  37.240  84.403  59.868
29284DA     BB390351  37.223  84.304  60.056
29284DA     SC190352  36.938  84.416  60.116
29284DA     SC290353  36.833  84.579  60.273
29284DA     SC390354  36.614  84.457  60.219
29284DA     SC490355  36.813  84.327  60.071
29285DG     BB190356  37.537  84.321  60.086
29285DG     BB290357  37.457  84.539  60.363
29285DG     BB390358  37.425  84.432  60.527
29285DG     SC190359  37.125  84.398  60.477
29285DG     SC290360  36.905  84.515  60.642
29285DG     SC390361  36.798  84.325  60.442
29285DG     SC490362  37.075  84.274  60.389
29286DT     BB190363  37.555  84.452  60.709
29286DT     BB290364  37.338  84.642  60.926
29286DT     BB390365  37.258  84.519  61.072
29286DT     SC190366  37.093  84.409  60.900
29286DT     SC290367  36.892  84.470  60.946
29286DT     SC390368  36.977  84.226  60.750
29287DA     BB190369  37.425  84.856  61.257
29287DA     BB290370  37.086  84.810  61.388
29287DA     BB390371  37.079  84.641  61.518
29287DA     SC190372  37.006  84.440  61.292
29287DA     SC290373  36.809  84.304  61.223
29287DA     SC390374  36.978  84.162  61.092
29287DA     SC490375  37.127  84.364  61.219
29288DC     BB190376  37.040  84.685  61.698
29288DC     BB290377  36.701  84.561  61.702
29288DC     BB390378  36.696  84.374  61.792
29288DC     SC190379  36.801  84.260  61.581
29288DC     SC290380  36.653  84.137  61.485
29288DC     SC390381  36.972  84.129  61.429
29289DT     BB190382  36.574  84.490  62.001
29289DT     BB290383  36.349  84.227  61.898
29289DT     BB390384  36.407  84.047  61.983
29289DT     SC190385  36.609  84.025  61.817
29289DT     SC290386  36.572  83.863  61.680
29289DT     SC390387  36.858  84.008  61.730
29290DA     BB190388  36.000  84.091  62.079
29290DA     BB290389  36.047  83.753  61.947
29290DA     BB390390  36.147  83.630  62.090
29290DA     SC190391  36.432  83.698  61.985
29290DA     SC290392  36.617  83.582  61.864
29290DA     SC390393  36.767  83.768  61.957
29290DA     SC490394  36.509  83.822  62.054
29291DA     BB190395  35.890  83.421  62.061
29291DA     BB290396  36.128  83.170  61.938
29291DA     BB390397  36.234  83.083  62.100
29291DA     SC190398  36.466  83.290  62.091
29291DA     SC290399  36.708  83.293  62.030
29291DA     SC390400  36.720  83.507  62.172
29291DA     SC490401  36.454  83.420  62.185
29292DA     BB190402  36.126  82.796  61.978
29292DA     BB290403  36.477  82.706  61.921
29292DA     BB390404  36.568  82.644  62.104
29292DA     SC190405  36.665  82.929  62.181
29292DA     SC290406  36.882  83.052  62.199
29292DA     SC390407  36.754  83.215  62.350
29292DA     SC490408  36.569  83.018  62.273
29293DT     BB190409  36.628  82.453  62.119
29293DT     BB290410  36.980  82.518  62.081
29293DT     BB390411  37.075  82.501  62.265
29293DT     SC190412  36.978  82.732  62.344
29293DT     SC290413  37.137  82.876  62.358
29293DT     SC390414  36.840  82.908  62.485
29294DC     BB190415  37.187  82.276  62.174
29294DC     BB290416  37.464  82.490  62.261
29294DC     BB390417  37.507  82.472  62.463
29294DC     SC190418  37.296  82.614  62.528
29294DC     SC290419  37.359  82.804  62.607
29294DC     SC390420  37.062  82.677  62.631
29295DA     BB190421  37.856  82.428  62.234
29295DA     BB290422  37.922  82.669  62.503
29295DA     BB390423  37.929  82.569  62.692
29295DA     SC190424  37.626  82.606  62.750
29295DA     SC290425  37.483  82.737  62.906
29295DA     SC390426  37.301  82.564  62.852
29295DA     SC490427  37.527  82.488  62.704
29296DG     BB190428  38.212  82.694  62.684
29296DG     BB290429  38.087  82.875  62.971
29296DG     BB390430  38.091  82.758  63.132
29296DG     SC190431  37.809  82.646  63.089
29296DG     SC290432  37.573  82.694  63.264
29296DG     SC390433  37.512  82.488  63.061
29296DG     SC490434  37.791  82.516  62.998
29297DT     BB190435  38.215  82.811  63.302
29297DT     BB290436  37.969  82.921  63.542
29297DT     BB390437  37.935  82.771  63.682
29297DT     SC190438  37.796  82.631  63.509
29297DT     SC290439  37.589  82.631  63.568
29297DT     SC390440  37.725  82.433  63.351
29298DG     BB190441  38.060  83.095  63.899
29298DG     BB290442  37.750  82.962  64.029
29298DG     BB390443  37.787  82.800  64.138
29298DG     SC190444  37.763  82.605  63.903
29298DG     SC290445  37.550  82.399  63.866
29298DG     SC390446  37.764  82.366  63.665
29298DG     SC490447  37.893  82.572  63.816
29299DA     BB190448  37.607  82.943  64.402
29299DA     BB290449  37.369  82.664  64.394
29299DA     BB390450  37.452  82.493  64.490
29299DA     SC190451  37.578  82.378  64.229
29299DA     SC290452  37.541  82.184  64.077
29299DA     SC390453  37.782  82.225  63.999
29299DA     SC490454  37.730  82.418  64.196
29300DA     BB190455  37.176  82.508  64.667
29300DA     BB290456  37.091  82.180  64.528
29300DA     BB390457  37.203  82.027  64.626
29300DA     SC190458  37.440  82.037  64.425
29300DA     SC290459  37.537  81.893  64.246
29300DA     SC390460  37.750  82.032  64.278
29300DA     SC490461  37.563  82.134  64.460
29301DT     BB190462  37.105  81.884  64.745
29301DT     BB290463  37.128  81.612  64.509
29301DT     BB390464  37.267  81.473  64.574
29301DT     SC190465  37.467  81.630  64.508
29301DT     SC290466  37.571  81.546  64.340
29301DT     SC390467  37.680  81.784  64.531
29302DG     BB190468  36.911  81.282  64.526
29302DG     BB290469  37.176  81.118  64.342
29302DG     BB390470  37.286  81.009  64.465
29302DG     SC190471  37.482  81.235  64.531
29302DG     SC290472  37.771  81.245  64.455
29302DG     SC390473  37.703  81.465  64.640
29302DG     SC490474  37.449  81.334  64.652
29303DA     BB190475  37.227  80.765  64.231
29303DA     BB290476  37.589  80.733  64.177
29303DA     BB390477  37.679  80.631  64.341
29303DA     SC190478  37.738  80.891  64.502
29303DA     SC290479  37.938  81.025  64.569
29303DA     SC390480  37.784  81.123  64.750
29303DA     SC490481  37.628  80.939  64.608
29304DA     BB190482  37.783  80.466  64.080
29304DA     BB290483  38.122  80.557  64.187
29304DA     BB390484  38.177  80.447  64.361
29304DA     SC190485  38.070  80.661  64.560
29304DA     SC290486  38.163  80.825  64.723
29304DA     SC390487  37.929  80.824  64.827
29304DA     SC490488  37.918  80.646  64.611
29305DA     BB190489  38.425  80.393  64.157
29305DA     BB290490  38.639  80.544  64.413
29305DA     BB390491  38.659  80.413  64.580
29305DA     SC190492  38.414  80.529  64.733
29305DA     SC290493  38.372  80.665  64.938
29305DA     SC390494  38.134  80.571  64.926
29305DA     SC490495  38.272  80.459  64.709
29306DT     BB190496  38.835  80.350  64.605
29306DT     BB290497  38.913  80.542  64.900
29306DT     BB390498  38.894  80.424  65.068
29306DT     SC190499  38.632  80.434  65.056
29306DT     SC290500  38.557  80.551  65.219
29306DT     SC390501  38.382  80.356  65.030
29307DG     BB190502  39.273  80.574  65.060
29307DG     BB290503  39.115  80.630  65.381
29307DG     BB390504  39.114  80.462  65.486
29307DG     SC190505  38.844  80.367  65.378
29307DG     SC290506  38.592  80.339  65.536
29307DG     SC390507  38.561  80.222  65.266
29307DG     SC490508  38.841  80.279  65.244
29308DA     BB190509  39.259  80.642  65.748
29308DA     BB290510  38.980  80.553  65.968
29308DA     BB390511  38.998  80.350  66.033
29308DA     SC190512  38.833  80.234  65.796
29308DA     SC290513  38.611  80.126  65.762
29308DA     SC390514  38.711  80.037  65.543
29308DA     SC490515  38.914  80.187  65.665
29309DT     BB190516  39.038  80.302  66.234
29309DT     BB290517  38.710  80.177  66.317
29309DT     BB390518  38.715  79.971  66.333
29309DT     SC190519  38.728  79.943  66.073
29309DT     SC290520  38.543  79.860  66.001
29309DT     SC390521  38.820  79.880  65.834
29310DG     BB190522  38.592  80.083  66.708
29310DG     BB290523  38.370  79.833  66.571
29310DG     BB390524  38.448  79.652  66.595
29310DG     SC190525  38.599  79.654  66.329
29310DG     SC290526  38.542  79.479  66.094
29310DG     SC390527  38.793  79.631  66.054
29310DG     SC490528  38.747  79.714  66.324
29311DA     BB190529  38.159  79.529  66.757
29311DA     BB290530  38.110  79.279  66.494
29311DA     BB390531  38.236  79.110  66.529
29311DA     SC190532  38.473  79.222  66.361
29311DA     SC290533  38.586  79.171  66.145
29311DA     SC390534  38.784  79.304  66.241
29311DA     SC490535  38.585  79.307  66.439
29312DA     BB190536  37.956  78.937  66.514
29312DA     BB290537  38.094  78.769  66.219
29312DA     BB390538  38.233  78.619  66.278
29312DA     SC190539  38.479  78.808  66.271
29312DA     SC290540  38.684  78.840  66.132
29312DA     SC390541  38.777  78.968  66.334
29312DA     SC490542  38.520  78.883  66.407
29313DT     BB190543  38.185  78.429  66.238
29313DT     BB290544  38.411  78.388  65.959
29313DT     BB390545  38.574  78.273  66.017
29313DT     SC190546  38.677  78.473  66.152
29313DT     SC290547  38.855  78.542  66.052
29313DT     SC390548  38.766  78.615  66.356
29314DA     BB190549  38.403  78.137  65.659
29314DA     BB290550  38.765  78.169  65.611
29314DA     BB390551  38.869  78.019  65.721
29314DA     SC190552  38.899  78.193  65.977
29314DA     SC290553  39.082  78.307  66.102
29314DA     SC390554  38.920  78.305  66.301
29314DA     SC490555  38.785  78.181  66.090
29315DT     BB190556  38.953  77.915  65.606
29315DT     BB290557  39.288  78.028  65.676
29315DT     BB390558  39.379  77.900  65.812
29315DT     SC190559  39.238  77.998  66.010
29315DT     SC290560  39.366  78.110  66.141
29315DT     SC390561  39.065  78.011  66.209
29316DT     BB190562  39.524  77.836  65.604
29316DT     BB290563  39.760  77.935  65.858
29316DT     BB390564  39.791  77.779  65.990
29316DT     SC190565  39.558  77.820  66.104
29316DT     SC290566  39.587  77.897  66.302
29316DT     SC390567  39.310  77.777  66.184
29317DT     BB190568  40.035  77.745  65.883
29317DT     BB290569  40.097  77.779  66.237
29317DT     BB390570  40.073  77.596  66.331
29317DT     SC190571  39.811  77.612  66.312
29317DT     SC290572  39.727  77.641  66.508
29317DT     SC390573  39.564  77.556  66.242
29318DA     BB190574  40.467  77.691  66.455
29318DA     BB290575  40.287  77.577  66.753
29318DA     BB390576  40.268  77.365  66.752
29318DA     SC190577  39.995  77.366  66.603
29318DA     SC290578  39.756  77.314  66.654
29318DA     SC390579  39.727  77.292  66.400
29318DA     SC490580  39.997  77.355  66.442
29319DT     BB190581  40.378  77.170  66.892
29319DT     BB290582  40.085  77.093  67.088
29319DT     BB390583  40.018  76.903  67.044
29319DT     SC190584  39.920  76.982  66.814
29319DT     SC290585  39.705  76.976  66.822
29319DT     SC390586  39.885  77.004  66.553
29320DA     BB190587  40.074  76.813  67.461
29320DA     BB290588  39.731  76.712  67.380
29320DA     BB390589  39.730  76.516  67.296
29320DA     SC190590  39.756  76.615  67.002
29320DA     SC290591  39.615  76.625  66.797
29320DA     SC390592  39.836  76.650  66.670
29320DA     SC490593  39.905  76.628  66.941
29321DG     BB190594  39.554  76.387  67.537
29321DG     BB290595  39.299  76.368  67.281
29321DG     BB390596  39.306  76.191  67.191
29321DG     SC190597  39.505  76.280  66.976
29321DG     SC290598  39.448  76.304  66.684
29321DG     SC390599  39.736  76.339  66.738
29321DG     SC490600  39.662  76.269  67.006
29322DT     BB190601  39.131  76.050  67.197
29322DT     BB290602  38.995  76.111  66.869
29322DT     BB390603  39.035  75.951  66.744
29322DT     SC190604  39.287  76.022  66.722
29322DT     SC290605  39.323  76.092  66.521
29322DT     SC390606  39.550  76.014  66.739
29323DA     BB190607  38.632  76.065  66.735
29323DA     BB290608  38.759  76.052  66.391
29323DA     BB390609  38.794  75.850  66.333
29323DA     SC190610  39.090  75.848  66.430
29323DA     SC290611  39.317  75.841  66.328
29323DA     SC390612  39.396  75.760  66.558
29323DA     SC490613  39.119  75.797  66.580
29324DT     BB190614  38.686  75.815  66.198
29324DT     BB290615  38.937  75.825  65.940
29324DT     BB390616  39.003  75.633  65.898
29324DT     SC190617  39.143  75.625  66.120
29324DT     SC290618  39.352  75.628  66.073
29324DT     SC390619  39.224  75.550  66.360
29325DT     BB190620  38.879  75.684  65.676
29325DT     BB290621  39.222  75.614  65.586
29325DT     BB390622  39.255  75.410  65.587
29325DT     SC190623  39.257  75.403  65.849
29325DT     SC290624  39.456  75.361  65.918
29325DT     SC390625  39.186  75.345  66.097
29326DT     BB190626  39.274  75.448  65.330
29326DT     BB290627  39.588  75.303  65.432
29326DT     BB390628  39.568  75.098  65.452
29326DT     SC190629  39.437  75.126  65.678
29326DT     SC290630  39.559  75.056  65.841
29326DT     SC390631  39.240  75.115  65.853
29327DT     BB190632  39.723  75.101  65.244
29327DT     BB290633  39.900  74.912  65.495
29327DT     BB390634  39.825  74.719  65.505
29327DT     SC190635  39.609  74.802  65.629
29327DT     SC290636  39.612  74.732  65.833
29327DT     SC390637  39.354  74.852  65.678
29328DA     BB190638  40.246  74.738  65.488
29328DA     BB290639  40.147  74.512  65.760
29328DA     BB390640  40.054  74.337  65.681
29328DA     SC190641  39.767  74.455  65.689
29328DA     SC290642  39.556  74.419  65.818
29328DA     SC390643  39.440  74.536  65.622
29328DA     SC490644  39.713  74.529  65.557
29329DT     BB190645  40.157  74.212  65.730
29329DT     BB290646  39.939  74.067  65.977
29329DT     BB390647  39.823  73.919  65.891
29329DT     SC190648  39.671  74.098  65.772
29329DT     SC290649  39.476  74.096  65.862
29329DT     SC390650  39.555  74.236  65.580
29330DA     BB190651  40.002  73.801  66.256
29330DA     BB290652  39.649  73.703  66.258
29330DA     BB390653  39.613  73.552  66.111
29330DA     SC190654  39.542  73.755  65.886
29330DA     SC290655  39.341  73.826  65.758
29330DA     SC390656  39.507  73.917  65.585
29330DA     SC490657  39.662  73.804  65.790
29331DT     BB190658  39.563  73.380  66.180
29331DT     BB290659  39.217  73.383  66.079
29331DT     BB390660  39.193  73.271  65.906
29331DT     SC190661  39.303  73.459  65.760
29331DT     SC290662  39.152  73.549  65.634
29331DT     SC390663  39.473  73.582  65.600
29332DA     BB190664  38.911  73.109  66.173
29332DA     BB290665  38.741  73.166  65.853
29332DA     BB390666  38.800  73.019  65.710
29332DA     SC190667  39.037  73.187  65.600
29332DA     SC290668  39.096  73.309  65.390
29332DA     SC390669  39.338  73.290  65.471
29332DA     SC490670  39.182  73.164  65.666
29333DA     BB190671  38.476  72.956  65.677
29333DA     BB290672  38.507  73.058  65.327
29333DA     BB390673  38.593  72.902  65.211
29333DA     SC190674  38.886  72.999  65.253
29333DA     SC290675  39.068  73.101  65.116
29333DA     SC390676  39.226  73.016  65.300
29333DA     SC490677  38.968  72.937  65.377
29334DT     BB190678  38.482  72.805  65.064
29334DT     BB290679  38.640  72.965  64.782
29334DT     BB390680  38.764  72.830  64.685
29334DT     SC190681  38.944  72.847  64.875
29334DT     SC290682  39.118  72.948  64.800
29334DT     SC390683  39.102  72.776  65.074
29335DT     BB190684  38.586  72.834  64.488
29335DT     BB290685  38.897  72.939  64.337
29335DT     BB390686  39.009  72.774  64.284
29335DT     SC190687  39.074  72.728  64.534
29335DT     SC290688  39.283  72.769  64.563
29335DT     SC390689  39.092  72.606  64.767
29336DA     BB190690  38.980  73.060  63.977
29336DA     BB290691  39.331  72.962  64.014
29336DA     BB390692  39.359  72.760  63.951
29336DA     SC190693  39.308  72.639  64.233
29336DA     SC290694  39.440  72.525  64.411
29336DA     SC390695  39.213  72.440  64.496
29336DA     SC490696  39.158  72.595  64.269
29337DT     BB190697  39.466  72.765  63.814
29337DT     BB290698  39.756  72.618  63.970
29337DT     BB390699  39.757  72.413  63.938
29337DT     SC190700  39.567  72.377  64.114
29337DT     SC290701  39.647  72.276  64.287
29337DT     SC390702  39.333  72.311  64.217
29338DG     BB190703  40.110  72.560  63.791
29338DG     BB290704  40.166  72.270  64.000
29338DG     BB390705  40.114  72.105  63.902
29338DG     SC190706  39.823  72.109  63.997
29338DG     SC290707  39.695  71.910  64.179
29338DG     SC390708  39.493  72.094  64.066
29338DG     SC490709  39.715  72.191  63.912
29339DT     BB190710  40.254  71.908  63.810
29339DT     BB290711  40.162  71.640  64.032
29339DT     BB390712  40.041  71.504  63.933
29339DT     SC190713  39.836  71.667  63.944
29339DT     SC290714  39.688  71.588  64.078
29339DT     SC390715  39.641  71.826  63.864
29340DC     BB190716  40.211  71.241  63.822
29340DC     BB290717  39.940  71.080  63.998
29340DC     BB390718  39.796  71.018  63.863
29340DC     SC190719  39.710  71.263  63.828
29340DC     SC290720  39.514  71.284  63.914
29340DC     SC390721  39.654  71.492  63.709
29341DT     BB190722  39.807  70.682  63.777
29341DT     BB290723  39.467  70.717  63.893
29341DT     BB390724  39.337  70.717  63.732
29341DT     SC190725  39.406  70.962  63.667
29341DT     SC290726  39.242  71.095  63.706
29341DT     SC390727  39.504  71.163  63.528
29342DT     BB190728  39.205  70.439  63.734
29342DT     BB290729  38.926  70.665  63.771
29342DT     BB390730  38.833  70.693  63.589
29342DT     SC190731  39.027  70.847  63.503
29342DT     SC290732  38.956  71.050  63.487
29342DT     SC390733  39.230  70.934  63.358
29343DT     BB190734  38.612  70.546  63.668
29343DT     BB290735  38.482  70.875  63.598
29343DT     BB390736  38.424  70.888  63.400
29343DT     SC190737  38.674  70.900  63.319
29343DT     SC290738  38.714  71.097  63.243
29343DT     SC390739  38.899  70.835  63.199
29344DT     BB190740  38.183  70.901  63.504
29344DT     BB290741  38.224  71.207  63.318
29344DT     BB390742  38.183  71.174  63.118
29344DT     SC190743  38.411  71.049  63.083
29344DT     SC290744  38.540  71.170  62.960
29344DT     SC390745  38.582  70.856  63.030
29345DG     BB190746  37.963  71.478  63.278
29345DG     BB290747  38.134  71.578  62.975
29345DG     BB390748  38.043  71.499  62.817
29345DG     SC190749  38.211  71.243  62.818
29345DG     SC290750  38.409  71.161  62.609
29345DG     SC390751  38.363  70.942  62.802
29345DG     SC490752  38.162  71.118  62.906
29346DC     BB190753  37.961  71.631  62.676
29346DC     BB290754  38.186  71.599  62.396
29346DC     BB390755  38.105  71.473  62.254
29346DC     SC190756  38.156  71.261  62.400
29346DC     SC290757  38.312  71.146  62.306
29346DC     SC390758  38.118  71.044  62.545
29347DA     BB190759  38.207  71.823  62.046
29347DA     BB290760  38.332  71.539  61.851
29347DA     BB390761  38.171  71.439  61.753
29347DA     SC190762  38.120  71.241  61.988
29347DA     SC290763  38.148  70.997  62.032
29347DA     SC390764  37.977  71.033  62.220
29347DA     SC490765  38.012  71.283  62.098
29348DA     BB190766  38.332  71.485  61.464
29348DA     BB290767  38.348  71.120  61.429
29348DA     BB390768  38.162  71.045  61.355
29348DA     SC190769  38.040  71.000  61.637
29348DA     SC290770  37.977  70.808  61.783
29348DA     SC390771  37.828  70.977  61.907
29348DA     SC490772  37.953  71.120  61.700
29349DA     BB190773  38.332  70.904  61.105
29349DA     BB290774  38.222  70.578  61.232
29349DA     BB390775  38.024  70.535  61.164
29349DA     SC190776  37.886  70.664  61.411
29349DA     SC290777  37.756  70.589  61.610
29349DA     SC390778  37.671  70.831  61.621
29349DA     SC490779  37.843  70.819  61.400
29350DC     BB190780  37.987  70.375  61.030
29350DC     BB290781  37.853  70.150  61.278
29350DC     BB390782  37.648  70.129  61.250
29350DC     SC190783  37.602  70.367  61.351
29350DC     SC290784  37.504  70.346  61.541
29350DC     SC390785  37.526  70.619  61.368
29351DG     BB190786  37.823  69.762  61.233
29351DG     BB290787  37.557  69.772  61.478
29351DG     BB390788  37.381  69.760  61.387
29351DG     SC190789  37.350  70.062  61.353
29351DG     SC290790  37.146  70.235  61.487
29351DG     SC390791  37.293  70.387  61.280
29351DG     SC490792  37.410  70.132  61.222
29352DT     BB190793  37.266  69.597  61.440
29352DT     BB290794  37.014  69.750  61.649
29352DT     BB390795  36.840  69.778  61.540
29352DT     SC190796  36.945  69.981  61.411
29352DT     SC290797  36.849  70.163  61.473
29352DT     SC390798  37.037  70.128  61.212
29353DT     BB190799  36.733  69.583  61.687
29353DT     BB290800  36.516  69.867  61.738
29353DT     BB390801  36.377  69.877  61.585
29353DT     SC190802  36.557  69.966  61.416
29353DT     SC290803  36.516  70.172  61.369
29353DT     SC390804  36.718  69.977  61.207
29354DA     BB190805  36.168  69.894  61.948
29354DA     BB290806  36.046  70.166  61.734
29354DA     BB390807  35.924  70.089  61.577
29354DA     SC190808  36.160  70.054  61.378
29354DA     SC290809  36.239  70.159  61.166
29354DA     SC390810  36.373  69.943  61.133
29354DA     SC490811  36.235  69.912  61.375
29355DC     BB190812  35.725  70.135  61.575
29355DC     BB290813  35.740  70.371  61.303
29355DC     BB390814  35.660  70.287  61.132
29355DC     SC190815  35.874  70.138  61.097
29355DC     SC290816  35.981  70.208  60.924
29355DC     SC390817  36.026  69.924  61.074
29356DT     BB190818  35.448  70.450  61.158
29356DT     BB290819  35.584  70.526  60.833
29356DT     BB390820  35.506  70.396  60.692
29356DT     SC190821  35.657  70.199  60.778
29356DT     SC290822  35.807  70.154  60.630
29356DT     SC390823  35.727  69.968  60.883
29357DA     BB190824  35.479  70.795  60.569
29357DA     BB290825  35.627  70.599  60.297
29357DA     BB390826  35.480  70.472  60.209
29357DA     SC190827  35.540  70.232  60.397
29357DA     SC290828  35.642  70.005  60.380
29357DA     SC390829  35.516  69.954  60.598
29357DA     SC490830  35.453  70.219  60.532
29358DA     BB190831  35.643  70.640  59.981
29358DA     BB290832  35.731  70.311  59.845
29358DA     BB390833  35.556  70.212  59.773
29358DA     SC190834  35.496  70.070  60.044
29358DA     SC290835  35.501  69.839  60.137
29358DA     SC390836  35.343  69.929  60.317
29358DA     SC490837  35.397  70.145  60.147
29359DT     BB190838  35.595  70.196  59.615
29359DT     BB290839  35.636  69.838  59.607
29359DT     BB390840  35.454  69.747  59.568
29359DT     SC190841  35.370  69.794  59.812
29359DT     SC290842  35.356  69.609  59.920
29359DT     SC390843  35.225  69.891  60.010
29360DT     BB190844  35.578  69.694  59.347
29360DT     BB290845  35.456  69.376  59.468
29360DT     BB390846  35.253  69.359  59.429
29360DT     SC190847  35.194  69.526  59.623
29360DT     SC290848  35.097  69.419  59.782
29360DT     SC390849  35.103  69.741  59.746
29361DT     BB190850  35.299  69.182  59.227
29361DT     BB290851  35.054  69.015  59.433
29361DT     BB390852  34.864  69.074  59.378
29361DT     SC190853  34.893  69.308  59.493
29361DT     SC290854  34.767  69.319  59.666
29361DT     SC390855  34.914  69.569  59.522
29362DG     BB190856  34.835  68.670  59.300
29362DG     BB290857  34.555  68.779  59.501
29362DG     BB390858  34.415  68.859  59.385
29362DG     SC190859  34.528  69.143  59.402
29362DG     SC290860  34.398  69.377  59.534
29362DG     SC390861  34.637  69.462  59.382
29362DG     SC490862  34.639  69.189  59.296
29363DA     BB190863  34.154  68.647  59.502
29363DA     BB290864  33.967  68.936  59.629
29363DA     BB390865  33.855  69.026  59.471
29363DA     SC190866  34.082  69.224  59.392
29363DA     SC290867  34.126  69.469  59.404
29363DA     SC390868  34.300  69.426  59.220
29363DA     SC490869  34.184  69.177  59.277
29364DG     BB190870  33.598  68.959  59.637
29364DG     BB290871  33.573  69.319  59.662
29364DG     BB390872  33.480  69.392  59.502
29364DG     SC190873  33.737  69.428  59.339
29364DG     SC290874  33.855  69.689  59.253
29364DG     SC390875  33.995  69.462  59.125
29364DG     SC490876  33.789  69.306  59.249
29365DT     BB190877  33.293  69.498  59.527
29365DT     BB290878  33.398  69.839  59.479
29365DT     BB390879  33.343  69.904  59.290
29365DT     SC190880  33.535  69.764  59.178
29365DT     SC290881  33.684  69.898  59.100
29365DT     SC390882  33.654  69.583  59.029
29366DA     BB190883  33.225  70.181  59.584
29366DA     BB290884  33.394  70.363  59.315
29366DA     BB390885  33.273  70.365  59.139
29366DA     SC190886  33.395  70.104  59.022
29366DA     SC290887  33.542  70.038  58.832
29366DA     SC390888  33.444  69.803  58.865
29366DA     SC490889  33.321  69.965  59.058
29367DA     BB190890  33.341  70.685  59.178
29367DA     BB290891  33.488  70.672  58.842
29367DA     BB390892  33.334  70.652  58.695
29367DA     SC190893  33.341  70.340  58.696
29367DA     SC290894  33.411  70.157  58.543
29367DA     SC390895  33.258  70.007  58.685
29367DA     SC490896  33.240  70.265  58.796
29368DT     BB190897  33.288  70.807  58.558
29368DT     BB290898  33.423  70.652  58.261
29368DT     BB390899  33.268  70.584  58.141
29368DT     SC190900  33.223  70.381  58.301
29368DT     SC290901  33.281  70.198  58.204
29368DT     SC390902  33.098  70.222  58.470
29369DG     BB190903  33.417  70.861  57.865
29369DG     BB290904  33.377  70.539  57.705
29369DG     BB390905  33.190  70.517  57.642
29369DG     SC190906  33.089  70.393  57.902
29369DG     SC290907  32.994  70.112  57.937
29369DG     SC390908  32.941  70.272  58.180
29369DG     SC490909  33.036  70.489  58.019
29370DT     BB190910  33.044  70.502  57.380
29370DT     BB290911  32.989  70.145  57.378
29370DT     BB390912  32.786  70.105  57.386
29370DT     SC190913  32.775  70.168  57.640
29370DT     SC290914  32.740  69.990  57.756
29370DT     SC390915  32.711  70.295  57.862
29371DT     BB190916  32.708  70.023  57.100
29371DT     BB290917  32.620  69.735  57.299
29371DT     BB390918  32.417  69.738  57.342
29371DT     SC190919  32.450  69.929  57.520
29371DT     SC290920  32.415  69.849  57.717
29371DT     SC390921  32.430  70.164  57.638
29372DA     BB190922  32.494  69.365  57.172
29372DA     BB290923  32.335  69.310  57.497
29372DA     BB390924  32.125  69.348  57.485
29372DA     SC190925  32.150  69.648  57.561
29372DA     SC290926  32.092  69.795  57.754
29372DA     SC390927  32.110  69.988  57.586
29372DA     SC490928  32.165  69.754  57.442
29373DA     BB190929  32.162  69.055  57.615
29373DA     BB290930  32.004  69.199  57.913
29373DA     BB390931  31.796  69.233  57.877
29373DA     SC190932  31.836  69.523  57.773
29373DA     SC290933  31.787  69.756  57.849
29373DA     SC390934  31.813  69.820  57.602
29373DA     SC490935  31.855  69.543  57.614
29374DA     BB190936  31.842  69.070  58.155
29374DA     BB290937  31.678  69.357  58.313
29374DA     BB390938  31.473  69.367  58.254
29374DA     SC190939  31.528  69.549  58.008
29374DA     SC290940  31.483  69.785  57.939
29374DA     SC390941  31.521  69.700  57.700
29374DA     SC490942  31.553  69.477  57.866
29375DA     BB190943  31.491  69.386  58.580
29375DA     BB290944  31.322  69.709  58.540
29375DA     BB390945  31.123  69.681  58.468
29375DA     SC190946  31.202  69.698  58.168
29375DA     SC290947  31.170  69.855  57.977
29375DA     SC390948  31.224  69.654  57.828
29375DA     SC490949  31.237  69.560  58.092
29376DG     BB190950  31.083  69.833  58.733
29376DG     BB290951  30.946  70.082  58.509
29376DG     BB390952  30.765  70.026  58.449
29376DG     SC190953  30.866  69.873  58.204
29376DG     SC290954  30.819  69.947  57.919
29376DG     SC390955  30.944  69.679  57.939
29376DG     SC490956  30.905  69.718  58.220
29377DG     BB190957  30.668  70.312  58.573
29377DG     BB290958  30.565  70.392  58.235
29377DG     BB390959  30.392  70.304  58.194
29377DG     SC190960  30.520  70.048  58.086
29377DG     SC290961  30.511  69.953  57.803
29377DG     SC390962  30.626  69.746  57.980
29377DG     SC490963  30.553  69.929  58.188
29378DA     BB190964  30.290  70.620  58.095
29378DA     BB290965  30.220  70.491  57.759
29378DA     BB390966  30.041  70.374  57.760
29378DA     SC190967  30.188  70.106  57.820
29378DA     SC290968  30.240  69.893  57.700
29378DA     SC390969  30.275  69.794  57.934
29378DA     SC490970  30.204  70.062  57.974
29379DG     BB190971  29.958  70.589  57.555
29379DG     BB290972  29.951  70.304  57.332
29379DG     BB390973  29.782  70.202  57.358
29379DG     SC190974  29.898  70.020  57.575
29379DG     SC290975  29.945  69.726  57.551
29379DG     SC390976  29.986  69.816  57.829
29379DG     SC490977  29.890  70.066  57.728
29380DA     BB190978  29.769  70.233  57.015
29380DA     BB290979  29.764  69.868  56.987
29380DA     BB390980  29.576  69.791  57.050
29380DA     SC190981  29.663  69.755  57.347
29380DA     SC290982  29.711  69.567  57.504
29380DA     SC390983  29.673  69.740  57.690
29380DA     SC490984  29.635  69.877  57.448
29381DC     BB190985  29.469  69.706  56.912
29381DC     BB290986  29.516  69.366  57.021
29381DC     BB390987  29.347  69.300  57.122
29381DC     SC190988  29.408  69.442  57.334
29381DC     SC290989  29.465  69.310  57.494
29381DC     SC390990  29.392  69.624  57.523
29382DC     BB190991  29.295  69.143  56.911
29382DC     BB290992  29.312  68.917  57.191
29382DC     BB390993  29.129  68.909  57.287
29382DC     SC190994  29.167  69.145  57.395
29382DC     SC290995  29.196  69.123  57.607
29382DC     SC390996  29.132  69.401  57.452
29383DT     BB190997  29.101  68.662  57.190
29383DT     BB290998  29.072  68.624  57.547
29383DT     BB390999  28.877  68.661  57.606
29383DT     SC191000  28.908  68.919  57.574
29383DT     SC291001  28.907  69.016  57.766
29383DT     SC391002  28.875  69.163  57.478
29384DA     BB191003  29.012  68.298  57.769
29384DA     BB291004  28.858  68.495  58.038
29384DA     BB391005  28.647  68.504  58.011
29384DA     SC191006  28.654  68.764  57.841
29384DA     SC291007  28.587  69.003  57.866
29384DA     SC391008  28.593  69.011  57.610
29384DA     SC491009  28.661  68.748  57.681
29385DT     BB191010  28.560  68.420  58.149
29385DT     BB291011  28.431  68.715  58.311
29385DT     BB391012  28.234  68.747  58.255
29385DT     SC191013  28.308  68.834  58.018
29385DT     SC291014  28.269  69.045  58.004
29385DT     SC391015  28.335  68.847  57.757
29386DA     BB191016  28.265  68.764  58.674
29386DA     BB291017  28.064  69.050  58.562
29386DA     BB391018  27.874  68.983  58.491
29386DA     SC191019  27.969  68.949  58.196
29386DA     SC291020  27.931  69.061  57.976
29386DA     SC391021  28.017  68.842  57.874
29386DA     SC491022  28.024  68.805  58.152
29387DT     BB191023  27.710  69.033  58.594
29387DT     BB291024  27.569  69.268  58.359
29387DT     BB391025  27.414  69.180  58.255
29387DT     SC191026  27.581  69.040  58.110
29387DT     SC291027  27.578  69.112  57.907
29387DT     SC391028  27.706  68.831  58.006
29388DG     BB191029  27.199  69.484  58.438
29388DG     BB291030  27.122  69.474  58.084
29388DG     BB391031  26.985  69.335  58.049
29388DG     SC191032  27.188  69.110  58.004
29388DG     SC291033  27.240  68.970  57.745
29388DG     SC391034  27.382  68.837  57.968
29388DG     SC491035  27.238  69.025  58.129
29389DA     BB191036  26.698  69.519  57.882
29389DA     BB291037  26.731  69.321  57.575
29389DA     BB391038  26.613  69.144  57.588
29389DA     SC191039  26.843  68.972  57.709
29389DA     SC291040  26.989  68.783  57.638
29389DA     SC391041  27.027  68.744  57.889
29389DA     SC491042  26.853  68.963  57.869
29390DT     BB191043  26.354  69.019  57.469
29390DT     BB291044  26.537  68.800  57.248
29390DT     BB391045  26.491  68.602  57.290
29390DT     SC191046  26.636  68.606  57.508
29390DT     SC291047  26.810  68.483  57.481
29390DT     SC391048  26.701  68.596  57.764
29391DA     BB191049  26.348  68.559  56.884
29391DA     BB291050  26.599  68.296  56.929
29391DA     BB391051  26.508  68.119  57.007
29391DA     SC191052  26.553  68.198  57.305
29391DA     SC291053  26.694  68.122  57.496
29391DA     SC391054  26.523  68.243  57.644
29391DA     SC491055  26.436  68.277  57.379
29392DT     BB191056  26.491  67.914  56.894
29392DT     BB291057  26.772  67.767  57.067
29392DT     BB391058  26.708  67.608  57.183
29392DT     SC191059  26.604  67.770  57.361
29392DT     SC291060  26.719  67.761  57.542
29392DT     SC391061  26.423  67.891  57.511
29393DT     BB191062  26.837  67.449  57.009
29393DT     BB291063  26.996  67.389  57.327
29393DT     BB391064  26.894  67.242  57.431
29393DT     SC191065  26.699  67.409  57.489
29393DT     SC291066  26.703  67.452  57.700
29393DT     SC391067  26.458  67.516  57.497
29394DC     BB191068  27.112  67.103  57.383
29394DC     BB291069  27.079  67.108  57.742
29394DC     BB391070  26.947  66.961  57.803
29394DC     SC191071  26.741  67.101  57.720
29394DC     SC291072  26.628  67.169  57.890
29394DC     SC391073  26.527  67.169  57.582
29395DT     BB191074  27.162  66.840  57.901
29395DT     BB291075  26.940  66.874  58.182
29395DT     BB391076  26.804  66.718  58.184
29395DT     SC191077  26.669  66.823  57.985
29395DT     SC291078  26.478  66.892  58.057
29395DT     SC391079  26.561  66.851  57.747
29396DT     BB191080  26.933  66.608  58.398
29396DT     BB291081  26.591  66.641  58.509
29396DT     BB391082  26.483  66.473  58.455
29396DT     SC191083  26.475  66.549  58.204
29396DT     SC291084  26.273  66.605  58.153
29396DT     SC391085  26.514  66.549  57.943
29397DG     BB191086  26.448  66.483  58.862
29397DG     BB291087  26.123  66.449  58.707
29397DG     BB391088  26.091  66.260  58.657
29397DG     SC191089  26.213  66.286  58.378
29397DG     SC291090  26.066  66.265  58.119
29397DG     SC391091  26.358  66.274  58.074
29397DG     SC491092  26.370  66.261  58.359
29398DG     BB191093  25.817  66.229  58.849
29398DG     BB291094  25.632  66.170  58.544
29398DG     BB391095  25.635  65.976  58.499
29398DG     SC191096  25.891  65.992  58.332
29398DG     SC291097  25.911  65.948  58.038
29398DG     SC391098  26.180  65.970  58.160
29398DG     SC491099  26.032  65.975  58.405
29399DT     BB191100  25.445  65.834  58.493
29399DT     BB291101  25.400  65.799  58.136
29399DT     BB391102  25.452  65.608  58.077
29399DT     SC191103  25.708  65.661  58.102
29399DT     SC291104  25.799  65.667  57.908
29399DT     SC391105  25.956  65.650  58.191
29400DT     BB191106  25.190  65.551  58.035
29400DT     BB291107  25.348  65.489  57.717
29400DT     BB391108  25.418  65.294  57.709
29400DT     SC191109  25.618  65.352  57.868
29400DT     SC291110  25.802  65.344  57.757
29400DT     SC391111  25.776  65.350  58.080
29401DG     BB191112  25.168  65.373  57.397
29401DG     BB291113  25.484  65.237  57.286
29401DG     BB391114  25.490  65.041  57.323
29401DG     SC191115  25.611  65.073  57.603
29401DG     SC291116  25.884  64.987  57.687
29401DG     SC391117  25.724  65.072  57.921
29401DG     SC491118  25.512  65.091  57.728
29402DT     BB191119  25.511  64.918  57.159
29402DT     BB291120  25.852  64.806  57.190
29402DT     BB391121  25.857  64.617  57.276
29402DT     SC191122  25.802  64.715  57.513
29402DT     SC291123  25.975  64.697  57.640
29402DT     SC391124  25.673  64.762  57.738
29403DT     BB191125  25.929  64.522  57.036
29403DT     BB291126  26.190  64.413  57.260
29403DT     BB391127  26.133  64.237  57.354
29403DT     SC191128  25.966  64.366  57.511
29403DT     SC291129  26.042  64.364  57.713
29403DT     SC391130  25.740  64.443  57.623
29404DA     BB191131  26.512  64.166  57.188
29404DA     BB291132  26.520  64.052  57.536
29404DA     BB391133  26.410  63.870  57.557
29404DA     SC191134  26.141  64.012  57.622
29404DA     SC291135  25.990  64.041  57.819
29404DA     SC391136  25.809  64.100  57.646
29404DA     SC491137  26.042  64.045  57.499
29405DT     BB191138  26.509  63.699  57.605
29405DT     BB291139  26.398  63.680  57.947
29405DT     BB391140  26.255  63.532  57.967
29405DT     SC191141  26.073  63.682  57.851
29405DT     SC291142  25.926  63.741  57.997
29405DT     SC391143  25.895  63.765  57.675
29406DA     BB191144  26.549  63.464  58.257
29406DA     BB291145  26.222  63.453  58.422
29406DA     BB391146  26.118  63.273  58.371
29406DA     SC191147  25.976  63.397  58.124
29406DA     SC291148  25.745  63.462  58.058
29406DA     SC391149  25.832  63.449  57.817
29406DA     SC491150  26.049  63.382  57.981
29407DA     BB191151  26.107  63.267  58.697
29407DA     BB291152  25.742  63.273  58.662
29407DA     BB391153  25.671  63.084  58.593
29407DA     SC191154  25.689  63.159  58.292
29407DA     SC291155  25.533  63.205  58.103
29407DA     SC391156  25.734  63.155  57.951
29407DA     SC491157  25.826  63.124  58.214
29408DC     BB191158  25.563  62.999  58.719
29408DC     BB291159  25.248  63.049  58.551
29408DC     BB391160  25.194  62.877  58.449
29408DC     SC191161  25.372  62.923  58.261
29408DC     SC291162  25.272  62.974  58.078
29408DC     SC391163  25.584  62.892  58.107
29409DG     BB191164  24.896  62.981  58.706
29409DG     BB291165  24.771  62.926  58.372
29409DG     BB391166  24.764  62.731  58.334
29409DG     SC191167  25.048  62.718  58.221
29409DG     SC291168  25.122  62.660  57.938
29409DG     SC391169  25.362  62.663  58.111
29409DG     SC491170  25.170  62.691  58.322
29410DA     BB191171  24.433  62.785  58.237
29410DA     BB291172  24.507  62.648  57.905
29410DA     BB391173  24.527  62.436  57.915
29410DA     SC191174  24.834  62.444  57.967
29410DA     SC291175  25.043  62.385  57.845
29410DA     SC391176  25.153  62.380  58.077
29410DA     SC491177  24.883  62.444  58.120
29411DA     BB191178  24.292  62.422  57.679
29411DA     BB291179  24.537  62.253  57.465
29411DA     BB391180  24.556  62.048  57.521
29411DA     SC191181  24.786  62.099  57.724
29411DA     SC291182  25.030  62.050  57.742
29411DA     SC391183  24.998  62.089  57.994
29411DA     SC491184  24.745  62.125  57.877
29412DA     BB191185  24.482  61.963  57.205
29412DA     BB291186  24.813  61.808  57.182
29412DA     BB391187  24.811  61.614  57.272
29412DA     SC191188  24.892  61.718  57.554
29412DA     SC291189  25.089  61.706  57.706
29412DA     SC391190  24.925  61.765  57.893
29412DA     SC491191  24.773  61.754  57.657
29413DA     BB191192  24.924  61.497  56.983
29413DA     BB291193  25.228  61.394  57.161
29413DA     BB391194  25.194  61.210  57.264
29413DA     SC191195  25.101  61.346  57.527
29413DA     SC291196  25.186  61.376  57.760
29413DA     SC391197  24.941  61.424  57.821
29413DA     SC491198  24.943  61.371  57.546
29414DA     BB191199  25.458  61.113  57.094
29414DA     BB291200  25.627  61.071  57.417
29414DA     BB391201  25.565  60.889  57.510
29414DA     SC191202  25.329  61.021  57.665
29414DA     SC291203  25.271  61.076  57.901
29414DA     SC391204  25.029  61.086  57.818
29414DA     SC491205  25.185  61.020  57.594
29415DT     BB191206  25.704  60.756  57.532
29415DT     BB291207  25.752  60.805  57.886
29415DT     BB391208  25.663  60.651  57.991
29415DT     SC191209  25.423  60.749  57.947
29415DT     SC291210  25.342  60.824  58.131
29415DT     SC391211  25.176  60.769  57.858
29416DT     BB191212  25.911  60.588  58.044
29416DT     BB291213  25.754  60.641  58.364
29416DT     BB391214  25.649  60.472  58.420
29416DT     SC191215  25.458  60.525  58.248
29416DT     SC291216  25.279  60.581  58.355
29416DT     SC391217  25.296  60.499  58.042
29417DT     BB191218  25.838  60.459  58.599
29417DT     BB291219  25.529  60.468  58.786
29417DT     BB391220  25.443  60.280  58.789
29417DT     SC191221  25.365  60.302  58.539
29417DT     SC291222  25.151  60.319  58.532
29417DT     SC391223  25.345  60.255  58.281
29418DA     BB191224  25.458  60.449  59.175
29418DA     BB291225  25.124  60.309  59.122
29418DA     BB391226  25.133  60.096  59.114
29418DA     SC191227  25.174  60.084  58.806
29418DA     SC291228  25.044  60.012  58.605
29418DA     SC391229  25.272  59.999  58.488
29418DA     SC491230  25.325  60.080  58.751
29419DG     BB191231  24.939  60.115  59.358
29419DG     BB291232  24.713  59.939  59.137
29419DG     BB391233  24.757  59.745  59.136
29419DG     SC191234  24.956  59.766  58.904
29419DG     SC291235  24.920  59.649  58.632
29419DG     SC391236  25.194  59.756  58.666
29419DG     SC491237  25.109  59.798  58.936
29420DC     BB191238  24.617  59.577  59.213
29420DC     BB291239  24.509  59.423  58.905
29420DC     BB391240  24.608  59.243  58.877
29420DC     SC191241  24.830  59.366  58.811
29420DC     SC291242  24.870  59.334  58.602
29420DC     SC391243  25.081  59.447  58.821
29421DA     BB191244  24.206  59.116  58.851
29421DA     BB291245  24.382  58.970  58.564
29421DA     BB391246  24.496  58.800  58.626
29421DA     SC191247  24.754  58.965  58.684
29421DA     SC291248  24.982  58.992  58.587
29421DA     SC391249  25.046  59.087  58.816
29421DA     SC491250  24.775  59.020  58.834
29422DC     BB191251  24.456  58.580  58.571
29422DC     BB291252  24.726  58.546  58.335
29422DC     BB391253  24.872  58.420  58.410
29422DC     SC191254  24.957  58.605  58.576
29422DC     SC291255  25.152  58.672  58.514
29422DC     SC391256  25.014  58.729  58.802
29423DT     BB191257  24.810  58.196  58.246
29423DT     BB291258  25.159  58.257  58.180
29423DT     BB391259  25.277  58.145  58.308
29423DT     SC191260  25.223  58.305  58.509
29423DT     SC291261  25.400  58.416  58.562
29423DT     SC391262  25.132  58.389  58.742
29424DT     BB191263  25.360  57.951  58.117
29424DT     BB291264  25.670  58.086  58.243
29424DT     BB391265  25.737  57.972  58.403
29424DT     SC191266  25.555  58.075  58.562
29424DT     SC291267  25.651  58.202  58.707
29424DT     SC391268  25.346  58.092  58.722
29425DA     BB191269  26.067  57.971  58.143
29425DA     BB291270  26.190  58.071  58.474
29425DA     BB391271  26.208  57.901  58.601
29425DA     SC191272  25.919  57.924  58.714
29425DA     SC291273  25.810  57.983  58.930
29425DA     SC391274  25.606  57.859  58.838
29425DA     SC491275  25.803  57.842  58.639
29426DC     BB191276  26.402  57.824  58.674
29426DC     BB291277  26.367  57.957  59.008
29426DC     BB391278  26.340  57.803  59.143
29426DC     SC191279  26.092  57.768  59.064
29426DC     SC291280  25.958  57.830  59.220
29426DC     SC391281  25.878  57.653  58.961
29427DA     BB191282  26.657  58.035  59.284
29427DA     BB291283  26.414  57.999  59.556
29427DA     BB391284  26.425  57.803  59.640
29427DA     SC191285  26.212  57.681  59.449
29427DA     SC291286  25.979  57.595  59.465
29427DA     SC391287  26.031  57.474  59.244
29427DA     SC491288  26.264  57.613  59.313
29428DG     BB191289  26.486  57.983  59.877
29428DG     BB291290  26.168  57.853  59.990
29428DG     BB391291  26.193  57.671  60.067
29428DG     SC191292  26.150  57.525  59.801
29428DG     SC291293  25.921  57.347  59.734
29428DG     SC391294  26.128  57.334  59.524
29428DG     SC491295  26.276  57.499  59.706
29429DA     BB191296  26.003  57.851  60.282
29429DA     BB291297  25.743  57.595  60.247
29429DA     BB391298  25.807  57.411  60.334
29429DA     SC191299  25.933  57.303  60.071
29429DA     SC291300  25.886  57.123  59.904
29429DA     SC391301  26.132  57.148  59.838
29429DA     SC491302  26.089  57.332  60.045
29430DT     BB191303  25.684  57.423  60.420
29430DT     BB291304  25.506  57.144  60.274
29430DT     BB391305  25.582  56.966  60.346
29430DT     SC191306  25.796  56.988  60.196
29430DT     SC291307  25.791  56.838  60.042
29430DT     SC391308  26.050  57.014  60.127
29431DA     BB191309  25.158  57.011  60.315
29431DA     BB291310  25.257  56.679  60.196
29431DA     BB391311  25.343  56.566  60.355
29431DA     SC191312  25.634  56.660  60.296
29431DA     SC291313  25.846  56.562  60.209
29431DA     SC391314  25.961  56.761  60.322
29431DA     SC491315  25.687  56.790  60.375
29432DA     BB191316  25.114  56.373  60.214
29432DA     BB291317  25.385  56.127  60.179
29432DA     BB391318  25.450  56.062  60.371
29432DA     SC191319  25.669  56.281  60.398
29432DA     SC291320  25.918  56.295  60.398
29432DA     SC391321  25.886  56.521  60.515
29432DA     SC491322  25.629  56.418  60.471
29433DA     BB191323  25.392  55.757  60.251
29433DA     BB291324  25.741  55.676  60.326
29433DA     BB391325  25.768  55.650  60.537
29433DA     SC191326  25.839  55.949  60.588
29433DA     SC291327  26.039  56.083  60.652
29433DA     SC391328  25.871  56.264  60.722
29433DA     SC491329  25.718  56.048  60.627
29434DA     BB191330  25.894  55.339  60.491
29434DA     BB291331  26.204  55.450  60.652
29434DA     BB391332  26.183  55.447  60.865
29434DA     SC191333  26.083  55.741  60.882
29434DA     SC291334  26.167  55.960  60.966
29434DA     SC391335  25.921  56.032  60.968
29434DA     SC491336  25.924  55.766  60.878
29435DC     BB191337  26.285  55.300  61.031
29435DC     BB291338  26.517  55.542  61.162
29435DC     BB391339  26.467  55.591  61.357
29435DC     SC191340  26.264  55.736  61.277
29435DC     SC291341  26.306  55.944  61.315
29435DC     SC391342  26.016  55.819  61.243
29436DA     BB191343  26.866  55.465  61.419
29436DA     BB291344  26.832  55.792  61.582
29436DA     BB391345  26.737  55.771  61.772
29436DA     SC191346  26.450  55.811  61.660
29436DA     SC291347  26.269  55.983  61.670
29436DA     SC391348  26.112  55.793  61.600
29436DA     SC491349  26.368  55.679  61.617
29437DT     BB191350  26.836  55.807  61.975
29437DT     BB291351  26.680  56.127  62.035
29437DT     BB391352  26.546  56.112  62.191
29437DT     SC191353  26.372  55.985  62.041
29437DT     SC291354  26.202  56.112  62.005
29437DT     SC391355  26.215  55.793  61.951
29438DA     BB191356  26.800  56.431  62.281
29438DA     BB291357  26.455  56.550  62.315
29438DA     BB391358  26.367  56.475  62.494
29438DA     SC191359  26.253  56.219  62.361
29438DA     SC291360  26.030  56.126  62.300
29438DA     SC391361  26.148  55.899  62.294
29438DA     SC491362  26.345  56.086  62.364
29439DT     BB191363  26.322  56.611  62.625
29439DT     BB291364  25.966  56.605  62.569
29439DT     BB391365  25.872  56.501  62.722
29439DT     SC191366  25.954  56.271  62.627
29439DT     SC291367  25.785  56.162  62.549
29439DT     SC391368  26.079  56.039  62.611
29440DA     BB191369  25.690  56.872  62.651
29440DA     BB291370  25.429  56.614  62.660
29440DA     BB391371  25.404  56.542  62.860
29440DA     SC191372  25.612  56.313  62.830
29440DA     SC291373  25.613  56.064  62.817
29440DA     SC391374  25.860  56.081  62.883
29440DA     SC491375  25.764  56.345  62.873
29441DT     BB191376  25.239  56.583  62.914
29441DT     BB291377  25.102  56.249  62.901
29441DT     BB391378  25.110  56.162  63.089
29441DT     SC191379  25.368  56.124  63.069
29441DT     SC291380  25.408  55.913  63.051
29441DT     SC391381  25.627  56.143  63.120
29442DT     BB191382  24.848  56.188  63.083
29442DT     BB291383  24.907  55.837  63.141
29442DT     BB391384  24.945  55.804  63.341
29442DT     SC191385  25.187  55.904  63.319
29442DT     SC291386  25.332  55.747  63.341
29442DT     SC391387  25.393  56.065  63.355
29443DT     BB191388  24.705  55.688  63.357
29443DT     BB291389  24.936  55.438  63.477
29443DT     BB391390  24.977  55.470  63.677
29443DT     SC191391  25.131  55.675  63.621
29443DT     SC291392  25.335  55.624  63.664
29443DT     SC391393  25.220  55.923  63.612
29444DA     BB191394  24.857  55.068  63.650
29444DA     BB291395  25.166  55.079  63.847
29444DA     BB391396  25.127  55.157  64.042
29444DA     SC191397  25.182  55.452  63.961
29444DA     SC291398  25.354  55.627  64.006
29444DA     SC391399  25.175  55.794  63.932
29444DA     SC491400  25.056  55.541  63.913
29445DG     BB191401  25.229  54.881  64.151
29445DG     BB291402  25.493  55.084  64.292
29445DG     BB391403  25.432  55.163  64.465
29445DG     SC191404  25.316  55.415  64.337
29445DG     SC291405  25.421  55.693  64.371
29445DG     SC391406  25.162  55.695  64.228
29445DG     SC491407  25.164  55.414  64.287
29446DA     BB191408  25.720  55.032  64.611
29446DA     BB291409  25.829  55.371  64.700
29446DA     BB391410  25.722  55.440  64.872
29446DA     SC191411  25.493  55.571  64.706
29446DA     SC291412  25.412  55.801  64.653
29446DA     SC391413  25.190  55.686  64.594
29446DA     SC491414  25.363  55.481  64.676
29447DT     BB191415  25.828  55.471  65.034
29447DT     BB291416  25.829  55.831  65.017
29447DT     BB391417  25.695  55.909  65.154
29447DT     SC191418  25.491  55.840  65.006
29447DT     SC291419  25.398  56.017  64.926
29447DT     SC391420  25.269  55.719  64.929
29448DA     BB191421  26.069  56.096  65.188
29448DA     BB291422  25.810  56.355  65.170
29448DA     BB391423  25.695  56.358  65.350
29448DA     SC191424  25.483  56.156  65.246
29448DA     SC291425  25.243  56.158  65.178
29448DA     SC391426  25.250  55.905  65.218
29448DA     SC491427  25.508  56.000  65.277
29449DT     BB191428  25.716  56.517  65.443
29449DT     BB291429  25.391  56.656  65.369
29449DT     BB391430  25.263  56.625  65.529
29449DT     SC191431  25.237  56.370  65.469
29449DT     SC291432  25.038  56.334  65.397
29449DT     SC391433  25.250  56.108  65.490
29450DA     BB191434  25.251  57.028  65.409
29450DA     BB291435  24.907  56.908  65.447
29450DA     BB391436  24.861  56.875  65.653
29450DA     SC191437  24.953  56.577  65.650
29450DA     SC291438  24.847  56.352  65.666
29450DA     SC391439  25.081  56.270  65.732
29450DA     SC491440  25.105  56.546  65.690
29451DG     BB191441  24.638  57.090  65.614
29451DG     BB291442  24.417  56.814  65.693
29451DG     BB391443  24.404  56.793  65.890
29451DG     SC191444  24.640  56.599  65.910
29451DG     SC291445  24.626  56.311  65.987
29451DG     SC391446  24.907  56.402  65.970
29451DG     SC491447  24.788  56.659  65.929
29452DA     BB191448  24.057  56.803  65.857
29452DA     BB291449  24.029  56.471  66.010
29452DA     BB391450  24.053  56.484  66.221
29452DA     SC191451  24.361  56.441  66.213
29452DA     SC291452  24.525  56.264  66.278
29452DA     SC391453  24.699  56.452  66.272
29452DA     SC491454  24.455  56.571  66.205
29453DC     BB191455  23.894  56.443  66.345
29453DC     BB291456  24.012  56.124  66.466
29453DC     BB391457  24.079  56.143  66.661
29453DC     SC191458  24.298  56.263  66.581
29453DC     SC291459  24.467  56.134  66.613
29453DC     SC391460  24.481  56.451  66.550
29454DA     BB191461  23.805  55.825  66.665
29454DA     BB291462  24.105  55.714  66.844
29454DA     BB391463  24.116  55.807  67.036
29454DA     SC191464  24.280  56.051  66.936
29454DA     SC291465  24.512  56.140  66.961
29454DA     SC391466  24.411  56.365  66.888
29454DA     SC491467  24.199  56.182  66.890
29455DA     BB191468  24.140  55.497  67.152
29455DA     BB291469  24.465  55.589  67.293
29455DA     BB391470  24.439  55.704  67.472
29455DA     SC191471  24.438  55.978  67.325
29455DA     SC291472  24.586  56.177  67.306
29455DA     SC391473  24.376  56.301  67.227
29455DA     SC491474  24.296  56.037  67.279
29456DT     BB191475  24.490  55.633  67.677
29456DT     BB291476  24.783  55.839  67.723
29456DT     BB391477  24.744  55.987  67.862
29456DT     SC191478  24.600  56.122  67.688
29456DT     SC291479  24.704  56.302  67.634
29456DT     SC391480  24.392  56.238  67.576
29457DA     BB191481  25.082  55.811  68.047
29457DA     BB291482  25.143  56.172  68.042
29457DA     BB391483  25.036  56.268  68.199
29457DA     SC191484  24.782  56.321  68.027
29457DA     SC291485  24.665  56.517  67.926
29457DA     SC391486  24.460  56.363  67.915
29457DA     SC491487  24.666  56.211  68.030
29458DT     BB191488  25.119  56.379  68.408
29458DT     BB291489  25.068  56.716  68.289
29458DT     BB391490  24.921  56.809  68.402
29458DT     SC191491  24.731  56.672  68.283
29458DT     SC291492  24.616  56.804  68.159
29458DT     SC391493  24.531  56.504  68.249
29459DA     BB191494  25.238  57.083  68.455
29459DA     BB291495  24.949  57.276  68.337
29459DA     BB391496  24.816  57.317  68.499
29459DA     SC191497  24.646  57.060  68.458
29459DA     SC291498  24.417  57.001  68.381
29459DA     SC391499  24.455  56.779  68.503
29459DA     SC491500  24.688  56.929  68.541
29460DA     BB191501  24.859  57.625  68.403
29460DA     BB291502  24.504  57.624  68.311
29460DA     BB391503  24.383  57.656  68.484
29460DA     SC191504  24.354  57.354  68.549
29460DA     SC291505  24.175  57.180  68.545
29460DA     SC391506  24.326  57.050  68.708
29460DA     SC491507  24.461  57.289  68.651
29461DT     BB191508  24.289  57.813  68.466
29461DT     BB291509  23.973  57.660  68.385
29461DT     BB391510  23.850  57.658  68.552
29461DT     SC191511  23.988  57.463  68.661
29461DT     SC291512  23.869  57.283  68.662
29461DT     SC391513  24.142  57.332  68.830
29462DT     BB191514  23.725  57.823  68.398
29462DT     BB291515  23.493  57.555  68.467
29462DT     BB391516  23.410  57.580  68.655
29462DT     SC191517  23.632  57.501  68.771
29462DT     SC291518  23.601  57.309  68.862
29462DT     SC391519  23.851  57.507  68.918
29463DT     BB191520  23.202  57.623  68.508
29463DT     BB291521  23.110  57.354  68.729
29463DT     BB391522  23.065  57.428  68.917
29463DT     SC191523  23.318  57.470  68.971
29463DT     SC291524  23.383  57.331  69.122
29463DT     SC391525  23.542  57.597  69.027
29464DA     BB191526  22.750  57.178  68.795
29464DA     BB291527  22.836  57.092  69.141
29464DA     BB391528  22.772  57.247  69.274
29464DA     SC191529  23.041  57.404  69.258
29464DA     SC291530  23.234  57.454  69.408
29464DA     SC391531  23.282  57.648  69.247
29464DA     SC491532  23.053  57.519  69.147
29465DG     BB191533  22.583  57.038  69.417
29465DG     BB291534  22.794  57.104  69.704
29465DG     BB391535  22.729  57.265  69.800
29465DG     SC191536  22.900  57.460  69.638
29465DG     SC291537  23.128  57.623  69.743
29465DG     SC391538  23.059  57.704  69.467
29465DG     SC491539  22.841  57.521  69.502
29466DT     BB191540  22.632  57.284  70.031
29466DT     BB291541  22.912  57.429  70.206
29466DT     BB391542  22.870  57.625  70.258
29466DT     SC191543  22.903  57.705  70.010
29466DT     SC291544  23.082  57.825  69.997
29466DT     SC391545  22.849  57.806  69.772
29467DC     BB191546  22.831  57.575  70.533
29467DC     BB291547  23.096  57.820  70.524
29467DC     BB391548  23.017  58.011  70.535
29467DC     SC191549  22.934  57.999  70.286
29467DC     SC291550  23.051  58.134  70.165
29467DC     SC391551  22.771  57.994  70.078
29468DC     BB191552  23.114  58.036  70.787
29468DC     BB291553  23.270  58.301  70.600
29468DC     BB391554  23.149  58.470  70.602
29468DC     SC191555  22.983  58.362  70.430
29468DC     SC291556  22.998  58.466  70.242
29468DC     SC391557  22.761  58.262  70.328
29469DT     BB191558  23.348  58.555  70.744
29469DT     BB291559  23.328  58.775  70.459
29469DT     BB391560  23.179  58.916  70.488
29469DT     SC191561  22.992  58.738  70.443
29469DT     SC291562  22.895  58.783  70.256
29469DT     SC391563  22.785  58.580  70.483
29470DA     BB191564  23.556  59.037  70.328
29470DA     BB291565  23.284  59.185  70.132
29470DA     BB391566  23.170  59.319  70.253
29470DA     SC191567  22.968  59.101  70.346
29470DA     SC291568  22.727  59.045  70.310
29470DA     SC391569  22.748  58.909  70.526
29470DA     SC491570  23.000  59.024  70.483
29471DA     BB191571  23.251  59.454  69.961
29471DA     BB291572  22.891  59.514  69.927
29471DA     BB391573  22.823  59.646  70.080
29471DA     SC191574  22.754  59.417  70.280
29471DA     SC291575  22.549  59.314  70.379
29471DA     SC391576  22.707  59.226  70.561
29471DA     SC491577  22.867  59.373  70.384
29472DT     BB191578  22.766  59.798  70.007
29472DT     BB291579  22.414  59.765  70.078
29472DT     BB391580  22.368  59.862  70.255
29472DT     SC191581  22.479  59.672  70.398
29472DT     SC291582  22.325  59.564  70.503
29472DT     SC391583  22.644  59.549  70.563
29473DC     BB191584  22.246  60.068  70.122
29473DC     BB291585  21.999  59.964  70.363
29473DC     BB391586  22.030  60.063  70.543
29473DC     SC191587  22.238  59.912  70.598
29473DC     SC291588  22.190  59.782  70.763
29473DC     SC391589  22.487  59.842  70.648
29474DT     BB191590  21.817  60.256  70.525
29474DT     BB291591  21.760  60.104  70.847
29474DT     BB391592  21.857  60.213  70.994
29474DT     SC191593  22.090  60.117  70.921
29474DT     SC291594  22.164  59.984  71.073
29474DT     SC391595  22.338  60.109  70.830
29475DT     BB191596  21.633  60.363  71.118
29475DT     BB291597  21.783  60.197  71.401
29475DT     BB391598  21.918  60.324  71.493
29475DT     SC191599  22.094  60.289  71.301
29475DT     SC291600  22.261  60.176  71.376
29475DT     SC391601  22.254  60.343  71.099
29476DA     BB191602  21.670  60.241  71.826
29476DA     BB291603  22.015  60.178  71.934
29476DA     BB391604  22.112  60.361  71.982
29476DA     SC191605  22.223  60.406  71.695
29476DA     SC291606  22.444  60.403  71.579
29476DA     SC391607  22.329  60.542  71.398
29476DA     SC491608  22.134  60.493  71.593
29477DG     BB191609  22.153  60.274  72.288
29477DG     BB291610  22.503  60.271  72.197
29477DG     BB391611  22.584  60.450  72.230
29477DG     SC191612  22.520  60.558  71.951
29477DG     SC291613  22.719  60.628  71.740
29477DG     SC391614  22.448  60.715  71.662
29477DG     SC491615  22.379  60.629  71.926
29478DG     BB191616  22.802  60.316  72.438
29478DG     BB291617  23.053  60.412  72.196
29478DG     BB391618  23.111  60.599  72.229
29478DG     SC191619  22.899  60.724  72.047
29478DG     SC291620  22.950  60.869  71.792
29478DG     SC391621  22.667  60.896  71.873
29478DG     SC491622  22.756  60.761  72.109
29479DA     BB191623  23.421  60.456  72.220
29479DA     BB291624  23.506  60.667  71.932
29479DA     BB391625  23.545  60.867  71.996
29479DA     SC191626  23.250  60.960  71.962
29479DA     SC291627  23.120  61.111  71.811
29479DA     SC391628  22.944  61.113  71.998
29479DA     SC491629  23.153  60.950  72.090
29480DT     BB191630  23.713  60.902  71.957
29480DT     BB291631  23.648  61.117  71.675
29480DT     BB391632  23.653  61.315  71.735
29480DT     SC191633  23.419  61.295  71.853
29480DT     SC291634  23.274  61.408  71.743
29480DT     SC391635  23.237  61.292  72.043
29481DA     BB191636  23.878  61.240  71.389
29481DA     BB291637  23.668  61.535  71.331
29481DA     BB391638  23.737  61.699  71.449
29481DA     SC191639  23.554  61.631  71.692
29481DA     SC291640  23.353  61.728  71.804
29481DA     SC391641  23.424  61.587  72.006
29481DA     SC491642  23.615  61.538  71.807
29482DT     BB191643  23.797  61.834  71.342
29482DT     BB291644  23.525  62.064  71.398
29482DT     BB391645  23.579  62.203  71.542
29482DT     SC191646  23.551  62.027  71.734
29482DT     SC291647  23.380  62.078  71.854
29482DT     SC391648  23.613  61.867  71.935
29483DA     BB191649  23.426  62.402  71.206
29483DA     BB291650  23.266  62.543  71.504
29483DA     BB391651  23.406  62.660  71.615
29483DA     SC191652  23.501  62.422  71.792
29483DA     SC291653  23.483  62.351  72.030
29483DA     SC391654  23.686  62.203  71.980
29483DA     SC491655  23.629  62.339  71.742
29484DG     BB191656  23.201  62.886  71.561
29484DG     BB291657  23.170  62.884  71.921
29484DG     BB391658  23.319  62.988  72.002
29484DG     SC191659  23.507  62.747  72.025
29484DG     SC291660  23.601  62.621  72.278
29484DG     SC391661  23.746  62.511  72.045
29484DG     SC491662  23.603  62.712  71.901
29485DA     BB191663  23.068  63.153  72.174
29485DA     BB291664  23.220  63.052  72.492
29485DA     BB391665  23.395  63.167  72.531
29485DA     SC191666  23.587  62.967  72.390
29485DA     SC291667  23.767  62.806  72.455
29485DA     SC391668  23.842  62.823  72.210
29485DA     SC491669  23.619  62.992  72.234
29486DA     BB191670  23.228  63.209  72.809
29486DA     BB291671  23.516  63.061  72.981
29486DA     BB391672  23.679  63.198  72.984
29486DA     SC191673  23.802  63.096  72.716
29486DA     SC291674  24.004  62.970  72.642
29486DA     SC391675  23.957  63.071  72.411
29486DA     SC491676  23.757  63.170  72.581
29487DA     BB191677  23.654  63.116  73.300
29487DA     BB291678  24.002  63.002  73.278
29487DA     BB391679  24.133  63.169  73.262
29487DA     SC191680  24.128  63.175  72.951
29487DA     SC291681  24.284  63.126  72.762
29487DA     SC391682  24.126  63.271  72.621
29487DA     SC491683  24.018  63.269  72.880
29488DG     BB191684  24.256  63.054  73.525
29488DG     BB291685  24.555  63.024  73.324
29488DG     BB391686  24.646  63.201  73.311
29488DG     SC191687  24.494  63.288  73.060
29488DG     SC291688  24.613  63.330  72.789
29488DG     SC391689  24.333  63.424  72.797
29488DG     SC491690  24.354  63.365  73.076
29489DT     BB191691  24.860  63.258  73.400
29489DT     BB291692  25.062  63.286  73.103
29489DT     BB391693  25.099  63.485  73.061
29489DT     SC191694  24.854  63.520  72.973
29489DT     SC291695  24.859  63.551  72.760
29489DT     SC391696  24.608  63.611  72.955
29490DA     BB191697  25.512  63.373  73.088
29490DA     BB291698  25.482  63.572  72.782
29490DA     BB391699  25.481  63.781  72.829
29490DA     SC191700  25.171  63.798  72.855
29490DA     SC291701  24.981  63.899  72.731
29490DA     SC391702  24.851  63.876  72.951
29490DA     SC491703  25.108  63.776  73.002
29491DG     BB191704  25.767  63.887  72.679
29491DG     BB291705  25.546  64.076  72.464
29491DG     BB391706  25.526  64.261  72.534
29491DG     SC191707  25.285  64.195  72.711
29491DG     SC291708  25.007  64.295  72.672
29491DG     SC391709  25.033  64.153  72.930
29491DG     SC491710  25.310  64.144  72.860
29492DG     BB191711  25.654  64.443  72.268
29492DG     BB291712  25.320  64.573  72.221
29492DG     BB391713  25.300  64.744  72.321
29492DG     SC191714  25.204  64.610  72.579
29492DG     SC291715  24.931  64.635  72.698
29492DG     SC391716  25.115  64.496  72.884
29492DG     SC491717  25.312  64.563  72.687
29493DA     BB191718  25.192  64.906  72.030
29493DA     BB291719  24.865  64.967  72.184
29493DA     BB391720  24.873  65.138  72.312
29493DA     SC191721  24.949  64.975  72.565
29493DA     SC291722  24.842  64.909  72.781
29493DA     SC391723  25.082  64.868  72.864
29493DA     SC491724  25.105  64.956  72.598
29494DA     BB191725  24.623  65.225  72.122
29494DA     BB291726  24.417  65.215  72.425
29494DA     BB391727  24.453  65.387  72.545
29494DA     SC191728  24.681  65.255  72.710
29494DA     SC291729  24.718  65.175  72.943
29494DA     SC391730  24.968  65.194  72.888
29494DA     SC491731  24.832  65.275  72.657
29495DG     BB191732  24.151  65.420  72.492
29495DG     BB291733  24.134  65.363  72.849
29495DG     BB391734  24.177  65.531  72.947
29495DG     SC191735  24.478  65.476  72.960
29495DG     SC291736  24.635  65.421  73.207
29495DG     SC391737  24.814  65.457  72.974
29495DG     SC491738  24.571  65.525  72.839
29496DA     BB191739  23.884  65.456  73.108
29496DA     BB291740  24.067  65.443  73.426
29496DA     BB391741  24.119  65.640  73.489
29496DA     SC191742  24.394  65.640  73.344
29496DA     SC291743  24.636  65.635  73.406
29496DA     SC391744  24.677  65.728  73.171
29496DA     SC491745  24.400  65.700  73.195
29497DC     BB191746  24.035  65.692  73.651
29497DC     BB291747  24.326  65.662  73.862
29497DC     BB391748  24.406  65.850  73.898
29497DC     SC191749  24.507  65.861  73.656
29497DC     SC291750  24.721  65.848  73.667
29497DC     SC391751  24.549  65.943  73.409
29498DA     BB191752  24.355  65.635  74.255
29498DA     BB291753  24.696  65.770  74.247
29498DA     BB391754  24.693  65.982  74.271
29498DA     SC191755  24.675  66.040  73.966
29498DA     SC291756  24.821  66.135  73.788
29498DA     SC391757  24.603  66.173  73.658
29498DA     SC491758  24.529  66.057  73.902
29499DA     BB191759  24.904  65.877  74.496
29499DA     BB291760  25.152  66.084  74.322
29499DA     BB391761  25.112  66.291  74.354
29499DA     SC191762  24.930  66.320  74.104
29499DA     SC291763  24.938  66.432  73.881
29499DA     SC391764  24.683  66.409  73.883
29499DA     SC491765  24.772  66.298  74.124
29500DA     BB191766  25.427  66.238  74.424
29500DA     BB291767  25.496  66.486  74.163
29500DA     BB391768  25.430  66.679  74.225
29500DA     SC191769  25.146  66.649  74.103
29500DA     SC291770  25.014  66.745  73.915
29500DA     SC391771  24.808  66.663  74.043
29500DA     SC491772  25.030  66.591  74.199
29501DA     BB191773  25.740  66.715  74.125
29501DA     BB291774  25.606  66.959  73.885
29501DA     BB391775  25.536  67.132  73.987
29501DA     SC191776  25.246  67.024  74.022
29501DA     SC291777  25.019  67.074  73.932
29501DA     SC391778  24.932  66.949  74.139
29501DA     SC491779  25.212  66.945  74.157
29502DT     BB191780  25.634  67.280  73.943
29502DT     BB291781  25.383  67.447  73.745
29502DT     BB391782  25.285  67.589  73.859
29502DT     SC191783  25.150  67.403  73.987
29502DT     SC291784  24.943  67.414  73.930
29502DT     SC391785  25.062  67.252  74.184
29503DC     BB191786  25.413  67.776  73.718
29503DC     BB291787  25.063  67.858  73.684
29503DC     BB391788  25.000  67.969  73.848
29503DC     SC191789  24.999  67.756  74.001
29503DC     SC291790  24.797  67.704  74.051
29503DC     SC391791  25.063  67.591  74.197
29504DG     BB191792  24.924  68.209  73.525
29504DG     BB291793  24.632  68.177  73.736
29504DG     BB391794  24.649  68.295  73.895
29504DG     SC191795  24.788  68.084  74.068
29504DG     SC291796  24.674  67.955  74.312
29504DG     SC391797  24.959  67.883  74.278
29504DG     SC491798  24.947  68.072  74.062
29505DA     BB191799  24.337  68.444  73.827
29505DA     BB291800  24.209  68.334  74.152
29505DA     BB391801  24.281  68.462  74.307
29505DA     SC191802  24.535  68.293  74.363
29505DA     SC291803  24.623  68.145  74.545
29505DA     SC391804  24.853  68.188  74.440
29505DA     SC491805  24.670  68.332  74.285
29506DT     BB191806  24.152  68.596  74.423
29506DT     BB291807  24.151  68.399  74.725
29506DT     BB391808  24.264  68.494  74.871
29506DT     SC191809  24.488  68.426  74.753
29506DT     SC291810  24.590  68.280  74.874
29506DT     SC391811  24.719  68.448  74.628
29507DT     BB191812  24.042  68.575  75.021
29507DT     BB291813  24.239  68.380  75.253
29507DT     BB391814  24.374  68.503  75.351
29507DT     SC191815  24.526  68.520  75.139
29507DT     SC291816  24.710  68.414  75.174
29507DT     SC391817  24.655  68.624  74.934
29508DA     BB191818  24.164  68.293  75.648
29508DA     BB291819  24.523  68.254  75.714
29508DA     BB391820  24.604  68.435  75.794
29508DA     SC191821  24.680  68.552  75.516
29508DA     SC291822  24.888  68.601  75.387
29508DA     SC391823  24.740  68.759  75.249
29508DA     SC491824  24.572  68.646  75.442
29509DC     BB191825  24.671  68.428  75.980
29509DC     BB291826  25.022  68.425  75.894
29509DC     BB391827  25.105  68.611  75.930
29509DC     SC191828  24.990  68.712  75.717
29509DC     SC291829  25.140  68.755  75.569
29509DC     SC391830  24.835  68.863  75.567
29510DG     BB191831  25.307  68.321  76.132
29510DG     BB291832  25.526  68.518  75.924
29510DG     BB391833  25.558  68.696  76.008
29510DG     SC191834  25.319  68.831  75.872
29510DG     SC291835  25.334  69.047  75.667
29510DG     SC391836  25.055  69.005  75.756
29510DG     SC491837  25.176  68.825  75.943
29511DT     BB191838  25.755  68.740  76.056
29511DT     BB291839  25.841  68.980  75.800
29511DT     BB391840  25.831  69.172  75.877
29511DT     SC191841  25.569  69.168  75.873
29511DT     SC291842  25.497  69.304  75.722
29511DT     SC391843  25.319  69.172  75.958
29512DC     BB191844  26.094  69.168  75.854
29512DC     BB291845  25.986  69.453  75.660
29512DC     BB391846  25.957  69.616  75.784
29512DC     SC191847  25.733  69.515  75.876
29512DC     SC291848  25.567  69.632  75.805
29512DC     SC391849  25.556  69.415  76.045
29513DT     BB191850  26.173  69.715  75.669
29513DT     BB291851  25.917  69.963  75.616
29513DT     BB391852  25.900  70.084  75.784
29513DT     SC191853  25.776  69.894  75.917
29513DT     SC291854  25.570  69.950  75.946
29513DT     SC391855  25.727  69.712  76.101
29514DT     BB191856  26.012  70.281  75.641
29514DT     BB291857  25.700  70.419  75.757
29514DT     BB391858  25.723  70.495  75.948
29514DT     SC191859  25.727  70.255  76.053
29514DT     SC291860  25.547  70.223  76.167
29514DT     SC391861  25.814  70.040  76.179
29515DT     BB191862  25.710  70.750  75.852
29515DT     BB291863  25.451  70.737  76.103
29515DT     BB391864  25.531  70.782  76.289
29515DT     SC191865  25.645  70.546  76.305
29515DT     SC291866  25.547  70.429  76.457
29515DT     SC391867  25.833  70.362  76.321
29516DG     BB191868  25.242  71.065  76.232
29516DG     BB291869  25.201  70.901  76.552
29516DG     BB391870  25.329  70.977  76.684
29516DG     SC191871  25.553  70.779  76.619
29516DG     SC291872  25.659  70.569  76.802
29516DG     SC391873  25.827  70.592  76.559
29516DG     SC491874  25.657  70.815  76.503
29517DG     BB191875  25.083  71.072  76.888
29517DG     BB291876  25.224  70.843  77.131
29517DG     BB391877  25.369  70.934  77.232
29517DG     SC191878  25.590  70.852  77.038
29517DG     SC291879  25.815  70.665  77.096
29517DG     SC391880  25.854  70.798  76.835
29517DG     SC491881  25.623  70.947  76.913
29518DA     BB191882  25.214  70.845  77.534
29518DA     BB291883  25.510  70.654  77.635
29518DA     BB391884  25.661  70.785  77.709
29518DA     SC191885  25.796  70.825  77.431
29518DA     SC291886  26.009  70.761  77.319
29518DA     SC391887  25.958  70.953  77.157
29518DA     SC491888  25.748  70.950  77.342
29519DT     BB191889  25.719  70.781  77.912
29519DT     BB291890  26.034  70.614  77.862
29519DT     BB391891  26.190  70.747  77.888
29519DT     SC191892  26.143  70.860  77.656
29519DT     SC291893  26.302  70.814  77.519
29519DT     SC391894  26.078  71.044  77.478
29520DA     BB191895  26.273  70.420  78.136
29520DA     BB291896  26.574  70.490  77.939
29520DA     BB391897  26.672  70.665  78.012
29520DA     SC191898  26.518  70.859  77.824
29520DA     SC291899  26.568  71.003  77.626
29520DA     SC391900  26.354  71.128  77.688
29520DA     SC491901  26.383  70.925  77.880
29521DC     BB191902  26.855  70.645  78.097
29521DC     BB291903  27.044  70.783  77.822
29521DC     BB391904  27.109  70.974  77.869
29521DC     SC191905  26.868  71.073  77.835
29521DC     SC291906  26.866  71.196  77.659
29521DC     SC391907  26.638  71.189  77.889
29522DA     BB191908  27.437  70.751  77.735
29522DA     BB291909  27.435  71.069  77.554
29522DA     BB391910  27.494  71.229  77.683
29522DA     SC191911  27.205  71.293  77.776
29522DA     SC291912  27.038  71.477  77.747
29522DA     SC391913  26.928  71.382  77.958
29522DA     SC491914  27.152  71.221  77.910
29523DT     BB191915  27.661  71.314  77.635
29523DT     BB291916  27.519  71.620  77.507
29523DT     BB391917  27.539  71.771  77.647
29523DT     SC191918  27.346  71.671  77.794
29523DT     SC291919  27.175  71.801  77.786
29523DT     SC391920  27.223  71.562  78.000
29524DG     BB191921  27.717  71.891  77.300
29524DG     BB291922  27.481  72.137  77.421
29524DG     BB391923  27.560  72.239  77.572
29524DG     SC191924  27.457  72.046  77.787
29524DG     SC291925  27.252  72.109  77.994
29524DG     SC391926  27.377  71.846  78.046
29524DG     SC491927  27.547  71.920  77.828
29525DG     BB191928  27.511  72.512  77.398
29525DG     BB291929  27.293  72.617  77.667
29525DG     BB391930  27.401  72.693  77.816
29525DG     SC191931  27.437  72.425  77.959
29525DG     SC291932  27.322  72.351  78.225
29525DG     SC391933  27.513  72.146  78.132
29525DG     SC491934  27.561  72.332  77.920
29526DA     BB191935  27.194  72.973  77.801
29526DA     BB291936  27.096  72.921  78.151
29526DA     BB391937  27.252  72.984  78.282
29526DA     SC191938  27.390  72.705  78.292
29526DA     SC291939  27.424  72.522  78.457
29526DA     SC391940  27.617  72.449  78.305
29526DA     SC491941  27.507  72.676  78.185
29527DA     BB191942  27.014  73.169  78.418
29527DA     BB291943  27.072  72.984  78.730
29527DA     BB391944  27.250  73.054  78.825
29527DA     SC191945  27.436  72.849  78.683
29527DA     SC291946  27.570  72.648  78.745
29527DA     SC391947  27.700  72.694  78.529
29527DA     SC491948  27.506  72.895  78.546
29528DA     BB191949  27.052  73.100  79.087
29528DA     BB291950  27.261  72.858  79.267
29528DA     BB391951  27.443  72.950  79.330
29528DA     SC191952  27.599  72.875  79.072
29528DA     SC291953  27.785  72.721  79.006
29528DA     SC391954  27.810  72.873  78.801
29528DA     SC491955  27.601  72.982  78.952
29529DG     BB191956  27.353  72.885  79.623
29529DG     BB291957  27.643  72.669  79.618
29529DG     BB391958  27.806  72.773  79.664
29529DG     SC191959  27.868  72.852  79.375
29529DG     SC291960  28.104  72.761  79.215
29529DG     SC391961  27.955  72.973  79.072
29529DG     SC491962  27.803  72.985  79.315
29530DC     BB191963  27.929  72.728  79.847
29530DC     BB291964  28.214  72.563  79.699
29530DC     BB391965  28.377  72.691  79.699
29530DC     SC191966  28.277  72.831  79.501
29530DC     SC291967  28.394  72.799  79.323
29530DC     SC391968  28.177  73.035  79.367
29531DG     BB191969  28.495  72.364  79.911
29531DG     BB291970  28.729  72.438  79.645
29531DG     BB391971  28.851  72.585  79.701
29531DG     SC191972  28.671  72.808  79.595
29531DG     SC291973  28.734  72.990  79.367
29531DG     SC391974  28.489  73.079  79.508
29531DG     SC491975  28.558  72.869  79.690
29532DC     BB191976  29.070  72.551  79.720
29532DC     BB291977  29.194  72.720  79.426
29532DC     BB391978  29.280  72.901  79.479
29532DC     SC191979  29.045  73.010  79.520
29532DC     SC291980  29.008  73.158  79.368
29532DC     SC391981  28.844  73.125  79.645
29533DA     BB191982  29.552  72.691  79.240
29533DA     BB291983  29.529  73.033  79.110
29533DA     BB391984  29.629  73.169  79.240
29533DA     SC191985  29.377  73.230  79.412
29533DA     SC291986  29.222  73.421  79.451
29533DA     SC391987  29.159  73.300  79.668
29533DA     SC491988  29.353  73.140  79.543
29534DT     BB191989  29.793  73.260  79.170
29534DT     BB291990  29.649  73.588  79.126
29534DT     BB391991  29.714  73.714  79.277
29534DT     SC191992  29.555  73.599  79.452
29534DT     SC291993  29.397  73.736  79.505
29534DT     SC391994  29.476  73.464  79.664
29535DT     BB191995  29.874  73.847  79.101
29535DT     BB291996  29.667  74.105  79.243
29535DT     BB391997  29.754  74.178  79.417
29535DT     SC191998  29.685  73.963  79.551
29535DT     SC291999  29.533  74.013  79.694
29535DT     SC392000  29.707  73.740  79.690
29536DA     BB192001  29.677  74.516  79.180
29536DA     BB292002  29.552  74.588  79.517
29536DA     BB392003  29.715  74.628  79.650
29536DA     SC192004  29.748  74.331  79.738
29536DA     SC292005  29.710  74.194  79.943
29536DA     SC392006  29.872  74.027  79.837
29536DA     SC492007  29.852  74.240  79.656
29537DA     BB192008  29.555  74.910  79.714
29537DA     BB292009  29.534  74.802  80.064
29537DA     BB392010  29.721  74.834  80.163
29537DA     SC192011  29.832  74.552  80.095
29537DA     SC292012  29.887  74.341  80.216
29537DA     SC392013  30.033  74.286  80.013
29537DA     SC492014  29.919  74.536  79.960
29538DT     BB192015  29.746  74.980  80.320
29538DT     BB292016  29.765  74.747  80.594
29538DT     BB392017  29.959  74.738  80.666
29538DT     SC192018  30.038  74.597  80.459
29538DT     SC292019  30.084  74.397  80.523
29538DT     SC392020  30.167  74.530  80.240
29539DA     BB192021  29.729  74.823  81.007
29539DA     BB292022  29.951  74.543  81.093
29539DA     BB392023  30.150  74.614  81.127
29539DA     SC192024  30.239  74.579  80.831
29539DA     SC292025  30.392  74.431  80.701
29539DA     SC392026  30.386  74.616  80.523
29539DA     SC492027  30.223  74.705  80.733
29540DA     BB192028  30.121  74.460  81.418
29540DA     BB292029  30.402  74.247  81.316
29540DA     BB392030  30.586  74.351  81.341
29540DA     SC192031  30.587  74.469  81.053
29540DA     SC292032  30.716  74.439  80.842
29540DA     SC392033  30.625  74.670  80.777
29540DA     SC492034  30.521  74.614  81.032
29541DA     BB192035  30.662  74.085  81.518
29541DA     BB292036  30.931  74.024  81.276
29541DA     BB392037  31.095  74.156  81.312
29541DA     SC192038  30.990  74.378  81.121
29541DA     SC292039  31.053  74.477  80.901
29541DA     SC392040  30.910  74.677  80.973
29541DA     SC492041  30.898  74.493  81.184
29542DC     BB192042  31.271  74.077  81.375
29542DC     BB292043  31.447  74.114  81.062
29542DC     BB392044  31.581  74.271  81.075
29542DC     SC192045  31.387  74.448  81.058
29542DC     SC292046  31.399  74.549  80.869
29542DC     SC392047  31.224  74.644  81.125
29543DT     BB192048  31.786  74.094  81.078
29543DT     BB292049  31.854  74.307  80.795
29543DT     BB392050  31.958  74.475  80.856
29543DT     SC192051  31.743  74.580  80.963
29543DT     SC292052  31.682  74.751  80.847
29543DT     SC392053  31.577  74.676  81.144
29544DA     BB192054  32.163  74.301  80.534
29544DA     BB292055  32.125  74.659  80.465
29544DA     BB392056  32.255  74.773  80.590
29544DA     SC192057  32.046  74.807  80.818
29544DA     SC292058  31.910  74.991  80.917
29544DA     SC392059  31.890  74.838  81.122
29544DA     SC492060  32.047  74.698  80.936
29545DC     BB192061  32.395  74.870  80.497
29545DC     BB292062  32.252  75.199  80.532
29545DC     BB392063  32.349  75.303  80.682
29545DC     SC192064  32.229  75.163  80.868
29545DC     SC292065  32.089  75.288  80.973
29545DC     SC392066  32.194  74.998  81.071
29546DG     BB192067  32.368  75.516  80.336
29546DG     BB292068  32.238  75.715  80.608
29546DG     BB392069  32.387  75.770  80.728
29546DG     SC192070  32.367  75.524  80.908
29546DG     SC292071  32.282  75.522  81.195
29546DG     SC392072  32.386  75.257  81.114
29546DG     SC492073  32.450  75.393  80.870
29547DA     BB192074  32.248  76.083  80.685
29547DA     BB292075  32.201  76.110  81.047
29547DA     BB392076  32.389  76.142  81.144
29547DA     SC192077  32.446  75.839  81.186
29547DA     SC292078  32.458  75.678  81.376
29547DA     SC392079  32.596  75.531  81.217
29547DA     SC492080  32.531  75.763  81.072
29548DC     BB192081  32.405  76.311  81.229
29548DC     BB292082  32.383  76.195  81.570
29548DC     BB392083  32.572  76.185  81.654
29548DC     SC192084  32.630  75.969  81.518
29548DC     SC292085  32.643  75.801  81.652
29548DC     SC392086  32.750  75.808  81.346
29549DT     BB192087  32.506  76.397  81.803
29549DT     BB292088  32.606  76.146  82.041
29549DT     BB392089  32.812  76.148  82.064
29549DT     SC192090  32.846  76.031  81.832
29549DT     SC292091  32.919  75.831  81.863
29549DT     SC392092  32.922  75.993  81.582
29550DT     BB192093  32.787  76.260  82.311
29550DT     BB292094  32.983  75.962  82.368
29550DT     BB392095  33.183  76.003  82.337
29550DT     SC192096  33.151  76.007  82.077
29550DT     SC292097  33.248  75.836  81.990
29550DT     SC392098  33.144  76.097  81.829
29551DG     BB192099  33.173  75.879  82.727
29551DG     BB292100  33.424  75.696  82.541
29551DG     BB392101  33.590  75.805  82.527
29551DG     SC192102  33.507  75.942  82.266
29551DG     SC292103  33.637  75.906  82.000
29551DG     SC392104  33.439  76.125  81.991
29551DG     SC492105  33.422  76.077  82.273
29552DA     BB192106  33.778  75.539  82.656
29552DA     BB292107  33.979  75.526  82.350
29552DA     BB392108  34.126  75.681  82.352
29552DA     SC192109  33.944  75.889  82.209
29552DA     SC292110  33.933  76.002  81.987
29552DA     SC392111  33.787  76.176  82.107
29552DA     SC492112  33.857  75.987  82.301
29553DT     BB192113  34.334  75.638  82.365
29553DT     BB292114  34.417  75.712  82.022
29553DT     BB392115  34.522  75.890  82.012
29553DT     SC192116  34.305  76.030  82.055
29553DT     SC292117  34.252  76.137  81.876
29553DT     SC392118  34.134  76.193  82.173
29554DA     BB192119  34.763  75.614  81.807
29554DA     BB292120  34.732  75.911  81.594
29554DA     BB392121  34.854  76.069  81.669
29554DA     SC192122  34.630  76.189  81.849
29554DA     SC292123  34.488  76.394  81.855
29554DA     SC392124  34.454  76.338  82.103
29554DA     SC492125  34.622  76.138  82.001
29555DA     BB192126  34.992  76.077  81.367
29555DA     BB292127  34.870  76.421  81.336
29555DA     BB392128  34.998  76.555  81.442
29555DA     SC192129  34.838  76.535  81.708
29555DA     SC292130  34.691  76.682  81.847
29555DA     SC392131  34.745  76.520  82.038
29555DA     SC492132  34.885  76.424  81.815
29556DC     BB192133  35.127  76.708  81.345
29556DC     BB292134  34.924  76.993  81.433
29556DC     BB392135  35.021  77.107  81.576
29556DC     SC192136  34.967  76.932  81.764
29556DC     SC292137  34.824  77.016  81.900
29556DC     SC392138  35.003  76.751  81.952
29557DG     BB192139  34.982  77.375  81.267
29557DG     BB292140  34.845  77.511  81.573
29557DG     BB392141  34.991  77.589  81.683
29557DG     SC192142  35.050  77.329  81.834
29557DG     SC292143  35.003  77.281  82.125
29557DG     SC392144  35.154  77.057  82.004
29557DG     SC492145  35.155  77.226  81.772
29558DT     BB192146  35.009  77.818  81.741
29558DT     BB292147  34.895  77.805  82.083
29558DT     BB392148  35.054  77.835  82.212
29558DT     SC192149  35.146  77.594  82.167
29558DT     SC292150  35.121  77.474  82.345
29558DT     SC392151  35.308  77.400  82.090
29559DT     BB192152  34.955  78.081  82.274
29559DT     BB292153  34.965  77.902  82.587
29559DT     BB392154  35.151  77.925  82.676
29559DT     SC192155  35.262  77.759  82.506
29559DT     SC292156  35.318  77.579  82.609
29559DT     SC392157  35.419  77.669  82.314
29560DG     BB192158  34.843  78.034  82.917
29560DG     BB292159  35.058  77.788  83.072
29560DG     BB392160  35.228  77.874  83.131
29560DG     SC192161  35.373  77.824  82.866
29560DG     SC292162  35.607  77.642  82.826
29560DG     SC392163  35.556  77.803  82.584
29560DG     SC492164  35.362  77.933  82.750
29561DA     BB192165  35.118  77.686  83.396
29561DA     BB292166  35.439  77.509  83.388
29561DA     BB392167  35.598  77.642  83.442
29561DA     SC192168  35.654  77.732  83.150
29561DA     SC292169  35.834  77.704  82.979
29561DA     SC392170  35.733  77.912  82.868
29561DA     SC492171  35.578  77.864  83.097
29562DA     BB192172  35.617  77.361  83.614
29562DA     BB292173  35.954  77.335  83.470
29562DA     BB392174  36.077  77.494  83.541
29562DA     SC192175  36.006  77.686  83.307
29562DA     SC292176  36.119  77.784  83.108
29562DA     SC392177  35.933  77.961  83.115
29562DA     SC492178  35.883  77.787  83.329
29563DA     BB192179  36.250  77.218  83.594
29563DA     BB292180  36.511  77.374  83.389
29563DA     BB392181  36.594  77.542  83.490
29563DA     SC192182  36.393  77.746  83.368
29563DA     SC292183  36.397  77.934  83.204
29563DA     SC392184  36.178  78.009  83.315
29563DA     SC492185  36.258  77.777  83.451
29564DA     BB192186  36.873  77.378  83.423
29564DA     BB292187  36.983  77.677  83.243
29564DA     BB392188  37.030  77.833  83.380
29564DA     SC192189  36.743  77.953  83.381
29564DA     SC292190  36.629  78.160  83.299
29564DA     SC392191  36.446  78.102  83.470
29564DA     SC492192  36.641  77.901  83.494
29565DG     BB192193  37.329  77.831  83.272
29565DG     BB292194  37.252  78.169  83.169
29565DG     BB392195  37.280  78.294  83.321
29565DG     SC192196  36.994  78.269  83.427
29565DG     SC292197  36.787  78.485  83.429
29565DG     SC392198  36.695  78.249  83.582
29565DG     SC492199  36.960  78.153  83.532
29566DA     BB192200  37.502  78.509  83.143
29566DA     BB292201  37.273  78.793  83.184
29566DA     BB392202  37.298  78.881  83.377
29566DA     SC192203  37.083  78.702  83.514
29566DA     SC292204  36.855  78.729  83.611
29566DA     SC392205  36.904  78.510  83.734
29566DA     SC492206  37.133  78.565  83.582
29567DT     BB192207  37.384  79.089  83.422
29567DT     BB292208  37.067  79.244  83.496
29567DT     BB392209  37.056  79.289  83.698
29567DT     SC192210  37.019  79.037  83.761
29567DT     SC292211  36.817  79.010  83.831
29567DT     SC392212  37.060  78.799  83.866
29568DG     BB192213  37.012  79.652  83.514
29568DG     BB292214  36.736  79.584  83.738
29568DG     BB392215  36.788  79.627  83.925
29568DG     SC192216  36.896  79.347  83.985
29568DG     SC292217  36.779  79.151  84.178
29568DG     SC392218  37.041  79.057  84.078
29568DG     SC492219  37.049  79.314  83.952
29569DT     BB192220  36.680  79.782  84.037
29569DT     BB292221  36.473  79.576  84.249
29569DT     BB392222  36.548  79.576  84.442
29569DT     SC192223  36.746  79.417  84.374
29569DT     SC292224  36.716  79.224  84.464
29569DT     SC392225  36.991  79.331  84.329
29570DA     BB192226  36.136  79.651  84.421
29570DA     BB292227  36.196  79.382  84.663
29570DA     BB392228  36.293  79.459  84.837
29570DA     SC192229  36.580  79.409  84.728
29570DA     SC292230  36.772  79.257  84.777
29570DA     SC392231  36.914  79.430  84.652
29570DA     SC492232  36.652  79.529  84.648
29571DA     BB192233  36.035  79.287  84.933
29571DA     BB292234  36.276  79.081  85.116
29571DA     BB392235  36.361  79.191  85.278
29571DA     SC192236  36.599  79.301  85.111
29571DA     SC292237  36.846  79.269  85.099
29571DA     SC392238  36.849  79.495  84.978
29571DA     SC492239  36.580  79.443  85.038
29572DG     BB192240  36.233  78.940  85.398
29572DG     BB292241  36.577  78.875  85.489
29572DG     BB392242  36.632  78.996  85.638
29572DG     SC192243  36.730  79.219  85.453
29572DG     SC292244  37.013  79.309  85.422
29572DG     SC392245  36.828  79.492  85.282
29572DG     SC492246  36.626  79.331  85.405
29573DA     BB192247  36.738  78.695  85.769
29573DA     BB292248  37.076  78.833  85.799
29573DA     BB392249  37.083  78.979  85.954
29573DA     SC192250  37.016  79.217  85.766
29573DA     SC292251  37.132  79.417  85.672
29573DA     SC392252  36.896  79.510  85.632
29573DA     SC492253  36.861  79.258  85.750
29574DA     BB192254  37.330  78.779  86.033
29574DA     BB292255  37.547  79.073  86.008
29574DA     BB392256  37.511  79.207  86.170
29574DA     SC192257  37.292  79.369  86.021
29574DA     SC292258  37.266  79.597  85.923
29574DA     SC392259  37.014  79.553  85.939
29574DA     SC492260  37.139  79.323  86.040
29575DT     BB192261  37.658  79.227  86.291
29575DT     BB292262  37.752  79.562  86.194
29575DT     BB392263  37.679  79.698  86.332
29575DT     SC192264  37.435  79.673  86.238
29575DT     SC292265  37.377  79.854  86.138
29575DT     SC392266  37.177  79.616  86.229
29576DT     BB192267  37.930  79.735  86.417
29576DT     BB292268  37.815  80.065  86.329
29576DT     BB392269  37.711  80.148  86.488
29576DT     SC192270  37.502  79.996  86.441
29576DT     SC292271  37.340  80.116  86.368
29576DT     SC392272  37.316  79.812  86.477
29577DA     BB192273  38.001  80.429  86.373
29577DA     BB292274  37.682  80.606  86.408
29577DA     BB392275  37.630  80.626  86.614
29577DA     SC192276  37.470  80.359  86.624
29577DA     SC292277  37.232  80.287  86.646
29577DA     SC392278  37.328  80.061  86.719
29577DA     SC492279  37.549  80.226  86.668
29578DT     BB192280  37.626  80.811  86.702
29578DT     BB292281  37.268  80.844  86.730
29578DT     BB392282  37.210  80.815  86.926
29578DT     SC192283  37.247  80.556  86.906
29578DT     SC292284  37.057  80.455  86.912
29578DT     SC392285  37.346  80.315  86.949
29579DC     BB192286  37.159  81.085  86.977
29579DC     BB292287  36.849  80.922  87.065
29579DC     BB392288  36.853  80.867  87.265
29579DC     SC192289  37.016  80.668  87.214
29579DC     SC292290  36.911  80.482  87.241
29579DC     SC392291  37.232  80.517  87.218
29580DG     BB192292  36.530  81.123  87.261
29580DG     BB292293  36.440  80.808  87.412
29580DG     BB392294  36.498  80.804  87.602
29580DG     SC192295  36.775  80.688  87.542
29580DG     SC292296  36.872  80.417  87.621
29580DG     SC392297  37.093  80.580  87.510
29580DG     SC492298  36.896  80.788  87.510
29581DA     BB192299  36.175  80.726  87.729
29581DA     BB292300  36.299  80.408  87.865
29581DA     BB392301  36.391  80.440  88.055
29581DA     SC192302  36.675  80.486  87.938
29581DA     SC292303  36.894  80.368  87.933
29581DA     SC392304  36.994  80.597  87.876
29581DA     SC492305  36.718  80.638  87.905
29582DT     BB192306  36.308  80.362  88.242
29582DT     BB292307  36.544  80.092  88.276
29582DT     BB392308  36.672  80.130  88.435
29582DT     SC192309  36.803  80.309  88.296
29582DT     SC292310  37.000  80.235  88.250
29582DT     SC392311  36.902  80.543  88.222
29583DG     BB192312  36.488  79.773  88.497
29583DG     BB292313  36.848  79.742  88.511
29583DG     BB392314  36.915  79.808  88.686
29583DG     SC192315  36.951  80.097  88.590
29583DG     SC292316  37.212  80.240  88.559
29583DG     SC392317  36.984  80.426  88.524
29583DG     SC492318  36.828  80.198  88.601
29584DA     BB192319  37.073  79.505  88.671
29584DA     BB292320  37.395  79.678  88.697
29584DA     BB392321  37.423  79.754  88.894
29584DA     SC192322  37.294  80.030  88.831
29584DA     SC292323  37.368  80.267  88.808
29584DA     SC392324  37.121  80.327  88.848
29584DA     SC492325  37.136  80.047  88.859
29585DG     BB192326  37.663  79.570  88.844
29585DG     BB292327  37.844  79.881  88.887
29585DG     BB392328  37.847  79.931  89.079
29585DG     SC192329  37.587  80.093  89.066
29585DG     SC292330  37.563  80.388  89.101
29585DG     SC392331  37.296  80.261  89.092
29585DG     SC492332  37.448  80.018  89.091
29586DC     BB192333  38.033  79.944  89.166
29586DC     BB292334  38.077  80.298  89.217
29586DC     BB392335  38.027  80.349  89.411
29586DC     SC192336  37.770  80.324  89.360
29586DC     SC292337  37.678  80.518  89.365
29586DC     SC392338  37.523  80.234  89.371
29587DC     BB192339  38.291  80.383  89.483
29587DC     BB292340  38.134  80.692  89.583
29587DC     BB392341  38.058  80.674  89.775
29587DC     SC192342  37.858  80.528  89.690
29587DC     SC292343  37.675  80.640  89.708
29587DC     SC392344  37.698  80.320  89.658
29588DA     BB192345  38.309  81.010  89.847
29588DA     BB292346  37.984  81.091  89.996
29588DA     BB392347  37.963  80.994  90.185
29588DA     SC192348  37.831  80.739  90.066
29588DA     SC292349  37.607  80.629  90.066
29588DA     SC392350  37.734  80.416  90.001
29588DA     SC492351  37.928  80.616  90.027
29589DT     BB192352  37.960  81.077  90.443
29589DT     BB292353  37.603  81.040  90.485
29589DT     BB392354  37.563  80.896  90.628
29589DT     SC192355  37.627  80.703  90.463
29589DT     SC292356  37.450  80.593  90.409
29589DT     SC392357  37.756  80.497  90.360
29590DC     BB192358  37.482  81.051  90.885
29590DC     BB292359  37.195  80.842  90.817
29590DC     BB392360  37.201  80.674  90.937
29590DC     SC192361  37.391  80.567  90.791
29590DC     SC292362  37.312  80.398  90.683
29590DC     SC392363  37.626  80.469  90.722
29591DA     BB192364  36.826  80.840  91.015
29591DA     BB292365  36.773  80.493  90.908
29591DA     BB392366  36.813  80.359  91.069
29591DA     SC192367  37.114  80.323  90.996
29591DA     SC292368  37.261  80.144  90.905
29591DA     SC392369  37.454  80.280  91.005
29591DA     SC492370  37.220  80.422  91.066
29592DA     BB192371  36.520  80.284  90.962
29592DA     BB292372  36.666  79.960  90.870
29592DA     BB392373  36.702  79.843  91.045
29592DA     SC192374  36.991  79.949  91.086
29592DA     SC292375  37.224  79.861  91.068
29592DA     SC392376  37.288  80.058  91.219
29592DA     SC492377  37.011  80.076  91.182
29593DA     BB192378  36.538  79.668  90.826
29593DA     BB292379  36.826  79.442  90.835
29593DA     BB392380  36.837  79.344  91.025
29593DA     SC192381  37.018  79.561  91.154
29593DA     SC292382  37.254  79.582  91.233
29593DA     SC392383  37.169  79.781  91.370
29593DA     SC492384  36.946  79.681  91.233
29594DA     BB192385  36.855  79.113  90.794
29594DA     BB292386  37.179  79.028  90.944
29594DA     BB392387  37.150  78.943  91.138
29594DA     SC192388  37.167  79.217  91.286
29594DA     SC292389  37.324  79.334  91.440
29594DA     SC392390  37.122  79.479  91.503
29594DA     SC492391  37.029  79.295  91.313
29595DA     BB192392  37.340  78.720  90.991
29595DA     BB292393  37.581  78.782  91.260
29595DA     BB392394  37.510  78.700  91.444
29595DA     SC192395  37.364  78.960  91.532
29595DA     SC292396  37.390  79.137  91.706
29595DA     SC392397  37.143  79.187  91.663
29595DA     SC492398  37.209  78.975  91.492
29596DA     BB192399  37.804  78.552  91.438
29596DA     BB292400  37.877  78.724  91.753
29596DA     BB392401  37.772  78.631  91.914
29596DA     SC192402  37.520  78.811  91.887
29596DA     SC292403  37.409  78.993  92.016
29596DA     SC392404  37.199  78.934  91.881
29596DA     SC492405  37.400  78.758  91.794
29597DG     BB192406  38.056  78.580  92.031
29597DG     BB292407  37.940  78.803  92.291
29597DG     BB392408  37.832  78.702  92.424
29597DG     SC192409  37.566  78.744  92.278
29597DG     SC292410  37.336  78.906  92.378
29597DG     SC392411  37.261  78.754  92.135
29597DG     SC492412  37.521  78.639  92.167
29598DA     BB192413  38.041  78.846  92.657
29598DA     BB292414  37.751  79.007  92.815
29598DA     BB392415  37.641  78.865  92.930
29598DA     SC192416  37.453  78.784  92.696
29598DA     SC292417  37.213  78.811  92.634
29598DA     SC392418  37.253  78.613  92.476
29598DA     SC492419  37.497  78.659  92.605
29599DA     BB192420  37.697  79.114  93.130
29599DA     BB292421  37.333  79.145  93.153
29599DA     BB392422  37.251  78.982  93.264
29599DA     SC192423  37.209  78.801  93.015
29599DA     SC292424  37.017  78.711  92.883
29599DA     SC392425  37.184  78.535  92.798
29599DA     SC492426  37.327  78.699  92.975
29600DA     BB192427  37.134  79.265  93.378
29600DA     BB292428  36.804  79.125  93.300
29600DA     BB392429  36.763  78.957  93.425
29600DA     SC192430  36.885  78.749  93.229
29600DA     SC292431  36.804  78.565  93.080
29600DA     SC392432  37.046  78.479  93.089
29600DA     SC492433  37.040  78.711  93.248
29601DC     BB192434  36.624  78.999  93.524
29601DC     BB292435  36.385  78.779  93.368
29601DC     BB392436  36.375  78.600  93.472
29601DC     SC192437  36.605  78.521  93.374
29601DC     SC292438  36.572  78.358  93.238
29601DC     SC392439  36.857  78.446  93.364
29602DA     BB192440  35.984  78.748  93.420
29602DA     BB292441  35.985  78.392  93.332
29602DA     BB392442  36.009  78.272  93.508
29602DA     SC192443  36.319  78.265  93.491
29602DA     SC292444  36.498  78.098  93.442
29602DA     SC392445  36.655  78.260  93.563
29602DA     SC492446  36.401  78.378  93.571
29603DA     BB192447  35.733  78.127  93.398
29603DA     BB292448  35.925  77.814  93.383
29603DA     BB392449  35.953  77.735  93.579
29603DA     SC192450  36.221  77.884  93.629
29603DA     SC292451  36.463  77.826  93.650
29603DA     SC392452  36.486  78.053  93.768
29603DA     SC492453  36.215  78.027  93.700
29604DA     BB192454  35.820  77.466  93.443
29604DA     BB292455  36.134  77.294  93.522
29604DA     BB392456  36.143  77.247  93.730
29604DA     SC192457  36.283  77.514  93.808
29604DA     SC292458  36.508  77.587  93.889
29604DA     SC392459  36.387  77.799  93.968
29604DA     SC492460  36.190  77.637  93.851
29605DA     BB192461  36.199  76.950  93.606
29605DA     BB292462  36.523  76.962  93.776
29605DA     BB392463  36.498  76.931  93.986
29605DA     SC192464  36.467  77.234  94.051
29605DA     SC292465  36.597  77.413  94.166
29605DA     SC392466  36.373  77.536  94.184
29605DA     SC492467  36.318  77.294  94.053
29606DG     BB192468  36.686  76.699  93.915
29606DG     BB292469  36.911  76.878  94.134
29606DG     BB392470  36.863  76.843  94.324
29606DG     SC192471  36.668  77.078  94.343
29606DG     SC292472  36.705  77.323  94.511
29606DG     SC392473  36.433  77.315  94.394
29606DG     SC492474  36.515  77.056  94.303
29607DT     BB192475  37.009  76.754  94.435
29607DT     BB292476  37.119  77.022  94.650
29607DT     BB392477  37.025  77.007  94.835
29607DT     SC192478  36.799  77.096  94.736
29607DT     SC292479  36.759  77.293  94.814
29607DT     SC392480  36.546  77.102  94.661
29608DT     BB192481  37.262  76.934  94.931
29608DT     BB292482  37.162  77.213  95.137
29608DT     BB392483  37.034  77.149  95.286
29608DT     SC192484  36.836  77.123  95.116
29608DT     SC292485  36.688  77.274  95.156
29608DT     SC392486  36.646  77.011  94.971
29609DA     BB192487  37.334  77.351  95.505
29609DA     BB292488  37.011  77.462  95.638
29609DA     BB392489  36.924  77.309  95.758
29609DA     SC192490  36.769  77.178  95.523
29609DA     SC292491  36.532  77.153  95.449
29609DA     SC392492  36.617  76.956  95.309
29609DA     SC492493  36.841  77.058  95.444
29610DA     BB192494  36.897  77.502  96.046
29610DA     BB292495  36.533  77.459  96.033
29610DA     BB392496  36.477  77.275  96.125
29610DA     SC192497  36.494  77.110  95.862
29610DA     SC292498  36.337  76.995  95.706
29610DA     SC392499  36.543  76.863  95.628
29610DA     SC492500  36.633  77.037  95.829
29611DA     BB192501  36.262  77.404  96.371
29611DA     BB292502  35.983  77.229  96.210
29611DA     BB392503  35.964  77.031  96.287
29611DA     SC192504  36.152  76.904  96.074
29611DA     SC292505  36.131  76.751  95.878
29611DA     SC392506  36.383  76.711  95.909
29611DA     SC492507  36.308  76.891  96.110
29612DT     BB192508  35.786  76.933  96.425
29612DT     BB292509  35.631  76.756  96.151
29612DT     BB392510  35.648  76.552  96.181
29612DT     SC192511  35.902  76.555  96.117
29612DT     SC292512  35.930  76.456  95.928
29612DT     SC392513  36.164  76.532  96.139
29613DA     BB192514  35.241  76.623  96.117
29613DA     BB292515  35.346  76.363  95.882
29613DA     BB392516  35.368  76.176  95.983
29613DA     SC192517  35.668  76.220  96.051
29613DA     SC292518  35.889  76.126  95.982
29613DA     SC392519  35.977  76.224  96.202
29613DA     SC492520  35.704  76.287  96.192
29614DC     BB192521  35.245  76.041  95.924
29614DC     BB292522  35.484  75.856  95.727
29614DC     BB392523  35.543  75.686  95.828
29614DC     SC192524  35.692  75.825  95.992
29614DC     SC292525  35.900  75.784  95.953
29614DC     SC392526  35.783  75.932  96.216
29615DT     BB192527  35.409  75.567  95.637
29615DT     BB292528  35.746  75.440  95.614
29615DT     BB392529  35.774  75.289  95.753
29615DT     SC192530  35.787  75.462  95.950
29615DT     SC292531  35.988  75.469  96.025
29615DT     SC392532  35.725  75.590  96.172
29616DA     BB192533  35.907  75.187  95.366
29616DA     BB292534  36.170  75.105  95.608
29616DA     BB392535  36.110  74.942  95.731
29616DA     SC192536  35.982  75.123  95.950
29616DA     SC292537  36.030  75.189  96.185
29616DA     SC392538  35.782  75.254  96.196
29616DA     SC492539  35.826  75.156  95.936
29617DC     BB192540  36.218  74.801  95.702
29617DC     BB292541  36.397  74.814  96.015
29617DC     BB392542  36.313  74.682  96.150
29617DC     SC192543  36.107  74.840  96.190
29617DC     SC292544  36.117  74.922  96.388
29617DC     SC392545  35.859  74.927  96.193
29618DT     BB192546  36.533  74.536  96.118
29618DT     BB292547  36.514  74.598  96.473
29618DT     BB392548  36.387  74.461  96.562
29618DT     SC192549  36.175  74.583  96.466
29618DT     SC292550  36.067  74.676  96.627
29618DT     SC392551  35.955  74.625  96.327
29619DT     BB192552  36.602  74.344  96.672
29619DT     BB292553  36.388  74.425  96.951
29619DT     BB392554  36.248  74.276  96.979
29619DT     SC192555  36.110  74.355  96.770
29619DT     SC292556  35.924  74.440  96.836
29619DT     SC392557  35.996  74.352  96.532
29620DT     BB192558  36.379  74.197  97.202
29620DT     BB292559  36.042  74.264  97.312
29620DT     BB392560  35.923  74.097  97.284
29620DT     SC192561  35.913  74.139  97.025
29620DT     SC292562  35.714  74.199  96.970
29620DT     SC392563  35.947  74.101  96.766
29621DA     BB192564  35.869  74.194  97.688
29621DA     BB292565  35.536  74.145  97.542
29621DA     BB392566  35.497  73.937  97.516
29621DA     SC192567  35.612  73.927  97.227
29621DA     SC292568  35.525  73.899  96.995
29621DA     SC392569  35.766  73.834  96.935
29621DA     SC492570  35.767  73.888  97.210
29622DT     BB192571  35.346  73.834  97.629
29622DT     BB292572  35.105  73.806  97.362
29622DT     BB392573  35.093  73.609  97.298
29622DT     SC192574  35.323  73.628  97.173
29622DT     SC292575  35.289  73.622  96.960
29622DT     SC392576  35.575  73.585  97.108
29623DA     BB192577  34.700  73.724  97.384
29623DA     BB292578  34.700  73.571  97.051
29623DA     BB392579  34.718  73.359  97.066
29623DA     SC192580  35.028  73.359  97.053
29623DA     SC292581  35.207  73.289  96.893
29623DA     SC392582  35.362  73.290  97.098
29623DA     SC492583  35.109  73.364  97.192
29624DA     BB192584  34.449  73.375  96.881
29624DA     BB292585  34.638  73.195  96.623
29624DA     BB392586  34.654  72.989  96.674
29624DA     SC192587  34.922  73.023  96.830
29624DA     SC292588  35.161  72.960  96.801
29624DA     SC392589  35.180  72.997  97.054
29624DA     SC492590  34.913  73.050  96.988
29625DT     BB192591  34.561  72.859  96.556
29625DT     BB292592  34.856  72.730  96.393
29625DT     BB392593  34.902  72.542  96.467
29625DT     SC192594  34.994  72.644  96.691
29625DT     SC292595  35.207  72.618  96.699
29625DT     SC392596  35.017  72.699  96.948
29626DA     BB192597  34.895  72.526  96.049
29626DA     BB292598  35.203  72.363  96.164
29626DA     BB392599  35.158  72.175  96.254
29626DA     SC192600  35.127  72.292  96.540
29626DA     SC292601  35.250  72.284  96.757
29626DA     SC392602  35.027  72.357  96.862
29626DA     SC492603  34.979  72.336  96.587
29627DT     BB192604  35.225  72.017  96.160
29627DT     BB292605  35.489  71.933  96.392
29627DT     BB392606  35.430  71.774  96.511
29627DT     SC192607  35.270  71.927  96.651
29627DT     SC292608  35.349  71.950  96.850
29627DT     SC392609  35.048  72.025  96.756
29628DA     BB192610  35.803  71.668  96.350
29628DA     BB292611  35.814  71.597  96.709
29628DA     BB392612  35.699  71.423  96.754
29628DA     SC192613  35.435  71.580  96.805
29628DA     SC292614  35.289  71.637  96.999
29628DA     SC392615  35.107  71.680  96.823
29628DA     SC492616  35.335  71.600  96.681
29629DT     BB192617  35.790  71.243  96.821
29629DT     BB292618  35.682  71.263  97.165
29629DT     BB392619  35.533  71.124  97.201
29629DT     SC192620  35.356  71.268  97.072
29629DT     SC292621  35.214  71.348  97.212
29629DT     SC392622  35.180  71.340  96.889
29630DA     BB192623  35.818  71.037  97.498
29630DA     BB292624  35.491  71.058  97.664
29630DA     BB392625  35.377  70.882  97.626
29630DA     SC192626  35.241  70.995  97.370
29630DA     SC292627  35.014  71.069  97.299
29630DA     SC392628  35.100  71.034  97.059
29630DA     SC492629  35.313  70.966  97.229
29631DT     BB192630  35.318  70.714  97.781
29631DT     BB292631  34.970  70.808  97.811
29631DT     BB392632  34.850  70.660  97.731
29631DT     SC192633  34.913  70.731  97.486
29631DT     SC292634  34.741  70.819  97.391
29631DT     SC392635  35.010  70.718  97.241
29632DA     BB192636  34.693  70.700  98.118
29632DA     BB292637  34.409  70.715  97.887
29632DA     BB392638  34.357  70.520  97.821
29632DA     SC192639  34.544  70.527  97.572
29632DA     SC292640  34.521  70.538  97.324
29632DA     SC392641  34.761  70.447  97.319
29632DA     SC492642  34.693  70.469  97.590
29633DA     BB192643  34.052  70.587  97.931
29633DA     BB292644  33.933  70.551  97.586
29633DA     BB392645  33.907  70.345  97.537
29633DA     SC192646  34.196  70.309  97.429
29633DA     SC292647  34.308  70.272  97.209
29633DA     SC392648  34.507  70.187  97.346
29633DA     SC492649  34.309  70.259  97.532
29634DA     BB192650  33.602  70.437  97.457
29634DA     BB292651  33.677  70.332  97.114
29634DA     BB392652  33.660  70.120  97.096
29634DA     SC192653  33.959  70.066  97.164
29634DA     SC292654  34.164  69.987  97.047
29634DA     SC392655  34.253  69.934  97.281
29634DA     SC492656  33.996  70.039  97.318
29635DT     BB192657  33.509  70.039  96.978
29635DT     BB292658  33.721  69.942  96.702
29635DT     BB392659  33.743  69.736  96.699
29635DT     SC192660  33.906  69.742  96.904
29635DT     SC292661  34.105  69.690  96.838
29635DT     SC392662  34.003  69.700  97.146
29636DA     BB192663  33.628  69.867  96.319
29636DA     BB292664  33.916  69.643  96.279
29636DA     BB392665  33.858  69.441  96.312
29636DA     SC192666  33.920  69.446  96.616
29636DA     SC292667  34.087  69.347  96.773
29636DA     SC392668  33.915  69.398  96.956
29636DA     SC492669  33.800  69.485  96.716
29637DA     BB192670  34.004  69.422  96.022
29637DA     BB292671  34.237  69.185  96.177
29637DA     BB392672  34.142  68.997  96.207
29637DA     SC192673  34.041  69.067  96.494
29637DA     SC292674  34.090  68.998  96.728
29637DA     SC392675  33.859  69.094  96.783
29637DA     SC492676  33.894  69.130  96.507
29638DT     BB192677  34.214  68.851  96.103
29638DT     BB292678  34.379  68.675  96.371
29638DT     BB392679  34.266  68.511  96.428
29638DT     SC192680  34.092  68.663  96.552
29638DT     SC292681  34.108  68.633  96.764
29638DT     SC392682  33.863  68.781  96.611
29639DT     BB192683  34.452  68.354  96.313
29639DT     BB292684  34.427  68.230  96.651
29639DT     BB392685  34.274  68.092  96.665
29639DT     SC192686  34.092  68.281  96.654
29639DT     SC292687  33.995  68.297  96.846
29639DT     SC392688  33.890  68.426  96.567
29640DG     BB192689  34.608  67.890  96.785
29640DG     BB292690  34.339  67.846  97.023
29640DG     BB392691  34.211  67.709  96.956
29640DG     SC192692  34.035  67.909  96.806
29640DG     SC292693  33.754  67.981  96.873
29640DG     SC392694  33.833  68.098  96.614
29640DG     SC492695  34.072  67.945  96.654
29641DA     BB192696  34.239  67.531  97.259
29641DA     BB292697  33.878  67.562  97.316
29641DA     BB392698  33.772  67.422  97.196
29641DA     SC192699  33.738  67.616  96.956
29641DA     SC292700  33.554  67.742  96.844
29641DA     SC392701  33.712  67.755  96.642
29641DA     SC492702  33.850  67.613  96.840
29642DT     BB192703  33.660  67.246  97.274
29642DT     BB292704  33.329  67.378  97.221
29642DT     BB392705  33.237  67.277  97.066
29642DT     SC192706  33.383  67.402  96.887
29642DT     SC292707  33.258  67.537  96.775
29642DT     SC392708  33.558  67.443  96.694
29643DA     BB192709  32.958  67.234  97.379
29643DA     BB292710  32.774  67.355  97.085
29643DA     BB392711  32.742  67.196  96.947
29643DA     SC192712  33.005  67.248  96.789
29643DA     SC292713  33.071  67.333  96.564
29643DA     SC392714  33.295  67.216  96.607
29643DA     SC492715  33.136  67.168  96.834
29644DG     BB192716  32.430  67.232  96.984
29644DG     BB292717  32.444  67.335  96.638
29644DG     BB392718  32.429  67.176  96.519
29644DG     SC192719  32.730  67.125  96.508
29644DG     SC292720  32.904  67.153  96.267
29644DG     SC392721  33.053  67.028  96.490
29644DG     SC492722  32.797  67.032  96.620
29645DA     BB192723  32.171  67.341  96.359
29645DA     BB292724  32.363  67.339  96.046
29645DA     BB392725  32.352  67.147  95.954
29645DA     SC192726  32.605  67.036  96.096
29645DA     SC292727  32.838  66.971  96.035
29645DA     SC392728  32.836  66.837  96.254
29645DA     SC492729  32.584  66.958  96.235
29646DA     BB192730  32.261  67.348  95.715
29646DA     BB292731  32.555  67.227  95.533
29646DA     BB392732  32.522  67.028  95.463
29646DA     SC192733  32.638  66.892  95.717
29646DA     SC292734  32.839  66.759  95.779
29646DA     SC392735  32.701  66.682  95.981
29646DA     SC492736  32.535  66.855  95.835
29647DG     BB192737  32.579  67.185  95.206
29647DG     BB292738  32.867  66.966  95.198
29647DG     BB392739  32.813  66.785  95.135
29647DG     SC192740  32.750  66.680  95.415
29647DG     SC292741  32.900  66.465  95.559
29647DG     SC392742  32.653  66.537  95.705
29647DG     SC492743  32.603  66.700  95.474
29648DT     BB192744  32.908  66.730  94.969
29648DT     BB292745  33.138  66.480  95.090
29648DT     BB392746  33.058  66.291  95.062
29648DT     SC192747  32.891  66.324  95.262
29648DT     SC292748  32.948  66.196  95.425
29648DT     SC392749  32.664  66.349  95.395
29649DT     BB192750  33.245  66.267  94.879
29649DT     BB292751  33.296  65.989  95.104
29649DT     BB392752  33.167  65.835  95.056
29649DT     SC192753  32.963  65.963  95.161
29649DT     SC292754  32.900  65.863  95.340
29649DT     SC392755  32.732  66.088  95.180
29650DC     BB192756  33.380  65.705  94.968
29650DC     BB292757  33.230  65.482  95.209
29650DC     BB392758  33.076  65.376  95.120
29650DC     SC192759  32.919  65.585  95.122
29650DC     SC292760  32.760  65.554  95.264
29650DC     SC392761  32.768  65.783  95.035
29651DT     BB192762  33.224  65.142  95.114
29651DT     BB292763  32.922  65.048  95.286
29651DT     BB392764  32.778  64.987  95.150
29651DT     SC192765  32.733  65.235  95.076
29651DT     SC292766  32.537  65.295  95.143
29651DT     SC392767  32.719  65.450  94.923
29652DT     BB192768  32.802  64.715  95.211
29652DT     BB292769  32.451  64.783  95.259
29652DT     BB392770  32.348  64.752  95.082
29652DT     SC192771  32.441  64.976  94.980
29652DT     SC292772  32.281  65.118  94.963
29652DT     SC392773  32.571  65.140  94.820
29653DG     BB192774  32.172  64.492  95.343
29653DG     BB292775  31.925  64.701  95.183
29653DG     BB392776  31.883  64.630  95.002
29653DG     SC192777  32.101  64.792  94.861
29653DG     SC292778  32.056  65.013  94.665
29653DG     SC392779  32.343  64.940  94.678
29653DG     SC492780  32.248  64.730  94.848
29654DT     BB192781  31.676  64.554  94.943
29654DT     BB292782  31.559  64.827  94.738
29654DT     BB392783  31.563  64.773  94.538
29654DT     SC192784  31.824  64.797  94.530
29654DT     SC292785  31.876  64.967  94.409
29654DT     SC392786  32.079  64.732  94.504
29655DG     BB192787  31.181  64.879  94.628
29655DG     BB292788  31.304  65.059  94.339
29655DG     BB392789  31.299  64.941  94.179
29655DG     SC192790  31.581  64.830  94.221
29655DG     SC292791  31.816  64.877  94.044
29655DG     SC392792  31.878  64.672  94.248
29655DG     SC492793  31.600  64.700  94.312
29656DT     BB192794  31.174  64.996  94.011
29656DT     BB292795  31.419  65.105  93.769
29656DT     BB392796  31.450  64.957  93.628
29656DT     SC192797  31.590  64.814  93.797
29656DT     SC292798  31.796  64.813  93.736
29656DT     SC392799  31.661  64.613  93.953
29657DG     BB192800  31.330  65.290  93.423
29657DG     BB292801  31.634  65.152  93.283
29657DG     BB392802  31.592  64.993  93.171
29657DG     SC192803  31.616  64.793  93.402
29657DG     SC292804  31.824  64.582  93.429
29657DG     SC392805  31.614  64.550  93.635
29657DG     SC492806  31.486  64.762  93.491
29658DG     BB192807  31.726  65.131  92.898
29658DG     BB292808  31.961  64.856  92.899
29658DG     BB392809  31.883  64.699  92.806
29658DG     SC192810  31.755  64.582  93.058
29658DG     SC292811  31.833  64.326  93.191
29658DG     SC392812  31.586  64.436  93.311
29658DG     SC492813  31.608  64.628  93.099
29659DA     BB192814  32.158  64.669  92.585
29659DA     BB292815  32.229  64.332  92.710
29659DA     BB392816  32.100  64.189  92.616
29659DA     SC192817  31.879  64.210  92.835
29659DA     SC292818  31.785  64.068  93.016
29659DA     SC392819  31.581  64.222  93.004
29659DA     SC492820  31.761  64.316  92.810
29660DA     BB192821  32.373  64.025  92.519
29660DA     BB292822  32.260  63.744  92.726
29660DA     BB392823  32.113  63.630  92.623
29660DA     SC192824  31.873  63.794  92.735
29660DA     SC292825  31.684  63.759  92.893
29660DA     SC392826  31.574  63.959  92.775
29660DA     SC492827  31.821  63.919  92.648
29661DT     BB192828  32.148  63.428  92.559
29661DT     BB292829  31.951  63.271  92.817
29661DT     BB392830  31.778  63.192  92.736
29661DT     SC192831  31.671  63.431  92.713
29661DT     SC292832  31.509  63.451  92.853
29661DT     SC392833  31.568  63.647  92.602
29662DT     BB192834  31.877  62.943  92.772
29662DT     BB292835  31.568  62.947  92.959
29662DT     BB392836  31.410  62.898  92.834
29662DT     SC192837  31.417  63.134  92.720
29662DT     SC292838  31.242  63.246  92.777
29662DT     SC392839  31.444  63.320  92.534
29663DT     BB192840  31.393  62.664  92.964
29663DT     BB292841  31.068  62.815  93.003
29663DT     BB392842  30.950  62.773  92.838
29663DT     SC192843  31.081  62.945  92.690
29663DT     SC292844  30.954  63.113  92.646
29663DT     SC392845  31.233  63.042  92.497
29664DT     BB192846  30.804  62.606  92.991
29664DT     BB292847  30.565  62.843  92.861
29664DT     BB392848  30.500  62.782  92.674
29664DT     SC192849  30.727  62.854  92.563
29664DT     SC292850  30.693  63.026  92.437
29664DT     SC392851  30.957  62.837  92.435
29665DC     BB192852  30.255  62.712  92.775
29665DC     BB292853  30.181  62.951  92.515
29665DC     BB392854  30.163  62.854  92.333
29665DC     SC192855  30.422  62.821  92.315
29665DC     SC292856  30.499  62.946  92.157
29665DC     SC392857  30.657  62.702  92.301
29666DT     BB192858  29.890  62.888  92.330
29666DT     BB292859  30.004  63.046  92.027
29666DT     BB392860  30.012  62.907  91.874
29666DT     SC192861  30.229  62.799  91.973
29666DT     SC292862  30.396  62.841  91.843
29666DT     SC392863  30.391  62.620  92.080
29667DT     BB192864  29.796  63.022  91.757
29667DT     BB292865  30.057  63.043  91.510
29667DT     BB392866  30.061  62.870  91.396
29667DT     SC192867  30.172  62.735  91.592
29667DT     SC292868  30.375  62.686  91.540
29667DT     SC392869  30.204  62.555  91.782
29668DG     BB192870  30.019  63.199  91.162
29668DG     BB292871  30.302  62.998  91.063
29668DG     BB392872  30.240  62.836  90.965
29668DG     SC192873  30.214  62.663  91.216
29668DG     SC292874  30.380  62.424  91.283
29668DG     SC392875  30.155  62.452  91.472
29668DG     SC492876  30.076  62.664  91.297
29669DT     BB192877  30.323  62.841  90.798
29669DT     BB292878  30.570  62.579  90.827
29669DT     BB392879  30.492  62.401  90.758
29669DT     SC192880  30.345  62.372  90.973
29669DT     SC292881  30.421  62.208  91.090
29669DT     SC392882  30.132  62.350  91.128
29670DA     BB192883  30.889  62.512  90.648
29670DA     BB292884  30.883  62.161  90.753
29670DA     BB392885  30.761  62.046  90.621
29670DA     SC192886  30.500  62.087  90.785
29670DA     SC292887  30.348  61.950  90.927
29670DA     SC392888  30.175  62.134  90.884
29670DA     SC492889  30.406  62.211  90.745
29671DG     BB192890  31.041  61.917  90.629
29671DG     BB292891  30.848  61.634  90.746
29671DG     BB392892  30.742  61.558  90.596
29671DG     SC192893  30.498  61.736  90.647
29671DG     SC292894  30.230  61.643  90.741
29671DG     SC392895  30.221  61.928  90.663
29671DG     SC492896  30.490  61.879  90.577
29672DT     BB192897  30.784  61.365  90.543
29672DT     BB292898  30.490  61.182  90.646
29672DT     BB392899  30.363  61.157  90.485
29672DT     SC192900  30.287  61.408  90.496
29672DT     SC292901  30.083  61.419  90.562
29672DT     SC392902  30.250  61.660  90.425
29673DG     BB192903  30.445  60.774  90.604
29673DG     BB292904  30.089  60.821  90.560
29673DG     BB392905  30.044  60.812  90.366
29673DG     SC192906  30.081  61.113  90.319
29673DG     SC292907  29.866  61.308  90.250
29673DG     SC392908  30.133  61.433  90.228
29673DG     SC492909  30.227  61.167  90.280
29674DA     BB192910  29.796  60.555  90.399
29674DA     BB292911  29.536  60.771  90.256
29674DA     BB392912  29.549  60.771  90.043
29674DA     SC192913  29.742  61.014  90.030
29674DA     SC292914  29.734  61.253  89.957
29674DA     SC392915  29.990  61.236  89.945
29674DA     SC492916  29.900  60.984  90.028
29675DG     BB192917  29.254  60.638  89.992
29675DG     BB292918  29.176  60.954  89.835
29675DG     BB392919  29.219  60.945  89.640
29675DG     SC192920  29.507  61.041  89.674
29675DG     SC292921  29.619  61.300  89.576
29675DG     SC392922  29.834  61.125  89.677
29675DG     SC492923  29.622  60.933  89.701
29676DT     BB192924  29.064  60.955  89.424
29676DT     BB292925  29.132  61.292  89.315
29676DT     BB392926  29.236  61.289  89.136
29676DT     SC192927  29.458  61.216  89.257
29676DT     SC292928  29.599  61.379  89.251
29676DT     SC392929  29.667  61.071  89.326
29677DT     BB192930  29.022  61.365  88.954
29677DT     BB292931  29.275  61.615  88.895
29677DT     BB392932  29.394  61.559  88.734
29677DT     SC192933  29.517  61.378  88.879
29677DT     SC292934  29.720  61.440  88.913
29677DT     SC392935  29.602  61.143  88.963
29678DA     BB192936  29.262  61.943  88.631
29678DA     BB292937  29.627  61.940  88.597
29678DA     BB392938  29.684  61.841  88.417
29678DA     SC192939  29.705  61.560  88.549
29678DA     SC292940  29.885  61.398  88.609
29678DA     SC392941  29.697  61.223  88.614
29678DA     SC492942  29.575  61.466  88.546
29679DC     BB192943  29.777  61.949  88.263
29679DC     BB292944  30.109  61.825  88.327
29679DC     BB392945  30.166  61.694  88.177
29679DC     SC192946  30.010  61.505  88.272
29679DC     SC292947  30.131  61.348  88.354
29679DC     SC392948  29.815  61.329  88.286
29680DT     BB192949  30.338  61.883  88.098
29680DT     BB292950  30.542  61.596  88.175
29680DT     BB392951  30.553  61.470  88.011
29680DT     SC192952  30.308  61.385  88.051
29680DT     SC292953  30.313  61.180  88.116
29680DT     SC392954  30.051  61.339  88.010
29681DA     BB192955  30.926  61.553  88.183
29681DA     BB292956  30.895  61.190  88.138
29681DA     BB392957  30.900  61.140  87.931
29681DA     SC192958  30.592  61.160  87.893
29681DA     SC292959  30.401  61.005  87.850
29681DA     SC392960  30.276  61.214  87.769
29681DA     SC492961  30.532  61.301  87.845
29682DC     BB192962  31.040  61.043  87.914
29682DC     BB292963  30.871  60.728  87.864
29682DC     BB392964  30.846  60.692  87.662
29682DC     SC192965  30.654  60.869  87.646
29682DC     SC292966  30.467  60.769  87.612
29682DC     SC392967  30.521  61.086  87.575
29683DA     BB192968  31.000  60.361  87.875
29683DA     BB292969  30.728  60.247  87.657
29683DA     BB392970  30.785  60.264  87.452
29683DA     SC192971  30.674  60.553  87.419
29683DA     SC292972  30.486  60.666  87.300
29683DA     SC392973  30.624  60.880  87.329
29683DA     SC492974  30.775  60.675  87.446
29684DT     BB192975  30.793  60.100  87.376
29684DT     BB292976  30.502  60.129  87.165
29684DT     BB392977  30.559  60.185  86.974
29684DT     SC192978  30.603  60.432  87.052
29684DT     SC292979  30.454  60.561  86.966
29684DT     SC392980  30.732  60.656  87.105
29685DA     BB192981  30.312  59.847  86.938
29685DA     BB292982  30.200  60.095  86.692
29685DA     BB392983  30.342  60.111  86.533
29685DA     SC192984  30.506  60.338  86.670
29685DA     SC292985  30.548  60.581  86.635
29685DA     SC392986  30.756  60.544  86.781
29685DA     SC492987  30.630  60.294  86.761
29686DC     BB192988  30.293  60.048  86.344
29686DC     BB292989  30.267  60.374  86.191
29686DC     BB392990  30.433  60.410  86.073
29686DC     SC192991  30.583  60.453  86.284
29686DC     SC292992  30.635  60.662  86.294
29686DC     SC392993  30.774  60.423  86.463
29687DT     BB192994  30.300  60.372  85.829
29687DT     BB292995  30.448  60.699  85.795
29687DT     BB392996  30.638  60.683  85.715
29687DT     SC192997  30.735  60.595  85.943
29687DT     SC292998  30.863  60.745  86.028
29687DT     SC392999  30.847  60.434  86.119
29688DC     BB193000  30.577  60.772  85.449
29688DC     BB293001  30.844  60.993  85.552
29688DC     BB393002  31.026  60.915  85.494
29688DC     SC193003  31.018  60.734  85.684
29688DC     SC293004  31.168  60.780  85.832
29688DC     SC393005  31.009  60.499  85.803
29689DT     BB193006  31.079  61.091  85.272
29689DT     BB293007  31.368  61.133  85.484
29689DT     BB393008  31.518  61.002  85.426
29689DT     SC193009  31.392  60.798  85.533
29689DT     SC293010  31.500  60.729  85.705
29689DT     SC393011  31.264  60.568  85.553
29690DC     BB193012  31.686  61.195  85.301
29690DC     BB293013  31.896  61.046  85.554
29690DC     BB393014  32.001  60.887  85.474
29690DC     SC193015  31.786  60.735  85.474
29690DC     SC293016  31.808  60.580  85.622
29690DC     SC393017  31.587  60.587  85.385
29691DA     BB193018  32.295  61.131  85.645
29691DA     BB293019  32.347  60.791  85.772
29691DA     BB393020  32.440  60.669  85.623
29691DA     SC193021  32.171  60.570  85.502
29691DA     SC293022  32.042  60.357  85.490
29691DA     SC393023  31.922  60.465  85.290
29691DA     SC493024  32.110  60.653  85.379
29692DA     BB193025  32.645  60.623  85.873
29692DA     BB293026  32.551  60.269  85.858
29692DA     BB393027  32.645  60.174  85.691
29692DA     SC193028  32.412  60.233  85.494
29692DA     SC293029  32.236  60.104  85.374
29692DA     SC393030  32.223  60.307  85.217
29692DA     SC493031  32.420  60.368  85.407
29693DG     BB193032  32.764  60.000  85.917
29693DG     BB293033  32.573  59.741  85.753
29693DG     BB393034  32.673  59.672  85.596
29693DG     SC193035  32.552  59.874  85.400
29693DG     SC293036  32.369  59.811  85.173
29693DG     SC393037  32.456  60.093  85.162
29693DG     SC493038  32.625  60.016  85.381
29694DT     BB193039  32.739  59.461  85.586
29694DT     BB293040  32.506  59.323  85.348
29694DT     BB393041  32.599  59.298  85.165
29694DT     SC193042  32.592  59.556  85.116
29694DT     SC293043  32.453  59.595  84.957
29694DT     SC393044  32.675  59.802  85.071
29695DC     BB193045  32.601  59.027  85.199
29695DC     BB293046  32.425  59.077  84.888
29695DC     BB393047  32.559  59.085  84.731
29695DC     SC193048  32.636  59.327  84.799
29695DC     SC293049  32.568  59.467  84.651
29695DC     SC393050  32.791  59.524  84.879
29696DT     BB193051  32.481  58.837  84.642
29696DT     BB293052  32.425  59.056  84.361
29696DT     BB393053  32.596  59.070  84.246
29696DT     SC193054  32.712  59.225  84.423
29696DT     SC293055  32.731  59.423  84.343
29696DT     SC393056  32.884  59.309  84.605
29697DT     BB193057  32.478  58.921  84.051
29697DT     BB293058  32.567  59.231  83.890
29697DT     BB393059  32.760  59.220  83.817
29697DT     SC193060  32.860  59.245  84.058
29697DT     SC293061  32.957  59.437  84.076
29697DT     SC393062  32.991  59.187  84.280
29698DT     BB193063  32.643  59.220  83.581
29698DT     BB293064  32.859  59.509  83.582
29698DT     BB393065  33.053  59.453  83.533
29698DT     SC193066  33.090  59.347  83.770
29698DT     SC293067  33.231  59.466  83.880
29698DT     SC393068  33.135  59.166  83.956
29699DT     BB193069  32.988  59.593  83.326
29699DT     BB293070  33.282  59.750  83.466
29699DT     BB393071  33.451  59.645  83.412
29699DT     SC193072  33.396  59.453  83.582
29699DT     SC293073  33.539  59.457  83.743
29699DT     SC393074  33.335  59.214  83.676
29700DA     BB193075  33.468  60.068  83.380
29700DA     BB293076  33.775  59.945  83.539
29700DA     BB393077  33.886  59.825  83.402
29700DA     SC193078  33.750  59.559  83.486
29700DA     SC293079  33.812  59.349  83.607
29700DA     SC393080  33.608  59.246  83.490
29700DA     SC493081  33.620  59.512  83.403
29701DC     BB193082  34.042  59.905  83.365
29701DC     BB293083  34.262  59.672  83.531
29701DC     BB393084  34.336  59.535  83.394
29701DC     SC193085  34.106  59.409  83.386
29701DC     SC293086  34.127  59.216  83.480
29701DC     SC393087  33.880  59.310  83.292
29702DA     BB193088  34.675  59.690  83.588
29702DA     BB293089  34.716  59.326  83.569
29702DA     BB393090  34.762  59.267  83.370
29702DA     SC193091  34.465  59.225  83.286
29702DA     SC293092  34.314  59.035  83.230
29702DA     SC393093  34.168  59.212  83.115
29702DA     SC493094  34.389  59.350  83.219
29703DA     BB193095  35.035  59.115  83.490
29703DA     BB293096  34.907  58.799  83.355
29703DA     BB393097  34.945  58.788  83.145
29703DA     SC193098  34.674  58.918  83.065
29703DA     SC293099  34.460  58.848  82.957
29703DA     SC393100  34.426  59.098  82.910
29703DA     SC493101  34.671  59.077  83.044
29704DA     BB193102  35.105  58.498  83.195
29704DA     BB293103  34.858  58.335  82.978
29704DA     BB393104  34.908  58.366  82.773
29704DA     SC193105  34.741  58.627  82.747
29704DA     SC293106  34.532  58.702  82.632
29704DA     SC393107  34.625  58.939  82.663
29704DA     SC493108  34.816  58.766  82.774
29705DG     BB193109  34.942  58.052  82.730
29705DG     BB293110  34.660  58.091  82.506
29705DG     BB393111  34.725  58.138  82.323
29705DG     SC193112  34.718  58.440  82.372
29705DG     SC293113  34.536  58.635  82.239
29705DG     SC393114  34.743  58.775  82.397
29705DG     SC493115  34.848  58.511  82.433
29706DT     BB193116  34.700  58.004  82.127
29706DT     BB293117  34.440  58.183  81.953
29706DT     BB393118  34.519  58.280  81.788
29706DT     SC193119  34.630  58.463  81.940
29706DT     SC293120  34.529  58.651  81.910
29706DT     SC393121  34.815  58.610  82.056
29707DT     BB193122  34.409  58.101  81.601
29707DT     BB293123  34.288  58.423  81.492
29707DT     BB393124  34.420  58.507  81.357
29707DT     SC193125  34.590  58.566  81.548
29707DT     SC293126  34.597  58.779  81.573
29707DT     SC393127  34.811  58.567  81.692
29708DA     BB193128  34.058  58.516  81.143
29708DA     BB293129  34.207  58.849  81.112
29708DA     BB393130  34.365  58.847  80.969
29708DA     SC193131  34.587  58.780  81.177
29708DA     SC293132  34.782  58.894  81.282
29708DA     SC393133  34.864  58.657  81.337
29708DA     SC493134  34.621  58.625  81.201
29709DA     BB193135  34.214  59.093  80.795
29709DA     BB293136  34.506  59.305  80.858
29709DA     BB393137  34.661  59.262  80.717
29709DA     SC193138  34.795  59.044  80.893
29709DA     SC293139  35.007  59.016  81.023
29709DA     SC393140  34.959  58.764  81.006
29709DA     SC493141  34.749  58.891  80.871
29710DG     BB193142  34.655  59.560  80.590
29710DG     BB293143  34.989  59.583  80.730
29710DG     BB393144  35.122  59.523  80.595
29710DG     SC193145  35.114  59.230  80.683
29710DG     SC293146  35.337  59.079  80.812
29710DG     SC393147  35.116  58.897  80.739
29710DG     SC493148  35.007  59.132  80.615
29711DT     BB193149  35.295  59.659  80.497
29711DT     BB293150  35.580  59.542  80.685
29711DT     BB393151  35.703  59.428  80.564
29711DT     SC193152  35.537  59.225  80.570
29711DT     SC293153  35.624  59.065  80.684
29711DT     SC393154  35.366  59.041  80.489
29712DT     BB193155  35.886  59.628  80.566
29712DT     BB293156  36.058  59.342  80.703
29712DT     BB393157  36.140  59.228  80.551
29712DT     SC193158  35.905  59.133  80.484
29712DT     SC293159  35.895  58.924  80.535
29712DT     SC393160  35.689  59.083  80.342
29713DT     BB193161  36.377  59.313  80.637
29713DT     BB293162  36.391  58.954  80.661
29713DT     BB393163  36.444  58.873  80.478
29713DT     SC193164  36.206  58.919  80.379
29713DT     SC293165  36.103  58.733  80.349
29713DT     SC393166  36.016  59.020  80.226
29714DA     BB193167  36.677  58.716  80.790
29714DA     BB293168  36.549  58.438  80.589
29714DA     BB393169  36.644  58.434  80.398
29714DA     SC193170  36.431  58.615  80.262
29714DA     SC293171  36.250  58.592  80.092
29714DA     SC393172  36.268  58.847  80.067
29714DA     SC493173  36.458  58.774  80.260
29715DA     BB193174  36.681  58.131  80.512
29715DA     BB293175  36.494  58.023  80.216
29715DA     BB393176  36.612  58.048  80.041
29715DA     SC193177  36.512  58.337  79.984
29715DA     SC293178  36.369  58.453  79.816
29715DA     SC393179  36.488  58.667  79.894
29715DA     SC493180  36.598  58.458  80.045
29716DA     BB193181  36.516  57.736  80.020
29716DA     BB293182  36.357  57.831  79.703
29716DA     BB393183  36.505  57.866  79.553
29716DA     SC193184  36.532  58.169  79.617
29716DA     SC293185  36.475  58.386  79.508
29716DA     SC393186  36.650  58.488  79.666
29716DA     SC493187  36.645  58.213  79.722
29717DT     BB193188  36.499  57.743  79.409
29717DT     BB293189  36.360  57.967  79.164
29717DT     BB393190  36.510  58.038  79.040
29717DT     SC193191  36.600  58.198  79.227
29717DT     SC293192  36.560  58.402  79.171
29717DT     SC393193  36.763  58.305  79.405
29718DT     BB193194  36.404  57.886  78.847
29718DT     BB293195  36.403  58.221  78.713
29718DT     BB393196  36.588  58.264  78.630
29718DT     SC193197  36.697  58.292  78.867
29718DT     SC293198  36.745  58.500  78.899
29718DT     SC393199  36.854  58.250  79.074
29719DC     BB193200  36.465  58.252  78.395
29719DC     BB293201  36.613  58.581  78.407
29719DC     BB393202  36.811  58.571  78.350
29719DC     SC193203  36.880  58.464  78.579
29719DC     SC293204  36.996  58.606  78.693
29719DC     SC393205  36.971  58.288  78.754
29720DG     BB193206  36.613  58.838  78.114
29720DG     BB293207  36.912  58.982  78.259
29720DG     BB393208  37.073  58.913  78.165
29720DG     SC193209  37.108  58.672  78.351
29720DG     SC293210  37.334  58.629  78.541
29720DG     SC393211  37.164  58.388  78.523
29720DG     SC493212  37.032  58.536  78.316
29721DT     BB193213  37.210  59.048  78.049
29721DT     BB293214  37.499  59.063  78.265
29721DT     BB393215  37.651  58.944  78.189
29721DT     SC193216  37.528  58.725  78.265
29721DT     SC293217  37.638  58.634  78.425
29721DT     SC393218  37.404  58.493  78.251
29722DC     BB193219  37.795  59.164  78.110
29722DC     BB293220  38.024  58.979  78.319
29722DC     BB393221  38.127  58.841  78.205
29722DC     SC193222  37.917  58.685  78.190
29722DC     SC293223  37.952  58.506  78.305
29722DC     SC393224  37.715  58.549  78.087
29723DT     BB193225  38.366  58.985  78.209
29723DT     BB293226  38.460  58.661  78.337
29723DT     BB393227  38.517  58.538  78.182
29723DT     SC193228  38.268  58.505  78.106
29723DT     SC293229  38.207  58.302  78.147
29723DT     SC393230  38.051  58.513  77.956
29724DT     BB193231  38.792  58.550  78.241
29724DT     BB293232  38.720  58.197  78.244
29724DT     BB393233  38.749  58.117  78.056
29724DT     SC193234  38.527  58.224  77.967
29724DT     SC293235  38.382  58.070  77.930
29724DT     SC393236  38.364  58.376  77.825
29725DA     BB193237  38.983  57.875  78.306
29725DA     BB293238  38.779  57.651  78.099
29725DA     BB393239  38.859  57.641  77.901
29725DA     SC193240  38.688  57.877  77.793
29725DA     SC293241  38.497  57.910  77.636
29725DA     SC393242  38.574  58.154  77.626
29725DA     SC493243  38.752  58.024  77.799
29726DT     BB193244  38.944  57.461  77.825
29726DT     BB293245  38.669  57.374  77.609
29726DT     BB393246  38.722  57.402  77.411
29726DT     SC193247  38.703  57.663  77.434
29726DT     SC293248  38.533  57.732  77.322
29726DT     SC393249  38.771  57.917  77.440
29727DT     BB193250  38.734  57.132  77.371
29727DT     BB293251  38.495  57.249  77.128
29727DT     BB393252  38.592  57.304  76.954
29727DT     SC193253  38.681  57.524  77.064
29727DT     SC293254  38.583  57.694  76.975
29727DT     SC393255  38.849  57.704  77.159
29728DC     BB193256  38.493  57.083  76.828
29728DC     BB293257  38.380  57.361  76.626
29728DC     BB393258  38.524  57.409  76.485
29728DC     SC193259  38.676  57.522  76.667
29728DC     SC293260  38.679  57.734  76.635
29728DC     SC393261  38.883  57.567  76.824
29729DA     BB193262  38.156  57.363  76.291
29729DA     BB293263  38.306  57.678  76.178
29729DA     BB393264  38.470  57.640  76.047
29729DA     SC193265  38.682  57.635  76.274
29729DA     SC293266  38.872  57.776  76.353
29729DA     SC393267  38.952  57.564  76.473
29729DA     SC493268  38.716  57.492  76.341
29730DA     BB193269  38.292  57.845  75.864
29730DA     BB293270  38.584  58.067  75.866
29730DA     BB393271  38.736  57.989  75.739
29730DA     SC193272  38.875  57.825  75.964
29730DA     SC293273  39.088  57.833  76.094
29730DA     SC393274  39.041  57.586  76.145
29730DA     SC493275  38.829  57.672  75.984
29731DA     BB193276  38.711  58.293  75.616
29731DA     BB293277  39.064  58.338  75.705
29731DA     BB393278  39.189  58.230  75.570
29731DA     SC193279  39.191  57.970  75.740
29731DA     SC293280  39.354  57.841  75.878
29731DA     SC393281  39.194  57.643  75.846
29731DA     SC493282  39.080  57.859  75.707
29732DT     BB193283  39.310  58.335  75.447
29732DT     BB293284  39.620  58.261  75.615
29732DT     BB393285  39.727  58.121  75.507
29732DT     SC193286  39.567  57.927  75.583
29732DT     SC293287  39.672  57.796  75.717
29732DT     SC393288  39.391  57.732  75.570
29733DA     BB193289  39.986  58.442  75.582
29733DA     BB293290  40.162  58.133  75.672
29733DA     BB393291  40.219  58.027  75.496
29733DA     SC193292  39.957  57.859  75.482
29733DA     SC293293  39.888  57.622  75.515
29733DA     SC393294  39.681  57.685  75.377
29733DA     SC493295  39.837  57.918  75.393
29734DA     BB193296  40.512  58.043  75.643
29734DA     BB293297  40.510  57.676  75.647
29734DA     BB393298  40.550  57.600  75.452
29734DA     SC193299  40.251  57.589  75.367
29734DA     SC293300  40.078  57.416  75.320
29734DA     SC393301  39.955  57.601  75.193
29734DA     SC493302  40.191  57.718  75.292
29735DA     BB193303  40.781  57.436  75.618
29735DA     BB293304  40.616  57.128  75.507
29735DA     BB393305  40.660  57.090  75.302
29735DA     SC193306  40.413  57.246  75.195
29735DA     SC293307  40.196  57.194  75.083
29735DA     SC393308  40.198  57.440  75.011
29735DA     SC493309  40.433  57.401  75.159
29736DA     BB193310  40.752  56.802  75.430
29736DA     BB293311  40.497  56.648  75.216
29736DA     BB393312  40.563  56.643  75.013
29736DA     SC193313  40.439  56.920  74.941
29736DA     SC293314  40.251  57.007  74.802
29736DA     SC393315  40.377  57.231  74.810
29736DA     SC493316  40.532  57.049  74.957
29737DG     BB193317  40.532  56.335  75.044
29737DG     BB293318  40.278  56.379  74.790
29737DG     BB393319  40.363  56.388  74.610
29737DG     SC193320  40.401  56.691  74.615
29737DG     SC293321  40.262  56.888  74.438
29737DG     SC393322  40.476  57.020  74.595
29737DG     SC493323  40.535  56.752  74.678
29738DC     BB193324  40.322  56.234  74.451
29738DC     BB293325  40.110  56.419  74.225
29738DC     BB393326  40.218  56.476  74.057
29738DC     SC193327  40.344  56.663  74.191
29738DC     SC293328  40.278  56.856  74.123
29738DC     SC393329  40.540  56.798  74.304
29739DA     BB193330  39.879  56.279  73.907
29739DA     BB293331  39.912  56.595  73.725
29739DA     BB393332  40.071  56.584  73.584
29739DA     SC193333  40.287  56.688  73.782
29739DA     SC293334  40.426  56.893  73.812
29739DA     SC393335  40.578  56.745  73.956
29739DA     SC493336  40.369  56.579  73.867
29740DT     BB193337  40.036  56.588  73.373
29740DT     BB293338  40.153  56.925  73.319
29740DT     BB393339  40.335  56.922  73.221
29740DT     SC193340  40.460  56.847  73.440
29740DT     SC293341  40.584  57.008  73.510
29740DT     SC393342  40.601  56.700  73.607
29741DT     BB193343  40.228  57.007  72.978
29741DT     BB293344  40.482  57.252  73.052
29741DT     BB393345  40.663  57.193  72.971
29741DT     SC193346  40.697  57.011  73.156
29741DT     SC293347  40.858  57.069  73.286
29741DT     SC393348  40.725  56.774  73.270
29742DA     BB193349  40.589  57.585  72.847
29742DA     BB293350  40.930  57.572  72.981
29742DA     BB393351  41.059  57.472  72.844
29742DA     SC193352  41.012  57.191  72.969
29742DA     SC293353  41.142  57.024  73.101
29742DA     SC393354  40.967  56.854  73.020
29742DA     SC493355  40.895  57.100  72.906
29743DA     BB193356  41.221  57.751  72.894
29743DA     BB293357  41.495  57.545  73.023
29743DA     BB393358  41.595  57.445  72.863
29743DA     SC193359  41.414  57.192  72.876
29743DA     SC293360  41.436  56.952  72.943
29743DA     SC393361  41.226  56.914  72.801
29743DA     SC493362  41.284  57.188  72.782
29744DA     BB193363  41.843  57.590  73.019
29744DA     BB293364  41.982  57.254  73.065
29744DA     BB393365  42.055  57.178  72.880
29744DA     SC193366  41.787  57.043  72.800
29744DA     SC293367  41.696  56.812  72.775
29744DA     SC393368  41.516  56.920  72.629
29744DA     SC493369  41.684  57.129  72.711
29745DA     BB193370  42.327  57.134  73.062
29745DA     BB293371  42.302  56.777  72.981
29745DA     BB393372  42.363  56.743  72.780
29745DA     SC193373  42.076  56.776  72.662
29745DA     SC293374  41.902  56.632  72.558
29745DA     SC393375  41.806  56.851  72.464
29745DA     SC493376  42.033  56.923  72.612
29746DA     BB193377  42.576  56.523  72.909
29746DA     BB293378  42.410  56.265  72.709
29746DA     BB393379  42.472  56.277  72.506
29746DA     SC193380  42.244  56.471  72.422
29746DA     SC293381  42.037  56.464  72.283
29746DA     SC393382  42.057  56.720  72.277
29746DA     SC493383  42.275  56.629  72.429
29747DT     BB193384  42.604  56.124  72.390
29747DT     BB293385  42.340  55.984  72.189
29747DT     BB393386  42.365  56.039  71.991
29747DT     SC193387  42.283  56.283  72.039
29747DT     SC293388  42.091  56.314  71.947
29747DT     SC393389  42.286  56.546  72.062
29748DT     BB193390  42.467  55.787  71.879
29748DT     BB293391  42.178  55.856  71.675
29748DT     BB393392  42.234  55.957  71.504
29748DT     SC193393  42.271  56.180  71.638
29748DT     SC293394  42.119  56.322  71.582
29748DT     SC393395  42.393  56.389  71.743
29749DT     BB193396  42.208  55.740  71.313
29749DT     BB293397  41.986  55.994  71.186
29749DT     BB393398  42.085  56.109  71.045
29749DT     SC193399  42.221  56.234  71.232
29749DT     SC293400  42.155  56.438  71.245
29749DT     SC393401  42.426  56.318  71.375
29750DT     BB193402  41.941  55.998  70.838
29750DT     BB293403  41.864  56.351  70.826
29750DT     BB393404  42.001  56.449  70.705
29750DT     SC193405  42.188  56.432  70.889
29750DT     SC293406  42.229  56.628  70.967
29750DT     SC393407  42.413  56.364  71.008
29751DT     BB193408  41.794  56.479  70.546
29751DT     BB293409  41.902  56.813  70.628
29751DT     BB393410  42.058  56.869  70.504
29751DT     SC193411  42.226  56.715  70.635
29751DT     SC293412  42.365  56.838  70.744
29751DT     SC393413  42.398  56.521  70.685
29752DA     BB193414  41.750  57.154  70.550
29752DA     BB293415  42.074  57.318  70.601
29752DA     BB393416  42.184  57.322  70.419
29752DA     SC193417  42.327  57.051  70.470
29752DA     SC293418  42.557  56.970  70.523
29752DA     SC393419  42.475  56.743  70.437
29752DA     SC493420  42.258  56.918  70.412
29753DT     BB193421  42.205  57.491  70.376
29753DT     BB293422  42.558  57.515  70.445
29753DT     BB393423  42.667  57.482  70.272
29753DT     SC193424  42.619  57.224  70.281
29753DT     SC293425  42.801  57.120  70.327
29753DT     SC393426  42.529  56.986  70.213
29754DT     BB193427  42.725  57.742  70.279
29754DT     BB293428  43.045  57.576  70.266
29754DT     BB393429  43.092  57.529  70.071
29754DT     SC193430  42.920  57.331  70.068
29754DT     SC293431  43.026  57.144  70.061
29754DT     SC393432  42.710  57.186  70.002
29755DA     BB193433  43.427  57.742  70.211
29755DA     BB293434  43.551  57.440  70.045
29755DA     BB393435  43.534  57.459  69.833
29755DA     SC193436  43.249  57.336  69.819
29755DA     SC293437  43.142  57.127  69.735
29755DA     SC393438  42.924  57.261  69.738
29755DA     SC493439  43.124  57.437  69.827
29756DA     BB193440  43.861  57.394  69.817
29756DA     BB293441  43.777  57.095  69.623
29756DA     BB393442  43.738  57.147  69.419
29756DA     SC193443  43.433  57.190  69.463
29756DA     SC293444  43.220  57.077  69.399
29756DA     SC393445  43.109  57.303  69.450
29756DA     SC493446  43.383  57.338  69.499
29757DT     BB193447  43.866  57.086  69.254
29757DT     BB293448  43.647  56.828  69.130
29757DT     BB393449  43.564  56.887  68.950
29757DT     SC193450  43.401  57.054  69.070
29757DT     SC293451  43.199  56.981  69.055
29757DT     SC393452  43.287  57.280  69.143
29758DA     BB193453  43.732  56.507  68.903
29758DA     BB293454  43.386  56.496  68.780
29758DA     BB393455  43.371  56.598  68.593
29758DA     SC193456  43.303  56.873  68.722
29758DA     SC293457  43.106  57.025  68.739
29758DA     SC393458  43.278  57.208  68.794
29758DA     SC493459  43.425  56.973  68.753
29759DC     BB193460  43.322  56.480  68.466
29759DC     BB293461  42.980  56.589  68.435
29759DC     BB393462  42.961  56.716  68.273
29759DC     SC193463  43.077  56.912  68.402
29759DC     SC293464  42.931  57.065  68.445
29759DC     SC393465  43.253  57.098  68.466
29760DT     BB193466  42.825  56.510  68.208
29760DT     BB293467  42.597  56.789  68.196
29760DT     BB393468  42.633  56.903  68.027
29760DT     SC193469  42.851  57.005  68.132
29760DT     SC293470  42.819  57.213  68.175
29760DT     SC393471  43.106  57.063  68.167
29761DT     BB193472  42.401  56.805  67.966
29761DT     BB293473  42.365  57.163  67.940
29761DT     BB393474  42.446  57.230  67.762
29761DT     SC193475  42.691  57.198  67.851
29761DT     SC293476  42.782  57.391  67.879
29761DT     SC393477  42.937  57.106  67.874
29762DT     BB193478  42.196  57.274  67.693
29762DT     BB293479  42.364  57.589  67.642
29762DT     BB393480  42.462  57.588  67.459
29762DT     SC193481  42.651  57.431  67.553
29762DT     SC293482  42.835  57.542  67.567
29762DT     SC393483  42.805  57.220  67.583
29763DA     BB193484  42.227  57.937  67.459
29763DA     BB293485  42.562  58.029  67.341
29763DA     BB393486  42.593  57.956  67.143
29763DA     SC193487  42.714  57.685  67.236
29763DA     SC293488  42.936  57.571  67.235
29763DA     SC393489  42.802  57.354  67.264
29763DA     SC493490  42.613  57.561  67.253
29764DT     BB193491  42.612  58.086  66.971
29764DT     BB293492  42.966  58.044  66.920
29764DT     BB393493  43.000  57.928  66.752
29764DT     SC193494  42.930  57.710  66.879
29764DT     SC293495  43.103  57.586  66.909
29764DT     SC393496  42.795  57.493  66.942
29765DA     BB193497  43.227  58.274  66.677
29765DA     BB293498  43.445  57.986  66.612
29765DA     BB393499  43.394  57.896  66.426
29765DA     SC193500  43.189  57.698  66.549
29765DA     SC293501  43.170  57.452  66.590
29765DA     SC393502  42.918  57.495  66.607
29765DA     SC493503  43.035  57.744  66.555
29766DA     BB193504  43.714  57.938  66.348
29766DA     BB293505  43.740  57.574  66.318
29766DA     BB393506  43.660  57.509  66.132
29766DA     SC193507  43.372  57.467  66.242
29766DA     SC293508  43.219  57.276  66.291
29766DA     SC393509  43.031  57.450  66.281
29766DA     SC493510  43.269  57.590  66.230
29767DA     BB193511  43.955  57.366  66.097
29767DA     BB293512  43.779  57.044  66.084
29767DA     BB393513  43.689  57.016  65.893
29767DA     SC193514  43.419  57.148  65.974
29767DA     SC293515  43.184  57.076  66.014
29767DA     SC393516  43.123  57.322  65.977
29767DA     SC493517  43.402  57.305  65.946
29768DT     BB193518  43.757  56.866  65.761
29768DT     BB293519  43.478  56.641  65.806
29768DT     BB393520  43.358  56.643  65.637
29768DT     SC193521  43.259  56.878  65.700
29768DT     SC293522  43.053  56.856  65.757
29768DT     SC393523  43.202  57.135  65.686
29769DG     BB193524  43.474  56.252  65.671
29769DG     BB293525  43.114  56.279  65.644
29769DG     BB393526  43.062  56.303  65.453
29769DG     SC193527  43.076  56.608  65.462
29769DG     SC293528  42.845  56.795  65.435
29769DG     SC393529  43.102  56.943  65.430
29769DG     SC493530  43.216  56.680  65.430
29770DA     BB193531  42.842  56.031  65.480
29770DA     BB293532  42.559  56.249  65.399
29770DA     BB393533  42.550  56.283  65.189
29770DA     SC193534  42.727  56.539  65.198
29770DA     SC293535  42.699  56.784  65.166
29770DA     SC393536  42.953  56.788  65.129
29770DA     SC493537  42.886  56.520  65.177
29771DC     BB193538  42.387  56.207  65.056
29771DC     BB293539  42.218  56.522  65.014
29771DC     BB393540  42.240  56.590  64.819
29771DC     SC193541  42.490  56.658  64.864
29771DC     SC293542  42.506  56.873  64.861
29771DC     SC393543  42.753  56.663  64.845
29772DT     BB193544  41.978  56.534  64.763
29772DT     BB293545  42.012  56.886  64.692
29772DT     BB393546  42.072  56.912  64.495
29772DT     SC193547  42.317  56.836  64.551
29772DT     SC293548  42.449  57.005  64.537
29772DT     SC393549  42.539  56.694  64.550
29773DT     BB193550  41.825  57.005  64.439
29773DT     BB293551  42.047  57.272  64.341
29773DT     BB393552  42.112  57.242  64.147
29773DT     SC193553  42.274  57.051  64.222
29773DT     SC293554  42.478  57.118  64.201
29773DT     SC393555  42.382  56.811  64.244
29774DA     BB193556  41.965  57.633  64.179
29774DA     BB293557  42.290  57.649  64.010
29774DA     BB393558  42.274  57.574  63.810
29774DA     SC193559  42.342  57.281  63.888
29774DA     SC293560  42.529  57.120  63.855
29774DA     SC393561  42.356  56.938  63.909
29774DA     SC493562  42.219  57.183  63.923
29775DA     BB193563  42.412  57.866  63.744
29775DA     BB293564  42.688  57.681  63.590
29775DA     BB393565  42.628  57.602  63.400
29775DA     SC193566  42.528  57.332  63.517
29775DA     SC293567  42.596  57.092  63.513
29775DA     SC393568  42.354  57.042  63.581
29775DA     SC493569  42.372  57.321  63.558
29776DC     BB193570  42.709  57.674  63.215
29776DC     BB293571  42.912  57.385  63.139
29776DC     BB393572  42.828  57.278  62.983
29776DC     SC193573  42.640  57.183  63.140
29776DC     SC293574  42.672  56.972  63.170
29776DC     SC393575  42.401  57.135  63.240
29777DA     BB193576  43.216  57.346  62.833
29777DA     BB293577  43.145  56.989  62.785
29777DA     BB393578  43.018  56.961  62.616
29777DA     SC193579  42.754  56.979  62.780
29777DA     SC293580  42.571  56.826  62.852
29777DA     SC393581  42.434  57.040  62.886
29777DA     SC493582  42.685  57.123  62.794
29778DG     BB193583  43.238  56.789  62.453
29778DG     BB293584  43.001  56.519  62.491
29778DG     BB393585  42.876  56.516  62.337
29778DG     SC193586  42.672  56.704  62.466
29778DG     SC293587  42.395  56.630  62.551
29778DG     SC393588  42.437  56.923  62.569
29778DG     SC493589  42.689  56.862  62.446
29779DA     BB193590  42.947  56.178  62.265
29779DA     BB293591  42.598  56.086  62.332
29779DA     BB393592  42.478  56.122  62.159
29779DA     SC193593  42.404  56.413  62.241
29779DA     SC293594  42.202  56.537  62.317
29779DA     SC393595  42.327  56.748  62.240
29779DA     SC493596  42.497  56.531  62.186
29780DT     BB193597  42.390  55.961  62.058
29780DT     BB293598  42.057  56.014  62.187
29780DT     BB393599  41.934  56.087  62.037
29780DT     SC193600  42.044  56.324  62.051
29780DT     SC293601  41.903  56.464  62.133
29780DT     SC393602  42.178  56.540  61.980
29781DT     BB193603  41.820  55.851  62.057
29781DT     BB293604  41.561  56.090  62.131
29781DT     BB393605  41.480  56.164  61.955
29781DT     SC193606  41.692  56.313  61.912
29781DT     SC293607  41.639  56.520  61.936
29781DT     SC393608  41.909  56.408  61.796
29782DT     BB193609  41.278  56.030  62.045
29782DT     BB293610  41.164  56.370  62.011
29782DT     BB393611  41.121  56.411  61.812
29782DT     SC193612  41.376  56.425  61.752
29782DT     SC293613  41.427  56.628  61.706
29782DT     SC393614  41.608  56.367  61.640
29783DA     BB193615  40.818  56.533  62.079
29783DA     BB293616  40.888  56.807  61.845
29783DA     BB393617  40.826  56.754  61.648
29783DA     SC193618  41.100  56.631  61.568
29783DA     SC293619  41.289  56.685  61.415
29783DA     SC393620  41.350  56.437  61.434
29783DA     SC493621  41.121  56.473  61.592
29784DT     BB193622  40.693  56.863  61.596
29784DT     BB293623  40.879  57.051  61.350
29784DT     BB393624  40.849  56.970  61.162
29784DT     SC193625  41.004  56.766  61.215
29784DT     SC293626  41.185  56.781  61.098
29784DT     SC393627  41.082  56.517  61.256
29785DA     BB193628  40.774  57.384  61.137
29785DA     BB293629  40.988  57.290  60.854
29785DA     BB393630  40.877  57.177  60.712
29785DA     SC193631  40.946  56.902  60.840
29785DA     SC293632  41.084  56.701  60.784
29785DA     SC393633  40.937  56.579  60.955
29785DA     SC493634  40.844  56.843  60.949
29786DA     BB193635  40.983  57.406  60.495
29786DA     BB293636  41.146  57.134  60.311
29786DA     BB393637  41.001  57.022  60.201
29786DA     SC193638  40.948  56.819  60.431
29786DA     SC293639  40.992  56.578  60.478
29786DA     SC393640  40.804  56.599  60.652
29786DA     SC493641  40.828  56.852  60.533
29787DA     BB193642  41.184  57.083  59.928
29787DA     BB293643  41.232  56.721  59.896
29787DA     BB393644  41.059  56.631  59.809
29787DA     SC193645  40.921  56.576  60.083
29787DA     SC293646  40.863  56.379  60.224
29787DA     SC393647  40.693  56.535  60.336
29787DA     SC493648  40.820  56.688  60.139
29788DA     BB193649  41.263  56.506  59.578
29788DA     BB293650  41.171  56.172  59.699
29788DA     BB393651  40.981  56.115  59.619
29788DA     SC193652  40.818  56.232  59.856
29788DA     SC293653  40.682  56.147  60.047
29788DA     SC393654  40.578  56.382  60.051
29788DA     SC493655  40.765  56.384  59.842
29789DT     BB193656  40.963  55.953  59.481
29789DT     BB293657  40.827  55.717  59.718
29789DT     BB393658  40.626  55.685  59.679
29789DT     SC193659  40.562  55.919  59.780
29789DT     SC293660  40.454  55.890  59.964
29789DT     SC393661  40.470  56.166  59.795
29790DT     BB193662  40.688  55.439  59.590
29790DT     BB293663  40.457  55.385  59.862
29790DT     BB393664  40.263  55.397  59.793
29790DT     SC193665  40.277  55.658  59.773
29790DT     SC293666  40.151  55.748  59.923
29790DT     SC393667  40.278  55.899  59.667
29791DG     BB193668  40.318  55.036  59.972
29791DG     BB293669  40.033  55.210  60.109
29791DG     BB393670  39.878  55.195  59.986
29791DG     SC193671  39.947  55.448  59.828
29791DG     SC293672  39.787  55.700  59.822
29791DG     SC393673  40.004  55.708  59.621
29791DG     SC493674  40.045  55.437  59.702
29792DA     BB193675  39.721  55.097  60.276
29792DA     BB293676  39.481  55.371  60.235
29792DA     BB393677  39.346  55.328  60.076
29792DA     SC193678  39.521  55.465  59.858
29792DA     SC293679  39.511  55.668  59.714
29792DA     SC393680  39.682  55.547  59.566
29792DA     SC493681  39.626  55.373  59.778
29793DG     BB193682  39.141  55.357  60.306
29793DG     BB293683  39.023  55.633  60.106
29793DG     BB393684  38.910  55.566  59.957
29793DG     SC193685  39.143  55.533  59.761
29793DG     SC293686  39.186  55.691  59.511
29793DG     SC393687  39.377  55.466  59.528
29793DG     SC493688  39.224  55.395  59.759
29794DA     BB193689  38.665  55.792  60.060
29794DA     BB293690  38.668  55.950  59.729
29794DA     BB393691  38.565  55.828  59.588
29794DA     SC193692  38.818  55.670  59.502
29794DA     SC293693  38.965  55.652  59.301
29794DA     SC393694  39.039  55.427  59.400
29794DA     SC493695  38.850  55.533  59.579
29795DT     BB193696  38.374  55.884  59.496
29795DT     BB293697  38.505  55.961  59.168
29795DT     BB393698  38.447  55.815  59.033
29795DT     SC193699  38.621  55.644  59.131
29795DT     SC293700  38.777  55.611  58.988
29795DT     SC393701  38.718  55.429  59.250
29796DT     BB193702  38.248  55.968  58.898
29796DT     BB293703  38.469  55.865  58.633
29796DT     BB393704  38.402  55.688  58.549
29796DT     SC193705  38.485  55.550  58.757
29796DT     SC293706  38.652  55.428  58.699
29796DT     SC393707  38.479  55.396  58.971
29797DA     BB193708  38.442  55.948  58.223
29797DA     BB293709  38.621  55.639  58.140
29797DA     BB393710  38.483  55.485  58.087
29797DA     SC193711  38.454  55.377  58.377
29797DA     SC293712  38.519  55.173  58.505
29797DA     SC393713  38.336  55.243  58.671
29797DA     SC493714  38.335  55.436  58.467
29798DA     BB193715  38.676  55.480  57.826
29798DA     BB293716  38.762  55.137  57.921
29798DA     BB393717  38.603  55.004  57.870
29798DA     SC193718  38.459  55.031  58.144
29798DA     SC293719  38.415  54.889  58.344
29798DA     SC393720  38.225  55.054  58.394
29798DA     SC493721  38.344  55.143  58.157
29799DT     BB193722  38.661  54.884  57.745
29799DT     BB293723  38.686  54.600  57.966
29799DT     BB393724  38.519  54.480  57.946
29799DT     SC193725  38.371  54.650  58.080
29799DT     SC293726  38.319  54.564  58.270
29799DT     SC393727  38.180  54.824  58.134
29800DT     BB193728  38.703  54.327  57.849
29800DT     BB293729  38.555  54.143  58.122
29800DT     BB393730  38.374  54.061  58.062
29800DT     SC193731  38.256  54.295  58.073
29800DT     SC293732  38.117  54.297  58.237
29800DT     SC393733  38.128  54.513  57.996
29801DT     BB193734  38.511  53.839  58.083
29801DT     BB293735  38.222  53.796  58.296
29801DT     BB393736  38.057  53.744  58.181
29801DT     SC193737  38.032  53.990  58.092
29801DT     SC293738  37.855  54.078  58.175
29801DT     SC393739  38.025  54.193  57.924
29802DA     BB193740  38.089  53.467  58.496
29802DA     BB293741  37.739  53.574  58.474
29802DA     BB393742  37.647  53.492  58.301
29802DA     SC193743  37.720  53.733  58.118
29802DA     SC293744  37.601  53.920  58.003
29802DA     SC393745  37.809  53.933  57.854
29802DA     SC493746  37.857  53.725  58.035
29803DG     BB193747  37.445  53.346  58.494
29803DG     BB293748  37.200  53.553  58.328
29803DG     BB393749  37.141  53.466  58.158
29803DG     SC193750  37.358  53.598  57.987
29803DG     SC293751  37.312  53.800  57.772
29803DG     SC393752  37.594  53.710  57.774
29803DG     SC493753  37.500  53.526  57.972
29804DA     BB193754  36.807  53.493  58.258
29804DA     BB293755  36.733  53.702  57.966
29804DA     BB393756  36.710  53.580  57.792
29804DA     SC193757  37.010  53.595  57.712
29804DA     SC293758  37.148  53.699  57.531
29804DA     SC393759  37.326  53.526  57.596
29804DA     SC493760  37.107  53.479  57.766
29805DT     BB193761  36.525  53.567  57.700
29805DT     BB293762  36.606  53.777  57.418
29805DT     BB393763  36.627  53.661  57.247
29805DT     SC193764  36.861  53.573  57.328
29805DT     SC293765  37.015  53.656  57.202
29805DT     SC393766  37.050  53.407  57.407
29806DC     BB193767  36.400  53.770  57.164
29806DC     BB293768  36.641  53.853  56.909
29806DC     BB393769  36.658  53.696  56.775
29806DC     SC193770  36.796  53.553  56.947
29806DC     SC293771  36.999  53.536  56.879
29806DC     SC393772  36.860  53.356  57.110
29807DA     BB193773  36.613  54.070  56.589
29807DA     BB293774  36.891  53.892  56.428
29807DA     BB393775  36.818  53.725  56.318
29807DA     SC193776  36.843  53.526  56.556
29807DA     SC293777  36.984  53.330  56.619
29807DA     SC393778  36.795  53.272  56.782
29807DA     SC493779  36.714  53.505  56.650
29808DT     BB193780  36.854  53.753  56.149
29808DT     BB293781  37.109  53.501  56.108
29808DT     BB393782  37.025  53.326  56.036
29808DT     SC193783  36.920  53.271  56.269
29808DT     SC293784  37.020  53.100  56.354
29808DT     SC393785  36.738  53.225  56.455
29809DT     BB193786  37.146  53.381  55.805
29809DT     BB293787  37.247  53.043  55.881
29809DT     BB393788  37.100  52.910  55.821
29809DT     SC193789  36.946  52.976  56.023
29809DT     SC293790  36.935  52.811  56.161
29809DT     SC393791  36.739  53.070  56.157
29810DT     BB193792  37.230  52.814  55.585
29810DT     BB293793  37.143  52.509  55.756
29810DT     BB393794  36.955  52.445  55.695
29810DT     SC193795  36.837  52.632  55.837
29810DT     SC293796  36.733  52.541  56.002
29810DT     SC393797  36.693  52.844  55.896
29811DT     BB193798  37.003  52.219  55.489
29811DT     BB293799  36.774  52.062  55.719
29811DT     BB393800  36.581  52.073  55.646
29811DT     SC193801  36.565  52.328  55.707
29811DT     SC293802  36.426  52.353  55.869
29811DT     SC393803  36.540  52.589  55.678
29812DA     BB193804  36.588  51.647  55.672
29812DA     BB293805  36.283  51.755  55.845
29812DA     BB393806  36.126  51.789  55.704
29812DA     SC193807  36.195  52.090  55.665
29812DA     SC293808  36.095  52.312  55.721
29812DA     SC393809  36.246  52.404  55.535
29812DA     SC493810  36.296  52.128  55.545
29813DA     BB193811  35.938  51.571  55.872
29813DA     BB293812  35.715  51.850  55.955
29813DA     BB393813  35.578  51.886  55.795
29813DA     SC193814  35.762  52.092  55.652
29813DA     SC293815  35.765  52.337  55.608
29813DA     SC393816  35.929  52.281  55.419
29813DA     SC493817  35.862  52.036  55.539
29814DT     BB193818  35.378  51.853  55.827
29814DT     BB293819  35.287  52.201  55.859
29814DT     BB393820  35.184  52.263  55.691
29814DT     SC193821  35.404  52.269  55.548
29814DT     SC293822  35.454  52.473  55.502
29814DT     SC393823  35.580  52.210  55.360
29815DC     BB193824  34.974  52.274  55.852
29815DC     BB293825  35.010  52.608  55.720
29815DC     BB393826  34.919  52.621  55.534
29815DC     SC193827  35.114  52.488  55.420
29815DC     SC293828  35.226  52.620  55.293
29815DC     SC393829  35.242  52.296  55.291
29816DG     BB193830  34.772  52.903  55.789
29816DG     BB293831  34.880  53.048  55.475
29816DG     BB393832  34.748  53.007  55.333
29816DG     SC193833  34.882  52.745  55.249
29816DG     SC293834  35.016  52.692  54.988
29816DG     SC393835  34.990  52.443  55.146
29816DG     SC493836  34.839  52.609  55.323
29817DT     BB193837  34.645  53.169  55.236
29817DT     BB293838  34.799  53.176  54.910
29817DT     BB393839  34.676  53.083  54.772
29817DT     SC193840  34.737  52.845  54.865
29817DT     SC293841  34.855  52.740  54.720
29817DT     SC393842  34.710  52.608  54.977
29818DA     BB193843  34.755  53.460  54.602
29818DA     BB293844  34.809  53.208  54.341
29818DA     BB393845  34.622  53.134  54.269
29818DA     SC193846  34.607  52.901  54.474
29818DA     SC293847  34.623  52.652  54.472
29818DA     SC393848  34.502  52.663  54.697
29818DA     SC493849  34.530  52.929  54.612
29819DA     BB193850  34.711  53.222  53.957
29819DA     BB293851  34.691  52.868  53.864
29819DA     BB393852  34.489  52.813  53.825
29819DA     SC193853  34.430  52.727  54.118
29819DA     SC293854  34.387  52.516  54.243
29819DA     SC393855  34.283  52.667  54.422
29819DA     SC493856  34.369  52.838  54.217
29820DT     BB193857  34.401  52.754  53.620
29820DT     BB293858  34.389  52.400  53.688
29820DT     BB393859  34.193  52.338  53.702
29820DT     SC193860  34.166  52.447  53.939
29820DT     SC293861  34.149  52.293  54.087
29820DT     SC393862  34.079  52.606  54.130
29821DA     BB193863  34.366  52.084  53.417
29821DA     BB293864  34.201  51.873  53.667
29821DA     BB393865  33.990  51.872  53.636
29821DA     SC193866  33.937  52.114  53.824
29821DA     SC293867  33.831  52.156  54.046
29821DA     SC393868  33.815  52.400  53.969
29821DA     SC493869  33.935  52.260  53.758
29822DT     BB193870  33.907  51.697  53.583
29822DT     BB293871  33.764  51.623  53.906
29822DT     BB393872  33.559  51.654  53.901
29822DT     SC193873  33.591  51.914  53.906
29822DT     SC293874  33.524  51.991  54.095
29822DT     SC393875  33.583  52.167  53.830
29823DA     BB193876  33.647  51.277  54.060
29823DA     BB293877  33.416  51.447  54.288
29823DA     BB393878  33.221  51.457  54.202
29823DA     SC193879  33.269  51.732  54.065
29823DA     SC293880  33.190  51.967  54.090
29823DA     SC393881  33.270  51.998  53.848
29823DA     SC493882  33.323  51.731  53.913
29824DT     BB193883  33.096  51.359  54.300
29824DT     BB293884  32.926  51.641  54.448
29824DT     BB393885  32.751  51.679  54.346
29824DT     SC193886  32.882  51.785  54.145
29824DT     SC293887  32.846  51.997  54.139
29824DT     SC393888  32.976  51.820  53.901
29825DA     BB193889  32.681  51.659  54.759
29825DA     BB293890  32.523  51.963  54.629
29825DA     BB393891  32.352  51.914  54.512
29825DA     SC193892  32.510  51.897  54.244
29825DA     SC293893  32.528  52.027  54.032
29825DA     SC393894  32.626  51.811  53.933
29825DA     SC493895  32.567  51.753  54.201
29826DT     BB193896  32.195  51.977  54.588
29826DT     BB293897  32.135  52.245  54.354
29826DT     BB393898  31.995  52.187  54.214
29826DT     SC193899  32.170  52.035  54.090
29826DT     SC293900  32.217  52.121  53.899
29826DT     SC393901  32.286  51.819  53.994
29827DT     BB193902  31.837  52.360  54.336
29827DT     BB293903  31.846  52.467  53.991
29827DT     BB393904  31.710  52.357  53.880
29827DT     SC193905  31.865  52.146  53.884
29827DT     SC293906  31.943  52.111  53.686
29827DT     SC393907  31.951  51.901  53.933
29828DA     BB193908  31.670  52.769  53.809
29828DA     BB293909  31.674  52.595  53.486
29828DA     BB393910  31.495  52.482  53.461
29828DA     SC193911  31.611  52.223  53.588
29828DA     SC293912  31.680  51.995  53.514
29828DA     SC393913  31.655  51.929  53.761
29828DA     SC493914  31.589  52.201  53.746
29829DA     BB193915  31.511  52.657  53.184
29829DA     BB293916  31.507  52.336  53.007
29829DA     BB393917  31.314  52.245  53.022
29829DA     SC193918  31.383  52.088  53.281
29829DA     SC293919  31.420  51.850  53.349
29829DA     SC393920  31.372  51.932  53.587
29829DA     SC493921  31.349  52.157  53.422
29830DA     BB193922  31.354  52.237  52.694
29830DA     BB293923  31.310  51.873  52.718
29830DA     BB393924  31.107  51.826  52.761
29830DA     SC193925  31.145  51.829  53.069
29830DA     SC293926  31.147  51.665  53.257
29830DA     SC393927  31.103  51.868  53.408
29830DA     SC493928  31.117  51.967  53.146
29831DA     BB193929  31.113  51.632  52.488
29831DA     BB293930  31.029  51.347  52.704
29831DA     BB393931  30.821  51.350  52.752
29831DA     SC193932  30.858  51.519  53.010
29831DA     SC293933  30.840  51.486  53.257
29831DA     SC393934  30.819  51.741  53.269
29831DA     SC493935  30.845  51.679  52.997
29832DA     BB193936  30.790  51.038  52.628
29832DA     BB293937  30.687  50.928  52.962
29832DA     BB393938  30.481  50.972  52.995
29832DA     SC193939  30.536  51.253  53.118
29832DA     SC293940  30.520  51.363  53.341
29832DA     SC393941  30.519  51.583  53.209
29832DA     SC493942  30.535  51.379  53.018
29833DA     BB193943  30.430  50.649  53.062
29833DA     BB293944  30.334  50.748  53.402
29833DA     BB393945  30.131  50.814  53.406
29833DA     SC193946  30.201  51.112  53.351
29833DA     SC293947  30.197  51.328  53.476
29833DA     SC393948  30.201  51.438  53.244
29833DA     SC493949  30.202  51.161  53.198
29834DA     BB193950  30.096  50.586  53.641
29834DA     BB293951  30.016  50.860  53.870
29834DA     BB393952  29.814  50.923  53.843
29834DA     SC193953  29.883  51.138  53.630
29834DA     SC293954  29.886  51.387  53.613
29834DA     SC393955  29.880  51.349  53.359
29834DA     SC493956  29.878  51.094  53.475
29835DA     BB193957  29.826  50.866  54.163
29835DA     BB293958  29.748  51.222  54.206
29835DA     BB393959  29.543  51.259  54.160
29835DA     SC193960  29.596  51.319  53.860
29835DA     SC293961  29.591  51.517  53.707
29835DA     SC393962  29.574  51.344  53.518
29835DA     SC493963  29.585  51.197  53.756
29836DA     BB193964  29.591  51.391  54.453
29836DA     BB293965  29.493  51.709  54.299
29836DA     BB393966  29.285  51.708  54.255
29836DA     SC193967  29.320  51.594  53.968
29836DA     SC293968  29.295  51.673  53.733
29836DA     SC393969  29.282  51.424  53.672
29836DA     SC493970  29.312  51.434  53.950
29837DT     BB193971  29.206  51.835  54.353
29837DT     BB293972  29.137  52.067  54.085
29837DT     BB393973  28.944  52.041  54.017
29837DT     SC193974  29.009  51.820  53.892
29837DT     SC293975  29.001  51.853  53.680
29837DT     SC393976  29.015  51.564  53.827
29838DT     BB193977  28.889  52.275  54.132
29838DT     BB293978  28.784  52.315  53.789
29838DT     BB393979  28.593  52.237  53.765
29838DT     SC193980  28.684  51.991  53.773
29838DT     SC293981  28.666  51.901  53.578
29838DT     SC393982  28.723  51.744  53.856
29839DT     BB193983  28.479  52.488  53.748
29839DT     BB293984  28.365  52.322  53.449
29839DT     BB393985  28.190  52.218  53.488
29839DT     SC193986  28.321  52.030  53.617
29839DT     SC293987  28.317  51.848  53.502
29839DT     SC393988  28.402  51.875  53.814
29840DA     BB193989  28.061  52.460  53.166
29840DA     BB293990  27.953  52.117  53.091
29840DA     BB393991  27.780  52.067  53.205
29840DA     SC193992  27.942  51.951  53.444
29840DA     SC293993  27.985  51.728  53.547
29840DA     SC393994  28.052  51.860  53.756
29840DA     SC493995  27.978  52.051  53.565
29841DT     BB193996  27.555  52.030  53.129
29841DT     BB293997  27.563  51.671  53.162
29841DT     BB393998  27.434  51.611  53.313
29841DT     SC193999  27.600  51.694  53.498
29841DT     SC294000  27.682  51.524  53.602
29841DT     SC394001  27.697  51.833  53.701
29842DT     BB194002  27.238  51.507  53.140
29842DT     BB294003  27.330  51.227  53.349
29842DT     BB394004  27.208  51.220  53.516
29842DT     SC194005  27.333  51.423  53.625
29842DT     SC294006  27.445  51.355  53.796
29842DT     SC394007  27.376  51.663  53.726
29843DA     BB194008  27.204  50.843  53.335
29843DA     BB294009  27.280  50.798  53.691
29843DA     BB394010  27.105  50.829  53.809
29843DA     SC194011  27.156  51.133  53.849
29843DA     SC294012  27.220  51.287  54.034
29843DA     SC394013  27.122  51.473  53.887
29843DA     SC494014  27.089  51.234  53.743
29844DT     BB194015  27.051  50.674  53.898
29844DT     BB294016  27.160  50.774  54.227
29844DT     BB394017  26.998  50.841  54.338
29844DT     SC194018  26.991  51.067  54.204
29844DT     SC294019  27.052  51.228  54.332
29844DT     SC394020  26.903  51.259  54.047
29845DA     BB194021  27.222  50.560  54.556
29845DA     BB294022  27.160  50.850  54.771
29845DA     BB394023  26.954  50.860  54.825
29845DA     SC194024  26.873  51.037  54.583
29845DA     SC294025  26.798  51.271  54.543
29845DA     SC394026  26.707  51.182  54.320
29845DA     SC494027  26.822  50.962  54.450
29846DA     BB194028  27.097  50.875  55.121
29846DA     BB294029  26.929  51.199  55.162
29846DA     BB394030  26.720  51.170  55.193
29846DA     SC194031  26.648  51.184  54.890
29846DA     SC294032  26.530  51.340  54.736
29846DA     SC394033  26.508  51.137  54.581
29846DA     SC494034  26.643  51.046  54.809
29847DT     BB194035  26.631  51.217  55.376
29847DT     BB294036  26.459  51.515  55.268
29847DT     BB394037  26.256  51.477  55.250
29847DT     SC194038  26.294  51.343  55.027
29847DT     SC294039  26.213  51.454  54.862
29847DT     SC394040  26.299  51.142  54.856
29848DA     BB194041  26.264  51.809  55.509
29848DA     BB294042  26.024  51.884  55.242
29848DA     BB394043  25.842  51.777  55.274
29848DA     SC194044  25.929  51.529  55.109
29848DA     SC294045  25.869  51.420  54.893
29848DA     SC394046  25.979  51.210  54.991
29848DA     SC494047  26.000  51.408  55.188
29849DG     BB194048  25.683  52.052  55.301
29849DG     BB294049  25.526  51.942  54.994
29849DG     BB394050  25.367  51.830  55.036
29849DG     SC194051  25.523  51.567  55.042
29849DG     SC294052  25.495  51.342  54.847
29849DG     SC394053  25.666  51.263  55.075
29849DG     SC494054  25.590  51.519  55.179
29850DA     BB194055  25.191  52.041  54.829
29850DA     BB294056  25.122  51.760  54.604
29850DA     BB394057  24.964  51.639  54.682
29850DA     SC194058  25.155  51.450  54.841
29850DA     SC294059  25.232  51.214  54.829
29850DA     SC394060  25.296  51.243  55.076
29850DA     SC494061  25.186  51.488  54.994
29851DT     BB194062  24.814  51.640  54.571
29851DT     BB294063  24.867  51.311  54.432
29851DT     BB394064  24.741  51.174  54.524
29851DT     SC194065  24.887  51.174  54.742
29851DT     SC294066  24.987  50.984  54.761
29851DT     SC394067  24.957  51.207  54.994
29852DA     BB194068  24.746  51.153  54.103
29852DA     BB294069  24.793  50.816  54.241
29852DA     BB394070  24.614  50.750  54.337
29852DA     SC194071  24.694  50.862  54.616
29852DA     SC294072  24.761  50.772  54.839
29852DA     SC394073  24.693  51.002  54.929
29852DA     SC494074  24.645  51.011  54.653
29853DT     BB194075  24.555  50.609  54.248
29853DT     BB294076  24.641  50.361  54.496
29853DT     BB394077  24.477  50.320  54.615
29853DT     SC194078  24.504  50.548  54.743
29853DT     SC294079  24.567  50.509  54.945
29853DT     SC394080  24.450  50.790  54.834
29854DA     BB194081  24.651  49.964  54.473
29854DA     BB294082  24.594  49.931  54.834
29854DA     BB394083  24.385  49.918  54.875
29854DA     SC194084  24.348  50.225  54.910
29854DA     SC294085  24.301  50.386  55.095
29854DA     SC394086  24.228  50.547  54.909
29854DA     SC494087  24.306  50.310  54.780
29855DT     BB194088  24.323  49.750  54.948
29855DT     BB294089  24.266  49.864  55.285
29855DT     BB394090  24.064  49.895  55.316
29855DT     SC194091  24.069  50.117  55.175
29855DT     SC294092  24.040  50.285  55.306
29855DT     SC394093  24.018  50.290  54.983
29856DA     BB194094  24.204  49.649  55.626
29856DA     BB294095  24.011  49.923  55.775
29856DA     BB394096  23.803  49.895  55.738
29856DA     SC194097  23.804  50.058  55.472
29856DA     SC294098  23.716  50.276  55.389
29856DA     SC394099  23.744  50.174  55.155
29856DA     SC494100  23.827  49.976  55.336
29857DA     BB194101  23.801  49.931  56.063
29857DA     BB294102  23.590  50.225  56.009
29857DA     BB394103  23.393  50.166  55.954
29857DA     SC194104  23.451  50.167  55.648
29857DA     SC294105  23.388  50.302  55.448
29857DA     SC394106  23.459  50.096  55.312
29857DA     SC494107  23.499  50.028  55.581
29858DG     BB194108  23.334  50.328  56.209
29858DG     BB294109  23.161  50.542  55.974
29858DG     BB394110  22.984  50.463  55.928
29858DG     SC194111  23.090  50.301  55.691
29858DG     SC294112  23.023  50.347  55.404
29858DG     SC394113  23.176  50.096  55.438
29858DG     SC494114  23.146  50.154  55.717
29859DT     BB194115  22.823  50.579  55.976
29859DT     BB294116  22.714  50.696  55.652
29859DT     BB394117  22.557  50.579  55.584
29859DT     SC194118  22.720  50.380  55.527
29859DT     SC294119  22.733  50.358  55.314
29859DT     SC394120  22.832  50.142  55.534
29860DC     BB194121  22.414  50.794  55.626
29860DC     BB294122  22.361  50.711  55.279
29860DC     BB394123  22.219  50.561  55.264
29860DC     SC194124  22.391  50.380  55.345
29860DC     SC294125  22.440  50.249  55.182
29860DC     SC394126  22.502  50.193  55.495
29861DA     BB194127  22.096  50.870  55.007
29861DA     BB294128  22.072  50.555  54.822
29861DA     BB394129  21.907  50.440  54.893
29861DA     SC194130  22.074  50.288  55.107
29861DA     SC294131  22.158  50.056  55.145
29861DA     SC394132  22.181  50.126  55.391
29861DA     SC494133  22.080  50.350  55.255
29862DC     BB194134  21.736  50.403  54.774
29862DC     BB294135  21.802  50.056  54.705
29862DC     BB394136  21.674  49.936  54.815
29862DC     SC194137  21.807  49.982  55.036
29862DC     SC294138  21.909  49.802  55.097
29862DC     SC394139  21.862  50.066  55.280
29863DA     BB194140  21.611  49.801  54.421
29863DA     BB294141  21.670  49.505  54.629
29863DA     BB394142  21.497  49.460  54.744
29863DA     SC194143  21.583  49.633  54.988
29863DA     SC294144  21.660  49.598  55.222
29863DA     SC394145  21.589  49.841  55.261
29863DA     SC494146  21.532  49.786  54.992
29864DT     BB194147  21.372  49.278  54.716
29864DT     BB294148  21.496  49.103  55.006
29864DT     BB394149  21.349  49.092  55.150
29864DT     SC194150  21.380  49.345  55.213
29864DT     SC294151  21.468  49.360  55.408
29864DT     SC394152  21.327  49.602  55.245
29865DT     BB194153  21.315  48.825  55.105
29865DT     BB294154  21.409  48.849  55.452
29865DT     BB394155  21.241  48.876  55.570
29865DT     SC194156  21.219  49.127  55.494
29865DT     SC294157  21.264  49.256  55.659
29865DT     SC394158  21.119  49.345  55.384
29866DT     BB194159  21.288  48.631  55.655
29866DT     BB294160  21.305  48.841  55.948
29866DT     BB394161  21.114  48.873  56.023
29866DT     SC194162  21.058  49.041  55.829
29866DT     SC294163  21.044  49.240  55.910
29866DT     SC394164  20.941  49.145  55.617
29867DG     BB194165  21.395  48.734  56.285
29867DG     BB294166  21.232  49.034  56.402
29867DG     BB394167  21.044  48.994  56.454
29867DG     SC194168  20.929  49.049  56.175
29867DG     SC294169  20.746  49.273  56.102
29867DG     SC394170  20.773  49.081  55.878
29867DG     SC494171  20.923  48.929  56.069
29868DT     BB194172  21.045  49.054  56.621
29868DT     BB294173  20.831  49.344  56.606
29868DT     BB394174  20.633  49.287  56.625
29868DT     SC194175  20.629  49.194  56.379
29868DT     SC294176  20.504  49.320  56.258
29868DT     SC394177  20.609  49.024  56.179
29869DA     BB194178  20.752  49.624  56.857
29869DA     BB294179  20.426  49.691  56.702
29869DA     BB394180  20.279  49.556  56.778
29869DA     SC194181  20.327  49.341  56.558
29869DA     SC294182  20.205  49.249  56.361
29869DA     SC394183  20.363  49.048  56.383
29869DA     SC494184  20.434  49.225  56.589
29870DT     BB194185  20.153  49.644  56.872
29870DT     BB294186  19.871  49.592  56.653
29870DT     BB394187  19.765  49.425  56.713
29870DT     SC194188  19.949  49.264  56.617
29870DT     SC294189  19.871  49.161  56.444
29870DT     SC394190  20.139  49.082  56.608
29871DA     BB194191  19.448  49.706  56.724
29871DA     BB294192  19.312  49.406  56.562
29871DA     BB394193  19.269  49.257  56.708
29871DA     SC194194  19.550  49.124  56.691
29871DA     SC294195  19.649  48.911  56.607
29871DA     SC394196  19.847  48.966  56.761
29871DA     SC494197  19.663  49.176  56.794
29872DA     BB194198  18.929  49.216  56.638
29872DA     BB294199  18.990  48.865  56.551
29872DA     BB394200  18.983  48.744  56.726
29872DA     SC194201  19.288  48.770  56.785
29872DA     SC294202  19.490  48.624  56.779
29872DA     SC394203  19.595  48.797  56.936
29872DA     SC494204  19.335  48.888  56.883
29873DT     BB194205  18.814  48.565  56.812
29873DT     BB294206  19.020  48.279  56.737
29873DT     BB394207  19.073  48.182  56.912
29873DT     SC194208  19.246  48.369  56.973
29873DT     SC294209  19.445  48.290  56.956
29873DT     SC394210  19.362  48.566  57.104
29874DG     BB194211  18.861  47.871  56.738
29874DG     BB294212  19.192  47.759  56.833
29874DG     BB394213  19.192  47.701  57.023
29874DG     SC194214  19.262  47.978  57.133
29874DG     SC294215  19.517  48.053  57.269
29874DG     SC394216  19.319  48.271  57.289
29874DG     SC494217  19.144  48.080  57.167
29875DC     BB194218  19.234  47.471  57.115
29875DC     BB294219  19.572  47.514  57.232
29875DC     BB394220  19.576  47.510  57.439
29875DC     SC194221  19.475  47.752  57.454
29875DC     SC294222  19.624  47.888  57.527
29875DC     SC394223  19.306  47.947  57.508
29876DG     BB194224  19.820  47.202  57.329
29876DG     BB294225  19.991  47.429  57.552
29876DG     BB394226  19.942  47.389  57.741
29876DG     SC194227  19.702  47.578  57.744
29876DG     SC294228  19.678  47.828  57.906
29876DG     SC394229  19.420  47.761  57.776
29876DG     SC494230  19.559  47.523  57.698
29877DA     BB194231  20.281  47.373  57.807
29877DA     BB294232  20.249  47.651  58.044
29877DA     BB394233  20.169  47.582  58.229
29877DA     SC194234  19.873  47.633  58.148
29877DA     SC294235  19.689  47.789  58.210
29877DA     SC394236  19.533  47.614  58.107
29877DA     SC494237  19.792  47.511  58.081
29878DC     BB194238  20.288  47.591  58.391
29878DC     BB294239  20.127  47.876  58.543
29878DC     BB394240  20.013  47.815  58.704
29878DC     SC194241  19.828  47.716  58.546
29878DC     SC294242  19.650  47.837  58.560
29878DC     SC394243  19.670  47.541  58.429
29879DT     BB194244  20.194  47.931  58.867
29879DT     BB294245  19.882  48.094  58.945
29879DT     BB394246  19.780  47.984  59.088
29879DT     SC194247  19.712  47.802  58.912
29879DT     SC294248  19.500  47.813  58.875
29879DT     SC394249  19.695  47.569  58.790
29880DA     BB194250  19.803  48.390  59.191
29880DA     BB294251  19.455  48.281  59.223
29880DA     BB394252  19.433  48.151  59.391
29880DA     SC194253  19.485  47.892  59.228
29880DA     SC294254  19.356  47.693  59.150
29880DA     SC394255  19.585  47.580  59.125
29880DA     SC494256  19.637  47.838  59.221
29881DG     BB194257  19.240  48.384  59.442
29881DG     BB294258  18.996  48.118  59.416
29881DG     BB394259  18.999  48.008  59.581
29881DG     SC194260  19.211  47.813  59.478
29881DG     SC294261  19.169  47.524  59.416
29881DG     SC394262  19.457  47.594  59.404
29881DG     SC494263  19.366  47.847  59.502
29882DA     BB194264  18.659  48.067  59.557
29882DA     BB294265  18.603  47.704  59.551
29882DA     BB394266  18.644  47.620  59.743
29882DA     SC194267  18.943  47.562  59.680
29882DA     SC294268  19.089  47.363  59.643
29882DA     SC394269  19.283  47.520  59.700
29882DA     SC494270  19.050  47.675  59.720
29883DT     BB194271  18.492  47.546  59.830
29883DT     BB294272  18.578  47.198  59.789
29883DT     BB394273  18.660  47.125  59.964
29883DT     SC194274  18.886  47.250  59.921
29883DT     SC294275  19.040  47.107  59.876
29883DT     SC394276  19.087  47.418  59.954
29884DA     BB194277  18.351  46.863  59.850
29884DA     BB294278  18.648  46.662  59.926
29884DA     BB394279  18.684  46.658  60.136
29884DA     SC194280  18.868  46.909  60.135
29884DA     SC294281  19.110  46.960  60.169
29884DA     SC394282  19.032  47.200  60.213
29884DA     SC494283  18.800  47.052  60.161
29885DA     BB194284  18.679  46.335  60.079
29885DA     BB294285  19.026  46.330  60.199
29885DA     BB394286  19.031  46.349  60.411
29885DA     SC194287  19.049  46.660  60.407
29885DA     SC294288  19.219  46.835  60.460
29885DA     SC394289  19.018  46.994  60.477
29885DA     SC494290  18.912  46.742  60.415
29886DT     BB194291  19.099  46.195  60.507
29886DT     BB294292  19.419  46.336  60.592
29886DT     BB394293  19.420  46.396  60.790
29886DT     SC194294  19.272  46.606  60.735
29886DT     SC294295  19.391  46.784  60.758
29886DT     SC394296  19.068  46.772  60.735
29887DC     BB194297  19.585  46.195  60.821
29887DC     BB294298  19.765  46.486  60.935
29887DC     BB394299  19.711  46.532  61.129
29887DC     SC194300  19.480  46.629  61.049
29887DC     SC294301  19.478  46.842  61.077
29887DC     SC394302  19.219  46.656  61.020
29888DA     BB194303  20.128  46.528  61.074
29888DA     BB294304  20.036  46.833  61.254
29888DA     BB394305  19.966  46.786  61.450
29888DA     SC194306  19.668  46.760  61.364
29888DA     SC294307  19.455  46.885  61.398
29888DA     SC394308  19.340  46.666  61.332
29888DA     SC494309  19.615  46.614  61.322
29889DT     BB194310  20.078  46.854  61.574
29889DT     BB294311  19.861  47.114  61.698
29889DT     BB394312  19.761  47.048  61.867
29889DT     SC194313  19.602  46.897  61.725
29889DT     SC294314  19.403  46.978  61.730
29889DT     SC394315  19.484  46.681  61.630
29890DT     BB194316  19.916  47.214  62.009
29890DT     BB294317  19.578  47.304  62.101
29890DT     BB394318  19.509  47.176  62.248
29890DT     SC194319  19.477  46.981  62.075
29890DT     SC294320  19.266  46.944  62.047
29890DT     SC394321  19.508  46.748  61.955
29891DT     BB194322  19.532  47.358  62.467
29891DT     BB294323  19.189  47.248  62.488
29891DT     BB394324  19.175  47.083  62.612
29891DT     SC194325  19.279  46.927  62.428
29891DT     SC294326  19.128  46.793  62.355
29891DT     SC394327  19.447  46.763  62.308
29892DA     BB194328  18.900  47.338  62.807
29892DA     BB294329  18.732  47.015  62.763
29892DA     BB394330  18.799  46.876  62.911
29892DA     SC194331  19.031  46.765  62.736
29892DA     SC294332  19.087  46.554  62.616
29892DA     SC394333  19.330  46.638  62.624
29892DA     SC494334  19.175  46.834  62.752
29893DT     BB194335  18.674  46.786  63.089
29893DT     BB294336  18.626  46.462  62.939
29893DT     BB394337  18.730  46.318  63.046
29893DT     SC194338  18.959  46.399  62.946
29893DT     SC294339  19.036  46.249  62.812
29893DT     SC394340  19.203  46.499  62.934
29894DA     BB194341  18.337  46.175  63.028
29894DA     BB294342  18.559  45.907  62.911
29894DA     BB394343  18.657  45.814  63.076
29894DA     SC194344  18.903  46.005  63.068
29894DA     SC294345  19.145  45.991  63.009
29894DA     SC394346  19.170  46.205  63.148
29894DA     SC494347  18.898  46.137  63.159
29895DC     BB194348  18.612  45.625  63.110
29895DC     BB294349  18.917  45.488  62.975
29895DC     BB394350  19.041  45.426  63.129
29895DC     SC194351  19.105  45.674  63.188
29895DC     SC294352  19.310  45.709  63.135
29895DC     SC394353  19.127  45.899  63.324
29896DA     BB194354  18.995  45.134  62.832
29896DA     BB294355  19.353  45.177  62.901
29896DA     BB394356  19.401  45.099  63.093
29896DA     SC194357  19.353  45.369  63.241
29896DA     SC294358  19.489  45.542  63.357
29896DA     SC394359  19.269  45.611  63.469
29896DA     SC494360  19.206  45.395  63.301
29897DG     BB194361  19.579  44.949  62.895
29897DG     BB294362  19.839  45.113  63.085
29897DG     BB394363  19.860  45.025  63.262
29897DG     SC194364  19.655  45.203  63.402
29897DG     SC294365  19.713  45.402  63.617
29897DG     SC394366  19.422  45.367  63.583
29897DG     SC494367  19.501  45.160  63.402
29898DT     BB194368  20.043  44.949  63.291
29898DT     BB294369  20.184  45.171  63.539
29898DT     BB394370  20.158  45.090  63.728
29898DT     SC194371  19.903  45.151  63.728
29898DT     SC294372  19.867  45.309  63.870
29898DT     SC394373  19.641  45.122  63.732
29899DA     BB194374  20.564  45.196  63.686
29899DA     BB294375  20.448  45.317  64.012
29899DA     BB394376  20.418  45.153  64.145
29899DA     SC194377  20.119  45.114  64.068
29899DA     SC294378  19.895  45.148  64.173
29899DA     SC394379  19.810  44.984  63.994
29899DA     SC494380  20.086  45.010  63.950
29900DC     BB194381  20.541  45.121  64.315
29900DC     BB294382  20.300  45.215  64.567
29900DC     BB394383  20.229  45.046  64.663
29900DC     SC194384  20.081  44.980  64.457
29900DC     SC294385  19.873  45.006  64.507
29900DC     SC394386  19.988  44.844  64.251
29901DA     BB194387  20.369  45.261  65.000
29901DA     BB294388  20.031  45.146  65.083
29901DA     BB394389  20.034  44.940  65.140
29901DA     SC194390  19.986  44.834  64.852
29901DA     SC294391  19.804  44.721  64.725
29901DA     SC394392  19.989  44.651  64.561
29901DA     SC494393  20.115  44.800  64.763
29902DA     BB194394  19.890  45.013  65.437
29902DA     BB294395  19.604  44.807  65.337
29902DA     BB394396  19.642  44.601  65.378
29902DA     SC194397  19.765  44.545  65.097
29902DA     SC294398  19.704  44.418  64.891
29902DA     SC394399  19.955  44.427  64.836
29902DA     SC494400  19.924  44.560  65.081
29903DA     BB194401  19.363  44.599  65.558
29903DA     BB294402  19.227  44.355  65.320
29903DA     BB394403  19.299  44.160  65.365
29903DA     SC194404  19.549  44.182  65.182
29903DA     SC294405  19.631  44.083  64.968
29903DA     SC394406  19.864  44.157  65.046
29903DA     SC494407  19.686  44.235  65.249
29904DA     BB194408  18.979  44.079  65.373
29904DA     BB294409  19.046  43.853  65.092
29904DA     BB394410  19.135  43.672  65.161
29904DA     SC194411  19.427  43.776  65.131
29904DA     SC294412  19.624  43.732  64.985
29904DA     SC394413  19.761  43.841  65.172
29904DA     SC494414  19.495  43.846  65.259
29905DC     BB194415  19.031  43.493  65.146
29905DC     BB294416  19.221  43.359  64.869
29905DC     BB394417  19.345  43.207  64.935
29905DC     SC194418  19.509  43.379  65.046
29905DC     SC294419  19.694  43.382  64.936
29905DC     SC394420  19.647  43.507  65.231
29906DA     BB194421  19.127  43.054  64.612
29906DA     BB294422  19.480  42.977  64.555
29906DA     BB394423  19.544  42.819  64.683
29906DA     SC194424  19.635  43.009  64.912
29906DA     SC294425  19.849  43.083  65.017
29906DA     SC394426  19.704  43.152  65.217
29906DA     SC494427  19.528  43.044  65.027
29907DT     BB194428  19.598  42.637  64.602
29907DT     BB294429  19.954  42.674  64.646
29907DT     BB394430  20.019  42.553  64.801
29907DT     SC194431  19.916  42.715  64.981
29907DT     SC294432  20.076  42.812  65.088
29907DT     SC394433  19.764  42.804  65.177
29908DT     BB194434  20.140  42.376  64.627
29908DT     BB294435  20.406  42.481  64.847
29908DT     BB394436  20.414  42.357  65.012
29908DT     SC194437  20.200  42.468  65.116
29908DT     SC294438  20.256  42.581  65.291
29908DT     SC394439  19.954  42.494  65.208
29909DA     BB194440  20.799  42.373  64.849
29909DA     BB294441  20.827  42.440  65.208
29909DA     BB394442  20.800  42.260  65.320
29909DA     SC194443  20.492  42.295  65.349
29909DA     SC294444  20.329  42.346  65.530
29909DA     SC394445  20.154  42.243  65.373
29909DA     SC494446  20.399  42.227  65.238
29910DA     BB194447  21.083  42.368  65.438
29910DA     BB294448  20.916  42.386  65.764
29910DA     BB394449  20.889  42.190  65.844
29910DA     SC194450  20.609  42.148  65.716
29910DA     SC294451  20.372  42.132  65.792
29910DA     SC394452  20.330  42.016  65.567
29910DA     SC494453  20.603  42.077  65.572
29911DT     BB194454  20.987  42.162  66.003
29911DT     BB294455  20.708  42.173  66.231
29911DT     BB394456  20.653  41.980  66.285
29911DT     SC194457  20.541  41.939  66.051
29911DT     SC294458  20.328  41.927  66.075
29911DT     SC394459  20.495  41.834  65.813
29912DT     BB194460  20.753  42.033  66.527
29912DT     BB294461  20.411  41.935  66.588
29912DT     BB394462  20.397  41.729  66.598
29912DT     SC194463  20.423  41.706  66.338
29912DT     SC294464  20.237  41.641  66.253
29912DT     SC394465  20.524  41.640  66.104
29913DA     BB194466  20.213  41.880  66.944
29913DA     BB294467  19.987  41.632  66.796
29913DA     BB394468  20.062  41.435  66.827
29913DA     SC194469  20.225  41.428  66.562
29913DA     SC294470  20.215  41.311  66.343
29913DA     SC394471  20.462  41.373  66.321
29913DA     SC494472  20.378  41.475  66.568
29914DA     BB194473  19.765  41.378  66.961
29914DA     BB294474  19.713  41.127  66.699
29914DA     BB394475  19.820  40.948  66.746
29914DA     SC194476  20.079  41.034  66.596
29914DA     SC294477  20.203  40.968  66.390
29914DA     SC394478  20.404  41.085  66.499
29914DA     SC494479  20.192  41.110  66.681
29915DT     BB194480  19.719  40.766  66.792
29915DT     BB294481  19.784  40.604  66.477
29915DT     BB394482  19.923  40.453  66.502
29915DT     SC194483  20.119  40.627  66.523
29915DT     SC294484  20.245  40.615  66.350
29915DT     SC394485  20.318  40.764  66.628
29916DC     BB194486  19.730  40.265  66.466
29916DC     BB294487  19.971  40.199  66.207
29916DC     BB394488  20.118  40.071  66.279
29916DC     SC194489  20.228  40.264  66.418
29916DC     SC294490  20.419  40.316  66.332
29916DC     SC394491  20.314  40.403  66.626
29917DA     BB194492  19.962  39.948  65.911
29917DA     BB294493  20.328  39.951  65.888
29917DA     BB394494  20.411  39.793  66.005
29917DA     SC194495  20.438  39.965  66.262
29917DA     SC294496  20.621  40.065  66.399
29917DA     SC394497  20.446  40.077  66.587
29917DA     SC494498  20.315  39.963  66.367
29918DA     BB194499  20.534  39.803  65.703
29918DA     BB294500  20.857  39.840  65.871
29918DA     BB394501  20.904  39.664  65.982
29918DA     SC194502  20.770  39.764  66.244
29918DA     SC294503  20.841  39.838  66.471
29918DA     SC394504  20.600  39.786  66.541
29918DA     SC494505  20.616  39.725  66.268
29919DG     BB194506  21.127  39.744  65.784
29919DG     BB294507  21.316  39.759  66.092
29919DG     BB394508  21.336  39.576  66.168
29919DG     SC194509  21.079  39.589  66.333
29919DG     SC294510  21.062  39.593  66.631
29919DG     SC394511  20.793  39.561  66.511
29919DG     SC494512  20.941  39.543  66.266
29920DT     BB194513  21.518  39.549  66.183
29920DT     BB294514  21.577  39.526  66.538
29920DT     BB394515  21.545  39.332  66.603
29920DT     SC194516  21.285  39.361  66.585
29920DT     SC294517  21.199  39.362  66.782
29920DT     SC394518  21.036  39.325  66.505
29921DT     BB194519  21.813  39.291  66.628
29921DT     BB294520  21.680  39.180  66.945
29921DT     BB394521  21.619  38.982  66.931
29921DT     SC194522  21.406  39.049  66.793
29921DT     SC294523  21.231  39.017  66.914
29921DT     SC394524  21.234  39.066  66.594
29922DA     BB194525  21.891  38.927  67.253
29922DA     BB294526  21.587  38.744  67.345
29922DA     BB394527  21.580  38.556  67.243
29922DA     SC194528  21.424  38.668  66.998
29922DA     SC294529  21.196  38.647  66.899
29922DA     SC394530  21.305  38.731  66.682
29922DA     SC494531  21.511  38.719  66.873
29923DT     BB194532  21.607  38.315  67.324
29923DT     BB294533  21.258  38.226  67.298
29923DT     BB394534  21.233  38.082  67.152
29923DT     SC194535  21.266  38.259  66.961
29923DT     SC294536  21.079  38.290  66.859
29923DT     SC394537  21.371  38.383  66.753
29924DT     BB194538  21.195  37.835  67.314
29924DT     BB294539  20.898  37.844  67.108
29924DT     BB394540  20.925  37.726  66.940
29924DT     SC194541  21.082  37.905  66.830
29924DT     SC294542  20.982  37.994  66.662
29924DT     SC394543  21.299  38.016  66.728
29925DG     BB194544  20.603  37.545  67.119
29925DG     BB294545  20.527  37.633  66.776
29925DG     BB394546  20.596  37.492  66.653
29925DG     SC194547  20.870  37.623  66.618
29925DG     SC294548  20.977  37.742  66.366
29925DG     SC394549  21.188  37.727  66.573
29925DG     SC494550  20.987  37.586  66.721
29926DT     BB194551  20.459  37.368  66.520
29926DT     BB294552  20.517  37.525  66.200
29926DT     BB394553  20.633  37.402  66.081
29926DT     SC194554  20.849  37.459  66.219
29926DT     SC294555  20.982  37.578  66.098
29926DT     SC394556  21.060  37.428  66.374
29927DT     BB194557  20.416  37.354  65.927
29927DT     BB294558  20.661  37.491  65.700
29927DT     BB394559  20.782  37.340  65.627
29927DT     SC194560  20.911  37.324  65.855
29927DT     SC294561  21.112  37.397  65.829
29927DT     SC394562  21.004  37.225  66.081
29928DT     BB194563  20.660  37.370  65.390
29928DT     BB294564  21.010  37.423  65.321
29928DT     BB394565  21.104  37.241  65.288
29928DT     SC194566  21.099  37.183  65.544
29928DT     SC294567  21.299  37.188  65.622
29928DT     SC394568  21.041  37.058  65.769
29929DA     BB194569  21.198  37.496  64.969
29929DA     BB294570  21.510  37.345  65.090
29929DA     BB394571  21.520  37.140  65.033
29929DA     SC194572  21.383  37.036  65.292
29929DA     SC294573  21.448  36.907  65.496
29929DA     SC394574  21.197  36.860  65.521
29929DA     SC494575  21.224  37.017  65.290
29930DT     BB194576  21.662  37.085  64.901
29930DT     BB294577  21.877  36.917  65.136
29930DT     BB394578  21.859  36.712  65.114
29930DT     SC194579  21.625  36.712  65.234
29930DT     SC294580  21.642  36.616  65.425
29930DT     SC394581  21.365  36.684  65.271
29931DA     BB194582  22.269  36.793  65.091
29931DA     BB294583  22.225  36.517  65.329
29931DA     BB394584  22.180  36.336  65.225
29931DA     SC194585  21.872  36.378  65.234
29931DA     SC294586  21.675  36.275  65.347
29931DA     SC394587  21.536  36.385  65.162
29931DA     SC494588  21.803  36.453  65.109
29932DC     BB194589  22.316  36.180  65.226
29932DC     BB294590  22.134  35.965  65.451
29932DC     BB394591  22.050  35.808  65.345
29932DC     SC194592  21.864  35.965  65.246
29932DC     SC294593  21.674  35.913  65.332
29932DC     SC394594  21.720  36.099  65.070
29933DA     BB194595  22.268  35.617  65.650
29933DA     BB294596  21.933  35.469  65.648
29933DA     BB394597  21.912  35.335  65.484
29933DA     SC194598  21.804  35.551  65.288
29933DA     SC294599  21.589  35.607  65.175
29933DA     SC394600  21.734  35.742  65.011
29933DA     SC494601  21.912  35.628  65.196
29934DT     BB194602  21.891  35.112  65.503
29934DT     BB294603  21.539  35.098  65.426
29934DT     BB394604  21.511  35.010  65.241
29934DT     SC194605  21.593  35.226  65.116
29934DT     SC294606  21.427  35.318  65.016
29934DT     SC394607  21.740  35.385  64.966
29935DA     BB194608  21.267  34.780  65.494
29935DA     BB294609  21.061  34.881  65.208
29935DA     BB394610  21.108  34.762  65.037
29935DA     SC194611  21.328  34.955  64.932
29935DA     SC294612  21.360  35.112  64.741
29935DA     SC394613  21.610  35.090  64.791
29935DA     SC494614  21.479  34.927  64.978
29936DC     BB194615  20.965  34.623  64.951
29936DC     BB294616  20.878  34.832  64.670
29936DC     BB394617  20.953  34.750  64.495
29936DC     SC194618  21.197  34.825  64.556
29936DC     SC294619  21.259  34.981  64.421
29936DC     SC394620  21.454  34.810  64.616
29937DA     BB194621  20.549  34.837  64.452
29937DA     BB294622  20.730  34.990  64.172
29937DA     BB394623  20.793  34.840  64.034
29937DA     SC194624  21.068  34.793  64.172
29937DA     SC294625  21.309  34.836  64.122
29937DA     SC394626  21.356  34.656  64.299
29937DA     SC494627  21.077  34.678  64.283
29938DT     BB194628  20.711  34.880  63.890
29938DT     BB294629  20.998  35.012  63.715
29938DT     BB394630  21.082  34.865  63.595
29938DT     SC194631  21.186  34.744  63.804
29938DT     SC294632  21.400  34.766  63.799
29938DT     SC394633  21.234  34.558  63.984
29939DG     BB194634  21.000  35.239  63.445
29939DG     BB294635  21.338  35.130  63.377
29939DG     BB394636  21.336  34.978  63.250
29939DG     SC194637  21.318  34.763  63.467
29939DG     SC294638  21.529  34.563  63.533
29939DG     SC394639  21.278  34.503  63.678
29939DG     SC494640  21.174  34.718  63.520
29940DC     BB194641  21.443  35.049  63.133
29940DC     BB294642  21.733  34.833  63.140
29940DC     BB394643  21.697  34.662  63.029
29940DC     SC194644  21.541  34.564  63.217
29940DC     SC294645  21.638  34.396  63.309
29940DC     SC394646  21.325  34.474  63.338
29941DT     BB194647  21.876  34.780  62.888
29941DT     BB294648  21.996  34.444  62.941
29941DT     BB394649  21.892  34.312  62.820
29941DT     SC194650  21.680  34.327  62.973
29941DT     SC294651  21.653  34.140  63.075
29941DT     SC394652  21.433  34.376  63.050
29942DT     BB194653  22.111  34.288  62.664
29942DT     BB294654  22.020  33.948  62.743
29942DT     BB394655  21.875  33.881  62.611
29942DT     SC194656  21.690  34.024  62.731
29942DT     SC294657  21.553  33.893  62.832
29942DT     SC394658  21.503  34.207  62.769
29943DA     BB194659  22.172  33.584  62.572
29943DA     BB294660  21.850  33.411  62.608
29943DA     BB394661  21.738  33.424  62.427
29943DA     SC194662  21.592  33.687  62.507
29943DA     SC294663  21.362  33.758  62.569
29943DA     SC394664  21.440  33.995  62.507
29943DA     SC494665  21.660  33.826  62.462
29944DT     BB194666  21.690  33.253  62.283
29944DT     BB294667  21.340  33.222  62.368
29944DT     BB394668  21.223  33.288  62.210
29944DT     SC194669  21.279  33.539  62.264
29944DT     SC294670  21.102  33.636  62.339
29944DT     SC394671  21.371  33.784  62.235
29945DA     BB194672  21.071  32.900  62.275
29945DA     BB294673  20.784  33.128  62.261
29945DA     BB394674  20.742  33.182  62.059
29945DA     SC194675  20.925  33.433  62.063
29945DA     SC294676  20.899  33.681  62.059
29945DA     SC394677  21.143  33.686  61.981
29945DA     SC494678  21.077  33.415  62.014
29946DG     BB194679  20.454  33.048  62.082
29946DG     BB294680  20.337  33.388  62.040
29946DG     BB394681  20.320  33.430  61.846
29946DG     SC194682  20.607  33.533  61.820
29946DG     SC294683  20.688  33.815  61.763
29946DG     SC394684  20.921  33.635  61.750
29946DG     SC494685  20.724  33.430  61.784
29947DT     BB194686  20.118  33.482  61.733
29947DT     BB294687  20.154  33.839  61.696
29947DT     BB394688  20.194  33.886  61.499
29947DT     SC194689  20.441  33.802  61.521
29947DT     SC294690  20.576  33.970  61.512
29947DT     SC394691  20.659  33.658  61.482
29948DA     BB194692  19.861  34.123  61.598
29948DA     BB294693  20.113  34.343  61.448
29948DA     BB394694  20.119  34.316  61.237
29948DA     SC194695  20.337  34.094  61.247
29948DA     SC294696  20.577  34.068  61.184
29948DA     SC394697  20.530  33.816  61.189
29948DA     SC494698  20.287  33.941  61.254
29949DG     BB194699  20.036  34.618  61.211
29949DG     BB294700  20.367  34.650  61.069
29949DG     BB394701  20.362  34.609  60.874
29949DG     SC194702  20.415  34.309  60.911
29949DG     SC294703  20.660  34.163  60.825
29949DG     SC394704  20.451  33.974  60.916
29949DG     SC494705  20.291  34.211  60.933
29950DA     BB194706  20.519  34.913  60.827
29950DA     BB294707  20.808  34.739  60.682
29950DA     BB394708  20.766  34.682  60.480
29950DA     SC194709  20.652  34.403  60.558
29950DA     SC294710  20.719  34.163  60.535
29950DA     SC394711  20.470  34.112  60.573
29950DA     SC494712  20.494  34.391  60.582
29951DT     BB194713  20.876  34.768  60.346
29951DT     BB294714  21.088  34.484  60.279
29951DT     BB394715  21.034  34.396  60.100
29951DT     SC194716  20.820  34.289  60.209
29951DT     SC294717  20.845  34.076  60.222
29951DT     SC394718  20.566  34.237  60.257
29952DT     BB194719  21.265  34.490  60.018
29952DT     BB294720  21.284  34.133  59.968
29952DT     BB394721  21.191  34.082  59.790
29952DT     SC194722  20.953  34.117  59.896
29952DT     SC294723  20.855  33.927  59.917
29952DT     SC394724  20.713  34.217  59.938
29953DC     BB194725  21.436  34.029  59.711
29953DC     BB294726  21.252  33.722  59.665
29953DC     BB394727  21.146  33.729  59.488
29953DC     SC194728  20.969  33.892  59.591
29953DC     SC294729  20.781  33.789  59.613
29953DC     SC394730  20.825  34.109  59.630
29954DA     BB194731  21.367  33.371  59.501
29954DA     BB294732  21.024  33.290  59.401
29954DA     BB394733  20.986  33.359  59.203
29954DA     SC194734  20.881  33.637  59.293
29954DA     SC294735  20.664  33.760  59.298
29954DA     SC394736  20.808  33.972  59.316
29954DA     SC494737  20.988  33.757  59.302
29955DT     BB194738  20.955  33.222  59.052
29955DT     BB294739  20.600  33.276  59.017
29955DT     BB394740  20.561  33.386  58.845
29955DT     SC194741  20.647  33.607  58.957
29955DT     SC294742  20.481  33.739  58.990
29955DT     SC394743  20.794  33.821  59.004
29956DA     BB194744  20.318  33.045  58.814
29956DA     BB294745  20.108  33.338  58.748
29956DA     BB394746  20.148  33.417  58.554
29956DA     SC194747  20.369  33.612  58.653
29956DA     SC294748  20.400  33.858  58.679
29956DA     SC394749  20.651  33.806  58.681
29956DA     SC494750  20.521  33.560  58.650
29957DA     BB194751  19.824  33.381  58.518
29957DA     BB294752  19.807  33.744  58.475
29957DA     BB394753  19.871  33.799  58.279
29957DA     SC194754  20.169  33.835  58.360
29957DA     SC294755  20.332  34.022  58.386
29957DA     SC394756  20.513  33.840  58.366
29957DA     SC494757  20.267  33.708  58.344
29958DC     BB194758  19.735  33.878  58.167
29958DC     BB294759  19.854  34.218  58.191
29958DC     BB394760  19.953  34.270  58.017
29958DC     SC194761  20.162  34.126  58.083
29958DC     SC294762  20.327  34.256  58.129
29958DC     SC394763  20.346  33.937  58.075
29959DG     BB194764  19.653  34.528  58.111
29959DG     BB294765  19.968  34.698  58.059
29959DG     BB394766  20.011  34.704  57.865
29959DG     SC194767  20.163  34.438  57.865
29959DG     SC294768  20.456  34.404  57.817
29959DG     SC394769  20.318  34.142  57.825
29959DG     SC494770  20.082  34.303  57.840
29960DT     BB194771  20.030  34.886  57.812
29960DT     BB294772  20.385  34.918  57.756
29960DT     BB394773  20.429  34.881  57.557
29960DT     SC194774  20.394  34.623  57.590
29960DT     SC294775  20.583  34.522  57.574
29960DT     SC394776  20.292  34.381  57.563
29961DA     BB194777  20.610  35.240  57.677
29961DA     BB294778  20.858  35.043  57.492
29961DA     BB394779  20.808  35.038  57.285
29961DA     SC194780  20.637  34.779  57.307
29961DA     SC294781  20.652  34.541  57.234
29961DA     SC394782  20.398  34.536  57.267
29961DA     SC494783  20.479  34.797  57.332
29962DA     BB194784  21.118  35.146  57.259
29962DA     BB294785  21.186  34.848  57.055
29962DA     BB394786  21.101  34.870  56.861
29962DA     SC194787  20.829  34.741  56.938
29962DA     SC294788  20.703  34.531  56.889
29962DA     SC394789  20.496  34.662  56.965
29962DA     SC494790  20.711  34.840  56.987
29963DT     BB194791  21.224  34.886  56.697
29963DT     BB294792  21.162  34.558  56.561
29963DT     BB394793  21.041  34.572  56.394
29963DT     SC194794  20.829  34.619  56.543
29963DT     SC294795  20.697  34.450  56.534
29963DT     SC394796  20.622  34.745  56.646
29964DA     BB194797  21.374  34.347  56.278
29964DA     BB294798  21.074  34.168  56.166
29964DA     BB394799  20.988  34.265  55.997
29964DA     SC194800  20.801  34.447  56.166
29964DA     SC294801  20.557  34.469  56.212
29964DA     SC394802  20.613  34.708  56.288
29964DA     SC494803  20.856  34.592  56.208
29965DT     BB194804  20.991  34.167  55.827
29965DT     BB294805  20.640  34.085  55.813
29965DT     BB394806  20.545  34.209  55.677
29965DT     SC194807  20.555  34.412  55.843
29965DT     SC294808  20.356  34.458  55.912
29965DT     SC394809  20.617  34.649  55.942
29966DT     BB194810  20.522  33.996  55.517
29966DT     BB294811  20.184  34.117  55.555
29966DT     BB394812  20.147  34.268  55.419
29966DT     SC194813  20.290  34.439  55.557
29966DT     SC294814  20.160  34.586  55.645
29966DT     SC394815  20.483  34.607  55.620
29967DT     BB194816  19.989  34.101  55.271
29967DT     BB294817  19.778  34.388  55.332
29967DT     BB394818  19.811  34.532  55.186
29967DT     SC194819  20.041  34.600  55.293
29967DT     SC294820  20.024  34.796  55.378
29967DT     SC394821  20.300  34.637  55.320
29968DA     BB194822  19.392  34.483  55.148
29968DA     BB294823  19.454  34.844  55.149
29968DA     BB394824  19.529  34.907  54.960
29968DA     SC194825  19.828  34.867  55.037
29968DA     SC294826  20.028  35.009  55.081
29968DA     SC394827  20.164  34.797  55.035
29968DA     SC494828  19.895  34.725  55.003
29969DC     BB194829  19.427  35.047  54.756
29969DC     BB294830  19.622  35.346  54.811
29969DC     BB394831  19.750  35.378  54.651
29969DC     SC194832  19.909  35.184  54.730
29969DC     SC294833  20.094  35.269  54.800
29969DC     SC394834  20.041  34.957  54.731
29970DA     BB194835  19.561  35.764  54.563
29970DA     BB294836  19.920  35.834  54.577
29970DA     BB394837  20.010  35.801  54.386
29970DA     SC194838  20.078  35.503  54.444
29970DA     SC294839  20.282  35.364  54.484
29970DA     SC394840  20.134  35.165  54.420
29970DA     SC494841  19.971  35.392  54.400
29971DT     BB194842  20.131  35.964  54.177
29971DT     BB294843  20.467  35.883  54.281
29971DT     BB394844  20.569  35.793  54.125
29971DT     SC194845  20.438  35.568  54.159
29971DT     SC294846  20.572  35.418  54.236
29971DT     SC394847  20.278  35.364  54.109
29972DT     BB194848  20.744  36.014  54.054
29972DT     BB294849  20.970  35.750  54.152
29972DT     BB394850  21.034  35.647  53.985
29972DT     SC194851  20.803  35.525  53.961
29972DT     SC294852  20.827  35.317  54.009
29972DT     SC394853  20.571  35.450  53.860
29973DT     BB194854  21.274  35.757  54.028
29973DT     BB294855  21.327  35.401  54.055
29973DT     BB394856  21.364  35.321  53.868
29973DT     SC194857  21.112  35.342  53.800
29973DT     SC294858  21.026  35.145  53.786
29973DT     SC394859  20.895  35.419  53.671
29974DG     BB194860  21.640  35.235  54.155
29974DG     BB294861  21.514  34.938  53.992
29974DG     BB394862  21.590  34.924  53.809
29974DG     SC194863  21.364  35.083  53.677
29974DG     SC294864  21.163  34.975  53.484
29974DG     SC394865  21.143  35.270  53.503
29974DG     SC494866  21.376  35.242  53.667
29975DG     BB194867  21.667  34.639  53.937
29975DG     BB294868  21.473  34.498  53.666
29975DG     BB394869  21.575  34.513  53.496
29975DG     SC194870  21.462  34.789  53.424
29975DG     SC294871  21.280  34.849  53.195
29975DG     SC394872  21.373  35.098  53.324
29975DG     SC494873  21.537  34.920  53.477
29976DG     BB194874  21.535  34.190  53.480
29976DG     BB294875  21.368  34.249  53.165
29976DG     BB394876  21.502  34.283  53.022
29976DG     SC194877  21.510  34.586  53.066
29976DG     SC294878  21.414  34.794  52.874
29976DG     SC394879  21.559  34.918  53.101
29976DG     SC494880  21.613  34.646  53.173
29977DC     BB194881  21.532  34.145  52.842
29977DC     BB294882  21.398  34.340  52.570
29977DC     BB394883  21.552  34.420  52.457
29977DC     SC194884  21.605  34.599  52.642
29977DC     SC294885  21.550  34.794  52.570
29977DC     SC394886  21.735  34.732  52.828
29978DT     BB194887  21.538  34.241  52.231
29978DT     BB294888  21.521  34.566  52.076
29978DT     BB394889  21.711  34.629  52.023
29978DT     SC194890  21.772  34.682  52.272
29978DT     SC294891  21.789  34.895  52.298
29978DT     SC394892  21.893  34.670  52.506
29979DT     BB194893  21.715  34.582  51.726
29979DT     BB294894  21.805  34.930  51.751
29979DT     BB394895  22.011  34.950  51.745
29979DT     SC194896  22.035  34.861  51.991
29979DT     SC294897  22.097  35.023  52.119
29979DT     SC394898  22.103  34.708  52.194
29980DT     BB194899  22.054  35.049  51.468
29980DT     BB294900  22.208  35.304  51.672
29980DT     BB394901  22.411  35.270  51.686
29980DT     SC194902  22.374  35.071  51.853
29980DT     SC294903  22.444  35.127  52.048
29980DT     SC394904  22.374  34.826  51.951
29981DT     BB194905  22.490  35.482  51.514
29981DT     BB294906  22.652  35.557  51.827
29981DT     BB394907  22.843  35.476  51.829
29981DT     SC194908  22.748  35.234  51.865
29981DT     SC294909  22.798  35.167  52.063
29981DT     SC394910  22.693  34.980  51.819
29982DA     BB194911  22.857  35.879  51.936
29982DA     BB294912  23.035  35.686  52.192
29982DA     BB394913  23.223  35.619  52.117
29982DA     SC194914  23.111  35.349  52.009
29982DA     SC294915  23.128  35.107  52.064
29982DA     SC394916  23.048  35.067  51.824
29982DA     SC494917  23.061  35.346  51.856
29983DC     BB194918  23.350  35.694  52.216
29983DC     BB294919  23.439  35.400  52.404
29983DC     BB394920  23.605  35.310  52.321
29983DC     SC194921  23.464  35.216  52.121
29983DC     SC294922  23.449  35.002  52.139
29983DC     SC394923  23.378  35.176  51.875
29984DC     BB194924  23.700  35.393  52.546
29984DC     BB294925  23.754  35.036  52.541
29984DC     BB394926  23.918  34.991  52.423
29984DC     SC194927  23.783  35.037  52.203
29984DC     SC294928  23.750  34.851  52.100
29984DC     SC394929  23.709  35.147  51.975
29985DT     BB194930  24.008  34.928  52.657
29985DT     BB294931  24.047  34.632  52.454
29985DT     BB394932  24.212  34.651  52.331
29985DT     SC194933  24.086  34.819  52.174
29985DT     SC294934  24.048  34.725  51.984
29985DT     SC394935  24.025  35.042  52.046
29986DG     BB194936  24.246  34.311  52.554
29986DG     BB294937  24.311  34.248  52.203
29986DG     BB394938  24.490  34.318  52.154
29986DG     SC194939  24.389  34.596  52.078
29986DG     SC294940  24.388  34.714  51.803
29986DG     SC394941  24.316  34.917  52.005
29986DG     SC494942  24.380  34.709  52.191
29987DA     BB194943  24.574  34.004  52.018
29987DA     BB294944  24.647  34.157  51.693
29987DA     BB394945  24.835  34.257  51.699
29987DA     SC194946  24.715  34.530  51.788
29987DA     SC294947  24.680  34.757  51.690
29987DA     SC394948  24.660  34.836  51.933
29987DA     SC494949  24.707  34.560  51.946
29988DT     BB194950  25.030  34.195  51.592
29988DT     BB294951  25.030  34.457  51.343
29988DT     BB394952  25.184  34.590  51.382
29988DT     SC194953  25.052  34.696  51.583
29988DT     SC294954  24.990  34.895  51.531
29988DT     SC394955  24.990  34.768  51.829
29989DT     BB194956  25.385  34.511  51.179
29989DT     BB294957  25.342  34.864  51.116
29989DT     BB394958  25.487  34.972  51.217
29989DT     SC194959  25.366  34.935  51.447
29989DT     SC294960  25.285  35.121  51.515
29989DT     SC394961  25.323  34.853  51.694
29990DT     BB194962  25.671  35.043  50.996
29990DT     BB294963  25.583  35.363  51.137
29990DT     BB394964  25.726  35.422  51.273
29990DT     SC194965  25.639  35.249  51.451
29990DT     SC294966  25.546  35.355  51.614
29990DT     SC394967  25.634  35.044  51.616
29991DA     BB194968  25.719  35.751  51.013
29991DA     BB294969  25.678  35.883  51.353
29991DA     BB394970  25.867  35.892  51.452
29991DA     SC194971  25.844  35.606  51.573
29991DA     SC294972  25.813  35.503  51.797
29991DA     SC394973  25.910  35.290  51.691
29991DA     SC494974  25.908  35.485  51.488
29992DC     BB194975  25.955  36.080  51.507
29992DC     BB294976  25.874  36.057  51.857
29992DC     BB394977  26.046  36.024  51.968
29992DC     SC194978  26.058  35.774  51.890
29992DC     SC294979  26.014  35.645  52.057
29992DC     SC394980  26.146  35.553  51.776
29993DA     BB194981  25.844  36.350  52.134
29993DA     BB294982  25.919  36.114  52.404
29993DA     BB394983  26.127  36.121  52.453
29993DA     SC194984  26.207  35.898  52.252
29993DA     SC294985  26.288  35.662  52.260
29993DA     SC394986  26.370  35.703  52.021
29993DA     SC494987  26.252  35.943  52.105
29994DG     BB194988  26.007  36.199  52.726
29994DG     BB294989  26.153  35.883  52.826
29994DG     BB394990  26.347  35.906  52.862
29994DG     SC194991  26.433  35.847  52.574
29994DG     SC294992  26.589  35.609  52.483
29994DG     SC394993  26.560  35.806  52.264
29994DG     SC494994  26.441  35.967  52.469
29995DT     BB194995  26.414  35.864  53.057
29995DT     BB294996  26.579  35.547  53.009
29995DT     BB394997  26.784  35.575  53.001
29995DT     SC194998  26.770  35.675  52.759
29995DT     SC294999  26.858  35.536  52.620
29995DT     SC395000  26.788  35.847  52.561
29996DA     BB195001  26.678  35.269  53.267
29996DA     BB295002  26.945  35.145  53.048
29996DA     BB395003  27.130  35.240  53.095
29996DA     SC195004  27.090  35.474  52.895
29996DA     SC295005  27.189  35.552  52.679
29996DA     SC395006  27.088  35.780  52.739
29996DA     SC495007  27.021  35.608  52.950
29997DT     BB195008  27.242  35.115  53.153
29997DT     BB295009  27.455  35.107  52.861
29997DT     BB395010  27.622  35.225  52.893
29997DT     SC195011  27.481  35.445  52.861
29997DT     SC295012  27.539  35.540  52.677
29997DT     SC395013  27.366  35.676  52.915
29998DT     BB195014  27.733  34.992  52.889
29998DT     BB295015  27.899  35.183  52.632
29998DT     BB395016  28.039  35.310  52.718
29998DT     SC195017  27.851  35.472  52.804
29998DT     SC295018  27.860  35.656  52.694
29998DT     SC395019  27.697  35.607  52.970
29999DA     BB195020  28.195  35.095  52.391
29999DA     BB295021  28.298  35.446  52.361
29999DA     BB395022  28.436  35.496  52.515
29999DA     SC195023  28.217  35.590  52.715
29999DA     SC295024  28.138  35.804  52.816
29999DA     SC395025  28.031  35.656  52.996
29999DA     SC495026  28.159  35.481  52.818
30000DA     BB195027  28.598  35.599  52.246
30000DA     BB295028  28.614  35.928  52.406
30000DA     BB395029  28.747  35.924  52.573
30000DA     SC195030  28.526  35.848  52.778
30000DA     SC295031  28.407  35.955  52.969
30000DA     SC395032  28.350  35.716  53.042
30000DA     SC495033  28.502  35.692  52.807
30001DT     BB195034  28.923  36.027  52.567
30001DT     BB295035  28.839  36.284  52.805
30001DT     BB395036  28.930  36.245  52.987
30001DT     SC195037  28.760  36.052  53.040
30001DT     SC295038  28.632  36.113  53.202
30001DT     SC395039  28.666  35.811  53.089
30002DT     BB195040  29.133  36.441  52.966
30002DT     BB295041  28.976  36.516  53.281
30002DT     BB395042  29.070  36.413  53.434
30002DT     SC195043  28.959  36.187  53.361
30002DT     SC295044  28.815  36.127  53.509
30002DT     SC395045  28.934  35.939  53.273
30003DG     BB195046  29.128  36.802  53.552
30003DG     BB295047  28.977  36.608  53.817
30003DG     BB395048  29.117  36.505  53.914
30003DG     SC195049  29.097  36.259  53.733
30003DG     SC295050  28.998  35.990  53.814
30003DG     SC395051  29.117  35.982  53.543
30003DG     SC495052  29.188  36.253  53.601
30004DT     BB195053  29.168  36.536  54.138
30004DT     BB295054  29.005  36.247  54.281
30004DT     BB395055  29.146  36.107  54.338
30004DT     SC195056  29.189  36.037  54.088
30004DT     SC295057  29.113  35.839  54.056
30004DT     SC395058  29.313  36.000  53.859
30005DA     BB195059  28.883  36.181  54.655
30005DA     BB295060  28.904  35.819  54.604
30005DA     BB395061  29.093  35.745  54.669
30005DA     SC195062  29.229  35.780  54.391
30005DA     SC295063  29.317  35.634  54.209
30005DA     SC395064  29.451  35.840  54.136
30005DA     SC495065  29.306  35.919  54.363
30006DT     BB195066  29.067  35.633  54.805
30006DT     BB295067  29.136  35.328  54.625
30006DT     BB395068  29.332  35.270  54.656
30006DT     SC195069  29.421  35.458  54.496
30006DT     SC295070  29.500  35.368  54.317
30006DT     SC395071  29.548  35.674  54.413
30007DT     BB195072  29.216  35.078  54.787
30007DT     BB295073  29.420  34.916  54.538
30007DT     BB395074  29.618  34.912  54.601
30007DT     SC195075  29.647  35.167  54.548
30007DT     SC295076  29.778  35.190  54.379
30007DT     SC395077  29.690  35.425  54.585
30008DC     BB195078  29.583  34.651  54.634
30008DC     BB295079  29.868  34.680  54.414
30008DC     BB395080  30.039  34.716  54.525
30008DC     SC195081  29.968  34.965  54.568
30008DC     SC295082  30.100  35.096  54.459
30008DC     SC395083  29.897  35.184  54.696
30009DA     BB195084  30.139  34.381  54.289
30009DA     BB295085  30.415  34.620  54.263
30009DA     BB395086  30.529  34.623  54.443
30009DA     SC195087  30.361  34.849  54.575
30009DA     SC295088  30.391  35.088  54.639
30009DA     SC395089  30.192  35.050  54.796
30009DA     SC495090  30.236  34.805  54.667
30010DA     BB195091  30.814  34.549  54.274
30010DA     BB295092  30.948  34.872  54.384
30010DA     BB395093  31.025  34.856  54.582
30010DA     SC195094  30.757  34.935  54.718
30010DA     SC295095  30.665  35.128  54.847
30010DA     SC395096  30.488  34.962  54.930
30010DA     SC495097  30.657  34.817  54.760
30011DT     BB195098  31.258  34.867  54.663
30011DT     BB295099  31.232  35.202  54.794
30011DT     BB395100  31.252  35.199  55.000
30011DT     SC195101  31.009  35.102  55.029
30011DT     SC295102  30.883  35.252  55.117
30011DT     SC395103  30.814  34.937  55.092
30012DA     BB195104  31.546  35.474  54.881
30012DA     BB295105  31.340  35.638  55.137
30012DA     BB395106  31.394  35.567  55.331
30012DA     SC195107  31.187  35.335  55.331
30012DA     SC295108  30.974  35.277  55.448
30012DA     SC395109  31.024  35.036  55.375
30012DA     SC495110  31.236  35.191  55.277
30013DG     BB195111  31.464  35.865  55.385
30013DG     BB295112  31.184  35.841  55.612
30013DG     BB395113  31.244  35.766  55.787
30013DG     SC195114  31.194  35.475  55.707
30013DG     SC295115  30.988  35.294  55.824
30013DG     SC395116  31.171  35.144  55.645
30013DG     SC495117  31.311  35.393  55.634
30014DT     BB195118  31.221  35.887  55.961
30014DT     BB295119  30.937  35.730  56.118
30014DT     BB395120  31.000  35.611  56.276
30014DT     SC195121  31.090  35.427  56.111
30014DT     SC295122  30.966  35.252  56.125
30014DT     SC395123  31.258  35.267  55.986
30015DA     BB195124  30.689  35.866  56.396
30015DA     BB295125  30.607  35.525  56.503
30015DA     BB395126  30.735  35.465  56.663
30015DA     SC195127  30.952  35.342  56.476
30015DA     SC295128  31.038  35.115  56.418
30015DA     SC395129  31.247  35.239  56.334
30015DA     SC495130  31.073  35.437  56.431
30016DA     BB195131  30.436  35.405  56.781
30016DA     BB295132  30.542  35.055  56.805
30016DA     BB395133  30.682  35.031  56.965
30016DA     SC195134  30.931  35.081  56.785
30016DA     SC295135  31.123  34.949  56.694
30016DA     SC395136  31.238  35.176  56.663
30016DA     SC495137  30.986  35.231  56.775
30017DT     BB195138  30.620  34.922  57.110
30017DT     BB295139  30.822  34.632  57.036
30017DT     BB395140  30.984  34.624  57.164
30017DT     SC195141  31.105  34.818  57.034
30017DT     SC295142  31.276  34.739  56.931
30017DT     SC395143  31.214  35.053  56.985
30018DA     BB195144  30.788  34.254  57.166
30018DA     BB295145  31.146  34.194  57.115
30018DA     BB395146  31.254  34.232  57.296
30018DA     SC195147  31.307  34.532  57.229
30018DA     SC295148  31.501  34.676  57.169
30018DA     SC395149  31.354  34.872  57.246
30018DA     SC495150  31.201  34.640  57.284
30019DC     BB195151  31.335  34.079  57.367
30019DC     BB295152  31.675  34.162  57.278
30019DC     BB395153  31.774  34.238  57.443
30019DC     SC195154  31.647  34.467  57.425
30019DC     SC295155  31.785  34.620  57.364
30019DC     SC395156  31.490  34.668  57.488
30020DA     BB195157  31.997  33.938  57.251
30020DA     BB295158  32.216  34.226  57.310
30020DA     BB395159  32.256  34.247  57.519
30020DA     SC195160  32.014  34.435  57.571
30020DA     SC295161  31.975  34.675  57.628
30020DA     SC395162  31.744  34.598  57.707
30020DA     SC495163  31.875  34.368  57.616
30021DT     BB195164  32.434  34.220  57.557
30021DT     BB295165  32.519  34.564  57.629
30021DT     BB395166  32.518  34.595  57.834
30021DT     SC195167  32.256  34.593  57.842
30021DT     SC295168  32.184  34.791  57.885
30021DT     SC395169  32.010  34.518  57.900
30022DA     BB195170  32.883  34.740  57.683
30022DA     BB295171  32.744  34.995  57.906
30022DA     BB395172  32.757  34.932  58.109
30022DA     SC195173  32.478  34.795  58.111
30022DA     SC295174  32.254  34.833  58.214
30022DA     SC395175  32.213  34.584  58.167
30022DA     SC495176  32.472  34.638  58.075
30023DG     BB195177  32.940  35.184  58.163
30023DG     BB295178  32.669  35.282  58.381
30023DG     BB395179  32.690  35.196  58.559
30023DG     SC195180  32.529  34.946  58.484
30023DG     SC295181  32.265  34.867  58.598
30023DG     SC395182  32.376  34.651  58.429
30023DG     SC495183  32.605  34.822  58.417
30024DT     BB195184  32.729  35.306  58.769
30024DT     BB295185  32.403  35.279  58.920
30024DT     BB395186  32.407  35.140  59.073
30024DT     SC195187  32.413  34.941  58.903
30024DT     SC295188  32.226  34.834  58.910
30024DT     SC395189  32.500  34.729  58.772
30025DT     BB195190  32.397  35.329  59.282
30025DT     BB295191  32.110  35.118  59.340
30025DT     BB395192  32.161  34.961  59.465
30025DT     SC195193  32.290  34.839  59.272
30025DT     SC295194  32.183  34.662  59.215
30025DT     SC395195  32.489  34.732  59.135
30026DG     BB195196  31.858  35.161  59.649
30026DG     BB295197  31.780  34.810  59.607
30026DG     BB395198  31.871  34.703  59.748
30026DG     SC195199  32.125  34.659  59.583
30026DG     SC295200  32.221  34.397  59.476
30026DG     SC395201  32.426  34.607  59.439
30026DG     SC495202  32.244  34.766  59.592
30027DT     BB195203  31.747  34.596  59.872
30027DT     BB295204  31.790  34.262  59.742
30027DT     BB395205  31.921  34.156  59.863
30027DT     SC195206  32.128  34.287  59.769
30027DT     SC295207  32.247  34.154  59.649
30027DT     SC395208  32.339  34.444  59.761
30028DC     BB195209  31.698  34.033  59.900
30028DC     BB295210  31.929  33.788  59.770
30028DC     BB395211  32.059  33.726  59.919
30028DC     SC195212  32.193  33.951  59.905
30028DC     SC295213  32.388  33.914  59.822
30028DC     SC395214  32.297  34.183  59.976
30029DT     BB195215  31.920  33.519  59.865
30029DT     BB295216  32.265  33.426  59.814
30029DT     BB395217  32.359  33.402  59.997
30029DT     SC195218  32.369  33.661  60.036
30029DT     SC295219  32.574  33.727  60.023
30029DT     SC395220  32.326  33.897  60.144
30030DT     BB195221  32.357  33.162  59.904
30030DT     BB295222  32.701  33.235  59.983
30030DT     BB395223  32.731  33.226  60.188
30030DT     SC195224  32.609  33.456  60.222
30030DT     SC295225  32.753  33.605  60.282
30030DT     SC395226  32.431  33.633  60.303
30031DT     BB195227  32.865  32.999  60.147
30031DT     BB295228  33.090  33.204  60.341
30031DT     BB395229  33.045  33.188  60.542
30031DT     SC195230  32.832  33.339  60.514
30031DT     SC295231  32.866  33.528  60.612
30031DT     SC395232  32.579  33.413  60.512
30032DA     BB195233  33.456  33.093  60.531
30032DA     BB295234  33.406  33.329  60.807
30032DA     BB395235  33.313  33.231  60.973
30032DA     SC195236  33.024  33.297  60.880
30032DA     SC295237  32.835  33.443  60.954
30032DA     SC395238  32.687  33.288  60.813
30032DA     SC495239  32.948  33.189  60.788
30033DG     BB195240  33.565  33.281  61.170
30033DG     BB295241  33.330  33.480  61.360
30033DG     BB395242  33.233  33.365  61.490
30033DG     SC195243  33.006  33.296  61.296
30033DG     SC295244  32.721  33.379  61.324
30033DG     SC395245  32.753  33.182  61.105
30033DG     SC495246  33.023  33.169  61.200
30034DT     BB195247  33.236  33.363  61.747
30034DT     BB295248  32.918  33.517  61.816
30034DT     BB395249  32.787  33.378  61.896
30034DT     SC195250  32.752  33.266  61.661
30034DT     SC295251  32.552  33.305  61.592
30034DT     SC395252  32.755  33.084  61.470
30035DT     BB195253  32.792  33.461  62.174
30035DT     BB295254  32.442  33.477  62.088
30035DT     BB395255  32.349  33.299  62.137
30035DT     SC195256  32.458  33.176  61.933
30035DT     SC295257  32.306  33.129  61.788
30035DT     SC395258  32.605  33.005  61.796
30036DC     BB195259  32.208  33.394  62.367
30036DC     BB295260  31.947  33.270  62.151
30036DC     BB395261  31.906  33.072  62.196
30036DC     SC195262  32.127  32.991  62.080
30036DC     SC295263  32.078  32.883  61.901
30036DC     SC395264  32.366  32.885  62.049
30037DT     BB195265  31.662  33.133  62.315
30037DT     BB295266  31.579  32.908  62.046
30037DT     BB395267  31.584  32.712  62.114
30037DT     SC195268  31.846  32.711  62.116
30037DT     SC295269  31.918  32.582  61.960
30037DT     SC395270  32.093  32.699  62.207
30038DT     BB195271  31.315  32.708  62.093
30038DT     BB295272  31.432  32.447  61.872
30038DT     BB395273  31.459  32.272  61.978
30038DT     SC195274  31.679  32.363  62.089
30038DT     SC295275  31.848  32.255  62.010
30038DT     SC395276  31.848  32.444  62.274
30039DC     BB195277  31.253  32.193  61.836
30039DC     BB295278  31.522  31.967  61.752
30039DC     BB395279  31.537  31.819  61.896
30039DC     SC195280  31.647  31.986  62.067
30039DC     SC295281  31.853  31.933  62.096
30039DC     SC395282  31.681  32.133  62.283
30040DT     BB195283  31.461  31.690  61.689
30040DT     BB295284  31.778  31.547  61.787
30040DT     BB395285  31.752  31.424  61.951
30040DT     SC195286  31.723  31.630  62.112
30040DT     SC295287  31.894  31.643  62.242
30040DT     SC395288  31.613  31.799  62.281
30041DT     BB195289  31.816  31.255  61.768
30041DT     BB295290  32.058  31.211  62.032
30041DT     BB395291  31.974  31.102  62.187
30041DT     SC195292  31.832  31.308  62.266
30041DT     SC295293  31.908  31.379  62.455
30041DT     SC395294  31.623  31.458  62.322
30042DA     BB195295  32.354  30.955  62.076
30042DA     BB295296  32.338  30.975  62.442
30042DA     BB395297  32.200  30.831  62.518
30042DA     SC195298  31.956  31.023  62.509
30042DA     SC295299  31.808  31.142  62.671
30042DA     SC395300  31.642  31.158  62.476
30042DA     SC495301  31.865  31.022  62.376
30043DG     BB195302  32.452  30.726  62.669
30043DG     BB295303  32.257  30.809  62.962
30043DG     BB395304  32.124  30.665  62.998
30043DG     SC195305  31.905  30.790  62.826
30043DG     SC295306  31.647  30.903  62.925
30043DG     SC395307  31.649  30.889  62.629
30043DG     SC495308  31.898  30.754  62.670
30044DC     BB195309  32.122  30.527  63.188
30044DC     BB295310  31.840  30.659  63.370
30044DC     BB395311  31.679  30.529  63.355
30044DC     SC195312  31.633  30.603  63.108
30044DC     SC295313  31.449  30.714  63.099
30044DC     SC395314  31.607  30.589  62.846
30045DG     BB195315  31.743  30.541  63.760
30045DG     BB295316  31.397  30.613  63.683
30045DG     BB395317  31.298  30.443  63.653
30045DG     SC195318  31.355  30.434  63.353
30045DG     SC295319  31.153  30.463  63.134
30045DG     SC395320  31.416  30.382  63.025
30045DG     SC495321  31.488  30.362  63.301
30046DT     BB195322  31.119  30.363  63.786
30046DT     BB295323  30.838  30.436  63.572
30046DT     BB395324  30.763  30.261  63.492
30046DT     SC195325  30.965  30.240  63.325
30046DT     SC295326  30.896  30.275  63.125
30046DT     SC395327  31.181  30.145  63.208
30047DT     BB195328  30.544  30.281  63.651
30047DT     BB295329  30.412  30.272  63.315
30047DT     BB395330  30.384  30.075  63.255
30047DT     SC195331  30.642  30.041  63.222
30047DT     SC295332  30.685  30.021  63.012
30047DT     SC395333  30.887  29.946  63.255
30048DT     BB195334  30.123  30.122  63.273
30048DT     BB295335  30.175  30.016  62.932
30048DT     BB395336  30.175  29.809  62.922
30048DT     SC195337  30.414  29.795  63.029
30048DT     SC295338  30.555  29.729  62.881
30048DT     SC395339  30.606  29.738  63.201
30049DA     BB195340  29.916  29.967  62.632
30049DA     BB295341  30.128  29.716  62.471
30049DA     BB395342  30.073  29.520  62.535
30049DA     SC195343  30.272  29.517  62.775
30049DA     SC295344  30.483  29.400  62.838
30049DA     SC395345  30.423  29.467  63.079
30049DA     SC495346  30.217  29.567  62.918
30050DT     BB195347  30.000  29.406  62.399
30050DT     BB295348  30.282  29.184  62.364
30050DT     BB395349  30.246  29.007  62.465
30050DT     SC195350  30.287  29.123  62.697
30050DT     SC295351  30.470  29.049  62.783
30050DT     SC395352  30.240  29.217  62.939
30051DA     BB195353  30.352  28.890  62.077
30051DA     BB295354  30.546  28.685  62.311
30051DA     BB395355  30.422  28.538  62.401
30051DA     SC195356  30.343  28.717  62.643
30051DA     SC295357  30.386  28.726  62.888
30051DA     SC395358  30.176  28.873  62.899
30051DA     SC495359  30.209  28.805  62.629
30052DT     BB195360  30.450  28.336  62.361
30052DT     BB295361  30.595  28.246  62.678
30052DT     BB395362  30.457  28.140  62.791
30052DT     SC195363  30.321  28.358  62.845
30052DT     SC295364  30.344  28.407  63.053
30052DT     SC395365  30.122  28.531  62.851
30053DT     BB195366  30.595  27.907  62.752
30053DT     BB295367  30.575  27.939  63.111
30053DT     BB395368  30.399  27.854  63.179
30053DT     SC195369  30.257  28.056  63.091
30053DT     SC295370  30.181  28.168  63.258
30053DT     SC395371  30.081  28.193  62.951
30054DT     BB195372  30.536  27.642  63.284
30054DT     BB295373  30.350  27.775  63.564
30054DT     BB395374  30.161  27.690  63.570
30054DT     SC195375  30.080  27.835  63.367
30054DT     SC295376  29.937  27.980  63.436
30054DT     SC395377  29.992  27.898  63.127
30055DG     BB195378  30.329  27.596  63.931
30055DG     BB295379  30.003  27.745  63.975
30055DG     BB395380  29.861  27.610  63.941
30055DG     SC195381  29.840  27.671  63.642
30055DG     SC295382  29.605  27.792  63.503
30055DG     SC395383  29.806  27.697  63.308
30055DG     SC495384  29.936  27.592  63.540
30056DT     BB195385  29.703  27.523  64.101
30056DT     BB295386  29.400  27.689  63.998
30056DT     BB395387  29.274  27.554  63.905
30056DT     SC195388  29.421  27.553  63.688
30056DT     SC295389  29.314  27.650  63.529
30056DT     SC395390  29.578  27.465  63.495
30057DT     BB195391  29.081  27.515  64.119
30057DT     BB295392  28.875  27.615  63.841
30057DT     BB395393  28.806  27.448  63.740
30057DT     SC195394  29.041  27.406  63.632
30057DT     SC295395  29.030  27.447  63.421
30057DT     SC395396  29.269  27.288  63.572
30058DA     BB195397  28.432  27.629  63.828
30058DA     BB295398  28.432  27.557  63.469
30058DA     BB395399  28.386  27.351  63.434
30058DA     SC195400  28.682  27.258  63.441
30058DA     SC295401  28.852  27.171  63.280
30058DA     SC395402  28.973  27.081  63.488
30058DA     SC495403  28.742  27.209  63.582
30059DC     BB195404  28.190  27.262  63.331
30059DC     BB295405  28.351  27.197  63.015
30059DC     BB395406  28.360  26.993  62.981
30059DC     SC195407  28.553  26.964  63.157
30059DC     SC295408  28.735  26.914  63.054
30059DC     SC395409  28.682  26.885  63.372
30060DC     BB195410  28.168  27.007  62.783
30060DC     BB295411  28.464  26.883  62.619
30060DC     BB395412  28.468  26.677  62.626
30060DC     SC195413  28.534  26.679  62.880
30060DC     SC295414  28.737  26.610  62.902
30060DC     SC395415  28.520  26.641  63.141
30061DT     BB195416  28.425  26.687  62.364
30061DT     BB295417  28.741  26.519  62.402
30061DT     BB395418  28.711  26.316  62.431
30061DT     SC195419  28.632  26.356  62.678
30061DT     SC295420  28.779  26.279  62.814
30061DT     SC395421  28.476  26.363  62.891
30062DT     BB195422  28.826  26.322  62.201
30062DT     BB295423  29.038  26.122  62.412
30062DT     BB395424  28.959  25.931  62.431
30062DT     SC195425  28.772  26.017  62.594
30062DT     SC295426  28.809  25.941  62.792
30062DT     SC395427  28.532  26.074  62.688
30063DA     BB195428  29.373  25.952  62.352
30063DA     BB295429  29.314  25.708  62.620
30063DA     BB395430  29.208  25.539  62.545
30063DA     SC195431  28.927  25.658  62.607
30063DA     SC295432  28.739  25.614  62.765
30063DA     SC395433  28.595  25.745  62.598
30063DA     SC495434  28.854  25.741  62.490
30064DA     BB195435  29.465  25.410  62.703
30064DA     BB295436  29.220  25.218  62.897
30064DA     BB395437  29.126  25.072  62.774
30064DA     SC195438  28.893  25.259  62.688
30064DA     SC295439  28.647  25.279  62.727
30064DA     SC395440  28.645  25.422  62.514
30064DA     SC495441  28.912  25.345  62.553
30065DG     BB195442  29.243  24.858  62.973
30065DG     BB295443  28.895  24.774  63.026
30065DG     BB395444  28.832  24.654  62.881
30065DG     SC195445  28.741  24.882  62.699
30065DG     SC295446  28.459  24.944  62.623
30065DG     SC395447  28.648  25.107  62.465
30065DG     SC495448  28.845  24.946  62.596
30066DT     BB195449  28.760  24.409  62.888
30066DT     BB295450  28.403  24.435  62.843
30066DT     BB395451  28.350  24.365  62.656
30066DT     SC195452  28.444  24.581  62.540
30066DT     SC295453  28.280  24.697  62.462
30066DT     SC395454  28.593  24.736  62.387
30067DC     BB195455  28.239  24.086  62.708
30067DC     BB295456  27.972  24.240  62.520
30067DC     BB395457  27.987  24.187  62.321
30067DC     SC195458  28.190  24.349  62.285
30067DC     SC295459  28.129  24.514  62.160
30067DC     SC395460  28.434  24.433  62.231
30068DA     BB195461  27.592  24.028  62.368
30068DA     BB295462  27.578  24.243  62.072
30068DA     BB395463  27.645  24.137  61.900
30068DA     SC195464  27.942  24.221  61.932
30068DA     SC295465  28.106  24.368  61.815
30068DA     SC395466  28.285  24.230  61.936
30068DA     SC495467  28.039  24.123  62.016
30069DA     BB195468  27.354  24.191  61.734
30069DA     BB295469  27.543  24.398  61.497
30069DA     BB395470  27.622  24.278  61.340
30069DA     SC195471  27.891  24.222  61.486
30069DA     SC295472  28.131  24.285  61.461
30069DA     SC395473  28.179  24.079  61.608
30069DA     SC495474  27.900  24.090  61.577
30070DT     BB195475  27.555  24.301  61.137
30070DT     BB295476  27.844  24.491  61.033
30070DT     BB395477  27.959  24.380  60.902
30070DT     SC195478  28.050  24.230  61.098
30070DT     SC295479  28.259  24.273  61.129
30070DT     SC395480  28.097  24.018  61.246
30071DA     BB195481  27.877  24.767  60.772
30071DA     BB295482  28.239  24.710  60.751
30071DA     BB395483  28.284  24.575  60.593
30071DA     SC195484  28.266  24.321  60.772
30071DA     SC295485  28.422  24.150  60.865
30071DA     SC395486  28.212  24.005  60.893
30071DA     SC495487  28.124  24.246  60.780
30072DG     BB195488  28.435  24.838  60.563
30072DG     BB295489  28.717  24.616  60.604
30072DG     BB395490  28.739  24.504  60.441
30072DG     SC195491  28.557  24.279  60.539
30072DG     SC295492  28.643  24.002  60.608
30072DG     SC395493  28.348  24.024  60.607
30072DG     SC495494  28.400  24.287  60.508
30073DT     BB195495  28.913  24.537  60.374
30073DT     BB295496  29.086  24.227  60.439
30073DT     BB395497  29.069  24.101  60.275
30073DT     SC195498  28.819  24.046  60.333
30073DT     SC295499  28.805  23.842  60.399
30073DT     SC395500  28.557  24.032  60.312
30074DA     BB195501  29.473  24.126  60.391
30074DA     BB295502  29.393  23.773  60.329
30074DA     BB395503  29.366  23.739  60.121
30074DA     SC195504  29.060  23.795  60.126
30074DA     SC295505  28.848  23.665  60.101
30074DA     SC395506  28.739  23.892  60.051
30074DA     SC495507  29.011  23.945  60.096
30075DA     BB195508  29.596  23.502  60.158
30075DA     BB295509  29.349  23.261  60.036
30075DA     BB395510  29.329  23.276  59.824
30075DA     SC195511  29.100  23.486  59.836
30075DA     SC295512  28.855  23.496  59.787
30075DA     SC395513  28.889  23.750  59.775
30075DA     SC495514  29.141  23.641  59.832
30076DA     BB195515  29.401  22.949  59.798
30076DA     BB295516  29.071  22.899  59.647
30076DA     BB395517  29.075  22.951  59.440
30076DA     SC195518  28.995  23.247  59.488
30076DA     SC295519  28.798  23.394  59.446
30076DA     SC395520  28.963  23.589  59.471
30076DA     SC495521  29.113  23.354  59.506
30077DT     BB195522  29.055  22.805  59.261
30077DT     BB295523  28.718  22.897  59.173
30077DT     BB395524  28.716  22.995  58.991
30077DT     SC195525  28.814  23.213  59.098
30077DT     SC295526  28.663  23.366  59.098
30077DT     SC395527  28.980  23.412  59.150
30078DA     BB195528  28.440  22.684  58.947
30078DA     BB295529  28.275  22.993  58.838
30078DA     BB395530  28.344  23.049  58.644
30078DA     SC195531  28.577  23.225  58.751
30078DA     SC295532  28.635  23.467  58.762
30078DA     SC395533  28.877  23.387  58.796
30078DA     SC495534  28.721  23.155  58.770
30079DA     BB195535  28.023  23.048  58.596
30079DA     BB295536  28.054  23.405  58.517
30079DA     BB395537  28.139  23.431  58.323
30079DA     SC195538  28.432  23.440  58.426
30079DA     SC295539  28.615  23.609  58.448
30079DA     SC395540  28.772  23.406  58.461
30079DA     SC495541  28.514  23.302  58.430
30080DG     BB195542  27.870  23.576  58.297
30080DG     BB295543  28.085  23.862  58.246
30080DG     BB395544  28.157  23.861  58.060
30080DG     SC195545  28.405  23.696  58.132
30080DG     SC295546  28.688  23.793  58.124
30080DG     SC395547  28.677  23.501  58.170
30080DG     SC495548  28.397  23.537  58.127
30081DA     BB195549  28.044  24.187  58.057
30081DA     BB295550  28.381  24.303  57.974
30081DA     BB395551  28.428  24.257  57.771
30081DA     SC195552  28.553  23.980  57.838
30081DA     SC295553  28.780  23.875  57.839
30081DA     SC395554  28.653  23.651  57.833
30081DA     SC495555  28.457  23.851  57.833
30082DC     BB195556  28.451  24.409  57.651
30082DC     BB295557  28.808  24.387  57.610
30082DC     BB395558  28.854  24.301  57.428
30082DC     SC195559  28.787  24.063  57.514
30082DC     SC295560  28.963  23.941  57.532
30082DC     SC395561  28.657  23.834  57.536
30083DG     BB195562  29.035  24.667  57.426
30083DG     BB295563  29.268  24.406  57.333
30083DG     BB395564  29.239  24.354  57.144
30083DG     SC195565  29.033  24.137  57.208
30083DG     SC295566  29.070  23.843  57.170
30083DG     SC395567  28.790  23.906  57.241
30083DG     SC495568  28.879  24.177  57.218
30084DG     BB195569  29.552  24.433  57.062
30084DG     BB295570  29.597  24.086  56.972
30084DG     BB395571  29.534  24.056  56.785
30084DG     SC195572  29.246  23.990  56.866
30084DG     SC295573  29.112  23.725  56.838
30084DG     SC395574  28.918  23.933  56.917
30084DG     SC495575  29.140  24.110  56.879
30085DA     BB195576  29.842  23.910  56.703
30085DA     BB295577  29.676  23.597  56.609
30085DA     BB395578  29.589  23.614  56.415
30085DA     SC195579  29.314  23.715  56.520
30085DA     SC295580  29.081  23.630  56.537
30085DA     SC395581  29.014  23.876  56.560
30085DA     SC495582  29.293  23.874  56.531
30086DC     BB195583  29.662  23.503  56.243
30086DC     BB295584  29.388  23.268  56.223
30086DC     BB395585  29.270  23.311  56.058
30086DC     SC195586  29.165  23.519  56.178
30086DC     SC295587  28.958  23.479  56.223
30086DC     SC395588  29.101  23.770  56.229
30087DG     BB195589  29.394  22.928  55.980
30087DG     BB295590  29.035  22.953  55.952
30087DG     BB395591  28.985  23.026  55.773
30087DG     SC195592  28.992  23.318  55.863
30087DG     SC295593  28.756  23.501  55.881
30087DG     SC395594  29.009  23.650  55.922
30087DG     SC495595  29.130  23.399  55.855
30088DA     BB195596  28.770  22.754  55.707
30088DA     BB295597  28.483  22.980  55.677
30088DA     BB395598  28.480  23.070  55.483
30088DA     SC195599  28.650  23.317  55.568
30088DA     SC295600  28.616  23.561  55.603
30088DA     SC395601  28.870  23.580  55.577
30088DA     SC495602  28.809  23.307  55.548
30089DG     BB195603  28.197  22.935  55.418
30089DG     BB295604  28.078  23.277  55.413
30089DG     BB395605  28.098  23.353  55.230
30089DG     SC195606  28.381  23.460  55.278
30089DG     SC295607  28.460  23.747  55.288
30089DG     SC395608  28.698  23.572  55.289
30089DG     SC495609  28.506  23.364  55.249
30090DT     BB195610  27.918  23.425  55.082
30090DT     BB295611  27.947  23.783  55.118
30090DT     BB395612  28.021  23.866  54.944
30090DT     SC195613  28.263  23.779  54.996
30090DT     SC295614  28.391  23.945  55.042
30090DT     SC395615  28.489  23.645  54.973
30091DT     BB195616  27.776  23.975  54.876
30091DT     BB295617  28.000  24.258  54.893
30091DT     BB395618  28.088  24.289  54.708
30091DT     SC195619  28.247  24.083  54.740
30091DT     SC295620  28.449  24.152  54.766
30091DT     SC395621  28.359  23.847  54.701
30092DT     BB195622  27.937  24.512  54.679
30092DT     BB295623  28.278  24.627  54.657
30092DT     BB395624  28.345  24.611  54.462
30092DT     SC195625  28.369  24.351  54.483
30092DT     SC295626  28.578  24.298  54.481
30092DT     SC395627  28.329  24.094  54.440
30093DT     BB195628  28.338  24.876  54.460
30093DT     BB295629  28.680  24.790  54.385
30093DT     BB395630  28.700  24.749  54.183
30093DT     SC195631  28.582  24.516  54.210
30093DT     SC295632  28.726  24.359  54.181
30093DT     SC395633  28.404  24.324  54.183
30094DA     BB195634  28.993  25.016  54.322
30094DA     BB295635  29.158  24.751  54.129
30094DA     BB395636  29.110  24.770  53.922
30094DA     SC195637  28.859  24.586  53.938
30094DA     SC295638  28.791  24.360  53.859
30094DA     SC395639  28.551  24.442  53.894
30094DA     SC495640  28.717  24.656  53.965
30095DA     BB195641  29.436  24.750  53.932
30095DA     BB295642  29.399  24.454  53.719
30095DA     BB395643  29.335  24.510  53.524
30095DA     SC195644  29.032  24.486  53.589
30095DA     SC295645  28.842  24.336  53.529
30095DA     SC395646  28.692  24.529  53.606
30095DA     SC495647  28.956  24.618  53.640
30096DT     BB195648  29.463  24.473  53.394
30096DT     BB295649  29.293  24.197  53.237
30096DT     BB395650  29.196  24.261  53.066
30096DT     SC195651  29.008  24.377  53.208
30096DT     SC295652  28.823  24.269  53.183
30096DT     SC395653  28.854  24.566  53.310
30097DT     BB195654  29.380  24.131  52.921
30097DT     BB295655  29.065  23.999  52.806
30097DT     BB395656  28.986  24.122  52.660
30097DT     SC195657  28.916  24.302  52.838
30097DT     SC295658  28.702  24.307  52.855
30097DT     SC395659  28.907  24.530  52.969
30098DT     BB195660  29.045  23.940  52.466
30098DT     BB295661  28.691  24.000  52.426
30098DT     BB395662  28.661  24.164  52.303
30098DT     SC195663  28.731  24.330  52.494
30098DT     SC295664  28.558  24.440  52.560
30098DT     SC395665  28.867  24.514  52.625
30099DC     BB195666  28.579  24.012  52.083
30099DC     BB295667  28.307  24.243  52.134
30099DC     BB395668  28.340  24.416  52.025
30099DC     SC195669  28.523  24.497  52.195
30099DC     SC295670  28.449  24.667  52.304
30099DC     SC395671  28.757  24.569  52.292
30100DC     BB195672  28.149  24.362  51.825
30100DC     BB295673  28.050  24.684  51.953
30100DC     BB395674  28.143  24.835  51.845
30100DC     SC195675  28.372  24.789  51.964
30100DC     SC295676  28.420  24.954  52.094
30100DC     SC395677  28.625  24.722  51.997
30101DG     BB195678  27.747  24.919  51.775
30101DG     BB295679  27.918  25.211  51.901
30101DG     BB395680  28.011  25.305  51.753
30101DG     SC195681  28.272  25.147  51.784
30101DG     SC295682  28.535  25.258  51.872
30101DG     SC395683  28.565  24.980  51.776
30101DG     SC495684  28.289  25.009  51.704
30102DT     BB195685  27.962  25.524  51.678
30102DT     BB295686  28.238  25.705  51.823
30102DT     BB395687  28.371  25.762  51.675
30102DT     SC195688  28.463  25.518  51.651
30102DT     SC295689  28.664  25.509  51.726
30102DT     SC395690  28.519  25.283  51.544
30103DT     BB195691  28.292  26.021  51.704
30103DT     BB295692  28.647  26.027  51.768
30103DT     BB395693  28.750  26.050  51.590
30103DT     SC195694  28.703  25.802  51.520
30103DT     SC295695  28.887  25.690  51.527
30103DT     SC395696  28.612  25.595  51.384
30104DG     BB195697  28.853  26.344  51.852
30104DG     BB295698  29.143  26.170  51.725
30104DG     BB395699  29.183  26.230  51.539
30104DG     SC195700  29.006  26.017  51.407
30104DG     SC295701  29.102  25.791  51.238
30104DG     SC395702  28.807  25.811  51.229
30104DG     SC495703  28.851  26.050  51.382
30105DA     BB195704  29.497  26.270  51.671
30105DA     BB295705  29.629  26.038  51.420
30105DA     BB395706  29.633  26.131  51.228
30105DA     SC195707  29.348  26.036  51.149
30105DA     SC295708  29.244  25.875  50.988
30105DA     SC395709  29.030  26.012  51.021
30105DA     SC495710  29.224  26.134  51.182
30106DG     BB195711  29.932  26.064  51.261
30106DG     BB295712  29.869  25.856  50.971
30106DG     BB395713  29.865  25.969  50.807
30106DG     SC195714  29.565  26.026  50.822
30106DG     SC295715  29.358  25.931  50.629
30106DG     SC395716  29.243  26.127  50.819
30106DG     SC495717  29.515  26.153  50.906
30107DA     BB195718  30.094  25.741  50.677
30107DA     BB295719  29.867  25.670  50.398
30107DA     BB395720  29.868  25.832  50.259
30107DA     SC195721  29.634  25.984  50.395
30107DA     SC295722  29.396  26.040  50.345
30107DA     SC395723  29.424  26.226  50.520
30107DA     SC495724  29.672  26.095  50.505
30108DT     BB195725  29.947  25.805  50.068
30108DT     BB295726  29.634  25.805  49.889
30108DT     BB395727  29.610  25.984  49.787
30108DT     SC195728  29.555  26.112  50.010
30108DT     SC295729  29.347  26.169  50.009
30108DT     SC395730  29.575  26.283  50.210
30109DA     BB195731  29.558  25.693  49.489
30109DA     BB295732  29.280  25.930  49.460
30109DA     BB395733  29.346  26.111  49.369
30109DA     SC195734  29.419  26.248  49.639
30109DA     SC295735  29.333  26.435  49.780
30109DA     SC395736  29.567  26.435  49.886
30109DA     SC495737  29.570  26.233  49.692
30110DA     BB195738  29.103  26.059  49.151
30110DA     BB295739  28.954  26.374  49.265
30110DA     BB395740  29.055  26.540  49.178
30110DA     SC195741  29.261  26.567  49.409
30110DA     SC295742  29.311  26.727  49.594
30110DA     SC395743  29.545  26.620  49.596
30110DA     SC495744  29.401  26.489  49.394
30111DA     BB195745  28.756  26.631  49.073
30111DA     BB295746  28.794  26.934  49.276
30111DA     BB395747  28.917  27.076  49.175
30111DA     SC195748  29.182  26.973  49.301
30111DA     SC295749  29.351  27.053  49.466
30111DA     SC395750  29.507  26.880  49.358
30111DA     SC495751  29.264  26.861  49.220
30112DT     BB195752  28.836  27.257  49.109
30112DT     BB295753  28.983  27.464  49.365
30112DT     BB395754  29.135  27.579  49.284
30112DT     SC195755  29.295  27.372  49.272
30112DT     SC295756  29.454  27.396  49.416
30112DT     SC395757  29.449  27.182  49.172
30113DT     BB195758  28.977  27.796  49.310
30113DT     BB295759  29.274  27.876  49.498
30113DT     BB395760  29.418  27.957  49.372
30113DT     SC195761  29.471  27.722  49.268
30113DT     SC295762  29.667  27.659  49.331
30113DT     SC395763  29.493  27.529  49.091
30114DG     BB195764  29.345  28.223  49.671
30114DG     BB295765  29.698  28.154  49.639
30114DG     BB395766  29.773  28.254  49.485
30114DG     SC195767  29.718  28.030  49.283
30114DG     SC295768  29.925  27.869  49.139
30114DG     SC395769  29.655  27.815  49.031
30114DG     SC495770  29.577  28.026  49.208
30115DA     BB195771  30.011  28.364  49.710
30115DA     BB295772  30.276  28.221  49.501
30115DA     BB395773  30.307  28.342  49.328
30115DA     SC195774  30.102  28.188  49.153
30115DA     SC295775  30.105  28.034  48.956
30115DA     SC395776  29.859  28.100  48.926
30115DA     SC495777  29.950  28.242  49.150
30116DT     BB195778  30.483  28.440  49.310
30116DT     BB295779  30.623  28.234  49.049
30116DT     BB395780  30.614  28.334  48.868
30116DT     SC195781  30.356  28.292  48.848
30116DT     SC295782  30.319  28.152  48.689
30116DT     SC395783  30.097  28.340  48.833
30117DT     BB195784  30.886  28.382  48.867
30117DT     BB295785  30.827  28.212  48.554
30117DT     BB395786  30.780  28.350  48.407
30117DT     SC195787  30.540  28.385  48.505
30117DT     SC295788  30.395  28.302  48.370
30117DT     SC395789  30.332  28.504  48.615
30118DT     BB195790  31.027  28.326  48.281
30118DT     BB295791  30.789  28.252  48.020
30118DT     BB395792  30.735  28.426  47.922
30118DT     SC195793  30.585  28.502  48.124
30118DT     SC295794  30.378  28.493  48.066
30118DT     SC395795  30.496  28.645  48.327
30119DT     BB195796  30.882  28.366  47.693
30119DT     BB295797  30.547  28.415  47.571
30119DT     BB395798  30.518  28.614  47.521
30119DT     SC195799  30.503  28.684  47.773
30119DT     SC295800  30.301  28.742  47.819
30119DT     SC395801  30.562  28.799  48.003
30120DA     BB195802  30.404  28.394  47.183
30120DA     BB295803  30.134  28.631  47.258
30120DA     BB395804  30.190  28.828  47.199
30120DA     SC195805  30.314  28.901  47.475
30120DA     SC295806  30.261  29.051  47.667
30120DA     SC395807  30.509  29.027  47.728
30120DA     SC495808  30.471  28.875  47.495
30121DA     BB195809  29.909  28.814  47.031
30121DA     BB295810  29.792  29.096  47.235
30121DA     BB395811  29.877  29.278  47.164
30121DA     SC195812  30.126  29.263  47.351
30121DA     SC295813  30.215  29.383  47.550
30121DA     SC395814  30.441  29.283  47.484
30121DA     SC495815  30.258  29.192  47.292
30122DT     BB195816  29.752  29.413  47.086
30122DT     BB295817  29.756  29.643  47.364
30122DT     BB395818  29.870  29.809  47.317
30122DT     SC195819  30.093  29.673  47.345
30122DT     SC295820  30.197  29.742  47.520
30122DT     SC395821  30.322  29.557  47.286
30123DT     BB195822  29.642  29.948  47.306
30123DT     BB295823  29.843  30.120  47.551
30123DT     BB395824  29.968  30.255  47.457
30123DT     SC195825  30.125  30.063  47.372
30123DT     SC295826  30.313  30.073  47.476
30123DT     SC395827  30.253  29.902  47.207
30124DT     BB195828  29.815  30.448  47.561
30124DT     BB295829  30.148  30.524  47.677
30124DT     BB395830  30.249  30.634  47.534
30124DT     SC195831  30.282  30.422  47.383
30124DT     SC295832  30.491  30.368  47.382
30124DT     SC395833  30.265  30.259  47.176
30125DT     BB195834  30.226  30.846  47.697
30125DT     BB295835  30.580  30.819  47.632
30125DT     BB395836  30.628  30.917  47.456
30125DT     SC195837  30.523  30.724  47.312
30125DT     SC295838  30.680  30.619  47.209
30125DT     SC395839  30.364  30.598  47.143
30126DC     BB195840  30.747  31.119  47.596
30126DC     BB295841  31.002  31.011  47.365
30126DC     BB395842  30.982  31.112  47.185
30126DC     SC195843  30.773  30.968  47.119
30126DC     SC295844  30.825  30.838  46.955
30126DC     SC395845  30.525  30.905  47.056
30127DA     BB195846  31.384  31.185  47.289
30127DA     BB295847  31.381  31.085  46.936
30127DA     BB395848  31.312  31.245  46.814
30127DA     SC195849  31.013  31.160  46.829
30127DA     SC295850  30.841  31.065  46.675
30127DA     SC395851  30.670  31.155  46.844
30127DA     SC495852  30.923  31.224  46.945
30128DG     BB195853  31.591  31.274  46.650
30128DG     BB295854  31.392  31.179  46.364
30128DG     BB395855  31.316  31.341  46.277
30128DG     SC195856  31.060  31.340  46.446
30128DG     SC295857  30.784  31.289  46.345
30128DG     SC395858  30.778  31.380  46.626
30128DG     SC495859  31.059  31.417  46.586
30129DA     BB195860  31.445  31.288  45.943
30129DA     BB295861  31.107  31.265  45.804
30129DA     BB395862  31.032  31.460  45.759
30129DA     SC195863  30.902  31.501  46.038
30129DA     SC295864  30.672  31.515  46.134
30129DA     SC395865  30.784  31.633  46.332
30129DA     SC495866  30.990  31.574  46.151
30130DC     BB195867  30.986  31.563  45.539
30130DC     BB295868  30.628  31.527  45.560
30130DC     BB395869  30.538  31.713  45.569
30130DC     SC195870  30.612  31.746  45.818
30130DC     SC295871  30.439  31.739  45.946
30130DC     SC395872  30.733  31.847  46.030
30131DT     BB195873  30.436  31.710  45.304
30131DT     BB295874  30.143  31.750  45.510
30131DT     BB395875  30.100  31.951  45.535
30131DT     SC195876  30.299  31.981  45.703
30131DT     SC295877  30.221  32.016  45.900
30131DT     SC395878  30.527  32.066  45.805
30132DT     BB195879  29.883  31.921  45.375
30132DT     BB295880  29.752  32.038  45.690
30132DT     BB395881  29.754  32.245  45.695
30132DT     SC195882  30.014  32.248  45.732
30132DT     SC295883  30.058  32.316  45.931
30132DT     SC395884  30.270  32.293  45.687
30133DT     BB195885  29.490  32.228  45.681
30133DT     BB295886  29.557  32.405  45.988
30133DT     BB395887  29.585  32.606  45.949
30133DT     SC195888  29.823  32.562  45.849
30133DT     SC295889  29.972  32.642  45.982
30133DT     SC395890  30.021  32.549  45.675
30134DC     BB195891  29.354  32.633  46.073
30134DC     BB295892  29.588  32.836  46.259
30134DC     BB395893  29.611  33.020  46.167
30134DC     SC195894  29.757  32.915  45.976
30134DC     SC295895  29.960  32.983  45.996
30134DC     SC395896  29.834  32.839  45.735
30135DT     BB195897  29.481  33.112  46.377
30135DT     BB295898  29.793  33.293  46.371
30135DT     BB395899  29.780  33.452  46.239
30135DT     SC195900  29.798  33.291  46.032
30135DT     SC295901  29.987  33.320  45.935
30135DT     SC395902  29.733  33.163  45.811
30136DA     BB195903  29.926  33.591  46.607
30136DA     BB295904  30.141  33.723  46.341
30136DA     BB395905  30.038  33.874  46.231
30136DA     SC195906  29.923  33.675  46.021
30136DA     SC295907  29.955  33.622  45.779
30136DA     SC395908  29.724  33.512  45.794
30136DA     SC495909  29.777  33.613  46.050
30137DA     BB195910  30.313  34.034  46.311
30137DA     BB295911  30.371  34.071  45.951
30137DA     BB395912  30.237  34.215  45.869
30137DA     SC195913  30.018  34.006  45.799
30137DA     SC295914  29.918  33.904  45.594
30137DA     SC395915  29.720  33.844  45.745
30137DA     SC495916  29.903  33.979  45.909
30138DC     BB195917  30.316  34.383  45.799
30138DC     BB295918  30.274  34.311  45.448
30138DC     BB395919  30.114  34.418  45.373
30138DC     SC195920  29.941  34.259  45.490
30138DC     SC295921  29.839  34.143  45.341
30138DC     SC395922  29.749  34.176  45.651
30139DT     BB195923  30.286  34.578  45.239
30139DT     BB295924  30.067  34.449  44.984
30139DT     BB395925  29.898  34.568  44.969
30139DT     SC195926  29.799  34.469  45.191
30139DT     SC295927  29.628  34.348  45.145
30139DT     SC395928  29.711  34.457  45.439
30140DT     BB195929  29.990  34.661  44.733
30140DT     BB295930  29.664  34.529  44.657
30140DT     BB395931  29.519  34.672  44.695
30140DT     SC195932  29.541  34.637  44.954
30140DT     SC295933  29.362  34.543  45.029
30140DT     SC395934  29.590  34.689  45.208
30141DC     BB195935  29.476  34.719  44.425
30141DC     BB295936  29.149  34.635  44.552
30141DC     BB395937  29.053  34.806  44.618
30141DC     SC195938  29.202  34.816  44.834
30141DC     SC295939  29.082  34.771  45.006
30141DC     SC395940  29.378  34.904  45.010
30142DA     BB195941  28.781  34.632  44.351
30142DA     BB295942  28.596  34.711  44.657
30142DA     BB395943  28.557  34.921  44.668
30142DA     SC195944  28.818  34.987  44.823
30142DA     SC295945  28.884  35.061  45.052
30142DA     SC395946  29.104  35.135  44.943
30142DA     SC495947  28.948  35.027  44.737
30143DA     BB195948  28.247  34.819  44.704
30143DA     BB295949  28.250  34.979  45.034
30143DA     BB395950  28.229  35.190  45.014
30143DA     SC195951  28.535  35.245  44.997
30143DA     SC295952  28.712  35.349  45.139
30143DA     SC395953  28.846  35.369  44.921
30143DA     SC495954  28.602  35.249  44.851
30144DA     BB195955  27.989  35.126  45.224
30144DA     BB295956  28.165  35.343  45.461
30144DA     BB395957  28.138  35.548  45.408
30144DA     SC195958  28.392  35.559  45.227
30144DA     SC295959  28.617  35.666  45.232
30144DA     SC395960  28.619  35.627  44.979
30144DA     SC495961  28.373  35.528  45.071
30145DT     BB195962  28.043  35.645  45.537
30145DT     BB295963  28.321  35.832  45.669
30145DT     BB395964  28.321  36.024  45.592
30145DT     SC195965  28.408  35.938  45.359
30145DT     SC295966  28.610  36.006  45.330
30145DT     SC395967  28.415  35.885  45.101
30146DA     BB195968  28.364  36.026  46.009
30146DA     BB295969  28.614  36.252  45.865
30146DA     BB395970  28.520  36.426  45.785
30146DA     SC195971  28.483  36.304  45.500
30146DA     SC295972  28.577  36.339  45.272
30146DA     SC395973  28.366  36.218  45.190
30146DA     SC495974  28.345  36.229  45.469
30147DT     BB195975  28.565  36.584  45.875
30147DT     BB295976  28.769  36.735  45.618
30147DT     BB395977  28.659  36.875  45.514
30147DT     SC195978  28.526  36.689  45.387
30147DT     SC295979  28.584  36.689  45.179
30147DT     SC395980  28.324  36.539  45.304
30148DT     BB195981  28.794  37.080  45.635
30148DT     BB295982  28.826  37.152  45.283
30148DT     BB395983  28.663  37.262  45.218
30148DT     SC195984  28.508  37.050  45.224
30148DT     SC295985  28.457  36.993  45.023
30148DT     SC395986  28.312  36.887  45.293
30149DC     BB195987  28.786  37.524  45.203
30149DC     BB295988  28.638  37.488  44.876
30149DC     BB395989  28.447  37.569  44.875
30149DC     SC195990  28.351  37.366  45.010
30149DC     SC295991  28.222  37.250  44.882
30149DC     SC395992  28.239  37.228  45.205
30150DT     BB195993  28.479  37.842  44.738
30150DT     BB295994  28.215  37.689  44.545
30150DT     BB395995  28.031  37.754  44.614
30150DT     SC195996  28.048  37.602  44.827
30150DT     SC295997  27.904  37.442  44.813
30150DT     SC395998  28.064  37.531  45.080
30151DT     BB195999  27.931  37.969  44.410
30151DT     BB296000  27.659  37.733  44.412
30151DT     BB396001  27.507  37.801  44.535
30151DT     SC196002  27.643  37.740  44.751
30151DT     SC296003  27.549  37.575  44.850
30151DT     SC396004  27.774  37.769  44.977
30152DG     BB196005  27.295  37.796  44.179
30152DG     BB296006  27.123  37.599  44.430
30152DG     BB396007  27.005  37.716  44.538
30152DG     SC196008  27.219  37.782  44.747
30152DG     SC296009  27.216  37.698  45.033
30152DG     SC396010  27.435  37.891  44.982
30152DG     SC496011  27.316  37.907  44.722
30153DT     BB196012  26.761  37.702  44.551
30153DT     BB296013  26.730  37.535  44.870
30153DT     BB396014  26.651  37.665  45.010
30153DT     SC196015  26.878  37.795  45.030
30153DT     SC296016  26.965  37.757  45.223
30153DT     SC396017  27.054  37.991  45.017
30154DA     BB196018  26.427  37.313  45.013
30154DA     BB296019  26.528  37.386  45.358
30154DA     BB396020  26.413  37.547  45.436
30154DA     SC196021  26.613  37.767  45.344
30154DA     SC296022  26.773  37.927  45.449
30154DA     SC396023  26.757  38.057  45.229
30154DA     SC496024  26.588  37.835  45.200
30155DA     BB196025  26.382  37.312  45.656
30155DA     BB296026  26.542  37.543  45.891
30155DA     BB396027  26.406  37.699  45.947
30155DA     SC196028  26.494  37.890  45.718
30155DA     SC296029  26.617  38.106  45.694
30155DA     SC396030  26.502  38.123  45.465
30155DA     SC496031  26.412  37.883  45.579
30156DA     BB196032  26.524  37.574  46.221
30156DA     BB296033  26.649  37.911  46.290
30156DA     BB396034  26.487  38.043  46.334
30156DA     SC196035  26.448  38.131  46.038
30156DA     SC296036  26.482  38.336  45.900
30156DA     SC396037  26.316  38.229  45.736
30156DA     SC496038  26.342  38.049  45.949
30157DT     BB196039  26.507  38.098  46.500
30157DT     BB296040  26.606  38.437  46.426
30157DT     BB396041  26.442  38.562  46.437
30157DT     SC196042  26.350  38.473  46.208
30157DT     SC296043  26.366  38.628  46.059
30157DT     SC396044  26.190  38.357  46.033
30158DT     BB196045  26.568  38.650  46.648
30158DT     BB296046  26.515  38.941  46.440
30158DT     BB396047  26.322  39.012  46.465
30158DT     SC196048  26.223  38.815  46.323
30158DT     SC296049  26.148  38.892  46.137
30158DT     SC396050  26.085  38.599  46.260
30159DT     BB196051  26.440  39.213  46.588
30159DT     BB296052  26.236  39.367  46.333
30159DT     BB396053  26.040  39.383  46.399
30159DT     SC196054  25.999  39.126  46.365
30159DT     SC296055  25.863  39.097  46.201
30159DT     SC396056  25.946  38.874  46.421
30160DA     BB196057  26.155  39.763  46.261
30160DA     BB296058  25.820  39.692  46.128
30160DA     BB396059  25.675  39.703  46.285
30160DA     SC196060  25.697  39.401  46.358
30160DA     SC296061  25.556  39.196  46.340
30160DA     SC396062  25.708  39.101  46.524
30160DA     SC496063  25.801  39.360  46.474
30161DT     BB196064  25.538  39.850  46.282
30161DT     BB296065  25.250  39.649  46.199
30161DT     BB396066  25.136  39.615  46.369
30161DT     SC196067  25.309  39.441  46.461
30161DT     SC296068  25.223  39.244  46.454
30161DT     SC396069  25.489  39.330  46.618
30162DT     BB196070  24.937  39.792  46.293
30162DT     BB296071  24.761  39.482  46.352
30162DT     BB396072  24.706  39.468  46.551
30162DT     SC196073  24.953  39.415  46.623
30162DT     SC296074  24.965  39.211  46.689
30162DT     SC396075  25.189  39.440  46.739
30163DG     BB196076  24.346  39.450  46.356
30163DG     BB296077  24.384  39.173  46.585
30163DG     BB396078  24.344  39.232  46.771
30163DG     SC196079  24.632  39.314  46.833
30163DG     SC296080  24.813  39.182  47.031
30163DG     SC396081  24.933  39.433  46.929
30163DG     SC496082  24.679  39.463  46.799
30164DA     BB196083  24.112  38.971  46.804
30164DA     BB296084  24.308  38.830  47.080
30164DA     BB396085  24.271  38.938  47.260
30164DA     SC196086  24.503  39.140  47.214
30164DA     SC296087  24.725  39.192  47.315
30164DA     SC396088  24.700  39.421  47.203
30164DA     SC496089  24.468  39.278  47.138
30165DG     BB196090  24.167  38.666  47.374
30165DG     BB296091  24.454  38.698  47.590
30165DG     BB396092  24.410  38.815  47.745
30165DG     SC196093  24.495  39.074  47.606
30165DG     SC296094  24.726  39.246  47.682
30165DG     SC396095  24.559  39.379  47.476
30165DG     SC496096  24.387  39.154  47.518
30166DC     BB196097  24.415  38.739  47.954
30166DC     BB296098  24.721  38.886  48.073
30166DC     BB396099  24.679  39.048  48.196
30166DC     SC196100  24.614  39.197  47.990
30166DC     SC296101  24.762  39.351  47.963
30166DC     SC396102  24.469  39.344  47.826
30167DT     BB196103  24.757  38.905  48.413
30167DT     BB296104  24.970  39.197  48.413
30167DT     BB396105  24.875  39.353  48.511
30167DT     SC196106  24.714  39.394  48.308
30167DT     SC296107  24.764  39.580  48.213
30167DT     SC396108  24.492  39.410  48.167
30168DT     BB196109  25.049  39.326  48.716
30168DT     BB296110  25.092  39.665  48.601
30168DT     BB396111  24.952  39.789  48.692
30168DT     SC196112  24.760  39.696  48.540
30168DT     SC296113  24.698  39.849  48.402
30168DT     SC396114  24.537  39.575  48.468
30169DG     BB196115  25.324  39.933  48.778
30169DG     BB296116  25.114  40.185  48.626
30169DG     BB396117  24.985  40.256  48.760
30169DG     SC196118  24.769  40.049  48.699
30169DG     SC296119  24.502  40.105  48.575
30169DG     SC396120  24.518  39.825  48.671
30169DG     SC496121  24.770  39.909  48.778
30170DT     BB196122  25.000  40.457  48.796
30170DT     BB296123  24.713  40.581  48.616
30170DT     BB396124  24.557  40.614  48.748
30170DT     SC196125  24.510  40.357  48.770
30170DT     SC296126  24.323  40.310  48.674
30170DT     SC396127  24.486  40.117  48.877
30171DC     BB196128  24.599  40.873  48.703
30171DC     BB296129  24.255  40.816  48.607
30171DC     BB396130  24.133  40.827  48.774
30171DC     SC196131  24.214  40.592  48.859
30171DC     SC296132  24.053  40.451  48.841
30171DC     SC396133  24.325  40.409  49.012
30172DT     BB196134  24.046  41.051  48.663
30172DT     BB296135  23.752  40.848  48.708
30172DT     BB396136  23.682  40.866  48.902
30172DT     SC196137  23.876  40.715  48.994
30172DT     SC296138  23.795  40.527  49.061
30172DT     SC396139  24.091  40.641  49.128
30173DT     BB196140  23.475  41.008  48.806
30173DT     BB296141  23.321  40.740  48.990
30173DT     BB396142  23.307  40.790  49.190
30173DT     SC196143  23.564  40.751  49.227
30173DT     SC296144  23.593  40.576  49.349
30173DT     SC396145  23.817  40.800  49.281
30174DA     BB196146  22.915  40.681  49.084
30174DA     BB296147  22.995  40.509  49.397
30174DA     BB396148  22.990  40.645  49.561
30174DA     SC196149  23.291  40.721  49.539
30174DA     SC296150  23.500  40.685  49.671
30174DA     SC396151  23.592  40.886  49.540
30174DA     SC496152  23.330  40.848  49.449
30175DT     BB196153  22.835  40.649  49.733
30175DT     BB296154  23.053  40.515  49.987
30175DT     BB396155  23.096  40.661  50.127
30175DT     SC196156  23.261  40.782  49.962
30175DT     SC296157  23.463  40.759  50.032
30175DT     SC396158  23.363  40.968  49.806
30176DT     BB196159  22.927  40.567  50.343
30176DT     BB296160  23.256  40.576  50.490
30176DT     BB396161  23.286  40.757  50.587
30176DT     SC196162  23.316  40.883  50.358
30176DT     SC296163  23.521  40.945  50.338
30176DT     SC396164  23.272  41.050  50.159
30177DA     BB196165  23.371  40.464  50.871
30177DA     BB296166  23.657  40.693  50.857
30177DA     BB396167  23.612  40.875  50.960
30177DA     SC196168  23.500  41.018  50.708
30177DA     SC296169  23.567  41.206  50.557
30177DA     SC396170  23.319  41.213  50.490
30177DA     SC496171  23.342  41.008  50.680
30178DT     BB196172  23.723  40.897  51.106
30178DT     BB296173  23.937  41.144  50.952
30178DT     BB396174  23.887  41.333  51.021
30178DT     SC196175  23.670  41.338  50.874
30178DT     SC296176  23.694  41.483  50.716
30178DT     SC396177  23.415  41.347  50.808
30179DT     BB196178  24.122  41.278  51.096
30179DT     BB296179  24.144  41.572  50.888
30179DT     BB396180  24.070  41.736  50.990
30179DT     SC196181  23.823  41.655  50.957
30179DT     SC296182  23.722  41.787  50.820
30179DT     SC396183  23.580  41.570  51.014
30180DA     BB196184  24.420  41.751  50.733
30180DA     BB296185  24.207  42.044  50.677
30180DA     BB396186  24.187  42.157  50.858
30180DA     SC196187  23.932  42.005  50.952
30180DA     SC296188  23.689  42.053  50.980
30180DA     SC396189  23.688  41.850  51.138
30180DA     SC496190  23.953  41.877  51.047
30181DG     BB196191  24.282  42.325  50.610
30181DG     BB296192  23.988  42.513  50.704
30181DG     BB396193  24.013  42.593  50.885
30181DG     SC196194  23.897  42.352  51.034
30181DG     SC296195  23.643  42.348  51.190
30181DG     SC396196  23.795  42.097  51.230
30181DG     SC496197  23.995  42.232  51.076
30182DT     BB196198  24.011  42.797  50.896
30182DT     BB296199  23.709  42.871  51.078
30182DT     BB396200  23.751  42.894  51.279
30182DT     SC196201  23.781  42.635  51.311
30182DT     SC296202  23.619  42.559  51.430
30182DT     SC396203  23.896  42.403  51.362
30183DA     BB196204  23.552  43.255  51.192
30183DA     BB296205  23.411  43.127  51.505
30183DA     BB396206  23.547  43.159  51.666
30183DA     SC196207  23.689  42.884  51.632
30183DA     SC296208  23.706  42.668  51.756
30183DA     SC396209  23.919  42.629  51.618
30183DA     SC496210  23.819  42.879  51.538
30184DT     BB196211  23.524  43.305  51.845
30184DT     BB296212  23.454  43.055  52.096
30184DT     BB396213  23.613  43.041  52.227
30184DT     SC196214  23.757  42.912  52.050
30184DT     SC296215  23.782  42.708  52.113
30184DT     SC396216  23.953  42.857  51.882
30185DC     BB196217  23.491  43.176  52.446
30185DC     BB296218  23.584  42.856  52.584
30185DC     BB396219  23.773  42.867  52.669
30185DC     SC196220  23.887  42.868  52.432
30185DC     SC296221  23.992  42.683  52.403
30185DC     SC396222  24.026  42.951  52.224
30186DT     BB196223  23.674  42.859  52.927
30186DT     BB296224  23.900  42.578  52.908
30186DT     BB396225  24.091  42.637  52.960
30186DT     SC196226  24.125  42.760  52.731
30186DT     SC296227  24.270  42.653  52.614
30186DT     SC396228  24.164  42.954  52.557
30187DT     BB196229  24.065  42.498  53.190
30187DT     BB296230  24.356  42.357  53.030
30187DT     BB396231  24.524  42.468  53.078
30187DT     SC196232  24.452  42.662  52.917
30187DT     SC296233  24.586  42.668  52.749
30187DT     SC396234  24.377  42.901  52.833
30188DG     BB196235  24.588  42.081  53.188
30188DG     BB296236  24.856  42.207  52.981
30188DG     BB396237  24.975  42.325  53.088
30188DG     SC196238  24.817  42.580  53.026
30188DG     SC296239  24.914  42.812  52.864
30188DG     SC396240  24.657  42.876  52.995
30188DG     SC496241  24.695  42.621  53.121
30189DT     BB196242  25.185  42.273  53.120
30189DT     BB296243  25.354  42.508  52.904
30189DT     BB396244  25.433  42.663  53.017
30189DT     SC196245  25.195  42.769  53.051
30189DT     SC296246  25.183  42.954  52.941
30189DT     SC396247  24.977  42.856  53.172
30190DA     BB196248  25.757  42.519  52.790
30190DA     BB296249  25.751  42.884  52.756
30190DA     BB396250  25.821  42.977  52.935
30190DA     SC196251  25.538  42.996  53.064
30190DA     SC296252  25.374  43.174  53.123
30190DA     SC396253  25.274  43.001  53.283
30190DA     SC496254  25.491  42.875  53.159
30191DA     BB196255  26.046  43.136  52.748
30191DA     BB296256  25.889  43.451  52.850
30191DA     BB396257  25.956  43.507  53.045
30191DA     SC196258  25.727  43.359  53.193
30191DA     SC296259  25.524  43.418  53.326
30191DA     SC396260  25.540  43.179  53.418
30191DA     SC496261  25.754  43.207  53.240
30192DC     BB196262  26.078  43.681  53.079
30192DC     BB296263  25.815  43.886  53.218
30192DC     BB396264  25.844  43.910  53.421
30192DC     SC196265  25.764  43.665  53.469
30192DC     SC296266  25.574  43.671  53.570
30192DC     SC396267  25.769  43.413  53.547
30193DC     BB196268  25.918  44.171  53.386
30193DC     BB296269  25.635  44.186  53.609
30193DC     BB396270  25.699  44.168  53.805
30193DC     SC196271  25.742  43.911  53.776
30193DC     SC296272  25.596  43.801  53.891
30193DC     SC396273  25.869  43.680  53.764
30194DA     BB196274  25.450  44.503  53.770
30194DA     BB296275  25.332  44.302  54.053
30194DA     BB396276  25.466  44.318  54.217
30194DA     SC196277  25.639  44.073  54.131
30194DA     SC296278  25.684  43.842  54.211
30194DA     SC396279  25.897  43.855  54.069
30194DA     SC496280  25.767  44.102  54.038
30195DG     BB196281  25.206  44.421  54.344
30195DG     BB296282  25.246  44.126  54.549
30195DG     BB396283  25.382  44.159  54.690
30195DG     SC196284  25.619  44.065  54.520
30195DG     SC296285  25.785  43.822  54.571
30195DG     SC396286  25.902  43.987  54.355
30195DG     SC496287  25.694  44.170  54.426
30196DG     BB196288  25.144  44.078  54.895
30196DG     BB296289  25.359  43.805  54.996
30196DG     BB396290  25.498  43.872  55.121
30196DG     SC196291  25.699  43.940  54.901
30196DG     SC296292  25.961  43.804  54.854
30196DG     SC396293  25.936  44.044  54.684
30196DG     SC496294  25.695  44.085  54.833
30197DT     BB196295  25.503  43.793  55.319
30197DT     BB296296  25.795  43.581  55.309
30197DT     BB396297  25.955  43.677  55.397
30197DT     SC196298  25.986  43.834  55.189
30197DT     SC296299  26.167  43.782  55.087
30197DT     SC396300  25.995  44.053  55.043
30198DA     BB196301  25.925  43.301  55.582
30198DA     BB296302  26.275  43.352  55.487
30198DA     BB396303  26.368  43.495  55.615
30198DA     SC196304  26.296  43.738  55.435
30198DA     SC296305  26.415  43.901  55.289
30198DA     SC396306  26.207  44.049  55.318
30198DA     SC496307  26.159  43.816  55.467
30199DA     BB196308  26.590  43.255  55.664
30199DA     BB296309  26.841  43.483  55.524
30199DA     BB396310  26.896  43.631  55.668
30199DA     SC196311  26.678  43.834  55.578
30199DA     SC296312  26.668  44.055  55.462
30199DA     SC396313  26.435  44.077  55.568
30199DA     SC496314  26.536  43.830  55.653
30200DT     BB196315  27.088  43.635  55.748
30200DT     BB296316  27.204  43.922  55.562
30200DT     BB396317  27.216  44.087  55.687
30200DT     SC196318  26.955  44.115  55.689
30200DT     SC296319  26.902  44.293  55.582
30200DT     SC396320  26.708  44.125  55.779
30201DT     BB196321  27.488  44.074  55.682
30201DT     BB296322  27.410  44.405  55.561
30201DT     BB396323  27.392  44.536  55.721
30201DT     SC196324  27.158  44.436  55.786
30201DT     SC296325  27.004  44.581  55.744
30201DT     SC396326  26.970  44.315  55.925
30202DT     BB196327  27.623  44.648  55.644
30202DT     BB296328  27.383  44.918  55.640
30202DT     BB396329  27.365  45.000  55.829
30202DT     SC196330  27.227  44.794  55.914
30202DT     SC296331  27.023  44.854  55.950
30202DT     SC396332  27.160  44.580  56.053
30203DA     BB196333  27.431  45.307  55.551
30203DA     BB296334  27.145  45.401  55.760
30203DA     BB396335  27.210  45.452  55.957
30203DA     SC196336  27.181  45.162  56.068
30203DA     SC296337  27.033  45.040  56.227
30203DA     SC396338  27.223  44.867  56.237
30203DA     SC496339  27.310  45.067  56.062
30204DA     BB196340  27.036  45.718  55.879
30204DA     BB296341  26.823  45.636  56.167
30204DA     BB396342  26.925  45.680  56.349
30204DA     SC196343  27.050  45.396  56.376
30204DA     SC296344  27.025  45.197  56.523
30204DA     SC396345  27.259  45.131  56.440
30204DA     SC496346  27.197  45.373  56.313
30205DC     BB196347  26.850  45.824  56.458
30205DC     BB296348  26.710  45.614  56.717
30205DC     BB396349  26.831  45.618  56.884
30205DC     SC196350  27.010  45.465  56.769
30205DC     SC296351  27.011  45.272  56.865
30205DC     SC396352  27.239  45.386  56.665
30206DC     BB196353  26.646  45.767  57.015
30206DC     BB296354  26.693  45.477  57.224
30206DC     BB396355  26.852  45.508  57.353
30206DC     SC196356  27.026  45.474  57.159
30206DC     SC296357  27.132  45.290  57.190
30206DC     SC396358  27.218  45.526  56.986
30207DT     BB196359  26.679  45.530  57.560
30207DT     BB296360  26.900  45.261  57.654
30207DT     BB396361  27.069  45.338  57.746
30207DT     SC196362  27.166  45.421  57.517
30207DT     SC296363  27.338  45.302  57.465
30207DT     SC396364  27.254  45.584  57.328
30208DT     BB196365  26.980  45.241  57.981
30208DT     BB296366  27.304  45.088  57.936
30208DT     BB396367  27.452  45.214  58.007
30208DT     SC196368  27.428  45.373  57.799
30208DT     SC296369  27.604  45.356  57.676
30208DT     SC396370  27.379  45.589  57.656
30209DA     BB196371  27.503  44.831  58.168
30209DA     BB296372  27.824  44.941  58.031
30209DA     BB396373  27.908  45.095  58.153
30209DA     SC196374  27.774  45.327  57.995
30209DA     SC296375  27.844  45.511  57.842
30209DA     SC396376  27.621  45.621  57.904
30209DA     SC496377  27.631  45.380  58.047
30210DT     BB196378  28.065  45.041  58.231
30210DT     BB296379  28.286  45.238  58.025
30210DT     BB396380  28.341  45.411  58.125
30210DT     SC196381  28.105  45.519  58.085
30210DT     SC296382  28.124  45.682  57.946
30210DT     SC396383  27.868  45.622  58.135
30211DG     BB196384  28.678  45.207  58.021
30211DG     BB296385  28.693  45.553  57.915
30211DG     BB396386  28.735  45.670  58.070
30211DG     SC196387  28.442  45.714  58.147
30211DG     SC296388  28.294  45.973  58.131
30211DG     SC396389  28.133  45.768  58.271
30211DG     SC496390  28.372  45.611  58.247
30212DT     BB196391  28.919  45.787  58.071
30212DT     BB296392  28.795  46.121  58.012
30212DT     BB396393  28.791  46.227  58.190
30212DT     SC196394  28.580  46.096  58.274
30212DT     SC296395  28.410  46.229  58.277
30212DT     SC396396  28.428  45.939  58.421
30213DT     BB196397  29.003  46.376  58.106
30213DT     BB296398  28.748  46.619  58.182
30213DT     BB396399  28.755  46.670  58.382
30213DT     SC196400  28.647  46.441  58.453
30213DT     SC296401  28.448  46.477  58.527
30213DT     SC396402  28.619  46.203  58.563
30214DA     BB196403  28.763  47.028  58.166
30214DA     BB296404  28.509  47.061  58.428
30214DA     BB396405  28.602  47.086  58.619
30214DA     SC196406  28.609  46.781  58.681
30214DA     SC296407  28.498  46.622  58.837
30214DA     SC396408  28.697  46.468  58.790
30214DA     SC496409  28.742  46.700  58.640
30215DT     BB196410  28.577  47.261  58.712
30215DT     BB296411  28.345  47.146  58.963
30215DT     BB396412  28.441  47.128  59.145
30215DT     SC196413  28.563  46.909  59.068
30215DT     SC296414  28.483  46.741  59.176
30215DT     SC396415  28.757  46.742  59.003
30216DT     BB196416  28.305  47.344  59.231
30216DT     BB296417  28.224  47.085  59.469
30216DT     BB396418  28.368  47.078  59.617
30216DT     SC196419  28.539  46.962  59.456
30216DT     SC296420  28.570  46.759  59.518
30216DT     SC396421  28.756  46.923  59.310
30217DA     BB196422  27.990  47.097  59.797
30217DA     BB296423  28.180  46.829  59.960
30217DA     BB396424  28.334  46.911  60.083
30217DA     SC196425  28.548  46.910  59.857
30217DA     SC296426  28.758  46.787  59.803
30217DA     SC396427  28.810  46.985  59.649
30217DA     SC496428  28.563  47.043  59.768
30218DA     BB196429  28.189  46.719  60.307
30218DA     BB296430  28.511  46.548  60.343
30218DA     BB396431  28.648  46.671  60.452
30218DA     SC196432  28.763  46.809  60.199
30218DA     SC296433  28.977  46.811  60.070
30218DA     SC396434  28.895  47.034  59.975
30218DA     SC496435  28.695  46.947  60.152
30219DG     BB196436  28.660  46.441  60.667
30219DG     BB296437  29.008  46.424  60.572
30219DG     BB396438  29.113  46.561  60.672
30219DG     SC196439  29.073  46.780  60.462
30219DG     SC296440  29.287  46.900  60.291
30219DG     SC396441  29.033  47.049  60.262
30219DG     SC496442  28.944  46.875  60.472
30220DA     BB196443  29.344  46.320  60.792
30220DA     BB296444  29.621  46.496  60.629
30220DA     BB396445  29.683  46.663  60.747
30220DA     SC196446  29.490  46.863  60.607
30220DA     SC296447  29.507  47.058  60.452
30220DA     SC396448  29.272  47.119  60.536
30220DA     SC496449  29.345  46.885  60.673
30221DG     BB196450  29.976  46.540  60.791
30221DG     BB296451  30.083  46.827  60.598
30221DG     BB396452  30.116  46.982  60.719
30221DG     SC196453  29.829  47.087  60.704
30221DG     SC296454  29.743  47.344  60.579
30221DG     SC396455  29.520  47.219  60.727
30221DG     SC496456  29.721  47.032  60.809
30222DT     BB196457  30.331  47.095  60.761
30222DT     BB296458  30.283  47.394  60.565
30222DT     BB396459  30.260  47.557  60.689
30222DT     SC196460  30.016  47.485  60.753
30222DT     SC296461  29.876  47.624  60.667
30222DT     SC396462  29.810  47.406  60.898
30223DA     BB196463  30.562  47.654  60.417
30223DA     BB296464  30.317  47.926  60.414
30223DA     BB396465  30.337  48.046  60.589
30223DA     SC196466  30.132  47.880  60.755
30223DA     SC296467  29.903  47.910  60.848
30223DA     SC396468  29.964  47.717  61.006
30223DA     SC496469  30.189  47.760  60.845
30224DG     BB196470  30.386  48.252  60.368
30224DG     BB296471  30.076  48.387  60.496
30224DG     BB396472  30.111  48.493  60.661
30224DG     SC196473  30.075  48.254  60.850
30224DG     SC296474  29.856  48.219  61.049
30224DG     SC396475  30.063  48.011  61.083
30224DG     SC496476  30.202  48.163  60.884
30225DC     BB196477  30.053  48.678  60.640
30225DC     BB296478  29.754  48.689  60.842
30225DC     BB396479  29.799  48.762  61.030
30225DC     SC196480  29.914  48.537  61.100
30225DC     SC296481  29.793  48.438  61.248
30225DC     SC396482  30.100  48.366  61.175
30226DT     BB196483  29.652  48.949  60.933
30226DT     BB296484  29.491  48.844  61.239
30226DT     BB396485  29.591  48.923  61.402
30226DT     SC196486  29.788  48.753  61.374
30226DT     SC296487  29.785  48.612  61.537
30226DT     SC396488  30.031  48.659  61.331
30227DA     BB196489  29.172  48.975  61.426
30227DA     BB296490  29.296  48.862  61.752
30227DA     BB396491  29.417  49.013  61.842
30227DA     SC196492  29.683  48.908  61.718
30227DA     SC296493  29.892  48.797  61.796
30227DA     SC396494  29.995  48.882  61.577
30227DA     SC496495  29.729  48.971  61.577
30228DA     BB196496  29.207  48.960  62.094
30228DA     BB296497  29.502  48.888  62.300
30228DA     BB396498  29.610  49.068  62.340
30228DA     SC196499  29.793  49.042  62.090
30228DA     SC296500  30.033  48.995  62.042
30228DA     SC396501  29.988  49.103  61.814
30228DA     SC496502  29.745  49.114  61.955
30229DC     BB196503  29.627  49.179  62.540
30229DC     BB296504  29.974  49.107  62.608
30229DC     BB396505  30.087  49.279  62.585
30229DC     SC196506  30.071  49.263  62.323
30229DC     SC296507  30.264  49.213  62.242
30229DC     SC396508  30.011  49.326  62.074
30230DA     BB196509  30.208  49.239  62.999
30230DA     BB296510  30.518  49.299  62.812
30230DA     BB396511  30.545  49.508  62.778
30230DA     SC196512  30.395  49.507  62.506
30230DA     SC296513  30.451  49.535  62.264
30230DA     SC396514  30.202  49.589  62.234
30230DA     SC496515  30.238  49.540  62.508
30231DA     BB196516  30.863  49.582  62.939
30231DA     BB296517  31.008  49.658  62.611
30231DA     BB396518  30.993  49.867  62.570
30231DA     SC196519  30.717  49.844  62.429
30231DA     SC296520  30.625  49.866  62.199
30231DA     SC396521  30.398  49.900  62.314
30231DA     SC496522  30.586  49.864  62.520
30232DC     BB196523  31.175  50.062  62.548
30232DC     BB296524  31.169  50.061  62.188
30232DC     BB396525  31.105  50.245  62.118
30232DC     SC196526  30.857  50.193  62.184
30232DC     SC296527  30.739  50.167  62.006
30232DC     SC396528  30.624  50.212  62.305
30233DC     BB196529  31.360  50.329  62.025
30233DC     BB296530  31.152  50.328  61.730
30233DC     BB396531  31.070  50.515  61.701
30233DC     SC196532  30.899  50.479  61.897
30233DC     SC296533  30.701  50.460  61.816
30233DC     SC396534  30.775  50.512  62.127
30234DT     BB196535  31.232  50.541  61.488
30234DT     BB296536  30.898  50.569  61.355
30234DT     BB396537  30.833  50.766  61.367
30234DT     SC196538  30.796  50.746  61.626
30234DT     SC296539  30.585  50.751  61.669
30234DT     SC396540  30.823  50.788  61.885
30235DC     BB196541  30.853  50.752  61.106
30235DC     BB296542  30.508  50.836  61.173
30235DC     BB396543  30.490  51.039  61.207
30235DC     SC196544  30.596  51.017  61.446
30235DC     SC296545  30.445  51.054  61.594
30235DC     SC396546  30.765  51.047  61.646
30236DC     BB196547  30.365  51.035  60.975
30236DC     BB296548  30.130  51.179  61.208
30236DC     BB396549  30.169  51.380  61.233
30236DC     SC196550  30.379  51.328  61.382
30236DC     SC296551  30.339  51.386  61.585
30236DC     SC396552  30.631  51.317  61.461
30237DA     BB196553  29.762  51.325  61.149
30237DA     BB296554  29.790  51.553  61.435
30237DA     BB396555  29.865  51.743  61.371
30237DA     SC196556  30.163  51.667  61.417
30237DA     SC296557  30.347  51.729  61.574
30237DA     SC396558  30.505  51.636  61.393
30237DA     SC496559  30.245  51.607  61.292
30238DT     BB196560  29.743  51.902  61.382
30238DT     BB296561  29.903  52.067  61.660
30238DT     BB396562  30.014  52.228  61.593
30238DT     SC196563  30.201  52.070  61.498
30238DT     SC296564  30.379  52.091  61.616
30238DT     SC396565  30.360  51.949  61.325
30239DA     BB196566  29.767  52.388  61.892
30239DA     BB296567  30.108  52.508  61.956
30239DA     BB396568  30.160  52.661  61.817
30239DA     SC196569  30.281  52.465  61.608
30239DA     SC296570  30.506  52.408  61.518
30239DA     SC396571  30.378  52.308  61.319
30239DA     SC496572  30.183  52.410  61.493
30240DA     BB196573  30.227  52.839  62.087
30240DA     BB296574  30.573  52.861  61.968
30240DA     BB396575  30.589  53.006  61.813
30240DA     SC196576  30.536  52.802  61.584
30240DA     SC296577  30.663  52.696  61.398
30240DA     SC396578  30.433  52.649  61.294
30240DA     SC496579  30.384  52.784  61.535
30241DT     BB196580  30.698  53.180  61.843
30241DT     BB296581  30.983  53.088  61.642
30241DT     BB396582  30.981  53.195  61.464
30241DT     SC196583  30.787  53.047  61.368
30241DT     SC296584  30.862  52.924  61.208
30241DT     SC396585  30.550  52.978  61.275
30242DA     BB196586  31.360  53.250  61.634
30242DA     BB296587  31.407  53.150  61.285
30242DA     BB396588  31.357  53.311  61.154
30242DA     SC196589  31.059  53.228  61.125
30242DA     SC296590  30.910  53.135  60.949
30242DA     SC396591  30.717  53.227  61.092
30242DA     SC496592  30.953  53.293  61.228
30243DT     BB196593  31.505  53.395  61.044
30243DT     BB296594  31.410  53.249  60.728
30243DT     BB396595  31.320  53.391  60.608
30243DT     SC196596  31.099  53.382  60.750
30243DT     SC296597  30.943  53.291  60.633
30243DT     SC396598  30.902  53.458  60.908
30244DA     BB196599  31.624  53.206  60.387
30244DA     BB296600  31.318  53.204  60.185
30244DA     BB396601  31.276  53.400  60.114
30244DA     SC196602  31.099  53.477  60.358
30244DA     SC296603  30.858  53.520  60.405
30244DA     SC396604  30.941  53.643  60.614
30244DA     SC496605  31.171  53.550  60.482
30245DT     BB196606  31.286  53.425  59.920
30245DT     BB296607  30.931  53.441  59.860
30245DT     BB396608  30.873  53.638  59.829
30245DT     SC196609  30.895  53.692  60.085
30245DT     SC296610  30.700  53.726  60.168
30245DT     SC396611  30.981  53.802  60.309
30246DA     BB196612  30.724  53.397  59.520
30246DA     BB296613  30.449  53.603  59.648
30246DA     BB396614  30.476  53.807  59.590
30246DA     SC196615  30.637  53.883  59.845
30246DA     SC296616  30.603  54.022  60.050
30246DA     SC396617  30.859  54.021  60.068
30246DA     SC496618  30.797  53.872  59.838
30247DC     BB196619  30.342  53.869  59.474
30247DC     BB296620  30.169  54.077  59.712
30247DC     BB396621  30.223  54.275  59.685
30247DC     SC196622  30.457  54.234  59.797
30247DC     SC296623  30.464  54.334  59.988
30247DC     SC396624  30.719  54.216  59.827
30248DT     BB196625  29.978  54.313  59.590
30248DT     BB296626  30.009  54.546  59.863
30248DT     BB396627  30.103  54.719  59.799
30248DT     SC196628  30.336  54.599  59.793
30248DT     SC296629  30.461  54.677  59.950
30248DT     SC396630  30.561  54.497  59.700
30249DA     BB196631  29.749  54.826  59.998
30249DA     BB296632  30.022  55.034  60.129
30249DA     BB396633  30.082  55.178  59.983
30249DA     SC196634  30.299  54.995  59.856
30249DA     SC296635  30.548  54.985  59.843
30249DA     SC396636  30.511  54.833  59.640
30249DA     SC496637  30.255  54.903  59.731
30250DG     BB196638  29.999  55.377  60.207
30250DG     BB296639  30.350  55.463  60.196
30250DG     BB396640  30.385  55.585  60.043
30250DG     SC196641  30.442  55.359  59.845
30250DG     SC296642  30.706  55.300  59.717
30250DG     SC396643  30.491  55.137  59.596
30250DG     SC496644  30.320  55.295  59.762
30251DC     BB196645  30.460  55.806  60.063
30251DC     BB296646  30.804  55.776  59.959
30251DC     BB396647  30.828  55.857  59.771
30251DC     SC196648  30.711  55.651  59.658
30251DC     SC296649  30.857  55.538  59.548
30251DC     SC396650  30.535  55.509  59.523
30252DT     BB196651  30.959  56.087  59.863
30252DT     BB296652  31.189  55.948  59.621
30252DT     BB396653  31.150  56.026  59.434
30252DT     SC196654  30.935  55.877  59.408
30252DT     SC296655  30.970  55.727  59.257
30252DT     SC396656  30.681  55.810  59.380
30253DT     BB196657  31.375  56.196  59.428
30253DT     BB296658  31.412  55.998  59.129
30253DT     BB396659  31.320  56.093  58.970
30253DT     SC196660  31.081  56.028  59.058
30253DT     SC296661  30.994  55.882  58.927
30253DT     SC396662  30.836  56.053  59.153
30254DT     BB196663  31.560  56.175  58.847
30254DT     BB296664  31.392  55.987  58.589
30254DT     BB396665  31.274  56.113  58.475
30254DT     SC196666  31.095  56.132  58.665
30254DT     SC296667  30.915  56.030  58.604
30254DT     SC396668  30.942  56.237  58.852
30255DA     BB196669  31.514  55.917  58.192
30255DA     BB296670  31.167  55.891  58.076
30255DA     BB396671  31.104  56.076  57.991
30255DA     SC196672  30.993  56.189  58.259
30255DA     SC296673  30.771  56.242  58.360
30255DA     SC396674  30.902  56.392  58.521
30255DA     SC496675  31.092  56.277  58.349
30256DG     BB196676  31.061  55.921  57.722
30256DG     BB296677  30.713  56.001  57.779
30256DG     BB396678  30.673  56.182  57.706
30256DG     SC196679  30.742  56.330  57.965
30256DG     SC296680  30.550  56.477  58.139
30256DG     SC396681  30.829  56.526  58.225
30256DG     SC496682  30.893  56.377  57.989
30257DA     BB196683  30.411  56.032  57.537
30257DA     BB296684  30.172  56.248  57.713
30257DA     BB396685  30.171  56.443  57.627
30257DA     SC196686  30.392  56.554  57.816
30257DA     SC296687  30.409  56.716  58.005
30257DA     SC396688  30.660  56.722  57.950
30257DA     SC496689  30.545  56.545  57.766
30258DG     BB196690  29.875  56.373  57.578
30258DG     BB296691  29.821  56.645  57.809
30258DG     BB396692  29.832  56.819  57.713
30258DG     SC196693  30.133  56.852  57.757
30258DG     SC296694  30.264  57.061  57.925
30258DG     SC396695  30.465  56.911  57.768
30258DG     SC496696  30.234  56.790  57.650
30259DG     BB196697  29.532  56.870  57.826
30259DG     BB296698  29.673  57.152  58.003
30259DG     BB396699  29.690  57.308  57.880
30259DG     SC196700  29.972  57.235  57.785
30259DG     SC296701  30.220  57.391  57.840
30259DG     SC396702  30.272  57.174  57.645
30259DG     SC496703  29.989  57.137  57.660
30260DA     BB196704  29.528  57.468  58.138
30260DA     BB296705  29.807  57.705  58.161
30260DA     BB396706  29.803  57.840  57.996
30260DA     SC196707  29.985  57.663  57.816
30260DA     SC296708  30.217  57.671  57.724
30260DA     SC396709  30.132  57.500  57.552
30260DA     SC496710  29.913  57.559  57.718
30261DA     BB196711  29.818  58.044  58.252
30261DA     BB296712  30.129  58.172  58.105
30261DA     BB396713  30.086  58.286  57.930
30261DA     SC196714  30.108  58.044  57.736
30261DA     SC296715  30.262  57.964  57.557
30261DA     SC396716  30.064  57.821  57.479
30261DA     SC496717  29.973  57.964  57.702
30262DA     BB196718  30.268  58.508  58.094
30262DA     BB296719  30.495  58.506  57.806
30262DA     BB396720  30.408  58.610  57.642
30262DA     SC196721  30.273  58.357  57.521
30262DA     SC296722  30.299  58.211  57.321
30262DA     SC396723  30.058  58.137  57.368
30262DA     SC496724  30.122  58.325  57.566
30263DT     BB196725  30.486  58.794  57.571
30263DT     BB296726  30.630  58.669  57.265
30263DT     BB396727  30.516  58.729  57.104
30263DT     SC196728  30.329  58.554  57.160
30263DT     SC296729  30.328  58.400  57.010
30263DT     SC396730  30.095  58.454  57.228
30264DT     BB196731  30.695  58.929  57.011
30264DT     BB296732  30.649  58.716  56.723
30264DT     BB396733  30.491  58.786  56.609
30264DT     SC196734  30.315  58.695  56.781
30264DT     SC296735  30.209  58.529  56.695
30264DT     SC396736  30.122  58.693  56.961
30265DG     BB196737  30.802  58.811  56.341
30265DG     BB296738  30.528  58.622  56.201
30265DG     BB396739  30.391  58.745  56.126
30265DG     SC196740  30.232  58.768  56.387
30265DG     SC296741  29.956  58.665  56.434
30265DG     SC396742  30.047  58.831  56.661
30265DG     SC496743  30.273  58.881  56.493
30266DC     BB196744  30.327  58.763  55.894
30266DC     BB296745  30.013  58.586  55.904
30266DC     BB396746  29.856  58.719  55.879
30266DC     SC196747  29.884  58.809  56.124
30266DC     SC296748  29.716  58.747  56.243
30266DC     SC396749  29.931  58.975  56.324
30267DT     BB196750  29.809  58.622  55.628
30267DT     BB296751  29.500  58.568  55.807
30267DT     BB396752  29.379  58.735  55.792
30267DT     SC196753  29.528  58.868  55.963
30267DT     SC296754  29.418  58.896  56.145
30267DT     SC396755  29.689  59.052  56.061
30268DT     BB196756  29.231  58.578  55.643
30268DT     BB296757  29.020  58.680  55.917
30268DT     BB396758  28.939  58.867  55.878
30268DT     SC196759  29.168  58.985  55.928
30268DT     SC296760  29.151  59.097  56.111
30268DT     SC396761  29.388  59.125  55.891
30269DT     BB196762  28.724  58.722  55.865
30269DT     BB296763  28.662  58.967  56.123
30269DT     BB396764  28.610  59.148  56.037
30269DT     SC196765  28.858  59.195  55.965
30269DT     SC296766  28.936  59.357  56.083
30269DT     SC396767  29.068  59.237  55.812
30270DA     BB196768  28.362  59.024  56.357
30270DA     BB296769  28.450  59.377  56.402
30270DA     BB396770  28.361  59.496  56.249
30270DA     SC196771  28.604  59.473  56.057
30270DA     SC296772  28.784  59.621  55.967
30270DA     SC396773  28.808  59.446  55.781
30270DA     SC496774  28.603  59.353  55.949
30271DG     BB196775  28.242  59.625  56.503
30271DG     BB296776  28.416  59.916  56.378
30271DG     BB396777  28.315  59.996  56.226
30271DG     SC196778  28.457  59.828  56.013
30271DG     SC296779  28.642  59.932  55.802
30271DG     SC396780  28.577  59.648  55.755
30271DG     SC496781  28.397  59.685  55.974
30272DA     BB196782  28.329  60.304  56.391
30272DA     BB296783  28.497  60.455  56.102
30272DA     BB396784  28.356  60.491  55.946
30272DA     SC196785  28.400  60.214  55.811
30272DA     SC296786  28.501  60.124  55.601
30272DA     SC396787  28.359  59.915  55.645
30272DA     SC496788  28.303  60.093  55.855
30273DT     BB196789  28.301  60.687  55.885
30273DT     BB296790  28.480  60.690  55.572
30273DT     BB396791  28.348  60.674  55.414
30273DT     SC196792  28.309  60.419  55.462
30273DT     SC296793  28.397  60.303  55.303
30273DT     SC396794  28.187  60.193  55.525
30274DG     BB196795  28.540  61.028  55.346
30274DG     BB296796  28.554  60.815  55.054
30274DG     BB396797  28.382  60.826  54.954
30274DG     SC196798  28.249  60.597  55.106
30274DG     SC296799  28.172  60.332  54.992
30274DG     SC396800  28.065  60.364  55.266
30274DG     SC496801  28.169  60.629  55.241
30275DT     BB196802  28.370  60.906  54.742
30275DT     BB296803  28.326  60.602  54.554
30275DT     BB396804  28.130  60.586  54.490
30275DT     SC196805  28.048  60.523  54.732
30275DT     SC296806  27.986  60.317  54.734
30275DT     SC396807  27.922  60.538  54.963
30276DA     BB196808  28.386  60.526  54.164
30276DA     BB296809  28.139  60.255  54.166
30276DA     BB396810  27.947  60.329  54.108
30276DA     SC196811  27.858  60.397  54.398
30276DA     SC296812  27.693  60.312  54.565
30276DA     SC396813  27.718  60.541  54.676
30276DA     SC496814  27.886  60.546  54.451
30277DA     BB196815  27.988  60.074  53.906
30277DA     BB296816  27.681  59.937  54.052
30277DA     BB396817  27.511  60.047  53.987
30277DA     SC196818  27.520  60.249  54.224
30277DA     SC296819  27.385  60.301  54.426
30277DA     SC396820  27.502  60.529  54.421
30277DA     SC496821  27.603  60.385  54.202
30278DA     BB196822  27.408  59.745  53.903
30278DA     BB296823  27.121  59.801  54.125
30278DA     BB396824  26.984  59.937  54.035
30278DA     SC196825  27.115  60.190  54.160
30278DA     SC296826  27.058  60.361  54.333
30278DA     SC396827  27.236  60.506  54.219
30278DA     SC496828  27.228  60.266  54.074
30279DT     BB196829  26.785  59.881  53.964
30279DT     BB296830  26.595  60.045  54.224
30279DT     BB396831  26.500  60.212  54.147
30279DT     SC196832  26.726  60.346  54.142
30279DT     SC296833  26.721  60.502  54.290
30279DT     SC396834  26.934  60.479  54.047
30280DC     BB196835  26.227  60.112  54.124
30280DC     BB296836  26.187  60.411  54.322
30280DC     BB396837  26.143  60.571  54.200
30280DC     SC196838  26.391  60.585  54.116
30280DC     SC296839  26.483  60.764  54.193
30280DC     SC396840  26.599  60.579  53.954
30281DT     BB196841  25.850  60.607  54.244
30281DT     BB296842  25.984  60.932  54.325
30281DT     BB396843  25.970  61.057  54.161
30281DT     SC196844  26.170  60.936  54.042
30281DT     SC296845  26.340  61.067  54.035
30281DT     SC396846  26.304  60.795  53.863
30282DT     BB196847  25.753  61.219  54.254
30282DT     BB296848  26.017  61.457  54.194
30282DT     BB396849  26.001  61.534  54.002
30282DT     SC196850  26.093  61.311  53.898
30282DT     SC296851  26.289  61.347  53.816
30282DT     SC396852  26.102  61.089  53.757
30283DT     BB196853  25.912  61.781  54.092
30283DT     BB296854  26.210  61.857  53.904
30283DT     BB396855  26.162  61.891  53.705
30283DT     SC196856  26.125  61.635  53.662
30283DT     SC296857  26.282  61.561  53.535
30283DT     SC396858  26.004  61.408  53.603
30284DG     BB196859  26.350  62.226  53.843
30284DG     BB296860  26.509  62.099  53.543
30284DG     BB396861  26.404  62.152  53.383
30284DG     SC196862  26.226  61.903  53.386
30284DG     SC296863  26.224  61.686  53.180
30284DG     SC396864  26.001  61.652  53.371
30284DG     SC496865  26.091  61.905  53.472
30285DT     BB196866  26.492  62.283  53.227
30285DT     BB296867  26.556  62.046  52.963
30285DT     BB396868  26.414  62.067  52.814
30285DT     SC196869  26.231  61.949  52.960
30285DT     SC296870  26.184  61.757  52.875
30285DT     SC396871  26.009  61.914  53.099
30286DA     BB196872  26.790  62.084  52.630
30286DA     BB296873  26.585  61.843  52.444
30286DA     BB396874  26.439  61.945  52.326
30286DA     SC196875  26.222  61.941  52.548
30286DA     SC296876  26.003  61.828  52.590
30286DA     SC396877  25.961  62.018  52.759
30286DA     SC496878  26.214  62.067  52.647
30287DT     BB196879  26.453  61.936  52.122
30287DT     BB296880  26.179  61.705  52.073
30287DT     BB396881  26.015  61.805  51.997
30287DT     SC196882  25.963  61.915  52.229
30287DT     SC296883  25.782  61.831  52.309
30287DT     SC396884  25.929  62.100  52.414
30288DA     BB196885  26.091  61.474  51.754
30288DA     BB296886  25.735  61.470  51.843
30288DA     BB396887  25.630  61.621  51.735
30288DA     SC196888  25.670  61.839  51.953
30288DA     SC296889  25.530  61.962  52.119
30288DA     SC396890  25.721  62.134  52.122
30288DA     SC496891  25.799  61.935  51.940
30289DA     BB196892  25.463  61.350  51.678
30289DA     BB296893  25.181  61.520  51.840
30289DA     BB396894  25.104  61.673  51.713
30289DA     SC196895  25.289  61.895  51.828
30289DA     SC296896  25.265  62.100  51.968
30289DA     SC396897  25.492  62.169  51.869
30289DA     SC496898  25.429  61.921  51.754
30290DA     BB196899  24.858  61.486  51.815
30290DA     BB296900  24.721  61.794  51.957
30290DA     BB396901  24.661  61.928  51.802
30290DA     SC196902  24.936  62.072  51.787
30290DA     SC296903  25.031  62.296  51.843
30290DA     SC396904  25.220  62.234  51.681
30290DA     SC496905  25.044  62.016  51.681
30291DG     BB196906  24.414  61.879  51.976
30291DG     BB296907  24.444  62.235  52.028
30291DG     BB396908  24.386  62.333  51.864
30291DG     SC196909  24.665  62.335  51.737
30291DG     SC296910  24.834  62.576  51.689
30291DG     SC396911  24.952  62.337  51.560
30291DG     SC496912  24.709  62.212  51.645
30292DC     BB196913  24.230  62.456  51.894
30292DC     BB296914  24.378  62.784  51.867
30292DC     BB396915  24.354  62.857  51.675
30292DC     SC196916  24.540  62.697  51.582
30292DC     SC296917  24.712  62.813  51.525
30292DC     SC396918  24.655  62.505  51.443
30293DA     BB196919  24.216  63.154  51.939
30293DA     BB296920  24.430  63.316  51.689
30293DA     BB396921  24.331  63.323  51.500
30293DA     SC196922  24.445  63.050  51.403
30293DA     SC296923  24.608  62.968  51.233
30293DA     SC396924  24.489  62.742  51.258
30293DA     SC496925  24.357  62.918  51.432
30294DA     BB196926  24.387  63.650  51.510
30294DA     BB296927  24.579  63.613  51.199
30294DA     BB396928  24.447  63.593  51.033
30294DA     SC196929  24.434  63.282  51.049
30294DA     SC296930  24.514  63.087  50.915
30294DA     SC396931  24.334  62.954  51.040
30294DA     SC496932  24.316  63.217  51.135
30295DG     BB196933  24.564  63.860  50.904
30295DG     BB296934  24.675  63.639  50.641
30295DG     BB396935  24.531  63.616  50.506
30295DG     SC196936  24.405  63.374  50.645
30295DG     SC296937  24.399  63.095  50.541
30295DG     SC396938  24.230  63.120  50.782
30295DG     SC496939  24.293  63.399  50.757
30296DA     BB196940  24.745  63.711  50.242
30296DA     BB296941  24.702  63.384  50.082
30296DA     BB396942  24.518  63.378  49.973
30296DA     SC196943  24.351  63.270  50.212
30296DA     SC296944  24.236  63.058  50.275
30296DA     SC396945  24.103  63.203  50.439
30296DA     SC496946  24.279  63.377  50.306
30297DA     BB196947  24.709  63.291  49.717
30297DA     BB296948  24.525  62.974  49.709
30297DA     BB396949  24.335  63.001  49.615
30297DA     SC196950  24.185  63.067  49.879
30297DA     SC296951  24.015  62.960  50.027
30297DA     SC396952  23.974  63.197  50.117
30297DA     SC496953  24.173  63.222  49.921
30298DT     BB196954  24.294  62.909  49.432
30298DT     BB296955  24.078  62.651  49.562
30298DT     BB396956  23.881  62.692  49.511
30298DT     SC196957  23.866  62.883  49.690
30298DT     SC296958  23.735  62.821  49.849
30298DT     SC396959  23.838  63.123  49.795
30299DT     BB196960  23.886  62.487  49.332
30299DT     BB296961  23.613  62.408  49.555
30299DT     BB396962  23.439  62.499  49.489
30299DT     SC196963  23.521  62.734  49.573
30299DT     SC296964  23.403  62.796  49.741
30299DT     SC396965  23.599  62.986  49.567
30300DG     BB196966  23.366  62.099  49.509
30300DG     BB296967  23.117  62.288  49.691
30300DG     BB396968  22.986  62.368  49.564
30300DG     SC196969  23.144  62.627  49.526
30300DG     SC296970  23.059  62.899  49.614
30300DG     SC396971  23.301  62.914  49.444
30300DG     SC496972  23.255  62.634  49.411
30301DT     BB196973  22.759  62.313  49.558
30301DT     BB296974  22.611  62.606  49.706
30301DT     BB396975  22.516  62.719  49.561
30301DT     SC196976  22.745  62.806  49.467
30301DT     SC296977  22.765  63.015  49.512
30301DT     SC396978  22.945  62.847  49.301
30302DG     BB196979  22.214  62.629  49.823
30302DG     BB296980  22.225  62.984  49.758
30302DG     BB396981  22.132  63.025  49.587
30302DG     SC196982  22.383  62.994  49.414
30302DG     SC296983  22.521  63.212  49.265
30302DG     SC396984  22.633  62.947  49.193
30302DG     SC496985  22.420  62.849  49.357
30303DA     BB196986  21.921  63.263  49.740
30303DA     BB296987  22.050  63.529  49.523
30303DA     BB396988  21.952  63.523  49.333
30303DA     SC196989  22.161  63.333  49.204
30303DA     SC296990  22.339  63.345  49.030
30303DA     SC396991  22.317  63.090  49.018
30303DA     SC496992  22.131  63.175  49.210
30304DC     BB196993  21.809  63.682  49.256
30304DC     BB296994  22.039  63.831  49.021
30304DC     BB396995  21.977  63.792  48.827
30304DC     SC196996  22.057  63.543  48.843
30304DC     SC296997  22.228  63.514  48.716
30304DC     SC396998  22.048  63.279  48.848
30305DA     BB196999  22.022  64.208  48.842
30305DA     BB297000  22.206  64.089  48.548
30305DA     BB397001  22.071  64.045  48.389
30305DA     SC197002  22.034  63.747  48.471
30305DA     SC297003  22.096  63.522  48.383
30305DA     SC397004  21.907  63.434  48.532
30305DA     SC497005  21.911  63.712  48.569
30306DG     BB197006  22.236  64.261  48.246
30306DG     BB297007  22.334  63.983  48.037
30306DG     BB397008  22.197  63.952  47.897
30306DG     SC197009  22.032  63.757  48.067
30306DG     SC297010  21.996  63.466  48.013
30306DG     SC397011  21.817  63.556  48.231
30306DG     SC497012  21.918  63.815  48.162
30307DT     BB197013  22.267  63.969  47.708
30307DT     BB297014  22.282  63.625  47.601
30307DT     BB397015  22.118  63.580  47.484
30307DT     SC197016  21.961  63.573  47.694
30307DT     SC297017  21.898  63.370  47.730
30307DT     SC397018  21.766  63.636  47.860
30308DA     BB197019  22.490  63.449  47.337
30308DA     BB297020  22.248  63.175  47.309
30308DA     BB397021  22.098  63.223  47.165
30308DA     SC197022  21.907  63.355  47.371
30308DA     SC297023  21.686  63.306  47.476
30308DA     SC397024  21.678  63.557  47.529
30308DA     SC497025  21.919  63.514  47.394
30309DC     BB197026  22.122  63.103  47.054
30309DC     BB297027  21.813  62.922  47.102
30309DC     BB397028  21.666  63.000  46.978
30309DC     SC197029  21.639  63.212  47.130
30309DC     SC297030  21.448  63.204  47.229
30309DC     SC397031  21.640  63.464  47.207
30310DT     BB197032  21.694  62.774  46.845
30310DT     BB297033  21.339  62.801  46.903
30310DT     BB397034  21.254  62.927  46.762
30310DT     SC197035  21.352  63.139  46.880
30310DT     SC297036  21.193  63.252  46.969
30310DT     SC397037  21.495  63.358  46.919
30311DC     BB197038  21.141  62.719  46.619
30311DC     BB297039  20.865  62.945  46.668
30311DC     BB397040  20.860  63.085  46.515
30311DC     SC197041  21.065  63.214  46.617
30311DC     SC297042  20.999  63.404  46.693
30311DC     SC397043  21.306  63.317  46.639
30312DA     BB197044  20.467  62.932  46.469
30312DA     BB297045  20.438  63.298  46.461
30312DA     BB397046  20.497  63.373  46.270
30312DA     SC197047  20.795  63.410  46.351
30312DA     SC297048  20.952  63.599  46.393
30312DA     SC397049  21.138  63.427  46.353
30312DA     SC497050  20.896  63.289  46.321
30313DG     BB197051  20.205  63.498  46.192
30313DG     BB297052  20.378  63.815  46.204
30313DG     BB397053  20.452  63.859  46.024
30313DG     SC197054  20.720  63.719  46.074
30313DG     SC297055  20.986  63.853  46.095
30313DG     SC397056  21.016  63.559  46.086
30313DG     SC497057  20.734  63.564  46.038
30314DT     BB197058  20.392  64.049  45.866
30314DT     BB297059  20.676  64.265  45.918
30314DT     BB397060  20.795  64.268  45.749
30314DT     SC197061  20.889  64.029  45.802
30314DT     SC297062  21.096  64.044  45.858
30314DT     SC397063  20.941  63.771  45.777
30315DA     BB197064  20.716  64.674  45.820
30315DA     BB297065  21.079  64.639  45.781
30315DA     BB397066  21.130  64.615  45.575
30315DA     SC197067  21.112  64.305  45.580
30315DA     SC297068  21.268  64.111  45.566
30315DA     SC397069  21.060  63.974  45.503
30315DA     SC497070  20.971  64.238  45.542
30316DT     BB197071  21.240  64.763  45.473
30316DT     BB297072  21.552  64.584  45.468
30316DT     BB397073  21.592  64.515  45.277
30316DT     SC197074  21.412  64.326  45.299
30316DT     SC297075  21.510  64.135  45.308
30316DT     SC397076  21.194  64.184  45.253
30317DG     BB197077  21.909  64.752  45.377
30317DG     BB297078  22.019  64.424  45.270
30317DG     BB397079  22.017  64.413  45.072
30317DG     SC197080  21.727  64.314  45.056
30317DG     SC297081  21.640  64.044  44.963
30317DG     SC397082  21.407  64.224  45.000
30317DG     SC497083  21.609  64.421  45.048
30318DA     BB197084  22.346  64.305  45.091
30318DA     BB297085  22.251  63.988  44.932
30318DA     BB397086  22.228  64.015  44.721
30318DA     SC197087  21.925  64.083  44.739
30318DA     SC297088  21.708  63.977  44.676
30318DA     SC397089  21.611  64.214  44.690
30318DA     SC497090  21.884  64.238  44.752
30319DG     BB197091  22.455  63.804  44.706
30319DG     BB297092  22.194  63.603  44.558
30319DG     BB397093  22.176  63.646  44.364
30319DG     SC197094  21.970  63.869  44.407
30319DG     SC297095  21.685  63.863  44.320
30319DG     SC397096  21.759  64.132  44.419
30319DG     SC497097  22.022  64.018  44.433
30320DT     BB197098  22.212  63.491  44.220
30320DT     BB297099  21.874  63.411  44.121
30320DT     BB397100  21.833  63.495  43.937
30320DT     SC197101  21.812  63.735  44.041
30320DT     SC297102  21.607  63.799  44.033
30320DT     SC397103  21.863  63.989  44.091
30321DA     BB197104  21.726  63.089  43.957
30321DA     BB297105  21.441  63.279  43.825
30321DA     BB397106  21.484  63.350  43.628
30321DA     SC197107  21.604  63.620  43.725
30321DA     SC297108  21.543  63.862  43.719
30321DA     SC397109  21.793  63.905  43.760
30321DA     SC497110  21.763  63.626  43.749
30322DC     BB197111  21.369  63.273  43.522
30322DC     BB297112  21.166  63.565  43.459
30322DC     BB397113  21.228  63.658  43.284
30322DC     SC197114  21.441  63.755  43.402
30322DC     SC297115  21.422  63.968  43.421
30322DC     SC397116  21.695  63.798  43.460
30323DA     BB197117  20.811  63.602  43.286
30323DA     BB297118  20.882  63.947  43.186
30323DA     BB397119  20.971  63.952  42.992
30323DA     SC197120  21.263  63.935  43.099
30323DA     SC297121  21.463  64.084  43.114
30323DA     SC397122  21.597  63.866  43.142
30323DA     SC497123  21.329  63.789  43.114
30324DT     BB197124  20.864  64.035  42.860
30324DT     BB297125  21.060  64.337  42.827
30324DT     BB397126  21.182  64.324  42.660
30324DT     SC197127  21.344  64.157  42.782
30324DT     SC297128  21.532  64.256  42.820
30324DT     SC397129  21.478  63.937  42.837
30325DC     BB197130  21.025  64.504  42.532
30325DC     BB297131  21.356  64.647  42.522
30325DC     BB397132  21.460  64.574  42.359
30325DC     SC197133  21.497  64.342  42.477
30325DC     SC297134  21.705  64.319  42.526
30325DC     SC397135  21.482  64.083  42.524
30326DA     BB197136  21.487  64.992  42.336
30326DA     BB297137  21.825  64.856  42.297
30326DA     BB397138  21.847  64.767  42.104
30326DA     SC197139  21.757  64.484  42.196
30326DA     SC297140  21.860  64.260  42.231
30326DA     SC397141  21.620  64.170  42.215
30326DA     SC497142  21.601  64.448  42.182
30327DT     BB197143  21.975  64.853  41.980
30327DT     BB297144  22.235  64.604  42.010
30327DT     BB397145  22.237  64.484  41.842
30327DT     SC197146  22.020  64.357  41.921
30327DT     SC297147  22.071  64.156  41.976
30327DT     SC397148  21.772  64.269  41.924
30328DT     BB197149  22.465  64.603  41.780
30328DT     BB297150  22.544  64.251  41.800
30328DT     BB397151  22.498  64.158  41.621
30328DT     SC197152  22.241  64.167  41.674
30328DT     SC297153  22.168  63.968  41.712
30328DT     SC397154  21.985  64.229  41.653
30329DT     BB197155  22.758  64.137  41.601
30329DT     BB297156  22.632  63.799  41.583
30329DT     BB397157  22.565  63.759  41.392
30329DT     SC197158  22.349  63.903  41.429
30329DT     SC297159  22.177  63.774  41.437
30329DT     SC397160  22.171  64.096  41.400
30330DT     BB197161  22.773  63.602  41.389
30330DT     BB297162  22.490  63.390  41.315
30330DT     BB397163  22.437  63.410  41.116
30330DT     SC197164  22.328  63.645  41.161
30330DT     SC297165  22.114  63.629  41.141
30330DT     SC397166  22.285  63.905  41.151
30331DA     BB197167  22.476  63.001  41.205
30331DA     BB297168  22.162  63.049  41.023
30331DA     BB397169  22.201  63.097  40.819
30331DA     SC197170  22.207  63.404  40.866
30331DA     SC297171  22.066  63.602  40.810
30331DA     SC397172  22.278  63.740  40.855
30331DA     SC497173  22.349  63.472  40.898
30332DC     BB197174  22.147  62.965  40.681
30332DC     BB297175  21.867  63.149  40.548
30332DC     BB397176  21.920  63.238  40.369
30332DC     SC197177  22.062  63.421  40.492
30332DC     SC297178  21.964  63.612  40.472
30332DC     SC397179  22.270  63.563  40.568
30333DT     BB197180  21.768  63.059  40.230
30333DT     BB297181  21.642  63.382  40.129
30333DT     BB397182  21.754  63.455  39.971
30333DT     SC197183  21.955  63.514  40.129
30333DT     SC297184  21.973  63.727  40.145
30333DT     SC397185  22.196  63.510  40.236
30334DC     BB197186  21.551  63.409  39.793
30334DC     BB297187  21.622  63.761  39.758
30334DC     BB397188  21.773  63.789  39.619
30334DC     SC197189  21.955  63.705  39.788
30334DC     SC297190  22.079  63.871  39.847
30334DC     SC397191  22.146  63.557  39.895
30335DT     BB197192  21.596  63.888  39.436
30335DT     BB297193  21.841  64.150  39.475
30335DT     BB397194  21.999  64.118  39.346
30335DT     SC197195  22.092  63.923  39.494
30335DT     SC297196  22.276  63.985  39.587
30335DT     SC397197  22.167  63.681  39.568
30336DA     BB197198  21.869  64.512  39.284
30336DA     BB297199  22.232  64.520  39.330
30336DA     BB397200  22.331  64.443  39.157
30336DA     SC197201  22.336  64.150  39.261
30336DA     SC297202  22.505  63.985  39.341
30336DA     SC397203  22.328  63.807  39.286
30336DA     SC497204  22.213  64.054  39.219
30337DT     BB197205  22.442  64.570  39.052
30337DT     BB297206  22.762  64.444  39.161
30337DT     BB397207  22.848  64.329  39.011
30337DT     SC197208  22.684  64.130  39.060
30337DT     SC297209  22.793  63.967  39.146
30337DT     SC397210  22.494  63.951  39.024
30338DT     BB197211  23.028  64.526  38.969
30338DT     BB297212  23.225  64.234  39.046
30338DT     BB397213  23.257  64.122  38.875
30338DT     SC197214  23.010  64.033  38.878
30338DT     SC297215  23.011  63.823  38.926
30338DT     SC397216  22.761  63.989  38.804
30339DA     BB197217  23.630  64.189  39.054
30339DA     BB297218  23.601  63.831  38.982
30339DA     BB397219  23.619  63.796  38.772
30339DA     SC197220  23.313  63.820  38.717
30339DA     SC297221  23.125  63.669  38.652
30339DA     SC397222  23.005  63.884  38.580
30339DA     SC497223  23.256  63.964  38.677
30340DT     BB197224  23.774  63.695  38.718
30340DT     BB297225  23.601  63.386  38.648
30340DT     BB397226  23.576  63.364  38.443
30340DT     SC197227  23.385  63.545  38.439
30340DT     SC297228  23.197  63.449  38.398
30340DT     SC397229  23.256  63.768  38.383
30341DT     BB197230  23.759  63.168  38.450
30341DT     BB297231  23.463  63.014  38.312
30341DT     BB397232  23.455  63.046  38.108
30341DT     SC197233  23.385  63.297  38.142
30341DT     SC297234  23.181  63.323  38.079
30341DT     SC397235  23.395  63.560  38.135
30342DC     BB197236  23.510  62.786  38.076
30342DC     BB297237  23.197  62.838  37.903
30342DC     BB397238  23.233  62.906  37.711
30342DC     SC197239  23.296  63.145  37.799
30342DC     SC297240  23.143  63.285  37.741
30342DC     SC397241  23.438  63.361  37.852
30343DA     BB197242  22.969  62.580  37.699
30343DA     BB297243  22.828  62.851  37.496
30343DA     BB397244  22.941  62.876  37.317
30343DA     SC197245  23.136  63.085  37.439
30343DA     SC297246  23.183  63.329  37.416
30343DA     SC397247  23.411  63.274  37.520
30343DA     SC497248  23.272  63.030  37.504
30344DG     BB197249  22.664  62.813  37.195
30344DG     BB297250  22.696  63.151  37.071
30344DG     BB397251  22.814  63.153  36.911
30344DG     SC197252  23.071  63.196  37.070
30344DG     SC297253  23.243  63.440  37.065
30344DG     SC397254  23.375  63.222  37.215
30344DG     SC497255  23.151  63.068  37.124
30345DT     BB197256  22.730  63.219  36.729
30345DT     BB297257  22.880  63.545  36.693
30345DT     BB397258  23.039  63.536  36.560
30345DT     SC197259  23.191  63.417  36.738
30345DT     SC297260  23.347  63.552  36.800
30345DT     SC397261  23.339  63.232  36.854
30346DA     BB197262  22.783  63.851  36.451
30346DA     BB297263  23.127  63.978  36.454
30346DA     BB397264  23.238  63.897  36.290
30346DA     SC197265  23.340  63.650  36.449
30346DA     SC297266  23.556  63.566  36.541
30346DA     SC397267  23.443  63.336  36.543
30346DA     SC497268  23.252  63.515  36.441
30347DA     BB197269  23.289  64.219  36.254
30347DA     BB297270  23.646  64.143  36.292
30347DA     BB397271  23.720  64.045  36.118
30347DA     SC197272  23.660  63.758  36.224
30347DA     SC297273  23.789  63.560  36.302
30347DA     SC397274  23.574  63.427  36.254
30347DA     SC497275  23.517  63.693  36.187
30348DT     BB197276  23.850  64.143  36.017
30348DT     BB297277  24.138  63.947  36.109
30348DT     BB397278  24.187  63.817  35.955
30348DT     SC197279  23.984  63.660  36.013
30348DT     SC297280  24.058  63.475  36.095
30348DT     SC397281  23.757  63.530  35.988
30349DC     BB197282  24.404  63.967  35.899
30349DC     BB297283  24.536  63.636  35.957
30349DC     BB397284  24.527  63.525  35.782
30349DC     SC197285  24.268  63.494  35.806
30349DC     SC297286  24.224  63.288  35.852
30349DC     SC397287  24.010  63.510  35.752
30350DT     BB197288  24.797  63.542  35.755
30350DT     BB297289  24.728  63.188  35.754
30350DT     BB397290  24.682  63.125  35.563
30350DT     SC197291  24.443  63.235  35.577
30350DT     SC297292  24.294  63.080  35.584
30350DT     SC397293  24.240  63.394  35.523
30351DA     BB197294  24.991  62.869  35.685
30351DA     BB297295  24.722  62.660  35.549
30351DA     BB397296  24.718  62.672  35.336
30351DA     SC197297  24.520  62.912  35.329
30351DA     SC297298  24.283  62.953  35.262
30351DA     SC397299  24.352  63.200  35.248
30351DA     SC497300  24.583  63.060  35.325
30352DT     BB197301  24.766  62.505  35.218
30352DT     BB297302  24.428  62.430  35.115
30352DT     BB397303  24.402  62.483  34.916
30352DT     SC197304  24.393  62.738  34.976
30352DT     SC297305  24.193  62.812  34.946
30352DT     SC397306  24.459  62.993  34.985
30353DT     BB197307  24.397  62.220  34.847
30353DT     BB297308  24.083  62.353  34.727
30353DT     BB397309  24.108  62.432  34.537
30353DT     SC197310  24.231  62.643  34.633
30353DT     SC297311  24.106  62.816  34.610
30353DT     SC397312  24.422  62.819  34.681
30354DT     BB197313  23.968  62.225  34.437
30354DT     BB297314  23.788  62.517  34.328
30354DT     BB397315  23.870  62.589  34.152
30354DT     SC197316  24.077  62.688  34.280
30354DT     SC297317  24.067  62.903  34.277
30354DT     SC397318  24.327  62.726  34.355
30355DT     BB197319  23.651  62.502  34.020
30355DT     BB297320  23.668  62.855  33.946
30355DT     BB397321  23.793  62.887  33.784
30355DT     SC197322  24.006  62.844  33.930
30355DT     SC297323  24.114  63.029  33.956
30355DT     SC397324  24.228  62.733  34.019
30356DG     BB197325  23.430  63.042  33.681
30356DG     BB297326  23.695  63.284  33.633
30356DG     BB397327  23.793  63.244  33.465
30356DG     SC197328  23.996  63.059  33.599
30356DG     SC297329  24.289  63.112  33.629
30356DG     SC397330  24.223  62.834  33.709
30356DG     SC497331  23.962  62.903  33.612
30357DA     BB197332  23.740  63.575  33.368
30357DA     BB297333  24.102  63.630  33.350
30357DA     BB397334  24.182  63.544  33.172
30357DA     SC197335  24.242  63.268  33.302
30357DA     SC297336  24.442  63.135  33.368
30357DA     SC397337  24.284  62.933  33.363
30357DA     SC497338  24.128  63.155  33.291
30358DT     BB197339  24.261  63.666  33.021
30358DT     BB297340  24.608  63.592  33.088
30358DT     BB397341  24.684  63.469  32.940
30358DT     SC197342  24.556  63.261  33.037
30358DT     SC297343  24.698  63.123  33.122
30358DT     SC397344  24.388  63.059  33.054
30359DT     BB197345  24.832  63.673  32.831
30359DT     BB297346  25.075  63.418  32.911
30359DT     BB397347  25.095  63.287  32.752
30359DT     SC197348  24.865  63.173  32.806
30359DT     SC297349  24.899  62.974  32.879
30359DT     SC397350  24.615  63.093  32.778
30360DT     BB197351  25.339  63.392  32.707
30360DT     BB297352  25.397  63.041  32.765
30360DT     BB397353  25.373  62.935  32.589
30360DT     SC197354  25.112  62.957  32.602
30360DT     SC297355  25.026  62.765  32.643
30360DT     SC397356  24.865  63.026  32.538
30361DA     BB197357  25.737  62.834  32.769
30361DA     BB297358  25.561  62.524  32.685
30361DA     BB397359  25.563  62.493  32.474
30361DA     SC197360  25.295  62.644  32.424
30361DA     SC297361  25.061  62.588  32.357
30361DA     SC397362  25.042  62.836  32.294
30361DA     SC497363  25.304  62.800  32.390
30362DT     BB197364  25.656  62.342  32.434
30362DT     BB297365  25.374  62.135  32.347
30362DT     BB397366  25.350  62.131  32.141
30362DT     SC197367  25.251  62.374  32.140
30362DT     SC297368  25.042  62.366  32.091
30362DT     SC397369  25.227  62.632  32.090
30363DA     BB197370  25.345  61.742  32.300
30363DA     BB297371  25.063  61.776  32.069
30363DA     BB397372  25.133  61.789  31.867
30363DA     SC197373  25.154  62.099  31.869
30363DA     SC297374  25.038  62.293  31.763
30363DA     SC397375  25.251  62.425  31.818
30363DA     SC497376  25.296  62.164  31.910
30364DA     BB197377  24.915  61.544  31.836
30364DA     BB297378  24.745  61.753  31.588
30364DA     BB397379  24.857  61.760  31.407
30364DA     SC197380  25.020  62.012  31.489
30364DA     SC297381  25.036  62.251  31.422
30364DA     SC397382  25.266  62.247  31.535
30364DA     SC497383  25.161  61.988  31.562
30365DA     BB197384  24.574  61.659  31.266
30365DA     BB297385  24.583  61.965  31.065
30365DA     BB397386  24.727  61.947  30.909
30365DA     SC197387  24.960  62.066  31.078
30365DA     SC297388  25.098  62.274  31.082
30365DA     SC397389  25.266  62.135  31.218
30365DA     SC497390  25.053  61.962  31.160
30366DT     BB197391  24.679  61.934  30.691
30366DT     BB297392  24.787  62.268  30.604
30366DT     BB397393  24.961  62.259  30.492
30366DT     SC197394  25.103  62.202  30.705
30366DT     SC297395  25.230  62.369  30.754
30366DT     SC397396  25.259  62.068  30.871
30367DC     BB197397  24.847  62.318  30.236
30367DC     BB297398  25.101  62.571  30.276
30367DC     BB397399  25.279  62.507  30.192
30367DC     SC197400  25.323  62.342  30.392
30367DC     SC297401  25.489  62.413  30.508
30367DC     SC397402  25.359  62.117  30.525
30368DA     BB197403  25.213  62.876  30.005
30368DA     BB297404  25.554  62.881  30.139
30368DA     BB397405  25.684  62.767  30.014
30368DA     SC197406  25.640  62.501  30.168
30368DA     SC297407  25.771  62.351  30.318
30368DA     SC397408  25.599  62.172  30.255
30368DA     SC497409  25.524  62.403  30.116
30369DT     BB197410  25.837  62.863  29.909
30369DT     BB297411  26.103  62.756  30.127
30369DT     BB397412  26.219  62.613  30.033
30369DT     SC197413  26.034  62.430  30.067
30369DT     SC297414  26.102  62.285  30.210
30369DT     SC397415  25.849  62.250  30.010
30370DT     BB197416  26.405  62.800  30.028
30370DT     BB297417  26.548  62.528  30.217
30370DT     BB397418  26.628  62.388  30.088
30370DT     SC197419  26.390  62.299  30.023
30370DT     SC297420  26.363  62.102  30.103
30370DT     SC397421  26.178  62.242  29.876
30371DA     BB197422  26.885  62.498  30.401
30371DA     BB297423  26.873  62.132  30.382
30371DA     BB397424  26.970  62.064  30.205
30371DA     SC197425  26.712  62.070  30.031
30371DA     SC297426  26.559  61.905  29.923
30371DA     SC397427  26.486  62.102  29.775
30371DA     SC497428  26.681  62.204  29.949
30372DA     BB197429  27.089  61.896  30.459
30372DA     BB297430  26.974  61.598  30.280
30372DA     BB397431  27.088  61.569  30.102
30372DA     SC197432  26.898  61.737  29.922
30372DA     SC297433  26.736  61.696  29.737
30372DA     SC397434  26.765  61.945  29.684
30372DA     SC497435  26.930  61.893  29.904
30373DC     BB197436  27.177  61.417  30.118
30373DC     BB297437  26.989  61.226  29.876
30373DC     BB397438  27.085  61.231  29.693
30373DC     SC197439  27.008  61.478  29.650
30373DC     SC297440  26.862  61.481  29.492
30373DC     SC397441  27.020  61.738  29.610
30374DT     BB197442  27.143  60.976  29.737
30374DT     BB297443  26.976  60.978  29.417
30374DT     BB397444  27.111  61.026  29.268
30374DT     SC197445  27.112  61.278  29.339
30374DT     SC297446  27.015  61.396  29.187
30374DT     SC397447  27.200  61.511  29.426
30375DC     BB197448  27.109  60.768  29.181
30375DC     BB297449  27.027  60.961  28.887
30375DC     BB397450  27.200  61.023  28.792
30375DC     SC197451  27.245  61.205  28.976
30375DC     SC297452  27.216  61.400  28.890
30375DC     SC397453  27.362  61.336  29.172
30376DT     BB197454  27.176  60.840  28.583
30376DT     BB297455  27.206  61.158  28.415
30376DT     BB397456  27.406  61.200  28.380
30376DT     SC197457  27.446  61.259  28.633
30376DT     SC297458  27.480  61.471  28.652
30376DT     SC397459  27.541  61.247  28.878
30377DT     BB197460  27.401  61.145  28.103
30377DT     BB297461  27.530  61.482  28.120
30377DT     BB397462  27.736  61.478  28.131
30377DT     SC197463  27.729  61.401  28.382
30377DT     SC297464  27.799  61.561  28.507
30377DT     SC397465  27.762  61.252  28.597
30378DA     BB197466  27.673  61.727  27.797
30378DA     BB297467  27.909  61.901  28.018
30378DA     BB397468  28.104  61.817  27.999
30378DA     SC197469  28.063  61.608  28.226
30378DA     SC297470  28.148  61.568  28.457
30378DA     SC397471  28.069  61.326  28.422
30378DA     SC497472  28.009  61.463  28.185
30379DA     BB197473  28.214  62.123  27.926
30379DA     BB297474  28.419  62.107  28.229
30379DA     BB397475  28.598  61.997  28.192
30379DA     SC197476  28.476  61.723  28.275
30379DA     SC297477  28.500  61.558  28.461
30379DA     SC397478  28.394  61.390  28.299
30379DA     SC497479  28.410  61.633  28.159
30380DG     BB197480  28.755  62.259  28.264
30380DG     BB297481  28.866  62.062  28.546
30380DG     BB397482  29.025  61.954  28.495
30380DG     SC197483  28.862  61.713  28.401
30380DG     SC297484  28.856  61.444  28.530
30380DG     SC397485  28.714  61.439  28.270
30380DG     SC497486  28.813  61.707  28.249
30381DT     BB197487  29.236  61.979  28.592
30381DT     BB297488  29.244  61.691  28.809
30381DT     BB397489  29.374  61.550  28.733
30381DT     SC197490  29.204  61.481  28.545
30381DT     SC297491  29.130  61.284  28.585
30381DT     SC397492  29.101  61.445  28.306
30382DC     BB197493  29.548  61.605  28.934
30382DC     BB297494  29.481  61.253  28.968
30382DC     BB397495  29.611  61.144  28.849
30382DC     SC197496  29.481  61.212  28.631
30382DC     SC297497  29.381  61.039  28.551
30382DC     SC397498  29.430  61.319  28.396
30383DA     BB197499  29.625  60.985  29.236
30383DA     BB297500  29.580  60.707  29.001
30383DA     BB397501  29.761  60.669  28.895
30383DA     SC197502  29.693  60.863  28.661
30383DA     SC297503  29.633  60.846  28.419
30383DA     SC397504  29.707  61.091  28.405
30383DA     SC497505  29.744  61.014  28.672
30384DG     BB197506  29.737  60.389  29.026
30384DG     BB297507  29.702  60.281  28.683
30384DG     BB397508  29.881  60.263  28.599
30384DG     SC197509  29.890  60.553  28.499
30384DG     SC297510  29.885  60.640  28.213
30384DG     SC397511  29.942  60.868  28.392
30384DG     SC497512  29.949  60.666  28.595
30385DA     BB197513  29.786  59.943  28.506
30385DA     BB297514  29.833  60.029  28.153
30385DA     BB397515  30.041  60.029  28.103
30385DA     SC197516  30.082  60.330  28.170
30385DA     SC297517  30.127  60.542  28.046
30385DA     SC397518  30.208  60.633  28.272
30385DA     SC497519  30.129  60.368  28.319
30386DG     BB197520  29.958  59.808  27.903
30386DG     BB297521  30.061  60.054  27.658
30386DG     BB397522  30.258  60.046  27.634
30386DG     SC197523  30.319  60.250  27.854
30386DG     SC297524  30.434  60.523  27.814
30386DG     SC397525  30.422  60.455  28.102
30386DG     SC497526  30.338  60.199  28.004
30387DT     BB197527  30.337  59.996  27.440
30387DT     BB297528  30.454  60.317  27.324
30387DT     BB397529  30.660  60.328  27.342
30387DT     SC197530  30.643  60.358  27.602
30387DT     SC297531  30.702  60.559  27.654
30387DT     SC397532  30.671  60.310  27.859
30388DG     BB197533  30.545  60.402  26.959
30388DG     BB297534  30.760  60.663  27.087
30388DG     BB397535  30.949  60.600  27.090
30388DG     SC197536  30.933  60.484  27.373
30388DG     SC297537  31.078  60.586  27.613
30388DG     SC397538  30.944  60.329  27.672
30388DG     SC497539  30.885  60.333  27.392
30389DT     BB197540  31.073  60.711  26.977
30389DT     BB297541  31.268  60.889  27.222
30389DT     BB397542  31.448  60.791  27.253
30389DT     SC197543  31.331  60.602  27.392
30389DT     SC297544  31.389  60.619  27.599
30389DT     SC397545  31.244  60.363  27.463
30390DT     BB197546  31.550  61.000  27.130
30390DT     BB297547  31.726  60.981  27.445
30390DT     BB397548  31.878  60.842  27.432
30390DT     SC197549  31.707  60.643  27.445
30390DT     SC297550  31.729  60.542  27.634
30390DT     SC397551  31.569  60.429  27.376
30391DC     BB197552  32.052  61.045  27.432
30391DC     BB297553  32.162  60.832  27.702
30391DC     BB397554  32.282  60.680  27.629
30391DC     SC197555  32.074  60.553  27.530
30391DC     SC297556  32.041  60.373  27.642
30391DC     SC397557  31.910  60.445  27.354
30392DA     BB197558  32.513  60.855  27.934
30392DA     BB297559  32.528  60.491  27.980
30392DA     BB397560  32.654  60.403  27.832
30392DA     SC197561  32.423  60.356  27.628
30392DA     SC297562  32.299  60.163  27.532
30392DA     SC397563  32.235  60.324  27.343
30392DA     SC497564  32.396  60.471  27.519
30393DC     BB197565  32.851  60.309  27.873
30393DC     BB297566  32.746  59.966  27.827
30393DC     BB397567  32.827  59.891  27.652
30393DC     SC197568  32.657  60.028  27.506
30393DC     SC297569  32.517  59.893  27.414
30393DC     SC397570  32.564  60.203  27.332
30394DA     BB197571  32.958  59.607  27.935
30394DA     BB297572  32.809  59.420  27.657
30394DA     BB397573  32.944  59.414  27.491
30394DA     SC197574  32.833  59.674  27.360
30394DA     SC297575  32.702  59.737  27.158
30394DA     SC397576  32.798  59.972  27.193
30394DA     SC497577  32.905  59.813  27.398
30395DT     BB197578  33.046  59.229  27.416
30395DT     BB297579  32.840  59.188  27.123
30395DT     BB397580  32.950  59.229  26.953
30395DT     SC197581  32.940  59.487  26.999
30395DT     SC297582  32.815  59.581  26.852
30395DT     SC397583  33.020  59.733  27.053
30396DC     BB197584  32.973  58.961  26.873
30396DC     BB297585  32.816  59.123  26.592
30396DC     BB397586  32.960  59.191  26.460
30396DC     SC197587  33.023  59.390  26.619
30396DC     SC297588  32.959  59.575  26.530
30396DC     SC397589  33.165  59.544  26.779
30397DT     BB197590  32.902  58.994  26.273
30397DT     BB297591  32.851  59.304  26.096
30397DT     BB397592  33.028  59.365  26.008
30397DT     SC197593  33.126  59.441  26.239
30397DT     SC297594  33.141  59.656  26.243
30397DT     SC397595  33.284  59.452  26.450
30398DT     BB197596  32.930  59.302  25.761
30398DT     BB297597  33.011  59.653  25.740
30398DT     BB397598  33.209  59.677  25.684
30398DT     SC197599  33.293  59.607  25.922
30398DT     SC297600  33.378  59.779  26.021
30398DT     SC397601  33.414  59.470  26.112
30399DT     BB197602  33.116  59.765  25.449
30399DT     BB297603  33.314  60.036  25.581
30399DT     BB397604  33.513  60.008  25.533
30399DT     SC197605  33.539  59.819  25.713
30399DT     SC297606  33.664  59.890  25.874
30399DT     SC397607  33.580  59.581  25.819
30400DA     BB197608  33.380  60.395  25.441
30400DA     BB297609  33.692  60.420  25.632
30400DA     BB397610  33.857  60.353  25.515
30400DA     SC197611  33.836  60.058  25.610
30400DA     SC297612  33.968  59.900  25.752
30400DA     SC397613  33.839  59.715  25.630
30400DA     SC497614  33.747  59.957  25.522
30401DT     BB197615  33.966  60.491  25.490
30401DT     BB297616  34.229  60.381  25.712
30401DT     BB397617  34.376  60.283  25.604
30401DT     SC197618  34.225  60.070  25.576
30401DT     SC297619  34.306  59.909  25.693
30401DT     SC397620  34.081  59.881  25.462
30402DA     BB197621  34.542  60.574  25.859
30402DA     BB297622  34.731  60.262  25.898
30402DA     BB397623  34.844  60.222  25.721
30402DA     SC197624  34.620  60.054  25.586
30402DA     SC297625  34.578  59.816  25.526
30402DA     SC397626  34.404  59.909  25.362
30402DA     SC497627  34.517  60.132  25.489
30403DC     BB197628  35.035  60.228  25.743
30403DC     BB297629  35.098  59.874  25.720
30403DC     BB397630  35.166  59.826  25.530
30403DC     SC197631  34.925  59.854  25.428
30403DC     SC297632  34.850  59.661  25.369
30403DC     SC397633  34.727  59.948  25.282
30404DC     BB197634  35.422  59.786  25.621
30404DC     BB297635  35.337  59.477  25.455
30404DC     BB397636  35.382  59.490  25.254
30404DC     SC197637  35.175  59.644  25.208
30404DC     SC297638  35.029  59.535  25.093
30404DC     SC397639  35.033  59.856  25.141
30405DA     BB197640  35.580  59.142  25.382
30405DA     BB297641  35.389  59.056  25.081
30405DA     BB397642  35.486  59.133  24.908
30405DA     SC197643  35.333  59.404  24.913
30405DA     SC297644  35.158  59.520  24.778
30405DA     SC397645  35.244  59.735  24.889
30405DA     SC497646  35.401  59.526  24.991
30406DT     BB197647  35.571  59.005  24.762
30406DT     BB297648  35.310  59.048  24.516
30406DT     BB397649  35.380  59.163  24.359
30406DT     SC197650  35.367  59.382  24.502
30406DT     SC297651  35.209  59.507  24.427
30406DT     SC397652  35.443  59.599  24.632
30407DA     BB197653  35.208  58.813  24.206
30407DA     BB297654  35.062  59.099  24.029
30407DA     BB397655  35.205  59.183  23.895
30407DA     SC197656  35.318  59.385  24.102
30407DA     SC297657  35.317  59.631  24.140
30407DA     SC397658  35.522  59.589  24.289
30407DA     SC497659  35.445  59.338  24.189
30408DC     BB197660  35.146  59.165  23.725
30408DC     BB297661  35.054  59.511  23.676
30408DC     BB397662  35.204  59.610  23.575
30408DC     SC197663  35.355  59.616  23.789
30408DC     SC297664  35.370  59.818  23.861
30408DC     SC397665  35.559  59.571  23.951
30409DA     BB197666  34.819  59.679  23.418
30409DA     BB297667  34.991  60.001  23.458
30409DA     BB397668  35.153  60.016  23.320
30409DA     SC197669  35.362  59.894  23.516
30409DA     SC297670  35.560  59.971  23.646
30409DA     SC397671  35.625  59.723  23.655
30409DA     SC497672  35.386  59.735  23.509
30410DA     BB197673  34.975  60.290  23.290
30410DA     BB297674  35.285  60.467  23.373
30410DA     BB397675  35.428  60.443  23.217
30410DA     SC197676  35.555  60.187  23.339
30410DA     SC297677  35.770  60.122  23.447
30410DA     SC397678  35.704  59.881  23.387
30410DA     SC497679  35.497  60.045  23.292
30411DA     BB197680  35.425  60.771  23.247
30411DA     BB297681  35.784  60.746  23.318
30411DA     BB397682  35.891  60.698  23.140
30411DA     SC197683  35.874  60.390  23.184
30411DA     SC297684  36.028  60.203  23.242
30411DA     SC397685  35.847  60.050  23.142
30411DA     SC497686  35.750  60.312  23.117
30412DA     BB197687  36.064  60.967  23.220
30412DA     BB297688  36.359  60.751  23.238
30412DA     BB397689  36.426  60.700  23.042
30412DA     SC197690  36.253  60.442  23.024
30412DA     SC297691  36.289  60.195  23.022
30412DA     SC397692  36.055  60.182  22.917
30412DA     SC497693  36.107  60.455  22.959
30413DT     BB197694  36.607  60.769  22.974
30413DT     BB297695  36.785  60.456  23.000
30413DT     BB397696  36.814  60.376  22.811
30413DT     SC197697  36.562  60.303  22.795
30413DT     SC297698  36.549  60.089  22.804
30413DT     SC397699  36.312  60.290  22.711
30414DT     BB197700  37.074  60.435  22.834
30414DT     BB297701  37.064  60.079  22.777
30414DT     BB397702  37.055  60.040  22.574
30414DT     SC197703  36.803  60.111  22.564
30414DT     SC297704  36.681  59.938  22.528
30414DT     SC397705  36.585  60.246  22.500
30415DA     BB197706  37.358  59.813  22.755
30415DA     BB297707  37.155  59.590  22.546
30415DA     BB397708  37.189  59.631  22.339
30415DA     SC197709  36.959  59.840  22.318
30415DA     SC297710  36.735  59.858  22.211
30415DA     SC397711  36.765  60.111  22.238
30415DA     SC497712  36.997  59.995  22.343
30416DG     BB197713  37.265  59.334  22.364
30416DG     BB297714  36.988  59.296  22.133
30416DG     BB397715  37.044  59.352  21.951
30416DG     SC197716  36.963  59.644  21.989
30416DG     SC297717  36.741  59.785  21.846
30416DG     SC397718  36.904  59.976  22.002
30416DG     SC497719  37.069  59.747  22.050
30417DT     BB197720  37.037  59.207  21.803
30417DT     BB297721  36.760  59.312  21.598
30417DT     BB397722  36.829  59.418  21.434
30417DT     SC197723  36.879  59.629  21.582
30417DT     SC297724  36.741  59.786  21.533
30417DT     SC397725  37.014  59.820  21.704
30418DT     BB197726  36.782  59.210  21.257
30418DT     BB297727  36.613  59.490  21.104
30418DT     BB397728  36.744  59.595  20.984
30418DT     SC197729  36.863  59.701  21.193
30418DT     SC297730  36.818  59.911  21.202
30418DT     SC397731  37.051  59.759  21.369
30419DT     BB197732  36.674  59.504  20.706
30419DT     BB297733  36.661  59.863  20.674
30419DT     BB397734  36.842  59.934  20.604
30419DT     SC197735  36.956  59.897  20.838
30419DT     SC297736  36.999  60.088  20.927
30419DT     SC397737  37.119  59.802  21.022
30420DG     BB197738  36.662  60.064  20.236
30420DG     BB297739  36.843  60.340  20.382
30420DG     BB397740  37.030  60.342  20.315
30420DG     SC197741  37.138  60.162  20.538
30420DG     SC297742  37.330  60.244  20.752
30420DG     SC397743  37.286  59.951  20.756
30420DG     SC497744  37.135  60.003  20.518
30421DG     BB197745  37.077  60.654  20.131
30421DG     BB297746  37.299  60.756  20.398
30421DG     BB397747  37.488  60.727  20.343
30421DG     SC197748  37.501  60.441  20.451
30421DG     SC297749  37.668  60.347  20.680
30421DG     SC397750  37.545  60.118  20.539
30421DG     SC497751  37.458  60.320  20.355
30422DT     BB197752  37.671  60.900  20.312
30422DT     BB297753  37.841  60.853  20.627
30422DT     BB397754  38.029  60.772  20.595
30422DT     SC197755  37.926  60.536  20.543
30422DT     SC297756  37.976  60.401  20.703
30422DT     SC397757  37.861  60.317  20.412
30423DC     BB197758  38.143  61.010  20.664
30423DC     BB297759  38.272  60.772  20.902
30423DC     BB397760  38.442  60.682  20.827
30423DC     SC197761  38.302  60.535  20.662
30423DC     SC297762  38.311  60.329  20.726
30423DC     SC397763  38.208  60.435  20.437
30424DG     BB197764  38.521  60.857  21.187
30424DG     BB297765  38.614  60.507  21.183
30424DG     BB397766  38.784  60.484  21.083
30424DG     SC197767  38.648  60.442  20.812
30424DG     SC297768  38.647  60.190  20.653
30424DG     SC397769  38.534  60.413  20.497
30424DG     SC497770  38.616  60.570  20.722
30425DA     BB197771  38.876  60.312  21.367
30425DA     BB297772  38.931  60.012  21.164
30425DA     BB397773  39.110  60.031  21.050
30425DA     SC197774  38.969  60.158  20.803
30425DA     SC297775  38.914  60.093  20.569
30425DA     SC397776  38.891  60.345  20.526
30425DA     SC497777  38.961  60.318  20.797
30426DA     BB197778  39.161  59.746  21.200
30426DA     BB297779  39.174  59.597  20.865
30426DA     BB397780  39.358  59.648  20.769
30426DA     SC197781  39.246  59.906  20.637
30426DA     SC297782  39.189  59.986  20.408
30426DA     SC397783  39.207  60.222  20.508
30426DA     SC497784  39.264  60.044  20.718
30427DG     BB197785  39.389  59.341  20.767
30427DG     BB297786  39.368  59.390  20.409
30427DG     BB397787  39.545  59.445  20.338
30427DG     SC197788  39.495  59.744  20.374
30427DG     SC297789  39.466  59.945  20.155
30427DG     SC397790  39.480  60.078  20.419
30427DG     SC497791  39.532  59.813  20.514
30428DA     BB197792  39.475  59.189  20.123
30428DA     BB297793  39.494  59.426  19.844
30428DA     BB397794  39.697  59.481  19.807
30428DA     SC197795  39.691  59.726  19.998
30428DA     SC297796  39.697  59.974  19.980
30428DA     SC397797  39.770  59.970  20.226
30428DA     SC497798  39.737  59.702  20.151
30429DT     BB197799  39.724  59.425  19.649
30429DT     BB297800  39.725  59.748  19.489
30429DT     BB397801  39.918  59.820  19.475
30429DT     SC197802  39.923  59.878  19.731
30429DT     SC297803  39.923  60.092  19.756
30429DT     SC397804  39.993  59.874  19.985
30430DT     BB197805  39.829  59.782  19.242
30430DT     BB297806  39.924  60.130  19.262
30430DT     BB397807  40.131  60.146  19.267
30430DT     SC197808  40.139  60.065  19.516
30430DT     SC297809  40.197  60.229  19.643
30430DT     SC397810  40.194  59.916  19.727
30431DT     BB197811  40.063  60.252  19.044
30431DT     BB297812  40.260  60.500  19.216
30431DT     BB397813  40.460  60.447  19.211
30431DT     SC197814  40.424  60.260  19.391
30431DT     SC297815  40.520  60.318  19.574
30431DT     SC397816  40.413  60.020  19.501
30432DT     BB197817  40.483  60.650  19.044
30432DT     BB297818  40.732  60.710  19.299
30432DT     BB397819  40.901  60.597  19.260
30432DT     SC197820  40.783  60.377  19.339
30432DT     SC297821  40.871  60.311  19.524
30432DT     SC397822  40.679  60.135  19.332
30433DA     BB197823  41.055  60.988  19.297
30433DA     BB297824  41.272  60.767  19.493
30433DA     BB397825  41.398  60.653  19.364
30433DA     SC197826  41.198  60.415  19.340
30433DA     SC297827  41.184  60.178  19.416
30433DA     SC397828  41.011  60.150  19.229
30433DA     SC497829  41.094  60.418  19.218
30434DA     BB197830  41.668  60.771  19.526
30434DA     BB297831  41.749  60.426  19.620
30434DA     BB397832  41.847  60.326  19.459
30434DA     SC197833  41.583  60.218  19.334
30434DA     SC297834  41.470  59.997  19.305
30434DA     SC397835  41.337  60.113  19.118
30434DA     SC497836  41.512  60.307  19.221
30435DG     BB197837  42.104  60.286  19.640
30435DG     BB297838  42.022  59.935  19.609
30435DG     BB397839  42.105  59.861  19.444
30435DG     SC197840  41.866  59.925  19.264
30435DG     SC297841  41.686  59.726  19.133
30435DG     SC397842  41.630  60.000  19.035
30435DG     SC497843  41.859  60.068  19.193
30436DA     BB197844  42.242  59.612  19.642
30436DA     BB297845  42.062  59.357  19.451
30436DA     BB397846  42.160  59.320  19.265
30436DA     SC197847  41.998  59.535  19.109
30436DA     SC297848  41.823  59.541  18.931
30436DA     SC397849  41.899  59.783  18.894
30436DA     SC497850  42.061  59.683  19.099
30437DT     BB197851  42.235  59.142  19.244
30437DT     BB297852  41.988  59.017  19.013
30437DT     BB397853  42.065  59.016  18.821
30437DT     SC197854  42.041  59.276  18.802
30437DT     SC297855  41.886  59.324  18.660
30437DT     SC397856  42.107  59.530  18.776
30438DA     BB197857  41.901  58.638  18.903
30438DA     BB297858  41.779  58.746  18.575
30438DA     BB397859  41.937  58.738  18.431
30438DA     SC197860  42.029  59.031  18.479
30438DA     SC297861  42.026  59.248  18.356
30438DA     SC397862  42.212  59.319  18.518
30438DA     SC497863  42.145  59.056  18.588
30439DA     BB197864  41.715  58.555  18.267
30439DA     BB297865  41.736  58.802  17.997
30439DA     BB397866  41.920  58.780  17.891
30439DA     SC197867  42.076  58.980  18.070
30439DA     SC297868  42.176  59.208  18.049
30439DA     SC397869  42.318  59.142  18.253
30439DA     SC497870  42.156  58.920  18.196
30440DT     BB197871  41.935  58.708  17.682
30440DT     BB297872  42.019  59.024  17.530
30440DT     BB397873  42.218  59.025  17.472
30440DT     SC197874  42.298  59.052  17.721
30440DT     SC297875  42.382  59.248  17.748
30440DT     SC397876  42.415  58.997  17.951
30441DG     BB197877  42.059  59.070  17.090
30441DG     BB297878  42.309  59.324  17.148
30441DG     BB397879  42.489  59.254  17.102
30441DG     SC197880  42.546  59.144  17.382
30441DG     SC297881  42.754  59.245  17.570
30441DG     SC397882  42.633  58.995  17.671
30441DG     SC497883  42.500  58.995  17.418
30442DG     BB197884  42.573  59.475  16.851
30442DG     BB297885  42.838  59.593  17.067
30442DG     BB397886  43.006  59.494  17.029
30442DG     SC197887  42.949  59.271  17.232
30442DG     SC297888  43.103  59.219  17.482
30442DG     SC397889  42.910  59.001  17.430
30442DG     SC497890  42.866  59.143  17.185
30443DA     BB197891  43.182  59.792  16.980
30443DA     BB297892  43.400  59.716  17.264
30443DA     BB397893  43.557  59.584  17.204
30443DA     SC197894  43.399  59.325  17.272
30443DA     SC297895  43.409  59.142  17.441
30443DA     SC397896  43.268  59.008  17.273
30443DA     SC497897  43.313  59.258  17.154
30444DT     BB197898  43.750  59.654  17.208
30444DT     BB297899  43.850  59.478  17.507
30444DT     BB397900  43.977  59.322  17.459
30444DT     SC197901  43.777  59.179  17.366
30444DT     SC297902  43.742  59.012  17.497
30444DT     SC397903  43.625  59.045  17.197
30445DA     BB197904  44.139  59.555  17.765
30445DA     BB297905  44.158  59.203  17.867
30445DA     BB397906  44.308  59.102  17.754
30445DA     SC197907  44.112  59.013  17.528
30445DA     SC297908  44.010  58.802  17.445
30445DA     SC397909  43.970  58.931  17.227
30445DA     SC497910  44.098  59.110  17.400
30446DG     BB197911  44.402  59.061  18.042
30446DG     BB297912  44.347  58.713  17.960
30446DG     BB397913  44.497  58.645  17.849
30446DG     SC197914  44.367  58.721  17.582
30446DG     SC297915  44.270  58.531  17.374
30446DG     SC397916  44.263  58.809  17.274
30446DG     SC497917  44.392  58.868  17.523
30447DT     BB197918  44.617  58.486  17.926
30447DT     BB297919  44.518  58.205  17.723
30447DT     BB397920  44.659  58.171  17.575
30447DT     SC197921  44.577  58.380  17.438
30447DT     SC297922  44.481  58.313  17.257
30447DT     SC397923  44.580  58.615  17.319
30448DT     BB197924  44.754  57.946  17.703
30448DT     BB297925  44.677  57.829  17.371
30448DT     BB397926  44.841  57.855  17.247
30448DT     SC197927  44.799  58.114  17.233
30448DT     SC297928  44.734  58.165  17.035
30448DT     SC397929  44.839  58.373  17.260
30449DT     BB197930  44.923  57.581  17.238
30449DT     BB297931  44.893  57.669  16.890
30449DT     BB397932  45.075  57.735  16.818
30449DT     SC197933  45.050  57.965  16.942
30449DT     SC297934  45.019  58.121  16.797
30449DT     SC397935  45.097  58.163  17.109
30450DA     BB197936  45.001  57.423  16.543
30450DA     BB297937  45.093  57.717  16.344
30450DA     BB397938  45.305  57.743  16.344
30450DA     SC197939  45.306  57.927  16.595
30450DA     SC297940  45.349  58.167  16.648
30450DA     SC397941  45.386  58.086  16.889
30450DA     SC497942  45.326  57.857  16.738
30451DC     BB197943  45.437  57.718  16.165
30451DC     BB297944  45.489  58.071  16.108
30451DC     BB397945  45.685  58.122  16.152
30451DC     SC197946  45.638  58.106  16.410
30451DC     SC297947  45.645  58.304  16.496
30451DC     SC397948  45.652  58.025  16.661
30452DA     BB197949  45.617  58.263  15.764
30452DA     BB297950  45.755  58.540  15.961
30452DA     BB397951  45.964  58.512  15.991
30452DA     SC197952  45.929  58.355  16.258
30452DA     SC297953  45.972  58.393  16.501
30452DA     SC397954  45.963  58.137  16.521
30452DA     SC497955  45.921  58.195  16.249
30453DG     BB197956  45.976  58.781  15.841
30453DG     BB297957  46.098  58.898  16.161
30453DG     BB397958  46.292  58.858  16.179
30453DG     SC197959  46.248  58.582  16.305
30453DG     SC297960  46.317  58.504  16.584
30453DG     SC397961  46.236  58.268  16.426
30453DG     SC497962  46.232  58.455  16.209
30454DG     BB197963  46.321  59.177  16.225
30454DG     BB297964  46.439  59.090  16.555
30454DG     BB397965  46.630  59.036  16.547
30454DG     SC197966  46.570  58.740  16.499
30454DG     SC297967  46.628  58.516  16.687
30454DG     SC397968  46.541  58.412  16.425
30454DG     SC497969  46.551  58.688  16.348
30455DT     BB197970  46.760  59.152  16.657
30455DT     BB297971  46.836  58.934  16.935
30455DT     BB397972  47.018  58.840  16.903
30455DT     SC197973  46.913  58.679  16.724
30455DT     SC297974  46.908  58.479  16.803
30455DT     SC397975  46.868  58.562  16.493
30456DA     BB197976  46.995  59.011  17.287
30456DA     BB297977  47.116  58.666  17.319
30456DA     BB397978  47.313  58.649  17.240
30456DA     SC197979  47.218  58.576  16.953
30456DA     SC297980  47.219  58.377  16.803
30456DA     SC397981  47.185  58.546  16.612
30456DA     SC497982  47.199  58.697  16.848
30457DT     BB197983  47.439  58.606  17.370
30457DT     BB297984  47.494  58.264  17.270
30457DT     BB397985  47.667  58.250  17.156
30457DT     SC197986  47.548  58.358  16.948
30457DT     SC297987  47.524  58.209  16.795
30457DT     SC397988  47.492  58.529  16.756
30458DT     BB197989  47.777  58.126  17.365
30458DT     BB297990  47.815  57.897  17.089
30458DT     BB397991  47.984  57.945  16.979
30458DT     SC197992  47.864  58.152  16.871
30458DT     SC297993  47.829  58.114  16.663
30458DT     SC397994  47.809  58.403  16.809
30459DA     BB197995  48.002  57.536  17.072
30459DA     BB297996  48.072  57.575  16.714
30459DA     BB397997  48.265  57.662  16.686
30459DA     SC197998  48.160  57.955  16.684
30459DA     SC297999  48.132  58.140  16.520
30459DA     SC398000  48.123  58.293  16.725
30459DA     SC498001  48.158  58.033  16.825
30460DT     BB198002  48.399  57.549  16.600
30460DT     BB298003  48.402  57.715  16.280
30460DT     BB398004  48.568  57.838  16.266
30460DT     SC198005  48.461  58.015  16.427
30460DT     SC298006  48.411  58.193  16.316
30460DT     SC398007  48.425  58.168  16.639
30461DA     BB198008  48.579  57.596  15.923
30461DA     BB298009  48.628  57.943  15.815
30461DA     BB398010  48.825  58.009  15.864
30461DA     SC198011  48.745  58.120  16.143
30461DA     SC298012  48.721  58.343  16.254
30461DA     SC398013  48.739  58.212  16.474
30461DA     SC498014  48.759  58.021  16.269
30462DA     BB198015  48.839  58.083  15.543
30462DA     BB298016  48.887  58.432  15.642
30462DA     BB398017  49.088  58.464  15.708
30462DA     SC198018  49.027  58.400  16.006
30462DA     SC298019  49.014  58.524  16.222
30462DA     SC398020  49.042  58.293  16.332
30462DA     SC498021  49.047  58.248  16.055
30463DA     BB198022  49.074  58.700  15.481
30463DA     BB298023  49.134  58.938  15.754
30463DA     BB398024  49.340  58.934  15.812
30463DA     SC198025  49.299  58.715  16.028
30463DA     SC298026  49.304  58.698  16.277
30463DA     SC398027  49.337  58.447  16.239
30463DA     SC498028  49.321  58.562  15.984
30464DT     BB198029  49.446  59.099  15.778
30464DT     BB298030  49.463  59.210  16.121
30464DT     BB398031  49.651  59.172  16.199
30464DT     SC198032  49.599  58.915  16.219
30464DT     SC298033  49.583  58.862  16.427
30464DT     SC398034  49.615  58.655  16.179
30465DA     BB198035  49.544  59.570  16.273
30465DA     BB298036  49.666  59.424  16.586
30465DA     BB398037  49.877  59.394  16.577
30465DA     SC198038  49.855  59.105  16.464
30465DA     SC298039  49.899  58.872  16.543
30465DA     SC398040  49.906  58.811  16.294
30465DA     SC498041  49.857  59.087  16.304
30466DT     BB198042  49.976  59.500  16.699
30466DT     BB298043  50.068  59.237  16.928
30466DT     BB398044  50.263  59.177  16.893
30466DT     SC198045  50.192  59.049  16.675
30466DT     SC298046  50.211  58.837  16.708
30466DT     SC398047  50.176  58.982  16.421
30467DA     BB198048  50.229  59.259  17.304
30467DA     BB298049  50.399  58.936  17.267
30467DA     BB398050  50.598  58.965  17.196
30467DA     SC198051  50.520  58.944  16.896
30467DA     SC298052  50.554  58.785  16.707
30467DA     SC398053  50.499  58.985  16.555
30467DA     SC498054  50.485  59.081  16.818
30468DT     BB198055  50.762  58.922  17.317
30468DT     BB298056  50.870  58.623  17.147
30468DT     BB398057  51.040  58.662  17.036
30468DT     SC198058  50.900  58.790  16.854
30468DT     SC298059  50.897  58.675  16.672
30468DT     SC398060  50.813  58.987  16.701
30469DA     BB198061  51.166  58.337  17.273
30469DA     BB298062  51.261  58.260  16.927
30469DA     BB398063  51.434  58.372  16.872
30469DA     SC198064  51.272  58.614  16.761
30469DA     SC298065  51.224  58.717  16.539
30469DA     SC398066  51.164  58.928  16.674
30469DA     SC498067  51.241  58.735  16.862
30470DA     BB198068  51.589  58.085  16.793
30470DA     BB298069  51.607  58.204  16.446
30470DA     BB398070  51.772  58.337  16.422
30470DA     SC198071  51.608  58.592  16.489
30470DA     SC298072  51.522  58.793  16.369
30470DA     SC398073  51.505  58.900  16.602
30470DA     SC498074  51.606  58.641  16.642
30471DT     BB198075  51.953  58.292  16.299
30471DT     BB298076  51.860  58.504  16.022
30471DT     BB398077  51.986  58.668  16.013
30471DT     SC198078  51.868  58.780  16.219
30471DT     SC298079  51.759  58.953  16.153
30471DT     SC398080  51.833  58.880  16.460
30472DA     BB198081  51.985  58.491  15.634
30472DA     BB298082  51.913  58.848  15.592
30472DA     BB398083  52.090  58.963  15.621
30472DA     SC198084  52.046  59.002  15.926
30472DA     SC298085  51.987  59.188  16.082
30472DA     SC398086  52.087  59.038  16.265
30472DA     SC498087  52.113  58.895  16.025
30473DC     BB198088  52.143  59.054  15.465
30473DC     BB298089  52.035  59.382  15.570
30473DC     BB398090  52.197  59.492  15.635
30473DC     SC198091  52.210  59.356  15.859
30473DC     SC298092  52.152  59.483  16.023
30473DC     SC398093  52.303  59.197  16.048
30474DA     BB198094  51.954  59.702  15.364
30474DA     BB298095  52.018  59.916  15.655
30474DA     BB398096  52.223  59.976  15.659
30474DA     SC198097  52.315  59.734  15.831
30474DA     SC298098  52.398  59.693  16.063
30474DA     SC398099  52.492  59.474  15.969
30474DA     SC498100  52.367  59.603  15.754
30475DT     BB198101  52.230  60.152  15.641
30475DT     BB298102  52.323  60.231  15.980
30475DT     BB398103  52.528  60.254  15.994
30475DT     SC198104  52.566  59.995  15.978
30475DT     SC298105  52.635  59.921  16.167
30475DT     SC398106  52.645  59.761  15.886
30476DG     BB198107  52.340  60.588  16.132
30476DG     BB298108  52.585  60.464  16.368
30476DG     BB398109  52.768  60.506  16.303
30476DG     SC198110  52.799  60.246  16.145
30476DG     SC298111  52.990  60.025  16.206
30476DG     SC398112  52.859  59.982  15.945
30476DG     SC498113  52.750  60.242  15.992
30477DG     BB198114  52.822  60.672  16.584
30477DG     BB298115  53.088  60.435  16.646
30477DG     BB398116  53.251  60.488  16.545
30477DG     SC198117  53.178  60.329  16.294
30477DG     SC298118  53.324  60.091  16.188
30477DG     SC398119  53.120  60.184  15.995
30477DG     SC498120  53.089  60.399  16.181
30478DA     BB198121  53.438  60.473  16.842
30478DA     BB298122  53.658  60.219  16.695
30478DA     BB398123  53.797  60.310  16.561
30478DA     SC198124  53.614  60.279  16.311
30478DA     SC298125  53.610  60.146  16.100
30478DA     SC398126  53.449  60.326  16.014
30478DA     SC498127  53.517  60.402  16.275
30479DA     BB198128  54.035  60.163  16.742
30479DA     BB298129  54.129  59.978  16.441
30479DA     BB398130  54.245  60.101  16.311
30479DA     SC198131  53.999  60.209  16.153
30479DA     SC298132  53.902  60.185  15.925
30479DA     SC398133  53.778  60.403  15.978
30479DA     SC498134  53.932  60.345  16.205
30480DC     BB198135  54.454  60.063  16.269
30480DC     BB298136  54.402  59.930  15.938
30480DC     BB398137  54.470  60.065  15.796
30480DC     SC198138  54.261  60.220  15.834
30480DC     SC298139  54.135  60.213  15.660
30480DC     SC398140  54.118  60.432  15.898
30481DA     BB198141  54.659  59.702  15.706
30481DA     BB298142  54.505  59.826  15.398
30481DA     BB398143  54.620  59.988  15.317
30481DA     SC198144  54.462  60.208  15.470
30481DA     SC298145  54.301  60.391  15.417
30481DA     SC398146  54.370  60.490  15.643
30481DA     SC498147  54.519  60.254  15.614
30482DT     BB198148  54.711  59.959  15.139
30482DT     BB298149  54.481  60.157  14.944
30482DT     BB398150  54.568  60.337  14.892
30482DT     SC198151  54.539  60.430  15.136
30482DT     SC298152  54.391  60.586  15.135
30482DT     SC398153  54.600  60.523  15.375
30483DA     BB198154  54.411  60.156  14.549
30483DA     BB298155  54.293  60.503  14.560
30483DA     BB398156  54.453  60.637  14.514
30483DA     SC198157  54.542  60.671  14.810
30483DA     SC298158  54.540  60.849  14.984
30483DA     SC398159  54.723  60.711  15.099
30483DA     SC498160  54.656  60.572  14.865
30484DT     BB198161  54.427  60.733  14.353
30484DT     BB298162  54.349  61.051  14.506
30484DT     BB398163  54.515  61.175  14.499
30484DT     SC198164  54.633  61.041  14.691
30484DT     SC298165  54.641  61.162  14.868
30484DT     SC398166  54.810  60.891  14.816
30485DG     BB198167  54.199  61.358  14.319
30485DG     BB298168  54.349  61.568  14.572
30485DG     BB398169  54.519  61.646  14.504
30485DG     SC198170  54.694  61.414  14.602
30485DG     SC298171  54.900  61.430  14.817
30485DG     SC398172  54.912  61.169  14.678
30485DG     SC498173  54.716  61.288  14.506
30486DA     BB198174  54.377  61.940  14.613
30486DA     BB298175  54.665  61.994  14.834
30486DA     BB398176  54.836  62.051  14.720
30486DA     SC198177  54.937  61.759  14.680
30486DA     SC298178  55.126  61.617  14.758
30486DA     SC398179  55.072  61.470  14.554
30486DA     SC498180  54.889  61.681  14.547
30487DA     BB198181  54.820  62.286  14.946
30487DA     BB298182  55.156  62.179  15.049
30487DA     BB398183  55.300  62.237  14.903
30487DA     SC198184  55.278  61.972  14.740
30487DA     SC298185  55.419  61.772  14.694
30487DA     SC398186  55.267  61.737  14.491
30487DA     SC498187  55.173  61.968  14.619
30488DC     BB198188  55.425  62.365  14.965
30488DC     BB298189  55.710  62.145  14.987
30488DC     BB398190  55.833  62.171  14.823
30488DC     SC198191  55.666  62.040  14.668
30488DC     SC298192  55.753  61.852  14.611
30488DC     SC398193  55.495  61.991  14.473
30489DA     BB198194  56.068  62.197  15.169
30489DA     BB298195  56.238  61.973  14.934
30489DA     BB398196  56.318  62.084  14.770
30489DA     SC198197  56.063  62.056  14.595
30489DA     SC298198  55.994  61.938  14.386
30489DA     SC398199  55.804  62.110  14.375
30489DA     SC498200  55.952  62.173  14.605
30490DT     BB198201  56.516  62.092  14.752
30490DT     BB298202  56.547  61.875  14.465
30490DT     BB398203  56.579  61.988  14.295
30490DT     SC198204  56.328  62.065  14.288
30490DT     SC298205  56.230  61.974  14.120
30490DT     SC398206  56.117  62.222  14.294
30491DG     BB198207  56.908  61.745  14.314
30491DG     BB298208  56.756  61.730  13.986
30491DG     BB398209  56.811  61.887  13.878
30491DG     SC198210  56.578  62.063  13.970
30491DG     SC298211  56.354  62.162  13.799
30491DG     SC398212  56.347  62.290  14.065
30491DG     SC498213  56.595  62.152  14.103
30492DG     BB198214  56.950  61.700  13.639
30492DG     BB298215  56.704  61.839  13.414
30492DG     BB398216  56.769  62.012  13.340
30492DG     SC198217  56.649  62.181  13.565
30492DG     SC298218  56.426  62.378  13.537
30492DG     SC398219  56.548  62.395  13.806
30492DG     SC498220  56.735  62.208  13.697
30493DT     BB198221  56.818  62.058  13.111
30493DT     BB298222  56.532  62.258  13.019
30493DT     BB398223  56.589  62.456  12.997
30493DT     SC198224  56.607  62.489  13.257
30493DT     SC298225  56.448  62.618  13.324
30493DT     SC398226  56.711  62.535  13.494
30494DT     BB198227  56.569  62.448  12.720
30494DT     BB298228  56.347  62.716  12.816
30494DT     BB398229  56.451  62.895  12.824
30494DT     SC198230  56.568  62.827  13.049
30494DT     SC298231  56.492  62.950  13.208
30494DT     SC398232  56.758  62.764  13.221
30495DA     BB198233  56.118  62.963  12.578
30495DA     BB298234  56.130  63.232  12.828
30495DA     BB398235  56.286  63.370  12.781
30495DA     SC198236  56.502  63.221  12.948
30495DA     SC298237  56.631  63.259  13.158
30495DA     SC398238  56.794  63.085  13.065
30495DA     SC498239  56.592  63.112  12.872
30496DA     BB198240  56.036  63.581  12.803
30496DA     BB298241  56.219  63.738  13.079
30496DA     BB398242  56.380  63.856  13.004
30496DA     SC198243  56.587  63.623  13.015
30496DA     SC298244  56.789  63.562  13.148
30496DA     SC398245  56.846  63.406  12.952
30496DA     SC498246  56.605  63.534  12.883
30497DC     BB198247  56.371  64.054  13.030
30497DC     BB298248  56.619  64.074  13.292
30497DC     BB398249  56.795  64.151  13.216
30497DC     SC198250  56.851  63.924  13.095
30497DC     SC298251  57.019  63.831  13.192
30497DC     SC398252  56.898  63.751  12.902
30498DA     BB198253  56.692  64.371  13.557
30498DA     BB298254  57.043  64.270  13.589
30498DA     BB398255  57.165  64.383  13.455
30498DA     SC198256  57.140  64.179  13.221
30498DA     SC298257  57.287  64.017  13.102
30498DA     SC398258  57.113  64.030  12.913
30498DA     SC498259  57.022  64.202  13.115
30499DT     BB198260  57.295  64.505  13.538
30499DT     BB298261  57.590  64.309  13.467
30499DT     BB398262  57.693  64.392  13.308
30499DT     SC198263  57.516  64.303  13.136
30499DT     SC298264  57.605  64.147  13.017
30499DT     SC398265  57.328  64.302  12.951
30500DA     BB198266  57.959  64.330  13.626
30500DA     BB298267  58.110  64.191  13.322
30500DA     BB398268  58.173  64.348  13.192
30500DA     SC198269  57.903  64.362  13.037
30500DA     SC298270  57.818  64.306  12.810
30500DA     SC398271  57.625  64.466  12.866
30500DA     SC498272  57.792  64.466  13.090
30501DT     BB198273  58.360  64.356  13.167
30501DT     BB298274  58.366  64.227  12.829
30501DT     BB398275  58.386  64.383  12.695
30501DT     SC198276  58.137  64.457  12.729
30501DT     SC298277  58.025  64.415  12.551
30501DT     SC398278  57.928  64.604  12.795
30502DA     BB198279  58.670  64.085  12.610
30502DA     BB298280  58.504  64.178  12.297
30502DA     BB398281  58.564  64.374  12.236
30502DA     SC198282  58.334  64.519  12.387
30502DA     SC298283  58.127  64.645  12.331
30502DA     SC398284  58.145  64.741  12.567
30502DA     SC498285  58.364  64.569  12.537
30503DT     BB198286  58.663  64.378  12.074
30503DT     BB298287  58.406  64.522  11.866
30503DT     BB398288  58.440  64.725  11.841
30503DT     SC198289  58.358  64.776  12.085
30503DT     SC298290  58.171  64.881  12.077
30503DT     SC398291  58.362  64.854  12.337
30504DA     BB198292  58.394  64.567  11.455
30504DA     BB298293  58.184  64.867  11.479
30504DA     BB398294  58.306  65.042  11.478
30504DA     SC198295  58.335  65.052  11.788
30504DA     SC298296  58.257  65.196  11.976
30504DA     SC398297  58.451  65.093  12.108
30504DA     SC498298  58.462  64.978  11.853
30505DG     BB198299  58.159  65.132  11.212
30505DG     BB298300  58.043  65.406  11.418
30505DG     BB398301  58.180  65.550  11.422
30505DG     SC198302  58.326  65.438  11.666
30505DG     SC298303  58.341  65.566  11.936
30505DG     SC398304  58.522  65.333  11.920
30505DG     SC498305  58.443  65.331  11.645
30506DA     BB198306  57.949  65.797  11.316
30506DA     BB298307  57.999  65.985  11.627
30506DA     BB398308  58.177  66.102  11.616
30506DA     SC198309  58.359  65.879  11.734
30506DA     SC298310  58.487  65.838  11.944
30506DA     SC398311  58.621  65.669  11.805
30506DA     SC498312  58.432  65.780  11.631
30507DT     BB198313  58.183  66.326  11.610
30507DT     BB298314  58.289  66.367  11.952
30507DT     BB398315  58.485  66.436  11.958
30507DT     SC198316  58.578  66.199  11.892
30507DT     SC298317  58.681  66.114  12.060
30507DT     SC398318  58.698  66.010  11.754
30508DA     BB198319  58.267  66.706  12.192
30508DA     BB298320  58.552  66.590  12.392
30508DA     BB398321  58.731  66.685  12.326
30508DA     SC198322  58.801  66.463  12.119
30508DA     SC298323  58.972  66.283  12.092
30508DA     SC398324  58.909  66.290  11.843
30508DA     SC498325  58.749  66.483  11.968
30509DT     BB198326  58.817  66.802  12.457
30509DT     BB298327  59.079  66.572  12.548
30509DT     BB398328  59.258  66.631  12.461
30509DT     SC198329  59.180  66.546  12.225
30509DT     SC298330  59.294  66.372  12.170
30509DT     SC398331  59.109  66.549  11.971
30510DT     BB198332  59.314  66.675  12.710
30510DT     BB298333  59.553  66.430  12.595
30510DT     BB398334  59.704  66.523  12.488
30510DT     SC198335  59.546  66.557  12.281
30510DT     SC298336  59.611  66.430  12.120
30510DT     SC398337  59.404  66.679  12.095
30511DA     BB198338  59.832  66.244  12.777
30511DA     BB298339  60.006  66.177  12.462
30511DA     BB398340  60.140  66.337  12.416
30511DA     SC198341  59.930  66.498  12.252
30511DA     SC298342  59.889  66.561  12.014
30511DA     SC398343  59.741  66.747  12.109
30511DA     SC498344  59.843  66.609  12.331
30512DG     BB198345  60.308  66.080  12.423
30512DG     BB298346  60.365  66.171  12.078
30512DG     BB398347  60.487  66.328  12.068
30512DG     SC198348  60.261  66.535  12.078
30512DG     SC298349  60.183  66.720  11.857
30512DG     SC398350  60.041  66.788  12.107
30512DG     SC498351  60.210  66.587  12.220
30513DG     BB198352  60.680  66.139  11.882
30513DG     BB298353  60.637  66.390  11.625
30513DG     BB398354  60.755  66.546  11.662
30513DG     SC198355  60.547  66.694  11.831
30513DG     SC298356  60.414  66.951  11.759
30513DG     SC398357  60.352  66.875  12.038
30513DG     SC498358  60.541  66.665  11.988
30514DT     BB198359  60.930  66.612  11.527
30514DT     BB298360  60.799  66.913  11.378
30514DT     BB398361  60.885  67.079  11.466
30514DT     SC198362  60.739  67.049  11.683
30514DT     SC298363  60.596  67.208  11.695
30514DT     SC398364  60.676  67.006  11.935
30515DC     BB198365  61.067  67.151  11.255
30515DC     BB298366  60.880  67.454  11.309
30515DC     BB398367  60.978  67.574  11.446
30515DC     SC198368  60.905  67.420  11.645
30515DC     SC298369  60.761  67.524  11.767
30515DC     SC398370  60.921  67.254  11.850
30516DA     BB198371  60.949  67.845  11.123
30516DA     BB298372  60.819  68.018  11.419
30516DA     BB398373  60.980  68.090  11.540
30516DA     SC198374  60.997  67.832  11.713
30516DA     SC298375  60.948  67.763  11.948
30516DA     SC398376  61.105  67.566  11.902
30516DA     SC498377  61.099  67.717  11.665
30517DA     BB198378  60.840  68.388  11.511
30517DA     BB298379  60.780  68.375  11.872
30517DA     BB398380  60.956  68.431  11.979
30517DA     SC198381  61.066  68.141  11.999
30517DA     SC298382  61.101  67.969  12.176
30517DA     SC398383  61.266  67.862  12.012
30517DA     SC498384  61.165  68.091  11.884
30518DC     BB198385  60.942  68.595  12.084
30518DC     BB298386  60.906  68.429  12.403
30518DC     BB398387  61.082  68.444  12.510
30518DC     SC198388  61.199  68.265  12.359
30518DC     SC298389  61.231  68.085  12.473
30518DC     SC398390  61.369  68.156  12.189
30519DC     BB198391  60.916  68.583  12.648
30519DC     BB298392  61.027  68.315  12.862
30519DC     BB398393  61.216  68.356  12.935
30519DC     SC198394  61.326  68.299  12.703
30519DC     SC298395  61.439  68.117  12.720
30519DC     SC398396  61.458  68.331  12.477
30520DT     BB198397  61.044  68.340  13.119
30520DT     BB298398  61.298  68.093  13.188
30520DT     BB398399  61.475  68.186  13.241
30520DT     SC198400  61.522  68.255  12.992
30520DT     SC298401  61.689  68.142  12.917
30520DT     SC398402  61.561  68.406  12.780
30521DT     BB198403  61.394  68.057  13.446
30521DT     BB298404  61.731  67.946  13.381
30521DT     BB398405  61.866  68.095  13.433
30521DT     SC198406  61.805  68.235  13.221
30521DT     SC298407  61.972  68.235  13.085
30521DT     SC398408  61.717  68.434  13.071
30522DC     BB198409  61.922  67.924  13.622
30522DC     BB298410  62.238  68.004  13.468
30522DC     BB398411  62.307  68.187  13.537
30522DC     SC198412  62.132  68.316  13.390
30522DC     SC298413  62.234  68.421  13.232
30522DC     SC398414  61.928  68.470  13.325
30523DT     BB198415  62.498  68.068  13.694
30523DT     BB298416  62.684  68.312  13.504
30523DT     BB398417  62.680  68.495  13.600
30523DT     SC198418  62.432  68.537  13.528
30523DT     SC298419  62.425  68.696  13.384
30523DT     SC398420  62.171  68.576  13.546
30524DT     BB198421  62.947  68.491  13.709
30524DT     BB298422  62.935  68.807  13.535
30524DT     BB398423  62.876  68.957  13.665
30524DT     SC198424  62.627  68.873  13.659
30524DT     SC298425  62.506  69.017  13.554
30524DT     SC398426  62.396  68.776  13.740
30525DC     BB198427  63.133  69.090  13.719
30525DC     BB298428  62.924  69.362  13.606
30525DC     BB398429  62.839  69.458  13.768
30525DC     SC198430  62.670  69.261  13.806
30525DC     SC298431  62.471  69.328  13.757
30525DC     SC398432  62.546  69.059  13.922
30526DA     BB198433  63.028  69.784  13.578
30526DA     BB298434  62.682  69.885  13.642
30526DA     BB398435  62.657  69.943  13.846
30526DA     SC198436  62.579  69.658  13.942
30526DA     SC298437  62.375  69.541  14.027
30526DA     SC398438  62.539  69.369  14.123
30526DA     SC498439  62.697  69.562  13.995
30527DC     BB198440  62.614  70.152  13.913
30527DC     BB298441  62.265  70.095  13.986
30527DC     BB398442  62.233  70.103  14.190
30527DC     SC198443  62.343  69.867  14.225
30527DC     SC298444  62.191  69.725  14.281
30527DC     SC398445  62.511  69.681  14.306
30528DT     BB198446  62.104  70.347  14.173
30528DT     BB298447  61.862  70.129  14.326
30528DT     BB398448  61.883  70.133  14.532
30528DT     SC198449  62.100  69.986  14.520
30528DT     SC298450  62.059  69.791  14.602
30528DT     SC398451  62.353  69.914  14.542
30529DT     BB198452  61.651  70.272  14.551
30529DT     BB298453  61.597  69.976  14.750
30529DT     BB398454  61.664  70.007  14.943
30529DT     SC198455  61.914  69.986  14.868
30529DT     SC298456  61.997  69.804  14.947
30529DT     SC398457  62.166  70.051  14.821
30530DC     BB198458  61.407  70.009  15.016
30530DC     BB298459  61.558  69.745  15.211
30530DC     BB398460  61.645  69.824  15.381
30530DC     SC198461  61.846  69.922  15.243
30530DC     SC298462  62.025  69.813  15.291
30530DC     SC398463  62.011  70.097  15.135
30531DT     BB198464  61.448  69.710  15.525
30531DT     BB298465  61.752  69.577  15.667
30531DT     BB398466  61.825  69.707  15.811
30531DT     SC198467  61.910  69.875  15.628
30531DT     SC298468  62.125  69.874  15.625
30531DT     SC398469  61.934  70.096  15.486
30532DT     BB198470  61.751  69.528  15.998
30532DT     BB298471  62.104  69.579  16.054
30532DT     BB398472  62.133  69.744  16.176
30532DT     SC198473  62.077  69.909  15.980
30532DT     SC298474  62.256  70.013  15.922
30532DT     SC398475  61.953  70.094  15.840
30533DA     BB198476  62.348  69.426  16.346
30533DA     BB298477  62.570  69.717  16.333
30533DA     BB398478  62.514  69.860  16.481
30533DA     SC198479  62.320  70.015  16.294
30533DA     SC298480  62.311  70.237  16.181
30533DA     SC398481  62.059  70.195  16.163
30533DA     SC498482  62.166  69.971  16.294
30534DA     BB198483  62.830  69.830  16.569
30534DA     BB298484  62.866  70.188  16.497
30534DA     BB398485  62.780  70.304  16.654
30534DA     SC198486  62.498  70.318  16.523
30534DA     SC298487  62.353  70.490  16.416
30534DA     SC398488  62.160  70.328  16.465
30534DA     SC498489  62.392  70.205  16.564
30535DC     BB198490  62.902  70.419  16.773
30535DC     BB298491  62.808  70.739  16.634
30535DC     BB398492  62.686  70.840  16.766
30535DC     SC198493  62.482  70.685  16.709
30535DC     SC298494  62.334  70.798  16.601
30535DC     SC398495  62.288  70.509  16.740
30536DA     BB198496  62.996  71.103  16.664
30536DA     BB298497  62.679  71.284  16.626
30536DA     BB398498  62.599  71.334  16.818
30536DA     SC198499  62.432  71.072  16.843
30536DA     SC298500  62.192  71.006  16.840
30536DA     SC398501  62.271  70.792  16.958
30536DA     SC498502  62.501  70.947  16.917
30537DG     BB198503  62.625  71.626  16.716
30537DG     BB298504  62.265  71.622  16.745
30537DG     BB398505  62.212  71.658  16.934
30537DG     SC198506  62.214  71.364  17.017
30537DG     SC298507  61.976  71.202  17.095
30537DG     SC398508  62.227  71.053  17.147
30537DG     SC498509  62.351  71.299  17.070
30538DT     BB198510  62.094  71.837  16.984
30538DT     BB298511  61.769  71.694  17.050
30538DT     BB398512  61.735  71.685  17.254
30538DT     SC198513  61.899  71.481  17.280
30538DT     SC298514  61.786  71.305  17.328
30538DT     SC398515  62.107  71.339  17.356
30539DT     BB198516  61.555  71.888  17.234
30539DT     BB298517  61.371  71.621  17.392
30539DT     BB398518  61.398  71.627  17.597
30539DT     SC198519  61.641  71.531  17.575
30539DT     SC298520  61.646  71.331  17.655
30539DT     SC398521  61.904  71.516  17.589
30540DA     BB198522  60.983  71.618  17.536
30540DA     BB298523  61.064  71.366  17.790
30540DA     BB398524  61.111  71.460  17.976
30540DA     SC198525  61.416  71.480  17.916
30540DA     SC298526  61.627  71.377  17.998
30540DA     SC398527  61.743  71.581  17.895
30540DA     SC498528  61.469  71.615  17.847
30541DT     BB198529  60.987  71.436  18.138
30541DT     BB298530  61.200  71.212  18.322
30541DT     BB398531  61.289  71.312  18.480
30541DT     SC198532  61.454  71.436  18.319
30541DT     SC298533  61.654  71.362  18.350
30541DT     SC398534  61.574  71.632  18.189
30542DT     BB198535  61.130  71.182  18.660
30542DT     BB298536  61.467  71.105  18.764
30542DT     BB398537  61.538  71.253  18.890
30542DT     SC198538  61.570  71.420  18.691
30542DT     SC298539  61.780  71.452  18.658
30542DT     SC398540  61.540  71.633  18.538
30543DC     BB198541  61.520  71.080  19.096
30543DC     BB298542  61.866  71.180  19.089
30543DC     BB398543  61.892  71.355  19.196
30543DC     SC198544  61.781  71.498  19.005
30543DC     SC298545  61.931  71.620  18.912
30543DC     SC398546  61.611  71.655  18.880
30544DT     BB198547  62.020  71.204  19.370
30544DT     BB298548  62.258  71.455  19.267
30544DT     BB398549  62.228  71.629  19.375
30544DT     SC198550  62.013  71.687  19.237
30544DT     SC298551  62.052  71.858  19.113
30544DT     SC398552  61.760  71.735  19.180
30545DA     BB198553  62.632  71.511  19.369
30545DA     BB298554  62.611  71.866  19.281
30545DA     BB398555  62.552  71.981  19.451
30545DA     SC198556  62.248  71.961  19.390
30545DA     SC298557  62.065  72.112  19.315
30545DA     SC398558  61.906  71.935  19.412
30545DA     SC498559  62.166  71.840  19.457
30546DA     BB198560  62.821  72.125  19.330
30546DA     BB298561  62.611  72.424  19.295
30546DA     BB398562  62.559  72.501  19.487
30546DA     SC198563  62.297  72.334  19.509
30546DA     SC298564  62.051  72.376  19.506
30546DA     SC398565  62.032  72.147  19.622
30546DA     SC498566  62.306  72.191  19.582
30547DC     BB198567  62.631  72.666  19.513
30547DC     BB298568  62.325  72.857  19.492
30547DC     BB398569  62.252  72.894  19.682
30547DC     SC198570  62.169  72.647  19.707
30547DC     SC298571  61.954  72.643  19.705
30547DC     SC398572  62.148  72.400  19.799
30548DT     BB198573  62.325  73.152  19.656
30548DT     BB298574  61.975  73.166  19.739
30548DT     BB398575  61.950  73.156  19.945
30548DT     SC198576  62.005  72.899  19.947
30548DT     SC298577  61.826  72.789  19.994
30548DT     SC398578  62.129  72.672  19.998
30549DG     BB198579  61.779  73.519  19.856
30549DG     BB298580  61.556  73.317  20.056
30549DG     BB398581  61.608  73.327  20.248
30549DG     SC198582  61.800  73.089  20.234
30549DG     SC298583  61.763  72.826  20.371
30549DG     SC398584  62.032  72.845  20.250
30549DG     SC498585  61.952  73.115  20.194
30550DT     BB198586  61.483  73.426  20.445
30550DT     BB298587  61.370  73.123  20.606
30550DT     BB398588  61.473  73.095  20.783
30550DT     SC198589  61.689  73.020  20.654
30550DT     SC298590  61.723  72.810  20.686
30550DT     SC398591  61.938  73.020  20.565
30551DT     BB198592  61.269  73.174  20.985
30551DT     BB298593  61.355  72.837  21.081
30551DT     BB398594  61.497  72.840  21.231
30551DT     SC198595  61.686  72.905  21.061
30551DT     SC298596  61.821  72.740  21.037
30551DT     SC398597  61.876  73.045  20.942
30552DG     BB198598  61.185  72.644  21.406
30552DG     BB298599  61.487  72.446  21.422
30552DG     BB398600  61.598  72.503  21.577
30552DG     SC198601  61.753  72.714  21.420
30552DG     SC298602  62.045  72.705  21.355
30552DG     SC398603  61.929  72.968  21.283
30552DG     SC498604  61.695  72.863  21.410
30553DT     BB198605  61.641  72.359  21.734
30553DT     BB298606  61.983  72.276  21.659
30553DT     BB398607  62.110  72.369  21.794
30553DT     SC198608  62.076  72.601  21.677
30553DT     SC298609  62.258  72.659  21.579
30553DT     SC398610  62.006  72.853  21.642
30554DC     BB198611  62.149  72.123  21.878
30554DC     BB298612  62.476  72.245  21.785
30554DC     BB398613  62.556  72.357  21.939
30554DC     SC198614  62.397  72.559  21.885
30554DC     SC298615  62.512  72.722  21.805
30554DC     SC398616  62.208  72.741  21.915
30555DC     BB198617  62.719  72.154  21.953
30555DC     BB298618  62.931  72.442  21.908
30555DC     BB398619  62.957  72.540  22.089
30555DC     SC198620  62.714  72.639  22.079
30555DC     SC298621  62.725  72.851  22.047
30555DC     SC398622  62.463  72.687  22.144
30556DT     BB198623  63.207  72.449  22.083
30556DT     BB298624  63.242  72.805  22.125
30556DT     BB398625  63.223  72.855  22.325
30556DT     SC198626  62.964  72.818  22.319
30556DT     SC298627  62.864  73.007  22.339
30556DT     SC398628  62.726  72.716  22.371
30557DC     BB198629  63.496  72.902  22.359
30557DC     BB298630  63.343  73.205  22.481
30557DC     BB398631  63.302  73.187  22.684
30557DC     SC198632  63.098  73.029  22.636
30557DC     SC298633  62.916  73.132  22.684
30557DC     SC398634  62.946  72.813  22.634
30558DA     BB198635  63.542  73.537  22.701
30558DA     BB298636  63.244  73.606  22.902
30558DA     BB398637  63.261  73.515  23.095
30558DA     SC198638  63.126  73.249  23.008
30558DA     SC298639  62.912  73.128  23.051
30558DA     SC398640  63.037  72.919  22.970
30558DA     SC498641  63.221  73.130  22.956
30559DC     BB198642  63.295  73.614  23.333
30559DC     BB298643  62.955  73.560  23.441
30559DC     BB398644  62.951  73.424  23.597
30559DC     SC198645  62.998  73.224  23.434
30559DC     SC298646  62.822  73.101  23.420
30559DC     SC398647  63.119  73.018  23.321
30560DC     BB198648  62.903  73.602  23.831
30560DC     BB298649  62.626  73.370  23.842
30560DC     BB398650  62.668  73.216  23.973
30560DC     SC198651  62.835  73.106  23.803
30560DC     SC298652  62.751  72.922  23.729
30560DC     SC398653  63.060  73.015  23.699
30561DT     BB198654  62.488  73.304  24.171
30561DT     BB298655  62.371  72.974  24.085
30561DT     BB398656  62.457  72.834  24.210
30561DT     SC198657  62.687  72.852  24.086
30561DT     SC298658  62.725  72.670  23.977
30561DT     SC398659  62.943  72.900  24.043
30562DG     BB198660  62.052  72.813  24.219
30562DG     BB298661  62.201  72.494  24.135
30562DG     BB398662  62.275  72.409  24.299
30562DG     SC198663  62.552  72.538  24.271
30562DG     SC298664  62.807  72.394  24.214
30562DG     SC398665  62.858  72.677  24.283
30562DG     SC498666  62.577  72.681  24.338
30563DT     BB198667  62.192  72.231  24.337
30563DT     BB298668  62.457  72.002  24.248
30563DT     BB398669  62.561  71.945  24.418
30563DT     SC198670  62.681  72.178  24.432
30563DT     SC298671  62.890  72.153  24.386
30563DT     SC398672  62.756  72.413  24.524
30564DG     BB198673  62.422  71.619  24.216
30564DG     BB298674  62.775  71.591  24.291
30564DG     BB398675  62.800  71.548  24.483
30564DG     SC198676  62.812  71.841  24.572
30564DG     SC298677  63.051  71.980  24.684
30564DG     SC398678  62.810  72.150  24.707
30564DG     SC498679  62.676  71.916  24.610
30565DG     BB198680  62.963  71.274  24.398
30565DG     BB298681  63.247  71.413  24.573
30565DG     BB398682  63.231  71.377  24.768
30565DG     SC198683  63.076  71.635  24.828
30565DG     SC298684  63.176  71.865  24.990
30565DG     SC398685  62.889  71.897  24.927
30565DG     SC498686  62.917  71.634  24.818
30566DA     BB198687  63.551  71.231  24.777
30566DA     BB298688  63.664  71.479  25.022
30566DA     BB398689  63.595  71.426  25.218
30566DA     SC198690  63.330  71.588  25.194
30566DA     SC298691  63.230  71.793  25.294
30566DA     SC398692  63.005  71.696  25.217
30566DA     SC498693  63.200  71.510  25.140
30567DA     BB198694  63.913  71.436  25.318
30567DA     BB298695  63.819  71.710  25.544
30567DA     BB398696  63.730  71.632  25.721
30567DA     SC198697  63.440  71.642  25.609
30567DA     SC298698  63.231  71.772  25.648
30567DA     SC398699  63.111  71.576  25.533
30567DA     SC498700  63.384  71.509  25.536
30568DG     BB198701  63.965  71.763  25.883
30568DG     BB298702  63.701  71.971  26.016
30568DG     BB398703  63.618  71.883  26.173
30568DG     SC198704  63.407  71.733  26.009
30568DG     SC298705  63.113  71.780  26.017
30568DG     SC398706  63.176  71.539  25.858
30568DG     SC498707  63.443  71.589  25.950
30569DA     BB198708  63.677  72.183  26.324
30569DA     BB298709  63.317  72.224  26.381
30569DA     BB398710  63.253  72.100  26.542
30569DA     SC198711  63.185  71.857  26.361
30569DA     SC298712  62.981  71.736  26.284
30569DA     SC398713  63.141  71.541  26.233
30569DA     SC498714  63.300  71.747  26.338
30570DC     BB198715  63.195  72.208  26.667
30570DC     BB298716  62.843  72.141  26.622
30570DC     BB398717  62.780  71.998  26.758
30570DC     SC198718  62.898  71.806  26.623
30570DC     SC298719  62.749  71.680  26.533
30570DC     SC398720  63.063  71.609  26.564
30571DT     BB198721  62.656  72.209  26.832
30571DT     BB298722  62.403  71.961  26.766
30571DT     BB398723  62.397  71.823  26.920
30571DT     SC198724  62.618  71.710  26.837
30571DT     SC298725  62.573  71.514  26.759
30571DT     SC398726  62.868  71.625  26.835
30572DA     BB198727  62.016  71.968  26.806
30572DA     BB298728  62.000  71.604  26.839
30572DA     BB398729  62.027  71.547  27.043
30572DA     SC198730  62.336  71.519  27.021
30572DA     SC298731  62.506  71.337  27.023
30572DA     SC398732  62.674  71.522  27.081
30572DA     SC498733  62.425  71.648  27.057
30573DC     BB198734  61.877  71.469  27.106
30573DC     BB298735  62.003  71.131  27.132
30573DC     BB398736  62.069  71.095  27.324
30573DC     SC198737  62.285  71.239  27.286
30573DC     SC298738  62.457  71.110  27.281
30573DC     SC398739  62.462  71.432  27.313
30574DG     BB198740  61.783  70.813  27.246
30574DG     BB298741  62.084  70.662  27.377
30574DG     BB398742  62.095  70.691  27.574
30574DG     SC198743  62.246  70.957  27.551
30574DG     SC298744  62.527  71.006  27.639
30574DG     SC398745  62.394  71.259  27.563
30574DG     SC498746  62.163  71.093  27.538
30575DC     BB198747  62.087  70.524  27.740
30575DC     BB298748  62.430  70.515  27.851
30575DC     BB398749  62.447  70.606  28.036
30575DC     SC198750  62.422  70.845  27.930
30575DC     SC298751  62.610  70.949  27.943
30575DC     SC398752  62.323  71.083  27.874
30576DT     BB198753  62.475  70.369  28.190
30576DT     BB298754  62.766  70.563  28.278
30576DT     BB398755  62.725  70.682  28.443
30576DT     SC198756  62.582  70.847  28.297
30576DT     SC298757  62.685  71.035  28.280
30576DT     SC398758  62.374  70.982  28.207
30577DT     BB198759  62.869  70.531  28.641
30577DT     BB298760  63.012  70.861  28.664
30577DT     BB398761  62.912  70.971  28.808
30577DT     SC198762  62.706  71.005  28.649
30577DT     SC298763  62.695  71.211  28.589
30577DT     SC398764  62.459  70.990  28.557
30578DG     BB198765  63.295  70.967  28.957
30578DG     BB298766  63.173  71.306  28.922
30578DG     BB398767  63.061  71.354  29.079
30578DG     SC198768  62.800  71.255  28.954
30578DG     SC298769  62.568  71.425  28.874
30578DG     SC398770  62.499  71.138  28.856
30578DG     SC498771  62.757  71.102  28.974
30579DA     BB198772  63.261  71.634  29.119
30579DA     BB298773  62.971  71.849  29.057
30579DA     BB398774  62.850  71.864  29.232
30579DA     SC198775  62.670  71.620  29.158
30579DA     SC298776  62.435  71.580  29.088
30579DA     SC398777  62.474  71.339  29.167
30579DA     SC498778  62.714  71.476  29.214
30580DT     BB198779  62.842  72.039  29.301
30580DT     BB298780  62.512  72.113  29.177
30580DT     BB398781  62.374  72.097  29.331
30580DT     SC198782  62.385  71.835  29.326
30580DT     SC298783  62.199  71.757  29.250
30580DT     SC398784  62.428  71.587  29.404
30581DT     BB198785  62.357  72.359  29.305
30581DT     BB298786  62.024  72.236  29.244
30581DT     BB398787  61.925  72.207  29.423
30581DT     SC198788  62.064  71.990  29.474
30581DT     SC298789  61.935  71.818  29.460
30581DT     SC398790  62.230  71.824  29.593
30582DT     BB198791  61.789  72.405  29.327
30582DT     BB298792  61.550  72.140  29.383
30582DT     BB398793  61.499  72.132  29.583
30582DT     SC198794  61.730  72.022  29.645
30582DT     SC298795  61.698  71.818  29.705
30582DT     SC398796  61.968  71.990  29.753
30583DA     BB198797  61.160  72.127  29.335
30583DA     BB298798  61.122  71.866  29.589
30583DA     BB398799  61.092  71.953  29.782
30583DA     SC198800  61.395  71.961  29.852
30583DA     SC298801  61.551  71.846  30.009
30583DA     SC398802  61.706  72.047  29.971
30583DA     SC498803  61.476  72.095  29.816
30584DA     BB198804  60.834  71.749  29.769
30584DA     BB298805  60.967  71.595  30.075
30584DA     BB398806  60.938  71.725  30.242
30584DA     SC198807  61.212  71.868  30.209
30584DA     SC298808  61.430  71.880  30.330
30584DA     SC398809  61.467  72.098  30.201
30584DA     SC498810  61.216  72.002  30.120
30585DT     BB198811  60.803  71.678  30.399
30585DT     BB298812  61.050  71.603  30.651
30585DT     BB398813  61.058  71.756  30.790
30585DT     SC198814  61.186  71.912  30.623
30585DT     SC298815  61.388  71.939  30.691
30585DT     SC398816  61.238  72.117  30.465
30586DA     BB198817  60.990  71.420  31.036
30586DA     BB298818  61.267  71.607  31.185
30586DA     BB398819  61.194  71.779  31.289
30586DA     SC198820  61.215  71.968  31.043
30586DA     SC298821  61.354  72.162  30.971
30586DA     SC398822  61.163  72.212  30.807
30586DA     SC498823  61.085  71.983  30.950
30587DA     BB198824  61.352  71.664  31.559
30587DA     BB298825  61.557  71.968  31.551
30587DA     BB398826  61.452  72.131  31.639
30587DA     SC198827  61.324  72.225  31.371
30587DA     SC298828  61.345  72.417  31.214
30587DA     SC398829  61.113  72.347  31.129
30587DA     SC498830  61.179  72.166  31.333
30588DA     BB198831  61.718  72.156  31.830
30588DA     BB298832  61.771  72.488  31.685
30588DA     BB398833  61.641  72.630  31.776
30588DA     SC198834  61.412  72.590  31.569
30588DA     SC298835  61.306  72.719  31.384
30588DA     SC398836  61.108  72.558  31.413
30588DA     SC498837  61.299  72.481  31.603
30589DA     BB198838  61.928  72.777  31.819
30589DA     BB298839  61.796  73.050  31.612
30589DA     BB398840  61.657  73.167  31.724
30589DA     SC198841  61.410  72.999  31.639
30589DA     SC298842  61.207  73.028  31.496
30589DA     SC398843  61.110  72.833  31.630
30589DA     SC498844  61.366  72.878  31.734
30590DT     BB198845  61.717  73.342  31.749
30590DT     BB298846  61.493  73.501  31.515
30590DT     BB398847  61.335  73.587  31.617
30590DT     SC198848  61.224  73.353  31.659
30590DT     SC298849  61.044  73.336  31.543
30590DT     SC398850  61.130  73.142  31.788
30591DA     BB198851  61.505  73.859  31.346
30591DA     BB298852  61.141  73.867  31.304
30591DA     BB398853  61.049  73.958  31.473
30591DA     SC198854  61.013  73.690  31.628
30591DA     SC298855  60.826  73.540  31.698
30591DA     SC398856  60.992  73.448  31.871
30591DA     SC498857  61.130  73.647  31.730
30592DA     BB198858  60.917  74.135  31.230
30592DA     BB298859  60.590  74.022  31.352
30592DA     BB398860  60.542  74.119  31.536
30592DA     SC198861  60.671  73.899  31.714
30592DA     SC298862  60.596  73.722  31.872
30592DA     SC398863  60.836  73.728  31.962
30592DA     SC498864  60.825  73.919  31.757
30593DT     BB198865  60.386  74.254  31.545
30593DT     BB298866  60.155  74.048  31.731
30593DT     BB398867  60.145  74.113  31.927
30593DT     SC198868  60.379  74.009  31.982
30593DT     SC298869  60.354  73.841  32.114
30593DT     SC398870  60.633  73.993  32.051
30594DT     BB198871  59.891  74.235  31.904
30594DT     BB298872  59.850  74.005  32.179
30594DT     BB398873  59.896  74.100  32.357
30594DT     SC198874  60.153  74.090  32.306
30594DT     SC298875  60.247  73.951  32.440
30594DT     SC398876  60.399  74.169  32.255
30595DT     BB198877  59.628  74.132  32.453
30595DT     BB298878  59.791  73.950  32.718
30595DT     BB398879  59.868  74.082  32.858
30595DT     SC198880  60.065  74.150  32.698
30595DT     SC298881  60.250  74.074  32.777
30595DT     SC398882  60.220  74.298  32.544
30596DA     BB198883  59.630  73.824  33.088
30596DA     BB298884  59.960  73.838  33.245
30596DA     BB398885  59.983  74.020  33.355
30596DA     SC198886  60.104  74.177  33.116
30596DA     SC298887  60.325  74.274  33.051
30596DA     SC398888  60.190  74.420  32.888
30596DA     SC498889  60.003  74.260  33.022
30597DT     BB198890  60.001  74.009  33.557
30597DT     BB298891  60.357  74.067  33.565
30597DT     BB398892  60.396  74.258  33.634
30597DT     SC198893  60.320  74.365  33.407
30597DT     SC298894  60.492  74.446  33.305
30597DT     SC398895  60.181  74.507  33.234
30598DA     BB198896  60.624  73.968  33.830
30598DA     BB298897  60.848  74.234  33.714
30598DA     BB398898  60.819  74.411  33.828
30598DA     SC198899  60.602  74.527  33.638
30598DA     SC298900  60.580  74.715  33.476
30598DA     SC398901  60.327  74.685  33.506
30598DA     SC498902  60.448  74.494  33.671
30599DT     BB198903  60.969  74.434  33.901
30599DT     BB298904  61.073  74.717  33.703
30599DT     BB398905  61.019  74.893  33.797
30599DT     SC198906  60.767  74.860  33.732
30599DT     SC298907  60.712  75.008  33.586
30599DT     SC398908  60.507  74.823  33.757
30600DG     BB198909  61.412  74.863  33.686
30600DG     BB298910  61.260  75.172  33.575
30600DG     BB398911  61.226  75.291  33.731
30600DG     SC198912  60.946  75.181  33.787
30600DG     SC298913  60.690  75.330  33.756
30600DG     SC398914  60.644  75.070  33.888
30600DG     SC498915  60.930  75.054  33.883
30601DT     BB198916  61.325  75.472  33.729
30601DT     BB298917  61.059  75.709  33.671
30601DT     BB398918  60.999  75.793  33.850
30601DT     SC198919  60.872  75.573  33.919
30601DT     SC298920  60.660  75.609  33.916
30601DT     SC398921  60.808  75.356  34.054
30602DT     BB198922  61.117  76.022  33.775
30602DT     BB298923  60.779  76.118  33.855
30602DT     BB398924  60.762  76.155  34.058
30602DT     SC198925  60.768  75.898  34.112
30602DT     SC298926  60.574  75.835  34.182
30602DT     SC398927  60.849  75.667  34.209
30603DA     BB198928  60.609  76.498  33.871
30603DA     BB298929  60.372  76.401  34.134
30603DA     BB398930  60.450  76.450  34.326
30603DA     SC198931  60.589  76.174  34.366
30603DA     SC298932  60.560  75.972  34.509
30603DA     SC398933  60.805  75.921  34.452
30603DA     SC498934  60.742  76.161  34.320
30604DG     BB198935  60.201  76.639  34.366
30604DG     BB298936  60.123  76.415  34.638
30604DG     BB398937  60.224  76.469  34.801
30604DG     SC198938  60.468  76.296  34.739
30604DG     SC298939  60.559  76.058  34.894
30604DG     SC398940  60.760  76.133  34.691
30604DG     SC498941  60.586  76.357  34.649
30605DG     BB198942  59.946  76.517  34.985
30605DG     BB298943  60.067  76.257  35.206
30605DG     BB398944  60.190  76.335  35.341
30605DG     SC198945  60.442  76.297  35.171
30605DG     SC298946  60.668  76.112  35.231
30605DG     SC398947  60.735  76.289  35.003
30605DG     SC498948  60.485  76.413  35.069
30606DA     BB198949  60.010  76.201  35.617
30606DA     BB298950  60.304  76.015  35.732
30606DA     BB398951  60.435  76.144  35.840
30606DA     SC198952  60.600  76.227  35.590
30606DA     SC298953  60.830  76.190  35.499
30606DA     SC398954  60.785  76.399  35.357
30606DA     SC498955  60.554  76.360  35.511
30607DA     BB198956  60.429  75.946  36.119
30607DA     BB298957  60.790  75.895  36.083
30607DA     BB398958  60.897  76.057  36.171
30607DA     SC198959  60.907  76.224  35.909
30607DA     SC298960  61.078  76.297  35.743
30607DA     SC398961  60.909  76.479  35.679
30607DA     SC498962  60.789  76.331  35.885
30608DT     BB198963  61.048  76.078  36.388
30608DT     BB298964  61.362  76.089  36.211
30608DT     BB398965  61.454  76.272  36.241
30608DT     SC198966  61.287  76.391  36.078
30608DT     SC298967  61.391  76.450  35.899
30608DT     SC398968  61.098  76.553  35.991
30609DC     BB198969  61.684  76.230  36.456
30609DC     BB298970  61.862  76.367  36.173
30609DC     BB398971  61.896  76.569  36.202
30609DC     SC198972  61.645  76.627  36.151
30609DC     SC298973  61.632  76.731  35.963
30609DC     SC398974  61.398  76.712  36.187
30610DA     BB198975  62.298  76.446  36.149
30610DA     BB298976  62.232  76.708  35.901
30610DA     BB398977  62.256  76.901  35.989
30610DA     SC198978  61.959  76.925  36.076
30610DA     SC298979  61.758  77.060  36.012
30610DA     SC398980  61.667  76.995  36.243
30610DA     SC498981  61.920  76.875  36.224
30611DT     BB198982  62.408  77.024  35.917
30611DT     BB298983  62.187  77.220  35.710
30611DT     BB398984  62.167  77.411  35.788
30611DT     SC198985  62.011  77.324  35.980
30611DT     SC298986  61.811  77.396  35.947
30611DT     SC398987  61.924  77.266  36.222
30612DC     BB198988  62.292  77.455  35.566
30612DC     BB298989  61.976  77.627  35.541
30612DC     BB398990  61.983  77.804  35.647
30612DC     SC198991  61.966  77.677  35.876
30612DC     SC298992  61.774  77.716  35.966
30612DC     SC398993  62.031  77.586  36.115
30613DT     BB198994  61.959  77.876  35.402
30613DT     BB298995  61.675  78.014  35.577
30613DT     BB398996  61.734  78.178  35.689
30613DT     SC198997  61.848  78.024  35.868
30613DT     SC298998  61.736  78.032  36.052
30613DT     SC398999  62.036  77.914  36.018
30614DA     BB199000  61.386  78.244  35.459
30614DA     BB299001  61.330  78.369  35.799
30614DA     BB399002  61.454  78.539  35.837
30614DA     SC199003  61.690  78.371  35.951
30614DA     SC299004  61.800  78.333  36.171
30614DA     SC399005  62.000  78.250  36.034
30614DA     SC499006  61.804  78.325  35.848
30615DA     BB199007  61.158  78.657  35.920
30615DA     BB299008  61.300  78.720  36.252
30615DA     BB399009  61.437  78.884  36.244
30615DA     SC199010  61.685  78.705  36.186
30615DA     SC299011  61.892  78.633  36.304
30615DA     SC399012  61.983  78.580  36.070
30615DA     SC499013  61.724  78.681  36.032
30616DT     BB199014  61.393  79.062  36.340
30616DT     BB299015  61.628  79.026  36.611
30616DT     BB399016  61.790  79.153  36.581
30616DT     SC199017  61.887  78.997  36.393
30616DT     SC299018  62.067  78.904  36.464
30616DT     SC399019  61.968  78.916  36.156
30617DT     BB199020  61.711  79.329  36.781
30617DT     BB299021  62.045  79.232  36.876
30617DT     BB399022  62.183  79.360  36.790
30617DT     SC199023  62.151  79.249  36.555
30617DT     SC299024  62.329  79.140  36.503
30617DT     SC399025  62.089  79.221  36.300
30618DC     BB199026  62.234  79.478  37.032
30618DC     BB299027  62.555  79.356  36.921
30618DC     BB399028  62.649  79.499  36.804
30618DC     SC199029  62.489  79.449  36.601
30618DC     SC299030  62.601  79.354  36.444
30618DC     SC399031  62.307  79.485  36.415
30619DT     BB199032  62.817  79.527  37.007
30619DT     BB299033  63.023  79.434  36.725
30619DT     BB399034  63.068  79.602  36.613
30619DT     SC199035  62.826  79.611  36.513
30619DT     SC299036  62.833  79.561  36.304
30619DT     SC399037  62.583  79.699  36.457
30620DT     BB199038  63.304  79.550  36.707
30620DT     BB299039  63.338  79.545  36.347
30620DT     BB399040  63.351  79.739  36.275
30620DT     SC199041  63.094  79.778  36.313
30620DT     SC299042  62.996  79.792  36.122
30620DT     SC399043  62.870  79.879  36.408
30621DC     BB199044  63.599  79.670  36.225
30621DC     BB299045  63.465  79.781  35.909
30621DC     BB399046  63.470  79.988  35.899
30621DC     SC199047  63.266  80.008  36.063
30621DC     SC299048  63.095  80.080  35.955
30621DC     SC399049  63.126  80.069  36.278
30622DT     BB199050  63.671  79.969  35.721
30622DT     BB299051  63.423  80.171  35.555
30622DT     BB399052  63.445  80.369  35.609
30622DT     SC199053  63.341  80.324  35.846
30622DT     SC299054  63.148  80.419  35.858
30622DT     SC399055  63.319  80.304  36.108
30623DT     BB199056  63.552  80.438  35.364
30623DT     BB299057  63.273  80.663  35.405
30623DT     BB399058  63.333  80.834  35.505
30623DT     SC199059  63.343  80.705  35.734
30623DT     SC299060  63.184  80.774  35.862
30623DT     SC399061  63.439  80.597  35.954
30624DT     BB199062  63.331  81.001  35.279
30624DT     BB299063  63.112  81.168  35.512
30624DT     BB399064  63.221  81.302  35.627
30624DT     SC199065  63.325  81.107  35.769
30624DT     SC299066  63.245  81.113  35.969
30624DT     SC399067  63.504  80.944  35.873
30625DA     BB199068  62.906  81.526  35.465
30625DA     BB299069  62.912  81.588  35.827
30625DA     BB399070  63.073  81.718  35.877
30625DA     SC199071  63.276  81.487  35.926
30625DA     SC299072  63.396  81.384  36.119
30625DA     SC399073  63.559  81.293  35.943
30625DA     SC499074  63.367  81.442  35.801
30626DT     BB199075  63.023  81.894  35.948
30626DT     BB299076  63.107  81.825  36.292
30626DT     BB399077  63.286  81.917  36.342
30626DT     SC199078  63.424  81.739  36.207
30626DT     SC299079  63.535  81.616  36.344
30626DT     SC399080  63.583  81.635  36.024
30627DA     BB199081  62.986  81.994  36.625
30627DA     BB299082  63.289  81.888  36.802
30627DA     BB399083  63.439  82.039  36.789
30627DA     SC199084  63.566  81.926  36.528
30627DA     SC299085  63.778  81.813  36.460
30627DA     SC399086  63.718  81.889  36.222
30627DA     SC499087  63.512  81.984  36.388
30628DT     BB199088  63.472  82.098  36.952
30628DT     BB299089  63.800  81.952  36.993
30628DT     BB399090  63.945  82.091  36.944
30628DT     SC199091  63.896  82.064  36.688
30628DT     SC299092  64.063  81.965  36.594
30628DT     SC399093  63.824  82.123  36.441
30629DG     BB199094  64.013  81.958  37.324
30629DG     BB299095  64.314  81.946  37.124
30629DG     BB399096  64.388  82.130  37.102
30629DG     SC199097  64.230  82.189  36.847
30629DG     SC299098  64.345  82.227  36.574
30629DG     SC399099  64.057  82.295  36.578
30629DG     SC499100  64.083  82.253  36.859
30630DT     BB199101  64.590  82.199  37.185
30630DT     BB299102  64.791  82.231  36.887
30630DT     BB399103  64.810  82.431  36.836
30630DT     SC199104  64.564  82.440  36.746
30630DT     SC299105  64.566  82.461  36.532
30630DT     SC399106  64.310  82.508  36.725
30631DA     BB199107  65.223  82.338  36.864
30631DA     BB299108  65.180  82.520  36.548
30631DA     BB399109  65.166  82.729  36.585
30631DA     SC199110  64.857  82.729  36.613
30631DA     SC299111  64.659  82.812  36.485
30631DA     SC399112  64.532  82.792  36.707
30631DA     SC499113  64.795  82.711  36.761
30632DT     BB199114  65.325  82.912  36.531
30632DT     BB299115  65.135  83.045  36.255
30632DT     BB399116  65.066  83.235  36.301
30632DT     SC199117  64.882  83.137  36.461
30632DT     SC299118  64.688  83.168  36.374
30632DT     SC399119  64.747  83.086  36.682
30633DT     BB199120  65.248  83.383  36.137
30633DT     BB299121  64.923  83.485  36.019
30633DT     BB399122  64.862  83.656  36.118
30633DT     SC199123  64.809  83.520  36.336
30633DT     SC299124  64.596  83.515  36.367
30633DT     SC399125  64.822  83.436  36.586
30634DT     BB199126  64.902  83.815  35.895
30634DT     BB299127  64.553  83.859  35.977
30634DT     BB399128  64.531  84.017  36.109
30634DT     SC199129  64.623  83.873  36.308
30634DT     SC299130  64.464  83.831  36.446
30634DT     SC399131  64.780  83.792  36.504
30635DG     BB199132  64.305  84.085  35.778
30635DG     BB299133  64.109  84.108  36.081
30635DG     BB399134  64.144  84.281  36.172
30635DG     SC199135  64.377  84.175  36.339
30635DG     SC299136  64.379  84.144  36.636
30635DG     SC399137  64.649  84.097  36.523
30635DG     SC499138  64.525  84.180  36.279
30636DA     BB199139  63.800  84.298  36.172
30636DA     BB299140  63.804  84.326  36.538
30636DA     BB399141  63.872  84.519  36.597
30636DA     SC199142  64.172  84.436  36.612
30636DA     SC299143  64.345  84.402  36.788
30636DA     SC399144  64.515  84.430  36.597
30636DA     SC499145  64.261  84.458  36.480
30637DG     BB199146  63.592  84.525  36.730
30637DG     BB299147  63.788  84.549  37.033
30637DG     BB399148  63.851  84.736  37.059
30637DG     SC199149  64.111  84.696  36.903
30637DG     SC299150  64.387  84.703  37.017
30637DG     SC399151  64.395  84.693  36.722
30637DG     SC499152  64.111  84.720  36.745
30638DT     BB199153  63.787  84.864  37.235
30638DT     BB299154  64.087  84.870  37.435
30638DT     BB399155  64.182  85.053  37.414
30638DT     SC199156  64.268  84.991  37.175
30638DT     SC299157  64.482  84.964  37.180
30638DT     SC399158  64.302  84.998  36.913
30639DA     BB199159  64.138  85.015  37.831
30639DA     BB299160  64.487  85.109  37.767
30639DA     BB399161  64.500  85.317  37.719
30639DA     SC199162  64.468  85.273  37.413
30639DA     SC299163  64.609  85.291  37.208
30639DA     SC399164  64.386  85.303  37.081
30639DA     SC499165  64.319  85.280  37.352
30640DG     BB199166  64.682  85.367  37.976
30640DG     BB299167  64.935  85.446  37.730
30640DG     BB399168  64.924  85.639  37.681
30640DG     SC199169  64.726  85.595  37.452
30640DG     SC299170  64.781  85.637  37.161
30640DG     SC399171  64.493  85.586  37.208
30640DG     SC499172  64.569  85.597  37.484
30641DT     BB199173  65.094  85.794  37.719
30641DT     BB299174  65.229  85.825  37.386
30641DT     BB399175  65.176  86.008  37.305
30641DT     SC199176  64.929  85.927  37.265
30641DT     SC299177  64.894  85.907  37.054
30641DT     SC399178  64.667  85.913  37.284
30642DT     BB199179  65.432  86.086  37.330
30642DT     BB299180  65.359  86.113  36.978
30642DT     BB399181  65.274  86.297  36.937
30642DT     SC199182  65.045  86.223  37.043
30642DT     SC299183  64.898  86.203  36.887
30642DT     SC399184  64.838  86.215  37.205
30643DA     BB199185  65.591  86.212  36.676
30643DA     BB299186  65.300  86.315  36.478
30643DA     BB399187  65.262  86.523  36.505
30643DA     SC199188  65.069  86.483  36.745
30643DA     SC299189  64.825  86.507  36.792
30643DA     SC399190  64.894  86.515  37.039
30643DA     SC499191  65.132  86.487  36.893
30644DT     BB199192  65.284  86.602  36.348
30644DT     BB299193  64.936  86.664  36.279
30644DT     BB399194  64.885  86.856  36.337
30644DT     SC199195  64.888  86.790  36.590
30644DT     SC299196  64.687  86.793  36.667
30644DT     SC399197  64.958  86.783  36.845
30645DC     BB199198  64.865  86.888  36.079
30645DC     BB299199  64.543  86.980  36.214
30645DC     BB399200  64.551  87.172  36.291
30645DC     SC199201  64.686  87.092  36.501
30645DC     SC299202  64.561  87.106  36.676
30645DC     SC399203  64.883  87.065  36.674
30646DA     BB199204  64.218  87.131  36.036
30646DA     BB299205  64.109  87.295  36.345
30646DA     BB399206  64.188  87.493  36.356
30646DA     SC199207  64.446  87.407  36.507
30646DA     SC299208  64.544  87.433  36.735
30646DA     SC399209  64.768  87.378  36.624
30646DA     SC499210  64.576  87.372  36.419
30647DA     BB199211  63.869  87.563  36.401
30647DA     BB299212  63.967  87.709  36.723
30647DA     BB399213  64.067  87.895  36.693
30647DA     SC199214  64.351  87.767  36.678
30647DA     SC299215  64.558  87.761  36.817
30647DA     SC399216  64.676  87.692  36.600
30647DA     SC499217  64.406  87.727  36.533
30648DT     BB199218  63.981  88.076  36.753
30648DT     BB299219  64.197  88.136  37.036
30648DT     BB399220  64.333  88.286  36.991
30648DT     SC199221  64.473  88.124  36.840
30648DT     SC299222  64.662  88.083  36.934
30648DT     SC399223  64.587  88.022  36.625
30649DA     BB199224  64.153  88.423  37.346
30649DA     BB299225  64.516  88.449  37.390
30649DA     BB399226  64.592  88.616  37.282
30649DA     SC199227  64.648  88.454  37.023
30649DA     SC299228  64.845  88.373  36.894
30649DA     SC399229  64.683  88.352  36.696
30649DA     SC499230  64.531  88.449  36.911
30650DA     BB199231  64.720  88.715  37.572
30650DA     BB299232  65.052  88.678  37.419
30650DA     BB399233  65.095  88.846  37.295
30650DA     SC199234  64.975  88.718  37.038
30650DA     SC299235  65.058  88.628  36.820
30650DA     SC399236  64.818  88.662  36.738
30650DA     SC499237  64.821  88.748  37.005
30651DG     BB199238  65.340  88.906  37.483
30651DG     BB299239  65.531  88.824  37.187
30651DG     BB399240  65.553  88.986  37.073
30651DG     SC199241  65.297  88.937  36.912
30651DG     SC299242  65.283  88.868  36.622
30651DG     SC399243  65.014  88.925  36.730
30651DG     SC499244  65.159  88.997  36.966
30652DA     BB199245  65.889  88.912  37.081
30652DA     BB299246  65.887  88.871  36.717
30652DA     BB399247  65.884  89.062  36.621
30652DA     SC199248  65.574  89.078  36.609
30652DA     SC299249  65.395  89.069  36.435
30652DA     SC399250  65.247  89.184  36.610
30652DA     SC499251  65.498  89.151  36.731
30653DT     BB199252  66.041  89.099  36.518
30653DT     BB299253  65.891  89.048  36.194
30653DT     BB399254  65.850  89.230  36.106
30653DT     SC199255  65.644  89.269  36.264
30653DT     SC299256  65.462  89.256  36.149
30653DT     SC399257  65.490  89.377  36.449
30654DT     BB199258  66.042  89.157  35.944
30654DT     BB299259  65.752  89.209  35.735
30654DT     BB399260  65.729  89.410  35.694
30654DT     SC199261  65.639  89.456  35.937
30654DT     SC299262  65.430  89.506  35.927
30654DT     SC399263  65.625  89.552  36.182
30655DT     BB199264  65.796  89.332  35.455
30655DT     BB299265  65.475  89.493  35.419
30655DT     BB399266  65.499  89.698  35.414
30655DT     SC199267  65.544  89.707  35.672
30655DT     SC299268  65.378  89.803  35.771
30655DT     SC399269  65.669  89.746  35.901
30656DT     BB199270  65.428  89.668  35.164
30656DT     BB299271  65.193  89.905  35.302
30656DT     BB399272  65.277  90.094  35.307
30656DT     SC199273  65.428  90.029  35.512
30656DT     SC299274  65.361  90.135  35.687
30656DT     SC399275  65.644  89.980  35.656
30657DT     BB199276  65.109  90.155  35.112
30657DT     BB299277  65.047  90.402  35.368
30657DT     BB399278  65.186  90.555  35.354
30657DT     SC199279  65.375  90.404  35.457
30657DT     SC299280  65.424  90.477  35.653
30657DT     SC399281  65.599  90.267  35.478
30658DT     BB199282  64.997  90.723  35.254
30658DT     BB299283  65.132  90.901  35.537
30658DT     BB399284  65.299  91.008  35.480
30658DT     SC199285  65.444  90.790  35.469
30658DT     SC299286  65.588  90.791  35.629
30658DT     SC399287  65.593  90.595  35.371
30659DT     BB199288  65.173  91.258  35.484
30659DT     BB299289  65.457  91.304  35.701
30659DT     BB399290  65.620  91.368  35.590
30659DT     SC199291  65.657  91.128  35.490
30659DT     SC299292  65.837  91.043  35.570
30659DT     SC399293  65.674  90.933  35.313
30660DG     BB199294  65.578  91.688  35.846
30660DG     BB299295  65.918  91.565  35.853
30660DG     BB399296  66.021  91.641  35.701
30660DG     SC199297  65.950  91.414  35.508
30660DG     SC299298  66.141  91.214  35.395
30660DG     SC399299  65.877  91.193  35.264
30660DG     SC499300  65.817  91.426  35.420
30661DA     BB199301  66.285  91.781  35.899
30661DA     BB299302  66.532  91.564  35.737
30661DA     BB399303  66.600  91.652  35.555
30661DA     SC199304  66.383  91.515  35.379
30661DA     SC299305  66.372  91.338  35.204
30661DA     SC399306  66.147  91.444  35.140
30661DA     SC499307  66.246  91.596  35.354
30662DT     BB199308  66.811  91.731  35.516
30662DT     BB299309  66.916  91.450  35.315
30662DT     BB399310  66.944  91.511  35.119
30662DT     SC199311  66.685  91.523  35.078
30662DT     SC299312  66.626  91.365  34.944
30662DT     SC399313  66.446  91.622  35.026
30663DT     BB199314  67.221  91.495  35.135
30663DT     BB299315  67.135  91.269  34.868
30663DT     BB399316  67.135  91.370  34.687
30663DT     SC199317  66.908  91.489  34.744
30663DT     SC299318  66.753  91.411  34.616
30663DT     SC399319  66.734  91.680  34.796
30664DA     BB199320  67.367  91.024  34.656
30664DA     BB299321  67.130  91.029  34.376
30664DA     BB399322  67.187  91.175  34.232
30664DA     SC199323  67.021  91.404  34.362
30664DA     SC299324  66.817  91.537  34.308
30664DA     SC399325  66.907  91.706  34.477
30664DA     SC499326  67.094  91.497  34.469
30665DT     BB199327  67.232  91.097  34.070
30665DT     BB299328  66.934  91.195  33.892
30665DT     BB399329  66.974  91.359  33.773
30665DT     SC199330  66.977  91.519  33.981
30665DT     SC299331  66.805  91.648  33.974
30665DT     SC399332  67.066  91.688  34.163
30666DG     BB199333  66.816  91.051  33.560
30666DG     BB299334  66.636  91.359  33.505
30666DG     BB399335  66.742  91.479  33.387
30666DG     SC199336  66.890  91.616  33.618
30666DG     SC299337  66.861  91.901  33.700
30666DG     SC399338  67.084  91.772  33.845
30666DG     SC499339  67.026  91.552  33.671
30667DA     BB199340  66.440  91.494  33.222
30667DA     BB299341  66.441  91.858  33.258
30667DA     BB399342  66.589  91.945  33.131
30667DA     SC199343  66.814  91.935  33.345
30667DA     SC299344  66.944  92.097  33.484
30667DA     SC399345  67.115  91.907  33.509
30667DA     SC499346  66.909  91.805  33.347
30668DA     BB199347  66.321  92.116  33.050
30668DA     BB299348  66.509  92.416  33.146
30668DA     BB399349  66.661  92.457  33.002
30668DA     SC199350  66.878  92.289  33.149
30668DA     SC299351  67.089  92.330  33.276
30668DA     SC399352  67.143  92.085  33.225
30668DA     SC499353  66.895  92.135  33.105
30669DT     BB199354  66.645  92.623  32.890
30669DT     BB299355  66.911  92.813  33.042
30669DT     BB399356  67.077  92.813  32.918
30669DT     SC199357  67.134  92.565  32.983
30669DT     SC299358  67.313  92.561  33.101
30669DT     SC399359  67.174  92.305  32.958
30670DA     BB199360  67.010  93.223  32.988
30670DA     BB299361  67.368  93.162  33.039
30670DA     BB399362  67.467  93.137  32.852
30670DA     SC199363  67.428  92.829  32.844
30670DA     SC299364  67.569  92.624  32.862
30670DA     SC399365  67.375  92.504  32.746
30670DA     SC499366  67.297  92.772  32.769
30671DT     BB199367  67.618  93.283  32.755
30671DT     BB299368  67.912  93.082  32.814
30671DT     BB399369  67.985  93.010  32.634
30671DT     SC199370  67.792  92.833  32.618
30671DT     SC299371  67.873  92.636  32.646
30671DT     SC399372  67.579  92.705  32.529
30672DC     BB199373  68.210  93.185  32.611
30672DC     BB299374  68.357  92.855  32.594
30672DC     BB399375  68.372  92.795  32.397
30672DC     SC199376  68.114  92.749  32.383
30672DC     SC299377  68.080  92.537  32.368
30672DC     SC399378  67.862  92.769  32.307
30673DT     BB199379  68.650  92.828  32.386
30673DT     BB299380  68.598  92.481  32.302
30673DT     BB399381  68.577  92.460  32.097
30673DT     SC199382  68.334  92.559  32.105
30673DT     SC299383  68.192  92.404  32.061
30673DT     SC399384  68.130  92.722  32.062
30674DT     BB199385  68.821  92.343  32.086
30674DT     BB299386  68.594  92.097  31.950
30674DT     BB399387  68.569  92.129  31.747
30674DT     SC199388  68.416  92.337  31.790
30674DT     SC299389  68.214  92.291  31.733
30674DT     SC399390  68.331  92.587  31.791
30675DT     BB199391  68.704  91.904  31.724
30675DT     BB299392  68.389  91.844  31.559
30675DT     BB399393  68.395  91.918  31.366
30675DT     SC199394  68.374  92.165  31.451
30675DT     SC299395  68.181  92.243  31.397
30675DT     SC399396  68.435  92.417  31.499
30676DT     BB199397  68.388  91.663  31.307
30676DT     BB299398  68.105  91.808  31.138
30676DT     BB399399  68.166  91.898  30.962
30676DT     SC199400  68.270  92.100  31.092
30676DT     SC299401  68.153  92.277  31.056
30676DT     SC399402  68.450  92.270  31.185
30677DA     BB199403  67.835  91.647  30.894
30677DA     BB299404  67.776  91.965  30.722
30677DA     BB399405  67.908  91.986  30.556
30677DA     SC199406  68.130  92.129  30.720
30677DA     SC299407  68.231  92.357  30.736
30677DA     SC399408  68.430  92.240  30.847
30677DA     SC499409  68.245  92.038  30.786
30678DT     BB199410  67.832  91.984  30.368
30678DT     BB299411  67.883  92.332  30.288
30678DT     BB399412  68.046  92.352  30.163
30678DT     SC199413  68.213  92.309  30.361
30678DT     SC299414  68.318  92.492  30.406
30678DT     SC399415  68.400  92.195  30.507
30679DT     BB199416  67.902  92.399  29.920
30679DT     BB299417  68.129  92.679  29.935
30679DT     BB399418  68.304  92.633  29.835
30679DT     SC199419  68.384  92.478  30.031
30679DT     SC299420  68.551  92.570  30.130
30679DT     SC399421  68.458  92.261  30.162
30680DT     BB199422  68.271  92.780  29.578
30680DT     BB299423  68.588  92.902  29.700
30680DT     BB399424  68.742  92.792  29.616
30680DT     SC199425  68.691  92.587  29.771
30680DT     SC299426  68.850  92.564  29.914
30680DT     SC399427  68.623  92.344  29.846
30681DT     BB199428  68.853  92.978  29.404
30681DT     BB299429  69.142  92.907  29.608
30681DT     BB399430  69.253  92.754  29.522
30681DT     SC199431  69.078  92.574  29.598
30681DT     SC299432  69.165  92.450  29.751
30681DT     SC399433  68.896  92.384  29.583
30682DT     BB199434  69.473  92.913  29.421
30682DT     BB299435  69.632  92.676  29.642
30682DT     BB399436  69.696  92.511  29.534
30682DT     SC199437  69.451  92.421  29.512
30682DT     SC299438  69.430  92.243  29.631
30682DT     SC399439  69.224  92.344  29.403
30683DG     BB199440  70.031  92.664  29.709
30683DG     BB299441  69.985  92.316  29.795
30683DG     BB399442  70.051  92.200  29.647
30683DG     SC199443  69.782  92.192  29.501
30683DG     SC299444  69.609  91.951  29.466
30683DG     SC399445  69.509  92.178  29.304
30683DG     SC499446  69.749  92.306  29.393
30684DT     BB199447  70.214  92.062  29.687
30684DT     BB299448  70.035  91.750  29.709
30684DT     BB399449  70.064  91.640  29.536
30684DT     SC199450  69.902  91.795  29.400
30684DT     SC299451  69.722  91.687  29.352
30684DT     SC399452  69.816  91.967  29.219
30685DA     BB199453  70.131  91.413  29.881
30685DA     BB299454  69.905  91.226  29.662
30685DA     BB399455  70.010  91.155  29.490
30685DA     SC199456  69.950  91.407  29.318
30685DA     SC299457  69.812  91.466  29.119
30685DA     SC399458  69.967  91.669  29.096
30685DA     SC499459  70.058  91.526  29.320
30686DA     BB199460  69.854  90.900  29.617
30686DA     BB299461  69.685  90.876  29.293
30686DA     BB399462  69.821  90.812  29.142
30686DA     SC199463  69.907  91.100  29.063
30686DA     SC299464  69.878  91.254  28.869
30686DA     SC399465  70.082  91.379  28.964
30686DA     SC499466  70.035  91.163  29.137
30687DA     BB199467  69.561  90.616  29.120
30687DA     BB299468  69.534  90.736  28.775
30687DA     BB399469  69.696  90.662  28.658
30687DA     SC199470  69.880  90.906  28.715
30687DA     SC299471  69.974  91.100  28.589
30687DA     SC399472  70.149  91.110  28.776
30687DA     SC499473  69.981  90.895  28.840
30688DT     BB199474  69.636  90.549  28.526
30688DT     BB299475  69.694  90.766  28.244
30688DT     BB399476  69.873  90.718  28.153
30688DT     SC199477  70.011  90.828  28.346
30688DT     SC299478  70.107  91.006  28.273
30688DT     SC399479  70.177  90.854  28.550
30689DA     BB199480  69.571  90.739  27.862
30689DA     BB299481  69.863  90.923  27.737
30689DA     BB399482  70.020  90.787  27.687
30689DA     SC199483  70.150  90.796  27.969
30689DA     SC299484  70.359  90.884  28.074
30689DA     SC399485  70.311  90.717  28.263
30689DA     SC499486  70.104  90.684  28.076
30690DA     BB199487  70.003  90.953  27.402
30690DA     BB299488  70.355  91.041  27.453
30690DA     BB399489  70.480  90.871  27.417
30690DA     SC199490  70.474  90.775  27.713
30690DA     SC299491  70.632  90.760  27.906
30690DA     SC399492  70.468  90.586  28.000
30690DA     SC499493  70.361  90.668  27.754
30691DA     BB199494  70.640  91.069  27.202
30691DA     BB299495  70.943  91.017  27.402
30691DA     BB399496  71.025  90.824  27.363
30691DA     SC199497  70.866  90.683  27.590
30691DA     SC299498  70.913  90.578  27.811
30691DA     SC399499  70.688  90.459  27.780
30691DA     SC499500  70.724  90.617  27.551
30692DG     BB199501  71.295  90.955  27.251
30692DG     BB299502  71.447  90.790  27.535
30692DG     BB399503  71.497  90.604  27.487
30692DG     SC199504  71.228  90.484  27.571
30692DG     SC299505  71.182  90.297  27.799
30692DG     SC399506  70.938  90.323  27.634
30692DG     SC499507  71.109  90.478  27.463
30693DT     BB199508  71.723  90.504  27.473
30693DT     BB299509  71.725  90.311  27.778
30693DT     BB399510  71.715  90.109  27.733
30693DT     SC199511  71.461  90.126  27.672
30693DT     SC299512  71.344  90.023  27.821
30693DT     SC399513  71.238  90.119  27.530
30694DG     BB199514  72.070  90.138  27.936
30694DG     BB299515  71.855  89.889  28.087
30694DG     BB399516  71.870  89.717  27.987
30694DG     SC199517  71.645  89.783  27.791
30694DG     SC299518  71.381  89.643  27.774
30694DG     SC399519  71.417  89.830  27.547
30694DG     SC499520  71.680  89.861  27.655
30695DT     BB199521  71.947  89.529  28.085
30695DT     BB299522  71.637  89.353  28.138
30695DT     BB399523  71.620  89.197  28.002
30695DT     SC199524  71.565  89.363  27.806
30695DT     SC299525  71.359  89.338  27.748
30695DT     SC399526  71.588  89.495  27.579
30696DT     BB199527  71.655  89.038  28.211
30696DT     BB299528  71.333  88.948  28.074
30696DT     BB399529  71.358  88.814  27.919
30696DT     SC199530  71.443  89.003  27.758
30696DT     SC299531  71.295  89.039  27.606
30696DT     SC399532  71.602  89.142  27.601
30697DA     BB199533  71.066  88.699  28.198
30697DA     BB299534  70.925  88.670  27.861
30697DA     BB399535  71.018  88.511  27.755
30697DA     SC199536  71.241  88.690  27.633
30697DA     SC299537  71.305  88.779  27.409
30697DA     SC399538  71.538  88.813  27.511
30697DA     SC499539  71.380  88.702  27.714
30698DA     BB199540  70.693  88.479  27.731
30698DA     BB299541  70.748  88.495  27.369
30698DA     BB399542  70.855  88.323  27.303
30698DA     SC199543  71.135  88.453  27.339
30698DA     SC299544  71.321  88.535  27.193
30698DA     SC399545  71.467  88.512  27.403
30698DA     SC499546  71.210  88.431  27.479
30699DA     BB199547  70.592  88.350  27.106
30699DA     BB299548  70.834  88.361  26.831
30699DA     BB399549  70.932  88.173  26.810
30699DA     SC199550  71.166  88.247  27.002
30699DA     SC299551  71.410  88.294  26.985
30699DA     SC399552  71.417  88.240  27.236
30699DA     SC499553  71.149  88.208  27.157
30700DT     BB199554  70.893  88.084  26.649
30700DT     BB299555  71.215  88.122  26.490
30700DT     BB399556  71.326  87.949  26.514
30700DT     SC199557  71.374  88.005  26.766
30700DT     SC299558  71.582  88.054  26.789
30700DT     SC399559  71.375  87.984  27.029
30701DC     BB199560  71.292  87.869  26.250
30701DC     BB299561  71.650  87.864  26.294
30701DC     BB399562  71.710  87.679  26.365
30701DC     SC199563  71.619  87.732  26.605
30701DC     SC299564  71.784  87.755  26.741
30701DC     SC399565  71.473  87.716  26.824
30702DT     BB199566  71.819  87.584  26.121
30702DT     BB299567  72.092  87.546  26.355
30702DT     BB399568  72.085  87.358  26.441
30702DT     SC199569  71.882  87.425  26.592
30702DT     SC299570  71.946  87.436  26.797
30702DT     SC399571  71.639  87.428  26.695
30703DA     BB199572  72.477  87.367  26.287
30703DA     BB299573  72.502  87.257  26.636
30703DA     BB399574  72.445  87.052  26.653
30703DA     SC199575  72.145  87.114  26.706
30703DA     SC299576  71.985  87.099  26.896
30703DA     SC399577  71.802  87.107  26.716
30703DA     SC499578  72.047  87.119  26.579
30704DA     BB199579  72.741  87.002  26.795
30704DA     BB299580  72.562  86.902  27.099
30704DA     BB399581  72.495  86.700  27.082
30704DA     SC199582  72.219  86.777  26.960
30704DA     SC299583  71.980  86.775  27.029
30704DA     SC399584  71.928  86.786  26.778
30704DA     SC499585  72.208  86.782  26.799
30705DA     BB199586  72.659  86.661  27.365
30705DA     BB299587  72.337  86.576  27.519
30705DA     BB399588  72.282  86.376  27.471
30705DA     SC199589  72.124  86.456  27.215
30705DA     SC299590  71.886  86.463  27.139
30705DA     SC399591  71.984  86.466  26.901
30705DA     SC499592  72.204  86.456  27.075
30706DA     BB199593  72.260  86.356  27.797
30706DA     BB299594  71.904  86.282  27.749
30706DA     BB399595  71.878  86.081  27.682
30706DA     SC199596  71.892  86.154  27.380
30706DA     SC299597  71.737  86.161  27.185
30706DA     SC399598  71.949  86.154  27.041
30706DA     SC499599  72.035  86.147  27.308
30707DA     BB199600  71.678  86.077  27.941
30707DA     BB299601  71.407  86.003  27.705
30707DA     BB399602  71.418  85.800  27.641
30707DA     SC199603  71.598  85.861  27.396
30707DA     SC299604  71.578  85.862  27.147
30707DA     SC399605  71.834  85.848  27.146
30707DA     SC499606  71.757  85.851  27.416
30708DT     BB199607  71.268  85.677  27.695
30708DT     BB299608  71.109  85.659  27.372
30708DT     BB399609  71.150  85.477  27.283
30708DT     SC199610  71.395  85.550  27.227
30708DT     SC299611  71.416  85.576  27.014
30708DT     SC399612  71.659  85.555  27.227
30709DA     BB199613  70.734  85.532  27.274
30709DA     BB299614  70.843  85.438  26.937
30709DA     BB399615  70.894  85.231  26.930
30709DA     SC199616  71.193  85.277  27.001
30709DA     SC299617  71.415  85.260  26.887
30709DA     SC399618  71.513  85.249  27.124
30709DA     SC499619  71.235  85.270  27.156
30710DA     BB199620  70.680  85.250  26.683
30710DA     BB299621  70.955  85.143  26.466
30710DA     BB399622  70.995  84.935  26.493
30710DA     SC199623  71.206  84.980  26.718
30710DA     SC299624  71.452  84.956  26.747
30710DA     SC399625  71.402  84.953  26.998
30710DA     SC499626  71.154  84.978  26.870
30711DG     BB199627  70.928  84.945  26.193
30711DG     BB299628  71.273  84.843  26.164
30711DG     BB399629  71.290  84.648  26.203
30711DG     SC199630  71.335  84.688  26.503
30711DG     SC299631  71.587  84.628  26.652
30711DG     SC399632  71.367  84.693  26.839
30711DG     SC499633  71.208  84.693  26.600
30712DA     BB199634  71.462  84.655  25.904
30712DA     BB299635  71.757  84.522  26.077
30712DA     BB399636  71.726  84.317  26.128
30712DA     SC199637  71.606  84.381  26.408
30712DA     SC299638  71.671  84.356  26.647
30712DA     SC399639  71.421  84.378  26.697
30712DA     SC499640  71.446  84.395  26.418
30713DT     BB199641  71.843  84.201  26.039
30713DT     BB299642  72.053  84.123  26.322
30713DT     BB399643  71.997  83.941  26.403
30713DT     SC199644  71.783  84.046  26.512
30713DT     SC299645  71.806  84.051  26.726
30713DT     SC399646  71.528  84.093  26.564
30714DC     BB199647  72.223  83.836  26.305
30714DC     BB299648  72.237  83.770  26.660
30714DC     BB399649  72.132  83.597  26.703
30714DC     SC199650  71.902  83.719  26.672
30714DC     SC299651  71.804  83.738  26.862
30714DC     SC399652  71.665  83.780  26.573
30715DA     BB199653  72.514  83.559  26.875
30715DA     BB299654  72.264  83.475  27.131
30715DA     BB399655  72.176  83.286  27.089
30715DA     SC199656  71.944  83.404  26.919
30715DA     SC299657  71.697  83.434  26.938
30715DA     SC399658  71.700  83.459  26.683
30715DA     SC499659  71.967  83.416  26.760
30716DA     BB199660  72.274  83.234  27.398
30716DA     BB299661  71.919  83.186  27.479
30716DA     BB399662  71.851  82.997  27.407
30716DA     SC199663  71.761  83.107  27.130
30716DA     SC299664  71.547  83.148  27.009
30716DA     SC399665  71.691  83.148  26.797
30716DA     SC499666  71.868  83.102  27.010
30717DT     BB199667  71.799  82.873  27.543
30717DT     BB299668  71.443  82.903  27.492
30717DT     BB399669  71.373  82.741  27.384
30717DT     SC199670  71.476  82.834  27.162
30717DT     SC299671  71.318  82.897  27.030
30717DT     SC399672  71.627  82.852  26.946
30718DT     BB199673  71.257  82.675  27.610
30718DT     BB299674  70.990  82.709  27.371
30718DT     BB399675  70.974  82.536  27.257
30718DT     SC199676  71.189  82.597  27.120
30718DT     SC299677  71.133  82.647  26.918
30718DT     SC399678  71.433  82.583  27.022
30719DT     BB199679  70.751  82.512  27.390
30719DT     BB299680  70.658  82.515  27.041
30719DT     BB399681  70.690  82.329  26.957
30719DT     SC199682  70.950  82.366  26.953
30719DT     SC299683  71.015  82.388  26.749
30719DT     SC399684  71.206  82.334  27.006
30720DT     BB199685  70.431  82.334  26.950
30720DT     BB299686  70.539  82.282  26.609
30720DT     BB399687  70.594  82.085  26.581
30720DT     SC199688  70.818  82.120  26.713
30720DT     SC299689  70.984  82.109  26.576
30720DT     SC399690  71.003  82.096  26.899
30721DG     BB199691  70.305  82.180  26.310
30721DG     BB299692  70.591  82.026  26.151
30721DG     BB399693  70.589  81.830  26.184
30721DG     SC199694  70.752  81.848  26.443
30721DG     SC299695  71.029  81.743  26.484
30721DG     SC399696  70.911  81.832  26.740
30721DG     SC499697  70.675  81.869  26.582
30722DA     BB199698  70.625  81.796  25.840
30722DA     BB299699  70.934  81.605  25.891
30722DA     BB399700  70.890  81.408  25.960
30722DA     SC199701  70.902  81.485  26.261
30722DA     SC299702  71.050  81.442  26.457
30722DA     SC399703  70.848  81.509  26.600
30722DA     SC499704  70.764  81.529  26.332
30723DA     BB199705  71.075  81.318  25.702
30723DA     BB299706  71.298  81.152  25.941
30723DA     BB399707  71.211  80.970  26.010
30723DA     SC199708  71.068  81.103  26.253
30723DA     SC299709  71.088  81.102  26.501
30723DA     SC399710  70.846  81.187  26.501
30723DA     SC499711  70.917  81.153  26.232
30724DC     BB199712  71.294  80.785  25.961
30724DC     BB299713  71.433  80.711  26.286
30724DC     BB399714  71.320  80.565  26.379
30724DC     SC199715  71.128  80.737  26.431
30724DC     SC299716  71.121  80.774  26.643
30724DC     SC399717  70.891  80.852  26.429
30725DC     BB199718  71.511  80.368  26.341
30725DC     BB299719  71.456  80.369  26.698
30725DC     BB399720  71.302  80.240  26.746
30725DC     SC199721  71.122  80.408  26.655
30725DC     SC299722  71.009  80.487  26.820
30725DC     SC399723  70.929  80.508  26.507
30726DT     BB199724  71.471  80.046  26.854
30726DT     BB299725  71.241  80.120  27.122
30726DT     BB399726  71.075  79.997  27.110
30726DT     SC199727  70.979  80.132  26.906
30726DT     SC299728  70.803  80.238  26.968
30726DT     SC399729  70.897  80.187  26.662
30727DT     BB199730  71.150  79.839  27.328
30727DT     BB299731  70.822  79.960  27.416
30727DT     BB399732  70.678  79.829  27.348
30727DT     SC199733  70.709  79.909  27.101
30727DT     SC299734  70.534  80.018  27.038
30727DT     SC399735  70.767  79.904  26.843
30728DA     BB199736  70.597  79.880  27.757
30728DA     BB299737  70.284  79.935  27.574
30728DA     BB399738  70.203  79.749  27.508
30728DA     SC199739  70.350  79.754  27.234
30728DA     SC299740  70.291  79.782  26.993
30728DA     SC399741  70.517  79.670  26.946
30728DA     SC499742  70.493  79.681  27.225
30729DT     BB199743  70.023  79.680  27.587
30729DT     BB299744  69.822  79.758  27.297
30729DT     BB399745  69.771  79.584  27.198
30729DT     SC199746  70.013  79.559  27.100
30729DT     SC299747  70.009  79.594  26.888
30729DT     SC399748  70.253  79.459  27.053
30730DC     BB199749  69.519  79.619  27.284
30730DC     BB299750  69.496  79.613  26.924
30730DC     BB399751  69.482  79.418  26.857
30730DC     SC199752  69.736  79.375  26.903
30730DC     SC299753  69.840  79.354  26.716
30730DC     SC399754  69.956  79.273  27.008
30731DG     BB199755  69.162  79.631  26.721
30731DG     BB299756  69.337  79.465  26.452
30731DG     BB399757  69.291  79.272  26.450
30731DG     SC199758  69.519  79.191  26.638
30731DG     SC299759  69.756  79.024  26.564
30731DG     SC399760  69.746  79.070  26.856
30731DG     SC499761  69.494  79.193  26.796
30732DA     BB199762  69.226  79.336  26.118
30732DA     BB299763  69.479  79.087  26.025
30732DA     BB399764  69.405  78.890  26.060
30732DA     SC199765  69.515  78.875  26.351
30732DA     SC299766  69.694  78.752  26.474
30732DA     SC399767  69.560  78.811  26.685
30732DA     SC499768  69.418  78.920  26.470
30733DT     BB199769  69.381  78.783  25.902
30733DT     BB299770  69.667  78.569  25.952
30733DT     BB399771  69.606  78.385  26.025
30733DT     SC199772  69.562  78.486  26.263
30733DT     SC299773  69.708  78.409  26.401
30733DT     SC399774  69.433  78.562  26.480
30734DT     BB199775  69.674  78.291  25.787
30734DT     BB299776  69.872  78.104  26.023
30734DT     BB399777  69.761  77.947  26.099
30734DT     SC199778  69.621  78.109  26.251
30734DT     SC299779  69.672  78.076  26.457
30734DT     SC399780  69.414  78.240  26.349
30735DC     BB199781  69.928  77.801  25.960
30735DC     BB299782  69.962  77.687  26.300
30735DC     BB399783  69.810  77.554  26.346
30735DC     SC199784  69.634  77.748  26.362
30735DC     SC299785  69.574  77.772  26.568
30735DC     SC399786  69.423  77.897  26.309
30736DC     BB199787  70.011  77.390  26.350
30736DC     BB299788  69.858  77.365  26.676
30736DC     BB399789  69.690  77.244  26.666
30736DC     SC199790  69.552  77.433  26.547
30736DC     SC299791  69.401  77.507  26.681
30736DC     SC399792  69.413  77.560  26.362
30737DC     BB199793  69.845  77.095  26.808
30737DC     BB299794  69.545  77.140  27.004
30737DC     BB399795  69.395  77.017  26.932
30737DC     SC199796  69.357  77.171  26.724
30737DC     SC299797  69.166  77.270  26.742
30737DC     SC399798  69.346  77.251  26.473
30738DA     BB199799  69.431  76.982  27.352
30738DA     BB299800  69.075  77.009  27.267
30738DA     BB399801  69.010  76.834  27.164
30738DA     SC199802  69.074  76.946  26.881
30738DA     SC299803  68.948  77.022  26.680
30738DA     SC399804  69.167  76.983  26.553
30738DA     SC499805  69.219  76.914  26.819
30739DG     BB199806  68.809  76.804  27.403
30739DG     BB299807  68.560  76.829  27.143
30739DG     BB399808  68.541  76.654  27.049
30739DG     SC199809  68.756  76.714  26.840
30739DG     SC299810  68.710  76.752  26.547
30739DG     SC399811  68.999  76.739  26.608
30739DG     SC499812  68.908  76.678  26.872
30740DA     BB199813  68.184  76.622  27.098
30740DA     BB299814  68.127  76.601  26.736
30740DA     BB399815  68.168  76.404  26.666
30740DA     SC199816  68.467  76.463  26.603
30740DA     SC299817  68.612  76.487  26.402
30740DA     SC399818  68.807  76.442  26.562
30740DA     SC499819  68.575  76.432  26.719
30741DA     BB199820  67.854  76.331  26.527
30741DA     BB299821  68.010  76.301  26.197
30741DA     BB399822  68.080  76.101  26.166
30741DA     SC199823  68.363  76.157  26.281
30741DA     SC299824  68.597  76.175  26.195
30741DA     SC399825  68.667  76.133  26.439
30741DA     SC499826  68.387  76.129  26.437
30742DT     BB199827  67.999  75.917  26.009
30742DT     BB299828  68.269  75.952  25.772
30742DT     BB399829  68.384  75.780  25.769
30742DT     SC199830  68.495  75.840  25.999
30742DT     SC299831  68.702  75.890  25.968
30742DT     SC399832  68.563  75.824  26.254
30743DT     BB199833  68.289  75.688  25.520
30743DT     BB299834  68.646  75.714  25.473
30743DT     BB399835  68.736  75.534  25.518
30743DT     SC199836  68.704  75.572  25.776
30743DT     SC299837  68.896  75.607  25.867
30743DT     SC399838  68.620  75.537  26.023
30744DA     BB199839  68.869  75.654  25.141
30744DA     BB299840  69.164  75.566  25.340
30744DA     BB399841  69.179  75.354  25.361
30744DA     SC199842  69.013  75.345  25.624
30744DA     SC299843  69.053  75.298  25.866
30744DA     SC399844  68.800  75.255  25.879
30744DA     SC499845  68.854  75.321  25.611
30745DA     BB199846  69.477  75.428  25.248
30745DA     BB299847  69.609  75.282  25.558
30745DA     BB399848  69.593  75.070  25.552
30745DA     SC199849  69.311  75.063  25.684
30745DA     SC299850  69.210  74.992  25.900
30745DA     SC399851  68.988  74.986  25.772
30745DA     SC499852  69.183  75.064  25.586
30746DT     BB199853  69.764  74.954  25.544
30746DT     BB299854  69.752  74.826  25.881
30746DT     BB399855  69.691  74.628  25.880
30746DT     SC199856  69.443  74.697  25.831
30746DT     SC299857  69.322  74.656  26.004
30746DT     SC399858  69.212  74.719  25.706
30747DT     BB199859  69.948  74.510  25.929
30747DT     BB299860  69.742  74.367  26.189
30747DT     BB399861  69.661  74.188  26.124
30747DT     SC199862  69.489  74.312  25.969
30747DT     SC299863  69.291  74.288  26.048
30747DT     SC399864  69.365  74.392  25.750
30748DC     BB199865  69.831  73.975  26.262
30748DC     BB299866  69.496  73.884  26.361
30748DC     BB399867  69.424  73.734  26.238
30748DC     SC199868  69.387  73.904  26.041
30748DC     SC299869  69.176  73.930  26.008
30748DC     SC399870  69.412  74.020  25.805
30749DG     BB199871  69.415  73.492  26.582
30749DG     BB299872  69.088  73.500  26.427
30749DG     BB399873  69.073  73.354  26.293
30749DG     SC199874  69.179  73.521  26.060
30749DG     SC299875  69.024  73.608  25.821
30749DG     SC399876  69.311  73.669  25.787
30749DG     SC499877  69.337  73.525  26.034
30750DA     BB199878  68.785  73.227  26.444
30750DA     BB299879  68.590  73.326  26.150
30750DA     BB399880  68.594  73.172  26.002
30750DA     SC199881  68.846  73.284  25.858
30750DA     SC299882  68.901  73.393  25.640
30750DA     SC399883  69.142  73.319  25.687
30750DA     SC499884  68.989  73.228  25.904
30751DC     BB199885  68.427  73.122  25.982
30751DC     BB299886  68.375  73.309  25.678
30751DC     BB399887  68.394  73.184  25.514
30751DC     SC199888  68.655  73.178  25.539
30751DC     SC299889  68.745  73.284  25.375
30751DC     SC399890  68.898  73.084  25.578
30752DT     BB199891  68.158  73.277  25.529
30752DT     BB299892  68.298  73.393  25.217
30752DT     BB399893  68.315  73.236  25.084
30752DT     SC199894  68.522  73.139  25.213
30752DT     SC299895  68.698  73.163  25.092
30752DT     SC399896  68.671  72.973  25.353
30753DA     BB199897  68.172  73.623  24.957
30753DA     BB299898  68.420  73.494  24.719
30753DA     BB399899  68.351  73.313  24.630
30753DA     SC199900  68.480  73.130  24.846
30753DA     SC299901  68.668  72.966  24.860
30753DA     SC399902  68.548  72.878  25.069
30753DA     SC499903  68.390  73.089  24.972
30754DT     BB199904  68.346  73.361  24.474
30754DT     BB299905  68.617  73.157  24.352
30754DT     BB399906  68.547  72.969  24.301
30754DT     SC199907  68.526  72.900  24.553
30754DT     SC299908  68.675  72.751  24.599
30754DT     SC399909  68.418  72.826  24.782
30755DA     BB199910  68.775  73.122  23.981
30755DA     BB299911  68.876  72.774  24.039
30755DA     BB399912  68.719  72.641  23.981
30755DA     SC199913  68.586  72.637  24.262
30755DA     SC299914  68.555  72.475  24.449
30755DA     SC399915  68.362  72.628  24.523
30755DA     SC499916  68.469  72.744  24.290
30756DT     BB199917  68.742  72.515  23.819
30756DT     BB299918  68.775  72.207  24.004
30756DT     BB399919  68.599  72.098  23.990
30756DT     SC199920  68.477  72.258  24.158
30756DT     SC299921  68.441  72.154  24.343
30756DT     SC399922  68.305  72.434  24.253
30757DT     BB199923  68.702  71.909  23.813
30757DT     BB299924  68.581  71.712  24.089
30757DT     BB399925  68.383  71.661  24.059
30757DT     SC199926  68.304  71.905  24.117
30757DT     SC299927  68.199  71.903  24.305
30757DT     SC399928  68.198  72.144  24.089
30758DT     BB199929  68.439  71.396  24.001
30758DT     BB299930  68.211  71.379  24.280
30758DT     BB399931  68.016  71.374  24.212
30758DT     SC199932  68.022  71.630  24.151
30758DT     SC299933  67.895  71.738  24.286
30758DT     SC399934  68.017  71.851  24.008
30759DT     BB199935  67.998  71.115  24.285
30759DT     BB299936  67.737  71.282  24.470
30759DT     BB399937  67.566  71.294  24.355
30759DT     SC199938  67.668  71.484  24.206
30759DT     SC299939  67.566  71.669  24.246
30759DT     SC399940  67.762  71.610  23.994
30760DC     BB199941  67.469  71.120  24.527
30760DC     BB299942  67.251  71.406  24.546
30760DC     BB399943  67.112  71.400  24.393
30760DC     SC199944  67.292  71.471  24.216
30760DC     SC299945  67.249  71.670  24.147
30760DC     SC399946  67.452  71.459  24.007
30761DG     BB199947  66.927  71.426  24.755
30761DG     BB299948  66.811  71.681  24.525
30761DG     BB399949  66.687  71.601  24.392
30761DG     SC199950  66.909  71.532  24.192
30761DG     SC299951  66.946  71.655  23.922
30761DG     SC399952  67.128  71.424  23.959
30761DG     SC499953  66.983  71.391  24.204
30762DT     BB199954  66.498  71.677  24.392
30762DT     BB299955  66.491  71.871  24.088
30762DT     BB399956  66.402  71.761  23.936
30762DT     SC199957  66.616  71.611  23.909
30762DT     SC299958  66.711  71.655  23.721
30762DT     SC399959  66.770  71.397  23.908
30763DA     BB199960  66.209  72.134  23.949
30763DA     BB299961  66.289  72.062  23.599
30763DA     BB399962  66.161  71.908  23.524
30763DA     SC199963  66.354  71.676  23.604
30763DA     SC299964  66.500  71.510  23.489
30763DA     SC399965  66.487  71.378  23.708
30763DA     SC499966  66.332  71.608  23.748
30764DC     BB199967  66.012  71.944  23.374
30764DC     BB299968  66.181  71.778  23.102
30764DC     BB399969  66.087  71.598  23.059
30764DC     SC199970  66.188  71.485  23.273
30764DC     SC299971  66.333  71.338  23.214
30764DC     SC399972  66.202  71.367  23.509
30765DG     BB199973  66.041  71.794  22.700
30765DG     BB299974  66.188  71.467  22.649
30765DG     BB399975  66.045  71.329  22.645
30765DG     SC199976  66.052  71.277  22.946
30765DG     SC299977  66.142  71.025  23.079
30765DG     SC399978  66.020  71.210  23.275
30765DG     SC499979  65.960  71.366  23.043
30766DG     BB199980  66.104  71.217  22.329
30766DG     BB299981  66.199  70.903  22.480
30766DG     BB399982  66.040  70.784  22.495
30766DG     SC199983  65.960  70.885  22.773
30766DG     SC299984  65.967  70.726  23.026
30766DG     SC399985  65.833  70.986  23.068
30766DG     SC499986  65.863  71.012  22.785
30767DT     BB199987  66.016  70.576  22.385
30767DT     BB299988  66.088  70.355  22.661
30767DT     BB399989  65.915  70.259  22.722
30767DT     SC199990  65.825  70.476  22.838
30767DT     SC299991  65.827  70.449  23.051
30767DT     SC399992  65.672  70.684  22.891
30768DC     BB199993  66.024  70.038  22.621
30768DC     BB299994  65.973  69.969  22.971
30768DC     BB399995  65.780  69.901  23.003
30768DC     SC199996  65.682  70.143  22.973
30768DC     SC299997  65.610  70.215  23.162
30768DC     SC399998  65.545  70.344  22.872
30769DA     BB199999  66.098  69.694  23.189
30769DA     BB2    0  65.838  69.768  23.437
30769DA     BB3    1  65.660  69.659  23.392
30769DA     SC1    2  65.538  69.885  23.216
30769DA     SC2    3  65.349  70.047  23.228
30769DA     SC3    4  65.373  70.063  22.973
30769DA     SC4    5  65.567  69.880  23.058
30770DG     BB1    6  65.771  69.625  23.679
30770DG     BB2    7  65.446  69.763  23.756
30770DG     BB3    8  65.303  69.635  23.703
30770DG     SC1    9  65.275  69.747  23.419
30770DG     SC2   10  65.037  69.889  23.310
30770DG     SC3   11  65.232  69.830  23.095
30770DG     SC4   12  65.368  69.687  23.303
30771DC     BB1   13  65.207  69.599  23.858
30771DC     BB2   14  64.885  69.748  23.794
30771DC     BB3   15  64.761  69.612  23.698
30771DC     SC1   16  64.890  69.644  23.472
30771DC     SC2   17  64.763  69.746  23.331
30771DC     SC3   18  65.037  69.587  23.260
30772DA     BB1   19  64.554  69.774  24.028
30772DA     BB2   20  64.327  69.770  23.740
30772DA     BB3   21  64.272  69.569  23.691
30772DA     SC1   22  64.507  69.527  23.492
30772DA     SC2   23  64.537  69.501  23.246
30772DA     SC3   24  64.764  69.396  23.305
30772DA     SC4   25  64.643  69.464  23.549
30773DT     BB1   26  64.076  69.499  23.719
30773DT     BB2   27  63.983  69.478  23.371
30773DT     BB3   28  63.980  69.280  23.310
30773DT     SC1   29  64.242  69.269  23.305
30773DT     SC2   30  64.309  69.253  23.101
30773DT     SC3   31  64.488  69.197  23.365
30774DC     BB1   32  63.700  69.260  23.304
30774DC     BB2   33  63.800  69.156  22.973
30774DC     BB3   34  63.831  68.952  22.970
30774DC     SC1   35  64.058  68.976  23.098
30774DC     SC2   36  64.221  68.929  22.966
30774DC     SC3   37  64.240  68.952  23.288
30775DT     BB1   38  63.596  68.898  22.829
30775DT     BB2   39  63.855  68.748  22.626
30775DT     BB3   40  63.886  68.552  22.685
30775DT     SC1   41  64.013  68.629  22.902
30775DT     SC2   42  64.221  68.579  22.884
30775DT     SC3   43  64.069  68.663  23.157
30776DT     BB1   44  63.764  68.455  22.458
30776DT     BB2   45  64.092  68.304  22.454
30776DT     BB3   46  64.090  68.126  22.560
30776DT     SC1   47  64.083  68.254  22.789
30776DT     SC2   48  64.271  68.227  22.891
30776DT     SC3   49  63.997  68.339  23.023
30777DT     BB1   50  64.108  67.984  22.328
30777DT     BB2   51  64.390  67.872  22.523
30777DT     BB3   52  64.332  67.716  22.647
30777DT     SC1   53  64.206  67.880  22.808
30777DT     SC2   54  64.311  67.892  22.995
30777DT     SC3   55  64.009  67.995  22.941
30778DA     BB1   56  64.667  67.571  22.439
30778DA     BB2   57  64.718  67.497  22.794
30778DA     BB3   58  64.594  67.334  22.854
30778DA     SC1   59  64.356  67.516  22.939
30778DA     SC2   60  64.242  67.585  23.150
30778DA     SC3   61  64.044  67.647  22.999
30778DA     SC4   62  64.243  67.546  22.829
30779DT     BB1   63  64.669  67.134  22.912
30779DT     BB2   64  64.611  67.166  23.267
30779DT     BB3   65  64.453  67.045  23.324
30779DT     SC1   66  64.278  67.210  23.217
30779DT     SC2   67  64.166  67.305  23.373
30779DT     SC3   68  64.089  67.302  23.059
30780DG     BB1   69  64.754  66.877  23.552
30780DG     BB2   70  64.470  66.962  23.760
30780DG     BB3   71  64.334  66.817  23.752
30780DG     SC1   72  64.185  66.936  23.512
30780DG     SC2   73  63.908  67.046  23.516
30780DG     SC3   74  64.010  67.027  23.239
30780DG     SC4   75  64.232  66.896  23.364
30781DC     BB1   76  64.252  66.660  23.937
30781DC     BB2   77  63.935  66.817  24.009
30781DC     BB3   78  63.780  66.694  23.948
30781DC     SC1   79  63.822  66.752  23.696
30781DC     SC2   80  63.658  66.871  23.621
30781DC     SC3   81  63.882  66.722  23.441
30782DA     BB1   82  63.698  66.779  24.350
30782DA     BB2   83  63.396  66.857  24.156
30782DA     BB3   84  63.294  66.678  24.103
30782DA     SC1   85  63.444  66.643  23.832
30782DA     SC2   86  63.392  66.659  23.589
30782DA     SC3   87  63.603  66.517  23.556
30782DA     SC4   88  63.577  66.553  23.832
30783DA     BB1   89  63.056  66.846  24.246
30783DA     BB2   90  62.886  66.841  23.921
30783DA     BB3   91  62.803  66.648  23.884
30783DA     SC1   92  63.056  66.539  23.740
30783DA     SC2   93  63.124  66.474  23.509
30783DA     SC3   94  63.312  66.341  23.624
30783DA     SC4   95  63.165  66.462  23.830
30784DC     BB1   96  62.618  66.655  23.874
30784DC     BB2   97  62.594  66.620  23.516
30784DC     BB3   98  62.546  66.424  23.467
30784DC     SC1   99  62.790  66.343  23.522
30784DC     SC2  100  62.888  66.286  23.339
30784DC     SC3  101  62.988  66.214  23.640
30785DC     BB1  102  62.319  66.533  23.395
30785DC     BB2  103  62.446  66.369  23.100
30785DC     BB3  104  62.402  66.167  23.107
30785DC     SC1  105  62.588  66.124  23.286
30785DC     SC2  106  62.748  66.011  23.198
30785DC     SC3  107  62.702  66.059  23.515
30786DC     BB1  108  62.239  66.229  22.911
30786DC     BB2  109  62.456  65.972  22.779
30786DC     BB3  110  62.390  65.786  22.839
30786DC     SC1  111  62.480  65.824  23.083
30786DC     SC2  112  62.648  65.695  23.118
30786DC     SC3  113  62.483  65.856  23.344
30787DA     BB1  114  62.455  65.788  22.424
30787DA     BB2  115  62.613  65.488  22.565
30787DA     BB3  116  62.464  65.349  22.629
30787DA     SC1  117  62.449  65.462  22.918
30787DA     SC2  118  62.512  65.390  23.148
30787DA     SC3  119  62.344  65.566  23.228
30787DA     SC4  120  62.339  65.576  22.948
30788DA     BB1  121  62.644  65.154  22.435
30788DA     BB2  122  62.699  64.944  22.731
30788DA     BB3  123  62.521  64.837  22.780
30788DA     SC1  124  62.411  65.057  22.970
30788DA     SC2  125  62.372  65.086  23.215
30788DA     SC3  126  62.209  65.272  23.146
30788DA     SC4  127  62.313  65.167  22.907
30789DG     BB1  128  62.695  64.581  22.734
30789DG     BB2  129  62.628  64.525  23.085
30789DG     BB3  130  62.450  64.440  23.108
30789DG     SC1  131  62.299  64.705  23.128
30789DG     SC2  132  62.159  64.809  23.371
30789DG     SC3  133  62.098  64.977  23.135
30789DG     SC4  134  62.245  64.775  22.994
30790DC     BB1  135  62.423  64.234  23.195
30790DC     BB2  136  62.293  64.311  23.523
30790DC     BB3  137  62.089  64.273  23.528
30790DC     SC1  138  62.037  64.489  23.388
30790DC     SC2  139  61.939  64.634  23.513
30790DC     SC3  140  61.955  64.642  23.190
30791DA     BB1  141  62.239  64.054  23.853
30791DA     BB2  142  61.952  64.246  23.976
30791DA     BB3  143  61.769  64.156  23.912
30791DA     SC1  144  61.752  64.320  23.649
30791DA     SC2  145  61.610  64.503  23.554
30791DA     SC3  146  61.698  64.424  23.326
30791DA     SC4  147  61.816  64.256  23.517
30792DG     BB1  148  61.691  64.111  24.216
30792DG     BB2  149  61.423  64.342  24.139
30792DG     BB3  150  61.268  64.243  24.064
30792DG     SC1  151  61.361  64.266  23.774
30792DG     SC2  152  61.226  64.422  23.558
30792DG     SC3  153  61.444  64.254  23.447
30792DG     SC4  154  61.458  64.153  23.714
30793DA     BB1  155  61.052  64.384  24.303
30793DA     BB2  156  60.852  64.540  24.039
30793DA     BB3  157  60.717  64.398  23.954
30793DA     SC1  158  60.915  64.305  23.733
30793DA     SC2  159  60.937  64.322  23.485
30793DA     SC3  160  61.095  64.121  23.505
30793DA     SC4  161  61.010  64.179  23.766
30794DG     BB1  162  60.477  64.579  24.051
30794DG     BB2  163  60.421  64.620  23.696
30794DG     BB3  164  60.306  64.473  23.628
30794DG     SC1  165  60.541  64.287  23.561
30794DG     SC2  166  60.625  64.202  23.288
30794DG     SC3  167  60.773  64.051  23.496
30794DG     SC4  168  60.596  64.189  23.675
30795DT     BB1  169  60.092  64.502  23.536
30795DT     BB2  170  60.166  64.463  23.185
30795DT     BB3  171  60.092  64.282  23.117
30795DT     SC1  172  60.284  64.149  23.236
30795DT     SC2  173  60.416  64.066  23.088
30795DT     SC3  174  60.405  63.983  23.401
30796DT     BB1  175  59.898  64.414  22.978
30796DT     BB2  176  60.078  64.226  22.729
30796DT     BB3  177  59.998  64.036  22.711
30796DT     SC1  178  60.107  63.960  22.937
30796DT     SC2  179  60.263  63.817  22.896
30796DT     SC3  180  60.129  63.876  23.186
30797DA     BB1  181  60.039  64.219  22.338
30797DA     BB2  182  60.188  63.884  22.320
30797DA     BB3  183  60.036  63.735  22.323
30797DA     SC1  184  60.036  63.706  22.632
30797DA     SC2  185  60.105  63.536  22.801
30797DA     SC3  186  59.948  63.661  22.961
30797DA     SC4  187  59.933  63.796  22.716
30798DC     BB1  188  60.044  63.649  22.169
30798DC     BB2  189  60.186  63.343  22.295
30798DC     BB3  190  60.037  63.204  22.329
30798DC     SC1  191  59.958  63.330  22.545
30798DC     SC2  192  60.006  63.211  22.718
30798DC     SC3  193  59.805  63.465  22.712
30799DA     BB1  194  60.370  63.053  22.120
30799DA     BB2  195  60.280  62.817  22.385
30799DA     BB3  196  60.091  62.727  22.343
30799DA     SC1  197  59.926  62.942  22.495
30799DA     SC2  198  59.790  62.957  22.703
30799DA     SC3  199  59.685  63.165  22.595
30799DA     SC4  200  59.872  63.068  22.410
30800DT     BB1  201  60.120  62.555  22.321
30800DT     BB2  202  59.957  62.436  22.620
30800DT     BB3  203  59.761  62.385  22.578
30800DT     SC1  204  59.690  62.638  22.566
30800DT     SC2  205  59.565  62.685  22.735
30800DT     SC3  206  59.602  62.866  22.468
30801DA     BB1  207  59.935  62.058  22.777
30801DA     BB2  208  59.605  62.117  22.925
30801DA     BB3  209  59.451  62.059  22.789
30801DA     SC1  210  59.429  62.340  22.657
30801DA     SC2  211  59.265  62.528  22.649
30801DA     SC3  212  59.389  62.601  22.437
30801DA     SC4  213  59.518  62.368  22.526
30802DT     BB1  214  59.322  61.891  22.822
30802DT     BB2  215  59.019  62.074  22.893
30802DT     BB3  216  58.889  62.060  22.733
30802DT     SC1  217  59.032  62.229  22.592
30802DT     SC2  218  58.923  62.413  22.570
30802DT     SC3  219  59.183  62.325  22.399
30803DA     BB1  220  58.642  61.918  23.045
30803DA     BB2  221  58.445  62.165  22.860
30803DA     BB3  222  58.372  62.081  22.678
30803DA     SC1  223  58.619  62.169  22.510
30803DA     SC2  224  58.670  62.332  22.329
30803DA     SC3  225  58.876  62.186  22.283
30803DA     SC4  226  58.740  62.064  22.496
30804DG     BB1  227  58.062  62.115  22.762
30804DG     BB2  228  58.049  62.346  22.484
30804DG     BB3  229  58.002  62.249  22.317
30804DG     SC1  230  58.292  62.185  22.243
30804DG     SC2  231  58.440  62.295  22.008
30804DG     SC3  232  58.596  62.082  22.141
30804DG     SC4  233  58.359  62.051  22.299
30805DA     BB1  234  57.730  62.463  22.247
30805DA     BB2  235  57.888  62.570  21.934
30805DA     BB3  236  57.851  62.428  21.780
30805DA     SC1  237  58.107  62.261  21.838
30805DA     SC2  238  58.325  62.214  21.728
30805DA     SC3  239  58.334  62.008  21.880
30805DA     SC4  240  58.093  62.137  21.940
30806DG     BB1  241  57.700  62.654  21.619
30806DG     BB2  242  57.974  62.613  21.387
30806DG     BB3  243  57.933  62.468  21.258
30806DG     SC1  244  58.055  62.246  21.430
30806DG     SC2  245  58.299  62.087  21.363
30806DG     SC3  246  58.161  61.976  21.601
30806DG     SC4  247  57.963  62.172  21.538
30807DC     BB1  248  57.912  62.504  21.032
30807DC     BB2  249  58.227  62.370  20.915
30807DC     BB3  250  58.195  62.189  20.821
30807DC     SC1  251  58.158  62.067  21.050
30807DC     SC2  252  58.323  61.935  21.089
30807DC     SC3  253  58.038  61.933  21.243
30808DA     BB1  254  58.417  62.430  20.561
30808DA     BB2  255  58.588  62.106  20.586
30808DA     BB3  256  58.480  61.957  20.478
30808DA     SC1  257  58.306  61.871  20.720
30808DA     SC2  258  58.283  61.674  20.871
30808DA     SC3  259  58.050  61.766  20.923
30808DA     SC4  260  58.163  61.944  20.739
30809DG     BB1  261  58.748  61.941  20.325
30809DG     BB2  262  58.754  61.609  20.467
30809DG     BB3  263  58.642  61.486  20.358
30809DG     SC1  264  58.386  61.540  20.515
30809DG     SC2  265  58.240  61.344  20.687
30809DG     SC3  266  58.082  61.592  20.653
30809DG     SC4  267  58.291  61.662  20.471
30810DT     BB1  268  58.739  61.322  20.268
30810DT     BB2  269  58.626  61.049  20.475
30810DT     BB3  270  58.473  60.946  20.380
30810DT     SC1  271  58.302  61.138  20.431
30810DT     SC2  272  58.158  61.069  20.576
30810DT     SC3  273  58.130  61.335  20.392
30811DA     BB1  274  58.767  60.680  20.516
30811DA     BB2  275  58.439  60.554  20.621
30811DA     BB3  276  58.330  60.481  20.452
30811DA     SC1  277  58.193  60.754  20.393
30811DA     SC2  278  57.964  60.852  20.407
30811DA     SC3  279  58.051  61.028  20.242
30811DA     SC4  280  58.265  60.853  20.290
30812DC     BB1  281  58.300  60.300  20.464
30812DC     BB2  282  57.947  60.315  20.537
30812DC     BB3  283  57.838  60.284  20.364
30812DC     SC1  284  57.894  60.525  20.276
30812DC     SC2  285  57.715  60.645  20.279
30812DC     SC3  286  57.990  60.717  20.123
30813DT     BB1  287  57.770  60.045  20.463
30813DT     BB2  288  57.456  60.206  20.392
30813DT     BB3  289  57.406  60.179  20.193
30813DT     SC1  290  57.585  60.355  20.115
30813DT     SC2  291  57.485  60.530  20.040
30813DT     SC3  292  57.798  60.456  19.998
30814DG     BB1  293  57.096  60.023  20.409
30814DG     BB2  294  56.977  60.255  20.158
30814DG     BB3  295  56.977  60.167  19.980
30814DG     SC1  296  57.263  60.251  19.911
30814DG     SC2  297  57.343  60.442  19.696
30814DG     SC3  298  57.581  60.308  19.812
30814DG     SC4  299  57.385  60.156  19.955
30815DA     BB1  300  56.640  60.255  19.934
30815DA     BB2  301  56.726  60.447  19.634
30815DA     BB3  302  56.756  60.315  19.468
30815DA     SC1  303  57.061  60.281  19.520
30815DA     SC2  304  57.275  60.349  19.411
30815DA     SC3  305  57.381  60.158  19.547
30815DA     SC4  306  57.108  60.157  19.611
30816DA     BB1  307  56.526  60.495  19.308
30816DA     BB2  308  56.785  60.582  19.064
30816DA     BB3  309  56.814  60.422  18.926
30816DA     SC1  310  57.036  60.284  19.095
30816DA     SC2  311  57.282  60.245  19.079
30816DA     SC3  312  57.242  60.057  19.249
30816DA     SC4  313  56.991  60.171  19.199
30817DT     BB1  314  56.763  60.436  18.715
30817DT     BB2  315  57.101  60.470  18.595
30817DT     BB3  316  57.159  60.297  18.497
30817DT     SC1  317  57.186  60.168  18.724
30817DT     SC2  318  57.395  60.129  18.760
30817DT     SC3  319  57.146  59.990  18.915
30818DA     BB1  320  57.235  60.613  18.233
30818DA     BB2  321  57.540  60.410  18.257
30818DA     BB3  322  57.516  60.228  18.148
30818DA     SC1  323  57.406  60.069  18.392
30818DA     SC2  324  57.482  59.885  18.542
30818DA     SC3  325  57.234  59.853  18.596
30818DA     SC4  326  57.247  60.064  18.411
30819DT     BB1  327  57.633  60.205  17.991
30819DT     BB2  328  57.859  59.968  18.143
30819DT     BB3  329  57.819  59.777  18.073
30819DT     SC1  330  57.602  59.760  18.220
30819DT     SC2  331  57.634  59.616  18.377
30819DT     SC3  332  57.348  59.738  18.285
30820DA     BB1  333  58.227  59.868  18.047
30820DA     BB2  334  58.190  59.541  18.210
30820DA     BB3  335  58.125  59.395  18.069
30820DA     SC1  336  57.822  59.443  18.123
30820DA     SC2  337  57.632  59.321  18.229
30820DA     SC3  338  57.482  59.480  18.094
30820DA     SC4  339  57.746  59.550  18.030
30821DA     BB1  340  58.387  59.255  18.202
30821DA     BB2  341  58.163  58.984  18.306
30821DA     BB3  342  58.106  58.866  18.138
30821DA     SC1  343  57.852  59.035  18.075
30821DA     SC2  344  57.605  59.008  18.086
30821DA     SC3  345  57.596  59.203  17.919
30821DA     SC4  346  57.868  59.156  17.970
30822DA     BB1  347  58.216  58.638  18.346
30822DA     BB2  348  57.883  58.486  18.323
30822DA     BB3  349  57.857  58.394  18.132
30822DA     SC1  350  57.737  58.648  17.998
30822DA     SC2  351  57.516  58.724  17.911
30822DA     SC3  352  57.651  58.898  17.779
30822DA     SC4  353  57.839  58.748  17.923
30823DA     BB1  354  57.779  58.132  18.318
30823DA     BB2  355  57.453  58.130  18.150
30823DA     BB3  356  57.472  58.054  17.952
30823DA     SC1  357  57.523  58.332  17.823
30823DA     SC2  358  57.403  58.491  17.673
30823DA     SC3  359  57.635  58.591  17.628
30823DA     SC4  360  57.676  58.380  17.807
30824DT     BB1  361  57.389  57.861  17.885
30824DT     BB2  362  57.121  57.992  17.683
30824DT     BB3  363  57.163  57.964  17.482
30824DT     SC1  364  57.340  58.158  17.485
30824DT     SC2  365  57.266  58.324  17.370
30824DT     SC3  366  57.572  58.282  17.467
30825DT     BB1  367  56.986  57.739  17.424
30825DT     BB2  368  56.890  57.983  17.176
30825DT     BB3  369  56.995  57.950  17.001
30825DT     SC1  370  57.215  58.049  17.104
30825DT     SC2  371  57.260  58.237  17.009
30825DT     SC3  372  57.463  58.063  17.193
30826DT     BB1  373  56.788  57.820  16.827
30826DT     BB2  374  56.894  58.104  16.630
30826DT     BB3  375  57.038  58.046  16.494
30826DT     SC1  376  57.220  58.030  16.683
30826DT     SC2  377  57.364  58.187  16.657
30826DT     SC3  378  57.400  57.927  16.846
30827DG     BB1  379  56.748  58.174  16.231
30827DG     BB2  380  57.059  58.347  16.171
30827DG     BB3  381  57.174  58.240  16.049
30827DG     SC1  382  57.312  58.086  16.275
30827DG     SC2  383  57.600  58.106  16.350
30827DG     SC3  384  57.468  57.884  16.495
30827DG     SC4  385  57.246  57.950  16.328
30828DA     BB1  386  57.195  58.522  15.859
30828DA     BB2  387  57.555  58.537  15.924
30828DA     BB3  388  57.659  58.402  15.796
30828DA     SC1  389  57.645  58.164  15.996
30828DA     SC2  390  57.802  58.034  16.140
30828DA     SC3  391  57.621  57.853  16.140
30828DA     SC4  392  57.521  58.063  15.982
30829DT     BB1  393  57.763  58.501  15.698
30829DT     BB2  394  58.068  58.423  15.876
30829DT     BB3  395  58.172  58.275  15.775
30829DT     SC1  396  58.004  58.090  15.854
30829DT     SC2  397  58.102  57.960  15.995
30829DT     SC3  398  57.821  57.900  15.845
30830DT     BB1  399  58.301  58.492  15.789
30830DT     BB2  400  58.499  58.240  15.954
30830DT     BB3  401  58.574  58.107  15.814
30830DT     SC1  402  58.340  57.992  15.785
30830DT     SC2  403  58.346  57.794  15.869
30830DT     SC3  404  58.116  57.910  15.673
30831DA     BB1  405  58.814  58.248  16.143
30831DA     BB2  406  58.864  57.888  16.096
30831DA     BB3  407  58.946  57.849  15.903
30831DA     SC1  408  58.669  57.817  15.765
30831DA     SC2  409  58.533  57.634  15.664
30831DA     SC3  410  58.407  57.822  15.543
30831DA     SC4  411  58.604  57.948  15.698
30832DA     BB1  412  59.116  57.684  16.135
30832DA     BB2  413  59.052  57.389  15.927
30832DA     BB3  414  59.145  57.411  15.736
30832DA     SC1  415  58.897  57.544  15.604
30832DA     SC2  416  58.726  57.486  15.432
30832DA     SC3  417  58.687  57.739  15.413
30832DA     SC4  418  58.889  57.705  15.606
30833DA     BB1  419  59.269  57.115  15.818
30833DA     BB2  420  59.130  56.989  15.504
30833DA     BB3  421  59.241  57.064  15.338
30833DA     SC1  422  59.063  57.316  15.302
30833DA     SC2  423  58.897  57.403  15.136
30833DA     SC3  424  58.946  57.633  15.240
30833DA     SC4  425  59.108  57.450  15.378
30834DA     BB1  426  59.296  56.748  15.233
30834DA     BB2  427  59.133  56.834  14.916
30834DA     BB3  428  59.267  56.942  14.790
30834DA     SC1  429  59.180  57.221  14.897
30834DA     SC2  430  59.056  57.421  14.813
30834DA     SC3  431  59.173  57.548  15.003
30834DA     SC4  432  59.264  57.283  15.020
30835DC     BB1  433  59.378  56.875  14.583
30835DC     BB2  434  59.181  57.078  14.360
30835DC     BB3  435  59.298  57.228  14.278
30835DC     SC1  436  59.297  57.363  14.502
30835DC     SC2  437  59.181  57.542  14.477
30835DC     SC3  438  59.385  57.481  14.722
30836DT     BB1  439  59.349  57.124  14.003
30836DT     BB2  440  59.208  57.451  13.941
30836DT     BB3  441  59.360  57.589  13.914
30836DT     SC1  442  59.414  57.592  14.171
30836DT     SC2  443  59.356  57.782  14.253
30836DT     SC3  444  59.546  57.562  14.397
30837DA     BB1  445  59.149  57.645  13.553
30837DA     BB2  446  59.193  57.978  13.702
30837DA     BB3  447  59.389  58.051  13.662
30837DA     SC1  448  59.513  57.932  13.921
30837DA     SC2  449  59.604  58.015  14.137
30837DA     SC3  450  59.722  57.788  14.152
30837DA     SC4  451  59.578  57.785  13.911
30838DG     BB1  452  59.260  58.292  13.503
30838DG     BB2  453  59.394  58.487  13.776
30838DG     BB3  454  59.581  58.541  13.736
30838DG     SC1  455  59.707  58.292  13.861
30838DG     SC2  456  59.877  58.287  14.106
30838DG     SC3  457  59.877  58.023  13.972
30838DG     SC4  458  59.728  58.162  13.771
30839DT     BB1  459  59.641  58.759  13.716
30839DT     BB2  460  59.805  58.809  14.034
30839DT     BB3  461  60.009  58.821  14.006
30839DT     SC1  462  60.027  58.562  13.968
30839DT     SC2  463  60.129  58.472  14.134
30839DT     SC3  464  60.073  58.332  13.848
30840DA     BB1  465  59.866  59.138  14.238
30840DA     BB2  466  60.149  58.985  14.413
30840DA     BB3  467  60.332  59.031  14.313
30840DA     SC1  468  60.324  58.778  14.131
30840DA     SC2  469  60.449  58.564  14.107
30840DA     SC3  470  60.351  58.557  13.870
30840DA     SC4  471  60.254  58.793  13.987
30841DA     BB1  472  60.362  59.101  14.630
30841DA     BB2  473  60.636  58.857  14.626
30841DA     BB3  474  60.799  58.930  14.510
30841DA     SC1  475  60.699  58.803  14.244
30841DA     SC2  476  60.766  58.619  14.090
30841DA     SC3  477  60.622  58.740  13.915
30841DA     SC4  478  60.605  58.894  14.149
30842DT     BB1  479  60.924  58.942  14.622
30842DT     BB2  480  61.120  58.664  14.501
30842DT     BB3  481  61.258  58.729  14.361
30842DT     SC1  482  61.071  58.758  14.179
30842DT     SC2  483  61.097  58.609  14.026
30842DT     SC3  484  60.910  58.873  14.004
30843DA     BB1  485  61.426  58.476  14.654
30843DA     BB2  486  61.541  58.368  14.323
30843DA     BB3  487  61.670  58.515  14.237
30843DA     SC1  488  61.440  58.669  14.094
30843DA     SC2  489  61.361  58.708  13.861
30843DA     SC3  490  61.238  58.911  13.958
30843DA     SC4  491  61.372  58.791  14.174
30844DA     BB1  492  61.837  58.233  14.212
30844DA     BB2  493  61.845  58.300  13.852
30844DA     BB3  494  61.969  58.468  13.810
30844DA     SC1  495  61.738  58.675  13.831
30844DA     SC2  496  61.609  58.824  13.679
30844DA     SC3  497  61.548  58.955  13.891
30844DA     SC4  498  61.712  58.744  13.975
30845DC     BB1  499  62.126  58.428  13.711
30845DC     BB2  500  62.028  58.583  13.400
30845DC     BB3  501  62.115  58.770  13.383
30845DC     SC1  502  61.948  58.871  13.558
30845DC     SC2  503  61.813  59.006  13.459
30845DC     SC3  504  61.858  58.985  13.779
30846DA     BB1  505  62.214  58.570  13.027
30846DA     BB2  506  62.094  58.904  12.937
30846DA     BB3  507  62.239  59.051  12.987
30846DA     SC1  508  62.126  59.100  13.273
30846DA     SC2  509  62.006  59.282  13.395
30846DA     SC3  510  62.089  59.165  13.608
30846DA     SC4  511  62.188  59.014  13.393
30847DG     BB1  512  62.261  59.132  12.680
30847DG     BB2  513  62.133  59.450  12.796
30847DG     BB3  514  62.283  59.563  12.862
30847DG     SC1  515  62.267  59.460  13.150
30847DG     SC2  516  62.185  59.619  13.389
30847DG     SC3  517  62.290  59.355  13.469
30847DG     SC4  518  62.351  59.330  13.190
30848DG     BB1  519  62.239  59.820  12.642
30848DG     BB2  520  62.166  60.028  12.929
30848DG     BB3  521  62.334  60.105  13.002
30848DG     SC1  522  62.387  59.872  13.193
30848DG     SC2  523  62.381  59.886  13.491
30848DG     SC3  524  62.487  59.625  13.400
30848DG     SC4  525  62.471  59.746  13.141
30849DT     BB1  526  62.408  60.346  13.012
30849DT     BB2  527  62.350  60.413  13.362
30849DT     BB3  528  62.530  60.434  13.461
30849DT     SC1  529  62.574  60.175  13.453
30849DT     SC2  530  62.559  60.094  13.652
30849DT     SC3  531  62.687  59.944  13.395
30850DC     BB1  532  62.519  60.716  13.492
30850DC     BB2  533  62.546  60.590  13.829
30850DC     BB3  534  62.745  60.579  13.885
30850DC     SC1  535  62.783  60.366  13.736
30850DC     SC2  536  62.815  60.195  13.862
30850DC     SC3  537  62.877  60.211  13.544
30851DC     BB1  538  62.730  60.797  14.058
30851DC     BB2  539  62.836  60.524  14.268
30851DC     BB3  540  63.043  60.514  14.273
30851DC     SC1  541  63.052  60.414  14.031
30851DC     SC2  542  63.116  60.209  14.041
30851DC     SC3  543  63.105  60.392  13.774
30852DC     BB1  544  63.024  60.596  14.526
30852DC     BB2  545  63.191  60.277  14.542
30852DC     BB3  546  63.394  60.302  14.511
30852DC     SC1  547  63.358  60.341  14.254
30852DC     SC2  548  63.437  60.173  14.145
30852DC     SC3  549  63.356  60.460  14.019
30853DC     BB1  550  63.409  60.236  14.765
30853DC     BB2  551  63.610  59.993  14.591
30853DC     BB3  552  63.798  60.070  14.552
30853DC     SC1  553  63.704  60.222  14.360
30853DC     SC2  554  63.775  60.150  14.170
30853DC     SC3  555  63.638  60.439  14.224
30854DC     BB1  556  63.876  59.895  14.731
30854DC     BB2  557  64.067  59.819  14.435
30854DC     BB3  558  64.229  59.947  14.421
30854DC     SC1  559  64.076  60.147  14.347
30854DC     SC2  560  64.115  60.194  14.141
30854DC     SC3  561  63.953  60.380  14.351
30855DA     BB1  562  64.373  59.554  14.380
30855DA     BB2  563  64.521  59.758  14.113
30855DA     BB3  564  64.668  59.890  14.194
30855DA     SC1  565  64.467  60.122  14.243
30855DA     SC2  566  64.420  60.349  14.149
30855DA     SC3  567  64.297  60.392  14.370
30855DA     SC4  568  64.397  60.131  14.387
30856DT     BB1  569  64.875  59.869  14.151
30856DT     BB2  570  64.905  60.153  13.931
30856DT     BB3  571  65.006  60.306  14.026
30856DT     SC1  572  64.797  60.363  14.173
30856DT     SC2  573  64.717  60.553  14.112
30856DT     SC3  574  64.645  60.396  14.386
30857DA     BB1  575  65.233  60.256  13.675
30857DA     BB2  576  65.161  60.614  13.706
30857DA     BB3  577  65.288  60.703  13.853
30857DA     SC1  578  65.090  60.654  14.088
30857DA     SC2  579  64.945  60.791  14.238
30857DA     SC3  580  64.950  60.587  14.395
30857DA     SC4  581  65.107  60.518  14.173
30858DG     BB1  582  65.410  60.889  13.628
30858DG     BB2  583  65.248  61.151  13.818
30858DG     BB3  584  65.370  61.216  13.961
30858DG     SC1  585  65.273  61.014  14.170
30858DG     SC2  586  65.122  61.079  14.420
30858DG     SC3  587  65.204  60.795  14.417
30858DG     SC4  588  65.344  60.871  14.178
30859DC     BB1  589  65.441  61.427  13.965
30859DC     BB2  590  65.230  61.561  14.226
30859DC     BB3  591  65.341  61.589  14.399
30859DC     SC1  592  65.344  61.331  14.448
30859DC     SC2  593  65.223  61.289  14.620
30859DC     SC3  594  65.437  61.087  14.485
30860DA     BB1  595  65.107  61.919  14.290
30860DA     BB2  596  65.043  61.839  14.642
30860DA     BB3  597  65.214  61.885  14.761
30860DA     SC1  598  65.340  61.602  14.732
30860DA     SC2  599  65.383  61.403  14.877
30860DA     SC3  600  65.557  61.337  14.700
30860DA     SC4  601  65.444  61.578  14.612
30861DA     BB1  602  64.948  62.017  14.894
30861DA     BB2  603  65.032  61.815  15.188
30861DA     BB3  604  65.212  61.885  15.278
30861DA     SC1  605  65.396  61.697  15.112
30861DA     SC2  606  65.540  61.498  15.152
30861DA     SC3  607  65.655  61.562  14.931
30861DA     SC4  608  65.456  61.755  14.974
30862DT     BB1  609  65.167  61.940  15.436
30862DT     BB2  610  65.323  61.675  15.624
30862DT     BB3  611  65.514  61.732  15.682
30862DT     SC1  612  65.607  61.699  15.439
30862DT     SC2  613  65.739  61.529  15.436
30862DT     SC3  614  65.713  61.755  15.204
30863DA     BB1  615  65.296  61.576  16.006
30863DA     BB2  616  65.629  61.423  16.006
30863DA     BB3  617  65.777  61.568  16.058
30863DA     SC1  618  65.830  61.656  15.765
30863DA     SC2  619  66.013  61.637  15.597
30863DA     SC3  620  65.899  61.835  15.480
30863DA     SC4  621  65.745  61.780  15.708
30864DA     BB1  622  65.845  61.328  16.272
30864DA     BB2  623  66.181  61.320  16.123
30864DA     BB3  624  66.292  61.492  16.182
30864DA     SC1  625  66.201  61.664  15.939
30864DA     SC2  626  66.303  61.759  15.732
30864DA     SC3  627  66.103  61.920  15.732
30864DA     SC4  628  66.071  61.756  15.957
30865DA     BB1  629  66.505  61.258  16.271
30865DA     BB2  630  66.743  61.414  16.041
30865DA     BB3  631  66.817  61.597  16.123
30865DA     SC1  632  66.595  61.773  15.994
30865DA     SC2  633  66.578  61.946  15.815
30865DA     SC3  634  66.358  62.013  15.929
30865DA     SC4  635  66.463  61.801  16.080
30866DT     BB1  636  67.010  61.606  16.172
30866DT     BB2  637  67.118  61.821  15.903
30866DT     BB3  638  67.147  62.013  15.974
30866DT     SC1  639  66.888  62.056  15.987
30866DT     SC2  640  66.831  62.198  15.837
30866DT     SC3  641  66.650  62.106  16.089
30867DT     BB1  642  67.417  61.984  15.955
30867DT     BB2  643  67.347  62.280  15.760
30867DT     BB3  644  67.346  62.446  15.883
30867DT     SC1  645  67.113  62.381  15.983
30867DT     SC2  646  66.964  62.521  15.916
30867DT     SC3  647  66.929  62.310  16.159
30868DT     BB1  648  67.587  62.533  15.783
30868DT     BB2  649  67.365  62.814  15.734
30868DT     BB3  650  67.364  62.933  15.903
30868DT     SC1  651  67.216  62.760  16.033
30868DT     SC2  652  67.020  62.842  16.063
30868DT     SC3  653  67.143  62.583  16.215
30869DT     BB1  654  67.520  63.139  15.792
30869DT     BB2  655  67.224  63.311  15.906
30869DT     BB3  656  67.251  63.374  16.102
30869DT     SC1  657  67.220  63.130  16.193
30869DT     SC2  658  67.034  63.117  16.300
30869DT     SC3  659  67.275  62.900  16.310
30870DC     BB1  660  67.293  63.654  16.049
30870DC     BB2  661  67.020  63.654  16.285
30870DC     BB3  662  67.093  63.670  16.478
30870DC     SC1  663  67.173  63.420  16.476
30870DC     SC2  664  67.050  63.305  16.610
30870DC     SC3  665  67.333  63.211  16.483
30871DT     BB1  666  67.028  63.948  16.531
30871DT     BB2  667  66.863  63.771  16.799
30871DT     BB3  668  66.987  63.764  16.965
30871DT     SC1  669  67.139  63.581  16.854
30871DT     SC2  670  67.112  63.394  16.957
30871DT     SC3  671  67.351  63.465  16.750
30872DT     BB1  672  66.841  63.953  17.114
30872DT     BB2  673  66.839  63.658  17.321
30872DT     BB3  674  67.001  63.661  17.449
30872DT     SC1  675  67.167  63.599  17.255
30872DT     SC2  676  67.241  63.399  17.285
30872DT     SC3  677  67.364  63.620  17.082
30873DA     BB1  678  66.656  63.593  17.675
30873DA     BB2  679  66.902  63.335  17.763
30873DA     BB3  680  67.056  63.419  17.884
30873DA     SC1  681  67.238  63.492  17.642
30873DA     SC2  682  67.455  63.417  17.545
30873DA     SC3  683  67.459  63.645  17.428
30873DA     SC4  684  67.223  63.640  17.579
30874DT     BB1  685  67.060  63.347  18.057
30874DT     BB2  686  67.353  63.142  18.012
30874DT     BB3  687  67.518  63.235  18.096
30874DT     SC1  688  67.532  63.407  17.899
30874DT     SC2  689  67.707  63.366  17.781
30874DT     SC3  690  67.528  63.636  17.768
30875DA     BB1  691  67.490  62.836  18.225
30875DA     BB2  692  67.835  62.899  18.116
30875DA     BB3  693  67.934  63.027  18.255
30875DA     SC1  694  67.852  63.289  18.107
30875DA     SC2  695  67.964  63.467  17.973
30875DA     SC3  696  67.757  63.610  18.029
30875DA     SC4  697  67.717  63.362  18.154
30876DT     BB1  698  68.079  62.946  18.348
30876DT     BB2  699  68.347  63.119  18.179
30876DT     BB3  700  68.416  63.274  18.298
30876DT     SC1  701  68.205  63.420  18.244
30876DT     SC2  702  68.262  63.586  18.121
30876DT     SC3  703  67.982  63.556  18.280
30877DT     BB1  704  68.646  63.137  18.357
30877DT     BB2  705  68.763  63.450  18.222
30877DT     BB3  706  68.777  63.591  18.373
30877DT     SC1  707  68.517  63.620  18.382
30877DT     SC2  708  68.464  63.815  18.306
30877DT     SC3  709  68.269  63.617  18.474
30878DT     BB1  710  69.057  63.584  18.385
30878DT     BB2  711  68.981  63.932  18.328
30878DT     BB3  712  68.958  64.030  18.509
30878DT     SC1  713  68.723  63.921  18.547
30878DT     SC2  714  68.570  64.072  18.529
30878DT     SC3  715  68.531  63.776  18.655
30879DT     BB1  716  69.206  64.169  18.503
30879DT     BB2  717  68.961  64.432  18.536
30879DT     BB3  718  68.930  64.474  18.736
30879DT     SC1  719  68.790  64.254  18.769
30879DT     SC2  720  68.584  64.305  18.802
30879DT     SC3  721  68.719  64.016  18.857
30880DA     BB1  722  69.020  64.840  18.554
30880DA     BB2  723  68.709  64.883  18.744
30880DA     BB3  724  68.751  64.895  18.953
30880DA     SC1  725  68.724  64.588  19.000
30880DA     SC2  726  68.566  64.433  19.115
30880DA     SC3  727  68.761  64.266  19.112
30880DA     SC4  728  68.857  64.500  18.991
30881DC     BB1  729  68.711  65.069  19.045
30881DC     BB2  730  68.409  64.958  19.210
30881DC     BB3  731  68.446  64.929  19.411
30881DC     SC1  732  68.577  64.707  19.364
30881DC     SC2  733  68.462  64.540  19.437
30881DC     SC3  734  68.775  64.533  19.353
30882DA     BB1  735  68.103  65.161  19.345
30882DA     BB2  736  68.018  64.893  19.579
30882DA     BB3  737  68.111  64.927  19.769
30882DA     SC1  738  68.369  64.769  19.699
30882DA     SC2  739  68.478  64.555  19.767
30882DA     SC3  740  68.693  64.659  19.672
30882DA     SC4  741  68.492  64.851  19.636
30883DA     BB1  742  67.796  64.875  19.832
30883DA     BB2  743  67.911  64.593  20.037
30883DA     BB3  744  68.010  64.664  20.212
30883DA     SC1  745  68.292  64.668  20.081
30883DA     SC2  746  68.506  64.542  20.100
30883DA     SC3  747  68.613  64.748  19.989
30883DA     SC4  748  68.340  64.806  20.013
30884DA     BB1  749  67.787  64.450  20.320
30884DA     BB2  750  68.070  64.267  20.465
30884DA     BB3  751  68.153  64.376  20.629
30884DA     SC1  752  68.358  64.531  20.454
30884DA     SC2  753  68.605  64.537  20.420
30884DA     SC3  754  68.566  64.769  20.319
30884DA     SC4  755  68.313  64.675  20.396
30885DT     BB1  756  68.133  64.289  20.794
30885DT     BB2  757  68.478  64.194  20.840
30885DT     BB3  758  68.570  64.327  20.970
30885DT     SC1  759  68.581  64.513  20.785
30885DT     SC2  760  68.786  64.542  20.725
30885DT     SC3  761  68.538  64.740  20.659
30886DG     BB1  762  68.611  63.954  21.130
30886DG     BB2  763  68.929  64.125  21.114
30886DG     BB3  764  68.941  64.258  21.261
30886DG     SC1  765  68.818  64.487  21.099
30886DG     SC2  766  68.959  64.734  21.010
30886DG     SC3  767  68.669  64.754  20.956
30886DG     SC4  768  68.659  64.505  21.099
30887DA     BB1  769  69.247  64.116  21.353
30887DA     BB2  770  69.415  64.438  21.305
30887DA     BB3  771  69.375  64.567  21.469
30887DA     SC1  772  69.123  64.694  21.339
30887DA     SC2  773  69.055  64.914  21.243
30887DA     SC3  774  68.814  64.834  21.282
30887DA     SC4  775  68.980  64.627  21.373
30888DA     BB1  776  69.705  64.590  21.492
30888DA     BB2  777  69.669  64.950  21.432
30888DA     BB3  778  69.602  65.048  21.610
30888DA     SC1  779  69.300  65.019  21.542
30888DA     SC2  780  69.110  65.167  21.476
30888DA     SC3  781  68.960  64.976  21.557
30888DA     SC4  782  69.223  64.889  21.598
30889DG     BB1  783  69.870  65.216  21.605
30889DG     BB2  784  69.646  65.495  21.555
30889DG     BB3  785  69.579  65.561  21.731
30889DG     SC1  786  69.336  65.376  21.736
30889DG     SC2  787  69.050  65.462  21.720
30889DG     SC3  788  69.070  65.174  21.785
30889DG     SC4  789  69.351  65.230  21.800
30890DA     BB1  790  69.684  65.885  21.647
30890DA     BB2  791  69.339  66.007  21.675
30890DA     BB3  792  69.288  66.035  21.880
30890DA     SC1  793  69.176  65.747  21.917
30890DA     SC2  794  68.954  65.638  21.952
30890DA     SC3  795  69.089  65.439  22.041
30890DA     SC4  796  69.277  65.634  21.970
30891DT     BB1  797  69.251  66.229  21.960
30891DT     BB2  798  68.892  66.198  21.982
30891DT     BB3  799  68.835  66.178  22.179
30891DT     SC1  800  68.919  65.930  22.187
30891DT     SC2  801  68.750  65.797  22.202
30891DT     SC3  802  69.059  65.717  22.257
30892DA     BB1  803  68.606  66.493  22.023
30892DA     BB2  804  68.377  66.263  22.193
30892DA     BB3  805  68.395  66.282  22.405
30892DA     SC1  806  68.615  66.063  22.430
30892DA     SC2  807  68.636  65.833  22.522
30892DA     SC3  808  68.889  65.878  22.523
30892DA     SC4  809  68.769  66.111  22.424
30893DG     BB1  810  68.094  66.364  22.398
30893DG     BB2  811  68.053  66.057  22.585
30893DG     BB3  812  68.088  66.090  22.778
30893DG     SC1  813  68.387  66.030  22.759
30893DG     SC2  814  68.528  65.798  22.885
30893DG     SC3  815  68.722  65.990  22.770
30893DG     SC4  816  68.488  66.149  22.723
30894DG     BB1  817  67.783  65.986  22.855
30894DG     BB2  818  67.945  65.718  23.036
30894DG     BB3  819  67.994  65.780  23.219
30894DG     SC1  820  68.270  65.882  23.138
30894DG     SC2  821  68.532  65.768  23.225
30894DG     SC3  822  68.571  66.023  23.080
30894DG     SC4  823  68.285  66.033  23.086
30895DT     BB1  824  67.906  65.685  23.403
30895DT     BB2  825  68.185  65.486  23.516
30895DT     BB3  826  68.273  65.576  23.680
30895DT     SC1  827  68.385  65.759  23.530
30895DT     SC2  828  68.598  65.728  23.525
30895DT     SC3  829  68.443  65.996  23.430
30896DT     BB1  830  68.172  65.380  23.840
30896DT     BB2  831  68.530  65.363  23.887
30896DT     BB3  832  68.587  65.495  24.037
30896DT     SC1  833  68.555  65.701  23.878
30896DT     SC2  834  68.748  65.786  23.832
30896DT     SC3  835  68.461  65.928  23.782
30897DT     BB1  836  68.636  65.278  24.181
30897DT     BB2  837  68.951  65.454  24.163
30897DT     BB3  838  68.958  65.601  24.309
30897DT     SC1  839  68.793  65.754  24.174
30897DT     SC2  840  68.900  65.925  24.100
30897DT     SC3  841  68.578  65.892  24.112
30898DA     BB1  842  69.302  65.361  24.300
30898DA     BB2  843  69.404  65.713  24.302
30898DA     BB3  844  69.360  65.802  24.491
30898DA     SC1  845  69.076  65.897  24.409
30898DA     SC2  846  68.959  66.112  24.363
30898DA     SC3  847  68.743  65.981  24.404
30898DA     SC4  848  68.953  65.798  24.440
30899DC     BB1  849  69.513  65.848  24.556
30899DC     BB2  850  69.476  66.204  24.515
30899DC     BB3  851  69.402  66.288  24.689
30899DC     SC1  852  69.161  66.195  24.641
30899DC     SC2  853  69.029  66.358  24.593
30899DC     SC3  854  68.939  66.056  24.668
30900DA     BB1  855  69.734  66.496  24.530
30900DA     BB2  856  69.474  66.738  24.622
30900DA     BB3  857  69.448  66.743  24.833
30900DA     SC1  858  69.228  66.523  24.836
30900DA     SC2  859  68.983  66.508  24.880
30900DA     SC3  860  69.025  66.258  24.917
30900DA     SC4  861  69.275  66.371  24.857
30901DA     BB1  862  69.489  67.059  24.753
30901DA     BB2  863  69.163  67.116  24.911
30901DA     BB3  864  69.178  67.088  25.122
30901DA     SC1  865  69.106  66.786  25.112
30901DA     SC2  866  68.916  66.638  25.178
30901DA     SC3  867  69.088  66.448  25.169
30901DA     SC4  868  69.228  66.681  25.102
30902DT     BB1  869  69.151  67.246  25.232
30902DT     BB2  870  68.829  67.159  25.368
30902DT     BB3  871  68.851  67.085  25.560
30902DT     SC1  872  68.945  66.857  25.471
30902DT     SC2  873  68.800  66.702  25.507
30902DT     SC3  874  69.111  66.658  25.427
30903DA     BB1  875  68.563  67.391  25.592
30903DA     BB2  876  68.435  67.098  25.772
30903DA     BB3  877  68.540  67.072  25.955
30903DA     SC1  878  68.757  66.886  25.832
30903DA     SC2  879  68.823  66.646  25.844
30903DA     SC3  880  69.050  66.724  25.755
30903DA     SC4  881  68.892  66.955  25.777
30904DT     BB1  882  68.449  67.099  26.147
30904DT     BB2  883  68.429  66.750  26.237
30904DT     BB3  884  68.570  66.707  26.383
30904DT     SC1  885  68.765  66.715  26.207
30904DT     SC2  886  68.843  66.517  26.177
30904DT     SC3  887  68.985  66.792  26.084
30905DA     BB1  888  68.211  66.571  26.556
30905DA     BB2  889  68.458  66.301  26.588
30905DA     BB3  890  68.598  66.346  26.743
30905DA     SC1  891  68.798  66.490  26.553
30905DA     SC2  892  69.025  66.449  26.459
30905DA     SC3  893  69.031  66.702  26.417
30905DA     SC4  894  68.783  66.649  26.536
30906DT     BB1  895  68.614  66.235  26.936
30906DT     BB2  896  68.916  66.056  26.851
30906DT     BB3  897  69.074  66.128  26.962
30906DT     SC1  898  69.088  66.345  26.815
30906DT     SC2  899  69.268  66.340  26.698
30906DT     SC3  900  69.081  66.600  26.748
30907DC     BB1  901  69.092  65.907  27.138
30907DC     BB2  902  69.419  65.926  26.987
30907DC     BB3  903  69.543  66.046  27.102
30907DC     SC1  904  69.424  66.264  27.019
30907DC     SC2  905  69.558  66.374  26.892
30907DC     SC3  906  69.284  66.487  27.023
30908DT     BB1  907  69.692  65.831  27.199
30908DT     BB2  908  69.933  66.041  27.032
30908DT     BB3  909  70.010  66.180  27.166
30908DT     SC1  910  69.789  66.321  27.158
30908DT     SC2  911  69.827  66.507  27.057
30908DT     SC3  912  69.567  66.438  27.238
30909DA     BB1  913  70.330  65.984  26.981
30909DA     BB2  914  70.381  66.345  26.945
30909DA     BB3  915  70.441  66.430  27.131
30909DA     SC1  916  70.151  66.493  27.224
30909DA     SC2  917  70.008  66.694  27.261
30909DA     SC3  918  69.865  66.540  27.409
30909DA     SC4  919  70.076  66.381  27.313
30910DA     BB1  920  70.655  66.524  26.908
30910DA     BB2  921  70.538  66.864  26.982
30910DA     BB3  922  70.605  66.925  27.175
30910DA     SC1  923  70.352  66.819  27.322
30910DA     SC2  924  70.154  66.913  27.441
30910DA     SC3  925  70.134  66.682  27.550
30910DA     SC4  926  70.357  66.669  27.380
30911DG     BB1  927  70.711  67.128  26.975
30911DG     BB2  928  70.488  67.345  27.161
30911DG     BB3  929  70.569  67.390  27.337
30911DG     SC1  930  70.446  67.151  27.483
30911DG     SC2  931  70.238  67.164  27.697
30911DG     SC3  932  70.343  66.889  27.669
30911DG     SC4  933  70.525  67.012  27.485
30912DA     BB1  934  70.468  67.693  27.212
30912DA     BB2  935  70.266  67.740  27.515
30912DA     BB3  936  70.393  67.766  27.685
30912DA     SC1  937  70.404  67.462  27.753
30912DA     SC2  938  70.319  67.310  27.931
30912DA     SC3  939  70.502  67.149  27.853
30912DA     SC4  940  70.525  67.377  27.691
30913DT     BB1  941  70.368  67.930  27.751
30913DT     BB2  942  70.190  67.833  28.051
30913DT     BB3  943  70.322  67.822  28.210
30913DT     SC1  944  70.423  67.597  28.122
30913DT     SC2  945  70.365  67.437  28.254
30913DT     SC3  946  70.597  67.423  28.028
30914DA     BB1  947  69.989  68.055  28.317
30914DA     BB2  948  70.053  67.814  28.586
30914DA     BB3  949  70.231  67.866  28.692
30914DA     SC1  950  70.417  67.695  28.511
30914DA     SC2  951  70.553  67.487  28.530
30914DA     SC3  952  70.680  67.575  28.325
30914DA     SC4  953  70.485  67.767  28.384
30915DG     BB1  954  70.035  67.883  28.932
30915DG     BB2  955  70.238  67.611  29.058
30915DG     BB3  956  70.405  67.683  29.138
30915DG     SC1  957  70.565  67.672  28.878
30915DG     SC2  958  70.798  67.494  28.822
30915DG     SC3  959  70.764  67.693  28.606
30915DG     SC4  960  70.562  67.798  28.779
30916DG     BB1  961  70.315  67.532  29.414
30916DG     BB2  962  70.619  67.339  29.379
30916DG     BB3  963  70.774  67.444  29.446
30916DG     SC1  964  70.834  67.575  29.176
30916DG     SC2  965  71.078  67.529  29.009
30916DG     SC3  966  70.917  67.752  28.901
30916DG     SC4  967  70.762  67.712  29.138
30917DT     BB1  968  70.883  67.366  29.610
30917DT     BB2  969  71.188  67.255  29.452
30917DT     BB3  970  71.338  67.394  29.483
30917DT     SC1  971  71.234  67.558  29.307
30917DT     SC2  972  71.361  67.568  29.134
30917DT     SC3  973  71.121  67.773  29.205
30918DA     BB1  974  71.482  67.014  29.590
30918DA     BB2  975  71.734  67.176  29.379
30918DA     BB3  976  71.830  67.334  29.486
30918DA     SC1  977  71.629  67.552  29.391
30918DA     SC2  978  71.629  67.751  29.240
30918DA     SC3  979  71.421  67.824  29.370
30918DA     SC4  980  71.501  67.581  29.485
30919DT     BB1  981  72.018  67.309  29.526
30919DT     BB2  982  72.151  67.551  29.293
30919DT     BB3  983  72.202  67.725  29.393
30919DT     SC1  984  71.950  67.794  29.418
30919DT     SC2  985  71.910  67.965  29.294
30919DT     SC3  986  71.719  67.853  29.530
30920DT     BB1  987  72.471  67.673  29.372
30920DT     BB2  988  72.436  68.003  29.232
30920DT     BB3  989  72.449  68.145  29.382
30920DT     SC1  990  72.208  68.089  29.468
30920DT     SC2  991  72.076  68.253  29.425
30920DT     SC3  992  72.014  68.008  29.627
30921DG     BB1  993  72.766  68.252  29.142
30921DG     BB2  994  72.555  68.538  29.210
30921DG     BB3  995  72.600  68.614  29.388
30921DG     SC1  996  72.400  68.440  29.540
30921DG     SC2  997  72.155  68.537  29.681
30921DG     SC3  998  72.205  68.252  29.741
30921DG     SC4  999  72.446  68.296  29.593
30922DA     BB1 1000  72.649  68.934  29.249
30922DA     BB2 1001  72.378  69.069  29.455
30922DA     BB3 1002  72.447  69.108  29.653
30922DA     SC1 1003  72.372  68.826  29.761
30922DA     SC2 1004  72.205  68.727  29.918
30922DA     SC3 1005  72.366  68.527  29.929
30922DA     SC4 1006  72.485  68.712  29.756
30923DA     BB1 1007  72.325  69.404  29.586
30923DA     BB2 1008  72.091  69.350  29.863
30923DA     BB3 1009  72.191  69.376  30.050
30923DA     SC1 1010  72.273  69.077  30.076
30923DA     SC2 1011  72.213  68.880  30.218
30923DA     SC3 1012  72.438  68.783  30.142
30923DA     SC4 1013  72.417  69.034  30.019
30924DT     BB1 1014  72.126  69.523  30.152
30924DT     BB2 1015  71.945  69.330  30.398
30924DT     BB3 1016  72.055  69.318  30.573
30924DT     SC1 1017  72.220  69.144  30.467
30924DT     SC2 1018  72.190  68.952  30.559
30924DT     SC3 1019  72.444  69.038  30.375
30925DC     BB1 1020  71.867  69.474  30.668
30925DC     BB2 1021  71.867  69.183  30.882
30925DC     BB3 1022  72.018  69.200  31.023
30925DC     SC1 1023  72.202  69.145  30.844
30925DC     SC2 1024  72.286  68.951  30.885
30925DC     SC3 1025  72.411  69.175  30.686
30926DA     BB1 1026  71.659  69.106  31.222
30926DA     BB2 1027  71.922  68.886  31.351
30926DA     BB3 1028  72.059  68.996  31.472
30926DA     SC1 1029  72.249  69.064  31.235
30926DA     SC2 1030  72.478  69.002  31.159
30926DA     SC3 1031  72.468  69.217  31.020
30926DA     SC4 1032  72.224  69.202  31.157
30927DA     BB1 1033  71.993  68.772  31.711
30927DA     BB2 1034  72.351  68.689  31.711
30927DA     BB3 1035  72.462  68.840  31.813
30927DA     SC1 1036  72.513  69.010  31.558
30927DA     SC2 1037  72.706  69.070  31.412
30927DA     SC3 1038  72.561  69.267  31.335
30927DA     SC4 1039  72.408  69.127  31.524
30928DT     BB1 1040  72.577  68.831  32.029
30928DT     BB2 1041  72.912  68.825  31.895
30928DT     BB3 1042  73.010  69.001  31.941
30928DT     SC1 1043  72.873  69.133  31.760
30928DT     SC2 1044  73.004  69.189  31.599
30928DT     SC3 1045  72.708  69.308  31.653
30929DA     BB1 1046  73.300  68.754  32.141
30929DA     BB2 1047  73.489  68.972  31.915
30929DA     BB3 1048  73.524  69.162  32.006
30929DA     SC1 1049  73.264  69.290  31.892
30929DA     SC2 1050  73.202  69.464  31.724
30929DA     SC3 1051  72.978  69.475  31.848
30929DA     SC4 1052  73.132  69.283  31.984
30930DT     BB1 1053  73.743  69.280  32.091
30930DT     BB2 1054  73.768  69.483  31.794
30930DT     BB3 1055  73.753  69.684  31.844
30930DT     SC1 1056  73.495  69.663  31.883
30930DT     SC2 1057  73.390  69.769  31.728
30930DT     SC3 1058  73.261  69.663  32.006
30931DT     BB1 1059  74.024  69.736  31.793
30931DT     BB2 1060  73.842  69.937  31.554
30931DT     BB3 1061  73.807  70.125  31.633
30931DT     SC1 1062  73.619  70.032  31.791
30931DT     SC2 1063  73.427  70.104  31.724
30931DT     SC3 1064  73.490  69.968  32.011
30932DG     BB1 1065  73.995  70.123  31.273
30932DG     BB2 1066  73.686  70.310  31.265
30932DG     BB3 1067  73.710  70.485  31.358
30932DG     SC1 1068  73.630  70.378  31.633
30932DG     SC2 1069  73.385  70.454  31.786
30932DG     SC3 1070  73.567  70.289  31.952
30932DG     SC4 1071  73.742  70.315  31.728
30933DT     BB1 1072  73.665  70.613  31.231
30933DT     BB2 1073  73.345  70.729  31.351
30933DT     BB3 1074  73.372  70.892  31.476
30933DT     SC1 1075  73.458  70.737  31.670
30933DT     SC2 1076  73.312  70.733  31.828
30933DT     SC3 1077  73.620  70.632  31.850
30934DA     BB1 1078  73.071  70.939  31.183
30934DA     BB2 1079  72.939  71.044  31.509
30934DA     BB3 1080  73.038  71.220  31.576
30934DA     SC1 1081  73.261  71.065  31.729
30934DA     SC2 1082  73.328  71.025  31.966
30934DA     SC3 1083  73.558  70.964  31.869
30934DA     SC4 1084  73.397  71.033  31.650
30935DT     BB1 1085  72.920  71.354  31.586
30935DT     BB2 1086  72.902  71.374  31.946
30935DT     BB3 1087  73.029  71.521  32.015
30935DT     SC1 1088  73.240  71.371  31.972
30935DT     SC2 1089  73.325  71.311  32.160
30935DT     SC3 1090  73.468  71.287  31.870
30936DG     BB1 1091  72.652  71.604  32.147
30936DG     BB2 1092  72.892  71.607  32.417
30936DG     BB3 1093  72.998  71.775  32.412
30936DG     SC1 1094  73.216  71.660  32.230
30936DG     SC2 1095  73.501  71.611  32.307
30936DG     SC3 1096  73.462  71.573  32.016
30936DG     SC4 1097  73.198  71.670  32.071
30937DA     BB1 1098  72.910  71.804  32.745
30937DA     BB2 1099  73.265  71.806  32.838
30937DA     BB3 1100  73.353  71.993  32.788
30937DA     SC1 1101  73.441  71.904  32.503
30937DA     SC2 1102  73.653  71.854  32.382
30937DA     SC3 1103  73.516  71.893  32.168
30937DA     SC4 1104  73.339  71.933  32.382
30938DA     BB1 1105  73.436  71.966  33.103
30938DA     BB2 1106  73.785  71.977  32.991
30938DA     BB3 1107  73.837  72.175  32.931
30938DA     SC1 1108  73.755  72.132  32.633
30938DA     SC2 1109  73.868  72.114  32.412
30938DA     SC3 1110  73.638  72.172  32.313
30938DA     SC4 1111  73.605  72.172  32.591
30939DA     BB1 1112  74.072  72.093  33.142
30939DA     BB2 1113  74.306  72.147  32.865
30939DA     BB3 1114  74.321  72.355  32.820
30939DA     SC1 1115  74.092  72.351  32.610
30939DA     SC2 1116  74.068  72.374  32.362
30939DA     SC3 1117  73.823  72.429  32.412
30939DA     SC4 1118  73.944  72.385  32.661
30940DA     BB1 1119  74.631  72.255  32.855
30940DA     BB2 1120  74.682  72.373  32.512
30940DA     BB3 1121  74.672  72.586  32.505
30940DA     SC1 1122  74.366  72.593  32.449
30940DA     SC2 1123  74.213  72.652  32.261
30940DA     SC3 1124  74.032  72.676  32.441
30940DA     SC4 1125  74.267  72.604  32.576
30941DA     BB1 1126  74.961  72.537  32.355
30941DA     BB2 1127  74.819  72.713  32.067
30941DA     BB3 1128  74.802  72.921  32.107
30941DA     SC1 1129  74.514  72.900  32.221
30941DA     SC2 1130  74.283  72.969  32.155
30941DA     SC3 1131  74.225  72.942  32.403
30941DA     SC4 1132  74.498  72.879  32.380
30942DA     BB1 1133  74.978  72.957  31.828
30942DA     BB2 1134  74.695  73.149  31.694
30942DA     BB3 1135  74.692  73.345  31.779
30942DA     SC1 1136  74.509  73.265  32.018
30942DA     SC2 1137  74.275  73.307  32.093
30942DA     SC3 1138  74.359  73.237  32.325
30942DA     SC4 1139  74.581  73.220  32.154
30943DT     BB1 1140  74.731  73.529  31.665
30943DT     BB2 1141  74.390  73.644  31.652
30943DT     BB3 1142  74.366  73.809  31.775
30943DT     SC1 1143  74.372  73.658  31.990
30943DT     SC2 1144  74.177  73.654  32.080
30943DT     SC3 1145  74.452  73.557  32.220
30944DT     BB1 1146  74.352  73.997  31.567
30944DT     BB2 1147  74.044  74.044  31.749
30944DT     BB3 1148  74.070  74.187  31.896
30944DT     SC1 1149  74.205  74.019  32.046
30944DT     SC2 1150  74.089  73.967  32.219
30944DT     SC3 1151  74.406  73.911  32.180
30945DT     BB1 1152  73.921  74.371  31.758
30945DT     BB2 1153  73.751  74.336  32.074
30945DT     BB3 1154  73.831  74.468  32.212
30945DT     SC1 1155  74.046  74.321  32.241
30945DT     SC2 1156  74.047  74.232  32.437
30945DT     SC3 1157  74.300  74.249  32.235
30946DA     BB1 1158  73.414  74.505  32.205
30946DA     BB2 1159  73.520  74.464  32.554
30946DA     BB3 1160  73.616  74.642  32.623
30946DA     SC1 1161  73.901  74.550  32.538
30946DA     SC2 1162  74.112  74.479  32.650
30946DA     SC3 1163  74.225  74.536  32.427
30946DA     SC4 1164  73.952  74.592  32.392
30947DG     BB1 1165  73.382  74.605  32.817
30947DG     BB2 1166  73.652  74.562  33.053
30947DG     BB3 1167  73.731  74.739  33.099
30947DG     SC1 1168  73.937  74.733  32.873
30947DG     SC2 1169  74.233  74.714  32.907
30947DG     SC3 1170  74.163  74.768  32.625
30947DG     SC4 1171  73.897  74.791  32.730
30948DA     BB1 1172  73.683  74.610  33.415
30948DA     BB2 1173  74.041  74.655  33.481
30948DA     BB3 1174  74.088  74.862  33.498
30948DA     SC1 1175  74.152  74.897  33.195
30948DA     SC2 1176  74.352  74.937  33.052
30948DA     SC3 1177  74.184  75.016  32.875
30948DA     SC4 1178  74.032  74.943  33.099
30949DT     BB1 1179  74.145  74.910  33.668
30949DT     BB2 1180  74.493  74.965  33.590
30949DT     BB3 1181  74.528  75.167  33.563
30949DT     SC1 1182  74.411  75.165  33.329
30949DT     SC2 1183  74.559  75.194  33.175
30949DT     SC3 1184  74.238  75.219  33.137
30950DA     BB1 1185  74.814  75.036  33.844
30950DA     BB2 1186  74.989  75.237  33.592
30950DA     BB3 1187  74.942  75.444  33.618
30950DA     SC1 1188  74.698  75.438  33.425
30950DA     SC2 1189  74.637  75.526  33.200
30950DA     SC3 1190  74.394  75.490  33.273
30950DA     SC4 1191  74.553  75.409  33.490
30951DC     BB1 1192  75.086  75.597  33.685
30951DC     BB2 1193  75.130  75.760  33.366
30951DC     BB3 1194  75.038  75.946  33.368
30951DC     SC1 1195  74.800  75.837  33.351
30951DC     SC2 1196  74.716  75.880  33.157
30951DC     SC3 1197  74.554  75.768  33.414
30952DC     BB1 1198  75.277  76.096  33.385
30952DC     BB2 1199  75.115  76.224  33.090
30952DC     BB3 1200  74.994  76.384  33.139
30952DC     SC1 1201  74.813  76.226  33.245
30952DC     SC2 1202  74.637  76.225  33.122
30952DC     SC3 1203  74.657  76.113  33.425
30953DA     BB1 1204  75.242  76.521  32.831
30953DA     BB2 1205  74.896  76.601  32.739
30953DA     BB3 1206  74.825  76.766  32.854
30953DA     SC1 1207  74.711  76.590  33.083
30953DA     SC2 1208  74.487  76.526  33.173
30953DA     SC3 1209  74.614  76.465  33.388
30953DA     SC4 1210  74.807  76.559  33.208
30954DA     BB1 1211  74.762  76.866  32.550
30954DA     BB2 1212  74.409  76.870  32.648
30954DA     BB3 1213  74.369  77.037  32.775
30954DA     SC1 1214  74.428  76.883  33.039
30954DA     SC2 1215  74.301  76.796  33.235
30954DA     SC3 1216  74.527  76.793  33.355
30954DA     SC4 1217  74.578  76.889  33.096
30955DA     BB1 1218  74.145  77.054  32.539
30955DA     BB2 1219  73.897  77.023  32.808
30955DA     BB3 1220  73.891  77.201  32.924
30955DA     SC1 1221  74.106  77.105  33.128
30955DA     SC2 1222  74.116  77.036  33.367
30955DA     SC3 1223  74.367  77.087  33.351
30955DA     SC4 1224  74.259  77.144  33.098
30956DA     BB1 1225  73.580  77.144  32.842
30956DA     BB2 1226  73.513  77.132  33.203
30956DA     BB3 1227  73.532  77.327  33.288
30956DA     SC1 1228  73.835  77.295  33.355
30956DA     SC2 1229  73.977  77.272  33.558
30956DA     SC3 1230  74.170  77.348  33.407
30956DA     SC4 1231  73.941  77.345  33.245
30957DA     BB1 1232  73.235  77.233  33.394
30957DA     BB2 1233  73.366  77.281  33.733
30957DA     BB3 1234  73.392  77.489  33.773
30957DA     SC1 1235  73.686  77.497  33.672
30957DA     SC2 1236  73.914  77.524  33.769
30957DA     SC3 1237  73.986  77.588  33.531
30957DA     SC4 1238  73.711  77.535  33.518
30958DT     BB1 1239  73.274  77.584  33.913
30958DT     BB2 1240  73.526  77.626  34.168
30958DT     BB3 1241  73.589  77.823  34.173
30958DT     SC1 1242  73.728  77.793  33.953
30958DT     SC2 1243  73.938  77.802  33.999
30958DT     SC3 1244  73.807  77.824  33.703
30959DC     BB1 1245  73.451  77.896  34.411
30959DC     BB2 1246  73.794  77.986  34.481
30959DC     BB3 1247  73.828  78.182  34.424
30959DC     SC1 1248  73.832  78.116  34.170
30959DC     SC2 1249  74.032  78.137  34.094
30959DC     SC3 1250  73.764  78.105  33.916
30960DT     BB1 1251  73.830  78.306  34.686
30960DT     BB2 1252  74.149  78.398  34.546
30960DT     BB3 1253  74.135  78.582  34.451
30960DT     SC1 1254  74.007  78.475  34.249
30960DT     SC2 1255  74.133  78.478  34.075
30960DT     SC3 1256  73.814  78.424  34.076
30961DA     BB1 1257  74.450  78.653  34.721
30961DA     BB2 1258  74.568  78.754  34.389
30961DA     BB3 1259  74.490  78.946  34.338
30961DA     SC1 1260  74.235  78.833  34.200
30961DA     SC2 1261  74.143  78.815  33.968
30961DA     SC3 1262  73.916  78.782  34.083
30961DA     SC4 1263  74.103  78.816  34.290
30962DT     BB1 1264  74.618  79.113  34.317
30962DT     BB2 1265  74.614  79.116  33.956
30962DT     BB3 1266  74.505  79.279  33.888
30962DT     SC1 1267  74.278  79.163  33.952
30962DT     SC2 1268  74.172  79.110  33.772
30962DT     SC3 1269  74.047  79.118  34.072
30963DC     BB1 1270  74.736  79.387  33.807
30963DC     BB2 1271  74.535  79.362  33.508
30963DC     BB3 1272  74.414  79.529  33.491
30963DC     SC1 1273  74.254  79.442  33.680
30963DC     SC2 1274  74.065  79.386  33.595
30963DC     SC3 1275  74.125  79.431  33.910
30964DA     BB1 1276  74.619  79.455  33.133
30964DA     BB2 1277  74.264  79.505  33.054
30964DA     BB3 1278  74.210  79.709  33.081
30964DA     SC1 1279  74.127  79.674  33.379
30964DA     SC2 1280  73.917  79.676  33.513
30964DA     SC3 1281  74.071  79.718  33.715
30964DA     SC4 1282  74.239  79.701  33.491
30965DT     BB1 1283  74.160  79.799  32.920
30965DT     BB2 1284  73.805  79.816  32.986
30965DT     BB3 1285  73.755  80.006  33.052
30965DT     SC1 1286  73.860  79.961  33.288
30965DT     SC2 1287  73.704  79.949  33.435
30965DT     SC3 1288  74.020  79.984  33.496
30966DA     BB1 1289  73.496  79.909  32.736
30966DA     BB2 1290  73.293  80.039  33.012
30966DA     BB3 1291  73.319  80.250  33.030
30966DA     SC1 1292  73.556  80.227  33.231
30966DA     SC2 1293  73.599  80.274  33.472
30966DA     SC3 1294  73.847  80.275  33.407
30966DA     SC4 1295  73.705  80.225  33.170
30967DT     BB1 1296  73.162  80.378  32.990
30967DT     BB2 1297  73.089  80.467  33.331
30967DT     BB3 1298  73.155  80.660  33.370
30967DT     SC1 1299  73.405  80.581  33.378
30967DT     SC2 1300  73.477  80.596  33.580
30967DT     SC3 1301  73.660  80.558  33.315
30968DG     BB1 1302  72.754  80.667  33.447
30968DG     BB2 1303  72.944  80.793  33.728
30968DG     BB3 1304  72.997  80.982  33.694
30968DG     SC1 1305  73.261  80.909  33.558
30968DG     SC2 1306  73.534  80.966  33.664
30968DG     SC3 1307  73.548  80.865  33.386
30968DG     SC4 1308  73.262  80.884  33.400
30969DA     BB1 1309  72.858  81.053  34.002
30969DA     BB2 1310  73.183  81.174  34.122
30969DA     BB3 1311  73.222  81.369  34.045
30969DA     SC1 1312  73.368  81.266  33.790
30969DA     SC2 1313  73.600  81.262  33.699
30969DA     SC3 1314  73.488  81.224  33.471
30969DA     SC4 1315  73.279  81.244  33.658
30970DT     BB1 1316  73.232  81.499  34.180
30970DT     BB2 1317  73.590  81.541  34.174
30970DT     BB3 1318  73.639  81.712  34.068
30970DT     SC1 1319  73.587  81.594  33.840
30970DT     SC2 1320  73.771  81.563  33.732
30970DT     SC3 1321  73.472  81.541  33.608
30971DT     BB1 1322  73.708  81.807  34.304
30971DT     BB2 1323  74.006  81.832  34.101
30971DT     BB3 1324  73.998  82.004  33.986
30971DT     SC1 1325  73.821  81.897  33.824
30971DT     SC2 1326  73.912  81.861  33.633
30971DT     SC3 1327  73.594  81.858  33.695
30972DA     BB1 1328  74.366  81.974  34.186
30972DA     BB2 1329  74.432  82.054  33.834
30972DA     BB3 1330  74.371  82.254  33.791
30972DA     SC1 1331  74.082  82.174  33.707
30972DA     SC2 1332  73.947  82.165  33.498
30972DA     SC3 1333  73.743  82.165  33.654
30972DA     SC4 1334  73.969  82.176  33.821
30973DT     BB1 1335  74.514  82.370  33.746
30973DT     BB2 1336  74.441  82.399  33.393
30973DT     BB3 1337  74.343  82.577  33.356
30973DT     SC1 1338  74.120  82.485  33.458
30973DT     SC2 1339  73.975  82.457  33.301
30973DT     SC3 1340  73.912  82.459  33.619
30974DG     BB1 1341  74.680  82.576  33.126
30974DG     BB2 1342  74.386  82.652  32.929
30974DG     BB3 1343  74.331  82.841  32.959
30974DG     SC1 1344  74.147  82.775  33.195
30974DG     SC2 1345  73.850  82.802  33.199
30974DG     SC3 1346  73.953  82.742  33.469
30974DG     SC4 1347  74.209  82.773  33.343
30975DA     BB1 1348  74.333  82.883  32.613
30975DA     BB2 1349  73.978  82.977  32.620
30975DA     BB3 1350  73.956  83.177  32.692
30975DA     SC1 1351  73.928  83.093  32.990
30975DA     SC2 1352  73.750  83.089  33.164
30975DA     SC3 1353  73.943  83.078  33.333
30975DA     SC4 1354  74.062  83.089  33.079
30976DA     BB1 1355  73.789  83.221  32.410
30976DA     BB2 1356  73.497  83.306  32.616
30976DA     BB3 1357  73.517  83.504  32.694
30976DA     SC1 1358  73.660  83.414  32.955
30976DA     SC2 1359  73.609  83.402  33.198
30976DA     SC3 1360  73.863  83.393  33.231
30976DA     SC4 1361  73.821  83.411  32.954
30977DT     BB1 1362  73.387  83.655  32.632
30977DT     BB2 1363  73.192  83.670  32.934
30977DT     BB3 1364  73.240  83.841  33.041
30977DT     SC1 1365  73.468  83.737  33.120
30977DT     SC2 1366  73.459  83.697  33.331
30977DT     SC3 1367  73.727  83.702  33.150
30978DA     BB1 1368  72.822  83.850  32.999
30978DA     BB2 1369  72.900  83.909  33.353
30978DA     BB3 1370  72.975  84.106  33.381
30978DA     SC1 1371  73.272  84.025  33.341
30978DA     SC2 1372  73.478  84.006  33.481
30978DA     SC3 1373  73.606  84.018  33.258
30978DA     SC4 1374  73.333  84.036  33.193
30979DA     BB1 1375  72.732  84.123  33.602
30979DA     BB2 1376  72.990  84.178  33.856
30979DA     BB3 1377  73.063  84.378  33.846
30979DA     SC1 1378  73.291  84.312  33.645
30979DA     SC2 1379  73.540  84.300  33.646
30979DA     SC3 1380  73.522  84.322  33.391
30979DA     SC4 1381  73.259  84.329  33.489
30980DA     BB1 1382  72.982  84.372  34.165
30980DA     BB2 1383  73.337  84.432  34.236
30980DA     BB3 1384  73.386  84.637  34.198
30980DA     SC1 1385  73.466  84.588  33.901
30980DA     SC2 1386  73.674  84.588  33.764
30980DA     SC3 1387  73.517  84.616  33.563
30980DA     SC4 1388  73.352  84.607  33.789
30981DA     BB1 1389  73.496  84.624  34.507
30981DA     BB2 1390  73.829  84.701  34.373
30981DA     BB3 1391  73.843  84.909  34.326
30981DA     SC1 1392  73.747  84.874  34.033
30981DA     SC2 1393  73.844  84.890  33.803
30981DA     SC3 1394  73.601  84.916  33.725
30981DA     SC4 1395  73.589  84.890  34.004
30982DA     BB1 1396  74.105  84.880  34.520
30982DA     BB2 1397  74.306  84.982  34.231
30982DA     BB3 1398  74.287  85.192  34.197
30982DA     SC1 1399  74.045  85.164  34.004
30982DA     SC2 1400  73.998  85.195  33.761
30982DA     SC3 1401  73.752  85.210  33.831
30982DA     SC4 1402  73.897  85.172  34.068
30983DA     BB1 1403  74.612  85.163  34.210
30983DA     BB2 1404  74.617  85.292  33.867
30983DA     BB3 1405  74.577  85.501  33.866
30983DA     SC1 1406  74.269  85.468  33.836
30983DA     SC2 1407  74.095  85.508  33.662
30983DA     SC3 1408  73.929  85.504  33.857
30983DA     SC4 1409  74.182  85.464  33.971
30984DG     BB1 1410  74.857  85.507  33.734
30984DG     BB2 1411  74.670  85.637  33.453
30984DG     BB3 1412  74.635  85.831  33.478
30984DG     SC1 1413  74.370  85.788  33.625
30984DG     SC2 1414  74.099  85.864  33.523
30984DG     SC3 1415  74.086  85.778  33.806
30984DG     SC4 1416  74.371  85.770  33.784
30985DT     BB1 1417  74.717  85.974  33.337
30985DT     BB2 1418  74.423  86.072  33.152
30985DT     BB3 1419  74.357  86.258  33.217
30985DT     SC1 1420  74.260  86.154  33.438
30985DT     SC2 1421  74.045  86.162  33.431
30985DT     SC3 1422  74.225  86.104  33.695
30986DC     BB1 1423  74.445  86.369  32.986
30986DC     BB2 1424  74.096  86.460  33.003
30986DC     BB3 1425  74.073  86.634  33.112
30986DC     SC1 1426  74.115  86.506  33.338
30986DC     SC2 1427  73.932  86.498  33.450
30986DC     SC3 1428  74.228  86.434  33.565
30987DA     BB1 1429  73.875  86.702  32.749
30987DA     BB2 1430  73.649  86.805  33.019
30987DA     BB3 1431  73.714  86.989  33.104
30987DA     SC1 1432  73.893  86.855  33.320
30987DA     SC2 1433  73.892  86.825  33.568
30987DA     SC3 1434  74.143  86.778  33.543
30987DA     SC4 1435  74.048  86.830  33.284
30988DA     BB1 1436  73.407  87.093  33.037
30988DA     BB2 1437  73.364  87.149  33.396
30988DA     BB3 1438  73.461  87.330  33.456
30988DA     SC1 1439  73.731  87.190  33.522
30988DA     SC2 1440  73.866  87.137  33.725
30988DA     SC3 1441  74.064  87.115  33.563
30988DA     SC4 1442  73.842  87.183  33.406
30989DA     BB1 1443  73.166  87.414  33.578
30989DA     BB2 1444  73.324  87.427  33.909
30989DA     BB3 1445  73.434  87.608  33.931
30989DA     SC1 1446  73.700  87.488  33.822
30989DA     SC2 1447  73.924  87.425  33.911
30989DA     SC3 1448  74.002  87.439  33.667
30989DA     SC4 1449  73.729  87.503  33.665
30990DA     BB1 1450  73.251  87.649  34.202
30990DA     BB2 1451  73.562  87.638  34.395
30990DA     BB3 1452  73.664  87.825  34.382
30990DA     SC1 1453  73.830  87.745  34.132
30990DA     SC2 1454  74.068  87.694  34.077
30990DA     SC3 1455  74.002  87.743  33.834
30990DA     SC4 1456  73.770  87.781  33.987
30991DC     BB1 1457  73.685  87.944  34.551
30991DC     BB2 1458  74.035  87.874  34.607
30991DC     BB3 1459  74.149  88.039  34.555
30991DC     SC1 1460  74.116  87.991  34.299
30991DC     SC2 1461  74.303  87.926  34.214
30991DC     SC3 1462  74.041  88.023  34.048
30992DT     BB1 1463  74.198  88.082  34.817
30992DT     BB2 1464  74.524  88.042  34.667
30992DT     BB3 1465  74.590  88.223  34.592
30992DT     SC1 1466  74.425  88.208  34.388
30992DT     SC2 1467  74.538  88.176  34.208
30992DT     SC3 1468  74.227  88.266  34.224
30993DC     BB1 1469  74.768  88.226  34.791
30993DC     BB2 1470  74.965  88.245  34.489
30993DC     BB3 1471  74.978  88.442  34.426
30993DC     SC1 1472  74.731  88.439  34.339
30993DC     SC2 1473  74.731  88.448  34.124
30993DC     SC3 1474  74.475  88.500  34.317
30994DT     BB1 1475  75.232  88.425  34.499
30994DT     BB2 1476  75.239  88.515  34.149
30994DT     BB3 1477  75.216  88.720  34.129
30994DT     SC1 1478  74.960  88.704  34.184
30994DT     SC2 1479  74.846  88.747  34.006
30994DT     SC3 1480  74.730  88.738  34.309
30995DA     BB1 1481  75.545  88.584  33.906
30995DA     BB2 1482  75.340  88.799  33.691
30995DA     BB3 1483  75.355  89.003  33.754
30995DA     SC1 1484  75.113  88.986  33.948
30995DA     SC2 1485  74.880  89.076  33.961
30995DA     SC3 1486  74.896  89.025  34.212
30995DA     SC4 1487  75.143  88.949  34.101
30996DG     BB1 1488  75.455  89.022  33.463
30996DG     BB2 1489  75.162  89.232  33.428
30996DG     BB3 1490  75.198  89.411  33.506
30996DG     SC1 1491  75.103  89.337  33.787
30996DG     SC2 1492  74.862  89.446  33.925
30996DG     SC3 1493  75.025  89.284  34.111
30996DG     SC4 1494  75.208  89.274  33.890
30997DA     BB1 1495  75.081  89.532  33.202
30997DA     BB2 1496  74.823  89.724  33.378
30997DA     BB3 1497  74.910  89.892  33.476
30997DA     SC1 1498  74.962  89.741  33.742
30997DA     SC2 1499  74.874  89.742  33.976
30997DA     SC3 1500  75.094  89.626  34.038
30997DA     SC4 1501  75.105  89.670  33.761
30998DA     BB1 1502  74.681  90.060  33.306
30998DA     BB2 1503  74.549  90.174  33.629
30998DA     BB3 1504  74.676  90.325  33.711
30998DA     SC1 1505  74.854  90.124  33.868
30998DA     SC2 1506  74.896  90.061  34.106
30998DA     SC3 1507  75.116  89.961  34.020
30998DA     SC4 1508  74.986  90.069  33.795
30999DA     BB1 1509  74.400  90.511  33.727
30999DA     BB2 1510  74.449  90.524  34.090
30999DA     BB3 1511  74.602  90.664  34.139
30999DA     SC1 1512  74.831  90.454  34.129
30999DA     SC2 1513  74.985  90.340  34.289
30999DA     SC3 1514  75.131  90.293  34.084
30999DA     SC4 1515  74.909  90.436  33.989
31000DT     BB1 1516  74.566  90.853  34.245
31000DT     BB2 1517  74.703  90.749  34.562
31000DT     BB3 1518  74.884  90.845  34.596
31000DT     SC1 1519  75.007  90.692  34.422
31000DT     SC2 1520  75.142  90.561  34.525
31000DT     SC3 1521  75.140  90.619  34.207
31001DC     BB1 1522  74.790  91.031  34.793
31001DC     BB2 1523  75.058  90.859  34.961
31001DC     BB3 1524  75.235  90.963  34.936
31001DC     SC1 1525  75.257  90.884  34.687
31001DC     SC2 1526  75.421  90.746  34.670
31001DC     SC3 1527  75.270  90.893  34.424
31002DA     BB1 1528  75.198  90.908  35.349
31002DA     BB2 1529  75.535  90.799  35.254
31002DA     BB3 1530  75.660  90.968  35.218
31002DA     SC1 1531  75.593  90.984  34.915
31002DA     SC2 1532  75.709  90.944  34.698
31002DA     SC3 1533  75.525  91.092  34.596
31002DA     SC4 1534  75.471  91.080  34.871
31003DA     BB1 1535  75.845  90.809  35.436
31003DA     BB2 1536  76.100  90.787  35.174
31003DA     BB3 1537  76.197  90.976  35.149
31003DA     SC1 1538  75.999  91.075  34.930
31003DA     SC2 1539  76.003  91.122  34.685
31003DA     SC3 1540  75.794  91.265  34.731
31003DA     SC4 1541  75.871  91.160  34.979
31004DA     BB1 1542  76.461  90.786  35.195
31004DA     BB2 1543  76.570  90.890  34.860
31004DA     BB3 1544  76.645  91.090  34.865
31004DA     SC1 1545  76.369  91.220  34.802
31004DA     SC2 1546  76.262  91.342  34.613
31004DA     SC3 1547  76.096  91.427  34.789
31004DA     SC4 1548  76.277  91.263  34.926
31005DG     BB1 1549  76.913  90.964  34.767
31005DG     BB2 1550  76.852  91.167  34.474
31005DG     BB3 1551  76.915  91.353  34.506
31005DG     SC1 1552  76.649  91.451  34.621
31005DG     SC2 1553  76.467  91.651  34.495
31005DG     SC3 1554  76.378  91.586  34.770
31005DG     SC4 1555  76.622  91.436  34.778
31006DA     BB1 1556  77.105  91.337  34.212
31006DA     BB2 1557  76.920  91.622  34.073
31006DA     BB3 1558  76.992  91.805  34.157
31006DA     SC1 1559  76.790  91.805  34.394
31006DA     SC2 1560  76.591  91.936  34.466
31006DA     SC3 1561  76.639  91.841  34.700
31006DA     SC4 1562  76.838  91.737  34.531
31007DT     BB1 1563  77.103  91.960  34.042
31007DT     BB2 1564  76.831  92.197  34.021
31007DT     BB3 1565  76.872  92.361  34.140
31007DT     SC1 1566  76.820  92.226  34.359
31007DT     SC2 1567  76.638  92.300  34.447
31007DT     SC3 1568  76.856  92.108  34.592
31008DG     BB1 1569  76.833  92.525  33.767
31008DG     BB2 1570  76.614  92.689  34.003
31008DG     BB3 1571  76.716  92.826  34.106
31008DG     SC1 1572  76.799  92.633  34.328
31008DG     SC2 1573  76.709  92.645  34.613
31008DG     SC3 1574  76.925  92.445  34.578
31008DG     SC4 1575  76.934  92.549  34.312
31009DC     BB1 1576  76.668  93.052  34.097
31009DC     BB2 1577  76.498  93.095  34.412
31009DC     BB3 1578  76.620  93.197  34.545
31009DC     SC1 1579  76.770  92.986  34.583
31009DC     SC2 1580  76.740  92.912  34.783
31009DC     SC3 1581  76.982  92.829  34.584
31010DT     BB1 1582  76.448  93.398  34.515
31010DT     BB2 1583  76.444  93.320  34.867
31010DT     BB3 1584  76.599  93.417  34.963
31010DT     SC1 1585  76.776  93.250  34.865
31010DT     SC2 1586  76.853  93.127  35.023
31010DT     SC3 1587  76.981  93.159  34.727
31011DA     BB1 1588  76.229  93.461  35.156
31011DA     BB2 1589  76.480  93.362  35.404
31011DA     BB3 1590  76.618  93.522  35.437
31011DA     SC1 1591  76.817  93.428  35.217
31011DA     SC2 1592  77.046  93.329  35.204
31011DA     SC3 1593  77.047  93.414  34.962
31011DA     SC4 1594  76.799  93.490  35.069
31012DC     BB1 1595  76.600  93.569  35.604
31012DC     BB2 1596  76.912  93.435  35.726
31012DC     BB3 1597  77.057  93.583  35.727
31012DC     SC1 1598  77.082  93.571  35.466
31012DC     SC2 1599  77.274  93.487  35.417
31012DC     SC3 1600  77.077  93.644  35.213
31013DA     BB1 1601  77.044  93.374  36.092
31013DA     BB2 1602  77.394  93.405  35.988
31013DA     BB3 1603  77.457  93.608  36.001
31013DA     SC1 1604  77.376  93.678  35.709
31013DA     SC2 1605  77.490  93.733  35.494
31013DA     SC3 1606  77.266  93.835  35.424
31013DA     SC4 1607  77.229  93.738  35.685
31014DG     BB1 1608  77.663  93.479  36.193
31014DG     BB2 1609  77.900  93.606  35.952
31014DG     BB3 1610  77.927  93.801  35.979
31014DG     SC1 1611  77.701  93.884  35.790
31014DG     SC2 1612  77.734  94.026  35.529
31014DG     SC3 1613  77.449  94.009  35.605
31014DG     SC4 1614  77.553  93.899  35.848
31015DG     BB1 1615  78.253  93.755  36.027
31015DG     BB2 1616  78.306  93.969  35.740
31015DG     BB3 1617  78.297  94.160  35.796
31015DG     SC1 1618  77.995  94.185  35.749
31015DG     SC2 1619  77.863  94.352  35.541
31015DG     SC3 1620  77.663  94.241  35.728
31015DG     SC4 1621  77.895  94.148  35.869
31016DA     BB1 1622  78.613  94.232  35.653
31016DA     BB2 1623  78.464  94.486  35.435
31016DA     BB3 1624  78.430  94.667  35.543
31016DA     SC1 1625  78.142  94.590  35.630
31016DA     SC2 1626  77.908  94.662  35.581
31016DA     SC3 1627  77.847  94.548  35.802
31016DA     SC4 1628  78.124  94.515  35.772
31017DT     BB1 1629  78.542  94.872  35.518
31017DT     BB2 1630  78.272  95.047  35.354
31017DT     BB3 1631  78.196  95.193  35.480
31017DT     SC1 1632  78.074  95.014  35.627
31017DT     SC2 1633  77.861  95.032  35.599
31017DT     SC3 1634  78.008  94.867  35.836
31018DT     BB1 1635  78.314  95.430  35.357
31018DT     BB2 1636  77.960  95.503  35.357
31018DT     BB3 1637  77.910  95.611  35.526
31018DT     SC1 1638  77.930  95.398  35.678
31018DT     SC2 1639  77.734  95.341  35.746
31018DT     SC3 1640  78.016  95.234  35.866
31019DA     BB1 1641  77.765  95.866  35.224
31019DA     BB2 1642  77.491  95.817  35.463
31019DA     BB3 1643  77.519  95.941  35.634
31019DA     SC1 1644  77.680  95.727  35.792
31019DA     SC2 1645  77.647  95.582  35.993
31019DA     SC3 1646  77.902  95.563  35.997
31019DA     SC4 1647  77.840  95.728  35.779
31020DG     BB1 1648  77.249  96.084  35.562
31020DG     BB2 1649  77.136  95.926  35.868
31020DG     BB3 1650  77.177  96.043  36.023
31020DG     SC1 1651  77.454  95.924  36.072
31020DG     SC2 1652  77.537  95.763  36.310
31020DG     SC3 1653  77.771  95.830  36.142
31020DG     SC4 1654  77.580  95.986  35.996
31021DG     BB1 1655  76.858  96.051  36.099
31021DG     BB2 1656  76.949  95.876  36.401
31021DG     BB3 1657  77.003  96.006  36.542
31021DG     SC1 1658  77.298  96.008  36.462
31021DG     SC2 1659  77.525  95.904  36.627
31021DG     SC3 1660  77.625  96.050  36.390
31021DG     SC4 1661  77.348  96.112  36.351
31022DT     BB1 1662  76.888  96.012  36.723
31022DT     BB2 1663  77.111  95.843  36.951
31022DT     BB3 1664  77.204  95.981  37.074
31022DT     SC1 1665  77.362  96.059  36.879
31022DT     SC2 1666  77.563  95.996  36.921
31022DT     SC3 1667  77.475  96.214  36.698
31023DA     BB1 1668  77.038  95.671  37.300
31023DA     BB2 1669  77.385  95.719  37.408
31023DA     BB3 1670  77.404  95.900  37.519
31023DA     SC1 1671  77.470  96.074  37.269
31023DA     SC2 1672  77.667  96.196  37.176
31023DA     SC3 1673  77.495  96.328  37.040
31023DA     SC4 1674  77.347  96.146  37.194
31024DA     BB1 1675  77.538  95.673  37.709
31024DA     BB2 1676  77.846  95.871  37.686
31024DA     BB3 1677  77.826  96.051  37.798
31024DA     SC1 1678  77.717  96.217  37.559
31024DA     SC2 1679  77.795  96.402  37.411
31024DA     SC3 1680  77.546  96.439  37.360
31024DA     SC4 1681  77.557  96.224  37.540
31025DA     BB1 1682  78.103  95.919  37.907
31025DA     BB2 1683  78.267  96.228  37.794
31025DA     BB3 1684  78.214  96.390  37.921
31025DA     SC1 1685  77.966  96.474  37.752
31025DA     SC2 1686  77.899  96.663  37.604
31025DA     SC3 1687  77.658  96.585  37.648
31025DA     SC4 1688  77.824  96.411  37.793
31026DA     BB1 1689  78.539  96.399  37.909
31026DA     BB2 1690  78.502  96.739  37.778
31026DA     BB3 1691  78.433  96.870  37.931
31026DA     SC1 1692  78.132  96.826  37.867
31026DA     SC2 1693  77.942  96.956  37.771
31026DA     SC3 1694  77.792  96.784  37.888
31026DA     SC4 1695  78.055  96.710  37.948
31027DT     BB1 1696  78.559  97.000  37.974
31027DT     BB2 1697  78.390  97.284  37.828
31027DT     BB3 1698  78.290  97.390  37.975
31027DT     SC1 1699  78.102  97.207  37.991
31027DT     SC2 1700  77.918  97.286  37.912
31027DT     SC3 1701  77.949  97.017  38.091
31028DT     BB1 1702  78.474  97.577  37.940
31028DT     BB2 1703  78.160  97.749  37.896
31028DT     BB3 1704  78.083  97.803  38.081
31028DT     SC1 1705  78.012  97.556  38.132
31028DT     SC2 1706  77.797  97.542  38.129
31028DT     SC3 1707  78.001  97.321  38.250
31029DA     BB1 1708  78.083  98.155  37.850
31029DA     BB2 1709  77.758  98.134  38.019
31029DA     BB3 1710  77.780  98.177  38.227
31029DA     SC1 1711  77.828  97.880  38.308
31029DA     SC2 1712  77.707  97.701  38.432
31029DA     SC3 1713  77.938  97.591  38.458
31029DA     SC4 1714  77.980  97.829  38.314
31030DA     BB1 1715  77.547  98.419  38.196
31030DA     BB2 1716  77.345  98.244  38.447
31030DA     BB3 1717  77.420  98.284  38.643
31030DA     SC1 1718  77.613  98.039  38.645
31030DA     SC2 1719  77.631  97.820  38.762
31030DA     SC3 1720  77.878  97.827  38.694
31030DA     SC4 1721  77.764  98.063  38.595
31031DA     BB1 1722  77.123  98.410  38.760
31031DA     BB2 1723  77.113  98.140  39.009
31031DA     BB3 1724  77.228  98.193  39.180
31031DA     SC1 1725  77.491  98.067  39.072
31031DA     SC2 1726  77.638  97.872  39.124
31031DA     SC3 1727  77.819  98.000  38.995
31031DA     SC4 1728  77.591  98.163  38.990
31032DT     BB1 1729  77.155  98.246  39.407
31032DT     BB2 1730  77.258  97.933  39.553
31032DT     BB3 1731  77.413  97.964  39.686
31032DT     SC1 1732  77.585  98.001  39.491
31032DT     SC2 1733  77.722  97.836  39.484
31032DT     SC3 1734  77.759  98.120  39.333
31033DA     BB1 1735  77.133  97.760  39.922
31033DA     BB2 1736  77.453  97.586  39.961
31033DA     BB3 1737  77.580  97.693  40.095
31033DA     SC1 1738  77.713  97.863  39.871
31033DA     SC2 1739  77.936  97.881  39.761
31033DA     SC3 1740  77.859  98.115  39.689
31033DA     SC4 1741  77.648  98.006  39.837
31034DA     BB1 1742  77.590  97.403  40.247
31034DA     BB2 1743  77.950  97.400  40.178
31034DA     BB3 1744  78.053  97.528  40.314
31034DA     SC1 1745  78.033  97.779  40.132
31034DA     SC2 1746  78.186  97.921  39.996
31034DA     SC3 1747  78.001  98.099  40.010
31034DA     SC4 1748  77.907  97.876  40.153
31035DA     BB1 1749  78.219  97.249  40.352
31035DA     BB2 1750  78.514  97.433  40.235
31035DA     BB3 1751  78.585  97.565  40.388
31035DA     SC1 1752  78.412  97.806  40.294
31035DA     SC2 1753  78.448  98.028  40.188
31035DA     SC3 1754  78.216  98.088  40.281
31035DA     SC4 1755  78.267  97.824  40.362
31036DT     BB1 1756  78.761  97.523  40.461
31036DT     BB2 1757  78.941  97.793  40.304
31036DT     BB3 1758  78.977  97.944  40.441
31036DT     SC1 1759  78.727  98.022  40.432
31036DT     SC2 1760  78.715  98.214  40.335
31036DT     SC3 1761  78.480  98.075  40.509
31037DG     BB1 1762  79.344  97.829  40.303
31037DG     BB2 1763  79.302  98.187  40.279
31037DG     BB3 1764  79.329  98.271  40.457
31037DG     SC1 1765  79.035  98.249  40.540
31037DG     SC2 1766  78.848  98.478  40.583
31037DG     SC3 1767  78.726  98.223  40.672
31037DG     SC4 1768  78.985  98.116  40.614
31038DC     BB1 1769  79.505  98.423  40.517
31038DC     BB2 1770  79.324  98.735  40.529
31038DC     BB3 1771  79.302  98.797  40.725
31038DC     SC1 1772  79.117  98.616  40.769
31038DC     SC2 1773  78.927  98.713  40.795
31038DC     SC3 1774  78.995  98.405  40.871
31039DA     BB1 1775  79.481  99.130  40.542
31039DA     BB2 1776  79.189  99.251  40.727
31039DA     BB3 1777  79.232  99.260  40.936
31039DA     SC1 1778  79.133  98.971  40.994
31039DA     SC2 1779  78.944  98.861  41.112
31039DA     SC3 1780  79.094  98.653  41.117
31039DA     SC4 1781  79.242  98.853  40.988
31040DA     BB1 1782  79.139  99.575  40.911
31040DA     BB2 1783  78.863  99.494  41.138
31040DA     BB3 1784  78.933  99.490  41.340
31040DA     SC1 1785  79.002  99.187  41.336
31040DA     SC2 1786  78.916  98.976  41.437
31040DA     SC3 1787  79.147  98.879  41.384
31040DA     SC4 1788  79.152  99.145  41.295
31041DG     BB1 1789  78.728  99.719  41.387
31041DG     BB2 1790  78.565  99.472  41.594
31041DG     BB3 1791  78.644  99.473  41.776
31041DG     SC1 1792  78.860  99.266  41.711
31041DG     SC2 1793  78.878  98.990  41.824
31041DG     SC3 1794  79.121  99.057  41.669
31041DG     SC4 1795  79.000  99.316  41.653
31042DT     BB1 1796  78.517  99.522  41.946
31042DT     BB2 1797  78.467  99.196  42.091
31042DT     BB3 1798  78.584  99.176  42.261
31042DT     SC1 1799  78.801  99.147  42.117
31042DT     SC2 1800  78.872  98.944  42.134
31042DT     SC3 1801  79.040  99.195  42.016
31043DT     BB1 1802  78.357  99.187  42.403
31043DT     BB2 1803  78.507  98.872  42.493
31043DT     BB3 1804  78.643  98.899  42.647
31043DT     SC1 1805  78.818  99.007  42.483
31043DT     SC2 1806  78.984  98.873  42.459
31043DT     SC3 1807  78.977  99.185  42.373
31044DC     BB1 1808  78.466  98.770  42.797
31044DC     BB2 1809  78.770  98.578  42.823
31044DC     BB3 1810  78.893  98.659  42.968
31044DC     SC1 1811  78.959  98.859  42.811
31044DC     SC2 1812  79.165  98.839  42.753
31044DC     SC3 1813  78.984  99.106  42.720
31045DT     BB1 1814  78.835  98.442  43.108
31045DT     BB2 1815  79.195  98.443  43.083
31045DT     BB3 1816  79.275  98.564  43.231
31045DT     SC1 1817  79.204  98.782  43.103
31045DT     SC2 1818  79.379  98.882  43.029
31045DT     SC3 1819  79.082  99.009  43.050
31046DC     BB1 1820  79.359  98.336  43.332
31046DC     BB2 1821  79.657  98.535  43.290
31046DC     BB3 1822  79.678  98.665  43.450
31046DC     SC1 1823  79.487  98.820  43.360
31046DC     SC2 1824  79.571  99.006  43.293
31046DC     SC3 1825  79.257  98.949  43.348
31047DG     BB1 1826  80.012  98.436  43.406
31047DG     BB2 1827  80.093  98.788  43.433
31047DG     BB3 1828  80.075  98.848  43.621
31047DG     SC1 1829  79.780  98.925  43.594
31047DG     SC2 1830  79.669  99.202  43.609
31047DG     SC3 1831  79.451  99.002  43.604
31047DG     SC4 1832  79.667  98.815  43.620
31048DT     BB1 1833  80.246  98.919  43.720
31048DT     BB2 1834  80.183  99.273  43.750
31048DT     BB3 1835  80.113  99.317  43.940
31048DT     SC1 1836  79.877  99.216  43.885
31048DT     SC2 1837  79.732  99.374  43.875
31048DT     SC3 1838  79.667  99.058  43.895
31049DT     BB1 1839  80.352  99.431  44.010
31049DT     BB2 1840  80.110  99.685  44.092
31049DT     BB3 1841  80.037  99.654  44.284
31049DT     SC1 1842  79.891  99.451  44.205
31049DT     SC2 1843  79.683  99.506  44.214
31049DT     SC3 1844  79.799  99.205  44.182
31050DT     BB1 1845  80.186  99.861  44.420
31050DT     BB2 1846  79.846  99.927  44.523
31050DT     BB3 1847  79.805  99.828  44.700
31050DT     SC1 1848  79.788  99.598  44.576
31050DT     SC2 1849  79.584  99.531  44.577
31050DT     SC3 1850  79.843  99.349  44.505
31051DA     BB1 1851  79.716 100.216  44.856
31051DA     BB2 1852  79.435 100.002  44.956
31051DA     BB3 1853  79.485  99.891  45.131
31051DA     SC1 1854  79.599  99.648  44.973
31051DA     SC2 1855  79.536  99.411  44.929
31051DA     SC3 1856  79.783  99.378  44.869
31051DA     SC4 1857  79.757  99.647  44.942
31052DA     BB1 1858  79.224 100.008  45.324
31052DA     BB2 1859  79.090  99.666  45.337
31052DA     BB3 1860  79.177  99.559  45.500
31052DA     SC1 1861  79.414  99.447  45.332
31052DA     SC2 1862  79.489  99.227  45.242
31052DA     SC3 1863  79.721  99.336  45.225
31052DA     SC4 1864  79.550  99.532  45.331
31053DA     BB1 1865  78.870  99.497  45.619
31053DA     BB2 1866  78.932  99.141  45.557
31053DA     BB3 1867  79.039  99.054  45.720
31053DA     SC1 1868  79.320  99.112  45.598
31053DA     SC2 1869  79.509  98.982  45.501
31053DA     SC3 1870  79.651  99.189  45.552
31053DA     SC4 1871  79.391  99.250  45.639
31054DT     BB1 1872  78.949  98.907  45.843
31054DT     BB2 1873  79.124  98.626  45.700
31054DT     BB3 1874  79.263  98.554  45.835
31054DT     SC1 1875  79.424  98.757  45.791
31054DT     SC2 1876  79.599  98.688  45.686
31054DT     SC3 1877  79.566  98.974  45.834
31055DA     BB1 1878  79.027  98.239  45.693
31055DA     BB2 1879  79.379  98.142  45.659
31055DA     BB3 1880  79.463  98.098  45.851
31055DA     SC1 1881  79.560  98.389  45.901
31055DA     SC2 1882  79.778  98.511  45.915
31055DA     SC3 1883  79.645  98.691  46.043
31055DA     SC4 1884  79.461  98.489  45.980
31056DT     BB1 1885  79.514  97.916  45.873
31056DT     BB2 1886  79.871  97.966  45.855
31056DT     BB3 1887  79.953  97.962  46.044
31056DT     SC1 1888  79.859  98.201  46.099
31056DT     SC2 1889  80.022  98.341  46.112
31056DT     SC3 1890  79.719  98.392  46.215
31057DG     BB1 1891  80.139  97.676  45.822
31057DG     BB2 1892  80.378  97.893  45.985
31057DG     BB3 1893  80.395  97.843  46.176
31057DG     SC1 1894  80.173  98.030  46.271
31057DG     SC2 1895  80.208  98.271  46.443
31057DG     SC3 1896  79.921  98.209  46.407
31057DG     SC4 1897  80.022  97.976  46.273
31058DG     BB1 1898  80.719  97.789  46.134
31058DG     BB2 1899  80.773  98.053  46.375
31058DG     BB3 1900  80.759  97.980  46.560
31058DG     SC1 1901  80.458  98.030  46.584
31058DG     SC2 1902  80.327  98.224  46.768
31058DG     SC3 1903  80.126  98.051  46.637
31058DG     SC4 1904  80.357  97.916  46.535
31059DA     BB1 1905  81.073  98.117  46.635
31059DA     BB2 1906  80.924  98.320  46.902
31059DA     BB3 1907  80.892  98.201  47.076
31059DA     SC1 1908  80.603  98.118  46.996
31059DA     SC2 1909  80.370  98.162  47.072
31059DA     SC3 1910  80.309  97.947  46.946
31059DA     SC4 1911  80.586  97.981  46.913
31060DT     BB1 1912  81.002  98.232  47.258
31060DT     BB2 1913  80.733  98.388  47.441
31060DT     BB3 1914  80.663  98.259  47.587
31060DT     SC1 1915  80.539  98.112  47.409
31060DT     SC2 1916  80.327  98.136  47.432
31060DT     SC3 1917  80.475  97.904  47.261
31061DG     BB1 1918  80.784  98.595  47.785
31061DG     BB2 1919  80.443  98.509  47.870
31061DG     BB3 1920  80.442  98.363  48.005
31061DG     SC1 1921  80.439  98.138  47.798
31061DG     SC2 1922  80.215  97.947  47.749
31061DG     SC3 1923  80.457  97.866  47.598
31061DG     SC4 1924  80.579  98.081  47.742
31062DT     BB1 1925  80.354  98.400  48.199
31062DT     BB2 1926  80.042  98.220  48.170
31062DT     BB3 1927  80.054  98.041  48.274
31062DT     SC1 1928  80.204  97.934  48.088
31062DT     SC2 1929  80.093  97.782  47.984
31062DT     SC3 1930  80.414  97.825  47.970
31063DG     BB1 1931  79.738  98.263  48.402
31063DG     BB2 1932  79.639  97.928  48.311
31063DG     BB3 1933  79.695  97.800  48.452
31063DG     SC1 1934  79.969  97.744  48.328
31063DG     SC2 1935  80.059  97.485  48.210
31063DG     SC3 1936  80.285  97.676  48.230
31063DG     SC4 1937  80.093  97.838  48.368
31064DA     BB1 1938  79.366  97.704  48.419
31064DA     BB2 1939  79.476  97.363  48.344
31064DA     BB3 1940  79.554  97.269  48.519
31064DA     SC1 1941  79.846  97.362  48.470
31064DA     SC2 1942  80.065  97.259  48.407
31064DA     SC3 1943  80.170  97.471  48.506
31064DA     SC4 1944  79.893  97.500  48.537
31065DT     BB1 1945  79.450  97.124  48.574
31065DT     BB2 1946  79.681  96.861  48.486
31065DT     BB3 1947  79.786  96.800  48.654
31065DT     SC1 1948  79.934  97.017  48.651
31065DT     SC2 1949  80.136  96.964  48.597
31065DT     SC3 1950  80.041  97.246  48.726
31066DT     BB1 1951  79.643  96.569  48.661
31066DT     BB2 1952  79.987  96.459  48.663
31066DT     BB3 1953  80.059  96.456  48.857
31066DT     SC1 1954  80.077  96.718  48.863
31066DT     SC2 1955  80.284  96.775  48.866
31066DT     SC3 1956  80.033  96.968  48.935
31067DA     BB1 1957  80.141  96.059  48.737
31067DA     BB2 1958  80.445  96.184  48.900
31067DA     BB3 1959  80.420  96.186  49.112
31067DA     SC1 1960  80.309  96.476  49.122
31067DA     SC2 1961  80.384  96.700  49.202
31067DA     SC3 1962  80.135  96.762  49.200
31067DA     SC4 1963  80.149  96.495  49.115
31068DG     BB1 1964  80.655  95.961  49.199
31068DG     BB2 1965  80.815  96.240  49.365
31068DG     BB3 1966  80.758  96.247  49.556
31068DG     SC1 1967  80.516  96.426  49.503
31068DG     SC2 1968  80.482  96.708  49.596
31068DG     SC3 1969  80.231  96.606  49.478
31068DG     SC4 1970  80.375  96.359  49.466
31069DA     BB1 1971  81.082  96.231  49.738
31069DA     BB2 1972  81.034  96.568  49.873
31069DA     BB3 1973  80.930  96.559  50.059
31069DA     SC1 1974  80.648  96.583  49.930
31069DA     SC2 1975  80.464  96.751  49.919
31069DA     SC3 1976  80.314  96.553  49.856
31069DA     SC4 1977  80.571  96.447  49.894
31070DT     BB1 1978  81.008  96.613  50.297
31070DT     BB2 1979  80.848  96.936  50.299
31070DT     BB3 1980  80.701  96.941  50.445
31070DT     SC1 1981  80.540  96.794  50.299
31070DT     SC2 1982  80.375  96.913  50.232
31070DT     SC3 1983  80.391  96.590  50.223
31071DA     BB1 1984  80.950  97.269  50.510
31071DA     BB2 1985  80.607  97.393  50.479
31071DA     BB3 1986  80.497  97.354  50.658
31071DA     SC1 1987  80.393  97.076  50.563
31071DA     SC2 1988  80.176  96.974  50.495
31071DA     SC3 1989  80.289  96.750  50.546
31071DA     SC4 1990  80.480  96.947  50.602
31072DT     BB1 1991  80.448  97.512  50.731
31072DT     BB2 1992  80.103  97.496  50.626
31072DT     BB3 1993  79.984  97.433  50.783
31072DT     SC1 1994  80.068  97.186  50.757
31072DT     SC2 1995  79.908  97.063  50.683
31072DT     SC3 1996  80.184  96.956  50.814
31073DA     BB1 1997  79.845  97.770  50.571
31073DA     BB2 1998  79.572  97.527  50.603
31073DA     BB3 1999  79.512  97.510  50.807
31073DA     SC1 2000  79.709  97.279  50.872
31073DA     SC2 2001  79.697  97.036  50.925
31073DA     SC3 2002  79.932  97.066  51.025
31073DA     SC4 2003  79.854  97.319  50.930
31074DA     BB1 2004  79.248  97.558  50.620
31074DA     BB2 2005  79.129  97.240  50.759
31074DA     BB3 2006  79.090  97.261  50.968
31074DA     SC1 2007  79.377  97.178  51.055
31074DA     SC2 2008  79.487  96.986  51.169
31074DA     SC3 2009  79.679  97.149  51.216
31074DA     SC4 2010  79.485  97.296  51.075
31075DT     BB1 2011  78.913  97.237  51.002
31075DT     BB2 2012  78.938  96.916  51.163
31075DT     BB3 2013  78.939  96.939  51.368
31075DT     SC1 2014  79.186  97.026  51.365
31075DT     SC2 2015  79.315  96.879  51.455
31075DT     SC3 2016  79.393  97.188  51.393
31076DC     BB1 2017  78.692  96.836  51.372
31076DC     BB2 2018  78.882  96.626  51.596
31076DC     BB3 2019  78.888  96.711  51.784
31076DC     SC1 2020  79.061  96.892  51.706
31076DC     SC2 2021  79.252  96.853  51.798
31076DC     SC3 2022  79.166  97.127  51.648
31077DG     BB1 2023  78.723  96.341  51.828
31077DG     BB2 2024  78.999  96.391  52.057
31077DG     BB3 2025  78.940  96.503  52.211
31077DG     SC1 2026  79.012  96.768  52.077
31077DG     SC2 2027  79.228  96.955  52.164
31077DG     SC3 2028  79.061  97.078  51.953
31077DG     SC4 2029  78.903  96.841  51.985
31078DT     BB1 2030  78.944  96.422  52.413
31078DT     BB2 2031  79.229  96.592  52.554
31078DT     BB3 2032  79.165  96.746  52.677
31078DT     SC1 2033  79.100  96.894  52.471
31078DT     SC2 2034  79.236  97.060  52.457
31078DT     SC3 2035  78.953  97.033  52.301
31079DT     BB1 2036  79.247  96.599  52.886
31079DT     BB2 2037  79.427  96.911  52.915
31079DT     BB3 2038  79.311  97.050  53.014
31079DT     SC1 2039  79.160  97.086  52.802
31079DT     SC2 2040  79.196  97.282  52.721
31079DT     SC3 2041  78.947  97.088  52.647
31080DT     BB1 2042  79.481  97.022  53.215
31080DT     BB2 2043  79.486  97.374  53.138
31080DT     BB3 2044  79.327  97.469  53.230
31080DT     SC1 2045  79.156  97.370  53.057
31080DT     SC2 2046  79.082  97.528  52.932
31080DT     SC3 2047  78.955  97.232  52.959
31081DA     BB1 2048  79.678  97.680  53.323
31081DA     BB2 2049  79.424  97.923  53.218
31081DA     BB3 2050  79.274  97.942  53.368
31081DA     SC1 2051  79.092  97.719  53.249
31081DA     SC2 2052  78.872  97.702  53.134
31081DA     SC3 2053  78.876  97.456  53.207
31081DA     SC4 2054  79.112  97.569  53.305
31082DA     BB1 2055  79.353  98.261  53.337
31082DA     BB2 2056  79.004  98.318  53.239
31082DA     BB3 2057  78.876  98.306  53.409
31082DA     SC1 2058  78.823  98.001  53.378
31082DA     SC2 2059  78.633  97.852  53.315
31082DA     SC3 2060  78.765  97.667  53.434
31082DA     SC4 2061  78.920  97.900  53.457
31083DA     BB1 2062  78.777  98.606  53.312
31083DA     BB2 2063  78.442  98.462  53.272
31083DA     BB3 2064  78.348  98.438  53.462
31083DA     SC1 2065  78.454  98.149  53.504
31083DA     SC2 2066  78.361  97.917  53.511
31083DA     SC3 2067  78.575  97.857  53.638
31083DA     SC4 2068  78.593  98.131  53.583
31084DT     BB1 2069  78.182  98.551  53.512
31084DT     BB2 2070  77.940  98.286  53.476
31084DT     BB3 2071  77.876  98.222  53.663
31084DT     SC1 2072  78.102  98.095  53.705
31084DT     SC2 2073  78.066  97.883  53.702
31084DT     SC3 2074  78.333  98.030  53.814
31085DA     BB1 2075  77.534  98.307  53.436
31085DA     BB2 2076  77.493  97.974  53.583
31085DA     BB3 2077  77.454  97.989  53.792
31085DA     SC1 2078  77.753  97.975  53.874
31085DA     SC2 2079  77.906  97.814  53.988
31085DA     SC3 2080  78.057  98.018  54.028
31085DA     SC4 2081  77.833  98.114  53.890
31086DC     BB1 2082  77.277  97.929  53.852
31086DC     BB2 2083  77.386  97.620  54.002
31086DC     BB3 2084  77.391  97.639  54.208
31086DC     SC1 2085  77.610  97.784  54.198
31086DC     SC2 2086  77.774  97.671  54.278
31086DC     SC3 2087  77.772  97.990  54.222
31087DG     BB1 2088  77.153  97.325  54.103
31087DG     BB2 2089  77.405  97.229  54.344
31087DG     BB3 2090  77.356  97.295  54.524
31087DG     SC1 2091  77.499  97.563  54.492
31087DG     SC2 2092  77.740  97.653  54.645
31087DG     SC3 2093  77.629  97.875  54.484
31087DG     SC4 2094  77.420  97.687  54.428
31088DT     BB1 2095  77.326  97.151  54.674
31088DT     BB2 2096  77.621  97.191  54.877
31088DT     BB3 2097  77.578  97.305  55.044
31088DT     SC1 2098  77.571  97.525  54.901
31088DT     SC2 2099  77.740  97.649  54.951
31088DT     SC3 2100  77.478  97.743  54.786
31089DC     BB1 2101  77.601  97.082  55.190
31089DC     BB2 2102  77.837  97.314  55.336
31089DC     BB3 2103  77.740  97.437  55.471
31089DC     SC1 2104  77.629  97.575  55.278
31089DC     SC2 2105  77.715  97.772  55.273
31089DC     SC3 2106  77.443  97.679  55.123
31090DT     BB1 2107  77.862  97.306  55.673
31090DT     BB2 2108  77.953  97.652  55.720
31090DT     BB3 2109  77.805  97.750  55.827
31090DT     SC1 2110  77.646  97.755  55.618
31090DT     SC2 2111  77.627  97.957  55.548
31090DT     SC3 2112  77.437  97.708  55.464
31091DT     BB1 2113  77.951  97.763  56.068
31091DT     BB2 2114  77.866  98.107  56.002
31091DT     BB3 2115  77.686  98.154  56.094
31091DT     SC1 2116  77.550  98.020  55.913
31091DT     SC2 2117  77.439  98.158  55.791
31091DT     SC3 2118  77.393  97.838  55.806
31092DG     BB1 2119  77.949  98.417  56.264
31092DG     BB2 2120  77.663  98.591  56.127
31092DG     BB3 2121  77.510  98.583  56.254
31092DG     SC1 2122  77.397  98.322  56.140
31092DG     SC2 2123  77.137  98.291  55.997
31092DG     SC3 2124  77.258  98.027  56.054
31092DG     SC4 2125  77.450  98.182  56.199
31093DT     BB1 2126  77.413  98.770  56.359
31093DT     BB2 2127  77.110  98.802  56.166
31093DT     BB3 2128  76.947  98.744  56.280
31093DT     SC1 2129  77.010  98.490  56.256
31093DT     SC2 2130  76.864  98.392  56.132
31093DT     SC3 2131  77.082  98.245  56.321
31094DA     BB1 2132  76.871  99.120  56.115
31094DA     BB2 2133  76.583  98.903  56.044
31094DA     BB3 2134  76.468  98.872  56.220
31094DA     SC1 2135  76.624  98.617  56.306
31094DA     SC2 2136  76.582  98.371  56.322
31094DA     SC3 2137  76.781  98.368  56.483
31094DA     SC4 2138  76.750  98.635  56.404
31095DT     BB1 2139  76.302  98.943  56.201
31095DT     BB2 2140  76.124  98.631  56.162
31095DT     BB3 2141  76.036  98.578  56.341
31095DT     SC1 2142  76.267  98.505  56.443
31095DT     SC2 2143  76.271  98.292  56.465
31095DT     SC3 2144  76.478  98.501  56.600
31096DG     BB1 2145  75.778  98.589  56.027
31096DG     BB2 2146  75.758  98.277  56.208
31096DG     BB3 2147  75.666  98.305  56.382
31096DG     SC1 2148  75.923  98.370  56.536
31096DG     SC2 2149  76.045  98.203  56.751
31096DG     SC3 2150  76.182  98.464  56.730
31096DG     SC4 2151  75.975  98.521  56.541
31097DC     BB1 2152  75.507  98.195  56.394
31097DC     BB2 2153  75.593  97.950  56.645
31097DC     BB3 2154  75.530  98.014  56.831
31097DC     SC1 2155  75.725  98.189  56.846
31097DC     SC2 2156  75.866  98.126  56.996
31097DC     SC3 2157  75.851  98.420  56.861
31098DT     BB1 2158  75.343  97.826  56.816
31098DT     BB2 2159  75.504  97.766  57.133
31098DT     BB3 2160  75.424  97.891  57.278
31098DT     SC1 2161  75.552  98.099  57.181
31098DT     SC2 2162  75.705  98.159  57.319
31098DT     SC3 2163  75.596  98.334  57.069
31099DT     BB1 2164  75.265  97.695  57.407
31099DT     BB2 2165  75.445  97.844  57.682
31099DT     BB3 2166  75.337  98.003  57.758
31099DT     SC1 2167  75.400  98.155  57.553
31099DT     SC2 2168  75.534  98.310  57.618
31099DT     SC3 2169  75.374  98.303  57.337
31100DT     BB1 2170  75.199  97.895  58.011
31100DT     BB2 2171  75.357  98.194  58.137
31100DT     BB3 2172  75.222  98.351  58.139
31100DT     SC1 2173  75.236  98.377  57.878
31100DT     SC2 2174  75.336  98.562  57.831
31100DT     SC3 2175  75.163  98.381  57.625
31101DT     BB1 2176  75.128  98.382  58.432
31101DT     BB2 2177  75.244  98.714  58.352
31101DT     BB3 2178  75.084  98.834  58.299
31101DT     SC1 2179  75.063  98.718  58.065
31101DT     SC2 2180  75.122  98.855  57.911
31101DT     SC3 2181  74.962  98.577  57.866
31102DT     BB1 2182  75.058  98.997  58.540
31102DT     BB2 2183  75.108  99.240  58.279
31102DT     BB3 2184  74.926  99.308  58.210
31102DT     SC1 2185  74.883  99.085  58.079
31102DT     SC2 2186  74.894  99.123  57.867
31102DT     SC3 2187  74.772  98.857  58.007
31103DT     BB1 2188  74.952  99.557  58.331
31103DT     BB2 2189  74.915  99.631  57.980
31103DT     BB3 2190  74.715  99.653  57.933
31103DT     SC1 2191  74.675  99.394  57.946
31103DT     SC2 2192  74.637  99.318  57.748
31103DT     SC3 2193  74.582  99.161  58.027
31104DA     BB1 2194  74.918  99.991  57.790
31104DA     BB2 2195  74.716  99.855  57.516
31104DA     BB3 2196  74.509  99.897  57.549
31104DA     SC1 2197  74.456  99.632  57.703
31104DA     SC2 2198  74.332  99.419  57.666
31104DA     SC3 2199  74.340  99.393  57.921
31104DA     SC4 2200  74.470  99.635  57.863
31105DT     BB1 2201  74.418 100.021  57.420
31105DT     BB2 2202  74.233  99.767  57.243
31105DT     BB3 2203  74.034  99.771  57.301
31105DT     SC1 2204  74.091  99.658  57.531
31105DT     SC2 2205  74.011  99.458  57.533
31105DT     SC3 2206  74.116  99.624  57.791
31106DA     BB1 2207  74.039  99.791  56.882
31106DA     BB2 2208  73.806  99.526  56.980
31106DA     BB3 2209  73.627  99.610  57.059
31106DA     SC1 2210  73.729  99.613  57.353
31106DA     SC2 2211  73.680  99.493  57.566
31106DA     SC3 2212  73.793  99.693  57.680
31106DA     SC4 2213  73.801  99.746  57.405
31107DA     BB1 2214  73.485  99.424  56.828
31107DA     BB2 2215  73.324  99.241  57.102
31107DA     BB3 2216  73.159  99.354  57.178
31107DA     SC1 2217  73.329  99.502  57.393
31107DA     SC2 2218  73.351  99.504  57.641
31107DA     SC3 2219  73.459  99.734  57.609
31107DA     SC4 2220  73.392  99.644  57.352
31108DA     BB1 2221  73.011  99.072  57.112
31108DA     BB2 2222  72.952  99.045  57.473
31108DA     BB3 2223  72.793  99.175  57.532
31108DA     SC1 2224  72.980  99.416  57.592
31108DA     SC2 2225  73.059  99.542  57.792
31108DA     SC3 2226  73.116  99.730  57.626
31108DA     SC4 2227  73.006  99.521  57.474
31109DC     BB1 2228  72.658  99.075  57.595
31109DC     BB2 2229  72.723  99.146  57.943
31109DC     BB3 2230  72.594  99.294  58.010
31109DC     SC1 2231  72.729  99.480  57.883
31109DC     SC2 2232  72.830  99.605  58.026
31109DC     SC3 2233  72.785  99.672  57.712
31110DG     BB1 2234  72.646  98.941  58.214
31110DG     BB2 2235  72.706  99.233  58.418
31110DG     BB3 2236  72.536  99.332  58.447
31110DG     SC1 2237  72.567  99.508  58.199
31110DG     SC2 2238  72.611  99.803  58.197
31110DG     SC3 2239  72.558  99.703  57.924
31110DG     SC4 2240  72.509  99.455  58.059
31111DA     BB1 2241  72.718  99.303  58.740
31111DA     BB2 2242  72.689  99.666  58.774
31111DA     BB3 2243  72.485  99.723  58.794
31111DA     SC1 2244  72.440  99.760  58.488
31111DA     SC2 2245  72.401  99.948  58.329
31111DA     SC3 2246  72.309  99.768  58.171
31111DA     SC4 2247  72.385  99.634  58.405
31112DA     BB1 2248  72.667  99.869  59.028
31112DA     BB2 2249  72.523 100.181  58.902
31112DA     BB3 2250  72.312 100.184  58.933
31112DA     SC1 2251  72.244 100.055  58.659
31112DA     SC2 2252  72.139 100.124  58.443
31112DA     SC3 2253  72.103  99.873  58.404
31112DA     SC4 2254  72.229  99.895  58.653
31113DG     BB1 2255  72.380 100.439  59.099
31113DG     BB2 2256  72.163 100.600  58.858
31113DG     BB3 2257  71.973 100.568  58.906
31113DG     SC1 2258  71.950 100.309  58.743
31113DG     SC2 2259  71.782 100.270  58.499
31113DG     SC3 2260  71.895 100.013  58.592
31113DG     SC4 2261  71.988 100.170  58.812
31114DT     BB1 2262  71.812 100.732  58.974
31114DT     BB2 2263  71.602 100.754  58.682
31114DT     BB3 2264  71.420 100.663  58.719
31114DT     SC1 2265  71.526 100.424  58.701
31114DT     SC2 2266  71.455 100.327  58.523
31114DT     SC3 2267  71.607 100.182  58.770
31115DA     BB1 2268  71.305 101.046  58.591
31115DA     BB2 2269  71.106 100.805  58.400
31115DA     BB3 2270  70.948 100.728  58.521
31115DA     SC1 2271  71.114 100.487  58.627
31115DA     SC2 2272  71.118 100.239  58.601
31115DA     SC3 2273  71.251 100.239  58.821
31115DA     SC4 2274  71.194 100.508  58.765
31116DG     BB1 2275  70.750 100.851  58.312
31116DG     BB2 2276  70.668 100.504  58.249
31116DG     BB3 2277  70.528 100.443  58.377
31116DG     SC1 2278  70.729 100.350  58.589
31116DG     SC2 2279  70.775 100.067  58.674
31116DG     SC3 2280  70.919 100.255  58.850
31116DG     SC4 2281  70.780 100.454  58.698
31117DT     BB1 2282  70.344 100.378  58.297
31117DT     BB2 2283  70.369 100.021  58.336
31117DT     BB3 2284  70.257  99.960  58.500
31117DT     SC1 2285  70.437 100.053  58.667
31117DT     SC2 2286  70.535  99.889  58.765
31117DT     SC3 2287  70.547 100.200  58.856
31118DG     BB1 2288  70.156  99.761  58.160
31118DG     BB2 2289  70.223  99.535  58.434
31118DG     BB3 2290  70.073  99.538  58.564
31118DG     SC1 2291  70.191  99.765  58.732
31118DG     SC2 2292  70.290  99.742  59.013
31118DG     SC3 2293  70.282 100.025  58.927
31118DG     SC4 2294  70.157  99.917  58.693
31119DA     BB1 2295  70.101  99.194  58.527
31119DA     BB2 2296  70.135  99.160  58.890
31119DA     BB3 2297  69.950  99.205  58.987
31119DA     SC1 2298  70.013  99.508  59.021
31119DA     SC2 2299  70.065  99.666  59.207
31119DA     SC3 2300  69.994  99.850  59.043
31119DA     SC4 2301  69.964  99.608  58.905
31120DA     BB1 2302  69.988  98.906  59.132
31120DA     BB2 2303  69.962  99.074  59.457
31120DA     BB3 2304  69.760  99.131  59.495
31120DA     SC1 2305  69.790  99.412  59.365
31120DA     SC2 2306  69.795  99.650  59.439
31120DA     SC3 2307  69.737  99.706  59.196
31120DA     SC4 2308  69.752  99.427  59.209
31121DA     BB1 2309  69.736  98.957  59.792
31121DA     BB2 2310  69.663  99.272  59.965
31121DA     BB3 2311  69.456  99.321  59.945
31121DA     SC1 2312  69.496  99.487  59.685
31121DA     SC2 2313  69.484  99.727  59.615
31121DA     SC3 2314  69.458  99.635  59.377
31121DA     SC4 2315  69.479  99.411  59.544
31122DA     BB1 2316  69.386  99.336  60.285
31122DA     BB2 2317  69.304  99.691  60.246
31122DA     BB3 2318  69.100  99.714  60.187
31122DA     SC1 2319  69.162  99.708  59.883
31122DA     SC2 2320  69.160  99.867  59.691
31122DA     SC3 2321  69.151  99.657  59.543
31122DA     SC4 2322  69.156  99.566  59.808
31123DA     BB1 2323  69.033  99.911  60.455
31123DA     BB2 2324  68.967 100.186  60.221
31123DA     BB3 2325  68.766 100.177  60.150
31123DA     SC1 2326  68.836 100.000  59.904
31123DA     SC2 2327  68.846 100.025  59.656
31123DA     SC3 2328  68.832  99.769  59.650
31123DA     SC4 2329  68.825  99.840  59.921
31124DC     BB1 2330  68.617 100.328  60.198
31124DC     BB2 2331  68.628 100.492  59.877
31124DC     BB3 2332  68.453 100.457  59.773
31124DC     SC1 2333  68.525 100.210  59.719
31124DC     SC2 2334  68.567 100.192  59.509
31124DC     SC3 2335  68.525  99.946  59.716
31125DT     BB1 2336  68.390 100.714  59.813
31125DT     BB2 2337  68.394 100.673  59.455
31125DT     BB3 2338  68.210 100.603  59.389
31125DT     SC1 2339  68.261 100.362  59.480
31125DT     SC2 2340  68.289 100.228  59.314
31125DT     SC3 2341  68.242 100.141  59.623
31126DA     BB1 2342  68.331 100.936  59.164
31126DA     BB2 2343  68.227 100.672  58.933
31126DA     BB3 2344  68.015 100.646  58.940
31126DA     SC1 2345  68.025 100.429  59.164
31126DA     SC2 2346  67.982 100.185  59.185
31126DA     SC3 2347  67.959 100.232  59.437
31126DA     SC4 2348  68.013 100.479  59.316
31127DA     BB1 2349  68.066 100.686  58.619
31127DA     BB2 2350  67.916 100.354  58.576
31127DA     BB3 2351  67.706 100.362  58.611
31127DA     SC1 2352  67.729 100.300  58.915
31127DA     SC2 2353  67.673 100.112  59.069
31127DA     SC3 2354  67.684 100.289  59.255
31127DA     SC4 2355  67.739 100.425  59.016
31128DT     BB1 2356  67.578 100.330  58.455
31128DT     BB2 2357  67.463 100.003  58.557
31128DT     BB3 2358  67.273 100.017  58.637
31128DT     SC1 2359  67.365 100.123  58.859
31128DT     SC2 2360  67.342  99.982  59.020
31128DT     SC3 2361  67.406 100.298  59.052
31129DA     BB1 2362  67.223  99.725  58.337
31129DA     BB2 2363  67.073  99.591  58.643
31129DA     BB3 2364  66.883  99.683  58.679
31129DA     SC1 2365  67.000  99.914  58.852
31129DA     SC2 2366  66.997  99.985  59.091
31129DA     SC3 2367  67.062 100.217  59.001
31129DA     SC4 2368  67.039 100.051  58.776
31130DA     BB1 2369  66.746  99.378  58.685
31130DA     BB2 2370  66.659  99.439  59.035
31130DA     BB3 2371  66.481  99.555  59.048
31130DA     SC1 2372  66.628  99.828  59.050
31130DA     SC2 2373  66.673 100.013  59.211
31130DA     SC3 2374  66.719 100.156  59.003
31130DA     SC4 2375  66.651  99.901  58.908
31131DT     BB1 2376  66.279  99.480  59.131
31131DT     BB2 2377  66.305  99.650  59.448
31131DT     BB3 2378  66.162  99.800  59.459
31131DT     SC1 2379  66.297  99.953  59.295
31131DT     SC2 2380  66.376 100.122  59.403
31131DT     SC3 2381  66.358 100.094  59.081
31132DC     BB1 2382  66.014  99.656  59.643
31132DC     BB2 2383  66.090  99.966  59.812
31132DC     BB3 2384  65.942 100.106  59.773
31132DC     SC1 2385  66.033 100.144  59.529
31132DC     SC2 2386  66.120 100.340  59.515
31132DC     SC3 2387  66.041 100.149  59.266
31133DT     BB1 2388  65.854 100.081  60.028
31133DT     BB2 2389  65.933 100.431  59.993
31133DT     BB3 2390  65.769 100.533  59.918
31133DT     SC1 2391  65.809 100.436  59.677
31133DT     SC2 2392  65.875 100.594  59.547
31133DT     SC3 2393  65.769 100.302  59.454
31134DA     BB1 2394  65.897 100.734  60.262
31134DA     BB2 2395  65.855 100.983  59.996
31134DA     BB3 2396  65.648 101.018  59.960
31134DA     SC1 2397  65.624 100.798  59.741
31134DA     SC2 2398  65.590 100.786  59.494
31134DA     SC3 2399  65.515 100.544  59.537
31134DA     SC4 2400  65.579 100.651  59.788
31135DA     BB1 2401  65.734 101.331  60.012
31135DA     BB2 2402  65.623 101.401  59.669
31135DA     BB3 2403  65.410 101.411  59.661
31135DA     SC1 2404  65.374 101.108  59.598
31135DA     SC2 2405  65.303 100.967  59.405
31135DA     SC3 2406  65.261 100.784  59.581
31135DA     SC4 2407  65.354 101.008  59.722
31136DG     BB1 2408  65.446 101.707  59.565
31136DG     BB2 2409  65.297 101.581  59.260
31136DG     BB3 2410  65.099 101.585  59.275
31136DG     SC1 2411  65.077 101.304  59.393
31136DG     SC2 2412  64.953 101.067  59.260
31136DG     SC3 2413  65.018 101.007  59.543
31136DG     SC4 2414  65.086 101.285  59.552
31137DC     BB1 2415  64.971 101.713  59.139
31137DC     BB2 2416  64.838 101.461  58.917
31137DC     BB3 2417  64.639 101.426  58.961
31137DC     SC1 2418  64.702 101.291  59.177
31137DC     SC2 2419  64.656 101.083  59.147
31137DC     SC3 2420  64.721 101.225  59.431
31138DA     BB1 2421  64.686 101.497  58.552
31138DA     BB2 2422  64.489 101.190  58.594
31138DA     BB3 2423  64.292 101.236  58.660
31138DA     SC1 2424  64.364 101.217  58.963
31138DA     SC2 2425  64.314 101.065  59.155
31138DA     SC3 2426  64.383 101.264  59.302
31138DA     SC4 2427  64.408 101.352  59.037
31139DA     BB1 2428  64.269 101.040  58.404
31139DA     BB2 2429  64.089 100.813  58.628
31139DA     BB3 2430  63.899 100.894  58.680
31139DA     SC1 2431  64.004 101.042  58.933
31139DA     SC2 2432  63.981 101.022  59.180
31139DA     SC3 2433  64.058 101.266  59.187
31139DA     SC4 2434  64.052 101.194  58.916
31140DT     BB1 2435  63.798 100.779  58.618
31140DT     BB2 2436  63.679 100.643  58.930
31140DT     BB3 2437  63.511 100.745  58.992
31140DT     SC1 2438  63.654 100.953  59.065
31140DT     SC2 2439  63.653 100.968  59.280
31140DT     SC3 2440  63.748 101.199  59.073
31141DA     BB1 2441  63.462 100.326  59.012
31141DA     BB2 2442  63.330 100.475  59.320
31141DA     BB3 2443  63.155 100.590  59.277
31141DA     SC1 2444  63.310 100.855  59.229
31141DA     SC2 2445  63.338 101.075  59.343
31141DA     SC3 2446  63.417 101.160  59.114
31141DA     SC4 2447  63.355 100.889  59.079
31142DA     BB1 2448  63.028 100.399  59.516
31142DA     BB2 2449  62.944 100.708  59.695
31142DA     BB3 2450  62.780 100.806  59.600
31142DA     SC1 2451  62.959 100.977  59.412
31142DA     SC2 2452  63.022 101.217  59.386
31142DA     SC3 2453  63.088 101.152  59.146
31142DA     SC4 2454  62.992 100.917  59.267
31143DA     BB1 2455  62.615 100.801  59.893
31143DA     BB2 2456  62.600 101.167  59.879
31143DA     BB3 2457  62.445 101.230  59.747
31143DA     SC1 2458  62.629 101.240  59.496
31143DA     SC2 2459  62.727 101.413  59.346
31143DA     SC3 2460  62.756 101.221  59.178
31143DA     SC4 2461  62.637 101.108  59.405
31144DA     BB1 2462  62.298 101.413  59.992
31144DA     BB2 2463  62.356 101.713  59.790
31144DA     BB3 2464  62.203 101.734  59.643
31144DA     SC1 2465  62.355 101.573  59.425
31144DA     SC2 2466  62.469 101.618  59.208
31144DA     SC3 2467  62.440 101.366  59.164
31144DA     SC4 2468  62.327 101.415  59.416
31145DA     BB1 2469  62.131 102.041  59.760
31145DA     BB2 2470  62.234 102.176  59.435
31145DA     BB3 2471  62.073 102.162  59.295
31145DA     SC1 2472  62.156 101.881  59.191
31145DA     SC2 2473  62.251 101.782  58.983
31145DA     SC3 2474  62.158 101.559  59.071
31145DA     SC4 2475  62.090 101.753  59.262
31146DA     BB1 2476  62.113 102.487  59.254
31146DA     BB2 2477  62.205 102.416  58.907
31146DA     BB3 2478  62.031 102.385  58.788
31146DA     SC1 2479  62.023 102.078  58.837
31146DA     SC2 2480  62.060 101.870  58.705
31146DA     SC3 2481  61.924 101.753  58.889
31146DA     SC4 2482  61.935 102.024  58.960
31147DC     BB1 2483  61.989 102.519  58.641
31147DC     BB2 2484  62.094 102.311  58.367
31147DC     BB3 2485  61.928 102.240  58.264
31147DC     SC1 2486  61.873 102.069  58.455
31147DC     SC2 2487  61.909 101.869  58.384
31147DC     SC3 2488  61.743 101.949  58.650
31148DA     BB1 2489  62.207 102.407  58.000
31148DA     BB2 2490  62.112 102.077  57.873
31148DA     BB3 2491  61.912 102.081  57.798
31148DA     SC1 2492  61.782 102.002  58.069
31148DA     SC2 2493  61.663 101.805  58.166
31148DA     SC3 2494  61.573 101.971  58.340
31148DA     SC4 2495  61.735 102.120  58.167
31149DC     BB1 2496  61.908 102.049  57.616
31149DC     BB2 2497  61.772 101.715  57.631
31149DC     BB3 2498  61.568 101.720  57.593
31149DC     SC1 2499  61.519 101.818  57.832
31149DC     SC2 2500  61.419 101.670  57.951
31149DC     SC3 2501  61.440 101.986  58.020
31150DT     BB1 2502  61.632 101.602  57.366
31150DT     BB2 2503  61.393 101.382  57.522
31150DT     BB3 2504  61.200 101.449  57.485
31150DT     SC1 2505  61.227 101.645  57.658
31150DT     SC2 2506  61.101 101.607  57.829
31150DT     SC3 2507  61.242 101.889  57.755
31151DC     BB1 2508  61.161 101.242  57.312
31151DC     BB2 2509  60.890 101.213  57.548
31151DC     BB3 2510  60.730 101.330  57.488
31151DC     SC1 2511  60.854 101.550  57.562
31151DC     SC2 2512  60.754 101.633  57.734
31151DC     SC3 2513  60.971 101.785  57.547
31152DA     BB1 2514  60.570 100.948  57.550
31152DA     BB2 2515  60.351 101.188  57.720
31152DA     BB3 2516  60.233 101.294  57.578
31152DA     SC1 2517  60.438 101.525  57.543
31152DA     SC2 2518  60.456 101.767  57.601
31152DA     SC3 2519  60.636 101.776  57.418
31152DA     SC4 2520  60.547 101.511  57.425
31153DT     BB1 2521  60.027 101.267  57.572
31153DT     BB2 2522  59.936 101.584  57.720
31153DT     BB3 2523  59.860 101.710  57.574
31153DT     SC1 2524  60.099 101.754  57.475
31153DT     SC2 2525  60.157 101.957  57.516
31153DT     SC3 2526  60.300 101.757  57.305
31154DA     BB1 2527  59.582 101.702  57.888
31154DA     BB2 2528  59.641 102.053  57.800
31154DA     BB3 2529  59.545 102.100  57.615
31154DA     SC1 2530  59.792 102.027  57.440
31154DA     SC2 2531  59.961 102.147  57.300
31154DA     SC3 2532  60.001 101.918  57.190
31154DA     SC4 2533  59.802 101.877  57.384
31155DT     BB1 2534  59.396 102.229  57.622
31155DT     BB2 2535  59.567 102.508  57.470
31155DT     BB3 2536  59.505 102.530  57.273
31155DT     SC1 2537  59.646 102.322  57.198
31155DT     SC2 2538  59.811 102.388  57.076
31155DT     SC3 2539  59.704 102.083  57.102
31156DA     BB1 2540  59.462 102.906  57.455
31156DA     BB2 2541  59.631 102.958  57.134
31156DA     BB3 2542  59.493 102.933  56.973
31156DA     SC1 2543  59.548 102.629  56.939
31156DA     SC2 2544  59.656 102.478  56.773
31156DA     SC3 2545  59.520 102.291  56.884
31156DA     SC4 2546  59.453 102.527  57.020
31157DT     BB1 2547  59.431 103.096  56.849
31157DT     BB2 2548  59.610 103.001  56.550
31157DT     BB3 2549  59.478 102.928  56.409
31157DT     SC1 2550  59.451 102.702  56.539
31157DT     SC2 2551  59.543 102.544  56.427
31157DT     SC3 2552  59.338 102.507  56.676
31158DT     BB1 2553  59.462 103.159  56.228
31158DT     BB2 2554  59.548 102.890  56.004
31158DT     BB3 2555  59.376 102.810  55.921
31158DT     SC1 2556  59.316 102.687  56.145
31158DT     SC2 2557  59.339 102.475  56.119
31158DT     SC3 2558  59.184 102.620  56.364
31159DA     BB1 2559  59.550 102.913  55.542
31159DA     BB2 2560  59.444 102.563  55.511
31159DA     BB3 2561  59.236 102.552  55.464
31159DA     SC1 2562  59.143 102.542  55.760
31159DA     SC2 2563  59.042 102.376  55.916
31159DA     SC3 2564  58.972 102.580  56.055
31159DA     SC4 2565  59.108 102.681  55.832
31160DA     BB1 2566  59.272 102.373  55.168
31160DA     BB2 2567  59.100 102.092  55.330
31160DA     BB3 2568  58.889 102.107  55.301
31160DA     SC1 2569  58.841 102.271  55.562
31160DA     SC2 2570  58.735 102.236  55.784
31160DA     SC3 2571  58.725 102.492  55.797
31160DA     SC4 2572  58.843 102.431  55.550
31161DT     BB1 2573  58.764 101.962  55.180
31161DT     BB2 2574  58.639 101.785  55.468
31161DT     BB3 2575  58.436 101.820  55.489
31161DT     SC1 2576  58.479 102.063  55.579
31161DT     SC2 2577  58.427 102.072  55.788
31161DT     SC3 2578  58.477 102.326  55.593
31162DA     BB1 2579  58.524 101.411  55.503
31162DA     BB2 2580  58.328 101.499  55.801
31162DA     BB3 2581  58.126 101.540  55.747
31162DA     SC1 2582  58.173 101.844  55.703
31162DA     SC2 2583  58.110 102.058  55.813
31162DA     SC3 2584  58.163 102.167  55.587
31162DA     SC4 2585  58.210 101.892  55.554
31163DT     BB1 2586  58.028 101.419  55.829
31163DT     BB2 2587  57.897 101.639  56.083
31163DT     BB3 2588  57.711 101.710  56.026
31163DT     SC1 2589  57.819 101.874  55.852
31163DT     SC2 2590  57.794 102.077  55.920
31163DT     SC3 2591  57.880 101.986  55.621
31164DC     BB1 2592  57.642 101.560  56.226
31164DC     BB2 2593  57.527 101.892  56.307
31164DC     BB3 2594  57.353 101.934  56.203
31164DC     SC1 2595  57.485 101.967  55.979
31164DC     SC2 2596  57.481 102.175  55.923
31164DC     SC3 2597  57.567 101.928  55.731
31165DT     BB1 2598  57.249 101.921  56.442
31165DT     BB2 2599  57.166 102.250  56.317
31165DT     BB3 2600  57.005 102.238  56.189
31165DT     SC1 2601  57.153 102.135  55.999
31165DT     SC2 2602  57.175 102.278  55.840
31165DT     SC3 2603  57.246 101.962  55.822
31166DT     BB1 2604  56.869 102.360  56.380
31166DT     BB2 2605  56.834 102.571  56.090
31166DT     BB3 2606  56.683 102.498  55.968
31166DT     SC1 2607  56.834 102.301  55.884
31166DT     SC2 2608  56.885 102.333  55.677
31166DT     SC3 2609  56.921 102.056  55.841
31167DT     BB1 2610  56.539 102.710  56.043
31167DT     BB2 2611  56.556 102.730  55.683
31167DT     BB3 2612  56.410 102.611  55.598
31167DT     SC1 2613  56.544 102.393  55.654
31167DT     SC2 2614  56.618 102.305  55.472
31167DT     SC3 2615  56.605 102.160  55.761
31168DC     BB1 2616  56.288 102.836  55.528
31168DC     BB2 2617  56.343 102.658  55.219
31168DC     BB3 2618  56.192 102.520  55.189
31168DC     SC1 2619  56.292 102.360  55.372
31168DC     SC2 2620  56.371 102.184  55.277
31168DC     SC3 2621  56.312 102.219  55.594
31169DC     BB1 2622  56.121 102.681  54.994
31169DC     BB2 2623  56.181 102.361  54.838
31169DC     BB3 2624  56.016 102.239  54.861
31169DC     SC1 2625  56.073 102.196  55.114
31169DC     SC2 2626  56.136 101.992  55.139
31169DC     SC3 2627  56.050 102.196  55.377
31170DT     BB1 2628  56.007 102.278  54.606
31170DT     BB2 2629  56.029 101.921  54.651
31170DT     BB3 2630  55.844 101.845  54.706
31170DT     SC1 2631  55.869 101.939  54.949
31170DT     SC2 2632  55.895 101.776  55.087
31170DT     SC3 2633  55.822 102.082  55.166
31171DC     BB1 2634  55.841 101.738  54.464
31171DC     BB2 2635  55.794 101.460  54.688
31171DC     BB3 2636  55.595 101.446  54.743
31171DC     SC1 2637  55.617 101.653  54.903
31171DC     SC2 2638  55.601 101.586  55.108
31171DC     SC3 2639  55.579 101.893  55.005
31172DA     BB1 2640  55.712 101.066  54.607
31172DA     BB2 2641  55.530 101.022  54.922
31172DA     BB3 2642  55.321 101.057  54.892
31172DA     SC1 2643  55.338 101.360  54.959
31172DA     SC2 2644  55.264 101.514  55.141
31172DA     SC3 2645  55.293 101.701  54.968
31172DA     SC4 2646  55.361 101.462  54.837
31173DT     BB1 2647  55.178 100.901  54.907
31173DT     BB2 2648  55.031 101.002  55.221
31173DT     BB3 2649  54.845 101.084  55.188
31173DT     SC1 2650  54.950 101.306  55.095
31173DT     SC2 2651  54.915 101.466  55.235
31173DT     SC3 2652  55.013 101.500  54.927
31174DT     BB1 2653  54.697 100.863  55.282
31174DT     BB2 2654  54.574 101.138  55.481
31174DT     BB3 2655  54.411 101.225  55.388
31174DT     SC1 2656  54.565 101.341  55.210
31174DT     SC2 2657  54.565 101.553  55.244
31174DT     SC3 2658  54.671 101.403  54.977
31175DT     BB1 2659  54.211 101.119  55.562
31175DT     BB2 2660  54.160 101.475  55.580
31175DT     BB3 2661  54.021 101.534  55.439
31175DT     SC1 2662  54.195 101.507  55.245
31175DT     SC2 2663  54.247 101.701  55.167
31175DT     SC3 2664  54.309 101.416  55.025
31176DC     BB1 2665  53.818 101.579  55.626
31176DC     BB2 2666  53.856 101.896  55.460
31176DC     BB3 2667  53.730 101.906  55.296
31176DC     SC1 2668  53.883 101.744  55.158
31176DC     SC2 2669  53.978 101.854  54.998
31176DC     SC3 2670  53.963 101.531  55.024
31177DA     BB1 2671  53.666 102.248  55.528
31177DA     BB2 2672  53.722 102.355  55.181
31177DA     BB3 2673  53.551 102.312  55.062
31177DA     SC1 2674  53.650 102.030  54.978
31177DA     SC2 2675  53.732 101.917  54.771
31177DA     SC3 2676  53.670 101.698  54.891
31177DA     SC4 2677  53.604 101.905  55.068
31178DG     BB1 2678  53.575 102.616  55.029
31178DG     BB2 2679  53.642 102.523  54.686
31178DG     BB3 2680  53.471 102.482  54.592
31178DG     SC1 2681  53.475 102.185  54.665
31178DG     SC2 2682  53.508 101.958  54.474
31178DG     SC3 2683  53.436 101.859  54.744
31178DG     SC4 2684  53.407 102.138  54.803
31179DC     BB1 2685  53.437 102.600  54.434
31179DC     BB2 2686  53.497 102.378  54.157
31179DC     BB3 2687  53.318 102.301  54.088
31179DC     SC1 2688  53.299 102.139  54.294
31179DC     SC2 2689  53.326 101.936  54.228
31179DC     SC3 2690  53.206 102.029  54.515
31180DT     BB1 2691  53.371 102.451  53.881
31180DT     BB2 2692  53.331 102.118  53.749
31180DT     BB3 2693  53.129 102.074  53.728
31180DT     SC1 2694  53.102 102.042  53.987
31180DT     SC2 2695  53.067 101.834  54.030
31180DT     SC3 2696  53.019 102.080  54.234
31181DC     BB1 2697  53.179 102.090  53.471
31181DC     BB2 2698  53.036 101.762  53.520
31181DC     BB3 2699  52.830 101.776  53.531
31181DC     SC1 2700  52.841 101.876  53.773
31181DC     SC2 2701  52.764 101.732  53.913
31181DC     SC3 2702  52.814 102.047  53.972
31182DA     BB1 2703  52.933 101.478  53.251
31182DA     BB2 2704  52.675 101.343  53.475
31182DA     BB3 2705  52.488 101.437  53.437
31182DA     SC1 2706  52.532 101.665  53.645
31182DA     SC2 2707  52.439 101.733  53.866
31182DA     SC3 2708  52.536 101.965  53.811
31182DA     SC4 2709  52.598 101.801  53.592
31183DA     BB1 2710  52.394 101.122  53.409
31183DA     BB2 2711  52.163 101.187  53.686
31183DA     BB3 2712  51.998 101.306  53.619
31183DA     SC1 2713  52.135 101.577  53.685
31183DA     SC2 2714  52.108 101.763  53.849
31183DA     SC3 2715  52.243 101.903  53.683
31183DA     SC4 2716  52.219 101.648  53.568
31184DA     BB1 2717  51.829 101.057  53.753
31184DA     BB2 2718  51.682 101.306  53.979
31184DA     BB3 2719  51.539 101.425  53.875
31184DA     SC1 2720  51.746 101.642  53.790
31184DA     SC2 2721  51.797 101.880  53.845
31184DA     SC3 2722  51.923 101.883  53.621
31184DA     SC4 2723  51.818 101.624  53.648
31185DT     BB1 2724  51.347 101.410  53.929
31185DT     BB2 2725  51.324 101.727  54.099
31185DT     BB3 2726  51.225 101.865  53.981
31185DT     SC1 2727  51.435 101.893  53.825
31185DT     SC2 2728  51.519 102.089  53.854
31185DT     SC3 2729  51.586 101.887  53.609
31186DA     BB1 2730  51.030 101.869  54.353
31186DA     BB2 2731  51.102 102.216  54.260
31186DA     BB3 2732  50.972 102.279  54.103
31186DA     SC1 2733  51.165 102.191  53.875
31186DA     SC2 2734  51.309 102.299  53.702
31186DA     SC3 2735  51.300 102.072  53.582
31186DA     SC4 2736  51.147 102.042  53.815
31187DT     BB1 2737  50.832 102.425  54.137
31187DT     BB2 2738  51.002 102.690  53.960
31187DT     BB3 2739  50.908 102.725  53.779
31187DT     SC1 2740  51.008 102.506  53.675
31187DT     SC2 2741  51.154 102.558  53.526
31187DT     SC3 2742  51.020 102.266  53.567
31188DT     BB1 2743  50.804 102.962  53.870
31188DT     BB2 2744  50.995 103.052  53.577
31188DT     BB3 2745  50.878 103.034  53.408
31188DT     SC1 2746  50.895 102.772  53.415
31188DT     SC2 2747  51.015 102.704  53.250
31188DT     SC3 2748  50.823 102.519  53.434
31189DT     BB1 2749  50.860 103.305  53.380
31189DT     BB2 2750  51.006 103.192  53.071
31189DT     BB3 2751  50.857 103.141  52.936
31189DT     SC1 2752  50.805 102.919  53.066
31189DT     SC2 2753  50.867 102.751  52.947
31189DT     SC3 2754  50.673 102.739  53.207
31190DA     BB1 2755  51.119 103.406  52.745
31190DA     BB2 2756  51.077 103.111  52.531
31190DA     BB3 2757  50.884 103.112  52.441
31190DA     SC1 2758  50.749 102.950  52.670
31190DA     SC2 2759  50.652 102.723  52.703
31190DA     SC3 2760  50.530 102.826  52.904
31190DA     SC4 2761  50.681 103.033  52.790
31191DC     BB1 2762  50.876 103.132  52.242
31191DC     BB2 2763  50.799 102.786  52.171
31191DC     BB3 2764  50.600 102.767  52.118
31191DC     SC1 2765  50.523 102.799  52.367
31191DC     SC2 2766  50.444 102.612  52.441
31191DC     SC3 2767  50.407 102.903  52.580
31192DA     BB1 2768  50.848 102.577  51.840
31192DA     BB2 2769  50.585 102.342  51.941
31192DA     BB3 2770  50.397 102.402  51.859
31192DA     SC1 2771  50.318 102.577  52.104
31192DA     SC2 2772  50.152 102.570  52.290
31192DA     SC3 2773  50.194 102.822  52.309
31192DA     SC4 2774  50.357 102.733  52.099
31193DT     BB1 2775  50.340 102.275  51.746
31193DT     BB2 2776  50.081 102.141  51.957
31193DT     BB3 2777  49.898 102.222  51.904
31193DT     SC1 2778  49.958 102.451  52.017
31193DT     SC2 2779  49.836 102.478  52.193
31193DT     SC3 2780  50.010 102.708  52.045
31194DT     BB1 2781  49.854 101.977  51.824
31194DT     BB2 2782  49.593 102.049  52.063
31194DT     BB3 2783  49.443 102.159  51.972
31194DT     SC1 2784  49.591 102.376  51.975
31194DT     SC2 2785  49.508 102.517  52.115
31194DT     SC3 2786  49.730 102.583  51.888
31195DG     BB1 2787  49.302 101.821  52.150
31195DG     BB2 2788  49.118 102.115  52.251
31195DG     BB3 2789  49.001 102.176  52.103
31195DG     SC1 2790  49.212 102.360  51.979
31195DG     SC2 2791  49.199 102.658  51.966
31195DG     SC3 2792  49.425 102.555  51.806
31195DG     SC4 2793  49.313 102.300  51.871
31196DA     BB1 2794  48.763 102.175  52.354
31196DA     BB2 2795  48.692 102.528  52.285
31196DA     BB3 2796  48.591 102.548  52.098
31196DA     SC1 2797  48.852 102.579  51.932
31196DA     SC2 2798  48.969 102.759  51.805
31196DA     SC3 2799  49.092 102.568  51.687
31196DA     SC4 2800  48.917 102.446  51.869
31197DA     BB1 2801  48.384 102.716  52.293
31197DA     BB2 2802  48.440 103.003  52.071
31197DA     BB3 2803  48.343 102.972  51.883
31197DA     SC1 2804  48.589 102.836  51.750
31197DA     SC2 2805  48.756 102.889  51.572
31197DA     SC3 2806  48.796 102.636  51.563
31197DA     SC4 2807  48.599 102.675  51.759
31198DA     BB1 2808  48.196 103.266  51.941
31198DA     BB2 2809  48.346 103.386  51.628
31198DA     BB3 2810  48.240 103.308  51.460
31198DA     SC1 2811  48.418 103.054  51.434
31198DA     SC2 2812  48.588 102.964  51.276
31198DA     SC3 2813  48.535 102.736  51.382
31198DA     SC4 2814  48.370 102.922  51.512
31199DT     BB1 2815  48.107 103.426  51.314
31199DT     BB2 2816  48.333 103.418  51.033
31199DT     BB3 2817  48.257 103.294  50.885
31199DT     SC1 2818  48.320 103.079  51.022
31199DT     SC2 2819  48.481 102.976  50.923
31199DT     SC3 2820  48.294 102.854  51.157
31200DT     BB1 2821  48.157 103.492  50.692
31200DT     BB2 2822  48.379 103.289  50.493
31200DT     BB3 2823  48.272 103.138  50.399
31200DT     SC1 2824  48.250 103.004  50.624
31200DT     SC2 2825  48.369 102.825  50.612
31200DT     SC3 2826  48.139 102.886  50.832
31201DT     BB1 2827  48.261 103.241  50.124
31201DT     BB2 2828  48.416 102.918  50.086
31201DT     BB3 2829  48.273 102.776  50.039
31201DT     SC1 2830  48.184 102.773  50.286
31201DT     SC2 2831  48.235 102.585  50.378
31201DT     SC3 2832  48.021 102.801  50.492
31202DA     BB1 2833  48.557 102.737  49.733
31202DA     BB2 2834  48.504 102.404  49.877
31202DA     BB3 2835  48.320 102.321  49.807
31202DA     SC1 2836  48.150 102.437  50.041
31202DA     SC2 2837  48.029 102.350  50.241
31202DA     SC3 2838  47.901 102.573  50.234
31202DA     SC4 2839  48.081 102.580  50.019
31203DT     BB1 2840  48.330 102.156  49.691
31203DT     BB2 2841  48.229 101.924  49.949
31203DT     BB3 2842  48.034 101.862  49.915
31203DT     SC1 2843  47.938 102.092  49.998
31203DT     SC2 2844  47.837 102.064  50.185
31203DT     SC3 2845  47.814 102.325  49.995
31204DT     BB1 2846  48.146 101.630  49.858
31204DT     BB2 2847  47.922 101.565  50.134
31204DT     BB3 2848  47.729 101.539  50.064
31204DT     SC1 2849  47.701 101.796  50.021
31204DT     SC2 2850  47.560 101.877  50.162
31204DT     SC3 2851  47.666 102.024  49.893
31205DA     BB1 2852  47.847 101.235  50.330
31205DA     BB2 2853  47.518 101.361  50.433
31205DA     BB3 2854  47.369 101.304  50.291
31205DA     SC1 2855  47.400 101.561  50.118
31205DA     SC2 2856  47.267 101.765  50.066
31205DA     SC3 2857  47.418 101.786  49.860
31205DA     SC4 2858  47.503 101.555  49.995
31206DA     BB1 2859  47.252 101.209  50.581
31206DA     BB2 2860  46.968 101.430  50.509
31206DA     BB3 2861  46.850 101.349  50.351
31206DA     SC1 2862  47.006 101.496  50.126
31206DA     SC2 2863  46.965 101.680  49.963
31206DA     SC3 2864  47.161 101.580  49.831
31206DA     SC4 2865  47.129 101.418  50.058
31207DC     BB1 2866  46.676 101.300  50.406
31207DC     BB2 2867  46.498 101.568  50.243
31207DC     BB3 2868  46.415 101.501  50.066
31207DC     SC1 2869  46.650 101.500  49.947
31207DC     SC2 2870  46.655 101.657  49.799
31207DC     SC3 2871  46.866 101.412  49.825
31208DA     BB1 2872  46.114 101.691  50.287
31208DA     BB2 2873  46.102 101.820  49.944
31208DA     BB3 2874  46.026 101.672  49.811
31208DA     SC1 2875  46.305 101.552  49.744
31208DA     SC2 2876  46.460 101.543  49.549
31208DA     SC3 2877  46.567 101.343  49.669
31208DA     SC4 2878  46.357 101.429  49.834
31209DC     BB1 2879  45.848 101.705  49.723
31209DC     BB2 2880  45.975 101.775  49.393
31209DC     BB3 2881  45.942 101.612  49.269
31209DC     SC1 2882  46.136 101.477  49.382
31209DC     SC2 2883  46.299 101.456  49.243
31209DC     SC3 2884  46.261 101.288  49.518
31210DT     BB1 2885  45.752 101.754  49.141
31210DT     BB2 2886  45.986 101.659  48.883
31210DT     BB3 2887  45.940 101.470  48.813
31210DT     SC1 2888  46.037 101.357  49.029
31210DT     SC2 2889  46.218 101.252  48.979
31210DT     SC3 2890  46.048 101.219  49.253
31211DC     BB1 2891  45.844 101.573  48.577
31211DC     BB2 2892  46.099 101.340  48.474
31211DC     BB3 2893  46.017 101.151  48.452
31211DC     SC1 2894  46.005 101.118  48.712
31211DC     SC2 2895  46.148 100.969  48.773
31211DC     SC3 2896  45.904 101.082  48.953
31212DG     BB1 2897  46.175 101.242  48.087
31212DG     BB2 2898  46.295 100.922  48.204
31212DG     BB3 2899  46.158 100.782  48.172
31212DG     SC1 2900  46.020 100.821  48.443
31212DG     SC2 2901  46.012 100.623  48.666
31212DG     SC3 2902  45.832 100.851  48.722
31212DG     SC4 2903  45.903 100.930  48.455
31213DA     BB1 2904  46.402 100.595  48.011
31213DA     BB2 2905  46.358 100.323  48.252
31213DA     BB3 2906  46.182 100.211  48.207
31213DA     SC1 2907  45.996 100.385  48.386
31213DA     SC2 2908  45.869 100.359  48.599
31213DA     SC3 2909  45.731 100.559  48.516
31213DA     SC4 2910  45.921 100.509  48.316
31214DT     BB1 2911  46.199 100.015  48.144
31214DT     BB2 2912  46.087  99.863  48.452
31214DT     BB3 2913  45.896  99.788  48.428
31214DT     SC1 2914  45.792 100.029  48.436
31214DT     SC2 2915  45.681 100.052  48.619
31214DT     SC3 2916  45.664 100.247  48.360
31215DG     BB1 2917  46.131  99.475  48.541
31215DG     BB2 2918  45.842  99.506  48.756
31215DG     BB3 2919  45.682  99.429  48.665
31215DG     SC1 2920  45.601  99.692  48.531
31215DG     SC2 2921  45.356  99.852  48.590
31215DG     SC3 2922  45.495  99.958  48.352
31215DG     SC4 2923  45.662  99.728  48.387
31216DA     BB1 2924  45.641  99.250  48.957
31216DA     BB2 2925  45.311  99.401  49.004
31216DA     BB3 2926  45.169  99.314  48.871
31216DA     SC1 2927  45.219  99.520  48.643
31216DA     SC2 2928  45.095  99.708  48.534
31216DA     SC3 2929  45.259  99.675  48.340
31216DA     SC4 2930  45.329  99.484  48.532
31217DA     BB1 2931  45.016  99.277  49.157
31217DA     BB2 2932  44.747  99.482  49.016
31217DA     BB3 2933  44.635  99.370  48.873
31217DA     SC1 2934  44.811  99.455  48.631
31217DA     SC2 2935  44.788  99.598  48.428
31217DA     SC3 2936  44.988  99.465  48.337
31217DA     SC4 2937  44.934  99.360  48.592
31218DA     BB1 2938  44.396  99.477  49.069
31218DA     BB2 2939  44.255  99.642  48.773
31218DA     BB3 2940  44.167  99.498  48.642
31218DA     SC1 2941  44.428  99.451  48.478
31218DA     SC2 2942  44.512  99.500  48.249
31218DA     SC3 2943  44.684  99.315  48.295
31218DA     SC4 2944  44.525  99.333  48.526
31219DT     BB1 2945  43.973  99.508  48.620
31219DT     BB2 2946  43.971  99.640  48.284
31219DT     BB3 2947  43.928  99.489  48.149
31219DT     SC1 2948  44.168  99.386  48.174
31219DT     SC2 2949  44.278  99.416  47.992
31219DT     SC3 2950  44.359  99.214  48.232
31220DA     BB1 2951  43.660  99.802  48.066
31220DA     BB2 2952  43.806  99.692  47.748
31220DA     BB3 2953  43.724  99.504  47.689
31220DA     SC1 2954  43.943  99.337  47.833
31220DA     SC2 2955  44.135  99.191  47.770
31220DA     SC3 2956  44.115  99.096  48.008
31220DA     SC4 2957  43.914  99.290  47.984
31221DT     BB1 2958  43.595  99.480  47.518
31221DT     BB2 2959  43.835  99.317  47.304
31221DT     BB3 2960  43.786  99.117  47.282
31221DT     SC1 2961  43.870  99.062  47.524
31221DT     SC2 2962  44.049  98.943  47.512
31221DT     SC3 2963  43.867  98.986  47.777
31222DT     BB1 2964  43.693  99.146  47.020
31222DT     BB2 2965  43.948  98.892  46.995
31222DT     BB3 2966  43.863  98.705  47.022
31222DT     SC1 2967  43.840  98.744  47.280
31222DT     SC2 2968  43.978  98.615  47.385
31222DT     SC3 2969  43.729  98.776  47.517
31223DA     BB1 2970  44.070  98.676  46.659
31223DA     BB2 2971  44.169  98.389  46.864
31223DA     BB3 2972  44.014  98.243  46.866
31223DA     SC1 2973  43.874  98.359  47.119
31223DA     SC2 2974  43.839  98.295  47.357
31223DA     SC3 2975  43.645  98.462  47.353
31223DA     SC4 2976  43.757  98.467  47.095
31224DT     BB1 2977  44.048  98.061  46.778
31224DT     BB2 2978  44.088  97.874  47.084
31224DT     BB3 2979  43.921  97.757  47.118
31224DT     SC1 2980  43.779  97.965  47.191
31224DT     SC2 2981  43.739  97.954  47.402
31224DT     SC3 2982  43.591  98.150  47.190
31225DA     BB1 2983  44.262  97.517  47.148
31225DA     BB2 2984  44.053  97.455  47.443
31225DA     BB3 2985  43.881  97.341  47.390
31225DA     SC1 2986  43.704  97.591  47.332
31225DA     SC2 2987  43.508  97.706  47.434
31225DA     SC3 2988  43.476  97.813  47.203
31225DA     SC4 2989  43.701  97.646  47.181
31226DT     BB1 2990  43.874  97.167  47.467
31226DT     BB2 2991  43.614  97.234  47.709
31226DT     BB3 2992  43.434  97.158  47.642
31226DT     SC1 2993  43.408  97.352  47.467
31226DT     SC2 2994  43.247  97.482  47.527
31226DT     SC3 2995  43.388  97.477  47.235
31227DA     BB1 2996  43.501  97.026  48.034
31227DA     BB2 2997  43.158  97.154  48.014
31227DA     BB3 2998  43.035  97.020  47.901
31227DA     SC1 2999  43.091  97.161  47.629
31227DA     SC2 3000  42.966  97.299  47.463
31227DA     SC3 3001  43.149  97.230  47.297
31227DA     SC4 3002  43.214  97.105  47.540
31228DA     BB1 3003  42.848  97.037  48.171
31228DA     BB2 3004  42.580  97.165  47.957
31228DA     BB3 3005  42.496  97.008  47.840
31228DA     SC1 3006  42.690  97.048  47.601
31228DA     SC2 3007  42.679  97.129  47.365
31228DA     SC3 3008  42.898  97.001  47.332
31228DA     SC4 3009  42.825  96.961  47.600
31229DT     BB1 3010  42.297  96.939  47.872
31229DT     BB2 3011  42.153  97.082  47.573
31229DT     BB3 3012  42.114  96.933  47.435
31229DT     SC1 3013  42.368  96.910  47.376
31229DT     SC2 3014  42.402  96.983  47.177
31229DT     SC3 3015  42.609  96.804  47.351
31230DT     BB1 3016  41.835  96.933  47.473
31230DT     BB2 3017  41.872  96.988  47.119
31230DT     BB3 3018  41.874  96.807  47.019
31230DT     SC1 3019  42.118  96.755  47.100
31230DT     SC2 3020  42.253  96.764  46.933
31230DT     SC3 3021  42.319  96.635  47.222
31231DA     BB1 3022  41.570  97.021  46.824
31231DA     BB2 3023  41.793  96.887  46.565
31231DA     BB3 3024  41.756  96.679  46.536
31231DA     SC1 3025  41.966  96.588  46.746
31231DA     SC2 3026  42.188  96.474  46.748
31231DA     SC3 3027  42.136  96.422  46.994
31231DA     SC4 3028  41.915  96.564  46.897
31232DT     BB1 3029  41.676  96.610  46.355
31232DT     BB2 3030  41.984  96.472  46.227
31232DT     BB3 3031  41.978  96.266  46.234
31232DT     SC1 3032  42.013  96.265  46.494
31232DT     SC2 3033  42.209  96.187  46.539
31232DT     SC3 3034  41.966  96.228  46.751
31233DT     BB1 3035  41.960  96.268  45.967
31233DT     BB2 3036  42.256  96.075  46.039
31233DT     BB3 3037  42.205  95.878  46.075
31233DT     SC1 3038  42.110  95.938  46.313
31233DT     SC2 3039  42.239  95.855  46.464
31233DT     SC3 3040  41.940  95.969  46.511
31234DG     BB1 3041  42.479  95.902  45.775
31234DG     BB2 3042  42.584  95.674  46.036
31234DG     BB3 3043  42.482  95.504  46.022
31234DG     SC1 3044  42.254  95.597  46.205
31234DG     SC2 3045  42.190  95.486  46.475
31234DG     SC3 3046  41.979  95.672  46.384
31234DG     SC4 3047  42.129  95.674  46.140
31235DA     BB1 3048  42.800  95.372  46.040
31235DA     BB2 3049  42.699  95.180  46.335
31235DA     BB3 3050  42.567  95.022  46.279
31235DA     SC1 3051  42.309  95.191  46.317
31235DA     SC2 3052  42.115  95.200  46.474
31235DA     SC3 3053  41.996  95.330  46.287
31235DA     SC4 3054  42.252  95.269  46.188
31236DA     BB1 3055  42.794  94.855  46.450
31236DA     BB2 3056  42.521  94.749  46.670
31236DA     BB3 3057  42.397  94.606  46.571
31236DA     SC1 3058  42.203  94.820  46.454
31236DA     SC2 3059  41.967  94.894  46.488
31236DA     SC3 3060  41.988  94.998  46.254
31236DA     SC4 3061  42.236  94.877  46.307
31237DG     BB1 3062  42.476  94.407  46.801
31237DG     BB2 3063  42.122  94.417  46.874
31237DG     BB3 3064  42.024  94.291  46.755
31237DG     SC1 3065  41.977  94.497  46.534
31237DG     SC2 3066  41.713  94.608  46.451
31237DG     SC3 3067  41.926  94.692  46.263
31237DG     SC4 3068  42.088  94.516  46.420
31238DT     BB1 3069  41.902  94.088  46.818
31238DT     BB2 3070  41.561  94.200  46.780
31238DT     BB3 3071  41.476  94.112  46.613
31238DT     SC1 3072  41.611  94.269  46.452
31238DT     SC2 3073  41.476  94.407  46.357
31238DT     SC3 3074  41.782  94.346  46.266
31239DT     BB1 3075  41.309  93.916  46.745
31239DT     BB2 3076  41.076  94.102  46.542
31239DT     BB3 3077  41.051  94.009  46.359
31239DT     SC1 3078  41.286  94.092  46.276
31239DT     SC2 3079  41.259  94.239  46.122
31239DT     SC3 3080  41.536  94.085  46.192
31240DT     BB1 3081  40.792  93.904  46.410
31240DT     BB2 3082  40.748  94.110  46.117
31240DT     BB3 3083  40.773  93.995  45.946
31240DT     SC1 3084  41.033  93.988  45.979
31240DT     SC2 3085  41.128  94.105  45.826
31240DT     SC3 3086  41.276  93.893  46.021
31241DT     BB1 3087  40.503  94.003  45.889
31241DT     BB2 3088  40.662  94.152  45.601
31241DT     BB3 3089  40.708  94.006  45.462
31241DT     SC1 3090  40.910  93.921  45.607
31241DT     SC2 3091  41.094  93.969  45.508
31241DT     SC3 3092  41.060  93.761  45.754
31242DA     BB1 3093  40.502  94.322  45.282
31242DA     BB2 3094  40.805  94.255  45.087
31242DA     BB3 3095  40.785  94.072  44.979
31242DA     SC1 3096  40.907  93.898  45.206
31242DA     SC2 3097  41.116  93.767  45.246
31242DA     SC3 3098  40.980  93.645  45.427
31242DA     SC4 3099  40.806  93.833  45.313
31243DT     BB1 3100  40.788  94.103  44.800
31243DT     BB2 3101  41.120  93.976  44.738
31243DT     BB3 3102  41.109  93.783  44.666
31243DT     SC1 3103  41.049  93.689  44.903
31243DT     SC2 3104  41.215  93.573  44.978
31243DT     SC3 3105  40.913  93.573  45.097
31244DA     BB1 3106  41.359  94.019  44.425
31244DA     BB2 3107  41.534  93.706  44.501
31244DA     BB3 3108  41.443  93.543  44.398
31244DA     SC1 3109  41.245  93.475  44.629
31244DA     SC2 3110  41.212  93.293  44.795
31244DA     SC3 3111  40.972  93.381  44.814
31244DA     SC4 3112  41.100  93.544  44.625
31245DA     BB1 3113  41.757  93.511  44.311
31245DA     BB2 3114  41.742  93.179  44.465
31245DA     BB3 3115  41.628  93.046  44.345
31245DA     SC1 3116  41.358  93.110  44.486
31245DA     SC2 3117  41.197  92.995  44.638
31245DA     SC3 3118  41.028  93.171  44.559
31245DA     SC4 3119  41.267  93.227  44.424
31246DA     BB1 3120  41.902  92.869  44.375
31246DA     BB2 3121  41.696  92.612  44.535
31246DA     BB3 3122  41.578  92.511  44.389
31246DA     SC1 3123  41.336  92.704  44.415
31246DA     SC2 3124  41.102  92.697  44.502
31246DA     SC3 3125  41.062  92.902  44.354
31246DA     SC4 3126  41.330  92.830  44.315
31247DT     BB1 3127  41.618  92.319  44.358
31247DT     BB2 3128  41.327  92.187  44.526
31247DT     BB3 3129  41.187  92.124  44.386
31247DT     SC1 3130  41.120  92.371  44.331
31247DT     SC2 3131  40.921  92.409  44.403
31247DT     SC3 3132  41.085  92.595  44.194
31248DT     BB1 3133  41.246  91.873  44.457
31248DT     BB2 3134  40.891  91.904  44.512
31248DT     BB3 3135  40.789  91.869  44.336
31248DT     SC1 3136  40.858  92.103  44.240
31248DT     SC2 3137  40.684  92.229  44.229
31248DT     SC3 3138  40.968  92.284  44.083
31249DT     BB1 3139  40.709  91.643  44.450
31249DT     BB2 3140  40.405  91.817  44.362
31249DT     BB3 3141  40.358  91.780  44.164
31249DT     SC1 3142  40.548  91.942  44.081
31249DT     SC2 3143  40.459  92.117  43.993
31249DT     SC3 3144  40.768  92.025  43.964
31250DG     BB1 3145  40.046  91.677  44.405
31250DG     BB2 3146  39.942  91.896  44.136
31250DG     BB3 3147  39.935  91.795  43.965
31250DG     SC1 3148  40.226  91.853  43.890
31250DG     SC2 3149  40.317  92.021  43.661
31250DG     SC3 3150  40.546  91.881  43.787
31250DG     SC4 3151  40.341  91.754  43.941
31251DA     BB1 3152  39.613  91.922  43.932
31251DA     BB2 3153  39.705  92.074  43.611
31251DA     BB3 3154  39.720  91.924  43.460
31251DA     SC1 3155  40.022  91.870  43.508
31251DA     SC2 3156  40.238  91.909  43.388
31251DA     SC3 3157  40.332  91.726  43.542
31251DA     SC4 3158  40.062  91.753  43.611
31252DG     BB1 3159  39.489  92.075  43.307
31252DG     BB2 3160  39.743  92.122  43.054
31252DG     BB3 3161  39.753  91.961  42.938
31252DG     SC1 3162  39.962  91.818  43.111
31252DG     SC2 3163  40.243  91.759  43.032
31252DG     SC3 3164  40.175  91.626  43.287
31252DG     SC4 3165  39.912  91.725  43.231
31253DA     BB1 3166  39.708  92.146  42.637
31253DA     BB2 3167  40.034  92.034  42.512
31253DA     BB3 3168  40.019  91.839  42.429
31253DA     SC1 3169  40.085  91.693  42.695
31253DA     SC2 3170  40.272  91.558  42.790
31253DA     SC3 3171  40.097  91.472  42.958
31253DA     SC4 3172  39.961  91.650  42.789
31254DT     BB1 3173  40.041  91.783  42.206
31254DT     BB2 3174  40.371  91.641  42.236
31254DT     BB3 3175  40.362  91.436  42.207
31254DT     SC1 3176  40.256  91.398  42.443
31254DT     SC2 3177  40.399  91.299  42.571
31254DT     SC3 3178  40.081  91.330  42.629
31255DA     BB1 3179  40.652  91.567  41.933
31255DA     BB2 3180  40.800  91.294  42.129
31255DA     BB3 3181  40.726  91.106  42.061
31255DA     SC1 3182  40.486  91.101  42.259
31255DA     SC2 3183  40.416  90.974  42.461
31255DA     SC3 3184  40.179  91.056  42.407
31255DA     SC4 3185  40.346  91.162  42.207
31256DT     BB1 3186  40.858  90.980  41.977
31256DT     BB2 3187  40.888  90.763  42.264
31256DT     BB3 3188  40.788  90.585  42.228
31256DT     SC1 3189  40.555  90.700  42.261
31256DT     SC2 3190  40.465  90.628  42.443
31256DT     SC3 3191  40.313  90.790  42.207
31257DA     BB1 3192  41.176  90.542  42.381
31257DA     BB2 3193  40.946  90.340  42.582
31257DA     BB3 3194  40.874  90.174  42.469
31257DA     SC1 3195  40.626  90.326  42.359
31257DA     SC2 3196  40.378  90.321  42.389
31257DA     SC3 3197  40.369  90.445  42.164
31257DA     SC4 3198  40.641  90.402  42.218
31258DT     BB1 3199  40.932  90.055  42.563
31258DT     BB2 3200  40.615  89.947  42.698
31258DT     BB3 3201  40.531  89.804  42.574
31258DT     SC1 3202  40.464  89.986  42.397
31258DT     SC2 3203  40.250  90.008  42.395
31258DT     SC3 3204  40.455  90.119  42.170
31259DA     BB1 3205  40.523  89.724  42.992
31259DA     BB2 3206  40.195  89.647  42.846
31259DA     BB3 3207  40.211  89.484  42.709
31259DA     SC1 3208  40.265  89.666  42.462
31259DA     SC2 3209  40.145  89.735  42.254
31259DA     SC3 3210  40.378  89.797  42.166
31259DA     SC4 3211  40.418  89.697  42.425
31260DC     BB1 3212  40.116  89.357  42.776
31260DC     BB2 3213  39.853  89.353  42.529
31260DC     BB3 3214  39.900  89.220  42.378
31260DC     SC1 3215  40.077  89.385  42.277
31260DC     SC2 3216  40.005  89.459  42.088
31260DC     SC3 3217  40.309  89.482  42.198
31261DC     BB1 3218  39.718  89.028  42.466
31261DC     BB2 3219  39.636  89.064  42.117
31261DC     BB3 3220  39.750  88.934  42.003
31261DC     SC1 3221  39.964  89.083  42.033
31261DC     SC2 3222  40.014  89.174  41.844
31261DC     SC3 3223  40.207  89.157  42.104
31262DG     BB1 3224  39.380  88.770  41.905
31262DG     BB2 3225  39.571  88.827  41.604
31262DG     BB3 3226  39.691  88.672  41.569
31262DG     SC1 3227  39.925  88.787  41.730
31262DG     SC2 3228  40.188  88.875  41.619
31262DG     SC3 3229  40.194  88.872  41.915
31262DG     SC4 3230  39.934  88.755  41.887
31263DG     BB1 3231  39.576  88.547  41.258
31263DG     BB2 3232  39.899  88.635  41.120
31263DG     BB3 3233  40.020  88.478  41.125
31263DG     SC1 3234  40.131  88.542  41.403
31263DG     SC2 3235  40.411  88.623  41.466
31263DG     SC3 3236  40.259  88.571  41.714
31263DG     SC4 3237  40.055  88.484  41.532
31264DT     BB1 3238  40.131  88.332  40.930
31264DT     BB2 3239  40.464  88.470  40.942
31264DT     BB3 3240  40.599  88.325  41.005
31264DT     SC1 3241  40.515  88.345  41.253
31264DT     SC2 3242  40.668  88.435  41.374
31264DT     SC3 3243  40.407  88.279  41.485
31265DT     BB1 3244  40.716  88.288  40.752
31265DT     BB2 3245  40.990  88.392  40.962
31265DT     BB3 3246  41.084  88.226  41.042
31265DT     SC1 3247  40.888  88.185  41.211
31265DT     SC2 3248  40.955  88.228  41.411
31265DT     SC3 3249  40.685  88.068  41.332
31266DT     BB1 3250  41.287  88.290  40.882
31266DT     BB2 3251  41.422  88.303  41.217
31266DT     BB3 3252  41.483  88.114  41.276
31266DT     SC1 3253  41.235  88.036  41.311
31266DT     SC2 3254  41.198  88.009  41.521
31266DT     SC3 3255  41.011  87.901  41.280
31267DT     BB1 3256  41.703  88.246  41.261
31267DT     BB2 3257  41.679  88.127  41.601
31267DT     BB3 3258  41.731  87.926  41.610
31267DT     SC1 3259  41.502  87.855  41.503
31267DT     SC2 3260  41.382  87.755  41.651
31267DT     SC3 3261  41.328  87.755  41.332
31268DC     BB1 3262  41.908  88.052  41.741
31268DC     BB2 3263  41.775  87.802  41.965
31268DC     BB3 3264  41.844  87.615  41.910
31268DC     SC1 3265  41.683  87.606  41.704
31268DC     SC2 3266  41.530  87.458  41.738
31268DC     SC3 3267  41.600  87.596  41.453
31269DA     BB1 3268  41.878  87.683  42.328
31269DA     BB2 3269  41.762  87.340  42.274
31269DA     BB3 3270  41.915  87.224  42.180
31269DA     SC1 3271  41.821  87.288  41.891
31269DA     SC2 3272  41.714  87.167  41.700
31269DA     SC3 3273  41.806  87.358  41.555
31269DA     SC4 3274  41.888  87.414  41.817
31270DT     BB1 3275  42.023  87.068  42.280
31270DT     BB2 3276  41.907  86.782  42.094
31270DT     BB3 3277  42.054  86.720  41.961
31270DT     SC1 3278  42.005  86.922  41.801
31270DT     SC2 3279  41.914  86.850  41.620
31270DT     SC3 3280  42.041  87.145  41.664
31271DT     BB1 3281  42.228  86.474  42.088
31271DT     BB2 3282  42.164  86.341  41.759
31271DT     BB3 3283  42.330  86.367  41.639
31271DT     SC1 3284  42.281  86.624  41.613
31271DT     SC2 3285  42.220  86.664  41.411
31271DT     SC3 3286  42.311  86.885  41.630
31272DG     BB1 3287  42.431  85.940  41.606
31272DG     BB2 3288  42.431  86.079  41.271
31272DG     BB3 3289  42.615  86.133  41.220
31272DG     SC1 3290  42.588  86.417  41.330
31272DG     SC2 3291  42.587  86.668  41.168
31272DG     SC3 3292  42.601  86.729  41.458
31272DG     SC4 3293  42.626  86.445  41.483
31273DA     BB1 3294  42.701  85.940  40.902
31273DA     BB2 3295  42.716  86.249  40.703
31273DA     BB3 3296  42.916  86.321  40.693
31273DA     SC1 3297  42.890  86.500  40.947
31273DA     SC2 3298  42.882  86.743  41.001
31273DA     SC3 3299  42.948  86.671  41.239
31273DA     SC4 3300  42.933  86.435  41.088
31274DG     BB1 3301  42.948  86.289  40.369
31274DG     BB2 3302  42.954  86.651  40.373
31274DG     BB3 3303  43.142  86.716  40.376
31274DG     SC1 3304  43.161  86.720  40.682
31274DG     SC2 3305  43.189  86.963  40.853
31274DG     SC3 3306  43.224  86.717  41.013
31274DG     SC4 3307  43.209  86.587  40.758
31275DA     BB1 3308  43.069  86.912  40.102
31275DA     BB2 3309  43.140  87.215  40.294
31275DA     BB3 3310  43.350  87.252  40.301
31275DA     SC1 3311  43.394  87.090  40.563
31275DA     SC2 3312  43.452  87.136  40.801
31275DA     SC3 3313  43.522  86.889  40.811
31275DA     SC4 3314  43.433  86.934  40.548
31276DT     BB1 3315  43.412  87.416  40.209
31276DT     BB2 3316  43.474  87.610  40.507
31276DT     BB3 3317  43.678  87.623  40.542
31276DT     SC1 3318  43.688  87.375  40.626
31276DT     SC2 3319  43.727  87.373  40.837
31276DT     SC3 3320  43.752  87.119  40.637
31277DT     BB1 3321  43.662  87.883  40.470
31277DT     BB2 3322  43.805  87.889  40.802
31277DT     BB3 3323  44.010  87.868  40.791
31277DT     SC1 3324  43.990  87.613  40.736
31277DT     SC2 3325  44.061  87.498  40.904
31277DT     SC3 3326  44.008  87.385  40.605
31278DA     BB1 3327  43.927  88.203  41.029
31278DA     BB2 3328  44.178  88.001  41.204
31278DA     BB3 3329  44.368  88.020  41.109
31278DA     SC1 3330  44.324  87.778  40.918
31278DA     SC2 3331  44.414  87.547  40.890
31278DA     SC3 3332  44.322  87.563  40.650
31278DA     SC4 3333  44.261  87.808  40.773
31279DT     BB1 3334  44.532  88.119  41.204
31279DT     BB2 3335  44.728  87.825  41.277
31279DT     BB3 3336  44.894  87.818  41.153
31279DT     SC1 3337  44.747  87.745  40.948
31279DT     SC2 3338  44.791  87.541  40.896
31279DT     SC3 3339  44.629  87.752  40.712
31280DA     BB1 3340  45.061  87.787  41.536
31280DA     BB2 3341  45.213  87.523  41.332
31280DA     BB3 3342  45.361  87.605  41.203
31280DA     SC1 3343  45.164  87.656  40.968
31280DA     SC2 3344  45.120  87.565  40.740
31280DA     SC3 3345  44.998  87.787  40.697
31280DA     SC4 3346  45.093  87.801  40.960
31281DA     BB1 3347  45.564  87.381  41.339
31281DA     BB2 3348  45.605  87.236  41.005
31281DA     BB3 3349  45.741  87.353  40.890
31281DA     SC1 3350  45.521  87.537  40.770
31281DA     SC2 3351  45.414  87.576  40.548
31281DA     SC3 3352  45.344  87.803  40.645
31281DA     SC4 3353  45.488  87.673  40.847
31282DA     BB1 3354  45.905  87.068  40.849
31282DA     BB2 3355  45.844  87.102  40.489
31282DA     BB3 3356  45.980  87.241  40.403
31282DA     SC1 3357  45.794  87.487  40.446
31282DA     SC2 3358  45.659  87.643  40.305
31282DA     SC3 3359  45.667  87.800  40.508
31282DA     SC4 3360  45.811  87.571  40.582
31283DT     BB1 3361  46.129  87.179  40.265
31283DT     BB2 3362  45.968  87.312  39.971
31283DT     BB3 3363  46.070  87.478  39.903
31283DT     SC1 3364  45.974  87.626  40.097
31283DT     SC2 3365  45.836  87.769  40.017
31283DT     SC3 3366  45.966  87.777  40.313
31284DA     BB1 3367  46.030  87.219  39.577
31284DA     BB2 3368  45.918  87.551  39.470
31284DA     BB3 3369  46.085  87.680  39.442
31284DA     SC1 3370  46.083  87.787  39.734
31284DA     SC2 3371  46.031  88.000  39.853
31284DA     SC3 3372  46.171  87.904  40.045
31284DA     SC4 3373  46.175  87.710  39.842
31285DT     BB1 3374  46.122  87.743  39.256
31285DT     BB2 3375  46.002  88.080  39.302
31285DT     BB3 3376  46.162  88.211  39.315
31285DT     SC1 3377  46.217  88.131  39.559
31285DT     SC2 3378  46.171  88.289  39.698
31285DT     SC3 3379  46.348  88.025  39.762
31286DC     BB1 3380  46.092  88.302  39.073
31286DC     BB2 3381  46.084  88.592  39.287
31286DC     BB3 3382  46.274  88.675  39.301
31286DC     SC1 3383  46.354  88.482  39.460
31286DC     SC2 3384  46.386  88.561  39.658
31286DC     SC3 3385  46.490  88.274  39.549
31287DT     BB1 3386  46.176  88.874  39.156
31287DT     BB2 3387  46.300  89.029  39.457
31287DT     BB3 3388  46.504  89.064  39.440
31287DT     SC1 3389  46.558  88.810  39.474
31287DT     SC2 3390  46.654  88.782  39.665
31287DT     SC3 3391  46.644  88.566  39.424
31288DA     BB1 3392  46.309  89.414  39.568
31288DA     BB2 3393  46.602  89.360  39.783
31288DA     BB3 3394  46.781  89.398  39.674
31288DA     SC1 3395  46.814  89.104  39.577
31288DA     SC2 3396  46.966  88.911  39.620
31288DA     SC3 3397  46.881  88.821  39.395
31288DA     SC4 3398  46.750  89.065  39.435
31289DA     BB1 3399  46.828  89.590  39.936
31289DA     BB2 3400  47.132  89.395  40.000
31289DA     BB3 3401  47.284  89.445  39.858
31289DA     SC1 3402  47.200  89.225  39.655
31289DA     SC2 3403  47.291  89.010  39.568
31289DA     SC3 3404  47.132  89.046  39.370
31289DA     SC4 3405  47.095  89.266  39.540
31290DG     BB1 3406  47.450  89.533  40.108
31290DG     BB2 3407  47.671  89.268  40.001
31290DG     BB3 3408  47.791  89.334  39.856
31290DG     SC1 3409  47.600  89.256  39.629
31290DG     SC2 3410  47.648  89.045  39.424
31290DG     SC3 3411  47.406  89.203  39.358
31290DG     SC4 3412  47.489  89.361  39.582
31291DC     BB1 3413  48.020  89.351  39.874
31291DC     BB2 3414  48.129  89.075  39.669
31291DC     BB3 3415  48.204  89.146  39.490
31291DC     SC1 3416  47.962  89.197  39.401
31291DC     SC2 3417  47.914  89.060  39.242
31291DC     SC3 3418  47.754  89.333  39.313
31292DT     BB1 3419  48.460  89.089  39.565
31292DT     BB2 3420  48.416  88.909  39.255
31292DT     BB3 3421  48.462  89.032  39.095
31292DT     SC1 3422  48.238  89.165  39.122
31292DT     SC2 3423  48.108  89.121  38.956
31292DT     SC3 3424  48.072  89.365  39.166
31293DA     BB1 3425  48.687  88.682  39.042
31293DA     BB2 3426  48.519  88.755  38.725
31293DA     BB3 3427  48.613  88.920  38.627
31293DA     SC1 3428  48.430  89.134  38.759
31293DA     SC2 3429  48.248  89.289  38.690
31293DA     SC3 3430  48.304  89.418  38.904
31293DA     SC4 3431  48.480  89.200  38.897
31294DT     BB1 3432  48.707  88.885  38.455
31294DT     BB2 3433  48.462  89.039  38.239
31294DT     BB3 3434  48.531  89.224  38.175
31294DT     SC1 3435  48.483  89.331  38.410
31294DT     SC2 3436  48.318  89.468  38.393
31294DT     SC3 3437  48.525  89.449  38.642
31295DA     BB1 3438  48.420  89.013  37.829
31295DA     BB2 3439  48.269  89.346  37.810
31295DA     BB3 3440  48.417  89.493  37.766
31295DA     SC1 3441  48.481  89.552  38.065
31295DA     SC2 3442  48.449  89.739  38.227
31295DA     SC3 3443  48.636  89.627  38.362
31295DA     SC4 3444  48.600  89.469  38.134
31296DG     BB1 3445  48.257  89.557  37.503
31296DG     BB2 3446  48.212  89.880  37.658
31296DG     BB3 3447  48.369  89.996  37.621
31296DG     SC1 3448  48.524  89.906  37.870
31296DG     SC2 3449  48.591  90.077  38.106
31296DG     SC3 3450  48.729  89.816  38.122
31296DG     SC4 3451  48.619  89.778  37.860
31297DA     BB1 3452  48.163  90.251  37.493
31297DA     BB2 3453  48.280  90.482  37.752
31297DA     BB3 3454  48.471  90.561  37.700
31297DA     SC1 3455  48.631  90.337  37.844
31297DA     SC2 3456  48.777  90.314  38.046
31297DA     SC3 3457  48.864  90.100  37.933
31297DA     SC4 3458  48.674  90.208  37.758
31298DC     BB1 3459  48.514  90.778  37.645
31298DC     BB2 3460  48.671  90.866  37.958
31298DC     BB3 3461  48.873  90.898  37.928
31298DC     SC1 3462  48.920  90.641  37.906
31298DC     SC2 3463  49.030  90.573  38.077
31298DC     SC3 3464  48.990  90.409  37.800
31299DA     BB1 3465  48.741  91.249  38.116
31299DA     BB2 3466  49.030  91.125  38.305
31299DA     BB3 3467  49.211  91.170  38.201
31299DA     SC1 3468  49.215  90.903  38.043
31299DA     SC2 3469  49.350  90.693  38.038
31299DA     SC3 3470  49.254  90.661  37.802
31299DA     SC4 3471  49.146  90.901  37.898
31300DG     BB1 3472  49.272  91.329  38.458
31300DG     BB2 3473  49.525  91.073  38.497
31300DG     BB3 3474  49.687  91.121  38.392
31300DG     SC1 3475  49.593  90.980  38.137
31300DG     SC2 3476  49.718  90.738  38.014
31300DG     SC3 3477  49.513  90.853  37.835
31300DG     SC4 3478  49.504  91.061  38.032
31301DG     BB1 3479  49.829  91.093  38.679
31301DG     BB2 3480  50.010  90.818  38.529
31301DG     BB3 3481  50.160  90.887  38.419
31301DG     SC1 3482  49.995  90.909  38.162
31301DG     SC2 3483  50.034  90.746  37.915
31301DG     SC3 3484  49.839  90.964  37.868
31301DG     SC4 3485  49.915  91.044  38.133
31302DT     BB1 3486  50.332  90.818  38.483
31302DT     BB2 3487  50.419  90.579  38.228
31302DT     BB3 3488  50.545  90.666  38.089
31302DT     SC1 3489  50.347  90.802  37.983
31302DT     SC2 3490  50.306  90.724  37.786
31302DT     SC3 3491  50.200  91.006  37.906
31303DT     BB1 3492  50.723  90.505  38.195
31303DT     BB2 3493  50.721  90.426  37.843
31303DT     BB3 3494  50.837  90.563  37.739
31303DT     SC1 3495  50.653  90.749  37.763
31303DT     SC2 3496  50.566  90.788  37.570
31303DT     SC3 3497  50.535  90.974  37.834
31304DT     BB1 3498  51.016  90.367  37.704
31304DT     BB2 3499  50.940  90.484  37.371
31304DT     BB3 3500  51.057  90.649  37.326
31304DT     SC1 3501  50.912  90.804  37.480
31304DT     SC2 3502  50.800  90.941  37.358
31304DT     SC3 3503  50.845  90.964  37.678
31305DA     BB1 3504  51.116  90.379  37.009
31305DA     BB2 3505  51.045  90.708  36.863
31305DA     BB3 3506  51.213  90.837  36.885
31305DA     SC1 3507  51.121  90.952  37.159
31305DA     SC2 3508  51.036  91.168  37.249
31305DA     SC3 3509  51.108  91.078  37.478
31305DA     SC4 3510  51.174  90.879  37.292
31306DA     BB1 3511  51.192  90.875  36.557
31306DA     BB2 3512  51.131  91.231  36.617
31306DA     BB3 3513  51.314  91.331  36.660
31306DA     SC1 3514  51.294  91.288  36.968
31306DA     SC2 3515  51.255  91.427  37.172
31306DA     SC3 3516  51.362  91.232  37.300
31306DA     SC4 3517  51.365  91.157  37.029
31307DG     BB1 3518  51.252  91.501  36.406
31307DG     BB2 3519  51.224  91.769  36.647
31307DG     BB3 3520  51.404  91.844  36.687
31307DG     SC1 3521  51.460  91.651  36.918
31307DG     SC2 3522  51.487  91.727  37.206
31307DG     SC3 3523  51.563  91.444  37.163
31307DG     SC4 3524  51.529  91.510  36.887
31308DT     BB1 3525  51.441  92.049  36.641
31308DT     BB2 3526  51.433  92.197  36.970
31308DT     BB3 3527  51.625  92.234  37.035
31308DT     SC1 3528  51.667  91.980  37.083
31308DT     SC2 3529  51.680  91.948  37.295
31308DT     SC3 3530  51.771  91.738  37.066
31309DA     BB1 3531  51.370  92.564  37.083
31309DA     BB2 3532  51.550  92.508  37.398
31309DA     BB3 3533  51.756  92.556  37.375
31309DA     SC1 3534  51.839  92.268  37.290
31309DA     SC2 3535  51.969  92.078  37.386
31309DA     SC3 3536  51.988  91.996  37.143
31309DA     SC4 3537  51.841  92.235  37.133
31310DC     BB1 3538  51.786  92.687  37.484
31310DC     BB2 3539  51.983  92.507  37.727
31310DC     BB3 3540  52.184  92.526  37.682
31310DC     SC1 3541  52.164  92.358  37.482
31310DC     SC2 3542  52.267  92.175  37.531
31310DC     SC3 3543  52.167  92.264  37.236
31311DT     BB1 3544  52.193  92.678  37.898
31311DT     BB2 3545  52.443  92.424  37.953
31311DT     BB3 3546  52.619  92.475  37.856
31311DT     SC1 3547  52.517  92.413  37.622
31311DT     SC2 3548  52.614  92.236  37.547
31311DT     SC3 3549  52.429  92.440  37.375
31312DT     BB1 3550  52.727  92.526  38.096
31312DT     BB2 3551  52.953  92.291  37.943
31312DT     BB3 3552  53.088  92.390  37.822
31312DT     SC1 3553  52.905  92.429  37.638
31312DT     SC2 3554  52.951  92.309  37.465
31312DT     SC3 3555  52.738  92.554  37.475
31313DA     BB1 3556  53.324  92.154  38.077
31313DA     BB2 3557  53.448  92.106  37.735
31313DA     BB3 3558  53.556  92.278  37.670
31313DA     SC1 3559  53.306  92.418  37.547
31313DA     SC2 3560  53.221  92.475  37.320
31313DA     SC3 3561  53.073  92.646  37.442
31313DA     SC4 3562  53.224  92.519  37.641
31314DG     BB1 3563  53.811  92.095  37.640
31314DG     BB2 3564  53.783  92.182  37.290
31314DG     BB3 3565  53.873  92.356  37.256
31314DG     SC1 3566  53.623  92.524  37.310
31314DG     SC2 3567  53.473  92.686  37.109
31314DG     SC3 3568  53.374  92.740  37.383
31314DG     SC4 3569  53.593  92.572  37.460
31315DT     BB1 3570  54.062  92.387  37.119
31315DT     BB2 3571  53.915  92.544  36.829
31315DT     BB3 3572  53.964  92.745  36.826
31315DT     SC1 3573  53.793  92.798  37.018
31315DT     SC2 3574  53.629  92.912  36.938
31315DT     SC3 3575  53.699  92.873  37.252
31316DA     BB1 3576  54.088  92.609  36.447
31316DA     BB2 3577  53.889  92.913  36.394
31316DA     BB3 3578  54.003  93.086  36.445
31316DA     SC1 3579  53.908  93.090  36.741
31316DA     SC2 3580  53.762  93.232  36.887
31316DA     SC3 3581  53.888  93.123  37.083
31316DA     SC4 3582  53.998  93.012  36.850
31317DA     BB1 3583  53.943  93.201  36.137
31317DA     BB2 3584  53.767  93.483  36.291
31317DA     BB3 3585  53.906  93.630  36.359
31317DA     SC1 3586  53.934  93.507  36.644
31317DA     SC2 3587  53.870  93.567  36.877
31317DA     SC3 3588  54.051  93.400  36.948
31317DA     SC4 3589  54.052  93.401  36.667
31318DA     BB1 3590  53.745  93.856  36.172
31318DA     BB2 3591  53.664  94.034  36.482
31318DA     BB3 3592  53.829  94.154  36.544
31318DA     SC1 3593  53.955  93.931  36.720
31318DA     SC2 3594  53.991  93.885  36.963
31318DA     SC3 3595  54.173  93.721  36.884
31318DA     SC4 3596  54.065  93.835  36.652
31319DG     BB1 3597  53.656  94.421  36.513
31319DG     BB2 3598  53.692  94.437  36.872
31319DG     BB3 3599  53.858  94.536  36.920
31319DG     SC1 3600  54.036  94.287  36.920
31319DG     SC2 3601  54.170  94.168  37.159
31319DG     SC3 3602  54.264  94.039  36.910
31319DG     SC4 3603  54.106  94.241  36.783
31320DT     BB1 3604  53.868  94.744  37.040
31320DT     BB2 3605  53.966  94.620  37.364
31320DT     BB3 3606  54.162  94.674  37.404
31320DT     SC1 3607  54.254  94.494  37.238
31320DT     SC2 3608  54.353  94.338  37.349
31320DT     SC3 3609  54.377  94.388  37.030
31321DG     BB1 3610  53.930  94.825  37.702
31321DG     BB2 3611  54.195  94.618  37.833
31321DG     BB3 3612  54.366  94.720  37.838
31321DG     SC1 3613  54.451  94.638  37.555
31321DG     SC2 3614  54.684  94.465  37.486
31321DG     SC3 3615  54.566  94.585  37.243
31321DG     SC4 3616  54.404  94.727  37.431
31322DA     BB1 3617  54.360  94.599  38.156
31322DA     BB2 3618  54.678  94.427  38.091
31322DA     BB3 3619  54.838  94.568  38.084
31322DA     SC1 3620  54.815  94.617  37.778
31322DA     SC2 3621  54.947  94.566  37.572
31322DA     SC3 3622  54.812  94.755  37.463
31322DA     SC4 3623  54.721  94.738  37.728
31323DA     BB1 3624  54.925  94.332  38.289
31323DA     BB2 3625  55.210  94.279  38.065
31323DA     BB3 3626  55.345  94.444  38.077
31323DA     SC1 3627  55.210  94.604  37.847
31323DA     SC2 3628  55.263  94.672  37.613
31323DA     SC3 3629  55.083  94.851  37.646
31323DA     SC4 3630  55.096  94.710  37.888
31324DT     BB1 3631  55.501  94.385  38.142
31324DT     BB2 3632  55.693  94.408  37.837
31324DT     BB3 3633  55.798  94.587  37.833
31324DT     SC1 3634  55.580  94.723  37.780
31324DT     SC2 3635  55.590  94.797  37.578
31324DT     SC3 3636  55.382  94.895  37.807
31325DA     BB1 3637  56.060  94.270  37.748
31325DA     BB2 3638  56.118  94.536  37.502
31325DA     BB3 3639  56.215  94.702  37.594
31325DA     SC1 3640  55.949  94.846  37.669
31325DA     SC2 3641  55.824  95.050  37.599
31325DA     SC3 3642  55.704  95.029  37.825
31325DA     SC4 3643  55.887  94.816  37.814
31326DC     BB1 3644  56.402  94.745  37.539
31326DC     BB2 3645  56.330  95.045  37.352
31326DC     BB3 3646  56.383  95.211  37.463
31326DC     SC1 3647  56.174  95.184  37.619
31326DC     SC2 3648  56.035  95.344  37.581
31326DC     SC3 3649  56.030  95.143  37.836
31327DG     BB1 3650  56.609  95.245  37.124
31327DG     BB2 3651  56.431  95.553  37.190
31327DG     BB3 3652  56.526  95.658  37.330
31327DG     SC1 3653  56.377  95.529  37.564
31327DG     SC2 3654  56.185  95.666  37.747
31327DG     SC3 3655  56.247  95.394  37.845
31327DG     SC4 3656  56.435  95.395  37.629
31328DA     BB1 3657  56.534  95.942  37.122
31328DA     BB2 3658  56.344  96.134  37.369
31328DA     BB3 3659  56.472  96.202  37.526
31328DA     SC1 3660  56.427  95.951  37.704
31328DA     SC2 3661  56.314  95.895  37.919
31328DA     SC3 3662  56.464  95.687  37.921
31328DA     SC4 3663  56.530  95.828  37.688
31329DT     BB1 3664  56.523  96.413  37.559
31329DT     BB2 3665  56.316  96.459  37.851
31329DT     BB3 3666  56.436  96.478  38.020
31329DT     SC1 3667  56.488  96.221  38.021
31329DT     SC2 3668  56.392  96.130  38.190
31329DT     SC3 3669  56.625  95.996  38.009
31330DC     BB1 3670  56.386  96.750  38.041
31330DC     BB2 3671  56.282  96.616  38.360
31330DC     BB3 3672  56.442  96.613  38.491
31330DC     SC1 3673  56.550  96.407  38.369
31330DC     SC2 3674  56.537  96.234  38.496
31330DC     SC3 3675  56.722  96.262  38.231
31331DT     BB1 3676  56.335  96.820  38.634
31331DT     BB2 3677  56.374  96.554  38.875
31331DT     BB3 3678  56.564  96.561  38.958
31331DT     SC1 3679  56.671  96.463  38.739
31331DT     SC2 3680  56.741  96.263  38.777
31331DT     SC3 3681  56.818  96.446  38.521
31332DT     BB1 3682  56.461  96.651  39.193
31332DT     BB2 3683  56.636  96.348  39.280
31332DT     BB3 3684  56.835  96.389  39.319
31332DT     SC1 3685  56.887  96.420  39.063
31332DT     SC2 3686  57.011  96.258  38.995
31332DT     SC3 3687  56.956  96.535  38.836
31333DG     BB1 3688  56.675  96.209  39.647
31333DG     BB2 3689  56.972  96.038  39.531
31333DG     BB3 3690  57.134  96.139  39.587
31333DG     SC1 3691  57.144  96.311  39.334
31333DG     SC2 3692  57.356  96.302  39.124
31333DG     SC3 3693  57.173  96.531  39.080
31333DG     SC4 3694  57.063  96.449  39.331
31334DA     BB1 3695  57.230  95.831  39.706
31334DA     BB2 3696  57.523  95.842  39.486
31334DA     BB3 3697  57.668  95.979  39.563
31334DA     SC1 3698  57.557  96.223  39.405
31334DA     SC2 3699  57.627  96.368  39.215
31334DA     SC3 3700  57.458  96.537  39.307
31334DA     SC4 3701  57.448  96.315  39.479
31335DA     BB1 3702  57.826  95.699  39.509
31335DA     BB2 3703  58.034  95.893  39.276
31335DA     BB3 3704  58.158  96.029  39.384
31335DA     SC1 3705  57.952  96.262  39.375
31335DA     SC2 3706  57.930  96.484  39.265
31335DA     SC3 3707  57.759  96.536  39.449
31335DA     SC4 3708  57.850  96.276  39.499
31336DC     BB1 3709  58.322  95.981  39.351
31336DC     BB2 3710  58.410  96.256  39.135
31336DC     BB3 3711  58.501  96.406  39.245
31336DC     SC1 3712  58.271  96.480  39.350
31336DC     SC2 3713  58.216  96.672  39.272
31336DC     SC3 3714  58.084  96.527  39.530
31337DT     BB1 3715  58.703  96.328  39.105
31337DT     BB2 3716  58.670  96.681  39.039
31337DT     BB3 3717  58.749  96.790  39.197
31337DT     SC1 3718  58.542  96.735  39.349
31337DT     SC2 3719  58.427  96.914  39.380
31337DT     SC3 3720  58.400  96.639  39.549
31338DG     BB1 3721  58.924  96.901  38.845
31338DG     BB2 3722  58.810  97.187  39.036
31338DG     BB3 3723  58.931  97.218  39.191
31338DG     SC1 3724  58.773  97.037  39.381
31338DG     SC2 3725  58.620  97.127  39.621
31338DG     SC3 3726  58.635  96.831  39.610
31338DG     SC4 3727  58.808  96.881  39.387
31339DT     BB1 3728  59.051  97.402  39.210
31339DT     BB2 3729  58.887  97.575  39.481
31339DT     BB3 3730  58.994  97.550  39.656
31339DT     SC1 3731  58.910  97.302  39.681
31339DT     SC2 3732  58.775  97.289  39.848
31339DT     SC3 3733  58.914  97.039  39.696
31340DA     BB1 3734  58.975  97.972  39.638
31340DA     BB2 3735  58.885  97.876  39.980
31340DA     BB3 3736  59.059  97.821  40.090
31340DA     SC1 3737  59.041  97.520  40.014
31340DA     SC2 3738  58.990  97.303  40.127
31340DA     SC3 3739  59.113  97.195  39.929
31340DA     SC4 3740  59.122  97.471  39.883
31341DG     BB1 3741  59.045  98.061  40.317
31341DG     BB2 3742  58.992  97.790  40.551
31341DG     BB3 3743  59.167  97.729  40.624
31341DG     SC1 3744  59.215  97.521  40.405
31341DG     SC2 3745  59.219  97.224  40.442
31341DG     SC3 3746  59.309  97.298  40.170
31341DG     SC4 3747  59.290  97.565  40.271
31342DA     BB1 3748  59.078  97.770  40.968
31342DA     BB2 3749  59.114  97.410  41.027
31342DA     BB3 3750  59.318  97.362  41.067
31342DA     SC1 3751  59.388  97.307  40.768
31342DA     SC2 3752  59.445  97.112  40.625
31342DA     SC3 3753  59.545  97.285  40.464
31342DA     SC4 3754  59.446  97.430  40.682
31343DA     BB1 3755  59.199  97.227  41.342
31343DA     BB2 3756  59.313  96.904  41.213
31343DA     BB3 3757  59.523  96.882  41.244
31343DA     SC1 3758  59.603  97.006  40.971
31343DA     SC2 3759  59.701  96.929  40.755
31343DA     SC3 3760  59.760  97.176  40.717
31343DA     SC4 3761  59.632  97.164  40.966
31344DT     BB1 3762  59.572  96.738  41.365
31344DT     BB2 3763  59.684  96.509  41.110
31344DT     BB3 3764  59.891  96.504  41.105
31344DT     SC1 3765  59.901  96.738  40.987
31344DT     SC2 3766  59.969  96.713  40.784
31344DT     SC3 3767  59.953  96.993  40.946
31345DT     BB1 3768  59.854  96.263  41.199
31345DT     BB2 3769  60.036  96.221  40.890
31345DT     BB3 3770  60.237  96.254  40.922
31345DT     SC1 3771  60.200  96.514  40.937
31345DT     SC2 3772  60.286  96.609  40.764
31345DT     SC3 3773  60.192  96.758  41.036
31346DA     BB1 3774  60.165  95.899  40.709
31346DA     BB2 3775  60.428  96.087  40.537
31346DA     BB3 3776  60.606  96.090  40.654
31346DA     SC1 3777  60.533  96.352  40.804
31346DA     SC2 3778  60.612  96.588  40.812
31346DA     SC3 3779  60.494  96.599  41.040
31346DA     SC4 3780  60.455  96.338  40.944
31347DG     BB1 3781  60.708  95.958  40.393
31347DG     BB2 3782  60.917  96.253  40.383
31347DG     BB3 3783  61.067  96.234  40.512
31347DG     SC1 3784  60.915  96.359  40.746
31347DG     SC2 3785  60.978  96.619  40.878
31347DG     SC3 3786  60.771  96.472  41.029
31347DG     SC4 3787  60.826  96.265  40.840
31348DA     BB1 3788  61.285  96.312  40.250
31348DA     BB2 3789  61.414  96.598  40.440
31348DA     BB3 3790  61.545  96.531  40.594
31348DA     SC1 3791  61.320  96.507  40.808
31348DA     SC2 3792  61.250  96.623  41.017
31348DA     SC3 3793  61.121  96.408  41.070
31348DA     SC4 3794  61.248  96.364  40.823
31349DA     BB1 3795  61.776  96.735  40.464
31349DA     BB2 3796  61.778  96.915  40.784
31349DA     BB3 3797  61.893  96.808  40.928
31349DA     SC1 3798  61.651  96.644  41.035
31349DA     SC2 3799  61.514  96.632  41.243
31349DA     SC3 3800  61.448  96.398  41.162
31349DA     SC4 3801  61.623  96.500  40.969
31350DC     BB1 3802  62.088  96.877  41.013
31350DC     BB2 3803  61.956  96.974  41.335
31350DC     BB3 3804  62.022  96.843  41.481
31350DC     SC1 3805  61.856  96.657  41.399
31350DC     SC2 3806  61.702  96.628  41.547
31350DC     SC3 3807  61.769  96.428  41.301
31351DT     BB1 3808  62.204  97.024  41.595
31351DT     BB2 3809  61.984  96.936  41.867
31351DT     BB3 3810  62.059  96.772  41.969
31351DT     SC1 3811  61.987  96.610  41.776
31351DT     SC2 3812  61.825  96.485  41.845
31351DT     SC3 3813  62.004  96.435  41.579
31352DG     BB1 3814  62.023  97.074  42.241
31352DG     BB2 3815  61.847  96.777  42.349
31352DG     BB3 3816  61.976  96.645  42.424
31352DG     SC1 3817  62.030  96.507  42.156
31352DG     SC2 3818  61.954  96.228  42.084
31352DG     SC3 3819  62.128  96.346  41.876
31352DG     SC4 3820  62.147  96.564  42.062
31353DA     BB1 3821  61.756  96.644  42.687
31353DA     BB2 3822  61.701  96.285  42.636
31353DA     BB3 3823  61.869  96.174  42.705
31353DA     SC1 3824  62.016  96.179  42.431
31353DA     SC2 3825  62.075  96.017  42.250
31353DA     SC3 3826  62.251  96.190  42.181
31353DA     SC4 3827  62.120  96.298  42.404
31354DA     BB1 3828  61.617  96.032  42.856
31354DA     BB2 3829  61.715  95.726  42.680
31354DA     BB3 3830  61.896  95.647  42.763
31354DA     SC1 3831  62.081  95.804  42.569
31354DA     SC2 3832  62.233  95.753  42.377
31354DA     SC3 3833  62.340  95.981  42.428
31354DA     SC4 3834  62.135  95.948  42.617
31355DT     BB1 3835  61.875  95.478  42.847
31355DT     BB2 3836  62.039  95.281  42.593
31355DT     BB3 3837  62.232  95.236  42.652
31355DT     SC1 3838  62.313  95.480  42.603
31355DT     SC2 3839  62.443  95.479  42.432
31355DT     SC3 3840  62.408  95.723  42.643
31356DA     BB1 3841  62.040  94.881  42.535
31356DA     BB2 3842  62.367  94.895  42.369
31356DA     BB3 3843  62.523  94.862  42.510
31356DA     SC1 3844  62.558  95.164  42.578
31356DA     SC2 3845  62.728  95.343  42.541
31356DA     SC3 3846  62.613  95.463  42.737
31356DA     SC4 3847  62.475  95.222  42.702
31357DA     BB1 3848  62.603  94.633  42.289
31357DA     BB2 3849  62.921  94.812  42.247
31357DA     BB3 3850  63.049  94.775  42.414
31357DA     SC1 3851  62.946  95.020  42.577
31357DA     SC2 3852  63.033  95.241  42.652
31357DA     SC3 3853  62.846  95.233  42.827
31357DA     SC4 3854  62.825  94.995  42.680
31358DC     BB1 3855  63.215  94.675  42.378
31358DC     BB2 3856  63.440  94.955  42.403
31358DC     BB3 3857  63.540  94.951  42.584
31358DC     SC1 3858  63.326  95.031  42.713
31358DC     SC2 3859  63.358  95.232  42.785
31358DC     SC3 3860  63.122  95.030  42.879
31359DT     BB1 3861  63.758  94.887  42.445
31359DT     BB2 3862  63.845  95.189  42.623
31359DT     BB3 3863  63.907  95.142  42.815
31359DT     SC1 3864  63.661  95.093  42.891
31359DT     SC2 3865  63.597  95.246  43.028
31359DT     SC3 3866  63.449  94.962  42.979
31360DA     BB1 3867  64.176  95.402  42.623
31360DA     BB2 3868  64.101  95.536  42.956
31360DA     BB3 3869  64.188  95.412  43.107
31360DA     SC1 3870  63.937  95.231  43.137
31360DA     SC2 3871  63.759  95.188  43.306
31360DA     SC3 3872  63.723  94.966  43.183
31360DA     SC4 3873  63.931  95.097  43.047
31361DT     BB1 3874  64.326  95.497  43.208
31361DT     BB2 3875  64.141  95.538  43.515
31361DT     BB3 3876  64.196  95.393  43.651
31361DT     SC1 3877  64.062  95.208  43.522
31361DT     SC2 3878  63.891  95.149  43.639
31361DT     SC3 3879  64.011  94.991  43.382
31362DA     BB1 3880  64.220  95.766  43.840
31362DA     BB2 3881  64.040  95.538  44.064
31362DA     BB3 3882  64.175  95.396  44.148
31362DA     SC1 3883  64.135  95.186  43.922
31362DA     SC2 3884  64.030  94.962  43.894
31362DA     SC3 3885  64.179  94.940  43.687
31362DA     SC4 3886  64.237  95.191  43.797
31363DC     BB1 3887  64.210  95.404  44.346
31363DC     BB2 3888  64.025  95.108  44.438
31363DC     BB3 3889  64.156  94.952  44.479
31363DC     SC1 3890  64.206  94.917  44.224
31363DC     SC2 3891  64.121  94.731  44.159
31363DC     SC3 3892  64.340  94.907  43.996
31364DA     BB1 3893  63.904  94.978  44.813
31364DA     BB2 3894  63.921  94.625  44.715
31364DA     BB3 3895  64.110  94.542  44.771
31364DA     SC1 3896  64.247  94.611  44.501
31364DA     SC2 3897  64.334  94.490  44.301
31364DA     SC3 3898  64.471  94.702  44.257
31364DA     SC4 3899  64.325  94.752  44.491
31365DT     BB1 3900  64.125  94.394  44.921
31365DT     BB2 3901  64.193  94.115  44.702
31365DT     BB3 3902  64.392  94.059  44.719
31365DT     SC1 3903  64.470  94.267  44.580
31365DT     SC2 3904  64.544  94.202  44.389
31365DT     SC3 3905  64.588  94.495  44.520
31366DT     BB1 3906  64.334  93.828  44.864
31366DT     BB2 3907  64.524  93.707  44.582
31366DT     BB3 3908  64.726  93.708  44.628
31366DT     SC1 3909  64.740  93.969  44.604
31366DT     SC2 3910  64.854  94.019  44.430
31366DT     SC3 3911  64.773  94.222  44.669
31367DA     BB1 3912  64.654  93.314  44.499
31367DA     BB2 3913  64.951  93.434  44.320
31367DA     BB3 3914  65.121  93.433  44.449
31367DA     SC1 3915  65.078  93.725  44.548
31367DA     SC2 3916  65.189  93.946  44.523
31367DA     SC3 3917  65.061  94.012  44.735
31367DA     SC4 3918  64.991  93.746  44.682
31368DT     BB1 3919  65.290  93.299  44.422
31368DT     BB2 3920  65.520  93.546  44.295
31368DT     BB3 3921  65.665  93.587  44.436
31368DT     SC1 3922  65.496  93.727  44.580
31368DT     SC2 3923  65.550  93.935  44.572
31368DT     SC3 3924  65.345  93.801  44.783
31369DT     BB1 3925  65.871  93.448  44.303
31369DT     BB2 3926  66.003  93.781  44.341
31369DT     BB3 3927  66.109  93.796  44.518
31369DT     SC1 3928  65.888  93.800  44.659
31369DT     SC2 3929  65.862  93.996  44.744
31369DT     SC3 3930  65.702  93.728  44.831
31370DA     BB1 3931  66.375  93.930  44.223
31370DA     BB2 3932  66.371  94.181  44.490
31370DA     BB3 3933  66.484  94.112  44.658
31370DA     SC1 3934  66.240  93.978  44.797
31370DA     SC2 3935  66.099  94.016  44.999
31370DA     SC3 3936  66.034  93.769  44.975
31370DA     SC4 3937  66.213  93.823  44.766
31371DA     BB1 3938  66.634  94.400  44.611
31371DA     BB2 3939  66.516  94.493  44.946
31371DA     BB3 3940  66.634  94.397  45.095
31371DA     SC1 3941  66.450  94.146  45.114
31371DA     SC2 3942  66.292  94.045  45.277
31371DA     SC3 3943  66.327  93.828  45.147
31371DA     SC4 3944  66.486  94.020  45.020
31372DA     BB1 3945  66.658  94.708  45.191
31372DA     BB2 3946  66.495  94.603  45.502
31372DA     BB3 3947  66.632  94.493  45.624
31372DA     SC1 3948  66.555  94.216  45.504
31372DA     SC2 3949  66.437  94.010  45.578
31372DA     SC3 3950  66.560  93.895  45.383
31372DA     SC4 3951  66.642  94.163  45.379
31373DA     BB1 3952  66.528  94.721  45.834
31373DA     BB2 3953  66.401  94.444  46.038
31373DA     BB3 3954  66.563  94.342  46.133
31373DA     SC1 3955  66.602  94.138  45.901
31373DA     SC2 3956  66.567  93.894  45.862
31373DA     SC3 3957  66.734  93.922  45.669
31373DA     SC4 3958  66.709  94.175  45.787
31374DT     BB1 3959  66.571  94.352  46.330
31374DT     BB2 3960  66.460  94.015  46.395
31374DT     BB3 3961  66.621  93.897  46.448
31374DT     SC1 3962  66.707  93.888  46.200
31374DT     SC2 3963  66.681  93.689  46.123
31374DT     SC3 3964  66.862  93.922  45.990
31375DA     BB1 3965  66.321  93.849  46.737
31375DA     BB2 3966  66.432  93.516  46.632
31375DA     BB3 3967  66.626  93.474  46.710
31375DA     SC1 3968  66.777  93.589  46.464
31375DA     SC2 3969  66.915  93.503  46.275
31375DA     SC3 3970  67.004  93.743  46.256
31375DA     SC4 3971  66.821  93.744  46.469
31376DT     BB1 3972  66.633  93.330  46.837
31376DT     BB2 3973  66.786  93.088  46.618
31376DT     BB3 3974  66.987  93.070  46.662
31376DT     SC1 3975  67.041  93.300  46.548
31376DT     SC2 3976  67.153  93.265  46.367
31376DT     SC3 3977  67.118  93.550  46.518
31377DG     BB1 3978  66.802  92.708  46.682
31377DG     BB2 3979  67.091  92.700  46.465
31377DG     BB3 3980  67.257  92.699  46.573
31377DG     SC1 3981  67.282  93.003  46.583
31377DG     SC2 3982  67.497  93.166  46.455
31377DG     SC3 3983  67.330  93.334  46.632
31377DG     SC4 3984  67.210  93.083  46.701
31378DT     BB1 3985  67.370  92.537  46.540
31378DT     BB2 3986  67.644  92.673  46.349
31378DT     BB3 3987  67.804  92.713  46.474
31378DT     SC1 3988  67.685  92.926  46.571
31378DT     SC2 3989  67.788  93.102  46.504
31378DT     SC3 3990  67.570  93.089  46.743
31379DT     BB1 3991  67.909  92.514  46.343
31379DT     BB2 3992  68.137  92.790  46.298
31379DT     BB3 3993  68.256  92.812  46.466
31379DT     SC1 3994  68.058  92.916  46.603
31379DT     SC2 3995  68.098  93.124  46.639
31379DT     SC3 3996  67.873  92.946  46.789
31380DA     BB1 3997  68.489  92.812  46.115
31380DA     BB2 3998  68.600  93.088  46.329
31380DA     BB3 3999  68.697  93.012  46.503
31380DA     SC1 4000  68.437  93.001  46.673
31380DA     SC2 4001  68.338  93.121  46.868
31380DA     SC3 4002  68.189  92.914  46.894
31380DA     SC4 4003  68.354  92.863  46.673
31381DT     BB1 4004  68.898  93.043  46.529
31381DT     BB2 4005  68.878  93.283  46.798
31381DT     BB3 4006  68.927  93.192  46.977
31381DT     SC1 4007  68.696  93.069  46.987
31381DT     SC2 4008  68.577  93.152  47.146
31381DT     SC3 4009  68.519  92.873  46.991
31382DT     BB1 4010  69.185  93.306  47.001
31382DT     BB2 4011  69.029  93.392  47.314
31382DT     BB3 4012  69.067  93.244  47.455
31382DT     SC1 4013  68.894  93.082  47.342
31382DT     SC2 4014  68.724  93.058  47.471
31382DT     SC3 4015  68.798  92.871  47.216
31383DT     BB1 4016  69.268  93.381  47.612
31383DT     BB2 4017  69.020  93.290  47.858
31383DT     BB3 4018  69.069  93.108  47.943
31383DT     SC1 4019  68.994  92.978  47.728
31383DT     SC2 4020  68.815  92.866  47.770
31383DT     SC3 4021  69.007  92.826  47.512
31384DT     BB1 4022  69.168  93.200  48.202
31384DT     BB2 4023  68.906  92.969  48.291
31384DT     BB3 4024  68.985  92.781  48.325
31384DT     SC1 4025  69.020  92.740  48.068
31384DT     SC2 4026  68.883  92.589  48.000
31384DT     SC3 4027  69.141  92.697  47.837
31385DA     BB1 4028  68.771  92.861  48.675
31385DA     BB2 4029  68.662  92.533  48.554
31385DA     BB3 4030  68.808  92.385  48.601
31385DA     SC1 4031  68.964  92.418  48.334
31385DA     SC2 4032  69.004  92.287  48.126
31385DA     SC3 4033  69.208  92.439  48.093
31385DA     SC4 4034  69.087  92.522  48.332
31386DT     BB1 4035  68.757  92.237  48.733
31386DT     BB2 4036  68.711  91.980  48.485
31386DT     BB3 4037  68.868  91.845  48.493
31386DT     SC1 4038  69.031  92.015  48.377
31386DT     SC2 4039  69.077  91.945  48.179
31386DT     SC3 4040  69.235  92.178  48.340
31387DA     BB1 4041  68.497  91.652  48.496
31387DA     BB2 4042  68.707  91.497  48.238
31387DA     BB3 4043  68.862  91.382  48.328
31387DA     SC1 4044  69.066  91.617  48.335
31387DA     SC2 4045  69.278  91.681  48.221
31387DA     SC3 4046  69.315  91.837  48.421
31387DA     SC4 4047  69.071  91.707  48.468
31388DC     BB1 4048  68.834  91.218  48.279
31388DC     BB2 4049  69.108  91.191  48.046
31388DC     BB3 4050  69.272  91.107  48.140
31388DC     SC1 4051  69.322  91.330  48.269
31388DC     SC2 4052  69.503  91.418  48.193
31388DC     SC3 4053  69.354  91.499  48.469
31389DC     BB1 4054  69.212  90.915  47.977
31389DC     BB2 4055  69.556  90.998  47.906
31389DC     BB3 4056  69.680  90.912  48.047
31389DC     SC1 4057  69.610  91.089  48.228
31389DC     SC2 4058  69.776  91.220  48.269
31389DC     SC3 4059  69.507  91.191  48.448
31390DA     BB1 4060  69.822  90.832  47.659
31390DA     BB2 4061  70.106  90.935  47.866
31390DA     BB3 4062  70.150  90.785  48.012
31390DA     SC1 4063  69.962  90.906  48.229
31390DA     SC2 4064  69.985  91.022  48.448
31390DA     SC3 4065  69.742  90.952  48.488
31390DA     SC4 4066  69.811  90.852  48.235
31391DC     BB1 4067  70.324  90.680  47.999
31391DC     BB2 4068  70.491  90.825  48.284
31391DC     BB3 4069  70.489  90.692  48.443
31391DC     SC1 4070  70.235  90.740  48.489
31391DC     SC2 4071  70.215  90.847  48.674
31391DC     SC3 4072  69.975  90.700  48.513
31392DA     BB1 4073  70.900  90.777  48.406
31392DA     BB2 4074  70.815  90.807  48.761
31392DA     BB3 4075  70.792  90.614  48.849
31392DA     SC1 4076  70.487  90.596  48.790
31392DA     SC2 4077  70.274  90.599  48.919
31392DA     SC3 4078  70.171  90.488  48.711
31392DA     SC4 4079  70.442  90.526  48.652
31393DA     BB1 4080  71.024  90.694  49.078
31393DA     BB2 4081  70.767  90.651  49.336
31393DA     BB3 4082  70.743  90.445  49.384
31393DA     SC1 4083  70.521  90.395  49.172
31393DA     SC2 4084  70.277  90.347  49.168
31393DA     SC3 4085  70.318  90.260  48.930
31393DA     SC4 4086  70.568  90.345  49.026
31394DT     BB1 4087  70.799  90.354  49.580
31394DT     BB2 4088  70.461  90.319  49.703
31394DT     BB3 4089  70.408  90.119  49.709
31394DT     SC1 4090  70.380  90.111  49.448
31394DT     SC2 4091  70.172  90.088  49.399
31394DT     SC3 4092  70.420  90.044  49.196
31395DT     BB1 4093  70.423  90.110  49.984
31395DT     BB2 4094  70.085  90.008  49.909
31395DT     BB3 4095  70.078  89.803  49.882
31395DT     SC1 4096  70.190  89.822  49.646
31395DT     SC2 4097  70.046  89.774  49.494
31395DT     SC3 4098  70.367  89.793  49.452
31396DT     BB1 4099  69.947  89.782  50.117
31396DT     BB2 4100  69.725  89.633  49.875
31396DT     BB3 4101  69.773  89.433  49.848
31396DT     SC1 4102  69.986  89.496  49.707
31396DT     SC2 4103  69.954  89.440  49.502
31396DT     SC3 4104  70.239  89.517  49.636
31397DG     BB1 4105  69.383  89.456  49.962
31397DG     BB2 4106  69.422  89.261  49.660
31397DG     BB3 4107  69.490  89.079  49.705
31397DG     SC1 4108  69.785  89.158  49.683
31397DG     SC2 4109  69.978  89.061  49.477
31397DG     SC3 4110  70.117  89.214  49.688
31397DG     SC4 4111  69.860  89.215  49.813
31398DT     BB1 4112  69.369  88.904  49.660
31398DT     BB2 4113  69.544  88.764  49.377
31398DT     BB3 4114  69.658  88.602  49.437
31398DT     SC1 4115  69.836  88.759  49.549
31398DT     SC2 4116  70.019  88.752  49.435
31398DT     SC3 4117  69.985  88.873  49.734
31399DT     BB1 4118  69.485  88.427  49.317
31399DT     BB2 4119  69.806  88.350  49.170
31399DT     BB3 4120  69.906  88.212  49.288
31399DT     SC1 4121  69.962  88.394  49.468
31399DT     SC2 4122  70.173  88.435  49.465
31399DT     SC3 4123  69.966  88.522  49.699
31400DT     BB1 4124  69.864  88.002  49.109
31400DT     BB2 4125  70.223  88.013  49.149
31400DT     BB3 4126  70.280  87.893  49.307
31400DT     SC1 4127  70.193  88.068  49.482
31400DT     SC2 4128  70.360  88.157  49.585
31400DT     SC3 4129  70.050  88.174  49.677
31401DA     BB1 4130  70.513  87.755  48.987
31401DA     BB2 4131  70.740  87.814  49.270
31401DA     BB3 4132  70.723  87.656  49.412
31401DA     SC1 4133  70.500  87.797  49.578
31401DA     SC2 4134  70.476  87.904  49.802
31401DA     SC3 4135  70.224  87.867  49.770
31401DA     SC4 4136  70.347  87.764  49.540
31402DA     BB1 4137  71.047  87.642  49.367
31402DA     BB2 4138  71.082  87.725  49.722
31402DA     BB3 4139  71.042  87.554  49.843
31402DA     SC1 4140  70.738  87.616  49.871
31402DA     SC2 4141  70.580  87.689  50.050
31402DA     SC3 4142  70.397  87.593  49.899
31402DA     SC4 4143  70.638  87.549  49.764
31403DA     BB1 4144  71.335  87.640  49.958
31403DA     BB2 4145  71.171  87.686  50.283
31403DA     BB3 4146  71.128  87.496  50.371
31403DA     SC1 4147  70.844  87.475  50.245
31403DA     SC2 4148  70.607  87.484  50.321
31403DA     SC3 4149  70.553  87.364  50.101
31403DA     SC4 4150  70.831  87.399  50.104
31404DT     BB1 4151  71.225  87.453  50.537
31404DT     BB2 4152  70.948  87.495  50.765
31404DT     BB3 4153  70.875  87.311  50.823
31404DT     SC1 4154  70.759  87.275  50.590
31404DT     SC2 4155  70.545  87.285  50.614
31404DT     SC3 4156  70.702  87.171  50.354
31405DG     BB1 4157  70.982  87.507  51.164
31405DG     BB2 4158  70.643  87.380  51.186
31405DG     BB3 4159  70.646  87.185  51.224
31405DG     SC1 4160  70.651  87.102  50.929
31405DG     SC2 4161  70.432  86.960  50.784
31405DG     SC3 4162  70.676  86.976  50.618
31405DG     SC4 4163  70.792  87.087  50.855
31406DT     BB1 4164  70.562  87.091  51.417
31406DT     BB2 4165  70.258  86.938  51.296
31406DT     BB3 4166  70.282  86.733  51.283
31406DT     SC1 4167  70.431  86.756  51.068
31406DT     SC2 4168  70.323  86.680  50.898
31406DT     SC3 4169  70.640  86.742  50.908
31407DC     BB1 4170  70.125  86.676  51.509
31407DC     BB2 4171  69.971  86.484  51.245
31407DC     BB3 4172  70.055  86.295  51.237
31407DC     SC1 4173  70.273  86.389  51.125
31407DC     SC2 4174  70.283  86.322  50.921
31407DC     SC3 4175  70.527  86.451  51.091
31408DT     BB1 4176  69.834  86.161  51.351
31408DT     BB2 4177  69.880  85.997  51.033
31408DT     BB3 4178  70.006  85.834  51.055
31408DT     SC1 4179  70.216  85.990  51.076
31408DT     SC2 4180  70.339  85.968  50.900
31408DT     SC3 4181  70.428  86.109  51.178
31409DT     BB1 4182  69.800  85.651  51.027
31409DT     BB2 4183  70.032  85.567  50.763
31409DT     BB3 4184  70.170  85.429  50.832
31409DT     SC1 4185  70.297  85.613  50.970
31409DT     SC2 4186  70.489  85.650  50.880
31409DT     SC3 4187  70.396  85.744  51.176
31410DG     BB1 4188  69.982  85.273  50.508
31410DG     BB2 4189  70.341  85.272  50.467
31410DG     BB3 4190  70.420  85.121  50.570
31410DG     SC1 4191  70.457  85.284  50.827
31410DG     SC2 4192  70.719  85.361  50.949
31410DG     SC3 4193  70.494  85.426  51.130
31410DG     SC4 4194  70.338  85.290  50.933
31411DT     BB1 4195  70.525  84.978  50.459
31411DT     BB2 4196  70.867  85.057  50.541
31411DT     BB3 4197  70.938  84.925  50.684
31411DT     SC1 4198  70.800  85.043  50.873
31411DT     SC2 4199  70.934  85.144  51.007
31411DT     SC3 4200  70.622  85.080  51.065
31412DA     BB1 4201  71.208  84.952  50.363
31412DA     BB2 4202  71.397  84.985  50.676
31412DA     BB3 4203  71.404  84.798  50.778
31412DA     SC1 4204  71.146  84.850  50.943
31412DA     SC2 4205  71.084  84.895  51.180
31412DA     SC3 4206  70.849  84.818  51.112
31412DA     SC4 4207  71.006  84.798  50.881
31413DT     BB1 4208  71.582  84.710  50.795
31413DT     BB2 4209  71.631  84.772  51.147
31413DT     BB3 4210  71.596  84.599  51.255
31413DT     SC1 4211  71.336  84.623  51.223
31413DT     SC2 4212  71.245  84.671  51.412
31413DT     SC3 4213  71.089  84.569  51.147
31414DT     BB1 4214  71.866  84.554  51.307
31414DT     BB2 4215  71.714  84.559  51.634
31414DT     BB3 4216  71.653  84.368  51.687
31414DT     SC1 4217  71.448  84.380  51.523
31414DT     SC2 4218  71.266  84.390  51.638
31414DT     SC3 4219  71.288  84.324  51.321
31415DT     BB1 4220  71.860  84.330  51.872
31415DT     BB2 4221  71.558  84.279  52.064
31415DT     BB3 4222  71.504  84.079  52.058
31415DT     SC1 4223  71.417  84.102  51.812
31415DT     SC2 4224  71.203  84.085  51.809
31415DT     SC3 4225  71.397  84.066  51.551
31416DA     BB1 4226  71.518  84.182  52.463
31416DA     BB2 4227  71.195  84.021  52.401
31416DA     BB3 4228  71.219  83.810  52.381
31416DA     SC1 4229  71.260  83.820  52.073
31416DA     SC2 4230  71.136  83.752  51.868
31416DA     SC3 4231  71.364  83.762  51.750
31416DA     SC4 4232  71.411  83.831  52.018
31417DC     BB1 4233  71.133  83.705  52.519
31417DC     BB2 4234  70.856  83.593  52.317
31417DC     BB3 4235  70.885  83.395  52.260
31417DC     SC1 4236  71.067  83.464  52.084
31417DC     SC2 4237  70.990  83.432  51.886
31417DC     SC3 4238  71.301  83.483  51.963
31418DC     BB1 4239  70.683  83.372  52.418
31418DC     BB2 4240  70.575  83.244  52.099
31418DC     BB3 4241  70.647  83.052  52.071
31418DC     SC1 4242  70.889  83.141  52.024
31418DC     SC2 4243  70.938  83.109  51.817
31418DC     SC3 4244  71.148  83.182  52.053
31419DT     BB1 4245  70.394  83.027  52.086
31419DT     BB2 4246  70.491  82.882  51.770
31419DT     BB3 4247  70.580  82.698  51.801
31419DT     SC1 4248  70.800  82.810  51.889
31419DT     SC2 4249  70.958  82.780  51.746
31419DT     SC3 4250  70.996  82.879  52.052
31420DC     BB1 4251  70.364  82.646  51.677
31420DC     BB2 4252  70.629  82.489  51.488
31420DC     BB3 4253  70.697  82.322  51.588
31420DC     SC1 4254  70.825  82.469  51.764
31420DC     SC2 4255  71.037  82.447  51.735
31420DC     SC3 4256  70.893  82.576  51.995
31421DG     BB1 4257  70.580  82.202  51.216
31421DG     BB2 4258  70.903  82.065  51.302
31421DG     BB3 4259  70.881  81.915  51.432
31421DG     SC1 4260  70.899  82.095  51.679
31421DG     SC2 4261  71.119  82.093  51.881
31421DG     SC3 4262  70.895  82.264  51.971
31421DG     SC4 4263  70.765  82.161  51.737
31422DT     BB1 4264  70.928  81.686  51.394
31422DT     BB2 4265  71.221  81.633  51.598
31422DT     BB3 4266  71.171  81.528  51.769
31422DT     SC1 4267  71.058  81.740  51.875
31422DT     SC2 4268  71.177  81.808  52.041
31422DT     SC3 4269  70.873  81.900  51.975
31423DA     BB1 4270  71.471  81.269  51.621
31423DA     BB2 4271  71.543  81.318  51.977
31423DA     BB3 4272  71.413  81.198  52.096
31423DA     SC1 4273  71.194  81.417  52.123
31423DA     SC2 4274  71.102  81.565  52.301
31423DA     SC3 4275  70.897  81.587  52.148
31423DA     SC4 4276  71.076  81.417  52.014
31424DT     BB1 4277  71.467  81.006  52.230
31424DT     BB2 4278  71.440  81.171  52.550
31424DT     BB3 4279  71.278  81.096  52.654
31424DT     SC1 4280  71.110  81.229  52.502
31424DT     SC2 4281  71.018  81.386  52.617
31424DT     SC3 4282  70.916  81.277  52.329
31425DT     BB1 4283  71.420  80.934  52.844
31425DT     BB2 4284  71.224  81.153  53.053
31425DT     BB3 4285  71.044  81.062  53.100
31425DT     SC1 4286  70.950  81.105  52.859
31425DT     SC2 4287  70.794  81.253  52.869
31425DT     SC3 4288  70.855  81.058  52.617
31426DG     BB1 4289  71.210  81.120  53.471
31426DG     BB2 4290  70.878  81.263  53.456
31426DG     BB3 4291  70.742  81.121  53.487
31426DG     SC1 4292  70.716  81.047  53.191
31426DG     SC2 4293  70.474  81.090  53.020
31426DG     SC3 4294  70.677  80.928  52.878
31426DG     SC4 4295  70.813  80.937  53.129
31427DG     BB1 4296  70.616  81.275  53.755
31427DG     BB2 4297  70.311  81.310  53.565
31427DG     BB3 4298  70.197  81.149  53.588
31427DG     SC1 4299  70.319  80.999  53.350
31427DG     SC2 4300  70.178  80.927  53.097
31427DG     SC3 4301  70.444  80.798  53.110
31427DG     SC4 4302  70.449  80.908  53.374
31428DT     BB1 4303  69.984  81.148  53.689
31428DT     BB2 4304  69.775  81.121  53.396
31428DT     BB3 4305  69.692  80.931  53.386
31428DT     SC1 4306  69.920  80.827  53.308
31428DT     SC2 4307  69.904  80.765  53.103
31428DT     SC3 4308  70.139  80.680  53.310
31429DA     BB1 4309  69.373  81.201  53.357
31429DA     BB2 4310  69.344  80.964  53.079
31429DA     BB3 4311  69.273  80.776  53.149
31429DA     SC1 4312  69.557  80.660  53.202
31429DA     SC2 4313  69.706  80.485  53.106
31429DA     SC3 4314  69.827  80.493  53.332
31429DA     SC4 4315  69.618  80.679  53.350
31430DA     BB1 4316  69.061  80.840  52.911
31430DA     BB2 4317  69.189  80.538  52.747
31430DA     BB3 4318  69.114  80.363  52.844
31430DA     SC1 4319  69.352  80.341  53.043
31430DA     SC2 4320  69.546  80.191  53.082
31430DA     SC3 4321  69.549  80.289  53.319
31430DA     SC4 4322  69.336  80.413  53.185
31431DT     BB1 4323  69.006  80.265  52.730
31431DT     BB2 4324  69.242  80.000  52.666
31431DT     BB3 4325  69.198  79.836  52.783
31431DT     SC1 4326  69.293  79.953  52.998
31431DT     SC2 4327  69.474  79.855  53.058
31431DT     SC3 4328  69.301  80.062  53.238
31432DA     BB1 4329  69.256  79.731  52.380
31432DA     BB2 4330  69.454  79.505  52.589
31432DA     BB3 4331  69.325  79.374  52.698
31432DA     SC1 4332  69.303  79.562  52.945
31432DA     SC2 4333  69.380  79.566  53.182
31432DA     SC3 4334  69.193  79.738  53.219
31432DA     SC4 4335  69.180  79.666  52.948
31433DA     BB1 4336  69.536  79.169  52.553
31433DA     BB2 4337  69.626  79.061  52.891
31433DA     BB3 4338  69.467  78.948  52.978
31433DA     SC1 4339  69.329  79.195  53.107
31433DA     SC2 4340  69.291  79.287  53.336
31433DA     SC3 4341  69.101  79.421  53.228
31433DA     SC4 4342  69.215  79.269  53.022
31434DA     BB1 4343  69.715  78.735  53.020
31434DA     BB2 4344  69.649  78.761  53.379
31434DA     BB3 4345  69.471  78.656  53.430
31434DA     SC1 4346  69.285  78.902  53.390
31434DA     SC2 4347  69.148  79.054  53.532
31434DA     SC3 4348  69.022  79.110  53.316
31434DA     SC4 4349  69.218  78.922  53.246
31435DA     BB1 4350  69.673  78.509  53.644
31435DA     BB2 4351  69.458  78.644  53.909
31435DA     BB3 4352  69.277  78.532  53.922
31435DA     SC1 4353  69.122  78.712  53.721
31435DA     SC2 4354  68.935  78.877  53.728
31435DA     SC3 4355  68.914  78.832  53.476
31435DA     SC4 4356  69.124  78.670  53.566
31436DT     BB1 4357  69.246  78.427  54.088
31436DT     BB2 4358  68.999  78.649  54.230
31436DT     BB3 4359  68.810  78.566  54.209
31436DT     SC1 4360  68.805  78.623  53.953
31436DT     SC2 4361  68.660  78.778  53.918
31436DT     SC3 4362  68.796  78.589  53.692
31437DC     BB1 4363  68.819  78.534  54.472
31437DC     BB2 4364  68.531  78.742  54.410
31437DC     BB3 4365  68.368  78.624  54.359
31437DC     SC1 4366  68.465  78.579  54.120
31437DC     SC2 4367  68.344  78.680  53.974
31437DC     SC3 4368  68.563  78.450  53.912
31438DG     BB1 4369  68.298  78.878  54.670
31438DG     BB2 4370  68.051  78.910  54.408
31438DG     BB3 4371  67.930  78.752  54.409
31438DG     SC1 4372  68.102  78.588  54.217
31438DG     SC2 4373  68.027  78.506  53.939
31438DG     SC3 4374  68.277  78.372  54.024
31438DG     SC4 4375  68.219  78.495  54.276
31439DT     BB1 4376  67.756  78.817  54.432
31439DT     BB2 4377  67.604  78.760  54.110
31439DT     BB3 4378  67.515  78.572  54.106
31439DT     SC1 4379  67.749  78.454  54.086
31439DT     SC2 4380  67.769  78.367  53.891
31439DT     SC3 4381  67.956  78.302  54.147
31440DA     BB1 4382  67.264  78.878  53.955
31440DA     BB2 4383  67.248  78.589  53.731
31440DA     BB3 4384  67.155  78.424  53.829
31440DA     SC1 4385  67.422  78.308  53.939
31440DA     SC2 4386  67.568  78.110  53.900
31440DA     SC3 4387  67.665  78.160  54.132
31440DA     SC4 4388  67.469  78.355  54.086
31441DT     BB1 4389  66.979  78.364  53.763
31441DT     BB2 4390  67.081  78.050  53.618
31441DT     BB3 4391  67.030  77.894  53.744
31441DT     SC1 4392  67.226  77.953  53.909
31441DT     SC2 4393  67.376  77.799  53.899
31441DT     SC3 4394  67.352  78.027  54.128
31442DT     BB1 4395  66.820  77.812  53.585
31442DT     BB2 4396  67.017  77.513  53.628
31442DT     BB3 4397  66.957  77.412  53.799
31442DT     SC1 4398  67.077  77.588  53.953
31442DT     SC2 4399  67.247  77.496  54.048
31442DT     SC3 4400  67.110  77.777  54.134
31443DA     BB1 4401  66.925  77.112  53.505
31443DA     BB2 4402  67.106  76.966  53.788
31443DA     BB3 4403  66.970  76.919  53.947
31443DA     SC1 4404  67.001  77.196  54.086
31443DA     SC2 4405  67.101  77.287  54.296
31443DA     SC3 4406  66.946  77.488  54.258
31443DA     SC4 4407  66.896  77.311  54.046
31444DT     BB1 4408  66.918  76.713  54.013
31444DT     BB2 4409  67.107  76.717  54.321
31444DT     BB3 4410  66.978  76.725  54.483
31444DT     SC1 4411  66.925  76.978  54.439
31444DT     SC2 4412  67.011  77.097  54.596
31444DT     SC3 4413  66.789  77.197  54.382
31445DA     BB1 4414  67.216  76.389  54.569
31445DA     BB2 4415  67.210  76.597  54.871
31445DA     BB3 4416  67.023  76.575  54.972
31445DA     SC1 4417  66.886  76.810  54.821
31445DA     SC2 4418  66.804  77.040  54.873
31445DA     SC3 4419  66.662  77.015  54.661
31445DA     SC4 4420  66.804  76.775  54.687
31446DA     BB1 4421  67.195  76.489  55.246
31446DA     BB2 4422  67.055  76.784  55.412
31446DA     BB3 4423  66.856  76.744  55.480
31446DA     SC1 4424  66.720  76.841  55.218
31446DA     SC2 4425  66.578  77.032  55.143
31446DA     SC3 4426  66.513  76.880  54.947
31446DA     SC4 4427  66.691  76.731  55.104
31447DA     BB1 4428  66.952  76.832  55.789
31447DA     BB2 4429  66.711  77.108  55.771
31447DA     BB3 4430  66.515  77.038  55.817
31447DA     SC1 4431  66.443  76.972  55.522
31447DA     SC2 4432  66.291  77.060  55.344
31447DA     SC3 4433  66.319  76.830  55.235
31447DA     SC4 4434  66.472  76.822  55.470
31448DT     BB1 4435  66.391  77.093  56.004
31448DT     BB2 4436  66.172  77.322  55.834
31448DT     BB3 4437  65.980  77.245  55.826
31448DT     SC1 4438  66.048  77.074  55.639
31448DT     SC2 4439  65.954  77.129  55.454
31448DT     SC3 4440  66.095  76.844  55.518
31449DA     BB1 4441  65.927  77.621  56.002
31449DA     BB2 4442  65.697  77.599  55.717
31449DA     BB3 4443  65.527  77.481  55.769
31449DA     SC1 4444  65.653  77.213  55.672
31449DA     SC2 4445  65.620  77.050  55.487
31449DA     SC3 4446  65.746  76.885  55.637
31449DA     SC4 4447  65.732  77.125  55.781
31450DT     BB1 4448  65.345  77.573  55.774
31450DT     BB2 4449  65.235  77.444  55.456
31450DT     BB3 4450  65.090  77.299  55.484
31450DT     SC1 4451  65.270  77.124  55.563
31450DT     SC2 4452  65.290  76.970  55.414
31450DT     SC3 4453  65.402  76.956  55.718
31451DG     BB1 4454  64.975  77.600  55.238
31451DG     BB2 4455  64.944  77.275  55.081
31451DG     BB3 4456  64.786  77.179  55.155
31451DG     SC1 4457  64.942  77.046  55.382
31451DG     SC2 4458  64.996  76.754  55.411
31451DG     SC3 4459  65.077  76.900  55.655
31451DG     SC4 4460  64.956  77.124  55.522
31452DA     BB1 4461  64.772  77.151  54.813
31452DA     BB2 4462  64.766  76.787  54.856
31452DA     BB3 4463  64.585  76.726  54.952
31452DA     SC1 4464  64.702  76.746  55.240
31452DA     SC2 4465  64.766  76.591  55.424
31452DA     SC3 4466  64.746  76.797  55.576
31452DA     SC4 4467  64.683  76.886  55.318
31453DT     BB1 4468  64.516  76.629  54.835
31453DT     BB2 4469  64.560  76.313  55.003
31453DT     BB3 4470  64.395  76.272  55.121
31453DT     SC1 4471  64.471  76.448  55.300
31453DT     SC2 4472  64.533  76.346  55.479
31453DT     SC3 4473  64.469  76.663  55.454
31454DT     BB1 4474  64.343  76.086  54.942
31454DT     BB2 4475  64.350  75.913  55.258
31454DT     BB3 4476  64.168  75.935  55.355
31454DT     SC1 4477  64.224  76.183  55.419
31454DT     SC2 4478  64.256  76.197  55.632
31454DT     SC3 4479  64.209  76.446  55.430
31455DT     BB1 4480  64.102  75.676  55.301
31455DT     BB2 4481  64.065  75.704  55.659
31455DT     BB3 4482  63.875  75.775  55.705
31455DT     SC1 4483  63.939  76.018  55.630
31455DT     SC2 4484  63.948  76.146  55.803
31455DT     SC3 4485  63.937  76.244  55.494
31456DA     BB1 4486  63.894  75.420  55.932
31456DA     BB2 4487  63.774  75.684  56.156
31456DA     BB3 4488  63.568  75.727  56.116
31456DA     SC1 4489  63.630  75.949  55.907
31456DA     SC2 4490  63.610  76.197  55.889
31456DA     SC3 4491  63.624  76.159  55.636
31456DA     SC4 4492  63.639  75.905  55.752
31457DC     BB1 4493  63.393  75.683  56.255
31457DC     BB2 4494  63.342  76.024  56.361
31457DC     BB3 4495  63.164  76.096  56.284
31457DC     SC1 4496  63.268  76.120  56.044
31457DC     SC2 4497  63.288  76.329  55.996
31457DC     SC3 4498  63.308  76.082  55.786
31458DT     BB1 4499  63.034  76.088  56.530
31458DT     BB2 4500  63.011  76.433  56.427
31458DT     BB3 4501  62.839  76.463  56.316
31458DT     SC1 4502  62.943  76.343  56.108
31458DT     SC2 4503  62.979  76.488  55.953
31458DT     SC3 4504  62.979  76.166  55.916
31459DA     BB1 4505  62.861  76.748  56.621
31459DA     BB2 4506  62.800  76.923  56.304
31459DA     BB3 4507  62.600  76.890  56.239
31459DA     SC1 4508  62.669  76.637  56.072
31459DA     SC2 4509  62.681  76.572  55.832
31459DA     SC3 4510  62.664  76.331  55.918
31459DA     SC4 4511  62.656  76.494  56.145
31460DA     BB1 4512  62.657  77.210  56.233
31460DA     BB2 4513  62.584  77.188  55.875
31460DA     BB3 4514  62.377  77.146  55.844
31460DA     SC1 4515  62.415  76.837  55.843
31460DA     SC2 4516  62.403  76.650  55.678
31460DA     SC3 4517  62.376  76.498  55.883
31460DA     SC4 4518  62.398  76.759  55.983
31461DT     BB1 4519  62.283  77.287  55.758
31461DT     BB2 4520  62.239  77.128  55.437
31461DT     BB3 4521  62.046  77.056  55.419
31461DT     SC1 4522  62.097  76.856  55.581
31461DT     SC2 4523  62.097  76.672  55.469
31461DT     SC3 4524  62.086  76.699  55.792
31462DA     BB1 4525  62.141  77.282  55.080
31462DA     BB2 4526  61.980  76.973  54.968
31462DA     BB3 4527  61.771  76.977  55.012
31462DA     SC1 4528  61.804  76.844  55.292
31462DA     SC2 4529  61.748  76.627  55.401
31462DA     SC3 4530  61.772  76.755  55.622
31462DA     SC4 4531  61.822  76.942  55.419
31463DA     BB1 4532  61.742  76.909  54.691
31463DA     BB2 4533  61.555  76.608  54.785
31463DA     BB3 4534  61.357  76.659  54.845
31463DA     SC1 4535  61.432  76.692  55.146
31463DA     SC2 4536  61.389  76.573  55.361
31463DA     SC3 4537  61.452  76.795  55.473
31463DA     SC4 4538  61.473  76.839  55.196
31464DT     BB1 4539  61.174  76.610  54.730
31464DT     BB2 4540  61.043  76.356  54.951
31464DT     BB3 4541  60.874  76.428  55.048
31464DT     SC1 4542  61.020  76.579  55.206
31464DT     SC2 4543  61.012  76.500  55.407
31464DT     SC3 4544  61.119  76.794  55.321
31465DT     BB1 4545  60.667  76.288  54.896
31465DT     BB2 4546  60.584  76.201  55.236
31465DT     BB3 4547  60.442  76.333  55.310
31465DT     SC1 4548  60.620  76.523  55.336
31465DT     SC2 4549  60.656  76.560  55.545
31465DT     SC3 4550  60.745  76.753  55.300
31466DG     BB1 4551  60.209  75.989  55.339
31466DG     BB2 4552  60.202  76.166  55.654
31466DG     BB3 4553  60.059  76.304  55.651
31466DG     SC1 4554  60.239  76.525  55.540
31466DG     SC2 4555  60.323  76.772  55.684
31466DG     SC3 4556  60.402  76.785  55.399
31466DG     SC4 4557  60.253  76.541  55.381
31467DT     BB1 4558  59.822  76.332  55.789
31467DT     BB2 4559  59.917  76.590  56.021
31467DT     BB3 4560  59.810  76.763  55.983
31467DT     SC1 4561  59.955  76.815  55.770
31467DT     SC2 4562  60.078  76.987  55.808
31467DT     SC3 4563  60.019  76.855  55.518
31468DA     BB1 4564  59.701  76.711  56.388
31468DA     BB2 4565  59.815  77.059  56.357
31468DA     BB3 4566  59.658  77.181  56.280
31468DA     SC1 4567  59.738  77.141  55.982
31468DA     SC2 4568  59.836  77.276  55.797
31468DA     SC3 4569  59.736  77.098  55.642
31468DA     SC4 4570  59.667  77.020  55.902
31469DG     BB1 4571  59.652  77.358  56.547
31469DG     BB2 4572  59.772  77.620  56.328
31469DG     BB3 4573  59.618  77.722  56.254
31469DG     SC1 4574  59.587  77.541  56.008
31469DG     SC2 4575  59.636  77.621  55.725
31469DG     SC3 4576  59.512  77.354  55.738
31469DG     SC4 4577  59.493  77.412  56.018
31470DA     BB1 4578  59.768  78.011  56.367
31470DA     BB2 4579  59.792  78.137  56.023
31470DA     BB3 4580  59.606  78.219  55.961
31470DA     SC1 4581  59.499  77.952  55.843
31470DA     SC2 4582  59.449  77.856  55.618
31470DA     SC3 4583  59.302  77.688  55.744
31470DA     SC4 4584  59.412  77.857  55.939
31471DA     BB1 4585  59.824  78.452  55.899
31471DA     BB2 4586  59.724  78.418  55.548
31471DA     BB3 4587  59.529  78.500  55.518
31471DA     SC1 4588  59.381  78.232  55.573
31471DA     SC2 4589  59.251  78.063  55.444
31471DA     SC3 4590  59.157  77.991  55.672
31471DA     SC4 4591  59.334  78.203  55.724
31472DA     BB1 4592  59.718  78.639  55.291
31472DA     BB2 4593  59.489  78.489  55.046
31472DA     BB3 4594  59.300  78.587  55.053
31472DA     SC1 4595  59.180  78.393  55.265
31472DA     SC2 4596  59.007  78.214  55.274
31472DA     SC3 4597  59.007  78.255  55.527
31472DA     SC4 4598  59.194  78.434  55.419
31473DC     BB1 4599  59.258  78.680  54.894
31473DC     BB2 4600  59.004  78.454  54.772
31473DC     BB3 4601  58.816  78.529  54.815
31473DC     SC1 4602  58.840  78.466  55.069
31473DC     SC2 4603  58.705  78.304  55.114
31473DC     SC3 4604  58.857  78.491  55.330
31474DA     BB1 4605  58.819  78.441  54.405
31474DA     BB2 4606  58.513  78.299  54.548
31474DA     BB3 4607  58.373  78.454  54.593
31474DA     SC1 4608  58.476  78.495  54.884
31474DA     SC2 4609  58.394  78.454  55.116
31474DA     SC3 4610  58.570  78.627  55.186
31474DA     SC4 4611  58.590  78.606  54.907
31475DA     BB1 4612  58.164  78.280  54.404
31475DA     BB2 4613  57.951  78.246  54.700
31475DA     BB3 4614  57.842  78.426  54.735
31475DA     SC1 4615  58.059  78.549  54.920
31475DA     SC2 4616  58.086  78.605  55.162
31475DA     SC3 4617  58.272  78.763  55.085
31475DA     SC4 4618  58.171  78.643  54.852
31476DA     BB1 4619  57.574  78.233  54.726
31476DA     BB2 4620  57.513  78.330  55.075
31476DA     BB3 4621  57.425  78.524  55.083
31476DA     SC1 4622  57.697  78.674  55.101
31476DA     SC2 4623  57.824  78.805  55.271
31476DA     SC3 4624  57.953  78.901  55.071
31476DA     SC4 4625  57.764  78.723  54.964
31477DA     BB1 4626  57.202  78.361  55.258
31477DA     BB2 4627  57.295  78.578  55.540
31477DA     BB3 4628  57.208  78.771  55.516
31477DA     SC1 4629  57.452  78.888  55.361
31477DA     SC2 4630  57.634  79.054  55.402
31477DA     SC3 4631  57.655  79.062  55.146
31477DA     SC4 4632  57.449  78.880  55.201
31478DT     BB1 4633  57.085  78.810  55.650
31478DT     BB2 4634  57.294  79.040  55.834
31478DT     BB3 4635  57.241  79.235  55.790
31478DT     SC1 4636  57.355  79.222  55.554
31478DT     SC2 4637  57.529  79.347  55.552
31478DT     SC3 4638  57.383  79.221  55.292
31479DG     BB1 4639  57.243  79.150  56.188
31479DG     BB2 4640  57.440  79.443  56.110
31479DG     BB3 4641  57.320  79.595  56.066
31479DG     SC1 4642  57.308  79.532  55.767
31479DG     SC2 4643  57.422  79.700  55.547
31479DG     SC3 4644  57.257  79.481  55.437
31479DG     SC4 4645  57.195  79.432  55.713
31480DT     BB1 4646  57.358  79.736  56.186
31480DT     BB2 4647  57.519  79.982  55.978
31480DT     BB3 4648  57.378  80.113  55.901
31480DT     SC1 4649  57.293  79.933  55.730
31480DT     SC2 4650  57.348  79.992  55.531
31480DT     SC3 4651  57.132  79.764  55.609
31481DT     BB1 4652  57.499  80.277  56.062
31481DT     BB2 4653  57.510  80.434  55.738
31481DT     BB3 4654  57.327  80.521  55.695
31481DT     SC1 4655  57.218  80.287  55.648
31481DT     SC2 4656  57.176  80.270  55.437
31481DT     SC3 4657  57.059  80.078  55.671
31482DT     BB1 4658  57.444  80.758  55.731
31482DT     BB2 4659  57.296  80.777  55.402
31482DT     BB3 4660  57.096  80.827  55.417
31482DT     SC1 4661  57.033  80.586  55.500
31482DT     SC2 4662  56.920  80.486  55.347
31482DT     SC3 4663  56.947  80.392  55.657
31483DT     BB1 4664  57.143  81.080  55.326
31483DT     BB2 4665  56.891  80.951  55.103
31483DT     BB3 4666  56.703  80.984  55.183
31483DT     SC1 4667  56.735  80.792  55.359
31483DT     SC2 4668  56.604  80.628  55.310
31483DT     SC3 4669  56.760  80.670  55.591
31484DA     BB1 4670  56.682  81.149  54.797
31484DA     BB2 4671  56.390  80.932  54.840
31484DA     BB3 4672  56.247  81.026  54.968
31484DA     SC1 4673  56.363  80.902  55.229
31484DA     SC2 4674  56.295  80.731  55.398
31484DA     SC3 4675  56.467  80.845  55.551
31484DA     SC4 4676  56.473  80.987  55.309
31485DA     BB1 4677  56.042  80.972  54.716
31485DA     BB2 4678  55.849  80.757  54.942
31485DA     BB3 4679  55.733  80.876  55.076
31485DA     SC1 4680  55.953  80.889  55.295
31485DA     SC2 4681  55.991  80.798  55.524
31485DA     SC3 4682  56.163  80.987  55.548
31485DA     SC4 4683  56.055  81.013  55.291
31486DC     BB1 4684  55.534  80.866  55.060
31486DC     BB2 4685  55.479  80.665  55.355
31486DC     BB3 4686  55.406  80.783  55.508
31486DC     SC1 4687  55.642  80.890  55.549
31486DC     SC2 4688  55.720  80.822  55.738
31486DC     SC3 4689  55.833  81.071  55.565
31487DA     BB1 4690  55.157  80.447  55.464
31487DA     BB2 4691  55.246  80.479  55.818
31487DA     BB3 4692  55.145  80.646  55.905
31487DA     SC1 4693  55.374  80.847  55.843
31487DA     SC2 4694  55.545  80.977  55.969
31487DA     SC3 4695  55.557  81.126  55.760
31487DA     SC4 4696  55.366  80.929  55.704
31488DG     BB1 4697  55.035  80.420  56.085
31488DG     BB2 4698  55.217  80.601  56.340
31488DG     BB3 4699  55.113  80.759  56.398
31488DG     SC1 4700  55.234  80.947  56.189
31488DG     SC2 4701  55.413  81.180  56.245
31488DG     SC3 4702  55.331  81.175  55.960
31488DG     SC4 4703  55.165  80.958  56.045
31489DT     BB1 4704  55.048  80.774  56.603
31489DT     BB2 4705  55.273  81.024  56.733
31489DT     BB3 4706  55.177  81.207  56.745
31489DT     SC1 4707  55.191  81.239  56.485
31489DT     SC2 4708  55.329  81.398  56.440
31489DT     SC3 4709  55.116  81.269  56.234
31490DA     BB1 4710  55.349  81.131  57.121
31490DA     BB2 4711  55.444  81.469  57.018
31490DA     BB3 4712  55.277  81.601  57.030
31490DA     SC1 4713  55.184  81.550  56.738
31490DA     SC2 4714  55.175  81.677  56.523
31490DA     SC3 4715  55.000  81.503  56.452
31490DA     SC4 4716  55.077  81.434  56.712
31491DA     BB1 4717  55.475  81.783  57.220
31491DA     BB2 4718  55.443  82.049  56.970
31491DA     BB3 4719  55.257  82.150  56.993
31491DA     SC1 4720  55.105  81.964  56.795
31491DA     SC2 4721  55.003  81.979  56.568
31491DA     SC3 4722  54.869  81.771  56.637
31491DA     SC4 4723  55.030  81.835  56.857
31492DC     BB1 4724  55.253  82.348  57.053
31492DC     BB2 4725  55.172  82.489  56.731
31492DC     BB3 4726  54.975  82.553  56.729
31492DC     SC1 4727  54.887  82.306  56.713
31492DC     SC2 4728  54.801  82.273  56.519
31492DC     SC3 4729  54.764  82.082  56.777
31493DC     BB1 4730  55.062  82.809  56.731
31493DC     BB2 4731  54.856  82.784  56.435
31493DC     BB3 4732  54.658  82.820  56.483
31493DC     SC1 4733  54.635  82.583  56.595
31493DC     SC2 4734  54.507  82.460  56.475
31493DC     SC3 4735  54.598  82.399  56.780
31494DT     BB1 4736  54.678  83.055  56.355
31494DT     BB2 4737  54.405  82.884  56.192
31494DT     BB3 4738  54.229  82.917  56.295
31494DT     SC1 4739  54.300  82.752  56.486
31494DT     SC2 4740  54.176  82.577  56.479
31494DT     SC3 4741  54.368  82.664  56.725
31495DA     BB1 4742  54.160  83.009  55.892
31495DA     BB2 4743  53.886  82.795  56.007
31495DA     BB3 4744  53.755  82.904  56.135
31495DA     SC1 4745  53.908  82.827  56.395
31495DA     SC2 4746  53.870  82.686  56.597
31495DA     SC3 4747  54.053  82.827  56.706
31495DA     SC4 4748  54.023  82.928  56.446
31496DT     BB1 4749  53.566  82.942  56.073
31496DT     BB2 4750  53.398  82.708  56.291
31496DT     BB3 4751  53.306  82.810  56.445
31496DT     SC1 4752  53.535  82.852  56.565
31496DT     SC2 4753  53.545  82.735  56.745
31496DT     SC3 4754  53.742  82.980  56.668
31497DA     BB1 4755  53.004  82.572  56.277
31497DA     BB2 4756  52.993  82.522  56.640
31497DA     BB3 4757  52.906  82.692  56.735
31497DA     SC1 4758  53.177  82.839  56.776
31497DA     SC2 4759  53.328  82.900  56.965
31497DA     SC3 4760  53.426  83.074  56.804
31497DA     SC4 4761  53.224  82.941  56.661
31498DA     BB1 4762  52.694  82.476  56.870
31498DA     BB2 4763  52.822  82.577  57.198
31498DA     BB3 4764  52.736  82.764  57.258
31498DA     SC1 4765  52.961  82.936  57.130
31498DA     SC2 4766  53.149  83.081  57.207
31498DA     SC3 4767  53.140  83.182  56.971
31498DA     SC4 4768  52.939  82.987  56.979
31499DC     BB1 4769  52.599  82.782  57.425
31499DC     BB2 4770  52.834  82.935  57.653
31499DC     BB3 4771  52.785  83.134  57.683
31499DC     SC1 4772  52.876  83.200  57.446
31499DC     SC2 4773  53.055  83.317  57.468
31499DC     SC3 4774  52.881  83.287  57.197
31500DT     BB1 4775  52.694  83.084  57.937
31500DT     BB2 4776  52.953  83.332  57.981
31500DT     BB3 4777  52.871  83.522  57.965
31500DT     SC1 4778  52.850  83.499  57.704
31500DT     SC2 4779  52.990  83.632  57.609
31500DT     SC3 4780  52.740  83.484  57.465
31501DT     BB1 4781  52.903  83.558  58.233
31501DT     BB2 4782  53.090  83.827  58.081
31501DT     BB3 4783  52.965  83.989  58.048
31501DT     SC1 4784  52.851  83.870  57.844
31501DT     SC2 4785  52.908  83.970  57.662
31501DT     SC3 4786  52.666  83.757  57.694
31502DA     BB1 4787  53.310  84.114  58.249
31502DA     BB2 4788  53.258  84.336  57.962
31502DA     BB3 4789  53.091  84.465  57.998
31502DA     SC1 4790  52.883  84.272  57.870
31502DA     SC2 4791  52.740  84.264  57.666
31502DA     SC3 4792  52.601  84.092  57.796
31502DA     SC4 4793  52.809  84.168  57.968
31503DT     BB1 4794  53.143  84.643  58.007
31503DT     BB2 4795  53.009  84.747  57.688
31503DT     BB3 4796  52.827  84.842  57.716
31503DT     SC1 4797  52.706  84.614  57.763
31503DT     SC2 4798  52.574  84.568  57.599
31503DT     SC3 4799  52.573  84.426  57.891
31504DA     BB1 4800  53.080  85.069  57.469
31504DA     BB2 4801  52.750  85.052  57.311
31504DA     BB3 4802  52.609  85.168  57.422
31504DA     SC1 4803  52.521  84.931  57.604
31504DA     SC2 4804  52.319  84.788  57.636
31504DA     SC3 4805  52.417  84.736  57.867
31504DA     SC4 4806  52.597  84.912  57.744
31505DA     BB1 4807  52.569  85.285  57.118
31505DA     BB2 4808  52.218  85.184  57.147
31505DA     BB3 4809  52.115  85.312  57.283
31505DA     SC1 4810  52.174  85.136  57.533
31505DA     SC2 4811  52.047  84.989  57.689
31505DA     SC3 4812  52.245  85.023  57.849
31505DA     SC4 4813  52.306  85.170  57.618
31506DT     BB1 4814  51.971  85.434  57.212
31506DT     BB2 4815  51.686  85.264  57.352
31506DT     BB3 4816  51.615  85.368  57.516
31506DT     SC1 4817  51.815  85.286  57.664
31506DT     SC2 4818  51.743  85.148  57.813
31506DT     SC3 4819  52.033  85.293  57.813
31507DG     BB1 4820  51.289  85.369  57.266
31507DG     BB2 4821  51.195  85.257  57.597
31507DG     BB3 4822  51.169  85.414  57.717
31507DG     SC1 4823  51.461  85.421  57.810
31507DG     SC2 4824  51.558  85.364  58.087
31507DG     SC3 4825  51.776  85.472  57.918
31507DG     SC4 4826  51.567  85.507  57.726
31508DA     BB1 4827  50.834  85.330  57.819
31508DA     BB2 4828  50.938  85.307  58.170
31508DA     BB3 4829  50.941  85.501  58.260
31508DA     SC1 4830  51.239  85.554  58.188
31508DA     SC2 4831  51.457  85.575  58.308
31508DA     SC3 4832  51.538  85.699  58.098
31508DA     SC4 4833  51.270  85.630  58.050
31509DA     BB1 4834  50.724  85.410  58.505
31509DA     BB2 4835  50.990  85.470  58.750
31509DA     BB3 4836  50.996  85.677  58.803
31509DA     SC1 4837  51.200  85.752  58.580
31509DA     SC2 4838  51.439  85.824  58.565
31509DA     SC3 4839  51.376  85.913  58.333
31509DA     SC4 4840  51.141  85.802  58.440
31510DT     BB1 4841  50.942  85.776  59.014
31510DT     BB2 4842  51.285  85.827  59.114
31510DT     BB3 4843  51.326  86.030  59.124
31510DT     SC1 4844  51.335  86.049  58.863
31510DT     SC2 4845  51.537  86.086  58.800
31510DT     SC3 4846  51.272  86.122  58.617
31511DA     BB1 4847  51.438  85.880  59.498
31511DA     BB2 4848  51.724  86.069  59.366
31511DA     BB3 4849  51.691  86.278  59.389
31511DA     SC1 4850  51.555  86.312  59.111
31511DA     SC2 4851  51.608  86.418  58.891
31511DA     SC3 4852  51.355  86.410  58.850
31511DA     SC4 4853  51.395  86.300  59.104
31512DT     BB1 4854  51.815  86.368  59.509
31512DT     BB2 4855  52.013  86.527  59.253
31512DT     BB3 4856  51.966  86.728  59.242
31512DT     SC1 4857  51.738  86.676  59.121
31512DT     SC2 4858  51.749  86.742  58.917
31512DT     SC3 4859  51.479  86.661  59.076
31513DA     BB1 4860  52.380  86.670  59.264
31513DA     BB2 4861  52.310  86.902  58.988
31513DA     BB3 4862  52.247  87.091  59.064
31513DA     SC1 4863  51.945  87.018  59.063
31513DA     SC2 4864  51.740  87.082  58.936
31513DA     SC3 4865  51.611  86.988  59.137
31513DA     SC4 4866  51.883  86.956  59.198
31514DT     BB1 4867  52.368  87.235  59.028
31514DT     BB2 4868  52.169  87.403  58.779
31514DT     BB3 4869  52.075  87.567  58.862
31514DT     SC1 4870  51.902  87.414  58.987
31514DT     SC2 4871  51.707  87.440  58.898
31514DT     SC3 4872  51.770  87.298  59.183
31515DT     BB1 4873  52.244  87.737  58.730
31515DT     BB2 4874  51.914  87.848  58.633
31515DT     BB3 4875  51.842  87.985  58.771
31515DT     SC1 4876  51.795  87.795  58.947
31515DT     SC2 4877  51.583  87.771  58.970
31515DT     SC3 4878  51.811  87.653  59.168
31516DG     BB1 4879  51.843  88.202  58.423
31516DG     BB2 4880  51.521  88.222  58.585
31516DG     BB3 4881  51.526  88.359  58.729
31516DG     SC1 4882  51.615  88.163  58.947
31516DG     SC2 4883  51.453  88.079  59.183
31516DG     SC3 4884  51.731  87.980  59.205
31516DG     SC4 4885  51.771  88.138  58.969
31517DT     BB1 4886  51.400  88.571  58.740
31517DT     BB2 4887  51.149  88.484  58.984
31517DT     BB3 4888  51.184  88.586  59.161
31517DT     SC1 4889  51.386  88.428  59.221
31517DT     SC2 4890  51.333  88.304  59.388
31517DT     SC3 4891  51.632  88.349  59.272
31518DT     BB1 4892  50.971  88.765  59.128
31518DT     BB2 4893  50.902  88.603  59.443
31518DT     BB3 4894  50.986  88.712  59.598
31518DT     SC1 4895  51.227  88.628  59.537
31518DT     SC2 4896  51.297  88.495  59.690
31518DT     SC3 4897  51.479  88.633  59.460
31519DG     BB1 4898  50.588  88.674  59.665
31519DG     BB2 4899  50.782  88.556  59.947
31519DG     BB3 4900  50.847  88.711  60.054
31519DG     SC1 4901  51.107  88.743  59.897
31519DG     SC2 4902  51.383  88.695  60.002
31519DG     SC3 4903  51.392  88.819  59.734
31519DG     SC4 4904  51.108  88.836  59.767
31520DA     BB1 4905  50.713  88.506  60.291
31520DA     BB2 4906  51.039  88.499  60.459
31520DA     BB3 4907  51.081  88.688  60.548
31520DA     SC1 4908  51.226  88.802  60.297
31520DA     SC2 4909  51.458  88.864  60.231
31520DA     SC3 4910  51.346  89.005  60.048
31520DA     SC4 4911  51.137  88.884  60.191
31521DT     BB1 4912  51.090  88.658  60.719
31521DT     BB2 4913  51.446  88.703  60.757
31521DT     BB3 4914  51.487  88.897  60.814
31521DT     SC1 4915  51.439  88.986  60.571
31521DT     SC2 4916  51.623  89.052  60.482
31521DT     SC3 4917  51.325  89.119  60.374
31522DT     BB1 4918  51.551  88.788  61.045
31522DT     BB2 4919  51.842  88.978  60.948
31522DT     BB3 4920  51.817  89.177  60.998
31522DT     SC1 4921  51.649  89.214  60.800
31522DT     SC2 4922  51.741  89.340  60.652
31522DT     SC3 4923  51.426  89.268  60.671
31523DG     BB1 4924  52.156  89.056  61.191
31523DG     BB2 4925  52.212  89.365  61.011
31523DG     BB3 4926  52.136  89.518  61.114
31523DG     SC1 4927  51.860  89.500  60.983
31523DG     SC2 4928  51.738  89.703  60.801
31523DG     SC3 4929  51.540  89.496  60.875
31523DG     SC4 4930  51.749  89.404  61.048
31524DT     BB1 4931  52.257  89.701  61.215
31524DT     BB2 4932  52.175  89.973  60.992
31524DT     BB3 4933  52.044  90.103  61.085
31524DT     SC1 4934  51.844  89.936  61.055
31524DT     SC2 4935  51.705  90.015  60.911
31524DT     SC3 4936  51.648  89.770  61.115
31525DA     BB1 4937  52.353  90.368  60.978
31525DA     BB2 4938  52.040  90.522  60.867
31525DA     BB3 4939  51.939  90.612  61.032
31525DA     SC1 4940  51.775  90.357  61.102
31525DA     SC2 4941  51.537  90.281  61.091
31525DA     SC3 4942  51.607  90.105  61.264
31525DA     SC4 4943  51.837  90.255  61.210
31526DA     BB1 4944  51.939  90.897  60.861
31526DA     BB2 4945  51.573  90.883  60.861
31526DA     BB3 4946  51.496  90.956  61.046
31526DA     SC1 4947  51.495  90.677  61.184
31526DA     SC2 4948  51.327  90.510  61.263
31526DA     SC3 4949  51.517  90.418  61.409
31526DA     SC4 4950  51.626  90.635  61.268
31527DT     BB1 4951  51.383  91.136  61.057
31527DT     BB2 4952  51.061  90.979  61.099
31527DT     BB3 4953  50.993  91.007  61.292
31527DT     SC1 4954  51.162  90.830  61.386
31527DT     SC2 4955  51.053  90.656  61.453
31527DT     SC3 4956  51.362  90.726  61.523
31528DG     BB1 4957  50.714  91.157  61.037
31528DG     BB2 4958  50.568  90.921  61.269
31528DG     BB3 4959  50.540  91.007  61.445
31528DG     SC1 4960  50.817  90.932  61.554
31528DG     SC2 4961  50.871  90.742  61.778
31528DG     SC3 4962  51.118  90.883  61.697
31528DG     SC4 4963  50.940  91.030  61.528
31529DT     BB1 4964  50.342  91.021  61.517
31529DT     BB2 4965  50.339  90.772  61.779
31529DT     BB3 4966  50.357  90.863  61.963
31529DT     SC1 4967  50.612  90.910  61.925
31529DT     SC2 4968  50.728  90.786  62.057
31529DT     SC3 4969  50.838  91.042  61.891
31530DG     BB1 4970  50.019  90.635  61.957
31530DG     BB2 4971  50.224  90.562  62.246
31530DG     BB3 4972  50.204  90.707  62.381
31530DG     SC1 4973  50.434  90.876  62.271
31530DG     SC2 4974  50.693  90.932  62.409
31530DG     SC3 4975  50.667  91.095  62.164
31530DG     SC4 4976  50.403  90.983  62.156
31531DT     BB1 4977  50.121  90.662  62.576
31531DT     BB2 4978  50.411  90.681  62.789
31531DT     BB3 4979  50.412  90.862  62.890
31531DT     SC1 4980  50.486  90.990  62.674
31531DT     SC2 4981  50.689  91.059  62.697
31531DT     SC3 4982  50.479  91.158  62.470
31532DG     BB1 4983  50.411  90.576  63.183
31532DG     BB2 4984  50.677  90.816  63.235
31532DG     BB3 4985  50.604  90.983  63.314
31532DG     SC1 4986  50.547  91.116  63.044
31532DG     SC2 4987  50.684  91.357  62.935
31532DG     SC3 4988  50.452  91.282  62.767
31532DG     SC4 4989  50.405  91.090  62.974
31533DT     BB1 4990  50.659  91.063  63.524
31533DT     BB2 4991  50.875  91.339  63.438
31533DT     BB3 4992  50.776  91.518  63.468
31533DT     SC1 4993  50.632  91.483  63.251
31533DT     SC2 4994  50.692  91.625  63.101
31533DT     SC3 4995  50.421  91.446  63.097
31534DT     BB1 4996  50.925  91.577  63.692
31534DT     BB2 4997  50.980  91.857  63.471
31534DT     BB3 4998  50.834  92.001  63.501
31534DT     SC1 4999  50.655  91.856  63.375
31534DT     SC2 5000  50.606  91.951  63.188
31534DT     SC3 5001  50.438  91.713  63.330
31535DA     BB1 5002  51.206  92.191  63.529
31535DA     BB2 5003  50.997  92.383  63.296
31535DA     BB3 5004  50.846  92.491  63.403
31535DA     SC1 5005  50.636  92.262  63.385
31535DA     SC2 5006  50.420  92.219  63.269
31535DA     SC3 5007  50.382  92.040  63.448
31535DA     SC4 5008  50.630  92.157  63.506
31536DT     BB1 5009  50.863  92.680  63.392
31536DT     BB2 5010  50.589  92.735  63.164
31536DT     BB3 5011  50.424  92.803  63.268
31536DT     SC1 5012  50.377  92.564  63.365
31536DT     SC2 5013  50.197  92.485  63.277
31536DT     SC3 5014  50.346  92.369  63.540
31537DA     BB1 5015  50.501  93.049  62.937
31537DA     BB2 5016  50.145  92.962  62.935
31537DA     BB3 5017  50.044  93.061  63.095
31537DA     SC1 5018  50.087  92.830  63.298
31537DA     SC2 5019  49.949  92.658  63.415
31537DA     SC3 5020  50.143  92.644  63.582
31537DA     SC4 5021  50.218  92.837  63.392
31538DA     BB1 5022  49.862  93.141  62.834
31538DA     BB2 5023  49.583  92.977  63.007
31538DA     BB3 5024  49.520  93.095  63.173
31538DA     SC1 5025  49.711  92.957  63.376
31538DA     SC2 5026  49.693  92.804  63.572
31538DA     SC3 5027  49.927  92.889  63.634
31538DA     SC4 5028  49.856  93.024  63.399
31539DG     BB1 5029  49.249  93.096  63.019
31539DG     BB2 5030  49.133  92.920  63.313
31539DG     BB3 5031  49.096  93.050  63.459
31539DG     SC1 5032  49.380  93.039  63.574
31539DG     SC2 5033  49.458  92.927  63.840
31539DG     SC3 5034  49.686  93.067  63.713
31539DG     SC4 5035  49.491  93.139  63.516
31540DG     BB1 5036  48.781  92.948  63.475
31540DG     BB2 5037  48.855  92.844  63.814
31540DG     BB3 5038  48.839  92.999  63.937
31540DG     SC1 5039  49.131  93.085  63.907
31540DG     SC2 5040  49.339  93.076  64.121
31540DG     SC3 5041  49.440  93.219  63.883
31540DG     SC4 5042  49.171  93.186  63.790
31541DA     BB1 5043  48.624  92.808  64.134
31541DA     BB2 5044  48.853  92.840  64.418
31541DA     BB3 5045  48.835  93.033  64.507
31541DA     SC1 5046  49.055  93.162  64.330
31541DA     SC2 5047  49.287  93.251  64.358
31541DA     SC3 5048  49.243  93.377  64.139
31541DA     SC4 5049  49.009  93.233  64.193
31542DT     BB1 5050  48.763  93.044  64.693
31542DT     BB2 5051  49.076  93.117  64.857
31542DT     BB3 5052  49.084  93.318  64.907
31542DT     SC1 5053  49.127  93.386  64.658
31542DT     SC2 5054  49.329  93.459  64.637
31542DT     SC3 5055  49.090  93.496  64.421
31543DT     BB1 5056  49.057  93.244  65.163
31543DT     BB2 5057  49.365  93.433  65.152
31543DT     BB3 5058  49.324  93.635  65.166
31543DT     SC1 5059  49.238  93.643  64.919
31543DT     SC2 5060  49.377  93.755  64.798
31543DT     SC3 5061  49.075  93.673  64.714
31544DA     BB1 5062  49.616  93.543  65.455
31544DA     BB2 5063  49.729  93.838  65.270
31544DA     BB3 5064  49.612  94.008  65.323
31544DA     SC1 5065  49.401  93.964  65.099
31544DA     SC2 5066  49.331  94.074  64.886
31544DA     SC3 5067  49.111  93.946  64.916
31544DA     SC4 5068  49.270  93.877  65.136
31545DG     BB1 5069  49.882  94.134  65.421
31545DG     BB2 5070  49.816  94.372  65.157
31545DG     BB3 5071  49.689  94.511  65.221
31545DG     SC1 5072  49.439  94.358  65.136
31545DG     SC2 5073  49.248  94.439  64.921
31545DG     SC3 5074  49.143  94.209  65.074
31545DG     SC4 5075  49.372  94.254  65.238
31546DT     BB1 5076  49.736  94.745  65.246
31546DT     BB2 5077  49.560  94.879  64.961
31546DT     BB3 5078  49.388  94.977  65.024
31546DT     SC1 5079  49.266  94.749  65.071
31546DT     SC2 5080  49.109  94.722  64.926
31546DT     SC3 5081  49.146  94.555  65.202
31547DG     BB1 5082  49.590  95.288  64.843
31547DG     BB2 5083  49.258  95.253  64.706
31547DG     BB3 5084  49.126  95.345  64.823
31547DG     SC1 5085  49.072  95.099  64.997
31547DG     SC2 5086  48.815  94.947  65.011
31547DG     SC3 5087  49.003  94.855  65.219
31547DG     SC4 5088  49.163  95.072  65.125
31548DT     BB1 5089  48.983  95.541  64.768
31548DT     BB2 5090  48.673  95.367  64.708
31548DT     BB3 5091  48.537  95.410  64.858
31548DT     SC1 5092  48.664  95.255  65.027
31548DT     SC2 5093  48.543  95.082  65.069
31548DT     SC3 5094  48.801  95.179  65.239
31549DT     BB1 5095  48.390  95.559  64.684
31549DT     BB2 5096  48.174  95.290  64.787
31549DT     BB3 5097  48.072  95.343  64.959
31549DT     SC1 5098  48.287  95.310  65.106
31549DT     SC2 5099  48.261  95.138  65.232
31549DT     SC3 5100  48.489  95.366  65.266
31550DC     BB1 5101  47.890  95.323  64.781
31550DC     BB2 5102  47.825  95.067  65.027
31550DC     BB3 5103  47.740  95.151  65.196
31550DC     SC1 5104  47.970  95.252  65.271
31550DC     SC2 5105  48.039  95.150  65.447
31550DC     SC3 5106  48.154  95.431  65.333
31551DA     BB1 5107  47.601  94.784  65.026
31551DA     BB2 5108  47.648  94.745  65.388
31551DA     BB3 5109  47.515  94.873  65.494
31551DA     SC1 5110  47.715  95.112  65.506
31551DA     SC2 5111  47.850  95.230  65.678
31551DA     SC3 5112  47.859  95.423  65.509
31551DA     SC4 5113  47.707  95.221  65.388
31552DC     BB1 5114  47.457  94.748  65.563
31552DC     BB2 5115  47.581  94.821  65.894
31552DC     BB3 5116  47.462  94.963  65.985
31552DC     SC1 5117  47.563  95.154  65.837
31552DC     SC2 5118  47.683  95.284  65.960
31552DC     SC3 5119  47.579  95.350  65.661
31553DA     BB1 5120  47.558  94.629  66.227
31553DA     BB2 5121  47.600  94.936  66.423
31553DA     BB3 5122  47.411  95.031  66.453
31553DA     SC1 5123  47.430  95.206  66.197
31553DA     SC2 5124  47.460  95.446  66.139
31553DA     SC3 5125  47.362  95.383  65.911
31553DA     SC4 5126  47.366  95.147  66.062
31554DT     BB1 5127  47.366  95.032  66.630
31554DT     BB2 5128  47.406  95.385  66.690
31554DT     BB3 5129  47.222  95.480  66.676
31554DT     SC1 5130  47.223  95.461  66.415
31554DT     SC2 5131  47.248  95.657  66.329
31554DT     SC3 5132  47.151  95.391  66.171
31555DT     BB1 5133  47.228  95.512  66.942
31555DT     BB2 5134  47.181  95.845  66.813
31555DT     BB3 5135  46.980  95.879  66.776
31555DT     SC1 5136  46.985  95.729  66.561
31555DT     SC2 5137  46.962  95.853  66.387
31555DT     SC3 5138  46.932  95.530  66.396
31556DG     BB1 5139  47.097  96.168  67.039
31556DG     BB2 5140  46.925  96.311  66.755
31556DG     BB3 5141  46.729  96.287  66.775
31556DG     SC1 5142  46.723  96.016  66.633
31556DG     SC2 5143  46.593  95.958  66.370
31556DG     SC3 5144  46.683  95.708  66.500
31556DG     SC4 5145  46.745  95.883  66.719
31557DA     BB1 5146  46.694  96.629  66.719
31557DA     BB2 5147  46.480  96.563  66.429
31557DA     BB3 5148  46.285  96.505  66.492
31557DA     SC1 5149  46.351  96.201  66.499
31557DA     SC2 5150  46.290  95.996  66.370
31557DA     SC3 5151  46.367  95.867  66.578
31557DA     SC4 5152  46.402  96.139  66.638
31558DT     BB1 5153  46.125  96.628  66.455
31558DT     BB2 5154  45.973  96.428  66.195
31558DT     BB3 5155  45.806  96.331  66.269
31558DT     SC1 5156  45.955  96.159  66.400
31558DT     SC2 5157  45.936  95.965  66.309
31558DT     SC3 5158  46.062  96.027  66.602
31559DT     BB1 5159  45.632  96.498  66.134
31559DT     BB2 5160  45.534  96.167  66.029
31559DT     BB3 5161  45.395  96.089  66.160
31559DT     SC1 5162  45.579  96.044  66.342
31559DT     SC2 5163  45.609  95.832  66.363
31559DT     SC3 5164  45.714  96.060  66.568
31560DA     BB1 5165  45.194  96.052  65.791
31560DA     BB2 5166  45.165  95.729  65.962
31560DA     BB3 5167  45.019  95.740  66.117
31560DA     SC1 5168  45.223  95.824  66.336
31560DA     SC2 5169  45.326  95.724  66.540
31560DA     SC3 5170  45.378  95.966  66.608
31560DA     SC4 5171  45.244  95.981  66.361
31561DA     BB1 5172  44.847  95.482  65.982
31561DA     BB2 5173  44.912  95.291  66.288
31561DA     BB3 5174  44.770  95.342  66.439
31561DA     SC1 5175  44.944  95.571  66.559
31561DA     SC2 5176  45.073  95.614  66.768
31561DA     SC3 5177  45.054  95.862  66.703
31561DA     SC4 5178  44.920  95.719  66.502
31562DT     BB1 5179  44.611  95.205  66.520
31562DT     BB2 5180  44.775  95.136  66.834
31562DT     BB3 5181  44.670  95.225  66.989
31562DT     SC1 5182  44.759  95.463  66.923
31562DT     SC2 5183  44.897  95.532  67.073
31562DT     SC3 5184  44.760  95.714  66.843
31563DG     BB1 5185  44.668  94.828  67.084
31563DG     BB2 5186  44.797  95.026  67.358
31563DG     BB3 5187  44.646  95.105  67.461
31563DG     SC1 5188  44.633  95.360  67.292
31563DG     SC2 5189  44.699  95.636  67.386
31563DG     SC3 5190  44.577  95.642  67.116
31563DG     SC4 5191  44.541  95.362  67.161
31564DT     BB1 5192  44.602  95.056  67.682
31564DT     BB2 5193  44.722  95.355  67.844
31564DT     BB3 5194  44.562  95.471  67.907
31564DT     SC1 5195  44.511  95.548  67.662
31564DT     SC2 5196  44.558  95.757  67.642
31564DT     SC3 5197  44.382  95.581  67.434
31565DA     BB1 5198  44.807  95.421  68.245
31565DA     BB2 5199  44.733  95.779  68.213
31565DA     BB3 5200  44.532  95.818  68.274
31565DA     SC1 5201  44.412  95.780  67.990
31565DA     SC2 5202  44.309  95.922  67.813
31565DA     SC3 5203  44.210  95.703  67.723
31565DA     SC4 5204  44.359  95.634  67.951
31566DT     BB1 5205  44.487  95.934  68.450
31566DT     BB2 5206  44.388  96.234  68.276
31566DT     BB3 5207  44.183  96.259  68.291
31566DT     SC1 5208  44.139  96.068  68.116
31566DT     SC2 5209  44.062  96.154  67.934
31566DT     SC3 5210  44.055  95.840  68.014
31567DT     BB1 5211  44.206  96.470  68.470
31567DT     BB2 5212  44.023  96.608  68.191
31567DT     BB3 5213  43.820  96.582  68.220
31567DT     SC1 5214  43.838  96.326  68.162
31567DT     SC2 5215  43.742  96.289  67.973
31567DT     SC3 5216  43.828  96.064  68.190
31568DA     BB1 5217  43.888  96.985  68.135
31568DA     BB2 5218  43.628  96.863  67.907
31568DA     BB3 5219  43.443  96.838  68.012
31568DA     SC1 5220  43.499  96.541  68.088
31568DA     SC2 5221  43.411  96.316  68.027
31568DA     SC3 5222  43.516  96.238  68.248
31568DA     SC4 5223  43.570  96.513  68.229
31569DG     BB1 5224  43.375  97.038  67.793
31569DG     BB2 5225  43.172  96.762  67.677
31569DG     BB3 5226  43.005  96.751  67.784
31569DG     SC1 5227  43.124  96.565  67.997
31569DG     SC2 5228  43.044  96.282  68.046
31569DG     SC3 5229  43.227  96.378  68.258
31569DG     SC4 5230  43.198  96.629  68.124
31570DA     BB1 5231  42.914  96.729  67.457
31570DA     BB2 5232  42.757  96.407  67.535
31570DA     BB3 5233  42.589  96.435  67.663
31570DA     SC1 5234  42.752  96.406  67.926
31570DA     SC2 5235  42.774  96.242  68.112
31570DA     SC3 5236  42.875  96.437  68.245
31570DA     SC4 5237  42.811  96.540  67.992
31571DC     BB1 5238  42.472  96.376  67.565
31571DC     BB2 5239  42.404  96.074  67.752
31571DC     BB3 5240  42.260  96.111  67.895
31571DC     SC1 5241  42.430  96.240  68.046
31571DC     SC2 5242  42.471  96.125  68.223
31571DC     SC3 5243  42.544  96.438  68.179
31572DG     BB1 5244  42.184  95.792  67.649
31572DG     BB2 5245  42.144  95.709  67.998
31572DG     BB3 5246  41.982  95.797  68.071
31572DG     SC1 5247  42.128  96.053  68.156
31572DG     SC2 5248  42.171  96.145  68.436
31572DG     SC3 5249  42.252  96.354  68.243
31572DG     SC4 5250  42.142  96.172  68.050
31573DT     BB1 5251  41.844  95.670  68.141
31573DT     BB2 5252  41.855  95.721  68.498
31573DT     BB3 5253  41.709  95.857  68.554
31573DT     SC1 5254  41.848  96.058  68.458
31573DT     SC2 5255  41.920  96.179  68.620
31573DT     SC3 5256  41.915  96.264  68.308
31574DA     BB1 5257  41.655  95.521  68.802
31574DA     BB2 5258  41.636  95.820  69.014
31574DA     BB3 5259  41.453  95.925  68.979
31574DA     SC1 5260  41.571  96.105  68.755
31574DA     SC2 5261  41.630  96.346  68.723
31574DA     SC3 5262  41.618  96.294  68.472
31574DA     SC4 5263  41.557  96.054  68.603
31575DA     BB1 5264  41.386  95.905  69.309
31575DA     BB2 5265  41.376  96.271  69.318
31575DA     BB3 5266  41.190  96.343  69.242
31575DA     SC1 5267  41.290  96.365  68.949
31575DA     SC2 5268  41.343  96.546  68.785
31575DA     SC3 5269  41.316  96.363  68.606
31575DA     SC4 5270  41.268  96.238  68.853
31576DG     BB1 5271  41.088  96.484  69.522
31576DG     BB2 5272  41.106  96.792  69.333
31576DG     BB3 5273  40.932  96.828  69.244
31576DG     SC1 5274  41.003  96.675  68.988
31576DG     SC2 5275  41.041  96.795  68.717
31576DG     SC3 5276  41.039  96.499  68.703
31576DG     SC4 5277  40.971  96.518  68.980
31577DT     BB1 5278  40.735  97.021  69.274
31577DT     BB2 5279  40.807  97.222  68.984
31577DT     BB3 5280  40.651  97.210  68.849
31577DT     SC1 5281  40.721  96.968  68.776
31577DT     SC2 5282  40.797  96.973  68.575
31577DT     SC3 5283  40.711  96.707  68.738
31578DT     BB1 5284  40.507  97.474  68.884
31578DT     BB2 5285  40.593  97.472  68.533
31578DT     BB3 5286  40.431  97.406  68.422
31578DT     SC1 5287  40.469  97.158  68.497
31578DT     SC2 5288  40.538  97.042  68.329
31578DT     SC3 5289  40.426  96.923  68.609
31579DT     BB1 5290  40.351  97.661  68.308
31579DT     BB2 5291  40.430  97.456  68.022
31579DT     BB3 5292  40.258  97.365  67.950
31579DT     SC1 5293  40.254  97.195  68.150
31579DT     SC2 5294  40.300  96.998  68.076
31579DT     SC3 5295  40.173  97.068  68.367
31580DT     BB1 5296  40.270  97.526  67.733
31580DT     BB2 5297  40.306  97.190  67.608
31580DT     BB3 5298  40.120  97.108  67.570
31580DT     SC1 5299  40.074  97.075  67.826
31580DT     SC2 5300  40.075  96.864  67.871
31580DT     SC3 5301  39.962  97.100  68.063
31581DA     BB1 5302  40.406  97.065  67.269
31581DA     BB2 5303  40.263  96.736  67.345
31581DA     BB3 5304  40.061  96.726  67.277
31581DA     SC1 5305  39.940  96.827  67.545
31581DA     SC2 5306  39.805  96.735  67.734
31581DA     SC3 5307  39.748  96.979  67.786
31581DA     SC4 5308  39.915  96.985  67.561
31582DA     BB1 5309  40.255  96.474  67.200
31582DA     BB2 5310  40.002  96.273  67.374
31582DA     BB3 5311  39.815  96.286  67.273
31582DA     SC1 5312  39.716  96.532  67.438
31582DA     SC2 5313  39.544  96.580  67.611
31582DA     SC3 5314  39.570  96.825  67.539
31582DA     SC4 5315  39.745  96.678  67.378
31583DG     BB1 5316  39.903  95.994  67.307
31583DG     BB2 5317  39.592  95.980  67.490
31583DG     BB3 5318  39.438  95.997  67.364
31583DG     SC1 5319  39.426  96.302  67.382
31583DG     SC2 5320  39.204  96.462  67.502
31583DG     SC3 5321  39.397  96.637  67.362
31583DG     SC4 5322  39.515  96.389  67.281
31584DA     BB1 5323  39.332  95.718  67.541
31584DA     BB2 5324  39.016  95.888  67.613
31584DA     BB3 5325  38.900  95.907  67.435
31584DA     SC1 5326  39.018  96.184  67.358
31584DA     SC2 5327  38.940  96.421  67.347
31584DA     SC3 5328  39.139  96.458  67.190
31584DA     SC4 5329  39.146  96.187  67.261
31585DC     BB1 5330  38.726  95.802  67.415
31585DC     BB2 5331  38.495  96.077  67.438
31585DC     BB3 5332  38.421  96.123  67.250
31585DC     SC1 5333  38.648  96.238  67.181
31585DC     SC2 5334  38.618  96.450  67.164
31585DC     SC3 5335  38.873  96.284  67.053
31586DA     BB1 5336  38.058  96.060  67.456
31586DA     BB2 5337  38.017  96.371  67.266
31586DA     BB3 5338  37.979  96.328  67.061
31586DA     SC1 5339  38.279  96.333  66.979
31586DA     SC2 5340  38.432  96.477  66.845
31586DA     SC3 5341  38.583  96.271  66.833
31586DA     SC4 5342  38.359  96.193  66.982
31587DT     BB1 5343  37.775  96.358  66.932
31587DT     BB2 5344  37.886  96.644  66.743
31587DT     BB3 5345  37.905  96.594  66.543
31587DT     SC1 5346  38.126  96.460  66.590
31587DT     SC2 5347  38.293  96.565  66.503
31587DT     SC3 5348  38.295  96.258  66.608
31588DG     BB1 5349  37.615  96.885  66.506
31588DG     BB2 5350  37.892  96.957  66.285
31588DG     BB3 5351  37.869  96.858  66.114
31588DG     SC1 5352  38.019  96.609  66.209
31588DG     SC2 5353  38.281  96.511  66.104
31588DG     SC3 5354  38.160  96.312  66.287
31588DG     SC4 5355  37.937  96.493  66.283
31589DA     BB1 5356  37.901  97.152  65.924
31589DA     BB2 5357  38.203  97.022  65.762
31589DA     BB3 5358  38.150  96.893  65.599
31589DA     SC1 5359  38.146  96.635  65.773
31589DA     SC2 5360  38.282  96.427  65.797
31589DA     SC3 5361  38.073  96.328  65.909
31589DA     SC4 5362  38.006  96.591  65.838
31590DT     BB1 5363  38.196  96.949  65.403
31590DT     BB2 5364  38.475  96.724  65.363
31590DT     BB3 5365  38.424  96.570  65.236
31590DT     SC1 5366  38.277  96.455  65.421
31590DT     SC2 5367  38.372  96.273  65.484
31590DT     SC3 5368  38.066  96.359  65.546
31591DT     BB1 5369  38.588  96.679  65.053
31591DT     BB2 5370  38.715  96.345  65.102
31591DT     BB3 5371  38.615  96.213  64.978
31591DT     SC1 5372  38.400  96.221  65.129
31591DT     SC2 5373  38.375  96.031  65.228
31591DT     SC3 5374  38.151  96.264  65.204
31592DT     BB1 5375  38.845  96.198  64.848
31592DT     BB2 5376  38.769  95.858  64.945
31592DT     BB3 5377  38.640  95.773  64.808
31592DT     SC1 5378  38.437  95.911  64.901
31592DT     SC2 5379  38.301  95.778  65.002
31592DT     SC3 5380  38.238  96.082  64.910
31593DA     BB1 5381  38.966  95.518  64.875
31593DA     BB2 5382  38.659  95.318  64.896
31593DA     BB3 5383  38.573  95.294  64.702
31593DA     SC1 5384  38.395  95.549  64.723
31593DA     SC2 5385  38.153  95.603  64.744
31593DA     SC3 5386  38.218  95.835  64.657
31593DA     SC4 5387  38.456  95.686  64.666
31594DA     BB1 5388  38.589  94.980  64.797
31594DA     BB2 5389  38.226  94.968  64.751
31594DA     BB3 5390  38.177  94.966  64.543
31594DA     SC1 5391  38.157  95.276  64.520
31594DA     SC2 5392  37.980  95.447  64.485
31594DA     SC3 5393  38.171  95.602  64.412
31594DA     SC4 5394  38.290  95.356  64.476
31595DA     BB1 5395  38.007  94.695  64.625
31595DA     BB2 5396  37.706  94.866  64.503
31595DA     BB3 5397  37.703  94.867  64.290
31595DA     SC1 5398  37.853  95.138  64.264
31595DA     SC2 5399  37.801  95.372  64.193
31595DA     SC3 5400  38.055  95.397  64.163
31595DA     SC4 5401  38.013  95.133  64.250
31596DT     BB1 5402  37.558  94.755  64.174
31596DT     BB2 5403  37.359  95.036  64.066
31596DT     BB3 5404  37.390  95.071  63.865
31596DT     SC1 5405  37.626  95.176  63.911
31596DT     SC2 5406  37.620  95.388  63.872
31596DT     SC3 5407  37.888  95.210  63.909
31597DT     BB1 5408  37.142  94.968  63.782
31597DT     BB2 5409  37.144  95.303  63.648
31597DT     BB3 5410  37.224  95.302  63.457
31597DT     SC1 5411  37.467  95.270  63.550
31597DT     SC2 5412  37.580  95.450  63.516
31597DT     SC3 5413  37.702  95.162  63.597
31598DT     BB1 5414  36.977  95.340  63.331
31598DT     BB2 5415  37.179  95.614  63.211
31598DT     BB3 5416  37.277  95.559  63.037
31598DT     SC1 5417  37.447  95.410  63.170
31598DT     SC2 5418  37.641  95.501  63.164
31598DT     SC3 5419  37.577  95.197  63.254
31599DA     BB1 5420  37.079  95.918  62.952
31599DA     BB2 5421  37.427  95.954  62.841
31599DA     BB3 5422  37.459  95.844  62.661
31599DA     SC1 5423  37.544  95.583  62.807
31599DA     SC2 5424  37.753  95.450  62.839
31599DA     SC3 5425  37.595  95.256  62.898
31599DA     SC4 5426  37.430  95.475  62.839
31600DT     BB1 5427  37.500  95.947  62.492
31600DT     BB2 5428  37.851  95.866  62.477
31600DT     BB3 5429  37.885  95.726  62.329
31600DT     SC1 5430  37.783  95.534  62.476
31600DT     SC2 5431  37.939  95.399  62.536
31600DT     SC3 5432  37.621  95.341  62.554
31601DG     BB1 5433  38.116  96.052  62.251
31601DG     BB2 5434  38.312  95.748  62.253
31601DG     BB3 5435  38.284  95.648  62.084
31601DG     SC1 5436  38.046  95.487  62.189
31601DG     SC2 5437  38.041  95.192  62.236
31601DG     SC3 5438  37.770  95.308  62.265
31601DG     SC4 5439  37.899  95.547  62.174
31602DA     BB1 5440  38.630  95.642  62.066
31602DA     BB2 5441  38.623  95.276  62.063
31602DA     BB3 5442  38.559  95.204  61.872
31602DA     SC1 5443  38.258  95.197  61.949
31602DA     SC2 5444  38.082  95.025  61.991
31602DA     SC3 5445  37.915  95.215  61.947
31602DA     SC4 5446  38.170  95.328  61.917
31603DA     BB1 5447  38.840  95.038  61.904
31603DA     BB2 5448  38.637  94.733  61.885
31603DA     BB3 5449  38.571  94.700  61.685
31603DA     SC1 5450  38.306  94.860  61.720
31603DA     SC2 5451  38.061  94.812  61.732
31603DA     SC3 5452  38.031  95.060  61.673
31603DA     SC4 5453  38.308  95.016  61.682
31604DA     BB1 5454  38.710  94.408  61.740
31604DA     BB2 5455  38.379  94.261  61.683
31604DA     BB3 5456  38.332  94.262  61.475
31604DA     SC1 5457  38.194  94.541  61.482
31604DA     SC2 5458  37.963  94.633  61.460
31604DA     SC3 5459  38.080  94.856  61.407
31604DA     SC4 5460  38.285  94.670  61.451
31605DA     BB1 5461  38.283  93.945  61.542
31605DA     BB2 5462  37.936  93.998  61.438
31605DA     BB3 5463  37.924  94.015  61.225
31605DA     SC1 5464  37.959  94.324  61.224
31605DA     SC2 5465  37.820  94.526  61.175
31605DA     SC3 5466  38.044  94.648  61.145
31605DA     SC4 5467  38.108  94.382  61.208
31606DA     BB1 5468  37.703  93.779  61.276
31606DA     BB2 5469  37.456  94.007  61.129
31606DA     BB3 5470  37.482  94.018  60.917
31606DA     SC1 5471  37.679  94.258  60.929
31606DA     SC2 5472  37.679  94.500  60.869
31606DA     SC3 5473  37.935  94.480  60.872
31606DA     SC4 5474  37.836  94.225  60.935
31607DT     BB1 5475  37.335  93.947  60.811
31607DT     BB2 5476  37.204  94.264  60.700
31607DT     BB3 5477  37.262  94.300  60.505
31607DT     SC1 5478  37.507  94.357  60.579
31607DT     SC2 5479  37.543  94.567  60.551
31607DT     SC3 5480  37.769  94.341  60.604
31608DG     BB1 5481  36.855  94.315  60.525
31608DG     BB2 5482  36.992  94.611  60.369
31608DG     BB3 5483  37.047  94.570  60.182
31608DG     SC1 5484  37.332  94.487  60.258
31608DG     SC2 5485  37.582  94.633  60.184
31608DG     SC3 5486  37.644  94.371  60.307
31608DG     SC4 5487  37.361  94.335  60.297
31609DT     BB1 5488  36.951  94.673  60.021
31609DT     BB2 5489  37.209  94.901  59.914
31609DT     BB3 5490  37.302  94.829  59.744
31609DT     SC1 5491  37.432  94.648  59.883
31609DT     SC2 5492  37.641  94.698  59.887
31609DT     SC3 5493  37.513  94.413  59.970
31610DA     BB1 5494  37.186  95.225  59.664
31610DA     BB2 5495  37.536  95.186  59.561
31610DA     BB3 5496  37.548  95.068  59.384
31610DA     SC1 5497  37.576  94.798  59.536
31610DA     SC2 5498  37.751  94.625  59.575
31610DA     SC3 5499  37.556  94.469  59.633
31610DA     SC4 5500  37.441  94.716  59.567
31611DC     BB1 5501  37.612  95.152  59.202
31611DC     BB2 5502  37.938  94.997  59.192
31611DC     BB3 5503  37.941  94.847  59.050
31611DC     SC1 5504  37.801  94.688  59.205
31611DC     SC2 5505  37.926  94.526  59.272
31611DC     SC3 5506  37.602  94.537  59.291
31612DA     BB1 5507  38.267  95.092  58.951
31612DA     BB2 5508  38.387  94.745  58.956
31612DA     BB3 5509  38.321  94.642  58.782
31612DA     SC1 5510  38.058  94.539  58.912
31612DA     SC2 5511  37.962  94.322  58.989
31612DA     SC3 5512  37.735  94.440  58.973
31612DA     SC4 5513  37.926  94.630  58.895
31613DC     BB1 5514  38.458  94.577  58.634
31613DC     BB2 5515  38.447  94.226  58.717
31613DC     BB3 5516  38.341  94.122  58.572
31613DC     SC1 5517  38.112  94.214  58.661
31613DC     SC2 5518  38.001  94.054  58.752
31613DC     SC3 5519  37.883  94.344  58.668
31614DC     BB1 5520  38.571  94.008  58.470
31614DC     BB2 5521  38.362  93.726  58.555
31614DC     BB3 5522  38.240  93.678  58.395
31614DC     SC1 5523  38.086  93.885  58.440
31614DC     SC2 5524  37.894  93.818  58.511
31614DC     SC3 5525  37.962  94.115  58.403
31615DA     BB1 5526  38.434  93.323  58.505
31615DA     BB2 5527  38.076  93.250  58.479
31615DA     BB3 5528  38.017  93.241  58.275
31615DA     SC1 5529  37.944  93.543  58.257
31615DA     SC2 5530  37.739  93.682  58.234
31615DA     SC3 5531  37.898  93.867  58.153
31615DA     SC4 5532  38.059  93.644  58.207
31616DG     BB1 5533  37.936  92.948  58.343
31616DG     BB2 5534  37.603  93.071  58.272
31616DG     BB3 5535  37.570  93.067  58.076
31616DG     SC1 5536  37.677  93.350  58.028
31616DG     SC2 5537  37.516  93.586  57.940
31616DG     SC3 5538  37.805  93.648  57.936
31616DG     SC4 5539  37.833  93.370  57.998
31617DG     BB1 5540  37.312  92.872  58.130
31617DG     BB2 5541  37.110  93.139  57.993
31617DG     BB3 5542  37.109  93.128  57.794
31617DG     SC1 5543  37.356  93.306  57.759
31617DG     SC2 5544  37.360  93.578  57.635
31617DG     SC3 5545  37.635  93.480  57.684
31617DG     SC4 5546  37.501  93.238  57.759
31618DA     BB1 5547  36.765  93.141  57.822
31618DA     BB2 5548  36.760  93.447  57.620
31618DA     BB3 5549  36.791  93.401  57.414
31618DA     SC1 5550  37.100  93.430  57.428
31618DA     SC2 5551  37.275  93.586  57.344
31618DA     SC3 5552  37.439  93.392  57.384
31618DA     SC4 5553  37.186  93.297  57.459
31619DC     BB1 5554  36.640  93.438  57.295
31619DC     BB2 5555  36.779  93.731  57.138
31619DC     BB3 5556  36.849  93.683  56.949
31619DC     SC1 5557  37.059  93.561  57.049
31619DC     SC2 5558  37.236  93.675  57.005
31619DC     SC3 5559  37.229  93.368  57.108
31620DT     BB1 5560  36.643  93.822  56.848
31620DT     BB2 5561  36.937  93.977  56.707
31620DT     BB3 5562  36.996  93.874  56.537
31620DT     SC1 5563  37.092  93.676  56.680
31620DT     SC2 5564  37.307  93.675  56.665
31620DT     SC3 5565  37.123  93.434  56.779
31621DT     BB1 5566  36.911  94.084  56.393
31621DT     BB2 5567  37.258  94.043  56.302
31621DT     BB3 5568  37.275  93.902  56.151
31621DT     SC1 5569  37.231  93.706  56.319
31621DT     SC2 5570  37.412  93.592  56.345
31621DT     SC3 5571  37.115  93.499  56.434
31622DA     BB1 5572  37.484  94.250  56.043
31622DA     BB2 5573  37.704  93.962  55.989
31622DA     BB3 5574  37.638  93.848  55.821
31622DA     SC1 5575  37.454  93.661  55.989
31622DA     SC2 5576  37.450  93.422  56.061
31622DA     SC3 5577  37.199  93.460  56.101
31622DA     SC4 5578  37.300  93.704  56.007
31623DA     BB1 5579  37.953  93.902  55.756
31623DA     BB2 5580  37.991  93.538  55.756
31623DA     BB3 5581  37.899  93.453  55.583
31623DA     SC1 5582  37.623  93.413  55.720
31623DA     SC2 5583  37.482  93.222  55.798
31623DA     SC3 5584  37.287  93.389  55.787
31623DA     SC4 5585  37.515  93.531  55.705
31624DG     BB1 5586  38.190  93.359  55.554
31624DG     BB2 5587  38.035  93.034  55.589
31624DG     BB3 5588  37.948  92.982  55.418
31624DG     SC1 5589  37.679  93.109  55.488
31624DG     SC2 5590  37.423  92.964  55.537
31624DG     SC3 5591  37.377  93.256  55.524
31624DG     SC4 5592  37.654  93.263  55.451
31625DA     BB1 5593  38.127  92.692  55.477
31625DA     BB2 5594  37.814  92.501  55.464
31625DA     BB3 5595  37.739  92.495  55.264
31625DA     SC1 5596  37.567  92.753  55.296
31625DA     SC2 5597  37.325  92.813  55.308
31625DA     SC3 5598  37.402  93.049  55.243
31625DA     SC4 5599  37.634  92.893  55.254
31626DA     BB1 5600  37.740  92.175  55.340
31626DA     BB2 5601  37.380  92.178  55.269
31626DA     BB3 5602  37.347  92.198  55.059
31626DA     SC1 5603  37.336  92.509  55.065
31626DA     SC2 5604  37.166  92.688  55.036
31626DA     SC3 5605  37.366  92.843  54.991
31626DA     SC4 5606  37.474  92.588  55.039
31627DT     BB1 5607  37.265  92.043  54.952
31627DT     BB2 5608  36.941  92.189  54.891
31627DT     BB3 5609  36.929  92.256  54.696
31627DT     SC1 5610  37.082  92.463  54.750
31627DT     SC2 5611  36.963  92.642  54.741
31627DT     SC3 5612  37.287  92.628  54.744
31628DA     BB1 5613  36.592  91.998  54.699
31628DA     BB2 5614  36.482  92.314  54.548
31628DA     BB3 5615  36.550  92.327  54.346
31628DA     SC1 5616  36.817  92.469  54.420
31628DA     SC2 5617  36.919  92.695  54.392
31628DA     SC3 5618  37.143  92.575  54.432
31628DA     SC4 5619  36.946  92.377  54.445
31629DC     BB1 5620  36.428  92.315  54.114
31629DC     BB2 5621  36.451  92.669  54.045
31629DC     BB3 5622  36.571  92.701  53.880
31629DC     SC1 5623  36.788  92.651  54.019
31629DC     SC2 5624  36.900  92.833  54.044
31629DC     SC3 5625  37.010  92.532  54.099
31630DA     BB1 5626  36.228  92.892  53.709
31630DA     BB2 5627  36.504  93.132  53.683
31630DA     BB3 5628  36.622  93.091  53.510
31630DA     SC1 5629  36.817  92.900  53.659
31630DA     SC2 5630  37.056  92.901  53.732
31630DA     SC3 5631  37.032  92.645  53.744
31630DA     SC4 5632  36.783  92.743  53.659
31631DC     BB1 5633  36.655  93.226  53.295
31631DC     BB2 5634  36.974  93.359  53.400
31631DC     BB3 5635  37.122  93.295  53.271
31631DC     SC1 5636  37.119  93.054  53.373
31631DC     SC2 5637  37.301  93.020  53.482
31631DC     SC3 5638  37.089  92.792  53.391
31632DA     BB1 5639  37.146  93.709  53.304
31632DA     BB2 5640  37.475  93.571  53.385
31632DA     BB3 5641  37.576  93.509  53.207
31632DA     SC1 5642  37.465  93.219  53.216
31632DA     SC2 5643  37.552  92.989  53.258
31632DA     SC3 5644  37.341  92.909  53.135
31632DA     SC4 5645  37.329  93.189  53.136
31633DT     BB1 5646  37.728  93.608  53.186
31633DT     BB2 5647  37.959  93.352  53.290
31633DT     BB3 5648  38.046  93.263  53.125
31633DT     SC1 5649  37.826  93.131  53.070
31633DT     SC2 5650  37.858  92.921  53.107
31633DT     SC3 5651  37.611  93.049  52.941
31634DA     BB1 5652  38.309  93.372  53.435
31634DA     BB2 5653  38.380  93.027  53.333
31634DA     BB3 5654  38.462  93.023  53.136
31634DA     SC1 5655  38.186  92.995  52.996
31634DA     SC2 5656  38.061  92.821  52.868
31634DA     SC3 5657  37.921  93.016  52.778
31634DA     SC4 5658  38.112  93.130  52.950
31635DT     BB1 5659  38.620  92.959  53.156
31635DT     BB2 5660  38.560  92.638  53.003
31635DT     BB3 5661  38.611  92.644  52.802
31635DT     SC1 5662  38.395  92.782  52.744
31635DT     SC2 5663  38.260  92.659  52.630
31635DT     SC3 5664  38.242  92.981  52.664
31636DA     BB1 5665  38.784  92.309  52.988
31636DA     BB2 5666  38.634  92.201  52.671
31636DA     BB3 5667  38.746  92.278  52.506
31636DA     SC1 5668  38.578  92.539  52.483
31636DA     SC2 5669  38.414  92.639  52.324
31636DA     SC3 5670  38.474  92.863  52.435
31636DA     SC4 5671  38.630  92.668  52.563
31637DG     BB1 5672  38.780  91.976  52.439
31637DG     BB2 5673  38.604  92.068  52.137
31637DG     BB3 5674  38.730  92.153  52.008
31637DG     SC1 5675  38.684  92.437  52.113
31637DG     SC2 5676  38.553  92.660  51.963
31637DG     SC3 5677  38.674  92.758  52.215
31637DG     SC4 5678  38.775  92.491  52.233
31638DA     BB1 5679  38.630  91.927  51.758
31638DA     BB2 5680  38.526  92.204  51.541
31638DA     BB3 5681  38.697  92.294  51.450
31638DA     SC1 5682  38.738  92.503  51.676
31638DA     SC2 5683  38.715  92.749  51.706
31638DA     SC3 5684  38.872  92.719  51.907
31638DA     SC4 5685  38.838  92.464  51.796
31639DT     BB1 5686  38.744  92.283  51.233
31639DT     BB2 5687  38.660  92.624  51.151
31639DT     BB3 5688  38.832  92.731  51.110
31639DT     SC1 5689  38.896  92.742  51.364
31639DT     SC2 5690  38.875  92.944  51.434
31639DT     SC3 5691  39.030  92.705  51.588
31640DC     BB1 5692  38.797  92.741  50.828
31640DC     BB2 5693  38.829  93.088  50.921
31640DC     BB3 5694  39.027  93.146  50.910
31640DC     SC1 5695  39.085  93.017  51.131
31640DC     SC2 5696  39.129  93.158  51.287
31640DC     SC3 5697  39.195  92.841  51.294
31641DA     BB1 5698  38.837  93.430  50.666
31641DA     BB2 5699  39.050  93.616  50.899
31641DA     BB3 5700  39.254  93.606  50.837
31641DA     SC1 5701  39.317  93.349  51.001
31641DA     SC2 5702  39.451  93.287  51.202
31641DA     SC3 5703  39.440  93.048  51.111
31641DA     SC4 5704  39.300  93.208  50.928
31642DT     BB1 5705  39.362  93.780  50.769
31642DT     BB2 5706  39.557  93.824  51.069
31642DT     BB3 5707  39.755  93.774  51.033
31642DT     SC1 5708  39.698  93.517  51.033
31642DT     SC2 5709  39.784  93.425  51.208
31642DT     SC3 5710  39.669  93.270  50.948
31643DT     BB1 5711  39.831  94.037  51.042
31643DT     BB2 5712  40.029  93.877  51.298
31643DT     BB3 5713  40.205  93.805  51.216
31643DT     SC1 5714  40.079  93.606  51.101
31643DT     SC2 5715  40.135  93.421  51.197
31643DT     SC3 5716  39.984  93.449  50.912
31644DA     BB1 5717  40.294  94.035  51.555
31644DA     BB2 5718  40.470  93.715  51.584
31644DA     BB3 5719  40.635  93.708  51.448
31644DA     SC1 5720  40.469  93.581  51.217
31644DA     SC2 5721  40.455  93.362  51.098
31644DA     SC3 5722  40.340  93.494  50.911
31644DA     SC4 5723  40.400  93.681  51.111
31645DG     BB1 5724  40.782  93.669  51.715
31645DG     BB2 5725  40.860  93.347  51.571
31645DG     BB3 5726  41.010  93.365  51.441
31645DG     SC1 5727  40.828  93.420  51.201
31645DG     SC2 5728  40.790  93.241  50.965
31645DG     SC3 5729  40.661  93.503  50.921
31645DG     SC4 5730  40.786  93.571  51.169
31646DA     BB1 5731  41.138  93.103  51.625
31646DA     BB2 5732  41.154  92.900  51.319
31646DA     BB3 5733  41.312  92.969  51.194
31646DA     SC1 5734  41.133  93.170  51.037
31646DA     SC2 5735  41.039  93.192  50.807
31646DA     SC3 5736  41.013  93.441  50.864
31646DA     SC4 5737  41.127  93.321  51.091
31647DT     BB1 5738  41.460  92.844  51.168
31647DT     BB2 5739  41.386  92.753  50.826
31647DT     BB3 5740  41.514  92.853  50.698
31647DT     SC1 5741  41.385  93.079  50.731
31647DT     SC2 5742  41.282  93.129  50.549
31647DT     SC3 5743  41.337  93.329  50.799
31648DT     BB1 5744  41.645  92.620  50.650
31648DT     BB2 5745  41.546  92.736  50.323
31648DT     BB3 5746  41.689  92.866  50.248
31648DT     SC1 5747  41.610  93.058  50.409
31648DT     SC2 5748  41.515  93.213  50.294
31648DT     SC3 5749  41.614  93.238  50.601
31649DA     BB1 5750  41.636  92.577  49.949
31649DA     BB2 5751  41.621  92.907  49.788
31649DA     BB3 5752  41.816  92.992  49.775
31649DA     SC1 5753  41.798  93.138  50.049
31649DA     SC2 5754  41.781  93.372  50.132
31649DA     SC3 5755  41.867  93.277  50.355
31649DA     SC4 5756  41.853  93.060  50.178
31650DT     BB1 5757  41.912  93.021  49.588
31650DT     BB2 5758  41.874  93.379  49.575
31650DT     BB3 5759  42.056  93.471  49.609
31650DT     SC1 5760  42.045  93.417  49.865
31650DT     SC2 5761  42.016  93.599  49.976
31650DT     SC3 5762  42.106  93.314  50.100
31651DT     BB1 5763  42.087  93.545  49.343
31651DT     BB2 5764  42.110  93.856  49.525
31651DT     BB3 5765  42.307  93.892  49.579
31651DT     SC1 5766  42.296  93.710  49.768
31651DT     SC2 5767  42.303  93.807  49.960
31651DT     SC3 5768  42.349  93.491  49.904
31652DA     BB1 5769  42.180  94.239  49.380
31652DA     BB2 5770  42.333  94.342  49.697
31652DA     BB3 5771  42.546  94.325  49.686
31652DA     SC1 5772  42.552  94.032  49.791
31652DA     SC2 5773  42.626  93.911  49.997
31652DA     SC3 5774  42.627  93.702  49.849
31652DA     SC4 5775  42.548  93.914  49.683
31653DA     BB1 5776  42.535  94.640  49.778
31653DA     BB2 5777  42.713  94.537  50.082
31653DA     BB3 5778  42.920  94.507  50.039
31653DA     SC1 5779  42.887  94.205  49.972
31653DA     SC2 5780  42.950  93.986  50.071
31653DA     SC3 5781  42.916  93.891  49.835
31653DA     SC4 5782  42.862  94.166  49.818
31654DT     BB1 5783  43.050  94.631  50.126
31654DT     BB2 5784  43.169  94.397  50.374
31654DT     BB3 5785  43.357  94.328  50.321
31654DT     SC1 5786  43.257  94.175  50.133
31654DT     SC2 5787  43.279  93.969  50.191
31654DT     SC3 5788  43.207  94.077  49.894
31655DA     BB1 5789  43.354  94.461  50.718
31655DA     BB2 5790  43.504  94.127  50.709
31655DA     BB3 5791  43.697  94.135  50.619
31655DA     SC1 5792  43.592  94.083  50.331
31655DA     SC2 5793  43.601  93.900  50.161
31655DA     SC3 5794  43.544  94.083  49.991
31655DA     SC4 5795  43.558  94.211  50.240
31656DA     BB1 5796  43.735  93.978  50.902
31656DA     BB2 5797  43.854  93.696  50.699
31656DA     BB3 5798  44.044  93.742  50.614
31656DA     SC1 5799  43.926  93.864  50.353
31656DA     SC2 5800  43.913  93.805  50.111
31656DA     SC3 5801  43.866  94.054  50.074
31656DA     SC4 5802  43.900  94.022  50.351
31657DC     BB1 5803  44.161  93.628  50.680
31657DC     BB2 5804  44.208  93.430  50.382
31657DC     BB3 5805  44.374  93.496  50.278
31657DC     SC1 5806  44.245  93.708  50.193
31657DC     SC2 5807  44.212  93.690  49.981
31657DC     SC3 5808  44.180  93.961  50.156
31658DG     BB1 5809  44.401  93.098  50.361
31658DG     BB2 5810  44.462  93.168  50.011
31658DG     BB3 5811  44.642  93.250  49.989
31658DG     SC1 5812  44.541  93.538  50.022
31658DG     SC2 5813  44.539  93.748  49.810
31658DG     SC3 5814  44.469  93.863  50.073
31658DG     SC4 5815  44.533  93.601  50.169
31659DA     BB1 5816  44.688  93.005  49.747
31659DA     BB2 5817  44.760  93.265  49.499
31659DA     BB3 5818  44.952  93.351  49.535
31659DA     SC1 5819  44.843  93.576  49.721
31659DA     SC2 5820  44.814  93.823  49.714
31659DA     SC3 5821  44.802  93.809  49.970
31659DA     SC4 5822  44.839  93.546  49.879
31660DA     BB1 5823  45.007  93.271  49.217
31660DA     BB2 5824  45.068  93.628  49.156
31660DA     BB3 5825  45.259  93.685  49.233
31660DA     SC1 5826  45.149  93.764  49.513
31660DA     SC2 5827  45.114  93.972  49.646
31660DA     SC3 5828  45.108  93.817  49.850
31660DA     SC4 5829  45.149  93.651  49.628
31661DG     BB1 5830  45.371  93.765  48.942
31661DG     BB2 5831  45.392  94.098  49.082
31661DG     BB3 5832  45.568  94.123  49.171
31661DG     SC1 5833  45.472  94.022  49.444
31661DG     SC2 5834  45.446  94.186  49.692
31661DG     SC3 5835  45.406  93.899  49.751
31661DG     SC4 5836  45.481  93.866  49.476
31662DC     BB1 5837  45.765  94.279  49.113
31662DC     BB2 5838  45.723  94.530  49.368
31662DC     BB3 5839  45.878  94.519  49.505
31662DC     SC1 5840  45.777  94.303  49.613
31662DC     SC2 5841  45.705  94.349  49.811
31662DC     SC3 5842  45.753  94.052  49.691
31663DT     BB1 5843  46.027  94.751  49.420
31663DT     BB2 5844  45.959  94.816  49.768
31663DT     BB3 5845  46.117  94.750  49.885
31663DT     SC1 5846  46.046  94.499  49.853
31663DT     SC2 5847  45.972  94.422  50.039
31663DT     SC3 5848  46.056  94.246  49.780
31664DA     BB1 5849  46.058  95.149  49.994
31664DA     BB2 5850  46.057  94.949  50.301
31664DA     BB3 5851  46.256  94.893  50.354
31664DA     SC1 5852  46.250  94.626  50.194
31664DA     SC2 5853  46.246  94.382  50.242
31664DA     SC3 5854  46.330  94.353  50.002
31664DA     SC4 5855  46.303  94.629  50.042
31665DA     BB1 5856  46.148  95.030  50.626
31665DA     BB2 5857  46.194  94.702  50.782
31665DA     BB3 5858  46.401  94.664  50.816
31665DA     SC1 5859  46.446  94.526  50.541
31665DA     SC2 5860  46.493  94.296  50.455
31665DA     SC3 5861  46.576  94.415  50.243
31665DA     SC4 5862  46.494  94.618  50.419
31666DC     BB1 5863  46.421  94.650  50.989
31666DC     BB2 5864  46.463  94.291  50.998
31666DC     BB3 5865  46.664  94.244  51.002
31666DC     SC1 5866  46.691  94.303  50.748
31666DC     SC2 5867  46.726  94.123  50.636
31666DC     SC3 5868  46.772  94.426  50.529
31667DA     BB1 5869  46.421  94.038  51.278
31667DA     BB2 5870  46.639  93.798  51.107
31667DA     BB3 5871  46.843  93.831  51.161
31667DA     SC1 5872  46.898  94.029  50.928
31667DA     SC2 5873  47.030  94.033  50.717
31667DA     SC3 5874  47.012  94.288  50.734
31667DA     SC4 5875  46.877  94.186  50.957
31668DT     BB1 5876  46.880  93.687  51.234
31668DT     BB2 5877  47.109  93.562  50.984
31668DT     BB3 5878  47.301  93.627  51.026
31668DT     SC1 5879  47.245  93.869  50.943
31668DT     SC2 5880  47.351  93.908  50.760
31668DT     SC3 5881  47.208  94.130  50.948
31669DT     BB1 5882  47.342  93.374  51.084
31669DT     BB2 5883  47.601  93.458  50.847
31669DT     BB3 5884  47.756  93.557  50.942
31669DT     SC1 5885  47.614  93.777  50.961
31669DT     SC2 5886  47.698  93.926  50.831
31669DT     SC3 5887  47.483  93.979  51.068
31670DA     BB1 5888  47.950  93.240  50.741
31670DA     BB2 5889  48.149  93.543  50.686
31670DA     BB3 5890  48.254  93.597  50.864
31670DA     SC1 5891  48.027  93.780  50.972
31670DA     SC2 5892  47.988  94.024  51.008
31670DA     SC3 5893  47.804  93.949  51.171
31670DA     SC4 5894  47.918  93.714  51.070
31671DA     BB1 5895  48.559  93.589  50.710
31671DA     BB2 5896  48.602  93.944  50.792
31671DA     BB3 5897  48.670  93.965  50.993
31671DA     SC1 5898  48.384  93.983  51.115
31671DA     SC2 5899  48.240  94.156  51.222
31671DA     SC3 5900  48.108  93.957  51.317
31671DA     SC4 5901  48.316  93.847  51.165
31672DA     BB1 5902  48.948  94.141  50.901
31672DA     BB2 5903  48.816  94.428  51.087
31672DA     BB3 5904  48.867  94.412  51.293
31672DA     SC1 5905  48.608  94.258  51.371
31672DA     SC2 5906  48.400  94.302  51.501
31672DA     SC3 5907  48.379  94.046  51.514
31672DA     SC4 5908  48.614  94.098  51.369
31673DC     BB1 5909  49.010  94.549  51.405
31673DC     BB2 5910  48.752  94.737  51.573
31673DC     BB3 5911  48.755  94.695  51.776
31673DC     SC1 5912  48.646  94.460  51.738
31673DC     SC2 5913  48.446  94.460  51.816
31673DC     SC3 5914  48.617  94.198  51.733
31674DC     BB1 5915  48.853  94.943  51.825
31674DC     BB2 5916  48.543  94.928  52.008
31674DC     BB3 5917  48.576  94.848  52.196
31674DC     SC1 5918  48.601  94.606  52.097
31674DC     SC2 5919  48.432  94.487  52.157
31674DC     SC3 5920  48.710  94.375  52.031
31675DT     BB1 5921  48.521  95.092  52.273
31675DT     BB2 5922  48.276  94.881  52.434
31675DT     BB3 5923  48.358  94.794  52.603
31675DT     SC1 5924  48.499  94.626  52.458
31675DT     SC2 5925  48.421  94.427  52.483
31675DT     SC3 5926  48.707  94.504  52.352
31676DT     BB1 5927  48.187  94.952  52.718
31676DT     BB2 5928  48.105  94.620  52.833
31676DT     BB3 5929  48.236  94.563  52.983
31676DT     SC1 5930  48.429  94.522  52.809
31676DT     SC2 5931  48.469  94.311  52.795
31676DT     SC3 5932  48.659  94.549  52.684
31677DA     BB1 5933  47.838  94.495  53.106
31677DA     BB2 5934  48.036  94.197  53.184
31677DA     BB3 5935  48.173  94.237  53.343
31677DA     SC1 5936  48.403  94.326  53.154
31677DA     SC2 5937  48.626  94.240  53.082
31677DA     SC3 5938  48.675  94.483  53.013
31677DA     SC4 5939  48.415  94.483  53.119
31678DA     BB1 5940  48.032  93.973  53.490
31678DA     BB2 5941  48.365  93.819  53.494
31678DA     BB3 5942  48.485  93.907  53.647
31678DA     SC1 5943  48.603  94.127  53.462
31678DA     SC2 5944  48.823  94.183  53.358
31678DA     SC3 5945  48.728  94.420  53.333
31678DA     SC4 5946  48.527  94.269  53.456
31679DA     BB1 5947  48.538  93.603  53.786
31679DA     BB2 5948  48.896  93.647  53.719
31679DA     BB3 5949  48.985  93.769  53.870
31679DA     SC1 5950  48.935  94.036  53.718
31679DA     SC2 5951  49.071  94.209  53.601
31679DA     SC3 5952  48.868  94.362  53.635
31679DA     SC4 5953  48.800  94.116  53.750
31680DT     BB1 5954  49.146  93.708  54.044
31680DT     BB2 5955  49.429  93.859  53.879
31680DT     BB3 5956  49.497  94.021  53.989
31680DT     SC1 5957  49.294  94.169  53.912
31680DT     SC2 5958  49.365  94.323  53.781
31680DT     SC3 5959  49.074  94.314  53.924
31681DA     BB1 5960  49.848  93.790  53.957
31681DA     BB2 5961  49.931  94.128  53.842
31681DA     BB3 5962  49.962  94.258  54.009
31681DA     SC1 5963  49.665  94.349  54.025
31681DA     SC2 5964  49.533  94.556  53.981
31681DA     SC3 5965  49.355  94.450  54.132
31681DA     SC4 5966  49.567  94.267  54.122
31682DC     BB1 5967  50.153  94.340  54.047
31682DC     BB2 5968  50.075  94.668  53.917
31682DC     BB3 5969  50.061  94.804  54.072
31682DC     SC1 5970  49.827  94.708  54.145
31682DC     SC2 5971  49.674  94.853  54.102
31682DC     SC3 5972  49.641  94.593  54.292
31683DA     BB1 5973  50.321  94.955  53.782
31683DA     BB2 5974  50.070  95.212  53.856
31683DA     BB3 5975  50.108  95.300  54.047
31683DA     SC1 5976  49.929  95.098  54.202
31683DA     SC2 5977  49.712  95.100  54.324
31683DA     SC3 5978  49.796  94.885  54.436
31683DA     SC4 5979  50.000  94.966  54.261
31684DA     BB1 5980  50.086  95.551  53.843
31684DA     BB2 5981  49.798  95.656  54.045
31684DA     BB3 5982  49.863  95.730  54.234
31684DA     SC1 5983  49.846  95.453  54.375
31684DA     SC2 5984  49.704  95.342  54.548
31684DA     SC3 5985  49.900  95.179  54.575
31684DA     SC4 5986  49.979  95.363  54.378
31685DA     BB1 5987  49.668  95.957  54.109
31685DA     BB2 5988  49.457  95.900  54.403
31685DA     BB3 5989  49.552  95.976  54.579
31685DA     SC1 5990  49.697  95.709  54.645
31685DA     SC2 5991  49.684  95.530  54.818
31685DA     SC3 5992  49.923  95.470  54.747
31685DA     SC4 5993  49.846  95.688  54.588
31686DC     BB1 5994  49.448  96.101  54.637
31686DC     BB2 5995  49.318  95.920  54.920
31686DC     BB3 5996  49.428  95.966  55.090
31686DC     SC1 5997  49.629  95.818  55.009
31686DC     SC2 5998  49.646  95.645  55.136
31686DC     SC3 5999  49.872  95.752  54.929
31687DT     BB1 6000  49.199  96.070  55.144
31687DT     BB2 6001  49.268  95.834  55.409
31687DT     BB3 6002  49.404  95.915  55.542
31687DT     SC1 6003  49.602  95.879  55.374
31687DT     SC2 6004  49.732  95.725  55.449
31687DT     SC3 6005  49.802  95.933  55.210
31688DA     BB1 6006  49.066  95.721  55.710
31688DA     BB2 6007  49.369  95.614  55.887
31688DA     BB3 6008  49.456  95.779  55.991
31688DA     SC1 6009  49.639  95.863  55.754
31688DA     SC2 6010  49.882  95.863  55.699
31688DA     SC3 6011  49.822  96.040  55.524
31688DA     SC4 6012  49.581  95.973  55.651
31689DT     BB1 6013  49.446  95.725  56.146
31689DT     BB2 6014  49.798  95.683  56.210
31689DT     BB3 6015  49.879  95.861  56.277
31689DT     SC1 6016  49.872  95.964  56.036
31689DT     SC2 6017  50.073  95.985  55.961
31689DT     SC3 6018  49.808  96.123  55.836
31690DT     BB1 6019  49.897  95.728  56.499
31690DT     BB2 6020  50.227  95.862  56.444
31690DT     BB3 6021  50.232  96.062  56.496
31690DT     SC1 6022  50.101  96.129  56.279
31690DT     SC2 6023  50.232  96.237  56.146
31690DT     SC3 6024  49.909  96.223  56.124
31691DA     BB1 6025  50.548  95.921  56.741
31691DA     BB2 6026  50.665  96.235  56.592
31691DA     BB3 6027  50.575  96.402  56.690
31691DA     SC1 6028  50.331  96.415  56.498
31691DA     SC2 6029  50.245  96.567  56.319
31691DA     SC3 6030  50.019  96.454  56.361
31691DA     SC4 6031  50.199  96.334  56.539
31692DC     BB1 6032  50.663  96.585  56.858
31692DC     BB2 6033  50.655  96.862  56.626
31692DC     BB3 6034  50.514  97.001  56.687
31692DC     SC1 6035  50.317  96.847  56.606
31692DC     SC2 6036  50.223  96.936  56.434
31692DC     SC3 6037  50.102  96.695  56.614
31693DT     BB1 6038  50.669  97.235  56.826
31693DT     BB2 6039  50.476  97.409  56.576
31693DT     BB3 6040  50.307  97.491  56.661
31693DT     SC1 6041  50.191  97.256  56.675
31693DT     SC2 6042  50.028  97.248  56.536
31693DT     SC3 6043  50.081  97.039  56.778
31694DC     BB1 6044  50.374  97.785  56.684
31694DC     BB2 6045  50.073  97.785  56.487
31694DC     BB3 6046  49.909  97.822  56.608
31694DC     SC1 6047  49.918  97.579  56.707
31694DC     SC2 6048  49.748  97.467  56.637
31694DC     SC3 6049  49.943  97.383  56.881
31695DT     BB1 6050  49.864  98.088  56.518
31695DT     BB2 6051  49.556  97.917  56.442
31695DT     BB3 6052  49.423  97.939  56.599
31695DT     SC1 6053  49.555  97.766  56.746
31695DT     SC2 6054  49.438  97.587  56.768
31695DT     SC3 6055  49.698  97.667  56.944
31696DC     BB1 6056  49.278  98.100  56.440
31696DC     BB2 6057  49.056  97.829  56.525
31696DC     BB3 6058  48.961  97.869  56.704
31696DC     SC1 6059  49.179  97.816  56.841
31696DC     SC2 6060  49.151  97.633  56.951
31696DC     SC3 6061  49.387  97.850  56.998
31697DA     BB1 6062  48.694  97.749  56.405
31697DA     BB2 6063  48.626  97.552  56.707
31697DA     BB3 6064  48.538  97.674  56.857
31697DA     SC1 6065  48.809  97.755  56.985
31697DA     SC2 6066  48.934  97.712  57.197
31697DA     SC3 6067  49.066  97.924  57.139
31697DA     SC4 6068  48.879  97.890  56.933
31698DT     BB1 6069  48.371  97.615  56.891
31698DT     BB2 6070  48.436  97.473  57.216
31698DT     BB3 6071  48.381  97.606  57.364
31698DT     SC1 6072  48.593  97.755  57.318
31698DT     SC2 6073  48.728  97.740  57.485
31698DT     SC3 6074  48.739  97.964  57.250
31699DT     BB1 6075  48.183  97.438  57.414
31699DT     BB2 6076  48.353  97.476  57.730
31699DT     BB3 6077  48.287  97.647  57.825
31699DT     SC1 6078  48.423  97.801  57.663
31699DT     SC2 6079  48.586  97.892  57.770
31699DT     SC3 6080  48.477  97.982  57.479
31700DT     BB1 6081  48.148  97.496  58.005
31700DT     BB2 6082  48.357  97.707  58.210
31700DT     BB3 6083  48.261  97.888  58.245
31700DT     SC1 6084  48.310  97.970  58.001
31700DT     SC2 6085  48.455  98.130  58.007
31700DT     SC3 6086  48.269  98.051  57.754
31701DT     BB1 6087  48.202  97.825  58.509
31701DT     BB2 6088  48.378  98.138  58.533
31701DT     BB3 6089  48.245  98.296  58.518
31701DT     SC1 6090  48.218  98.260  58.260
31701DT     SC2 6091  48.310  98.424  58.155
31701DT     SC3 6092  48.107  98.206  58.027
31702DT     BB1 6093  48.257  98.360  58.789
31702DT     BB2 6094  48.346  98.668  58.623
31702DT     BB3 6095  48.175  98.780  58.586
31702DT     SC1 6096  48.104  98.621  58.390
31702DT     SC2 6097  48.124  98.726  58.203
31702DT     SC3 6098  47.964  98.448  58.249
31703DC     BB1 6099  48.240  98.961  58.783
31703DC     BB2 6100  48.207  99.161  58.484
31703DC     BB3 6101  48.010  99.220  58.460
31703DC     SC1 6102  47.939  98.980  58.382
31703DC     SC2 6103  47.889  98.985  58.173
31703DC     SC3 6104  47.818  98.746  58.380
31704DT     BB1 6105  48.082  99.473  58.526
31704DT     BB2 6106  47.930  99.503  58.200
31704DT     BB3 6107  47.725  99.523  58.219
31704DT     SC1 6108  47.698  99.268  58.276
31704DT     SC2 6109  47.599  99.168  58.113
31704DT     SC3 6110  47.641  99.049  58.412
31705DA     BB1 6111  47.864  99.832  57.972
31705DA     BB2 6112  47.576  99.676  57.807
31705DA     BB3 6113  47.396  99.728  57.908
31705DA     SC1 6114  47.404  99.483  58.099
31705DA     SC2 6115  47.277  99.271  58.133
31705DA     SC3 6116  47.378  99.272  58.369
31705DA     SC4 6117  47.476  99.502  58.242
31706DT     BB1 6118  47.261  99.844  57.813
31706DT     BB2 6119  47.015  99.588  57.749
31706DT     BB3 6120  46.856  99.608  57.881
31706DT     SC1 6121  46.998  99.511  58.079
31706DT     SC2 6122  46.922  99.317  58.133
31706DT     SC3 6123  47.125  99.497  58.310
31707DC     BB1 6124  46.680  99.713  57.690
31707DC     BB2 6125  46.501  99.430  57.824
31707DC     BB3 6126  46.388  99.488  57.987
31707DC     SC1 6127  46.602  99.505  58.139
31707DC     SC2 6128  46.597  99.348  58.286
31707DC     SC3 6129  46.789  99.609  58.292
31708DT     BB1 6130  46.122  99.492  57.865
31708DT     BB2 6131  46.081  99.271  58.148
31708DT     BB3 6132  46.012  99.377  58.311
31708DT     SC1 6133  46.249  99.484  58.350
31708DT     SC2 6134  46.334  99.405  58.531
31708DT     SC3 6135  46.438  99.667  58.371
31709DG     BB1 6136  45.686  99.124  58.271
31709DG     BB2 6137  45.820  99.105  58.607
31709DG     BB3 6138  45.741  99.249  58.720
31709DG     SC1 6139  45.957  99.455  58.653
31709DG     SC2 6140  46.158  99.566  58.843
31709DG     SC3 6141  46.167  99.710  58.585
31709DG     SC4 6142  45.938  99.548  58.524
31710DT     BB1 6143  45.594  99.225  58.923
31710DT     BB2 6144  45.847  99.281  59.174
31710DT     BB3 6145  45.811  99.460  59.272
31710DT     SC1 6146  45.896  99.598  59.066
31710DT     SC2 6147  46.083  99.693  59.116
31710DT     SC3 6148  45.895  99.765  58.861
31711DA     BB1 6149  45.858  99.158  59.554
31711DA     BB2 6150  46.090  99.429  59.639
31711DA     BB3 6151  45.984  99.593  59.725
31711DA     SC1 6152  45.935  99.736  59.454
31711DA     SC2 6153  46.012  99.942  59.337
31711DA     SC3 6154  45.801  99.916  59.194
31711DA     SC4 6155  45.798  99.703  59.376
31712DC     BB1 6156  46.044  99.613  59.892
31712DC     BB2 6157  46.243  99.907  59.830
31712DC     BB3 6158  46.138 100.077  59.885
31712DC     SC1 6159  45.984 100.059  59.672
31712DC     SC2 6160  46.030 100.221  59.538
31712DC     SC3 6161  45.768 100.030  59.524
31713DT     BB1 6162  46.320 100.086  60.073
31713DT     BB2 6163  46.346 100.400  59.898
31713DT     BB3 6164  46.200 100.531  59.965
31713DT     SC1 6165  46.013 100.403  59.835
31713DT     SC2 6166  45.943 100.525  59.672
31713DT     SC3 6167  45.796 100.261  59.788
31714DA     BB1 6168  46.574 100.723  59.975
31714DA     BB2 6169  46.333 100.949  59.815
31714DA     BB3 6170  46.197 101.027  59.960
31714DA     SC1 6171  45.989 100.799  59.923
31714DA     SC2 6172  45.759 100.772  59.829
31714DA     SC3 6173  45.748 100.559  59.971
31714DA     SC4 6174  46.001 100.671  60.019
31715DT     BB1 6175  46.201 101.227  60.006
31715DT     BB2 6176  45.896 101.319  59.837
31715DT     BB3 6177  45.746 101.352  59.976
31715DT     SC1 6178  45.718 101.095  60.019
31715DT     SC2 6179  45.529 101.029  59.940
31715DT     SC3 6180  45.717 100.863  60.145
31716DT     BB1 6181  45.753 101.627  59.941
31716DT     BB2 6182  45.410 101.539  59.872
31716DT     BB3 6183  45.299 101.545  60.046
31716DT     SC1 6184  45.405 101.320  60.131
31716DT     SC2 6185  45.256 101.165  60.128
31716DT     SC3 6186  45.542 101.151  60.280
31717DA     BB1 6187  45.097 101.778  59.764
31717DA     BB2 6188  44.855 101.544  59.910
31717DA     BB3 6189  44.803 101.605  60.108
31717DA     SC1 6190  45.028 101.439  60.244
31717DA     SC2 6191  45.046 101.237  60.389
31717DA     SC3 6192  45.278 101.327  60.451
31717DA     SC4 6193  45.169 101.512  60.271
31718DT     BB1 6194  44.620 101.656  60.127
31718DT     BB2 6195  44.514 101.359  60.303
31718DT     BB3 6196  44.493 101.400  60.505
31718DT     SC1 6197  44.754 101.402  60.539
31718DT     SC2 6198  44.812 101.230  60.655
31718DT     SC3 6199  44.996 101.490  60.594
31719DC     BB1 6200  44.243 101.364  60.446
31719DC     BB2 6201  44.317 101.124  60.705
31719DC     BB3 6202  44.312 101.216  60.890
31719DC     SC1 6203  44.543 101.333  60.846
31719DC     SC2 6204  44.692 101.247  60.975
31719DC     SC3 6205  44.721 101.524  60.809
31720DA     BB1 6206  44.109 100.845  60.867
31720DA     BB2 6207  44.312 100.852  61.172
31720DA     BB3 6208  44.237 100.999  61.307
31720DA     SC1 6209  44.418 101.227  61.197
31720DA     SC2 6210  44.614 101.361  61.274
31720DA     SC3 6211  44.543 101.530  61.093
31720DA     SC4 6212  44.357 101.320  61.081
31721DA     BB1 6213  44.252 100.733  61.500
31721DA     BB2 6214  44.464 100.931  61.725
31721DA     BB3 6215  44.348 101.081  61.824
31721DA     SC1 6216  44.397 101.297  61.606
31721DA     SC2 6217  44.522 101.512  61.584
31721DA     SC3 6218  44.366 101.559  61.386
31721DA     SC4 6219  44.290 101.309  61.487
31722DC     BB1 6220  44.311 101.071  62.029
31722DC     BB2 6221  44.514 101.349  62.135
31722DC     BB3 6222  44.393 101.510  62.183
31722DC     SC1 6223  44.345 101.561  61.930
31722DC     SC2 6224  44.442 101.745  61.874
31722DC     SC3 6225  44.213 101.591  61.704
31723DT     BB1 6226  44.412 101.489  62.470
31723DT     BB2 6227  44.498 101.834  62.412
31723DT     BB3 6228  44.329 101.952  62.424
31723DT     SC1 6229  44.244 101.870  62.190
31723DT     SC2 6230  44.257 102.031  62.048
31723DT     SC3 6231  44.092 101.755  62.008
31724DT     BB1 6232  44.356 102.076  62.697
31724DT     BB2 6233  44.306 102.366  62.488
31724DT     BB3 6234  44.106 102.421  62.489
31724DT     SC1 6235  44.042 102.220  62.333
31724DT     SC2 6236  43.985 102.295  62.140
31724DT     SC3 6237  43.931 101.995  62.251
31725DG     BB1 6238  44.240 102.776  62.665
31725DG     BB2 6239  44.029 102.855  62.383
31725DG     BB3 6240  43.838 102.863  62.441
31725DG     SC1 6241  43.785 102.566  62.389
31725DG     SC2 6242  43.603 102.455  62.180
31725DG     SC3 6243  43.697 102.242  62.362
31725DG     SC4 6244  43.813 102.460  62.505
31726DT     BB1 6245  43.645 103.069  62.462
31726DT     BB2 6246  43.449 102.992  62.170
31726DT     BB3 6247  43.258 102.935  62.225
31726DT     SC1 6248  43.343 102.700  62.307
31726DT     SC2 6249  43.270 102.548  62.174
31726DT     SC3 6250  43.399 102.499  62.468
31727DT     BB1 6251  43.093 103.180  62.160
31727DT     BB2 6252  42.933 102.920  61.968
31727DT     BB3 6253  42.768 102.848  62.070
31727DT     SC1 6254  42.919 102.717  62.238
31727DT     SC2 6255  42.898 102.505  62.204
31727DT     SC3 6256  43.032 102.643  62.465
31728DA     BB1 6257  42.607 102.958  61.699
31728DA     BB2 6258  42.508 102.611  61.761
31728DA     BB3 6259  42.342 102.604  61.894
31728DA     SC1 6260  42.517 102.587  62.151
31728DA     SC2 6261  42.571 102.418  62.326
31728DA     SC3 6262  42.643 102.619  62.469
31728DA     SC4 6263  42.555 102.725  62.224
31729DT     BB1 6264  42.162 102.531  61.823
31729DT     BB2 6265  42.192 102.208  61.980
31729DT     BB3 6266  42.056 102.192  62.136
31729DT     SC1 6267  42.202 102.348  62.288
31729DT     SC2 6268  42.287 102.233  62.448
31729DT     SC3 6269  42.273 102.556  62.434
31730DA     BB1 6270  42.060 101.868  61.873
31730DA     BB2 6271  42.090 101.742  62.216
31730DA     BB3 6272  41.905 101.767  62.321
31730DA     SC1 6273  41.977 102.049  62.431
31730DA     SC2 6274  42.032 102.152  62.651
31730DA     SC3 6275  41.968 102.374  62.539
31730DA     SC4 6276  41.932 102.176  62.344
31731DC     BB1 6277  41.889 101.612  62.349
31731DC     BB2 6278  41.954 101.624  62.703
31731DC     BB3 6279  41.780 101.671  62.806
31731DC     SC1 6280  41.794 101.922  62.731
31731DC     SC2 6281  41.840 102.045  62.902
31731DC     SC3 6282  41.730 102.150  62.616
31732DA     BB1 6283  42.019 101.354  62.962
31732DA     BB2 6284  41.915 101.576  63.235
31732DA     BB3 6285  41.703 101.570  63.259
31732DA     SC1 6286  41.649 101.805  63.063
31732DA     SC2 6287  41.570 102.041  63.076
31732DA     SC3 6288  41.515 102.015  62.827
31732DA     SC4 6289  41.620 101.768  62.909
31733DT     BB1 6290  41.673 101.503  63.418
31733DT     BB2 6291  41.547 101.803  63.574
31733DT     BB3 6292  41.340 101.809  63.559
31733DT     SC1 6293  41.353 101.873  63.305
31733DT     SC2 6294  41.288 102.076  63.279
31733DT     SC3 6295  41.325 101.856  63.043
31734DT     BB1 6296  41.327 101.756  63.821
31734DT     BB2 6297  41.131 102.056  63.780
31734DT     BB3 6298  40.938 102.007  63.722
31734DT     SC1 6299  41.017 101.950  63.478
31734DT     SC2 6300  40.941 102.098  63.342
31734DT     SC3 6301  41.067 101.811  63.260
31735DT     BB1 6302  40.831 102.065  63.971
31735DT     BB2 6303  40.636 102.266  63.743
31735DT     BB3 6304  40.474 102.157  63.674
31735DT     SC1 6305  40.627 102.015  63.515
31735DT     SC2 6306  40.586 102.067  63.311
31735DT     SC3 6307  40.752 101.807  63.411
31736DA     BB1 6308  40.297 102.506  63.827
31736DA     BB2 6309  40.160 102.452  63.491
31736DA     BB3 6310  40.017 102.294  63.494
31736DA     SC1 6311  40.225 102.072  63.432
31736DA     SC2 6312  40.281 101.919  63.243
31736DA     SC3 6313  40.402 101.778  63.419
31736DA     SC4 6314  40.294 101.997  63.557
31737DC     BB1 6315  39.807 102.327  63.459
31737DC     BB2 6316  39.800 102.189  63.125
31737DC     BB3 6317  39.701 102.007  63.126
31737DC     SC1 6318  39.906 101.887  63.239
31737DC     SC2 6319  39.997 101.754  63.097
31737DC     SC3 6320  40.049 101.756  63.417
31738DA     BB1 6321  39.524 102.242  62.827
31738DA     BB2 6322  39.605 101.915  62.681
31738DA     BB3 6323  39.470 101.766  62.752
31738DA     SC1 6324  39.647 101.688  62.996
31738DA     SC2 6325  39.785 101.493  63.069
31738DA     SC3 6326  39.760 101.590  63.305
31738DA     SC4 6327  39.619 101.763  63.135
31739DA     BB1 6328  39.440 101.724  62.429
31739DA     BB2 6329  39.564 101.383  62.483
31739DA     BB3 6330  39.412 101.262  62.573
31739DA     SC1 6331  39.498 101.327  62.864
31739DA     SC2 6332  39.604 101.208  63.057
31739DA     SC3 6333  39.503 101.395  63.201
31739DA     SC4 6334  39.426 101.451  62.937
31740DT     BB1 6335  39.348 101.117  62.463
31740DT     BB2 6336  39.510 100.850  62.643
31740DT     BB3 6337  39.373 100.754  62.766
31740DT     SC1 6338  39.375 100.954  62.936
31740DT     SC2 6339  39.471 100.891  63.118
31740DT     SC3 6340  39.290 101.158  63.080
31741DT     BB1 6341  39.383 100.545  62.599
31741DT     BB2 6342  39.473 100.411  62.922
31741DT     BB3 6343  39.302 100.364  63.029
31741DT     SC1 6344  39.254 100.618  63.078
31741DT     SC2 6345  39.285 100.657  63.287
31741DT     SC3 6346  39.132 100.852  63.077
31742DC     BB1 6347  39.360 100.105  62.992
31742DC     BB2 6348  39.339 100.146  63.350
31742DC     BB3 6349  39.141 100.131  63.412
31742DC     SC1 6350  39.086 100.370  63.319
31742DC     SC2 6351  39.050 100.504  63.483
31742DC     SC3 6352  38.977 100.560  63.173
31743DT     BB1 6353  39.202  99.894  63.520
31743DT     BB2 6354  39.070 100.089  63.793
31743DT     BB3 6355  38.863 100.079  63.794
31743DT     SC1 6356  38.846 100.240  63.587
31743DT     SC2 6357  38.763 100.428  63.651
31743DT     SC3 6358  38.793 100.327  63.344
31744DG     BB1 6359  38.994  99.947  64.157
31744DG     BB2 6360  38.746 100.208  64.191
31744DG     BB3 6361  38.565 100.134  64.158
31744DG     SC1 6362  38.571 100.190  63.857
31744DG     SC2 6363  38.399 100.385  63.711
31744DG     SC3 6364  38.551 100.217  63.521
31744DG     SC4 6365  38.631 100.079  63.759
31745DC     BB1 6366  38.415 100.137  64.315
31745DC     BB2 6367  38.197 100.402  64.203
31745DC     BB3 6368  38.027 100.322  64.117
31745DC     SC1 6369  38.159 100.254  63.901
31745DC     SC2 6370  38.095 100.377  63.737
31745DC     SC3 6371  38.267 100.104  63.713
31746DA     BB1 6372  37.904 100.602  64.405
31746DA     BB2 6373  37.724 100.672  64.094
31746DA     BB3 6374  37.576 100.522  64.058
31746DA     SC1 6375  37.766 100.339  63.893
31746DA     SC2 6376  37.792 100.267  63.656
31746DA     SC3 6377  37.929 100.072  63.752
31746DA     SC4 6378  37.847 100.225  63.972
31747DA     BB1 6379  37.384 100.788  64.038
31747DA     BB2 6380  37.316 100.687  63.692
31747DA     BB3 6381  37.182 100.521  63.688
31747DA     SC1 6382  37.409 100.308  63.693
31747DA     SC2 6383  37.507 100.139  63.538
31747DA     SC3 6384  37.599 100.027  63.750
31747DA     SC4 6385  37.456 100.252  63.837
31748DG     BB1 6386  37.000 100.715  63.528
31748DG     BB2 6387  37.058 100.477  63.263
31748DG     BB3 6388  36.935 100.321  63.283
31748DG     SC1 6389  37.127 100.161  63.459
31748DG     SC2 6390  37.262  99.905  63.384
31748DG     SC3 6391  37.304  99.967  63.671
31748DG     SC4 6392  37.122 100.182  63.618
31749DT     BB1 6393  36.789 100.276  63.127
31749DT     BB2 6394  36.941  99.990  62.970
31749DT     BB3 6395  36.846  99.816  63.031
31749DT     SC1 6396  36.961  99.826  63.266
31749DT     SC2 6397  37.103  99.666  63.283
31749DT     SC3 6398  36.990  99.846  63.527
31750DC     BB1 6399  36.748  99.802  62.784
31750DC     BB2 6400  36.931  99.495  62.832
31750DC     BB3 6401  36.813  99.357  62.930
31750DC     SC1 6402  36.842  99.483  63.159
31750DC     SC2 6403  36.963  99.364  63.291
31750DC     SC3 6404  36.782  99.619  63.377
31751DT     BB1 6405  36.791  99.215  62.700
31751DT     BB2 6406  36.930  98.982  62.938
31751DT     BB3 6407  36.778  98.889  63.043
31751DT     SC1 6408  36.733  99.104  63.186
31751DT     SC2 6409  36.795  99.069  63.389
31751DT     SC3 6410  36.609  99.314  63.286
31752DA     BB1 6411  37.039  98.599  62.891
31752DA     BB2 6412  36.982  98.526  63.246
31752DA     BB3 6413  36.785  98.450  63.275
31752DA     SC1 6414  36.657  98.729  63.324
31752DA     SC2 6415  36.558  98.856  63.515
31752DA     SC3 6416  36.447  99.000  63.334
31752DA     SC4 6417  36.596  98.806  63.197
31753DT     BB1 6418  36.776  98.267  63.336
31753DT     BB2 6419  36.676  98.335  63.676
31753DT     BB3 6420  36.473  98.299  63.698
31753DT     SC1 6421  36.412  98.519  63.570
31753DT     SC2 6422  36.327  98.661  63.707
31753DT     SC3 6423  36.314  98.680  63.384
31754DT     BB1 6424  36.536  98.081  63.842
31754DT     BB2 6425  36.323  98.275  64.060
31754DT     BB3 6426  36.124  98.232  64.020
31754DT     SC1 6427  36.130  98.371  63.798
31754DT     SC2 6428  36.010  98.548  63.822
31754DT     SC3 6429  36.119  98.429  63.541
31755DC     BB1 6430  36.107  98.094  64.254
31755DC     BB2 6431  35.842  98.339  64.275
31755DC     BB3 6432  35.671  98.265  64.186
31755DC     SC1 6433  35.770  98.301  63.946
31755DC     SC2 6434  35.663  98.460  63.848
31755DC     SC3 6435  35.861  98.246  63.705
31756DT     BB1 6436  35.549  98.228  64.430
31756DT     BB2 6437  35.317  98.435  64.247
31756DT     BB3 6438  35.187  98.316  64.138
31756DT     SC1 6439  35.374  98.261  63.962
31756DT     SC2 6440  35.326  98.357  63.775
31756DT     SC3 6441  35.547  98.123  63.818
31757DA     BB1 6442  34.929  98.561  64.360
31757DA     BB2 6443  34.812  98.569  64.013
31757DA     BB3 6444  34.710  98.388  63.965
31757DA     SC1 6445  34.965  98.242  63.863
31757DA     SC2 6446  35.058  98.162  63.646
31757DA     SC3 6447  35.206  98.009  63.789
31757DA     SC4 6448  35.048  98.154  63.970
31758DT     BB1 6449  34.490  98.373  63.923
31758DT     BB2 6450  34.519  98.328  63.566
31758DT     BB3 6451  34.466  98.134  63.515
31758DT     SC1 6452  34.693  98.040  63.607
31758DT     SC2 6453  34.815  97.973  63.443
31758DT     SC3 6454  34.863  97.905  63.756
31759DA     BB1 6455  34.216  98.367  63.271
31759DA     BB2 6456  34.378  98.120  63.054
31759DA     BB3 6457  34.286  97.929  63.078
31759DA     SC1 6458  34.478  97.837  63.305
31759DA     SC2 6459  34.661  97.672  63.337
31759DA     SC3 6460  34.614  97.696  63.587
31759DA     SC4 6461  34.432  97.865  63.457
31760DA     BB1 6462  34.247  97.943  62.751
31760DA     BB2 6463  34.463  97.648  62.729
31760DA     BB3 6464  34.354  97.472  62.776
31760DA     SC1 6465  34.420  97.483  63.080
31760DA     SC2 6466  34.558  97.354  63.244
31760DA     SC3 6467  34.410  97.463  63.423
31760DA     SC4 6468  34.317  97.560  63.176
31761DA     BB1 6469  34.473  97.382  62.486
31761DA     BB2 6470  34.649  97.114  62.663
31761DA     BB3 6471  34.514  96.958  62.714
31761DA     SC1 6472  34.442  97.077  62.992
31761DA     SC2 6473  34.481  97.023  63.232
31761DA     SC3 6474  34.280  97.176  63.278
31761DA     SC4 6475  34.314  97.175  63.000
31762DA     BB1 6476  34.750  96.797  62.558
31762DA     BB2 6477  34.802  96.615  62.872
31762DA     BB3 6478  34.644  96.475  62.904
31762DA     SC1 6479  34.467  96.675  63.063
31762DA     SC2 6480  34.389  96.706  63.298
31762DA     SC3 6481  34.204  96.852  63.196
31762DA     SC4 6482  34.359  96.761  62.980
31763DC     BB1 6483  34.706  96.300  62.901
31763DC     BB2 6484  34.681  96.240  63.256
31763DC     BB3 6485  34.508  96.135  63.299
31763DC     SC1 6486  34.360  96.349  63.262
31763DC     SC2 6487  34.280  96.413  63.450
31763DC     SC3 6488  34.180  96.511  63.158
31764DT     BB1 6489  34.672  95.937  63.353
31764DT     BB2 6490  34.480  95.987  63.654
31764DT     BB3 6491  34.298  95.890  63.639
31764DT     SC1 6492  34.206  96.074  63.475
31764DT     SC2 6493  34.053  96.189  63.575
31764DT     SC3 6494  34.112  96.187  63.256
31765DG     BB1 6495  34.492  95.756  63.970
31765DG     BB2 6496  34.155  95.862  64.047
31765DG     BB3 6497  34.025  95.725  63.985
31765DG     SC1 6498  33.992  95.846  63.706
31765DG     SC2 6499  33.744  95.972  63.598
31765DG     SC3 6500  33.947  95.940  63.385
31765DG     SC4 6501  34.091  95.800  63.589
31766DA     BB1 6502  33.896  95.742  64.307
31766DA     BB2 6503  33.568  95.833  64.171
31766DA     BB3 6504  33.474  95.663  64.083
31766DA     SC1 6505  33.592  95.712  63.800
31766DA     SC2 6506  33.510  95.782  63.575
31766DA     SC3 6507  33.725  95.676  63.486
31766DA     SC4 6508  33.731  95.640  63.764
31767DA     BB1 6509  33.229  95.750  64.286
31767DA     BB2 6510  33.020  95.789  63.987
31767DA     BB3 6511  32.963  95.598  63.911
31767DA     SC1 6512  33.209  95.575  63.721
31767DA     SC2 6513  33.254  95.578  63.476
31767DA     SC3 6514  33.474  95.460  63.535
31767DA     SC4 6515  33.340  95.500  63.778
31768DT     BB1 6516  32.763  95.532  63.915
31768DT     BB2 6517  32.696  95.570  63.563
31768DT     BB3 6518  32.687  95.384  63.472
31768DT     SC1 6519  32.948  95.358  63.483
31768DT     SC2 6520  33.030  95.369  63.285
31768DT     SC3 6521  33.186  95.263  63.548
31769DT     BB1 6522  32.411  95.391  63.444
31769DT     BB2 6523  32.533  95.339  63.108
31769DT     BB3 6524  32.553  95.136  63.070
31769DT     SC1 6525  32.769  95.122  63.218
31769DT     SC2 6526  32.940  95.086  63.091
31769DT     SC3 6527  32.932  95.052  63.414
31770DA     BB1 6528  32.318  95.285  62.756
31770DA     BB2 6529  32.588  95.087  62.608
31770DA     BB3 6530  32.551  94.879  62.634
31770DA     SC1 6531  32.702  94.861  62.906
31770DA     SC2 6532  32.913  94.760  62.993
31770DA     SC3 6533  32.804  94.782  63.224
31770DA     SC4 6534  32.617  94.882  63.040
31771DA     BB1 6535  32.593  94.880  62.309
31771DA     BB2 6536  32.880  94.660  62.366
31771DA     BB3 6537  32.815  94.462  62.410
31771DA     SC1 6538  32.804  94.507  62.717
31771DA     SC2 6539  32.929  94.432  62.919
31771DA     SC3 6540  32.720  94.502  63.050
31771DA     SC4 6541  32.664  94.555  62.781
31772DG     BB1 6542  32.982  94.405  62.157
31772DG     BB2 6543  33.186  94.223  62.393
31772DG     BB3 6544  33.105  94.045  62.430
31772DG     SC1 6545  32.935  94.143  62.665
31772DG     SC2 6546  32.968  94.065  62.951
31772DG     SC3 6547  32.720  94.221  62.913
31772DG     SC4 6548  32.788  94.201  62.635
31773DA     BB1 6549  33.426  93.945  62.359
31773DA     BB2 6550  33.448  93.795  62.692
31773DA     BB3 6551  33.328  93.619  62.702
31773DA     SC1 6552  33.073  93.768  62.800
31773DA     SC2 6553  32.937  93.785  63.008
31773DA     SC3 6554  32.750  93.871  62.854
31773DA     SC4 6555  32.969  93.818  62.687
31774DC     BB1 6556  33.434  93.479  62.731
31774DC     BB2 6557  33.342  93.421  63.075
31774DC     BB3 6558  33.196  93.274  63.086
31774DC     SC1 6559  33.012  93.440  62.999
31774DC     SC2 6560  32.874  93.484  63.158
31774DC     SC3 6561  32.827  93.546  62.844
31775DG     BB1 6562  33.517  93.176  63.317
31775DG     BB2 6563  33.206  93.153  63.500
31775DG     BB3 6564  33.105  92.991  63.443
31775DG     SC1 6565  32.954  93.134  63.219
31775DG     SC2 6566  32.660  93.186  63.211
31775DG     SC3 6567  32.787  93.254  62.952
31775DG     SC4 6568  33.020  93.141  63.073
31776DA     BB1 6569  33.086  92.925  63.785
31776DA     BB2 6570  32.720  92.920  63.761
31776DA     BB3 6571  32.655  92.743  63.661
31776DA     SC1 6572  32.660  92.872  63.378
31776DA     SC2 6573  32.495  92.943  63.205
31776DA     SC3 6574  32.692  92.932  63.041
31776DA     SC4 6575  32.795  92.858  63.291
31777DA     BB1 6576  32.468  92.698  63.932
31777DA     BB2 6577  32.176  92.708  63.711
31777DA     BB3 6578  32.157  92.525  63.604
31777DA     SC1 6579  32.327  92.621  63.362
31777DA     SC2 6580  32.291  92.681  63.122
31777DA     SC3 6581  32.543  92.641  63.095
31777DA     SC4 6582  32.485  92.590  63.365
31778DG     BB1 6583  31.873  92.468  63.740
31778DG     BB2 6584  31.749  92.499  63.402
31778DG     BB3 6585  31.761  92.324  63.309
31778DG     SC1 6586  32.044  92.373  63.202
31778DG     SC2 6587  32.119  92.407  62.915
31778DG     SC3 6588  32.360  92.384  63.085
31778DG     SC4 6589  32.170  92.331  63.292
31779DT     BB1 6590  31.577  92.181  63.224
31779DT     BB2 6591  31.602  92.250  62.871
31779DT     BB3 6592  31.676  92.084  62.771
31779DT     SC1 6593  31.919  92.128  62.861
31779DT     SC2 6594  32.045  92.190  62.698
31779DT     SC3 6595  32.146  92.092  62.989
31780DA     BB1 6596  31.319  92.174  62.569
31780DA     BB2 6597  31.586  92.150  62.319
31780DA     BB3 6598  31.635  91.945  62.282
31780DA     SC1 6599  31.856  91.934  62.501
31780DA     SC2 6600  32.104  91.916  62.512
31780DA     SC3 6601  32.068  91.837  62.753
31780DA     SC4 6602  31.812  91.885  62.648
31781DA     BB1 6603  31.574  92.031  61.972
31781DA     BB2 6604  31.926  91.959  61.903
31781DA     BB3 6605  31.957  91.748  61.885
31781DA     SC1 6606  32.021  91.708  62.187
31781DA     SC2 6607  32.218  91.651  62.328
31781DA     SC3 6608  32.046  91.584  62.506
31781DA     SC4 6609  31.898  91.670  62.284
31782DA     BB1 6610  32.086  91.864  61.610
31782DA     BB2 6611  32.404  91.728  61.731
31782DA     BB3 6612  32.405  91.515  61.714
31782DA     SC1 6613  32.291  91.467  61.999
31782DA     SC2 6614  32.371  91.377  62.217
31782DA     SC3 6615  32.122  91.345  62.272
31782DA     SC4 6616  32.131  91.454  62.013
31783DA     BB1 6617  32.678  91.609  61.564
31783DA     BB2 6618  32.856  91.411  61.817
31783DA     BB3 6619  32.828  91.203  61.781
31783DA     SC1 6620  32.574  91.181  61.959
31783DA     SC2 6621  32.509  91.077  62.176
31783DA     SC3 6622  32.268  91.097  62.091
31783DA     SC4 6623  32.431  91.200  61.887
31784DT     BB1 6624  32.988  91.120  61.739
31784DT     BB2 6625  33.030  90.947  62.053
31784DT     BB3 6626  32.970  90.750  62.034
31784DT     SC1 6627  32.717  90.820  62.036
31784DT     SC2 6628  32.625  90.753  62.219
31784DT     SC3 6629  32.468  90.854  61.954
31785DT     BB1 6630  33.227  90.693  62.055
31785DT     BB2 6631  33.067  90.513  62.324
31785DT     BB3 6632  32.989  90.334  62.253
31785DT     SC1 6633  32.791  90.459  62.135
31785DT     SC2 6634  32.607  90.413  62.236
31785DT     SC3 6635  32.633  90.548  61.943
31786DT     BB1 6636  33.182  90.221  62.394
31786DT     BB2 6637  32.875  90.078  62.519
31786DT     BB3 6638  32.815  89.922  62.397
31786DT     SC1 6639  32.734  90.089  62.211
31786DT     SC2 6640  32.519  90.084  62.199
31786DT     SC3 6641  32.719  90.214  61.980
31787DA     BB1 6642  32.813  89.804  62.800
31787DA     BB2 6643  32.495  89.703  62.648
31787DA     BB3 6644  32.525  89.543  62.511
31787DA     SC1 6645  32.570  89.729  62.266
31787DA     SC2 6646  32.449  89.790  62.056
31787DA     SC3 6647  32.678  89.870  61.972
31787DA     SC4 6648  32.721  89.772  62.231
31788DA     BB1 6649  32.286  89.438  62.707
31788DA     BB2 6650  32.083  89.408  62.402
31788DA     BB3 6651  32.154  89.247  62.282
31788DA     SC1 6652  32.352  89.424  62.119
31788DA     SC2 6653  32.372  89.512  61.886
31788DA     SC3 6654  32.621  89.544  61.942
31788DA     SC4 6655  32.503  89.436  62.172
31789DT     BB1 6656  32.029  89.115  62.268
31789DT     BB2 6657  31.938  89.169  61.923
31789DT     BB3 6658  32.041  89.037  61.801
31789DT     SC1 6659  32.264  89.172  61.829
31789DT     SC2 6660  32.313  89.267  61.642
31789DT     SC3 6661  32.512  89.230  61.895
31790DA     BB1 6662  31.632  89.017  61.703
31790DA     BB2 6663  31.823  89.038  61.391
31790DA     BB3 6664  31.929  88.855  61.357
31790DA     SC1 6665  32.186  88.948  61.506
31790DA     SC2 6666  32.420  89.010  61.449
31790DA     SC3 6667  32.472  88.962  61.695
31790DA     SC4 6668  32.198  88.912  61.662
31791DA     BB1 6669  31.775  88.854  61.061
31791DA     BB2 6670  32.107  88.856  60.905
31791DA     BB3 6671  32.196  88.662  60.916
31791DA     SC1 6672  32.337  88.715  61.188
31791DA     SC2 6673  32.569  88.746  61.272
31791DA     SC3 6674  32.472  88.686  61.502
31791DA     SC4 6675  32.258  88.674  61.322
31792DA     BB1 6676  32.231  88.671  60.583
31792DA     BB2 6677  32.593  88.644  60.634
31792DA     BB3 6678  32.647  88.441  60.674
31792DA     SC1 6679  32.619  88.469  60.982
31792DA     SC2 6680  32.768  88.472  61.182
31792DA     SC3 6681  32.556  88.414  61.316
31792DA     SC4 6682  32.476  88.432  61.047
31793DA     BB1 6683  32.860  88.460  60.417
31793DA     BB2 6684  33.132  88.400  60.654
31793DA     BB3 6685  33.147  88.192  60.699
31793DA     SC1 6686  32.954  88.206  60.943
31793DA     SC2 6687  32.968  88.186  61.191
31793DA     SC3 6688  32.716  88.139  61.181
31793DA     SC4 6689  32.798  88.177  60.916
31794DT     BB1 6690  33.317  88.068  60.639
31794DT     BB2 6691  33.468  88.047  60.966
31794DT     BB3 6692  33.446  87.855  61.042
31794DT     SC1 6693  33.192  87.896  61.094
31794DT     SC2 6694  33.162  87.905  61.306
31794DT     SC3 6695  32.929  87.871  61.084
31795DA     BB1 6696  33.854  87.946  61.070
31795DA     BB2 6697  33.745  87.822  61.397
31795DA     BB3 6698  33.717  87.611  61.391
31795DA     SC1 6699  33.416  87.629  61.311
31795DA     SC2 6700  33.195  87.582  61.415
31795DA     SC3 6701  33.106  87.575  61.175
31795DA     SC4 6702  33.381  87.627  61.154
31796DC     BB1 6703  33.840  87.494  61.501
31796DC     BB2 6704  33.601  87.414  61.760
31796DC     BB3 6705  33.535  87.219  61.736
31796DC     SC1 6706  33.385  87.286  61.532
31796DC     SC2 6707  33.177  87.272  61.588
31796DC     SC3 6708  33.292  87.298  61.285
31797DA     BB1 6709  33.662  87.264  62.133
31797DA     BB2 6710  33.330  87.110  62.138
31797DA     BB3 6711  33.341  86.907  62.074
31797DA     SC1 6712  33.293  86.973  61.774
31797DA     SC2 6713  33.113  86.940  61.604
31797DA     SC3 6714  33.299  86.977  61.430
31797DA     SC4 6715  33.422  86.997  61.681
31798DC     BB1 6716  33.299  86.762  62.208
31798DC     BB2 6717  32.976  86.672  62.076
31798DC     BB3 6718  32.989  86.493  61.973
31798DC     SC1 6719  33.109  86.609  61.771
31798DC     SC2 6720  32.976  86.612  61.601
31798DC     SC3 6721  33.295  86.669  61.594
31799DG     BB1 6722  32.711  86.438  62.267
31799DG     BB2 6723  32.580  86.347  61.942
31799DG     BB3 6724  32.647  86.168  61.889
31799DG     SC1 6725  32.898  86.275  61.750
31799DG     SC2 6726  32.955  86.263  61.457
31799DG     SC3 6727  33.192  86.357  61.607
31799DG     SC4 6728  33.031  86.297  61.836
31800DG     BB1 6729  32.336  86.064  61.865
31800DG     BB2 6730  32.405  86.015  61.513
31800DG     BB3 6731  32.493  85.838  61.486
31800DG     SC1 6732  32.777  85.947  61.519
31800DG     SC2 6733  32.986  85.962  61.305
31800DG     SC3 6734  33.101  86.028  61.569
31800DG     SC4 6735  32.842  85.953  61.665
31801DT     BB1 6736  32.397  85.677  61.363
31801DT     BB2 6737  32.593  85.693  61.060
31801DT     BB3 6738  32.723  85.532  61.052
31801DT     SC1 6739  32.880  85.640  61.233
31801DT     SC2 6740  33.064  85.701  61.140
31801DT     SC3 6741  33.011  85.675  61.459
31802DA     BB1 6742  32.511  85.554  60.692
31802DA     BB2 6743  32.868  85.521  60.612
31802DA     BB3 6744  32.935  85.322  60.654
31802DA     SC1 6745  33.018  85.387  60.947
31802DA     SC2 6746  33.229  85.408  61.078
31802DA     SC3 6747  33.081  85.373  61.284
31802DA     SC4 6748  32.909  85.362  61.062
31803DG     BB1 6749  33.001  85.330  60.352
31803DG     BB2 6750  33.340  85.292  60.473
31803DG     BB3 6751  33.375  85.101  60.517
31803DG     SC1 6752  33.282  85.126  60.808
31803DG     SC2 6753  33.455  85.101  61.050
31803DG     SC3 6754  33.169  85.112  61.125
31803DG     SC4 6755  33.128  85.103  60.842
31804DA     BB1 6756  33.658  85.127  60.315
31804DA     BB2 6757  33.871  85.032  60.598
31804DA     BB3 6758  33.855  84.822  60.635
31804DA     SC1 6759  33.620  84.850  60.837
31804DA     SC2 6760  33.583  84.823  61.082
31804DA     SC3 6761  33.334  84.803  61.021
31804DA     SC4 6762  33.470  84.839  60.779
31805DT     BB1 6763  34.018  84.691  60.602
31805DT     BB2 6764  34.099  84.632  60.949
31805DT     BB3 6765  34.040  84.441  61.003
31805DT     SC1 6766  33.788  84.512  61.010
31805DT     SC2 6767  33.719  84.512  61.214
31805DT     SC3 6768  33.531  84.523  60.950
31806DA     BB1 6769  34.447  84.444  61.111
31806DA     BB2 6770  34.261  84.315  61.399
31806DA     BB3 6771  34.203  84.113  61.366
31806DA     SC1 6772  33.930  84.185  61.236
31806DA     SC2 6773  33.688  84.168  61.294
31806DA     SC3 6774  33.647  84.193  61.042
31806DA     SC4 6775  33.925  84.201  61.076
31807DT     BB1 6776  34.284  83.932  61.479
31807DT     BB2 6777  33.990  83.879  61.681
31807DT     BB3 6778  33.896  83.704  61.624
31807DT     SC1 6779  33.802  83.816  61.406
31807DT     SC2 6780  33.589  83.839  61.424
31807DT     SC3 6781  33.761  83.866  61.150
31808DT     BB1 6782  33.976  83.560  61.851
31808DT     BB2 6783  33.615  83.543  61.858
31808DT     BB3 6784  33.551  83.375  61.756
31808DT     SC1 6785  33.603  83.485  61.524
31808DT     SC2 6786  33.419  83.527  61.422
31808DT     SC3 6787  33.715  83.526  61.289
31809DA     BB1 6788  33.371  83.382  62.133
31809DA     BB2 6789  33.108  83.335  61.883
31809DA     BB3 6790  33.114  83.136  61.805
31809DA     SC1 6791  33.307  83.208  61.571
31809DA     SC2 6792  33.296  83.227  61.323
31809DA     SC3 6793  33.552  83.204  61.331
31809DA     SC4 6794  33.464  83.190  61.597
31810DT     BB1 6795  32.961  83.050  61.848
31810DT     BB2 6796  32.813  83.061  61.519
31810DT     BB3 6797  32.842  82.881  61.422
31810DT     SC1 6798  33.095  82.937  61.378
31810DT     SC2 6799  33.125  82.970  61.168
31810DT     SC3 6800  33.358  82.920  61.388
31811DT     BB1 6801  32.585  82.868  61.456
31811DT     BB2 6802  32.638  82.840  61.100
31811DT     BB3 6803  32.694  82.646  61.052
31811DT     SC1 6804  32.935  82.684  61.148
31811DT     SC2 6805  33.077  82.687  60.986
31811DT     SC3 6806  33.148  82.657  61.301
31812DT     BB1 6807  32.456  82.639  60.942
31812DT     BB2 6808  32.687  82.553  60.678
31812DT     BB3 6809  32.740  82.353  60.694
31812DT     SC1 6810  32.896  82.403  60.899
31812DT     SC2 6811  33.102  82.377  60.841
31812DT     SC3 6812  32.992  82.398  61.145
31813DT     BB1 6813  32.592  82.304  60.475
31813DT     BB2 6814  32.918  82.175  60.393
31813DT     BB3 6815  32.939  81.983  60.465
31813DT     SC1 6816  32.966  82.070  60.712
31813DT     SC2 6817  33.169  82.037  60.777
31813DT     SC3 6818  32.917  82.110  60.968
31814DA     BB1 6819  33.039  81.955  60.058
31814DA     BB2 6820  33.301  81.782  60.248
31814DA     BB3 6821  33.229  81.594  60.319
31814DA     SC1 6822  33.125  81.709  60.589
31814DA     SC2 6823  33.185  81.695  60.831
31814DA     SC3 6824  32.945  81.774  60.874
31814DA     SC4 6825  32.972  81.757  60.596
31815DA     BB1 6826  33.491  81.462  60.165
31815DA     BB2 6827  33.607  81.346  60.493
31815DA     BB3 6828  33.500  81.171  60.552
31815DA     SC1 6829  33.275  81.327  60.699
31815DA     SC2 6830  33.199  81.363  60.934
31815DA     SC3 6831  32.975  81.431  60.830
31815DA     SC4 6832  33.143  81.365  60.615
31816DC     BB1 6833  33.599  80.987  60.569
31816DC     BB2 6834  33.608  80.980  60.929
31816DC     BB3 6835  33.474  80.840  61.001
31816DC     SC1 6836  33.270  80.997  60.947
31816DC     SC2 6837  33.183  81.067  61.131
31816DC     SC3 6838  33.047  81.086  60.837
31817DC     BB1 6839  33.683  80.689  61.072
31817DC     BB2 6840  33.502  80.747  61.378
31817DC     BB3 6841  33.351  80.607  61.398
31817DC     SC1 6842  33.205  80.726  61.216
31817DC     SC2 6843  33.033  80.816  61.310
31817DC     SC3 6844  33.072  80.767  60.992
31818DT     BB1 6845  33.501  80.516  61.594
31818DT     BB2 6846  33.183  80.596  61.746
31818DT     BB3 6847  33.050  80.440  61.716
31818DT     SC1 6848  33.017  80.507  61.464
31818DT     SC2 6849  32.818  80.585  61.436
31818DT     SC3 6850  33.021  80.491  61.201
31819DT     BB1 6851  33.082  80.415  61.972
31819DT     BB2 6852  32.727  80.459  61.923
31819DT     BB3 6853  32.642  80.280  61.862
31819DT     SC1 6854  32.742  80.305  61.621
31819DT     SC2 6855  32.583  80.343  61.481
31819DT     SC3 6856  32.885  80.254  61.405
31820DA     BB1 6857  32.422  80.449  62.180
31820DA     BB2 6858  32.187  80.339  61.922
31820DA     BB3 6859  32.182  80.126  61.911
31820DA     SC1 6860  32.407  80.107  61.697
31820DA     SC2 6861  32.428  80.045  61.457
31820DA     SC3 6862  32.677  80.011  61.508
31820DA     SC4 6863  32.558  80.089  61.750
31821DT     BB1 6864  32.014  80.028  61.968
31821DT     BB2 6865  31.907  79.921  61.640
31821DT     BB3 6866  31.949  79.720  61.614
31821DT     SC1 6867  32.205  79.770  61.583
31821DT     SC2 6868  32.261  79.733  61.378
31821DT     SC3 6869  32.465  79.770  61.627
31822DA     BB1 6870  31.538  79.739  61.527
31822DA     BB2 6871  31.696  79.547  61.258
31822DA     BB3 6872  31.743  79.350  61.325
31822DA     SC1 6873  32.029  79.425  61.423
31822DA     SC2 6874  32.265  79.380  61.357
31822DA     SC3 6875  32.324  79.448  61.597
31822DA     SC4 6876  32.045  79.469  61.577
31823DA     BB1 6877  31.566  79.239  61.066
31823DA     BB2 6878  31.872  79.082  60.941
31823DA     BB3 6879  31.910  78.900  61.045
31823DA     SC1 6880  32.083  79.033  61.267
31823DA     SC2 6881  32.322  79.037  61.337
31823DA     SC3 6882  32.234  79.116  61.564
31823DA     SC4 6883  32.008  79.080  61.401
31824DC     BB1 6884  31.900  78.715  60.946
31824DC     BB2 6885  32.256  78.658  60.927
31824DC     BB3 6886  32.311  78.510  61.061
31824DC     SC1 6887  32.284  78.672  61.265
31824DC     SC2 6888  32.478  78.716  61.347
31824DC     SC3 6889  32.193  78.775  61.490
31825DG     BB1 6890  32.429  78.388  60.691
31825DG     BB2 6891  32.703  78.378  60.927
31825DG     BB3 6892  32.688  78.216  61.041
31825DG     SC1 6893  32.518  78.353  61.256
31825DG     SC2 6894  32.602  78.411  61.536
31825DG     SC3 6895  32.314  78.466  61.499
31825DG     SC4 6896  32.358  78.353  61.240
31826DT     BB1 6897  32.845  78.072  61.034
31826DT     BB2 6898  33.013  78.129  61.349
31826DT     BB3 6899  32.957  77.985  61.486
31826DT     SC1 6900  32.722  78.097  61.520
31826DT     SC2 6901  32.711  78.183  61.716
31826DT     SC3 6902  32.460  78.129  61.518
31827DG     BB1 6903  33.363  77.973  61.451
31827DG     BB2 6904  33.261  77.998  61.797
31827DG     BB3 6905  33.196  77.821  61.862
31827DG     SC1 6906  32.905  77.869  61.780
31827DG     SC2 6907  32.673  77.900  61.965
31827DG     SC3 6908  32.582  77.881  61.685
31827DG     SC4 6909  32.859  77.829  61.632
31828DG     BB1 6910  33.426  77.815  62.103
31828DG     BB2 6911  33.150  77.810  62.337
31828DG     BB3 6912  33.086  77.623  62.361
31828DG     SC1 6913  32.882  77.638  62.133
31828DG     SC2 6914  32.585  77.629  62.163
31828DG     SC3 6915  32.663  77.612  61.878
31828DG     SC4 6916  32.928  77.600  61.985
31829DT     BB1 6917  33.094  77.485  62.565
31829DT     BB2 6918  32.748  77.494  62.666
31829DT     BB3 6919  32.660  77.310  62.634
31829DT     SC1 6920  32.650  77.351  62.375
31829DT     SC2 6921  32.445  77.377  62.315
31829DT     SC3 6922  32.696  77.321  62.117
31830DA     BB1 6923  32.579  77.369  63.044
31830DA     BB2 6924  32.261  77.280  62.883
31830DA     BB3 6925  32.253  77.070  62.847
31830DA     SC1 6926  32.378  77.089  62.563
31830DA     SC2 6927  32.305  77.058  62.326
31830DA     SC3 6928  32.554  77.030  62.274
31830DA     SC4 6929  32.538  77.072  62.551
31831DC     BB1 6930  32.112  76.936  62.948
31831DC     BB2 6931  31.887  76.901  62.668
31831DC     BB3 6932  31.901  76.710  62.590
31831DC     SC1 6933  32.132  76.764  62.478
31831DC     SC2 6934  32.108  76.771  62.264
31831DC     SC3 6935  32.390  76.753  62.424
31832DT     BB1 6936  31.655  76.648  62.689
31832DT     BB2 6937  31.625  76.599  62.333
31832DT     BB3 6938  31.683  76.406  62.283
31832DT     SC1 6939  31.937  76.466  62.317
31832DT     SC2 6940  32.036  76.466  62.126
31832DT     SC3 6941  32.181  76.464  62.416
31833DG     BB1 6942  31.303  76.473  62.152
31833DG     BB2 6943  31.521  76.361  61.885
31833DG     BB3 6944  31.553  76.165  61.902
31833DG     SC1 6945  31.799  76.195  62.080
31833DG     SC2 6946  32.080  76.124  62.006
31833DG     SC3 6947  32.061  76.190  62.294
31833DG     SC4 6948  31.780  76.202  62.239
31834DT     BB1 6949  31.490  76.044  61.741
31834DT     BB2 6950  31.805  75.964  61.584
31834DT     BB3 6951  31.865  75.774  61.639
31834DT     SC1 6952  31.934  75.856  61.878
31834DT     SC2 6953  32.149  75.850  61.897
31834DT     SC3 6954  31.938  75.882  62.141
31835DT     BB1 6955  31.810  75.703  61.389
31835DT     BB2 6956  32.158  75.620  61.437
31835DT     BB3 6957  32.175  75.436  61.529
31835DT     SC1 6958  32.102  75.535  61.761
31835DT     SC2 6959  32.270  75.535  61.895
31835DT     SC3 6960  31.960  75.578  61.979
31836DT     BB1 6961  32.266  75.345  61.296
31836DT     BB2 6962  32.528  75.275  61.535
31836DT     BB3 6963  32.489  75.098  61.633
31836DT     SC1 6964  32.301  75.211  61.778
31836DT     SC2 6965  32.367  75.224  61.982
31836DT     SC3 6966  32.063  75.264  61.878
31837DA     BB1 6967  32.881  75.096  61.484
31837DA     BB2 6968  32.890  74.998  61.837
31837DA     BB3 6969  32.808  74.802  61.862
31837DA     SC1 6970  32.518  74.904  61.910
31837DA     SC2 6971  32.356  74.916  62.100
31837DA     SC3 6972  32.177  74.940  61.918
31837DA     SC4 6973  32.421  74.916  61.783
31838DC     BB1 6974  32.936  74.688  61.922
31838DC     BB2 6975  32.815  74.663  62.261
31838DC     BB3 6976  32.702  74.491  62.283
31838DC     SC1 6977  32.500  74.597  62.153
31838DC     SC2 6978  32.338  74.633  62.290
31838DC     SC3 6979  32.318  74.636  61.966
31839DA     BB1 6980  32.989  74.546  62.586
31839DA     BB2 6981  32.666  74.466  62.741
31839DA     BB3 6982  32.611  74.265  62.697
31839DA     SC1 6983  32.455  74.338  62.438
31839DA     SC2 6984  32.219  74.343  62.360
31839DA     SC3 6985  32.318  74.339  62.123
31839DA     SC4 6986  32.536  74.334  62.299
31840DA     BB1 6987  32.582  74.318  63.020
31840DA     BB2 6988  32.232  74.217  62.974
31840DA     BB3 6989  32.221  74.012  62.916
31840DA     SC1 6990  32.232  74.071  62.611
31840DA     SC2 6991  32.078  74.059  62.415
31840DA     SC3 6992  32.292  74.059  62.273
31840DA     SC4 6993  32.376  74.071  62.541
31841DT     BB1 6994  32.138  73.908  63.045
31841DT     BB2 6995  31.832  73.842  62.866
31841DT     BB3 6996  31.842  73.656  62.776
31841DT     SC1 6997  32.004  73.745  62.590
31841DT     SC2 6998  31.901  73.750  62.401
31841DT     SC3 6999  32.222  73.775  62.444
31842DT     BB1 7000  31.666  73.562  62.958
31842DT     BB2 7001  31.517  73.483  62.639
31842DT     BB3 7002  31.591  73.303  62.569
31842DT     SC1 7003  31.820  73.414  62.504
31842DT     SC2 7004  31.838  73.421  62.290
31842DT     SC3 7005  32.078  73.467  62.502
31843DT     BB1 7006  31.356  73.171  62.623
31843DT     BB2 7007  31.414  73.107  62.273
31843DT     BB3 7008  31.531  72.938  62.250
31843DT     SC1 7009  31.746  73.069  62.325
31843DT     SC2 7010  31.878  73.093  62.157
31843DT     SC3 7011  31.957  73.139  62.468
31844DA     BB1 7012  31.195  72.869  62.010
31844DA     BB2 7013  31.492  72.797  61.807
31844DA     BB3 7014  31.579  72.611  61.866
31844DA     SC1 7015  31.768  72.739  62.077
31844DA     SC2 7016  32.013  72.779  62.105
31844DA     SC3 7017  31.959  72.803  62.355
31844DA     SC4 7018  31.715  72.749  62.228
31845DT     BB1 7019  31.577  72.454  61.735
31845DT     BB2 7020  31.927  72.467  61.648
31845DT     BB3 7021  32.028  72.311  61.739
31845DT     SC1 7022  32.018  72.431  61.972
31845DT     SC2 7023  32.216  72.495  62.028
31845DT     SC3 7024  31.959  72.478  62.225
31846DT     BB1 7025  32.052  72.194  61.498
31846DT     BB2 7026  32.391  72.228  61.618
31846DT     BB3 7027  32.440  72.067  61.738
31846DT     SC1 7028  32.294  72.160  61.936
31846DT     SC2 7029  32.423  72.224  62.096
31846DT     SC3 7030  32.103  72.177  62.117
31847DT     BB1 7031  32.601  71.975  61.543
31847DT     BB2 7032  32.816  72.002  61.831
31847DT     BB3 7033  32.803  71.830  61.946
31847DT     SC1 7034  32.567  71.900  62.037
31847DT     SC2 7035  32.583  71.949  62.246
31847DT     SC3 7036  32.308  71.894  62.085
31848DT     BB1 7037  33.051  71.752  61.865
31848DT     BB2 7038  33.071  71.753  62.226
31848DT     BB3 7039  33.007  71.571  62.300
31848DT     SC1 7040  32.756  71.631  62.252
31848DT     SC2 7041  32.652  71.661  62.438
31848DT     SC3 7042  32.514  71.620  62.148
31849DA     BB1 7043  33.388  71.612  62.475
31849DA     BB2 7044  33.156  71.519  62.743
31849DA     BB3 7045  33.108  71.312  62.731
31849DA     SC1 7046  32.861  71.354  62.548
31849DA     SC2 7047  32.613  71.335  62.566
31849DA     SC3 7048  32.616  71.322  62.309
31849DA     SC4 7049  32.884  71.346  62.389
31850DC     BB1 7050  33.171  71.145  62.881
31850DC     BB2 7051  32.847  71.108  63.035
31850DC     BB3 7052  32.764  70.925  62.985
31850DC     SC1 7053  32.709  71.008  62.742
31850DC     SC2 7054  32.496  71.027  62.720
31850DC     SC3 7055  32.712  71.025  62.479
31851DT     BB1 7056  32.805  70.790  63.236
31851DT     BB2 7057  32.448  70.767  63.183
31851DT     BB3 7058  32.403  70.589  63.087
31851DT     SC1 7059  32.494  70.679  62.858
31851DT     SC2 7060  32.330  70.709  62.722
31851DT     SC3 7061  32.644  70.701  62.643
31852DC     BB1 7062  32.290  70.474  63.315
31852DC     BB2 7063  32.024  70.472  63.072
31852DC     BB3 7064  32.028  70.296  62.964
31852DC     SC1 7065  32.237  70.376  62.826
31852DC     SC2 7066  32.178  70.413  62.623
31852DC     SC3 7067  32.482  70.385  62.731
31853DA     BB1 7068  31.644  70.367  63.113
31853DA     BB2 7069  31.618  70.302  62.753
31853DA     BB3 7070  31.653  70.096  62.712
31853DA     SC1 7071  31.960  70.130  62.672
31853DA     SC2 7072  32.124  70.119  62.484
31853DA     SC3 7073  32.300  70.085  62.668
31853DA     SC4 7074  32.054  70.108  62.800
31854DT     BB1 7075  31.504  70.026  62.642
31854DT     BB2 7076  31.622  70.003  62.302
31854DT     BB3 7077  31.687  69.811  62.263
31854DT     SC1 7078  31.907  69.849  62.402
31854DT     SC2 7079  32.076  69.855  62.269
31854DT     SC3 7080  32.088  69.822  62.591
31855DC     BB1 7081  31.479  69.823  62.112
31855DC     BB2 7082  31.756  69.748  61.893
31855DC     BB3 7083  31.805  69.547  61.908
31855DC     SC1 7084  31.919  69.585  62.142
31855DC     SC2 7085  32.132  69.560  62.122
31855DC     SC3 7086  31.966  69.567  62.400
31856DT     BB1 7087  31.712  69.554  61.667
31856DT     BB2 7088  32.046  69.420  61.640
31856DT     BB3 7089  32.048  69.221  61.697
31856DT     SC1 7090  32.027  69.286  61.951
31856DT     SC2 7091  32.211  69.240  62.051
31856DT     SC3 7092  31.928  69.306  62.194
31857DA     BB1 7093  32.242  69.261  61.326
31857DA     BB2 7094  32.448  69.047  61.540
31857DA     BB3 7095  32.352  68.858  61.570
31857DA     SC1 7096  32.200  68.948  61.826
31857DA     SC2 7097  32.206  68.900  62.070
31857DA     SC3 7098  31.966  68.992  62.074
31857DA     SC4 7099  32.051  69.007  61.807
31858DC     BB1 7100  32.435  68.691  61.491
31858DC     BB2 7101  32.548  68.541  61.799
31858DC     BB3 7102  32.421  68.387  61.853
31858DC     SC1 7103  32.236  68.555  61.930
31858DC     SC2 7104  32.217  68.547  62.144
31858DC     SC3 7105  32.006  68.684  61.939
31859DT     BB1 7106  32.595  68.176  61.779
31859DT     BB2 7107  32.514  68.101  62.123
31859DT     BB3 7108  32.346  67.980  62.131
31859DT     SC1 7109  32.188  68.181  62.072
31859DT     SC2 7110  32.070  68.232  62.245
31859DT     SC3 7111  32.015  68.331  61.941
31860DG     BB1 7112  32.618  67.724  62.309
31860DG     BB2 7113  32.325  67.761  62.518
31860DG     BB3 7114  32.182  67.637  62.457
31860DG     SC1 7115  32.058  67.837  62.260
31860DG     SC2 7116  31.789  67.963  62.284
31860DG     SC3 7117  31.910  68.023  62.021
31860DG     SC4 7118  32.114  67.843  62.110
31861DT     BB1 7119  32.069  67.427  62.574
31861DT     BB2 7120  31.757  67.577  62.675
31861DT     BB3 7121  31.601  67.492  62.569
31861DT     SC1 7122  31.665  67.623  62.352
31861DT     SC2 7123  31.515  67.772  62.311
31861DT     SC3 7124  31.743  67.671  62.104
31862DA     BB1 7125  31.491  67.449  62.971
31862DA     BB2 7126  31.210  67.608  62.797
31862DA     BB3 7127  31.101  67.463  62.685
31862DA     SC1 7128  31.268  67.503  62.425
31862DA     SC2 7129  31.235  67.597  62.197
31862DA     SC3 7130  31.439  67.456  62.131
31862DA     SC4 7131  31.395  67.407  62.403
31863DC     BB1 7132  30.916  67.431  62.743
31863DC     BB2 7133  30.758  67.615  62.476
31863DC     BB3 7134  30.675  67.484  62.339
31863DC     SC1 7135  30.912  67.425  62.242
31863DC     SC2 7136  30.930  67.506  62.043
31863DC     SC3 7137  31.125  67.284  62.177
31864DA     BB1 7138  30.409  67.785  62.456
31864DA     BB2 7139  30.409  67.765  62.090
31864DA     BB3 7140  30.314  67.585  62.026
31864DA     SC1 7141  30.577  67.419  62.023
31864DA     SC2 7142  30.728  67.315  61.853
31864DA     SC3 7143  30.812  67.170  62.047
31864DA     SC4 7144  30.616  67.338  62.156
31865DA     BB1 7145  30.179  67.832  61.860
31865DA     BB2 7146  30.286  67.653  61.559
31865DA     BB3 7147  30.175  67.472  61.536
31865DA     SC1 7148  30.378  67.299  61.696
31865DA     SC2 7149  30.543  67.118  61.650
31865DA     SC3 7150  30.526  67.066  61.901
31865DA     SC4 7151  30.352  67.282  61.854
31866DG     BB1 7152  30.111  67.618  61.272
31866DG     BB2 7153  30.268  67.326  61.128
31866DG     BB3 7154  30.144  67.171  61.134
31866DG     SC1 7155  30.237  67.076  61.410
31866DG     SC2 7156  30.382  66.822  61.469
31866DG     SC3 7157  30.300  66.956  61.719
31866DG     SC4 7158  30.165  67.136  61.541
31867DT     BB1 7159  30.060  67.069  60.949
31867DT     BB2 7160  30.232  66.752  60.948
31867DT     BB3 7161  30.104  66.603  61.015
31867DT     SC1 7162  30.125  66.684  61.263
31867DT     SC2 7163  30.236  66.539  61.377
31867DT     SC3 7164  30.058  66.781  61.499
31868DT     BB1 7165  30.041  66.480  60.759
31868DT     BB2 7166  30.150  66.199  60.958
31868DT     BB3 7167  29.988  66.109  61.049
31868DT     SC1 7168  29.968  66.304  61.223
31868DT     SC2 7169  30.023  66.232  61.418
31868DT     SC3 7170  29.868  66.509  61.356
31869DT     BB1 7171  29.934  65.860  60.880
31869DT     BB2 7172  29.965  65.723  61.212
31869DT     BB3 7173  29.777  65.697  61.296
31869DT     SC1 7174  29.751  65.955  61.337
31869DT     SC2 7175  29.759  65.995  61.549
31869DT     SC3 7176  29.657  66.201  61.320
31870DA     BB1 7177  29.901  65.291  61.331
31870DA     BB2 7178  29.785  65.393  61.663
31870DA     BB3 7179  29.572  65.377  61.676
31870DA     SC1 7180  29.521  65.669  61.582
31870DA     SC2 7181  29.439  65.883  61.680
31870DA     SC3 7182  29.393  65.953  61.438
31870DA     SC4 7183  29.499  65.694  61.425
31871DC     BB1 7184  29.444  65.225  61.810
31871DC     BB2 7185  29.363  65.469  62.063
31871DC     BB3 7186  29.159  65.504  62.064
31871DC     SC1 7187  29.174  65.645  61.844
31871DC     SC2 7188  29.135  65.852  61.889
31871DC     SC3 7189  29.137  65.719  61.593
31872DT     BB1 7190  29.130  65.370  62.304
31872DT     BB2 7191  29.010  65.704  62.371
31872DT     BB3 7192  28.808  65.716  62.331
31872DT     SC1 7193  28.851  65.716  62.072
31872DT     SC2 7194  28.803  65.910  61.993
31872DT     SC3 7195  28.848  65.640  61.820
31873DT     BB1 7196  28.770  65.734  62.597
31873DT     BB2 7197  28.623  66.035  62.461
31873DT     BB3 7198  28.428  65.999  62.403
31873DT     SC1 7199  28.507  65.866  62.190
31873DT     SC2 7200  28.460  65.980  62.014
31873DT     SC3 7201  28.544  65.667  62.022
31874DC     BB1 7202  28.351  66.149  62.612
31874DC     BB2 7203  28.201  66.307  62.324
31874DC     BB3 7204  28.020  66.217  62.280
31874DC     SC1 7205  28.140  66.007  62.179
31874DC     SC2 7206  28.111  66.002  61.966
31874DC     SC3 7207  28.219  65.757  62.148
31875DC     BB1 7208  27.887  66.437  62.372
31875DC     BB2 7209  27.769  66.395  62.033
31875DC     BB3 7210  27.608  66.265  62.030
31875DC     SC1 7211  27.763  66.058  62.068
31875DC     SC2 7212  27.768  65.939  61.888
31875DC     SC3 7213  27.871  65.845  62.181
31876DA     BB1 7214  27.476  66.609  61.830
31876DA     BB2 7215  27.391  66.321  61.620
31876DA     BB3 7216  27.222  66.218  61.700
31876DA     SC1 7217  27.392  66.025  61.876
31876DA     SC2 7218  27.450  65.783  61.880
31876DA     SC3 7219  27.510  65.822  62.127
31876DA     SC4 7220  27.422  66.070  62.027
31877DA     BB1 7221  27.103  66.265  61.399
31877DA     BB2 7222  27.092  65.900  61.365
31877DA     BB3 7223  26.923  65.821  61.469
31877DA     SC1 7224  27.077  65.779  61.736
31877DA     SC2 7225  27.159  65.588  61.874
31877DA     SC3 7226  27.165  65.757  62.067
31877DA     SC4 7227  27.072  65.899  61.844
31878DG     BB1 7228  26.856  65.722  61.186
31878DG     BB2 7229  26.907  65.398  61.339
31878DG     BB3 7230  26.742  65.342  61.435
31878DG     SC1 7231  26.824  65.471  61.700
31878DG     SC2 7232  26.890  65.326  61.953
31878DG     SC3 7233  26.873  65.618  62.000
31878DG     SC4 7234  26.785  65.624  61.727
31879DA     BB1 7235  26.817  65.066  61.250
31879DA     BB2 7236  26.834  64.871  61.560
31879DA     BB3 7237  26.639  64.846  61.643
31879DA     SC1 7238  26.655  65.103  61.818
31879DA     SC2 7239  26.671  65.160  62.060
31879DA     SC3 7240  26.583  65.391  61.990
31879DA     SC4 7241  26.598  65.239  61.755
31880DT     BB1 7242  26.629  64.683  61.638
31880DT     BB2 7243  26.648  64.621  61.993
31880DT     BB3 7244  26.458  64.625  62.075
31880DT     SC1 7245  26.447  64.887  62.058
31880DT     SC2 7246  26.455  64.971  62.256
31880DT     SC3 7247  26.369  65.128  61.986
31881DA     BB1 7248  26.680  64.290  62.200
31881DA     BB2 7249  26.508  64.431  62.491
31881DA     BB3 7250  26.298  64.401  62.475
31881DA     SC1 7251  26.246  64.671  62.329
31881DA     SC2 7252  26.137  64.890  62.379
31881DA     SC3 7253  26.126  64.919  62.124
31881DA     SC4 7254  26.247  64.670  62.168
31882DT     BB1 7255  26.216  64.278  62.604
31882DT     BB2 7256  26.026  64.518  62.795
31882DT     BB3 7257  25.827  64.512  62.738
31882DT     SC1 7258  25.879  64.638  62.515
31882DT     SC2 7259  25.794  64.836  62.523
31882DT     SC3 7260  25.902  64.686  62.256
31883DC     BB1 7261  25.737  64.372  62.967
31883DC     BB2 7262  25.515  64.657  62.954
31883DC     BB3 7263  25.347  64.611  62.842
31883DC     SC1 7264  25.482  64.627  62.618
31883DC     SC2 7265  25.417  64.800  62.508
31883DC     SC3 7266  25.594  64.555  62.390
31884DA     BB1 7267  25.150  64.726  63.200
31884DA     BB2 7268  24.973  64.896  62.928
31884DA     BB3 7269  24.839  64.762  62.831
31884DA     SC1 7270  25.046  64.666  62.620
31884DA     SC2 7271  25.084  64.689  62.375
31884DA     SC3 7272  25.233  64.481  62.399
31884DA     SC4 7273  25.133  64.536  62.656
31885DC     BB1 7274  24.584  64.750  62.830
31885DC     BB2 7275  24.541  64.873  62.493
31885DC     BB3 7276  24.459  64.725  62.374
31885DC     SC1 7277  24.687  64.595  62.364
31885DC     SC2 7278  24.768  64.608  62.165
31885DC     SC3 7279  24.865  64.404  62.397
31886DA     BB1 7280  24.165  65.023  62.309
31886DA     BB2 7281  24.264  64.903  61.977
31886DA     BB3 7282  24.162  64.721  61.930
31886DA     SC1 7283  24.383  64.538  62.049
31886DA     SC2 7284  24.555  64.377  61.965
31886DA     SC3 7285  24.555  64.285  62.204
31886DA     SC4 7286  24.368  64.493  62.203
31887DT     BB1 7287  23.994  64.689  61.764
31887DT     BB2 7288  24.211  64.520  61.529
31887DT     BB3 7289  24.151  64.323  61.507
31887DT     SC1 7290  24.251  64.258  61.741
31887DT     SC2 7291  24.422  64.132  61.713
31887DT     SC3 7292  24.263  64.176  61.992
31888DA     BB1 7293  24.160  64.472  61.117
31888DA     BB2 7294  24.354  64.161  61.118
31888DA     BB3 7295  24.223  63.992  61.118
31888DA     SC1 7296  24.209  63.971  61.428
31888DA     SC2 7297  24.290  63.817  61.607
31888DA     SC3 7298  24.109  63.924  61.753
31888DA     SC4 7299  24.090  64.049  61.503
31889DT     BB1 7300  24.219  63.866  60.952
31889DT     BB2 7301  24.405  63.596  61.104
31889DT     BB3 7302  24.279  63.437  61.143
31889DT     SC1 7303  24.173  63.562  61.348
31889DT     SC2 7304  24.233  63.464  61.530
31889DT     SC3 7305  23.993  63.680  61.501
31890DC     BB1 7306  24.401  63.303  60.943
31890DC     BB2 7307  24.447  63.095  61.234
31890DC     BB3 7308  24.283  62.970  61.258
31890DC     SC1 7309  24.135  63.168  61.346
31890DC     SC2 7310  24.094  63.139  61.555
31890DC     SC3 7311  23.940  63.345  61.358
31891DA     BB1 7312  24.641  62.753  61.278
31891DA     BB2 7313  24.430  62.655  61.563
31891DA     BB3 7314  24.265  62.538  61.496
31891DA     SC1 7315  24.077  62.782  61.455
31891DA     SC2 7316  23.872  62.876  61.562
31891DA     SC3 7317  23.839  63.001  61.341
31891DA     SC4 7318  24.073  62.849  61.310
31892DT     BB1 7319  24.269  62.359  61.559
31892DT     BB2 7320  24.000  62.387  61.797
31892DT     BB3 7321  23.826  62.306  61.717
31892DT     SC1 7322  23.793  62.514  61.560
31892DT     SC2 7323  23.622  62.627  61.627
31892DT     SC3 7324  23.770  62.658  61.341
31893DA     BB1 7325  23.884  62.131  62.093
31893DA     BB2 7326  23.534  62.238  62.072
31893DA     BB3 7327  23.425  62.109  61.942
31893DA     SC1 7328  23.479  62.279  61.688
31893DA     SC2 7329  23.351  62.426  61.532
31893DA     SC3 7330  23.543  62.386  61.367
31893DA     SC4 7331  23.608  62.241  61.599
31894DA     BB1 7332  23.224  62.077  62.202
31894DA     BB2 7333  22.955  62.212  61.992
31894DA     BB3 7334  22.885  62.063  61.857
31894DA     SC1 7335  23.084  62.140  61.630
31894DA     SC2 7336  23.075  62.246  61.405
31894DA     SC3 7337  23.304  62.135  61.366
31894DA     SC4 7338  23.225  62.062  61.625
31895DA     BB1 7339  22.586  62.127  61.984
31895DA     BB2 7340  22.479  62.227  61.648
31895DA     BB3 7341  22.439  62.054  61.529
31895DA     SC1 7342  22.728  62.034  61.417
31895DA     SC2 7343  22.845  62.067  61.199
31895DA     SC3 7344  23.031  61.922  61.300
31895DA     SC4 7345  22.832  61.940  61.497
31896DA     BB1 7346  22.144  62.196  61.482
31896DA     BB2 7347  22.223  62.206  61.124
31896DA     BB3 7348  22.195  62.014  61.036
31896DA     SC1 7349  22.487  61.921  61.085
31896DA     SC2 7350  22.691  61.873  60.950
31896DA     SC3 7351  22.770  61.738  61.154
31896DA     SC4 7352  22.518  61.842  61.222
31897DA     BB1 7353  22.003  62.183  60.830
31897DA     BB2 7354  22.227  62.077  60.560
31897DA     BB3 7355  22.189  61.874  60.507
31897DA     SC1 7356  22.395  61.757  60.708
31897DA     SC2 7357  22.615  61.641  60.700
31897DA     SC3 7358  22.559  61.561  60.937
31897DA     SC4 7359  22.341  61.717  60.854
31898DG     BB1 7360  22.124  61.993  60.226
31898DG     BB2 7361  22.411  61.796  60.126
31898DG     BB3 7362  22.355  61.607  60.093
31898DG     SC1 7363  22.404  61.517  60.381
31898DG     SC2 7364  22.613  61.324  60.472
31898DG     SC3 7365  22.427  61.388  60.692
31898DG     SC4 7366  22.285  61.530  60.488
31899DA     BB1 7367  22.513  61.638  59.785
31899DA     BB2 7368  22.734  61.358  59.868
31899DA     BB3 7369  22.629  61.173  59.850
31899DA     SC1 7370  22.534  61.170  60.146
31899DA     SC2 7371  22.581  61.039  60.354
31899DA     SC3 7372  22.355  61.129  60.436
31899DA     SC4 7373  22.391  61.234  60.179
31900DT     BB1 7374  22.684  61.042  59.704
31900DT     BB2 7375  22.843  60.798  59.917
31900DT     BB3 7376  22.721  60.632  59.937
31900DT     SC1 7377  22.560  60.761  60.100
31900DT     SC2 7378  22.579  60.680  60.298
31900DT     SC3 7379  22.342  60.874  60.194
31901DC     BB1 7380  22.878  60.472  59.771
31901DC     BB2 7381  22.857  60.282  60.077
31901DC     BB3 7382  22.693  60.155  60.071
31901DC     SC1 7383  22.528  60.355  60.110
31901DC     SC2 7384  22.441  60.338  60.306
31901DC     SC3 7385  22.335  60.530  60.067
31902DT     BB1 7386  22.848  59.927  60.033
31902DT     BB2 7387  22.652  59.851  60.326
31902DT     BB3 7388  22.474  59.761  60.270
31902DT     SC1 7389  22.375  59.990  60.188
31902DT     SC2 7390  22.217  60.051  60.320
31902DT     SC3 7391  22.278  60.174  60.026
31903DA     BB1 7392  22.638  59.494  60.549
31903DA     BB2 7393  22.288  59.548  60.645
31903DA     BB3 7394  22.158  59.439  60.515
31903DA     SC1 7395  22.126  59.672  60.311
31903DA     SC2 7396  21.947  59.830  60.238
31903DA     SC3 7397  22.089  59.860  60.027
31903DA     SC4 7398  22.228  59.676  60.187
31904DC     BB1 7399  22.040  59.269  60.582
31904DC     BB2 7400  21.720  59.437  60.581
31904DC     BB3 7401  21.604  59.367  60.425
31904DC     SC1 7402  21.745  59.502  60.250
31904DC     SC2 7403  21.625  59.662  60.170
31904DC     SC3 7404  21.904  59.553  60.046
31905DA     BB1 7405  21.355  59.310  60.759
31905DA     BB2 7406  21.154  59.479  60.503
31905DA     BB3 7407  21.093  59.340  60.352
31905DA     SC1 7408  21.342  59.389  60.172
31905DA     SC2 7409  21.392  59.494  59.952
31905DA     SC3 7410  21.607  59.354  59.957
31905DA     SC4 7411  21.469  59.293  60.193
31906DT     BB1 7412  20.881  59.273  60.318
31906DT     BB2 7413  20.827  59.465  60.017
31906DT     BB3 7414  20.814  59.338  59.854
31906DT     SC1 7415  21.073  59.297  59.855
31906DT     SC2 7416  21.161  59.390  59.683
31906DT     SC3 7417  21.304  59.172  59.874
31907DA     BB1 7418  20.455  59.555  59.826
31907DA     BB2 7419  20.614  59.567  59.495
31907DA     BB3 7420  20.582  59.384  59.391
31907DA     SC1 7421  20.842  59.250  59.497
31907DA     SC2 7422  21.063  59.179  59.407
31907DA     SC3 7423  21.076  59.028  59.614
31907DA     SC4 7424  20.831  59.162  59.632
31908DA     BB1 7425  20.455  59.573  59.152
31908DA     BB2 7426  20.727  59.455  58.936
31908DA     BB3 7427  20.682  59.262  58.858
31908DA     SC1 7428  20.818  59.109  59.092
31908DA     SC2 7429  21.020  58.967  59.127
31908DA     SC3 7430  20.899  58.882  59.337
31908DA     SC4 7431  20.726  59.067  59.217
31909DT     BB1 7432  20.650  59.238  58.654
31909DT     BB2 7433  20.970  59.086  58.583
31909DT     BB3 7434  20.944  58.884  58.542
31909DT     SC1 7435  20.904  58.830  58.796
31909DT     SC2 7436  21.072  58.718  58.872
31909DT     SC3 7437  20.784  58.752  59.017
31910DT     BB1 7438  21.005  58.943  58.289
31910DT     BB2 7439  21.253  58.702  58.391
31910DT     BB3 7440  21.180  58.510  58.364
31910DT     SC1 7441  21.023  58.531  58.573
31910DT     SC2 7442  21.095  58.402  58.730
31910DT     SC3 7443  20.804  58.543  58.719
31911DA     BB1 7444  21.564  58.560  58.205
31911DA     BB2 7445  21.561  58.254  58.407
31911DA     BB3 7446  21.446  58.103  58.311
31911DA     SC1 7447  21.179  58.183  58.449
31911DA     SC2 7448  21.025  58.089  58.621
31911DA     SC3 7449  20.850  58.248  58.522
31911DA     SC4 7450  21.084  58.287  58.373
31912DA     BB1 7451  21.732  57.963  58.384
31912DA     BB2 7452  21.535  57.719  58.575
31912DA     BB3 7453  21.423  57.594  58.443
31912DA     SC1 7454  21.172  57.778  58.443
31912DA     SC2 7455  20.939  57.772  58.530
31912DA     SC3 7456  20.891  57.954  58.356
31912DA     SC4 7457  21.162  57.890  58.328
31913DA     BB1 7458  21.578  57.373  58.630
31913DA     BB2 7459  21.245  57.245  58.717
31913DA     BB3 7460  21.158  57.144  58.550
31913DA     SC1 7461  21.018  57.398  58.438
31913DA     SC2 7462  20.786  57.485  58.414
31913DA     SC3 7463  20.884  57.640  58.234
31913DA     SC4 7464  21.098  57.485  58.329
31914DA     BB1 7465  21.124  56.895  58.766
31914DA     BB2 7466  20.763  56.909  58.702
31914DA     BB3 7467  20.718  56.821  58.513
31914DA     SC1 7468  20.744  57.088  58.355
31914DA     SC2 7469  20.594  57.248  58.236
31914DA     SC3 7470  20.807  57.328  58.118
31914DA     SC4 7471  20.888  57.124  58.292
31915DG     BB1 7472  20.539  56.596  58.652
31915DG     BB2 7473  20.269  56.747  58.465
31915DG     BB3 7474  20.259  56.666  58.283
31915DG     SC1 7475  20.451  56.869  58.156
31915DG     SC2 7476  20.379  57.073  57.950
31915DG     SC3 7477  20.672  57.060  57.989
31915DG     SC4 7478  20.608  56.838  58.158
31916DA     BB1 7479  19.916  56.572  58.308
31916DA     BB2 7480  19.827  56.785  58.023
31916DA     BB3 7481  19.865  56.683  57.840
31916DA     SC1 7482  20.157  56.790  57.814
31916DA     SC2 7483  20.283  56.948  57.668
31916DA     SC3 7484  20.492  56.824  57.750
31916DA     SC4 7485  20.275  56.699  57.875
31917DA     BB1 7486  19.546  56.733  57.753
31917DA     BB2 7487  19.667  56.936  57.473
31917DA     BB3 7488  19.723  56.811  57.310
31917DA     SC1 7489  20.019  56.784  57.401
31917DA     SC2 7490  20.244  56.860  57.325
31917DA     SC3 7491  20.336  56.669  57.469
31917DA     SC4 7492  20.057  56.658  57.495
31918DA     BB1 7493  19.513  56.995  57.134
31918DA     BB2 7494  19.799  57.104  56.934
31918DA     BB3 7495  19.850  56.956  56.789
31918DA     SC1 7496  20.051  56.808  56.975
31918DA     SC2 7497  20.298  56.774  56.990
31918DA     SC3 7498  20.241  56.572  57.138
31918DA     SC4 7499  19.995  56.687  57.064
31919DA     BB1 7500  19.818  57.213  56.593
31919DA     BB2 7501  20.172  57.170  56.510
31919DA     BB3 7502  20.197  57.007  56.374
31919DA     SC1 7503  20.236  56.795  56.599
31919DA     SC2 7504  20.421  56.654  56.689
31919DA     SC3 7505  20.234  56.508  56.787
31919DA     SC4 7506  20.106  56.717  56.650
31920DT     BB1 7507  20.263  57.063  56.209
31920DT     BB2 7508  20.599  56.939  56.252
31920DT     BB3 7509  20.622  56.761  56.150
31920DT     SC1 7510  20.484  56.630  56.331
31920DT     SC2 7511  20.616  56.500  56.441
31920DT     SC3 7512  20.292  56.488  56.442
31921DT     BB1 7513  20.776  56.908  55.999
31921DT     BB2 7514  20.985  56.639  56.118
31921DT     BB3 7515  20.952  56.469  56.004
31921DT     SC1 7516  20.722  56.425  56.122
31921DT     SC2 7517  20.737  56.250  56.246
31921DT     SC3 7518  20.462  56.395  56.156
31922DA     BB1 7519  21.362  56.555  56.050
31922DA     BB2 7520  21.307  56.199  56.120
31922DA     BB3 7521  21.254  56.096  55.941
31922DA     SC1 7522  20.948  56.138  55.980
31922DA     SC2 7523  20.748  55.999  56.033
31922DA     SC3 7524  20.612  56.192  55.932
31922DA     SC4 7525  20.881  56.267  55.911
31923DA     BB1 7526  21.502  55.918  56.061
31923DA     BB2 7527  21.267  55.637  56.064
31923DA     BB3 7528  21.222  55.576  55.864
31923DA     SC1 7529  20.977  55.764  55.835
31923DA     SC2 7530  20.729  55.744  55.820
31923DA     SC3 7531  20.736  55.979  55.718
31923DA     SC4 7532  21.002  55.910  55.773
31924DT     BB1 7533  21.284  55.400  55.815
31924DT     BB2 7534  20.963  55.236  55.805
31924DT     BB3 7535  20.899  55.218  55.609
31924DT     SC1 7536  20.838  55.474  55.598
31924DT     SC2 7537  20.625  55.496  55.589
31924DT     SC3 7538  20.843  55.727  55.524
31925DG     BB1 7539  20.913  54.833  55.746
31925DG     BB2 7540  20.593  54.904  55.592
31925DG     BB3 7541  20.611  54.897  55.394
31925DG     SC1 7542  20.683  55.193  55.364
31925DG     SC2 7543  20.515  55.402  55.233
31925DG     SC3 7544  20.784  55.508  55.298
31925DG     SC4 7545  20.836  55.237  55.374
31926DG     BB1 7546  20.384  54.650  55.354
31926DG     BB2 7547  20.188  54.887  55.163
31926DG     BB3 7548  20.246  54.886  54.973
31926DG     SC1 7549  20.459  55.103  55.011
31926DG     SC2 7550  20.452  55.377  54.893
31926DG     SC3 7551  20.713  55.324  55.021
31926DG     SC4 7552  20.607  55.060  55.054
31927DA     BB1 7553  19.919  54.824  54.848
31927DA     BB2 7554  19.923  55.141  54.664
31927DA     BB3 7555  20.029  55.118  54.480
31927DA     SC1 7556  20.304  55.199  54.600
31927DA     SC2 7557  20.464  55.389  54.584
31927DA     SC3 7558  20.639  55.224  54.674
31927DA     SC4 7559  20.398  55.080  54.655
31928DT     BB1 7560  19.936  55.128  54.272
31928DT     BB2 7561  20.059  55.459  54.194
31928DT     BB3 7562  20.203  55.447  54.046
31928DT     SC1 7563  20.381  55.354  54.216
31928DT     SC2 7564  20.532  55.503  54.250
31928DT     SC3 7565  20.552  55.189  54.330
31929DT     BB1 7566  20.039  55.552  53.846
31929DT     BB2 7567  20.320  55.779  53.859
31929DT     BB3 7568  20.467  55.716  53.728
31929DT     SC1 7569  20.537  55.520  53.888
31929DT     SC2 7570  20.732  55.562  53.971
31929DT     SC3 7571  20.580  55.276  53.977
31930DT     BB1 7572  20.409  55.926  53.569
31930DT     BB2 7573  20.755  55.970  53.660
31930DT     BB3 7574  20.877  55.865  53.529
31930DT     SC1 7575  20.811  55.636  53.640
31930DT     SC2 7576  20.981  55.556  53.745
31930DT     SC3 7577  20.712  55.393  53.668
31931DG     BB1 7578  20.986  56.255  53.530
31931DG     BB2 7579  21.267  56.039  53.598
31931DG     BB3 7580  21.333  55.958  53.429
31931DG     SC1 7581  21.151  55.713  53.445
31931DG     SC2 7582  21.239  55.431  53.487
31931DG     SC3 7583  20.950  55.443  53.422
31931DG     SC4 7584  21.004  55.721  53.381
31932DT     BB1 7585  21.529  56.003  53.380
31932DT     BB2 7586  21.700  55.693  53.446
31932DT     BB3 7587  21.729  55.589  53.269
31932DT     SC1 7588  21.477  55.520  53.258
31932DT     SC2 7589  21.459  55.308  53.293
31932DT     SC3 7590  21.228  55.501  53.172
31933DG     BB1 7591  22.090  55.645  53.451
31933DG     BB2 7592  22.042  55.299  53.356
31933DG     BB3 7593  22.070  55.278  53.160
31933DG     SC1 7594  21.778  55.331  53.087
31933DG     SC2 7595  21.588  55.133  52.970
31933DG     SC3 7596  21.471  55.404  52.969
31933DG     SC4 7597  21.731  55.482  53.061
31934DA     BB1 7598  22.303  55.020  53.217
31934DA     BB2 7599  22.105  54.786  53.016
31934DA     BB3 7600  22.137  54.822  52.808
31934DA     SC1 7601  21.902  55.025  52.783
31934DA     SC2 7602  21.677  55.034  52.676
31934DA     SC3 7603  21.700  55.289  52.696
31934DA     SC4 7604  21.936  55.181  52.803
31935DA     BB1 7605  22.235  54.502  52.757
31935DA     BB2 7606  21.953  54.460  52.526
31935DA     BB3 7607  22.003  54.535  52.333
31935DA     SC1 7608  21.899  54.822  52.390
31935DA     SC2 7609  21.710  54.968  52.317
31935DA     SC3 7610  21.855  55.163  52.401
31935DA     SC4 7611  22.004  54.930  52.447
31936DC     BB1 7612  22.044  54.414  52.115
31936DC     BB2 7613  21.729  54.507  51.965
31936DC     BB3 7614  21.761  54.628  51.801
31936DC     SC1 7615  21.820  54.833  51.955
31936DC     SC2 7616  21.663  54.980  51.940
31936DC     SC3 7617  21.958  55.028  52.067
31937DT     BB1 7618  21.707  54.437  51.583
31937DT     BB2 7619  21.471  54.704  51.524
31937DT     BB3 7620  21.548  54.837  51.385
31937DT     SC1 7621  21.713  54.938  51.562
31937DT     SC2 7622  21.652  55.139  51.610
31937DT     SC3 7623  21.939  55.006  51.681
31938DA     BB1 7624  21.170  54.721  51.258
31938DA     BB2 7625  21.179  55.087  51.266
31938DA     BB3 7626  21.289  55.162  51.099
31938DA     SC1 7627  21.562  55.164  51.248
31938DA     SC2 7628  21.723  55.333  51.337
31938DA     SC3 7629  21.895  55.143  51.331
31938DA     SC4 7630  21.654  55.033  51.235
31939DC     BB1 7631  21.175  55.256  51.007
31939DC     BB2 7632  21.299  55.580  51.107
31939DC     BB3 7633  21.425  55.655  50.962
31939DC     SC1 7634  21.617  55.491  51.033
31939DC     SC2 7635  21.776  55.603  51.125
31939DC     SC3 7636  21.795  55.297  51.020
31940DC     BB1 7637  21.222  55.806  50.979
31940DC     BB2 7638  21.510  56.013  51.046
31940DC     BB3 7639  21.614  56.048  50.871
31940DC     SC1 7640  21.711  55.804  50.871
31940DC     SC2 7641  21.923  55.811  50.912
31940DC     SC3 7642  21.760  55.556  50.795
31941DA     BB1 7643  21.550  56.375  51.139
31941DA     BB2 7644  21.896  56.380  51.017
31941DA     BB3 7645  21.900  56.412  50.806
31941DA     SC1 7646  21.892  56.109  50.735
31941DA     SC2 7647  22.045  55.938  50.638
31941DA     SC3 7648  21.832  55.804  50.588
31941DA     SC4 7649  21.748  56.042  50.711
31942DA     BB1 7650  22.112  56.626  50.941
31942DA     BB2 7651  22.359  56.483  50.711
31942DA     BB3 7652  22.306  56.527  50.508
31942DA     SC1 7653  22.138  56.268  50.470
31942DA     SC2 7654  22.155  56.054  50.343
31942DA     SC3 7655  21.902  56.037  50.378
31942DA     SC4 7656  21.981  56.276  50.501
31943DA     BB1 7657  22.618  56.638  50.507
31943DA     BB2 7658  22.679  56.408  50.228
31943DA     BB3 7659  22.582  56.479  50.052
31943DA     SC1 7660  22.318  56.324  50.106
31943DA     SC2 7661  22.194  56.131  50.009
31943DA     SC3 7662  21.989  56.228  50.128
31943DA     SC4 7663  22.202  56.401  50.186
31944DA     BB1 7664  22.880  56.463  49.898
31944DA     BB2 7665  22.731  56.232  49.656
31944DA     BB3 7666  22.611  56.339  49.515
31944DA     SC1 7667  22.350  56.314  49.682
31944DA     SC2 7668  22.132  56.194  49.667
31944DA     SC3 7669  22.046  56.370  49.833
31944DA     SC4 7670  22.315  56.433  49.785
31945DA     BB1 7671  22.785  56.218  49.246
31945DA     BB2 7672  22.476  56.065  49.123
31945DA     BB3 7673  22.359  56.209  49.018
31945DA     SC1 7674  22.199  56.299  49.270
31945DA     SC2 7675  21.967  56.281  49.357
31945DA     SC3 7676  22.029  56.480  49.507
31945DA     SC4 7677  22.257  56.424  49.353
31946DA     BB1 7678  22.344  56.033  48.719
31946DA     BB2 7679  21.980  56.009  48.759
31946DA     BB3 7680  21.886  56.183  48.679
31946DA     SC1 7681  21.892  56.339  48.948
31946DA     SC2 7682  21.730  56.418  49.120
31946DA     SC3 7683  21.914  56.582  49.190
31946DA     SC4 7684  22.019  56.435  48.976
31947DT     BB1 7685  21.734  56.223  48.469
31947DT     BB2 7686  21.427  56.244  48.657
31947DT     BB3 7687  21.345  56.434  48.638
31947DT     SC1 7688  21.524  56.536  48.800
31947DT     SC2 7689  21.429  56.593  48.984
31947DT     SC3 7690  21.725  56.683  48.887
31948DT     BB1 7691  21.117  56.390  48.446
31948DT     BB2 7692  20.957  56.522  48.741
31948DT     BB3 7693  20.927  56.726  48.720
31948DT     SC1 7694  21.182  56.775  48.760
31948DT     SC2 7695  21.206  56.873  48.950
31948DT     SC3 7696  21.429  56.855  48.715
31949DC     BB1 7697  20.644  56.714  48.681
31949DC     BB2 7698  20.688  56.907  48.983
31949DC     BB3 7699  20.692  57.109  48.937
31949DC     SC1 7700  20.935  57.090  48.839
31949DC     SC2 7701  21.073  57.192  48.969
31949DC     SC3 7702  21.134  57.096  48.666
31950DC     BB1 7703  20.464  57.108  49.066
31950DC     BB2 7704  20.691  57.310  49.261
31950DC     BB3 7705  20.696  57.503  49.187
31950DC     SC1 7706  20.840  57.428  48.981
31950DC     SC2 7707  21.038  57.509  49.000
31950DC     SC3 7708  20.910  57.381  48.731
31951DT     BB1 7709  20.598  57.514  49.422
31951DT     BB2 7710  20.904  57.705  49.428
31951DT     BB3 7711  20.875  57.888  49.337
31951DT     SC1 7712  20.875  57.779  49.098
31951DT     SC2 7713  21.053  57.837  48.993
31951DT     SC3 7714  20.790  57.701  48.861
31952DG     BB1 7715  21.064  57.838  49.704
31952DG     BB2 7716  21.252  58.043  49.472
31952DG     BB3 7717  21.155  58.212  49.437
31952DG     SC1 7718  20.997  58.102  49.199
31952DG     SC2 7719  21.025  58.186  48.915
31952DG     SC3 7720  20.792  58.008  48.948
31952DG     SC4 7721  20.856  58.030  49.227
31953DT     BB1 7722  21.278  58.336  49.483
31953DT     BB2 7723  21.360  58.498  49.172
31953DT     BB3 7724  21.225  58.650  49.133
31953DT     SC1 7725  21.038  58.477  49.067
31953DT     SC2 7726  21.000  58.491  48.856
31953DT     SC3 7727  20.812  58.342  49.073
31954DA     BB1 7728  21.617  58.795  49.087
31954DA     BB2 7729  21.414  58.920  48.808
31954DA     BB3 7730  21.274  59.066  48.877
31954DA     SC1 7731  21.049  58.858  48.932
31954DA     SC2 7732  20.827  58.797  48.836
31954DA     SC3 7733  20.783  58.685  49.063
31954DA     SC4 7734  21.040  58.796  49.080
31955DT     BB1 7735  21.290  59.270  48.825
31955DT     BB2 7736  21.005  59.290  48.605
31955DT     BB3 7737  20.851  59.391  48.698
31955DT     SC1 7738  20.797  59.184  48.850
31955DT     SC2 7739  20.608  59.100  48.792
31955DT     SC3 7740  20.768  59.037  49.067
31956DT     BB1 7741  20.876  59.641  48.558
31956DT     BB2 7742  20.529  59.557  48.509
31956DT     BB3 7743  20.413  59.644  48.658
31956DT     SC1 7744  20.496  59.469  48.835
31956DT     SC2 7745  20.333  59.338  48.887
31956DT     SC3 7746  20.612  59.369  49.050
31957DG     BB1 7747  20.248  59.828  48.328
31957DG     BB2 7748  19.988  59.680  48.532
31957DG     BB3 7749  19.937  59.805  48.678
31957DG     SC1 7750  20.144  59.696  48.876
31957DG     SC2 7751  20.084  59.549  49.129
31957DG     SC3 7752  20.372  59.616  49.111
31957DG     SC4 7753  20.291  59.759  48.877
31958DT     BB1 7754  19.719  59.920  48.714
31958DT     BB2 7755  19.586  59.725  48.986
31958DT     BB3 7756  19.583  59.838  49.160
31958DT     SC1 7757  19.843  59.815  49.188
31958DT     SC2 7758  19.886  59.690  49.358
31958DT     SC3 7759  20.098  59.882  49.205
31959DT     BB1 7760  19.306  59.871  49.157
31959DT     BB2 7761  19.371  59.720  49.478
31959DT     BB3 7762  19.403  59.868  49.620
31959DT     SC1 7763  19.643  59.919  49.525
31959DT     SC2 7764  19.791  59.853  49.667
31959DT     SC3 7765  19.843  60.049  49.414
31960DA     BB1 7766  19.107  59.617  49.777
31960DA     BB2 7767  19.361  59.664  50.037
31960DA     BB3 7768  19.344  59.858  50.123
31960DA     SC1 7769  19.541  59.991  49.923
31960DA     SC2 7770  19.771  60.089  49.928
31960DA     SC3 7771  19.702  60.208  49.711
31960DA     SC4 7772  19.479  60.057  49.790
31961DT     BB1 7773  19.290  59.867  50.313
31961DT     BB2 7774  19.613  59.958  50.447
31961DT     BB3 7775  19.615  60.159  50.494
31961DT     SC1 7776  19.632  60.227  50.241
31961DT     SC2 7777  19.827  60.309  50.201
31961DT     SC3 7778  19.568  60.331  50.007
31962DC     BB1 7779  19.613  60.092  50.755
31962DC     BB2 7780  19.907  60.297  50.716
31962DC     BB3 7781  19.857  60.497  50.734
31962DC     SC1 7782  19.748  60.499  50.495
31962DC     SC2 7783  19.869  60.617  50.362
31962DC     SC3 7784  19.566  60.519  50.305
31963DT     BB1 7785  19.982  60.499  50.971
31963DT     BB2 7786  20.144  60.759  50.781
31963DT     BB3 7787  20.036  60.936  50.796
31963DT     SC1 7788  19.851  60.846  50.633
31963DT     SC2 7789  19.860  60.953  50.447
31963DT     SC3 7790  19.615  60.765  50.545
31964DT     BB1 7791  20.229  61.041  50.956
31964DT     BB2 7792  20.199  61.276  50.683
31964DT     BB3 7793  20.049  61.413  50.724
31964DT     SC1 7794  19.863  61.235  50.673
31964DT     SC2 7795  19.761  61.288  50.491
31964DT     SC3 7796  19.659  61.072  50.709
31965DC     BB1 7797  20.230  61.614  50.773
31965DC     BB2 7798  20.017  61.748  50.515
31965DC     BB3 7799  19.853  61.842  50.600
31965DC     SC1 7800  19.742  61.611  50.658
31965DC     SC2 7801  19.569  61.582  50.534
31965DC     SC3 7802  19.643  61.413  50.800
31966DT     BB1 7803  19.946  62.099  50.545
31966DT     BB2 7804  19.621  62.088  50.388
31966DT     BB3 7805  19.475  62.149  50.523
31966DT     SC1 7806  19.489  61.921  50.653
31966DT     SC2 7807  19.309  61.809  50.620
31966DT     SC3 7808  19.531  61.749  50.848
31967DT     BB1 7809  19.435  62.397  50.401
31967DT     BB2 7810  19.109  62.244  50.398
31967DT     BB3 7811  19.007  62.293  50.572
31967DT     SC1 7812  19.152  62.127  50.714
31967DT     SC2 7813  19.030  61.961  50.776
31967DT     SC3 7814  19.321  62.038  50.895
31968DC     BB1 7815  18.836  62.466  50.439
31968DC     BB2 7816  18.617  62.225  50.594
31968DC     BB3 7817  18.566  62.288  50.784
31968DC     SC1 7818  18.803  62.225  50.877
31968DC     SC2 7819  18.785  62.055  51.008
31968DC     SC3 7820  19.043  62.251  50.984
31969DT     BB1 7821  18.315  62.341  50.697
31969DT     BB2 7822  18.272  62.101  50.963
31969DT     BB3 7823  18.261  62.199  51.145
31969DT     SC1 7824  18.520  62.246  51.145
31969DT     SC2 7825  18.614  62.127  51.298
31969DT     SC3 7826  18.748  62.378  51.142
31970DT     BB1 7827  18.007  62.126  51.145
31970DT     BB2 7828  18.146  61.981  51.444
31970DT     BB3 7829  18.148  62.121  51.596
31970DT     SC1 7830  18.351  62.248  51.488
31970DT     SC2 7831  18.526  62.220  51.610
31970DT     SC3 7832  18.492  62.439  51.374
31971DA     BB1 7833  17.979  61.759  51.723
31971DA     BB2 7834  18.230  61.864  51.970
31971DA     BB3 7835  18.161  62.034  52.078
31971DA     SC1 7836  18.286  62.240  51.881
31971DA     SC2 7837  18.472  62.406  51.881
31971DA     SC3 7838  18.349  62.514  51.684
31971DA     SC4 7839  18.194  62.293  51.761
31972DA     BB1 7840  18.252  61.817  52.303
31972DA     BB2 7841  18.489  62.073  52.415
31972DA     BB3 7842  18.385  62.236  52.506
31972DA     SC1 7843  18.355  62.396  52.241
31972DA     SC2 7844  18.446  62.606  52.141
31972DA     SC3 7845  18.242  62.596  51.986
31972DA     SC4 7846  18.221  62.374  52.155
31973DT     BB1 7847  18.431  62.247  52.680
31973DT     BB2 7848  18.634  62.544  52.655
31973DT     BB3 7849  18.523  62.711  52.707
31973DT     SC1 7850  18.392  62.705  52.480
31973DT     SC2 7851  18.451  62.874  52.360
31973DT     SC3 7852  18.192  62.685  52.309
31974DG     BB1 7853  18.863  62.683  52.929
31974DG     BB2 7854  18.826  63.010  52.779
31974DG     BB3 7855  18.685  63.112  52.874
31974DG     SC1 7856  18.457  63.012  52.696
31974DG     SC2 7857  18.296  63.178  52.506
31974DG     SC3 7858  18.181  62.907  52.533
31974DG     SC4 7859  18.381  62.877  52.736
31975DC     BB1 7860  18.748  63.284  52.959
31975DC     BB2 7861  18.601  63.538  52.749
31975DC     BB3 7862  18.424  63.605  52.833
31975DC     SC1 7863  18.298  63.386  52.764
31975DC     SC2 7864  18.156  63.431  52.609
31975DC     SC3 7865  18.165  63.159  52.785
31976DA     BB1 7866  18.661  63.940  52.738
31976DA     BB2 7867  18.320  64.005  52.620
31976DA     BB3 7868  18.189  64.037  52.786
31976DA     SC1 7869  18.110  63.737  52.813
31976DA     SC2 7870  17.909  63.595  52.775
31976DA     SC3 7871  18.023  63.427  52.932
31976DA     SC4 7872  18.197  63.646  52.914
31977DT     BB1 7873  18.104  64.224  52.822
31977DT     BB2 7874  17.765  64.143  52.729
31977DT     BB3 7875  17.648  64.122  52.899
31977DT     SC1 7876  17.755  63.889  52.954
31977DT     SC2 7877  17.608  63.735  52.924
31977DT     SC3 7878  17.889  63.702  53.082
31978DC     BB1 7879  17.509  64.372  52.882
31978DC     BB2 7880  17.242  64.132  52.908
31978DC     BB3 7881  17.191  64.103  53.107
31978DC     SC1 7882  17.408  63.960  53.149
31978DC     SC2 7883  17.352  63.755  53.182
31978DC     SC3 7884  17.641  63.887  53.247
31979DT     BB1 7885  16.938  64.262  53.138
31979DT     BB2 7886  16.841  63.936  53.256
31979DT     BB3 7887  16.858  63.927  53.462
31979DT     SC1 7888  17.119  63.913  53.449
31979DT     SC2 7889  17.183  63.716  53.509
31979DT     SC3 7890  17.373  63.977  53.478
31980DC     BB1 7891  16.571  63.950  53.565
31980DC     BB2 7892  16.684  63.639  53.708
31980DC     BB3 7893  16.749  63.670  53.903
31980DC     SC1 7894  16.970  63.785  53.820
31980DC     SC2 7895  17.137  63.657  53.863
31980DC     SC3 7896  17.154  63.969  53.780
31981DA     BB1 7897  16.460  63.371  53.965
31981DA     BB2 7898  16.772  63.253  54.118
31981DA     BB3 7899  16.798  63.342  54.310
31981DA     SC1 7900  16.958  63.586  54.201
31981DA     SC2 7901  17.192  63.672  54.210
31981DA     SC3 7902  17.089  63.899  54.148
31981DA     SC4 7903  16.875  63.718  54.164
31982DA     BB1 7904  16.825  63.027  54.379
31982DA     BB2 7905  17.172  63.101  54.472
31982DA     BB3 7906  17.179  63.198  54.662
31982DA     SC1 7907  17.162  63.485  54.545
31982DA     SC2 7908  17.311  63.684  54.520
31982DA     SC3 7909  17.094  63.817  54.490
31982DA     SC4 7910  17.016  63.551  54.529
31983DT     BB1 7911  17.268  63.091  54.774
31983DT     BB2 7912  17.573  63.283  54.782
31983DT     BB3 7913  17.576  63.404  54.950
31983DT     SC1 7914  17.402  63.569  54.844
31983DT     SC2 7915  17.498  63.756  54.798
31983DT     SC3 7916  17.178  63.705  54.809
31984DT     BB1 7917  17.767  63.239  55.006
31984DT     BB2 7918  17.916  63.567  55.014
31984DT     BB3 7919  17.868  63.662  55.191
31984DT     SC1 7920  17.623  63.707  55.110
31984DT     SC2 7921  17.597  63.918  55.076
31984DT     SC3 7922  17.360  63.699  55.099
31985DT     BB1 7923  18.123  63.627  55.242
31985DT     BB2 7924  18.067  63.982  55.278
31985DT     BB3 7925  17.985  64.022  55.463
31985DT     SC1 7926  17.751  63.929  55.388
31985DT     SC2 7927  17.611  64.092  55.373
31985DT     SC3 7928  17.536  63.777  55.379
31986DT     BB1 7929  18.221  64.129  55.549
31986DT     BB2 7930  17.979  64.389  55.611
31986DT     BB3 7931  17.891  64.361  55.796
31986DT     SC1 7932  17.746  64.162  55.706
31986DT     SC2 7933  17.540  64.222  55.699
31986DT     SC3 7934  17.651  63.918  55.677
31987DC     BB1 7935  18.031  64.569  55.927
31987DC     BB2 7936  17.684  64.648  55.989
31987DC     BB3 7937  17.622  64.558  56.165
31987DC     SC1 7938  17.613  64.322  56.051
31987DC     SC2 7939  17.408  64.259  56.033
31987DC     SC3 7940  17.669  64.070  55.999
31988DT     BB1 7941  17.618  64.793  56.333
31988DT     BB2 7942  17.282  64.664  56.360
31988DT     BB3 7943  17.267  64.538  56.523
31988DT     SC1 7944  17.398  64.348  56.398
31988DT     SC2 7945  17.263  64.186  56.355
31988DT     SC3 7946  17.586  64.173  56.341
31989DA     BB1 7947  16.961  64.817  56.582
31989DA     BB2 7948  16.812  64.483  56.607
31989DA     BB3 7949  16.858  64.396  56.797
31989DA     SC1 7950  17.119  64.259  56.698
31989DA     SC2 7951  17.201  64.028  56.654
31989DA     SC3 7952  17.436  64.129  56.673
31989DA     SC4 7953  17.257  64.340  56.715
31990DC     BB1 7954  16.705  64.365  56.907
31990DC     BB2 7955  16.689  64.010  56.847
31990DC     BB3 7956  16.762  63.907  57.012
31990DC     SC1 7957  17.009  63.970  56.951
31990DC     SC2 7958  17.114  63.793  56.887
31990DC     SC3 7959  17.250  64.075  56.970
31991DT     BB1 7960  16.511  63.838  57.030
31991DT     BB2 7961  16.695  63.530  56.992
31991DT     BB3 7962  16.774  63.472  57.175
31991DT     SC1 7963  16.959  63.657  57.164
31991DT     SC2 7964  17.151  63.564  57.135
31991DT     SC3 7965  17.100  63.871  57.225
31992DT     BB1 7966  16.598  63.285  57.136
31992DT     BB2 7967  16.915  63.116  57.174
31992DT     BB3 7968  16.965  63.104  57.374
31992DT     SC1 7969  17.029  63.358  57.382
31992DT     SC2 7970  17.242  63.378  57.406
31992DT     SC3 7971  17.023  63.613  57.449
31993DT     BB1 7972  16.918  62.847  57.339
31993DT     BB2 7973  17.255  62.865  57.467
31993DT     BB3 7974  17.251  62.884  57.673
31993DT     SC1 7975  17.177  63.135  57.657
31993DT     SC2 7976  17.339  63.261  57.722
31993DT     SC3 7977  17.031  63.353  57.682
31994DA     BB1 7978  17.510  62.569  57.575
31994DA     BB2 7979  17.679  62.782  57.821
31994DA     BB3 7980  17.590  62.757  58.014
31994DA     SC1 7981  17.383  62.987  57.974
31994DA     SC2 7982  17.342  63.215  58.065
31994DA     SC3 7983  17.102  63.184  57.979
31994DA     SC4 7984  17.239  62.948  57.915
31995DA     BB1 7985  17.899  62.692  58.107
31995DA     BB2 7986  17.874  62.978  58.335
31995DA     BB3 7987  17.759  62.926  58.507
31995DA     SC1 7988  17.488  63.017  58.383
31995DA     SC2 7989  17.322  63.199  58.416
31995DA     SC3 7990  17.158  63.045  58.292
31995DA     SC4 7991  17.401  62.906  58.305
31996DT     BB1 7992  17.849  62.916  58.692
31996DT     BB2 7993  17.708  63.220  58.825
31996DT     BB3 7994  17.561  63.175  58.964
31996DT     SC1 7995  17.393  63.106  58.775
31996DT     SC2 7996  17.234  63.251  58.764
31996DT     SC3 7997  17.232  62.958  58.627
31997DG     BB1 7998  17.838  63.404  59.153
31997DG     BB2 7999  17.505  63.539  59.196
31997DG     BB3 8000  17.407  63.435  59.335
31997DG     SC1 8001  17.292  63.231  59.138
31997DG     SC2 8002  17.004  63.199  59.068
31997DG     SC3 8003  17.165  62.979  58.954
31997DG     SC4 8004  17.377  63.100  59.104
31998DG     BB1 8005  17.370  63.720  59.489
31998DG     BB2 8006  17.014  63.668  59.449
31998DG     BB3 8007  16.947  63.544  59.590
31998DG     SC1 8008  16.996  63.291  59.425
31998DG     SC2 8009  16.785  63.108  59.319
31998DG     SC3 8010  17.054  62.992  59.281
31998DG     SC4 8011  17.138  63.219  59.433
31999DT     BB1 8012  16.803  63.618  59.726
31999DT     BB2 8013  16.503  63.447  59.621
31999DT     BB3 8014  16.466  63.286  59.746
31999DT     SC1 8015  16.658  63.147  59.634
31999DT     SC2 8016  16.573  62.985  59.521
31999DT     SC3 8017  16.884  63.013  59.607
32000DC     BB1 8018  16.259  63.421  59.857
32000DC     BB2 8019  16.113  63.108  59.751
32000DC     BB3 8020  16.140  62.965  59.898
32000DC     SC1 8021  16.394  62.938  59.838
32000DC     SC2 8022  16.426  62.746  59.747
32000DC     SC3 8023  16.656  62.943  59.862
32001DA     BB1 8024  15.723  62.955  59.835
32001DA     BB2 8025  15.841  62.607  59.835
32001DA     BB3 8026  15.882  62.543  60.035
32001DA     SC1 8027  16.180  62.631  60.027
32001DA     SC2 8028  16.405  62.523  60.024
32001DA     SC3 8029  16.493  62.749  60.107
32001DA     SC4 8030  16.215  62.779  60.080
32002DA     BB1 8031  15.669  62.284  59.997
32002DA     BB2 8032  15.952  62.057  60.049
32002DA     BB3 8033  15.992  62.035  60.257
32002DA     SC1 8034  16.194  62.271  60.269
32002DA     SC2 8035  16.440  62.302  60.299
32002DA     SC3 8036  16.380  62.543  60.364
32002DA     SC4 8037  16.137  62.416  60.307
32003DA     BB1 8038  15.957  61.704  60.222
32003DA     BB2 8039  16.309  61.670  60.318
32003DA     BB3 8040  16.329  61.676  60.530
32003DA     SC1 8041  16.368  61.984  60.543
32003DA     SC2 8042  16.551  62.145  60.594
32003DA     SC3 8043  16.363  62.315  60.634
32003DA     SC4 8044  16.237  62.075  60.564
32004DA     BB1 8045  16.484  61.389  60.488
32004DA     BB2 8046  16.784  61.553  60.620
32004DA     BB3 8047  16.775  61.564  60.833
32004DA     SC1 8048  16.637  61.843  60.836
32004DA     SC2 8049  16.695  62.077  60.899
32004DA     SC3 8050  16.442  62.115  60.913
32004DA     SC4 8051  16.476  61.846  60.841
32005DA     BB1 8052  17.062  61.423  60.778
32005DA     BB2 8053  17.210  61.717  60.940
32005DA     BB3 8054  17.178  61.710  61.151
32005DA     SC1 8055  16.909  61.866  61.140
32005DA     SC2 8056  16.823  62.090  61.208
32005DA     SC3 8057  16.591  61.982  61.195
32005DA     SC4 8058  16.774  61.780  61.128
32006DA     BB1 8059  17.494  61.762  61.102
32006DA     BB2 8060  17.444  62.073  61.290
32006DA     BB3 8061  17.406  62.030  61.496
32006DA     SC1 8062  17.097  62.015  61.460
32006DA     SC2 8063  16.897  62.149  61.527
32006DA     SC3 8064  16.764  61.933  61.484
32006DA     SC4 8065  17.033  61.871  61.430
32007DA     BB1 8066  17.640  62.257  61.474
32007DA     BB2 8067  17.418  62.464  61.679
32007DA     BB3 8068  17.397  62.380  61.874
32007DA     SC1 8069  17.149  62.207  61.800
32007DA     SC2 8070  16.905  62.202  61.852
32007DA     SC3 8071  16.915  61.957  61.776
32007DA     SC4 8072  17.176  62.056  61.751
32008DT     BB1 8073  17.466  62.493  61.993
32008DT     BB2 8074  17.158  62.596  62.152
32008DT     BB3 8075  17.124  62.481  62.320
32008DT     SC1 8076  17.053  62.274  62.175
32008DT     SC2 8077  16.842  62.239  62.199
32008DT     SC3 8078  17.056  62.032  62.070
32009DA     BB1 8079  17.092  62.881  62.448
32009DA     BB2 8080  16.811  62.696  62.594
32009DA     BB3 8081  16.880  62.568  62.750
32009DA     SC1 8082  16.927  62.324  62.561
32009DA     SC2 8083  16.826  62.100  62.521
32009DA     SC3 8084  17.050  62.042  62.410
32009DA     SC4 8085  17.074  62.307  62.498
32010DT     BB1 8086  16.844  62.589  62.979
32010DT     BB2 8087  16.614  62.313  63.016
32010DT     BB3 8088  16.706  62.158  63.119
32010DT     SC1 8089  16.849  62.092  62.909
32010DT     SC2 8090  16.781  61.903  62.833
32010DT     SC3 8091  17.059  62.050  62.756
32011DT     BB1 8092  16.598  62.176  63.408
32011DT     BB2 8093  16.528  61.833  63.323
32011DT     BB3 8094  16.677  61.710  63.397
32011DT     SC1 8095  16.845  61.787  63.211
32011DT     SC2 8096  16.880  61.624  63.075
32011DT     SC3 8097  17.057  61.895  63.098
32012DA     BB1 8098  16.355  61.517  63.599
32012DA     BB2 8099  16.541  61.251  63.429
32012DA     BB3 8100  16.710  61.193  63.545
32012DA     SC1 8101  16.904  61.397  63.413
32012DA     SC2 8102  17.100  61.392  63.259
32012DA     SC3 8103  17.151  61.626  63.350
32012DA     SC4 8104  16.919  61.541  63.483
32013DA     BB1 8105  16.597  60.878  63.541
32013DA     BB2 8106  16.896  60.788  63.348
32013DA     BB3 8107  17.061  60.753  63.478
32013DA     SC1 8108  17.160  61.048  63.471
32013DA     SC2 8109  17.353  61.176  63.379
32013DA     SC3 8110  17.290  61.356  63.550
32013DA     SC4 8111  17.105  61.148  63.585
32014DT     BB1 8112  17.147  60.559  63.498
32014DT     BB2 8113  17.438  60.628  63.296
32014DT     BB3 8114  17.606  60.637  63.416
32014DT     SC1 8115  17.538  60.873  63.508
32014DT     SC2 8116  17.674  61.021  63.433
32014DT     SC3 8117  17.465  61.061  63.678
32015DT     BB1 8118  17.686  60.403  63.307
32015DT     BB2 8119  17.952  60.635  63.233
32015DT     BB3 8120  18.086  60.642  63.391
32015DT     SC1 8121  17.919  60.784  63.536
32015DT     SC2 8122  17.995  60.983  63.559
32015DT     SC3 8123  17.756  60.851  63.733
32016DT     BB1 8124  18.258  60.515  63.231
32016DT     BB2 8125  18.426  60.819  63.325
32016DT     BB3 8126  18.522  60.794  63.507
32016DT     SC1 8127  18.295  60.806  63.638
32016DT     SC2 8128  18.287  60.989  63.751
32016DT     SC3 8129  18.091  60.733  63.788
32017DA     BB1 8130  18.793  60.953  63.230
32017DA     BB2 8131  18.815  61.151  63.538
32017DA     BB3 8132  18.913  61.040  63.691
32017DA     SC1 8133  18.650  60.918  63.803
32017DA     SC2 8134  18.509  60.938  64.008
32017DA     SC3 8135  18.413  60.710  63.941
32017DA     SC4 8136  18.603  60.775  63.745
32018DG     BB1 8137  19.111  61.277  63.679
32018DG     BB2 8138  18.997  61.331  64.018
32018DG     BB3 8139  19.092  61.208  64.142
32018DG     SC1 8140  18.887  60.983  64.116
32018DG     SC2 8141  18.706  60.885  64.332
32018DG     SC3 8142  18.692  60.708  64.096
32018DG     SC4 8143  18.904  60.875  63.999
32019DA     BB1 8144  19.168  61.491  64.328
32019DA     BB2 8145  18.996  61.346  64.618
32019DA     BB3 8146  19.118  61.196  64.709
32019DA     SC1 8147  18.999  60.964  64.539
32019DA     SC2 8148  18.854  60.765  64.575
32019DA     SC3 8149  18.955  60.677  64.356
32019DA     SC4 8150  19.075  60.926  64.402
32020DA     BB1 8151  19.059  61.383  64.971
32020DA     BB2 8152  18.899  61.089  65.121
32020DA     BB3 8153  19.047  60.949  65.185
32020DA     SC1 8154  19.051  60.794  64.915
32020DA     SC2 8155  18.981  60.571  64.829
32020DA     SC3 8156  19.145  60.616  64.637
32020DA     SC4 8157  19.159  60.840  64.805
32021DT     BB1 8158  19.063  60.917  65.380
32021DT     BB2 8159  18.912  60.589  65.385
32021DT     BB3 8160  19.059  60.444  65.405
32021DT     SC1 8161  19.135  60.474  65.156
32021DT     SC2 8162  19.081  60.299  65.043
32021DT     SC3 8163  19.286  60.531  64.947
32022DT     BB1 8164  18.978  60.400  65.660
32022DT     BB2 8165  18.960  60.076  65.503
32022DT     BB3 8166  19.144  59.982  65.514
32022DT     SC1 8167  19.242  60.136  65.326
32022DT     SC2 8168  19.276  60.020  65.148
32022DT     SC3 8169  19.395  60.316  65.207
32023DC     BB1 8170  19.057  59.805  65.708
32023DC     BB2 8171  19.185  59.590  65.447
32023DC     BB3 8172  19.387  59.557  65.476
32023DC     SC1 8173  19.447  59.798  65.393
32023DC     SC2 8174  19.547  59.785  65.202
32023DC     SC3 8175  19.536  60.046  65.395
32024DT     BB1 8176  19.361  59.291  65.570
32024DT     BB2 8177  19.590  59.259  65.294
32024DT     BB3 8178  19.785  59.278  65.361
32024DT     SC1 8179  19.758  59.538  65.390
32024DT     SC2 8180  19.877  59.639  65.242
32024DT     SC3 8181  19.745  59.774  65.506
32025DC     BB1 8182  19.864  59.000  65.349
32025DC     BB2 8183  20.111  59.165  65.145
32025DC     BB3 8184  20.276  59.213  65.259
32025DC     SC1 8185  20.149  59.411  65.375
32025DC     SC2 8186  20.232  59.598  65.309
32025DC     SC3 8187  20.036  59.556  65.564
32026DT     BB1 8188  20.459  59.009  65.162
32026DT     BB2 8189  20.632  59.318  65.093
32026DT     BB3 8190  20.760  59.363  65.249
32026DT     SC1 8191  20.560  59.436  65.403
32026DT     SC2 8192  20.567  59.649  65.433
32026DT     SC3 8193  20.390  59.439  65.605
32027DT     BB1 8194  20.992  59.301  65.105
32027DT     BB2 8195  21.032  59.648  65.195
32027DT     BB3 8196  21.132  59.663  65.376
32027DT     SC1 8197  20.918  59.588  65.509
32027DT     SC2 8198  20.842  59.755  65.621
32027DT     SC3 8199  20.760  59.444  65.663
32028DG     BB1 8200  21.321  59.869  65.083
32028DG     BB2 8201  21.238  60.079  65.366
32028DG     BB3 8202  21.366  60.046  65.515
32028DG     SC1 8203  21.200  59.822  65.641
32028DG     SC2 8204  21.064  59.834  65.907
32028DG     SC3 8205  21.053  59.560  65.795
32028DG     SC4 8206  21.222  59.672  65.592
32029DT     BB1 8207  21.440  60.211  65.551
32029DT     BB2 8208  21.283  60.299  65.864
32029DT     BB3 8209  21.401  60.236  66.022
32029DT     SC1 8210  21.332  59.986  65.986
32029DT     SC2 8211  21.208  59.922  66.149
32029DT     SC3 8212  21.351  59.728  65.932
32030DA     BB1 8213  21.218  60.622  66.031
32030DA     BB2 8214  21.172  60.455  66.354
32030DA     BB3 8215  21.361  60.423  66.448
32030DA     SC1 8216  21.402  60.141  66.322
32030DA     SC2 8217  21.405  59.904  66.399
32030DA     SC3 8218  21.535  59.857  66.182
32030DA     SC4 8219  21.483  60.133  66.183
32031DT     BB1 8220  21.343  60.514  66.585
32031DT     BB2 8221  21.335  60.244  66.824
32031DT     BB3 8222  21.528  60.197  66.884
32031DT     SC1 8223  21.578  60.077  66.656
32031DT     SC2 8224  21.595  59.865  66.689
32031DT     SC3 8225  21.689  60.023  66.423
32032DA     BB1 8226  21.295  60.251  67.231
32032DA     BB2 8227  21.496  59.947  67.275
32032DA     BB3 8228  21.701  59.998  67.302
32032DA     SC1 8229  21.770  59.985  66.999
32032DA     SC2 8230  21.902  59.839  66.846
32032DA     SC3 8231  21.902  60.040  66.687
32032DA     SC4 8232  21.760  60.122  66.915
32033DC     BB1 8233  21.806  59.969  67.489
32033DC     BB2 8234  22.009  59.690  67.385
32033DC     BB3 8235  22.205  59.750  67.361
32033DC     SC1 8236  22.148  59.872  67.136
32033DC     SC2 8237  22.238  59.766  66.972
32033DC     SC3 8238  22.116  60.066  66.959
32034DA     BB1 8239  22.245  59.430  67.630
32034DA     BB2 8240  22.487  59.375  67.360
32034DA     BB3 8241  22.657  59.501  67.385
32034DA     SC1 8242  22.539  59.734  67.216
32034DA     SC2 8243  22.582  59.842  66.995
32034DA     SC3 8244  22.452  60.042  67.091
32034DA     SC4 8245  22.456  59.848  67.293
32035DA     BB1 8246  22.825  59.220  67.370
32035DA     BB2 8247  22.983  59.351  67.066
32035DA     BB3 8248  23.136  59.490  67.116
32035DA     SC1 8249  22.947  59.737  67.110
32035DA     SC2 8250  22.912  59.939  66.968
32035DA     SC3 8251  22.792  60.037  67.173
32035DA     SC4 8252  22.878  59.781  67.249
32036DT     BB1 8253  23.312  59.435  67.067
32036DT     BB2 8254  23.348  59.655  66.784
32036DT     BB3 8255  23.468  59.816  66.834
32036DT     SC1 8256  23.276  59.926  66.975
32036DT     SC2 8257  23.207  60.104  66.874
32036DT     SC3 8258  23.144  60.022  67.182
32037DA     BB1 8259  23.563  59.631  66.467
32037DA     BB2 8260  23.549  59.994  66.418
32037DA     BB3 8261  23.710  60.089  66.521
32037DA     SC1 8262  23.548  60.131  66.784
32037DA     SC2 8263  23.450  60.321  66.911
32037DA     SC3 8264  23.451  60.161  67.112
32037DA     SC4 8265  23.558  60.017  66.896
32038DG     BB1 8266  23.720  60.171  66.224
32038DG     BB2 8267  23.683  60.500  66.368
32038DG     BB3 8268  23.849  60.552  66.463
32038DG     SC1 8269  23.762  60.432  66.731
32038DG     SC2 8270  23.702  60.586  66.980
32038DG     SC3 8271  23.708  60.295  67.035
32038DG     SC4 8272  23.795  60.279  66.762
32039DT     BB1 8273  23.940  60.716  66.391
32039DT     BB2 8274  23.907  60.962  66.653
32039DT     BB3 8275  24.074  60.957  66.775
32039DT     SC1 8276  23.994  60.734  66.889
32039DT     SC2 8277  23.937  60.774  67.092
32039DT     SC3 8278  23.991  60.481  66.964
32040DA     BB1 8279  24.111  61.372  66.672
32040DA     BB2 8280  24.182  61.353  67.031
32040DA     BB3 8281  24.380  61.279  67.063
32040DA     SC1 8282  24.292  60.981  67.077
32040DA     SC2 8283  24.275  60.802  67.249
32040DA     SC3 8284  24.276  60.639  67.050
32040DA     SC4 8285  24.295  60.896  66.940
32041DG     BB1 8286  24.607  61.535  67.210
32041DG     BB2 8287  24.637  61.315  67.496
32041DG     BB3 8288  24.808  61.213  67.485
32041DG     SC1 8289  24.687  60.980  67.328
32041DG     SC2 8290  24.652  60.700  67.428
32041DG     SC3 8291  24.592  60.717  67.139
32041DG     SC4 8292  24.684  60.987  67.168
32042DT     BB1 8293  25.102  61.184  67.627
32042DT     BB2 8294  25.035  60.882  67.812
32042DT     BB3 8295  25.164  60.732  67.750
32042DT     SC1 8296  25.031  60.699  67.526
32042DT     SC2 8297  24.930  60.509  67.531
32042DT     SC3 8298  24.977  60.693  67.268
32043DT     BB1 8299  25.377  60.709  67.972
32043DT     BB2 8300  25.240  60.376  67.957
32043DT     BB3 8301  25.364  60.253  67.845
32043DT     SC1 8302  25.282  60.363  67.621
32043DT     SC2 8303  25.164  60.222  67.511
32043DT     SC3 8304  25.288  60.498  67.394
32044DT     BB1 8305  25.471  60.106  68.064
32044DT     BB2 8306  25.317  59.854  67.856
32044DT     BB3 8307  25.456  59.776  67.725
32044DT     SC1 8308  25.449  59.993  67.576
32044DT     SC2 8309  25.354  59.947  67.388
32044DT     SC3 8310  25.527  60.213  67.454
32045DC     BB1 8311  25.463  59.540  67.864
32045DC     BB2 8312  25.363  59.446  67.530
32045DC     BB3 8313  25.530  59.408  67.414
32045DC     SC1 8314  25.583  59.665  67.393
32045DC     SC2 8315  25.547  59.729  67.191
32045DC     SC3 8316  25.709  59.895  67.417
32046DT     BB1 8317  25.472  59.144  67.420
32046DT     BB2 8318  25.479  59.227  67.069
32046DT     BB3 8319  25.673  59.212  66.997
32046DT     SC1 8320  25.743  59.436  67.116
32046DT     SC2 8321  25.778  59.587  66.968
32046DT     SC3 8322  25.867  59.602  67.279
32047DA     BB1 8323  25.430  58.985  66.742
32047DA     BB2 8324  25.638  59.203  66.534
32047DA     BB3 8325  25.839  59.132  66.529
32047DA     SC1 8326  25.931  59.300  66.774
32047DA     SC2 8327  26.078  59.495  66.819
32047DA     SC3 8328  26.082  59.411  67.061
32047DA     SC4 8329  25.922  59.230  66.919
32048DT     BB1 8330  25.921  59.057  66.351
32048DT     BB2 8331  26.131  59.342  66.280
32048DT     BB3 8332  26.329  59.295  66.315
32048DT     SC1 8333  26.294  59.306  66.575
32048DT     SC2 8334  26.399  59.477  66.653
32048DT     SC3 8335  26.281  59.229  66.827
32049DG     BB1 8336  26.312  59.407  65.923
32049DG     BB2 8337  26.562  59.596  66.103
32049DG     BB3 8338  26.729  59.489  66.120
32049DG     SC1 8339  26.647  59.360  66.385
32049DG     SC2 8340  26.777  59.405  66.650
32049DG     SC3 8341  26.580  59.185  66.666
32049DG     SC4 8342  26.562  59.224  66.383
32050DA     BB1 8343  26.877  59.768  65.991
32050DA     BB2 8344  27.078  59.800  66.297
32050DA     BB3 8345  27.236  59.656  66.297
32050DA     SC1 8346  27.069  59.437  66.443
32050DA     SC2 8347  27.066  59.326  66.666
32050DA     SC3 8348  26.933  59.141  66.549
32050DA     SC4 8349  26.989  59.332  66.352
32051DT     BB1 8350  27.391  59.744  66.295
32051DT     BB2 8351  27.480  59.683  66.639
32051DT     BB3 8352  27.609  59.522  66.651
32051DT     SC1 8353  27.415  59.352  66.606
32051DT     SC2 8354  27.376  59.239  66.785
32051DT     SC3 8355  27.270  59.166  66.487
32052DA     BB1 8356  27.741  59.856  66.871
32052DA     BB2 8357  27.765  59.557  67.083
32052DA     BB3 8358  27.919  59.428  67.011
32052DA     SC1 8359  27.729  59.266  66.825
32052DA     SC2 8360  27.632  59.036  66.816
32052DA     SC3 8361  27.593  59.085  66.567
32052DA     SC4 8362  27.715  59.315  66.673
32053DT     BB1 8363  28.057  59.412  67.132
32053DT     BB2 8364  27.987  59.074  67.239
32053DT     BB3 8365  28.111  58.942  67.138
32053DT     SC1 8366  27.971  58.967  66.917
32053DT     SC2 8367  27.865  58.784  66.878
32053DT     SC3 8368  27.910  59.027  66.667
32054DA     BB1 8369  28.144  58.860  67.548
32054DA     BB2 8370  28.090  58.542  67.373
32054DA     BB3 8371  28.266  58.487  67.265
32054DA     SC1 8372  28.180  58.632  67.003
32054DA     SC2 8373  28.106  58.569  66.773
32054DA     SC3 8374  28.174  58.808  66.709
32054DA     SC4 8375  28.229  58.783  66.983
32055DT     BB1 8376  28.367  58.322  67.323
32055DT     BB2 8377  28.264  58.110  67.050
32055DT     BB3 8378  28.419  58.088  66.915
32055DT     SC1 8379  28.382  58.331  66.822
32055DT     SC2 8380  28.304  58.320  66.622
32055DT     SC3 8381  28.429  58.584  66.763
32056DT     BB1 8382  28.455  57.832  66.996
32056DT     BB2 8383  28.393  57.808  66.642
32056DT     BB3 8384  28.570  57.830  66.537
32056DT     SC1 8385  28.573  58.088  66.582
32056DT     SC2 8386  28.536  58.193  66.398
32056DT     SC3 8387  28.651  58.324  66.671
32057DT     BB1 8388  28.546  57.572  66.480
32057DT     BB2 8389  28.557  57.740  66.160
32057DT     BB3 8390  28.753  57.775  66.106
32057DT     SC1 8391  28.774  57.971  66.279
32057DT     SC2 8392  28.788  58.158  66.174
32057DT     SC3 8393  28.857  58.111  66.487
32058DC     BB1 8394  28.698  57.596  65.925
32058DC     BB2 8395  28.802  57.889  65.742
32058DC     BB3 8396  29.008  57.902  65.739
32058DC     SC1 8397  29.015  57.979  65.990
32058DC     SC2 8398  29.077  58.185  65.999
32058DC     SC3 8399  29.066  57.978  66.249
32059DA     BB1 8400  28.833  57.959  65.359
32059DA     BB2 8401  29.085  58.219  65.414
32059DA     BB3 8402  29.281  58.134  65.417
32059DA     SC1 8403  29.281  58.086  65.725
32059DA     SC2 8404  29.397  58.177  65.926
32059DA     SC3 8405  29.328  57.958  66.040
32059DA     SC4 8406  29.230  57.943  65.778
32060DA     BB1 8407  29.308  58.381  65.200
32060DA     BB2 8408  29.579  58.506  65.413
32060DA     BB3 8409  29.747  58.376  65.404
32060DA     SC1 8410  29.655  58.201  65.644
32060DA     SC2 8411  29.726  58.158  65.879
32060DA     SC3 8412  29.591  57.941  65.860
32060DA     SC4 8413  29.567  58.071  65.612
32061DT     BB1 8414  29.926  58.434  65.313
32061DT     BB2 8415  30.126  58.465  65.612
32061DT     BB3 8416  30.256  58.304  65.627
32061DT     SC1 8417  30.061  58.143  65.698
32061DT     SC2 8418  30.086  58.088  65.905
32061DT     SC3 8419  29.890  57.943  65.692
32062DA     BB1 8420  30.526  58.627  65.651
32062DA     BB2 8421  30.611  58.397  65.923
32062DA     BB3 8422  30.719  58.229  65.847
32062DA     SC1 8423  30.464  58.057  65.799
32062DA     SC2 8424  30.357  57.854  65.895
32062DA     SC3 8425  30.230  57.840  65.673
32062DA     SC4 8426  30.395  58.065  65.653
32063DA     BB1 8427  30.965  58.299  66.063
32063DA     BB2 8428  30.903  57.973  66.219
32063DA     BB3 8429  30.998  57.818  66.107
32063DA     SC1 8430  30.751  57.764  65.926
32063DA     SC2 8431  30.582  57.584  65.894
32063DA     SC3 8432  30.543  57.690  65.663
32063DA     SC4 8433  30.742  57.844  65.787
32064DG     BB1 8434  31.171  57.753  66.363
32064DG     BB2 8435  30.988  57.441  66.355
32064DG     BB3 8436  31.080  57.312  66.234
32064DG     SC1 8437  30.927  57.400  65.984
32064DG     SC2 8438  30.730  57.234  65.832
32064DG     SC3 8439  30.793  57.484  65.686
32064DG     SC4 8440  30.985  57.520  65.895
32065DA     BB1 8441  31.071  57.087  66.497
32065DA     BB2 8442  30.871  56.855  66.295
32065DA     BB3 8443  30.995  56.753  66.155
32065DA     SC1 8444  30.957  56.965  65.930
32065DA     SC2 8445  30.843  56.980  65.708
32065DA     SC3 8446  31.001  57.177  65.664
32065DA     SC4 8447  31.064  57.084  65.920
32066DA     BB1 8448  30.849  56.499  66.299
32066DA     BB2 8449  30.714  56.415  65.969
32066DA     BB3 8450  30.867  56.332  65.845
32066DA     SC1 8451  30.954  56.606  65.727
32066DA     SC2 8452  30.942  56.724  65.508
32066DA     SC3 8453  31.132  56.870  65.599
32066DA     SC4 8454  31.072  56.685  65.801
32067DA     BB1 8455  30.642  56.093  65.816
32067DA     BB2 8456  30.642  56.163  65.456
32067DA     BB3 8457  30.819  56.085  65.366
32067DA     SC1 8458  30.983  56.346  65.404
32067DA     SC2 8459  31.078  56.527  65.261
32067DA     SC3 8460  31.233  56.576  65.460
32067DA     SC4 8461  31.072  56.360  65.538
32068DA     BB1 8462  30.605  55.931  65.165
32068DA     BB2 8463  30.761  56.113  64.887
32068DA     BB3 8464  30.948  56.025  64.837
32068DA     SC1 8465  31.112  56.205  65.030
32068DA     SC2 8466  31.278  56.391  65.014
32068DA     SC3 8467  31.343  56.327  65.254
32068DA     SC4 8468  31.139  56.149  65.179
32069DA     BB1 8469  30.830  55.996  64.527
32069DA     BB2 8470  31.101  56.218  64.418
32069DA     BB3 8471  31.284  56.109  64.401
32069DA     SC1 8472  31.372  56.164  64.694
32069DA     SC2 8473  31.547  56.296  64.812
32069DA     SC3 8474  31.503  56.140  65.011
32069DA     SC4 8475  31.331  56.055  64.806
32070DA     BB1 8476  31.300  56.216  64.086
32070DA     BB2 8477  31.607  56.394  64.179
32070DA     BB3 8478  31.773  56.260  64.180
32070DA     SC1 8479  31.741  56.183  64.479
32070DA     SC2 8480  31.863  56.220  64.694
32070DA     SC3 8481  31.733  56.016  64.780
32070DA     SC4 8482  31.652  56.054  64.514
32071DT     BB1 8483  31.945  56.270  64.034
32071DT     BB2 8484  32.181  56.415  64.266
32071DT     BB3 8485  32.330  56.278  64.310
32071DT     SC1 8486  32.168  56.141  64.465
32071DT     SC2 8487  32.229  56.163  64.670
32071DT     SC3 8488  32.022  55.941  64.556
32072DA     BB1 8489  32.513  56.635  64.193
32072DA     BB2 8490  32.665  56.530  64.509
32072DA     BB3 8491  32.796  56.365  64.478
32072DA     SC1 8492  32.576  56.150  64.526
32072DA     SC2 8493  32.520  55.979  64.699
32072DA     SC3 8494  32.380  55.868  64.514
32072DA     SC4 8495  32.496  56.096  64.398
32073DG     BB1 8496  32.998  56.566  64.595
32073DG     BB2 8497  33.017  56.321  64.861
32073DG     BB3 8498  33.138  56.172  64.807
32073DG     SC1 8499  32.915  56.005  64.679
32073DG     SC2 8500  32.813  55.742  64.778
32073DG     SC3 8501  32.699  55.806  64.513
32073DG     SC4 8502  32.879  56.029  64.525
32074DA     BB1 8503  33.301  56.225  65.108
32074DA     BB2 8504  33.234  55.879  65.208
32074DA     BB3 8505  33.365  55.745  65.105
32074DA     SC1 8506  33.171  55.701  64.866
32074DA     SC2 8507  33.029  55.517  64.775
32074DA     SC3 8508  33.035  55.649  64.555
32074DA     SC4 8509  33.187  55.797  64.738
32075DT     BB1 8510  33.518  55.635  65.207
32075DT     BB2 8511  33.359  55.312  65.190
32075DT     BB3 8512  33.458  55.192  65.053
32075DT     SC1 8513  33.353  55.323  64.851
32075DT     SC2 8514  33.211  55.196  64.750
32075DT     SC3 8515  33.335  55.473  64.635
32076DG     BB1 8516  33.506  54.973  65.398
32076DG     BB2 8517  33.369  54.765  65.135
32076DG     BB3 8518  33.515  54.698  65.018
32076DG     SC1 8519  33.506  54.936  64.826
32076DG     SC2 8520  33.422  54.927  64.540
32076DG     SC3 8521  33.536  55.191  64.607
32076DG     SC4 8522  33.594  55.065  64.858
32077DA     BB1 8523  33.415  54.363  65.061
32077DA     BB2 8524  33.350  54.331  64.702
32077DA     BB3 8525  33.531  54.291  64.597
32077DA     SC1 8526  33.597  54.591  64.546
32077DA     SC2 8527  33.605  54.748  64.352
32077DA     SC3 8528  33.755  54.893  64.502
32077DA     SC4 8529  33.690  54.666  64.654
32078DG     BB1 8530  33.397  54.023  64.508
32078DG     BB2 8531  33.414  54.175  64.180
32078DG     BB3 8532  33.590  54.138  64.097
32078DG     SC1 8533  33.724  54.389  64.212
32078DG     SC2 8534  33.821  54.623  64.054
32078DG     SC3 8535  33.907  54.643  64.336
32078DG     SC4 8536  33.793  54.381  64.356
32079DT     BB1 8537  33.599  54.025  63.912
32079DT     BB2 8538  33.665  54.287  63.673
32079DT     BB3 8539  33.864  54.280  63.614
32079DT     SC1 8540  33.943  54.383  63.843
32079DT     SC2 8541  34.017  54.582  63.810
32079DT     SC3 8542  34.063  54.404  64.077
32080DT     BB1 8543  33.759  54.204  63.386
32080DT     BB2 8544  33.949  54.501  63.310
32080DT     BB3 8545  34.149  54.453  63.286
32080DT     SC1 8546  34.181  54.424  63.545
32080DT     SC2 8547  34.304  54.583  63.620
32080DT     SC3 8548  34.231  54.309  63.777
32081DA     BB1 8549  33.996  54.699  62.980
32081DA     BB2 8550  34.316  54.837  63.094
32081DA     BB3 8551  34.476  54.708  63.040
32081DA     SC1 8552  34.466  54.544  63.304
32081DA     SC2 8553  34.607  54.513  63.508
32081DA     SC3 8554  34.477  54.294  63.540
32081DA     SC4 8555  34.375  54.411  63.306
32082DG     BB1 8556  34.552  54.974  62.906
32082DG     BB2 8557  34.838  54.946  63.126
32082DG     BB3 8558  34.965  54.810  63.055
32082DG     SC1 8559  34.836  54.576  63.205
32082DG     SC2 8560  34.961  54.419  63.425
32082DG     SC3 8561  34.708  54.294  63.338
32082DG     SC4 8562  34.716  54.497  63.135
32083DT     BB1 8563  35.156  54.876  63.003
32083DT     BB2 8564  35.363  54.733  63.263
32083DT     BB3 8565  35.451  54.558  63.194
32083DT     SC1 8566  35.226  54.426  63.214
32083DT     SC2 8567  35.240  54.284  63.375
32083DT     SC3 8568  35.012  54.288  63.145
32084DG     BB1 8569  35.762  54.802  63.303
32084DG     BB2 8570  35.797  54.473  63.449
32084DG     BB3 8571  35.864  54.345  63.312
32084DG     SC1 8572  35.586  54.264  63.215
32084DG     SC2 8573  35.460  53.995  63.246
32084DG     SC3 8574  35.297  54.167  63.070
32084DG     SC4 8575  35.517  54.349  63.098
32085DA     BB1 8576  36.141  54.238  63.511
32085DA     BB2 8577  36.022  53.891  63.504
32085DA     BB3 8578  36.077  53.798  63.319
32085DA     SC1 8579  35.814  53.878  63.173
32085DA     SC2 8580  35.609  53.766  63.086
32085DA     SC3 8581  35.580  53.975  62.941
32085DA     SC4 8582  35.814  54.016  63.091
32086DC     BB1 8583  36.240  53.621  63.274
32086DC     BB2 8584  35.999  53.359  63.217
32086DC     BB3 8585  36.003  53.300  63.019
32086DC     SC1 8586  35.877  53.518  62.944
32086DC     SC2 8587  35.679  53.467  62.878
32086DC     SC3 8588  35.829  53.749  62.826
32087DT     BB1 8589  36.160  53.035  63.014
32087DT     BB2 8590  35.847  52.946  62.858
32087DT     BB3 8591  35.867  52.950  62.652
32087DT     SC1 8592  35.866  53.212  62.649
32087DT     SC2 8593  35.683  53.282  62.559
32087DT     SC3 8594  35.948  53.461  62.614
32088DA     BB1 8595  35.742  52.544  62.683
32088DA     BB2 8596  35.512  52.710  62.451
32088DA     BB3 8597  35.595  52.716  62.255
32088DA     SC1 8598  35.733  52.991  62.295
32088DA     SC2 8599  35.707  53.225  62.212
32088DA     SC3 8600  35.950  53.258  62.288
32088DA     SC4 8601  35.885  52.991  62.347
32089DT     BB1 8602  35.507  52.605  62.072
32089DT     BB2 8603  35.337  52.902  61.959
32089DT     BB3 8604  35.414  52.963  61.777
32089DT     SC1 8605  35.632  53.055  61.890
32089DT     SC2 8606  35.634  53.270  61.879
32089DT     SC3 8607  35.887  53.082  61.953
32090DC     BB1 8608  35.173  52.896  61.742
32090DC     BB2 8609  35.195  53.255  61.713
32090DC     BB3 8610  35.273  53.306  61.528
32090DC     SC1 8611  35.515  53.235  61.603
32090DC     SC2 8612  35.638  53.411  61.621
32090DC     SC3 8613  35.744  53.104  61.611
32091DT     BB1 8614  35.050  53.385  61.635
32091DT     BB2 8615  35.259  53.675  61.595
32091DT     BB3 8616  35.307  53.702  61.395
32091DT     SC1 8617  35.477  53.502  61.401
32091DT     SC2 8618  35.677  53.579  61.382
32091DT     SC3 8619  35.588  53.269  61.347
32092DA     BB1 8620  35.238  54.008  61.718
32092DA     BB2 8621  35.518  54.102  61.500
32092DA     BB3 8622  35.454  54.111  61.297
32092DA     SC1 8623  35.523  53.813  61.237
32092DA     SC2 8624  35.690  53.686  61.103
32092DA     SC3 8625  35.525  53.491  61.120
32092DA     SC4 8626  35.406  53.704  61.257
32093DT     BB1 8627  35.488  54.265  61.278
32093DT     BB2 8628  35.754  54.225  61.037
32093DT     BB3 8629  35.674  54.204  60.847
32093DT     SC1 8630  35.599  53.958  60.897
32093DT     SC2 8631  35.719  53.822  60.782
32093DT     SC3 8632  35.442  53.749  60.934
32094DG     BB1 8633  35.930  54.523  60.840
32094DG     BB2 8634  35.991  54.299  60.563
32094DG     BB3 8635  35.851  54.324  60.423
32094DG     SC1 8636  35.661  54.115  60.541
32094DG     SC2 8637  35.586  53.855  60.414
32094DG     SC3 8638  35.420  53.907  60.654
32094DG     SC4 8639  35.555  54.160  60.652
32095DA     BB1 8640  36.097  54.373  60.176
32095DA     BB2 8641  35.967  54.091  59.981
32095DA     BB3 8642  35.791  54.150  59.875
32095DA     SC1 8643  35.596  54.067  60.102
32095DA     SC2 8644  35.424  53.891  60.143
32095DA     SC3 8645  35.334  54.049  60.324
32095DA     SC4 8646  35.554  54.180  60.209
32096DG     BB1 8647  35.939  54.088  59.601
32096DG     BB2 8648  35.684  53.833  59.566
32096DG     BB3 8649  35.522  53.911  59.482
32096DG     SC1 8650  35.393  53.993  59.747
32096DG     SC2 8651  35.144  53.878  59.865
32096DG     SC3 8652  35.233  54.115  60.018
32096DG     SC4 8653  35.427  54.137  59.809
32097DT     BB1 8654  35.434  53.849  59.272
32097DT     BB2 8655  35.148  53.653  59.372
32097DT     BB3 8656  34.974  53.758  59.333
32097DT     SC1 8657  35.014  53.918  59.537
32097DT     SC2 8658  34.868  53.877  59.689
32097DT     SC3 8659  35.060  54.138  59.674
32098DG     BB1 8660  34.951  53.403  59.134
32098DG     BB2 8661  34.659  53.458  59.340
32098DG     BB3 8662  34.535  53.586  59.250
32098DG     SC1 8663  34.661  53.835  59.375
32098DG     SC2 8664  34.530  54.017  59.572
32098DG     SC3 8665  34.787  54.130  59.479
32098DG     SC4 8666  34.784  53.905  59.301
32099DA     BB1 8667  34.296  53.344  59.311
32099DA     BB2 8668  34.097  53.588  59.499
32099DA     BB3 8669  34.002  53.725  59.366
32099DA     SC1 8670  34.236  53.930  59.371
32099DA     SC2 8671  34.279  54.159  59.460
32099DA     SC3 8672  34.470  54.167  59.290
32099DA     SC4 8673  34.349  53.916  59.258
32100DA     BB1 8674  33.742  53.624  59.541
32100DA     BB2 8675  33.690  53.976  59.631
32100DA     BB3 8676  33.615  54.085  59.464
32100DA     SC1 8677  33.897  54.166  59.359
32100DA     SC2 8678  34.035  54.373  59.340
32100DA     SC3 8679  34.168  54.244  59.163
32100DA     SC4 8680  33.967  54.069  59.251
32101DG     BB1 8681  33.355  54.150  59.631
32101DG     BB2 8682  33.461  54.494  59.591
32101DG     BB3 8683  33.397  54.565  59.417
32101DG     SC1 8684  33.646  54.477  59.262
32101DG     SC2 8685  33.847  54.659  59.138
32101DG     SC3 8686  33.895  54.378  59.057
32101DG     SC4 8687  33.650  54.331  59.198
32102DG     BB1 8688  33.206  54.818  59.542
32102DG     BB2 8689  33.424  55.048  59.366
32102DG     BB3 8690  33.356  55.077  59.181
32102DG     SC1 8691  33.515  54.845  59.060
32102DG     SC2 8692  33.739  54.869  58.864
32102DG     SC3 8693  33.658  54.586  58.898
32102DG     SC4 8694  33.449  54.699  59.058
32103DT     BB1 8695  33.265  55.288  59.073
32103DT     BB2 8696  33.544  55.381  58.865
32103DT     BB3 8697  33.496  55.355  58.666
32103DT     SC1 8698  33.518  55.094  58.687
32103DT     SC2 8699  33.692  55.028  58.578
32103DT     SC3 8700  33.453  54.839  58.688
32104DT     BB1 8701  33.464  55.631  58.603
32104DT     BB2 8702  33.715  55.518  58.369
32104DT     BB3 8703  33.625  55.458  58.192
32104DT     SC1 8704  33.538  55.236  58.303
32104DT     SC2 8705  33.645  55.068  58.219
32104DT     SC3 8706  33.372  55.052  58.394
32105DA     BB1 8707  33.919  55.733  58.081
32105DA     BB2 8708  33.962  55.435  57.872
32105DA     BB3 8709  33.812  55.428  57.721
32105DA     SC1 8710  33.612  55.263  57.893
32105DA     SC2 8711  33.517  55.033  57.896
32105DA     SC3 8712  33.330  55.133  58.040
32105DA     SC4 8713  33.504  55.345  57.980
32106DA     BB1 8714  34.078  55.400  57.532
32106DA     BB2 8715  33.946  55.075  57.426
32106DA     BB3 8716  33.786  55.101  57.288
32106DA     SC1 8717  33.565  55.105  57.508
32106DA     SC2 8718  33.379  54.959  57.585
32106DA     SC3 8719  33.285  55.171  57.695
32106DA     SC4 8720  33.523  55.248  57.568
32107DT     BB1 8721  33.811  55.040  57.096
32107DT     BB2 8722  33.600  54.748  57.112
32107DT     BB3 8723  33.422  54.784  57.014
32107DT     SC1 8724  33.335  54.935  57.210
32107DT     SC2 8725  33.173  54.834  57.311
32107DT     SC3 8726  33.251  55.148  57.341
32108DT     BB1 8727  33.493  54.624  56.800
32108DT     BB2 8728  33.177  54.487  56.911
32108DT     BB3 8729  33.021  54.583  56.815
32108DT     SC1 8730  33.051  54.797  56.963
32108DT     SC2 8731  32.884  54.816  57.096
32108DT     SC3 8732  33.101  55.048  57.030
32109DA     BB1 8733  32.944  54.178  56.730
32109DA     BB2 8734  32.630  54.324  56.851
32109DA     BB3 8735  32.539  54.440  56.697
32109DA     SC1 8736  32.680  54.705  56.781
32109DA     SC2 8737  32.617  54.923  56.884
32109DA     SC3 8738  32.836  55.011  56.783
32109DA     SC4 8739  32.819  54.741  56.709
32110DC     BB1 8740  32.343  54.390  56.588
32110DC     BB2 8741  32.140  54.634  56.760
32110DC     BB3 8742  32.084  54.784  56.628
32110DC     SC1 8743  32.324  54.889  56.631
32110DC     SC2 8744  32.318  55.078  56.734
32110DC     SC3 8745  32.560  54.971  56.548
32111DA     BB1 8746  31.725  54.649  56.798
32111DA     BB2 8747  31.731  55.014  56.830
32111DA     BB3 8748  31.687  55.106  56.642
32111DA     SC1 8749  31.985  55.121  56.552
32111DA     SC2 8750  32.157  55.297  56.515
32111DA     SC3 8751  32.276  55.121  56.370
32111DA     SC4 8752  32.042  54.999  56.465
32112DT     BB1 8753  31.516  55.212  56.628
32112DT     BB2 8754  31.669  55.539  56.635
32112DT     BB3 8755  31.667  55.622  56.446
32112DT     SC1 8756  31.861  55.465  56.365
32112DT     SC2 8757  32.039  55.581  56.334
32112DT     SC3 8758  31.989  55.279  56.230
32113DA     BB1 8759  31.509  55.898  56.719
32113DA     BB2 8760  31.760  56.071  56.515
32113DA     BB3 8761  31.685  56.102  56.317
32113DA     SC1 8762  31.798  55.834  56.207
32113DA     SC2 8763  31.977  55.760  56.049
32113DA     SC3 8764  31.845  55.540  56.036
32113DA     SC4 8765  31.701  55.705  56.211
32114DT     BB1 8766  31.656  56.288  56.264
32114DT     BB2 8767  31.936  56.317  56.039
32114DT     BB3 8768  31.871  56.305  55.843
32114DT     SC1 8769  31.834  56.046  55.863
32114DT     SC2 8770  31.980  55.944  55.743
32114DT     SC3 8771  31.711  55.813  55.868
32115DA     BB1 8772  32.099  56.658  55.863
32115DA     BB2 8773  32.211  56.470  55.569
32115DA     BB3 8774  32.067  56.485  55.412
32115DA     SC1 8775  31.911  56.230  55.499
32115DA     SC2 8776  31.873  55.999  55.414
32115DA     SC3 8777  31.667  55.999  55.567
32115DA     SC4 8778  31.787  56.250  55.600
32116DA     BB1 8779  32.318  56.597  55.224
32116DA     BB2 8780  32.266  56.306  55.007
32116DA     BB3 8781  32.098  56.339  54.878
32116DA     SC1 8782  31.892  56.214  55.075
32116DA     SC2 8783  31.750  56.009  55.088
32116DA     SC3 8784  31.611  56.141  55.258
32116DA     SC4 8785  31.818  56.313  55.178
32117DC     BB1 8786  32.111  56.365  54.655
32117DC     BB2 8787  31.987  56.036  54.572
32117DC     BB3 8788  31.798  56.052  54.487
32117DC     SC1 8789  31.689  56.102  54.720
32117DC     SC2 8790  31.568  55.935  54.780
32117DC     SC3 8791  31.561  56.231  54.911
32118DC     BB1 8792  31.888  55.992  54.229
32118DC     BB2 8793  31.641  55.738  54.299
32118DC     BB3 8794  31.455  55.801  54.236
32118DC     SC1 8795  31.434  55.966  54.439
32118DC     SC2 8796  31.282  55.894  54.574
32118DC     SC3 8797  31.412  56.191  54.575
32119DT     BB1 8798  31.470  55.619  54.041
32119DT     BB2 8799  31.177  55.529  54.231
32119DT     BB3 8800  31.013  55.635  54.163
32119DT     SC1 8801  31.097  55.855  54.278
32119DT     SC2 8802  30.967  55.903  54.443
32119DT     SC3 8803  31.185  56.102  54.307
32120DC     BB1 8804  30.946  55.396  54.089
32120DC     BB2 8805  30.686  55.507  54.312
32120DC     BB3 8806  30.555  55.632  54.212
32120DC     SC1 8807  30.728  55.829  54.215
32120DC     SC2 8808  30.658  55.984  54.347
32120DC     SC3 8809  30.895  56.014  54.128
32121DC     BB1 8810  30.414  55.425  54.268
32121DC     BB2 8811  30.246  55.707  54.418
32121DC     BB3 8812  30.148  55.817  54.273
32121DC     SC1 8813  30.374  55.918  54.187
32121DC     SC2 8814  30.382  56.128  54.235
32121DC     SC3 8815  30.576  55.974  54.026
32122DG     BB1 8816  29.913  55.703  54.588
32122DG     BB2 8817  29.885  56.056  54.515
32122DG     BB3 8818  29.787  56.082  54.344
32122DG     SC1 8819  30.038  56.073  54.170
32122DG     SC2 8820  30.151  56.301  54.013
32122DG     SC3 8821  30.290  56.048  53.947
32122DG     SC4 8822  30.090  55.932  54.115
32123DA     BB1 8823  29.602  56.304  54.537
32123DA     BB2 8824  29.679  56.571  54.298
32123DA     BB3 8825  29.575  56.538  54.114
32123DA     SC1 8826  29.803  56.372  53.985
32123DA     SC2 8827  29.970  56.399  53.801
32123DA     SC3 8828  29.986  56.143  53.806
32123DA     SC4 8829  29.798  56.212  54.003
32124DA     BB1 8830  29.474  56.848  54.172
32124DA     BB2 8831  29.625  56.937  53.850
32124DA     BB3 8832  29.506  56.863  53.689
32124DA     SC1 8833  29.655  56.591  53.671
32124DA     SC2 8834  29.810  56.475  53.513
32124DA     SC3 8835  29.737  56.259  53.631
32124DA     SC4 8836  29.596  56.468  53.756
32125DA     BB1 8837  29.506  57.177  53.582
32125DA     BB2 8838  29.670  57.057  53.276
32125DA     BB3 8839  29.528  56.962  53.148
32125DA     SC1 8840  29.571  56.679  53.269
32125DA     SC2 8841  29.670  56.461  53.198
32125DA     SC3 8842  29.529  56.359  53.387
32125DA     SC4 8843  29.475  56.634  53.390
32126DT     BB1 8844  29.472  57.045  52.960
32126DT     BB2 8845  29.655  56.810  52.756
32126DT     BB3 8846  29.523  56.679  52.664
32126DT     SC1 8847  29.483  56.549  52.888
32126DT     SC2 8848  29.572  56.353  52.874
32126DT     SC3 8849  29.360  56.450  53.099
32127DT     BB1 8850  29.558  56.797  52.417
32127DT     BB2 8851  29.646  56.451  52.364
32127DT     BB3 8852  29.477  56.343  52.314
32127DT     SC1 8853  29.391  56.347  52.561
32127DT     SC2 8854  29.403  56.149  52.645
32127DT     SC3 8855  29.237  56.398  52.770
32128DT     BB1 8856  29.566  56.322  52.058
32128DT     BB2 8857  29.524  55.981  52.169
32128DT     BB3 8858  29.329  55.920  52.137
32128DT     SC1 8859  29.244  56.062  52.341
32128DT     SC2 8860  29.182  55.930  52.499
32128DT     SC3 8861  29.114  56.246  52.478
32129DA     BB1 8862  29.585  55.634  51.969
32129DA     BB2 8863  29.340  55.459  52.179
32129DA     BB3 8864  29.148  55.460  52.086
32129DA     SC1 8865  29.058  55.725  52.222
32129DA     SC2 8866  28.894  55.796  52.396
32129DA     SC3 8867  28.917  56.030  52.292
32129DA     SC4 8868  29.085  55.862  52.143
32130DA     BB1 8869  29.186  55.139  52.142
32130DA     BB2 8870  28.886  55.163  52.352
32130DA     BB3 8871  28.712  55.184  52.230
32130DA     SC1 8872  28.721  55.495  52.229
32130DA     SC2 8873  28.589  55.684  52.324
32130DA     SC3 8874  28.701  55.827  52.142
32130DA     SC4 8875  28.800  55.567  52.108
32131DT     BB1 8876  28.568  55.032  52.222
32131DT     BB2 8877  28.317  55.199  52.420
32131DT     BB3 8878  28.162  55.262  52.299
32131DT     SC1 8879  28.307  55.459  52.204
32131DT     SC2 8880  28.229  55.647  52.276
32131DT     SC3 8881  28.440  55.609  52.032
32132DA     BB1 8882  27.979  55.040  52.604
32132DA     BB2 8883  27.799  55.358  52.576
32132DA     BB3 8884  27.675  55.358  52.403
32132DA     SC1 8885  27.893  55.479  52.217
32132DA     SC2 8886  27.936  55.694  52.098
32132DA     SC3 8887  28.095  55.558  51.951
32132DA     SC4 8888  27.987  55.377  52.136
32133DC     BB1 8889  27.462  55.360  52.417
32133DC     BB2 8890  27.419  55.706  52.323
32133DC     BB3 8891  27.338  55.718  52.133
32133DC     SC1 8892  27.567  55.652  52.023
32133DC     SC2 8893  27.648  55.822  51.919
32133DC     SC3 8894  27.746  55.515  51.887
32134DG     BB1 8895  27.076  55.913  52.376
32134DG     BB2 8896  27.178  56.122  52.099
32134DG     BB3 8897  27.075  56.073  51.936
32134DG     SC1 8898  27.277  55.862  51.842
32134DG     SC2 8899  27.448  55.880  51.598
32134DG     SC3 8900  27.467  55.611  51.721
32134DG     SC4 8901  27.262  55.712  51.894
32135DA     BB1 8902  27.009  56.409  51.921
32135DA     BB2 8903  27.174  56.425  51.594
32135DA     BB3 8904  27.047  56.343  51.443
32135DA     SC1 8905  27.159  56.054  51.472
32135DA     SC2 8906  27.298  55.896  51.338
32135DA     SC3 8907  27.196  55.713  51.486
32135DA     SC4 8908  27.083  55.955  51.573
32136DA     BB1 8909  27.138  56.634  51.334
32136DA     BB2 8910  27.286  56.454  51.051
32136DA     BB3 8911  27.133  56.376  50.925
32136DA     SC1 8912  27.115  56.103  51.073
32136DA     SC2 8913  27.172  55.865  51.029
32136DA     SC3 8914  27.007  55.811  51.217
32136DA     SC4 8915  27.007  56.090  51.192
32137DT     BB1 8916  27.155  56.455  50.774
32137DT     BB2 8917  27.283  56.172  50.590
32137DT     BB3 8918  27.129  56.077  50.491
32137DT     SC1 8919  27.041  55.971  50.715
32137DT     SC2 8920  27.076  55.759  50.712
32137DT     SC3 8921  26.881  55.916  50.917
32138DT     BB1 8922  27.264  56.173  50.294
32138DT     BB2 8923  27.238  55.818  50.232
32138DT     BB3 8924  27.050  55.773  50.160
32138DT     SC1 8925  26.943  55.801  50.398
32138DT     SC2 8926  26.881  55.609  50.472
32138DT     SC3 8927  26.794  55.897  50.593
32139DA     BB1 8928  27.340  55.597  49.910
32139DA     BB2 8929  27.076  55.350  49.970
32139DA     BB3 8930  26.896  55.408  49.871
32139DA     SC1 8931  26.785  55.568  50.113
32139DA     SC2 8932  26.600  55.547  50.279
32139DA     SC3 8933  26.630  55.799  50.315
32139DA     SC4 8934  26.818  55.725  50.120
32140DT     BB1 8935  26.820  55.302  49.706
32140DT     BB2 8936  26.527  55.161  49.861
32140DT     BB3 8937  26.358  55.263  49.799
32140DT     SC1 8938  26.417  55.468  49.953
32140DT     SC2 8939  26.275  55.479  50.114
32140DT     SC3 8940  26.482  55.713  50.026
32141DG     BB1 8941  26.239  54.901  49.625
32141DG     BB2 8942  25.963  55.037  49.816
32141DG     BB3 8943  25.859  55.165  49.704
32141DG     SC1 8944  26.026  55.409  49.784
32141DG     SC2 8945  25.930  55.642  49.944
32141DG     SC3 8946  26.199  55.694  49.834
32141DG     SC4 8947  26.157  55.445  49.699
32142DA     BB1 8948  25.512  55.026  49.711
32142DA     BB2 8949  25.380  55.326  49.874
32142DA     BB3 8950  25.321  55.470  49.729
32142DA     SC1 8951  25.598  55.611  49.721
32142DA     SC2 8952  25.696  55.830  49.791
32142DA     SC3 8953  25.883  55.776  49.624
32142DA     SC4 8954  25.704  55.561  49.611
32143DT     BB1 8955  25.087  55.560  49.654
32143DT     BB2 8956  25.117  55.875  49.827
32143DT     BB3 8957  25.118  56.031  49.690
32143DT     SC1 8958  25.364  55.977  49.617
32143DT     SC2 8959  25.495  56.133  49.685
32143DT     SC3 8960  25.568  55.906  49.466
32144DG     BB1 8961  24.780  56.128  49.906
32144DG     BB2 8962  25.011  56.407  49.900
32144DG     BB3 8963  24.984  56.514  49.735
32144DG     SC1 8964  25.184  56.354  49.568
32144DG     SC2 8965  25.444  56.455  49.461
32144DG     SC3 8966  25.382  56.188  49.351
32144DG     SC4 8967  25.134  56.224  49.489
32145DC     BB1 8968  24.913  56.741  49.731
32145DC     BB2 8969  25.228  56.903  49.664
32145DC     BB3 8970  25.229  56.979  49.472
32145DC     SC1 8971  25.260  56.739  49.369
32145DC     SC2 8972  25.457  56.723  49.285
32145DC     SC3 8973  25.210  56.520  49.232
32146DG     BB1 8974  25.300  57.285  49.729
32146DG     BB2 8975  25.558  57.261  49.477
32146DG     BB3 8976  25.495  57.341  49.307
32146DG     SC1 8977  25.376  57.080  49.200
32146DG     SC2 8978  25.475  56.927  48.964
32146DG     SC3 8979  25.218  56.817  49.061
32146DG     SC4 8980  25.225  57.043  49.236
32147DT     BB1 8981  25.602  57.509  49.230
32147DT     BB2 8982  25.783  57.360  48.956
32147DT     BB3 8983  25.691  57.407  48.777
32147DT     SC1 8984  25.497  57.236  48.823
32147DT     SC2 8985  25.513  57.071  48.686
32147DT     SC3 8986  25.254  57.143  48.868
32148DA     BB1 8987  26.102  57.486  48.760
32148DA     BB2 8988  26.009  57.295  48.461
32148DA     BB3 8989  25.894  57.416  48.328
32148DA     SC1 8990  25.620  57.334  48.452
32148DA     SC2 8991  25.421  57.199  48.385
32148DA     SC3 8992  25.297  57.330  48.569
32148DA     SC4 8993  25.561  57.426  48.569
32149DG     BB1 8994  26.130  57.343  48.145
32149DG     BB2 8995  25.870  57.180  47.953
32149DG     BB3 8996  25.771  57.315  47.845
32149DG     SC1 8997  25.564  57.373  48.062
32149DG     SC2 8998  25.273  57.309  48.049
32149DG     SC3 8999  25.333  57.477  48.285
32149DG     SC4 9000  25.595  57.487  48.171
32150DT     BB1 9001  25.776  57.297  47.633
32150DT     BB2 9002  25.443  57.182  47.558
32150DT     BB3 9003  25.327  57.340  47.491
32150DT     SC1 9004  25.306  57.438  47.733
32150DT     SC2 9005  25.103  57.415  47.802
32150DT     SC3 9006  25.329  57.605  47.936
32151DT     BB1 9007  25.336  57.234  47.242
32151DT     BB2 9008  24.984  57.268  47.312
32151DT     BB3 9009  24.920  57.459  47.263
32151DT     SC1 9010  25.036  57.561  47.476
32151DT     SC2 9011  24.886  57.626  47.615
32151DT     SC3 9012  25.200  57.705  47.624
32152DT     BB1 9013  24.787  57.368  47.041
32152DT     BB2 9014  24.535  57.545  47.228
32152DT     BB3 9015  24.536  57.746  47.176
32152DT     SC1 9016  24.756  57.788  47.313
32152DT     SC2 9017  24.710  57.909  47.485
32152DT     SC3 9018  25.007  57.849  47.368
32153DA     BB1 9019  24.135  57.636  47.112
32153DA     BB2 9020  24.133  57.944  47.311
32153DA     BB3 9021  24.177  58.112  47.188
32153DA     SC1 9022  24.484  58.098  47.236
32153DA     SC2 9023  24.659  58.231  47.354
32153DA     SC3 9024  24.825  58.109  47.202
32153DA     SC4 9025  24.571  58.013  47.131
32154DT     BB1 9026  24.031  58.276  47.135
32154DT     BB2 9027  24.173  58.524  47.356
32154DT     BB3 9028  24.264  58.673  47.245
32154DT     SC1 9029  24.468  58.517  47.188
32154DT     SC2 9030  24.643  58.588  47.291
32154DT     SC3 9031  24.639  58.373  47.048
32155DA     BB1 9032  23.999  58.877  47.496
32155DA     BB2 9033  24.328  59.034  47.533
32155DA     BB3 9034  24.370  59.158  47.365
32155DA     SC1 9035  24.509  58.933  47.202
32155DA     SC2 9036  24.740  58.875  47.125
32155DA     SC3 9037  24.623  58.726  46.952
32155DA     SC4 9038  24.418  58.847  47.101
32156DG     BB1 9039  24.384  59.372  47.585
32156DG     BB2 9040  24.733  59.377  47.490
32156DG     BB3 9041  24.758  59.492  47.329
32156DG     SC1 9042  24.714  59.264  47.129
32156DG     SC2 9043  24.920  59.151  46.945
32156DG     SC3 9044  24.652  59.043  46.883
32156DG     SC4 9045  24.565  59.232  47.080
32157DA     BB1 9046  24.998  59.608  47.540
32157DA     BB2 9047  25.250  59.522  47.288
32157DA     BB3 9048  25.237  59.655  47.122
32157DA     SC1 9049  25.036  59.478  46.964
32157DA     SC2 9050  25.036  59.338  46.758
32157DA     SC3 9051  24.781  59.364  46.765
32157DA     SC4 9052  24.879  59.507  46.985
32158DA     BB1 9053  25.543  59.621  47.231
32158DA     BB2 9054  25.618  59.512  46.889
32158DA     BB3 9055  25.588  59.673  46.752
32158DA     SC1 9056  25.290  59.601  46.697
32158DA     SC2 9057  25.154  59.510  46.508
32158DA     SC3 9058  24.953  59.612  46.631
32158DA     SC4 9059  25.178  59.672  46.788
32159DT     BB1 9060  25.739  59.685  46.694
32159DT     BB2 9061  25.676  59.569  46.359
32159DT     BB3 9062  25.615  59.726  46.240
32159DT     SC1 9063  25.377  59.729  46.351
32159DT     SC2 9064  25.231  59.661  46.208
32159DT     SC3 9065  25.168  59.814  46.487
32160DA     BB1 9066  25.919  59.502  46.049
32160DA     BB2 9067  25.659  59.580  45.802
32160DA     BB3 9068  25.656  59.790  45.762
32160DA     SC1 9069  25.448  59.854  45.984
32160DA     SC2 9070  25.210  59.927  45.998
32160DA     SC3 9071  25.268  60.001  46.237
32160DA     SC4 9072  25.504  59.895  46.129
32161DA     BB1 9073  25.691  59.710  45.438
32161DA     BB2 9074  25.381  59.893  45.371
32161DA     BB3 9075  25.416  60.103  45.375
32161DA     SC1 9076  25.354  60.133  45.679
32161DA     SC2 9077  25.177  60.234  45.822
32161DA     SC3 9078  25.352  60.227  46.009
32161DA     SC4 9079  25.477  60.121  45.781
32162DA     BB1 9080  25.293  60.139  45.061
32162DA     BB2 9081  25.036  60.362  45.197
32162DA     BB3 9082  25.115  60.559  45.224
32162DA     SC1 9083  25.208  60.507  45.517
32162DA     SC2 9084  25.143  60.580  45.746
32162DA     SC3 9085  25.379  60.505  45.814
32162DA     SC4 9086  25.359  60.456  45.539
32163DG     BB1 9087  24.910  60.691  45.013
32163DG     BB2 9088  24.781  60.863  45.304
32163DG     BB3 9089  24.880  61.034  45.330
32163DG     SC1 9090  25.096  60.910  45.508
32163DG     SC2 9091  25.138  60.967  45.798
32163DG     SC3 9092  25.359  60.804  45.690
32163DG     SC4 9093  25.227  60.848  45.440
32164DA     BB1 9094  24.580  61.217  45.336
32164DA     BB2 9095  24.648  61.327  45.679
32164DA     BB3 9096  24.785  61.491  45.679
32164DA     SC1 9097  25.038  61.312  45.699
32164DA     SC2 9098  25.215  61.260  45.867
32164DA     SC3 9099  25.353  61.179  45.667
32164DA     SC4 9100  25.109  61.268  45.561
32165DG     BB1 9101  24.552  61.644  45.817
32165DG     BB2 9102  24.783  61.652  46.095
32165DG     BB3 9103  24.910  61.803  46.074
32165DG     SC1 9104  25.116  61.639  45.917
32165DG     SC2 9105  25.390  61.565  46.011
32165DG     SC3 9106  25.354  61.495  45.726
32165DG     SC4 9107  25.103  61.631  45.758
32166DT     BB1 9108  24.914  61.961  46.221
32166DT     BB2 9109  25.219  61.888  46.400
32166DT     BB3 9110  25.369  62.016  46.339
32166DT     SC1 9111  25.398  61.888  46.112
32166DT     SC2 9112  25.587  61.786  46.111
32166DT     SC3 9113  25.399  61.840  45.852
32167DA     BB1 9114  25.354  62.029  46.758
32167DA     BB2 9115  25.704  61.984  46.660
32167DA     BB3 9116  25.781  62.165  46.577
32167DA     SC1 9117  25.702  62.093  46.285
32167DA     SC2 9118  25.817  62.032  46.072
32167DA     SC3 9119  25.599  62.104  45.957
32167DA     SC4 9120  25.559  62.144  46.232
32168DC     BB1 9121  25.932  62.278  46.675
32168DC     BB2 9122  26.204  62.192  46.454
32168DC     BB3 9123  26.251  62.354  46.335
32168DC     SC1 9124  26.037  62.318  46.187
32168DC     SC2 9125  26.096  62.250  45.992
32168DC     SC3 9126  25.803  62.363  46.073
32169DG     BB1 9127  26.607  62.297  46.534
32169DG     BB2 9128  26.661  62.307  46.176
32169DG     BB3 9129  26.671  62.495  46.114
32169DG     SC1 9130  26.370  62.520  46.062
32169DG     SC2 9131  26.241  62.554  45.795
32169DG     SC3 9132  26.044  62.589  46.013
32169DG     SC4 9133  26.275  62.567  46.181
32170DG     BB1 9134  26.988  62.483  45.990
32170DG     BB2 9135  26.840  62.538  45.665
32170DG     BB3 9136  26.830  62.733  45.627
32170DG     SC1 9137  26.552  62.768  45.751
32170DG     SC2 9138  26.302  62.837  45.603
32170DG     SC3 9139  26.258  62.846  45.896
32170DG     SC4 9140  26.541  62.800  45.907
32171DT     BB1 9141  26.948  62.861  45.446
32171DT     BB2 9142  26.675  62.901  45.214
32171DT     BB3 9143  26.619  63.100  45.204
32171DT     SC1 9144  26.500  63.087  45.438
32171DT     SC2 9145  26.288  63.102  45.411
32171DT     SC3 9146  26.447  63.133  45.692
32172DA     BB1 9147  26.682  62.962  44.816
32172DA     BB2 9148  26.353  63.124  44.825
32172DA     BB3 9149  26.376  63.336  44.832
32172DA     SC1 9150  26.377  63.349  45.143
32172DA     SC2 9151  26.228  63.431  45.325
32172DA     SC3 9152  26.439  63.430  45.471
32172DA     SC4 9153  26.520  63.343  45.217
32173DT     BB1 9154  26.308  63.426  44.678
32173DT     BB2 9155  26.011  63.561  44.831
32173DT     BB3 9156  26.039  63.762  44.873
32173DT     SC1 9157  26.193  63.705  45.078
32173DT     SC2 9158  26.092  63.756  45.260
32173DT     SC3 9159  26.408  63.692  45.230
32174DG     BB1 9160  25.710  63.723  44.635
32174DG     BB2 9161  25.638  63.920  44.930
32174DG     BB3 9162  25.710  64.104  44.909
32174DG     SC1 9163  25.983  64.037  45.030
32174DG     SC2 9164  26.091  64.142  45.288
32174DG     SC3 9165  26.299  63.994  45.138
32174DG     SC4 9166  26.099  63.983  44.934
32175DA     BB1 9167  25.394  64.229  44.989
32175DA     BB2 9168  25.534  64.414  45.272
32175DA     BB3 9169  25.633  64.591  45.204
32175DA     SC1 9170  25.910  64.452  45.174
32175DA     SC2 9171  26.132  64.458  45.286
32175DA     SC3 9172  26.222  64.355  45.068
32175DA     SC4 9173  25.946  64.390  45.030
32176DT     BB1 9174  25.561  64.797  45.243
32176DT     BB2 9175  25.810  64.884  45.489
32176DT     BB3 9176  25.942  65.022  45.410
32176DT     SC1 9177  26.060  64.839  45.264
32176DT     SC2 9178  26.258  64.803  45.340
32176DT     SC3 9179  26.146  64.707  45.052
32177DG     BB1 9180  25.787  65.234  45.726
32177DG     BB2 9181  26.148  65.233  45.739
32177DG     BB3 9182  26.221  65.376  45.622
32177DG     SC1 9183  26.237  65.199  45.373
32177DG     SC2 9184  26.488  65.111  45.236
32177DG     SC3 9185  26.249  65.039  45.077
32177DG     SC4 9186  26.110  65.189  45.277
32178DA     BB1 9187  26.406  65.502  45.889
32178DA     BB2 9188  26.718  65.434  45.709
32178DA     BB3 9189  26.759  65.590  45.570
32178DA     SC1 9190  26.608  65.453  45.335
32178DA     SC2 9191  26.664  65.343  45.118
32178DA     SC3 9192  26.419  65.387  45.055
32178DA     SC4 9193  26.453  65.490  45.314
32179DT     BB1 9194  26.920  65.697  45.605
32179DT     BB2 9195  27.124  65.546  45.349
32179DT     BB3 9196  27.146  65.676  45.190
32179DT     SC1 9197  26.900  65.629  45.109
32179DT     SC2 9198  26.906  65.519  44.924
32179DT     SC3 9199  26.647  65.671  45.048
32180DA     BB1 9200  27.502  65.502  45.323
32180DA     BB2 9201  27.482  65.466  44.958
32180DA     BB3 9202  27.503  65.656  44.864
32180DA     SC1 9203  27.198  65.716  44.863
32180DA     SC2 9204  27.014  65.735  44.696
32180DA     SC3 9205  26.890  65.868  44.877
32180DA     SC4 9206  27.138  65.798  44.988
32181DT     BB1 9207  27.637  65.624  44.778
32181DT     BB2 9208  27.482  65.618  44.452
32181DT     BB3 9209  27.477  65.809  44.373
32181DT     SC1 9210  27.281  65.878  44.534
32181DT     SC2 9211  27.101  65.904  44.419
32181DT     SC3 9212  27.148  66.004  44.724
32182DT     BB1 9213  27.643  65.692  44.216
32182DT     BB2 9214  27.380  65.821  44.006
32182DT     BB3 9215  27.402  66.025  43.983
32182DT     SC1 9216  27.314  66.070  44.226
32182DT     SC2 9217  27.121  66.164  44.216
32182DT     SC3 9218  27.311  66.147  44.478
32183DT     BB1 9219  27.466  65.962  43.737
32183DT     BB2 9220  27.193  66.196  43.707
32183DT     BB3 9221  27.263  66.389  43.728
32183DT     SC1 9222  27.292  66.359  43.987
32183DT     SC2 9223  27.145  66.480  44.089
32183DT     SC3 9224  27.406  66.343  44.224
32184DA     BB1 9225  27.027  66.364  43.381
32184DA     BB2 9226  26.923  66.660  43.570
32184DA     BB3 9227  27.074  66.810  43.563
32184DA     SC1 9228  27.219  66.711  43.819
32184DA     SC2 9229  27.255  66.790  44.053
32184DA     SC3 9230  27.454  66.628  44.056
32184DA     SC4 9231  27.339  66.606  43.801
32185DA     BB1 9232  26.814  66.984  43.462
32185DA     BB2 9233  26.875  67.202  43.751
32185DA     BB3 9234  27.049  67.321  43.718
32185DA     SC1 9235  27.244  67.116  43.847
32185DA     SC2 9236  27.384  67.098  44.052
32185DA     SC3 9237  27.515  66.919  43.923
32185DA     SC4 9238  27.313  67.008  43.749
32186DA     BB1 9239  26.834  67.559  43.793
32186DA     BB2 9240  27.056  67.644  44.072
32186DA     BB3 9241  27.232  67.740  44.000
32186DA     SC1 9242  27.393  67.476  43.968
32186DA     SC2 9243  27.586  67.363  44.078
32186DA     SC3 9244  27.604  67.227  43.861
32186DA     SC4 9245  27.388  67.402  43.825
32187DC     BB1 9246  27.261  67.931  44.048
32187DC     BB2 9247  27.527  67.880  44.286
32187DC     BB3 9248  27.709  67.928  44.200
32187DC     SC1 9249  27.709  67.708  44.058
32187DC     SC2 9250  27.863  67.576  44.131
32187DC     SC3 9251  27.707  67.547  43.849
32188DA     BB1 9252  27.700  68.156  44.554
32188DA     BB2 9253  28.026  67.988  44.539
32188DA     BB3 9254  28.151  68.081  44.394
32188DA     SC1 9255  28.059  67.897  44.161
32188DA     SC2 9256  28.155  67.716  44.020
32188DA     SC3 9257  27.967  67.771  43.855
32188DA     SC4 9258  27.936  67.948  44.070
32189DG     BB1 9259  28.364  68.162  44.619
32189DG     BB2 9260  28.582  67.939  44.436
32189DG     BB3 9261  28.672  68.037  44.289
32189DG     SC1 9262  28.452  67.980  44.084
32189DG     SC2 9263  28.481  67.809  43.840
32189DG     SC3 9264  28.222  67.953  43.839
32189DG     SC4 9265  28.329  68.080  44.072
32190DT     BB1 9266  28.919  68.092  44.254
32190DT     BB2 9267  29.000  67.849  44.000
32190DT     BB3 9268  29.033  67.945  43.819
32190DT     SC1 9269  28.776  67.987  43.786
32190DT     SC2 9270  28.704  67.865  43.624
32190DT     SC3 9271  28.547  68.115  43.757
32191DT     BB1 9272  29.328  67.932  43.801
32191DT     BB2 9273  29.219  67.769  43.498
32191DT     BB3 9274  29.217  67.904  43.342
32191DT     SC1 9275  28.999  68.018  43.433
32191DT     SC2 9276  28.835  67.975  43.300
32191DT     SC3 9277  28.837  68.202  43.531
32192DA     BB1 9278  29.454  67.590  43.199
32192DA     BB2 9279  29.194  67.653  42.948
32192DA     BB3 9280  29.242  67.827  42.834
32192DA     SC1 9281  29.091  68.022  43.023
32192DA     SC2 9282  28.886  68.164  43.016
32192DA     SC3 9283  28.993  68.294  43.209
32192DA     SC4 9284  29.175  68.091  43.141
32193DT     BB1 9285  29.284  67.806  42.632
32193DT     BB2 9286  28.966  67.931  42.516
32193DT     BB3 9287  28.989  68.120  42.435
32193DT     SC1 9288  29.014  68.227  42.673
32193DT     SC2 9289  28.841  68.347  42.717
32193DT     SC3 9290  29.122  68.353  42.879
32194DT     BB1 9291  28.944  68.011  42.193
32194DT     BB2 9292  28.686  68.260  42.233
32194DT     BB3 9293  28.757  68.445  42.172
32194DT     SC1 9294  28.901  68.470  42.390
32194DT     SC2 9295  28.818  68.625  42.514
32194DT     SC3 9296  29.113  68.494  42.546
32195DA     BB1 9297  28.387  68.359  41.995
32195DA     BB2 9298  28.370  68.694  42.142
32195DA     BB3 9299  28.488  68.831  42.028
32195DA     SC1 9300  28.746  68.785  42.195
32195DA     SC2 9301  28.886  68.912  42.357
32195DA     SC3 9302  29.071  68.744  42.298
32195DA     SC4 9303  28.848  68.672  42.144
32196DC     BB1 9304  28.383  68.961  41.950
32196DC     BB2 9305  28.479  69.232  42.169
32196DC     BB3 9306  28.622  69.350  42.076
32196DC     SC1 9307  28.808  69.169  42.116
32196DC     SC2 9308  28.948  69.242  42.261
32196DC     SC3 9309  28.993  68.988  42.064
32197DA     BB1 9310  28.309  69.579  42.238
32197DA     BB2 9311  28.628  69.726  42.342
32197DA     BB3 9312  28.726  69.816  42.175
32197DA     SC1 9313  28.884  69.559  42.099
32197DA     SC2 9314  29.120  69.479  42.103
32197DA     SC3 9315  29.043  69.306  41.930
32197DA     SC4 9316  28.817  69.460  41.991
32198DA     BB1 9317  28.722  70.046  42.406
32198DA     BB2 9318  29.087  70.045  42.379
32198DA     BB3 9319  29.148  70.129  42.193
32198DA     SC1 9320  29.148  69.857  42.042
32198DA     SC2 9321  29.316  69.701  41.943
32198DA     SC3 9322  29.119  69.609  41.807
32198DA     SC4 9323  29.014  69.815  41.966
32199DC     BB1 9324  29.241  70.280  42.223
32199DC     BB2 9325  29.567  70.157  42.131
32199DC     BB3 9326  29.609  70.207  41.935
32199DC     SC1 9327  29.445  70.024  41.844
32199DC     SC2 9328  29.559  69.867  41.750
32199DC     SC3 9329  29.240  69.914  41.721
32200DT     BB1 9330  29.784  70.371  42.043
32200DT     BB2 9331  29.975  70.170  41.812
32200DT     BB3 9332  29.954  70.244  41.620
32200DT     SC1 9333  29.711  70.147  41.601
32200DT     SC2 9334  29.710  69.985  41.459
32200DT     SC3 9335  29.448  70.138  41.575
32201DT     BB1 9336  30.208  70.337  41.630
32201DT     BB2 9337  30.199  70.136  41.331
32201DT     BB3 9338  30.130  70.249  41.172
32201DT     SC1 9339  29.883  70.237  41.261
32201DT     SC2 9340  29.766  70.115  41.130
32201DT     SC3 9341  29.650  70.315  41.356
32202DT     BB1 9342  30.381  70.278  41.052
32202DT     BB2 9343  30.176  70.143  40.787
32202DT     BB3 9344  30.087  70.297  40.681
32202DT     SC1 9345  29.916  70.343  40.875
32202DT     SC2 9346  29.719  70.284  40.812
32202DT     SC3 9347  29.790  70.468  41.070
32203DA     BB1 9348  30.281  70.084  40.373
32203DA     BB2 9349  29.936  70.141  40.263
32203DA     BB3 9350  29.911  70.342  40.197
32203DA     SC1 9351  29.827  70.450  40.477
32203DA     SC2 9352  29.621  70.537  40.587
32203DA     SC3 9353  29.781  70.641  40.758
32203DA     SC4 9354  29.943  70.507  40.572
32204DT     BB1 9355  29.871  70.405  39.984
32204DT     BB2 9356  29.522  70.481  40.030
32204DT     BB3 9357  29.491  70.685  40.017
32204DT     SC1 9358  29.596  70.724  40.255
32204DT     SC2 9359  29.441  70.785  40.391
32204DT     SC3 9360  29.760  70.809  40.443
32205DT     BB1 9361  29.370  70.669  39.767
32205DT     BB2 9362  29.123  70.828  39.976
32205DT     BB3 9363  29.147  71.034  39.971
32205DT     SC1 9364  29.359  71.020  40.125
32205DT     SC2 9365  29.314  71.105  40.317
32205DT     SC3 9366  29.610  71.040  40.204
32206DA     BB1 9367  28.747  70.947  39.887
32206DA     BB2 9368  28.755  71.202  40.151
32206DA     BB3 9369  28.812  71.391  40.071
32206DA     SC1 9370  29.116  71.347  40.120
32206DA     SC2 9371  29.294  71.439  40.268
32206DA     SC3 9372  29.458  71.345  40.095
32206DA     SC4 9373  29.202  71.283  40.000
32207DA     BB1 9374  28.536  71.458  40.230
32207DA     BB2 9375  28.737  71.687  40.434
32207DA     BB3 9376  28.791  71.860  40.321
32207DA     SC1 9377  29.057  71.738  40.216
32207DA     SC2 9378  29.302  71.773  40.249
32207DA     SC3 9379  29.329  71.651  40.025
32207DA     SC4 9380  29.053  71.661  40.075
32208DT     BB1 9381  28.715  72.019  40.387
32208DT     BB2 9382  29.016  72.158  40.528
32208DT     BB3 9383  29.094  72.301  40.401
32208DT     SC1 9384  29.182  72.117  40.235
32208DT     SC2 9385  29.397  72.112  40.242
32208DT     SC3 9386  29.211  71.975  40.015
32209DT     BB1 9387  29.018  72.485  40.579
32209DT     BB2 9388  29.371  72.541  40.536
32209DT     BB3 9389  29.405  72.661  40.371
32209DT     SC1 9390  29.352  72.464  40.207
32209DT     SC2 9391  29.533  72.404  40.107
32209DT     SC3 9392  29.232  72.323  40.019
32210DC     BB1 9393  29.472  72.865  40.536
32210DC     BB2 9394  29.757  72.827  40.319
32210DC     BB3 9395  29.728  72.935  40.145
32210DC     SC1 9396  29.557  72.758  40.054
32210DC     SC2 9397  29.644  72.653  39.888
32210DC     SC3 9398  29.331  72.652  39.970
32211DT     BB1 9399  29.910  73.136  40.215
32211DT     BB2 9400  30.029  73.021  39.895
32211DT     BB3 9401  29.942  73.131  39.743
32211DT     SC1 9402  29.714  73.005  39.772
32211DT     SC2 9403  29.679  72.879  39.601
32211DT     SC3 9404  29.459  72.962  39.824
32212DT     BB1 9405  30.174  73.274  39.688
32212DT     BB2 9406  30.087  73.127  39.370
32212DT     BB3 9407  29.963  73.255  39.265
32212DT     SC1 9408  29.759  73.195  39.419
32212DT     SC2 9409  29.615  73.082  39.306
32212DT     SC3 9410  29.562  73.223  39.593
32213DA     BB1 9411  30.276  73.172  38.999
32213DA     BB2 9412  29.961  73.124  38.816
32213DA     BB3 9413  29.875  73.313  38.766
32213DA     SC1 9414  29.707  73.332  39.026
32213DA     SC2 9415  29.466  73.322  39.092
32213DA     SC3 9416  29.540  73.443  39.306
32213DA     SC4 9417  29.772  73.409  39.152
32214DT     BB1 9418  29.860  73.388  38.561
32214DT     BB2 9419  29.504  73.340  38.523
32214DT     BB3 9420  29.408  73.523  38.522
32214DT     SC1 9421  29.440  73.551  38.781
32214DT     SC2 9422  29.249  73.534  38.879
32214DT     SC3 9423  29.522  73.649  39.012
32215DG     BB1 9424  29.305  73.373  38.154
32215DG     BB2 9425  29.010  73.480  38.334
32215DG     BB3 9426  28.985  73.676  38.314
32215DG     SC1 9427  29.153  73.747  38.560
32215DG     SC2 9428  29.051  73.871  38.812
32215DG     SC3 9429  29.347  73.862  38.811
32215DG     SC4 9430  29.311  73.768  38.543
32216DA     BB1 9431  28.652  73.650  38.191
32216DA     BB2 9432  28.524  73.841  38.477
32216DA     BB3 9433  28.545  74.050  38.442
32216DA     SC1 9434  28.827  74.069  38.571
32216DA     SC2 9435  28.930  74.167  38.776
32216DA     SC3 9436  29.152  74.151  38.648
32216DA     SC4 9437  28.954  74.052  38.474
32217DA     BB1 9438  28.216  74.085  38.492
32217DA     BB2 9439  28.296  74.291  38.785
32217DA     BB3 9440  28.336  74.492  38.726
32217DA     SC1 9441  28.642  74.447  38.689
32217DA     SC2 9442  28.853  74.515  38.802
32217DA     SC3 9443  28.967  74.455  38.580
32217DA     SC4 9444  28.694  74.405  38.543
32218DT     BB1 9445  28.206  74.664  38.780
32218DT     BB2 9446  28.423  74.789  39.039
32218DT     BB3 9447  28.506  74.970  38.981
32218DT     SC1 9448  28.670  74.849  38.815
32218DT     SC2 9449  28.871  74.865  38.890
32218DT     SC3 9450  28.787  74.777  38.590
32219DA     BB1 9451  28.335  75.009  39.358
32219DA     BB2 9452  28.681  75.130  39.376
32219DA     BB3 9453  28.698  75.320  39.281
32219DA     SC1 9454  28.767  75.202  39.002
32219DA     SC2 9455  28.964  75.189  38.850
32219DA     SC3 9456  28.793  75.142  38.665
32219DA     SC4 9457  28.645  75.175  38.900
32220DA     BB1 9458  28.828  75.327  39.576
32220DA     BB2 9459  29.140  75.411  39.402
32220DA     BB3 9460  29.127  75.606  39.317
32220DA     SC1 9461  29.017  75.507  39.044
32220DA     SC2 9462  29.096  75.489  38.808
32220DA     SC3 9463  28.847  75.475  38.747
32220DA     SC4 9464  28.857  75.501  39.026
32221DC     BB1 9465  29.250  75.664  39.400
32221DC     BB2 9466  29.481  75.691  39.124
32221DC     BB3 9467  29.453  75.870  39.026
32221DC     SC1 9468  29.232  75.784  38.914
32221DC     SC2 9469  29.265  75.758  38.703
32221DC     SC3 9470  28.977  75.764  38.851
32222DA     BB1 9471  29.855  75.756  39.107
32222DA     BB2 9472  29.829  75.876  38.762
32222DA     BB3 9473  29.778  76.083  38.759
32222DA     SC1 9474  29.471  76.032  38.751
32222DA     SC2 9475  29.284  76.058  38.589
32222DA     SC3 9476  29.131  76.049  38.795
32222DA     SC4 9477  29.393  76.026  38.892
32223DA     BB1 9478  30.040  76.050  38.561
32223DA     BB2 9479  29.829  76.204  38.303
32223DA     BB3 9480  29.786  76.406  38.354
32223DA     SC1 9481  29.525  76.338  38.509
32223DA     SC2 9482  29.279  76.369  38.480
32223DA     SC3 9483  29.265  76.331  38.734
32223DA     SC4 9484  29.537  76.313  38.668
32224DC     BB1 9485  29.862  76.541  38.238
32224DC     BB2 9486  29.557  76.653  38.082
32224DC     BB3 9487  29.492  76.828  38.170
32224DC     SC1 9488  29.409  76.700  38.383
32224DC     SC2 9489  29.194  76.704  38.390
32224DC     SC3 9490  29.391  76.623  38.635
32225DT     BB1 9491  29.569  76.989  37.956
32225DT     BB2 9492  29.222  77.073  38.004
32225DT     BB3 9493  29.205  77.227  38.141
32225DT     SC1 9494  29.258  77.066  38.341
32225DT     SC2 9495  29.081  77.039  38.460
32225DT     SC3 9496  29.383  76.960  38.548
32226DC     BB1 9497  29.146  77.434  37.955
32226DC     BB2 9498  28.872  77.451  38.189
32226DC     BB3 9499  28.917  77.584  38.342
32226DC     SC1 9500  29.083  77.413  38.452
32226DC     SC2 9501  29.000  77.343  38.638
32226DC     SC3 9502  29.307  77.307  38.542
32227DA     BB1 9503  28.551  77.739  38.201
32227DA     BB2 9504  28.523  77.707  38.565
32227DA     BB3 9505  28.627  77.866  38.662
32227DA     SC1 9506  28.896  77.711  38.682
32227DA     SC2 9507  29.037  77.607  38.860
32227DA     SC3 9508  29.227  77.622  38.689
32227DA     SC4 9509  29.001  77.729  38.562
32228DT     BB1 9510  28.528  78.028  38.780
32228DT     BB2 9511  28.618  77.898  39.104
32228DT     BB3 9512  28.759  78.021  39.193
32228DT     SC1 9513  28.948  77.931  39.035
32228DT     SC2 9514  29.087  77.813  39.150
32228DT     SC3 9515  29.137  77.927  38.851
32229DT     BB1 9516  28.575  78.117  39.373
32229DT     BB2 9517  28.835  77.973  39.577
32229DT     BB3 9518  28.982  78.114  39.615
32229DT     SC1 9519  29.076  78.094  39.371
32229DT     SC2 9520  29.269  78.000  39.376
32229DT     SC3 9521  29.143  78.160  39.125
32230DA     BB1 9522  28.859  77.935  39.974
32230DA     BB2 9523  29.225  77.920  39.956
32230DA     BB3 9524  29.309  78.114  39.985
32230DA     SC1 9525  29.309  78.186  39.683
32230DA     SC2 9526  29.477  78.221  39.501
32230DA     SC3 9527  29.290  78.348  39.381
32230DA     SC4 9528  29.181  78.263  39.624
32231DC     BB1 9529  29.417  78.137  40.148
32231DC     BB2 9530  29.739  78.138  39.986
32231DC     BB3 9531  29.813  78.331  39.977
32231DC     SC1 9532  29.647  78.395  39.785
32231DC     SC2 9533  29.757  78.424  39.602
32231DC     SC3 9534  29.451  78.516  39.657
32232DA     BB1 9535  30.099  78.066  40.129
32232DA     BB2 9536  30.258  78.269  39.869
32232DA     BB3 9537  30.285  78.469  39.938
32232DA     SC1 9538  30.010  78.569  39.831
32232DA     SC2 9539  29.926  78.719  39.650
32232DA     SC3 9540  29.709  78.729  39.788
32232DA     SC4 9541  29.885  78.563  39.931
32233DC     BB1 9542  30.463  78.511  39.950
32233DC     BB2 9543  30.480  78.735  39.668
32233DC     BB3 9544  30.470  78.932  39.733
32233DC     SC1 9545  30.213  78.911  39.780
32233DC     SC2 9546  30.104  79.030  39.637
32233DC     SC3 9547  29.984  78.905  39.911
32234DA     BB1 9548  30.798  78.889  39.474
32234DA     BB2 9549  30.615  79.193  39.378
32234DA     BB3 9550  30.643  79.345  39.524
32234DA     SC1 9551  30.394  79.263  39.692
32234DA     SC2 9552  30.168  79.355  39.745
32234DA     SC3 9553  30.173  79.197  39.947
32234DA     SC4 9554  30.417  79.159  39.813
32235DA     BB1 9555  30.738  79.525  39.262
32235DA     BB2 9556  30.473  79.763  39.348
32235DA     BB3 9557  30.530  79.879  39.518
32235DA     SC1 9558  30.403  79.683  39.724
32235DA     SC2 9559  30.209  79.680  39.881
32235DA     SC3 9560  30.336  79.491  40.001
32235DA     SC4 9561  30.498  79.568  39.785
32236DT     BB1 9562  30.583  80.102  39.521
32236DT     BB2 9563  30.288  80.221  39.690
32236DT     BB3 9564  30.336  80.284  39.881
32236DT     SC1 9565  30.360  80.037  39.965
32236DT     SC2 9566  30.199  79.991  40.100
32236DT     SC3 9567  30.469  79.816  40.060
32237DT     BB1 9568  30.344  80.586  39.857
32237DT     BB2 9569  30.119  80.538  40.135
32237DT     BB3 9570  30.222  80.556  40.313
32237DT     SC1 9571  30.333  80.320  40.282
32237DT     SC2 9572  30.252  80.183  40.427
32237DT     SC3 9573  30.518  80.135  40.248
32238DT     BB1 9574  30.160  80.842  40.428
32238DT     BB2 9575  30.066  80.627  40.703
32238DT     BB3 9576  30.219  80.621  40.843
32238DT     SC1 9577  30.364  80.466  40.689
32238DT     SC2 9578  30.376  80.270  40.777
32238DT     SC3 9579  30.564  80.383  40.539
32239DA     BB1 9580  29.921  80.765  41.114
32239DA     BB2 9581  30.064  80.464  41.268
32239DA     BB3 9582  30.242  80.513  41.375
32239DA     SC1 9583  30.431  80.464  41.132
32239DA     SC2 9584  30.604  80.298  41.064
32239DA     SC3 9585  30.684  80.479  40.900
32239DA     SC4 9586  30.466  80.590  41.038
32240DC     BB1 9587  30.273  80.501  41.610
32240DC     BB2 9588  30.448  80.185  41.592
32240DC     BB3 9589  30.643  80.209  41.656
32240DC     SC1 9590  30.710  80.330  41.432
32240DC     SC2 9591  30.840  80.202  41.319
32240DC     SC3 9592  30.791  80.518  41.267
32241DA     BB1 9593  30.442  79.889  41.831
32241DA     BB2 9594  30.754  79.765  41.683
32241DA     BB3 9595  30.922  79.833  41.796
32241DA     SC1 9596  30.959  80.093  41.630
32241DA     SC2 9597  31.124  80.186  41.467
32241DA     SC3 9598  31.024  80.415  41.528
32241DA     SC4 9599  30.885  80.226  41.682
32242DG     BB1 9600  30.910  79.530  41.764
32242DG     BB2 9601  31.214  79.597  41.580
32242DG     BB3 9602  31.359  79.652  41.706
32242DG     SC1 9603  31.292  79.951  41.691
32242DG     SC2 9604  31.465  80.163  41.571
32242DG     SC3 9605  31.234  80.282  41.714
32242DG     SC4 9606  31.184  80.011  41.793
32243DT     BB1 9607  31.492  79.531  41.674
32243DT     BB2 9608  31.745  79.730  41.510
32243DT     BB3 9609  31.870  79.815  41.651
32243DT     SC1 9610  31.687  79.991  41.719
32243DT     SC2 9611  31.748  80.186  41.654
32243DT     SC3 9612  31.511  80.122  41.865
32244DC     BB1 9613  32.041  79.647  41.548
32244DC     BB2 9614  32.196  79.971  41.520
32244DC     BB3 9615  32.279  80.026  41.702
32244DC     SC1 9616  32.043  80.079  41.803
32244DC     SC2 9617  32.023  80.291  41.832
32244DC     SC3 9618  31.830  80.064  41.958
32245DA     BB1 9619  32.579  80.071  41.411
32245DA     BB2 9620  32.576  80.373  41.619
32245DA     BB3 9621  32.656  80.331  41.812
32245DA     SC1 9622  32.380  80.257  41.936
32245DA     SC2 9623  32.221  80.353  42.103
32245DA     SC3 9624  32.126  80.115  42.119
32245DA     SC4 9625  32.336  80.103  41.933
32246DA     BB1 9626  32.866  80.581  41.752
32246DA     BB2 9627  32.723  80.751  42.044
32246DA     BB3 9628  32.802  80.668  42.224
32246DA     SC1 9629  32.577  80.455  42.253
32246DA     SC2 9630  32.383  80.411  42.403
32246DA     SC3 9631  32.396  80.170  42.317
32246DA     SC4 9632  32.602  80.310  42.188
32247DT     BB1 9633  32.930  80.779  42.354
32247DT     BB2 9634  32.683  80.840  42.610
32247DT     BB3 9635  32.724  80.725  42.777
32247DT     SC1 9636  32.638  80.507  42.658
32247DT     SC2 9637  32.455  80.443  42.750
32247DT     SC3 9638  32.639  80.266  42.551
32248DA     BB1 9639  32.680  81.120  42.905
32248DA     BB2 9640  32.466  80.909  43.115
32248DA     BB3 9641  32.585  80.797  43.253
32248DA     SC1 9642  32.620  80.553  43.063
32248DA     SC2 9643  32.542  80.317  43.051
32248DA     SC3 9644  32.740  80.281  42.892
32248DA     SC4 9645  32.749  80.551  42.967
32249DA     BB1 9646  32.362  80.943  43.438
32249DA     BB2 9647  32.255  80.604  43.531
32249DA     BB3 9648  32.399  80.514  43.659
32249DA     SC1 9649  32.561  80.386  43.426
32249DA     SC2 9650  32.605  80.157  43.336
32249DA     SC3 9651  32.810  80.264  43.224
32249DA     SC4 9652  32.684  80.470  43.366
32250DC     BB1 9653  32.317  80.486  43.807
32250DC     BB2 9654  32.289  80.128  43.779
32250DC     BB3 9655  32.449  80.037  43.875
32250DC     SC1 9656  32.613  80.102  43.681
32250DC     SC2 9657  32.671  79.924  43.574
32250DC     SC3 9658  32.815  80.214  43.553
32251DT     BB1 9659  32.262  79.964  44.043
32251DT     BB2 9660  32.420  79.658  43.935
32251DT     BB3 9661  32.596  79.628  44.039
32251DT     SC1 9662  32.719  79.814  43.899
32251DT     SC2 9663  32.865  79.722  43.771
32251DT     SC3 9664  32.846  80.038  43.842
32252DA     BB1 9665  32.368  79.276  44.064
32252DA     BB2 9666  32.711  79.184  43.973
32252DA     BB3 9667  32.842  79.211  44.140
32252DA     SC1 9668  32.914  79.505  44.066
32252DA     SC2 9669  33.112  79.631  43.982
32252DA     SC3 9670  32.993  79.839  44.075
32252DA     SC4 9671  32.825  79.622  44.131
32253DA     BB1 9672  32.919  78.896  44.081
32253DA     BB2 9673  33.263  79.010  44.024
32253DA     BB3 9674  33.359  79.053  44.210
32253DA     SC1 9675  33.273  79.352  44.211
32253DA     SC2 9676  33.381  79.576  44.186
32253DA     SC3 9677  33.172  79.667  44.303
32253DA     SC4 9678  33.136  79.390  44.286
32254DG     BB1 9679  33.562  78.830  44.129
32254DG     BB2 9680  33.794  79.107  44.121
32254DG     BB3 9681  33.861  79.145  44.305
32254DG     SC1 9682  33.638  79.343  44.373
32254DG     SC2 9683  33.672  79.636  44.419
32254DG     SC3 9684  33.398  79.549  44.488
32254DG     SC4 9685  33.502  79.288  44.437
32255DA     BB1 9686  34.173  79.126  44.160
32255DA     BB2 9687  34.240  79.472  44.262
32255DA     BB3 9688  34.282  79.480  44.471
32255DA     SC1 9689  33.985  79.526  44.554
32255DA     SC2 9690  33.846  79.710  44.648
32255DA     SC3 9691  33.682  79.524  44.715
32255DA     SC4 9692  33.897  79.396  44.588
32256DC     BB1 9693  34.453  79.537  44.501
32256DC     BB2 9694  34.371  79.869  44.616
32256DC     BB3 9695  34.374  79.875  44.823
32256DC     SC1 9696  34.146  79.746  44.838
32256DC     SC2 9697  33.994  79.879  44.911
32256DC     SC3 9698  33.972  79.556  44.894
32257DA     BB1 9699  34.582  80.193  44.639
32257DA     BB2 9700  34.367  80.328  44.904
32257DA     BB3 9701  34.436  80.265  45.095
32257DA     SC1 9702  34.262  80.008  45.101
32257DA     SC2 9703  34.063  79.922  45.225
32257DA     SC3 9704  34.142  79.690  45.150
32257DA     SC4 9705  34.327  79.872  45.045
32258DA     BB1 9706  34.400  80.592  45.120
32258DA     BB2 9707  34.177  80.520  45.402
32258DA     BB3 9708  34.288  80.438  45.565
32258DA     SC1 9709  34.249  80.143  45.474
32258DA     SC2 9710  34.125  79.941  45.552
32258DA     SC3 9711  34.290  79.809  45.407
32258DA     SC4 9712  34.362  80.079  45.380
32259DA     BB1 9713  34.143  80.685  45.738
32259DA     BB2 9714  34.009  80.428  45.962
32259DA     BB3 9715  34.164  80.348  46.085
32259DA     SC1 9716  34.238  80.120  45.887
32259DA     SC2 9717  34.219  79.872  45.876
32259DA     SC3 9718  34.404  79.886  45.698
32259DA     SC4 9719  34.354  80.150  45.779
32260DG     BB1 9720  34.045  80.448  46.380
32260DG     BB2 9721  34.029  80.095  46.457
32260DG     BB3 9722  34.201  80.035  46.537
32260DG     SC1 9723  34.329  79.963  46.269
32260DG     SC2 9724  34.402  79.688  46.178
32260DG     SC3 9725  34.508  79.892  45.992
32260DG     SC4 9726  34.409  80.075  46.188
32261DT     BB1 9727  34.305  79.943  46.802
32261DT     BB2 9728  34.338  79.591  46.731
32261DT     BB3 9729  34.538  79.536  46.739
32261DT     SC1 9730  34.587  79.651  46.508
32261DT     SC2 9731  34.627  79.500  46.360
32261DT     SC3 9732  34.689  79.817  46.330
32262DA     BB1 9733  34.411  79.259  47.038
32262DA     BB2 9734  34.601  79.064  46.793
32262DA     BB3 9735  34.811  79.079  46.832
32262DA     SC1 9736  34.851  79.327  46.648
32262DA     SC2 9737  34.961  79.379  46.431
32262DA     SC3 9738  34.955  79.623  46.510
32262DA     SC4 9739  34.839  79.472  46.716
32263DG     BB1 9740  34.837  78.765  46.889
32263DG     BB2 9741  35.028  78.768  46.582
32263DG     BB3 9742  35.221  78.798  46.622
32263DG     SC1 9743  35.202  79.103  46.606
32263DG     SC2 9744  35.331  79.276  46.400
32263DG     SC3 9745  35.214  79.440  46.616
32263DG     SC4 9746  35.164  79.186  46.738
32264DT     BB1 9747  35.384  78.644  46.573
32264DT     BB2 9748  35.526  78.795  46.278
32264DT     BB3 9749  35.712  78.875  46.321
32264DT     SC1 9750  35.604  79.077  46.449
32264DT     SC2 9751  35.635  79.258  46.336
32264DT     SC3 9752  35.540  79.241  46.645
32265DA     BB1 9753  35.738  78.631  45.982
32265DA     BB2 9754  35.892  78.954  45.903
32265DA     BB3 9755  36.079  78.974  46.003
32265DA     SC1 9756  35.958  79.107  46.257
32265DA     SC2 9757  35.959  79.331  46.366
32265DA     SC3 9758  35.889  79.206  46.578
32265DA     SC4 9759  35.916  79.011  46.378
32266DT     BB1 9760  36.226  78.983  45.884
32266DT     BB2 9761  36.289  79.336  45.923
32266DT     BB3 9762  36.450  79.365  46.050
32266DT     SC1 9763  36.305  79.305  46.260
32266DT     SC2 9764  36.273  79.482  46.378
32266DT     SC3 9765  36.219  79.177  46.474
32267DA     BB1 9766  36.504  79.586  45.698
32267DA     BB2 9767  36.565  79.808  45.983
32267DA     BB3 9768  36.748  79.757  46.079
32267DA     SC1 9769  36.617  79.557  46.278
32267DA     SC2 9770  36.570  79.544  46.522
32267DA     SC3 9771  36.550  79.291  46.484
32267DA     SC4 9772  36.610  79.402  46.234
32268DA     BB1 9773  36.789  80.077  46.025
32268DA     BB2 9774  36.819  80.112  46.389
32268DA     BB3 9775  37.006  80.036  46.456
32268DA     SC1 9776  36.900  79.747  46.505
32268DA     SC2 9777  36.853  79.598  46.699
32268DA     SC3 9778  36.866  79.407  46.529
32268DA     SC4 9779  36.913  79.642  46.384
32269DT     BB1 9780  37.125  80.167  46.531
32269DT     BB2 9781  37.087  80.069  46.876
32269DT     BB3 9782  37.251  79.959  46.937
32269DT     SC1 9783  37.169  79.749  46.803
32269DT     SC2 9784  37.108  79.596  46.941
32269DT     SC3 9785  37.164  79.554  46.625
32270DC     BB1 9786  37.312  80.170  47.084
32270DC     BB2 9787  37.286  79.897  47.318
32270DC     BB3 9788  37.463  79.790  47.322
32270DC     SC1 9789  37.412  79.679  47.090
32270DC     SC2 9790  37.371  79.470  47.119
32270DC     SC3 9791  37.435  79.614  46.836
32271DA     BB1 9792  37.332  79.887  47.710
32271DA     BB2 9793  37.420  79.531  47.702
32271DA     BB3 9794  37.631  79.507  47.683
32271DA     SC1 9795  37.627  79.501  47.372
32271DA     SC2 9796  37.664  79.335  47.190
32271DA     SC3 9797  37.701  79.539  47.038
32271DA     SC4 9798  37.647  79.640  47.294
32272DT     BB1 9799  37.706  79.426  47.832
32272DT     BB2 9800  37.776  79.106  47.682
32272DT     BB3 9801  37.975  79.096  47.625
32272DT     SC1 9802  37.931  79.253  47.419
32272DT     SC2 9803  37.950  79.139  47.237
32272DT     SC3 9804  37.944  79.462  47.259
32273DG     BB1 9805  37.899  78.786  47.878
32273DG     BB2 9806  38.057  78.673  47.573
32273DG     BB3 9807  38.251  78.717  47.577
32273DG     SC1 9808  38.216  78.993  47.448
32273DG     SC2 9809  38.314  79.074  47.178
32273DG     SC3 9810  38.212  79.308  47.328
32273DG     SC4 9811  38.188  79.119  47.542
32274DT     BB1 9812  38.408  78.559  47.574
32274DT     BB2 9813  38.536  78.589  47.237
32274DT     BB3 9814  38.717  78.688  47.239
32274DT     SC1 9815  38.600  78.919  47.281
32274DT     SC2 9816  38.618  79.041  47.106
32274DT     SC3 9817  38.530  79.143  47.400
32275DG     BB1 9818  38.797  78.325  47.068
32275DG     BB2 9819  38.917  78.596  46.861
32275DG     BB3 9820  39.088  78.666  46.933
32275DG     SC1 9821  38.956  78.873  47.115
32275DG     SC2 9822  38.974  79.170  47.085
32275DG     SC3 9823  38.844  79.097  47.341
32275DG     SC4 9824  38.914  78.830  47.264
32276DC     BB1 9825  39.289  78.656  46.820
32276DC     BB2 9826  39.326  79.000  46.716
32276DC     BB3 9827  39.470  79.094  46.832
32276DC     SC1 9828  39.307  79.108  47.037
32276DC     SC2 9829  39.252  79.313  47.071
32276DC     SC3 9830  39.208  79.068  47.278
32277DG     BB1 9831  39.601  79.127  46.446
32277DG     BB2 9832  39.588  79.450  46.610
32277DG     BB3 9833  39.747  79.473  46.727
32277DG     SC1 9834  39.614  79.351  46.974
32277DG     SC2 9835  39.544  79.496  47.225
32277DG     SC3 9836  39.506  79.205  47.258
32277DG     SC4 9837  39.623  79.193  46.997
32278DC     BB1 9838  39.895  79.635  46.689
32278DC     BB2 9839  39.809  79.868  46.951
32278DC     BB3 9840  39.949  79.858  47.103
32278DC     SC1 9841  39.851  79.630  47.189
32278DC     SC2 9842  39.755  79.661  47.379
32278DC     SC3 9843  39.836  79.374  47.250
32279DG     BB1 9844  39.931  80.242  46.967
32279DG     BB2 9845  39.883  80.224  47.325
32279DG     BB3 9846  40.058  80.196  47.415
32279DG     SC1 9847  40.041  79.890  47.406
32279DG     SC2 9848  40.012  79.709  47.641
32279DG     SC3 9849  40.064  79.554  47.394
32279DG     SC4 9850  40.098  79.813  47.277
32280DA     BB1 9851  39.954  80.465  47.604
32280DA     BB2 9852  39.975  80.257  47.905
32280DA     BB3 9853  40.179  80.224  47.958
32280DA     SC1 9854  40.206  79.963  47.791
32280DA     SC2 9855  40.231  79.718  47.833
32280DA     SC3 9856  40.319  79.706  47.592
32280DA     SC4 9857  40.259  79.976  47.640
32281DA     BB1 9858  40.065  80.340  48.242
32281DA     BB2 9859  40.163  80.020  48.390
32281DA     BB3 9860  40.375  80.010  48.413
32281DA     SC1 9861  40.424  79.883  48.133
32281DA     SC2 9862  40.498  79.663  48.041
32281DA     SC3 9863  40.553  79.794  47.828
32281DA     SC4 9864  40.453  79.982  48.010
32282DG     BB1 9865  40.305  79.978  48.713
32282DG     BB2 9866  40.457  79.653  48.667
32282DG     BB3 9867  40.655  79.668  48.679
32282DG     SC1 9868  40.694  79.721  48.380
32282DG     SC2 9869  40.829  79.539  48.186
32282DG     SC3 9870  40.771  79.801  48.062
32282DG     SC4 9871  40.688  79.872  48.327
32283DG     BB1 9872  40.647  79.451  48.925
32283DG     BB2 9873  40.843  79.236  48.710
32283DG     BB3 9874  41.036  79.285  48.723
32283DG     SC1 9875  41.024  79.489  48.495
32283DG     SC2 9876  41.160  79.465  48.231
32283DG     SC3 9877  41.044  79.734  48.265
32283DG     SC4 9878  40.987  79.641  48.529
32284DT     BB1 9879  41.175  79.138  48.796
32284DT     BB2 9880  41.342  79.039  48.492
32284DT     BB3 9881  41.528  79.130  48.481
32284DT     SC1 9882  41.420  79.361  48.419
32284DT     SC2 9883  41.465  79.409  48.215
32284DT     SC3 9884  41.350  79.615  48.437
32285DT     BB1 9885  41.628  78.888  48.523
32285DT     BB2 9886  41.772  78.995  48.210
32285DT     BB3 9887  41.938  79.113  48.246
32285DT     SC1 9888  41.789  79.316  48.319
32285DT     SC2 9889  41.802  79.471  48.170
32285DT     SC3 9890  41.682  79.504  48.469
32286DT     BB1 9891  42.073  78.907  48.150
32286DT     BB2 9892  42.168  79.187  47.943
32286DT     BB3 9893  42.316  79.297  48.036
32286DT     SC1 9894  42.145  79.400  48.206
32286DT     SC2 9895  42.120  79.610  48.163
32286DT     SC3 9896  42.026  79.459  48.433
32287DT     BB1 9897  42.471  79.200  47.846
32287DT     BB2 9898  42.507  79.559  47.823
32287DT     BB3 9899  42.644  79.625  47.964
32287DT     SC1 9900  42.472  79.592  48.159
32287DT     SC2 9901  42.412  79.785  48.234
32287DT     SC3 9902  42.362  79.499  48.380
32288DC     BB1 9903  42.819  79.671  47.764
32288DC     BB2 9904  42.800  79.986  47.939
32288DC     BB3 9905  42.932  79.985  48.099
32288DC     SC1 9906  42.774  79.827  48.238
32288DC     SC2 9907  42.690  79.938  48.402
32288DC     SC3 9908  42.689  79.615  48.369
32289DA     BB1 9909  43.042  80.334  47.889
32289DA     BB2 9910  43.018  80.425  48.244
32289DA     BB3 9911  43.187  80.349  48.351
32289DA     SC1 9912  43.051  80.079  48.423
32289DA     SC2 9913  42.962  79.965  48.627
32289DA     SC3 9914  42.985  79.749  48.491
32289DA     SC4 9915  43.073  79.955  48.323
32290DG     BB1 9916  43.304  80.643  48.440
32290DG     BB2 9917  43.236  80.530  48.776
32290DG     BB3 9918  43.395  80.436  48.850
32290DG     SC1 9919  43.309  80.160  48.748
32290DG     SC2 9920  43.230  79.927  48.917
32290DG     SC3 9921  43.257  79.847  48.634
32290DG     SC4 9922  43.354  80.114  48.601
32291DT     BB1 9923  43.564  80.493  49.049
32291DT     BB2 9924  43.443  80.263  49.299
32291DT     BB3 9925  43.585  80.116  49.335
32291DT     SC1 9926  43.531  79.997  49.108
32291DT     SC2 9927  43.434  79.809  49.148
32291DT     SC3 9928  43.562  79.900  48.864
32292DG     BB1 9929  43.549  80.288  49.706
32292DG     BB2 9930  43.491  79.932  49.723
32292DG     BB3 9931  43.665  79.835  49.734
32292DG     SC1 9932  43.697  79.808  49.431
32292DG     SC2 9933  43.689  79.553  49.276
32292DG     SC3 9934  43.774  79.778  49.104
32292DG     SC4 9935  43.770  79.925  49.349
32293DT     BB1 9936  43.718  79.709  49.911
32293DT     BB2 9937  43.661  79.380  49.776
32293DT     BB3 9938  43.842  79.287  49.738
32293DT     SC1 9939  43.881  79.435  49.525
32293DT     SC2 9940  43.865  79.313  49.349
32293DT     SC3 9941  43.991  79.611  49.362
32294DA     BB1 9942  43.581  79.041  49.957
32294DA     BB2 9943  43.709  78.851  49.670
32294DA     BB3 9944  43.916  78.806  49.697
32294DA     SC1 9945  44.016  79.064  49.555
32294DA     SC2 9946  44.132  79.124  49.343
32294DA     SC3 9947  44.192  79.343  49.462
32294DA     SC4 9948  44.044  79.193  49.647
32295DA     BB1 9949  43.767  78.524  49.623
32295DA     BB2 9950  43.995  78.511  49.336
32295DA     BB3 9951  44.195  78.477  49.402
32295DA     SC1 9952  44.264  78.779  49.427
32295DA     SC2 9953  44.407  78.946  49.310
32295DA     SC3 9954  44.388  79.084  49.526
32295DA     SC4 9955  44.241  78.849  49.570
32296DA     BB1 9956  44.149  78.246  49.174
32296DA     BB2 9957  44.435  78.394  49.000
32296DA     BB3 9958  44.615  78.355  49.107
32296DA     SC1 9959  44.599  78.615  49.277
32296DA     SC2 9960  44.721  78.832  49.294
32296DA     SC3 9961  44.617  78.848  49.528
32296DA     SC4 9962  44.526  78.606  49.420
32297DA     BB1 9963  44.710  78.238  48.812
32297DA     BB2 9964  44.980  78.485  48.821
32297DA     BB3 9965  45.131  78.425  48.959
32297DA     SC1 9966  45.004  78.574  49.201
32297DA     SC2 9967  45.054  78.772  49.344
32297DA     SC3 9968  44.894  78.665  49.513
32297DA     SC4 9969  44.902  78.491  49.294
32298DC     BB1 9970  45.335  78.362  48.902
32298DC     BB2 9971  45.506  78.659  49.014
32298DC     BB3 9972  45.616  78.617  49.185
32298DC     SC1 9973  45.400  78.610  49.333
32298DC     SC2 9974  45.398  78.779  49.465
32298DC     SC3 9975  45.210  78.517  49.490
32299DA     BB1 9976  45.912  78.778  48.931
32299DA     BB2 9977  45.936  78.955  49.252
32299DA     BB3 9978  46.035  78.833  49.396
32299DA     SC1 9979  45.774  78.702  49.502
32299DA     SC2 9980  45.635  78.707  49.709
32299DA     SC3 9981  45.539  78.484  49.626
32299DA     SC4 9982  45.727  78.563  49.434
32300DC     BB1 9983  46.237  78.877  49.484
32300DC     BB2 9984  46.110  78.996  49.800
32300DC     BB3 9985  46.158  78.862  49.951
32300DC     SC1 9986  45.975  78.692  49.869
32300DC     SC2 9987  45.816  78.684  50.014
32300DC     SC3 9988  45.865  78.472  49.773
32301DA     BB1 9989  46.285  79.240  50.073
32301DA     BB2 9990  46.079  79.098  50.341
32301DA     BB3 9991  46.187  78.947  50.445
32301DA     SC1 9992  46.088  78.716  50.263
32301DA     SC2 9993  45.937  78.518  50.281
32301DA     SC3 9994  46.063  78.429  50.076
32301DA     SC4 9995  46.179  78.677  50.136
32302DA     BB1 9996  46.077  79.151  50.673
32302DA     BB2 9997  45.891  78.863  50.803
32302DA     BB3 9998  46.025  78.723  50.893
32302DA     SC1 9999  46.071  78.561  50.632
32302DA     SC210000  46.012  78.336  50.542
32302DA     SC310001  46.206  78.374  50.377
32302DA     SC410002  46.195  78.602  50.539
32303DA     BB110003  45.791  78.781  51.112
32303DA     BB210004  45.722  78.421  51.093
32303DA     BB310005  45.881  78.310  51.181
32303DA     SC110006  46.041  78.281  50.916
32303DA     SC210007  46.102  78.100  50.756
32303DA     SC310008  46.289  78.258  50.680
32303DA     SC410009  46.152  78.393  50.884
32304DC     BB110010  45.822  78.220  51.329
32304DC     BB210011  45.828  77.889  51.186
32304DC     BB310012  46.002  77.791  51.240
32304DC     SC110013  46.144  77.934  51.071
32304DC     SC210014  46.210  77.809  50.910
32304DC     SC310015  46.323  78.105  50.980
32305DT     BB110016  45.854  77.636  51.400
32305DT     BB210017  46.026  77.406  51.182
32305DT     BB310018  46.215  77.366  51.257
32305DT     SC110019  46.304  77.601  51.182
32305DT     SC210020  46.443  77.576  51.020
32305DT     SC310021  46.402  77.846  51.195
32306DT     BB110022  46.134  77.117  51.327
32306DT     BB210023  46.419  77.063  51.113
32306DT     BB310024  46.594  77.072  51.224
32306DT     SC110025  46.579  77.333  51.243
32306DT     SC210026  46.736  77.422  51.126
32306DT     SC310027  46.556  77.573  51.349
32307DA     BB110028  46.605  76.712  51.010
32307DA     BB210029  46.925  76.883  50.959
32307DA     BB310030  47.045  76.871  51.135
32307DA     SC110031  46.937  77.135  51.257
32307DA     SC210032  47.021  77.365  51.304
32307DA     SC310033  46.826  77.381  51.470
32307DA     SC410034  46.811  77.125  51.356
32308DT     BB110035  47.211  76.768  51.119
32308DT     BB210036  47.435  77.050  51.112
32308DT     BB310037  47.528  77.071  51.296
32308DT     SC110038  47.309  77.168  51.404
32308DT     SC210039  47.338  77.376  51.449
32308DT     SC310040  47.099  77.189  51.562
32309DT     BB110041  47.746  76.993  51.170
32309DT     BB210042  47.827  77.316  51.308
32309DT     BB310043  47.884  77.296  51.506
32309DT     SC110044  47.636  77.256  51.582
32309DT     SC210045  47.568  77.426  51.695
32309DT     SC310046  47.423  77.136  51.681
32310DG     BB110047  48.161  77.492  51.280
32310DG     BB210048  48.072  77.677  51.578
32310DG     BB310049  48.152  77.590  51.738
32310DG     SC110050  47.912  77.406  51.789
32310DG     SC210051  47.728  77.419  52.023
32310DG     SC310052  47.676  77.177  51.862
32310DG     SC410053  47.908  77.263  51.717
32311DA     BB110054  48.253  77.915  51.795
32311DA     BB210055  48.084  77.905  52.120
32311DA     BB310056  48.188  77.776  52.254
32311DA     SC110057  48.026  77.522  52.175
32311DA     SC210058  47.856  77.372  52.279
32311DA     SC310059  47.928  77.202  52.101
32311DA     SC410060  48.086  77.430  52.058
32312DT     BB110061  48.267  77.863  52.405
32312DT     BB210062  48.037  77.741  52.654
32312DT     BB310063  48.122  77.583  52.758
32312DT     SC110064  48.085  77.420  52.555
32312DT     SC210065  47.934  77.276  52.605
32312DT     SC310066  48.139  77.257  52.355
32313DA     BB110067  47.983  77.860  53.042
32313DA     BB210068  47.863  77.527  53.139
32313DA     BB310069  48.025  77.409  53.212
32313DA     SC110070  48.096  77.289  52.934
32313DA     SC210071  48.082  77.068  52.819
32313DA     SC310072  48.259  77.162  52.660
32313DA     SC410073  48.207  77.365  52.846
32314DA     BB110074  47.814  77.381  53.462
32314DA     BB210075  47.815  77.020  53.394
32314DA     BB310076  47.999  76.933  53.459
32314DA     SC110077  48.143  76.973  53.187
32314DA     SC210078  48.227  76.831  53.000
32314DA     SC310079  48.375  77.032  52.940
32314DA     SC410080  48.228  77.108  53.167
32315DT     BB110081  47.978  76.810  53.600
32315DT     BB210082  48.033  76.511  53.405
32315DT     BB310083  48.226  76.443  53.433
32315DT     SC110084  48.323  76.635  53.282
32315DT     SC210085  48.398  76.550  53.099
32315DT     SC310086  48.459  76.849  53.210
32316DA     BB110087  47.949  76.131  53.485
32316DA     BB210088  48.215  76.015  53.261
32316DA     BB310089  48.398  75.991  53.368
32316DA     SC110090  48.496  76.281  53.315
32316DA     SC210091  48.674  76.394  53.182
32316DA     SC310092  48.638  76.593  53.341
32316DA     SC410093  48.460  76.393  53.425
32317DT     BB110094  48.450  75.816  53.370
32317DT     BB210095  48.728  75.846  53.143
32317DT     BB310096  48.905  75.865  53.249
32317DT     SC110097  48.849  76.114  53.313
32317DT     SC210098  48.984  76.246  53.209
32317DT     SC310099  48.794  76.326  53.459
32318DG     BB110100  48.943  75.541  53.003
32318DG     BB210101  49.224  75.766  52.970
32318DG     BB310102  49.345  75.747  53.127
32318DG     SC110103  49.203  75.960  53.295
32318DG     SC210104  49.318  76.223  53.378
32318DG     SC310105  49.060  76.172  53.514
32318DG     SC410106  49.081  75.916  53.388
32319DT     BB110107  49.562  75.670  53.115
32319DT     BB210108  49.750  75.973  53.169
32319DT     BB310109  49.826  75.976  53.361
32319DT     SC110110  49.590  76.031  53.462
32319DT     SC210111  49.589  76.232  53.538
32319DT     SC310112  49.367  76.005  53.601
32320DT     BB110113  50.098  75.915  53.299
32320DT     BB210114  50.122  76.222  53.486
32320DT     BB310115  50.146  76.181  53.687
32320DT     SC110116  49.893  76.113  53.711
32320DT     SC210117  49.791  76.261  53.829
32320DT     SC310118  49.679  75.966  53.754
32321DG     BB110119  50.511  76.374  53.636
32321DG     BB210120  50.330  76.523  53.912
32321DG     BB310121  50.367  76.423  54.080
32321DG     SC110122  50.135  76.226  54.043
32321DG     SC210123  49.892  76.208  54.215
32321DG     SC310124  49.904  75.982  54.024
32321DG     SC410125  50.160  76.091  53.960
32322DC     BB110126  50.488  76.498  54.297
32322DC     BB210127  50.200  76.551  54.508
32322DC     BB310128  50.196  76.410  54.659
32322DC     SC110129  50.118  76.222  54.493
32322DC     SC210130  49.915  76.167  54.537
32322DC     SC310131  50.121  75.999  54.351
32323DT     BB110132  50.271  76.589  54.863
32323DT     BB210133  49.952  76.460  54.972
32323DT     BB310134  49.980  76.293  55.091
32323DT     SC110135  50.040  76.145  54.883
32323DT     SC210136  49.882  76.003  54.849
32323DT     SC310137  50.178  75.992  54.718
32324DT     BB110138  49.906  76.435  55.313
32324DT     BB210139  49.670  76.163  55.293
32324DT     BB310140  49.744  75.998  55.394
32324DT     SC110141  49.914  75.947  55.201
32324DT     SC210142  49.855  75.766  55.099
32324DT     SC310143  50.143  75.913  55.074
32325DT     BB110144  49.557  76.042  55.581
32325DT     BB210145  49.491  75.708  55.459
32325DT     BB310146  49.607  75.571  55.562
32325DT     SC110147  49.823  75.644  55.432
32325DT     SC210148  49.883  75.485  55.300
32325DT     SC310149  50.064  75.741  55.384
32326DA     BB110150  49.204  75.458  55.545
32326DA     BB210151  49.410  75.173  55.441
32326DA     BB310152  49.516  75.093  55.608
32326DA     SC110153  49.766  75.273  55.568
32326DA     SC210154  50.004  75.246  55.497
32326DA     SC310155  50.043  75.471  55.614
32326DA     SC410156  49.770  75.413  55.647
32327DG     BB110157  49.351  74.861  55.497
32327DG     BB210158  49.680  74.724  55.437
32327DG     BB310159  49.759  74.660  55.608
32327DG     SC110160  49.891  74.928  55.677
32327DG     SC210161  50.185  74.981  55.687
32327DG     SC310162  50.032  75.212  55.793
32327DG     SC410163  49.807  75.037  55.759
32328DC     BB110164  49.800  74.470  55.598
32328DC     BB210165  50.161  74.466  55.584
32328DC     BB310166  50.238  74.441  55.774
32328DC     SC110167  50.181  74.689  55.839
32328DC     SC210168  50.364  74.801  55.859
32328DC     SC310169  50.071  74.894  55.963
32329DT     BB110170  50.306  74.210  55.676
32329DT     BB210171  50.613  74.355  55.797
32329DT     BB310172  50.627  74.330  56.002
32329DT     SC110173  50.448  74.517  56.046
32329DT     SC210174  50.544  74.688  56.134
32329DT     SC310175  50.225  74.634  56.123
32330DC     BB110176  50.818  74.159  55.944
32330DC     BB210177  50.969  74.390  56.175
32330DC     BB310178  50.919  74.339  56.370
32330DC     SC110179  50.675  74.431  56.340
32330DC     SC210180  50.650  74.608  56.459
32330DC     SC310181  50.412  74.435  56.324
32331DA     BB110182  51.338  74.377  56.361
32331DA     BB210183  51.214  74.554  56.658
32331DA     BB310184  51.148  74.415  56.805
32331DA     SC110185  50.855  74.409  56.701
32331DA     SC210186  50.630  74.486  56.777
32331DA     SC310187  50.537  74.314  56.611
32331DA     SC410188  50.816  74.295  56.593
32332DA     BB110189  51.358  74.570  57.012
32332DA     BB210190  51.067  74.652  57.220
32332DA     BB310191  51.006  74.482  57.333
32332DA     SC110192  50.807  74.380  57.117
32332DA     SC210193  50.560  74.359  57.089
32332DA     SC310194  50.616  74.186  56.907
32332DA     SC410195  50.862  74.274  57.009
32333DT     BB110196  51.023  74.472  57.546
32333DT     BB210197  50.672  74.515  57.618
32333DT     BB310198  50.591  74.335  57.682
32333DT     SC110199  50.593  74.238  57.439
32333DT     SC210200  50.391  74.219  57.368
32333DT     SC310201  50.653  74.083  57.234
32334DG     BB110202  50.525  74.600  57.986
32334DG     BB210203  50.218  74.439  57.883
32334DG     BB310204  50.208  74.256  57.961
32334DG     SC110205  50.350  74.121  57.726
32334DG     SC210206  50.227  73.927  57.535
32334DG     SC310207  50.519  73.943  57.495
32334DG     SC410208  50.510  74.110  57.728
32335DA     BB110209  49.895  74.352  58.073
32335DA     BB210210  49.744  74.079  57.881
32335DA     BB310211  49.778  73.892  57.978
32335DA     SC110212  50.044  73.834  57.828
32335DA     SC210213  50.128  73.676  57.655
32335DA     SC310214  50.361  73.734  57.743
32335DA     SC410215  50.181  73.882  57.898
32336DT     BB110216  49.620  73.807  58.041
32336DT     BB210217  49.606  73.547  57.791
32336DT     BB310218  49.679  73.369  57.870
32336DT     SC110219  49.927  73.456  57.856
32336DT     SC210220  50.033  73.346  57.705
32336DT     SC310221  50.167  73.533  57.933
32337DA     BB110222  49.304  73.289  57.697
32337DA     BB210223  49.541  73.035  57.578
32337DA     BB310224  49.590  72.900  57.736
32337DA     SC110225  49.835  73.065  57.835
32337DA     SC210226  50.083  73.043  57.838
32337DA     SC310227  50.076  73.217  58.026
32337DA     SC410228  49.809  73.173  57.951
32338DA     BB110229  49.494  72.668  57.518
32338DA     BB210230  49.834  72.533  57.539
32338DA     BB310231  49.860  72.425  57.722
32338DA     SC110232  49.961  72.672  57.881
32338DA     SC210233  50.175  72.751  57.982
32338DA     SC310234  50.027  72.905  58.125
32338DA     SC410235  49.852  72.759  57.961
32339DA     BB110236  49.952  72.162  57.537
32339DA     BB210237  50.279  72.181  57.700
32339DA     BB310238  50.271  72.092  57.894
32339DA     SC110239  50.197  72.357  58.039
32339DA     SC210240  50.304  72.517  58.197
32339DA     SC310241  50.065  72.593  58.251
32339DA     SC410242  50.041  72.389  58.060
32340DA     BB110243  50.521  71.891  57.800
32340DA     BB210244  50.726  72.052  58.058
32340DA     BB310245  50.684  71.967  58.250
32340DA     SC110246  50.459  72.171  58.318
32340DA     SC210247  50.424  72.361  58.476
32340DA     SC310248  50.173  72.322  58.434
32340DA     SC410249  50.308  72.130  58.280
32341DT     BB110250  50.831  71.844  58.372
32341DT     BB210251  50.914  72.109  58.603
32341DT     BB310252  50.841  72.063  58.791
32341DT     SC110253  50.595  72.118  58.719
32341DT     SC210254  50.530  72.297  58.818
32341DT     SC310255  50.339  72.085  58.665
32342DA     BB110256  51.246  72.162  58.824
32342DA     BB210257  51.060  72.364  59.067
32342DA     BB310258  50.998  72.244  59.231
32342DA     SC110259  50.724  72.167  59.104
32342DA     SC210260  50.483  72.215  59.142
32342DA     SC310261  50.440  72.003  59.005
32342DA     SC410262  50.718  72.032  59.018
32343DT     BB110263  51.078  72.295  59.396
32343DT     BB210264  50.787  72.454  59.537
32343DT     BB310265  50.698  72.328  59.676
32343DT     SC110266  50.599  72.176  59.486
32343DT     SC210267  50.386  72.199  59.480
32343DT     SC310268  50.556  71.963  59.337
32344DA     BB110269  50.754  72.713  59.835
32344DA     BB210270  50.408  72.609  59.901
32344DA     BB310271  50.404  72.455  60.049
32344DA     SC110272  50.422  72.223  59.843
32344DA     SC210273  50.274  72.042  59.756
32344DA     SC310274  50.491  71.928  59.681
32344DA     SC410275  50.568  72.167  59.806
32345DT     BB110276  50.319  72.506  60.213
32345DT     BB210277  50.018  72.313  60.170
32345DT     BB310278  50.027  72.140  60.284
32345DT     SC110279  50.196  72.029  60.117
32345DT     SC210280  50.099  71.868  60.013
32345DT     SC310281  50.418  71.923  60.022
32346DT     BB110282  49.843  72.247  60.449
32346DT     BB210283  49.699  71.933  60.343
32346DT     BB310284  49.766  71.780  60.464
32346DT     SC110285  50.003  71.782  60.350
32346DT     SC210286  50.028  71.603  60.234
32346DT     SC310287  50.263  71.808  60.319
32347DC     BB110288  49.521  71.763  60.579
32347DC     BB210289  49.584  71.431  60.454
32347DC     BB310290  49.689  71.321  60.595
32347DC     SC110291  49.911  71.451  60.543
32347DC     SC210292  50.049  71.318  60.445
32347DC     SC310293  50.122  71.605  60.577
32348DT     BB110294  49.466  71.175  60.644
32348DT     BB210295  49.716  70.931  60.552
32348DT     BB310296  49.824  70.874  60.718
32348DT     SC110297  49.956  71.101  60.719
32348DT     SC210298  50.161  71.065  60.664
32348DT     SC310299  50.045  71.336  60.799
32349DA     BB110300  49.689  70.529  60.524
32349DA     BB210301  50.047  70.488  60.593
32349DA     BB310302  50.079  70.455  60.801
32349DA     SC110303  50.113  70.757  60.868
32349DA     SC210304  50.297  70.911  60.938
32349DA     SC310305  50.108  71.065  61.019
32349DA     SC410306  49.982  70.838  60.913
32350DA     BB110307  50.239  70.204  60.665
32350DA     BB210308  50.539  70.335  60.829
32350DA     BB310309  50.529  70.301  61.040
32350DA     SC110310  50.391  70.572  61.102
32350DA     SC210311  50.450  70.788  61.214
32350DA     SC310312  50.196  70.822  61.234
32350DA     SC410313  50.231  70.575  61.107
32351DA     BB110314  50.821  70.174  60.961
32351DA     BB210315  50.963  70.416  61.197
32351DA     BB310316  50.916  70.360  61.398
32351DA     SC110317  50.652  70.525  61.406
32351DA     SC210318  50.566  70.730  61.520
32351DA     SC310319  50.333  70.636  61.467
32351DA     SC410320  50.516  70.449  61.366
32352DC     BB110321  51.066  70.313  61.503
32352DC     BB210322  51.073  70.608  61.710
32352DC     BB310323  50.985  70.568  61.893
32352DC     SC110324  50.745  70.572  61.787
32352DC     SC210325  50.638  70.745  61.857
32352DC     SC310326  50.507  70.489  61.709
32353DC     BB110327  51.229  70.578  62.005
32353DC     BB210328  51.034  70.823  62.185
32353DC     BB310329  50.928  70.731  62.337
32353DC     SC110330  50.757  70.629  62.167
32353DC     SC210331  50.566  70.724  62.192
32353DC     SC310332  50.621  70.450  62.029
32354DA     BB110333  51.137  71.052  62.511
32354DA     BB210334  50.788  71.070  62.622
32354DA     BB310335  50.747  70.916  62.764
32354DA     SC110336  50.655  70.710  62.550
32354DA     SC210337  50.443  70.600  62.479
32354DA     SC310338  50.594  70.424  62.371
32354DA     SC410339  50.766  70.610  62.491
32355DT     BB110340  50.705  70.971  62.950
32355DT     BB210341  50.351  70.903  62.937
32355DT     BB310342  50.309  70.726  63.037
32355DT     SC110343  50.407  70.583  62.840
32355DT     SC210344  50.247  70.479  62.741
32355DT     SC310345  50.564  70.417  62.708
32356DT     BB110346  50.195  70.869  63.235
32356DT     BB210347  49.937  70.643  63.123
32356DT     BB310348  49.956  70.461  63.219
32356DT     SC110349  50.163  70.396  63.071
32356DT     SC210350  50.109  70.237  62.937
32356DT     SC310351  50.410  70.333  63.005
32357DT     BB110352  49.735  70.516  63.363
32357DT     BB210353  49.660  70.205  63.196
32357DT     BB310354  49.733  70.046  63.307
32357DT     SC110355  49.979  70.098  63.234
32357DT     SC210356  50.049  69.943  63.102
32357DT     SC310357  50.234  70.164  63.249
32358DA     BB110358  49.328  69.966  63.227
32358DA     BB210359  49.523  69.669  63.137
32358DA     BB310360  49.590  69.569  63.313
32358DA     SC110361  49.859  69.725  63.329
32358DA     SC210362  50.102  69.678  63.297
32358DA     SC310363  50.140  69.891  63.436
32358DA     SC410364  49.862  69.859  63.418
32359DA     BB110365  49.441  69.315  63.166
32359DA     BB210366  49.770  69.152  63.160
32359DA     BB310367  49.821  69.081  63.354
32359DA     SC110368  49.966  69.343  63.439
32359DA     SC210369  50.199  69.419  63.484
32359DA     SC310370  50.090  69.612  63.613
32359DA     SC410371  49.879  69.455  63.515
32360DA     BB110372  49.860  68.805  63.181
32360DA     BB210373  50.212  68.818  63.282
32360DA     BB310374  50.233  68.762  63.487
32360DA     SC110375  50.204  69.052  63.594
32360DA     SC210376  50.349  69.224  63.702
32360DA     SC310377  50.129  69.331  63.781
32360DA     SC410378  50.057  69.102  63.635
32361DA     BB110379  50.447  68.543  63.367
32361DA     BB210380  50.705  68.710  63.567
32361DA     BB310381  50.691  68.650  63.771
32361DA     SC110382  50.498  68.880  63.851
32361DA     SC210383  50.505  69.088  63.989
32361DA     SC310384  50.249  69.069  63.994
32361DA     SC410385  50.340  68.850  63.844
32362DT     BB110386  50.844  68.544  63.846
32362DT     BB210387  50.987  68.810  64.044
32362DT     BB310388  50.944  68.780  64.244
32362DT     SC110389  50.695  68.854  64.211
32362DT     SC210390  50.663  69.043  64.309
32362DT     SC310391  50.432  68.843  64.203
32363DT     BB110392  51.204  68.722  64.277
32363DT     BB210393  51.141  68.995  64.504
32363DT     BB310394  51.067  68.923  64.683
32363DT     SC110395  50.832  68.875  64.577
32363DT     SC210396  50.688  69.012  64.658
32363DT     SC310397  50.621  68.743  64.491
32364DG     BB110398  51.401  69.144  64.755
32364DG     BB210399  51.124  69.249  64.963
32364DG     BB310400  51.099  69.121  65.113
32364DG     SC110401  50.905  68.941  64.958
32364DG     SC210402  50.615  68.902  65.020
32364DG     SC310403  50.705  68.712  64.812
32364DG     SC410404  50.963  68.822  64.869
32365DT     BB110405  51.123  69.191  65.312
32365DT     BB210406  50.784  69.197  65.434
32365DT     BB310407  50.748  69.031  65.552
32365DT     SC110408  50.735  68.875  65.341
32365DT     SC210409  50.533  68.808  65.314
32365DT     SC310410  50.795  68.683  65.171
32366DG     BB110411  50.671  69.353  65.791
32366DG     BB210412  50.398  69.117  65.801
32366DG     BB310413  50.444  68.965  65.921
32366DG     SC110414  50.571  68.796  65.699
32366DG     SC210415  50.466  68.538  65.592
32366DG     SC310416  50.736  68.594  65.485
32366DG     SC410417  50.727  68.815  65.667
32367DA     BB110418  50.147  69.008  66.107
32367DA     BB210419  50.040  68.666  66.030
32367DA     BB310420  50.142  68.526  66.155
32367DA     SC110421  50.378  68.484  65.957
32367DA     SC210422  50.465  68.303  65.809
32367DA     SC310423  50.687  68.432  65.816
32367DA     SC410424  50.508  68.578  65.975
32368DT     BB110425  50.050  68.397  66.327
32368DT     BB210426  50.058  68.082  66.153
32368DT     BB310427  50.198  67.956  66.240
32368DT     SC110428  50.397  68.091  66.135
32368DT     SC210429  50.492  67.971  65.984
32368DT     SC310430  50.613  68.241  66.116
32369DA     BB110431  49.855  67.711  66.263
32369DA     BB210432  50.121  67.506  66.116
32369DA     BB310433  50.253  67.435  66.268
32369DA     SC110434  50.446  67.679  66.249
32369DA     SC210435  50.678  67.724  66.170
32369DA     SC310436  50.665  67.934  66.317
32369DA     SC410437  50.418  67.803  66.346
32370DT     BB110438  50.278  67.214  66.338
32370DT     BB210439  50.592  67.160  66.169
32370DT     BB310440  50.744  67.136  66.308
32370DT     SC110441  50.746  67.393  66.362
32370DT     SC210442  50.928  67.480  66.288
32370DT     SC310443  50.723  67.618  66.497
32371DC     BB110444  50.773  66.856  66.270
32371DC     BB210445  51.101  66.989  66.197
32371DC     BB310446  51.218  66.987  66.368
32371DC     SC110447  51.089  67.192  66.468
32371DC     SC210448  51.218  67.364  66.470
32371DC     SC310449  50.938  67.335  66.630
32372DT     BB110450  51.369  66.781  66.268
32372DT     BB210451  51.605  67.046  66.327
32372DT     BB310452  51.677  67.035  66.521
32372DT     SC110453  51.452  67.129  66.618
32372DT     SC210454  51.486  67.327  66.696
32372DT     SC310455  51.226  67.141  66.753
32373DC     BB110456  51.914  66.954  66.421
32373DC     BB210457  51.991  67.252  66.609
32373DC     BB310458  52.025  67.204  66.807
32373DC     SC110459  51.769  67.167  66.850
32373DC     SC210460  51.695  67.324  66.978
32373DC     SC310461  51.542  67.046  66.909
32374DG     BB110462  52.348  67.400  66.657
32374DG     BB210463  52.227  67.555  66.961
32374DG     BB310464  52.285  67.449  67.119
32374DG     SC110465  52.037  67.269  67.120
32374DG     SC210466  51.826  67.263  67.331
32374DG     SC310467  51.789  67.041  67.139
32374DG     SC410468  52.038  67.135  67.033
32375DA     BB110469  52.392  67.755  67.228
32375DA     BB210470  52.179  67.723  67.525
32375DA     BB310471  52.263  67.582  67.661
32375DA     SC110472  52.112  67.338  67.540
32375DA     SC210473  51.929  67.183  67.607
32375DA     SC310474  52.023  67.026  67.427
32375DA     SC410475  52.187  67.254  67.425
32376DA     BB110476  52.212  67.844  67.847
32376DA     BB210477  51.996  67.629  68.052
32376DA     BB310478  52.114  67.491  68.164
32376DA     SC110479  52.106  67.270  67.945
32376DA     SC210480  52.003  67.045  67.913
32376DA     SC310481  52.183  67.011  67.733
32376DA     SC410482  52.226  67.267  67.838
32377DT     BB110483  52.101  67.520  68.347
32377DT     BB210484  51.902  67.230  68.428
32377DT     BB310485  52.023  67.079  68.503
32377DT     SC110486  52.117  67.026  68.263
32377DT     SC210487  52.044  66.834  68.199
32377DT     SC310488  52.287  66.999  68.064
32378DT     BB110489  51.913  67.127  68.741
32378DT     BB210490  51.859  66.775  68.685
32378DT     BB310491  52.026  66.668  68.744
32378DT     SC110492  52.160  66.744  68.532
32378DT     SC210493  52.189  66.576  68.401
32378DT     SC310494  52.345  66.859  68.383
32379DA     BB110495  51.695  66.490  68.931
32379DA     BB210496  51.899  66.222  68.789
32379DA     BB310497  52.078  66.196  68.903
32379DA     SC110498  52.244  66.396  68.732
32379DA     SC210499  52.433  66.388  68.570
32379DA     SC310500  52.465  66.637  68.625
32379DA     SC410501  52.248  66.550  68.781
32380DA     BB110502  51.986  65.877  68.929
32380DA     BB210503  52.302  65.785  68.767
32380DA     BB310504  52.463  65.800  68.906
32380DA     SC110505  52.528  66.096  68.837
32380DA     SC210506  52.709  66.224  68.723
32380DA     SC310507  52.617  66.428  68.850
32380DA     SC410508  52.457  66.210  68.925
32381DT     BB110509  52.584  65.626  68.994
32381DT     BB210510  52.888  65.683  68.808
32381DT     BB310511  53.037  65.751  68.935
32381DT     SC110512  52.927  65.989  68.950
32381DT     SC210513  53.052  66.131  68.848
32381DT     SC310514  52.810  66.202  69.052
32382DA     BB110515  53.224  65.417  68.760
32382DA     BB210516  53.460  65.696  68.734
32382DA     BB310517  53.557  65.729  68.921
32382DA     SC110518  53.345  65.933  69.022
32382DA     SC210519  53.332  66.178  69.069
32382DA     SC310520  53.129  66.119  69.214
32382DA     SC410521  53.222  65.876  69.109
32383DT     BB110522  53.769  65.694  68.952
32383DT     BB210523  53.868  66.041  68.953
32383DT     BB310524  53.923  66.098  69.145
32383DT     SC110525  53.672  66.104  69.223
32383DT     SC210526  53.613  66.308  69.259
32383DT     SC310527  53.452  66.044  69.356
32384DA     BB110528  54.235  66.208  68.889
32384DA     BB210529  54.152  66.500  69.095
32384DA     BB310530  54.225  66.473  69.294
32384DA     SC110531  53.964  66.340  69.398
32384DA     SC210532  53.777  66.398  69.553
32384DA     SC310533  53.734  66.145  69.562
32384DA     SC410534  53.954  66.180  69.392
32385DA     BB110535  54.351  66.764  69.215
32385DA     BB210536  54.163  66.899  69.499
32385DA     BB310537  54.253  66.839  69.683
32385DA     SC110538  54.085  66.579  69.710
32385DA     SC210539  53.902  66.492  69.856
32385DA     SC310540  53.976  66.260  69.775
32385DA     SC410541  54.147  66.444  69.649
32386DA     BB110542  54.240  67.164  69.732
32386DA     BB210543  54.036  67.093  70.029
32386DA     BB310544  54.158  67.015  70.185
32386DA     SC110545  54.118  66.718  70.102
32386DA     SC210546  54.002  66.516  70.190
32386DA     SC310547  54.161  66.384  70.037
32386DA     SC410548  54.226  66.654  70.002
32387DA     BB110549  54.031  67.262  70.368
32387DA     BB210550  53.899  67.007  70.596
32387DA     BB310551  54.056  66.931  70.720
32387DA     SC110552  54.131  66.701  70.526
32387DA     SC210553  54.115  66.452  70.519
32387DA     SC310554  54.299  66.465  70.340
32387DA     SC410555  54.247  66.730  70.418
32388DG     BB110556  53.919  67.036  70.995
32388DG     BB210557  53.897  66.684  71.077
32388DG     BB310558  54.062  66.626  71.170
32388DG     SC110559  54.209  66.550  70.913
32388DG     SC210560  54.288  66.273  70.831
32388DG     SC310561  54.407  66.475  70.650
32388DG     SC410562  54.295  66.661  70.836
32389DT     BB110563  54.114  66.540  71.425
32389DT     BB210564  54.150  66.187  71.361
32389DT     BB310565  54.345  66.128  71.395
32389DT     SC110566  54.426  66.240  71.172
32389DT     SC210567  54.483  66.087  71.031
32389DT     SC310568  54.554  66.402  71.008
32390DT     BB110569  54.322  65.987  71.657
32390DT     BB210570  54.459  65.736  71.438
32390DT     BB310571  54.665  65.730  71.457
32390DT     SC110572  54.693  65.953  71.322
32390DT     SC210573  54.784  65.910  71.132
32390DT     SC310574  54.754  66.203  71.266
32391DT     BB110575  54.664  65.486  71.594
32391DT     BB210576  54.858  65.422  71.297
32391DT     BB310577  55.059  65.459  71.334
32391DT     SC110578  55.020  65.718  71.329
32391DT     SC210579  55.114  65.801  71.153
32391DT     SC310580  55.008  65.969  71.409
32392DC     BB110581  55.092  65.195  71.315
32392DC     BB210582  55.302  65.335  71.058
32392DC     BB310583  55.485  65.389  71.137
32392DC     SC110584  55.381  65.600  71.254
32392DC     SC210585  55.454  65.778  71.158
32392DC     SC310586  55.304  65.765  71.444
32393DA     BB110587  55.524  65.161  70.786
32393DA     BB210588  55.739  65.458  70.758
32393DA     BB310589  55.903  65.443  70.893
32393DA     SC110590  55.757  65.585  71.127
32393DA     SC210591  55.771  65.803  71.249
32393DA     SC310592  55.642  65.683  71.435
32393DA     SC410593  55.677  65.493  71.232
32394DA     BB110594  56.052  65.505  70.607
32394DA     BB210595  56.188  65.804  70.769
32394DA     BB310596  56.338  65.750  70.912
32394DA     SC110597  56.138  65.727  71.149
32394DA     SC210598  56.087  65.850  71.360
32394DA     SC310599  55.973  65.633  71.435
32394DA     SC410600  56.074  65.582  71.178
32395DA     BB110601  56.523  65.963  70.740
32395DA     BB210602  56.557  66.156  71.049
32395DA     BB310603  56.696  66.062  71.181
32395DA     SC110604  56.480  65.891  71.325
32395DA     SC210605  56.373  65.881  71.550
32395DA     SC310606  56.309  65.640  71.487
32395DA     SC410607  56.452  65.743  71.268
32396DA     BB110608  56.858  66.351  71.182
32396DA     BB210609  56.792  66.369  71.543
32396DA     BB310610  56.930  66.245  71.649
32396DA     SC110611  56.748  65.993  71.640
32396DA     SC210612  56.614  65.856  71.800
32396DA     SC310613  56.628  65.672  71.622
32396DA     SC410614  56.769  65.891  71.518
32397DT     BB110615  57.082  66.326  71.784
32397DT     BB210616  56.911  66.238  72.089
32397DT     BB310617  57.012  66.084  72.185
32397DT     SC110618  56.924  65.908  72.011
32397DT     SC210619  56.784  65.777  72.107
32397DT     SC310620  56.926  65.726  71.820
32398DC     BB110621  57.086  66.262  72.372
32398DC     BB210622  56.897  66.010  72.549
32398DC     BB310623  57.022  65.854  72.603
32398DC     SC110624  57.030  65.764  72.356
32398DC     SC210625  56.923  65.578  72.345
32398DC     SC310626  57.125  65.695  72.120
32399DG     BB110627  56.807  66.019  72.905
32399DG     BB210628  56.758  65.661  72.881
32399DG     BB310629  56.920  65.566  72.946
32399DG     SC110630  57.056  65.559  72.672
32399DG     SC210631  57.111  65.315  72.510
32399DG     SC310632  57.243  65.552  72.391
32399DG     SC410633  57.149  65.682  72.628
32400DT     BB110634  56.843  65.465  73.067
32400DT     BB210635  56.871  65.134  72.927
32400DT     BB310636  57.057  65.054  72.971
32400DT     SC110637  57.175  65.207  72.794
32400DT     SC210638  57.244  65.086  72.630
32400DT     SC310639  57.332  65.391  72.691
32401DT     BB110640  56.885  64.910  73.094
32401DT     BB210641  57.081  64.685  72.890
32401DT     BB310642  57.269  64.662  72.972
32401DT     SC110643  57.343  64.900  72.890
32401DT     SC210644  57.489  64.879  72.733
32401DT     SC310645  57.423  65.151  72.897
32402DA     BB110646  57.097  64.288  72.875
32402DA     BB210647  57.447  64.288  72.766
32402DA     BB310648  57.577  64.292  72.935
32402DA     SC110649  57.593  64.602  72.947
32402DA     SC210650  57.763  64.780  72.904
32402DA     SC310651  57.613  64.929  73.050
32402DA     SC410652  57.488  64.679  73.041
32403DC     BB110653  57.691  64.130  72.976
32403DC     BB210654  58.013  64.270  72.894
32403DC     BB310655  58.114  64.320  73.068
32403DC     SC110656  57.963  64.531  73.104
32403DC     SC210657  58.079  64.709  73.072
32403DC     SC310658  57.789  64.696  73.215
32404DA     BB110659  58.403  64.064  72.893
32404DA     BB210660  58.584  64.362  73.006
32404DA     BB310661  58.613  64.355  73.218
32404DA     SC110662  58.348  64.505  73.283
32404DA     SC210663  58.279  64.727  73.373
32404DA     SC310664  58.056  64.614  73.427
32404DA     SC410665  58.217  64.416  73.310
32405DT     BB110666  58.820  64.322  73.356
32405DT     BB210667  58.850  64.664  73.466
32405DT     BB310668  58.818  64.676  73.670
32405DT     SC110669  58.559  64.643  73.640
32405DT     SC210670  58.458  64.826  73.687
32405DT     SC310671  58.319  64.535  73.656
32406DT     BB110672  59.096  64.706  73.786
32406DT     BB210673  58.921  64.995  73.915
32406DT     BB310674  58.853  64.956  74.106
32406DT     SC110675  58.660  64.803  74.014
32406DT     SC210676  58.471  64.900  74.045
32406DT     SC310677  58.514  64.588  73.969
32407DT     BB110678  59.045  65.111  74.271
32407DT     BB210679  58.724  65.251  74.359
32407DT     BB310680  58.653  65.161  74.532
32407DT     SC110681  58.591  64.942  74.402
32407DT     SC210682  58.377  64.923  74.391
32407DT     SC310683  58.593  64.689  74.328
32408DA     BB110684  58.644  65.573  74.600
32408DA     BB210685  58.308  65.440  74.664
32408DA     BB310686  58.302  65.340  74.852
32408DA     SC110687  58.377  65.062  74.735
32408DA     SC210688  58.266  64.842  74.697
32408DA     SC310689  58.504  64.747  74.684
32408DA     SC410690  58.533  65.022  74.731
32409DA     BB110691  58.063  65.554  74.842
32409DA     BB210692  57.842  65.262  74.865
32409DA     BB310693  57.851  65.177  75.060
32409DA     SC110694  58.082  64.981  74.991
32409DA     SC210695  58.114  64.735  74.962
32409DA     SC310696  58.363  64.783  75.000
32409DA     SC410697  58.233  65.031  75.018
32410DA     BB110698  57.559  65.230  74.924
32410DA     BB210699  57.517  64.868  74.968
32410DA     BB310700  57.524  64.817  75.175
32410DA     SC110701  57.832  64.770  75.178
32410DA     SC210702  57.989  64.578  75.200
32410DA     SC310703  58.163  64.754  75.265
32410DA     SC410704  57.925  64.895  75.217
32411DA     BB110705  57.284  64.684  74.989
32411DA     BB210706  57.414  64.366  75.117
32411DA     BB310707  57.399  64.360  75.330
32411DA     SC110708  57.681  64.482  75.379
32411DA     SC210709  57.902  64.406  75.465
32411DA     SC310710  57.950  64.655  75.502
32411DA     SC410711  57.691  64.641  75.395
32412DA     BB110712  57.285  64.082  75.189
32412DA     BB210713  57.517  63.912  75.417
32412DA     BB310714  57.462  63.949  75.620
32412DA     SC110715  57.640  64.202  75.648
32412DA     SC210716  57.847  64.270  75.768
32412DA     SC310717  57.767  64.511  75.730
32412DA     SC410718  57.572  64.345  75.615
32413DA     BB110719  57.481  63.618  75.623
32413DA     BB210720  57.717  63.654  75.901
32413DA     BB310721  57.616  63.720  76.077
32413DA     SC110722  57.659  64.022  76.018
32413DA     SC210723  57.791  64.212  76.111
32413DA     SC310724  57.623  64.362  75.990
32413DA     SC410725  57.543  64.099  75.936
32414DG     BB110726  57.692  63.452  76.239
32414DG     BB210727  57.863  63.676  76.465
32414DG     BB310728  57.736  63.745  76.601
32414DG     SC110729  57.651  63.988  76.436
32414DG     SC210730  57.706  64.274  76.502
32414DG     SC310731  57.519  64.253  76.274
32414DG     SC410732  57.528  63.973  76.334
32415DG     BB110733  57.873  63.624  76.904
32415DG     BB210734  57.917  63.968  77.008
32415DG     BB310735  57.758  64.029  77.110
32415DG     SC110736  57.607  64.130  76.864
32415DG     SC210737  57.541  64.415  76.804
32415DG     SC310738  57.405  64.233  76.614
32415DG     SC410739  57.513  64.029  76.784
32416DA     BB110740  57.918  64.135  77.422
32416DA     BB210741  57.810  64.482  77.372
32416DA     BB310742  57.616  64.512  77.454
32416DA     SC110743  57.467  64.440  77.191
32416DA     SC210744  57.332  64.558  77.017
32416DA     SC310745  57.242  64.325  76.958
32416DA     SC410746  57.422  64.287  77.170
32417DG     BB110747  57.713  64.729  77.675
32417DG     BB210748  57.516  64.960  77.477
32417DG     BB310749  57.332  64.970  77.549
32417DG     SC110750  57.224  64.742  77.377
32417DG     SC210751  57.023  64.767  77.158
32417DG     SC310752  57.078  64.483  77.218
32417DG     SC410753  57.234  64.592  77.432
32418DC     BB110754  57.231  65.168  77.641
32418DC     BB210755  57.023  65.264  77.362
32418DC     BB310756  56.824  65.235  77.409
32418DC     SC110757  56.847  64.975  77.382
32418DC     SC210758  56.739  64.911  77.207
32418DC     SC310759  56.850  64.718  77.443
32419DA     BB110760  56.893  65.615  77.254
32419DA     BB210761  56.615  65.464  77.069
32419DA     BB310762  56.440  65.455  77.191
32419DA     SC110763  56.503  65.173  77.304
32419DA     SC210764  56.412  64.941  77.285
32419DA     SC310765  56.535  64.896  77.505
32419DA     SC410766  56.586  65.165  77.442
32420DA     BB110767  56.371  65.586  76.901
32420DA     BB210768  56.130  65.311  76.868
32420DA     BB310769  55.972  65.334  77.009
32420DA     SC110770  56.113  65.167  77.231
32420DA     SC210771  56.084  64.946  77.343
32420DA     SC310772  56.229  65.045  77.530
32420DA     SC410773  56.204  65.247  77.337
32421DC     BB110774  55.833  65.353  76.913
32421DC     BB210775  55.677  65.036  76.985
32421DC     BB310776  55.547  65.056  77.145
32421DC     SC110777  55.747  65.067  77.315
32421DC     SC210778  55.749  64.888  77.434
32421DC     SC310779  55.911  65.161  77.498
32422DA     BB110780  55.357  64.858  76.825
32422DA     BB210781  55.281  64.678  77.135
32422DA     BB310782  55.152  64.794  77.258
32422DA     SC110783  55.384  64.934  77.411
32422DA     SC210784  55.482  64.932  77.640
32422DA     SC310785  55.583  65.159  77.577
32422DA     SC410786  55.437  65.075  77.353
32423DG     BB110787  54.942  64.560  77.235
32423DG     BB210788  54.983  64.540  77.594
32423DG     BB310789  54.867  64.676  77.682
32423DG     SC110790  55.080  64.896  77.678
32423DG     SC210791  55.215  65.015  77.916
32423DG     SC310792  55.281  65.166  77.671
32423DG     SC410793  55.089  64.992  77.550
32424DA     BB110794  54.706  64.438  77.893
32424DA     BB210795  54.823  64.613  78.193
32424DA     BB310796  54.698  64.780  78.235
32424DA     SC110797  54.867  64.980  78.068
32424DA     SC210798  55.018  65.175  78.109
32424DA     SC310799  54.973  65.236  77.864
32424DA     SC410800  54.826  65.002  77.914
32425DA     BB110801  54.639  64.659  78.543
32425DA     BB210802  54.799  64.959  78.680
32425DA     BB310803  54.661  65.121  78.685
32425DA     SC110804  54.734  65.225  78.402
32425DA     SC210805  54.850  65.423  78.302
32425DA     SC310806  54.727  65.360  78.086
32425DA     SC410807  54.648  65.171  78.278
32426DT     BB110808  54.583  65.211  78.872
32426DT     BB210809  54.784  65.510  78.857
32426DT     BB310810  54.664  65.674  78.817
32426DT     SC110811  54.639  65.603  78.565
32426DT     SC210812  54.745  65.743  78.441
32426DT     SC310813  54.527  65.526  78.339
32427DT     BB110814  54.697  65.762  79.072
32427DT     BB210815  54.820  66.031  78.866
32427DT     BB310816  54.663  66.157  78.815
32427DT     SC110817  54.570  65.984  78.641
32427DT     SC210818  54.600  66.060  78.442
32427DT     SC310819  54.407  65.812  78.525
32428DT     BB110820  54.776  66.335  78.978
32428DT     BB210821  54.760  66.499  78.657
32428DT     BB310822  54.574  66.586  78.631
32428DT     SC110823  54.463  66.352  78.586
32428DT     SC210824  54.404  66.339  78.380
32428DT     SC310825  54.308  66.141  78.618
32429DT     BB110826  54.700  66.818  78.658
32429DT     BB210827  54.533  66.840  78.339
32429DT     BB310828  54.336  66.898  78.366
32429DT     SC110829  54.270  66.660  78.455
32429DT     SC210830  54.144  66.563  78.310
32429DT     SC310831  54.186  66.471  78.618
32430DA     BB110832  54.509  67.147  78.075
32430DA     BB210833  54.184  67.035  77.949
32430DA     BB310834  54.026  67.130  78.056
32430DA     SC110835  54.006  66.907  78.273
32430DA     SC210836  53.845  66.729  78.339
32430DA     SC310837  53.965  66.733  78.565
32430DA     SC410838  54.092  66.926  78.407
32431DC     BB110839  53.899  67.270  77.963
32431DC     BB210840  53.604  67.062  77.947
32431DC     BB310841  53.465  67.126  78.086
32431DC     SC110842  53.603  67.022  78.284
32431DC     SC210843  53.497  66.853  78.364
32431DC     SC310844  53.746  67.006  78.505
32432DT     BB110845  53.301  67.236  77.893
32432DT     BB210846  53.084  67.010  78.071
32432DT     BB310847  52.996  67.107  78.230
32432DT     SC110848  53.219  67.100  78.368
32432DT     SC210849  53.197  66.964  78.534
32432DT     SC310850  53.433  67.182  78.498
32433DT     BB110851  52.750  67.118  78.105
32433DT     BB210852  52.679  66.954  78.418
32433DT     BB310853  52.635  67.095  78.563
32433DT     SC110854  52.887  67.164  78.585
32433DT     SC210855  52.963  67.099  78.775
32433DT     SC310856  53.106  67.311  78.576
32434DT     BB110857  52.364  67.035  78.562
32434DT     BB210858  52.458  66.997  78.908
32434DT     BB310859  52.438  67.177  79.008
32434DT     SC110860  52.654  67.273  78.895
32434DT     SC210861  52.809  67.293  79.043
32434DT     SC310862  52.810  67.426  78.747
32435DA     BB110863  52.207  66.917  79.245
32435DA     BB210864  52.423  67.106  79.473
32435DA     BB310865  52.348  67.303  79.500
32435DA     SC110866  52.511  67.424  79.265
32435DA     SC210867  52.704  67.580  79.234
32435DA     SC310868  52.617  67.608  78.994
32435DA     SC410869  52.441  67.429  79.120
32436DT     BB110870  52.250  67.398  79.695
32436DT     BB210871  52.530  67.607  79.785
32436DT     BB310872  52.480  67.806  79.760
32436DT     SC110873  52.498  67.787  79.499
32436DT     SC210874  52.669  67.898  79.431
32436DT     SC310875  52.427  67.788  79.245
32437DG     BB110876  52.543  67.828  80.173
32437DG     BB210877  52.737  68.083  80.005
32437DG     BB310878  52.626  68.247  79.980
32437DG     SC110879  52.518  68.160  79.707
32437DG     SC210880  52.578  68.291  79.445
32437DG     SC310881  52.365  68.088  79.415
32437DG     SC410882  52.385  68.072  79.700
32438DC     BB110883  52.634  68.515  80.082
32438DC     BB210884  52.781  68.672  79.793
32438DC     BB310885  52.648  68.808  79.711
32438DC     SC110886  52.501  68.616  79.609
32438DC     SC210887  52.520  68.617  79.395
32438DC     SC310888  52.294  68.459  79.565
32439DA     BB110889  52.982  69.054  79.778
32439DA     BB210890  52.897  69.079  79.422
32439DA     BB310891  52.738  69.219  79.394
32439DA     SC110892  52.513  69.005  79.420
32439DA     SC210893  52.346  68.895  79.272
32439DA     SC310894  52.222  68.837  79.489
32439DA     SC410895  52.451  68.980  79.566
32440DT     BB110896  52.785  69.377  79.288
32440DT     BB210897  52.642  69.244  78.985
32440DT     BB310898  52.468  69.347  78.938
32440DT     SC110899  52.335  69.225  79.129
32440DT     SC210900  52.192  69.090  79.041
32440DT     SC310901  52.197  69.188  79.350
32441DT     BB110902  52.637  69.393  78.751
32441DT     BB210903  52.363  69.213  78.601
32441DT     BB310904  52.201  69.340  78.574
32441DT     SC110905  52.145  69.336  78.830
32441DT     SC210906  51.961  69.228  78.861
32441DT     SC310907  52.109  69.420  79.078
32442DT     BB110908  52.289  69.253  78.351
32442DT     BB210909  51.945  69.148  78.376
32442DT     BB310910  51.819  69.310  78.354
32442DT     SC110911  51.876  69.397  78.595
32442DT     SC210912  51.703  69.375  78.722
32442DT     SC310913  51.966  69.553  78.788
32443DT     BB110914  51.775  69.162  78.150
32443DT     BB210915  51.457  69.208  78.314
32443DT     BB310916  51.384  69.398  78.276
32443DT     SC110917  51.556  69.505  78.443
32443DT     SC210918  51.451  69.579  78.616
32443DT     SC310919  51.756  69.651  78.533
32444DA     BB110920  51.092  69.103  78.210
32444DA     BB210921  50.940  69.377  78.400
32444DA     BB310922  50.922  69.551  78.278
32444DA     SC110923  51.200  69.665  78.358
32444DA     SC210924  51.289  69.857  78.490
32444DA     SC310925  51.507  69.820  78.359
32444DA     SC410926  51.326  69.627  78.265
32445DA     BB110927  50.614  69.522  78.386
32445DA     BB210928  50.650  69.861  78.522
32445DA     BB310929  50.648  70.005  78.365
32445DA     SC110930  50.957  70.001  78.324
32445DA     SC210931  51.150  70.154  78.363
32445DA     SC310932  51.273  70.007  78.192
32445DA     SC410933  51.016  69.899  78.214
32446DT     BB110934  50.493  70.132  78.355
32446DT     BB210935  50.667  70.430  78.459
32446DT     BB310936  50.705  70.551  78.296
32446DT     SC110937  50.897  70.393  78.213
32446DT     SC210938  51.086  70.492  78.236
32446DT     SC310939  51.032  70.226  78.060
32447DT     BB110940  50.513  70.728  78.377
32447DT     BB210941  50.808  70.932  78.340
32447DT     BB310942  50.824  70.999  78.145
32447DT     SC110943  50.900  70.763  78.061
32447DT     SC210944  51.107  70.771  78.002
32447DT     SC310945  50.899  70.533  77.931
32448DT     BB110946  50.751  71.256  78.215
32448DT     BB210947  51.064  71.301  78.042
32448DT     BB310948  51.029  71.324  77.839
32448DT     SC110949  50.979  71.068  77.810
32448DT     SC210950  51.138  70.977  77.698
32448DT     SC310951  50.848  70.846  77.759
32449DA     BB110952  51.259  71.664  77.933
32449DA     BB210953  51.403  71.520  77.628
32449DA     BB310954  51.280  71.566  77.459
32449DA     SC110955  51.107  71.308  77.485
32449DA     SC210956  51.074  71.095  77.360
32449DA     SC310957  50.850  71.080  77.486
32449DA     SC410958  50.972  71.318  77.572
32450DC     BB110959  51.329  71.711  77.282
32450DC     BB210960  51.381  71.458  77.029
32450DC     BB310961  51.228  71.464  76.890
32450DC     SC110962  51.061  71.350  77.058
32450DC     SC210963  51.016  71.151  76.990
32450DC     SC310964  50.853  71.317  77.216
32451DT     BB110965  51.358  71.603  76.660
32451DT     BB210966  51.233  71.300  76.510
32451DT     BB310967  51.048  71.335  76.423
32451DT     SC110968  50.930  71.341  76.657
32451DT     SC210969  50.805  71.168  76.678
32451DT     SC310970  50.796  71.432  76.865
32452DT     BB110971  51.126  71.341  76.141
32452DT     BB210972  50.873  71.084  76.152
32452DT     BB310973  50.688  71.164  76.104
32452DT     SC110974  50.669  71.280  76.339
32452DT     SC210975  50.515  71.183  76.454
32452DT     SC310976  50.651  71.469  76.521
32453DA     BB110977  50.735  70.841  75.843
32453DA     BB210978  50.408  70.805  76.004
32453DA     BB310979  50.267  70.941  75.918
32453DA     SC110980  50.328  71.170  76.120
32453DA     SC210981  50.213  71.284  76.309
32453DA     SC310982  50.381  71.474  76.269
32453DA     SC410983  50.440  71.277  76.078
32454DG     BB110984  50.121  70.677  75.854
32454DG     BB210985  49.875  70.812  76.082
32454DG     BB310986  49.758  70.942  75.987
32454DG     SC110987  49.937  71.184  76.047
32454DG     SC210988  49.865  71.415  76.223
32454DG     SC310989  50.118  71.466  76.078
32454DG     SC410990  50.055  71.220  75.946
32455DC     BB110991  49.550  70.900  75.974
32455DC     BB210992  49.410  71.136  76.208
32455DC     BB310993  49.329  71.297  76.106
32455DC     SC110994  49.568  71.394  76.055
32455DC     SC210995  49.597  71.575  76.168
32455DC     SC310996  49.779  71.475  75.919
32456DA     BB110997  49.033  71.157  76.368
32456DA     BB210998  49.049  71.521  76.403
32456DA     BB310999  48.964  71.616  76.233
32456DA     SC111000  49.233  71.631  76.076
32456DA     SC211001  49.394  71.807  76.003
32456DA     SC311002  49.475  71.632  75.833
32456DA     SC411003  49.268  71.510  75.977
32457DG     BB111004  48.742  71.751  76.417
32457DG     BB211005  48.895  72.061  76.310
32457DG     BB311006  48.816  72.119  76.137
32457DG     SC111007  49.019  71.967  75.965
32457DG     SC211008  49.225  72.090  75.787
32457DG     SC311009  49.211  71.798  75.746
32457DG     SC411010  48.988  71.816  75.925
32458DT     BB111011  48.663  72.329  76.070
32458DT     BB211012  48.908  72.532  75.900
32458DT     BB311013  48.863  72.543  75.698
32458DT     SC111014  48.947  72.297  75.658
32458DT     SC211015  49.128  72.302  75.542
32458DT     SC311016  48.943  72.041  75.596
32459DA     BB111017  48.863  72.959  75.781
32459DA     BB211018  49.086  72.908  75.494
32459DA     BB311019  48.973  72.893  75.314
32459DA     SC111020  48.942  72.584  75.329
32459DA     SC211021  49.027  72.384  75.207
32459DA     SC311022  48.827  72.261  75.311
32459DA     SC411023  48.812  72.526  75.403
32460DT     BB111024  48.975  73.046  75.139
32460DT     BB211025  49.193  72.846  74.932
32460DT     BB311026  49.091  72.782  74.764
32460DT     SC111027  48.957  72.605  74.903
32460DT     SC211028  49.022  72.407  74.848
32460DT     SC311029  48.753  72.479  75.014
32461DA     BB111030  49.459  72.956  74.673
32461DA     BB211031  49.445  72.624  74.517
32461DA     BB311032  49.310  72.625  74.352
32461DA     SC111033  49.063  72.544  74.521
32461DA     SC211034  48.914  72.345  74.547
32461DA     SC311035  48.746  72.509  74.651
32461DA     SC411036  48.972  72.662  74.582
32462DA     BB111037  49.599  72.494  74.280
32462DA     BB211038  49.405  72.193  74.202
32462DA     BB311039  49.280  72.227  74.033
32462DA     SC111040  49.038  72.325  74.202
32462DA     SC211041  48.810  72.243  74.263
32462DA     SC311042  48.759  72.489  74.318
32462DA     SC411043  49.025  72.483  74.230
32463DA     BB111044  49.451  71.948  74.006
32463DA     BB211045  49.122  71.789  73.972
32463DA     BB311046  49.026  71.856  73.795
32463DA     SC111047  48.882  72.095  73.933
32463DA     SC211048  48.650  72.159  73.997
32463DA     SC311049  48.741  72.399  74.007
32463DA     SC411050  48.957  72.237  73.933
32464DC     BB111051  49.006  71.717  73.690
32464DC     BB211052  48.648  71.683  73.719
32464DC     BB311053  48.555  71.783  73.563
32464DC     SC111054  48.605  72.016  73.673
32464DC     SC211055  48.420  72.103  73.742
32464DC     SC311056  48.703  72.259  73.708
32465DG     BB111057  48.432  71.394  73.550
32465DG     BB211058  48.152  71.622  73.538
32465DG     BB311059  48.137  71.702  73.357
32465DG     SC111060  48.319  71.940  73.420
32465DG     SC211061  48.235  72.226  73.434
32465DG     SC311062  48.529  72.202  73.449
32465DG     SC411063  48.477  71.925  73.398
32466DG     BB111064  47.829  71.583  73.312
32466DG     BB211065  47.721  71.927  73.288
32466DG     BB311066  47.746  71.993  73.102
32466DG     SC111067  48.031  72.093  73.149
32466DG     SC211068  48.120  72.378  73.146
32466DG     SC311069  48.353  72.196  73.161
32466DG     SC411070  48.154  71.992  73.127
32467DC     BB111071  47.573  72.061  72.952
32467DC     BB211072  47.613  72.420  72.962
32467DC     BB311073  47.697  72.487  72.785
32467DC     SC111074  47.933  72.396  72.853
32467DC     SC211075  48.065  72.562  72.892
32467DC     SC311076  48.155  72.253  72.849
32468DG     BB111077  47.339  72.683  72.810
32468DG     BB211078  47.613  72.915  72.764
32468DG     BB311079  47.665  72.921  72.572
32468DG     SC111080  47.870  72.695  72.595
32468DG     SC211081  48.166  72.723  72.563
32468DG     SC311082  48.088  72.438  72.579
32468DG     SC411083  47.822  72.544  72.574
32469DT     BB111084  47.648  73.109  72.461
32469DT     BB211085  47.994  73.210  72.444
32469DT     BB311086  48.070  73.173  72.255
32469DT     SC111087  48.083  72.915  72.302
32469DT     SC211088  48.289  72.856  72.316
32469DT     SC311089  48.035  72.657  72.282
32470DA     BB111090  48.154  73.562  72.388
32470DA     BB211091  48.464  73.410  72.265
32470DA     BB311092  48.457  73.388  72.053
32470DA     SC111093  48.335  73.102  72.063
32470DA     SC211094  48.406  72.869  72.012
32470DA     SC311095  48.156  72.816  71.999
32470DA     SC411096  48.174  73.089  72.058
32471DA     BB111097  48.738  73.543  72.108
32471DA     BB211098  48.900  73.258  71.943
32471DA     BB311099  48.860  73.261  71.733
32471DA     SC111100  48.603  73.087  71.756
32471DA     SC211101  48.530  72.857  71.693
32471DA     SC311102  48.291  72.949  71.713
32471DA     SC411103  48.462  73.163  71.772
32472DT     BB111104  49.014  73.288  71.633
32472DT     BB211105  49.042  72.953  71.500
32472DT     BB311106  48.966  72.947  71.308
32472DT     SC111107  48.720  72.958  71.396
32472DT     SC211108  48.623  72.768  71.362
32472DT     SC311109  48.475  73.046  71.439
32473DT     BB111110  49.219  72.922  71.216
32473DT     BB211111  49.044  72.638  71.078
32473DT     BB311112  48.951  72.691  70.901
32473DT     SC111113  48.764  72.822  71.030
32473DT     SC211114  48.577  72.717  71.011
32473DT     SC311115  48.614  73.022  71.114
32474DT     BB111116  49.135  72.548  70.761
32474DT     BB211117  48.817  72.412  70.656
32474DT     BB311118  48.741  72.524  70.499
32474DT     SC111119  48.675  72.720  70.660
32474DT     SC211120  48.461  72.731  70.675
32474DT     SC311121  48.669  72.960  70.771
32475DT     BB111122  48.797  72.324  70.320
32475DT     BB211123  48.444  72.386  70.276
32475DT     BB311124  48.416  72.536  70.137
32475DT     SC111125  48.490  72.720  70.308
32475DT     SC211126  48.320  72.839  70.363
32475DT     SC311127  48.630  72.914  70.419
32476DG     BB111128  48.217  72.214  69.983
32476DG     BB211129  48.003  72.505  69.991
32476DG     BB311130  48.044  72.623  69.837
32476DG     SC111131  48.258  72.785  69.985
32476DG     SC211132  48.239  73.073  70.060
32476DG     SC311133  48.511  72.969  70.110
32476DG     SC411134  48.409  72.734  69.982
32477DG     BB111135  47.732  72.601  69.729
32477DG     BB211136  47.709  72.958  69.780
32477DG     BB311137  47.781  73.054  69.621
32477DG     SC111138  48.068  73.064  69.726
32477DG     SC211139  48.217  73.310  69.806
32477DG     SC311140  48.397  73.075  69.801
32477DG     SC411141  48.167  72.942  69.694
32478DA     BB111142  47.484  73.239  69.600
32478DA     BB211143  47.671  73.552  69.640
32478DA     BB311144  47.764  73.606  69.456
32478DA     SC111145  48.029  73.455  69.517
32478DA     SC211146  48.266  73.511  69.570
32478DA     SC311147  48.319  73.272  69.495
32478DA     SC411148  48.042  73.303  69.465
32479DT     BB111149  47.705  73.781  69.338
32479DT     BB211150  47.991  73.986  69.418
32479DT     BB311151  48.114  74.003  69.253
32479DT     SC111152  48.203  73.758  69.283
32479DT     SC211153  48.409  73.764  69.345
32479DT     SC311154  48.252  73.504  69.233
32480DT     BB111155  48.043  74.270  69.193
32480DT     BB211156  48.402  74.283  69.227
32480DT     BB311157  48.492  74.251  69.043
32480DT     SC111158  48.438  73.994  69.053
32480DT     SC211159  48.621  73.884  69.079
32480DT     SC311160  48.335  73.760  68.990
32481DA     BB111161  48.656  74.610  69.186
32481DA     BB211162  48.933  74.392  69.085
32481DA     BB311163  48.948  74.384  68.872
32481DA     SC111164  48.760  74.137  68.845
32481DA     SC211165  48.779  73.897  68.782
32481DA     SC311166  48.526  73.909  68.738
32481DA     SC411167  48.603  74.166  68.821
32482DA     BB111168  49.254  74.470  68.948
32482DA     BB211169  49.358  74.154  68.795
32482DA     BB311170  49.345  74.166  68.582
32482DA     SC111171  49.052  74.063  68.570
32482DA     SC211172  48.931  73.859  68.492
32482DA     SC311173  48.723  74.008  68.487
32482DA     SC411174  48.934  74.172  68.572
32483DA     BB111175  49.650  74.062  68.635
32483DA     BB211176  49.553  73.763  68.447
32483DA     BB311177  49.531  73.809  68.239
32483DA     SC111178  49.229  73.879  68.261
32483DA     SC211179  49.011  73.783  68.187
32483DA     SC311180  48.918  74.019  68.222
32483DA     SC411181  49.190  74.033  68.288
32484DG     BB111182  49.747  73.590  68.236
32484DG     BB211183  49.489  73.411  68.055
32484DG     BB311184  49.480  73.477  67.868
32484DG     SC111185  49.275  73.696  67.930
32484DG     SC211186  48.993  73.705  67.832
32484DG     SC311187  49.066  73.959  67.965
32484DG     SC411188  49.327  73.841  67.975
32485DT     BB111189  49.517  73.337  67.722
32485DT     BB211190  49.188  73.280  67.586
32485DT     BB311191  49.162  73.392  67.414
32485DT     SC111192  49.134  73.613  67.552
32485DT     SC211193  48.931  73.681  67.539
32485DT     SC311194  49.182  73.855  67.646
32486DT     BB111195  49.174  73.162  67.278
32486DT     BB211196  48.858  73.309  67.185
32486DT     BB311197  48.887  73.447  67.033
32486DT     SC111198  48.989  73.622  67.200
32486DT     SC211199  48.853  73.786  67.224
32486DT     SC311200  49.164  73.783  67.314
32487DT     BB111201  48.771  73.278  66.856
32487DT     BB211202  48.576  73.581  66.833
32487DT     BB311203  48.665  73.711  66.699
32487DT     SC111204  48.854  73.772  66.871
32487DT     SC211205  48.827  73.975  66.937
32487DT     SC311206  49.093  73.795  66.978
32488DA     BB111207  48.265  73.672  66.575
32488DA     BB211208  48.343  74.030  66.594
32488DA     BB311209  48.469  74.087  66.431
32488DA     SC111210  48.734  74.034  66.585
32488DA     SC211211  48.921  74.167  66.681
32488DA     SC311212  49.054  73.948  66.672
32488DA     SC411213  48.800  73.888  66.570
32489DG     BB111214  48.234  74.278  66.356
32489DG     BB211215  48.477  74.533  66.437
32489DG     BB311216  48.596  74.565  66.281
32489DG     SC111217  48.802  74.354  66.362
32489DG     SC211218  49.082  74.406  66.449
32489DG     SC311219  49.036  74.116  66.411
32489DG     SC411220  48.782  74.203  66.313
32490DG     BB111221  48.497  74.875  66.297
32490DG     BB211222  48.842  74.951  66.375
32490DG     BB311223  48.949  74.960  66.208
32490DG     SC111224  49.022  74.662  66.210
32490DG     SC211225  49.295  74.549  66.251
32490DG     SC311226  49.104  74.338  66.171
32490DG     SC411227  48.924  74.558  66.139
32491DA     BB111228  49.051  75.264  66.330
32491DA     BB211229  49.398  75.147  66.331
32491DA     BB311230  49.476  75.145  66.133
32491DA     SC111231  49.389  74.852  66.075
32491DA     SC211232  49.499  74.630  66.042
32491DA     SC311233  49.279  74.561  65.928
32491DA     SC411234  49.246  74.828  66.006
32492DA     BB111235  49.696  75.315  66.300
32492DA     BB211236  49.936  75.055  66.204
32492DA     BB311237  49.985  75.072  65.997
32492DA     SC111238  49.758  74.881  65.903
32492DA     SC211239  49.738  74.652  65.805
32492DA     SC311240  49.504  74.727  65.729
32492DA     SC411241  49.617  74.947  65.864
32493DT     BB111242  50.162  75.114  65.974
32493DT     BB211243  50.269  74.790  65.857
32493DT     BB311244  50.283  74.791  65.650
32493DT     SC111245  50.022  74.783  65.625
32493DT     SC211246  49.964  74.591  65.547
32493DT     SC311247  49.777  74.855  65.561
32494DT     BB111248  50.543  74.777  65.694
32494DT     BB211249  50.466  74.491  65.488
32494DT     BB311250  50.458  74.547  65.289
32494DT     SC111251  50.225  74.663  65.323
32494DT     SC211252  50.073  74.550  65.221
32494DT     SC311253  50.042  74.852  65.334
32495DT     BB111254  50.681  74.408  65.267
32495DT     BB211255  50.456  74.264  65.024
32495DT     BB311256  50.457  74.377  64.851
32495DT     SC111257  50.314  74.566  64.963
32495DT     SC211258  50.118  74.568  64.876
32495DT     SC311259  50.247  74.802  65.060
32496DA     BB111260  50.518  73.974  64.748
32496DA     BB211261  50.264  74.112  64.522
32496DA     BB311262  50.354  74.248  64.384
32496DA     SC111263  50.312  74.498  64.564
32496DA     SC211264  50.172  74.704  64.564
32496DA     SC311265  50.345  74.798  64.728
32496DA     SC411266  50.431  74.538  64.664
32497DC     BB111267  50.358  74.198  64.189
32497DC     BB211268  50.112  74.434  64.072
32497DC     BB311269  50.206  74.592  63.977
32497DC     SC111270  50.284  74.693  64.207
32497DC     SC211271  50.177  74.876  64.245
32497DC     SC311272  50.444  74.776  64.400
32498DT     BB111273  50.135  74.510  63.720
32498DT     BB211274  50.016  74.850  63.735
32498DT     BB311275  50.164  74.980  63.673
32498DT     SC111276  50.296  74.950  63.898
32498DT     SC211277  50.286  75.133  64.011
32498DT     SC311278  50.488  74.886  64.066
32499DT     BB111279  50.062  75.041  63.410
32499DT     BB211280  50.106  75.367  63.558
32499DT     BB311281  50.293  75.442  63.510
32499DT     SC111282  50.409  75.280  63.681
32499DT     SC211283  50.487  75.394  63.846
32499DT     SC311284  50.563  75.087  63.774
32500DA     BB111285  50.056  75.760  63.360
32500DA     BB211286  50.314  75.912  63.571
32500DA     BB311287  50.499  75.924  63.465
32500DA     SC111288  50.600  75.647  63.563
32500DA     SC211289  50.776  75.557  63.715
32500DA     SC311290  50.748  75.337  63.586
32500DA     SC411291  50.569  75.519  63.470
32501DT     BB111292  50.614  76.121  63.387
32501DT     BB211293  50.865  76.119  63.646
32501DT     BB311294  51.051  76.081  63.564
32501DT     SC111295  50.993  75.827  63.532
32501DT     SC211296  51.111  75.709  63.669
32501DT     SC311297  50.946  75.596  63.413
32502DA     BB111298  51.101  76.434  63.782
32502DA     BB211299  51.363  76.202  63.889
32502DA     BB311300  51.518  76.191  63.742
32502DA     SC111301  51.388  75.955  63.587
32502DA     SC211302  51.434  75.713  63.546
32502DA     SC311303  51.279  75.739  63.343
32502DA     SC411304  51.290  75.992  63.464
32503DA     BB111305  51.689  76.261  64.009
32503DA     BB211306  51.856  75.938  63.959
32503DA     BB311307  51.996  75.951  63.799
32503DA     SC111308  51.791  75.865  63.581
32503DA     SC211309  51.750  75.668  63.434
32503DA     SC311310  51.611  75.829  63.291
32503DA     SC411311  51.710  75.981  63.505
32504DG     BB111312  52.178  75.869  64.031
32504DG     BB211313  52.218  75.571  63.830
32504DG     BB311314  52.346  75.606  63.682
32504DG     SC111315  52.132  75.702  63.485
32504DG     SC211316  52.049  75.563  63.234
32504DG     SC311317  51.926  75.831  63.251
32504DG     SC411318  52.092  75.857  63.484
32505DC     BB111319  52.521  75.490  63.678
32505DC     BB211320  52.457  75.266  63.402
32505DC     BB311321  52.556  75.332  63.233
32505DC     SC111322  52.382  75.526  63.198
32505DC     SC211323  52.264  75.484  63.023
32505DC     SC311324  52.283  75.769  63.176
32506DA     BB111325  52.654  74.928  63.289
32506DA     BB211326  52.559  74.974  62.938
32506DA     BB311327  52.713  75.079  62.833
32506DA     SC111328  52.593  75.360  62.889
32506DA     SC211329  52.481  75.542  62.760
32506DA     SC311330  52.548  75.694  62.956
32506DA     SC411331  52.644  75.438  63.020
32507DT     BB111332  52.816  74.981  62.687
32507DT     BB211333  52.665  75.148  62.405
32507DT     BB311334  52.796  75.286  62.326
32507DT     SC111335  52.755  75.452  62.525
32507DT     SC211336  52.647  75.623  62.454
32507DT     SC311337  52.802  75.600  62.738
32508DA     BB111338  52.679  75.046  62.002
32508DA     BB211339  52.641  75.396  61.900
32508DA     BB311340  52.832  75.483  61.860
32508DA     SC111341  52.874  75.585  62.150
32508DA     SC211342  52.881  75.804  62.270
32508DA     SC311343  53.007  75.676  62.453
32508DA     SC411344  52.952  75.489  62.252
32509DG     BB111345  52.722  75.526  61.571
32509DG     BB211346  52.754  75.875  61.659
32509DG     BB311347  52.941  75.937  61.627
32509DG     SC111348  53.038  75.864  61.908
32509DG     SC211349  53.127  76.057  62.118
32509DG     SC311350  53.184  75.779  62.200
32509DG     SC411351  53.094  75.717  61.935
32510DC     BB111352  52.975  76.093  61.484
32510DC     BB211353  53.042  76.373  61.701
32510DC     BB311354  53.246  76.410  61.707
32510DC     SC111355  53.287  76.202  61.861
32510DC     SC211356  53.343  76.268  62.058
32510DC     SC311357  53.375  75.967  61.943
32511DA     BB111358  53.043  76.766  61.622
32511DA     BB211359  53.280  76.833  61.893
32511DA     BB311360  53.480  76.834  61.819
32511DA     SC111361  53.527  76.531  61.868
32511DA     SC211362  53.663  76.387  62.021
32511DA     SC311363  53.627  76.203  61.846
32511DA     SC411364  53.495  76.430  61.747
32512DA     BB111365  53.465  77.120  61.975
32512DA     BB211366  53.740  76.996  62.184
32512DA     BB311367  53.923  76.996  62.074
32512DA     SC111368  53.887  76.705  61.969
32512DA     SC211369  53.993  76.482  62.004
32512DA     SC311370  53.887  76.419  61.778
32512DA     SC411371  53.814  76.686  61.826
32513DC     BB111372  54.059  77.119  62.137
32513DC     BB211373  54.279  76.872  62.282
32513DC     BB311374  54.440  76.839  62.156
32513DC     SC111375  54.293  76.701  61.990
32513DC     SC211376  54.351  76.494  61.998
32513DC     SC311377  54.167  76.630  61.768
32514DA     BB111378  54.585  76.916  62.542
32514DA     BB211379  54.755  76.618  62.415
32514DA     BB311380  54.896  76.672  62.264
32514DA     SC111381  54.694  76.641  62.030
32514DA     SC211382  54.656  76.487  61.837
32514DA     SC311383  54.517  76.678  61.738
32514DA     SC411384  54.612  76.772  61.984
32515DA     BB111385  55.088  76.497  62.464
32515DA     BB211386  55.150  76.275  62.179
32515DA     BB311387  55.279  76.369  62.039
32515DA     SC111388  55.048  76.496  61.874
32515DA     SC211389  54.944  76.467  61.649
32515DA     SC311390  54.852  76.704  61.683
32515DA     SC411391  55.001  76.645  61.913
32516DA     BB111392  55.445  76.089  62.082
32516DA     BB211393  55.405  76.030  61.723
32516DA     BB311394  55.535  76.157  61.612
32516DA     SC111395  55.327  76.387  61.585
32516DA     SC211396  55.190  76.492  61.405
32516DA     SC311397  55.172  76.693  61.564
32516DA     SC411398  55.329  76.502  61.697
32517DA     BB111399  55.631  75.871  61.478
32517DA     BB211400  55.527  76.007  61.153
32517DA     BB311401  55.670  76.150  61.084
32517DA     SC111402  55.528  76.393  61.217
32517DA     SC211403  55.400  76.594  61.145
32517DA     SC311404  55.457  76.689  61.377
32517DA     SC411405  55.575  76.435  61.365
32518DT     BB111406  55.793  76.115  60.913
32518DT     BB211407  55.628  76.344  60.688
32518DT     BB311408  55.747  76.511  60.657
32518DT     SC111409  55.690  76.605  60.895
32518DT     SC211410  55.567  76.780  60.875
32518DT     SC311411  55.722  76.687  61.144
32519DA     BB111412  55.680  76.383  60.261
32519DA     BB211413  55.613  76.743  60.268
32519DA     BB311414  55.796  76.853  60.269
32519DA     SC111415  55.817  76.862  60.580
32519DA     SC211416  55.798  77.033  60.761
32519DA     SC311417  55.928  76.865  60.905
32519DA     SC411418  55.899  76.745  60.652
32520DC     BB111419  55.885  76.988  60.098
32520DC     BB211420  55.812  77.304  60.255
32520DC     BB311421  55.988  77.398  60.310
32520DC     SC111422  56.021  77.234  60.512
32520DC     SC211423  55.993  77.341  60.696
32520DC     SC311424  56.127  77.048  60.666
32521DG     BB111425  55.841  77.678  60.046
32521DG     BB211426  55.918  77.832  60.363
32521DG     BB311427  56.111  77.880  60.370
32521DG     SC111428  56.199  77.611  60.488
32521DG     SC211429  56.312  77.568  60.761
32521DG     SC311430  56.332  77.322  60.599
32521DG     SC411431  56.235  77.491  60.389
32522DA     BB111432  56.030  78.209  60.453
32522DA     BB211433  56.203  78.176  60.774
32522DA     BB311434  56.413  78.202  60.748
32522DA     SC111435  56.469  77.900  60.700
32522DA     SC211436  56.581  77.712  60.819
32522DA     SC311437  56.593  77.600  60.589
32522DA     SC411438  56.469  77.848  60.548
32523DT     BB111439  56.503  78.365  60.834
32523DT     BB211440  56.660  78.185  61.105
32523DT     BB311441  56.863  78.169  61.070
32523DT     SC111442  56.826  77.985  60.887
32523DT     SC211443  56.898  77.796  60.961
32523DT     SC311444  56.825  77.865  60.653
32524DA     BB111445  56.802  78.320  61.456
32524DA     BB211446  57.039  78.042  61.480
32524DA     BB311447  57.229  78.099  61.402
32524DA     SC111448  57.166  78.005  61.112
32524DA     SC211449  57.238  77.823  60.957
32524DA     SC311450  57.146  77.973  60.771
32524DA     SC411451  57.105  78.113  61.010
32525DA     BB111452  57.311  77.985  61.697
32525DA     BB211453  57.517  77.738  61.521
32525DA     BB311454  57.692  77.831  61.441
32525DA     SC111455  57.560  77.898  61.167
32525DA     SC211456  57.579  77.823  60.930
32525DA     SC311457  57.466  78.046  60.872
32525DA     SC411458  57.490  78.042  61.151
32526DT     BB111459  57.867  77.776  61.517
32526DT     BB211460  57.980  77.579  61.236
32526DT     BB311461  58.122  77.684  61.129
32526DT     SC111462  57.940  77.842  61.026
32526DT     SC211463  57.920  77.799  60.816
32526DT     SC311464  57.805  78.061  60.969
32527DT     BB111465  58.318  77.518  61.222
32527DT     BB211466  58.345  77.496  60.863
32527DT     BB311467  58.468  77.645  60.792
32527DT     SC111468  58.283  77.827  60.829
32527DT     SC211469  58.212  77.897  60.638
32527DT     SC311470  58.159  78.040  60.924
32528DA     BB111471  58.614  77.285  60.634
32528DA     BB211472  58.585  77.525  60.358
32528DA     BB311473  58.741  77.670  60.370
32528DA     SC111474  58.576  77.869  60.543
32528DA     SC211475  58.469  78.093  60.516
32528DA     SC311476  58.476  78.104  60.772
32528DA     SC411477  58.591  77.858  60.703
32529DT     BB111478  58.883  77.673  60.224
32529DT     BB211479  58.765  77.970  60.056
32529DT     BB311480  58.891  78.129  60.097
32529DT     SC111481  58.795  78.153  60.340
32529DT     SC211482  58.681  78.335  60.354
32529DT     SC311483  58.784  78.155  60.604
32530DT     BB111484  58.980  78.116  59.843
32530DT     BB211485  58.857  78.453  59.880
32530DT     BB311486  59.005  78.575  59.959
32530DT     SC111487  58.973  78.470  60.198
32530DT     SC211488  58.886  78.617  60.329
32530DT     SC311489  59.027  78.340  60.421
32531DA     BB111490  58.847  78.757  59.615
32531DA     BB211491  58.855  79.006  59.884
32531DA     BB311492  59.056  79.066  59.924
32531DA     SC111493  59.103  78.848  60.141
32531DA     SC211494  59.134  78.838  60.389
32531DA     SC311495  59.238  78.607  60.345
32531DA     SC411496  59.166  78.708  60.094
32532DT     BB111497  59.105  79.253  59.882
32532DT     BB211498  59.120  79.371  60.223
32532DT     BB311499  59.318  79.390  60.283
32532DT     SC111500  59.344  79.130  60.306
32532DT     SC211501  59.363  79.078  60.514
32532DT     SC311502  59.430  78.884  60.263
32533DG     BB111503  59.145  79.757  60.328
32533DG     BB211504  59.308  79.649  60.632
32533DG     BB311505  59.504  79.675  60.617
32533DG     SC111506  59.557  79.398  60.499
32533DG     SC211507  59.707  79.176  60.632
32533DG     SC311508  59.649  79.110  60.349
32533DG     SC411509  59.550  79.378  60.340
32534DT     BB111510  59.611  79.813  60.753
32534DT     BB211511  59.775  79.579  60.974
32534DT     BB311512  59.976  79.566  60.926
32534DT     SC111513  59.924  79.423  60.712
32534DT     SC211514  59.994  79.222  60.742
32534DT     SC311515  59.908  79.353  60.458
32535DT     BB111516  60.027  79.697  61.154
32535DT     BB211517  60.208  79.386  61.182
32535DT     BB311518  60.392  79.402  61.089
32535DT     SC111519  60.283  79.390  60.851
32535DT     SC211520  60.336  79.203  60.758
32535DT     SC311521  60.209  79.460  60.608
32536DA     BB111522  60.427  79.242  61.475
32536DA     BB211523  60.616  79.030  61.243
32536DA     BB311524  60.790  79.132  61.175
32536DA     SC111525  60.650  79.257  60.927
32536DA     SC211526  60.656  79.232  60.679
32536DA     SC311527  60.550  79.465  60.673
32536DA     SC411528  60.585  79.403  60.944
32537DT     BB111529  60.931  79.042  61.231
32537DT     BB211530  61.032  78.907  60.912
32537DT     BB311531  61.178  79.027  60.828
32537DT     SC111532  61.001  79.210  60.764
32537DT     SC211533  60.977  79.215  60.551
32537DT     SC311534  60.875  79.441  60.759
32538DG     BB111535  61.298  78.637  60.856
32538DG     BB211536  61.350  78.772  60.524
32538DG     BB311537  61.503  78.899  60.525
32538DG     SC111538  61.331  79.144  60.590
32538DG     SC211539  61.282  79.376  60.409
32538DG     SC311540  61.177  79.430  60.680
32538DG     SC411541  61.303  79.181  60.743
32539DA     BB111542  61.621  78.713  60.254
32539DA     BB211543  61.635  79.018  60.051
32539DA     BB311544  61.796  79.142  60.115
32539DA     SC111545  61.624  79.301  60.320
32539DA     SC211546  61.533  79.531  60.345
32539DA     SC311547  61.513  79.475  60.594
32539DA     SC411548  61.621  79.247  60.472
32540DA     BB111549  61.905  79.137  59.797
32540DA     BB211550  61.876  79.502  59.794
32540DA     BB311551  62.039  79.591  59.900
32540DA     SC111552  61.891  79.593  60.174
32540DA     SC211553  61.794  79.762  60.330
32540DA     SC311554  61.813  79.578  60.508
32540DA     SC411555  61.913  79.466  60.271
32541DG     BB111556  62.171  79.752  59.644
32541DG     BB211557  62.090  80.050  59.832
32541DG     BB311558  62.243  80.101  59.948
32541DG     SC111559  62.150  79.934  60.187
32541DG     SC211560  62.057  80.040  60.450
32541DG     SC311561  62.088  79.746  60.460
32541DG     SC411562  62.196  79.781  60.197
32542DC     BB111563  62.406  80.311  59.946
32542DC     BB211564  62.271  80.495  60.225
32542DC     BB311565  62.407  80.497  60.382
32542DC     SC111566  62.354  80.247  60.441
32542DC     SC211567  62.250  80.238  60.629
32542DC     SC311568  62.389  79.988  60.477
32543DA     BB111569  62.339  80.909  60.327
32543DA     BB211570  62.290  80.839  60.684
32543DA     BB311571  62.479  80.822  60.782
32543DA     SC111572  62.503  80.515  60.737
32543DA     SC211573  62.495  80.307  60.875
32543DA     SC311574  62.617  80.197  60.679
32543DA     SC411575  62.580  80.465  60.606
32544DT     BB111576  62.543  80.965  60.930
32544DT     BB211577  62.481  80.753  61.216
32544DT     BB311578  62.661  80.693  61.299
32544DT     SC111579  62.702  80.522  61.103
32544DT     SC211580  62.684  80.321  61.179
32544DT     SC311581  62.814  80.407  60.894
32545DC     BB111582  62.615  80.856  61.510
32545DC     BB211583  62.649  80.526  61.653
32545DC     BB311584  62.849  80.485  61.690
32545DC     SC111585  62.896  80.447  61.435
32545DC     SC211586  62.936  80.239  61.400
32545DC     SC311587  62.997  80.481  61.193
32546DA     BB111588  62.630  80.408  62.039
32546DA     BB211589  62.842  80.117  61.971
32546DA     BB311590  63.046  80.162  62.014
32546DA     SC111591  63.110  80.261  61.726
32546DA     SC211592  63.245  80.184  61.530
32546DA     SC311593  63.234  80.429  61.453
32546DA     SC411594  63.094  80.418  61.696
32547DT     BB111595  63.129  80.064  62.163
32547DT     BB211596  63.333  79.844  61.963
32547DT     BB311597  63.530  79.908  61.968
32547DT     SC111598  63.477  80.108  61.806
32547DT     SC211599  63.570  80.072  61.615
32547DT     SC311600  63.449  80.355  61.718
32548DC     BB111601  63.592  79.695  62.123
32548DC     BB211602  63.808  79.665  61.835
32548DC     BB311603  63.981  79.775  61.865
32548DC     SC111604  63.853  80.001  61.823
32548DC     SC211605  63.918  80.086  61.637
32548DC     SC311606  63.749  80.239  61.867
32549DG     BB111607  64.098  79.391  61.799
32549DG     BB211608  64.268  79.620  61.576
32549DG     BB311609  64.416  79.711  61.673
32549DG     SC111610  64.243  79.944  61.770
32549DG     SC211611  64.269  80.229  61.685
32549DG     SC311612  64.079  80.204  61.910
32549DG     SC411613  64.165  79.930  61.909
32550DA     BB111614  64.605  79.608  61.404
32550DA     BB211615  64.686  79.958  61.330
32550DA     BB311616  64.828  80.033  61.469
32550DA     SC111617  64.614  80.137  61.669
32550DA     SC211618  64.529  80.357  61.750
32550DA     SC311619  64.440  80.226  61.952
32550DA     SC411620  64.568  80.038  61.787
32551DT     BB111621  65.004  80.079  61.395
32551DT     BB211622  64.965  80.438  61.411
32551DT     BB311623  65.072  80.513  61.571
32551DT     SC111624  64.894  80.424  61.742
32551DT     SC211625  64.789  80.590  61.829
32551DT     SC311626  64.788  80.286  61.940
32552DG     BB111627  65.205  80.699  61.234
32552DG     BB211628  65.114  80.938  61.489
32552DG     BB311629  65.257  80.949  61.626
32552DG     SC111630  65.140  80.728  61.802
32552DG     SC211631  65.026  80.763  62.076
32552DG     SC311632  65.050  80.476  62.008
32552DG     SC411633  65.182  80.576  61.774
32553DA     BB111634  65.255  81.294  61.578
32553DA     BB211635  65.174  81.345  61.932
32553DA     BB311636  65.347  81.316  62.053
32553DA     SC111637  65.296  81.013  62.097
32553DA     SC211638  65.230  80.862  62.285
32553DA     SC311639  65.331  80.674  62.143
32553DA     SC411640  65.365  80.910  61.995
32554DA     BB111641  65.276  81.618  62.166
32554DA     BB211642  65.237  81.468  62.498
32554DA     BB311643  65.428  81.430  62.585
32554DA     SC111644  65.451  81.142  62.470
32554DA     SC211645  65.446  80.908  62.556
32554DA     SC311646  65.563  80.846  62.337
32554DA     SC411647  65.524  81.124  62.328
32555DA     BB111648  65.309  81.608  62.834
32555DA     BB211649  65.347  81.310  63.044
32555DA     BB311650  65.551  81.284  63.100
32555DA     SC111651  65.621  81.106  62.854
32555DA     SC211652  65.679  80.868  62.810
32555DA     SC311653  65.778  80.954  62.589
32555DA     SC411654  65.678  81.179  62.723
32556DA     BB111655  65.416  81.278  63.397
32556DA     BB211656  65.545  80.936  63.427
32556DA     BB311657  65.755  80.939  63.466
32556DA     SC111658  65.836  80.930  63.166
32556DA     SC211659  65.941  80.768  63.008
32556DA     SC311660  65.992  80.974  62.864
32556DA     SC411661  65.859  81.070  63.091
32557DT     BB111662  65.804  80.869  63.638
32557DT     BB211663  65.938  80.556  63.519
32557DT     BB311664  66.145  80.563  63.520
32557DT     SC111665  66.148  80.716  63.307
32557DT     SC211666  66.225  80.605  63.140
32557DT     SC311667  66.188  80.926  63.153
32558DA     BB111668  65.997  80.216  63.703
32558DA     BB211669  66.259  80.120  63.466
32558DA     BB311670  66.450  80.183  63.537
32558DA     SC111671  66.439  80.459  63.394
32558DA     SC211672  66.553  80.573  63.204
32558DA     SC311673  66.471  80.791  63.311
32558DA     SC411674  66.380  80.583  63.477
32559DT     BB111675  66.547  80.039  63.566
32559DT     BB211676  66.777  80.076  63.291
32559DT     BB311677  66.949  80.171  63.356
32559DT     SC111678  66.827  80.403  63.366
32559DT     SC211679  66.902  80.531  63.211
32559DT     SC311680  66.724  80.625  63.465
32560DT     BB111681  67.063  79.936  63.322
32560DT     BB211682  67.264  80.165  63.128
32560DT     BB311683  67.398  80.263  63.251
32560DT     SC111684  67.209  80.415  63.350
32560DT     SC211685  67.237  80.617  63.283
32560DT     SC311686  67.044  80.523  63.525
32561DA     BB111687  67.629  80.103  62.937
32561DA     BB211688  67.736  80.450  62.988
32561DA     BB311689  67.849  80.467  63.168
32561DA     SC111690  67.601  80.530  63.346
32561DA     SC211691  67.509  80.725  63.472
32561DA     SC311692  67.375  80.550  63.604
32561DA     SC411693  67.528  80.406  63.418
32562DG     BB111694  68.100  80.564  62.999
32562DG     BB211695  68.059  80.871  63.187
32562DG     BB311696  68.153  80.856  63.362
32562DG     SC111697  67.911  80.741  63.510
32562DG     SC211698  67.758  80.877  63.728
32562DG     SC311699  67.673  80.595  63.699
32562DG     SC411700  67.889  80.582  63.512
32563DC     BB111701  68.340  80.986  63.434
32563DC     BB211702  68.181  81.209  63.669
32563DC     BB311703  68.233  81.156  63.862
32563DC     SC111704  68.073  80.948  63.856
32563DC     SC211705  67.907  80.982  63.989
32563DC     SC311706  67.992  80.697  63.860
32564DA     BB111707  68.329  81.564  63.835
32564DA     BB211708  68.128  81.517  64.139
32564DA     BB311709  68.246  81.427  64.292
32564DA     SC111710  68.170  81.136  64.212
32564DA     SC211711  68.035  80.948  64.306
32564DA     SC311712  68.173  80.798  64.149
32564DA     SC411713  68.267  81.060  64.109
32565DC     BB111714  68.291  81.534  64.463
32565DC     BB211715  68.061  81.362  64.682
32565DC     BB311716  68.165  81.236  64.808
32565DC     SC111717  68.207  81.064  64.615
32565DC     SC211718  68.092  80.886  64.652
32565DC     SC311719  68.334  80.914  64.438
32566DT     BB111720  68.111  81.404  65.012
32566DT     BB211721  67.976  81.086  65.116
32566DT     BB311722  68.124  80.972  65.205
32566DT     SC111723  68.234  80.919  64.973
32566DT     SC211724  68.206  80.712  64.926
32566DT     SC311725  68.413  80.913  64.779
32567DT     BB111726  68.007  81.012  65.446
32567DT     BB211727  68.022  80.653  65.411
32567DT     BB311728  68.206  80.583  65.476
32567DT     SC111729  68.326  80.672  65.261
32567DT     SC211730  68.388  80.505  65.140
32567DT     SC311731  68.488  80.812  65.106
32568DT     BB111732  68.093  80.476  65.702
32568DT     BB211733  68.258  80.197  65.545
32568DT     BB311734  68.456  80.187  65.607
32568DT     SC111735  68.521  80.392  65.456
32568DT     SC211736  68.646  80.324  65.295
32568DT     SC311737  68.605  80.632  65.386
32569DA     BB111738  68.302  79.804  65.685
32569DA     BB211739  68.617  79.762  65.502
32569DA     BB311740  68.783  79.799  65.630
32569DA     SC111741  68.798  80.103  65.562
32569DA     SC211742  68.951  80.257  65.439
32569DA     SC311743  68.838  80.443  65.575
32569DA     SC411744  68.717  80.204  65.657
32570DT     BB111745  68.921  79.645  65.689
32570DT     BB211746  69.189  79.749  65.471
32570DT     BB311747  69.342  79.833  65.583
32570DT     SC111748  69.204  80.053  65.621
32570DT     SC211749  69.295  80.214  65.512
32570DT     SC311750  69.073  80.244  65.746
32571DT     BB111751  69.502  79.614  65.540
32571DT     BB211752  69.690  79.892  65.408
32571DT     BB311753  69.805  79.977  65.557
32571DT     SC111754  69.594  80.091  65.665
32571DT     SC211755  69.605  80.304  65.637
32571DT     SC311756  69.407  80.149  65.841
32572DT     BB111757  70.017  79.876  65.432
32572DT     BB211758  70.075  80.232  65.442
32572DT     BB311759  70.160  80.285  65.623
32572DT     SC111760  69.931  80.255  65.748
32572DT     SC211761  69.858  80.448  65.810
32572DT     SC311762  69.750  80.161  65.915
32573DT     BB111763  70.381  80.331  65.484
32573DT     BB211764  70.306  80.644  65.648
32573DT     BB311765  70.379  80.641  65.842
32573DT     SC111766  70.187  80.481  65.922
32573DT     SC211767  70.054  80.589  66.052
32573DT     SC311768  70.066  80.267  66.016
32574DT     BB111769  70.559  80.818  65.757
32574DT     BB211770  70.390  80.980  66.032
32574DT     BB311771  70.474  80.920  66.212
32574DT     SC111772  70.357  80.685  66.197
32574DT     SC211773  70.205  80.671  66.348
32574DT     SC311774  70.327  80.424  66.178
32575DC     BB111775  70.584  81.164  66.236
32575DC     BB211776  70.389  81.120  66.537
32575DC     BB311777  70.500  81.019  66.679
32575DC     SC111778  70.470  80.792  66.551
32575DC     SC211779  70.341  80.662  66.666
32575DC     SC311780  70.529  80.572  66.417
32576DA     BB111781  70.359  81.366  66.868
32576DA     BB211782  70.284  81.081  67.087
32576DA     BB311783  70.462  81.012  67.181
32576DA     SC111784  70.529  80.806  66.957
32576DA     SC211785  70.534  80.559  66.929
32576DA     SC311786  70.689  80.604  66.729
32576DA     SC411787  70.625  80.855  66.837
32577DT     BB111788  70.480  81.031  67.382
32577DT     BB211789  70.424  80.683  67.461
32577DT     BB311790  70.604  80.593  67.513
32577DT     SC111791  70.682  80.588  67.262
32577DT     SC211792  70.685  80.385  67.192
32577DT     SC311793  70.824  80.638  67.046
32578DA     BB111794  70.323  80.512  67.812
32578DA     BB211795  70.477  80.195  67.712
32578DA     BB311796  70.677  80.184  67.785
32578DA     SC111797  70.804  80.312  67.532
32578DA     SC211798  70.948  80.241  67.341
32578DA     SC311799  71.000  80.490  67.313
32578DA     SC411800  70.825  80.471  67.532
32579DT     BB111801  70.697  80.046  67.907
32579DT     BB211802  70.878  79.822  67.690
32579DT     BB311803  71.081  79.832  67.731
32579DT     SC111804  71.101  80.065  67.611
32579DT     SC211805  71.214  80.042  67.429
32579DT     SC311806  71.144  80.322  67.575
32580DT     BB111807  71.034  79.592  67.816
32580DT     BB211808  71.288  79.558  67.562
32580DT     BB311809  71.473  79.608  67.639
32580DT     SC111810  71.414  79.864  67.635
32580DT     SC211811  71.533  79.962  67.485
32580DT     SC311812  71.365  80.109  67.720
32581DC     BB111813  71.523  79.350  67.617
32581DC     BB211814  71.785  79.513  67.430
32581DC     BB311815  71.935  79.576  67.558
32581DC     SC111816  71.787  79.775  67.645
32581DC     SC211817  71.870  79.961  67.576
32581DC     SC311818  71.648  79.927  67.810
32582DT     BB111819  72.090  79.381  67.458
32582DT     BB211820  72.283  79.683  67.412
32582DT     BB311821  72.387  79.726  67.585
32582DT     SC111822  72.169  79.810  67.706
32582DT     SC211823  72.180  80.023  67.733
32582DT     SC311824  71.971  79.822  67.879
32583DT     BB111825  72.631  79.648  67.478
32583DT     BB211826  72.691  79.985  67.591
32583DT     BB311827  72.753  79.984  67.789
32583DT     SC111828  72.510  79.932  67.873
32583DT     SC211829  72.433  80.104  67.976
32583DT     SC311830  72.308  79.805  67.986
32584DT     BB111831  73.027  80.039  67.736
32584DT     BB211832  72.929  80.300  67.965
32584DT     BB311833  72.965  80.240  68.160
32584DT     SC111834  72.758  80.079  68.158
32584DT     SC211835  72.606  80.157  68.288
32584DT     SC311836  72.617  79.857  68.166
32585DT     BB111837  73.191  80.406  68.199
32585DT     BB211838  72.964  80.504  68.462
32585DT     BB311839  73.001  80.392  68.632
32585DT     SC111840  72.886  80.181  68.527
32585DT     SC211841  72.701  80.141  68.630
32585DT     SC311842  72.855  79.937  68.431
32586DT     BB111843  73.113  80.607  68.761
32586DT     BB211844  72.837  80.509  68.971
32586DT     BB311845  72.899  80.367  69.108
32586DT     SC111846  72.906  80.181  68.923
32586DT     SC211847  72.748  80.039  68.958
32586DT     SC311848  73.000  79.996  68.760
32587DA     BB111849  72.693  80.677  69.296
32587DA     BB211850  72.547  80.359  69.405
32587DA     BB311851  72.682  80.257  69.536
32587DA     SC111852  72.824  80.100  69.308
32587DA     SC211853  72.839  79.865  69.228
32587DA     SC311854  73.054  79.940  69.110
32587DA     SC411855  72.956  80.166  69.243
32588DA     BB111856  72.384  80.271  69.667
32588DA     BB211857  72.401  79.905  69.670
32588DA     BB311858  72.551  79.839  69.807
32588DA     SC111859  72.779  79.836  69.595
32588DA     SC211860  72.917  79.667  69.475
32588DA     SC311861  73.080  79.861  69.432
32588DA     SC411862  72.868  79.969  69.580
32589DT     BB111863  72.460  79.752  69.915
32589DT     BB211864  72.580  79.423  69.828
32589DT     BB311865  72.746  79.376  69.943
32589DT     SC111866  72.898  79.536  69.802
32589DT     SC211867  73.037  79.420  69.686
32589DT     SC311868  73.056  79.738  69.741
32590DA     BB111869  72.463  79.061  69.938
32590DA     BB211870  72.798  78.919  69.892
32590DA     BB311871  72.913  78.942  70.069
32590DA     SC111872  73.032  79.217  69.987
32590DA     SC211873  73.253  79.310  69.918
32590DA     SC311874  73.155  79.538  69.984
32590DA     SC411875  72.953  79.349  70.034
32591DT     BB111876  72.964  78.778  70.176
32591DT     BB211877  73.318  78.777  70.108
32591DT     BB311878  73.422  78.851  70.271
32591DT     SC111879  73.348  79.097  70.217
32591DT     SC211880  73.520  79.209  70.151
32591DT     SC311881  73.235  79.333  70.243
32592DT     BB111882  73.518  78.601  70.364
32592DT     BB211883  73.818  78.801  70.339
32592DT     BB311884  73.853  78.898  70.519
32592DT     SC111885  73.660  79.070  70.472
32592DT     SC211886  73.745  79.264  70.435
32592DT     SC311887  73.434  79.202  70.500
32593DT     BB111888  74.069  78.733  70.621
32593DT     BB211889  74.209  79.065  70.632
32593DT     BB311890  74.177  79.149  70.818
32593DT     SC111891  73.923  79.191  70.766
32593DT     SC211892  73.888  79.402  70.746
32593DT     SC311893  73.661  79.174  70.781
32594DA     BB111894  74.596  79.186  70.786
32594DA     BB211895  74.468  79.515  70.883
32594DA     BB311896  74.422  79.518  71.092
32594DA     SC111897  74.127  79.428  71.053
32594DA     SC211898  73.899  79.527  71.076
32594DA     SC311899  73.817  79.285  71.089
32594DA     SC411900  74.096  79.271  71.061
32595DG     BB111901  74.639  79.746  71.134
32595DG     BB211902  74.351  79.948  71.218
32595DG     BB311903  74.309  79.929  71.412
32595DG     SC111904  74.122  79.689  71.373
32595DG     SC211905  73.827  79.688  71.421
32595DG     SC311906  73.927  79.414  71.370
32595DG     SC411907  74.183  79.542  71.375
32596DT     BB111908  74.318  80.104  71.567
32596DT     BB211909  73.966  80.172  71.609
32596DT     BB311910  73.903  80.104  71.794
32596DT     SC111911  73.908  79.855  71.713
32596DT     SC211912  73.707  79.780  71.699
32596DT     SC311913  73.977  79.601  71.697
32597DA     BB111914  73.783  80.505  71.766
32597DA     BB211915  73.491  80.308  71.870
32597DA     BB311916  73.510  80.251  72.074
32597DA     SC111917  73.654  79.982  72.011
32597DA     SC211918  73.603  79.738  72.023
32597DA     SC311919  73.857  79.706  72.019
32597DA     SC411920  73.815  79.983  72.009
32598DT     BB111921  73.378  80.327  72.210
32598DT     BB211922  73.182  80.027  72.251
32598DT     BB311923  73.225  79.939  72.433
32598DT     SC111924  73.456  79.851  72.345
32598DT     SC211925  73.448  79.637  72.326
32598DT     SC311926  73.716  79.818  72.321
32599DA     BB111927  72.809  79.981  72.411
32599DA     BB211928  72.882  79.635  72.507
32599DA     BB311929  72.947  79.627  72.711
32599DA     SC111930  73.248  79.659  72.642
32599DA     SC211931  73.455  79.519  72.647
32599DA     SC311932  73.581  79.742  72.643
32599DA     SC411933  73.309  79.808  72.641
32600DA     BB111934  72.703  79.409  72.717
32600DA     BB211935  72.957  79.160  72.809
32600DA     BB311936  73.016  79.186  73.012
32600DA     SC111937  73.248  79.382  72.947
32600DA     SC211938  73.498  79.380  72.951
32600DA     SC311939  73.479  79.636  72.953
32600DA     SC411940  73.216  79.539  72.949
32601DT     BB111941  72.970  79.038  73.139
32601DT     BB211942  73.304  78.904  73.172
32601DT     BB311943  73.384  78.958  73.355
32601DT     SC111944  73.423  79.205  73.274
32601DT     SC211945  73.635  79.240  73.254
32601DT     SC311946  73.403  79.467  73.259
32602DC     BB111947  73.358  78.702  73.432
32602DC     BB211948  73.708  78.775  73.477
32602DC     BB311949  73.739  78.862  73.662
32602DC     SC111950  73.638  79.090  73.581
32602DC     SC211951  73.794  79.237  73.568
32602DC     SC311952  73.475  79.298  73.564
32603DT     BB111953  73.856  78.633  73.751
32603DT     BB211954  74.105  78.889  73.808
32603DT     BB311955  74.073  78.978  73.992
32603DT     SC111956  73.866  79.111  73.902
32603DT     SC211957  73.915  79.320  73.892
32603DT     SC311958  73.618  79.194  73.873
32604DT     BB111959  74.292  78.851  74.109
32604DT     BB211960  74.354  79.202  74.165
32604DT     BB311961  74.268  79.261  74.344
32604DT     SC111962  74.028  79.257  74.239
32604DT     SC211963  73.953  79.458  74.222
32604DT     SC311964  73.777  79.187  74.197
32605DA     BB111965  74.668  79.383  74.382
32605DA     BB211966  74.459  79.670  74.471
32605DA     BB311967  74.378  79.645  74.666
32605DA     SC111968  74.119  79.502  74.568
32605DA     SC211969  73.875  79.552  74.553
32605DA     SC311970  73.845  79.298  74.537
32605DA     SC411971  74.121  79.342  74.561
32606DA     BB111972  74.515  79.938  74.725
32606DA     BB211973  74.177  80.066  74.783
32606DA     BB311974  74.110  80.013  74.979
32606DA     SC111975  73.980  79.745  74.887
32606DA     SC211976  73.750  79.651  74.862
32606DA     SC311977  73.866  79.422  74.868
32606DA     SC411978  74.070  79.613  74.894
32607DA     BB111979  74.063  80.334  74.987
32607DA     BB211980  73.707  80.260  75.030
32607DA     BB311981  73.667  80.196  75.230
32607DA     SC111982  73.710  79.894  75.168
32607DA     SC211983  73.572  79.688  75.153
32607DA     SC311984  73.793  79.562  75.185
32607DA     SC411985  73.858  79.834  75.190
32608DT     BB111986  73.558  80.315  75.307
32608DT     BB211987  73.260  80.113  75.298
32608DT     BB311988  73.231  80.022  75.482
32608DT     SC111989  73.424  79.850  75.437
32608DT     SC211990  73.340  79.654  75.409
32608DT     SC311991  73.652  79.721  75.463
32609DA     BB111992  72.891  80.203  75.311
32609DA     BB211993  72.801  79.868  75.429
32609DA     BB311994  72.809  79.860  75.642
32609DA     SC111995  73.107  79.770  75.651
32609DA     SC211996  73.236  79.565  75.711
32609DA     SC311997  73.437  79.723  75.735
32609DA     SC411998  73.219  79.885  75.663
32610DA     BB111999  72.525  79.732  75.533
32610DA     BB212000  72.623  79.434  75.724
32610DA     BB312001  72.630  79.479  75.932
32610DA     SC112002  72.931  79.560  75.929
32610DA     SC212003  73.147  79.470  76.014
32610DA     SC312004  73.234  79.710  75.987
32610DA     SC412005  72.965  79.715  75.906
32611DC     BB112006  72.506  79.383  76.014
32611DC     BB212007  72.724  79.160  76.196
32611DC     BB312008  72.760  79.236  76.385
32611DC     SC112009  72.924  79.417  76.290
32611DC     SC212010  73.125  79.370  76.350
32611DC     SC312011  73.024  79.653  76.228
32612DT     BB112012  72.600  79.046  76.492
32612DT     BB212013  72.909  79.013  76.674
32612DT     BB312014  72.913  79.148  76.832
32612DT     SC112015  72.958  79.349  76.669
32612DT     SC212016  73.159  79.421  76.699
32612DT     SC312017  72.923  79.575  76.539
32613DT     BB112018  72.865  78.958  77.032
32613DT     BB212019  73.166  79.123  77.143
32613DT     BB312020  73.118  79.287  77.259
32613DT     SC112021  73.045  79.426  77.049
32613DT     SC212022  73.186  79.584  77.015
32613DT     SC312023  72.892  79.560  76.881
32614DA     BB112024  73.370  79.078  77.526
32614DA     BB212025  73.488  79.425  77.519
32614DA     BB312026  73.360  79.549  77.638
32614DA     SC112027  73.170  79.621  77.402
32614DA     SC212028  73.115  79.821  77.264
32614DA     SC312029  72.898  79.697  77.208
32614DA     SC412030  73.041  79.528  77.380
32615DG     BB112031  73.600  79.623  77.837
32615DG     BB212032  73.556  79.955  77.700
32615DG     BB312033  73.420  80.055  77.805
32615DG     SC112034  73.183  79.961  77.635
32615DG     SC212035  73.015  80.133  77.459
32615DG     SC312036  72.899  79.862  77.483
32615DG     SC412037  73.109  79.824  77.674
32616DA     BB112038  73.647  80.316  77.851
32616DA     BB212039  73.425  80.542  77.666
32616DA     BB312040  73.268  80.612  77.793
32616DA     SC112041  73.073  80.380  77.720
32616DA     SC212042  72.860  80.352  77.594
32616DA     SC312043  72.835  80.133  77.726
32616DA     SC412044  73.075  80.249  77.813
32617DG     BB112045  73.392  80.887  77.728
32617DG     BB212046  73.076  80.934  77.557
32617DG     BB312047  72.936  80.989  77.686
32617DG     SC112048  72.850  80.704  77.754
32617DG     SC212049  72.586  80.581  77.689
32617DG     SC312050  72.743  80.404  77.866
32617DG     SC412051  72.924  80.626  77.872
32618DT     BB112052  72.849  81.173  77.650
32618DT     BB212053  72.529  81.073  77.517
32618DT     BB312054  72.384  81.087  77.663
32618DT     SC112055  72.472  80.871  77.783
32618DT     SC212056  72.328  80.713  77.759
32618DT     SC312057  72.576  80.714  77.968
32619DG     BB112058  72.291  81.295  77.325
32619DG     BB212059  72.029  81.065  77.421
32619DG     BB312060  71.933  81.135  77.580
32619DG     SC112061  72.117  80.997  77.782
32619DG     SC212062  72.040  80.776  77.968
32619DG     SC312063  72.311  80.878  78.031
32619DG     SC412064  72.249  81.074  77.832
32620DA     BB112065  71.678  81.050  77.365
32620DA     BB212066  71.545  80.829  77.625
32620DA     BB312067  71.472  80.943  77.789
32620DA     SC112068  71.742  80.941  77.943
32620DA     SC212069  71.836  80.839  78.150
32620DA     SC312070  72.015  81.023  78.135
32620DA     SC412071  71.843  81.064  77.917
32621DG     BB112072  71.227  80.780  77.699
32621DG     BB212073  71.259  80.643  78.032
32621DG     BB312074  71.194  80.774  78.167
32621DG     SC112075  71.466  80.910  78.204
32621DG     SC212076  71.632  80.904  78.451
32621DG     SC312077  71.743  81.094  78.254
32621DG     SC412078  71.505  81.032  78.108
32622DT     BB112079  71.036  80.712  78.280
32622DT     BB212080  71.188  80.657  78.603
32622DT     BB312081  71.159  80.823  78.723
32622DT     SC112082  71.340  80.961  78.592
32622DT     SC212083  71.512  80.992  78.717
32622DT     SC312084  71.447  81.149  78.441
32623DT     BB112085  70.986  80.678  78.866
32623DT     BB212086  71.228  80.794  79.107
32623DT     BB312087  71.178  80.984  79.171
32623DT     SC112088  71.258  81.091  78.945
32623DT     SC212089  71.437  81.206  78.980
32623DT     SC312090  71.252  81.218  78.715
32624DT     BB112091  71.106  80.880  79.409
32624DT     BB212092  71.352  81.132  79.489
32624DT     BB312093  71.262  81.317  79.504
32624DT     SC112094  71.238  81.335  79.243
32624DT     SC212095  71.371  81.487  79.169
32624DT     SC312096  71.127  81.352  79.004
32625DC     BB112097  71.294  81.312  79.772
32625DC     BB212098  71.457  81.616  79.668
32625DC     BB312099  71.319  81.770  79.655
32625DC     SC112100  71.219  81.673  79.432
32625DC     SC212101  71.269  81.804  79.269
32625DC     SC312102  71.047  81.568  79.263
32626DG     BB112103  71.604  81.893  79.920
32626DG     BB212104  71.549  82.139  79.661
32626DG     BB312105  71.382  82.241  79.698
32626DG     SC112106  71.201  82.048  79.543
32626DG     SC212107  71.053  82.111  79.291
32626DG     SC312108  70.971  81.848  79.399
32626DG     SC412109  71.138  81.922  79.620
32627DA     BB112110  71.568  82.534  79.664
32627DA     BB212111  71.351  82.642  79.389
32627DA     BB312112  71.165  82.713  79.465
32627DA     SC112113  71.025  82.435  79.451
32627DA     SC212114  70.845  82.326  79.317
32627DA     SC312115  70.830  82.159  79.511
32627DA     SC412116  71.030  82.343  79.582
32628DA     BB112117  71.238  82.985  79.291
32628DA     BB212118  70.932  82.922  79.097
32628DA     BB312119  70.760  82.979  79.210
32628DA     SC112120  70.722  82.699  79.340
32628DA     SC212121  70.560  82.510  79.326
32628DA     SC312122  70.653  82.440  79.554
32628DA     SC412123  70.792  82.673  79.482
32629DG     BB112124  70.695  83.188  78.982
32629DG     BB212125  70.404  82.979  78.933
32629DG     BB312126  70.260  83.033  79.058
32629DG     SC112127  70.349  82.844  79.282
32629DG     SC212128  70.197  82.607  79.381
32629DG     SC312129  70.430  82.663  79.555
32629DG     SC412130  70.457  82.895  79.388
32630DA     BB112131  70.037  83.067  78.789
32630DA     BB212132  69.824  82.805  78.931
32630DA     BB312133  69.704  82.884  79.089
32630DA     SC112134  69.911  82.820  79.312
32630DA     SC212135  69.932  82.663  79.505
32630DA     SC312136  70.108  82.827  79.593
32630DA     SC412137  70.017  82.935  79.350
32631DG     BB112138  69.448  82.808  78.920
32631DG     BB212139  69.392  82.575  79.191
32631DG     BB312140  69.291  82.665  79.338
32631DG     SC112141  69.541  82.763  79.484
32631DG     SC212142  69.635  82.671  79.752
32631DG     SC312143  69.793  82.903  79.659
32631DG     SC412144  69.604  82.904  79.444
32632DG     BB112145  69.054  82.439  79.308
32632DG     BB212146  69.142  82.337  79.643
32632DG     BB312147  69.047  82.451  79.776
32632DG     SC112148  69.268  82.662  79.790
32632DG     SC212149  69.440  82.721  80.027
32632DG     SC312150  69.480  82.923  79.815
32632DG     SC412151  69.265  82.785  79.687
32633DA     BB112152  68.951  82.150  79.912
32633DA     BB212153  69.117  82.241  80.226
32633DA     BB312154  69.001  82.385  80.332
32633DA     SC112155  69.139  82.630  80.201
32633DA     SC212156  69.295  82.813  80.270
32633DA     SC312157  69.208  82.937  80.062
32633DA     SC412158  69.072  82.692  80.069
32634DT     BB112159  68.931  82.323  80.501
32634DT     BB212160  69.156  82.508  80.713
32634DT     BB312161  69.060  82.674  80.791
32634DT     SC112162  69.073  82.800  80.561
32634DT     SC212163  69.210  82.964  80.577
32634DT     SC312164  68.996  82.919  80.338
32635DA     BB112165  69.244  82.461  81.102
32635DA     BB212166  69.334  82.815  81.136
32635DA     BB312167  69.166  82.929  81.202
32635DA     SC112168  69.066  82.994  80.915
32635DA     SC212169  69.049  83.194  80.766
32635DA     SC312170  68.873  83.058  80.638
32635DA     SC412171  68.958  82.895  80.849
32636DA     BB112172  69.392  83.015  81.422
32636DA     BB212173  69.346  83.358  81.303
32636DA     BB312174  69.161  83.437  81.372
32636DA     SC112175  68.999  83.342  81.124
32636DA     SC212176  68.886  83.445  80.927
32636DA     SC312177  68.756  83.224  80.912
32636DA     SC412178  68.928  83.198  81.132
32637DT     BB112179  69.176  83.584  81.495
32637DT     BB212180  69.072  83.844  81.267
32637DT     BB312181  68.875  83.896  81.305
32637DT     SC112182  68.786  83.676  81.193
32637DT     SC212183  68.687  83.725  81.009
32637DT     SC312184  68.669  83.442  81.166
32638DA     BB112185  69.111  84.243  81.293
32638DA     BB212186  68.816  84.298  81.082
32638DA     BB312187  68.641  84.320  81.203
32638DA     SC112188  68.571  84.017  81.202
32638DA     SC212189  68.396  83.869  81.105
32638DA     SC312190  68.467  83.701  81.285
32638DA     SC412191  68.629  83.927  81.322
32639DG     BB112192  68.635  84.593  81.058
32639DG     BB212193  68.324  84.464  80.926
32639DG     BB312194  68.179  84.485  81.061
32639DG     SC112195  68.229  84.213  81.193
32639DG     SC212196  68.042  83.980  81.189
32639DG     SC312197  68.268  83.930  81.373
32639DG     SC412198  68.335  84.202  81.312
32640DT     BB112199  68.015  84.606  81.010
32640DT     BB212200  67.754  84.363  80.957
32640DT     BB312201  67.633  84.352  81.125
32640DT     SC112202  67.816  84.218  81.258
32640DT     SC212203  67.749  84.016  81.287
32640DT     SC312204  67.995  84.159  81.442
32641DT     BB112205  67.430  84.484  80.996
32641DT     BB212206  67.276  84.178  81.111
32641DT     BB312207  67.202  84.204  81.302
32641DT     SC112208  67.444  84.195  81.405
32641DT     SC212209  67.466  84.013  81.518
32641DT     SC312210  67.663  84.270  81.531
32642DT     BB112211  66.942  84.208  81.213
32642DT     BB212212  66.944  83.947  81.461
32642DT     BB312213  66.905  84.027  81.648
32642DT     SC112214  67.147  84.129  81.663
32642DT     SC212215  67.259  84.023  81.813
32642DT     SC312216  67.340  84.307  81.680
32643DA     BB112217  66.622  83.720  81.608
32643DA     BB212218  66.778  83.682  81.938
32643DA     BB312219  66.702  83.829  82.073
32643DA     SC112220  66.923  84.038  82.007
32643DA     SC212221  67.120  84.141  82.120
32643DA     SC312222  67.097  84.327  81.945
32643DA     SC412223  66.891  84.145  81.891
32644DC     BB112224  66.578  83.779  82.243
32644DC     BB212225  66.828  83.833  82.498
32644DC     BB312226  66.785  84.005  82.604
32644DC     SC112227  66.865  84.157  82.405
32644DC     SC212228  67.047  84.257  82.461
32644DC     SC312229  66.858  84.333  82.209
32645DT     BB112230  66.693  83.872  82.836
32645DT     BB212231  66.953  84.090  82.960
32645DT     BB312232  66.873  84.272  83.016
32645DT     SC112233  66.844  84.345  82.766
32645DT     SC212234  66.982  84.504  82.722
32645DT     SC312235  66.728  84.418  82.540
32646DA     BB112236  67.077  84.152  83.363
32646DA     BB212237  67.177  84.498  83.295
32646DA     BB312238  67.022  84.633  83.354
32646DA     SC112239  66.880  84.631  83.078
32646DA     SC212240  66.845  84.789  82.888
32646DA     SC312241  66.649  84.636  82.824
32646DA     SC412242  66.762  84.524  83.055
32647DT     BB112243  67.038  84.779  83.526
32647DT     BB212244  67.079  85.074  83.322
32647DT     BB312245  66.910  85.193  83.335
32647DT     SC112246  66.773  85.030  83.182
32647DT     SC212247  66.735  85.125  82.993
32647DT     SC312248  66.588  84.859  83.105
32648DC     BB112249  67.027  85.393  83.500
32648DC     BB212250  66.913  85.576  83.211
32648DC     BB312251  66.722  85.647  83.244
32648DC     SC112252  66.618  85.409  83.211
32648DC     SC212253  66.506  85.404  83.028
32648DC     SC312254  66.492  85.183  83.265
32649DG     BB112255  66.948  85.979  83.170
32649DG     BB212256  66.662  85.964  82.949
32649DG     BB312257  66.500  86.031  83.042
32649DG     SC112258  66.420  85.757  83.153
32649DG     SC212259  66.177  85.601  83.075
32649DG     SC312260  66.314  85.476  83.306
32649DG     SC412261  66.479  85.710  83.294
32650DA     BB112262  66.468  86.231  82.766
32650DA     BB212263  66.143  86.076  82.694
32650DA     BB312264  65.994  86.152  82.826
32650DA     SC112265  66.037  85.932  83.042
32650DA     SC212266  65.914  85.736  83.132
32650DA     SC312267  66.068  85.758  83.336
32650DA     SC412268  66.142  85.964  83.160
32651DA     BB112269  65.871  86.189  82.528
32651DA     BB212270  65.601  85.968  82.639
32651DA     BB312271  65.474  86.070  82.778
32651DA     SC112272  65.635  85.979  83.028
32651DA     SC212273  65.603  85.826  83.223
32651DA     SC312274  65.790  85.962  83.334
32651DA     SC412275  65.752  86.076  83.081
32652DT     BB112276  65.315  86.081  82.705
32652DT     BB212277  65.151  85.837  82.913
32652DT     BB312278  65.054  85.931  83.070
32652DT     SC112279  65.281  85.976  83.193
32652DT     SC212280  65.291  85.854  83.370
32652DT     SC312281  65.482  86.106  83.302
32653DA     BB112282  64.806  85.652  82.874
32653DA     BB212283  64.778  85.601  83.236
32653DA     BB312284  64.677  85.765  83.327
32653DA     SC112285  64.937  85.926  83.382
32653DA     SC212286  65.073  85.995  83.580
32653DA     SC312287  65.170  86.175  83.424
32653DA     SC412288  64.984  86.032  83.270
32654DC     BB112289  64.513  85.717  83.400
32654DC     BB212290  64.604  85.745  83.748
32654DC     BB312291  64.540  85.927  83.823
32654DC     SC112292  64.732  86.055  83.698
32654DC     SC212293  64.874  86.129  83.842
32654DC     SC312294  64.852  86.220  83.532
32655DT     BB112295  64.346  85.800  83.963
32655DT     BB212296  64.523  85.993  84.212
32655DT     BB312297  64.447  86.185  84.220
32655DT     SC112298  64.566  86.250  83.995
32655DT     SC212299  64.724  86.390  84.036
32655DT     SC312300  64.599  86.324  83.744
32656DG     BB112301  64.386  86.047  84.601
32656DG     BB212302  64.552  86.369  84.606
32656DG     BB312303  64.419  86.514  84.579
32656DG     SC112304  64.444  86.514  84.274
32656DG     SC212305  64.556  86.734  84.107
32656DG     SC312306  64.431  86.527  83.937
32656DG     SC412307  64.350  86.416  84.188
32657DA     BB112308  64.510  86.693  84.874
32657DA     BB212309  64.602  86.988  84.677
32657DA     BB312310  64.429  87.102  84.629
32657DA     SC112311  64.377  86.953  84.360
32657DA     SC212312  64.389  87.004  84.116
32657DA     SC312313  64.232  86.802  84.088
32657DA     SC412314  64.278  86.826  84.363
32658DA     BB112315  64.563  87.376  84.773
32658DA     BB212316  64.559  87.537  84.444
32658DA     BB312317  64.366  87.619  84.404
32658DA     SC112318  64.258  87.362  84.266
32658DA     SC212319  64.194  87.289  84.036
32658DA     SC312320  64.062  87.104  84.154
32658DA     SC412321  64.181  87.255  84.358
32659DA     BB112322  64.513  87.915  84.356
32659DA     BB212323  64.400  87.898  84.007
32659DA     BB312324  64.198  87.962  83.992
32659DA     SC112325  64.079  87.677  84.031
32659DA     SC212326  63.959  87.507  83.894
32659DA     SC312327  63.883  87.409  84.119
32659DA     SC412328  64.041  87.632  84.181
32660DC     BB112329  64.148  88.139  83.887
32660DC     BB212330  64.023  87.972  83.593
32660DC     BB312331  63.817  87.989  83.583
32660DC     SC112332  63.786  87.811  83.774
32660DC     SC212333  63.701  87.632  83.691
32660DC     SC312334  63.719  87.705  84.006
32661DT     BB112335  63.846  88.160  83.375
32661DT     BB212336  63.650  87.886  83.246
32661DT     BB312337  63.449  87.920  83.282
32661DT     SC112338  63.477  87.861  83.536
32661DT     SC212339  63.378  87.675  83.578
32661DT     SC312340  63.481  87.889  83.799
32662DC     BB112341  63.436  87.952  83.021
32662DC     BB212342  63.212  87.679  83.097
32662DC     BB312343  63.029  87.754  83.158
32662DC     SC112344  63.126  87.821  83.393
32662DC     SC212345  63.042  87.694  83.544
32662DC     SC312346  63.201  87.971  83.596
32663DT     BB112347  62.960  87.648  82.932
32663DT     BB212348  62.757  87.485  83.182
32663DT     BB312349  62.599  87.607  83.235
32663DT     SC112350  62.756  87.764  83.375
32663DT     SC212351  62.713  87.740  83.584
32663DT     SC312352  62.887  87.980  83.452
32664DA     BB112353  62.489  87.209  83.154
32664DA     BB212354  62.331  87.315  83.468
32664DA     BB312355  62.183  87.464  83.430
32664DA     SC112356  62.380  87.702  83.462
32664DA     SC212357  62.420  87.888  83.624
32664DA     SC312358  62.546  88.001  83.432
32664DA     SC412359  62.453  87.757  83.330
32665DA     BB112360  62.038  87.235  83.616
32665DA     BB212361  61.968  87.509  83.850
32665DA     BB312362  61.827  87.645  83.765
32665DA     SC112363  62.043  87.827  83.636
32665DA     SC212364  62.135  88.057  83.669
32665DA     SC312365  62.219  88.035  83.427
32665DA     SC412366  62.086  87.795  83.484
32666DT     BB112367  61.666  87.647  83.857
32666DT     BB212368  61.695  87.975  84.004
32666DT     BB312369  61.590  88.113  83.891
32666DT     SC112370  61.774  88.112  83.704
32666DT     SC212371  61.877  88.301  83.704
32666DT     SC312372  61.889  88.078  83.469
32667DT     BB112373  61.397  88.128  84.082
32667DT     BB212374  61.495  88.471  84.030
32667DT     BB312375  61.388  88.552  83.872
32667DT     SC112376  61.530  88.420  83.697
32667DT     SC212377  61.654  88.557  83.587
32667DT     SC312378  61.593  88.250  83.505
32668DA     BB112379  61.303  88.830  84.179
32668DA     BB212380  61.393  89.025  83.881
32668DA     BB312381  61.231  89.027  83.742
32668DA     SC112382  61.326  88.773  83.590
32668DA     SC212383  61.421  88.716  83.367
32668DA     SC312384  61.341  88.477  83.416
32668DA     SC412385  61.268  88.631  83.639
32669DC     BB112386  61.086  89.210  83.677
32669DC     BB212387  61.228  89.261  83.350
32669DC     BB312388  61.091  89.208  83.204
32669DC     SC112389  61.130  88.952  83.249
32669DC     SC212390  61.233  88.865  83.081
32669DC     SC312391  61.083  88.702  83.318
32670DA     BB112392  61.155  89.608  83.077
32670DA     BB212393  61.198  89.397  82.780
32670DA     BB312394  61.008  89.345  82.698
32670DA     SC112395  60.980  89.084  82.865
32670DA     SC212396  60.984  88.838  82.825
32670DA     SC312397  60.862  88.820  83.050
32670DA     SC412398  60.904  89.094  83.006
32671DT     BB112399  60.910  89.414  82.487
32671DT     BB212400  60.973  89.102  82.317
32671DT     BB312401  60.794  89.009  82.271
32671DT     SC112402  60.757  88.938  82.520
32671DT     SC212403  60.778  88.725  82.538
32671DT     SC312404  60.649  88.921  82.760
32672DT     BB112405  60.818  89.065  82.000
32672DT     BB212406  60.797  88.705  82.016
32672DT     BB312407  60.599  88.645  82.004
32672DT     SC112408  60.553  88.722  82.251
32672DT     SC212409  60.521  88.548  82.374
32672DT     SC312410  60.451  88.854  82.455
32673DT     BB112411  60.653  88.552  81.758
32673DT     BB212412  60.532  88.266  81.942
32673DT     BB312413  60.326  88.259  81.935
32673DT     SC112414  60.306  88.456  82.107
32673DT     SC212415  60.228  88.381  82.293
32673DT     SC312416  60.247  88.693  82.207
32674DG     BB112417  60.471  87.908  81.788
32674DG     BB212418  60.225  87.852  82.047
32674DG     BB312419  60.042  87.880  81.974
32674DG     SC112420  60.034  88.178  82.042
32674DG     SC212421  59.856  88.307  82.243
32674DG     SC312422  59.999  88.511  82.084
32674DG     SC412423  60.090  88.283  81.935
32675DA     BB112424  59.960  87.565  82.100
32675DA     BB212425  59.695  87.713  82.305
32675DA     BB312426  59.525  87.761  82.184
32675DA     SC112427  59.621  88.050  82.120
32675DA     SC212428  59.554  88.283  82.177
32675DA     SC312429  59.688  88.351  81.969
32675DA     SC412430  59.708  88.071  81.986
32676DT     BB112431  59.330  87.657  82.198
32676DT     BB212432  59.153  87.925  82.363
32676DT     BB312433  59.017  88.011  82.232
32676DT     SC112434  59.209  88.134  82.102
32676DT     SC212435  59.195  88.346  82.139
32676DT     SC312436  59.370  88.204  81.906
32677DC     BB112437  58.775  87.896  82.342
32677DC     BB212438  58.716  88.252  82.356
32677DC     BB312439  58.616  88.314  82.185
32677DC     SC112440  58.835  88.293  82.041
32677DC     SC212441  58.902  88.489  81.984
32677DC     SC312442  59.003  88.210  81.856
32678DC     BB112443  58.362  88.353  82.308
32678DC     BB212444  58.447  88.676  82.173
32678DC     BB312445  58.368  88.697  81.983
32678DC     SC112446  58.549  88.537  81.881
32678DC     SC212447  58.683  88.650  81.757
32678DC     SC312448  58.657  88.327  81.762
32679DA     BB112449  58.271  89.021  82.223
32679DA     BB212450  58.426  89.146  81.915
32679DA     BB312451  58.291  89.128  81.751
32679DA     SC112452  58.388  88.844  81.671
32679DA     SC212453  58.515  88.738  81.483
32679DA     SC312454  58.408  88.518  81.562
32679DA     SC412455  58.311  88.718  81.734
32680DA     BB112456  58.445  89.410  81.794
32680DA     BB212457  58.578  89.345  81.458
32680DA     BB312458  58.420  89.341  81.315
32680DA     SC112459  58.370  89.035  81.342
32680DA     SC212460  58.402  88.830  81.204
32680DA     SC312461  58.229  88.722  81.360
32680DA     SC412462  58.260  88.986  81.449
32681DT     BB112463  58.500  89.450  81.249
32681DT     BB212464  58.595  89.259  80.958
32681DT     BB312465  58.435  89.242  80.828
32681DT     SC112466  58.318  89.066  80.983
32681DT     SC212467  58.320  88.873  80.887
32681DT     SC312468  58.139  88.955  81.143
32682DT     BB112469  58.618  89.377  80.714
32682DT     BB212470  58.540  89.099  80.497
32682DT     BB312471  58.354  89.127  80.411
32682DT     SC112472  58.232  89.067  80.635
32682DT     SC212473  58.132  88.878  80.613
32682DT     SC312474  58.082  89.093  80.851
32683DT     BB112475  58.504  89.155  80.202
32683DT     BB212476  58.264  88.899  80.117
32683DT     BB312477  58.082  88.985  80.070
32683DT     SC112478  58.032  89.036  80.322
32683DT     SC212479  57.871  88.910  80.390
32683DT     SC312480  57.985  89.172  80.543
32684DT     BB112481  58.130  88.919  79.816
32684DT     BB212482  57.806  88.777  79.887
32684DT     BB312483  57.659  88.920  79.862
32684DT     SC112484  57.726  89.038  80.087
32684DT     SC212485  57.569  89.009  80.232
32684DT     SC312486  57.811  89.224  80.254
32685DT     BB112487  57.577  88.800  79.633
32685DT     BB212488  57.278  88.820  79.835
32685DT     BB312489  57.187  89.004  79.807
32685DT     SC112490  57.368  89.125  79.953
32685DT     SC212491  57.280  89.191  80.137
32685DT     SC312492  57.566  89.287  80.019
32686DC     BB112493  56.983  88.895  79.657
32686DC     BB212494  56.811  89.071  79.920
32686DC     BB312495  56.778  89.268  79.864
32686DC     SC112496  57.030  89.329  79.902
32686DC     SC212497  57.047  89.458  80.074
32686DC     SC312498  57.277  89.406  79.852
32687DT     BB112499  56.509  89.225  79.824
32687DT     BB212500  56.519  89.500  80.057
32687DT     BB312501  56.530  89.679  79.954
32687DT     SC112502  56.782  89.639  79.895
32687DT     SC212503  56.905  89.778  80.003
32687DT     SC312504  57.000  89.598  79.751
32688DT     BB112505  56.266  89.749  80.007
32688DT     BB212506  56.454  90.031  80.129
32688DT     BB312507  56.481  90.169  79.977
32688DT     SC112508  56.662  90.019  79.862
32688DT     SC212509  56.855  90.112  79.880
32688DT     SC312510  56.781  89.868  79.681
32689DT     BB112511  56.291  90.358  80.072
32689DT     BB212512  56.594  90.552  80.041
32689DT     BB312513  56.605  90.636  79.852
32689DT     SC112514  56.667  90.406  79.744
32689DT     SC212515  56.872  90.411  79.677
32689DT     SC312516  56.651  90.190  79.593
32690DT     BB112517  56.536  90.910  79.920
32690DT     BB212518  56.854  90.944  79.753
32690DT     BB312519  56.824  90.979  79.551
32690DT     SC112520  56.758  90.729  79.509
32690DT     SC212521  56.912  90.633  79.394
32690DT     SC312522  56.613  90.518  79.444
32691DT     BB112523  56.886  91.265  79.541
32691DT     BB212524  57.116  91.120  79.303
32691DT     BB312525  57.035  91.129  79.112
32691DT     SC112526  56.869  90.933  79.165
32691DT     SC212527  56.926  90.759  79.053
32691DT     SC312528  56.642  90.803  79.204
32692DA     BB112529  57.412  91.307  79.083
32692DA     BB212530  57.390  91.049  78.823
32692DA     BB312531  57.269  91.116  78.662
32692DA     SC112532  57.004  91.003  78.780
32692DA     SC212533  56.843  90.820  78.729
32692DA     SC312534  56.678  90.953  78.873
32692DA     SC412535  56.916  91.101  78.872
32693DA     BB112536  57.543  91.022  78.517
32693DA     BB212537  57.337  90.774  78.342
32693DA     BB312538  57.217  90.869  78.192
32693DA     SC112539  56.976  90.919  78.382
32693DA     SC212540  56.743  90.834  78.410
32693DA     SC312541  56.702  91.050  78.543
32693DA     SC412542  56.970  91.059  78.460
32694DT     BB112543  57.268  90.805  78.036
32694DT     BB212544  56.978  90.599  77.975
32694DT     BB312545  56.843  90.701  77.856
32694DT     SC112546  56.769  90.854  78.056
32694DT     SC212547  56.568  90.804  78.115
32694DT     SC312548  56.731  91.070  78.202
32695DT     BB112549  56.915  90.519  77.683
32695DT     BB212550  56.556  90.489  77.710
32695DT     BB312551  56.464  90.635  77.596
32695DT     SC112552  56.524  90.821  77.771
32695DT     SC212553  56.344  90.888  77.868
32695DT     SC312554  56.632  91.038  77.876
32696DC     BB112555  56.392  90.440  77.428
32696DC     BB212556  56.083  90.605  77.513
32696DC     BB312557  56.056  90.771  77.393
32696DC     SC112558  56.237  90.907  77.526
32696DC     SC212559  56.141  91.064  77.637
32696DC     SC312560  56.459  91.040  77.577
32697DA     BB112561  55.698  90.554  77.343
32697DA     BB212562  55.606  90.904  77.404
32697DA     BB312563  55.644  91.022  77.231
32697DA     SC112564  55.934  91.096  77.315
32697DA     SC212565  56.058  91.299  77.391
32697DA     SC312566  56.269  91.172  77.319
32697DA     SC412567  56.053  91.001  77.263
32698DT     BB112568  55.487  91.124  77.086
32698DT     BB212569  55.541  91.462  77.199
32698DT     BB312570  55.632  91.573  77.051
32698DT     SC112571  55.863  91.456  77.094
32698DT     SC212572  56.000  91.597  77.181
32698DT     SC312573  56.079  91.310  77.052
32699DT     BB112574  55.405  91.734  76.953
32699DT     BB212575  55.649  91.982  77.047
32699DT     BB312576  55.760  92.039  76.881
32699DT     SC112577  55.895  91.814  76.886
32699DT     SC212578  56.098  91.854  76.944
32699DT     SC312579  55.990  91.580  76.810
32700DT     BB112580  55.639  92.293  76.850
32700DT     BB212581  55.989  92.364  76.900
32700DT     BB312582  56.086  92.375  76.718
32700DT     SC112583  56.079  92.114  76.690
32700DT     SC212584  56.279  92.035  76.708
32700DT     SC312585  56.021  91.877  76.591
32701DT     BB112586  56.113  92.646  76.747
32701DT     BB212587  56.451  92.522  76.723
32701DT     BB312588  56.509  92.513  76.524
32701DT     SC112589  56.361  92.300  76.482
32701DT     SC212590  56.489  92.130  76.450
32701DT     SC312591  56.172  92.144  76.385
32702DT     BB112592  56.671  92.714  76.585
32702DT     BB212593  56.886  92.449  76.468
32702DT     BB312594  56.897  92.453  76.262
32702DT     SC112595  56.656  92.351  76.240
32702DT     SC212596  56.670  92.150  76.164
32702DT     SC312597  56.400  92.329  76.180
32703DT     BB112598  57.146  92.535  76.299
32703DT     BB212599  57.173  92.232  76.104
32703DT     BB312600  57.146  92.274  75.903
32703DT     SC112601  56.888  92.304  75.936
32703DT     SC212602  56.784  92.142  75.840
32703DT     SC312603  56.650  92.418  75.943
32704DA     BB112604  57.492  92.044  75.964
32704DA     BB212605  57.295  91.890  75.695
32704DA     BB312606  57.303  92.011  75.519
32704DA     SC112607  57.050  92.176  75.593
32704DA     SC212608  56.815  92.201  75.512
32704DA     SC312609  56.818  92.426  75.635
32704DA     SC412610  57.072  92.314  75.674
32705DA     BB112611  57.390  91.716  75.413
32705DA     BB212612  57.097  91.735  75.192
32705DA     BB312613  57.132  91.874  75.035
32705DA     SC112614  57.015  92.117  75.191
32705DA     SC212615  56.814  92.264  75.179
32705DA     SC312616  56.952  92.429  75.320
32705DA     SC412617  57.117  92.206  75.277
32706DG     BB112618  57.074  91.612  74.888
32706DG     BB212619  56.790  91.802  74.769
32706DG     BB312620  56.847  91.929  74.628
32706DG     SC112621  56.908  92.157  74.824
32706DG     SC212622  56.760  92.415  74.844
32706DG     SC312623  57.004  92.420  75.011
32706DG     SC412624  57.054  92.167  74.888
32707DA     BB112625  56.576  91.780  74.480
32707DA     BB212626  56.424  92.112  74.439
32707DA     BB312627  56.531  92.225  74.293
32707DA     SC112628  56.726  92.353  74.499
32707DA     SC212629  56.769  92.578  74.598
32707DA     SC312630  57.000  92.485  74.658
32707DA     SC412631  56.866  92.277  74.527
32708DA     BB112632  56.211  92.238  74.222
32708DA     BB212633  56.252  92.602  74.241
32708DA     BB312634  56.378  92.671  74.083
32708DA     SC112635  56.640  92.645  74.249
32708DA     SC212636  56.809  92.797  74.352
32708DA     SC312637  56.964  92.593  74.351
32708DA     SC412638  56.722  92.507  74.238
32709DT     BB112639  56.282  92.775  73.981
32709DT     BB212640  56.441  93.089  74.056
32709DT     BB312641  56.591  93.127  73.919
32709DT     SC112642  56.749  92.950  74.030
32709DT     SC212643  56.913  93.050  74.126
32709DT     SC312644  56.897  92.733  74.060
32710DA     BB112645  56.352  93.475  73.927
32710DA     BB212646  56.703  93.581  73.926
32710DA     BB312647  56.791  93.545  73.735
32710DA     SC112648  56.890  93.259  73.808
32710DA     SC212649  57.108  93.145  73.850
32710DA     SC312650  56.979  92.928  73.802
32710DA     SC412651  56.793  93.136  73.774
32711DT     BB112652  56.854  93.700  73.573
32711DT     BB212653  57.211  93.662  73.605
32711DT     BB312654  57.287  93.567  73.438
32711DT     SC112655  57.193  93.335  73.516
32711DT     SC212656  57.356  93.206  73.573
32711DT     SC312657  57.050  93.113  73.519
32712DG     BB112658  57.496  93.923  73.379
32712DG     BB212659  57.725  93.644  73.365
32712DG     BB312660  57.729  93.569  73.181
32712DG     SC112661  57.502  93.370  73.230
32712DG     SC212662  57.527  93.073  73.234
32712DG     SC312663  57.243  93.155  73.242
32712DG     SC412664  57.351  93.417  73.204
32713DA     BB112665  58.083  93.598  73.137
32713DA     BB212666  58.116  93.234  73.107
32713DA     BB312667  58.079  93.172  72.906
32713DA     SC112668  57.774  93.129  72.951
32713DA     SC212669  57.614  92.937  72.962
32713DA     SC312670  57.433  93.112  72.914
32713DA     SC412671  57.676  93.252  72.919
32714DT     BB112672  58.232  93.087  72.785
32714DT     BB212673  58.119  92.746  72.815
32714DT     BB312674  58.038  92.682  72.635
32714DT     SC112675  57.821  92.824  72.673
32714DT     SC212676  57.655  92.692  72.709
32714DT     SC312677  57.634  93.007  72.637
32715DA     BB112678  58.318  92.406  72.779
32715DA     BB212679  58.010  92.226  72.694
32715DA     BB312680  57.986  92.216  72.482
32715DA     SC112681  57.821  92.480  72.465
32715DA     SC212682  57.587  92.548  72.416
32715DA     SC312683  57.686  92.780  72.367
32715DA     SC412684  57.902  92.616  72.438
32716DA     BB112685  57.953  91.911  72.592
32716DA     BB212686  57.619  91.920  72.441
32716DA     BB312687  57.634  91.922  72.228
32716DA     SC112688  57.639  92.233  72.208
32716DA     SC212689  57.489  92.415  72.127
32716DA     SC312690  57.701  92.558  72.117
32716DA     SC412691  57.782  92.305  72.207
32717DA     BB112692  57.425  91.676  72.289
32717DA     BB212693  57.186  91.859  72.079
32717DA     BB312694  57.248  91.854  71.875
32717DA     SC112695  57.414  92.117  71.894
32717DA     SC212696  57.400  92.351  71.808
32717DA     SC312697  57.651  92.362  71.857
32717DA     SC412698  57.570  92.104  71.930
32718DT     BB112699  57.138  91.749  71.735
32718DT     BB212700  57.002  92.032  71.556
32718DT     BB312701  57.102  92.056  71.376
32718DT     SC112702  57.313  92.154  71.497
32718DT     SC212703  57.330  92.364  71.450
32718DT     SC312704  57.561  92.178  71.582
32719DA     BB112705  56.706  92.023  71.224
32719DA     BB212706  56.856  92.314  71.059
32719DA     BB312707  56.986  92.251  70.902
32719DA     SC112708  57.239  92.237  71.083
32719DA     SC212709  57.453  92.363  71.110
32719DA     SC312710  57.538  92.151  71.229
32719DA     SC412711  57.273  92.096  71.152
32720DC     BB112712  56.972  92.265  70.638
32720DC     BB212713  57.211  92.533  70.608
32720DC     BB312714  57.379  92.468  70.505
32720DC     SC112715  57.463  92.332  70.713
32720DC     SC212716  57.640  92.426  70.793
32720DC     SC312717  57.534  92.128  70.864
32721DA     BB112718  57.277  92.794  70.255
32721DA     BB212719  57.628  92.840  70.351
32721DA     BB312720  57.754  92.719  70.229
32721DA     SC112721  57.746  92.474  70.420
32721DA     SC212722  57.903  92.354  70.574
32721DA     SC312723  57.740  92.157  70.553
32721DA     SC412724  57.634  92.362  70.394
32722DC     BB112725  57.898  92.805  70.090
32722DC     BB212726  58.183  92.752  70.305
32722DC     BB312727  58.305  92.605  70.225
32722DC     SC112728  58.137  92.417  70.297
32722DC     SC212729  58.224  92.300  70.455
32722DC     SC312730  57.965  92.217  70.279
32723DT     BB112731  58.479  92.801  70.176
32723DT     BB212732  58.648  92.574  70.401
32723DT     BB312733  58.735  92.420  70.294
32723DT     SC112734  58.502  92.306  70.254
32723DT     SC212735  58.492  92.123  70.367
32723DT     SC312736  58.291  92.210  70.128
32724DT     BB112737  58.950  92.541  70.377
32724DT     BB212738  58.966  92.207  70.511
32724DT     BB312739  59.032  92.075  70.366
32724DT     SC112740  58.800  92.082  70.244
32724DT     SC212741  58.702  91.892  70.267
32724DT     SC312742  58.619  92.124  70.057
32725DC     BB112743  59.232  92.071  70.529
32725DC     BB212744  59.115  91.730  70.506
32725DC     BB312745  59.181  91.645  70.330
32725DC     SC112746  59.006  91.781  70.189
32725DC     SC212747  58.857  91.646  70.112
32725DC     SC312748  58.908  91.951  70.013
32726DG     BB112749  59.281  91.427  70.660
32726DG     BB212750  59.115  91.227  70.409
32726DG     BB312751  59.237  91.194  70.256
32726DG     SC112752  59.152  91.444  70.102
32726DG     SC212753  59.005  91.449  69.843
32726DG     SC312754  59.097  91.720  69.916
32726DG     SC412755  59.228  91.582  70.131
32727DT     BB112756  59.276  91.000  70.223
32727DT     BB212757  59.090  90.934  69.920
32727DT     BB312758  59.216  90.950  69.756
32727DT     SC112759  59.218  91.212  69.773
32727DT     SC212760  59.111  91.294  69.606
32727DT     SC312761  59.308  91.457  69.804
32728DG     BB112762  59.040  90.582  69.759
32728DG     BB212763  59.000  90.748  69.440
32728DG     BB312764  59.171  90.741  69.339
32728DG     SC112765  59.278  91.004  69.454
32728DG     SC212766  59.323  91.257  69.301
32728DG     SC312767  59.433  91.278  69.575
32728DG     SC412768  59.361  91.001  69.590
32729DA     BB112769  58.973  90.619  69.082
32729DA     BB212770  59.081  90.897  68.869
32729DA     BB312771  59.282  90.868  68.806
32729DA     SC112772  59.405  91.022  69.047
32729DA     SC212773  59.525  91.237  69.088
32729DA     SC312774  59.605  91.128  69.305
32729DA     SC412775  59.446  90.936  69.177
32730DT     BB112776  59.304  90.842  68.619
32730DT     BB212777  59.448  91.163  68.542
32730DT     BB312778  59.654  91.146  68.524
32730DT     SC112779  59.684  91.125  68.784
32730DT     SC212780  59.779  91.302  68.859
32730DT     SC312781  59.744  91.022  69.019
32731DC     BB112782  59.628  91.181  68.258
32731DC     BB212783  59.858  91.439  68.362
32731DC     BB312784  60.051  91.364  68.367
32731DC     SC112785  60.002  91.232  68.588
32731DC     SC212786  60.111  91.322  68.751
32731DC     SC312787  59.970  91.030  68.755
32732DC     BB112788  60.104  91.512  68.150
32732DC     BB212789  60.347  91.616  68.395
32732DC     BB312790  60.509  91.487  68.394
32732DC     SC112791  60.372  91.301  68.518
32732DC     SC212792  60.449  91.277  68.717
32732DC     SC312793  60.251  91.071  68.564
32733DA     BB112794  60.657  91.879  68.361
32733DA     BB212795  60.849  91.706  68.622
32733DA     BB312796  60.980  91.562  68.534
32733DA     SC112797  60.774  91.330  68.549
32733DA     SC212798  60.744  91.117  68.676
32733DA     SC312799  60.585  91.050  68.486
32733DA     SC412800  60.680  91.305  68.420
32734DA     BB112801  61.199  91.730  68.715
32734DA     BB212802  61.267  91.414  68.888
32734DA     BB312803  61.380  91.283  68.763
32734DA     SC112804  61.129  91.147  68.639
32734DA     SC212805  61.017  90.924  68.647
32734DA     SC312806  60.905  90.995  68.427
32734DA     SC412807  61.071  91.209  68.502
32735DG     BB112808  61.602  91.295  68.985
32735DG     BB212809  61.531  90.941  69.014
32735DG     BB312810  61.630  90.840  68.874
32735DG     SC112811  61.408  90.861  68.665
32735DG     SC212812  61.246  90.633  68.559
32735DG     SC312813  61.193  90.881  68.406
32735DG     SC412814  61.404  90.987  68.568
32736DA     BB112815  61.775  90.625  69.116
32736DA     BB212816  61.620  90.334  68.956
32736DA     BB312817  61.732  90.276  68.783
32736DA     SC112818  61.569  90.456  68.588
32736DA     SC212819  61.405  90.425  68.402
32736DA     SC312820  61.471  90.663  68.332
32736DA     SC412821  61.624  90.604  68.559
32737DA     BB112822  61.769  89.965  68.909
32737DA     BB212823  61.578  89.840  68.622
32737DA     BB312824  61.704  89.820  68.452
32737DA     SC112825  61.651  90.107  68.347
32737DA     SC212826  61.532  90.215  68.155
32737DA     SC312827  61.679  90.420  68.207
32737DA     SC412828  61.751  90.224  68.394
32738DT     BB112829  61.775  89.618  68.343
32738DT     BB212830  61.549  89.653  68.064
32738DT     BB312831  61.656  89.687  67.890
32738DT     SC112832  61.706  89.935  67.960
32738DT     SC212833  61.597  90.069  67.832
32738DT     SC312834  61.841  90.151  68.029
32739DT     BB112835  61.615  89.430  67.779
32739DT     BB212836  61.469  89.657  67.540
32739DT     BB312837  61.609  89.710  67.397
32739DT     SC112838  61.732  89.868  67.566
32739DT     SC212839  61.703  90.073  67.507
32739DT     SC312840  61.922  89.967  67.721
32740DG     BB112841  61.283  89.546  67.220
32740DG     BB212842  61.350  89.881  67.101
32740DG     BB312843  61.500  89.878  66.971
32740DG     SC112844  61.717  89.919  67.183
32740DG     SC212845  61.890  90.160  67.213
32740DG     SC312846  61.981  89.942  67.391
32740DG     SC412847  61.780  89.790  67.255
32741DA     BB112848  61.255  90.059  66.823
32741DA     BB212849  61.487  90.343  66.809
32741DA     BB312850  61.642  90.305  66.668
32741DA     SC112851  61.833  90.174  66.877
32741DA     SC212852  62.048  90.230  66.990
32741DA     SC312853  62.065  89.978  67.036
32741DA     SC412854  61.825  90.015  66.894
32742DT     BB112855  61.613  90.430  66.567
32742DT     BB212856  61.902  90.627  66.654
32742DT     BB312857  62.063  90.572  66.536
32742DT     SC112858  62.096  90.350  66.671
32742DT     SC212859  62.279  90.362  66.784
32742DT     SC312860  62.110  90.092  66.725
32743DT     BB112861  62.019  90.811  66.445
32743DT     BB212862  62.363  90.808  66.552
32743DT     BB312863  62.480  90.713  66.411
32743DT     SC112864  62.391  90.477  66.484
32743DT     SC212865  62.549  90.368  66.581
32743DT     SC312866  62.270  90.243  66.472
32744DA     BB112867  62.657  91.085  66.498
32744DA     BB212868  62.920  90.829  66.506
32744DA     BB312869  62.962  90.760  66.308
32744DA     SC112870  62.754  90.530  66.317
32744DA     SC212871  62.754  90.280  66.325
32744DA     SC312872  62.513  90.297  66.240
32744DA     SC412873  62.606  90.561  66.262
32745DT     BB112874  63.146  90.800  66.214
32745DT     BB212875  63.281  90.466  66.238
32745DT     BB312876  63.278  90.376  66.052
32745DT     SC112877  63.018  90.339  66.065
32745DT     SC212878  62.976  90.129  66.087
32745DT     SC312879  62.761  90.359  66.008
32746DA     BB112880  63.676  90.338  66.178
32746DA     BB212881  63.562  90.006  66.070
32746DA     BB312882  63.555  89.996  65.858
32746DA     SC112883  63.259  90.091  65.839
32746DA     SC212884  63.037  89.993  65.779
32746DA     SC312885  62.963  90.236  65.744
32746DA     SC412886  63.232  90.248  65.821
32747DA     BB112887  63.745  89.736  65.912
32747DA     BB212888  63.476  89.535  65.764
32747DA     BB312889  63.477  89.554  65.551
32747DA     SC112890  63.282  89.796  65.548
32747DA     SC212891  63.047  89.843  65.478
32747DA     SC312892  63.118  90.089  65.474
32747DA     SC412893  63.346  89.944  65.550
32748DT     BB112894  63.514  89.394  65.471
32748DT     BB212895  63.178  89.324  65.361
32748DT     BB312896  63.158  89.372  65.161
32748DT     SC112897  63.154  89.629  65.214
32748DT     SC212898  62.957  89.707  65.176
32748DT     SC312899  63.226  89.883  65.218
32749DT     BB112900  63.132  89.117  65.161
32749DT     BB212901  62.828  89.249  65.018
32749DT     BB312902  62.861  89.308  64.822
32749DT     SC112903  62.991  89.522  64.901
32749DT     SC212904  62.874  89.697  64.856
32749DT     SC312905  63.188  89.693  64.936
32750DT     BB112906  62.696  89.115  64.816
32750DT     BB212907  62.539  89.391  64.645
32750DT     BB312908  62.631  89.422  64.462
32750DT     SC112909  62.840  89.531  64.577
32750DT     SC212910  62.845  89.742  64.532
32750DT     SC312911  63.090  89.568  64.655
32751DT     BB112912  62.403  89.333  64.375
32751DT     BB212913  62.453  89.646  64.205
32751DT     BB312914  62.585  89.621  64.047
32751DT     SC112915  62.790  89.606  64.211
32751DT     SC212916  62.912  89.781  64.189
32751DT     SC312917  62.998  89.507  64.339
32752DC     BB112918  62.380  89.644  63.874
32752DC     BB212919  62.622  89.886  63.758
32752DC     BB312920  62.760  89.793  63.634
32752DC     SC112921  62.879  89.680  63.839
32752DC     SC212922  63.073  89.768  63.866
32752DC     SC312923  62.969  89.492  64.001
32753DG     BB112924  62.598  90.073  63.381
32753DG     BB212925  62.959  90.087  63.371
32753DG     BB312926  63.030  89.945  63.252
32753DG     SC112927  63.051  89.735  63.474
32753DG     SC212928  63.304  89.619  63.581
32753DG     SC312929  63.069  89.476  63.688
32753DG     SC412930  62.925  89.643  63.506
32754DC     BB112931  63.150  89.970  63.039
32754DC     BB212932  63.486  89.884  63.139
32754DC     BB312933  63.537  89.699  63.062
32754DC     SC112934  63.387  89.575  63.238
32754DC     SC212935  63.512  89.469  63.377
32754DC     SC312936  63.193  89.427  63.338
32755DA     BB112937  63.851  89.940  62.919
32755DA     BB212938  64.005  89.644  63.071
32755DA     BB312939  63.989  89.477  62.940
32755DA     SC112940  63.717  89.381  63.057
32755DA     SC212941  63.632  89.190  63.194
32755DA     SC312942  63.401  89.253  63.100
32755DA     SC412943  63.583  89.434  62.987
32756DG     BB112944  64.306  89.458  62.924
32756DG     BB212945  64.256  89.140  63.089
32756DG     BB312946  64.223  88.998  62.954
32756DG     SC112947  63.919  89.036  62.951
32756DG     SC212948  63.717  88.839  63.048
32756DG     SC312949  63.586  89.065  62.909
32756DG     SC412950  63.855  89.143  62.851
32757DA     BB112951  64.482  88.800  63.087
32757DA     BB212952  64.243  88.533  63.165
32757DA     BB312953  64.200  88.419  62.990
32757DA     SC112954  63.958  88.594  62.905
32757DA     SC212955  63.710  88.572  62.892
32757DA     SC312956  63.721  88.769  62.729
32757DA     SC412957  63.986  88.716  62.805
32758DG     BB112958  64.321  88.159  63.129
32758DG     BB212959  63.980  88.039  63.108
32758DG     BB312960  63.949  87.951  62.933
32758DG     SC112961  63.861  88.207  62.791
32758DG     SC212962  63.587  88.264  62.686
32758DG     SC312963  63.778  88.472  62.599
32758DG     SC412964  63.971  88.300  62.722
32759DA     BB112965  63.832  87.658  63.089
32759DA     BB212966  63.504  87.700  62.930
32759DA     BB312967  63.509  87.627  62.730
32759DA     SC112968  63.591  87.901  62.606
32759DA     SC212969  63.488  88.076  62.462
32759DA     SC312970  63.729  88.149  62.413
32759DA     SC412971  63.748  87.930  62.587
32760DT     BB112972  63.396  87.451  62.664
32760DT     BB212973  63.138  87.637  62.494
32760DT     BB312974  63.156  87.612  62.290
32760DT     SC112975  63.364  87.771  62.280
32760DT     SC212976  63.310  87.953  62.178
32760DT     SC312977  63.612  87.854  62.243
32761DA     BB112978  62.762  87.528  62.401
32761DA     BB212979  62.753  87.771  62.127
32761DA     BB312980  62.802  87.676  61.942
32761DA     SC112981  63.107  87.733  61.966
32761DA     SC212982  63.277  87.876  61.854
32761DA     SC312983  63.450  87.713  61.953
32761DA     SC412984  63.198  87.620  62.035
32762DT     BB112985  62.659  87.683  61.829
32762DT     BB212986  62.790  87.940  61.612
32762DT     BB312987  62.871  87.854  61.442
32762DT     SC112988  63.082  87.771  61.574
32762DT     SC212989  63.255  87.882  61.510
32762DT     SC312990  63.259  87.608  61.683
32763DA     BB112991  62.614  88.179  61.363
32763DA     BB212992  62.924  88.222  61.171
32763DA     BB312993  62.938  88.074  61.019
32763DA     SC112994  63.091  87.870  61.197
32763DA     SC212995  63.321  87.774  61.211
32763DA     SC312996  63.211  87.585  61.346
32763DA     SC412997  63.004  87.762  61.278
32764DA     BB112998  62.987  88.359  60.864
32764DA     BB212999  63.310  88.218  60.760
32764DA     BB313000  63.280  88.060  60.620
32764DA     SC113001  63.266  87.838  60.837
32764DA     SC213002  63.405  87.645  60.914
32764DA     SC313003  63.189  87.557  61.019
32764DA     SC413004  63.121  87.799  60.894
32765DT     BB113005  63.346  88.093  60.441
32765DT     BB213006  63.627  87.867  60.450
32765DT     BB313007  63.579  87.692  60.351
32765DT     SC113008  63.428  87.611  60.550
32765DT     SC213009  63.522  87.444  60.647
32765DT     SC313010  63.214  87.537  60.684
32766DT     BB113011  63.735  87.752  60.129
32766DT     BB213012  63.856  87.429  60.233
32766DT     BB313013  63.746  87.279  60.142
32766DT     SC113014  63.541  87.323  60.299
32766DT     SC213015  63.518  87.156  60.433
32766DT     SC313016  63.298  87.388  60.378
32767DC     BB113017  63.944  87.201  59.952
32767DC     BB213018  63.867  86.895  60.126
32767DC     BB313019  63.716  86.793  60.028
32767DC     SC113020  63.535  86.962  60.116
32767DC     SC213021  63.408  86.863  60.259
32767DC     SC313022  63.347  87.147  60.116
32768DT     BB113023  63.878  86.589  59.914
32768DT     BB213024  63.633  86.408  60.107
32768DT     BB313025  63.471  86.359  59.988
32768DT     SC113026  63.384  86.607  59.993
32768DT     SC213027  63.202  86.616  60.108
32768DT     SC313028  63.313  86.847  59.909
32769DT     BB113029  63.543  86.095  59.984
32769DT     BB213030  63.212  86.099  60.128
32769DT     BB313031  63.070  86.087  59.979
32769DT     SC113032  63.110  86.336  59.909
32769DT     SC213033  62.938  86.454  59.962
32769DT     SC313034  63.177  86.545  59.763
32770DC     BB113035  63.025  85.847  60.078
32770DC     BB213036  62.713  86.026  60.111
32770DC     BB313037  62.609  86.018  59.932
32770DC     SC113038  62.769  86.194  59.822
32770DC     SC213039  62.663  86.378  59.791
32770DC     SC313040  62.948  86.298  59.658
32771DT     BB113041  62.445  85.863  60.069
32771DT     BB213042  62.241  86.137  59.953
32771DT     BB313043  62.179  86.102  59.759
32771DT     SC113044  62.418  86.158  59.664
32771DT     SC213045  62.410  86.343  59.555
32771DT     SC313046  62.651  86.126  59.545
32772DT     BB113047  61.941  86.071  59.870
32772DT     BB213048  61.898  86.332  59.624
32772DT     BB313049  61.869  86.248  59.437
32772DT     SC113050  62.122  86.185  59.416
32772DT     SC213051  62.215  86.308  59.266
32772DT     SC313052  62.341  86.038  59.395
32773DA     BB113053  61.567  86.530  59.509
32773DA     BB213054  61.701  86.591  59.173
32773DA     BB313055  61.638  86.438  59.039
32773DA     SC113056  61.886  86.257  59.092
32773DA     SC213057  62.089  86.181  58.969
32773DA     SC313058  62.097  85.991  59.141
32773DA     SC413059  61.873  86.145  59.208
32774DT     BB113060  61.513  86.487  58.890
32774DT     BB213061  61.752  86.466  58.621
32774DT     BB313062  61.720  86.293  58.511
32774DT     SC113063  61.826  86.145  58.700
32774DT     SC213064  62.014  86.066  58.632
32774DT     SC313065  61.847  85.964  58.890
32775DC     BB113066  61.619  86.441  58.306
32775DC     BB213067  61.889  86.253  58.158
32775DC     BB313068  61.820  86.068  58.094
32775DC     SC113069  61.810  85.978  58.340
32775DC     SC213070  61.962  85.829  58.368
32775DC     SC313071  61.711  85.884  58.566
32776DA     BB113072  62.028  86.251  57.780
32776DA     BB213073  62.150  85.907  57.811
32776DA     BB313074  62.004  85.769  57.741
32776DA     SC113075  61.868  85.733  58.018
32776DA     SC213076  61.846  85.555  58.192
32776DA     SC313077  61.643  85.689  58.274
32776DA     SC413078  61.744  85.830  58.053
32777DC     BB113079  62.058  85.674  57.588
32777DC     BB213080  62.110  85.354  57.745
32777DC     BB313081  61.949  85.230  57.708
32777DC     SC113082  61.799  85.360  57.880
32777DC     SC213083  61.762  85.235  58.051
32777DC     SC313084  61.604  85.508  57.977
32778DG     BB113085  62.290  85.047  57.582
32778DG     BB213086  62.091  84.827  57.790
32778DG     BB313087  61.936  84.758  57.686
32778DG     SC113088  61.750  84.989  57.765
32778DG     SC213089  61.506  84.967  57.936
32778DG     SC313090  61.526  85.236  57.814
32778DG     SC413091  61.748  85.121  57.674
32779DT     BB113092  61.914  84.544  57.644
32779DT     BB213093  61.637  84.447  57.853
32779DT     BB313094  61.465  84.432  57.740
32779DT     SC113095  61.443  84.693  57.725
32779DT     SC213096  61.273  84.757  57.840
32779DT     SC313097  61.432  84.936  57.622
32780DT     BB113098  61.457  84.149  57.730
32780DT     BB213099  61.126  84.234  57.845
32780DT     BB313100  60.999  84.257  57.683
32780DT     SC113101  61.105  84.489  57.623
32780DT     SC213102  60.963  84.645  57.663
32780DT     SC313103  61.234  84.676  57.488
32781DA     BB113104  60.767  83.950  57.870
32781DA     BB213105  60.529  84.213  57.779
32781DA     BB313106  60.475  84.197  57.573
32781DA     SC113107  60.702  84.385  57.474
32781DA     SC213108  60.722  84.613  57.375
32781DA     SC313109  60.953  84.535  57.294
32781DA     SC413110  60.841  84.317  57.431
32782DT     BB113111  60.254  84.126  57.452
32782DT     BB213112  60.160  84.461  57.355
32782DT     BB313113  60.160  84.477  57.149
32782DT     SC113114  60.422  84.482  57.142
32782DT     SC213115  60.489  84.679  57.084
32782DT     SC313116  60.671  84.410  57.089
32783DG     BB113117  59.759  84.557  57.214
32783DG     BB213118  59.911  84.824  57.023
32783DG     BB313119  59.907  84.779  56.829
32783DG     SC113120  60.179  84.637  56.832
32783DG     SC213121  60.427  84.730  56.694
32783DG     SC313122  60.462  84.457  56.802
32783DG     SC413123  60.184  84.481  56.865
32784DT     BB113124  59.790  84.902  56.661
32784DT     BB213125  60.066  85.084  56.516
32784DT     BB313126  60.106  85.012  56.327
32784DT     SC113127  60.218  84.796  56.424
32784DT     SC213128  60.430  84.802  56.386
32784DT     SC313129  60.261  84.541  56.477
32785DT     BB113130  60.009  85.244  56.232
32785DT     BB213131  60.350  85.230  56.114
32785DT     BB313132  60.358  85.125  55.936
32785DT     SC113133  60.326  84.896  56.060
32785DT     SC213134  60.509  84.783  56.051
32785DT     SC313135  60.218  84.667  56.135
32786DC     BB113136  60.416  85.361  55.842
32786DC     BB213137  60.697  85.152  55.756
32786DC     BB313138  60.654  85.043  55.585
32786DC     SC113139  60.495  84.882  55.718
32786DC     SC213140  60.585  84.687  55.731
32786DC     SC313141  60.275  84.758  55.795
32787DT     BB113142  60.838  85.200  55.491
32787DT     BB213143  60.955  84.865  55.428
32787DT     BB313144  60.862  84.788  55.260
32787DT     SC113145  60.638  84.751  55.393
32787DT     SC213146  60.604  84.540  55.418
32787DT     SC313147  60.385  84.775  55.464
32788DT     BB113148  61.100  84.812  55.153
32788DT     BB213149  61.009  84.466  55.103
32788DT     BB313150  60.885  84.449  54.938
32788DT     SC113151  60.682  84.548  55.071
32788DT     SC213152  60.536  84.393  55.104
32788DT     SC313153  60.487  84.712  55.140
32789DC     BB113154  61.089  84.337  54.800
32789DC     BB213155  60.819  84.101  54.764
32789DC     BB313156  60.699  84.155  54.605
32789DC     SC113157  60.592  84.351  54.742
32789DC     SC213158  60.386  84.304  54.786
32789DC     SC313159  60.525  84.596  54.814
32790DA     BB113160  60.797  83.757  54.503
32790DA     BB213161  60.435  83.793  54.454
32790DA     BB313162  60.395  83.900  54.274
32790DA     SC113163  60.392  84.179  54.412
32790DA     SC213164  60.225  84.355  54.468
32790DA     SC313165  60.427  84.513  54.486
32790DA     SC413166  60.530  84.261  54.417
32791DT     BB113167  60.299  83.823  54.058
32791DT     BB213168  59.977  83.980  54.098
32791DT     BB313169  59.953  84.130  53.958
32791DT     SC113170  60.116  84.289  54.088
32791DT     SC213171  60.004  84.452  54.173
32791DT     SC313172  60.326  84.438  54.142
32792DC     BB113173  59.770  84.001  53.762
32792DC     BB213174  59.593  84.302  53.853
32792DC     BB313175  59.630  84.451  53.715
32792DC     SC113176  59.872  84.489  53.810
32792DC     SC213177  59.880  84.681  53.908
32792DC     SC313178  60.135  84.500  53.822
32793DA     BB113179  59.212  84.432  53.721
32793DA     BB213180  59.305  84.783  53.771
32793DA     BB313181  59.360  84.872  53.586
32793DA     SC113182  59.662  84.800  53.613
32793DA     SC213183  59.877  84.920  53.652
32793DA     SC313184  59.988  84.711  53.553
32793DA     SC413185  59.712  84.662  53.548
32794DT     BB113186  59.243  85.023  53.509
32794DT     BB213187  59.466  85.293  53.598
32794DT     BB313188  59.558  85.367  53.428
32794DT     SC113189  59.716  85.159  53.412
32794DT     SC213190  59.918  85.218  53.458
32794DT     SC313191  59.829  84.939  53.319
32795DA     BB113192  59.393  85.676  53.657
32795DA     BB213193  59.740  85.765  53.576
32795DA     BB313194  59.757  85.815  53.370
32795DA     SC113195  59.823  85.525  53.279
32795DA     SC213196  60.019  85.400  53.190
32795DA     SC313197  59.847  85.229  53.106
32795DA     SC413198  59.700  85.432  53.234
32796DG     BB113199  59.856  86.067  53.514
32796DG     BB213200  60.164  85.983  53.344
32796DG     BB313201  60.152  86.035  53.152
32796DG     SC113202  60.037  85.765  53.062
32796DG     SC213203  60.175  85.566  52.887
32796DG     SC313204  59.892  85.491  52.931
32796DG     SC413205  59.879  85.744  53.063
32797DT     BB113206  60.288  86.178  53.082
32797DT     BB213207  60.511  85.982  52.877
32797DT     BB313208  60.460  86.003  52.677
32797DT     SC113209  60.250  85.848  52.707
32797DT     SC213210  60.283  85.662  52.603
32797DT     SC313211  59.998  85.770  52.714
32798DC     BB113212  60.680  86.159  52.632
32798DC     BB213213  60.708  85.895  52.387
32798DC     BB313214  60.603  85.946  52.216
32798DC     SC113215  60.373  85.898  52.333
32798DC     SC213216  60.284  85.723  52.246
32798DC     SC313217  60.133  85.939  52.435
32799DC     BB113218  60.831  86.009  52.057
32799DC     BB213219  60.654  85.766  51.857
32799DC     BB313220  60.523  85.862  51.729
32799DC     SC113221  60.357  85.914  51.925
32799DC     SC213222  60.178  85.796  51.900
32799DC     SC313223  60.212  86.050  52.098
32800DT     BB113224  60.674  85.831  51.486
32800DT     BB213225  60.354  85.685  51.405
32800DT     BB313226  60.231  85.827  51.319
32800DT     SC113227  60.190  85.943  51.551
32800DT     SC213228  59.986  85.910  51.612
32800DT     SC313229  60.190  86.127  51.740
32801DG     BB113230  60.256  85.543  51.025
32801DG     BB213231  59.911  85.615  51.105
32801DG     BB313232  59.852  85.780  51.010
32801DG     SC113233  59.937  85.969  51.235
32801DG     SC213234  59.753  86.133  51.405
32801DG     SC313235  60.036  86.207  51.453
32801DG     SC413236  60.086  86.027  51.237
32802DT     BB113237  59.684  85.784  50.851
32802DT     BB213238  59.416  85.927  51.045
32802DT     BB313239  59.383  86.123  50.987
32802DT     SC113240  59.600  86.204  51.111
32802DT     SC213241  59.544  86.323  51.281
32802DT     SC313242  59.840  86.306  51.150
32803DT     BB113243  59.149  86.051  50.866
32803DT     BB213244  59.055  86.298  51.112
32803DT     BB313245  59.070  86.488  51.030
32803DT     SC113246  59.332  86.482  51.046
32803DT     SC213247  59.398  86.621  51.196
32803DT     SC313248  59.585  86.481  50.971
32804DA     BB113249  58.694  86.438  51.208
32804DA     BB213250  58.843  86.748  51.336
32804DA     BB313251  58.843  86.898  51.185
32804DA     SC113252  59.125  86.822  51.076
32804DA     SC213253  59.354  86.920  51.072
32804DA     SC313254  59.397  86.760  50.877
32804DA     SC413255  59.132  86.716  50.955
32805DA     BB113256  58.703  87.038  51.441
32805DA     BB213257  58.981  87.276  51.432
32805DA     BB313258  58.962  87.406  51.263
32805DA     SC113259  59.126  87.223  51.073
32805DA     SC213260  59.348  87.228  50.958
32805DA     SC313261  59.248  87.052  50.801
32805DA     SC413262  59.046  87.116  50.984
32806DA     BB113263  59.010  87.586  51.530
32806DA     BB213264  59.310  87.707  51.358
32806DA     BB313265  59.256  87.826  51.189
32806DA     SC113266  59.253  87.586  50.991
32806DA     SC213267  59.389  87.504  50.798
32806DA     SC313268  59.180  87.368  50.735
32806DA     SC413269  59.113  87.510  50.968
32807DC     BB113270  59.321  87.976  51.227
32807DC     BB213271  59.591  87.971  50.988
32807DC     BB313272  59.530  88.059  50.810
32807DC     SC113273  59.387  87.848  50.747
32807DC     SC213274  59.478  87.747  50.580
32807DC     SC313275  59.177  87.698  50.690
32808DA     BB113276  59.909  88.185  50.953
32808DA     BB213277  59.933  88.111  50.595
32808DA     BB313278  59.816  88.249  50.482
32808DA     SC113279  59.558  88.074  50.489
32808DA     SC213280  59.422  87.941  50.329
32808DA     SC313281  59.234  87.963  50.502
32808DA     SC413282  59.454  88.101  50.608
32809DA     BB113283  60.116  88.240  50.344
32809DA     BB213284  59.939  88.153  50.035
32809DA     BB313285  59.818  88.316  49.970
32809DA     SC113286  59.566  88.223  50.126
32809DA     SC213287  59.340  88.130  50.074
32809DA     SC313288  59.275  88.210  50.310
32809DA     SC413289  59.545  88.281  50.275
32810DA     BB113290  59.988  88.253  49.692
32810DA     BB213291  59.663  88.213  49.527
32810DA     BB313292  59.564  88.402  49.511
32810DA     SC113293  59.416  88.374  49.783
32810DA     SC213294  59.182  88.341  49.864
32810DA     SC313295  59.268  88.434  50.087
32810DA     SC413296  59.488  88.436  49.914
32811DT     BB113297  59.526  88.527  49.319
32811DT     BB213298  59.169  88.480  49.298
32811DT     BB313299  59.072  88.658  49.342
32811DT     SC113300  59.124  88.632  49.598
32811DT     SC213301  58.941  88.592  49.704
32811DT     SC313302  59.222  88.682  49.837
32812DA     BB113303  58.900  88.605  48.956
32812DA     BB213304  58.621  88.684  49.180
32812DA     BB313305  58.611  88.895  49.213
32812DA     SC113306  58.795  88.890  49.464
32812DA     SC213307  58.773  88.924  49.710
32812DA     SC313308  59.026  88.964  49.706
32812DA     SC413309  58.952  88.913  49.441
32813DG     BB113310  58.315  88.941  49.076
32813DG     BB213311  58.212  89.028  49.412
32813DG     BB313312  58.228  89.224  49.439
32813DG     SC113313  58.517  89.212  49.539
32813DG     SC213314  58.611  89.277  49.815
32813DG     SC313315  58.840  89.238  49.632
32813DG     SC413316  58.637  89.220  49.432
32814DT     BB113317  58.046  89.391  49.483
32814DT     BB213318  58.093  89.442  49.837
32814DT     BB313319  58.166  89.633  49.872
32814DT     SC113320  58.405  89.567  49.786
32814DT     SC213321  58.542  89.564  49.952
32814DT     SC313322  58.623  89.563  49.638
32815DT     BB113323  57.924  89.720  49.976
32815DT     BB213324  58.161  89.778  50.242
32815DT     BB313325  58.242  89.968  50.224
32815DT     SC113326  58.392  89.893  50.022
32815DT     SC213327  58.598  89.891  50.083
32815DT     SC313328  58.491  89.879  49.778
32816DG     BB113329  58.071  89.943  50.592
32816DG     BB213330  58.415  90.052  50.614
32816DG     BB313331  58.428  90.245  50.568
32816DG     SC113332  58.470  90.197  50.269
32816DG     SC213333  58.720  90.255  50.116
32816DG     SC313334  58.499  90.181  49.933
32816DG     SC413335  58.343  90.186  50.173
32817DC     BB113336  58.499  90.392  50.718
32817DC     BB213337  58.831  90.466  50.597
32817DC     BB313338  58.832  90.650  50.503
32817DC     SC113339  58.709  90.554  50.293
32817DC     SC213340  58.845  90.551  50.126
32817DC     SC313341  58.523  90.516  50.110
32818DA     BB113342  59.142  90.662  50.786
32818DA     BB213343  59.277  90.786  50.469
32818DA     BB313344  59.206  90.983  50.430
32818DA     SC113345  58.956  90.888  50.272
32818DA     SC213346  58.874  90.890  50.036
32818DA     SC313347  58.641  90.855  50.138
32818DA     SC413348  58.819  90.867  50.354
32819DC     BB113349  59.336  91.156  50.431
32819DC     BB213350  59.345  91.205  50.074
32819DC     BB313351  59.236  91.374  50.023
32819DC     SC113352  59.009  91.248  50.063
32819DC     SC213353  58.911  91.218  49.874
32819DC     SC313354  58.775  91.186  50.166
32820DC     BB113355  59.462  91.533  49.968
32820DC     BB213356  59.271  91.545  49.662
32820DC     BB313357  59.141  91.705  49.666
32820DC     SC113358  58.981  91.582  49.834
32820DC     SC213359  58.798  91.530  49.734
32820DC     SC313360  58.846  91.528  50.054
32821DT     BB113361  59.290  91.847  49.483
32821DT     BB213362  58.964  91.821  49.332
32821DT     BB313363  58.845  91.981  49.391
32821DT     SC113364  58.812  91.876  49.630
32821DT     SC213365  58.608  91.812  49.651
32821DT     SC313366  58.822  91.848  49.892
32822DT     BB113367  58.862  92.095  49.143
32822DT     BB213368  58.509  92.050  49.198
32822DT     BB313369  58.431  92.215  49.296
32822DT     SC113370  58.539  92.141  49.523
32822DT     SC213371  58.385  92.079  49.659
32822DT     SC313372  58.692  92.144  49.738
32823DA     BB113373  58.195  92.147  48.957
32823DA     BB213374  57.972  92.178  49.247
32823DA     BB313375  57.959  92.382  49.309
32823DA     SC113376  58.196  92.360  49.509
32823DA     SC213377  58.230  92.362  49.756
32823DA     SC313378  58.474  92.421  49.702
32823DA     SC413379  58.343  92.398  49.455
32824DC     BB113380  57.783  92.469  49.290
32824DC     BB213381  57.697  92.461  49.640
32824DC     BB313382  57.719  92.650  49.723
32824DC     SC113383  57.981  92.627  49.722
32824DC     SC213384  58.051  92.611  49.925
32824DC     SC313385  58.234  92.674  49.665
32825DT     BB113386  57.455  92.653  49.737
32825DT     BB213387  57.570  92.695  50.077
32825DT     BB313388  57.614  92.894  50.112
32825DT     SC113389  57.836  92.878  49.973
32825DT     SC213390  58.005  92.894  50.105
32825DT     SC313391  58.013  92.923  49.782
32826DA     BB113392  57.376  92.717  50.410
32826DA     BB213393  57.656  92.892  50.570
32826DA     BB313394  57.634  93.103  50.548
32826DA     SC113395  57.794  93.116  50.281
32826DA     SC213396  58.013  93.204  50.202
32826DA     SC313397  57.909  93.195  49.968
32826DA     SC413398  57.711  93.105  50.144
32827DA     BB113399  57.695  93.025  50.859
32827DA     BB213400  57.986  93.245  50.824
32827DA     BB313401  57.924  93.447  50.795
32827DA     SC113402  57.917  93.426  50.485
32827DA     SC213403  58.046  93.515  50.291
32827DA     SC313404  57.838  93.458  50.152
32827DA     SC413405  57.778  93.385  50.416
32828DA     BB113406  58.154  93.430  51.030
32828DA     BB213407  58.338  93.671  50.823
32828DA     BB313408  58.231  93.855  50.812
32828DA     SC113409  58.072  93.775  50.556
32828DA     SC213410  58.065  93.840  50.316
32828DA     SC313411  57.831  93.735  50.315
32828DA     SC413412  57.928  93.706  50.577
32829DA     BB113413  58.542  93.932  50.895
32829DA     BB213414  58.537  94.151  50.601
32829DA     BB313415  58.398  94.310  50.629
32829DA     SC113416  58.159  94.156  50.503
32829DA     SC213417  58.020  94.168  50.296
32829DA     SC313418  57.848  94.030  50.428
32829DA     SC413419  58.065  94.071  50.602
32830DT     BB113420  58.472  94.488  50.644
32830DT     BB213421  58.351  94.625  50.333
32830DT     BB313422  58.182  94.738  50.367
32830DT     SC113423  58.035  94.523  50.401
32830DT     SC213424  57.899  94.502  50.236
32830DT     SC313425  57.881  94.344  50.518
32831DA     BB113426  58.415  95.037  50.176
32831DA     BB213427  58.082  95.056  50.025
32831DA     BB313428  57.947  95.158  50.155
32831DA     SC113429  57.853  94.900  50.300
32831DA     SC213430  57.646  94.761  50.315
32831DA     SC313431  57.747  94.671  50.533
32831DA     SC413432  57.931  94.857  50.434
32832DA     BB113433  57.854  95.414  49.935
32832DA     BB213434  57.507  95.294  49.948
32832DA     BB313435  57.405  95.382  50.114
32832DA     SC113436  57.479  95.153  50.311
32832DA     SC213437  57.363  94.967  50.430
32832DA     SC313438  57.565  94.969  50.588
32832DA     SC413439  57.612  95.170  50.399
32833DT     BB113440  57.212  95.561  50.134
32833DT     BB213441  56.953  95.324  50.215
32833DT     BB313442  56.881  95.360  50.405
32833DT     SC113443  57.096  95.258  50.515
32833DT     SC213444  57.045  95.072  50.612
32833DT     SC313445  57.319  95.241  50.655
32834DA     BB113446  56.517  95.387  50.192
32834DA     BB213447  56.461  95.149  50.465
32834DA     BB313448  56.422  95.254  50.647
32834DA     SC113449  56.720  95.264  50.734
32834DA     SC213450  56.865  95.162  50.909
32834DA     SC313451  57.025  95.357  50.862
32834DA     SC413452  56.805  95.394  50.691
32835DA     BB113453  56.143  95.078  50.659
32835DA     BB213454  56.278  94.918  50.961
32835DA     BB313455  56.245  95.042  51.131
32835DA     SC113456  56.516  95.192  51.105
32835DA     SC213457  56.733  95.205  51.227
32835DA     SC313458  56.765  95.428  51.105
32835DA     SC413459  56.517  95.328  51.020
32836DT     BB113460  56.121  94.972  51.275
32836DT     BB213461  56.382  94.878  51.505
32836DT     BB313462  56.387  95.010  51.664
32836DT     SC113463  56.499  95.196  51.516
32836DT     SC213464  56.702  95.225  51.580
32836DT     SC313465  56.533  95.423  51.386
32837DT     BB113466  56.300  94.803  51.799
32837DT     BB213467  56.613  94.894  51.953
32837DT     BB313468  56.583  95.049  52.088
32837DT     SC113469  56.556  95.223  51.893
32837DT     SC213470  56.726  95.355  51.892
32837DT     SC313471  56.447  95.403  51.735
32838DT     BB113472  56.648  94.855  52.244
32838DT     BB213473  56.891  95.115  52.302
32838DT     BB313474  56.810  95.262  52.423
32838DT     SC113475  56.665  95.355  52.224
32838DT     SC213476  56.740  95.548  52.166
32838DT     SC313477  56.454  95.422  52.081
32839DT     BB113478  56.990  95.160  52.576
32839DT     BB213479  57.065  95.513  52.553
32839DT     BB313480  56.937  95.620  52.674
32839DT     SC113481  56.739  95.589  52.505
32839DT     SC213482  56.692  95.778  52.413
32839DT     SC313483  56.506  95.512  52.407
32840DG     BB113484  57.330  95.700  52.752
32840DG     BB213485  57.135  96.002  52.713
32840DG     BB313486  57.018  96.028  52.872
32840DG     SC113487  56.783  95.870  52.756
32840DG     SC213488  56.517  95.983  52.678
32840DG     SC313489  56.514  95.687  52.668
32840DG     SC413490  56.776  95.712  52.780
32841DT     BB113491  57.049  96.199  52.988
32841DT     BB213492  56.756  96.399  52.921
32841DT     BB313493  56.616  96.373  53.072
32841DT     SC113494  56.552  96.135  52.982
32841DT     SC213495  56.353  96.141  52.900
32841DT     SC313496  56.520  95.873  52.972
32842DT     BB113497  56.666  96.621  53.184
32842DT     BB213498  56.308  96.620  53.136
32842DT     BB313499  56.215  96.537  53.301
32842DT     SC113500  56.288  96.295  53.232
32842DT     SC213501  56.114  96.183  53.170
32842DT     SC313502  56.406  96.059  53.240
32843DA     BB113503  56.016  96.911  53.290
32843DA     BB213504  55.756  96.655  53.329
32843DA     BB313505  55.748  96.588  53.532
32843DA     SC113506  55.952  96.357  53.488
32843DA     SC213507  55.950  96.108  53.481
32843DA     SC313508  56.202  96.125  53.524
32843DA     SC413509  56.107  96.388  53.517
32844DA     BB113510  55.418  96.669  53.564
32844DA     BB213511  55.346  96.313  53.616
32844DA     BB313512  55.378  96.260  53.820
32844DA     SC113513  55.676  96.181  53.779
32844DA     SC213514  55.813  95.973  53.780
32844DA     SC313515  56.013  96.130  53.817
32844DA     SC413516  55.787  96.295  53.803
32845DC     BB113517  55.214  96.197  53.984
32845DC     BB213518  55.292  95.844  53.973
32845DC     BB313519  55.374  95.785  54.154
32845DC     SC113520  55.603  95.900  54.096
32845DC     SC213521  55.752  95.749  54.062
32845DC     SC313522  55.808  96.065  54.110
32846DT     BB113523  55.146  95.645  54.243
32846DT     BB213524  55.407  95.396  54.236
32846DT     BB313525  55.501  95.387  54.420
32846DT     SC113526  55.629  95.612  54.375
32846DT     SC213527  55.838  95.571  54.348
32846DT     SC313528  55.707  95.863  54.400
32847DT     BB113529  55.385  95.146  54.471
32847DT     BB213530  55.740  95.083  54.482
32847DT     BB313531  55.812  95.116  54.674
32847DT     SC113532  55.796  95.376  54.642
32847DT     SC213533  55.994  95.459  54.633
32847DT     SC313534  55.720  95.626  54.678
32848DA     BB113535  55.936  94.749  54.514
32848DA     BB213536  56.230  94.928  54.640
32848DA     BB313537  56.227  94.935  54.853
32848DA     SC113538  56.072  95.204  54.867
32848DA     SC213539  56.118  95.440  54.933
32848DA     SC313540  55.863  95.462  54.956
32848DA     SC413541  55.912  95.197  54.877
32849DT     BB113542  56.368  94.849  54.900
32849DT     BB213543  56.561  95.134  55.006
32849DT     BB313544  56.538  95.164  55.209
32849DT     SC113545  56.297  95.261  55.176
32849DT     SC213546  56.298  95.472  55.220
32849DT     SC313547  56.035  95.285  55.191
32850DG     BB113548  56.924  95.141  55.075
32850DG     BB213549  56.865  95.435  55.278
32850DG     BB313550  56.841  95.382  55.468
32850DG     SC113551  56.538  95.345  55.446
32850DG     SC213552  56.330  95.513  55.580
32850DG     SC313553  56.208  95.276  55.452
32850DG     SC413554  56.480  95.203  55.401
32851DA     BB113555  57.071  95.637  55.502
32851DA     BB213556  56.843  95.805  55.735
32851DA     BB313557  56.830  95.695  55.917
32851DA     SC113558  56.588  95.523  55.823
32851DA     SC213559  56.345  95.500  55.877
32851DA     SC313560  56.364  95.268  55.769
32851DA     SC413561  56.620  95.381  55.754
32852DT     BB113562  56.901  95.784  56.069
32852DT     BB213563  56.590  95.853  56.238
32852DT     BB313564  56.558  95.713  56.388
32852DT     SC113565  56.495  95.528  56.214
32852DT     SC213566  56.285  95.484  56.230
32852DT     SC313567  56.505  95.305  56.074
32853DG     BB113568  56.559  96.074  56.583
32853DG     BB213569  56.270  95.877  56.675
32853DG     BB313570  56.321  95.739  56.808
32853DG     SC113571  56.389  95.527  56.598
32853DG     SC213572  56.241  95.271  56.552
32853DG     SC313573  56.491  95.278  56.395
32853DG     SC413574  56.538  95.521  56.538
32854DA     BB113575  56.071  95.842  57.037
32854DA     BB213576  55.916  95.510  57.028
32854DA     BB313577  56.024  95.375  57.153
32854DA     SC113578  56.214  95.279  56.926
32854DA     SC213579  56.253  95.072  56.793
32854DA     SC313580  56.485  95.170  56.745
32854DA     SC413581  56.354  95.356  56.909
32855DA     BB113582  55.737  95.313  57.313
32855DA     BB213583  55.765  94.965  57.203
32855DA     BB313584  55.901  94.858  57.328
32855DA     SC113585  56.151  94.921  57.154
32855DA     SC213586  56.307  94.798  57.003
32855DA     SC313587  56.467  94.994  57.042
32855DA     SC413588  56.236  95.052  57.191
32856DC     BB113589  55.841  94.695  57.466
32856DC     BB213590  55.970  94.425  57.264
32856DC     BB313591  56.136  94.342  57.356
32856DC     SC113592  56.285  94.547  57.288
32856DC     SC213593  56.428  94.485  57.139
32856DC     SC313594  56.439  94.760  57.310
32857DG     BB113595  55.872  94.033  57.321
32857DG     BB213596  56.191  93.948  57.175
32857DG     BB313597  56.319  93.893  57.317
32857DG     SC113598  56.424  94.177  57.365
32857DG     SC213599  56.701  94.273  57.307
32857DG     SC313600  56.548  94.476  57.458
32857DG     SC413601  56.350  94.270  57.472
32858DT     BB113602  56.404  93.689  57.321
32858DT     BB213603  56.739  93.752  57.202
32858DT     BB313604  56.873  93.745  57.360
32858DT     SC113605  56.793  93.979  57.448
32858DT     SC213606  56.949  94.124  57.418
32858DT     SC313607  56.688  94.163  57.606
32859DA     BB113608  57.014  93.496  57.055
32859DA     BB213609  57.289  93.714  57.160
32859DA     BB313610  57.362  93.655  57.351
32859DA     SC113611  57.170  93.842  57.509
32859DA     SC213612  57.185  94.048  57.648
32859DA     SC313613  56.957  93.978  57.742
32859DA     SC413614  57.029  93.780  57.557
32860DC     BB113615  57.544  93.588  57.354
32860DC     BB213616  57.695  93.877  57.507
32860DC     BB313617  57.732  93.840  57.707
32860DC     SC113618  57.478  93.864  57.767
32860DC     SC213619  57.448  94.043  57.882
32860DC     SC313620  57.235  93.801  57.849
32861DG     BB113621  58.093  93.933  57.543
32861DG     BB213622  58.029  94.133  57.838
32861DG     BB313623  58.068  94.028  58.002
32861DG     SC113624  57.785  93.914  58.026
32861DG     SC213625  57.590  93.975  58.243
32861DG     SC313626  57.491  93.756  58.071
32861DG     SC413627  57.749  93.778  57.950
32862DC     BB113628  58.236  94.080  58.154
32862DC     BB213629  58.043  94.208  58.431
32862DC     BB313630  58.041  94.069  58.585
32862DC     SC113631  57.871  93.917  58.456
32862DC     SC213632  57.680  93.922  58.557
32862DC     SC313633  57.771  93.708  58.331
32863DT     BB113634  58.221  94.211  58.750
32863DT     BB213635  57.933  94.164  58.962
32863DT     BB313636  57.952  93.989  59.070
32863DT     SC113637  57.899  93.843  58.858
32863DT     SC213638  57.706  93.750  58.883
32863DT     SC313639  57.929  93.670  58.662
32864DA     BB113640  57.885  94.273  59.372
32864DA     BB213641  57.655  93.995  59.434
32864DA     BB313642  57.758  93.832  59.524
32864DA     SC113643  57.830  93.696  59.253
32864DA     SC213644  57.765  93.491  59.127
32864DA     SC313645  57.985  93.526  58.999
32864DA     SC413646  57.971  93.734  59.186
32865DC     BB113647  57.727  93.759  59.737
32865DC     BB213648  57.539  93.464  59.649
32865DC     BB313649  57.650  93.294  59.690
32865DC     SC113650  57.804  93.334  59.481
32865DC     SC213651  57.764  93.183  59.334
32865DC     SC313652  58.019  93.383  59.338
32866DA     BB113653  57.285  93.239  59.885
32866DA     BB213654  57.350  92.938  59.686
32866DA     BB313655  57.497  92.816  59.782
32866DA     SC113656  57.738  92.949  59.638
32866DA     SC213657  57.906  92.888  59.464
32866DA     SC313658  58.044  93.082  59.559
32866DA     SC413659  57.809  93.073  59.711
32867DA     BB113660  57.255  92.605  59.735
32867DA     BB213661  57.489  92.417  59.525
32867DA     BB313662  57.630  92.312  59.646
32867DA     SC113663  57.837  92.545  59.646
32867DA     SC213664  58.063  92.591  59.551
32867DA     SC313665  58.080  92.772  59.732
32867DA     SC413666  57.829  92.651  59.767
32868DA     BB113667  57.505  92.097  59.440
32868DA     BB213668  57.849  92.048  59.322
32868DA     BB313669  57.964  91.947  59.470
32868DA     SC113670  58.062  92.209  59.607
32868DA     SC213671  58.275  92.337  59.631
32868DA     SC313672  58.161  92.448  59.833
32868DA     SC413673  57.974  92.266  59.730
32869DT     BB113674  58.011  91.797  59.398
32869DT     BB213675  58.362  91.869  59.354
32869DT     BB313676  58.470  91.797  59.516
32869DT     SC113677  58.385  91.992  59.669
32869DT     SC213678  58.548  92.125  59.713
32869DT     SC313679  58.263  92.117  59.867
32870DA     BB113680  58.644  91.688  59.148
32870DA     BB213681  58.909  91.802  59.373
32870DA     BB313682  58.936  91.664  59.533
32870DA     SC113683  58.732  91.805  59.721
32870DA     SC213684  58.737  91.938  59.932
32870DA     SC313685  58.489  91.874  59.954
32870DA     SC413686  58.580  91.753  59.717
32871DT     BB113687  59.106  91.559  59.541
32871DT     BB213688  59.252  91.715  59.832
32871DT     BB313689  59.231  91.591  59.997
32871DT     SC113690  58.975  91.648  60.017
32871DT     SC213691  58.942  91.765  60.194
32871DT     SC313692  58.713  91.616  60.019
32872DC     BB113693  59.500  91.500  60.006
32872DC     BB213694  59.443  91.615  60.343
32872DC     BB313695  59.374  91.459  60.460
32872DC     SC113696  59.137  91.470  60.349
32872DC     SC213697  58.994  91.543  60.493
32872DC     SC313698  58.923  91.398  60.212
32873DA     BB113699  59.713  91.559  60.695
32873DA     BB213700  59.432  91.529  60.930
32873DA     BB313701  59.395  91.324  60.975
32873DA     SC113702  59.191  91.285  60.744
32873DA     SC213703  58.945  91.248  60.718
32873DA     SC313704  59.003  91.159  60.485
32873DA     SC413705  59.247  91.232  60.603
32874DT     BB113706  59.430  91.196  61.186
32874DT     BB213707  59.082  91.179  61.278
32874DT     BB313708  59.017  90.983  61.273
32874DT     SC113709  59.012  90.983  61.010
32874DT     SC213710  58.808  90.974  60.943
32874DT     SC313711  59.071  90.920  60.761
32875DT     BB113712  59.006  90.928  61.560
32875DT     BB213713  58.671  90.857  61.448
32875DT     BB313714  58.651  90.655  61.408
32875DT     SC113715  58.787  90.678  61.185
32875DT     SC213716  58.655  90.648  61.018
32875DT     SC313717  58.979  90.645  61.007
32876DA     BB113718  58.340  90.738  61.676
32876DA     BB213719  58.193  90.563  61.389
32876DA     BB313720  58.233  90.354  61.400
32876DA     SC113721  58.498  90.371  61.239
32876DA     SC213722  58.583  90.301  61.015
32876DA     SC313723  58.816  90.324  61.119
32876DA     SC413724  58.635  90.390  61.322
32877DT     BB113725  58.075  90.227  61.427
32877DT     BB213726  58.064  90.105  61.088
32877DT     BB313727  58.137  89.911  61.080
32877DT     SC113728  58.384  89.994  61.108
32877DT     SC213729  58.491  89.963  60.924
32877DT     SC313730  58.624  90.029  61.212
32878DC     BB113731  57.884  89.830  61.034
32878DC     BB213732  58.073  89.709  60.751
32878DC     BB313733  58.156  89.525  60.796
32878DC     SC113734  58.338  89.635  60.949
32878DC     SC213735  58.531  89.617  60.856
32878DC     SC313736  58.477  89.696  61.165
32879DA     BB113737  57.956  89.509  60.428
32879DA     BB213738  58.287  89.357  60.385
32879DA     BB313739  58.295  89.168  60.483
32879DA     SC113740  58.398  89.285  60.752
32879DA     SC213741  58.608  89.282  60.887
32879DA     SC313742  58.458  89.348  61.084
32879DA     SC413743  58.288  89.325  60.863
32880DC     BB113744  58.316  89.018  60.365
32880DC     BB213745  58.659  88.941  60.447
32880DC     BB313746  58.666  88.779  60.576
32880DC     SC113747  58.586  88.926  60.778
32880DC     SC213748  58.748  88.951  60.917
32880DC     SC313749  58.436  89.017  60.975
32881DT     BB113750  58.762  88.637  60.372
32881DT     BB213751  59.008  88.600  60.634
32881DT     BB313752  58.951  88.449  60.763
32881DT     SC113753  58.766  88.600  60.872
32881DT     SC213754  58.824  88.650  61.073
32881DT     SC313755  58.528  88.687  60.945
32882DA     BB113756  59.346  88.368  60.646
32882DA     BB213757  59.328  88.338  61.011
32882DA     BB313758  59.222  88.161  61.065
32882DA     SC113759  58.944  88.300  61.075
32882DA     SC213760  58.776  88.366  61.247
32882DA     SC313761  58.610  88.374  61.052
32882DA     SC413762  58.855  88.298  60.941
32883DC     BB113763  59.320  88.005  61.160
32883DC     BB213764  59.180  88.059  61.488
32883DC     BB313765  59.039  87.914  61.529
32883DC     SC113766  58.865  88.027  61.368
32883DC     SC213767  58.705  88.111  61.484
32883DC     SC313768  58.701  88.061  61.164
32884DT     BB113769  59.206  87.794  61.707
32884DT     BB213770  58.909  87.870  61.898
32884DT     BB313771  58.772  87.716  61.880
32884DT     SC113772  58.710  87.790  61.636
32884DT     SC213773  58.510  87.869  61.634
32884DT     SC313774  58.682  87.782  61.374
32885DT     BB113775  58.822  87.644  62.136
32885DT     BB213776  58.467  87.709  62.126
32885DT     BB313777  58.366  87.539  62.065
32885DT     SC113778  58.442  87.574  61.816
32885DT     SC213779  58.272  87.629  61.696
32885DT     SC313780  58.560  87.529  61.584
32886DA     BB113781  58.192  87.687  62.417
32886DA     BB213782  57.925  87.628  62.173
32886DA     BB313783  57.895  87.419  62.145
32886DA     SC113784  58.098  87.395  61.911
32886DA     SC213785  58.093  87.354  61.665
32886DA     SC313786  58.339  87.288  61.691
32886DA     SC413787  58.250  87.357  61.948
32887DA     BB113788  57.593  87.525  62.212
32887DA     BB213789  57.499  87.396  61.882
32887DA     BB313790  57.496  87.183  61.884
32887DA     SC113791  57.793  87.153  61.798
32887DA     SC213792  57.921  87.077  61.597
32887DA     SC313793  58.118  87.049  61.758
32887DA     SC413794  57.904  87.141  61.914
32888DC     BB113795  57.323  87.106  61.857
32888DC     BB213796  57.378  86.988  61.520
32888DC     BB313797  57.418  86.785  61.522
32888DC     SC113798  57.661  86.826  61.614
32888DC     SC213799  57.804  86.779  61.460
32888DC     SC313800  57.869  86.821  61.775
32889DA     BB113801  57.109  86.849  61.244
32889DA     BB213802  57.364  86.639  61.085
32889DA     BB313803  57.359  86.442  61.168
32889DA     SC113804  57.567  86.504  61.390
32889DA     SC213805  57.803  86.443  61.445
32889DA     SC313806  57.745  86.516  61.684
32889DA     SC413807  57.512  86.553  61.533
32890DA     BB113808  57.326  86.352  60.851
32890DA     BB213809  57.641  86.168  60.890
32890DA     BB313810  57.609  85.988  60.999
32890DA     SC113811  57.665  86.118  61.276
32890DA     SC213812  57.840  86.108  61.453
32890DA     SC313813  57.660  86.203  61.609
32890DA     SC413814  57.539  86.176  61.358
32891DA     BB113815  57.744  85.819  60.744
32891DA     BB213816  58.007  85.705  60.973
32891DA     BB313817  57.938  85.539  61.088
32891DA     SC113818  57.829  85.714  61.321
32891DA     SC213819  57.887  85.762  61.559
32891DA     SC313820  57.644  85.843  61.580
32891DA     SC413821  57.675  85.759  61.314
32892DT     BB113822  58.016  85.327  61.069
32892DT     BB213823  58.208  85.326  61.375
32892DT     BB313824  58.119  85.200  61.513
32892DT     SC113825  57.928  85.373  61.561
32892DT     SC213826  57.952  85.453  61.759
32892DT     SC313827  57.687  85.479  61.574
32893DT     BB113828  58.310  84.990  61.490
32893DT     BB213829  58.314  85.069  61.842
32893DT     BB313830  58.179  84.949  61.942
32893DT     SC113831  57.976  85.087  61.850
32893DT     SC213832  57.885  85.197  62.011
32893DT     SC313833  57.754  85.144  61.720
32894DT     BB113834  58.372  84.777  62.064
32894DT     BB213835  58.186  84.906  62.345
32894DT     BB313836  58.030  84.778  62.391
32894DT     SC113837  57.892  84.857  62.183
32894DT     SC213838  57.721  84.970  62.249
32894DT     SC313839  57.766  84.850  61.951
32895DT     BB113840  58.148  84.670  62.628
32895DT     BB213841  57.833  84.803  62.742
32895DT     BB313842  57.688  84.656  62.738
32895DT     SC113843  57.670  84.670  62.476
32895DT     SC213844  57.480  84.756  62.422
32895DT     SC313845  57.683  84.600  62.222
32896DT     BB113846  57.683  84.628  63.016
32896DT     BB213847  57.343  84.713  62.928
32896DT     BB313848  57.234  84.541  62.893
32896DT     SC113849  57.350  84.504  62.661
32896DT     SC213850  57.208  84.538  62.504
32896DT     SC313851  57.496  84.392  62.472
32897DA     BB113852  57.027  84.780  63.165
32897DA     BB213853  56.795  84.687  62.897
32897DA     BB313854  56.735  84.483  62.918
32897DA     SC113855  56.966  84.373  62.740
32897DA     SC213856  56.991  84.267  62.516
32897DA     SC313857  57.217  84.183  62.604
32897DA     SC413858  57.102  84.329  62.813
32898DT     BB113859  56.556  84.472  62.950
32898DT     BB213860  56.459  84.356  62.623
32898DT     BB313861  56.428  84.151  62.627
32898DT     SC113862  56.686  84.104  62.636
32898DT     SC213863  56.749  84.017  62.450
32898DT     SC313864  56.920  84.022  62.725
32899DT     BB113865  56.192  84.242  62.583
32899DT     BB213866  56.265  84.021  62.308
32899DT     BB313867  56.242  83.824  62.367
32899DT     SC113868  56.467  83.831  62.503
32899DT     SC213869  56.613  83.707  62.405
32899DT     SC313870  56.633  83.823  62.707
32900DA     BB113871  56.067  83.923  61.995
32900DA     BB213872  56.246  83.604  61.963
32900DA     BB313873  56.151  83.453  62.080
32900DA     SC113874  56.321  83.509  62.334
32900DA     SC213875  56.500  83.395  62.465
32900DA     SC313876  56.430  83.551  62.657
32900DA     SC413877  56.262  83.614  62.442
32901DA     BB113878  56.185  83.318  61.781
32901DA     BB213879  56.361  83.046  61.952
32901DA     BB313880  56.226  82.936  62.075
32901DA     SC113881  56.276  83.111  62.327
32901DA     SC213882  56.385  83.086  62.550
32901DA     SC313883  56.243  83.288  62.620
32901DA     SC413884  56.178  83.236  62.352
32902DT     BB113885  56.181  82.747  62.026
32902DT     BB213886  56.355  82.581  62.295
32902DT     BB313887  56.220  82.521  62.440
32902DT     SC113888  56.191  82.767  62.526
32902DT     SC213889  56.279  82.785  62.722
32902DT     SC313890  56.077  82.998  62.585
32903DA     BB113891  56.410  82.153  62.355
32903DA     BB213892  56.400  82.185  62.720
32903DA     BB313893  56.204  82.141  62.793
32903DA     SC113894  56.105  82.436  62.776
32903DA     SC213895  56.043  82.619  62.934
32903DA     SC313896  55.917  82.720  62.735
32903DA     SC413897  56.032  82.482  62.641
32904DA     BB113898  56.325  81.900  62.996
32904DA     BB213899  56.205  82.094  63.282
32904DA     BB313900  55.998  82.056  63.316
32904DA     SC113901  55.901  82.288  63.133
32904DA     SC213902  55.790  82.510  63.159
32904DA     SC313903  55.727  82.485  62.911
32904DA     SC413904  55.870  82.254  62.979
32905DA     BB113905  56.079  81.970  63.627
32905DA     BB213906  55.878  82.254  63.742
32905DA     BB313907  55.671  82.202  63.745
32905DA     SC113908  55.617  82.298  63.454
32905DA     SC213909  55.494  82.483  63.340
32905DA     SC313910  55.502  82.332  63.133
32905DA     SC413911  55.631  82.189  63.337
32906DT     BB113912  55.568  82.192  63.927
32906DT     BB213913  55.391  82.504  63.889
32906DT     BB313914  55.191  82.467  63.850
32906DT     SC113915  55.244  82.396  63.603
32906DT     SC213916  55.168  82.544  63.468
32906DT     SC313917  55.265  82.246  63.387
32907DA     BB113918  55.230  82.742  64.163
32907DA     BB213919  54.995  82.879  63.918
32907DA     BB313920  54.810  82.773  63.924
32907DA     SC113921  54.895  82.565  63.708
32907DA     SC213922  54.835  82.509  63.473
32907DA     SC313923  54.939  82.280  63.523
32907DA     SC413924  54.962  82.428  63.759
32908DA     BB113925  54.727  83.087  63.950
32908DA     BB213926  54.533  83.035  63.643
32908DA     BB313927  54.363  82.913  63.683
32908DA     SC113928  54.510  82.646  63.621
32908DA     SC213929  54.505  82.469  63.445
32908DA     SC313930  54.619  82.321  63.620
32908DA     SC413931  54.579  82.569  63.743
32909DT     BB113932  54.205  83.005  63.657
32909DT     BB213933  54.101  82.840  63.354
32909DT     BB313934  53.963  82.692  63.397
32909DT     SC113935  54.150  82.535  63.493
32909DT     SC213936  54.177  82.367  63.361
32909DT     SC313937  54.288  82.390  63.665
32910DA     BB113938  53.801  82.932  63.092
32910DA     BB213939  53.755  82.581  62.996
32910DA     BB313940  53.606  82.490  63.118
32910DA     SC113941  53.807  82.392  63.335
32910DA     SC213942  53.901  82.176  63.415
32910DA     SC313943  53.959  82.304  63.629
32910DA     SC413944  53.834  82.489  63.460
32911DA     BB113945  53.457  82.408  62.832
32911DA     BB213946  53.492  82.057  62.930
32911DA     BB313947  53.344  82.005  63.075
32911DA     SC113948  53.522  82.078  63.319
32911DA     SC213949  53.640  81.960  63.504
32911DA     SC313950  53.639  82.187  63.623
32911DA     SC413951  53.511  82.228  63.377
32912DT     BB113952  53.175  81.865  63.039
32912DT     BB213953  53.307  81.589  63.230
32912DT     BB313954  53.196  81.564  63.403
32912DT     SC113955  53.306  81.775  63.514
32912DT     SC213956  53.435  81.712  63.674
32912DT     SC313957  53.331  82.014  63.621
32913DT     BB113958  53.063  81.332  63.315
32913DT     BB213959  53.223  81.230  63.621
32913DT     BB313960  53.096  81.259  63.782
32913DT     SC113961  53.136  81.519  63.775
32913DT     SC213962  53.248  81.579  63.948
32913DT     SC313963  53.087  81.777  63.749
32914DA     BB113964  53.225  80.862  63.803
32914DA     BB213965  53.278  81.015  64.132
32914DA     BB313966  53.092  81.038  64.234
32914DA     SC113967  53.039  81.324  64.123
32914DA     SC213968  53.033  81.558  64.210
32914DA     SC313969  52.895  81.611  64.000
32914DA     SC413970  52.954  81.337  63.987
32915DA     BB113971  53.269  80.878  64.455
32915DA     BB213972  53.224  81.170  64.672
32915DA     BB313973  53.024  81.176  64.747
32915DA     SC113974  52.914  81.348  64.513
32915DA     SC213975  52.830  81.580  64.477
32915DA     SC313976  52.719  81.486  64.266
32915DA     SC413977  52.852  81.270  64.387
32916DT     BB113978  53.017  81.156  64.934
32916DT     BB213979  52.939  81.499  65.014
32916DT     BB313980  52.736  81.518  65.053
32916DT     SC113981  52.678  81.499  64.797
32916DT     SC213982  52.607  81.689  64.726
32916DT     SC313983  52.577  81.405  64.572
32917DA     BB113984  52.962  81.697  65.358
32917DA     BB213985  52.699  81.931  65.256
32917DA     BB313986  52.508  81.861  65.319
32917DA     SC113987  52.453  81.703  65.056
32917DA     SC213988  52.301  81.720  64.859
32917DA     SC313989  52.352  81.471  64.824
32917DA     SC413990  52.496  81.548  65.052
32918DT     BB113991  52.417  81.968  65.454
32918DT     BB213992  52.161  82.106  65.240
32918DT     BB313993  51.982  82.007  65.269
32918DT     SC113994  52.068  81.797  65.136
32918DT     SC213995  51.961  81.782  64.950
32918DT     SC313996  52.143  81.550  65.084
32919DT     BB113997  51.875  82.220  65.404
32919DT     BB213998  51.639  82.156  65.139
32919DT     BB313999  51.501  82.014  65.200
32919DT     SC114000  51.677  81.821  65.175
32919DT     SC214001  51.622  81.696  65.009
32919DT     SC314002  51.838  81.622  65.239
32920DA     BB114003  51.257  82.334  65.076
32920DA     BB214004  51.127  82.030  64.918
32920DA     BB314005  51.019  81.913  65.059
32920DA     SC114006  51.266  81.747  65.147
32920DA     SC214007  51.348  81.512  65.126
32920DA     SC314008  51.499  81.568  65.326
32920DA     SC414009  51.351  81.800  65.273
32921DT     BB114010  50.788  81.874  65.062
32921DT     BB214011  50.805  81.534  64.943
32921DT     BB314012  50.748  81.403  65.094
32921DT     SC114013  50.976  81.436  65.220
32921DT     SC214014  51.091  81.255  65.208
32921DT     SC314015  51.147  81.503  65.409
32922DT     BB114016  50.496  81.341  64.982
32922DT     BB214017  50.658  81.021  65.013
32922DT     BB314018  50.612  80.935  65.196
32922DT     SC114019  50.773  81.099  65.322
32922DT     SC214020  50.943  80.989  65.397
32922DT     SC314021  50.856  81.289  65.485
32923DA     BB114022  50.520  80.648  64.906
32923DA     BB214023  50.730  80.487  65.159
32923DA     BB314024  50.617  80.448  65.336
32923DA     SC114025  50.686  80.721  65.469
32923DA     SC214026  50.821  80.803  65.662
32923DA     SC314027  50.677  81.014  65.647
32923DA     SC414028  50.585  80.843  65.445
32924DT     BB114029  50.587  80.257  65.384
32924DT     BB214030  50.823  80.246  65.657
32924DT     BB314031  50.722  80.247  65.838
32924DT     SC114032  50.666  80.502  65.814
32924DT     SC214033  50.778  80.613  65.961
32924DT     SC314034  50.526  80.724  65.790
32925DT     BB114035  50.799  79.992  65.864
32925DT     BB214036  50.930  80.159  66.155
32925DT     BB314037  50.785  80.168  66.303
32925DT     SC114038  50.655  80.357  66.176
32925DT     SC214039  50.673  80.541  66.286
32925DT     SC314040  50.462  80.481  66.047
32926DT     BB114041  50.934  79.990  66.434
32926DT     BB214042  50.902  80.268  66.661
32926DT     BB314043  50.724  80.253  66.766
32926DT     SC114044  50.584  80.327  66.557
32926DT     SC214045  50.502  80.523  66.591
32926DT     SC314046  50.412  80.317  66.358
32927DA     BB114047  51.041  80.317  67.034
32927DA     BB214048  50.769  80.548  67.120
32927DA     BB314049  50.606  80.442  67.207
32927DA     SC114050  50.462  80.392  66.936
32927DA     SC214051  50.254  80.469  66.821
32927DA     SC314052  50.281  80.258  66.677
32927DA     SC414053  50.494  80.255  66.859
32928DT     BB114054  50.566  80.478  67.398
32928DT     BB214055  50.261  80.665  67.348
32928DT     BB314056  50.098  80.547  67.392
32928DT     SC114057  50.125  80.412  67.169
32928DT     SC214058  49.962  80.459  67.036
32928DT     SC314059  50.167  80.209  67.005
32929DA     BB114060  50.048  80.899  67.615
32929DA     BB214061  49.729  80.828  67.448
32929DA     BB314062  49.631  80.664  67.543
32929DA     SC114063  49.761  80.449  67.360
32929DA     SC214064  49.690  80.293  67.179
32929DA     SC314065  49.903  80.162  67.235
32929DA     SC414066  49.898  80.381  67.410
32930DG     BB114067  49.394  80.861  67.608
32930DG     BB214068  49.205  80.641  67.392
32930DG     BB314069  49.138  80.485  67.496
32930DG     SC114070  49.385  80.312  67.444
32930DG     SC214071  49.393  80.062  67.282
32930DG     SC314072  49.650  80.104  67.424
32930DG     SC414073  49.510  80.323  67.544
32931DT     BB114074  48.909  80.432  67.539
32931DT     BB214075  48.859  80.154  67.315
32931DT     BB314076  48.845  79.978  67.423
32931DT     SC114077  49.104  79.976  67.468
32931DT     SC214078  49.194  79.815  67.357
32931DT     SC314079  49.333  79.982  67.598
32932DC     BB114080  48.571  79.954  67.383
32932DC     BB214081  48.705  79.645  67.254
32932DC     BB314082  48.715  79.504  67.406
32932DC     SC114083  48.924  79.622  67.513
32932DC     SC214084  49.098  79.499  67.486
32932DC     SC314085  49.073  79.751  67.688
32933DC     BB114086  48.502  79.360  67.304
32933DC     BB214087  48.773  79.121  67.318
32933DC     BB314088  48.775  79.027  67.503
32933DC     SC114089  48.874  79.241  67.619
32933DC     SC214090  49.077  79.201  67.679
32933DC     SC314091  48.894  79.450  67.778
32934DG     BB114092  48.734  78.730  67.226
32934DG     BB214093  49.012  78.666  67.449
32934DG     BB314094  48.945  78.592  67.621
32934DG     SC114095  48.913  78.867  67.753
32934DG     SC214096  49.072  78.970  67.984
32934DG     SC314097  48.846  79.151  67.922
32934DG     SC414098  48.774  78.945  67.736
32935DT     BB114099  49.002  78.389  67.689
32935DT     BB214100  49.242  78.465  67.948
32935DT     BB314101  49.156  78.436  68.134
32935DT     SC114102  49.016  78.657  68.112
32935DT     SC214103  49.092  78.804  68.250
32935DT     SC314104  48.809  78.819  68.094
32936DA     BB114105  49.518  78.225  68.125
32936DA     BB214106  49.512  78.425  68.432
32936DA     BB314107  49.375  78.341  68.573
32936DA     SC114108  49.132  78.507  68.474
32936DA     SC214109  48.990  78.694  68.558
32936DA     SC314110  48.818  78.614  68.384
32936DA     SC414111  49.038  78.442  68.361
32937DT     BB114112  49.453  78.267  68.740
32937DT     BB214113  49.343  78.532  68.959
32937DT     BB314114  49.181  78.469  69.071
32937DT     SC114115  49.020  78.489  68.865
32937DT     SC214116  48.884  78.652  68.896
32937DT     SC314117  48.854  78.419  68.672
32938DA     BB114118  49.465  78.627  69.335
32938DA     BB214119  49.140  78.775  69.418
32938DA     BB314120  49.015  78.632  69.514
32938DA     SC114121  48.888  78.529  69.249
32938DA     SC214122  48.666  78.538  69.135
32938DA     SC314123  48.750  78.336  69.001
32938DA     SC414124  48.958  78.403  69.177
32939DT     BB114125  48.967  78.664  69.705
32939DT     BB214126  48.624  78.760  69.647
32939DT     BB314127  48.497  78.606  69.700
32939DT     SC114128  48.560  78.469  69.485
32939DT     SC214129  48.392  78.464  69.352
32939DT     SC314130  48.655  78.276  69.333
32940DT     BB114131  48.419  78.749  69.915
32940DT     BB214132  48.114  78.679  69.736
32940DT     BB314133  48.039  78.494  69.792
32940DT     SC114134  48.223  78.369  69.653
32940DT     SC214135  48.131  78.272  69.484
32940DT     SC314136  48.429  78.215  69.597
32941DT     BB114137  47.840  78.619  69.926
32941DT     BB214138  47.671  78.400  69.694
32941DT     BB314139  47.650  78.212  69.777
32941DT     SC114140  47.904  78.159  69.738
32941DT     SC214141  47.924  78.009  69.585
32941DT     SC314142  48.156  78.102  69.791
32942DT     BB114143  47.386  78.258  69.804
32942DT     BB214144  47.406  77.958  69.606
32942DT     BB314145  47.423  77.792  69.729
32942DT     SC114146  47.674  77.848  69.783
32942DT     SC214147  47.801  77.701  69.691
32942DT     SC314148  47.890  77.913  69.919
32943DA     BB114149  47.111  77.723  69.458
32943DA     BB214150  47.329  77.428  69.458
32943DA     BB314151  47.305  77.319  69.640
32943DA     SC114152  47.531  77.471  69.790
32943DA     SC214153  47.760  77.424  69.877
32943DA     SC314154  47.724  77.629  70.027
32943DA     SC414155  47.489  77.600  69.876
32944DA     BB114156  47.254  77.079  69.422
32944DA     BB214157  47.544  76.910  69.570
32944DA     BB314158  47.493  76.828  69.760
32944DA     SC114159  47.575  77.083  69.919
32944DA     SC214160  47.755  77.151  70.078
32944DA     SC314161  47.595  77.340  70.145
32944DA     SC414162  47.461  77.193  69.948
32945DT     BB114163  47.494  76.632  69.776
32945DT     BB214164  47.796  76.604  69.971
32945DT     BB314165  47.749  76.567  70.169
32945DT     SC114166  47.674  76.816  70.206
32945DT     SC214167  47.815  76.915  70.335
32945DT     SC314168  47.519  77.023  70.258
32946DT     BB114169  47.838  76.314  70.141
32946DT     BB214170  48.032  76.447  70.414
32946DT     BB314171  47.928  76.424  70.592
32946DT     SC114172  47.764  76.620  70.531
32946DT     SC214173  47.802  76.788  70.660
32946DT     SC314174  47.541  76.747  70.472
32947DA     BB114175  48.310  76.260  70.654
32947DA     BB214176  48.237  76.485  70.935
32947DA     BB314177  48.093  76.396  71.065
32947DA     SC114178  47.848  76.520  70.918
32947DA     SC214179  47.675  76.694  70.963
32947DA     SC314180  47.540  76.577  70.778
32947DA     SC414181  47.780  76.433  70.802
32948DG     BB114182  48.316  76.414  71.285
32948DG     BB214183  48.082  76.643  71.440
32948DG     BB314184  47.946  76.541  71.543
32948DG     SC114185  47.752  76.514  71.308
32948DG     SC214186  47.483  76.641  71.288
32948DG     SC314187  47.525  76.449  71.067
32948DG     SC414188  47.767  76.389  71.209
32949DT     BB114189  47.921  76.556  71.771
32949DT     BB214190  47.621  76.755  71.794
32949DT     BB314191  47.461  76.636  71.850
32949DT     SC114192  47.447  76.530  71.611
32949DT     SC214193  47.267  76.597  71.513
32949DT     SC314194  47.453  76.349  71.419
32950DT     BB114195  47.458  76.746  72.101
32950DT     BB214196  47.127  76.806  71.971
32950DT     BB314197  47.004  76.644  72.011
32950DT     SC114198  47.119  76.500  71.825
32950DT     SC214199  46.981  76.470  71.662
32950DT     SC314200  47.257  76.307  71.710
32951DT     BB114201  46.870  76.790  72.198
32951DT     BB214202  46.616  76.685  71.965
32951DT     BB314203  46.544  76.498  72.018
32951DT     SC114204  46.761  76.380  71.930
32951DT     SC214205  46.714  76.267  71.753
32951DT     SC314206  46.985  76.241  71.930
32952DA     BB114207  46.219  76.758  71.963
32952DA     BB214208  46.153  76.452  71.774
32952DA     BB314209  46.107  76.291  71.907
32952DA     SC114210  46.402  76.196  71.933
32952DA     SC214211  46.541  76.002  71.862
32952DA     SC314212  46.702  76.074  72.048
32952DA     SC414213  46.489  76.257  72.054
32953DT     BB114214  45.927  76.222  71.894
32953DT     BB214215  46.009  75.913  71.727
32953DT     BB314216  46.007  75.756  71.862
32953DT     SC114217  46.235  75.833  71.966
32953DT     SC214218  46.388  75.691  71.916
32953DT     SC314219  46.410  75.921  72.143
32954DG     BB114220  45.742  75.664  71.566
32954DG     BB214221  45.978  75.396  71.620
32954DG     BB314222  45.929  75.294  71.783
32954DG     SC114223  46.094  75.468  71.973
32954DG     SC214224  46.336  75.381  72.125
32954DG     SC314225  46.248  75.650  72.212
32954DG     SC414226  46.026  75.598  72.038
32955DT     BB114227  45.871  75.077  71.775
32955DT     BB214228  46.166  74.920  71.911
32955DT     BB314229  46.130  74.860  72.106
32955DT     SC114230  46.146  75.107  72.193
32955DT     SC214231  46.325  75.130  72.311
32955DT     SC314232  46.075  75.337  72.302
32956DA     BB114233  46.275  74.520  71.906
32956DA     BB214234  46.468  74.558  72.216
32956DA     BB314235  46.350  74.501  72.384
32956DA     SC114236  46.237  74.787  72.433
32956DA     SC214237  46.260  74.968  72.604
32956DA     SC314238  46.038  75.056  72.511
32956DA     SC414239  46.097  74.825  72.363
32957DG     BB114240  46.570  74.286  72.431
32957DG     BB214241  46.631  74.479  72.731
32957DG     BB314242  46.504  74.423  72.874
32957DG     SC114243  46.288  74.625  72.796
32957DG     SC214244  46.199  74.859  72.960
32957DG     SC314245  46.022  74.821  72.726
32957DG     SC414246  46.179  74.584  72.687
32958DT     BB114247  46.580  74.337  73.059
32958DT     BB214248  46.539  74.614  73.286
32958DT     BB314249  46.375  74.583  73.408
32958DT     SC114250  46.209  74.637  73.211
32958DT     SC214251  46.110  74.824  73.252
32958DT     SC314252  46.021  74.606  73.029
32959DG     BB114253  46.709  74.646  73.631
32959DG     BB214254  46.440  74.870  73.723
32959DG     BB314255  46.304  74.772  73.830
32959DG     SC114256  46.139  74.686  73.587
32959DG     SC214257  45.862  74.777  73.521
32959DG     SC314258  45.946  74.556  73.343
32959DG     SC414259  46.176  74.548  73.514
32960DA     BB114260  46.357  75.052  74.022
32960DA     BB214261  46.000  75.129  73.995
32960DA     BB314262  45.885  74.987  74.106
32960DA     SC114263  45.849  74.792  73.866
32960DA     SC214264  45.664  74.715  73.717
32960DA     SC314265  45.816  74.514  73.667
32960DA     SC414266  45.957  74.674  73.850
32961DG     BB114267  45.808  75.258  74.228
32961DG     BB214268  45.482  75.165  74.103
32961DG     BB314269  45.402  75.025  74.219
32961DG     SC114270  45.521  74.791  74.063
32961DG     SC214271  45.368  74.590  73.903
32961DG     SC314272  45.652  74.511  73.927
32961DG     SC414273  45.666  74.737  74.103
32962DT     BB114274  45.227  75.077  74.308
32962DT     BB214275  44.984  74.877  74.132
32962DT     BB314276  44.944  74.705  74.239
32962DT     SC114277  45.174  74.598  74.171
32962DT     SC214278  45.139  74.434  74.036
32962DT     SC314279  45.416  74.497  74.192
32963DT     BB114280  44.702  74.806  74.300
32963DT     BB214281  44.630  74.486  74.150
32963DT     BB314282  44.643  74.336  74.292
32963DT     SC114283  44.906  74.348  74.292
32963DT     SC214284  44.985  74.168  74.203
32963DT     SC314285  45.153  74.385  74.377
32964DT     BB114286  44.369  74.302  74.307
32964DT     BB214287  44.493  73.972  74.233
32964DT     BB314288  44.538  73.872  74.409
32964DT     SC114289  44.756  74.014  74.443
32964DT     SC214290  44.928  73.889  74.414
32964DT     SC314291  44.928  74.183  74.550
32965DC     BB114292  44.313  73.699  74.409
32965DC     BB214293  44.593  73.473  74.430
32965DC     BB314294  44.639  73.435  74.628
32965DC     SC114295  44.748  73.672  74.657
32965DC     SC214296  44.961  73.650  74.680
32965DC     SC314297  44.788  73.917  74.744
32966DT     BB114298  44.533  73.172  74.636
32966DT     BB214299  44.878  73.131  74.735
32966DT     BB314300  44.894  73.144  74.941
32966DT     SC114301  44.863  73.405  74.934
32966DT     SC214302  45.048  73.501  74.986
32966DT     SC314303  44.757  73.643  74.974
32967DA     BB114304  45.078  72.780  74.843
32967DA     BB214305  45.313  72.971  75.049
32967DA     BB314306  45.253  72.966  75.254
32967DA     SC114307  45.079  73.223  75.236
32967DA     SC214308  45.087  73.458  75.320
32967DA     SC314309  44.835  73.461  75.274
32967DA     SC414310  44.923  73.205  75.202
32968DC     BB114311  45.376  72.873  75.381
32968DC     BB214312  45.514  73.173  75.525
32968DC     BB314313  45.436  73.203  75.715
32968DC     SC114314  45.206  73.282  75.615
32968DC     SC214315  45.181  73.493  75.652
32968DC     SC314316  44.948  73.287  75.560
32969DA     BB114317  45.854  73.235  75.701
32969DA     BB214318  45.718  73.531  75.869
32969DA     BB314319  45.639  73.478  76.060
32969DA     SC114320  45.352  73.422  75.952
32969DA     SC214321  45.126  73.526  75.968
32969DA     SC314322  45.038  73.296  75.897
32969DA     SC414323  45.317  73.272  75.909
32970DA     BB114324  45.839  73.735  76.077
32970DA     BB214325  45.548  73.911  76.213
32970DA     BB314326  45.492  73.827  76.402
32970DA     SC114327  45.295  73.620  76.278
32970DA     SC214328  45.049  73.581  76.270
32970DA     SC314329  45.109  73.339  76.210
32970DA     SC414330  45.353  73.474  76.243
32971DC     BB114331  45.513  73.955  76.512
32971DC     BB214332  45.164  74.019  76.579
32971DC     BB314333  45.103  73.910  76.744
32971DC     SC114334  45.100  73.687  76.606
32971DC     SC214335  44.896  73.622  76.580
32971DC     SC314336  45.161  73.443  76.527
32972DG     BB114337  45.024  74.308  76.786
32972DG     BB214338  44.735  74.104  76.859
32972DG     BB314339  44.759  74.012  77.034
32972DG     SC114340  44.895  73.765  76.914
32972DG     SC214341  44.782  73.489  76.908
32972DG     SC314342  45.064  73.489  76.818
32972DG     SC414343  45.054  73.765  76.895
32973DG     BB114344  44.480  74.155  77.133
32973DG     BB214345  44.352  73.821  77.183
32973DG     BB314346  44.420  73.747  77.355
32973DG     SC114347  44.672  73.625  77.232
32973DG     SC214348  44.732  73.333  77.209
32973DG     SC314349  44.968  73.496  77.134
32973DG     SC414350  44.804  73.714  77.221
32974DC     BB114351  44.287  73.692  77.538
32974DC     BB214352  44.294  73.332  77.529
32974DC     BB314353  44.418  73.260  77.679
32974DC     SC114354  44.633  73.329  77.544
32974DC     SC214355  44.734  73.152  77.476
32974DC     SC314356  44.857  73.452  77.482
32975DG     BB114357  44.059  73.091  77.788
32975DG     BB214358  44.319  72.839  77.772
32975DG     BB314359  44.425  72.840  77.940
32975DG     SC114360  44.628  73.046  77.839
32975DG     SC214361  44.917  72.994  77.786
32975DG     SC314362  44.857  73.283  77.769
32975DG     SC414363  44.598  73.201  77.861
32976DT     BB114364  44.443  72.662  78.108
32976DT     BB214365  44.771  72.533  78.032
32976DT     BB314366  44.904  72.585  78.182
32976DT     SC114367  44.913  72.834  78.098
32976DT     SC214368  45.107  72.873  78.013
32976DT     SC314369  44.887  73.096  78.095
32977DC     BB114370  44.920  72.328  78.292
32977DC     BB214371  45.261  72.409  78.209
32977DC     BB314372  45.353  72.500  78.370
32977DC     SC114373  45.224  72.724  78.327
32977DC     SC214374  45.362  72.874  78.257
32977DC     SC314375  45.061  72.928  78.365
32978DT     BB114376  45.505  72.276  78.423
32978DT     BB214377  45.747  72.539  78.367
32978DT     BB314378  45.788  72.636  78.545
32978DT     SC114379  45.557  72.761  78.539
32978DT     SC214380  45.590  72.971  78.503
32978DT     SC314381  45.314  72.838  78.608
32979DA     BB114382  46.148  72.524  78.365
32979DA     BB214383  46.170  72.879  78.453
32979DA     BB314384  46.190  72.902  78.664
32979DA     SC114385  45.884  72.920  78.716
32979DA     SC214386  45.719  73.094  78.786
32979DA     SC314387  45.568  72.896  78.848
32979DA     SC414388  45.806  72.784  78.749
32980DT     BB114389  46.354  72.977  78.712
32980DT     BB214390  46.228  73.304  78.797
32980DT     BB314391  46.209  73.321  79.002
32980DT     SC114392  45.995  73.170  79.003
32980DT     SC214393  45.823  73.290  79.051
32980DT     SC314394  45.835  72.966  79.053
32981DA     BB114395  46.415  73.649  78.840
32981DA     BB214396  46.154  73.775  79.064
32981DA     BB314397  46.203  73.732  79.267
32981DA     SC114398  46.056  73.457  79.270
32981DA     SC214399  45.853  73.358  79.374
32981DA     SC314400  45.964  73.132  79.326
32981DA     SC414401  46.143  73.327  79.233
32982DT     BB114402  46.229  73.885  79.360
32982DT     BB214403  45.926  73.874  79.556
32982DT     BB314404  45.966  73.794  79.742
32982DT     SC114405  45.985  73.551  79.643
32982DT     SC214406  45.818  73.433  79.710
32982DT     SC314407  46.089  73.319  79.574
32983DA     BB114408  45.753  74.154  79.788
32983DA     BB214409  45.597  73.900  80.001
32983DA     BB314410  45.724  73.853  80.166
32983DA     SC114411  45.870  73.622  80.018
32983DA     SC214412  45.883  73.373  80.032
32983DA     SC314413  46.103  73.397  79.902
32983DA     SC414414  46.005  73.658  79.939
32984DA     BB114415  45.452  73.926  80.339
32984DA     BB214416  45.467  73.584  80.471
32984DA     BB314417  45.625  73.567  80.615
32984DA     SC114418  45.839  73.483  80.406
32984DA     SC214419  45.969  73.278  80.347
32984DA     SC314420  46.130  73.439  80.229
32984DA     SC414421  45.928  73.599  80.339
32985DC     BB114422  45.587  73.534  80.822
32985DC     BB214423  45.692  73.189  80.832
32985DC     BB314424  45.875  73.173  80.928
32985DC     SC114425  46.001  73.271  80.719
32985DC     SC214426  46.119  73.115  80.628
32985DC     SC314427  46.146  73.433  80.571
32986DC     BB114428  45.775  73.065  81.169
32986DC     BB214429  46.020  72.823  81.061
32986DC     BB314430  46.205  72.869  81.141
32986DC     SC114431  46.237  73.069  80.974
32986DC     SC214432  46.392  73.020  80.833
32986DC     SC314433  46.267  73.315  80.884
32987DG     BB114434  46.138  72.495  81.297
32987DG     BB214435  46.455  72.508  81.124
32987DG     BB314436  46.594  72.586  81.243
32987DG     SC114437  46.543  72.875  81.156
32987DG     SC214438  46.733  73.048  81.004
32987DG     SC314439  46.500  73.204  81.098
32987DG     SC414440  46.433  72.961  81.233
32988DA     BB114441  46.789  72.306  81.180
32988DA     BB214442  47.043  72.520  81.024
32988DA     BB314443  47.162  72.615  81.173
32988DA     SC114444  46.980  72.866  81.192
32988DA     SC214445  46.992  73.108  81.132
32988DA     SC314446  46.802  73.139  81.302
32988DA     SC414447  46.863  72.865  81.303
32989DT     BB114448  47.348  72.563  81.173
32989DT     BB214449  47.470  72.864  81.016
32989DT     BB314450  47.559  72.987  81.158
32989DT     SC114451  47.325  73.057  81.254
32989DT     SC214452  47.288  73.264  81.206
32989DT     SC314453  47.125  73.086  81.424
32990DA     BB114454  47.782  72.927  80.806
32990DA     BB214455  47.760  73.287  80.875
32990DA     BB314456  47.871  73.336  81.051
32990DA     SC114457  47.630  73.296  81.244
32990DA     SC214458  47.483  73.437  81.387
32990DA     SC314459  47.430  73.220  81.512
32990DA     SC414460  47.612  73.151  81.310
32991DT     BB114461  47.999  73.443  80.999
32991DT     BB214462  47.864  73.746  81.142
32991DT     BB314463  47.950  73.781  81.327
32991DT     SC114464  47.806  73.591  81.438
32991DT     SC214465  47.661  73.679  81.570
32991DT     SC314466  47.745  73.366  81.561
32992DA     BB114467  47.950  74.121  81.080
32992DA     BB214468  47.834  74.219  81.414
32992DA     BB314469  47.994  74.207  81.554
32992DA     SC114470  47.936  73.912  81.633
32992DA     SC214471  47.850  73.788  81.831
32992DA     SC314472  47.963  73.583  81.726
32992DA     SC414473  48.014  73.797  81.552
32993DT     BB114474  48.043  74.375  81.624
32993DT     BB214475  47.917  74.329  81.959
32993DT     BB314476  48.072  74.277  82.086
32993DT     SC114477  48.081  74.033  81.989
32993DT     SC214478  48.010  73.895  82.138
32993DT     SC314479  48.172  73.817  81.867
32994DG     BB114480  47.916  74.619  82.245
32994DG     BB214481  47.949  74.363  82.498
32994DG     BB314482  48.138  74.353  82.560
32994DG     SC114483  48.221  74.146  82.350
32994DG     SC214484  48.302  73.864  82.404
32994DG     SC314485  48.351  73.934  82.121
32994DG     SC414486  48.273  74.196  82.207
32995DT     BB114487  48.221  74.405  82.779
32995DT     BB214488  48.294  74.076  82.909
32995DT     BB314489  48.498  74.046  82.916
32995DT     SC114490  48.511  74.015  82.656
32995DT     SC214491  48.557  73.809  82.611
32995DT     SC314492  48.574  74.058  82.404
32996DA     BB114493  48.386  73.964  83.313
32996DA     BB214494  48.602  73.688  83.205
32996DA     BB314495  48.807  73.749  83.208
32996DA     SC114496  48.807  73.849  82.914
32996DA     SC214497  48.907  73.781  82.696
32996DA     SC314498  48.864  74.023  82.623
32996DA     SC414499  48.774  74.004  82.888
32997DG     BB114500  48.875  73.527  83.427
32997DG     BB214501  49.080  73.386  83.164
32997DG     BB314502  49.262  73.466  83.170
32997DG     SC114503  49.193  73.697  82.982
32997DG     SC214504  49.302  73.738  82.707
32997DG     SC314505  49.146  73.974  82.795
32997DG     SC414506  49.134  73.833  83.044
32998DG     BB114507  49.412  73.171  83.217
32998DG     BB214508  49.572  73.224  82.897
32998DG     BB314509  49.740  73.327  82.921
32998DG     SC114510  49.605  73.601  82.891
32998DG     SC214511  49.648  73.793  82.667
32998DG     SC314512  49.488  73.917  82.883
32998DG     SC414513  49.545  73.672  83.021
32999DC     BB114514  49.952  73.245  82.872
32999DC     BB214515  50.024  73.420  82.565
32999DC     BB314516  50.165  73.567  82.598
32999DC     SC114517  49.988  73.720  82.717
32999DC     SC214518  49.947  73.891  82.593
32999DC     SC314519  49.867  73.860  82.906
33000DC     BB114520  50.358  73.423  82.467
33000DC     BB214521  50.347  73.737  82.291
33000DC     BB314522  50.477  73.872  82.379
33000DC     SC114523  50.313  73.909  82.581
33000DC     SC214524  50.230  74.107  82.571
33000DC     SC314525  50.220  73.909  82.828
33001DG     BB114526  50.598  73.838  81.992
33001DG     BB214527  50.547  74.184  82.082
33001DG     BB314528  50.704  74.251  82.184
33001DG     SC114529  50.592  74.171  82.458
33001DG     SC214530  50.509  74.358  82.675
33001DG     SC314531  50.509  74.078  82.771
33001DG     SC414532  50.622  74.024  82.514
33002DA     BB114533  50.707  74.511  81.956
33002DA     BB214534  50.662  74.752  82.229
33002DA     BB314535  50.845  74.779  82.335
33002DA     SC114536  50.788  74.553  82.541
33002DA     SC214537  50.734  74.534  82.784
33002DA     SC314538  50.814  74.291  82.762
33002DA     SC414539  50.842  74.405  82.507
33003DA     BB114540  50.772  75.089  82.265
33003DA     BB214541  50.765  75.149  82.626
33003DA     BB314542  50.963  75.153  82.705
33003DA     SC114543  50.971  74.849  82.767
33003DA     SC214544  50.973  74.702  82.969
33003DA     SC314545  51.067  74.522  82.812
33003DA     SC414546  51.030  74.751  82.654
33004DC     BB114547  51.022  75.325  82.776
33004DC     BB214548  51.009  75.237  83.125
33004DC     BB314549  51.199  75.200  83.197
33004DC     SC114550  51.209  74.968  83.075
33004DC     SC214551  51.204  74.810  83.221
33004DC     SC314552  51.286  74.778  82.909
33005DA     BB114553  51.012  75.472  83.454
33005DA     BB214554  51.165  75.210  83.659
33005DA     BB314555  51.377  75.231  83.660
33005DA     SC114556  51.421  75.047  83.413
33005DA     SC214557  51.517  74.822  83.366
33005DA     SC314558  51.536  74.904  83.123
33005DA     SC414559  51.426  75.117  83.269
33006DT     BB114560  51.467  75.280  83.834
33006DT     BB214561  51.617  74.960  83.903
33006DT     BB314562  51.820  74.966  83.861
33006DT     SC114563  51.776  74.960  83.603
33006DT     SC214564  51.841  74.770  83.524
33006DT     SC314565  51.770  75.034  83.350
33007DG     BB114566  51.797  74.862  84.256
33007DG     BB214567  52.012  74.634  84.075
33007DG     BB314568  52.191  74.717  84.048
33007DG     SC114569  52.118  74.848  83.782
33007DG     SC214570  52.231  74.778  83.514
33007DG     SC314571  52.066  75.023  83.498
33007DG     SC414572  52.054  74.995  83.783
33008DT     BB114573  52.399  74.640  84.141
33008DT     BB214574  52.557  74.496  83.849
33008DT     BB314575  52.712  74.617  83.786
33008DT     SC114576  52.545  74.793  83.686
33008DT     SC214577  52.558  74.789  83.471
33008DT     SC314578  52.416  75.020  83.649
33009DT     BB114579  52.925  74.453  83.881
33009DT     BB214580  53.001  74.494  83.531
33009DT     BB314581  53.126  74.657  83.504
33009DT     SC114582  52.928  74.825  83.545
33009DT     SC214583  52.879  74.924  83.360
33009DT     SC314584  52.782  75.014  83.656
33010DC     BB114585  53.363  74.509  83.453
33010DC     BB214586  53.328  74.718  83.161
33010DC     BB314587  53.432  74.895  83.189
33010DC     SC114588  53.248  74.986  83.353
33010DC     SC214589  53.142  75.148  83.259
33010DC     SC314590  53.134  75.074  83.574
33011DA     BB114591  53.578  74.744  82.826
33011DA     BB214592  53.481  75.092  82.768
33011DA     BB314593  53.626  75.225  82.851
33011DA     SC114594  53.486  75.244  83.128
33011DA     SC214595  53.362  75.415  83.261
33011DA     SC314596  53.418  75.269  83.464
33011DA     SC414597  53.532  75.141  83.242
33012DA     BB114598  53.627  75.346  82.546
33012DA     BB214599  53.505  75.660  82.690
33012DA     BB314600  53.665  75.766  82.784
33012DA     SC114601  53.622  75.635  83.062
33012DA     SC214602  53.541  75.704  83.288
33012DA     SC314603  53.664  75.495  83.373
33012DA     SC414604  53.705  75.502  83.096
33013DG     BB114605  53.594  75.985  82.576
33013DG     BB214606  53.499  76.169  82.873
33013DG     BB314607  53.659  76.254  82.955
33013DG     SC114608  53.726  76.014  83.133
33013DG     SC214609  53.713  76.008  83.431
33013DG     SC314610  53.840  75.763  83.327
33013DG     SC414611  53.820  75.898  83.075
33014DG     BB114612  53.497  76.532  82.919
33014DG     BB214613  53.503  76.550  83.280
33014DG     BB314614  53.678  76.621  83.341
33014DG     SC114615  53.811  76.347  83.360
33014DG     SC214616  53.901  76.212  83.611
33014DG     SC314617  53.995  76.064  83.373
33014DG     SC414618  53.884  76.287  83.231
33015DG     BB114619  53.492  76.842  83.485
33015DG     BB214620  53.625  76.710  83.795
33015DG     BB314621  53.806  76.785  83.828
33015DG     SC114622  53.952  76.561  83.679
33015DG     SC214623  54.132  76.357  83.802
33015DG     SC314624  54.143  76.343  83.506
33015DG     SC414625  53.977  76.576  83.522
33016DA     BB114626  53.648  76.834  84.128
33016DA     BB214627  53.910  76.636  84.289
33016DA     BB314628  54.095  76.742  84.287
33016DA     SC114629  54.189  76.622  84.016
33016DA     SC214630  54.363  76.463  83.935
33016DA     SC314631  54.327  76.573  83.706
33016DA     SC414632  54.153  76.704  83.882
33017DC     BB114633  54.131  76.766  84.452
33017DC     BB214634  54.406  76.534  84.475
33017DC     BB314635  54.585  76.632  84.440
33017DC     SC114636  54.536  76.645  84.182
33017DC     SC214637  54.672  76.516  84.077
33017DC     SC314638  54.489  76.747  83.944
33018DT     BB114639  54.611  76.574  84.690
33018DT     BB214640  54.901  76.434  84.526
33018DT     BB314641  55.038  76.584  84.485
33018DT     SC114642  54.892  76.674  84.286
33018DT     SC214643  54.991  76.633  84.100
33018DT     SC314644  54.742  76.836  84.142
33019DT     BB114645  55.178  76.467  84.672
33019DT     BB214646  55.398  76.485  84.387
33019DT     BB314647  55.481  76.674  84.373
33019DT     SC114648  55.256  76.774  84.284
33019DT     SC214649  55.279  76.829  84.077
33019DT     SC314650  55.037  76.921  84.272
33020DA     BB114651  55.814  76.414  84.363
33020DA     BB214652  55.863  76.665  84.100
33020DA     BB314653  55.913  76.854  84.186
33020DA     SC114654  55.617  76.950  84.207
33020DA     SC214655  55.471  77.120  84.099
33020DA     SC314656  55.322  77.095  84.306
33020DA     SC414657  55.539  76.921  84.344
33021DA     BB114658  56.206  76.881  84.011
33021DA     BB214659  56.079  77.188  83.857
33021DA     BB314660  56.111  77.355  83.987
33021DA     SC114661  55.836  77.327  84.130
33021DA     SC214662  55.620  77.453  84.141
33021DA     SC314663  55.581  77.324  84.360
33021DA     SC414664  55.830  77.239  84.264
33022DT     BB114665  56.263  77.544  83.964
33022DT     BB214666  56.010  77.787  83.877
33022DT     BB314667  55.992  77.927  84.028
33022DT     SC114668  55.866  77.757  84.183
33022DT     SC214669  55.660  77.818  84.203
33022DT     SC314670  55.813  77.601  84.388
33023DG     BB114671  56.100  78.163  83.710
33023DG     BB214672  55.797  78.286  83.863
33023DG     BB314673  55.841  78.400  84.020
33023DG     SC114674  55.839  78.168  84.220
33023DG     SC214675  55.642  78.129  84.441
33023DG     SC314676  55.864  77.935  84.462
33023DG     SC414677  55.974  78.085  84.245
33024DT     BB114678  55.787  78.619  84.029
33024DT     BB214679  55.505  78.610  84.254
33024DT     BB314680  55.560  78.684  84.440
33024DT     SC114681  55.692  78.465  84.497
33024DT     SC214682  55.588  78.358  84.652
33024DT     SC314683  55.893  78.304  84.554
33025DG     BB114684  55.243  78.896  84.297
33025DG     BB214685  55.180  78.770  84.630
33025DG     BB314686  55.277  78.881  84.764
33025DG     SC114687  55.532  78.711  84.756
33025DG     SC214688  55.638  78.543  84.979
33025DG     SC314689  55.833  78.559  84.757
33025DG     SC414690  55.645  78.746  84.648
33026DT     BB114691  55.162  78.983  84.907
33026DT     BB214692  55.227  78.795  85.208
33026DT     BB314693  55.369  78.892  85.323
33026DT     SC114694  55.562  78.819  85.161
33026DT     SC214695  55.688  78.675  85.260
33026DT     SC314696  55.760  78.835  84.988
33027DA     BB114697  55.045  78.821  85.583
33027DA     BB214698  55.351  78.722  85.758
33027DA     BB314699  55.461  78.894  85.819
33027DA     SC114700  55.630  78.908  85.558
33027DA     SC214701  55.867  78.871  85.489
33027DA     SC314702  55.808  79.014  85.284
33027DA     SC414703  55.575  79.000  85.439
33028DT     BB114704  55.494  78.974  86.038
33028DT     BB214705  55.841  78.880  86.067
33028DT     BB314706  55.960  79.050  86.070
33028DT     SC114707  55.928  79.087  85.812
33028DT     SC214708  56.113  79.048  85.711
33028DT     SC314709  55.855  79.199  85.585
33029DA     BB114710  56.095  78.900  86.448
33029DA     BB214711  56.398  78.978  86.256
33029DA     BB314712  56.443  79.186  86.269
33029DA     SC114713  56.277  79.263  86.017
33029DA     SC214714  56.321  79.343  85.785
33029DA     SC314715  56.077  79.423  85.788
33029DA     SC414716  56.124  79.306  86.039
33030DT     BB114717  56.637  79.315  86.385
33030DT     BB214718  56.816  79.370  86.077
33030DT     BB314719  56.829  79.573  86.038
33030DT     SC114720  56.577  79.583  85.966
33030DT     SC214721  56.564  79.618  85.754
33030DT     SC314722  56.321  79.647  85.966
33031DT     BB114723  57.105  79.599  86.099
33031DT     BB214724  57.080  79.696  85.752
33031DT     BB314725  57.055  79.901  85.738
33031DT     SC114726  56.805  79.885  85.816
33031DT     SC214727  56.676  79.932  85.651
33031DT     SC314728  56.589  79.917  85.963
33032DT     BB114729  57.301  79.901  85.636
33032DT     BB214730  57.089  80.035  85.376
33032DT     BB314731  57.061  80.238  85.405
33032DT     SC114732  56.895  80.194  85.604
33032DT     SC214733  56.696  80.249  85.544
33032DT     SC314734  56.795  80.193  85.848
33033DA     BB114735  57.167  80.135  85.012
33033DA     BB214736  56.875  80.355  85.001
33033DA     BB314737  56.929  80.553  85.061
33033DA     SC114738  56.866  80.504  85.362
33033DA     SC214739  56.696  80.578  85.529
33033DA     SC314740  56.868  80.506  85.706
33033DA     SC414741  56.987  80.455  85.456
33034DT     BB114742  56.906  80.666  84.923
33034DT     BB214743  56.613  80.835  85.048
33034DT     BB314744  56.668  81.012  85.141
33034DT     SC114745  56.760  80.883  85.350
33034DT     SC214746  56.633  80.921  85.519
33034DT     SC314747  56.930  80.792  85.531
33035DT     BB114748  56.562  81.146  84.932
33035DT     BB214749  56.394  81.280  85.222
33035DT     BB314750  56.507  81.433  85.305
33035DT     SC114751  56.678  81.261  85.406
33035DT     SC214752  56.658  81.259  85.621
33035DT     SC314753  56.904  81.133  85.451
33036DA     BB114754  56.126  81.599  85.247
33036DA     BB214755  56.229  81.677  85.590
33036DA     BB314756  56.377  81.831  85.590
33036DA     SC114757  56.617  81.635  85.575
33036DA     SC214758  56.803  81.558  85.723
33036DA     SC314759  56.918  81.484  85.506
33036DA     SC414760  56.674  81.597  85.429
33037DA     BB114761  56.169  81.984  85.794
33037DA     BB214762  56.433  81.967  86.048
33037DA     BB314763  56.580  82.119  86.013
33037DA     SC114764  56.758  81.938  85.832
33037DA     SC214765  56.981  81.828  85.845
33037DA     SC314766  56.968  81.818  85.589
33037DA     SC414767  56.732  81.943  85.674
33038DA     BB114768  56.504  82.180  86.323
33038DA     BB214769  56.853  82.100  86.401
33038DA     BB314770  56.981  82.260  86.344
33038DA     SC114771  57.032  82.149  86.058
33038DA     SC214772  57.221  82.048  85.929
33038DA     SC314773  57.088  82.115  85.720
33038DA     SC414774  56.935  82.199  85.940
33039DC     BB114775  57.061  82.328  86.490
33039DC     BB214776  57.387  82.186  86.432
33039DC     BB314777  57.511  82.327  86.346
33039DC     SC114778  57.391  82.303  86.114
33039DC     SC214779  57.524  82.209  85.974
33039DC     SC314780  57.251  82.366  85.900
33040DA     BB114781  57.667  82.095  86.664
33040DA     BB214782  57.909  82.102  86.389
33040DA     BB314783  57.983  82.300  86.360
33040DA     SC114784  57.764  82.379  86.154
33040DA     SC214785  57.749  82.428  85.910
33040DA     SC314786  57.529  82.547  85.967
33040DA     SC414787  57.631  82.449  86.210
33041DA     BB114788  58.231  82.083  86.373
33041DA     BB214789  58.326  82.221  86.046
33041DA     BB314790  58.380  82.426  86.066
33041DA     SC114791  58.093  82.533  86.014
33041DA     SC214792  57.971  82.658  85.836
33041DA     SC314793  57.801  82.714  86.019
33041DA     SC414794  57.999  82.558  86.142
33042DT     BB114795  58.556  82.450  86.026
33042DT     BB214796  58.514  82.628  85.715
33042DT     BB314797  58.526  82.832  85.748
33042DT     SC114798  58.286  82.837  85.855
33042DT     SC214799  58.151  82.940  85.724
33042DT     SC314800  58.095  82.866  86.034
33043DG     BB114801  58.821  82.751  85.478
33043DG     BB214802  58.616  83.027  85.367
33043DG     BB314803  58.667  83.193  85.464
33043DG     SC114804  58.471  83.149  85.695
33043DG     SC214805  58.232  83.317  85.756
33043DG     SC314806  58.282  83.121  85.973
33043DG     SC414807  58.518  83.063  85.822
33044DA     BB114808  58.709  83.361  85.159
33044DA     BB214809  58.454  83.607  85.255
33044DA     BB314810  58.536  83.749  85.391
33044DA     SC114811  58.459  83.588  85.645
33044DA     SC214812  58.298  83.608  85.835
33044DA     SC314813  58.453  83.443  85.957
33044DA     SC414814  58.568  83.486  85.704
33045DA     BB114815  58.424  83.967  85.170
33045DA     BB214816  58.208  84.099  85.436
33045DA     BB314817  58.322  84.220  85.570
33045DA     SC114818  58.392  83.984  85.761
33045DA     SC214819  58.334  83.910  85.992
33045DA     SC314820  58.548  83.769  85.979
33045DA     SC414821  58.529  83.905  85.734
33046DT     BB114822  58.279  84.413  85.576
33046DT     BB214823  58.108  84.410  85.894
33046DT     BB314824  58.231  84.489  86.041
33046DT     SC114825  58.377  84.271  86.047
33046DT     SC214826  58.344  84.168  86.233
33046DT     SC314827  58.586  84.111  86.025
33047DA     BB114828  57.856  84.676  86.056
33047DA     BB214829  57.947  84.574  86.396
33047DA     BB314830  58.105  84.696  86.471
33047DA     SC114831  58.331  84.509  86.367
33047DA     SC214832  58.502  84.355  86.463
33047DA     SC314833  58.623  84.381  86.238
33047DA     SC414834  58.391  84.539  86.221
33048DA     BB114835  57.885  84.725  86.713
33048DA     BB214836  58.143  84.588  86.935
33048DA     BB314837  58.296  84.732  86.968
33048DA     SC114838  58.470  84.638  86.728
33048DA     SC214839  58.688  84.521  86.692
33048DA     SC314840  58.680  84.623  86.457
33048DA     SC414841  58.448  84.711  86.587
33049DG     BB114842  58.221  84.714  87.274
33049DG     BB214843  58.560  84.594  87.309
33049DG     BB314844  58.686  84.747  87.316
33049DG     SC114845  58.729  84.758  87.013
33049DG     SC214846  58.983  84.696  86.870
33049DG     SC314847  58.783  84.811  86.684
33049DG     SC414848  58.630  84.846  86.924
33050DA     BB114849  58.839  84.649  87.626
33050DA     BB214850  59.167  84.624  87.465
33050DA     BB314851  59.256  84.817  87.448
33050DA     SC114852  59.136  84.874  87.166
33050DA     SC214853  59.218  84.895  86.932
33050DA     SC314854  58.999  85.021  86.888
33050DA     SC414855  58.995  84.951  87.160
33051DT     BB114856  59.453  84.917  87.565
33051DT     BB214857  59.678  84.895  87.284
33051DT     BB314858  59.730  85.085  87.220
33051DT     SC114859  59.495  85.120  87.108
33051DT     SC214860  59.517  85.122  86.894
33051DT     SC314861  59.256  85.220  87.059
33052DA     BB114862  60.108  84.914  87.288
33052DA     BB214863  60.115  85.057  86.951
33052DA     BB314864  60.141  85.268  86.960
33052DA     SC114865  59.837  85.331  86.968
33052DA     SC214866  59.666  85.433  86.818
33052DA     SC314867  59.528  85.467  87.032
33052DA     SC414868  59.767  85.345  87.112
33053DT     BB114869  60.319  85.361  86.887
33053DT     BB214870  60.173  85.491  86.584
33053DT     BB314871  60.154  85.697  86.597
33053DT     SC114872  59.949  85.675  86.760
33053DT     SC214873  59.770  85.739  86.659
33053DT     SC314874  59.803  85.695  86.978
33054DC     BB114875  60.354  85.723  86.418
33054DC     BB214876  60.075  85.896  86.269
33054DC     BB314877  60.069  86.092  86.336
33054DC     SC114878  59.978  86.017  86.570
33054DC     SC214879  59.774  86.081  86.591
33054DC     SC314880  59.966  85.977  86.831
33055DC     BB114881  60.149  86.173  86.091
33055DC     BB214882  59.839  86.348  86.148
33055DC     BB314883  59.875  86.523  86.252
33055DC     SC114884  59.914  86.391  86.476
33055DC     SC214885  59.752  86.431  86.611
33055DC     SC314886  60.035  86.295  86.689
33056DC     BB114887  59.829  86.678  86.029
33056DC     BB214888  59.599  86.808  86.274
33056DC     BB314889  59.691  86.955  86.386
33056DC     SC114890  59.831  86.778  86.520
33056DC     SC214891  59.761  86.770  86.723
33056DC     SC314892  60.038  86.644  86.613
33057DA     BB114893  59.345  87.148  86.244
33057DA     BB214894  59.363  87.210  86.605
33057DA     BB314895  59.509  87.359  86.648
33057DA     SC114896  59.742  87.156  86.683
33057DA     SC214897  59.883  87.068  86.869
33057DA     SC314898  60.047  86.999  86.684
33057DA     SC414899  59.831  87.123  86.554
33058DT     BB114900  59.465  87.570  86.728
33058DT     BB214901  59.573  87.502  87.066
33058DT     BB314902  59.746  87.607  87.107
33058DT     SC114903  59.890  87.442  86.962
33058DT     SC214904  60.017  87.326  87.091
33058DT     SC314905  60.046  87.353  86.769
33059DG     BB114906  59.480  87.743  87.385
33059DG     BB214907  59.778  87.614  87.542
33059DG     BB314908  59.922  87.752  87.540
33059DG     SC114909  60.035  87.664  87.269
33059DG     SC214910  60.303  87.541  87.223
33059DG     SC314911  60.173  87.608  86.967
33059DG     SC414912  59.975  87.728  87.136
33060DG     BB114913  59.916  87.710  87.858
33060DG     BB214914  60.251  87.580  87.816
33060DG     BB314915  60.381  87.730  87.805
33060DG     SC114916  60.362  87.758  87.501
33060DG     SC214917  60.580  87.699  87.306
33060DG     SC314918  60.351  87.830  87.172
33060DG     SC414919  60.251  87.854  87.439
33061DA     BB114920  60.511  87.510  88.030
33061DA     BB214921  60.809  87.484  87.818
33061DA     BB314922  60.919  87.667  87.822
33061DA     SC114923  60.770  87.790  87.578
33061DA     SC214924  60.821  87.849  87.341
33061DA     SC314925  60.616  88.003  87.356
33061DA     SC414926  60.640  87.881  87.607
33062DT     BB114927  61.057  87.609  87.883
33062DT     BB214928  61.256  87.638  87.583
33062DT     BB314929  61.341  87.826  87.573
33062DT     SC114930  61.112  87.935  87.507
33062DT     SC214931  61.121  88.001  87.302
33062DT     SC314932  60.896  88.086  87.520
33063DT     BB114933  61.549  87.678  87.609
33063DT     BB214934  61.612  87.864  87.307
33063DT     BB314935  61.667  88.058  87.354
33063DT     SC114936  61.420  88.122  87.416
33063DT     SC214937  61.342  88.258  87.268
33063DT     SC314938  61.211  88.197  87.559
33064DT     BB114939  61.904  87.984  87.269
33064DT     BB214940  61.823  88.277  87.075
33064DT     BB314941  61.864  88.448  87.185
33064DT     SC114942  61.651  88.411  87.335
33064DT     SC214943  61.506  88.564  87.291
33064DT     SC314944  61.502  88.367  87.548
33065DT     BB114945  62.082  88.501  87.031
33065DT     BB214946  61.888  88.804  87.015
33065DT     BB314947  61.936  88.927  87.175
33065DT     SC114948  61.800  88.776  87.341
33065DT     SC214949  61.625  88.881  87.407
33065DT     SC314950  61.748  88.614  87.543
33066DG     BB114951  62.031  89.159  86.851
33066DG     BB214952  61.818  89.340  87.080
33066DG     BB314953  61.926  89.412  87.231
33066DG     SC114954  61.892  89.164  87.406
33066DG     SC214955  61.741  89.151  87.664
33066DG     SC314956  61.892  88.900  87.617
33066DG     SC414957  61.997  89.044  87.392
33067DT     BB114958  61.962  89.643  87.282
33067DT     BB214959  61.747  89.684  87.569
33067DT     BB314960  61.861  89.701  87.740
33067DT     SC114961  61.916  89.444  87.739
33067DT     SC214962  61.815  89.349  87.904
33067DT     SC314963  62.053  89.220  87.727
33068DA     BB114964  61.614  90.039  87.749
33068DA     BB214965  61.589  89.878  88.077
33068DA     BB314966  61.764  89.917  88.192
33068DA     SC114967  61.916  89.665  88.093
33068DA     SC214968  61.993  89.447  88.186
33068DA     SC314969  62.156  89.443  87.989
33068DA     SC414970  62.012  89.682  87.964
33069DA     BB114971  61.544  90.024  88.412
33069DA     BB214972  61.666  89.760  88.636
33069DA     BB314973  61.852  89.817  88.722
33069DA     SC114974  62.024  89.689  88.497
33069DA     SC214975  62.178  89.495  88.470
33069DA     SC314976  62.266  89.619  88.264
33069DA     SC414977  62.066  89.782  88.373
33070DA     BB114978  61.684  89.747  88.995
33070DA     BB214979  61.935  89.487  89.057
33070DA     BB314980  62.117  89.574  89.125
33070DA     SC114981  62.237  89.604  88.840
33070DA     SC214982  62.421  89.502  88.706
33070DA     SC314983  62.405  89.713  88.561
33070DA     SC414984  62.213  89.743  88.763
33071DT     BB114985  62.181  89.538  89.319
33071DT     BB214986  62.447  89.310  89.234
33071DT     BB314987  62.631  89.403  89.260
33071DT     SC114988  62.598  89.544  89.041
33071DT     SC214989  62.737  89.476  88.891
33071DT     SC314990  62.568  89.752  88.882
33072DC     BB114991  62.672  89.247  89.476
33072DC     BB214992  62.954  89.180  89.261
33072DC     BB314993  63.103  89.319  89.295
33072DC     SC114994  62.970  89.505  89.167
33072DC     SC214995  63.071  89.551  88.983
33072DC     SC314996  62.838  89.729  89.121
33073DA     BB114997  63.269  88.935  89.314
33073DA     BB214998  63.485  89.141  89.101
33073DA     BB314999  63.594  89.282  89.219
33073DA     SC115000  63.378  89.505  89.196
33073DA     SC215001  63.354  89.727  89.086
33073DA     SC315002  63.167  89.769  89.256
33073DA     SC415003  63.266  89.512  89.311
33074DG     BB115004  63.836  89.134  89.094
33074DG     BB215005  63.906  89.459  88.953
33074DG     BB315006  63.995  89.574  89.089
33074DG     SC115007  63.733  89.687  89.200
33074DG     SC215008  63.641  89.970  89.178
33074DG     SC315009  63.465  89.816  89.359
33074DG     SC415010  63.659  89.609  89.318
33075DA     BB115011  64.251  89.641  88.858
33075DA     BB215012  64.187  90.001  88.882
33075DA     BB315013  64.268  90.079  89.063
33075DA     SC115014  64.009  90.034  89.228
33075DA     SC215015  63.831  90.173  89.334
33075DA     SC315016  63.782  89.966  89.477
33075DA     SC415017  63.995  89.895  89.308
33076DA     BB115018  64.446  90.303  88.884
33076DA     BB215019  64.271  90.572  89.062
33076DA     BB315020  64.359  90.603  89.254
33076DA     SC115021  64.173  90.401  89.400
33076DA     SC215022  63.986  90.408  89.565
33076DA     SC315023  64.043  90.162  89.609
33076DA     SC415024  64.224  90.249  89.414
33077DA     BB115025  64.427  90.935  89.196
33077DA     BB215026  64.204  91.022  89.474
33077DA     BB315027  64.309  91.012  89.660
33077DA     SC115028  64.239  90.714  89.712
33077DA     SC215029  64.097  90.583  89.870
33077DA     SC315030  64.245  90.383  89.806
33077DA     SC415031  64.343  90.603  89.661
33078DT     BB115032  64.385  91.196  89.826
33078DT     BB215033  64.129  91.128  90.070
33078DT     BB315034  64.216  91.062  90.246
33078DT     SC115035  64.266  90.826  90.142
33078DT     SC215036  64.140  90.679  90.235
33078DT     SC315037  64.402  90.618  90.053
33079DT     BB115038  64.192  91.303  90.422
33079DT     BB215039  64.015  91.048  90.605
33079DT     BB315040  64.139  90.964  90.748
33079DT     SC115041  64.271  90.829  90.565
33079DT     SC215042  64.228  90.620  90.586
33079DT     SC315043  64.470  90.747  90.412
33080DG     BB115044  63.826  91.116  90.958
33080DG     BB215045  63.867  90.762  91.020
33080DG     BB315046  64.007  90.733  91.158
33080DG     SC115047  64.236  90.717  90.955
33080DG     SC215048  64.399  90.474  90.894
33080DG     SC315049  64.513  90.714  90.763
33080DG     SC415050  64.311  90.852  90.911
33081DA     BB115051  63.753  90.546  91.277
33081DA     BB215052  63.967  90.249  91.247
33081DA     BB315053  64.117  90.251  91.399
33081DA     SC115054  64.325  90.404  91.227
33081DA     SC215055  64.543  90.356  91.114
33081DA     SC315056  64.576  90.611  91.116
33081DA     SC415057  64.328  90.564  91.238
33082DC     BB115058  64.077  90.111  91.479
33082DC     BB215059  64.356  89.915  91.362
33082DC     BB315060  64.515  89.932  91.494
33082DC     SC115061  64.570  90.174  91.408
33082DC     SC215062  64.755  90.171  91.299
33082DC     SC315063  64.603  90.436  91.408
33083DG     BB115064  64.399  89.551  91.397
33083DG     BB215065  64.755  89.603  91.355
33083DG     BB315066  64.842  89.621  91.533
33083DG     SC115067  64.807  89.925  91.547
33083DG     SC215068  65.026  90.128  91.541
33083DG     SC315069  64.767  90.255  91.605
33083DG     SC415070  64.672  89.985  91.610
33084DG     BB115071  65.021  89.379  91.413
33084DG     BB215072  65.303  89.599  91.464
33084DG     BB315073  65.348  89.608  91.658
33084DG     SC115074  65.162  89.845  91.715
33084DG     SC215075  65.247  90.120  91.794
33084DG     SC315076  64.954  90.090  91.817
33084DG     SC415077  65.010  89.816  91.754
33085DT     BB115078  65.539  89.539  91.724
33085DT     BB215079  65.709  89.844  91.814
33085DT     BB315080  65.701  89.872  92.018
33085DT     SC115081  65.448  89.943  92.006
33085DT     SC215082  65.431  90.153  92.051
33085DT     SC315083  65.187  89.939  92.044
33086DA     BB115084  66.114  89.897  91.940
33086DA     BB215085  66.029  90.180  92.157
33086DA     BB315086  65.999  90.113  92.358
33086DA     SC115087  65.694  90.063  92.323
33086DA     SC215088  65.480  90.164  92.402
33086DA     SC315089  65.375  89.938  92.340
33086DA     SC415090  65.648  89.915  92.279
33087DA     BB115091  66.234  90.329  92.468
33087DA     BB215092  65.974  90.493  92.669
33087DA     BB315093  65.942  90.385  92.850
33087DA     SC115094  65.720  90.203  92.732
33087DA     SC215095  65.473  90.173  92.757
33087DA     SC315096  65.512  89.940  92.657
33087DA     SC415097  65.765  90.062  92.670
33088DT     BB115098  65.994  90.456  93.067
33088DT     BB215099  65.654  90.531  93.162
33088DT     BB315100  65.590  90.397  93.307
33088DT     SC115101  65.564  90.206  93.129
33088DT     SC215102  65.355  90.162  93.101
33088DT     SC315103  65.603  89.978  93.002
33089DT     BB115104  65.602  90.579  93.523
33089DT     BB215105  65.258  90.468  93.519
33089DT     BB315106  65.235  90.304  93.643
33089DT     SC115107  65.353  90.146  93.469
33089DT     SC215108  65.209  90.011  93.385
33089DT     SC315109  65.531  89.982  93.363
33090DG     BB115110  64.981  90.593  93.772
33090DG     BB215111  64.807  90.284  93.702
33090DG     BB315112  64.832  90.156  93.852
33090DG     SC115113  65.086  90.031  93.735
33090DG     SC215114  65.114  89.751  93.635
33090DG     SC315115  65.377  89.886  93.646
33090DG     SC415116  65.228  90.097  93.770
33091DT     BB115117  64.659  90.092  93.952
33091DT     BB215118  64.620  89.758  93.821
33091DT     BB315119  64.686  89.620  93.960
33091DT     SC115120  64.937  89.678  93.910
33091DT     SC215121  65.030  89.512  93.809
33091DT     SC315122  65.185  89.762  93.946
33092DT     BB115123  64.432  89.564  93.970
33092DT     BB215124  64.596  89.257  93.873
33092DT     BB315125  64.674  89.163  94.040
33092DT     SC115126  64.870  89.336  94.056
33092DT     SC215127  65.055  89.239  94.006
33092DT     SC315128  65.025  89.528  94.150
33093DA     BB115129  64.453  88.905  93.792
33093DA     BB215130  64.772  88.744  93.876
33093DA     BB315131  64.776  88.692  94.083
33093DA     SC115132  64.902  88.962  94.174
33093DA     SC215133  65.120  89.042  94.265
33093DA     SC315134  64.986  89.246  94.346
33093DA     SC415135  64.801  89.079  94.217
33094DA     BB115136  64.861  88.421  93.919
33094DA     BB215137  65.171  88.432  94.115
33094DA     BB315138  65.130  88.389  94.320
33094DA     SC115139  65.085  88.687  94.398
33094DA     SC215140  65.201  88.862  94.533
33094DA     SC315141  64.972  88.979  94.540
33094DA     SC415142  64.935  88.743  94.392
33095DA     BB115143  65.372  88.179  94.249
33095DA     BB215144  65.559  88.337  94.521
33095DA     BB315145  65.474  88.285  94.710
33095DA     SC115146  65.281  88.529  94.717
33095DA     SC215147  65.257  88.741  94.846
33095DA     SC315148  65.013  88.738  94.765
33095DA     SC415149  65.133  88.509  94.657
33096DA     BB115150  65.787  88.198  94.767
33096DA     BB215151  65.782  88.436  95.047
33096DA     BB315152  65.665  88.358  95.208
33096DA     SC115153  65.400  88.486  95.109
33096DA     SC215154  65.245  88.668  95.181
33096DA     SC315155  65.071  88.551  95.034
33096DA     SC415156  65.305  88.398  95.014
33097DT     BB115157  65.755  88.304  95.387
33097DT     BB215158  65.630  88.577  95.587
33097DT     BB315159  65.478  88.510  95.711
33097DT     SC115160  65.309  88.497  95.510
33097DT     SC215161  65.160  88.650  95.533
33097DT     SC315162  65.143  88.397  95.332
33098DA     BB115163  65.742  88.688  95.988
33098DA     BB215164  65.406  88.812  96.066
33098DA     BB315165  65.293  88.662  96.168
33098DA     SC115166  65.174  88.539  95.908
33098DA     SC215167  64.952  88.525  95.796
33098DA     SC315168  65.052  88.326  95.669
33098DA     SC415169  65.254  88.417  95.841
33099DT     BB115170  65.225  88.666  96.389
33099DT     BB215171  64.877  88.734  96.324
33099DT     BB315172  64.763  88.568  96.372
33099DT     SC115173  64.843  88.441  96.156
33099DT     SC215174  64.678  88.423  96.019
33099DT     SC315175  64.957  88.259  96.004
33100DA     BB115176  64.573  88.861  96.610
33100DA     BB215177  64.309  88.690  96.420
33100DA     BB315178  64.264  88.502  96.510
33100DA     SC115179  64.471  88.344  96.340
33100DA     SC215180  64.469  88.175  96.157
33100DA     SC315181  64.709  88.122  96.230
33100DA     SC415182  64.619  88.325  96.402
33101DC     BB115183  64.063  88.438  96.622
33101DC     BB215184  63.934  88.238  96.350
33101DC     BB315185  63.929  88.039  96.406
33101DC     SC115186  64.189  88.016  96.381
33101DC     SC215187  64.234  87.892  96.212
33101DC     SC315188  64.442  87.978  96.446
33102DT     BB115189  63.648  88.028  96.433
33102DT     BB215190  63.721  87.776  96.187
33102DT     BB315191  63.748  87.592  96.279
33102DT     SC115192  63.985  87.663  96.368
33102DT     SC215193  64.136  87.550  96.264
33102DT     SC315194  64.179  87.723  96.535
33103DT     BB115195  63.510  87.507  96.178
33103DT     BB215196  63.753  87.272  96.051
33103DT     BB315197  63.780  87.118  96.186
33103DT     SC115198  63.920  87.272  96.346
33103DT     SC215199  64.125  87.208  96.344
33103DT     SC315200  63.990  87.408  96.560
33104DC     BB115201  63.654  86.963  96.009
33104DC     BB215202  63.975  86.807  96.057
33104DC     BB315203  63.970  86.683  96.223
33104DC     SC115204  63.975  86.888  96.386
33104DC     SC215205  64.164  86.893  96.488
33104DC     SC315206  63.899  87.060  96.572
33105DT     BB115207  63.983  86.477  96.052
33105DT     BB215208  64.265  86.432  96.272
33105DT     BB315209  64.206  86.330  96.443
33105DT     SC115210  64.087  86.544  96.538
33105DT     SC215211  64.196  86.617  96.708
33105DT     SC315212  63.896  86.704  96.624
33106DT     BB115213  64.343  86.119  96.350
33106DT     BB215214  64.483  86.182  96.676
33106DT     BB315215  64.369  86.089  96.821
33106DT     SC115216  64.179  86.268  96.800
33106DT     SC215217  64.173  86.389  96.978
33106DT     SC315218  63.942  86.375  96.751
33107DA     BB115219  64.767  85.974  96.884
33107DA     BB215220  64.628  86.076  97.208
33107DA     BB315221  64.493  85.928  97.281
33107DA     SC115222  64.242  86.055  97.146
33107DA     SC215223  64.035  86.174  97.218
33107DA     SC315224  63.943  86.108  96.988
33107DA     SC415225  64.202  86.003  97.000
33108DG     BB115226  64.687  85.904  97.525
33108DG     BB215227  64.400  86.022  97.711
33108DG     BB315228  64.280  85.870  97.754
33108DG     SC115229  64.114  85.894  97.498
33108DG     SC215230  63.827  85.973  97.481
33108DG     SC315231  63.926  85.879  97.219
33108DG     SC415232  64.162  85.815  97.367
33109DT     BB115233  64.236  85.802  97.968
33109DT     BB215234  63.899  85.922  98.014
33109DT     BB315235  63.766  85.764  98.006
33109DT     SC115236  63.790  85.746  97.745
33109DT     SC215237  63.607  85.809  97.652
33109DT     SC315238  63.848  85.647  97.508
33110DA     BB115239  63.681  85.967  98.363
33110DA     BB215240  63.363  85.913  98.188
33110DA     BB315241  63.303  85.709  98.204
33110DA     SC115242  63.448  85.620  97.943
33110DA     SC215243  63.385  85.545  97.714
33110DA     SC315244  63.622  85.447  97.704
33110DA     SC415245  63.598  85.565  97.957
33111DG     BB115246  63.049  85.820  98.349
33111DG     BB215247  62.877  85.681  98.063
33111DG     BB315248  62.844  85.487  98.092
33111DG     SC115249  63.109  85.398  97.967
33111DG     SC215250  63.140  85.244  97.713
33111DG     SC315251  63.399  85.266  97.855
33111DG     SC415252  63.239  85.386  98.060
33112DT     BB115253  62.635  85.398  98.105
33112DT     BB215254  62.607  85.235  97.785
33112DT     BB315255  62.627  85.030  97.808
33112DT     SC115256  62.886  85.051  97.844
33112DT     SC215257  62.989  84.968  97.675
33112DT     SC315258  63.122  85.039  97.962
33113DA     BB115259  62.270  85.086  97.595
33113DA     BB215260  62.467  84.834  97.417
33113DA     BB315261  62.461  84.648  97.521
33113DA     SC115262  62.714  84.707  97.691
33113DA     SC215263  62.949  84.626  97.707
33113DA     SC315264  62.947  84.727  97.943
33113DA     SC415265  62.692  84.775  97.835
33114DA     BB115266  62.358  84.536  97.229
33114DA     BB215267  62.659  84.325  97.225
33114DA     BB315268  62.633  84.156  97.352
33114DA     SC115269  62.751  84.297  97.603
33114DA     SC215270  62.955  84.282  97.745
33114DA     SC315271  62.817  84.404  97.923
33114DA     SC415272  62.648  84.373  97.701
33115DT     BB115273  62.627  83.974  97.267
33115DT     BB215274  62.957  83.871  97.368
33115DT     BB315275  62.944  83.733  97.522
33115DT     SC115276  62.883  83.921  97.695
33115DT     SC215277  63.046  83.949  97.832
33115DT     SC315278  62.745  84.061  97.871
33116DT     BB115279  63.026  83.550  97.347
33116DT     BB215280  63.269  83.540  97.612
33116DT     BB315281  63.202  83.416  97.765
33116DT     SC115282  63.030  83.597  97.846
33116DT     SC215283  63.092  83.675  98.036
33116DT     SC315284  62.800  83.712  97.902
33117DA     BB115285  63.595  83.320  97.655
33117DA     BB215286  63.581  83.347  98.020
33117DA     BB315287  63.472  83.183  98.102
33117DA     SC115288  63.197  83.329  98.093
33117DA     SC215289  63.033  83.425  98.254
33117DA     SC315290  62.864  83.406  98.062
33117DA     SC415291  63.107  83.308  97.961
33118DA     BB115292  63.753  83.189  98.269
33118DA     BB215293  63.545  83.229  98.569
33118DA     BB315294  63.439  83.049  98.610
33118DA     SC115295  63.190  83.129  98.441
33118DA     SC215296  62.952  83.192  98.482
33118DA     SC315297  62.914  83.128  98.236
33118DA     SC415298  63.186  83.082  98.287
33119DG     BB115299  63.597  83.076  98.875
33119DG     BB215300  63.265  83.098  99.017
33119DG     BB315301  63.184  82.917  99.030
33119DG     SC115302  63.057  82.927  98.751
33119DG     SC215303  62.765  82.934  98.691
33119DG     SC315304  62.922  82.895  98.444
33119DG     SC415305  63.143  82.877  98.625
33120DT     BB115306  63.131  82.826  99.225
33120DT     BB215307  62.771  82.840  99.223
33120DT     BB315308  62.693  82.654  99.178
33120DT     SC115309  62.757  82.679  98.925
33120DT     SC215310  62.578  82.700  98.808
33120DT     SC315311  62.874  82.633  98.693
33121DC     BB115312  62.610  82.595  99.441
33121DC     BB215313  62.310  82.548  99.247
33121DC     BB315314  62.297  82.352  99.183
33121DC     SC115315  62.483  82.390  99.002
33121DC     SC215316  62.394  82.383  98.806
33121DC     SC315317  62.711  82.368  98.871
33122DA     BB115318  61.927  82.403  99.379
33122DA     BB215319  61.855  82.251  99.053
33122DA     BB315320  61.903  82.043  99.056
33122DA     SC115321  62.196  82.083  98.959
33122DA     SC215322  62.331  82.037  98.754
33122DA     SC315323  62.534  82.059  98.908
33122DA     SC415324  62.310  82.099  99.071
33123DT     BB115325  61.753  81.873  99.044
33123DT     BB215326  61.824  81.778  98.703
33123DT     BB315327  61.919  81.595  98.699
33123DT     SC115328  62.144  81.700  98.783
33123DT     SC215329  62.289  81.696  98.623
33123DT     SC315330  62.353  81.751  98.936
33124DA     BB115331  61.591  81.534  98.443
33124DA     BB215332  61.891  81.419  98.265
33124DA     BB315333  61.952  81.228  98.339
33124DA     SC115334  62.141  81.346  98.556
33124DA     SC215335  62.386  81.360  98.599
33124DA     SC315336  62.320  81.403  98.843
33124DA     SC415337  62.080  81.370  98.703
33125DT     BB115338  61.943  81.039  98.220
33125DT     BB215339  62.297  81.019  98.155
33125DT     BB315340  62.380  80.861  98.260
33125DT     SC115341  62.366  80.995  98.486
33125DT     SC215342  62.564  81.046  98.551
33125DT     SC315343  62.296  81.060  98.731
33126DA     BB115344  62.496  80.797  97.863
33126DA     BB215345  62.798  80.777  98.071
33126DA     BB315346  62.804  80.591  98.175
33126DA     SC115347  62.653  80.698  98.425
33126DA     SC215348  62.704  80.751  98.664
33126DA     SC315349  62.451  80.733  98.701
33126DA     SC415350  62.493  80.682  98.428
33127DA     BB115351  63.098  80.572  98.033
33127DA     BB215352  63.240  80.574  98.370
33127DA     BB315353  63.220  80.382  98.461
33127DA     SC115354  62.944  80.445  98.590
33127DA     SC215355  62.852  80.481  98.819
33127DA     SC315356  62.624  80.427  98.713
33127DA     SC415357  62.813  80.406  98.506
33128DT     BB115358  63.388  80.284  98.499
33128DT     BB215359  63.388  80.343  98.855
33128DT     BB315360  63.333  80.171  98.955
33128DT     SC115361  63.081  80.201  98.886
33128DT     SC215362  62.965  80.251  99.061
33128DT     SC315363  62.847  80.155  98.775
33129DC     BB115364  63.584  80.167  99.035
33129DC     BB215365  63.388  80.180  99.337
33129DC     BB315366  63.326  79.990  99.389
33129DC     SC115367  63.146  79.988  99.199
33129DC     SC215368  62.949  79.996  99.286
33129DC     SC315369  63.018  79.918  98.979
33130DG     BB115370  63.522  80.191  99.684
33130DG     BB215371  63.201  80.064  99.794
33130DG     BB315372  63.211  79.867  99.816
33130DG     SC115373  63.128  79.805  99.528
33130DG     SC215374  62.874  79.674  99.442
33130DG     SC315375  63.060  79.702  99.214
33130DG     SC415376  63.242  79.795  99.415
33131DT     BB115377  63.168  79.818  99.999
33131DT     BB215378  62.843  79.663  99.967
33131DT     BB315379  62.864  79.458  99.948
33131DT     SC115380  62.946  79.482  99.700
33131DT     SC215381  62.795  79.405  99.567
33131DT     SC315382  63.103  79.470  99.488
33132DC     BB115383  62.762  79.448 100.192
33132DC     BB215384  62.549  79.235  99.993
33132DC     BB315385  62.635  79.047  99.974
33132DC     SC115386  62.811  79.137  99.802
33132DC     SC215387  62.768  79.056  99.607
33132DC     SC315388  63.044  79.202  99.696
33133DA     BB115389  62.245  78.977 100.115
33133DA     BB215390  62.306  78.745  99.837
33133DA     BB315391  62.439  78.590  99.899
33133DA     SC115392  62.696  78.742  99.813
33133DA     SC215393  62.872  78.723  99.637
33133DA     SC315394  63.014  78.869  99.792
33133DA     SC415395  62.769  78.833  99.923
33134DT     BB115396  62.381  78.378  99.923
33134DT     BB215397  62.549  78.252  99.630
33134DT     BB315398  62.714  78.140  99.685
33134DT     SC115399  62.849  78.357  99.747
33134DT     SC215400  63.008  78.385  99.604
33134DT     SC315401  62.981  78.535  99.890
33135DT     BB115402  62.606  77.879  99.633
33135DT     BB215403  62.907  77.886  99.435
33135DT     BB315404  63.065  77.808  99.543
33135DT     SC115405  63.082  78.024  99.690
33135DT     SC215406  63.264  78.129  99.642
33135DT     SC315407  63.078  78.182  99.902
33136DA     BB115408  63.066  77.582  99.190
33136DA     BB215409  63.407  77.708  99.241
33136DA     BB315410  63.506  77.594  99.391
33136DA     SC115411  63.416  77.779  99.625
33136DA     SC215412  63.520  77.942  99.782
33136DA     SC315413  63.312  77.904  99.927
33136DA     SC415414  63.280  77.741  99.702
33137DT     BB115415  63.668  77.479  99.339
33137DT     BB215416  63.918  77.700  99.476
33137DT     BB315417  63.997  77.619  99.649
33137DT     SC115418  63.781  77.678  99.785
33137DT     SC215419  63.826  77.834  99.926
33137DT     SC315420  63.562  77.646  99.928
33138DT     BB115421  64.217  77.587  99.505
33138DT     BB215422  64.314  77.796  99.782
33138DT     BB315423  64.357  77.679  99.947
33138DT     SC115424  64.103  77.633  99.991
33138DT     SC215425  64.042  77.734 100.170
33138DT     SC315426  63.875  77.502 100.017
33139DA     BB115427  64.649  77.971  99.865
33139DA     BB215428  64.566  77.984 100.222
33139DA     BB315429  64.636  77.808 100.320
33139DA     SC115430  64.372  77.649 100.277
33139DA     SC215431  64.183  77.564 100.416
33139DA     SC315432  64.138  77.404 100.220
33139DA     SC415433  64.361  77.558 100.146
33140DC     BB115434  64.755  77.861 100.435
33140DC     BB215435  64.565  77.799 100.736
33140DC     BB315436  64.608  77.610 100.809
33140DC     SC115437  64.466  77.495 100.621
33140DC     SC215438  64.290  77.408 100.707
33140DC     SC315439  64.406  77.347 100.411
33141DA     BB115440  64.643  77.891 101.121
33141DA     BB215441  64.452  77.604 101.246
33141DA     BB315442  64.579  77.434 101.266
33141DA     SC115443  64.527  77.329 100.978
33141DA     SC215444  64.410  77.137 100.870
33141DA     SC315445  64.556  77.189 100.666
33141DA     SC415446  64.628  77.376 100.862
33142DG     BB115447  64.503  77.442 101.571
33142DG     BB215448  64.361  77.117 101.500
33142DG     BB315449  64.503  76.979 101.503
33142DG     SC115450  64.571  77.006 101.206
33142DG     SC215451  64.525  76.799 100.996
33142DG     SC315452  64.684  77.024 100.889
33142DG     SC415453  64.680  77.114 101.161
33143DT     BB115454  64.520  76.797 101.657
33143DT     BB215455  64.419  76.521 101.448
33143DT     BB315456  64.583  76.405 101.399
33143DT     SC115457  64.669  76.584 101.228
33143DT     SC215458  64.648  76.507 101.028
33143DT     SC315459  64.823  76.766 101.115
33144DA     BB115460  64.309  76.132 101.563
33144DA     BB215461  64.423  75.996 101.242
33144DA     BB315462  64.621  75.917 101.261
33144DA     SC115463  64.761  76.185 101.184
33144DA     SC215464  64.893  76.275 100.993
33144DA     SC315465  64.975  76.451 101.160
33144DA     SC415466  64.801  76.285 101.303
33145DA     BB115467  64.472  75.654 101.137
33145DA     BB215468  64.696  75.690 100.849
33145DA     BB315469  64.892  75.622 100.898
33145DA     SC115470  64.991  75.901 100.994
33145DA     SC215471  65.150  76.077 100.918
33145DA     SC315472  65.146  76.158 101.161
33145DA     SC415473  64.976  75.935 101.151
33146DT     BB115474  64.945  75.471 100.799
33146DT     BB215475  65.173  75.644 100.579
33146DT     BB315476  65.368  75.614 100.642
33146DT     SC115477  65.337  75.781 100.842
33146DT     SC215478  65.453  75.958 100.806
33146DT     SC315479  65.321  75.872 101.089
33147DT     BB115480  65.379  75.476 100.421
33147DT     BB215481  65.635  75.728 100.391
33147DT     BB315482  65.803  75.671 100.496
33147DT     SC115483  65.688  75.727 100.725
33147DT     SC215484  65.782  75.899 100.812
33147DT     SC315485  65.585  75.693 100.966
33148DA     BB115486  65.895  75.800 100.105
33148DA     BB215487  66.126  75.961 100.340
33148DA     BB315488  66.258  75.817 100.425
33148DA     SC115489  66.074  75.754 100.668
33148DA     SC215490  66.074  75.792 100.914
33148DA     SC315491  65.903  75.601 100.923
33148DA     SC415492  65.970  75.633 100.652
33149DA     BB115493  66.473  76.042 100.315
33149DA     BB215494  66.590  76.068 100.661
33149DA     BB315495  66.698  75.892 100.717
33149DA     SC115496  66.447  75.744 100.825
33149DA     SC215497  66.357  75.670 101.046
33149DA     SC315498  66.213  75.507 100.910
33149DA     SC415499  66.367  75.649 100.723
33150DT     BB115500  66.902  75.899 100.753
33150DT     BB215501  66.887  75.858 101.112
33150DT     BB315502  66.942  75.665 101.163
33150DT     SC115503  66.713  75.569 101.079
33150DT     SC215504  66.597  75.502 101.248
33150DT     SC315505  66.538  75.430 100.938
33151DA     BB115506  67.217  75.883 101.398
33151DA     BB215507  67.065  75.633 101.619
33151DA     BB315508  67.152  75.442 101.585
33151DA     SC115509  66.945  75.358 101.369
33151DA     SC215510  66.758  75.196 101.346
33151DA     SC315511  66.790  75.225 101.093
33151DA     SC415512  66.982  75.389 101.215
33152DA     BB115513  67.232  75.424 101.911
33152DA     BB215514  67.012  75.133 101.938
33152DA     BB315515  67.113  74.957 101.871
33152DA     SC115516  67.019  74.986 101.576
33152DA     SC215517  66.865  74.868 101.418
33152DA     SC315518  67.000  74.984 101.233
33152DA     SC415519  67.116  75.065 101.475
33153DG     BB115520  67.080  74.832 102.160
33153DG     BB215521  66.867  74.595 101.989
33153DG     BB315522  66.976  74.445 101.918
33153DG     SC115523  67.030  74.580 101.648
33153DG     SC215524  66.929  74.489 101.383
33153DG     SC315525  67.127  74.706 101.351
33153DG     SC415526  67.158  74.676 101.634
33154DT     BB115527  66.953  74.225 101.986
33154DT     BB215528  66.777  74.086 101.703
33154DT     BB315529  66.904  73.966 101.592
33154DT     SC115530  67.026  74.177 101.492
33154DT     SC215531  66.979  74.194 101.283
33154DT     SC315532  67.217  74.350 101.438
33155DG     BB115533  66.597  73.723 101.704
33155DG     BB215534  66.647  73.714 101.346
33155DG     BB315535  66.800  73.595 101.303
33155DG     SC115536  67.010  73.817 101.319
33155DG     SC215537  67.169  73.925 101.091
33155DG     SC315538  67.268  74.032 101.348
33155DG     SC415539  67.078  73.849 101.460
33156DT     BB115540  66.776  73.406 101.180
33156DT     BB215541  66.915  73.512 100.864
33156DT     BB315542  67.103  73.429 100.838
33156DT     SC115543  67.209  73.595 101.011
33156DT     SC215544  67.337  73.733 100.908
33156DT     SC315545  67.330  73.683 101.228
33157DG     BB115546  66.882  73.300 100.520
33157DG     BB215547  67.188  73.458 100.411
33157DG     BB315548  67.340  73.331 100.428
33157DG     SC115549  67.408  73.413 100.715
33157DG     SC215550  67.657  73.552 100.804
33157DG     SC315551  67.498  73.464 101.037
33157DG     SC415552  67.335  73.338 100.837
33158DT     BB115553  67.458  73.262 100.250
33158DT     BB215554  67.759  73.456 100.289
33158DT     BB315555  67.913  73.336 100.357
33158DT     SC115556  67.812  73.329 100.599
33158DT     SC215557  67.939  73.439 100.732
33158DT     SC315558  67.704  73.234 100.820
33159DC     BB115559  68.026  73.357 100.114
33159DC     BB215560  68.272  73.486 100.343
33159DC     BB315561  68.387  73.331 100.418
33159DC     SC115562  68.192  73.252 100.574
33159DC     SC215563  68.244  73.291 100.779
33159DC     SC315564  68.004  73.099 100.678
33160DC     BB115565  68.576  73.442 100.273
33160DC     BB215566  68.699  73.445 100.612
33160DC     BB315567  68.780  73.261 100.660
33160DC     SC115568  68.542  73.153 100.681
33160DC     SC215569  68.503  73.106 100.888
33160DC     SC315570  68.336  72.996 100.633
33161DG     BB115571  69.033  73.575 100.724
33161DG     BB215572  68.998  73.365 101.017
33161DG     BB315573  69.094  73.193 100.989
33161DG     SC115574  68.853  73.049 100.865
33161DG     SC215575  68.705  72.821 100.986
33161DG     SC315576  68.616  72.868 100.708
33161DG     SC415577  68.830  73.059 100.707
33162DT     BB115578  69.240  73.160 101.123
33162DT     BB215579  69.099  72.899 101.328
33162DT     BB315580  69.167  72.714 101.265
33162DT     SC115581  69.010  72.720 101.054
33162DT     SC215582  68.855  72.573 101.077
33162DT     SC315583  68.933  72.725 100.802
33163DT     BB115584  69.303  72.714 101.490
33163DT     BB215585  69.101  72.415 101.500
33163DT     BB315586  69.192  72.264 101.391
33163DT     SC115587  69.125  72.377 101.164
33163DT     SC215588  68.977  72.257 101.065
33163DT     SC315589  69.148  72.496 100.929
33164DT     BB115590  69.242  72.146 101.624
33164DT     BB215591  69.055  71.903 101.433
33164DT     BB315592  69.183  71.799 101.308
33164DT     SC115593  69.204  72.003 101.145
33164DT     SC215594  69.104  71.958 100.960
33164DT     SC315595  69.310  72.203 101.009
33165DC     BB115596  69.140  71.593 101.468
33165DC     BB215597  69.042  71.480 101.139
33165DC     BB315598  69.208  71.417 101.033
33165DC     SC115599  69.286  71.664 100.993
33165DC     SC215600  69.263  71.714 100.785
33165DC     SC315601  69.433  71.883 101.003
33166DT     BB115602  69.106  71.176 101.063
33166DT     BB215603  69.141  71.221 100.707
33166DT     BB315604  69.336  71.180 100.650
33166DT     SC115605  69.421  71.407 100.749
33166DT     SC215606  69.480  71.538 100.589
33166DT     SC315607  69.553  71.577 100.902
33167DG     BB115608  69.068  70.956 100.439
33167DG     BB215609  69.301  71.128 100.222
33167DG     BB315610  69.479  71.041 100.232
33167DG     SC115611  69.579  71.214 100.464
33167DG     SC215612  69.799  71.415 100.451
33167DG     SC315613  69.712  71.371 100.731
33167DG     SC415614  69.550  71.166 100.614
33168DC     BB115615  69.551  70.962 100.056
33168DC     BB215616  69.819  71.188  99.970
33168DC     BB315617  70.000  71.110 100.033
33168DC     SC115618  69.947  71.169 100.283
33168DC     SC215619  70.077  71.328 100.348
33168DC     SC315620  69.898  71.138 100.541
33169DT     BB115621  70.067  71.053  99.777
33169DT     BB215622  70.345  71.247  99.900
33169DT     BB315623  70.480  71.124  99.997
33169DT     SC115624  70.322  71.103 100.206
33169DT     SC215625  70.409  71.208 100.372
33169DT     SC315626  70.164  70.996 100.388
33170DG     BB115627  70.727  71.263  99.695
33170DG     BB215628  70.889  71.298 100.016
33170DG     BB315629  70.971  71.125 100.071
33170DG     SC115630  70.721  71.025 100.216
33170DG     SC215631  70.696  70.981 100.511
33170DG     SC315632  70.459  70.876 100.368
33170DG     SC415633  70.611  70.944 100.134
33171DA     BB115634  71.327  71.218 100.121
33171DA     BB215635  71.313  71.129 100.476
33171DA     BB315636  71.358  70.922 100.502
33171DA     SC115637  71.061  70.830 100.480
33171DA     SC215638  70.885  70.737 100.630
33171DA     SC315639  70.771  70.658 100.414
33171DA     SC415640  71.007  70.789 100.335
33172DG     BB115641  71.637  70.953 100.680
33172DG     BB215642  71.440  70.809 100.947
33172DG     BB315643  71.468  70.612 100.953
33172DG     SC115644  71.239  70.549 100.759
33172DG     SC215645  70.986  70.406 100.828
33172DG     SC315646  71.009  70.445 100.535
33172DG     SC415647  71.269  70.546 100.602
33173DA     BB115648  71.556  70.626 101.291
33173DA     BB215649  71.263  70.424 101.378
33173DA     BB315650  71.305  70.216 101.350
33173DA     SC115651  71.205  70.211 101.056
33173DA     SC215652  71.014  70.115 100.927
33173DA     SC315653  71.164  70.146 100.721
33173DA     SC415654  71.314  70.237 100.940
33174DA     BB115655  71.200  70.219 101.657
33174DA     BB215656  70.923  70.008 101.542
33174DA     BB315657  70.991  69.808 101.511
33174DA     SC115658  71.064  69.854 101.212
33174DA     SC215659  70.979  69.784 100.988
33174DA     SC315660  71.213  69.848 100.902
33174DA     SC415661  71.215  69.898 101.178
33175DA     BB115662  70.730  69.786 101.702
33175DA     BB215663  70.581  69.587 101.432
33175DA     BB315664  70.675  69.397 101.419
33175DA     SC115665  70.891  69.490 101.215
33175DA     SC215666  70.947  69.452 100.975
33175DA     SC315667  71.182  69.534 101.038
33175DA     SC415668  71.031  69.542 101.275
33176DA     BB115669  70.355  69.337 101.432
33176DA     BB215670  70.399  69.169 101.108
33176DA     BB315671  70.509  68.988 101.133
33176DA     SC115672  70.787  69.122 101.089
33176DA     SC215673  70.966  69.122 100.915
33176DA     SC315674  71.119  69.209 101.102
33176DA     SC415675  70.866  69.174 101.218
33177DA     BB115676  70.244  68.890 100.967
33177DA     BB215677  70.477  68.771 100.710
33177DA     BB315678  70.583  68.599 100.779
33177DA     SC115679  70.818  68.763 100.901
33177DA     SC215680  71.060  68.801 100.852
33177DA     SC315681  71.076  68.877 101.097
33177DA     SC415682  70.808  68.804 101.055
33178DT     BB115683  70.549  68.420 100.690
33178DT     BB215684  70.863  68.394 100.514
33178DT     BB315685  70.987  68.258 100.610
33178DT     SC115686  71.037  68.428 100.803
33178DT     SC215687  71.242  68.493 100.790
33178DT     SC315688  71.046  68.534 101.045
33179DG     BB115689  70.946  68.098 100.235
33179DG     BB215690  71.295  68.122 100.327
33179DG     BB315691  71.345  67.970 100.444
33179DG     SC115692  71.274  68.114 100.705
33179DG     SC215693  71.466  68.198 100.917
33179DG     SC315694  71.187  68.234 101.008
33179DG     SC415695  71.124  68.104 100.761
33180DT     BB115696  71.503  67.796 100.393
33180DT     BB215697  71.783  67.898 100.596
33180DT     BB315698  71.804  67.769 100.757
33180DT     SC115699  71.596  67.875 100.879
33180DT     SC215700  71.663  67.985 101.052
33180DT     SC315701  71.357  67.898 100.988
33181DA     BB115702  72.185  67.758 100.581
33181DA     BB215703  72.234  67.822 100.939
33181DA     BB315704  72.212  67.641 101.050
33181DA     SC115705  71.906  67.680 101.098
33181DA     SC215706  71.754  67.731 101.289
33181DA     SC315707  71.569  67.631 101.141
33181DA     SC415708  71.806  67.613 100.991
33182DT     BB115709  72.378  67.541 101.158
33182DT     BB215710  72.278  67.642 101.489
33182DT     BB315711  72.211  67.478 101.596
33182DT     SC115712  71.985  67.473 101.461
33182DT     SC215713  71.824  67.531 101.591
33182DT     SC315714  71.794  67.388 101.301
33183DA     BB115715  72.504  67.652 101.839
33183DA     BB215716  72.206  67.601 102.046
33183DA     BB315717  72.187  67.396 102.099
33183DA     SC115718  72.013  67.322 101.852
33183DA     SC215719  71.777  67.256 101.806
33183DA     SC315720  71.868  67.162 101.585
33183DA     SC415721  72.089  67.269 101.721
33184DA     BB115722  72.176  67.522 102.401
33184DA     BB215723  71.837  67.383 102.427
33184DA     BB315724  71.846  67.173 102.466
33184DA     SC115725  71.842  67.093 102.165
33184DA     SC215726  71.686  66.984 102.005
33184DA     SC315727  71.894  66.939 101.862
33184DA     SC415728  71.984  67.074 102.092
33185DA     BB115729  71.654  67.273 102.708
33185DA     BB215730  71.394  67.060 102.562
33185DA     BB315731  71.434  66.855 102.605
33185DA     SC115732  71.600  66.808 102.347
33185DA     SC215733  71.577  66.683 102.132
33185DA     SC315734  71.832  66.701 102.117
33185DA     SC415735  71.760  66.828 102.356
33186DA     BB115736  71.128  66.902 102.700
33186DA     BB215737  71.037  66.646 102.453
33186DA     BB315738  71.098  66.453 102.521
33186DA     SC115739  71.378  66.467 102.386
33186DA     SC215740  71.496  66.358 102.196
33186DA     SC315741  71.711  66.436 102.311
33186DA     SC415742  71.500  66.523 102.474
33187DA     BB115743  70.786  66.438 102.431
33187DA     BB215744  70.896  66.180 102.194
33187DA     BB315745  70.956  66.004 102.299
33187DA     SC115746  71.253  66.091 102.323
33187DA     SC215747  71.474  66.022 102.229
33187DA     SC315748  71.575  66.144 102.431
33187DA     SC415749  71.297  66.171 102.456
33188DG     BB115750  70.737  65.927 102.099
33188DG     BB215751  71.004  65.720 101.968
33188DG     BB315752  71.037  65.567 102.091
33188DG     SC115753  71.245  65.716 102.259
33188DG     SC215754  71.536  65.652 102.276
33188DG     SC315755  71.462  65.856 102.477
33188DG     SC415756  71.196  65.803 102.385
33189DT     BB115757  71.011  65.401 101.999
33189DT     BB215758  71.342  65.258 101.977
33189DT     BB315759  71.377  65.135 102.140
33189DT     SC115760  71.408  65.342 102.299
33189DT     SC215761  71.614  65.355 102.358
33189DT     SC315762  71.366  65.512 102.496
33190DA     BB115763  71.474  64.913 101.796
33190DA     BB215764  71.736  64.853 102.046
33190DA     BB315765  71.660  64.733 102.205
33190DA     SC115766  71.569  64.976 102.377
33190DA     SC215767  71.636  65.087 102.589
33190DA     SC315768  71.399  65.187 102.588
33190DA     SC415769  71.417  65.027 102.358
33191DC     BB115770  71.722  64.532 102.239
33191DC     BB215771  71.908  64.587 102.543
33191DC     BB315772  71.800  64.518 102.706
33191DC     SC115773  71.637  64.723 102.695
33191DC     SC215774  71.672  64.850 102.865
33191DC     SC315775  71.416  64.863 102.667
33192DG     BB115776  72.132  64.276 102.736
33192DG     BB215777  72.062  64.434 103.053
33192DG     BB315778  71.919  64.334 103.149
33192DG     SC115779  71.690  64.495 103.026
33192DG     SC215780  71.507  64.680 103.173
33192DG     SC315781  71.413  64.637 102.895
33192DG     SC415782  71.627  64.446 102.887
33193DT     BB115783  71.934  64.208 103.363
33193DT     BB215784  71.766  64.438 103.585
33193DT     BB315785  71.581  64.362 103.639
33193DT     SC115786  71.480  64.418 103.404
33193DT     SC215787  71.338  64.578 103.424
33193DT     SC315788  71.371  64.385 103.166
33194DT     BB115789  71.658  64.295 103.899
33194DT     BB215790  71.377  64.516 103.945
33194DT     BB315791  71.201  64.407 103.949
33194DT     SC115792  71.209  64.370 103.689
33194DT     SC215793  71.051  64.482 103.596
33194DT     SC315794  71.225  64.246 103.457
33195DT     BB115795  71.171  64.445 104.219
33195DT     BB215796  70.869  64.579 104.075
33195DT     BB315797  70.727  64.429 104.056
33195DT     SC115798  70.854  64.327 103.850
33195DT     SC215799  70.738  64.358 103.671
33195DT     SC315800  70.988  64.155 103.701
33196DC     BB115801  70.581  64.534 104.260
33196DC     BB215802  70.354  64.528 103.980
33196DC     BB315803  70.260  64.344 103.968
33196DC     SC115804  70.478  64.230 103.875
33196DC     SC215805  70.447  64.176 103.669
33196DC     SC315806  70.687  64.071 103.859
33197DA     BB115807  69.956  64.634 103.964
33197DA     BB215808  69.898  64.404 103.684
33197DA     BB315809  69.825  64.217 103.755
33197DA     SC115810  70.108  64.091 103.785
33197DA     SC215811  70.243  63.913 103.674
33197DA     SC315812  70.381  63.911 103.890
33197DA     SC415813  70.180  64.104 103.927
33198DA     BB115814  69.579  64.276 103.543
33198DA     BB215815  69.687  63.974 103.365
33198DA     BB315816  69.621  63.799 103.468
33198DA     SC115817  69.878  63.774 103.642
33198DA     SC215818  70.075  63.622 103.660
33198DA     SC315819  70.102  63.718 103.896
33198DA     SC415820  69.878  63.846 103.786
33199DC     BB115821  69.481  63.674 103.381
33199DC     BB215822  69.715  63.416 103.288
33199DC     BB315823  69.692  63.252 103.411
33199DC     SC115824  69.810  63.374 103.610
33199DC     SC215825  70.001  63.282 103.647
33199DC     SC315826  69.847  63.486 103.846
33200DT     BB115827  69.588  63.121 103.201
33200DT     BB215828  69.879  62.931 103.298
33200DT     BB315829  69.830  62.798 103.449
33200DT     SC115830  69.820  62.991 103.626
33200DT     SC215831  69.985  62.972 103.763
33200DT     SC315832  69.723  63.158 103.806
33201DA     BB115833  70.038  62.611 103.137
33201DA     BB215834  70.202  62.526 103.454
33201DA     BB315835  70.080  62.392 103.567
33201DA     SC115836  69.929  62.618 103.719
33201DA     SC215837  69.918  62.708 103.951
33201DA     SC315838  69.694  62.809 103.879
33201DA     SC415839  69.792  62.671 103.656
33202DA     BB115840  70.378  62.263 103.550
33202DA     BB215841  70.377  62.282 103.916
33202DA     BB315842  70.237  62.142 103.997
33202DA     SC115843  69.999  62.342 103.997
33202DA     SC215844  69.862  62.465 104.165
33202DA     SC315845  69.689  62.488 103.977
33202DA     SC415846  69.904  62.344 103.868
33203DA     BB115847  70.518  62.086 104.155
33203DA     BB215848  70.331  62.165 104.460
33203DA     BB315849  70.190  62.010 104.503
33203DA     SC115850  69.959  62.142 104.343
33203DA     SC215851  69.741  62.253 104.390
33203DA     SC315852  69.684  62.201 104.146
33203DA     SC415853  69.942  62.099 104.189
33204DA     BB115854  70.354  62.039 104.785
33204DA     BB215855  70.031  62.120 104.938
33204DA     BB315856  69.909  61.946 104.949
33204DA     SC115857  69.775  61.992 104.672
33204DA     SC215858  69.551  62.055 104.583
33204DA     SC315859  69.632  61.951 104.362
33204DA     SC415860  69.844  61.921 104.544
33205DC     BB115861  69.868  61.883 105.128
33205DC     BB215862  69.523  61.989 105.135
33205DC     BB315863  69.399  61.827 105.105
33205DC     SC115864  69.457  61.820 104.849
33205DC     SC215865  69.284  61.879 104.735
33205DC     SC315866  69.548  61.732 104.617
33206DT     BB115867  69.331  61.852 105.360
33206DT     BB215868  69.021  61.878 105.178
33206DT     BB315869  68.947  61.689 105.137
33206DT     SC115870  69.127  61.651 104.949
33206DT     SC215871  69.030  61.650 104.757
33206DT     SC315872  69.332  61.548 104.818
33207DC     BB115873  68.762  61.752 105.312
33207DC     BB215874  68.584  61.672 105.008
33207DC     BB315875  68.561  61.467 104.991
33207DC     SC115876  68.814  61.437 104.925
33207DC     SC215877  68.827  61.379 104.718
33207DC     SC315878  69.066  61.361 104.936
33208DT     BB115879  68.311  61.527 105.033
33208DT     BB215880  68.316  61.347 104.720
33208DT     BB315881  68.326  61.144 104.756
33208DT     SC115882  68.580  61.160 104.821
33208DT     SC215883  68.699  61.065 104.670
33208DT     SC315884  68.800  61.149 104.966
33209DA     BB115885  68.021  61.231 104.480
33209DA     BB215886  68.213  60.946 104.353
33209DA     BB315887  68.179  60.774 104.474
33209DA     SC115888  68.416  60.833 104.667
33209DA     SC215889  68.640  60.736 104.719
33209DA     SC315890  68.620  60.863 104.941
33209DA     SC415891  68.385  60.918 104.799
33210DC     BB115892  68.088  60.630 104.387
33210DC     BB215893  68.363  60.397 104.367
33210DC     BB315894  68.350  60.259 104.520
33210DC     SC115895  68.431  60.435 104.697
33210DC     SC215896  68.628  60.383 104.765
33210DC     SC315897  68.429  60.596 104.906
33211DA     BB115898  68.374  60.012 104.179
33211DA     BB215899  68.608  59.877 104.427
33211DA     BB315900  68.502  59.775 104.581
33211DA     SC115901  68.475  60.026 104.762
33211DA     SC215902  68.566  60.108 104.979
33211DA     SC315903  68.363  60.266 104.981
33211DA     SC415904  68.342  60.115 104.746
33212DT     BB115905  68.505  59.553 104.618
33212DT     BB215906  68.710  59.560 104.914
33212DT     BB315907  68.596  59.513 105.081
33212DT     SC115908  68.482  59.750 105.078
33212DT     SC215909  68.549  59.863 105.248
33212DT     SC315910  68.295  59.935 105.061
33213DG     BB115911  68.879  59.216 105.085
33213DG     BB215912  68.864  59.385 105.405
33213DG     BB315913  68.713  59.313 105.513
33213DG     SC115914  68.508  59.514 105.406
33213DG     SC215915  68.375  59.729 105.564
33213DG     SC315916  68.254  59.705 105.295
33213DG     SC415917  68.427  59.478 105.272
33214DT     BB115918  68.735  59.198 105.716
33214DT     BB215919  68.631  59.453 105.949
33214DT     BB315920  68.443  59.409 106.023
33214DT     SC115921  68.328  59.480 105.798
33214DT     SC215922  68.217  59.661 105.829
33214DT     SC315923  68.191  59.463 105.573
33215DA     BB115924  68.686  59.472 106.360
33215DA     BB215925  68.382  59.673 106.402
33215DA     BB315926  68.217  59.548 106.452
33215DA     SC115927  68.131  59.503 106.157
33215DA     SC215928  67.942  59.568 106.007
33215DA     SC315929  68.015  59.369 105.862
33215DA     SC415930  68.191  59.374 106.081
33216DC     BB115931  68.125  59.560 106.641
33216DC     BB215932  67.827  59.732 106.533
33216DC     BB315933  67.666  59.601 106.534
33216DC     SC115934  67.751  59.482 106.316
33216DC     SC215935  67.619  59.528 106.153
33216DC     SC315936  67.843  59.294 106.156
33217DG     BB115937  67.550  59.896 106.794
33217DG     BB215938  67.300  59.843 106.539
33217DG     BB315939  67.189  59.685 106.584
33217DG     SC115940  67.369  59.485 106.439
33217DG     SC215941  67.296  59.328 106.195
33217DG     SC315942  67.554  59.236 106.307
33217DG     SC415943  67.491  59.418 106.519
33218DT     BB115944  66.951  59.684 106.635
33218DT     BB215945  66.823  59.553 106.324
33218DT     BB315946  66.754  59.360 106.352
33218DT     SC115947  66.999  59.266 106.362
33218DT     SC215948  67.038  59.148 106.187
33218DT     SC315949  67.217  59.151 106.457
33219DC     BB115950  66.482  59.428 106.337
33219DC     BB215951  66.529  59.190 106.071
33219DC     BB315952  66.492  58.998 106.140
33219DC     SC115953  66.721  58.993 106.269
33219DC     SC215954  66.854  58.853 106.174
33219DC     SC315955  66.892  58.981 106.469
33220DA     BB115956  66.273  59.069 105.792
33220DA     BB215957  66.468  58.762 105.746
33220DA     BB315958  66.384  58.603 105.861
33220DA     SC115959  66.558  58.661 106.113
33220DA     SC215960  66.746  58.554 106.236
33220DA     SC315961  66.673  58.700 106.434
33220DA     SC415962  66.496  58.759 106.224
33221DT     BB115963  66.333  58.481 105.746
33221DT     BB215964  66.605  58.252 105.809
33221DT     BB315965  66.546  58.106 105.943
33221DT     SC115966  66.558  58.274 106.144
33221DT     SC215967  66.722  58.221 106.272
33221DT     SC315968  66.482  58.425 106.347
33222DT     BB115969  66.584  57.977 105.725
33222DT     BB215970  66.807  57.833 105.969
33222DT     BB315971  66.701  57.712 106.099
33222DT     SC115972  66.599  57.920 106.222
33222DT     SC215973  66.683  57.934 106.420
33222DT     SC315974  66.422  58.093 106.313
33223DA     BB115975  67.057  57.541 105.948
33223DA     BB215976  67.043  57.489 106.310
33223DA     BB315977  66.883  57.357 106.360
33223DA     SC115978  66.674  57.585 106.396
33223DA     SC215979  66.548  57.691 106.583
33223DA     SC315980  66.387  57.774 106.401
33223DA     SC415981  66.585  57.626 106.268
33224DA     BB115982  67.145  57.229 106.511
33224DA     BB215983  66.952  57.266 106.821
33224DA     BB315984  66.789  57.130 106.823
33224DA     SC115985  66.590  57.328 106.689
33224DA     SC215986  66.387  57.458 106.755
33224DA     SC315987  66.339  57.471 106.503
33224DA     SC415988  66.576  57.324 106.529
33225DA     BB115989  66.927  57.053 107.112
33225DA     BB215990  66.607  57.146 107.266
33225DA     BB315991  66.460  56.997 107.226
33225DA     SC115992  66.359  57.132 106.965
33225DA     SC215993  66.155  57.252 106.885
33225DA     SC315994  66.238  57.194 106.649
33225DA     SC415995  66.427  57.086 106.826
33226DA     BB115996  66.428  56.999 107.555
33226DA     BB215997  66.080  57.101 107.503
33226DA     BB315998  65.963  56.935 107.439
33226DA     SC115999  66.011  56.986 107.136
33226DA     SC216000  65.879  57.062 106.938
33226DA     SC316001  66.063  56.952 106.798
33226DA     SC416002  66.135  56.911 107.066
33227DC     BB116003  65.817  56.864 107.561
33227DC     BB216004  65.537  56.996 107.376
33227DC     BB316005  65.443  56.844 107.272
33227DC     SC116006  65.636  56.835 107.095
33227DC     SC216007  65.564  56.909 106.906
33227DC     SC316008  65.838  56.742 106.952
33228DT     BB116009  65.237  56.863 107.443
33228DT     BB216010  65.092  56.919 107.117
33228DT     BB316011  65.045  56.738 107.029
33228DT     SC116012  65.298  56.689 106.977
33228DT     SC216013  65.331  56.701 106.765
33228DT     SC316014  65.534  56.572 106.982
33229DA     BB116015  64.716  56.998 107.012
33229DA     BB216016  64.770  56.857 106.678
33229DA     BB316017  64.718  56.650 106.674
33229DA     SC116018  65.003  56.552 106.749
33229DA     SC216019  65.191  56.431 106.639
33229DA     SC316020  65.271  56.380 106.877
33229DA     SC416021  65.036  56.529 106.905
33230DT     BB116022  64.575  56.619 106.563
33230DT     BB216023  64.758  56.456 106.298
33230DT     BB316024  64.741  56.251 106.317
33230DT     SC116025  64.909  56.248 106.519
33230DT     SC216026  65.093  56.154 106.458
33230DT     SC316027  65.003  56.215 106.763
33231DT     BB116028  64.580  56.250 106.102
33231DT     BB216029  64.845  56.020 106.017
33231DT     BB316030  64.801  55.832 106.091
33231DT     SC116031  64.859  55.906 106.336
33231DT     SC216032  65.040  55.809 106.399
33231DT     SC316033  64.830  55.962 106.592
33232DA     BB116034  64.893  55.787 105.684
33232DA     BB216035  65.083  55.535 105.871
33232DA     BB316036  64.953  55.381 105.940
33232DA     SC116037  64.893  55.520 106.212
33232DA     SC216038  64.946  55.484 106.453
33232DA     SC316039  64.745  55.637 106.499
33232DA     SC416040  64.764  55.616 106.220
33233DA     BB116041  65.176  55.196 105.785
33233DA     BB216042  65.240  55.035 106.108
33233DA     BB316043  65.080  54.903 106.158
33233DA     SC116044  64.917  55.120 106.312
33233DA     SC216045  64.853  55.170 106.547
33233DA     SC316046  64.667  55.313 106.445
33233DA     SC416047  64.807  55.203 106.229
33234DA     BB116048  65.332  54.695 106.190
33234DA     BB216049  65.230  54.655 106.540
33234DA     BB316050  65.054  54.535 106.552
33234DA     SC116051  64.859  54.777 106.536
33234DA     SC216052  64.700  54.897 106.687
33234DA     SC316053  64.593  54.985 106.470
33234DA     SC416054  64.806  54.820 106.390
33235DG     BB116055  65.233  54.346 106.723
33235DG     BB216056  64.996  54.427 106.984
33235DG     BB316057  64.833  54.315 106.965
33235DG     SC116058  64.688  54.512 106.781
33235DG     SC216059  64.441  54.665 106.849
33235DG     SC316060  64.508  54.695 106.562
33235DG     SC416061  64.710  54.501 106.623
33236DA     BB116062  64.867  54.220 107.301
33236DA     BB216063  64.534  54.353 107.376
33236DA     BB316064  64.383  54.219 107.306
33236DA     SC116065  64.360  54.352 107.026
33236DA     SC216066  64.194  54.489 106.900
33236DA     SC316067  64.321  54.413 106.690
33236DA     SC416068  64.451  54.293 106.908
33237DG     BB116069  64.277  54.179 107.605
33237DG     BB216070  63.975  54.332 107.477
33237DG     BB316071  63.858  54.193 107.396
33237DG     SC116072  63.981  54.219 107.116
33237DG     SC216073  63.842  54.323 106.873
33237DG     SC316074  64.105  54.207 106.803
33237DG     SC416075  64.108  54.130 107.079
33238DT     BB116076  63.627  54.108 107.468
33238DT     BB216077  63.420  54.269 107.220
33238DT     BB316078  63.344  54.128 107.089
33238DT     SC116079  63.575  54.102 106.969
33238DT     SC216080  63.563  54.185 106.771
33238DT     SC316081  63.799  53.992 106.882
33239DA     BB116082  62.983  54.305 107.221
33239DA     BB216083  62.974  54.307 106.855
33239DA     BB316084  62.920  54.114 106.781
33239DA     SC116085  63.213  54.012 106.762
33239DA     SC216086  63.376  53.953 106.583
33239DA     SC316087  63.498  53.820 106.765
33239DA     SC416088  63.273  53.933 106.889
33240DA     BB116089  62.670  54.262 106.619
33240DA     BB216090  62.838  54.164 106.307
33240DA     BB316091  62.790  53.962 106.257
33240DA     SC116092  63.031  53.841 106.411
33240DA     SC216093  63.246  53.727 106.357
33240DA     SC316094  63.238  53.641 106.599
33240DA     SC416095  63.008  53.797 106.564
33241DT     BB116096  62.683  53.929 106.087
33241DT     BB216097  62.964  53.819 105.890
33241DT     BB316098  62.955  53.614 105.862
33241DT     SC116099  63.031  53.569 106.109
33241DT     SC216100  63.230  53.486 106.109
33241DT     SC316101  63.025  53.487 106.360
33242DA     BB116102  63.015  53.816 105.499
33242DA     BB216103  63.268  53.552 105.529
33242DA     BB316104  63.178  53.360 105.505
33242DA     SC116105  63.120  53.323 105.809
33242DA     SC216106  63.203  53.180 105.996
33242DA     SC316107  62.982  53.240 106.112
33242DA     SC416108  62.977  53.370 105.864
33243DT     BB116109  63.242  53.277 105.356
33243DT     BB216110  63.451  53.038 105.527
33243DT     BB316111  63.354  52.855 105.541
33243DT     SC116112  63.195  52.946 105.729
33243DT     SC216113  63.244  52.850 105.915
33243DT     SC316114  62.974  53.019 105.853
33244DG     BB116115  63.714  52.807 105.356
33244DG     BB216116  63.674  52.581 105.636
33244DG     BB316117  63.552  52.433 105.586
33244DG     SC116118  63.299  52.578 105.677
33244DG     SC216119  63.124  52.500 105.907
33244DG     SC316120  62.999  52.716 105.748
33244DG     SC416121  63.222  52.672 105.573
33245DT     BB116122  63.630  52.237 105.591
33245DT     BB216123  63.477  52.106 105.891
33245DT     BB316124  63.315  51.988 105.842
33245DT     SC116125  63.168  52.198 105.784
33245DT     SC216126  63.014  52.220 105.931
33245DT     SC316127  63.025  52.369 105.644
33246DA     BB116128  63.568  51.784 106.106
33246DA     BB216129  63.225  51.763 106.235
33246DA     BB316130  63.108  51.633 106.113
33246DA     SC116131  63.010  51.858 105.922
33246DA     SC216132  62.797  51.977 105.872
33246DA     SC316133  62.909  52.040 105.650
33246DA     SC416134  63.096  51.885 105.790
33247DC     BB116135  63.057  51.495 106.213
33247DC     BB216136  62.712  51.594 106.250
33247DC     BB316137  62.595  51.496 106.111
33247DC     SC116138  62.683  51.649 105.917
33247DC     SC216139  62.524  51.778 105.850
33247DC     SC316140  62.803  51.722 105.694
33248DA     BB116141  62.450  51.503 106.508
33248DA     BB216142  62.181  51.599 106.278
33248DA     BB316143  62.126  51.434 106.154
33248DA     SC116144  62.328  51.506 105.929
33248DA     SC216145  62.321  51.590 105.694
33248DA     SC316146  62.558  51.494 105.673
33248DA     SC416147  62.474  51.438 105.935
33249DT     BB116148  61.975  51.427 106.202
33249DT     BB216149  61.822  51.537 105.895
33249DT     BB316150  61.799  51.376 105.766
33249DT     SC116151  62.056  51.375 105.710
33249DT     SC216152  62.085  51.440 105.507
33249DT     SC316153  62.306  51.293 105.694
33250DT     BB116154  61.562  51.447 105.826
33250DT     BB216155  61.579  51.443 105.466
33250DT     BB316156  61.585  51.248 105.397
33250DT     SC116157  61.836  51.222 105.471
33250DT     SC216158  61.961  51.209 105.297
33250DT     SC316159  62.049  51.134 105.599
33251DA     BB116160  61.274  51.434 105.183
33251DA     BB216161  61.467  51.232 104.946
33251DA     BB316162  61.431  51.024 104.979
33251DA     SC116163  61.666  50.991 105.181
33251DA     SC216164  61.889  50.879 105.187
33251DA     SC316165  61.868  50.897 105.442
33251DA     SC416166  61.634  51.010 105.337
33252DA     BB116167  61.338  50.989 104.657
33252DA     BB216168  61.605  50.742 104.616
33252DA     BB316169  61.545  50.554 104.696
33252DA     SC116170  61.659  50.611 104.980
33252DA     SC216171  61.846  50.531 105.124
33252DA     SC316172  61.710  50.627 105.319
33252DA     SC416173  61.559  50.676 105.088
33253DT     BB116174  61.498  50.360 104.579
33253DT     BB216175  61.797  50.180 104.672
33253DT     BB316176  61.749  50.024 104.799
33253DT     SC116177  61.711  50.189 105.000
33253DT     SC216178  61.867  50.161 105.145
33253DT     SC316179  61.589  50.321 105.193
33254DC     BB116180  61.779  49.814 104.610
33254DC     BB216181  62.000  49.718 104.879
33254DC     BB316182  61.900  49.597 105.013
33254DC     SC116183  61.768  49.801 105.111
33254DC     SC216184  61.836  49.841 105.311
33254DC     SC316185  61.566  49.959 105.175
33255DT     BB116186  62.030  49.364 104.932
33255DT     BB216187  62.096  49.381 105.286
33255DT     BB316188  61.947  49.283 105.391
33255DT     SC116189  61.778  49.479 105.350
33255DT     SC216190  61.740  49.580 105.536
33255DT     SC316191  61.565  49.609 105.264
33256DT     BB116192  62.112  49.068 105.452
33256DT     BB216193  61.996  49.185 105.774
33256DT     BB316194  61.819  49.090 105.824
33256DT     SC116195  61.684  49.236 105.653
33256DT     SC216196  61.556  49.371 105.760
33256DT     SC316197  61.535  49.300 105.445
33257DC     BB116198  61.937  48.924 106.016
33257DC     BB216199  61.675  49.092 106.198
33257DC     BB316200  61.499  48.984 106.185
33257DC     SC116201  61.461  49.058 105.937
33257DC     SC216202  61.292  49.192 105.927
33257DC     SC316203  61.432  49.044 105.675
33258DA     BB116204  61.542  49.018 106.604
33258DA     BB216205  61.198  49.117 106.524
33258DA     BB316206  61.078  48.944 106.488
33258DA     SC116207  61.134  48.938 106.182
33258DA     SC216208  61.009  48.979 105.971
33258DA     SC316209  61.194  48.841 105.859
33258DA     SC416210  61.258  48.848 106.132
33259DG     BB116211  60.875  48.995 106.740
33259DG     BB216212  60.628  49.048 106.481
33259DG     BB316213  60.536  48.877 106.439
33259DG     SC116214  60.735  48.794 106.222
33259DG     SC216215  60.677  48.771 105.930
33259DG     SC316216  60.945  48.662 105.993
33259DG     SC416217  60.865  48.710 106.264
33260DA     BB116218  60.209  49.004 106.496
33260DA     BB216219  60.126  48.958 106.142
33260DA     BB316220  60.059  48.758 106.108
33260DA     SC116221  60.342  48.648 106.043
33260DA     SC216222  60.466  48.563 105.844
33260DA     SC316223  60.623  48.452 106.015
33260DA     SC416224  60.427  48.586 106.165
33261DC     BB116225  59.851  48.711 106.046
33261DC     BB216226  59.935  48.661 105.699
33261DC     BB316227  59.912  48.462 105.648
33261DC     SC116228  60.132  48.396 105.775
33261DC     SC216229  60.282  48.338 105.633
33261DC     SC316230  60.292  48.283 105.952
33262DT     BB116231  59.705  48.545 105.503
33262DT     BB216232  59.934  48.396 105.267
33262DT     BB316233  59.903  48.192 105.258
33262DT     SC116234  60.020  48.155 105.490
33262DT     SC216235  60.207  48.054 105.460
33262DT     SC316236  60.054  48.090 105.743
33263DT     BB116237  59.826  48.266 105.022
33263DT     BB216238  60.096  48.032 104.970
33263DT     BB316239  60.027  47.838 104.992
33263DT     SC116240  60.017  47.863 105.253
33263DT     SC216241  60.169  47.741 105.343
33263DT     SC316242  59.918  47.876 105.497
33264DA     BB116243  60.267  47.906 104.652
33264DA     BB216244  60.381  47.600 104.820
33264DA     BB316245  60.233  47.448 104.804
33264DA     SC116246  60.090  47.525 105.069
33264DA     SC216247  60.060  47.430 105.298
33264DA     SC316248  59.858  47.587 105.315
33264DA     SC416249  59.968  47.629 105.060
33265DT     BB116250  60.300  47.313 104.708
33265DT     BB216251  60.334  47.072 104.974
33265DT     BB316252  60.169  46.948 104.979
33265DT     SC116253  60.020  47.136 105.084
33265DT     SC216254  59.973  47.085 105.288
33265DT     SC316255  59.827  47.314 105.111
33266DT     BB116256  60.325  46.751 104.883
33266DT     BB216257  60.178  46.611 105.181
33266DT     BB316258  59.992  46.532 105.138
33266DT     SC116259  59.885  46.771 105.122
33266DT     SC216260  59.752  46.800 105.289
33266DT     SC316261  59.765  46.982 105.021
33267DA     BB116262  60.196  46.216 105.327
33267DA     BB216263  59.864  46.237 105.480
33267DA     BB316264  59.716  46.158 105.347
33267DA     SC116265  59.657  46.431 105.211
33267DA     SC216266  59.471  46.597 105.202
33267DA     SC316267  59.582  46.680 104.986
33267DA     SC416268  59.740  46.467 105.078
33268DA     BB116269  59.623  45.948 105.591
33268DA     BB216270  59.290  46.102 105.581
33268DA     BB316271  59.176  46.022 105.419
33268DA     SC116272  59.269  46.238 105.216
33268DA     SC216273  59.170  46.432 105.095
33268DA     SC316274  59.367  46.407 104.933
33268DA     SC416275  59.398  46.205 105.126
33269DG     BB116276  58.958  45.904 105.621
33269DG     BB216277  58.737  46.139 105.459
33269DG     BB316278  58.654  46.055 105.298
33269DG     SC116279  58.876  46.144 105.107
33269DG     SC216280  58.847  46.340 104.884
33269DG     SC316281  59.111  46.207 104.874
33269DG     SC416282  59.004  46.049 105.088
33270DC     BB116283  58.420  46.008 105.266
33270DC     BB216284  58.331  46.271 105.035
33270DC     BB316285  58.298  46.192 104.847
33270DC     SC116286  58.555  46.158 104.807
33270DC     SC216287  58.623  46.296 104.656
33270DC     SC316288  58.786  46.038 104.764
33271DT     BB116289  58.017  46.220 104.857
33271DT     BB216290  58.111  46.404 104.561
33271DT     BB316291  58.103  46.280 104.395
33271DT     SC116292  58.325  46.159 104.466
33271DT     SC216293  58.482  46.211 104.328
33271DT     SC316294  58.490  45.968 104.543
33272DA     BB116295  57.878  46.620 104.305
33272DA     BB216296  58.109  46.562 104.026
33272DA     BB316297  58.043  46.397 103.908
33272DA     SC116298  58.204  46.186 104.070
33272DA     SC216299  58.402  46.038 104.035
33272DA     SC316300  58.309  45.901 104.231
33272DA     SC416301  58.130  46.113 104.192
33273DA     BB116302  58.075  46.625 103.676
33273DA     BB216303  58.322  46.403 103.519
33273DA     BB316304  58.224  46.240 103.423
33273DA     SC116305  58.235  46.055 103.673
33273DA     SC216306  58.354  45.847 103.744
33273DA     SC316307  58.166  45.823 103.917
33273DA     SC416308  58.109  46.057 103.772
33274DT     BB116309  58.237  46.232 103.226
33274DT     BB216310  58.466  45.955 103.203
33274DT     BB316311  58.365  45.783 103.149
33274DT     SC116312  58.261  45.759 103.388
33274DT     SC216313  58.347  45.588 103.487
33274DT     SC316314  58.081  45.747 103.581
33275DT     BB116315  58.471  45.790 102.895
33275DT     BB216316  58.556  45.461 103.015
33275DT     BB316317  58.403  45.328 102.971
33275DT     SC116318  58.253  45.427 103.162
33275DT     SC216319  58.234  45.282 103.320
33275DT     SC316320  58.050  45.547 103.282
33276DG     BB116321  58.720  45.162 102.771
33276DG     BB216322  58.557  44.913 102.977
33276DG     BB316323  58.396  44.842 102.883
33276DG     SC116324  58.206  45.052 102.997
33276DG     SC216325  57.982  45.001 103.188
33276DG     SC316326  57.973  45.279 103.088
33276DG     SC416327  58.187  45.191 102.919
33277DA     BB116328  58.492  44.497 102.902
33277DA     BB216329  58.192  44.415 103.098
33277DA     BB316330  58.026  44.383 102.968
33277DA     SC116331  57.933  44.680 102.972
33277DA     SC216332  57.742  44.812 103.064
33277DA     SC316333  57.809  44.989 102.890
33277DA     SC416334  57.989  44.777 102.857
33278DC     BB116335  57.909  44.176 102.921
33278DC     BB216336  57.618  44.253 103.121
33278DC     BB316337  57.452  44.274 102.998
33278DC     SC116338  57.534  44.509 102.914
33278DC     SC216339  57.405  44.661 102.992
33278DC     SC316340  57.619  44.698 102.752
33279DA     BB116341  57.331  43.986 103.277
33279DA     BB216342  57.074  44.247 103.272
33279DA     BB316343  56.948  44.224 103.101
33279DA     SC116344  57.121  44.407 102.918
33279DA     SC216345  57.102  44.631 102.811
33279DA     SC316346  57.287  44.549 102.653
33279DA     SC416347  57.235  44.337 102.830
33280DC     BB116348  56.751  44.176 103.130
33280DC     BB216349  56.622  44.506 103.064
33280DC     BB316350  56.525  44.509 102.881
33280DC     SC116351  56.754  44.504 102.751
33280DC     SC216352  56.785  44.694 102.655
33280DC     SC316353  56.948  44.421 102.594
33281DA     BB116354  56.295  44.679 103.185
33281DA     BB216355  56.302  44.911 102.901
33281DA     BB316356  56.185  44.835 102.740
33281DA     SC116357  56.423  44.684 102.607
33281DA     SC216358  56.561  44.704 102.401
33281DA     SC316359  56.619  44.457 102.441
33281DA     SC416360  56.445  44.530 102.648
33282DT     BB116361  56.054  44.949 102.715
33282DT     BB216362  56.173  45.092 102.407
33282DT     BB316363  56.083  44.998 102.246
33282DT     SC116364  56.231  44.784 102.276
33282DT     SC216365  56.370  44.769 102.113
33282DT     SC316366  56.298  44.533 102.323
33283DT     BB116367  55.972  45.232 102.225
33283DT     BB216368  56.129  45.172 101.906
33283DT     BB316369  56.009  45.048 101.791
33283DT     SC116370  56.076  44.838 101.934
33283DT     SC216371  56.198  44.707 101.815
33283DT     SC316372  56.054  44.630 102.095
33284DG     BB116373  56.092  45.392 101.589
33284DG     BB216374  56.154  45.100 101.386
33284DG     BB316375  55.982  45.022 101.324
33284DG     SC116376  55.951  44.838 101.567
33284DG     SC216377  55.961  44.539 101.562
33284DG     SC316378  55.874  44.638 101.827
33284DG     SC416379  55.876  44.893 101.697
33285DA     BB116380  56.108  45.031 100.998
33285DA     BB216381  56.049  44.671 100.961
33285DA     BB316382  55.841  44.632 100.934
33285DA     SC116383  55.783  44.598 101.238
33285DA     SC216384  55.723  44.414 101.395
33285DA     SC316385  55.641  44.601 101.550
33285DA     SC416386  55.737  44.728 101.320
33286DA     BB116387  55.914  44.469 100.649
33286DA     BB216388  55.758  44.169 100.791
33286DA     BB316389  55.546  44.181 100.776
33286DA     SC116390  55.509  44.317 101.053
33286DA     SC216391  55.417  44.257 101.277
33286DA     SC316392  55.402  44.510 101.316
33286DA     SC416393  55.507  44.477 101.057
33287DA     BB116394  55.520  43.888 100.600
33287DA     BB216395  55.316  43.750 100.872
33287DA     BB316396  55.113  43.809 100.850
33287DA     SC116397  55.143  44.067 101.020
33287DA     SC216398  55.067  44.152 101.242
33287DA     SC316399  55.118  44.385 101.147
33287DA     SC416400  55.179  44.203 100.942
33288DG     BB116401  54.978  43.507 100.804
33288DG     BB216402  54.811  43.571 101.119
33288DG     BB316403  54.632  43.649 101.086
33288DG     SC116404  54.731  43.939 101.088
33288DG     SC216405  54.664  44.146 101.293
33288DG     SC316406  54.809  44.266 101.065
33288DG     SC416407  54.783  44.005 100.951
33289DC     BB116408  54.380  43.558 101.131
33289DC     BB216409  54.304  43.751 101.426
33289DC     BB316410  54.152  43.885 101.386
33289DC     SC116411  54.315  44.040 101.251
33289DC     SC216412  54.347  44.223 101.361
33289DC     SC316413  54.421  44.173 101.049
33290DT     BB116414  53.942  43.749 101.528
33290DT     BB216415  53.958  44.072 101.686
33290DT     BB316416  53.822  44.201 101.598
33290DT     SC116417  53.973  44.228 101.386
33290DT     SC216418  54.053  44.428 101.380
33290DT     SC316419  54.052  44.217 101.134
33291DC     BB116420  53.666  44.191 101.823
33291DC     BB216421  53.753  44.540 101.785
33291DC     BB316422  53.615  44.634 101.664
33291DC     SC116423  53.715  44.522 101.449
33291DC     SC216424  53.813  44.672 101.329
33291DC     SC316425  53.733  44.373 101.232
33292DA     BB116426  53.672  44.850 102.018
33292DA     BB216427  53.705  45.081 101.736
33292DA     BB316428  53.515  45.118 101.648
33292DA     SC116429  53.538  44.885 101.443
33292DA     SC216430  53.565  44.857 101.197
33292DA     SC316431  53.474  44.620 101.233
33292DA     SC416432  53.477  44.742 101.486
33293DT     BB116433  53.453  45.299 101.664
33293DT     BB216434  53.508  45.396 101.321
33293DT     BB316435  53.328  45.397 101.218
33293DT     SC116436  53.323  45.134 101.209
33293DT     SC216437  53.354  45.070 101.006
33293DT     SC316438  53.245  44.886 101.250
33294DA     BB116439  53.515  45.766 101.153
33294DA     BB216440  53.409  45.634 100.828
33294DA     BB316441  53.197  45.649 100.807
33294DA     SC116442  53.141  45.367 100.927
33294DA     SC216443  53.061  45.145 100.846
33294DA     SC316444  53.007  45.098 101.092
33294DA     SC416445  53.114  45.357 101.085
33295DC     BB116446  53.120  45.775 100.667
33295DC     BB216447  53.019  45.520 100.432
33295DC     BB316448  52.814  45.498 100.436
33295DC     SC116449  52.824  45.371 100.666
33295DC     SC216450  52.772  45.164 100.635
33295DC     SC316451  52.788  45.316 100.921
33296DT     BB116452  52.799  45.615 100.193
33296DT     BB216453  52.648  45.290 100.148
33296DT     BB316454  52.447  45.298 100.196
33296DT     SC116455  52.500  45.308 100.453
33296DT     SC216456  52.439  45.123 100.545
33296DT     SC316457  52.514  45.398 100.700
33297DA     BB116458  52.519  45.114  99.828
33297DA     BB216459  52.300  44.897 100.028
33297DA     BB316460  52.106  44.984 100.045
33297DA     SC116461  52.171  45.138 100.307
33297DA     SC216462  52.108  45.128 100.548
33297DA     SC316463  52.189  45.371 100.558
33297DA     SC416464  52.225  45.289 100.293
33298DA     BB116465  52.105  44.669  99.958
33298DA     BB216466  51.901  44.622 100.259
33298DA     BB316467  51.715  44.725 100.239
33298DA     SC116468  51.820  44.989 100.366
33298DA     SC216469  51.786  45.119 100.577
33298DA     SC316470  51.880  45.318 100.445
33298DA     SC416471  51.879  45.101 100.267
33299DT     BB116472  51.653  44.590 100.264
33299DT     BB216473  51.498  44.667 100.580
33299DT     BB316474  51.331  44.787 100.550
33299DT     SC116475  51.481  44.997 100.501
33299DT     SC216476  51.461  45.138 100.663
33299DT     SC316477  51.590  45.199 100.372
33300DA     BB116478  51.299  44.468 100.839
33300DA     BB216479  51.123  44.766 100.961
33300DA     BB316480  50.964  44.817 100.828
33300DA     SC116481  51.139  45.006 100.654
33300DA     SC216482  51.158  45.251 100.609
33300DA     SC316483  51.279  45.182 100.394
33300DA     SC416484  51.210  44.943 100.524
33301DA     BB116485  50.780  44.809 101.107
33301DA     BB216486  50.664  45.146 101.022
33301DA     BB316487  50.533  45.139 100.854
33301DA     SC116488  50.759  45.177 100.644
33301DA     SC216489  50.836  45.353 100.484
33301DA     SC316490  50.957  45.162 100.364
33301DA     SC416491  50.827  45.044 100.582
33302DA     BB116492  50.270  45.291 101.016
33302DA     BB216493  50.269  45.554 100.761
33302DA     BB316494  50.162  45.490 100.588
33302DA     SC116495  50.412  45.371 100.447
33302DA     SC216496  50.555  45.424 100.249
33302DA     SC316497  50.629  45.179 100.263
33302DA     SC416498  50.445  45.216 100.471
33303DG     BB116499  49.914  45.711 100.597
33303DG     BB216500  50.048  45.827 100.282
33303DG     BB316501  49.956  45.734 100.131
33303DG     SC116502  50.155  45.501 100.121
33303DG     SC216503  50.345  45.442  99.899
33303DG     SC316504  50.342  45.222 100.096
33303DG     SC416505  50.129  45.373 100.213
33304DA     BB116506  49.855  46.032  99.964
33304DA     BB216507  50.052  45.944  99.668
33304DA     BB316508  49.942  45.812  99.542
33304DA     SC116509  50.051  45.554  99.677
33304DA     SC216510  50.204  45.365  99.618
33304DA     SC316511  50.087  45.239  99.808
33304DA     SC416512  49.966  45.491  99.798
33305DA     BB116513  49.994  46.033  99.301
33305DA     BB216514  50.179  45.773  99.120
33305DA     BB316515  50.044  45.642  99.021
33305DA     SC116516  50.023  45.443  99.260
33305DA     SC216517  50.095  45.211  99.314
33305DA     SC316518  49.914  45.218  99.495
33305DA     SC416519  49.904  45.467  99.366
33306DA     BB116520  50.224  45.719  98.757
33306DA     BB216521  50.308  45.363  98.728
33306DA     BB316522  50.144  45.255  98.645
33306DA     SC116523  50.015  45.190  98.920
33306DA     SC216524  49.979  44.990  99.065
33306DA     SC316525  49.795  45.130  99.177
33306DA     SC416526  49.904  45.292  98.976
33307DG     BB116527  50.336  45.176  98.407
33307DG     BB216528  50.283  44.840  98.529
33307DG     BB316529  50.116  44.765  98.452
33307DG     SC116530  49.937  44.867  98.679
33307DG     SC216531  49.792  44.698  98.878
33307DG     SC316532  49.710  44.981  98.900
33307DG     SC416533  49.874  45.014  98.668
33308DG     BB116534  50.254  44.499  98.287
33308DG     BB216535  50.057  44.283  98.499
33308DG     BB316536  49.879  44.250  98.416
33308DG     SC116537  49.744  44.491  98.548
33308DG     SC216538  49.528  44.480  98.753
33308DG     SC316539  49.570  44.757  98.659
33308DG     SC416540  49.750  44.633  98.474
33309DC     BB116541  49.751  44.024  98.304
33309DC     BB216542  49.521  43.950  98.572
33309DC     BB316543  49.326  43.980  98.508
33309DC     SC116544  49.354  44.241  98.519
33309DC     SC216545  49.234  44.318  98.681
33309DC     SC316546  49.367  44.493  98.442
33310DA     BB116547  49.266  43.568  98.610
33310DA     BB216548  49.002  43.756  98.782
33310DA     BB316549  48.838  43.790  98.650
33310DA     SC116550  48.946  44.062  98.545
33310DA     SC216551  48.886  44.303  98.563
33310DA     SC316552  49.028  44.333  98.351
33310DA     SC416553  49.036  44.059  98.412
33311DT     BB116554  48.616  43.700  98.669
33311DT     BB216555  48.479  44.002  98.809
33311DT     BB316556  48.342  44.085  98.678
33311DT     SC116557  48.533  44.171  98.520
33311DT     SC216558  48.542  44.386  98.530
33311DT     SC316559  48.683  44.200  98.306
33312DT     BB116560  48.142  44.015  98.848
33312DT     BB216561  48.129  44.375  98.829
33312DT     BB316562  48.010  44.433  98.669
33312DT     SC116563  48.196  44.368  98.497
33312DT     SC216564  48.276  44.547  98.407
33312DT     SC316565  48.319  44.244  98.299
33313DC     BB116566  47.852  44.515  98.862
33313DC     BB216567  47.937  44.810  98.671
33313DC     BB316568  47.816  44.822  98.503
33313DC     SC116569  47.950  44.630  98.384
33313DC     SC216570  48.061  44.712  98.219
33313DC     SC316571  48.002  44.398  98.270
33314DA     BB116572  47.848  45.179  98.725
33314DA     BB216573  47.911  45.252  98.371
33314DA     BB316574  47.732  45.227  98.257
33314DA     SC116575  47.786  44.927  98.193
33314DA     SC216576  47.846  44.789  97.994
33314DA     SC316577  47.755  44.591  98.130
33314DA     SC416578  47.724  44.817  98.293
33315DA     BB116579  47.853  45.521  98.183
33315DA     BB216580  47.868  45.396  97.838
33315DA     BB316581  47.672  45.371  97.760
33315DA     SC116582  47.646  45.075  97.853
33315DA     SC216583  47.639  44.849  97.748
33315DA     SC316584  47.532  44.773  97.969
33315DA     SC416585  47.580  45.048  97.997
33316DT     BB116586  47.644  45.484  97.621
33316DT     BB216587  47.657  45.237  97.358
33316DT     BB316588  47.465  45.181  97.304
33316DT     SC116589  47.436  45.039  97.523
33316DT     SC216590  47.432  44.830  97.472
33316DT     SC316591  47.343  44.958  97.756
33317DG     BB116592  47.676  45.313  96.982
33317DG     BB216593  47.528  44.987  96.924
33317DG     BB316594  47.333  45.006  96.894
33317DG     SC116595  47.259  44.979  97.190
33317DG     SC216596  47.108  44.753  97.313
33317DG     SC316597  47.144  44.974  97.507
33317DG     SC416598  47.255  45.111  97.281
33318DC     BB116599  47.272  44.939  96.714
33318DC     BB216600  47.101  44.633  96.800
33318DC     BB316601  46.897  44.668  96.812
33318DC     SC116602  46.923  44.790  97.043
33318DC     SC216603  46.838  44.669  97.199
33318DC     SC316604  46.919  44.982  97.224
33319DA     BB116605  46.991  44.329  96.581
33319DA     BB216606  46.724  44.241  96.816
33319DA     BB316607  46.543  44.342  96.764
33319DA     SC116608  46.602  44.590  96.943
33319DA     SC216609  46.514  44.692  97.152
33319DA     SC316610  46.627  44.907  97.071
33319DA     SC416611  46.678  44.714  96.875
33320DT     BB116612  46.429  44.219  96.723
33320DT     BB216613  46.213  44.254  97.010
33320DT     BB316614  46.059  44.386  96.967
33320DT     SC116615  46.220  44.592  96.985
33320DT     SC216616  46.170  44.707  97.160
33320DT     SC316617  46.359  44.806  96.916
33321DG     BB116618  45.878  44.035  97.073
33321DG     BB216619  45.733  44.315  97.250
33321DG     BB316620  45.608  44.414  97.131
33321DG     SC116621  45.823  44.603  97.023
33321DG     SC216622  45.837  44.898  97.070
33321DG     SC316623  46.036  44.814  96.868
33321DG     SC416624  45.907  44.560  96.894
33322DG     BB116625  45.331  44.370  97.322
33322DG     BB216626  45.314  44.730  97.353
33322DG     BB316627  45.213  44.806  97.200
33322DG     SC116628  45.459  44.840  97.022
33322DG     SC216629  45.577  45.100  96.933
33322DG     SC316630  45.705  44.873  96.793
33322DG     SC416631  45.505  44.719  96.928
33323DA     BB116632  44.968  44.985  97.395
33323DA     BB216633  45.078  45.305  97.255
33323DA     BB316634  44.983  45.341  97.067
33323DA     SC116635  45.207  45.205  96.900
33323DA     SC216636  45.386  45.273  96.740
33323DA     SC316637  45.385  45.028  96.665
33323DA     SC416638  45.191  45.048  96.866
33324DC     BB116639  44.817  45.507  97.011
33324DC     BB216640  45.045  45.724  96.834
33324DC     BB316641  44.995  45.730  96.634
33324DC     SC116642  45.094  45.490  96.594
33324DC     SC216643  45.273  45.506  96.475
33324DC     SC316644  45.107  45.233  96.535
33325DT     BB116645  44.889  45.990  96.643
33325DT     BB216646  45.156  46.010  96.402
33325DT     BB316647  45.083  45.973  96.212
33325DT     SC116648  45.064  45.716  96.261
33325DT     SC216649  45.211  45.610  96.145
33325DT     SC316650  44.957  45.478  96.297
33326DT     BB116651  45.125  46.232  96.161
33326DT     BB216652  45.330  46.055  95.923
33326DT     BB316653  45.218  46.007  95.756
33326DT     SC116654  45.092  45.816  95.885
33326DT     SC216655  45.154  45.625  95.807
33326DT     SC316656  44.897  45.679  95.997
33327DT     BB116657  45.385  46.177  95.660
33327DT     BB216658  45.436  45.872  95.474
33327DT     BB316659  45.288  45.851  95.331
33327DT     SC116660  45.111  45.784  95.513
33327DT     SC216661  45.060  45.577  95.490
33327DT     SC316662  44.896  45.794  95.665
33328DG     BB116663  45.678  45.813  95.211
33328DG     BB216664  45.469  45.540  95.097
33328DG     BB316665  45.342  45.605  94.959
33328DG     SC116666  45.123  45.679  95.160
33328DG     SC216667  44.857  45.547  95.186
33328DG     SC316668  44.870  45.791  95.353
33328DG     SC416669  45.124  45.826  95.224
33329DT     BB116670  45.371  45.507  94.799
33329DT     BB216671  45.070  45.311  94.761
33329DT     BB316672  44.931  45.418  94.651
33329DT     SC116673  44.877  45.574  94.854
33329DT     SC216674  44.679  45.532  94.927
33329DT     SC316675  44.857  45.793  95.001
33330DC     BB116676  44.977  45.253  94.443
33330DC     BB216677  44.618  45.251  94.476
33330DC     BB316678  44.537  45.414  94.377
33330DC     SC116679  44.616  45.578  94.566
33330DC     SC216680  44.444  45.651  94.673
33330DC     SC316681  44.743  45.775  94.686
33331DA     BB116682  44.318  45.114  94.169
33331DA     BB216683  44.075  45.376  94.253
33331DA     BB316684  44.092  45.540  94.117
33331DA     SC116685  44.300  45.693  94.291
33331DA     SC216686  44.307  45.901  94.429
33331DA     SC316687  44.562  45.885  94.402
33331DA     SC416688  44.455  45.667  94.261
33332DT     BB116689  43.943  45.630  93.923
33332DT     BB216690  43.824  45.924  94.094
33332DT     BB316691  43.895  46.094  94.000
33332DT     SC116692  44.135  46.058  94.098
33332DT     SC216693  44.177  46.211  94.243
33332DT     SC316694  44.395  46.013  94.108
33333DT     BB116695  43.658  46.201  93.833
33333DT     BB216696  43.749  46.489  94.030
33333DT     BB316697  43.869  46.616  93.919
33333DT     SC116698  44.075  46.455  93.945
33333DT     SC216699  44.222  46.547  94.072
33333DT     SC316700  44.271  46.290  93.880
33334DG     BB116701  43.555  46.884  93.971
33334DG     BB216702  43.866  47.034  94.081
33334DG     BB316703  43.958  47.119  93.927
33334DG     SC116704  44.115  46.868  93.850
33334DG     SC216705  44.411  46.834  93.868
33334DG     SC316706  44.287  46.606  93.725
33334DG     SC416707  44.049  46.763  93.749
33335DT     BB116708  44.013  47.371  93.881
33335DT     BB216709  44.363  47.368  93.968
33335DT     BB316710  44.478  47.401  93.799
33335DT     SC116711  44.434  47.157  93.712
33335DT     SC216712  44.616  47.043  93.723
33335DT     SC316713  44.350  46.960  93.558
33336DT     BB116714  44.552  47.666  93.867
33336DT     BB216715  44.866  47.490  93.840
33336DT     BB316716  44.940  47.508  93.647
33336DT     SC116717  44.764  47.336  93.555
33336DT     SC216718  44.865  47.155  93.498
33336DT     SC316719  44.562  47.238  93.417
33337DT     BB116720  45.137  47.676  93.735
33337DT     BB216721  45.312  47.396  93.591
33337DT     BB316722  45.344  47.428  93.389
33337DT     SC116723  45.092  47.379  93.334
33337DT     SC216724  45.077  47.194  93.227
33337DT     SC316725  44.843  47.417  93.253
33338DT     BB116726  45.600  47.453  93.455
33338DT     BB216727  45.586  47.176  93.224
33338DT     BB316728  45.592  47.246  93.029
33338DT     SC116729  45.343  47.328  93.043
33338DT     SC216730  45.220  47.205  92.917
33338DT     SC316731  45.135  47.491  93.044
33339DT     BB116732  45.819  47.124  93.046
33339DT     BB216733  45.637  46.962  92.780
33339DT     BB316734  45.649  47.075  92.607
33339DT     SC116735  45.478  47.251  92.701
33339DT     SC216736  45.294  47.237  92.591
33339DT     SC316737  45.380  47.479  92.788
33340DT     BB116738  45.770  46.857  92.561
33340DT     BB216739  45.508  46.882  92.315
33340DT     BB316740  45.558  47.025  92.173
33340DT     SC116741  45.506  47.221  92.340
33340DT     SC216742  45.330  47.325  92.275
33340DT     SC316743  45.543  47.431  92.494
33341DA     BB116744  45.400  46.657  92.027
33341DA     BB216745  45.242  46.937  91.850
33341DA     BB316746  45.387  47.041  91.733
33341DA     SC116747  45.460  47.242  91.960
33341DA     SC216748  45.431  47.485  92.008
33341DA     SC316749  45.625  47.455  92.173
33341DA     SC416750  45.583  47.203  92.056
33342DA     BB116751  45.144  46.981  91.517
33342DA     BB216752  45.138  47.343  91.459
33342DA     BB316753  45.317  47.405  91.360
33342DA     SC116754  45.472  47.462  91.624
33342DA     SC216755  45.558  47.660  91.748
33342DA     SC316756  45.714  47.493  91.866
33342DA     SC416757  45.561  47.343  91.685
33343DT     BB116758  45.318  47.474  91.160
33343DT     BB216759  45.385  47.822  91.228
33343DT     BB316760  45.582  47.867  91.179
33343DT     SC116761  45.671  47.743  91.393
33343DT     SC216762  45.750  47.888  91.531
33343DT     SC316763  45.798  47.567  91.543
33344DA     BB116764  45.388  48.157  90.938
33344DA     BB216765  45.654  48.332  91.119
33344DA     BB316766  45.843  48.296  91.027
33344DA     SC116767  45.906  48.045  91.201
33344DA     SC216768  46.064  47.983  91.384
33344DA     SC316769  46.014  47.740  91.316
33344DA     SC416770  45.863  47.902  91.144
33345DA     BB116771  45.898  48.627  90.985
33345DA     BB216772  46.184  48.597  91.212
33345DA     BB316773  46.356  48.530  91.106
33345DA     SC116774  46.300  48.228  91.157
33345DA     SC216775  46.399  48.042  91.289
33345DA     SC316776  46.273  47.887  91.128
33345DA     SC416777  46.215  48.149  91.045
33346DC     BB116778  46.541  48.654  91.072
33346DC     BB216779  46.738  48.489  91.325
33346DC     BB316780  46.890  48.379  91.237
33346DC     SC116781  46.720  48.194  91.160
33346DC     SC216782  46.756  48.014  91.272
33346DC     SC316783  46.578  48.037  91.002
33347DA     BB116784  47.047  48.625  91.534
33347DA     BB216785  47.162  48.283  91.596
33347DA     BB316786  47.310  48.228  91.452
33347DA     SC116787  47.106  48.110  91.250
33347DA     SC216788  47.042  47.886  91.162
33347DA     SC316789  46.938  48.015  90.966
33347DA     SC416790  47.049  48.208  91.136
33348DC     BB116791  47.449  48.199  91.547
33348DC     BB216792  47.445  47.839  91.520
33348DC     BB316793  47.566  47.778  91.364
33348DC     SC116794  47.390  47.855  91.186
33348DC     SC216795  47.305  47.683  91.090
33348DC     SC316796  47.281  47.989  90.987
33349DG     BB116797  47.622  47.601  91.730
33349DG     BB216798  47.587  47.360  91.463
33349DG     BB316799  47.747  47.367  91.344
33349DG     SC116800  47.631  47.580  91.158
33349DG     SC216801  47.556  47.540  90.872
33349DG     SC316802  47.544  47.827  90.945
33349DG     SC416803  47.654  47.734  91.193
33350DT     BB116804  47.817  47.195  91.346
33350DT     BB216805  47.763  47.077  91.009
33350DT     BB316806  47.921  47.133  90.888
33350DT     SC116807  47.838  47.382  90.881
33350DT     SC216808  47.767  47.427  90.683
33350DT     SC316809  47.833  47.643  90.915
33351DA     BB116810  47.869  46.719  90.831
33351DA     BB216811  47.921  46.872  90.502
33351DA     BB316812  48.124  46.934  90.480
33351DA     SC116813  48.074  47.220  90.592
33351DA     SC216814  48.070  47.454  90.505
33351DA     SC316815  48.102  47.523  90.750
33351DA     SC416816  48.096  47.243  90.749
33352DG     BB116817  48.170  46.734  90.233
33352DG     BB216818  48.237  47.037  90.047
33352DG     BB316819  48.427  47.089  90.068
33352DG     SC116820  48.378  47.261  90.316
33352DG     SC216821  48.409  47.558  90.333
33352DG     SC316822  48.364  47.441  90.601
33352DG     SC416823  48.384  47.192  90.461
33353DA     BB116824  48.512  47.103  89.717
33353DA     BB216825  48.601  47.458  89.741
33353DA     BB316826  48.801  47.479  89.813
33353DA     SC116827  48.718  47.491  90.113
33353DA     SC216828  48.712  47.661  90.296
33353DA     SC316829  48.705  47.459  90.454
33353DA     SC416830  48.716  47.353  90.195
33354DC     BB116831  48.996  47.558  89.696
33354DC     BB216832  49.009  47.881  89.855
33354DC     BB316833  49.177  47.894  89.975
33354DC     SC116834  49.069  47.740  90.157
33354DC     SC216835  49.025  47.856  90.333
33354DC     SC316836  49.030  47.532  90.316
33355DA     BB116837  49.221  48.231  89.727
33355DA     BB216838  49.260  48.347  90.072
33355DA     BB316839  49.454  48.298  90.146
33355DA     SC116840  49.368  48.022  90.261
33355DA     SC216841  49.337  47.917  90.485
33355DA     SC316842  49.356  47.694  90.360
33355DA     SC416843  49.384  47.894  90.165
33356DC     BB116844  49.599  48.449  90.193
33356DC     BB216845  49.563  48.427  90.551
33356DC     BB316846  49.731  48.338  90.633
33356DC     SC116847  49.657  48.101  90.549
33356DC     SC216848  49.601  47.980  90.717
33356DC     SC316849  49.660  47.873  90.417
33357DG     BB116850  49.697  48.705  90.809
33357DG     BB216851  49.718  48.442  91.056
33357DG     BB316852  49.907  48.384  91.079
33357DG     SC116853  49.894  48.169  90.862
33357DG     SC216854  49.914  47.875  90.906
33357DG     SC316855  49.921  47.939  90.617
33357DG     SC416856  49.927  48.210  90.711
33358DT     BB116857  50.011  48.408  91.274
33358DT     BB216858  50.013  48.068  91.394
33358DT     BB316859  50.203  47.987  91.372
33358DT     SC116860  50.171  47.961  91.113
33358DT     SC216861  50.156  47.753  91.063
33358DT     SC316862  50.208  47.995  90.854
33359DA     BB116863  50.081  47.925  91.768
33359DA     BB216864  50.201  47.605  91.636
33359DA     BB316865  50.414  47.606  91.619
33359DA     SC116866  50.415  47.714  91.328
33359DA     SC216867  50.471  47.630  91.100
33359DA     SC316868  50.491  47.877  91.035
33359DA     SC416869  50.424  47.873  91.307
33360DT     BB116870  50.514  47.481  91.737
33360DT     BB216871  50.601  47.244  91.479
33360DT     BB316872  50.800  47.266  91.427
33360DT     SC116873  50.749  47.486  91.294
33360DT     SC216874  50.774  47.449  91.083
33360DT     SC316875  50.752  47.740  91.224
33361DA     BB116876  50.726  46.862  91.511
33361DA     BB216877  50.900  46.881  91.189
33361DA     BB316878  51.105  46.933  91.218
33361DA     SC116879  51.057  47.239  91.197
33361DA     SC216880  51.109  47.423  91.037
33361DA     SC316881  51.069  47.580  91.236
33361DA     SC416882  51.029  47.320  91.333
33362DA     BB116883  51.125  46.663  91.035
33362DA     BB216884  51.296  46.873  90.787
33362DA     BB316885  51.493  46.920  90.853
33362DA     SC116886  51.408  47.182  90.998
33362DA     SC216887  51.438  47.428  90.968
33362DA     SC316888  51.378  47.445  91.217
33362DA     SC416889  51.370  47.172  91.154
33363DA     BB116890  51.546  46.799  90.554
33363DA     BB216891  51.693  47.125  90.473
33363DA     BB316892  51.882  47.147  90.570
33363DA     SC116893  51.763  47.278  90.826
33363DA     SC216894  51.763  47.502  90.936
33363DA     SC316895  51.699  47.374  91.149
33363DA     SC416896  51.725  47.180  90.948
33364DA     BB116897  51.961  47.215  90.259
33364DA     BB216898  52.069  47.544  90.381
33364DA     BB316899  52.251  47.527  90.490
33364DA     SC116900  52.111  47.484  90.764
33364DA     SC216901  52.081  47.610  90.977
33364DA     SC316902  52.028  47.382  91.081
33364DA     SC416903  52.083  47.333  90.811
33365DT     BB116904  52.408  47.613  90.411
33365DT     BB216905  52.429  47.889  90.642
33365DT     BB316906  52.581  47.856  90.779
33365DT     SC116907  52.436  47.678  90.907
33365DT     SC216908  52.380  47.757  91.099
33365DT     SC316909  52.358  47.447  91.008
33366DT     BB116910  52.730  48.047  90.658
33366DT     BB216911  52.708  48.153  91.002
33366DT     BB316912  52.857  48.063  91.114
33366DT     SC116913  52.731  47.833  91.112
33366DT     SC216914  52.659  47.789  91.309
33366DT     SC316915  52.679  47.578  91.064
33367DA     BB116916  52.879  48.475  91.189
33367DA     BB216917  52.884  48.302  91.512
33367DA     BB316918  53.073  48.206  91.541
33367DA     SC116919  52.985  47.937  91.412
33367DA     SC216920  52.937  47.704  91.486
33367DA     SC316921  52.974  47.640  91.240
33367DA     SC416922  53.013  47.918  91.255
33368DA     BB116923  53.063  48.379  91.821
33368DA     BB216924  53.076  48.059  91.998
33368DA     BB316925  53.273  47.978  91.991
33368DA     SC116926  53.225  47.817  91.729
33368DA     SC216927  53.203  47.579  91.661
33368DA     SC316928  53.258  47.663  91.424
33368DA     SC416929  53.262  47.889  91.590
33369DT     BB116930  53.379  47.963  92.164
33369DT     BB216931  53.352  47.605  92.200
33369DT     BB316932  53.532  47.515  92.151
33369DT     SC116933  53.490  47.555  91.895
33369DT     SC216934  53.454  47.366  91.798
33369DT     SC316935  53.522  47.646  91.649
33370DA     BB116936  53.424  47.369  92.529
33370DA     BB216937  53.512  47.082  92.319
33370DA     BB316938  53.723  47.074  92.290
33370DA     SC116939  53.719  47.247  92.031
33370DA     SC216940  53.757  47.214  91.787
33370DA     SC316941  53.793  47.468  91.779
33370DA     SC416942  53.739  47.405  92.047
33371DA     BB116943  53.690  46.767  92.404
33371DA     BB216944  53.820  46.649  92.083
33371DA     BB316945  54.032  46.672  92.075
33371DA     SC116946  54.020  46.958  91.952
33371DA     SC216947  54.074  47.067  91.734
33371DA     SC316948  54.081  47.286  91.869
33371DA     SC416949  54.022  47.083  92.053
33372DT     BB116950  54.148  46.506  92.068
33372DT     BB216951  54.243  46.533  91.721
33372DT     BB316952  54.439  46.597  91.706
33372DT     SC116953  54.371  46.842  91.771
33372DT     SC216954  54.394  46.970  91.600
33372DT     SC316955  54.358  47.068  91.906
33373DG     BB116956  54.412  46.241  91.510
33373DG     BB216957  54.564  46.495  91.302
33373DG     BB316958  54.754  46.521  91.355
33373DG     SC116959  54.692  46.738  91.562
33373DG     SC216960  54.771  47.026  91.544
33373DG     SC316961  54.658  46.964  91.810
33373DG     SC416962  54.659  46.695  91.712
33374DT     BB116963  54.917  46.478  91.214
33374DT     BB216964  55.029  46.809  91.125
33374DT     BB316965  55.205  46.854  91.225
33374DT     SC116966  55.076  46.891  91.450
33374DT     SC216967  55.080  47.100  91.502
33374DT     SC316968  54.998  46.857  91.700
33375DA     BB116969  55.290  46.928  90.820
33375DA     BB216970  55.411  47.216  91.012
33375DA     BB316971  55.590  47.166  91.116
33375DA     SC116972  55.442  47.072  91.374
33375DA     SC216973  55.413  47.151  91.609
33375DA     SC316974  55.346  46.908  91.660
33375DA     SC416975  55.405  46.916  91.385
33376DA     BB116976  55.739  47.426  90.966
33376DA     BB216977  55.798  47.570  91.297
33376DA     BB316978  55.967  47.478  91.389
33376DA     SC116979  55.800  47.255  91.529
33376DA     SC216980  55.732  47.194  91.761
33376DA     SC316981  55.690  46.960  91.664
33376DA     SC416982  55.781  47.116  91.450
33377DA     BB116983  56.124  47.776  91.430
33377DA     BB216984  56.111  47.724  91.792
33377DA     BB316985  56.274  47.602  91.856
33377DA     SC116986  56.119  47.335  91.824
33377DA     SC216987  56.024  47.158  91.971
33377DA     SC316988  56.029  47.009  91.762
33377DA     SC416989  56.131  47.258  91.683
33378DG     BB116990  56.416  47.830  92.045
33378DG     BB216991  56.325  47.607  92.315
33378DG     BB316992  56.475  47.483  92.355
33378DG     SC116993  56.383  47.269  92.157
33378DG     SC216994  56.283  46.996  92.227
33378DG     SC316995  56.322  47.022  91.935
33378DG     SC416996  56.433  47.277  92.005
33379DC     BB116997  56.615  47.464  92.568
33379DC     BB216998  56.455  47.173  92.709
33379DC     BB316999  56.586  47.013  92.710
33379DC     SC117000  56.559  46.979  92.451
33379DC     SC217001  56.452  46.796  92.414
33379DC     SC317002  56.619  46.967  92.195
33380DA     BB117003  56.426  47.062  93.090
33380DA     BB217004  56.370  46.715  92.986
33380DA     BB317005  56.553  46.605  92.996
33380DA     SC117006  56.635  46.667  92.703
33380DA     SC217007  56.658  46.544  92.487
33380DA     SC317008  56.810  46.737  92.416
33380DA     SC417009  56.728  46.796  92.677
33381DG     BB117010  56.350  46.466  93.173
33381DG     BB217011  56.388  46.209  92.922
33381DG     BB317012  56.560  46.113  92.949
33381DG     SC117013  56.722  46.302  92.770
33381DG     SC217014  56.849  46.231  92.509
33381DG     SC317015  56.934  46.500  92.598
33381DG     SC417016  56.788  46.432  92.835
33382DA     BB117017  56.319  45.873  92.905
33382DA     BB217018  56.517  45.742  92.625
33382DA     BB317019  56.701  45.660  92.697
33382DA     SC117020  56.859  45.927  92.668
33382DA     SC217021  57.040  46.019  92.524
33382DA     SC317022  57.074  46.191  92.712
33382DA     SC417023  56.865  46.023  92.797
33383DC     BB117024  56.693  45.493  92.657
33383DC     BB217025  56.941  45.495  92.395
33383DC     BB317026  57.127  45.448  92.473
33383DC     SC117027  57.150  45.685  92.582
33383DC     SC217028  57.304  45.796  92.480
33383DC     SC317029  57.173  45.872  92.767
33384DA     BB117030  57.048  45.212  92.134
33384DA     BB217031  57.389  45.344  92.106
33384DA     BB317032  57.516  45.251  92.250
33384DA     SC117033  57.465  45.464  92.470
33384DA     SC217034  57.591  45.646  92.584
33384DA     SC317035  57.413  45.627  92.768
33384DA     SC417036  57.346  45.436  92.574
33385DA     BB117037  57.695  45.192  91.979
33385DA     BB217038  57.966  45.380  92.139
33385DA     BB317039  58.055  45.264  92.294
33385DA     SC117040  57.865  45.371  92.516
33385DA     SC217041  57.881  45.519  92.717
33385DA     SC317042  57.664  45.404  92.793
33385DA     SC417043  57.731  45.288  92.547
33386DA     BB117044  58.335  45.326  92.131
33386DA     BB217045  58.456  45.492  92.434
33386DA     BB317046  58.515  45.348  92.579
33386DA     SC117047  58.235  45.333  92.714
33386DA     SC217048  58.131  45.401  92.930
33386DA     SC317049  57.949  45.229  92.872
33386DA     SC417050  58.133  45.221  92.661
33387DT     BB117051  58.713  45.331  92.632
33387DT     BB217052  58.685  45.486  92.956
33387DT     BB317053  58.697  45.342  93.104
33387DT     SC117054  58.453  45.259  93.054
33387DT     SC217055  58.325  45.311  93.218
33387DT     SC317056  58.255  45.100  92.982
33388DT     BB117057  58.944  45.431  93.170
33388DT     BB217058  58.755  45.454  93.477
33388DT     BB317059  58.762  45.273  93.578
33388DT     SC117060  58.593  45.164  93.409
33388DT     SC217061  58.406  45.128  93.508
33388DT     SC317062  58.497  45.003  93.224
33389DT     BB117063  58.923  45.389  93.760
33389DT     BB217064  58.645  45.261  93.952
33389DT     BB317065  58.678  45.063  94.000
33389DT     SC117066  58.624  44.986  93.755
33389DT     SC217067  58.438  44.878  93.753
33389DT     SC317068  58.657  44.883  93.514
33390DA     BB117069  58.579  45.267  94.354
33390DA     BB217070  58.378  44.960  94.340
33390DA     BB317071  58.500  44.789  94.376
33390DA     SC117072  58.568  44.744  94.076
33390DA     SC217073  58.514  44.578  93.898
33390DA     SC317074  58.723  44.669  93.779
33390DA     SC417075  58.701  44.813  94.018
33391DA     BB117076  58.282  44.719  94.615
33391DA     BB217077  58.213  44.404  94.441
33391DA     BB317078  58.368  44.263  94.478
33391DA     SC117079  58.538  44.349  94.232
33391DA     SC217080  58.604  44.253  94.011
33391DA     SC317081  58.795  44.425  94.016
33391DA     SC417082  58.651  44.461  94.254
33392DA     BB117083  58.127  44.061  94.581
33392DA     BB217084  58.225  43.830  94.314
33392DA     BB317085  58.399  43.720  94.371
33392DA     SC117086  58.598  43.925  94.250
33392DA     SC217087  58.757  43.937  94.058
33392DA     SC317088  58.868  44.128  94.188
33392DA     SC417089  58.654  44.041  94.346
33393DT     BB117090  58.391  43.511  94.405
33393DT     BB217091  58.557  43.411  94.101
33393DT     BB317092  58.748  43.343  94.144
33393DT     SC117093  58.834  43.587  94.185
33393DT     SC217094  58.969  43.642  94.027
33393DT     SC317095  58.933  43.798  94.309
33394DA     BB117096  58.562  43.047  93.914
33394DA     BB217097  58.891  43.112  93.766
33394DA     BB317098  59.045  43.027  93.887
33394DA     SC117099  59.085  43.282  94.060
33394DA     SC217100  59.259  43.459  94.091
33394DA     SC317101  59.143  43.504  94.316
33394DA     SC417102  59.000  43.294  94.196
33395DT     BB117103  59.148  42.879  93.807
33395DT     BB217104  59.453  43.061  93.748
33395DT     BB317105  59.594  43.011  93.891
33395DT     SC117106  59.471  43.153  94.074
33395DT     SC217107  59.591  43.325  94.123
33395DT     SC317108  59.340  43.213  94.295
33396DG     BB117109  59.758  42.929  93.527
33396DG     BB217110  59.981  43.131  93.728
33396DG     BB317111  60.072  43.017  93.863
33396DG     SC117112  59.856  43.055  94.077
33396DG     SC217113  59.889  43.200  94.336
33396DG     SC317114  59.629  43.059  94.327
33396DG     SC417115  59.732  42.954  94.080
33397DG     BB117116  60.375  43.096  93.748
33397DG     BB217117  60.444  43.236  94.075
33397DG     BB317118  60.506  43.093  94.198
33397DG     SC117119  60.225  43.021  94.296
33397DG     SC217120  60.119  43.062  94.572
33397DG     SC317121  59.930  42.902  94.410
33397DG     SC417122  60.140  42.911  94.215
33398DA     BB117123  60.805  43.264  94.288
33398DA     BB217124  60.706  43.269  94.641
33398DA     BB317125  60.751  43.082  94.733
33398DA     SC117126  60.473  42.957  94.669
33398DA     SC217127  60.269  42.888  94.795
33398DA     SC317128  60.216  42.744  94.589
33398DA     SC417129  60.459  42.874  94.533
33399DA     BB117130  60.948  43.224  94.975
33399DA     BB217131  60.711  43.103  95.227
33399DA     BB317132  60.756  42.901  95.281
33399DA     SC117133  60.570  42.776  95.065
33399DA     SC217134  60.356  42.649  95.056
33399DA     SC317135  60.432  42.576  94.823
33399DA     SC417136  60.636  42.741  94.922
33400DT     BB117137  60.842  42.813  95.493
33400DT     BB217138  60.525  42.681  95.603
33400DT     BB317139  60.534  42.474  95.613
33400DT     SC117140  60.522  42.454  95.352
33400DT     SC217141  60.333  42.369  95.295
33400DT     SC317142  60.593  42.398  95.104
33401DA     BB117143  60.399  42.597  95.990
33401DA     BB217144  60.163  42.347  95.863
33401DA     BB317145  60.247  42.151  95.879
33401DA     SC117146  60.376  42.156  95.596
33401DA     SC217147  60.342  42.044  95.376
33401DA     SC317148  60.583  42.114  95.326
33401DA     SC417149  60.528  42.208  95.584
33402DA     BB117150  59.962  42.117  96.032
33402DA     BB217151  59.877  41.877  95.768
33402DA     BB317152  59.983  41.694  95.797
33402DA     SC117153  60.227  41.780  95.625
33402DA     SC217154  60.329  41.719  95.405
33402DA     SC317155  60.543  41.826  95.497
33402DA     SC417156  60.351  41.850  95.700
33403DT     BB117157  59.867  41.555  95.830
33403DT     BB217158  59.895  41.400  95.505
33403DT     BB317159  60.027  41.241  95.514
33403DT     SC117160  60.234  41.402  95.524
33403DT     SC217161  60.344  41.388  95.340
33403DT     SC317162  60.449  41.524  95.615
33404DG     BB117163  59.664  41.121  95.371
33404DG     BB217164  59.934  41.030  95.149
33404DG     BB317165  60.034  40.875  95.224
33404DG     SC117166  60.232  41.048  95.381
33404DG     SC217167  60.525  41.072  95.328
33404DG     SC317168  60.453  41.205  95.582
33404DG     SC417169  60.195  41.092  95.531
33405DT     BB117170  60.036  40.707  95.106
33405DT     BB217171  60.372  40.711  94.977
33405DT     BB317172  60.492  40.582  95.087
33405DT     SC117173  60.501  40.750  95.289
33405DT     SC217174  60.699  40.831  95.306
33405DT     SC317175  60.467  40.849  95.531
33406DG     BB117176  60.501  40.495  94.689
33406DG     BB217177  60.832  40.542  94.826
33406DG     BB317178  60.883  40.385  94.937
33406DG     SC117179  60.767  40.499  95.196
33406DG     SC217180  60.923  40.581  95.437
33406DG     SC317181  60.632  40.584  95.494
33406DG     SC417182  60.613  40.471  95.231
33407DT     BB117183  61.047  40.294  94.871
33407DT     BB217184  61.292  40.393  95.117
33407DT     BB317185  61.312  40.244  95.259
33407DT     SC117186  61.083  40.309  95.370
33407DT     SC217187  61.120  40.397  95.563
33407DT     SC317188  60.834  40.289  95.454
33408DG     BB117189  61.661  40.363  95.083
33408DG     BB217190  61.677  40.375  95.444
33408DG     BB317191  61.682  40.190  95.518
33408DG     SC117192  61.378  40.164  95.539
33408DG     SC217193  61.221  40.143  95.793
33408DG     SC317194  61.048  40.094  95.557
33408DG     SC417195  61.296  40.109  95.413
33409DT     BB117196  61.838  40.177  95.619
33409DT     BB217197  61.715  40.161  95.958
33409DT     BB317198  61.681  39.964  96.012
33409DT     SC117199  61.463  39.954  95.866
33409DT     SC217200  61.291  39.942  95.995
33409DT     SC317201  61.294  39.881  95.676
33410DA     BB117202  61.896  40.183  96.304
33410DA     BB217203  61.633  39.988  96.469
33410DA     BB317204  61.673  39.779  96.451
33410DA     SC117205  61.513  39.748  96.186
33410DA     SC217206  61.302  39.640  96.109
33410DA     SC317207  61.404  39.653  95.874
33410DA     SC417208  61.594  39.764  96.048
33411DG     BB117209  61.674  39.789  96.763
33411DG     BB217210  61.400  39.556  96.728
33411DG     BB317211  61.470  39.374  96.689
33411DG     SC117212  61.468  39.411  96.385
33411DG     SC217213  61.293  39.266  96.192
33411DG     SC317214  61.498  39.425  96.049
33411DG     SC417215  61.597  39.474  96.313
33412DA     BB117216  61.293  39.225  96.959
33412DA     BB217217  61.121  38.997  96.730
33412DA     BB317218  61.250  38.836  96.675
33412DA     SC117219  61.365  38.981  96.425
33412DA     SC217220  61.352  38.960  96.177
33412DA     SC317221  61.568  39.098  96.174
33412DA     SC417222  61.499  39.067  96.444
33413DA     BB117223  61.027  38.604  96.785
33413DA     BB217224  61.004  38.476  96.442
33413DA     BB317225  61.167  38.344  96.401
33413DA     SC117226  61.354  38.568  96.293
33413DA     SC217227  61.451  38.637  96.074
33413DA     SC317228  61.624  38.765  96.215
33413DA     SC417229  61.453  38.639  96.398
33414DA     BB117230  60.955  38.093  96.318
33414DA     BB217231  61.092  38.106  95.978
33414DA     BB317232  61.272  37.992  95.966
33414DA     SC117233  61.457  38.231  96.037
33414DA     SC217234  61.626  38.374  95.922
33414DA     SC317235  61.709  38.430  96.158
33414DA     SC417236  61.495  38.253  96.192
33415DC     BB117237  61.297  37.800  95.847
33415DC     BB217238  61.479  37.953  95.576
33415DC     BB317239  61.676  37.888  95.577
33415DC     SC117240  61.733  38.040  95.783
33415DC     SC217241  61.863  38.199  95.721
33415DC     SC317242  61.805  38.110  96.027
33416DA     BB117243  61.523  37.827  95.193
33416DA     BB217244  61.836  38.016  95.162
33416DA     BB317245  62.003  37.889  95.197
33416DA     SC117246  62.013  37.946  95.503
33416DA     SC217247  62.162  38.064  95.664
33416DA     SC317248  62.048  37.921  95.844
33416DA     SC417249  61.931  37.846  95.600
33417DT     BB117250  62.110  37.872  95.046
33417DT     BB217251  62.375  38.088  95.160
33417DT     BB317252  62.534  37.975  95.230
33417DT     SC117253  62.404  37.914  95.450
33417DT     SC217254  62.496  38.013  95.617
33417DT     SC317255  62.282  37.771  95.635
33418DC     BB117256  62.641  38.079  95.019
33418DC     BB217257  62.845  38.185  95.298
33418DC     BB317258  62.971  38.031  95.355
33418DC     SC117259  62.774  37.901  95.469
33418DC     SC217260  62.800  37.903  95.682
33418DC     SC317261  62.598  37.711  95.518
33419DG     BB117262  63.161  38.385  95.277
33419DG     BB217263  63.251  38.248  95.600
33419DG     BB317264  63.368  38.090  95.577
33419DG     SC117265  63.136  37.890  95.565
33419DG     SC217266  63.076  37.679  95.767
33419DG     SC317267  62.907  37.646  95.527
33419DG     SC417268  63.069  37.858  95.423
33420DC     BB117269  63.538  38.118  95.664
33420DC     BB217270  63.523  37.892  95.946
33420DC     BB317271  63.607  37.710  95.895
33420DC     SC117272  63.397  37.644  95.751
33420DC     SC217273  63.291  37.485  95.848
33420DC     SC317274  63.250  37.581  95.542
33421DG     BB117275  63.806  37.852  96.221
33421DG     BB217276  63.701  37.510  96.269
33421DG     BB317277  63.821  37.387  96.168
33421DG     SC117278  63.653  37.395  95.912
33421DG     SC217279  63.501  37.166  95.795
33421DG     SC317280  63.505  37.396  95.609
33421DG     SC417281  63.683  37.508  95.804
33422DC     BB117282  63.949  37.236  96.270
33422DC     BB217283  63.781  36.927  96.189
33422DC     BB317284  63.884  36.828  96.039
33422DC     SC117285  63.796  36.996  95.858
33422DC     SC217286  63.657  36.894  95.728
33422DC     SC317287  63.796  37.181  95.670
33423DC     BB117288  63.983  36.638  96.213
33423DC     BB217289  63.818  36.444  95.957
33423DC     BB317290  63.951  36.404  95.803
33423DC     SC117291  63.934  36.651  95.715
33423DC     SC217292  63.830  36.652  95.526
33423DC     SC317293  64.005  36.896  95.648
33424DC     BB117294  63.979  36.138  95.875
33424DC     BB217295  63.876  36.124  95.529
33424DC     BB317296  64.042  36.131  95.406
33424DC     SC117297  64.075  36.387  95.450
33424DC     SC217298  64.029  36.497  95.271
33424DC     SC317299  64.185  36.613  95.531
33425DC     BB117300  64.027  35.861  95.338
33425DC     BB217301  64.023  36.029  95.019
33425DC     BB317302  64.217  36.055  94.951
33425DC     SC117303  64.260  36.249  95.123
33425DC     SC217304  64.277  36.436  95.018
33425DC     SC317305  64.365  36.382  95.325
33426DT     BB117306  64.201  35.856  94.754
33426DT     BB217307  64.300  36.149  94.570
33426DT     BB317308  64.507  36.162  94.564
33426DT     SC117309  64.517  36.240  94.814
33426DT     SC217310  64.578  36.446  94.822
33426DT     SC317311  64.572  36.240  95.072
33427DT     BB117312  64.543  36.080  94.291
33427DT     BB217313  64.709  36.399  94.304
33427DT     BB317314  64.909  36.373  94.348
33427DT     SC117315  64.855  36.321  94.600
33427DT     SC217316  64.925  36.483  94.723
33427DT     SC317317  64.837  36.189  94.828
33428DG     BB117318  64.946  36.550  93.977
33428DG     BB217319  65.143  36.730  94.222
33428DG     BB317320  65.320  36.642  94.244
33428DG     SC117321  65.226  36.454  94.467
33428DG     SC217322  65.316  36.461  94.752
33428DG     SC317323  65.153  36.220  94.699
33428DG     SC417324  65.164  36.312  94.428
33429DA     BB117325  65.506  36.937  94.176
33429DA     BB217326  65.643  36.934  94.516
33429DA     BB317327  65.814  36.807  94.526
33429DA     SC117328  65.651  36.553  94.603
33429DA     SC217329  65.621  36.407  94.803
33429DA     SC317330  65.534  36.232  94.636
33429DA     SC417331  65.601  36.458  94.484
33430DA     BB117332  65.961  37.075  94.643
33430DA     BB217333  65.996  36.894  94.959
33430DA     BB317334  66.162  36.760  94.950
33430DA     SC117335  65.995  36.520  94.845
33430DA     SC217336  65.916  36.299  94.929
33430DA     SC317337  65.887  36.238  94.682
33430DA     SC417338  65.985  36.501  94.685
33431DA     BB117339  66.210  36.936  95.216
33431DA     BB217340  66.176  36.620  95.399
33431DA     BB317341  66.350  36.499  95.372
33431DA     SC117342  66.240  36.352  95.121
33431DA     SC217343  66.161  36.123  95.061
33431DA     SC317344  66.206  36.194  94.819
33431DA     SC417345  66.275  36.414  94.977
33432DT     BB117346  66.409  36.485  95.530
33432DT     BB217347  66.309  36.142  95.581
33432DT     BB317348  66.465  36.015  95.531
33432DT     SC117349  66.426  36.054  95.275
33432DT     SC217350  66.348  35.874  95.186
33432DT     SC317351  66.470  36.128  95.025
33433DG     BB117352  66.299  35.961  95.901
33433DG     BB217353  66.315  35.654  95.711
33433DG     BB317354  66.504  35.594  95.696
33433DG     SC117355  66.559  35.749  95.438
33433DG     SC217356  66.614  35.629  95.170
33433DG     SC317357  66.660  35.921  95.166
33433DG     SC417358  66.611  35.900  95.447
33434DC     BB117359  66.526  35.417  95.774
33434DC     BB217360  66.581  35.208  95.485
33434DC     BB317361  66.784  35.187  95.450
33434DC     SC117362  66.800  35.431  95.354
33434DC     SC217363  66.837  35.422  95.143
33434DC     SC317364  66.869  35.684  95.330
33435DT     BB117365  66.754  34.937  95.533
33435DT     BB217366  66.905  34.910  95.206
33435DT     BB317367  67.110  34.936  95.221
33435DT     SC117368  67.083  35.194  95.256
33435DT     SC217369  67.157  35.298  95.082
33435DT     SC317370  67.093  35.432  95.370
33436DC     BB117371  67.150  34.671  95.176
33436DC     BB217372  67.349  34.834  94.924
33436DC     BB317373  67.535  34.881  95.000
33436DC     SC117374  67.438  35.079  95.140
33436DC     SC217375  67.506  35.266  95.058
33436DC     SC317376  67.369  35.226  95.349
33437DC     BB117377  67.665  34.679  94.858
33437DC     BB217378  67.841  34.979  94.764
33437DC     BB317379  67.997  35.014  94.896
33437DC     SC117380  67.831  35.096  95.082
33437DC     SC217381  67.856  35.307  95.112
33437DC     SC317382  67.699  35.104  95.310
33438DA     BB117383  68.179  35.019  94.517
33438DA     BB217384  68.287  35.321  94.696
33438DA     BB317385  68.433  35.271  94.843
33438DA     SC117386  68.224  35.227  95.070
33438DA     SC217387  68.155  35.339  95.281
33438DA     SC317388  68.053  35.112  95.344
33438DA     SC417389  68.169  35.077  95.091
33439DA     BB117390  68.607  35.501  94.685
33439DA     BB217391  68.605  35.691  94.999
33439DA     BB317392  68.745  35.607  95.136
33439DA     SC117393  68.540  35.414  95.267
33439DA     SC217394  68.421  35.390  95.485
33439DA     SC317395  68.385  35.146  95.415
33439DA     SC417396  68.528  35.265  95.206
33440DC     BB117397  68.897  35.721  95.183
33440DC     BB217398  68.783  35.809  95.514
33440DC     BB317399  68.888  35.701  95.656
33440DC     SC117400  68.753  35.482  95.600
33440DC     SC217401  68.624  35.434  95.765
33440DC     SC317402  68.701  35.237  95.519
33441DA     BB117403  68.900  36.106  95.758
33441DA     BB217404  68.801  35.917  96.056
33441DA     BB317405  68.968  35.809  96.134
33441DA     SC117406  68.911  35.553  95.967
33441DA     SC217407  68.834  35.319  96.008
33441DA     SC317408  68.940  35.266  95.781
33441DA     SC417409  68.984  35.540  95.825
33442DT     BB117410  69.020  35.868  96.304
33442DT     BB217411  68.896  35.585  96.491
33442DT     BB317412  69.052  35.457  96.536
33442DT     SC117413  69.061  35.369  96.288
33442DT     SC217414  68.992  35.165  96.282
33442DT     SC317415  69.152  35.319  96.046
33443DA     BB117416  68.835  35.539  96.886
33443DA     BB217417  68.887  35.176  96.866
33443DA     BB317418  69.092  35.129  96.903
33443DA     SC117419  69.175  35.145  96.604
33443DA     SC217420  69.246  34.988  96.423
33443DA     SC317421  69.343  35.197  96.309
33443DA     SC417422  69.229  35.286  96.549
33444DC     BB117423  69.134  35.027  97.068
33444DC     BB217424  69.214  34.712  96.912
33444DC     BB317425  69.419  34.686  96.907
33444DC     SC117426  69.444  34.860  96.712
33444DC     SC217427  69.501  34.757  96.531
33444DC     SC317428  69.516  35.077  96.581
33445DG     BB117429  69.287  34.363  97.122
33445DG     BB217430  69.507  34.258  96.855
33445DG     BB317431  69.697  34.286  96.909
33445DG     SC117432  69.712  34.571  96.799
33445DG     SC217433  69.878  34.662  96.567
33445DG     SC317434  69.757  34.893  96.707
33445DG     SC417435  69.670  34.693  96.893
33446DA     BB117436  69.794  33.948  96.845
33446DA     BB217437  70.039  34.057  96.595
33446DA     BB317438  70.219  34.121  96.690
33446DA     SC117439  70.130  34.418  96.715
33446DA     SC217440  70.192  34.638  96.615
33446DA     SC317441  70.078  34.740  96.821
33446DA     SC417442  70.057  34.462  96.851
33447DA     BB117443  70.398  33.898  96.509
33447DA     BB217444  70.573  34.181  96.356
33447DA     BB317445  70.732  34.247  96.482
33447DA     SC117446  70.557  34.454  96.635
33447DA     SC217447  70.537  34.702  96.653
33447DA     SC317448  70.416  34.656  96.874
33447DA     SC417449  70.485  34.405  96.770
33448DG     BB117450  70.955  34.176  96.262
33448DG     BB217451  70.999  34.535  96.251
33448DG     BB317452  71.137  34.591  96.383
33448DG     SC117453  70.938  34.629  96.612
33448DG     SC217454  70.867  34.889  96.741
33448DG     SC317455  70.750  34.663  96.891
33448DG     SC417456  70.902  34.505  96.706
33449DT     BB117457  71.341  34.694  96.326
33449DT     BB217458  71.260  35.035  96.410
33449DT     BB317459  71.363  35.093  96.579
33449DT     SC117460  71.205  34.952  96.734
33449DT     SC217461  71.084  35.084  96.852
33449DT     SC317462  71.124  34.767  96.904
33450DT     BB117463  71.497  35.249  96.414
33450DT     BB217464  71.338  35.471  96.650
33450DT     BB317465  71.453  35.486  96.821
33450DT     SC117466  71.380  35.247  96.901
33450DT     SC217467  71.253  35.266  97.074
33450DT     SC317468  71.395  34.993  96.971
33451DT     BB117469  71.479  35.727  96.727
33451DT     BB217470  71.330  35.763  97.054
33451DT     BB317471  71.476  35.749  97.200
33451DT     SC117472  71.493  35.489  97.168
33451DT     SC217473  71.414  35.391  97.342
33451DT     SC317474  71.595  35.252  97.112
33452DT     BB117475  71.399  35.994  97.218
33452DT     BB217476  71.345  35.847  97.543
33452DT     BB317477  71.524  35.831  97.644
33452DT     SC117478  71.599  35.628  97.496
33452DT     SC217479  71.600  35.449  97.616
33452DT     SC317480  71.737  35.483  97.324
33453DG     BB117481  71.233  36.027  97.853
33453DG     BB217482  71.388  35.765  98.047
33453DG     BB317483  71.572  35.819  98.100
33453DG     SC117484  71.705  35.702  97.851
33453DG     SC217485  71.893  35.471  97.845
33453DG     SC317486  71.881  35.604  97.581
33453DG     SC417487  71.719  35.794  97.720
33454DT     BB117488  71.599  35.828  98.298
33454DT     BB217489  71.814  35.546  98.364
33454DT     BB317490  72.012  35.608  98.370
33454DT     SC117491  72.020  35.633  98.108
33454DT     SC217492  72.147  35.480  98.026
33454DT     SC317493  72.041  35.744  97.870
33455DC     BB117494  72.007  35.570  98.635
33455DC     BB217495  72.289  35.376  98.521
33455DC     BB317496  72.457  35.496  98.506
33455DC     SC117497  72.366  35.608  98.287
33455DC     SC217498  72.486  35.545  98.120
33455DC     SC317499  72.276  35.792  98.121
33456DT     BB117500  72.567  35.384  98.730
33456DT     BB217501  72.823  35.345  98.478
33456DT     BB317502  72.942  35.514  98.471
33456DT     SC117503  72.754  35.651  98.349
33456DT     SC217504  72.815  35.691  98.147
33456DT     SC317505  72.572  35.836  98.304
33457DT     BB117506  73.160  35.394  98.599
33457DT     BB217507  73.302  35.525  98.294
33457DT     BB317508  73.369  35.718  98.324
33457DT     SC117509  73.123  35.811  98.323
33457DT     SC217510  73.092  35.928  98.145
33457DT     SC317511  72.901  35.925  98.407
33458DA     BB117512  73.717  35.534  98.175
33458DA     BB217513  73.673  35.845  97.987
33458DA     BB317514  73.734  36.012  98.104
33458DA     SC117515  73.452  36.061  98.226
33458DA     SC217516  73.271  36.231  98.210
33458DA     SC317517  73.190  36.136  98.434
33458DA     SC417518  73.419  35.989  98.366
33459DA     BB117519  73.950  36.104  97.862
33459DA     BB217520  73.760  36.415  97.825
33459DA     BB317521  73.820  36.556  97.974
33459DA     SC117522  73.607  36.465  98.181
33459DA     SC217523  73.398  36.555  98.284
33459DA     SC317524  73.438  36.383  98.469
33459DA     SC417525  73.650  36.352  98.287
33460DA     BB117526  73.890  36.774  97.729
33460DA     BB217527  73.627  36.991  97.866
33460DA     BB317528  73.702  37.104  98.031
33460DA     SC117529  73.621  36.892  98.244
33460DA     SC217530  73.455  36.870  98.428
33460DA     SC317531  73.609  36.686  98.518
33460DA     SC417532  73.731  36.782  98.284
33461DT     BB117533  73.730  37.326  98.029
33461DT     BB217534  73.440  37.400  98.230
33461DT     BB317535  73.498  37.469  98.416
33461DT     SC117536  73.568  37.229  98.494
33461DT     SC217537  73.431  37.160  98.644
33461DT     SC317538  73.719  37.028  98.575
33462DG     BB117539  73.266  37.759  98.249
33462DG     BB217540  73.141  37.660  98.574
33462DG     BB317541  73.247  37.749  98.717
33462DG     SC117542  73.455  37.525  98.737
33462DG     SC217543  73.495  37.343  98.971
33462DG     SC317544  73.710  37.308  98.771
33462DG     SC417545  73.584  37.530  98.642
33463DT     BB117546  73.139  37.871  98.842
33463DT     BB217547  73.119  37.668  99.140
33463DT     BB317548  73.259  37.732  99.279
33463DT     SC117549  73.455  37.622  99.142
33463DT     SC217550  73.532  37.453  99.251
33463DT     SC317551  73.675  37.599  99.000
33464DA     BB117552  72.873  37.674  99.436
33464DA     BB217553  73.116  37.508  99.654
33464DA     BB317554  73.238  37.652  99.753
33464DA     SC117555  73.457  37.656  99.532
33464DA     SC217556  73.694  37.582  99.506
33464DA     SC317557  73.702  37.749  99.310
33464DA     SC417558  73.442  37.766  99.415
33465DT     BB117559  73.204  37.632  99.921
33465DT     BB217560  73.520  37.488 100.018
33465DT     BB317561  73.649  37.636 100.083
33465DT     SC117562  73.691  37.717  99.837
33465DT     SC217563  73.893  37.669  99.779
33465DT     SC317564  73.694  37.873  99.623
33466DA     BB117565  73.639  37.319 100.361
33466DA     BB217566  73.988  37.417 100.308
33466DA     BB317567  74.025  37.610 100.391
33466DA     SC117568  73.955  37.763 100.129
33466DA     SC217569  74.076  37.895  99.955
33466DA     SC317570  73.845  37.992  99.898
33466DA     SC417571  73.803  37.812 100.110
33467DA     BB117572  74.273  37.461 100.558
33467DA     BB217573  74.503  37.702 100.403
33467DA     BB317574  74.483  37.893 100.496
33467DA     SC117575  74.264  37.993 100.298
33467DA     SC217576  74.244  38.160 100.114
33467DA     SC317577  73.991  38.144 100.155
33467DA     SC417578  74.111  37.970 100.339
33468DT     BB117579  74.635  38.012 100.644
33468DT     BB217580  74.736  38.267 100.410
33468DT     BB317581  74.661  38.451 100.469
33468DT     SC117582  74.420  38.386 100.389
33468DT     SC217583  74.368  38.503 100.216
33468DT     SC317584  74.162  38.332 100.398
33469DC     BB117585  74.894  38.609 100.610
33469DC     BB217586  74.785  38.845 100.360
33469DC     BB317587  74.657  38.984 100.445
33469DC     SC117588  74.461  38.810 100.456
33469DC     SC217589  74.309  38.865 100.315
33469DC     SC317590  74.276  38.650 100.556
33470DT     BB117591  74.819  39.256 100.496
33470DT     BB217592  74.544  39.362 100.287
33470DT     BB317593  74.397  39.450 100.403
33470DT     SC117594  74.319  39.217 100.495
33470DT     SC217595  74.124  39.171 100.415
33470DT     SC317596  74.269  39.022 100.665
33471DA     BB117597  74.469  39.768 100.135
33471DA     BB217598  74.111  39.693 100.118
33471DA     BB317599  74.008  39.789 100.278
33471DA     SC117600  74.036  39.549 100.473
33471DA     SC217601  73.888  39.377 100.577
33471DA     SC317602  74.076  39.349 100.750
33471DA     SC417603  74.163  39.547 100.571
33472DA     BB117604  73.843  39.895 100.022
33472DA     BB217605  73.560  39.704 100.155
33472DA     BB317606  73.469  39.808 100.317
33472DA     SC117607  73.646  39.674 100.535
33472DA     SC217608  73.618  39.510 100.720
33472DA     SC317609  73.835  39.609 100.813
33472DA     SC417610  73.782  39.750 100.577
33473DT     BB117611  73.304  39.844 100.266
33473DT     BB217612  73.146  39.589 100.466
33473DT     BB317613  73.074  39.672 100.642
33473DT     SC117614  73.315  39.689 100.742
33473DT     SC217615  73.335  39.548 100.904
33473DT     SC317616  73.537  39.794 100.840
33474DA     BB117617  72.813  39.415 100.433
33474DA     BB217618  72.819  39.319 100.786
33474DA     BB317619  72.730  39.471 100.906
33474DA     SC117620  72.998  39.623 100.955
33474DA     SC217621  73.154  39.666 101.145
33474DA     SC317622  73.239  39.863 101.004
33474DA     SC417623  73.036  39.741 100.853
33475DG     BB117624  72.578  39.211 100.960
33475DG     BB217625  72.706  39.269 101.294
33475DG     BB317626  72.607  39.420 101.379
33475DG     SC117627  72.799  39.635 101.276
33475DG     SC217628  72.980  39.803 101.443
33475DG     SC317629  72.977  39.899 101.163
33475DG     SC417630  72.771  39.702 101.132
33476DT     BB117631  72.511  39.368 101.546
33476DT     BB217632  72.705  39.530 101.804
33476DT     BB317633  72.619  39.712 101.853
33476DT     SC117634  72.706  39.821 101.631
33476DT     SC217635  72.860  39.965 101.678
33476DT     SC317636  72.705  39.938 101.395
33477DA     BB117637  72.681  39.498 102.209
33477DA     BB217638  72.802  39.841 102.259
33477DA     BB317639  72.638  39.976 102.272
33477DA     SC117640  72.632  40.036 101.967
33477DA     SC217641  72.684  40.227 101.815
33477DA     SC317642  72.536  40.105 101.644
33477DA     SC417643  72.535  39.945 101.875
33478DT     BB117644  72.597  40.072 102.449
33478DT     BB217645  72.708  40.401 102.351
33478DT     BB317646  72.545  40.523 102.316
33478DT     SC117647  72.495  40.404 102.087
33478DT     SC217648  72.539  40.539 101.926
33478DT     SC317649  72.370  40.263 101.903
33479DG     BB117650  72.748  40.717 102.614
33479DG     BB217651  72.678  40.941 102.339
33479DG     BB317652  72.490  41.005 102.350
33479DG     SC117653  72.375  40.776 102.183
33479DG     SC217654  72.252  40.801 101.912
33479DG     SC317655  72.213  40.529 102.021
33479DG     SC417656  72.330  40.641 102.257
33480DG     BB117657  72.583  41.325 102.369
33480DG     BB217658  72.408  41.374 102.056
33480DG     BB317659  72.215  41.410 102.091
33480DG     SC117660  72.134  41.115 102.082
33480DG     SC217661  71.961  40.986 101.876
33480DG     SC317662  72.013  40.800 102.099
33480DG     SC417663  72.140  41.028 102.217
33481DA     BB117664  72.211  41.713 101.907
33481DA     BB217665  71.960  41.580 101.675
33481DA     BB317666  71.764  41.602 101.758
33481DA     SC117667  71.765  41.324 101.897
33481DA     SC217668  71.650  41.104 101.872
33481DA     SC317669  71.719  41.062 102.115
33481DA     SC417670  71.816  41.317 102.050
33482DG     BB117671  71.677  41.793 101.517
33482DG     BB217672  71.450  41.523 101.436
33482DG     BB317673  71.277  41.549 101.532
33482DG     SC117674  71.363  41.393 101.780
33482DG     SC217675  71.249  41.132 101.871
33482DG     SC317676  71.430  41.245 102.076
33482DG     SC417677  71.437  41.470 101.899
33483DG     BB117678  71.101  41.562 101.249
33483DG     BB217679  70.938  41.259 101.361
33483DG     BB317680  70.779  41.305 101.472
33483DG     SC117681  70.935  41.309 101.736
33483DG     SC217682  70.902  41.118 101.962
33483DG     SC317683  71.078  41.343 102.040
33483DG     SC417684  71.004  41.446 101.783
33484DA     BB117685  70.599  41.097 101.265
33484DA     BB217686  70.512  40.883 101.549
33484DA     BB317687  70.355  40.971 101.663
33484DA     SC117688  70.546  41.126 101.853
33484DA     SC217689  70.615  41.117 102.093
33484DA     SC317690  70.691  41.360 102.059
33484DA     SC417691  70.585  41.277 101.813
33485DG     BB117692  70.220  40.707 101.586
33485DG     BB217693  70.229  40.651 101.943
33485DG     BB317694  70.077  40.745 102.031
33485DG     SC117695  70.231  41.006 102.075
33485DG     SC217696  70.311  41.120 102.339
33485DG     SC317697  70.363  41.313 102.121
33485DG     SC417698  70.230  41.117 101.959
33486DA     BB117699  70.037  40.436 102.172
33486DA     BB217700  70.064  40.587 102.505
33486DA     BB317701  69.888  40.697 102.552
33486DA     SC117702  69.995  40.965 102.435
33486DA     SC217703  70.069  41.187 102.520
33486DA     SC317704  70.027  41.271 102.281
33486DA     SC417705  69.961  40.998 102.281
33487DT     BB117706  69.793  40.624 102.695
33487DT     BB217707  69.864  40.879 102.940
33487DT     BB317708  69.703  41.008 102.956
33487DT     SC117709  69.762  41.123 102.728
33487DT     SC217710  69.832  41.323 102.765
33487DT     SC317711  69.740  41.204 102.478
33488DC     BB117712  69.648  40.899 103.197
33488DC     BB217713  69.668  41.252 103.264
33488DC     BB317714  69.485  41.342 103.229
33488DC     SC117715  69.519  41.326 102.969
33488DC     SC217716  69.548  41.523 102.889
33488DC     SC317717  69.480  41.256 102.718
33489DT     BB117718  69.420  41.372 103.501
33489DT     BB217719  69.374  41.705 103.369
33489DT     BB317720  69.179  41.729 103.305
33489DT     SC117721  69.223  41.583 103.091
33489DT     SC217722  69.218  41.709 102.917
33489DT     SC317723  69.205  41.385 102.918
33490DA     BB117724  69.198  42.054 103.576
33490DA     BB217725  69.046  42.186 103.269
33490DA     BB317726  68.840  42.132 103.259
33490DA     SC117727  68.892  41.866 103.105
33490DA     SC217728  68.852  41.775 102.877
33490DA     SC317729  68.880  41.544 102.986
33490DA     SC417730  68.911  41.733 103.192
33491DT     BB117731  68.644  42.272 103.279
33491DT     BB217732  68.557  42.268 102.929
33491DT     BB317733  68.379  42.165 102.901
33491DT     SC117734  68.498  41.934 102.938
33491DT     SC217735  68.504  41.826 102.752
33491DT     SC317736  68.560  41.702 103.046
33492DT     BB117737  68.206  42.392 102.854
33492DT     BB217738  68.165  42.189 102.558
33492DT     BB317739  68.003  42.062 102.581
33492DT     SC117740  68.137  41.907 102.744
33492DT     SC217741  68.177  41.719 102.648
33492DT     SC317742  68.208  41.780 102.964
33493DA     BB117743  67.936  42.265 102.222
33493DA     BB217744  67.902  41.906 102.155
33493DA     BB317745  67.716  41.834 102.228
33493DA     SC117746  67.827  41.759 102.509
33493DA     SC217747  67.876  41.552 102.639
33493DA     SC317748  67.868  41.704 102.845
33493DA     SC417749  67.817  41.870 102.625
33494DT     BB117750  67.598  41.771 102.092
33494DT     BB217751  67.647  41.419 102.156
33494DT     BB317752  67.484  41.343 102.259
33494DT     SC117753  67.562  41.458 102.482
33494DT     SC217754  67.628  41.308 102.621
33494DT     SC317755  67.562  41.617 102.692
33495DA     BB117756  67.597  41.110 101.929
33495DA     BB217757  67.558  40.891 102.220
33495DA     BB317758  67.352  40.876 102.275
33495DA     SC117759  67.363  41.116 102.472
33495DA     SC217760  67.352  41.153 102.719
33495DA     SC317761  67.291  41.395 102.659
33495DA     SC417762  67.326  41.262 102.415
33496DT     BB117763  67.311  40.710 102.253
33496DT     BB217764  67.281  40.622 102.602
33496DT     BB317765  67.084  40.641 102.663
33496DT     SC117766  67.103  40.903 102.667
33496DT     SC217767  67.096  40.972 102.870
33496DT     SC317768  67.059  41.156 102.606
33497DA     BB117769  67.241  40.268 102.781
33497DA     BB217770  67.060  40.413 103.065
33497DA     BB317771  66.850  40.416 103.026
33497DA     SC117772  66.853  40.699 102.898
33497DA     SC217773  66.772  40.928 102.955
33497DA     SC317774  66.792  40.976 102.703
33497DA     SC417775  66.871  40.709 102.738
33498DC     BB117776  66.724  40.295 103.134
33498DC     BB217777  66.560  40.553 103.326
33498DC     BB317778  66.371  40.588 103.250
33498DC     SC117779  66.469  40.718 103.044
33498DC     SC217780  66.421  40.927 103.062
33498DC     SC317781  66.529  40.778 102.795
33499DT     BB117782  66.210  40.447 103.449
33499DT     BB217783  66.058  40.774 103.442
33499DT     BB317784  65.901  40.776 103.307
33499DT     SC117785  66.066  40.780 103.103
33499DT     SC217786  66.055  40.972 103.006
33499DT     SC317787  66.190  40.704 102.883
33500DT     BB117788  65.652  40.758 103.481
33500DT     BB217789  65.588  41.053 103.284
33500DT     BB317790  65.470  41.005 103.121
33500DT     SC117791  65.672  40.891 102.998
33500DT     SC217792  65.729  41.011 102.828
33500DT     SC317793  65.821  40.705 102.885
33501DT     BB117794  65.208  41.112 103.204
33501DT     BB217795  65.274  41.284 102.894
33501DT     BB317796  65.184  41.184 102.736
33501DT     SC117797  65.366  40.994 102.743
33501DT     SC217798  65.489  41.008 102.567
33501DT     SC317799  65.474  40.756 102.770
33502DC     BB117800  64.986  41.376 102.702
33502DC     BB217801  65.160  41.366 102.386
33502DC     BB317802  65.073  41.226 102.261
33502DC     SC117803  65.179  41.028 102.397
33502DC     SC217804  65.330  40.932 102.277
33502DC     SC317805  65.198  40.812 102.548
33503DA     BB117806  65.110  41.591 102.060
33503DA     BB217807  65.258  41.328 101.851
33503DA     BB317808  65.105  41.205 101.768
33503DA     SC117809  65.107  41.002 102.004
33503DA     SC217810  65.176  40.765 102.044
33503DA     SC317811  65.020  40.776 102.248
33503DA     SC417812  65.005  41.028 102.125
33504DT     BB117813  65.102  41.218 101.585
33504DT     BB217814  65.254  40.897 101.518
33504DT     BB317815  65.108  40.758 101.471
33504DT     SC117816  65.033  40.741 101.722
33504DT     SC217817  65.088  40.548 101.799
33504DT     SC317818  64.882  40.756 101.938
33505DC     BB117819  65.210  40.772 101.229
33505DC     BB217820  65.237  40.425 101.327
33505DC     BB317821  65.056  40.329 101.296
33505DC     SC117822  64.950  40.445 101.506
33505DC     SC217823  64.918  40.298 101.660
33505DC     SC317824  64.790  40.596 101.652
33506DT     BB117825  65.178  40.202 101.097
33506DT     BB217826  65.059  39.942 101.317
33506DT     BB317827  64.861  39.901 101.277
33506DT     SC117828  64.783  40.122 101.394
33506DT     SC217829  64.680  40.073 101.577
33506DT     SC317830  64.677  40.362 101.428
33507DT     BB117831  64.944  39.670 101.174
33507DT     BB217832  64.713  39.580 101.437
33507DT     BB317833  64.519  39.588 101.366
33507DT     SC117834  64.519  39.850 101.370
33507DT     SC217835  64.387  39.919 101.525
33507DT     SC317836  64.509  40.100 101.285
33508DT     BB117837  64.519  39.323 101.383
33508DT     BB217838  64.248  39.431 101.594
33508DT     BB317839  64.078  39.464 101.480
33508DT     SC117840  64.176  39.688 101.384
33508DT     SC217841  64.064  39.854 101.463
33508DT     SC317842  64.268  39.864 101.211
33509DA     BB117843  64.002  39.227 101.818
33509DA     BB217844  63.755  39.497 101.805
33509DA     BB317845  63.621  39.468 101.642
33509DA     SC117846  63.792  39.631 101.440
33509DA     SC217847  63.777  39.848 101.318
33509DA     SC317848  63.951  39.747 101.158
33509DA     SC417849  63.899  39.550 101.351
33510DC     BB117850  63.477  39.453 101.722
33510DC     BB217851  63.340  39.773 101.626
33510DC     BB317852  63.235  39.755 101.449
33510DC     SC117853  63.456  39.737 101.309
33510DC     SC217854  63.480  39.915 101.191
33510DC     SC317855  63.643  39.638 101.152
33511DT     BB117856  63.043  39.805 101.615
33511DT     BB217857  63.023  40.060 101.360
33511DT     BB317858  62.935  39.983 101.190
33511DT     SC117859  63.152  39.849 101.128
33511DT     SC217860  63.241  39.937 100.952
33511DT     SC317861  63.313  39.647 101.078
33512DG     BB117862  62.745  40.319 101.323
33512DG     BB217863  62.823  40.337 100.970
33512DG     BB317864  62.702  40.217 100.868
33512DG     SC117865  62.886  39.973 100.889
33512DG     SC217866  63.030  39.842 100.663
33512DG     SC317867  63.053  39.681 100.910
33512DG     SC417868  62.871  39.876 101.015
33513DA     BB117869  62.646  40.498 100.671
33513DA     BB217870  62.755  40.311 100.375
33513DA     BB317871  62.607  40.167 100.320
33513DA     SC117872  62.728  39.939 100.494
33513DA     SC217873  62.846  39.723 100.458
33513DA     SC317874  62.773  39.667 100.697
33513DA     SC417875  62.672  39.922 100.643
33514DA     BB117876  62.632  40.318 100.027
33514DA     BB217877  62.730  39.993  99.888
33514DA     BB317878  62.560  39.865  99.871
33514DA     SC117879  62.595  39.741 100.154
33514DA     SC217880  62.659  39.522 100.253
33514DA     SC317881  62.543  39.606 100.466
33514DA     SC417882  62.516  39.811 100.276
33515DA     BB117883  62.653  39.838  99.554
33515DA     BB217884  62.689  39.478  99.613
33515DA     BB317885  62.498  39.384  99.618
33515DA     SC117886  62.463  39.418  99.925
33515DA     SC217887  62.459  39.273 100.128
33515DA     SC317888  62.336  39.468 100.241
33515DA     SC417889  62.386  39.550  99.977
33516DA     BB117890  62.621  39.185  99.382
33516DA     BB217891  62.567  38.905  99.612
33516DA     BB317892  62.361  38.850  99.616
33516DA     SC117893  62.290  39.041  99.852
33516DA     SC217894  62.225  39.022 100.092
33516DA     SC317895  62.135  39.261 100.065
33516DA     SC417896  62.239  39.189  99.815
33517DC     BB117897  62.291  38.664  99.540
33517DC     BB217898  62.229  38.508  99.859
33517DC     BB317899  62.025  38.496  99.893
33517DC     SC117900  62.010  38.752  99.946
33517DC     SC217901  61.969  38.780 100.155
33517DC     SC317902  61.943  39.007  99.924
33518DA     BB117903  62.162  38.102  99.945
33518DA     BB217904  61.955  38.186 100.236
33518DA     BB317905  61.748  38.182 100.184
33518DA     SC117906  61.739  38.483 100.105
33518DA     SC217907  61.638  38.694 100.193
33518DA     SC317908  61.670  38.784  99.955
33518DA     SC417909  61.765  38.520  99.951
33519DG     BB117910  61.709  37.952 100.396
33519DG     BB217911  61.507  38.200 100.564
33519DG     BB317912  61.321  38.197 100.493
33519DG     SC117913  61.376  38.401 100.272
33519DG     SC217914  61.261  38.676 100.256
33519DG     SC317915  61.406  38.608 100.007
33519DG     SC417916  61.429  38.350 100.130
33520DT     BB117917  61.135  38.142 100.619
33520DT     BB217918  60.993  38.470 100.671
33520DT     BB317919  60.824  38.493 100.554
33520DT     SC117920  60.969  38.522 100.337
33520DT     SC217921  60.955  38.725 100.268
33520DT     SC317922  61.070  38.474 100.098
33521DT     BB117923  60.658  38.476 100.773
33521DT     BB217924  60.582  38.797 100.626
33521DT     BB317925  60.433  38.777 100.484
33521DT     SC117926  60.600  38.668 100.313
33521DT     SC217927  60.634  38.804 100.150
33521DT     SC317928  60.710  38.489 100.154
33522DC     BB117929  60.272  38.905 100.654
33522DC     BB217930  60.271  39.106 100.355
33522DC     BB317931  60.130  39.033 100.221
33522DC     SC117932  60.283  38.829 100.159
33522DC     SC217933  60.355  38.853  99.957
33522DC     SC317934  60.367  38.581 100.133
33523DA     BB117935  60.090  39.447 100.274
33523DA     BB217936  60.091  39.376  99.915
33523DA     BB317937  59.910  39.278  99.858
33523DA     SC117938  60.022  38.992  99.903
33523DA     SC217939  60.087  38.795  99.764
33523DA     SC317940  60.061  38.659  99.980
33523DA     SC417941  60.000  38.925 100.047
33524DA     BB117942  59.939  39.529  99.649
33524DA     BB217943  59.934  39.276  99.384
33524DA     BB317944  59.740  39.189  99.368
33524DA     SC117945  59.801  38.959  99.569
33524DA     SC217946  59.833  38.712  99.563
33524DA     SC317947  59.780  38.719  99.814
33524DA     SC417948  59.764  38.984  99.724
33525DA     BB117949  59.792  39.279  99.056
33525DA     BB217950  59.747  38.926  98.968
33525DA     BB317951  59.542  38.870  98.986
33525DA     SC117952  59.568  38.780  99.283
33525DA     SC217953  59.563  38.567  99.412
33525DA     SC317954  59.513  38.716  99.616
33525DA     SC417955  59.537  38.890  99.397
33526DA     BB117956  59.573  38.768  98.671
33526DA     BB217957  59.482  38.432  98.787
33526DA     BB317958  59.272  38.421  98.823
33526DA     SC117959  59.294  38.505  99.122
33526DA     SC217960  59.264  38.399  99.346
33526DA     SC317961  59.240  38.639  99.433
33526DA     SC417962  59.280  38.661  99.156
33527DT     BB117963  59.120  38.302  98.701
33527DT     BB217964  59.065  38.041  98.945
33527DT     BB317965  58.875  38.058  99.025
33527DT     SC117966  58.947  38.265  99.170
33527DT     SC217967  58.950  38.209  99.378
33527DT     SC317968  58.957  38.512  99.263
33528DA     BB117969  58.860  37.660  98.885
33528DA     BB217970  58.746  37.654  99.233
33528DA     BB317971  58.544  37.720  99.247
33528DA     SC117972  58.618  38.019  99.288
33528DA     SC217973  58.609  38.188  99.472
33528DA     SC317974  58.626  38.363  99.284
33528DA     SC417975  58.628  38.112  99.157
33529DA     BB117976  58.471  37.432  99.398
33529DA     BB217977  58.388  37.628  99.697
33529DA     BB317978  58.190  37.705  99.683
33529DA     SC117979  58.277  37.971  99.547
33529DA     SC217980  58.289  38.213  99.606
33529DA     SC317981  58.294  38.254  99.353
33529DA     SC417982  58.278  37.976  99.386
33530DA     BB117983  58.164  37.553  99.969
33530DA     BB217984  58.112  37.884 100.116
33530DA     BB317985  57.912  37.950 100.081
33530DA     SC117986  57.981  38.094  99.814
33530DA     SC217987  57.996  38.327  99.728
33530DA     SC317988  57.974  38.222  99.495
33530DA     SC417989  57.965  38.009  99.678
33531DG     BB117990  57.935  37.949 100.385
33531DG     BB217991  57.902  38.306 100.336
33531DG     BB317992  57.711  38.353 100.303
33531DG     SC117993  57.730  38.320  99.999
33531DG     SC217994  57.704  38.538  99.797
33531DG     SC317995  57.709  38.273  99.666
33531DG     SC417996  57.703  38.176  99.935
33532DA     BB117997  57.805  38.576 100.544
33532DA     BB217998  57.713  38.848 100.316
33532DA     BB317999  57.501  38.855 100.291
33532DA     SC118000  57.498  38.664 100.046
33532DA     SC218001  57.454  38.679  99.801
33532DA     SC318002  57.417  38.426  99.813
33532DA     SC418003  57.478  38.507 100.074
33533DA     BB118004  57.609  39.155 100.366
33533DA     BB218005  57.459  39.256 100.047
33533DA     BB318006  57.247  39.239 100.056
33533DA     SC118007  57.241  38.946  99.953
33533DA     SC218008  57.168  38.824  99.748
33533DA     SC318009  57.164  38.616  99.898
33533DA     SC418010  57.243  38.828 100.063
33534DT     BB118011  57.173  39.402 100.039
33534DT     BB218012  57.041  39.359  99.706
33534DT     BB318013  56.841  39.305  99.716
33534DT     SC118014  56.903  39.061  99.790
33534DT     SC218015  56.856  38.924  99.631
33534DT     SC318016  56.920  38.844  99.939
33535DT     BB118017  56.791  39.548  99.622
33535DT     BB218018  56.633  39.323  99.389
33535DT     BB318019  56.447  39.266  99.461
33535DT     SC118020  56.556  39.105  99.638
33535DT     SC218021  56.515  38.901  99.583
33535DT     SC318022  56.625  39.003  99.871
33536DT     BB118023  56.338  39.418  99.270
33536DT     BB218024  56.198  39.089  99.218
33536DT     BB318025  56.034  39.062  99.341
33536DT     SC118026  56.188  39.031  99.552
33536DT     SC218027  56.179  38.827  99.617
33536DT     SC318028  56.298  39.075  99.787
33537DC     BB118029  55.875  39.080  99.125
33537DC     BB218030  55.792  38.762  99.274
33537DC     BB318031  55.650  38.788  99.422
33537DC     SC118032  55.829  38.888  99.586
33537DC     SC218033  55.864  38.750  99.747
33537DC     SC318034  55.954  39.061  99.741
33538DT     BB118035  55.469  38.672  99.261
33538DT     BB218036  55.462  38.475  99.563
33538DT     BB318037  55.335  38.561  99.701
33538DT     SC118038  55.509  38.750  99.755
33538DT     SC218039  55.587  38.722  99.953
33538DT     SC318040  55.617  38.990  99.774
33539DT     BB118041  55.160  38.361  99.659
33539DT     BB218042  55.221  38.354 100.014
33539DT     BB318043  55.096  38.488 100.110
33539DT     SC118044  55.239  38.692 100.027
33539DT     SC218045  55.341  38.781 100.194
33539DT     SC318046  55.303  38.915  99.901
33540DC     BB118047  54.951  38.283 100.210
33540DC     BB218048  55.052  38.471 100.501
33540DC     BB318049  54.917  38.625 100.536
33540DC     SC118050  55.013  38.764 100.335
33540DC     SC218051  55.117  38.937 100.411
33540DC     SC318052  55.025  38.891 100.104
33541DT     BB118053  54.805  38.498 100.755
33541DT     BB218054  54.910  38.819 100.883
33541DT     BB318055  54.758  38.958 100.858
33541DT     SC118056  54.806  38.975 100.601
33541DT     SC218057  54.890  39.168 100.556
33541DT     SC318058  54.770  38.959 100.340
33542DA     BB118059  54.861  38.977 101.264
33542DA     BB218060  54.859  39.320 101.133
33542DA     BB318061  54.659  39.387 101.105
33542DA     SC118062  54.641  39.287 100.811
33542DA     SC218063  54.630  39.387 100.582
33542DA     SC318064  54.536  39.160 100.510
33542DA     SC418065  54.583  39.140 100.786
33543DG     BB118066  54.742  39.605 101.309
33543DG     BB218067  54.692  39.824 101.025
33543DG     BB318068  54.499  39.866 101.006
33543DG     SC118069  54.439  39.628 100.824
33543DG     SC218070  54.359  39.642 100.536
33543DG     SC318071  54.334  39.366 100.639
33543DG     SC418072  54.399  39.488 100.890
33544DG     BB118073  54.590  40.178 101.030
33544DG     BB218074  54.461  40.214 100.694
33544DG     BB318075  54.263  40.235 100.699
33544DG     SC118076  54.206  39.935 100.681
33544DG     SC218077  54.075  39.796 100.452
33544DG     SC318078  54.107  39.613 100.682
33544DG     SC418079  54.197  39.849 100.816
33545DT     BB118080  54.190  40.412 100.622
33545DT     BB218081  54.044  40.304 100.310
33545DT     BB318082  53.840  40.280 100.332
33545DT     SC118083  53.873  40.056 100.466
33545DT     SC218084  53.805  39.891 100.346
33545DT     SC318085  53.867  39.883 100.664
33546DT     BB118086  53.815  40.497 100.181
33546DT     BB218087  53.624  40.243 100.011
33546DT     BB318088  53.435  40.229 100.094
33546DT     SC118089  53.529  40.105 100.306
33546DT     SC218090  53.462  39.900 100.304
33546DT     SC318091  53.591  40.055 100.557
33547DT     BB118092  53.327  40.347  99.875
33547DT     BB218093  53.145  40.038  99.907
33547DT     BB318094  52.986  40.062 100.037
33547DT     SC118095  53.145  40.062 100.245
33547DT     SC218096  53.114  39.882 100.359
33547DT     SC318097  53.272  40.147 100.460
33548DA     BB118098  52.797  39.910  99.691
33548DA     BB218099  52.674  39.716  99.977
33548DA     BB318100  52.532  39.829 100.088
33548DA     SC118101  52.743  39.953 100.279
33548DA     SC218102  52.808  39.935 100.519
33548DA     SC318103  52.922  40.162 100.484
33548DA     SC418104  52.807  40.095 100.238
33549DT     BB118105  52.302  39.790 100.106
33549DT     BB218106  52.313  39.660 100.443
33549DT     BB318107  52.222  39.792 100.573
33549DT     SC118108  52.427  39.955 100.563
33549DT     SC218109  52.529  39.954 100.752
33549DT     SC318110  52.570  40.173 100.516
33550DT     BB118111  51.979  39.646 100.616
33550DT     BB218112  52.118  39.683 100.946
33550DT     BB318113  52.042  39.854 101.036
33550DT     SC118114  52.193  40.009 100.887
33550DT     SC218115  52.343  40.101 101.010
33550DT     SC318116  52.262  40.191 100.710
33551DA     BB118117  51.965  39.547 101.310
33551DA     BB218118  52.140  39.814 101.490
33551DA     BB318119  52.006  39.974 101.533
33551DA     SC118120  52.067  40.128 101.270
33551DA     SC218121  52.182  40.339 101.202
33551DA     SC318122  52.047  40.319 100.985
33551DA     SC418123  51.973  40.099 101.143
33552DT     BB118124  51.967  40.010 101.726
33552DT     BB218125  52.178  40.301 101.754
33552DT     BB318126  52.062  40.472 101.761
33552DT     SC118127  52.010  40.457 101.504
33552DT     SC218128  52.110  40.618 101.402
33552DT     SC318129  51.875  40.432 101.280
33553DT     BB118130  52.141  40.487 102.014
33553DT     BB218131  52.252  40.793 101.860
33553DT     BB318132  52.098  40.932 101.858
33553DT     SC118133  51.977  40.805 101.663
33553DT     SC218134  51.987  40.924 101.484
33553DT     SC318135  51.792  40.669 101.533
33554DA     BB118136  52.458  41.092 102.005
33554DA     BB218137  52.322  41.320 101.752
33554DA     BB318138  52.146  41.415 101.826
33554DA     SC118139  51.953  41.198 101.715
33554DA     SC218140  51.780  41.178 101.536
33554DA     SC318141  51.695  40.976 101.669
33554DA     SC418142  51.914  41.076 101.813
33555DT     BB118143  52.173  41.594 101.840
33555DT     BB218144  51.971  41.696 101.559
33555DT     BB318145  51.784  41.756 101.625
33555DT     SC118146  51.710  41.508 101.669
33555DT     SC218147  51.560  41.451 101.525
33555DT     SC318148  51.633  41.290 101.797
33556DC     BB118149  51.865  41.997 101.556
33556DC     BB218150  51.561  41.943 101.370
33556DC     BB318151  51.397  41.985 101.490
33556DC     SC118152  51.428  41.761 101.624
33556DC     SC218153  51.267  41.627 101.577
33556DC     SC318154  51.473  41.597 101.825
33557DA     BB118155  51.358  42.188 101.125
33557DA     BB218156  51.040  42.022 101.198
33557DA     BB318157  50.941  42.120 101.360
33557DA     SC118158  51.070  41.941 101.579
33557DA     SC218159  50.998  41.763 101.738
33557DA     SC318160  51.211  41.821 101.868
33557DA     SC418161  51.207  41.993 101.646
33558DA     BB118162  50.702  42.120 101.134
33558DA     BB218163  50.502  41.930 101.375
33558DA     BB318164  50.438  42.057 101.534
33558DA     SC118165  50.687  41.997 101.712
33558DA     SC218166  50.737  41.877 101.925
33558DA     SC318167  50.950  42.019 101.931
33558DA     SC418168  50.813  42.096 101.699
33559DG     BB118169  50.151  41.980 101.439
33559DG     BB218170  50.127  41.835 101.770
33559DG     BB318171  50.085  41.976 101.903
33559DG     SC118172  50.377  42.044 101.962
33559DG     SC218173  50.520  41.996 102.220
33559DG     SC318174  50.686  42.157 102.036
33559DG     SC418175  50.451  42.154 101.872
33560DA     BB118176  49.816  41.780 102.014
33560DA     BB218177  49.957  41.773 102.353
33560DA     BB318178  49.922  41.959 102.451
33560DA     SC118179  50.189  42.087 102.356
33560DA     SC218180  50.407  42.158 102.456
33560DA     SC318181  50.433  42.304 102.247
33560DA     SC418182  50.186  42.172 102.219
33561DA     BB118183  49.776  41.787 102.697
33561DA     BB218184  50.030  41.918 102.926
33561DA     BB318185  49.981  42.118 102.984
33561DA     SC118186  50.139  42.250 102.751
33561DA     SC218187  50.346  42.387 102.723
33561DA     SC318188  50.245  42.456 102.498
33561DA     SC418189  50.059  42.283 102.616
33562DA     BB118190  49.996  42.019 103.303
33562DA     BB218191  50.271  42.257 103.353
33562DA     BB318192  50.194  42.454 103.381
33562DA     SC118193  50.201  42.526 103.079
33562DA     SC218194  50.330  42.677 102.928
33562DA     SC318195  50.133  42.652 102.766
33562DA     SC418196  50.068  42.499 102.992
33563DT     BB118197  50.206  42.568 103.572
33563DT     BB218198  50.466  42.794 103.467
33563DT     BB318199  50.389  42.985 103.444
33563DT     SC118200  50.271  42.918 103.219
33563DT     SC218201  50.368  43.017 103.055
33563DT     SC318202  50.079  42.870 103.045
33564DA     BB118203  50.714  43.039 103.704
33564DA     BB218204  50.748  43.285 103.434
33564DA     BB318205  50.612  43.446 103.463
33564DA     SC118206  50.383  43.315 103.298
33564DA     SC218207  50.268  43.353 103.080
33564DA     SC318208  50.079  43.210 103.178
33564DA     SC418209  50.276  43.225 103.377
33565DT     BB118210  50.680  43.643 103.508
33565DT     BB218211  50.619  43.782 103.180
33565DT     BB318212  50.457  43.910 103.187
33565DT     SC118213  50.288  43.710 103.202
33565DT     SC218214  50.176  43.696 103.019
33565DT     SC318215  50.103  43.548 103.298
33566DA     BB118216  50.770  44.124 103.010
33566DA     BB218217  50.475  44.160 102.795
33566DA     BB318218  50.336  44.296 102.882
33566DA     SC118219  50.181  44.075 103.037
33566DA     SC218220  49.957  43.966 103.028
33566DA     SC318221  50.003  43.898 103.271
33566DA     SC418222  50.227  44.044 103.188
33567DC     BB118223  50.303  44.469 102.786
33567DC     BB218224  49.977  44.381 102.656
33567DC     BB318225  49.830  44.480 102.763
33567DC     SC118226  49.860  44.319 102.968
33567DC     SC218227  49.686  44.194 102.987
33567DC     SC318228  49.915  44.237 103.212
33568DG     BB118229  49.792  44.575 102.369
33568DG     BB218230  49.481  44.451 102.507
33568DG     BB318231  49.393  44.594 102.614
33568DG     SC118232  49.532  44.516 102.876
33568DG     SC218233  49.399  44.403 103.118
33568DG     SC318234  49.681  44.472 103.175
33568DG     SC418235  49.674  44.581 102.911
33569DT     BB118236  49.202  44.660 102.552
33569DT     BB218237  48.987  44.508 102.799
33569DT     BB318238  48.932  44.649 102.940
33569DT     SC118239  49.169  44.643 103.052
33569DT     SC218240  49.154  44.550 103.246
33569DT     SC318241  49.406  44.722 103.135
33570DT     BB118242  48.691  44.630 102.832
33570DT     BB218243  48.644  44.550 103.180
33570DT     BB318244  48.626  44.725 103.291
33570DT     SC118245  48.883  44.772 103.273
33570DT     SC218246  48.974  44.746 103.466
33570DT     SC318247  49.109  44.892 103.210
33571DG     BB118248  48.299  44.489 103.352
33571DG     BB218249  48.448  44.595 103.664
33571DG     BB318250  48.402  44.785 103.701
33571DG     SC118251  48.646  44.898 103.554
33571DG     SC218252  48.874  45.043 103.680
33571DG     SC318253  48.891  45.057 103.385
33571DG     SC418254  48.635  44.928 103.398
33572DG     BB118255  48.270  44.684 103.984
33572DG     BB218256  48.514  44.896 104.146
33572DG     BB318257  48.451  45.085 104.145
33572DG     SC118258  48.582  45.152 103.876
33572DG     SC218259  48.809  45.342 103.835
33572DG     SC318260  48.695  45.255 103.576
33572DG     SC418261  48.500  45.127 103.741
33573DA     BB118262  48.503  45.097 104.491
33573DA     BB218263  48.737  45.376 104.449
33573DA     BB318264  48.631  45.557 104.413
33573DA     SC118265  48.633  45.525 104.104
33573DA     SC218266  48.741  45.635 103.907
33573DA     SC318267  48.553  45.528 103.770
33573DA     SC418268  48.507  45.452 104.036
33574DT     BB118269  48.624  45.723 104.555
33574DT     BB218270  48.843  45.945 104.373
33574DT     BB318271  48.735  46.100 104.291
33574DT     SC118272  48.636  45.944 104.105
33574DT     SC218273  48.719  45.999 103.914
33574DT     SC318274  48.461  45.809 103.961
33575DT     BB118275  48.822  46.298 104.475
33575DT     BB218276  48.909  46.435 104.153
33575DT     BB318277  48.754  46.552 104.081
33575DT     SC118278  48.612  46.340 104.021
33575DT     SC218279  48.598  46.320 103.807
33575DT     SC318280  48.415  46.164 104.024
33576DA     BB118281  49.086  46.807 104.066
33576DA     BB218282  48.925  46.819 103.737
33576DA     BB318283  48.748  46.939 103.745
33576DA     SC118284  48.560  46.701 103.816
33576DA     SC218285  48.379  46.570 103.706
33576DA     SC318286  48.311  46.502 103.944
33576DA     SC418287  48.534  46.671 103.972
33577DA     BB118288  48.897  47.093 103.497
33577DA     BB218289  48.613  46.989 103.289
33577DA     BB318290  48.444  47.113 103.327
33577DA     SC118291  48.330  46.930 103.551
33577DA     SC218292  48.135  46.778 103.584
33577DA     SC318293  48.180  46.808 103.835
33577DA     SC418294  48.373  46.962 103.703
33578DT     BB118295  48.387  47.223 103.177
33578DT     BB218296  48.096  47.027 103.091
33578DT     BB318297  47.925  47.122 103.157
33578DT     SC118298  47.974  47.054 103.406
33578DT     SC218299  47.829  46.908 103.470
33578DT     SC318300  48.028  47.076 103.663
33579DA     BB118301  47.893  47.004 102.757
33579DA     BB218302  47.593  46.892 102.935
33579DA     BB318303  47.470  47.059 102.986
33579DA     SC118304  47.604  47.103 103.263
33579DA     SC218305  47.543  47.077 103.504
33579DA     SC318306  47.737  47.239 103.549
33579DA     SC418307  47.728  47.206 103.271
33580DC     BB118308  47.318  47.042 102.900
33580DC     BB218309  47.113  46.956 103.185
33580DC     BB318310  47.020  47.126 103.259
33580DC     SC118311  47.244  47.211 103.366
33580DC     SC218312  47.229  47.200 103.580
33580DC     SC318313  47.454  47.363 103.414
33581DA     BB118314  46.738  46.820 103.206
33581DA     BB218315  46.685  46.969 103.537
33581DA     BB318316  46.603  47.165 103.517
33581DA     SC118317  46.880  47.306 103.511
33581DA     SC218318  47.014  47.456 103.659
33581DA     SC318319  47.143  47.518 103.446
33581DA     SC418320  46.947  47.333 103.367
33582DT     BB118321  46.423  47.187 103.584
33582DT     BB218322  46.502  47.384 103.876
33582DT     BB318323  46.462  47.584 103.840
33582DT     SC118324  46.675  47.607 103.689
33582DT     SC218325  46.820  47.731 103.790
33582DT     SC318326  46.826  47.648 103.476
33583DT     BB118327  46.241  47.575 104.000
33583DT     BB218328  46.435  47.848 104.134
33583DT     BB318329  46.389  48.023 104.035
33583DT     SC118330  46.524  47.949 103.823
33583DT     SC218331  46.700  48.071 103.804
33583DT     SC318332  46.577  47.878 103.575
33584DA     BB118333  46.332  48.123 104.440
33584DA     BB218334  46.531  48.392 104.289
33584DA     BB318335  46.408  48.517 104.169
33584DA     SC118336  46.454  48.353 103.908
33584DA     SC218337  46.572  48.382 103.690
33584DA     SC318338  46.418  48.195 103.606
33584DA     SC418339  46.349  48.236 103.874
33585DT     BB118340  46.353  48.732 104.215
33585DT     BB218341  46.565  48.884 103.965
33585DT     BB318342  46.448  48.965 103.814
33585DT     SC118343  46.398  48.727 103.715
33585DT     SC218344  46.498  48.705 103.526
33585DT     SC318345  46.263  48.513 103.640
33586DT     BB118346  46.473  49.244 103.885
33586DT     BB218347  46.585  49.236 103.543
33586DT     BB318348  46.426  49.276 103.416
33586DT     SC118349  46.325  49.037 103.453
33586DT     SC218350  46.345  48.922 103.273
33586DT     SC318351  46.157  48.847 103.526
33587DC     BB118352  46.498  49.547 103.344
33587DC     BB218353  46.477  49.378 103.026
33587DC     BB318354  46.287  49.401 102.947
33587DC     SC118355  46.187  49.227 103.116
33587DC     SC218356  46.130  49.049 103.010
33587DC     SC318357  46.041  49.127 103.312
33588DA     BB118358  46.536  49.540 102.639
33588DA     BB218359  46.309  49.293 102.491
33588DA     BB318360  46.116  49.379 102.460
33588DA     SC118361  46.007  49.295 102.739
33588DA     SC218362  45.840  49.134 102.831
33588DA     SC318363  45.842  49.283 103.040
33588DA     SC418364  46.021  49.401 102.859
33589DG     BB118365  46.167  49.317 102.159
33589DG     BB218366  45.895  49.083 102.210
33589DG     BB318367  45.721  49.176 102.186
33589DG     SC118368  45.696  49.257 102.480
33589DG     SC218369  45.492  49.156 102.674
33589DG     SC318370  45.646  49.379 102.791
33589DG     SC418371  45.760  49.396 102.528
33590DA     BB118372  45.664  48.914 101.976
33590DA     BB218373  45.380  48.813 102.185
33590DA     BB318374  45.214  48.943 102.153
33590DA     SC118375  45.294  49.141 102.378
33590DA     SC218376  45.210  49.209 102.603
33590DA     SC318377  45.350  49.421 102.569
33590DA     SC418378  45.386  49.267 102.338
33591DA     BB118379  45.112  48.636 102.122
33591DA     BB218380  44.887  48.714 102.401
33591DA     BB318381  44.736  48.852 102.339
33591DA     SC118382  44.901  49.104 102.417
33591DA     SC218383  44.892  49.284 102.589
33591DA     SC318384  45.043  49.417 102.429
33591DA     SC418385  44.993  49.171 102.304
33592DT     BB118386  44.588  48.767 102.356
33592DT     BB218387  44.466  48.947 102.644
33592DT     BB318388  44.345  49.104 102.584
33592DT     SC118389  44.552  49.244 102.506
33592DT     SC218390  44.578  49.413 102.637
33592DT     SC318391  44.718  49.375 102.348
33593DA     BB118392  44.169  48.873 102.890
33593DA     BB218393  44.133  49.228 102.974
33593DA     BB318394  43.998  49.323 102.839
33593DA     SC118395  44.219  49.405 102.637
33593DA     SC218396  44.329  49.615 102.559
33593DA     SC318397  44.398  49.479 102.353
33593DA     SC418398  44.251  49.304 102.516
33594DC     BB118399  43.840  49.384 102.921
33594DC     BB218400  43.909  49.737 102.904
33594DC     BB318401  43.809  49.821 102.744
33594DC     SC118402  43.979  49.717 102.573
33594DC     SC218403  44.098  49.873 102.486
33594DC     SC318404  44.074  49.569 102.376
33595DC     BB118405  43.637  49.941 102.914
33595DC     BB218406  43.769  50.211 102.715
33595DC     BB318407  43.660  50.230 102.540
33595DC     SC118408  43.773  50.016 102.438
33595DC     SC218409  43.903  50.075 102.276
33595DC     SC318410  43.801  49.774 102.339
33596DA     BB118411  43.654  50.615 102.709
33596DA     BB218412  43.747  50.651 102.356
33596DA     BB318413  43.577  50.623 102.231
33596DA     SC118414  43.619  50.316 102.199
33596DA     SC218415  43.686  50.157 102.019
33596DA     SC318416  43.576  49.978 102.165
33596DA     SC418417  43.545  50.220 102.304
33597DC     BB118418  43.491  50.782 102.115
33597DC     BB218419  43.612  50.670 101.794
33597DC     BB318420  43.456  50.594 101.682
33597DC     SC118421  43.448  50.375 101.826
33597DC     SC218422  43.516  50.209 101.707
33597DC     SC318423  43.359  50.188 101.989
33598DT     BB118424  43.452  50.813 101.514
33598DT     BB218425  43.500  50.532 101.293
33598DT     BB318426  43.317  50.456 101.234
33598DT     SC118427  43.279  50.345 101.469
33598DT     SC218428  43.291  50.131 101.450
33598DT     SC318429  43.172  50.292 101.704
33599DA     BB118430  43.536  50.525 100.884
33599DA     BB218431  43.404  50.183 100.868
33599DA     BB318432  43.194  50.187 100.828
33599DA     SC118433  43.112  50.192 101.128
33599DA     SC218434  43.004  50.038 101.293
33599DA     SC318435  42.955  50.251 101.428
33599DA     SC418436  43.090  50.336 101.197
33600DA     BB118437  43.298  49.987 100.590
33600DA     BB218438  43.085  49.730 100.744
33600DA     BB318439  42.880  49.770 100.703
33600DA     SC118440  42.836  49.942 100.958
33600DA     SC218441  42.714  49.923 101.175
33600DA     SC318442  42.733  50.179 101.185
33600DA     SC418443  42.857  50.101 100.945
33601DA     BB118444  42.891  49.462 100.593
33601DA     BB218445  42.639  49.380 100.847
33601DA     BB318446  42.447  49.447 100.784
33601DA     SC118447  42.474  49.727 100.919
33601DA     SC218448  42.374  49.849 101.112
33601DA     SC318449  42.457  50.061 100.994
33601DA     SC418450  42.532  49.847 100.830
33602DC     BB118451  42.311  49.308 100.748
33602DC     BB218452  42.111  49.360 101.043
33602DC     BB318453  41.937  49.461 100.993
33602DC     SC118454  42.068  49.687 100.966
33602DC     SC218455  42.013  49.821 101.125
33602DC     SC318456  42.169  49.903 100.854
33603DA     BB118457  41.836  49.122 101.217
33603DA     BB218458  41.654  49.408 101.357
33603DA     BB318459  41.497  49.467 101.225
33603DA     SC118460  41.672  49.671 101.068
33603DA     SC218461  41.688  49.919 101.042
33603DA     SC318462  41.815  49.867 100.825
33603DA     SC418463  41.747  49.618 100.936
33604DT     BB118464  41.311  49.442 101.290
33604DT     BB218465  41.231  49.790 101.344
33604DT     BB318466  41.110  49.859 101.191
33604DT     SC118467  41.314  49.868 101.025
33604DT     SC218468  41.362  50.073 100.982
33604DT     SC318469  41.467  49.815 100.817
33605DC     BB118470  40.886  49.862 101.352
33605DC     BB218471  40.900  50.197 101.220
33605DC     BB318472  40.798  50.206 101.040
33605DC     SC118473  40.992  50.082 100.914
33605DC     SC218474  41.091  50.220 100.781
33605DC     SC318475  41.121  49.897 100.778
33606DA     BB118476  40.602  50.512 101.256
33606DA     BB218477  40.680  50.651 100.926
33606DA     BB318478  40.542  50.578 100.780
33606DA     SC118479  40.716  50.331 100.704
33606DA     SC218480  40.851  50.253 100.509
33606DA     SC318481  40.825  50.019 100.611
33606DA     SC418482  40.687  50.194 100.782
33607DG     BB118483  40.402  50.869 100.698
33607DG     BB218484  40.546  50.810 100.371
33607DG     BB318485  40.415  50.717 100.255
33607DG     SC118486  40.504  50.436 100.337
33607DG     SC218487  40.638  50.236 100.160
33607DG     SC318488  40.562  50.114 100.419
33607DG     SC418489  40.436  50.367 100.464
33608DT     BB118490  40.269  50.786 100.020
33608DT     BB218491  40.467  50.604  99.780
33608DT     BB318492  40.353  50.454  99.694
33608DT     SC118493  40.368  50.307  99.911
33608DT     SC218494  40.491  50.135  99.872
33608DT     SC318495  40.294  50.175 100.126
33609DA     BB118496  40.463  50.657  99.339
33609DA     BB218497  40.556  50.306  99.292
33609DA     BB318498  40.387  50.192  99.230
33609DA     SC118499  40.299  50.117  99.519
33609DA     SC218500  40.292  49.914  99.663
33609DA     SC318501  40.120  50.044  99.802
33609DA     SC418502  40.193  50.214  99.591
33610DA     BB118503  40.584  50.112  98.984
33610DA     BB218504  40.579  49.771  99.118
33610DA     BB318505  40.402  49.669  99.056
33610DA     SC118506  40.235  49.756  99.303
33610DA     SC218507  40.137  49.650  99.506
33610DA     SC318508  39.984  49.855  99.515
33610DA     SC418509  40.148  49.891  99.291
33611DT     BB118510  40.450  49.528  98.953
33611DT     BB218511  40.397  49.278  99.208
33611DT     BB318512  40.216  49.183  99.177
33611DT     SC118513  40.082  49.391  99.265
33611DT     SC218514  39.991  49.343  99.454
33611DT     SC318515  39.919  49.598  99.268
33612DT     BB118516  40.392  49.001  99.139
33612DT     BB218517  40.185  48.887  99.412
33612DT     BB318518  40.005  48.816  99.339
33612DT     SC118519  39.919  49.060  99.293
33612DT     SC218520  39.760  49.106  99.431
33612DT     SC318521  39.833  49.272  99.163
33613DT     BB118522  40.125  48.615  99.440
33613DT     BB218523  39.808  48.641  99.610
33613DT     BB318524  39.656  48.577  99.485
33613DT     SC118525  39.669  48.798  99.343
33613DT     SC218526  39.491  48.915  99.378
33613DT     SC318527  39.705  48.959  99.138
33614DG     BB118528  39.662  48.395  99.851
33614DG     BB218529  39.333  48.517  99.764
33614DG     BB318530  39.255  48.405  99.619
33614DG     SC118531  39.370  48.574  99.392
33614DG     SC218532  39.213  48.739  99.199
33614DG     SC318533  39.497  48.725  99.118
33614DG     SC418534  39.517  48.540  99.336
33615DA     BB118535  38.978  48.386  99.829
33615DA     BB218536  38.765  48.512  99.558
33615DA     BB318537  38.739  48.363  99.408
33615DA     SC118538  38.985  48.454  99.241
33615DA     SC218539  39.028  48.563  99.021
33615DA     SC318540  39.264  48.465  99.041
33615DA     SC418541  39.126  48.383  99.271
33616DA     BB118542  38.412  48.411  99.454
33616DA     BB218543  38.389  48.497  99.098
33616DA     BB318544  38.398  48.320  98.979
33616DA     SC118545  38.707  48.328  98.948
33616DA     SC218546  38.874  48.372  98.767
33616DA     SC318547  39.039  48.246  98.918
33616DA     SC418548  38.795  48.246  99.055
33617DA     BB118549  38.103  48.399  98.834
33617DA     BB218550  38.275  48.409  98.510
33617DA     BB318551  38.298  48.211  98.432
33617DA     SC118552  38.576  48.166  98.565
33617DA     SC218553  38.814  48.145  98.493
33617DA     SC318554  38.851  48.032  98.720
33617DA     SC418555  38.579  48.097  98.710
33618DT     BB118556  38.191  48.109  98.243
33618DT     BB218557  38.477  48.118  98.024
33618DT     BB318558  38.544  47.926  97.986
33618DT     SC118559  38.649  47.907  98.226
33618DT     SC218560  38.863  47.905  98.210
33618DT     SC318561  38.692  47.822  98.472
33619DC     BB118562  38.443  47.888  97.713
33619DC     BB218563  38.797  47.824  97.680
33619DC     BB318564  38.833  47.621  97.695
33619DC     SC118565  38.795  47.625  97.954
33619DC     SC218566  38.982  47.591  98.055
33619DC     SC318567  38.688  47.574  98.190
33620DT     BB118568  38.887  47.577  97.419
33620DT     BB218569  39.187  47.466  97.584
33620DT     BB318570  39.175  47.263  97.624
33620DT     SC118571  39.007  47.304  97.822
33620DT     SC218572  39.104  47.260  98.008
33620DT     SC318573  38.785  47.298  97.964
33621DT     BB118574  39.359  47.200  97.428
33621DT     BB218575  39.503  47.071  97.732
33621DT     BB318576  39.441  46.876  97.762
33621DT     SC118577  39.202  46.955  97.836
33621DT     SC218578  39.177  46.919  98.047
33621DT     SC318579  38.941  46.988  97.836
33622DG     BB118580  39.847  46.894  97.756
33622DG     BB218581  39.724  46.737  98.058
33622DG     BB318582  39.668  46.550  98.019
33622DG     SC118583  39.380  46.625  97.949
33622DG     SC218584  39.137  46.550  98.106
33622DG     SC318585  39.062  46.674  97.848
33622DG     SC418586  39.344  46.664  97.798
33623DT     BB118587  39.769  46.420  98.127
33623DT     BB218588  39.524  46.313  98.369
33623DT     BB318589  39.436  46.136  98.307
33623DT     SC118590  39.294  46.262  98.125
33623DT     SC218591  39.086  46.259  98.182
33623DT     SC318592  39.202  46.335  97.889
33624DT     BB118593  39.567  46.053  98.513
33624DT     BB218594  39.222  45.963  98.573
33624DT     BB318595  39.174  45.794  98.465
33624DT     SC118596  39.164  45.930  98.241
33624DT     SC218597  38.960  45.942  98.173
33624DT     SC318598  39.223  46.011  97.997
33625DG     BB118599  39.092  45.745  98.862
33625DG     BB218600  38.812  45.649  98.654
33625DG     BB318601  38.850  45.476  98.564
33625DG     SC118602  38.980  45.603  98.318
33625DG     SC218603  38.872  45.598  98.040
33625DG     SC318604  39.146  45.708  98.044
33625DG     SC418605  39.137  45.634  98.320
33626DA     BB118606  38.541  45.362  98.686
33626DA     BB218607  38.435  45.278  98.345
33626DA     BB318608  38.535  45.103  98.277
33626DA     SC118609  38.773  45.259  98.151
33626DA     SC218610  38.861  45.309  97.923
33626DA     SC318611  39.083  45.359  98.042
33626DA     SC418612  38.903  45.283  98.243
33627DA     BB118613  38.239  44.945  98.213
33627DA     BB218614  38.341  44.913  97.862
33627DA     BB318615  38.474  44.748  97.838
33627DA     SC118616  38.731  44.917  97.885
33627DA     SC218617  38.925  44.999  97.751
33627DA     SC318618  39.043  45.028  97.977
33627DA     SC418619  38.788  44.927  98.035
33628DA     BB118620  38.292  44.555  97.602
33628DA     BB218621  38.566  44.595  97.361
33628DA     BB318622  38.710  44.441  97.387
33628DA     SC118623  38.882  44.601  97.591
33628DA     SC218624  39.105  44.712  97.597
33628DA     SC318625  39.083  44.696  97.852
33628DA     SC418626  38.850  44.581  97.747
33629DT     BB118627  38.800  44.205  97.241
33629DT     BB218628  39.101  44.363  97.121
33629DT     BB318629  39.267  44.261  97.190
33629DT     SC118630  39.237  44.360  97.431
33629DT     SC218631  39.397  44.499  97.471
33629DT     SC318632  39.195  44.372  97.691
33630DA     BB118633  39.360  44.216  96.776
33630DA     BB218634  39.650  44.376  96.933
33630DA     BB318635  39.779  44.228  97.019
33630DA     SC118636  39.640  44.234  97.297
33630DA     SC218637  39.694  44.311  97.528
33630DA     SC318638  39.506  44.152  97.602
33630DA     SC418639  39.521  44.129  97.323
33631DA     BB118640  39.997  44.374  96.829
33631DA     BB218641  40.154  44.491  97.139
33631DA     BB318642  40.277  44.338  97.223
33631DA     SC118643  40.050  44.217  97.397
33631DA     SC218644  39.992  44.201  97.639
33631DA     SC318645  39.841  44.005  97.569
33631DA     SC418646  39.963  44.097  97.334
33632DG     BB118647  40.449  44.582  97.173
33632DG     BB218648  40.455  44.582  97.534
33632DG     BB318649  40.577  44.440  97.600
33632DG     SC118650  40.361  44.223  97.611
33632DG     SC218651  40.255  44.093  97.857
33632DG     SC318652  40.155  43.957  97.615
33632DG     SC418653  40.334  44.135  97.480
33633DT     BB118654  40.703  44.528  97.706
33633DT     BB218655  40.604  44.429  98.039
33633DT     BB318656  40.708  44.259  98.096
33633DT     SC118657  40.560  44.108  97.940
33633DT     SC218658  40.434  43.983  98.061
33633DT     SC318659  40.493  43.944  97.744
33634DC     BB118660  40.807  44.435  98.257
33634DC     BB218661  40.669  44.175  98.466
33634DC     BB318662  40.796  44.012  98.469
33634DC     SC118663  40.725  43.941  98.227
33634DC     SC218664  40.610  43.759  98.236
33634DC     SC318665  40.741  43.888  97.969
33635DT     BB118666  40.839  44.085  98.719
33635DT     BB218667  40.727  43.743  98.738
33635DT     BB318668  40.885  43.614  98.700
33635DT     SC118669  40.876  43.668  98.443
33635DT     SC218670  40.806  43.495  98.336
33635DT     SC318671  40.951  43.754  98.205
33636DC     BB118672  40.882  43.549  98.960
33636DC     BB218673  40.843  43.236  98.785
33636DC     BB318674  41.029  43.161  98.732
33636DC     SC118675  41.052  43.337  98.538
33636DC     SC218676  41.039  43.237  98.349
33636DC     SC318677  41.145  43.540  98.397
33637DG     BB118678  40.846  42.879  98.961
33637DG     BB218679  40.962  42.741  98.647
33637DG     BB318680  41.159  42.710  98.656
33637DG     SC118681  41.231  42.989  98.552
33637DG     SC218682  41.362  43.050  98.290
33637DG     SC318683  41.347  43.292  98.460
33637DG     SC418684  41.248  43.108  98.656
33638DT     BB118685  41.229  42.512  98.633
33638DT     BB218686  41.366  42.520  98.299
33638DT     BB318687  41.572  42.538  98.308
33638DT     SC118688  41.555  42.791  98.374
33638DT     SC218689  41.625  42.912  98.211
33638DT     SC318690  41.578  43.013  98.515
33639DT     BB118691  41.570  42.290  98.219
33639DT     BB218692  41.762  42.477  97.977
33639DT     BB318693  41.956  42.499  98.043
33639DT     SC118694  41.884  42.681  98.218
33639DT     SC218695  41.960  42.873  98.158
33639DT     SC318696  41.842  42.799  98.450
33640DC     BB118697  42.000  42.339  97.844
33640DC     BB218698  42.205  42.630  97.782
33640DC     BB318699  42.376  42.622  97.898
33640DC     SC118700  42.242  42.686  98.114
33640DC     SC218701  42.297  42.884  98.176
33640DC     SC318702  42.135  42.667  98.354
33641DC     BB118703  42.512  42.571  97.673
33641DC     BB218704  42.678  42.857  97.817
33641DC     BB318705  42.817  42.795  97.957
33641DC     SC118706  42.628  42.740  98.131
33641DC     SC218707  42.637  42.881  98.293
33641DC     SC318708  42.473  42.601  98.292
33642DA     BB118709  43.027  43.049  97.696
33642DA     BB218710  43.114  43.146  98.039
33642DA     BB318711  43.244  43.002  98.126
33642DA     SC118712  43.014  42.830  98.246
33642DA     SC218713  42.922  42.776  98.472
33642DA     SC318714  42.816  42.573  98.357
33642DA     SC418715  42.958  42.709  98.157
33643DA     BB118716  43.449  43.257  98.185
33643DA     BB218717  43.424  43.178  98.542
33643DA     BB318718  43.547  43.010  98.589
33643DA     SC118719  43.322  42.801  98.540
33643DA     SC218720  43.182  42.644  98.675
33643DA     SC318721  43.143  42.520  98.453
33643DA     SC418722  43.311  42.737  98.393
33644DG     BB118723  43.717  43.191  98.787
33644DG     BB218724  43.592  42.966  99.041
33644DG     BB318725  43.709  42.806  99.054
33644DG     SC118726  43.555  42.645  98.845
33644DG     SC218727  43.397  42.397  98.897
33644DG     SC318728  43.422  42.447  98.607
33644DG     SC418729  43.596  42.658  98.691
33645DG     BB118730  43.787  42.858  99.378
33645DG     BB218731  43.627  42.541  99.448
33645DG     BB318732  43.758  42.393  99.425
33645DG     SC118733  43.696  42.350  99.129
33645DG     SC218734  43.567  42.109  99.009
33645DG     SC318735  43.668  42.290  98.798
33645DG     SC418736  43.777  42.435  99.019
33646DA     BB118737  43.698  42.263  99.750
33646DA     BB218738  43.587  41.943  99.611
33646DA     BB318739  43.755  41.821  99.562
33646DA     SC118740  43.777  41.927  99.270
33646DA     SC218741  43.739  41.840  99.039
33646DA     SC318742  43.890  42.033  98.964
33646DA     SC418743  43.875  42.052  99.243
33647DT     BB118744  43.820  41.625  99.667
33647DT     BB218745  43.711  41.401  99.406
33647DT     BB318746  43.875  41.313  99.315
33647DT     SC118747  43.932  41.535  99.187
33647DT     SC218748  43.894  41.508  98.977
33647DT     SC318749  44.063  41.750  99.110
33648DA     BB118750  43.658  40.970  99.431
33648DA     BB218751  43.742  40.928  99.076
33648DA     BB318752  43.944  40.865  99.055
33648DA     SC118753  44.058  41.154  99.035
33648DA     SC218754  44.161  41.301  98.861
33648DA     SC318755  44.252  41.436  99.059
33648DA     SC418756  44.106  41.225  99.171
33649DT     BB118757  44.021  40.655  98.977
33649DT     BB218758  44.116  40.772  98.650
33649DT     BB318759  44.322  40.762  98.628
33649DT     SC118760  44.356  40.972  98.781
33649DT     SC218761  44.425  41.137  98.662
33649DT     SC318762  44.433  41.121  98.985
33650DC     BB118763  44.316  40.541  98.453
33650DC     BB218764  44.480  40.801  98.264
33650DC     BB318765  44.684  40.791  98.292
33650DC     SC118766  44.665  40.892  98.533
33650DC     SC218767  44.749  41.090  98.534
33650DC     SC318768  44.678  40.913  98.796
33651DA     BB118769  44.595  40.805  97.885
33651DA     BB218770  44.843  41.065  97.957
33651DA     BB318771  45.034  40.978  97.993
33651DA     SC118772  44.991  40.950  98.300
33651DA     SC218773  45.080  41.053  98.508
33651DA     SC318774  44.991  40.843  98.626
33651DA     SC418775  44.930  40.812  98.354
33652DA     BB118776  45.071  41.212  97.771
33652DA     BB218777  45.299  41.366  98.013
33652DA     BB318778  45.477  41.250  98.031
33652DA     SC118779  45.367  41.075  98.264
33652DA     SC218780  45.409  41.046  98.508
33652DA     SC318781  45.295  40.818  98.480
33652DA     SC418782  45.295  40.937  98.226
33653DA     BB118783  45.569  41.559  97.978
33653DA     BB218784  45.748  41.532  98.297
33653DA     BB318785  45.911  41.396  98.279
33653DA     SC118786  45.745  41.148  98.365
33653DA     SC218787  45.732  40.993  98.560
33653DA     SC318788  45.615  40.832  98.398
33653DA     SC418789  45.675  41.061  98.249
33654DT     BB118790  46.079  41.479  98.299
33654DT     BB218791  46.162  41.342  98.623
33654DT     BB318792  46.290  41.181  98.600
33654DT     SC118793  46.094  41.028  98.517
33654DT     SC218794  46.051  40.879  98.666
33654DT     SC318795  45.949  40.874  98.359
33655DC     BB118796  46.504  41.326  98.692
33655DC     BB218797  46.498  41.035  98.905
33655DC     BB318798  46.606  40.881  98.819
33655DC     SC118799  46.415  40.835  98.644
33655DC     SC218800  46.322  40.646  98.688
33655DC     SC318801  46.290  40.814  98.413
33656DT     BB118802  46.832  40.901  98.989
33656DT     BB218803  46.731  40.556  99.021
33656DT     BB318804  46.830  40.440  98.882
33656DT     SC118805  46.679  40.531  98.688
33656DT     SC218806  46.549  40.373  98.618
33656DT     SC318807  46.607  40.653  98.465
33657DG     BB118808  46.961  40.269  99.232
33657DG     BB218809  46.819  40.019  99.012
33657DG     BB318810  46.955  39.961  98.879
33657DG     SC118811  46.880  40.174  98.673
33657DG     SC218812  46.756  40.124  98.406
33657DG     SC318813  46.838  40.407  98.432
33657DG     SC418814  46.952  40.317  98.679
33658DC     BB118815  47.042  39.741  98.861
33658DC     BB218816  46.857  39.626  98.574
33658DC     BB318817  46.982  39.610  98.411
33658DC     SC118818  46.988  39.870  98.380
33658DC     SC218819  46.882  39.923  98.200
33658DC     SC318820  47.081  40.117  98.368
33659DA     BB118821  46.763  39.259  98.465
33659DA     BB218822  46.723  39.368  98.117
33659DA     BB318823  46.903  39.335  98.008
33659DA     SC118824  47.021  39.616  98.070
33659DA     SC218825  47.070  39.827  97.946
33659DA     SC318826  47.229  39.880  98.141
33659DA     SC418827  47.115  39.631  98.199
33660DA     BB118828  46.642  39.218  97.855
33660DA     BB218829  46.737  39.449  97.586
33660DA     BB318830  46.923  39.389  97.500
33660DA     SC118831  47.096  39.562  97.693
33660DA     SC218832  47.239  39.766  97.680
33660DA     SC318833  47.343  39.681  97.899
33660DA     SC418834  47.149  39.492  97.827
33661DG     BB118835  46.711  39.404  97.280
33661DG     BB218836  46.938  39.657  97.155
33661DG     BB318837  47.102  39.571  97.082
33661DG     SC118838  47.253  39.578  97.349
33661DG     SC218839  47.496  39.741  97.408
33661DG     SC318840  47.439  39.552  97.628
33661DG     SC418841  47.237  39.456  97.450
33662DA     BB118842  47.020  39.785  96.824
33662DA     BB218843  47.356  39.930  96.845
33662DA     BB318844  47.502  39.788  96.780
33662DA     SC118845  47.548  39.669  97.064
33662DA     SC218846  47.729  39.667  97.236
33662DA     SC318847  47.609  39.460  97.330
33662DA     SC418848  47.460  39.541  97.106
33663DC     BB118849  47.595  39.835  96.619
33663DC     BB218850  47.916  39.908  96.764
33663DC     BB318851  48.044  39.747  96.737
33663DC     SC118852  47.922  39.608  96.922
33663DC     SC218853  48.052  39.587  97.093
33663DC     SC318854  47.783  39.415  97.036
33664DA     BB118855  48.252  40.082  96.591
33664DA     BB218856  48.483  39.894  96.805
33664DA     BB318857  48.548  39.716  96.707
33664DA     SC118858  48.318  39.540  96.820
33664DA     SC218859  48.292  39.353  96.982
33664DA     SC318860  48.070  39.306  96.862
33664DA     SC418861  48.184  39.526  96.731
33665DA     BB118862  48.853  39.830  96.768
33665DA     BB218863  48.912  39.525  96.963
33665DA     BB318864  48.949  39.360  96.833
33665DA     SC118865  48.650  39.276  96.814
33665DA     SC218866  48.506  39.088  96.893
33665DA     SC318867  48.343  39.163  96.709
33665DA     SC418868  48.563  39.337  96.694
33666DT     BB118869  49.138  39.266  96.823
33666DT     BB218870  49.048  38.965  96.999
33666DT     BB318871  49.037  38.806  96.866
33666DT     SC118872  48.809  38.893  96.770
33666DT     SC218873  48.651  38.759  96.828
33666DT     SC318874  48.631  38.987  96.599
33667DT     BB118875  49.271  38.696  96.961
33667DT     BB218876  49.029  38.430  96.996
33667DT     BB318877  49.021  38.319  96.822
33667DT     SC118878  48.888  38.507  96.697
33667DT     SC218879  48.687  38.441  96.662
33667DT     SC318880  48.830  38.696  96.523
33668DA     BB118881  49.085  38.039  97.128
33668DA     BB218882  48.811  37.912  96.919
33668DA     BB318883  48.888  37.837  96.735
33668DA     SC118884  48.861  38.108  96.584
33668DA     SC218885  48.721  38.205  96.403
33668DA     SC318886  48.908  38.378  96.378
33668DA     SC418887  48.989  38.205  96.584
33669DA     BB118888  48.729  37.554  96.812
33669DA     BB218889  48.533  37.595  96.505
33669DA     BB318890  48.648  37.536  96.335
33669DA     SC118891  48.765  37.820  96.284
33669DA     SC218892  48.742  38.001  96.114
33669DA     SC318893  48.968  38.085  96.204
33669DA     SC418894  48.906  37.855  96.353
33670DT     BB118895  48.609  37.353  96.204
33670DT     BB218896  48.478  37.531  95.919
33670DT     BB318897  48.613  37.521  95.762
33670DT     SC118898  48.772  37.696  95.877
33670DT     SC218899  48.768  37.880  95.766
33670DT     SC318900  48.986  37.798  95.991
33671DG     BB118901  48.288  37.335  95.592
33671DG     BB218902  48.405  37.603  95.379
33671DG     BB318903  48.556  37.539  95.267
33671DG     SC118904  48.772  37.615  95.470
33671DG     SC218905  48.979  37.828  95.434
33671DG     SC318906  49.033  37.668  95.677
33671DG     SC418907  48.814  37.509  95.582
33672DC     BB118908  48.558  37.521  95.026
33672DC     BB218909  48.759  37.808  94.940
33672DC     BB318910  48.944  37.746  94.871
33672DC     SC118911  49.023  37.686  95.114
33672DC     SC218912  49.174  37.825  95.177
33672DC     SC318913  49.104  37.543  95.320
33673DG     BB118914  48.784  37.964  94.565
33673DG     BB218915  49.113  38.085  94.653
33673DG     BB318916  49.252  37.969  94.571
33673DG     SC118917  49.267  37.777  94.810
33673DG     SC218918  49.501  37.743  94.992
33673DG     SC318919  49.295  37.537  95.044
33673DG     SC418920  49.169  37.651  94.814
33674DG     BB118921  49.380  38.227  94.408
33674DG     BB218922  49.681  38.173  94.601
33674DG     BB318923  49.794  38.035  94.513
33674DG     SC118924  49.666  37.800  94.661
33674DG     SC218925  49.801  37.625  94.861
33674DG     SC318926  49.534  37.518  94.790
33674DG     SC418927  49.536  37.730  94.598
33675DT     BB118928  50.008  38.074  94.424
33675DT     BB218929  50.216  37.917  94.673
33675DT     BB318930  50.293  37.739  94.600
33675DT     SC118931  50.061  37.618  94.626
33675DT     SC218932  50.074  37.473  94.784
33675DT     SC318933  49.838  37.493  94.563
33676DT     BB118934  50.553  37.839  94.564
33676DT     BB218935  50.598  37.553  94.780
33676DT     BB318936  50.631  37.383  94.667
33676DT     SC118937  50.378  37.370  94.598
33676DT     SC218938  50.287  37.200  94.693
33676DT     SC318939  50.162  37.371  94.448
33677DT     BB118940  50.906  37.366  94.726
33677DT     BB218941  50.773  37.050  94.836
33677DT     BB318942  50.783  36.911  94.683
33677DT     SC118943  50.582  37.023  94.557
33677DT     SC218944  50.411  36.893  94.564
33677DT     SC318945  50.445  37.150  94.370
33678DT     BB118946  50.989  36.772  94.805
33678DT     BB218947  50.724  36.530  94.769
33678DT     BB318948  50.742  36.433  94.587
33678DT     SC118949  50.652  36.642  94.457
33678DT     SC218950  50.456  36.599  94.378
33678DT     SC318951  50.645  36.848  94.293
33679DG     BB118952  50.743  36.164  94.890
33679DG     BB218953  50.485  36.091  94.647
33679DG     BB318954  50.566  36.006  94.487
33679DG     SC118955  50.618  36.270  94.342
33679DG     SC218956  50.484  36.362  94.091
33679DG     SC318957  50.708  36.542  94.163
33679DG     SC418958  50.756  36.347  94.367
33680DA     BB118959  50.300  35.808  94.566
33680DA     BB218960  50.166  35.871  94.231
33680DA     BB318961  50.287  35.776  94.083
33680DA     SC118962  50.473  36.021  94.042
33680DA     SC218963  50.518  36.191  93.864
33680DA     SC318964  50.741  36.228  93.985
33680DA     SC418965  50.607  36.029  94.130
33681DT     BB118966  50.183  35.660  94.009
33681DT     BB218967  50.144  35.828  93.692
33681DT     BB318968  50.282  35.755  93.556
33681DT     SC118969  50.477  35.886  93.672
33681DT     SC218970  50.544  36.045  93.543
33681DT     SC318971  50.702  35.932  93.802
33682DC     BB118972  50.063  35.663  93.450
33682DC     BB218973  50.223  35.854  93.190
33682DC     BB318974  50.375  35.744  93.103
33682DC     SC118975  50.531  35.780  93.312
33682DC     SC218976  50.694  35.910  93.257
33682DC     SC318977  50.677  35.727  93.524
33683DA     BB118978  50.129  35.902  92.802
33683DA     BB218979  50.478  35.954  92.703
33683DA     BB318980  50.569  35.768  92.650
33683DA     SC118981  50.672  35.709  92.938
33683DA     SC218982  50.891  35.699  93.057
33683DA     SC318983  50.766  35.559  93.232
33683DA     SC418984  50.577  35.623  93.035
33684DG     BB118985  50.614  35.901  92.370
33684DG     BB218986  50.963  35.845  92.444
33684DG     BB318987  51.012  35.657  92.404
33684DG     SC118988  50.944  35.553  92.684
33684DG     SC218989  51.139  35.447  92.884
33684DG     SC318990  50.860  35.403  92.974
33684DG     SC418991  50.794  35.505  92.715
33685DA     BB118992  51.284  35.744  92.189
33685DA     BB218993  51.522  35.555  92.395
33685DA     BB318994  51.510  35.347  92.350
33685DA     SC118995  51.293  35.287  92.565
33685DA     SC218996  51.278  35.166  92.783
33685DA     SC318997  51.025  35.163  92.740
33685DA     SC418998  51.139  35.294  92.520
33686DA     BB118999  51.843  35.313  92.265
33686DA     BB219000  51.884  35.069  92.536
33686DA     BB319001  51.826  34.875  92.471
33686DA     SC119002  51.530  34.906  92.559
33686DA     SC219003  51.378  34.812  92.733
33686DA     SC319004  51.187  34.890  92.581
33686DA     SC419005  51.425  34.961  92.450
33687DT     BB119006  51.961  34.644  92.413
33687DT     BB219007  51.859  34.469  92.712
33687DT     BB319008  51.744  34.304  92.661
33687DT     SC119009  51.537  34.455  92.604
33687DT     SC219010  51.384  34.425  92.752
33687DT     SC319011  51.346  34.572  92.466
33688DG     BB119012  52.049  34.054  92.821
33688DG     BB219013  51.733  33.971  92.976
33688DG     BB319014  51.642  33.828  92.872
33688DG     SC119015  51.493  34.022  92.688
33688DG     SC219016  51.198  34.065  92.680
33688DG     SC319017  51.330  34.205  92.456
33688DG     SC419018  51.564  34.071  92.553
33689DC     BB119019  51.566  33.549  92.923
33689DC     BB219020  51.221  33.616  93.001
33689DC     BB319021  51.098  33.520  92.865
33689DC     SC119022  51.155  33.694  92.677
33689DC     SC219023  50.981  33.815  92.637
33689DC     SC319024  51.246  33.795  92.451
33690DA     BB119025  50.971  33.401  93.242
33690DA     BB219026  50.685  33.552  93.068
33690DA     BB319027  50.601  33.413  92.930
33690DA     SC119028  50.779  33.505  92.692
33690DA     SC219029  50.750  33.626  92.476
33690DA     SC319030  50.972  33.517  92.408
33690DA     SC419031  50.917  33.426  92.668
33691DA     BB119032  50.389  33.548  93.127
33691DA     BB219033  50.248  33.694  92.821
33691DA     BB319034  50.158  33.542  92.701
33691DA     SC119035  50.416  33.482  92.539
33691DA     SC219036  50.500  33.514  92.306
33691DA     SC319037  50.670  33.330  92.364
33691DA     SC419038  50.513  33.365  92.594
33692DA     BB119039  50.003  33.829  92.760
33692DA     BB219040  50.000  33.854  92.394
33692DA     BB319041  49.892  33.690  92.309
33692DA     SC119042  50.142  33.507  92.282
33692DA     SC219043  50.283  33.414  92.099
33692DA     SC319044  50.358  33.241  92.273
33692DA     SC419045  50.175  33.408  92.404
33693DC     BB119046  49.797  33.792  92.243
33693DC     BB219047  49.895  33.728  91.902
33693DC     BB319048  49.804  33.555  91.834
33693DC     SC119049  49.967  33.405  91.974
33693DC     SC219050  50.100  33.300  91.841
33693DC     SC319051  50.052  33.232  92.155
33694DC     BB119052  49.686  33.734  91.690
33694DC     BB219053  49.820  33.494  91.457
33694DC     BB319054  49.701  33.325  91.453
33694DC     SC119055  49.794  33.245  91.685
33694DC     SC219056  49.916  33.070  91.656
33694DC     SC319057  49.801  33.177  91.939
33695DT     BB119058  49.614  33.402  91.211
33695DT     BB219059  49.726  33.062  91.162
33695DT     BB319060  49.576  32.930  91.214
33695DT     SC119061  49.616  32.973  91.470
33695DT     SC219062  49.701  32.796  91.559
33695DT     SC319063  49.572  33.047  91.719
33696DT     BB119064  49.505  32.862  90.950
33696DT     BB219065  49.564  32.541  91.105
33696DT     BB319066  49.388  32.469  91.187
33696DT     SC119067  49.403  32.638  91.387
33696DT     SC219068  49.445  32.531  91.568
33696DT     SC319069  49.341  32.837  91.549
33697DA     BB119070  49.488  32.145  90.935
33697DA     BB219071  49.410  32.003  91.263
33697DA     BB319072  49.198  31.994  91.292
33697DA     SC119073  49.180  32.275  91.423
33697DA     SC219074  49.132  32.371  91.648
33697DA     SC319075  49.080  32.588  91.522
33697DA     SC419076  49.150  32.400  91.326
33698DA     BB119077  49.220  31.663  91.349
33698DA     BB219078  49.096  31.726  91.688
33698DA     BB319079  48.883  31.740  91.688
33698DA     SC119080  48.879  32.048  91.643
33698DA     SC219081  48.820  32.252  91.772
33698DA     SC319082  48.801  32.367  91.544
33698DA     SC419083  48.871  32.100  91.491
33699DT     BB119084  48.752  31.592  91.785
33699DT     BB219085  48.672  31.798  92.071
33699DT     BB319086  48.474  31.858  92.062
33699DT     SC119087  48.528  32.032  91.873
33699DT     SC219088  48.508  32.231  91.952
33699DT     SC319089  48.526  32.152  91.638
33700DA     BB119090  48.542  31.689  92.437
33700DA     BB219091  48.383  32.015  92.487
33700DA     BB319092  48.176  32.006  92.436
33700DA     SC119093  48.222  32.087  92.139
33700DA     SC219094  48.175  32.282  91.991
33700DA     SC319095  48.203  32.117  91.797
33700DA     SC419096  48.242  31.968  92.032
33701DA     BB119097  48.176  32.132  92.735
33701DA     BB219098  48.016  32.427  92.584
33701DA     BB319099  47.814  32.383  92.533
33701DA     SC119100  47.883  32.288  92.244
33701DA     SC219101  47.849  32.368  92.011
33701DA     SC319102  47.891  32.124  91.943
33701DA     SC419103  47.910  32.131  92.223
33702DG     BB119104  47.789  32.620  92.725
33702DG     BB219105  47.657  32.781  92.430
33702DG     BB319106  47.470  32.720  92.397
33702DG     SC119107  47.551  32.482  92.222
33702DG     SC219108  47.496  32.452  91.931
33702DG     SC319109  47.605  32.201  92.044
33702DG     SC419110  47.582  32.341  92.293
33703DT     BB119111  47.331  32.869  92.400
33703DT     BB219112  47.247  32.902  92.051
33703DT     BB319113  47.072  32.798  92.010
33703DT     SC119114  47.198  32.568  92.022
33703DT     SC219115  47.209  32.482  91.825
33703DT     SC319116  47.267  32.327  92.103
33704DA     BB119117  47.050  33.189  91.857
33704DA     BB219118  46.942  32.956  91.596
33704DA     BB319119  46.753  32.870  91.646
33704DA     SC119120  46.875  32.627  91.795
33704DA     SC219121  46.895  32.380  91.762
33704DA     SC319122  46.937  32.370  92.015
33704DA     SC419123  46.897  32.641  91.954
33705DT     BB119124  46.612  32.919  91.528
33705DT     BB219125  46.577  32.601  91.361
33705DT     BB319126  46.415  32.499  91.439
33705DT     SC119127  46.547  32.440  91.658
33705DT     SC219128  46.589  32.229  91.661
33705DT     SC319129  46.614  32.431  91.913
33706DT     BB119130  46.289  32.547  91.209
33706DT     BB219131  46.278  32.188  91.246
33706DT     BB319132  46.118  32.135  91.365
33706DT     SC119133  46.242  32.215  91.582
33706DT     SC219134  46.294  32.045  91.702
33706DT     SC319135  46.297  32.354  91.799
33707DT     BB119136  45.992  32.039  91.147
33707DT     BB219137  45.997  31.761  91.376
33707DT     BB319138  45.835  31.772  91.505
33707DT     SC119139  45.947  31.967  91.641
33707DT     SC219140  46.003  31.895  91.836
33707DT     SC319141  45.986  32.206  91.745
33708DT     BB119142  45.712  31.565  91.378
33708DT     BB219143  45.724  31.462  91.723
33708DT     BB319144  45.558  31.534  91.824
33708DT     SC119145  45.658  31.777  91.828
33708DT     SC219146  45.712  31.828  92.030
33708DT     SC319147  45.684  32.035  91.782
33709DA     BB119148  45.545  31.121  91.905
33709DA     BB219149  45.499  31.296  92.225
33709DA     BB319150  45.302  31.376  92.238
33709DA     SC119151  45.379  31.650  92.112
33709DA     SC219152  45.402  31.887  92.187
33709DA     SC319153  45.380  31.946  91.938
33709DA     SC419154  45.362  31.667  91.953
33710DA     BB119155  45.260  31.207  92.525
33710DA     BB219156  45.214  31.530  92.693
33710DA     BB319157  45.015  31.601  92.663
33710DA     SC119158  45.086  31.760  92.405
33710DA     SC219159  45.105  31.998  92.334
33710DA     SC319160  45.080  31.908  92.095
33710DA     SC419161  45.067  31.684  92.264
33711DA     BB119162  44.969  31.621  92.996
33711DA     BB219163  44.927  31.983  92.958
33711DA     BB319164  44.727  32.029  92.900
33711DA     SC119165  44.787  32.016  92.595
33711DA     SC219166  44.802  32.174  92.402
33711DA     SC319167  44.770  31.966  92.255
33711DA     SC419168  44.765  31.875  92.521
33712DA     BB119169  44.713  32.228  93.166
33712DA     BB219170  44.672  32.509  92.934
33712DA     BB319171  44.469  32.523  92.870
33712DA     SC119172  44.509  32.341  92.622
33712DA     SC219173  44.513  32.365  92.373
33712DA     SC319174  44.470  32.112  92.368
33712DA     SC419175  44.481  32.183  92.639
33713DA     BB119176  44.499  32.830  92.981
33713DA     BB219177  44.441  32.940  92.636
33713DA     BB319178  44.234  32.930  92.589
33713DA     SC119179  44.248  32.638  92.480
33713DA     SC219180  44.230  32.522  92.260
33713DA     SC319181  44.182  32.312  92.399
33713DA     SC419182  44.219  32.519  92.584
33714DA     BB119183  44.306  33.236  92.510
33714DA     BB219184  44.212  33.146  92.167
33714DA     BB319185  44.000  33.130  92.150
33714DA     SC119186  43.994  32.826  92.219
33714DA     SC219187  43.947  32.612  92.101
33714DA     SC319188  43.910  32.515  92.336
33714DA     SC419189  43.974  32.785  92.373
33715DA     BB119190  44.087  33.331  91.910
33715DA     BB219191  43.943  33.083  91.683
33715DA     BB319192  43.730  33.082  91.698
33715DA     SC119193  43.722  32.865  91.921
33715DA     SC219194  43.651  32.627  91.945
33715DA     SC319195  43.643  32.676  92.196
33715DA     SC419196  43.721  32.916  92.074
33716DT     BB119197  43.656  33.134  91.541
33716DT     BB219198  43.533  32.811  91.438
33716DT     BB319199  43.332  32.794  91.486
33716DT     SC119200  43.386  32.762  91.740
33716DT     SC219201  43.342  32.559  91.798
33716DT     SC319202  43.395  32.807  92.000
33717DG     BB119203  43.389  32.726  91.088
33717DG     BB219204  43.196  32.462  91.243
33717DG     BB319205  43.011  32.524  91.277
33717DG     SC119206  43.072  32.634  91.556
33717DG     SC219207  42.966  32.526  91.814
33717DG     SC319208  43.108  32.782  91.857
33717DG     SC419209  43.122  32.785  91.571
33718DA     BB119210  42.913  32.234  91.113
33718DA     BB219211  42.722  32.131  91.409
33718DA     BB319212  42.544  32.246  91.426
33718DA     SC119213  42.675  32.467  91.602
33718DA     SC219214  42.663  32.546  91.838
33718DA     SC319215  42.764  32.764  91.749
33718DA     SC419216  42.737  32.595  91.527
33719DT     BB119217  42.360  32.157  91.401
33719DT     BB219218  42.258  32.163  91.747
33719DT     BB319219  42.116  32.310  91.777
33719DT     SC119220  42.297  32.499  91.762
33719DT     SC219221  42.323  32.589  91.956
33719DT     SC319222  42.430  32.710  91.675
33720DC     BB119223  41.906  32.129  91.801
33720DC     BB219224  41.890  32.323  92.105
33720DC     BB319225  41.770  32.489  92.076
33720DC     SC119226  41.957  32.609  91.937
33720DC     SC219227  42.034  32.775  92.049
33720DC     SC319228  42.081  32.722  91.733
33721DA     BB119229  41.600  32.305  92.413
33721DA     BB219230  41.647  32.659  92.495
33721DA     BB319231  41.497  32.777  92.400
33721DA     SC119232  41.665  32.827  92.143
33721DA     SC219233  41.782  33.018  92.033
33721DA     SC319234  41.768  32.877  91.819
33721DA     SC419235  41.645  32.725  92.021
33722DA     BB119236  41.440  32.885  92.706
33722DA     BB219237  41.535  33.219  92.588
33722DA     BB319238  41.375  33.307  92.477
33722DA     SC119239  41.471  33.195  92.203
33722DA     SC219240  41.569  33.284  91.992
33722DA     SC319241  41.487  33.065  91.886
33722DA     SC419242  41.411  33.054  92.155
33723DT     BB119243  41.284  33.472  92.553
33723DT     BB219244  41.433  33.710  92.327
33723DT     BB319245  41.294  33.771  92.186
33723DT     SC119246  41.312  33.543  92.058
33723DT     SC219247  41.408  33.576  91.868
33723DT     SC319248  41.244  33.310  91.954
33724DT     BB119249  41.286  34.010  92.309
33724DT     BB219250  41.379  34.084  91.968
33724DT     BB319251  41.209  34.102  91.851
33724DT     SC119252  41.173  33.842  91.851
33724DT     SC219253  41.211  33.764  91.653
33724DT     SC319254  41.061  33.607  91.893
33725DT     BB119255  41.257  34.365  91.838
33725DT     BB219256  41.247  34.258  91.494
33725DT     BB319257  41.051  34.254  91.427
33725DT     SC119258  41.000  34.035  91.562
33725DT     SC219259  40.972  33.872  91.425
33725DT     SC319260  40.891  33.873  91.739
33726DT     BB119261  41.102  34.472  91.276
33726DT     BB219262  40.980  34.226  91.042
33726DT     BB319263  40.774  34.231  91.035
33726DT     SC119264  40.755  34.111  91.267
33726DT     SC219265  40.678  33.912  91.239
33726DT     SC319266  40.699  34.069  91.522
33727DT     BB119267  40.776  34.350  90.788
33727DT     BB219268  40.578  34.052  90.742
33727DT     BB319269  40.380  34.091  90.787
33727DT     SC119270  40.431  34.093  91.044
33727DT     SC219271  40.340  33.920  91.136
33727DT     SC319272  40.455  34.180  91.292
33728DT     BB119273  40.301  34.087  90.521
33728DT     BB219274  40.092  33.839  90.678
33728DT     BB319275  39.919  33.928  90.750
33728DT     SC119276  40.048  34.036  90.951
33728DT     SC219277  39.988  33.942  91.134
33728DT     SC319278  40.151  34.221  91.109
33729DC     BB119279  39.759  33.818  90.550
33729DC     BB219280  39.609  33.704  90.858
33729DC     BB319281  39.467  33.840  90.922
33729DC     SC119282  39.653  34.007  91.002
33729DC     SC219283  39.652  34.017  91.217
33729DC     SC319284  39.801  34.225  91.018
33730DA     BB119285  39.286  33.463  90.914
33730DA     BB219286  39.222  33.612  91.242
33730DA     BB319287  39.077  33.767  91.226
33730DA     SC119288  39.287  33.992  91.178
33730DA     SC219289  39.377  34.189  91.301
33730DA     SC319290  39.453  34.272  91.071
33730DA     SC419291  39.324  34.027  91.026
33731DG     BB119292  38.931  33.581  91.423
33731DG     BB219293  38.978  33.861  91.647
33731DG     BB319294  38.839  33.999  91.613
33731DG     SC119295  39.005  34.149  91.403
33731DG     SC219296  39.117  34.424  91.431
33731DG     SC319297  39.150  34.325  91.155
33731DG     SC419298  38.994  34.104  91.250
33732DT     BB119299  38.709  34.046  91.772
33732DT     BB219300  38.835  34.368  91.876
33732DT     BB319301  38.716  34.519  91.800
33732DT     SC119302  38.816  34.488  91.560
33732DT     SC219303  38.937  34.659  91.510
33732DT     SC319304  38.831  34.434  91.302
33733DC     BB119305  38.631  34.557  92.050
33733DC     BB219306  38.766  34.875  91.946
33733DC     BB319307  38.624  34.982  91.841
33733DC     SC119308  38.654  34.830  91.629
33733DC     SC219309  38.748  34.943  91.473
33733DC     SC319310  38.599  34.657  91.437
33734DA     BB119311  38.784  35.226  92.142
33734DA     BB219312  38.790  35.414  91.827
33734DA     BB319313  38.592  35.471  91.771
33734DA     SC119314  38.539  35.214  91.603
33734DA     SC219315  38.512  35.153  91.363
33734DA     SC319316  38.397  34.941  91.451
33734DA     SC419317  38.470  35.090  91.678
33735DG     BB119318  38.726  35.747  91.792
33735DG     BB219319  38.655  35.754  91.438
33735DG     BB319320  38.464  35.799  91.407
33735DG     SC119321  38.369  35.508  91.414
33735DG     SC219322  38.256  35.355  91.183
33735DG     SC319323  38.227  35.202  91.435
33735DG     SC419324  38.328  35.442  91.554
33736DT     BB119325  38.426  35.972  91.300
33736DT     BB219326  38.319  35.839  90.981
33736DT     BB319327  38.113  35.843  90.969
33736DT     SC119328  38.092  35.638  91.132
33736DT     SC219329  38.022  35.467  91.022
33736DT     SC319330  38.029  35.496  91.345
33737DG     BB119331  38.283  36.041  90.657
33737DG     BB219332  38.044  35.793  90.546
33737DG     BB319333  37.859  35.858  90.580
33737DG     SC119334  37.842  35.738  90.861
33737DG     SC219335  37.662  35.515  90.946
33737DG     SC319336  37.796  35.638  91.180
33737DG     SC419337  37.892  35.825  90.986
33738DA     BB119338  37.825  35.763  90.250
33738DA     BB219339  37.551  35.540  90.347
33738DA     BB319340  37.379  35.654  90.403
33738DA     SC119341  37.457  35.669  90.704
33738DA     SC219342  37.376  35.576  90.920
33738DA     SC319343  37.506  35.769  91.029
33738DA     SC419344  37.543  35.796  90.752
33739DC     BB119345  37.236  35.628  90.288
33739DC     BB219346  37.025  35.438  90.511
33739DC     BB319347  36.885  35.562  90.598
33739DC     SC119348  37.065  35.667  90.757
33739DC     SC219349  37.027  35.604  90.960
33739DC     SC319350  37.223  35.846  90.870
33740DT     BB119351  36.692  35.451  90.444
33740DT     BB219352  36.568  35.415  90.781
33740DT     BB319353  36.470  35.588  90.839
33740DT     SC119354  36.697  35.716  90.870
33740DT     SC219355  36.730  35.753  91.079
33740DT     SC319356  36.888  35.894  90.834
33741DC     BB119357  36.208  35.484  90.816
33741DC     BB219358  36.216  35.613  91.153
33741DC     BB319359  36.152  35.810  91.154
33741DC     SC119360  36.379  35.892  91.051
33741DC     SC219361  36.489  36.003  91.199
33741DC     SC319362  36.550  35.999  90.881
33742DG     BB119363  35.869  35.638  91.399
33742DG     BB219364  36.017  35.927  91.560
33742DG     BB319365  35.929  36.093  91.495
33742DG     SC119366  36.122  36.134  91.261
33742DG     SC219367  36.319  36.357  91.233
33742DG     SC319368  36.303  36.198  90.984
33742DG     SC419369  36.089  36.065  91.121
33743DA     BB119370  35.849  36.205  91.823
33743DA     BB219371  36.052  36.506  91.777
33743DA     BB319372  35.942  36.654  91.669
33743DA     SC119373  36.041  36.559  91.390
33743DA     SC219374  36.190  36.643  91.209
33743DA     SC319375  36.066  36.478  91.057
33743DA     SC419376  35.951  36.452  91.311
33744DA     BB119377  35.998  36.865  91.922
33744DA     BB219378  36.184  37.076  91.688
33744DA     BB319379  36.050  37.196  91.573
33744DA     SC119380  36.022  36.987  91.343
33744DA     SC219381  36.091  36.965  91.105
33744DA     SC319382  35.906  36.788  91.089
33744DA     SC419383  35.901  36.882  91.354
33745DT     BB119384  36.032  37.420  91.587
33745DT     BB219385  36.206  37.493  91.280
33745DT     BB319386  36.073  37.567  91.139
33745DT     SC119387  35.971  37.328  91.098
33745DT     SC219388  36.027  37.260  90.902
33745DT     SC319389  35.796  37.131  91.090
33746DA     BB119390  36.374  37.860  91.154
33746DA     BB219391  36.324  37.771  90.801
33746DA     BB319392  36.146  37.863  90.726
33746DA     SC119393  35.962  37.623  90.800
33746DA     SC219394  35.834  37.446  90.681
33746DA     SC319395  35.699  37.426  90.899
33746DA     SC419396  35.890  37.627  90.944
33747DT     BB119397  36.151  38.018  90.574
33747DT     BB219398  36.045  37.804  90.303
33747DT     BB319399  35.853  37.853  90.245
33747DT     SC119400  35.751  37.739  90.458
33747DT     SC219401  35.644  37.561  90.400
33747DT     SC319402  35.624  37.709  90.687
33748DT     BB119403  35.949  37.961  90.014
33748DT     BB219404  35.725  37.698  89.909
33748DT     BB319405  35.532  37.771  89.894
33748DT     SC119406  35.505  37.776  90.155
33748DT     SC219407  35.364  37.625  90.214
33748DT     SC319408  35.470  37.869  90.399
33749DA     BB119409  35.650  37.559  89.554
33749DA     BB219410  35.328  37.427  89.669
33749DA     BB319411  35.172  37.567  89.630
33749DA     SC119412  35.199  37.709  89.906
33749DA     SC219413  35.066  37.730  90.116
33749DA     SC319414  35.208  37.939  90.161
33749DA     SC419415  35.296  37.837  89.915
33750DT     BB119416  35.078  37.479  89.528
33750DT     BB219417  34.812  37.413  89.763
33750DT     BB319418  34.667  37.561  89.749
33750DT     SC119419  34.820  37.733  89.875
33750DT     SC219420  34.737  37.773  90.070
33750DT     SC319421  34.966  37.948  89.921
33751DA     BB119422  34.536  37.158  89.768
33751DA     BB219423  34.338  37.361  90.000
33751DA     BB319424  34.220  37.503  89.893
33751DA     SC119425  34.437  37.726  89.900
33751DA     SC219426  34.470  37.947  90.010
33751DA     SC319427  34.642  37.990  89.825
33751DA     SC419428  34.539  37.734  89.776
33752DT     BB119429  34.060  37.458  89.929
33752DT     BB219430  33.973  37.744  90.132
33752DT     BB319431  33.891  37.892  90.013
33752DT     SC119432  34.126  37.955  89.915
33752DT     SC219433  34.184  38.149  89.989
33752DT     SC319434  34.321  37.990  89.741
33753DG     BB119435  33.619  37.802  90.305
33753DG     BB219436  33.671  38.159  90.278
33753DG     BB319437  33.576  38.230  90.118
33753DG     SC119438  33.813  38.188  89.929
33753DG     SC219439  33.970  38.404  89.795
33753DG     SC319440  34.045  38.139  89.689
33753DG     SC419441  33.829  38.048  89.854
33754DT     BB119442  33.393  38.381  90.119
33754DT     BB219443  33.547  38.684  90.000
33754DT     BB319444  33.490  38.720  89.804
33754DT     SC119445  33.648  38.531  89.714
33754DT     SC219446  33.812  38.619  89.606
33754DT     SC319447  33.727  38.306  89.600
33755DT     BB119448  33.300  38.933  89.852
33755DT     BB219449  33.528  39.079  89.613
33755DT     BB319450  33.458  39.050  89.421
33755DT     SC119451  33.526  38.797  89.425
33755DT     SC219452  33.691  38.765  89.291
33755DT     SC319453  33.505  38.534  89.421
33756DT     BB119454  33.367  39.318  89.371
33756DT     BB219455  33.599  39.256  89.102
33756DT     BB319456  33.498  39.183  88.937
33756DT     SC119457  33.468  38.948  89.049
33756DT     SC219458  33.590  38.803  88.946
33756DT     SC319459  33.351  38.736  89.154
33757DT     BB119460  33.526  39.420  88.795
33757DT     BB219461  33.684  39.171  88.587
33757DT     BB319462  33.545  39.089  88.457
33757DT     SC119463  33.437  38.948  88.651
33757DT     SC219464  33.479  38.740  88.620
33757DT     SC319465  33.258  38.860  88.823
33758DA     BB119466  33.881  39.213  88.243
33758DA     BB219467  33.807  38.867  88.149
33758DA     BB319468  33.632  38.859  88.026
33758DA     SC119469  33.436  38.824  88.265
33758DA     SC219470  33.290  38.645  88.358
33758DA     SC319471  33.166  38.836  88.476
33758DA     SC419472  33.372  38.956  88.328
33759DT     BB119473  33.678  38.797  87.864
33759DT     BB219474  33.532  38.469  87.897
33759DT     BB319475  33.345  38.465  87.808
33759DT     SC119476  33.239  38.602  88.005
33759DT     SC219477  33.106  38.474  88.117
33759DT     SC319478  33.119  38.797  88.136
33760DA     BB119479  33.589  38.139  87.700
33760DA     BB219480  33.256  38.014  87.788
33760DA     BB319481  33.113  38.077  87.643
33760DA     SC119482  33.040  38.340  87.793
33760DA     SC219483  32.846  38.433  87.918
33760DA     SC319484  32.953  38.662  87.874
33760DA     SC419485  33.122  38.473  87.753
33761DT     BB119486  33.037  37.935  87.541
33761DT     BB219487  32.705  37.943  87.684
33761DT     BB319488  32.576  38.044  87.557
33761DT     SC119489  32.678  38.276  87.624
33761DT     SC219490  32.534  38.387  87.739
33761DT     SC319491  32.803  38.508  87.604
33762DT     BB119492  32.456  37.809  87.484
33762DT     BB219493  32.182  38.016  87.594
33762DT     BB319494  32.113  38.131  87.436
33762DT     SC119495  32.321  38.291  87.451
33762DT     SC219496  32.259  38.483  87.522
33762DT     SC319497  32.543  38.416  87.383
33763DA     BB119498  31.764  37.939  87.571
33763DA     BB219499  31.682  38.294  87.530
33763DA     BB319500  31.659  38.341  87.323
33763DA     SC119501  31.957  38.418  87.282
33763DA     SC219502  32.091  38.624  87.239
33763DA     SC319503  32.273  38.465  87.155
33763DA     SC419504  32.057  38.302  87.232
33764DA     BB119505  31.353  38.459  87.394
33764DA     BB219506  31.464  38.787  87.275
33764DA     BB319507  31.457  38.796  87.062
33764DA     SC119508  31.749  38.696  87.024
33764DA     SC219509  31.968  38.790  86.947
33764DA     SC319510  32.036  38.545  86.910
33764DA     SC419511  31.773  38.538  87.006
33765DT     BB119512  31.313  38.923  86.936
33765DT     BB219513  31.555  39.170  86.835
33765DT     BB319514  31.593  39.153  86.632
33765DT     SC119515  31.737  38.937  86.669
33765DT     SC219516  31.943  38.981  86.629
33765DT     SC319517  31.814  38.685  86.656
33766DT     BB119518  31.448  39.383  86.556
33766DT     BB219519  31.778  39.443  86.425
33766DT     BB319520  31.791  39.373  86.230
33766DT     SC119521  31.801  39.124  86.313
33766DT     SC219522  31.997  39.044  86.276
33766DT     SC319523  31.733  38.872  86.350
33767DT     BB119524  31.789  39.628  86.119
33767DT     BB219525  32.094  39.480  85.995
33767DT     BB319526  32.058  39.382  85.817
33767DT     SC119527  31.938  39.184  85.940
33767DT     SC219528  32.061  39.008  85.927
33767DT     SC319529  31.749  39.017  86.015
33768DG     BB119530  32.342  39.662  85.727
33768DG     BB219531  32.446  39.332  85.621
33768DG     BB319532  32.361  39.286  85.448
33768DG     SC119533  32.113  39.159  85.576
33768DG     SC219534  32.039  38.870  85.564
33768DG     SC319535  31.820  39.031  85.681
33768DG     SC419536  31.987  39.252  85.610
33769DA     BB119537  32.677  39.213  85.326
33769DA     BB219538  32.575  38.867  85.260
33769DA     BB319539  32.459  38.857  85.081
33769DA     SC119540  32.187  38.897  85.226
33769DA     SC219541  31.984  38.762  85.278
33769DA     SC319542  31.866  38.988  85.310
33769DA     SC419543  32.131  39.047  85.239
33770DA     BB119544  32.686  38.632  85.007
33770DA     BB219545  32.412  38.389  84.990
33770DA     BB319546  32.303  38.413  84.808
33770DA     SC119547  32.099  38.615  84.930
33770DA     SC219548  31.858  38.620  84.991
33770DA     SC319549  31.881  38.875  84.980
33770DA     SC419550  32.133  38.772  84.917
33771DC     BB119551  32.311  38.264  84.681
33771DC     BB219552  31.979  38.138  84.741
33771DC     BB319553  31.853  38.193  84.585
33771DC     SC119554  31.842  38.441  84.671
33771DC     SC219555  31.645  38.481  84.747
33771DC     SC319556  31.871  38.703  84.677
33772DG     BB119557  31.848  37.788  84.627
33772DG     BB219558  31.515  37.928  84.632
33772DG     BB319559  31.459  37.977  84.447
33772DG     SC119560  31.571  38.261  84.463
33772DG     SC219561  31.411  38.513  84.461
33772DG     SC319562  31.700  38.572  84.439
33772DG     SC419563  31.723  38.287  84.421
33773DC     BB119564  31.290  37.880  84.365
33773DC     BB219565  31.041  38.141  84.378
33773DC     BB319566  31.019  38.227  84.191
33773DC     SC119567  31.246  38.357  84.216
33773DC     SC219568  31.207  38.567  84.237
33773DC     SC319569  31.495  38.433  84.170
33774DT     BB119570  30.781  38.108  84.176
33774DT     BB219571  30.711  38.459  84.132
33774DT     BB319572  30.738  38.512  83.934
33774DT     SC119573  30.999  38.503  83.959
33774DT     SC219574  31.079  38.702  83.947
33774DT     SC319575  31.250  38.427  83.924
33775DT     BB119576  30.472  38.536  83.913
33775DT     BB219577  30.602  38.858  83.814
33775DT     BB319578  30.653  38.855  83.614
33775DT     SC119579  30.869  38.713  83.662
33775DT     SC219580  31.043  38.835  83.629
33775DT     SC319581  31.039  38.512  83.660
33776DA     BB119582  30.407  39.188  83.680
33776DA     BB219583  30.701  39.300  83.492
33776DA     BB319584  30.691  39.231  83.290
33776DA     SC119585  30.843  38.966  83.348
33776DA     SC219586  31.065  38.865  83.294
33776DA     SC319587  30.954  38.641  83.349
33776DA     SC419588  30.756  38.836  83.384
33777DT     BB119589  30.672  39.368  83.151
33777DT     BB219590  31.009  39.349  83.023
33777DT     BB319591  31.011  39.243  82.845
33777DT     SC119592  30.980  39.015  82.972
33777DT     SC219593  31.160  38.900  82.957
33777DT     SC319594  30.871  38.788  83.050
33778DT     BB119595  31.059  39.474  82.716
33778DT     BB219596  31.333  39.259  82.623
33778DT     BB319597  31.279  39.140  82.462
33778DT     SC119598  31.129  38.988  82.615
33778DT     SC219599  31.219  38.794  82.633
33778DT     SC319600  30.915  38.870  82.714
33779DA     BB119601  31.643  39.326  82.368
33779DA     BB219602  31.675  38.968  82.294
33779DA     BB319603  31.563  38.918  82.120
33779DA     SC119604  31.303  38.850  82.277
33779DA     SC219605  31.169  38.647  82.333
33779DA     SC319606  30.977  38.811  82.378
33779DA     SC419607  31.196  38.968  82.298
33780DA     BB119608  31.855  38.796  82.033
33780DA     BB219609  31.690  38.469  82.013
33780DA     BB319610  31.567  38.459  81.839
33780DA     SC119611  31.312  38.565  81.982
33780DA     SC219612  31.091  38.477  82.055
33780DA     SC319613  31.017  38.723  82.059
33780DA     SC419614  31.286  38.724  81.978
33781DT     BB119615  31.615  38.328  81.681
33781DT     BB219616  31.355  38.086  81.744
33781DT     BB319617  31.207  38.102  81.600
33781DT     SC119618  31.114  38.322  81.708
33781DT     SC219619  30.922  38.283  81.796
33781DT     SC319620  31.047  38.576  81.737
33782DT     BB119621  31.285  37.868  81.476
33782DT     BB219622  30.937  37.815  81.553
33782DT     BB319623  30.818  37.883  81.398
33782DT     SC119624  30.860  38.133  81.466
33782DT     SC219625  30.677  38.217  81.544
33782DT     SC319626  30.940  38.384  81.453
33783DA     BB119627  30.695  37.488  81.465
33783DA     BB219628  30.394  37.697  81.454
33783DA     BB319629  30.350  37.753  81.253
33783DA     SC119630  30.517  38.015  81.263
33783DA     SC219631  30.475  38.261  81.264
33783DA     SC319632  30.719  38.282  81.188
33783DA     SC419633  30.670  38.007  81.215
33784DA     BB119634  30.056  37.623  81.323
33784DA     BB219635  29.913  37.955  81.261
33784DA     BB319636  29.900  37.992  81.051
33784DA     SC119637  30.182  38.122  81.032
33784DA     SC219638  30.277  38.349  80.992
33784DA     SC319639  30.493  38.225  80.930
33784DA     SC419640  30.306  38.027  80.996
33785DA     BB119641  29.587  38.051  81.128
33785DA     BB219642  29.641  38.393  81.007
33785DA     BB319643  29.643  38.396  80.793
33785DA     SC119644  29.950  38.352  80.771
33785DA     SC219645  30.151  38.483  80.702
33785DA     SC319646  30.265  38.255  80.674
33785DA     SC419647  30.003  38.201  80.758
33786DT     BB119648  29.494  38.494  80.696
33786DT     BB219649  29.689  38.781  80.596
33786DT     BB319650  29.732  38.770  80.394
33786DT     SC119651  29.912  38.584  80.434
33786DT     SC219652  30.108  38.664  80.396
33786DT     SC319653  30.033  38.350  80.423
33787DT     BB119654  29.557  38.973  80.348
33787DT     BB219655  29.870  39.091  80.213
33787DT     BB319656  29.891  39.027  80.018
33787DT     SC119657  29.946  38.782  80.095
33787DT     SC219658  30.152  38.739  80.055
33787DT     SC319659  29.923  38.521  80.128
33788DT     BB119660  29.850  39.281  79.936
33788DT     BB219661  30.171  39.191  79.797
33788DT     BB319662  30.145  39.095  79.615
33788DT     SC119663  30.065  38.875  79.734
33788DT     SC219664  30.214  38.722  79.709
33788DT     SC319665  29.909  38.676  79.807
33789DG     BB119666  30.383  39.419  79.553
33789DG     BB219667  30.533  39.118  79.420
33789DG     BB319668  30.446  39.070  79.247
33789DG     SC119669  30.229  38.897  79.375
33789DG     SC219670  30.200  38.601  79.347
33789DG     SC319671  29.965  38.717  79.484
33789DG     SC419672  30.092  38.966  79.422
33790DA     BB119673  30.770  39.054  79.124
33790DA     BB219674  30.716  38.704  79.029
33790DA     BB319675  30.593  38.692  78.855
33790DA     SC119676  30.327  38.677  79.015
33790DA     SC219677  30.149  38.508  79.063
33790DA     SC319678  30.002  38.709  79.122
33790DA     SC419679  30.250  38.815  79.046
33791DC     BB119680  30.677  38.621  78.693
33791DC     BB219681  30.512  38.300  78.693
33791DC     BB319682  30.360  38.299  78.553
33791DC     SC119683  30.207  38.448  78.706
33791DC     SC219684  30.042  38.330  78.778
33791DC     SC319685  30.064  38.653  78.790
33792DT     BB119686  30.507  38.135  78.396
33792DT     BB219687  30.198  37.957  78.449
33792DT     BB319688  30.057  38.017  78.310
33792DT     SC119689  30.019  38.245  78.434
33792DT     SC219690  29.823  38.246  78.523
33792DT     SC319691  30.014  38.504  78.480
33793DT     BB119692  30.080  37.778  78.182
33793DT     BB219693  29.730  37.803  78.265
33793DT     BB319694  29.629  37.907  78.117
33793DT     SC119695  29.729  38.136  78.199
33793DT     SC219696  29.572  38.255  78.286
33793DT     SC319697  29.865  38.361  78.198
33794DT     BB119698  29.512  37.677  78.036
33794DT     BB219699  29.237  37.897  78.115
33794DT     BB319700  29.191  38.014  77.951
33794DT     SC119701  29.403  38.164  77.989
33794DT     SC219702  29.342  38.360  78.053
33794DT     SC319703  29.637  38.279  77.946
33795DT     BB119704  28.966  37.871  77.924
33795DT     BB219705  28.856  38.213  77.962
33795DT     BB319706  28.859  38.309  77.778
33795DT     SC119707  29.121  38.327  77.784
33795DT     SC219708  29.178  38.533  77.810
33795DT     SC319709  29.374  38.292  77.717
33796DT     BB119710  28.594  38.303  77.791
33796DT     BB219711  28.680  38.652  77.759
33796DT     BB319712  28.711  38.700  77.560
33796DT     SC119713  28.943  38.578  77.558
33796DT     SC219714  29.100  38.724  77.540
33796DT     SC319715  29.132  38.405  77.496
33797DG     BB119716  28.427  38.943  77.722
33797DG     BB219717  28.689  39.131  77.559
33797DG     BB319718  28.667  39.121  77.362
33797DG     SC119719  28.839  38.869  77.332
33797DG     SC219720  29.104  38.853  77.194
33797DG     SC319721  29.005  38.584  77.265
33797DG     SC419722  28.770  38.726  77.345
33798DT     BB119723  28.636  39.300  77.262
33798DT     BB219724  28.952  39.352  77.096
33798DT     BB319725  28.939  39.291  76.899
33798DT     SC119726  28.946  39.038  76.968
33798DT     SC219727  29.133  38.952  76.906
33798DT     SC319728  28.871  38.787  77.001
33799DG     BB119729  29.054  39.683  76.901
33799DG     BB219730  29.274  39.481  76.697
33799DG     BB319731  29.187  39.439  76.523
33799DG     SC119732  29.055  39.182  76.623
33799DG     SC219733  29.120  38.905  76.533
33799DG     SC319734  28.880  38.905  76.705
33799DG     SC419735  28.910  39.190  76.691
33800DT     BB119736  29.271  39.510  76.331
33800DT     BB219737  29.406  39.205  76.193
33800DT     BB319738  29.280  39.131  76.047
33800DT     SC119739  29.108  39.047  76.227
33800DT     SC219740  29.109  38.832  76.231
33800DT     SC319741  28.884  39.024  76.365
33801DA     BB119742  29.646  39.156  75.841
33801DA     BB219743  29.509  38.822  75.774
33801DA     BB319744  29.353  38.834  75.629
33801DA     SC119745  29.127  38.872  75.839
33801DA     SC219746  28.934  38.741  75.928
33801DA     SC319747  28.842  38.967  76.005
33801DA     SC419748  29.086  39.022  75.877
33802DT     BB119749  29.365  38.750  75.420
33802DT     BB219750  29.149  38.467  75.475
33802DT     BB319751  28.970  38.493  75.374
33802DT     SC119752  28.888  38.670  75.550
33802DT     SC219753  28.726  38.586  75.664
33802DT     SC319754  28.809  38.900  75.653
33803DA     BB119755  29.101  38.120  75.233
33803DA     BB219756  28.752  38.079  75.338
33803DA     BB319757  28.621  38.160  75.192
33803DA     SC119758  28.613  38.443  75.319
33803DA     SC219759  28.449  38.587  75.441
33803DA     SC319760  28.602  38.782  75.373
33803DA     SC419761  28.720  38.551  75.267
33804DG     BB119762  28.495  37.872  75.150
33804DG     BB219763  28.198  38.026  75.286
33804DG     BB319764  28.093  38.111  75.140
33804DG     SC119765  28.235  38.382  75.161
33804DG     SC219766  28.111  38.638  75.251
33804DG     SC319767  28.382  38.684  75.143
33804DG     SC419768  28.368  38.406  75.076
33805DA     BB119769  27.811  37.934  75.244
33805DA     BB219770  27.635  38.248  75.314
33805DA     BB319771  27.557  38.332  75.134
33805DA     SC119772  27.811  38.501  75.074
33805DA     SC219773  27.876  38.742  75.072
33805DA     SC319774  28.070  38.667  74.922
33805DA     SC419775  27.924  38.435  74.981
33806DA     BB119776  27.282  38.326  75.310
33806DA     BB219777  27.278  38.691  75.280
33806DA     BB319778  27.211  38.749  75.086
33806DA     SC119779  27.497  38.754  74.963
33806DA     SC219780  27.658  38.925  74.878
33806DA     SC319781  27.767  38.729  74.753
33806DA     SC419782  27.549  38.620  74.892
33807DA     BB119783  27.013  38.919  75.279
33807DA     BB219784  27.157  39.219  75.127
33807DA     BB319785  27.082  39.246  74.929
33807DA     SC119786  27.310  39.083  74.795
33807DA     SC219787  27.507  39.127  74.648
33807DA     SC319788  27.494  38.877  74.590
33807DA     SC419789  27.285  38.926  74.771
33808DG     BB119790  26.998  39.505  75.067
33808DG     BB219791  27.225  39.649  74.826
33808DG     BB319792  27.137  39.661  74.648
33808DG     SC119793  27.228  39.383  74.557
33808DG     SC219794  27.420  39.326  74.336
33808DG     SC319795  27.293  39.077  74.433
33808DG     SC419796  27.136  39.257  74.591
33809DT     BB119797  27.125  39.848  74.580
33809DT     BB219798  27.370  39.850  74.315
33809DT     BB319799  27.277  39.820  74.133
33809DT     SC119800  27.243  39.565  74.184
33809DT     SC219801  27.370  39.448  74.055
33809DT     SC319802  27.123  39.335  74.230
33810DT     BB119803  27.347  40.068  74.099
33810DT     BB219804  27.491  39.889  73.820
33810DT     BB319805  27.346  39.856  73.676
33810DT     SC119806  27.234  39.667  73.820
33810DT     SC219807  27.267  39.476  73.726
33810DT     SC319808  27.054  39.538  73.962
33811DC     BB119809  27.479  40.034  73.533
33811DC     BB219810  27.459  39.743  73.321
33811DC     BB319811  27.276  39.738  73.224
33811DC     SC119812  27.153  39.664  73.444
33811DC     SC219813  27.086  39.461  73.423
33811DC     SC319814  26.990  39.670  73.651
33812DC     BB119815  27.394  39.808  72.988
33812DC     BB219816  27.211  39.507  72.910
33812DC     BB319817  27.016  39.554  72.859
33812DC     SC119818  26.953  39.601  73.109
33812DC     SC219819  26.820  39.448  73.179
33812DC     SC319820  26.878  39.731  73.326
33813DA     BB119821  27.146  39.327  72.529
33813DA     BB219822  26.818  39.196  72.628
33813DA     BB319823  26.663  39.328  72.565
33813DA     SC119824  26.663  39.493  72.829
33813DA     SC219825  26.513  39.528  73.025
33813DA     SC319826  26.647  39.744  73.062
33813DA     SC419827  26.757  39.624  72.834
33814DC     BB119828  26.507  39.287  72.402
33814DC     BB219829  26.227  39.236  72.624
33814DC     BB319830  26.093  39.393  72.606
33814DC     SC119831  26.251  39.553  72.741
33814DC     SC219832  26.162  39.596  72.932
33814DC     SC319833  26.409  39.757  72.796
33815DT     BB119834  25.894  39.252  72.457
33815DT     BB219835  25.715  39.373  72.746
33815DT     BB319836  25.630  39.558  72.704
33815DT     SC119837  25.863  39.677  72.721
33815DT     SC219838  25.867  39.801  72.897
33815DT     SC319839  26.078  39.814  72.651
33816DC     BB119840  25.368  39.459  72.686
33816DC     BB219841  25.350  39.711  72.944
33816DC     BB319842  25.303  39.895  72.860
33816DC     SC119843  25.546  39.921  72.764
33816DC     SC219844  25.648  40.078  72.871
33816DC     SC319845  25.743  39.945  72.591
33817DT     BB119846  25.047  39.889  72.962
33817DT     BB219847  25.190  40.191  73.097
33817DT     BB319848  25.157  40.349  72.967
33817DT     SC119849  25.341  40.262  72.802
33817DT     SC219850  25.509  40.396  72.804
33817DT     SC319851  25.452  40.167  72.582
33818DT     BB119852  24.981  40.448  73.145
33818DT     BB219853  25.227  40.709  73.103
33818DT     BB319854  25.178  40.827  72.940
33818DT     SC119855  25.255  40.640  72.772
33818DT     SC219856  25.434  40.705  72.672
33818DT     SC319857  25.245  40.457  72.583
33819DT     BB119858  25.117  41.020  73.115
33819DT     BB219859  25.370  41.163  72.901
33819DT     BB319860  25.282  41.241  72.731
33819DT     SC119861  25.245  41.002  72.630
33819DT     SC219862  25.375  40.974  72.461
33819DT     SC319863  25.121  40.788  72.538
33820DT     BB119864  25.343  41.478  72.833
33820DT     BB219865  25.504  41.471  72.510
33820DT     BB319866  25.369  41.524  72.362
33820DT     SC119867  25.249  41.291  72.377
33820DT     SC219868  25.288  41.178  72.198
33820DT     SC319869  25.060  41.111  72.419
33821DA     BB119870  25.713  41.758  72.314
33821DA     BB219871  25.623  41.622  71.986
33821DA     BB319872  25.449  41.720  71.910
33821DA     SC119873  25.250  41.517  72.035
33821DA     SC219874  25.095  41.338  71.957
33821DA     SC319875  24.979  41.367  72.184
33821DA     SC419876  25.191  41.550  72.181
33822DA     BB119877  25.647  41.769  71.652
33822DA     BB219878  25.402  41.584  71.451
33822DA     BB319879  25.231  41.705  71.413
33822DA     SC119880  25.077  41.610  71.666
33822DA     SC219881  24.877  41.472  71.720
33822DA     SC319882  24.879  41.592  71.946
33822DA     SC419883  25.094  41.697  71.801
33823DT     BB119884  25.184  41.774  71.218
33823DT     BB219885  24.902  41.556  71.159
33823DT     BB319886  24.726  41.664  71.169
33823DT     SC119887  24.740  41.679  71.431
33823DT     SC219888  24.585  41.558  71.517
33823DT     SC319889  24.761  41.781  71.672
33824DT     BB119890  24.678  41.666  70.890
33824DT     BB219891  24.377  41.523  71.027
33824DT     BB319892  24.238  41.672  71.064
33824DT     SC119893  24.371  41.752  71.276
33824DT     SC219894  24.258  41.705  71.453
33824DT     SC319895  24.511  41.907  71.437
33825DC     BB119896  24.070  41.611  70.845
33825DC     BB219897  23.851  41.590  71.131
33825DC     BB319898  23.761  41.773  71.165
33825DC     SC119899  23.982  41.873  71.264
33825DC     SC219900  23.958  41.905  71.475
33825DC     SC319901  24.195  42.027  71.290
33826DT     BB119902  23.513  41.687  71.073
33826DT     BB219903  23.449  41.797  71.410
33826DT     BB319904  23.399  41.998  71.410
33826DT     SC119905  23.648  42.069  71.368
33826DT     SC219906  23.726  42.164  71.545
33826DT     SC319907  23.860  42.171  71.250
33827DG     BB119908  23.095  41.791  71.583
33827DG     BB219909  23.214  42.056  71.798
33827DG     BB319910  23.141  42.231  71.737
33827DG     SC119911  23.373  42.290  71.547
33827DG     SC219912  23.574  42.509  71.578
33827DG     SC319913  23.601  42.378  71.315
33827DG     SC419914  23.365  42.237  71.396
33828DA     BB119915  23.059  42.251  72.068
33828DA     BB219916  23.257  42.558  72.095
33828DA     BB319917  23.156  42.720  72.000
33828DA     SC119918  23.290  42.672  71.723
33828DA     SC219919  23.457  42.786  71.577
33828DA     SC319920  23.356  42.646  71.387
33828DA     SC419921  23.213  42.578  71.619
33829DG     BB119922  23.194  42.817  72.288
33829DG     BB219923  23.394  43.069  72.124
33829DG     BB319924  23.276  43.204  72.038
33829DG     SC119925  23.259  43.055  71.771
33829DG     SC219926  23.372  43.148  71.511
33829DG     SC319927  23.203  42.909  71.473
33829DG     SC419928  23.144  42.946  71.751
33830DA     BB119929  23.487  43.418  72.209
33830DA     BB219930  23.567  43.585  71.892
33830DA     BB319931  23.399  43.697  71.823
33830DA     SC119932  23.282  43.462  71.655
33830DA     SC219933  23.251  43.405  71.415
33830DA     SC319934  23.073  43.240  71.498
33830DA     SC419935  23.174  43.367  71.727
33831DG     BB119936  23.602  43.931  71.845
33831DG     BB219937  23.544  43.955  71.489
33831DG     BB319938  23.373  44.049  71.454
33831DG     SC119939  23.204  43.794  71.457
33831DG     SC219940  23.061  43.676  71.223
33831DG     SC319941  22.986  43.537  71.473
33831DG     SC419942  23.144  43.742  71.596
33832DA     BB119943  23.550  44.260  71.240
33832DA     BB219944  23.331  44.166  70.962
33832DA     BB319945  23.141  44.262  70.982
33832DA     SC119946  23.014  44.029  71.145
33832DA     SC219947  22.840  43.853  71.111
33832DA     SC319948  22.831  43.841  71.367
33832DA     SC419949  23.022  44.038  71.305
33833DC     BB119950  23.083  44.405  70.847
33833DC     BB219951  22.835  44.209  70.673
33833DC     BB319952  22.645  44.269  70.729
33833DC     SC119953  22.667  44.150  70.962
33833DC     SC219954  22.535  43.980  70.968
33833DC     SC319955  22.681  44.116  71.223
33834DG     BB119956  22.654  44.325  70.324
33834DG     BB219957  22.364  44.132  70.422
33834DG     BB319958  22.223  44.253  70.492
33834DG     SC119959  22.321  44.239  70.782
33834DG     SC219960  22.175  44.114  71.010
33834DG     SC319961  22.413  44.262  71.105
33834DG     SC419962  22.431  44.343  70.831
33835DT     BB119963  22.013  44.286  70.394
33835DT     BB219964  21.799  44.103  70.621
33835DT     BB319965  21.692  44.235  70.738
33835DT     SC119966  21.903  44.291  70.883
33835DT     SC219967  21.877  44.209  71.081
33835DT     SC319968  22.100  44.428  70.993
33836DG     BB119969  21.392  44.030  70.545
33836DG     BB219970  21.337  44.030  70.903
33836DG     BB319971  21.253  44.201  70.959
33836DG     SC119972  21.519  44.345  71.007
33836DG     SC219973  21.623  44.436  71.272
33836DG     SC319974  21.791  44.539  71.051
33836DG     SC419975  21.588  44.422  70.885
33837DT     BB119976  21.025  44.239  71.055
33837DT     BB219977  21.111  44.297  71.401
33837DT     BB319978  21.081  44.496  71.448
33837DT     SC119979  21.297  44.568  71.318
33837DT     SC219980  21.447  44.634  71.458
33837DT     SC319981  21.451  44.684  71.138
33838DA     BB119982  20.843  44.308  71.742
33838DA     BB219983  21.062  44.546  71.917
33838DA     BB319984  20.986  44.744  71.897
33838DA     SC119985  21.147  44.806  71.638
33838DA     SC219986  21.338  44.950  71.569
33838DA     SC319987  21.249  44.920  71.331
33838DA     SC419988  21.075  44.777  71.497
33839DA     BB119989  20.986  44.761  72.229
33839DA     BB219990  21.242  45.022  72.199
33839DA     BB319991  21.151  45.211  72.159
33839DA     SC119992  21.165  45.179  71.849
33839DA     SC219993  21.289  45.280  71.659
33839DA     SC319994  21.100  45.187  71.512
33839DA     SC419995  21.037  45.114  71.776
33840DA     BB119996  21.323  45.292  72.422
33840DA     BB219997  21.515  45.513  72.201
33840DA     BB319998  21.405  45.691  72.160
33840DA     SC119999  21.265  45.577  71.906
33840DA     SC220000  21.273  45.613  71.660
33840DA     SC320001  21.042  45.502  71.657
33840DA     SC420002  21.122  45.507  71.925
33841DA     BB120003  21.694  45.788  72.263
33841DA     BB220004  21.733  45.939  71.932
33841DA     BB320005  21.610  46.113  71.914
33841DA     SC120006  21.365  45.958  71.801
33841DA     SC220007  21.243  45.938  71.585
33841DA     SC320008  21.049  45.848  71.726
33841DA     SC420009  21.256  45.905  71.906
33842DA     BB120010  21.916  46.175  71.820
33842DA     BB220011  21.766  46.265  71.498
33842DA     BB320012  21.646  46.441  71.519
33842DA     SC120013  21.385  46.284  71.583
33842DA     SC220014  21.167  46.237  71.472
33842DA     SC320015  21.082  46.183  71.708
33842DA     SC420016  21.351  46.257  71.738
33843DT     BB120017  21.723  46.554  71.418
33843DT     BB220018  21.472  46.567  71.159
33843DT     BB320019  21.337  46.719  71.199
33843DT     SC120020  21.223  46.578  71.389
33843DT     SC220021  21.026  46.519  71.326
33843DT     SC320022  21.141  46.505  71.629
33844DC     BB120023  21.448  46.843  70.994
33844DC     BB220024  21.096  46.836  70.917
33844DC     BB320025  20.999  46.991  71.014
33844DC     SC120026  21.015  46.868  71.245
33844DC     SC220027  20.819  46.805  71.306
33844DC     SC320028  21.082  46.816  71.495
33845DT     BB120029  20.969  47.135  70.781
33845DT     BB220030  20.634  47.116  70.914
33845DT     BB320031  20.601  47.274  71.044
33845DT     SC120032  20.748  47.162  71.230
33845DT     SC220033  20.622  47.098  71.392
33845DT     SC320034  20.945  47.125  71.402
33846DA     BB120035  20.279  47.331  70.776
33846DA     BB220036  20.139  47.350  71.114
33846DA     BB320037  20.180  47.540  71.201
33846DA     SC120038  20.448  47.449  71.330
33846DA     SC220039  20.538  47.406  71.559
33846DA     SC320040  20.769  47.435  71.452
33846DA     SC420041  20.583  47.472  71.245
33847DT     BB120042  20.027  47.720  71.254
33847DT     BB220043  20.026  47.663  71.610
33847DT     BB320044  20.115  47.822  71.708
33847DT     SC120045  20.354  47.744  71.633
33847DT     SC220046  20.463  47.674  71.805
33847DT     SC320047  20.590  47.746  71.516
33848DA     BB120048  19.741  47.799  71.897
33848DA     BB220049  19.995  47.798  72.161
33848DA     BB320050  20.068  47.996  72.195
33848DA     SC120051  20.299  47.974  71.988
33848DA     SC220052  20.548  47.961  71.990
33848DA     SC320053  20.534  48.036  71.746
33848DA     SC420054  20.269  48.023  71.838
33849DT     BB120055  20.030  48.078  72.374
33849DT     BB220056  20.362  48.030  72.506
33849DT     BB320057  20.462  48.211  72.514
33849DT     SC120058  20.498  48.212  72.254
33849DT     SC220059  20.707  48.182  72.211
33849DT     SC320060  20.482  48.285  72.001
33850DC     BB120061  20.437  48.166  72.768
33850DC     BB220062  20.792  48.185  72.706
33850DC     BB320063  20.851  48.383  72.695
33850DC     SC120064  20.744  48.411  72.457
33850DC     SC220065  20.901  48.433  72.311
33850DC     SC320066  20.587  48.497  72.264
33851DA     BB120067  21.090  48.124  72.929
33851DA     BB220068  21.306  48.323  72.708
33851DA     BB320069  21.298  48.529  72.763
33851DA     SC120070  21.061  48.596  72.573
33851DA     SC220071  21.024  48.726  72.363
33851DA     SC320072  20.777  48.726  72.431
33851DA     SC420073  20.913  48.587  72.633
33852DG     BB120074  21.592  48.439  72.773
33852DG     BB220075  21.620  48.691  72.516
33852DG     BB320076  21.604  48.873  72.596
33852DG     SC120077  21.299  48.885  72.564
33852DG     SC220078  21.149  49.070  72.385
33852DG     SC320079  20.964  48.924  72.564
33852DG     SC420080  21.207  48.828  72.682
33853DT     BB120081  21.764  48.984  72.566
33853DT     BB220082  21.650  49.228  72.327
33853DT     BB320083  21.588  49.400  72.425
33853DT     SC120084  21.367  49.284  72.506
33853DT     SC220085  21.199  49.371  72.404
33853DT     SC320086  21.184  49.183  72.667
33854DA     BB120087  21.853  49.502  72.115
33854DA     BB220088  21.563  49.725  72.097
33854DA     BB320089  21.564  49.862  72.261
33854DA     SC120090  21.396  49.678  72.447
33854DA     SC220091  21.167  49.676  72.546
33854DA     SC320092  21.265  49.511  72.717
33854DA     SC420093  21.476  49.579  72.545
33855DA     BB120094  21.533  50.067  72.006
33855DA     BB220095  21.221  50.180  72.162
33855DA     BB320096  21.263  50.295  72.336
33855DA     SC120097  21.257  50.051  72.529
33855DA     SC220098  21.112  49.963  72.711
33855DA     SC320099  21.318  49.829  72.784
33855DA     SC420100  21.397  49.977  72.559
33856DC     BB120101  21.214  50.482  72.327
33856DC     BB220102  20.932  50.469  72.553
33856DC     BB320103  20.987  50.541  72.739
33856DC     SC120104  21.120  50.321  72.793
33856DC     SC220105  21.018  50.212  72.947
33856DC     SC320106  21.322  50.161  72.848
33857DC     BB120107  20.843  50.765  72.694
33857DC     BB220108  20.715  50.638  73.007
33857DC     BB320109  20.832  50.706  73.163
33857DC     SC120110  21.024  50.538  73.102
33857DC     SC220111  21.038  50.386  73.255
33857DC     SC320112  21.261  50.448  73.027
33858DA     BB120113  20.443  50.820  73.278
33858DA     BB220114  20.599  50.662  73.569
33858DA     BB320115  20.743  50.794  73.657
33858DA     SC120116  20.980  50.687  73.487
33858DA     SC220117  21.188  50.554  73.522
33858DA     SC320118  21.268  50.657  73.301
33858DA     SC420119  21.012  50.763  73.348
33859DA     BB120120  20.588  50.781  73.961
33859DA     BB220121  20.895  50.639  74.102
33859DA     BB320122  21.036  50.793  74.146
33859DA     SC120123  21.172  50.782  73.866
33859DA     SC220124  21.391  50.710  73.771
33859DA     SC320125  21.330  50.858  73.571
33859DA     SC420126  21.117  50.880  73.752
33860DA     BB120127  21.070  50.721  74.484
33860DA     BB220128  21.422  50.640  74.424
33860DA     BB320129  21.542  50.816  74.434
33860DA     SC120130  21.516  50.880  74.130
33860DA     SC220131  21.663  50.879  73.929
33860DA     SC320132  21.488  51.035  73.825
33860DA     SC420133  21.397  50.977  74.084
33861DA     BB120134  21.749  50.701  74.683
33861DA     BB220135  22.026  50.708  74.443
33861DA     BB320136  22.117  50.901  74.441
33861DA     SC120137  21.935  51.013  74.215
33861DA     SC220138  21.957  51.080  73.976
33861DA     SC320139  21.741  51.212  74.015
33861DA     SC420140  21.800  51.089  74.260
33862DG     BB120141  22.389  50.770  74.538
33862DG     BB220142  22.501  50.863  74.207
33862DG     BB320143  22.574  51.048  74.210
33862DG     SC120144  22.305  51.182  74.148
33862DG     SC220145  22.236  51.330  73.898
33862DG     SC320146  22.024  51.362  74.102
33862DG     SC420147  22.209  51.221  74.270
33863DA     BB120148  22.846  50.905  74.058
33863DA     BB220149  22.792  51.118  73.764
33863DA     BB320150  22.859  51.317  73.804
33863DA     SC120151  22.583  51.414  73.911
33863DA     SC220152  22.401  51.568  73.837
33863DA     SC320153  22.332  51.570  74.084
33863DA     SC420154  22.557  51.404  74.069
33864DT     BB120155  23.001  51.365  73.695
33864DT     BB220156  22.817  51.585  73.477
33864DT     BB320157  22.848  51.782  73.532
33864DT     SC120158  22.691  51.756  73.741
33864DT     SC220159  22.512  51.870  73.711
33864DT     SC320160  22.613  51.747  73.993
33865DT     BB120161  22.991  51.807  73.309
33865DT     BB220162  22.735  52.060  73.284
33865DT     BB320163  22.794  52.230  73.386
33865DT     SC120164  22.747  52.117  73.618
33865DT     SC220165  22.576  52.210  73.709
33865DT     SC320166  22.789  52.016  73.858
33866DA     BB120167  22.685  52.356  73.000
33866DA     BB220168  22.518  52.577  73.241
33866DA     BB320169  22.659  52.711  73.328
33866DA     SC120170  22.728  52.523  73.566
33866DA     SC220171  22.691  52.517  73.813
33866DA     SC320172  22.887  52.351  73.817
33866DA     SC420173  22.852  52.423  73.548
33867DC     BB120174  22.654  52.922  73.291
33867DC     BB220175  22.521  53.016  73.613
33867DC     BB320176  22.668  53.107  73.726
33867DC     SC120177  22.786  52.878  73.772
33867DC     SC220178  22.762  52.826  73.979
33867DC     SC320179  22.970  52.689  73.772
33868DA     BB120180  22.348  53.378  73.727
33868DA     BB220181  22.451  53.325  74.075
33868DA     BB320182  22.631  53.431  74.117
33868DA     SC120183  22.817  53.195  74.038
33868DA     SC220184  22.971  53.035  74.153
33868DA     SC320185  23.075  53.001  73.921
33868DA     SC420186  22.869  53.188  73.886
33869DA     BB120187  22.438  53.541  74.353
33869DA     BB220188  22.672  53.383  74.586
33869DA     BB320189  22.850  53.499  74.603
33869DA     SC120190  22.998  53.351  74.372
33869DA     SC220191  23.190  53.195  74.347
33869DA     SC320192  23.195  53.271  74.102
33869DA     SC420193  22.985  53.413  74.224
33870DA     BB120194  22.734  53.433  74.896
33870DA     BB220195  23.053  53.259  74.949
33870DA     BB320196  23.213  53.400  74.958
33870DA     SC120197  23.272  53.389  74.653
33870DA     SC220198  23.451  53.304  74.502
33870DA     SC320199  23.354  53.466  74.328
33870DA     SC420200  23.198  53.497  74.559
33871DA     BB120201  23.223  53.192  75.208
33871DA     BB220202  23.557  53.105  75.083
33871DA     BB320203  23.689  53.271  75.105
33871DA     SC120204  23.627  53.389  74.823
33871DA     SC220205  23.745  53.417  74.605
33871DA     SC320206  23.569  53.597  74.557
33871DA     SC420207  23.510  53.498  74.813
33872DA     BB120208  23.830  53.004  75.229
33872DA     BB220209  24.100  53.071  74.990
33872DA     BB320210  24.201  53.252  75.042
33872DA     SC120211  24.018  53.433  74.868
33872DA     SC220212  24.037  53.569  74.659
33872DA     SC320213  23.829  53.692  74.745
33872DA     SC420214  23.890  53.499  74.939
33873DA     BB120215  24.438  53.028  75.006
33873DA     BB220216  24.578  53.254  74.753
33873DA     BB320217  24.654  53.430  74.845
33873DA     SC120218  24.387  53.588  74.820
33873DA     SC220219  24.299  53.782  74.691
33873DA     SC320220  24.119  53.796  74.874
33873DA     SC420221  24.285  53.581  74.945
33874DG     BB120222  24.911  53.326  74.707
33874DG     BB220223  24.886  53.639  74.529
33874DG     BB320224  24.951  53.788  74.643
33874DG     SC120225  24.678  53.846  74.767
33874DG     SC220226  24.515  54.094  74.727
33874DG     SC320227  24.397  53.923  74.938
33874DG     SC420228  24.634  53.767  74.899
33875DA     BB120229  25.149  53.872  74.371
33875DA     BB220230  24.999  54.206  74.364
33875DA     BB320231  25.074  54.325  74.525
33875DA     SC120232  24.849  54.241  74.723
33875DA     SC220233  24.652  54.346  74.833
33875DA     SC320234  24.669  54.153  75.002
33875DA     SC420235  24.877  54.114  74.818
33876DA     BB120236  25.141  54.531  74.277
33876DA     BB220237  24.929  54.776  74.448
33876DA     BB320238  25.029  54.856  74.618
33876DA     SC120239  24.917  54.641  74.814
33876DA     SC220240  24.756  54.631  75.004
33876DA     SC320241  24.876  54.413  75.067
33876DA     SC420242  25.006  54.509  74.838
33877DA     BB120243  24.960  55.147  74.476
33877DA     BB220244  24.776  55.235  74.781
33877DA     BB320245  24.912  55.283  74.938
33877DA     SC120246  24.928  54.991  75.047
33877DA     SC220247  24.853  54.865  75.248
33877DA     SC320248  25.032  54.693  75.182
33877DA     SC420249  25.045  54.897  74.990
33878DA     BB120250  24.748  55.573  74.965
33878DA     BB220251  24.672  55.484  75.312
33878DA     BB320252  24.842  55.516  75.436
33878DA     SC120253  24.953  55.228  75.400
33878DA     SC220254  24.982  55.022  75.538
33878DA     SC320255  25.155  54.953  75.362
33878DA     SC420256  25.058  55.203  75.281
33879DC     BB120257  24.875  55.682  75.603
33879DC     BB220258  24.851  55.464  75.890
33879DC     BB320259  25.035  55.447  75.982
33879DC     SC120260  25.124  55.290  75.791
33879DC     SC220261  25.149  55.091  75.869
33879DC     SC320262  25.269  55.202  75.590
33880DT     BB120263  25.018  55.630  76.225
33880DT     BB220264  25.120  55.317  76.372
33880DT     BB320265  25.326  55.315  76.397
33880DT     SC120266  25.365  55.279  76.140
33880DT     SC220267  25.441  55.080  76.107
33880DT     SC320268  25.444  55.324  75.893
33881DA     BB120269  25.234  55.248  76.809
33881DA     BB220270  25.473  54.987  76.715
33881DA     BB320271  25.672  55.062  76.724
33881DA     SC120272  25.677  55.156  76.427
33881DA     SC220273  25.789  55.091  76.214
33881DA     SC320274  25.732  55.328  76.135
33881DA     SC420275  25.633  55.308  76.397
33882DT     BB120276  25.847  54.999  76.876
33882DT     BB220277  26.023  54.792  76.639
33882DT     BB320278  26.207  54.876  76.596
33882DT     SC120279  26.097  55.061  76.446
33882DT     SC220280  26.147  55.026  76.240
33882DT     SC320281  26.022  55.299  76.361
33883DA     BB120282  26.282  54.480  76.710
33883DA     BB220283  26.445  54.536  76.387
33883DA     BB320284  26.623  54.651  76.412
33883DA     SC120285  26.481  54.925  76.373
33883DA     SC220286  26.474  55.107  76.203
33883DA     SC320287  26.384  55.253  76.393
33883DA     SC420288  26.427  55.000  76.505
33884DT     BB120289  26.794  54.560  76.369
33884DT     BB220290  26.849  54.726  76.054
33884DT     BB320291  26.997  54.869  76.074
33884DT     SC120292  26.834  55.031  76.202
33884DT     SC220293  26.789  55.200  76.077
33884DT     SC320294  26.732  55.178  76.395
33885DT     BB120295  27.148  54.708  75.925
33885DT     BB220296  27.134  55.019  75.743
33885DT     BB320297  27.277  55.150  75.814
33885DT     SC120298  27.136  55.198  76.030
33885DT     SC220299  27.062  55.400  76.023
33885DT     SC320300  27.068  55.208  76.285
33886DT     BB120301  27.406  55.110  75.584
33886DT     BB220302  27.348  55.466  75.600
33886DT     BB320303  27.498  55.557  75.710
33886DT     SC120304  27.397  55.468  75.935
33886DT     SC220305  27.315  55.632  76.047
33886DT     SC320306  27.375  55.335  76.162
33887DA     BB120307  27.449  55.755  75.344
33887DA     BB220308  27.450  56.006  75.612
33887DA     BB320309  27.646  56.027  75.693
33887DA     SC120310  27.605  55.811  75.912
33887DA     SC220311  27.583  55.801  76.160
33887DA     SC320312  27.648  55.554  76.137
33887DA     SC420313  27.649  55.660  75.877
33888DG     BB120314  27.592  56.314  75.596
33888DG     BB220315  27.614  56.385  75.950
33888DG     BB320316  27.804  56.392  76.006
33888DG     SC120317  27.821  56.094  76.072
33888DG     SC220318  27.859  55.977  76.344
33888DG     SC320319  27.881  55.768  76.136
33888DG     SC420320  27.862  55.991  75.957
33889DA     BB120321  27.696  56.688  76.142
33889DA     BB220322  27.802  56.569  76.473
33889DA     BB320323  28.015  56.568  76.486
33889DA     SC120324  28.045  56.275  76.384
33889DA     SC220325  28.111  56.053  76.477
33889DA     SC320326  28.152  55.986  76.233
33889DA     SC420327  28.066  56.253  76.226
33890DG     BB120328  27.925  56.749  76.715
33890DG     BB220329  28.083  56.491  76.913
33890DG     BB320330  28.280  56.508  76.902
33890DG     SC120331  28.307  56.326  76.657
33890DG     SC220332  28.439  56.059  76.651
33890DG     SC320333  28.370  56.149  76.377
33890DG     SC420334  28.295  56.391  76.511
33891DA     BB120335  28.244  56.485  77.245
33891DA     BB220336  28.471  56.197  77.244
33891DA     BB320337  28.670  56.260  77.199
33891DA     SC120338  28.639  56.221  76.892
33891DA     SC220339  28.725  56.067  76.716
33891DA     SC320340  28.659  56.251  76.550
33891DA     SC420341  28.592  56.348  76.805
33892DA     BB120342  28.715  56.089  77.476
33892DA     BB220343  28.944  55.878  77.283
33892DA     BB320344  29.123  55.984  77.238
33892DA     SC120345  29.018  56.097  76.968
33892DA     SC220346  29.062  56.064  76.725
33892DA     SC320347  28.950  56.293  76.694
33892DA     SC420348  28.946  56.241  76.970
33893DT     BB120349  29.293  55.922  77.322
33893DT     BB220350  29.444  55.783  77.025
33893DT     BB320351  29.589  55.912  76.953
33893DT     SC120352  29.407  56.075  76.858
33893DT     SC220353  29.409  56.069  76.643
33893DT     SC320354  29.263  56.294  76.825
33894DT     BB120355  29.794  55.750  77.038
33894DT     BB220356  29.858  55.794  76.686
33894DT     BB320357  29.972  55.964  76.656
33894DT     SC120358  29.765  56.119  76.701
33894DT     SC220359  29.706  56.215  76.517
33894DT     SC320360  29.611  56.300  76.815
33895DC     BB120361  30.205  55.823  76.599
33895DC     BB220362  30.159  56.034  76.310
33895DC     BB320363  30.252  56.217  76.340
33895DC     SC120364  30.063  56.295  76.505
33895DC     SC220365  29.949  56.452  76.413
33895DC     SC320366  29.944  56.373  76.727
33896DT     BB120367  30.464  56.163  76.166
33896DT     BB220368  30.321  56.468  76.038
33896DT     BB320369  30.412  56.632  76.128
33896DT     SC120370  30.281  56.591  76.352
33896DT     SC220371  30.137  56.749  76.380
33896DT     SC320372  30.235  56.538  76.606
33897DT     BB120373  30.560  56.703  75.901
33897DT     BB220374  30.370  56.999  75.977
33897DT     BB320375  30.477  57.121  76.106
33897DT     SC120376  30.427  56.962  76.309
33897DT     SC220377  30.293  57.060  76.446
33897DT     SC320378  30.468  56.794  76.509
33898DA     BB120379  30.369  57.365  75.783
33898DA     BB220380  30.270  57.538  76.091
33898DA     BB320381  30.442  57.618  76.189
33898DA     SC120382  30.492  57.363  76.362
33898DA     SC220383  30.476  57.297  76.601
33898DA     SC320384  30.635  57.105  76.538
33898DA     SC420385  30.592  57.252  76.302
33899DC     BB120386  30.464  57.822  76.205
33899DC     BB220387  30.376  57.844  76.554
33899DC     BB320388  30.545  57.880  76.667
33899DC     SC120389  30.626  57.632  76.639
33899DC     SC220390  30.611  57.530  76.828
33899DC     SC320391  30.775  57.426  76.569
33900DA     BB120392  30.251  58.160  76.768
33900DA     BB220393  30.376  58.008  77.078
33900DA     BB320394  30.572  58.079  77.121
33900DA     SC120395  30.715  57.851  76.965
33900DA     SC220396  30.854  57.651  77.018
33900DA     SC320397  30.931  57.665  76.774
33900DA     SC420398  30.752  57.877  76.811
33901DA     BB120399  30.419  58.142  77.401
33901DA     BB220400  30.658  57.915  77.560
33901DA     BB320401  30.849  58.008  77.576
33901DA     SC120402  30.951  57.904  77.302
33901DA     SC220403  31.120  57.741  77.217
33901DA     SC320404  31.105  57.871  76.996
33901DA     SC420405  30.929  57.999  77.174
33902DC     BB120406  30.904  58.038  77.756
33902DC     BB220407  31.156  57.780  77.770
33902DC     BB320408  31.344  57.863  77.749
33902DC     SC120409  31.307  57.899  77.492
33902DC     SC220410  31.434  57.766  77.382
33902DC     SC320411  31.278  58.022  77.260
33903DA     BB120412  31.346  57.618  78.089
33903DA     BB220413  31.643  57.537  77.890
33903DA     BB320414  31.786  57.695  77.903
33903DA     SC120415  31.677  57.848  77.656
33903DA     SC220416  31.750  57.899  77.423
33903DA     SC320417  31.578  58.090  77.433
33903DA     SC420418  31.566  57.962  77.682
33904DA     BB120419  31.990  57.452  77.996
33904DA     BB220420  32.198  57.535  77.706
33904DA     BB320421  32.311  57.712  77.745
33904DA     SC120422  32.095  57.905  77.630
33904DA     SC220423  32.066  58.053  77.432
33904DA     SC320424  31.886  58.171  77.571
33904DA     SC420425  31.987  57.965  77.733
33905DT     BB120426  32.526  57.711  77.766
33905DT     BB220427  32.601  57.864  77.448
33905DT     BB320428  32.668  58.057  77.476
33905DT     SC120429  32.425  58.142  77.529
33905DT     SC220430  32.357  58.267  77.369
33905DT     SC320431  32.222  58.243  77.663
33906DG     BB120432  32.986  57.881  77.287
33906DG     BB220433  32.887  58.183  77.116
33906DG     BB320434  32.966  58.342  77.206
33906DG     SC120435  32.730  58.381  77.397
33906DG     SC220436  32.541  58.613  77.396
33906DG     SC320437  32.498  58.442  77.634
33906DG     SC420438  32.730  58.305  77.537
33907DA     BB120439  33.097  58.443  76.900
33907DA     BB220440  32.901  58.753  76.916
33907DA     BB320441  32.996  58.894  77.044
33907DA     SC120442  32.846  58.800  77.300
33907DA     SC220443  32.670  58.888  77.453
33907DA     SC320444  32.759  58.716  77.621
33907DA     SC420445  32.916  58.688  77.391
33908DT     BB120446  33.064  59.060  76.960
33908DT     BB220447  32.803  59.278  77.080
33908DT     BB320448  32.875  59.396  77.234
33908DT     SC120449  32.870  59.195  77.402
33908DT     SC220450  32.716  59.227  77.548
33908DT     SC320451  32.955  59.009  77.569
33909DG     BB120452  32.716  59.621  76.935
33909DG     BB220453  32.573  59.703  77.257
33909DG     BB320454  32.701  59.812  77.363
33909DG     SC120455  32.836  59.570  77.493
33909DG     SC220456  32.826  59.498  77.783
33909DG     SC320457  33.020  59.327  77.639
33909DG     SC420458  32.960  59.500  77.419
33910DA     BB120459  32.414  59.997  77.395
33910DA     BB220460  32.444  59.970  77.759
33910DA     BB320461  32.610  60.085  77.829
33910DA     SC120462  32.813  59.850  77.807
33910DA     SC220463  32.943  59.704  77.961
33910DA     SC320464  33.094  59.659  77.758
33910DA     SC420465  32.895  59.836  77.670
33911DA     BB120466  32.355  60.177  78.014
33911DA     BB220467  32.558  60.073  78.300
33911DA     BB320468  32.724  60.205  78.325
33911DA     SC120469  32.915  60.038  78.145
33911DA     SC220470  33.117  59.895  78.173
33911DA     SC320471  33.156  59.937  77.922
33911DA     SC420472  32.922  60.077  77.989
33912DT     BB120473  32.717  60.303  78.484
33912DT     BB220474  32.985  60.134  78.657
33912DT     BB320475  33.159  60.245  78.643
33912DT     SC120476  33.192  60.174  78.392
33912DT     SC220477  33.362  60.042  78.378
33912DT     SC320478  33.215  60.191  78.130
33913DA     BB120479  33.102  60.161  79.051
33913DA     BB220480  33.451  60.085  78.967
33913DA     BB320481  33.561  60.265  78.937
33913DA     SC120482  33.503  60.277  78.631
33913DA     SC220483  33.630  60.250  78.418
33913DA     SC320484  33.437  60.380  78.310
33913DA     SC420485  33.375  60.361  78.583
33914DA     BB120486  33.764  60.137  79.165
33914DA     BB220487  34.028  60.148  78.911
33914DA     BB320488  34.099  60.347  78.886
33914DA     SC120489  33.896  60.416  78.660
33914DA     SC220490  33.901  60.461  78.414
33914DA     SC320491  33.674  60.573  78.451
33914DA     SC420492  33.756  60.483  78.703
33915DT     BB120493  34.292  60.400  78.942
33915DT     BB220494  34.429  60.428  78.609
33915DT     BB320495  34.455  60.627  78.559
33915DT     SC120496  34.197  60.660  78.524
33915DT     SC220497  34.157  60.689  78.314
33915DT     SC320498  33.951  60.749  78.557
33916DG     BB120499  34.828  60.463  78.528
33916DG     BB220500  34.738  60.641  78.226
33916DG     BB320501  34.763  60.837  78.253
33916DG     SC120502  34.479  60.884  78.357
33916DG     SC220503  34.266  61.041  78.219
33916DG     SC320504  34.183  60.969  78.494
33916DG     SC420505  34.450  60.869  78.514
33917DG     BB120506  34.980  60.855  78.001
33917DG     BB220507  34.742  61.074  77.839
33917DG     BB320508  34.768  61.261  77.902
33917DG     SC120509  34.574  61.235  78.137
33917DG     SC220510  34.313  61.378  78.165
33917DG     SC320511  34.383  61.237  78.415
33917DG     SC420512  34.629  61.184  78.278
33918DA     BB120513  34.791  61.364  77.568
33918DA     BB220514  34.499  61.580  77.612
33918DA     BB320515  34.554  61.759  77.714
33918DA     SC120516  34.497  61.645  77.998
33918DA     SC220517  34.331  61.678  78.180
33918DA     SC320518  34.506  61.569  78.332
33918DA     SC420519  34.619  61.576  78.076
33919DA     BB120520  34.419  61.914  77.454
33919DA     BB220521  34.176  62.059  77.688
33919DA     BB320522  34.264  62.221  77.794
33919DA     SC120523  34.366  62.044  78.029
33919DA     SC220524  34.313  62.010  78.270
33919DA     SC320525  34.548  61.907  78.286
33919DA     SC420526  34.515  61.986  78.019
33920DT     BB120527  34.196  62.418  77.766
33920DT     BB220528  34.013  62.440  78.076
33920DT     BB320529  34.114  62.563  78.209
33920DT     SC120530  34.294  62.378  78.256
33920DT     SC220531  34.270  62.305  78.457
33920DT     SC320532  34.527  62.256  78.266
33921DG     BB120533  33.742  62.722  78.158
33921DG     BB220534  33.816  62.666  78.508
33921DG     BB320535  33.933  62.811  78.576
33921DG     SC120536  34.194  62.667  78.506
33921DG     SC220537  34.394  62.561  78.701
33921DG     SC320538  34.498  62.546  78.424
33921DG     SC420539  34.257  62.687  78.360
33922DA     BB120540  33.694  62.828  78.823
33922DA     BB220541  33.951  62.754  79.073
33922DA     BB320542  34.077  62.923  79.103
33922DA     SC120543  34.282  62.840  78.884
33922DA     SC220544  34.518  62.759  78.873
33922DA     SC320545  34.513  62.838  78.629
33922DA     SC420546  34.260  62.897  78.735
33923DA     BB120547  33.985  62.851  79.408
33923DA     BB220548  34.341  62.803  79.480
33923DA     BB320549  34.442  62.991  79.485
33923DA     SC120550  34.514  62.987  79.182
33923DA     SC220551  34.719  62.964  79.042
33923DA     SC320552  34.580  63.073  78.856
33923DA     SC420553  34.412  63.058  79.080
33924DC     BB120554  34.515  63.047  79.658
33924DC     BB220555  34.862  62.990  79.580
33924DC     BB320556  34.956  63.171  79.540
33924DC     SC120557  34.842  63.186  79.304
33924DC     SC220558  34.990  63.159  79.151
33924DC     SC320559  34.690  63.275  79.107
33925DA     BB120560  35.190  62.982  79.834
33925DA     BB220561  35.414  63.092  79.566
33925DA     BB320562  35.439  63.304  79.572
33925DA     SC120563  35.201  63.362  79.381
33925DA     SC220564  35.167  63.446  79.148
33925DA     SC320565  34.928  63.498  79.224
33925DA     SC420566  35.057  63.388  79.447
33926DA     BB120567  35.761  63.233  79.585
33926DA     BB220568  35.795  63.409  79.266
33926DA     BB320569  35.794  63.620  79.297
33926DA     SC120570  35.485  63.648  79.266
33926DA     SC220571  35.324  63.745  79.102
33926DA     SC320572  35.156  63.741  79.296
33926DA     SC420573  35.396  63.639  79.400
33927DA     BB120574  36.075  63.601  79.131
33927DA     BB220575  35.914  63.806  78.874
33927DA     BB320576  35.907  64.010  78.935
33927DA     SC120577  35.629  63.986  79.072
33927DA     SC220578  35.396  64.066  79.033
33927DA     SC320579  35.360  64.017  79.283
33927DA     SC420580  35.627  63.951  79.229
33928DT     BB120581  36.010  64.126  78.825
33928DT     BB220582  35.730  64.270  78.648
33928DT     BB320583  35.688  64.458  78.723
33928DT     SC120584  35.580  64.357  78.940
33928DT     SC220585  35.368  64.392  78.937
33928DT     SC320586  35.542  64.300  79.194
33929DA     BB120587  35.705  64.426  78.304
33929DA     BB220588  35.396  64.598  78.399
33929DA     BB320589  35.440  64.789  78.483
33929DA     SC120590  35.458  64.684  78.776
33929DA     SC220591  35.326  64.702  78.987
33929DA     SC320592  35.543  64.630  79.104
33929DA     SC420593  35.602  64.639  78.830
33930DA     BB120594  35.202  64.784  78.254
33930DA     BB220595  34.997  64.934  78.518
33930DA     BB320596  35.077  65.122  78.577
33930DA     SC120597  35.257  65.002  78.801
33930DA     SC220598  35.265  65.002  79.050
33930DA     SC320599  35.511  64.936  79.022
33930DA     SC420600  35.408  64.963  78.763
33931DG     BB120601  34.783  65.157  78.491
33931DG     BB220602  34.755  65.271  78.833
33931DG     BB320603  34.849  65.446  78.854
33931DG     SC120604  35.119  65.321  78.925
33931DG     SC220605  35.257  65.340  79.189
33931DG     SC320606  35.434  65.219  78.986
33931DG     SC420607  35.221  65.284  78.807
33932DT     BB120608  34.729  65.595  78.912
33932DT     BB220609  34.838  65.661  79.249
33932DT     BB320610  34.978  65.813  79.250
33932DT     SC120611  35.163  65.654  79.155
33932DT     SC220612  35.311  65.618  79.307
33932DT     SC320613  35.344  65.553  78.991
33933DC     BB120614  34.797  65.990  79.354
33933DC     BB220615  35.078  66.007  79.580
33933DC     BB320616  35.217  66.144  79.511
33933DC     SC120617  35.298  65.980  79.323
33933DC     SC220618  35.497  65.913  79.368
33933DC     SC320619  35.346  65.882  79.083
33934DT     BB120620  35.155  66.344  79.700
33934DT     BB220621  35.510  66.293  79.741
33934DT     BB320622  35.615  66.421  79.615
33934DT     SC120623  35.555  66.275  79.405
33934DT     SC220624  35.732  66.178  79.333
33934DT     SC320625  35.453  66.207  79.172
33935DA     BB120626  35.777  66.497  79.995
33935DA     BB220627  36.057  66.436  79.765
33935DA     BB320628  36.089  66.606  79.640
33935DA     SC120629  35.898  66.507  79.415
33935DA     SC220630  35.916  66.422  79.182
33935DA     SC320631  35.669  66.486  79.160
33935DA     SC420632  35.744  66.554  79.422
33936DT     BB120633  36.262  66.709  79.660
33936DT     BB220634  36.418  66.582  79.360
33936DT     BB320635  36.417  66.727  79.213
33936DT     SC120636  36.161  66.693  79.169
33936DT     SC220637  36.133  66.602  78.976
33936DT     SC320638  35.902  66.744  79.154
33937DG     BB120639  36.796  66.597  79.284
33937DG     BB220640  36.707  66.572  78.934
33937DG     BB320641  36.711  66.752  78.850
33937DG     SC120642  36.418  66.815  78.913
33937DG     SC220643  36.199  66.847  78.712
33937DG     SC320644  36.107  66.925  78.982
33937DG     SC420645  36.382  66.884  79.052
33938DA     BB120646  36.899  66.572  78.625
33938DA     BB220647  36.662  66.668  78.362
33938DA     BB320648  36.681  66.876  78.317
33938DA     SC120649  36.467  66.965  78.525
33938DA     SC220650  36.237  67.060  78.524
33938DA     SC320651  36.288  67.134  78.764
33938DA     SC420652  36.519  67.004  78.673
33939DT     BB120653  36.737  66.895  78.148
33939DT     BB220654  36.428  67.018  78.009
33939DT     BB320655  36.431  67.225  78.003
33939DT     SC120656  36.393  67.241  78.262
33939DT     SC220657  36.196  67.318  78.300
33939DT     SC320658  36.436  67.295  78.516
33940DT     BB120659  36.454  67.204  77.738
33940DT     BB220660  36.165  67.414  77.789
33940DT     BB320661  36.224  67.610  77.820
33940DT     SC120662  36.305  67.555  78.064
33940DT     SC220663  36.173  67.650  78.205
33940DT     SC320664  36.464  67.523  78.271
33941DG     BB120665  35.987  67.637  77.487
33941DG     BB220666  35.886  67.879  77.737
33941DG     BB320667  36.007  68.037  77.730
33941DG     SC120668  36.207  67.924  77.932
33941DG     SC220669  36.261  68.031  78.205
33941DG     SC320670  36.458  67.822  78.133
33941DG     SC420671  36.328  67.833  77.878
33942DG     BB120672  35.757  68.249  77.665
33942DG     BB220673  35.836  68.409  77.980
33942DG     BB320674  35.980  68.543  77.953
33942DG     SC120675  36.208  68.345  78.005
33942DG     SC220676  36.396  68.350  78.237
33942DG     SC320677  36.482  68.151  78.036
33942DG     SC420678  36.267  68.261  77.882
33943DA     BB120679  35.779  68.783  78.108
33943DA     BB220680  36.033  68.833  78.368
33943DA     BB320681  36.192  68.955  78.294
33943DA     SC120682  36.361  68.714  78.192
33943DA     SC220683  36.574  68.600  78.252
33943DA     SC320684  36.568  68.508  78.013
33943DA     SC420685  36.340  68.668  78.039
33944DA     BB120686  36.125  69.138  78.560
33944DA     BB220687  36.467  69.072  78.672
33944DA     BB320688  36.606  69.192  78.563
33944DA     SC120689  36.650  68.980  78.340
33944DA     SC220690  36.833  68.828  78.263
33944DA     SC320691  36.705  68.820  78.041
33944DA     SC420692  36.557  68.988  78.209
33945DT     BB120693  36.715  69.345  78.657
33945DT     BB220694  37.034  69.176  78.660
33945DT     BB320695  37.160  69.260  78.518
33945DT     SC120696  37.030  69.144  78.322
33945DT     SC220697  37.154  68.991  78.235
33945DT     SC320698  36.883  69.113  78.105
33946DG     BB120699  37.370  69.323  78.866
33946DG     BB220700  37.579  69.162  78.618
33946DG     BB320701  37.650  69.298  78.491
33946DG     SC120702  37.414  69.276  78.297
33946DG     SC220703  37.426  69.169  78.018
33946DG     SC320704  37.162  69.292  78.073
33946DG     SC420705  37.286  69.369  78.320
33947DT     BB120706  37.891  69.377  78.449
33947DT     BB220707  37.959  69.208  78.138
33947DT     BB320708  37.972  69.345  77.984
33947DT     SC120709  37.712  69.379  77.981
33947DT     SC220710  37.631  69.296  77.800
33947DT     SC320711  37.477  69.497  78.002
33948DC     BB120712  38.267  69.359  77.939
33948DC     BB220713  38.136  69.264  77.616
33948DC     BB320714  38.113  69.431  77.497
33948DC     SC120715  37.901  69.507  77.631
33948DC     SC220716  37.727  69.485  77.506
33948DC     SC320717  37.742  69.652  77.783
33949DA     BB120718  38.357  69.185  77.260
33949DA     BB220719  38.063  69.276  77.060
33949DA     BB320720  38.085  69.472  76.980
33949DA     SC120721  37.948  69.612  77.222
33949DA     SC220722  37.736  69.734  77.269
33949DA     SC320723  37.860  69.831  77.472
33949DA     SC420724  38.043  69.663  77.342
33950DT     BB120725  38.094  69.483  76.784
33950DT     BB220726  37.749  69.581  76.748
33950DT     BB320727  37.737  69.781  76.696
33950DT     SC120728  37.798  69.857  76.940
33950DT     SC220729  37.626  69.947  77.032
33950DT     SC320730  37.931  69.965  77.140
33951DC     BB120731  37.646  69.662  76.486
33951DC     BB220732  37.375  69.863  76.614
33951DC     BB320733  37.401  70.060  76.557
33951DC     SC120734  37.592  70.094  76.734
33951DC     SC220735  37.523  70.225  76.890
33951DC     SC320736  37.831  70.142  76.835
33952DA     BB120737  37.018  69.873  76.536
33952DA     BB220738  36.987  70.202  76.695
33952DA     BB320739  37.039  70.356  76.557
33952DA     SC120740  37.340  70.359  76.637
33952DA     SC220741  37.498  70.512  76.755
33952DA     SC320742  37.682  70.380  76.636
33952DA     SC420743  37.440  70.266  76.552
33953DT     BB120744  36.896  70.436  76.552
33953DT     BB220745  37.001  70.737  76.720
33953DT     BB320746  37.079  70.871  76.583
33953DT     SC120747  37.300  70.732  76.561
33953DT     SC220748  37.462  70.842  76.649
33953DT     SC320749  37.491  70.585  76.453
33954DT     BB120750  36.859  71.009  76.631
33954DT     BB220751  37.129  71.241  76.690
33954DT     BB320752  37.193  71.322  76.510
33954DT     SC120753  37.316  71.099  76.446
33954DT     SC220754  37.529  71.130  76.452
33954DT     SC320755  37.377  70.878  76.315
33955DA     BB120756  37.113  71.658  76.749
33955DA     BB220757  37.439  71.713  76.590
33955DA     BB320758  37.413  71.762  76.384
33955DA     SC120759  37.428  71.468  76.286
33955DA     SC220760  37.586  71.324  76.157
33955DA     SC320761  37.383  71.172  76.118
33955DA     SC420762  37.290  71.387  76.272
33956DT     BB120763  37.456  71.963  76.294
33956DT     BB220764  37.757  71.868  76.119
33956DT     BB320765  37.723  71.865  75.915
33956DT     SC120766  37.589  71.640  75.934
33956DT     SC220767  37.702  71.482  75.843
33956DT     SC320768  37.388  71.469  75.923
33957DA     BB120769  38.052  72.124  75.943
33957DA     BB220770  38.133  71.876  75.686
33957DA     BB320771  38.032  71.923  75.503
33957DA     SC120772  37.780  71.753  75.571
33957DA     SC220773  37.673  71.543  75.491
33957DA     SC320774  37.460  71.634  75.601
33957DA     SC420775  37.658  71.828  75.644
33958DT     BB120776  38.138  71.984  75.326
33958DT     BB220777  38.103  71.672  75.149
33958DT     BB320778  37.970  71.694  74.992
33958DT     SC120779  37.765  71.697  75.155
33958DT     SC220780  37.650  71.517  75.129
33958DT     SC320781  37.552  71.783  75.285
33959DT     BB120782  38.178  71.677  74.820
33959DT     BB220783  37.955  71.410  74.722
33959DT     BB320784  37.814  71.481  74.589
33959DT     SC120785  37.683  71.604  74.781
33959DT     SC220786  37.495  71.505  74.814
33959DT     SC320787  37.578  71.799  74.924
33960DA     BB120788  37.992  71.132  74.443
33960DA     BB220789  37.629  71.097  74.411
33960DA     BB320790  37.555  71.226  74.258
33960DA     SC120791  37.504  71.465  74.450
33960DA     SC220792  37.308  71.587  74.545
33960DA     SC320793  37.473  71.778  74.589
33960DA     SC420794  37.622  71.573  74.468
33961DA     BB120795  37.428  70.938  74.167
33961DA     BB220796  37.099  71.097  74.194
33961DA     BB320797  37.069  71.233  74.033
33961DA     SC120798  37.186  71.478  74.184
33961DA     SC220799  37.103  71.691  74.283
33961DA     SC320800  37.347  71.769  74.268
33961DA     SC420801  37.343  71.509  74.165
33962DA     BB120802  36.795  71.053  73.997
33962DA     BB220803  36.606  71.363  74.045
33962DA     BB320804  36.616  71.485  73.870
33962DA     SC120805  36.870  71.639  73.962
33962DA     SC220806  36.928  71.870  74.036
33962DA     SC320807  37.169  71.807  73.975
33962DA     SC420808  37.013  71.581  73.917
33963DT     BB120809  36.446  71.519  73.752
33963DT     BB220810  36.394  71.864  73.847
33963DT     BB320811  36.448  71.988  73.691
33963DT     SC120812  36.703  71.949  73.737
33963DT     SC220813  36.791  72.130  73.815
33963DT     SC320814  36.954  71.874  73.701
33964DG     BB120815  36.054  72.077  73.756
33964DG     BB220816  36.255  72.377  73.755
33964DG     BB320817  36.293  72.433  73.567
33964DG     SC120818  36.550  72.270  73.543
33964DG     SC220819  36.826  72.380  73.516
33964DG     SC320820  36.826  72.087  73.476
33964DG     SC420821  36.541  72.118  73.493
33965DT     BB120822  36.217  72.634  73.468
33965DT     BB220823  36.522  72.826  73.461
33965DT     BB320824  36.593  72.840  73.266
33965DT     SC120825  36.677  72.591  73.272
33965DT     SC220826  36.892  72.588  73.271
33965DT     SC320827  36.698  72.335  73.212
33966DT     BB120828  36.519  73.105  73.244
33966DT     BB220829  36.872  73.106  73.168
33966DT     BB320830  36.901  73.076  72.966
33966DT     SC120831  36.842  72.821  72.987
33966DT     SC220832  37.020  72.704  72.955
33966DT     SC320833  36.716  72.592  72.954
33967DC     BB120834  36.973  73.339  72.928
33967DC     BB220835  37.253  73.151  72.799
33967DC     BB320836  37.223  73.107  72.599
33967DC     SC120837  37.046  72.923  72.658
33967DC     SC220838  37.127  72.729  72.612
33967DC     SC320839  36.816  72.795  72.672
33968DT     BB120840  37.412  73.292  72.520
33968DT     BB220841  37.522  72.983  72.370
33968DT     BB320842  37.435  72.959  72.184
33968DT     SC120843  37.204  72.896  72.292
33968DT     SC220844  37.163  72.688  72.256
33968DT     SC320845  36.949  72.910  72.357
33969DT     BB120846  37.669  73.018  72.042
33969DT     BB220847  37.572  72.694  71.915
33969DT     BB320848  37.449  72.717  71.751
33969DT     SC120849  37.247  72.787  71.903
33969DT     SC220850  37.098  72.632  71.901
33969DT     SC320851  37.055  72.934  72.008
33970DC     BB120852  37.643  72.643  71.561
33970DC     BB220853  37.371  72.416  71.497
33970DC     BB320854  37.243  72.496  71.356
33970DC     SC120855  37.143  72.665  71.530
33970DC     SC220856  36.940  72.610  71.575
33970DC     SC320857  37.081  72.893  71.648
33971DG     BB120858  37.366  72.147  71.182
33971DG     BB220859  37.005  72.168  71.187
33971DG     BB320860  36.942  72.280  71.035
33971DG     SC120861  36.952  72.542  71.193
33971DG     SC220862  36.716  72.708  71.272
33971DG     SC320863  36.970  72.850  71.330
33971DG     SC420864  37.088  72.627  71.195
33972DT     BB120865  36.811  72.198  70.869
33972DT     BB220866  36.490  72.337  70.960
33972DT     BB320867  36.442  72.493  70.832
33972DT     SC120868  36.615  72.653  70.950
33972DT     SC220869  36.509  72.806  71.058
33972DT     SC320870  36.824  72.809  70.985
33973DA     BB120871  36.118  72.229  70.843
33973DA     BB220872  35.990  72.568  70.899
33973DA     BB320873  35.994  72.680  70.717
33973DA     SC120874  36.280  72.793  70.765
33973DA     SC220875  36.385  73.013  70.818
33973DA     SC320876  36.601  72.908  70.728
33973DA     SC420877  36.403  72.710  70.704
33974DT     BB120878  35.821  72.730  70.648
33974DT     BB220879  35.839  73.080  70.734
33974DT     BB320880  35.884  73.192  70.565
33974DT     SC120881  36.134  73.114  70.571
33974DT     SC220882  36.260  73.280  70.624
33974DT     SC320883  36.360  72.999  70.497
33975DA     BB120884  35.545  73.362  70.745
33975DA     BB220885  35.783  73.632  70.674
33975DA     BB320886  35.790  73.672  70.464
33975DA     SC120887  36.020  73.470  70.409
33975DA     SC220888  36.261  73.479  70.344
33975DA     SC320889  36.229  73.235  70.271
33975DA     SC420890  35.980  73.320  70.368
33976DC     BB120891  35.721  73.850  70.396
33976DC     BB220892  36.042  73.995  70.319
33976DC     BB320893  36.073  73.994  70.114
33976DC     SC120894  36.120  73.736  70.115
33976DC     SC220895  36.328  73.701  70.072
33976DC     SC320896  36.093  73.478  70.065
33977DT     BB120897  36.033  74.267  70.090
33977DT     BB220898  36.360  74.214  69.947
33977DT     BB320899  36.342  74.173  69.745
33977DT     SC120900  36.255  73.930  69.794
33977DT     SC220901  36.405  73.787  69.735
33977DT     SC320902  36.095  73.721  69.801
33978DA     BB120903  36.615  74.491  69.765
33978DA     BB220904  36.764  74.232  69.553
33978DA     BB320905  36.671  74.230  69.361
33978DA     SC120906  36.453  74.023  69.441
33978DA     SC220907  36.397  73.786  69.390
33978DA     SC320908  36.162  73.845  69.474
33978DA     SC420909  36.313  74.080  69.496
33979DA     BB120910  36.979  74.264  69.251
33979DA     BB220911  36.938  73.939  69.086
33979DA     BB320912  36.824  73.962  68.906
33979DA     SC120913  36.550  73.913  69.045
33979DA     SC220914  36.373  73.737  69.048
33979DA     SC320915  36.219  73.921  69.137
33979DA     SC420916  36.469  74.042  69.098
33980DC     BB120917  36.918  73.923  68.737
33980DC     BB220918  36.763  73.603  68.678
33980DC     BB320919  36.620  73.620  68.529
33980DC     SC120920  36.454  73.740  68.693
33980DC     SC220921  36.288  73.610  68.735
33980DC     SC320922  36.300  73.928  68.796
33981DA     BB120923  36.880  73.299  68.456
33981DA     BB220924  36.535  73.179  68.423
33981DA     BB320925  36.445  73.260  68.248
33981DA     SC120926  36.331  73.511  68.392
33981DA     SC220927  36.108  73.601  68.459
33981DA     SC320928  36.226  73.828  68.471
33981DA     SC420929  36.422  73.644  68.392
33982DG     BB120930  36.424  72.956  68.208
33982DG     BB220931  36.070  73.030  68.222
33982DG     BB320932  36.011  73.112  68.051
33982DG     SC120933  36.068  73.399  68.140
33982DG     SC220934  35.863  73.612  68.186
33982DG     SC320935  36.137  73.724  68.197
33982DG     SC420936  36.214  73.461  68.116
33983DA     BB120937  35.767  72.868  68.074
33983DA     BB220938  35.511  73.129  68.060
33983DA     BB320939  35.500  73.212  67.864
33983DA     SC120940  35.708  73.436  67.921
33983DA     SC220941  35.709  73.684  67.947
33983DA     SC320942  35.960  73.668  67.898
33983DA     SC420943  35.862  73.405  67.887
33984DT     BB120944  35.334  73.180  67.764
33984DT     BB220945  35.201  73.515  67.786
33984DT     BB320946  35.232  73.615  67.607
33984DT     SC120947  35.487  73.646  67.659
33984DT     SC220948  35.527  73.854  67.697
33984DT     SC320949  35.749  73.625  67.637
33985DC     BB120950  34.966  73.598  67.541
33985DC     BB220951  35.039  73.951  67.527
33985DC     BB320952  35.109  74.001  67.339
33985DC     SC120953  35.342  73.892  67.388
33985DC     SC220954  35.492  74.046  67.405
33985DC     SC320955  35.549  73.728  67.370
33986DG     BB120956  34.775  74.233  67.384
33986DG     BB220957  35.062  74.434  67.294
33986DG     BB320958  35.094  74.422  67.099
33986DG     SC120959  35.280  74.180  67.119
33986DG     SC220960  35.572  74.177  67.058
33986DG     SC320961  35.471  73.902  67.103
33986DG     SC420962  35.216  74.033  67.115
33987DA     BB120963  35.091  74.770  67.088
33987DA     BB220964  35.438  74.770  66.968
33987DA     BB320965  35.444  74.723  66.760
33987DA     SC120966  35.472  74.417  66.805
33987DA     SC220967  35.647  74.241  66.775
33987DA     SC320968  35.452  74.075  66.779
33987DA     SC420969  35.337  74.329  66.809
33988DT     BB120970  35.508  74.866  66.641
33988DT     BB220971  35.834  74.724  66.581
33988DT     BB320972  35.840  74.639  66.393
33988DT     SC120973  35.698  74.434  66.472
33988DT     SC220974  35.821  74.257  66.476
33988DT     SC320975  35.497  74.263  66.491
33989DT     BB120976  36.002  74.838  66.337
33989DT     BB220977  36.193  74.539  66.272
33989DT     BB320978  36.147  74.465  66.085
33989DT     SC120979  35.915  74.374  66.169
33989DT     SC220980  35.920  74.159  66.172
33989DT     SC320981  35.654  74.344  66.193
33990DT     BB120982  36.391  74.541  66.042
33990DT     BB220983  36.381  74.188  65.966
33990DT     BB320984  36.298  74.158  65.779
33990DT     SC120985  36.057  74.208  65.869
33990DT     SC220986  35.941  74.027  65.869
33990DT     SC320987  35.824  74.328  65.902
33991DA     BB120988  36.658  73.945  65.829
33991DA     BB220989  36.407  73.720  65.687
33991DA     BB320990  36.361  73.777  65.486
33991DA     SC120991  36.127  73.966  65.568
33991DA     SC220992  35.879  73.970  65.549
33991DA     SC320993  35.901  74.223  65.588
33991DA     SC420994  36.162  74.121  65.592
33992DT     BB120995  36.411  73.647  65.374
33992DT     BB220996  36.081  73.530  65.285
33992DT     BB320997  36.020  73.619  65.108
33992DT     SC120998  35.975  73.848  65.229
33992DT     SC220999  35.763  73.885  65.235
33992DT     SC321000  35.996  74.102  65.294
33993DT     BB121001  36.051  73.380  65.001
33993DT     BB221002  35.711  73.473  64.925
33993DT     BB321003  35.707  73.596  64.758
33993DT     SC121004  35.797  73.799  64.897
33993DT     SC221005  35.641  73.946  64.918
33993DT     SC321006  35.956  73.994  64.978
33994DC     BB121007  35.603  73.393  64.617
33994DC     BB221008  35.370  73.664  64.570
33994DC     BB321009  35.434  73.787  64.416
33994DC     SC121010  35.621  73.891  64.567
33994DC     SC221011  35.572  74.096  64.610
33994DC     SC321012  35.861  73.957  64.655
33995DT     BB121013  35.242  73.694  64.240
33995DT     BB221014  35.196  74.052  64.238
33995DT     BB321015  35.319  74.139  64.096
33995DT     SC121016  35.531  74.104  64.248
33995DT     SC221017  35.600  74.295  64.318
33995DT     SC321018  35.766  74.017  64.330
33996DT     BB121019  35.121  74.193  63.895
33996DT     BB221020  35.276  74.515  63.948
33996DT     BB321021  35.433  74.541  63.816
33996DT     SC121022  35.585  74.376  63.951
33996DT     SC221023  35.743  74.486  64.046
33996DT     SC321024  35.731  74.164  64.009
33997DG     BB121025  35.199  74.858  63.682
33997DG     BB221026  35.533  74.973  63.759
33997DG     BB321027  35.653  74.943  63.603
33997DG     SC121028  35.737  74.662  63.690
33997DG     SC221029  36.011  74.580  63.777
33997DG     SC321030  35.836  74.344  63.745
33997DG     SC421031  35.650  74.537  63.643
33998DT     BB121032  35.783  75.113  63.440
33998DT     BB221033  36.112  75.081  63.585
33998DT     BB321034  36.240  74.990  63.450
33998DT     SC121035  36.131  74.756  63.492
33998DT     SC221036  36.270  74.629  63.597
33998DT     SC321037  36.001  74.531  63.446
33999DT     BB121038  36.392  75.224  63.380
33999DT     BB221039  36.634  74.997  63.522
33999DT     BB321040  36.722  74.885  63.372
33999DT     SC121041  36.507  74.737  63.345
33999DT     SC221042  36.548  74.538  63.416
33999DT     SC321043  36.294  74.627  63.236
34000DT     BB121044  36.946  75.023  63.420
34000DT     BB221045  37.022  74.680  63.501
34000DT     BB321046  37.081  74.579  63.330
34000DT     SC121047  36.834  74.568  63.242
34000DT     SC221048  36.764  74.365  63.249
34000DT     SC321049  36.624  74.608  63.088
34001DC     BB121050  37.300  74.580  63.467
34001DC     BB221051  37.211  74.233  63.425
34001DC     BB321052  37.266  74.169  63.236
34001DC     SC121053  37.067  74.298  63.125
34001DC     SC221054  36.923  74.157  63.050
34001DC     SC321055  36.937  74.472  62.975
34002DA     BB121056  37.357  73.917  63.565
34002DA     BB221057  37.202  73.718  63.299
34002DA     BB321058  37.330  73.711  63.128
34002DA     SC121059  37.206  73.963  62.995
34002DA     SC221060  37.065  74.017  62.796
34002DA     SC321061  37.156  74.256  62.821
34002DA     SC421062  37.275  74.105  63.026
34003DC     BB121063  37.371  73.545  63.110
34003DC     BB221064  37.180  73.480  62.811
34003DC     BB321065  37.299  73.508  62.644
34003DC     SC121066  37.287  73.769  62.670
34003DC     SC221067  37.169  73.851  62.509
34003DC     SC321068  37.363  74.018  62.708
34004DA     BB121069  37.120  73.129  62.608
34004DA     BB221070  37.083  73.302  62.287
34004DA     BB321071  37.271  73.313  62.186
34004DA     SC121072  37.350  73.587  62.311
34004DA     SC221073  37.379  73.822  62.235
34004DA     SC321074  37.521  73.851  62.447
34004DA     SC421075  37.436  73.584  62.447
34005DA     BB121076  37.114  73.168  61.932
34005DA     BB221077  37.194  73.464  61.732
34005DA     BB321078  37.398  73.458  61.669
34005DA     SC121079  37.506  73.611  61.917
34005DA     SC221080  37.605  73.834  61.968
34005DA     SC321081  37.695  73.723  62.181
34005DA     SC421082  37.555  73.523  62.043
34006DC     BB121083  37.457  73.434  61.460
34006DC     BB221084  37.556  73.777  61.408
34006DC     BB321085  37.762  73.790  61.391
34006DC     SC121086  37.793  73.754  61.649
34006DC     SC221087  37.864  73.937  61.738
34006DC     SC321088  37.867  73.645  61.877
34007DG     BB121089  37.603  73.944  61.050
34007DG     BB221090  37.828  74.178  61.210
34007DG     BB321091  38.016  74.129  61.169
34007DG     SC121092  38.047  73.945  61.412
34007DG     SC221093  38.225  73.993  61.646
34007DG     SC321094  38.109  73.721  61.656
34007DG     SC421095  38.007  73.791  61.398
34008DA     BB121096  38.009  74.461  61.097
34008DA     BB221097  38.273  74.513  61.346
34008DA     BB321098  38.458  74.433  61.276
34008DA     SC121099  38.413  74.152  61.401
34008DA     SC221100  38.508  74.015  61.586
34008DA     SC321101  38.405  73.815  61.463
34008DA     SC421102  38.343  74.040  61.309
34009DC     BB121103  38.538  74.571  61.279
34009DC     BB221104  38.755  74.494  61.557
34009DC     BB321105  38.923  74.393  61.489
34009DC     SC121106  38.786  74.172  61.454
34009DC     SC221107  38.847  74.026  61.599
34009DC     SC321108  38.673  73.967  61.333
34010DC     BB121109  38.992  74.615  61.589
34010DC     BB221110  39.188  74.361  61.755
34010DC     BB321111  39.325  74.280  61.623
34010DC     SC121112  39.138  74.144  61.499
34010DC     SC221113  39.164  73.934  61.540
34010DC     SC321114  38.977  74.061  61.308
34011DT     BB121115  39.506  74.412  61.764
34011DT     BB221116  39.636  74.075  61.743
34011DT     BB321117  39.733  74.048  61.563
34011DT     SC121118  39.504  74.035  61.433
34011DT     SC221119  39.474  73.834  61.363
34011DT     SC321120  39.310  74.097  61.266
34012DA     BB121121  40.051  73.940  61.821
34012DA     BB221122  40.048  73.691  61.553
34012DA     BB321123  40.135  73.771  61.376
34012DA     SC121124  39.866  73.879  61.262
34012DA     SC221125  39.710  73.826  61.075
34012DA     SC321126  39.622  74.065  61.108
34012DA     SC421127  39.826  74.030  61.298
34013DC     BB121128  40.360  73.728  61.253
34013DC     BB221129  40.220  73.549  60.972
34013DC     BB321130  40.248  73.657  60.798
34013DC     SC121131  40.060  73.828  60.864
34013DC     SC221132  39.891  73.801  60.733
34013DC     SC321133  39.941  74.054  60.929
34014DT     BB121134  40.479  73.516  60.662
34014DT     BB221135  40.223  73.512  60.408
34014DT     BB321136  40.252  73.668  60.275
34014DT     SC121137  40.164  73.843  60.449
34014DT     SC221138  39.974  73.920  60.384
34014DT     SC321139  40.161  74.047  60.616
34015DT     BB121140  40.354  73.514  60.053
34015DT     BB221141  40.065  73.682  59.916
34015DT     BB321142  40.123  73.859  59.825
34015DT     SC121143  40.158  73.976  60.058
34015DT     SC221144  40.007  74.126  60.086
34015DT     SC321145  40.279  74.095  60.259
34016DT     BB121146  40.079  73.754  59.575
34016DT     BB221147  39.864  74.044  59.590
34016DT     BB321148  39.967  74.211  59.523
34016DT     SC121149  40.105  74.224  59.746
34016DT     SC221150  40.043  74.397  59.858
34016DT     SC321151  40.311  74.222  59.911
34017DT     BB121152  39.809  74.203  59.308
34017DT     BB221153  39.755  74.530  59.450
34017DT     BB321154  39.900  74.661  59.382
34017DT     SC121155  40.081  74.555  59.538
34017DT     SC221156  40.132  74.695  59.693
34017DT     SC321157  40.300  74.429  59.615
34018DC     BB121158  39.707  74.777  59.237
34018DC     BB221159  39.844  75.045  59.435
34018DC     BB321160  40.011  75.125  59.340
34018DC     SC121161  40.157  74.917  59.407
34018DC     SC221162  40.303  74.976  59.553
34018DC     SC321163  40.306  74.700  59.383
34019DA     BB121164  39.760  75.451  59.426
34019DA     BB221165  40.100  75.543  59.529
34019DA     BB321166  40.221  75.583  59.358
34019DA     SC121167  40.322  75.290  59.330
34019DA     SC221168  40.535  75.164  59.362
34019DA     SC321169  40.428  74.986  59.211
34019DA     SC421170  40.239  75.191  59.234
34020DT     BB121171  40.300  75.786  59.299
34020DT     BB221172  40.645  75.728  59.387
34020DT     BB321173  40.760  75.714  59.215
34020DT     SC121174  40.668  75.474  59.164
34020DT     SC221175  40.825  75.329  59.192
34020DT     SC321176  40.544  75.277  59.039
34021DA     BB121177  40.967  76.024  59.414
34021DA     BB221178  41.221  75.782  59.307
34021DA     BB321179  41.265  75.807  59.100
34021DA     SC121180  41.048  75.604  59.005
34021DA     SC221181  41.041  75.377  58.901
34021DA     SC321182  40.802  75.440  58.831
34021DA     SC421183  40.903  75.662  58.969
34022DC     BB121184  41.463  75.884  59.009
34022DC     BB221185  41.581  75.564  58.892
34022DC     BB321186  41.580  75.559  58.685
34022DC     SC121187  41.319  75.534  58.680
34022DC     SC221188  41.267  75.337  58.612
34022DC     SC321189  41.065  75.590  58.633
34023DT     BB121190  41.862  75.583  58.648
34023DT     BB221191  41.779  75.279  58.473
34023DT     BB321192  41.740  75.320  58.274
34023DT     SC121193  41.506  75.423  58.333
34023DT     SC221194  41.351  75.293  58.261
34023DT     SC321195  41.312  75.600  58.359
34024DT     BB121196  41.984  75.214  58.171
34024DT     BB221197  41.729  75.030  57.995
34024DT     BB321198  41.683  75.125  57.817
34024DT     SC121199  41.549  75.312  57.942
34024DT     SC221200  41.339  75.290  57.899
34024DT     SC321201  41.480  75.550  58.033
34025DT     BB121202  41.816  74.939  57.647
34025DT     BB221203  41.476  74.939  57.526
34025DT     BB321204  41.455  75.078  57.375
34025DT     SC121205  41.460  75.277  57.546
34025DT     SC221206  41.265  75.367  57.556
34025DT     SC321207  41.539  75.495  57.670
34026DT     BB121208  41.440  74.888  57.165
34026DT     BB221209  41.132  75.072  57.138
34026DT     BB321210  41.155  75.231  57.007
34026DT     SC121211  41.293  75.367  57.184
34026DT     SC221212  41.178  75.535  57.251
34026DT     SC321213  41.496  75.492  57.298
34027DT     BB121214  41.002  75.108  56.812
34027DT     BB221215  40.830  75.418  56.882
34027DT     BB321216  40.901  75.568  56.758
34027DT     SC121217  41.124  75.587  56.896
34027DT     SC221218  41.126  75.775  57.001
34027DT     SC321219  41.381  75.580  56.954
34028DA     BB121220  40.485  75.548  56.756
34028DA     BB221221  40.585  75.894  56.825
34028DA     BB321222  40.663  75.985  56.648
34028DA     SC121223  40.957  75.901  56.706
34028DA     SC221224  41.171  76.012  56.771
34028DA     SC321225  41.284  75.801  56.680
34028DA     SC421226  41.009  75.763  56.644
34029DT     BB121227  40.555  76.112  56.623
34029DT     BB221228  40.775  76.377  56.729
34029DT     BB321229  40.874  76.457  56.566
34029DT     SC121230  41.032  76.248  56.550
34029DT     SC221231  41.232  76.305  56.605
34029DT     SC321232  41.148  76.031  56.454
34030DT     BB121233  40.725  76.634  56.668
34030DT     BB221234  41.061  76.764  56.675
34030DT     BB321235  41.122  76.813  56.483
34030DT     SC121236  41.154  76.560  56.420
34030DT     SC221237  41.363  76.519  56.396
34030DT     SC321238  41.120  76.329  56.298
34031DT     BB121239  41.111  77.030  56.616
34031DT     BB221240  41.444  77.009  56.479
34031DT     BB321241  41.439  77.044  56.275
34031DT     SC121242  41.338  76.807  56.229
34031DT     SC221243  41.485  76.685  56.130
34031DT     SC321244  41.168  76.620  56.153
34032DC     BB121245  41.560  77.264  56.346
34032DC     BB221246  41.771  77.116  56.094
34032DC     BB321247  41.693  77.154  55.906
34032DC     SC121248  41.503  76.976  55.940
34032DC     SC221249  41.538  76.808  55.810
34032DC     SC321250  41.262  76.873  55.966
34033DA     BB121251  42.091  77.292  55.875
34033DA     BB221252  42.021  77.093  55.575
34033DA     BB321253  41.894  77.202  55.442
34033DA     SC121254  41.630  77.089  55.563
34033DA     SC221255  41.447  76.934  55.495
34033DA     SC321256  41.309  77.049  55.679
34033DA     SC421257  41.560  77.174  55.681
34034DA     BB121258  42.116  77.178  55.185
34034DA     BB221259  41.864  76.992  54.995
34034DA     BB321260  41.727  77.126  54.902
34034DA     SC121261  41.528  77.128  55.141
34034DA     SC221262  41.299  77.045  55.191
34034DA     SC321263  41.299  77.218  55.381
34034DA     SC421264  41.547  77.243  55.253
34035DT     BB121265  41.695  77.180  54.664
34035DT     BB221266  41.391  76.989  54.626
34035DT     BB321267  41.232  77.116  54.588
34035DT     SC121268  41.226  77.195  54.839
34035DT     SC221269  41.047  77.120  54.933
34035DT     SC321270  41.240  77.353  55.049
34036DT     BB121271  41.202  77.055  54.311
34036DT     BB221272  40.882  76.971  54.455
34036DT     BB321273  40.754  77.134  54.442
34036DT     SC121274  40.880  77.258  54.637
34036DT     SC221275  40.753  77.265  54.810
34036DT     SC321276  41.021  77.440  54.764
34037DT     BB121277  40.613  77.000  54.256
34037DT     BB221278  40.382  77.058  54.526
34037DT     BB321279  40.292  77.244  54.504
34037DT     SC121280  40.511  77.367  54.581
34037DT     SC221281  40.478  77.456  54.774
34037DT     SC321282  40.724  77.522  54.574
34038DT     BB121283  40.091  77.087  54.465
34038DT     BB221284  40.008  77.289  54.753
34038DT     BB321285  39.945  77.476  54.692
34038DT     SC121286  40.191  77.549  54.634
34038DT     SC221287  40.256  77.697  54.775
34038DT     SC321288  40.400  77.626  54.493
34039DG     BB121289  39.715  77.263  54.958
34039DG     BB221290  39.786  77.599  55.071
34039DG     BB321291  39.691  77.731  54.956
34039DG     SC121292  39.919  77.758  54.754
34039DG     SC221293  40.084  78.003  54.709
34039DG     SC321294  40.141  77.798  54.503
34039DG     SC421295  39.925  77.658  54.630
34040DA     BB121296  39.645  77.825  55.290
34040DA     BB221297  39.763  78.159  55.196
34040DA     BB321298  39.632  78.246  55.052
34040DA     SC121299  39.788  78.135  54.806
34040DA     SC221300  39.931  78.224  54.623
34040DA     SC321301  39.876  78.005  54.501
34040DA     SC421302  39.741  77.993  54.747
34041DA     BB121303  39.661  78.481  55.283
34041DA     BB221304  39.766  78.703  55.011
34041DA     BB321305  39.603  78.740  54.878
34041DA     SC121306  39.667  78.500  54.692
34041DA     SC221307  39.752  78.464  54.460
34041DA     SC321308  39.648  78.230  54.480
34041DA     SC421309  39.595  78.360  54.723
34042DT     BB121310  39.522  78.925  54.869
34042DT     BB221311  39.635  79.015  54.538
34042DT     BB321312  39.478  78.997  54.403
34042DT     SC121313  39.496  78.735  54.405
34042DT     SC221314  39.570  78.667  54.216
34042DT     SC321315  39.429  78.483  54.442
34043DA     BB121316  39.597  79.397  54.336
34043DA     BB221317  39.558  79.241  54.006
34043DA     BB321318  39.351  79.224  53.957
34043DA     SC121319  39.321  78.940  54.081
34043DA     SC221320  39.285  78.706  54.001
34043DA     SC321321  39.205  78.659  54.240
34043DA     SC421322  39.273  78.930  54.234
34044DA     BB121323  39.400  79.397  53.670
34044DA     BB221324  39.288  79.103  53.483
34044DA     BB321325  39.075  79.093  53.480
34044DA     SC121326  39.054  78.922  53.739
34044DA     SC221327  38.990  78.689  53.802
34044DA     SC321328  38.956  78.784  54.038
34044DA     SC421329  39.037  79.000  53.878
34045DC     BB121330  38.935  79.124  53.296
34045DC     BB221331  38.847  78.777  53.253
34045DC     BB321332  38.648  78.748  53.302
34045DC     SC121333  38.700  78.767  53.559
34045DC     SC221334  38.674  78.575  53.652
34045DC     SC321335  38.698  78.859  53.806
34046DA     BB121336  38.652  78.591  52.910
34046DA     BB221337  38.490  78.340  53.122
34046DA     BB321338  38.288  78.396  53.162
34046DA     SC121339  38.357  78.553  53.421
34046DA     SC221340  38.322  78.528  53.667
34046DA     SC321341  38.366  78.781  53.678
34046DA     SC421342  38.386  78.711  53.407
34047DT     BB121343  38.092  78.290  53.084
34047DT     BB221344  38.011  78.131  53.398
34047DT     BB321345  37.838  78.215  53.477
34047DT     SC121346  37.967  78.432  53.549
34047DT     SC221347  37.980  78.439  53.763
34047DT     SC321348  38.038  78.686  53.561
34048DT     BB121349  37.653  77.999  53.418
34048DT     BB221350  37.629  78.038  53.776
34048DT     BB321351  37.473  78.166  53.823
34048DT     SC121352  37.611  78.375  53.746
34048DT     SC221353  37.662  78.494  53.918
34048DT     SC321354  37.682  78.589  53.609
34049DT     BB121355  37.291  77.966  53.920
34049DT     BB221356  37.336  78.189  54.200
34049DT     BB321357  37.188  78.334  54.199
34049DT     SC121358  37.302  78.461  54.000
34049DT     SC221359  37.382  78.648  54.070
34049DT     SC321360  37.338  78.565  53.760
34050DT     BB121361  37.069  78.220  54.418
34050DT     BB221362  37.163  78.552  54.524
34050DT     BB321363  37.011  78.685  54.482
34050DT     SC121364  37.069  78.683  54.226
34050DT     SC221365  37.152  78.873  54.169
34050DT     SC321366  37.044  78.645  53.966
34051DA     BB121367  37.159  78.712  54.872
34051DA     BB221368  37.164  79.046  54.721
34051DA     BB321369  36.965  79.119  54.697
34051DA     SC121370  36.930  79.003  54.410
34051DA     SC221371  36.912  79.089  54.177
34051DA     SC321372  36.806  78.862  54.123
34051DA     SC421373  36.865  78.857  54.397
34052DA     BB121374  37.163  79.336  54.841
34052DA     BB221375  37.079  79.551  54.557
34052DA     BB321376  36.872  79.603  54.561
34052DA     SC121377  36.783  79.360  54.388
34052DA     SC221378  36.693  79.320  54.159
34052DA     SC321379  36.612  79.096  54.252
34052DA     SC421380  36.739  79.226  54.465
34053DT     BB121381  36.873  79.773  54.579
34053DT     BB221382  36.762  79.855  54.246
34053DT     BB321383  36.556  79.873  54.242
34053DT     SC121384  36.525  79.613  54.255
34053DT     SC221385  36.448  79.540  54.068
34053DT     SC321386  36.455  79.376  54.347
34054DT     BB121387  36.609  80.128  54.206
34054DT     BB221388  36.403  80.032  53.926
34054DT     BB321389  36.203  80.032  53.982
34054DT     SC121390  36.233  79.808  54.116
34054DT     SC221391  36.129  79.649  54.014
34054DT     SC321392  36.241  79.639  54.318
34055DA     BB121393  36.244  80.258  53.630
34055DA     BB221394  35.965  80.024  53.585
34055DA     BB321395  35.798  80.084  53.704
34055DA     SC121396  35.883  79.915  53.951
34055DA     SC221397  35.804  79.712  54.072
34055DA     SC321398  35.943  79.801  54.269
34055DA     SC421399  35.974  79.988  54.063
34056DT     BB121400  35.637  80.142  53.607
34056DT     BB221401  35.438  79.848  53.674
34056DT     BB321402  35.300  79.889  53.823
34056DT     SC121403  35.486  79.882  54.009
34056DT     SC221404  35.457  79.708  54.132
34056DT     SC321405  35.646  79.961  54.202
34057DT     BB121406  35.113  79.877  53.634
34057DT     BB221407  35.015  79.629  53.877
34057DT     BB321408  34.908  79.719  54.030
34057DT     SC121409  35.126  79.824  54.132
34057DT     SC221410  35.170  79.728  54.319
34057DT     SC321411  35.300  80.005  54.212
34058DA     BB121412  34.712  79.378  53.882
34058DA     BB221413  34.719  79.360  54.248
34058DA     BB321414  34.591  79.507  54.333
34058DA     SC121415  34.812  79.725  54.351
34058DA     SC221416  34.942  79.841  54.530
34058DA     SC321417  34.987  80.020  54.352
34058DA     SC421418  34.828  79.826  54.227
34059DT     BB121419  34.463  79.423  54.420
34059DT     BB221420  34.570  79.504  54.755
34059DT     BB321421  34.470  79.673  54.822
34059DT     SC121422  34.617  79.829  54.670
34059DT     SC221423  34.747  79.947  54.794
34059DT     SC321424  34.682  80.001  54.482
34060DA     BB121425  34.450  79.366  55.111
34060DA     BB221426  34.537  79.679  55.280
34060DA     BB321427  34.371  79.813  55.277
34060DA     SC121428  34.454  79.949  55.009
34060DA     SC221429  34.541  80.170  54.934
34060DA     SC321430  34.456  80.101  54.702
34060DA     SC421431  34.393  79.888  54.873
34061DT     BB121432  34.277  79.860  55.450
34061DT     BB221433  34.389  80.202  55.478
34061DT     BB321434  34.237  80.331  55.424
34061DT     SC121435  34.269  80.275  55.170
34061DT     SC221436  34.351  80.447  55.069
34061DT     SC321437  34.218  80.189  54.926
34062DT     BB121438  34.182  80.409  55.685
34062DT     BB221439  34.238  80.721  55.513
34062DT     BB321440  34.060  80.790  55.432
34062DT     SC121441  34.067  80.611  55.241
34062DT     SC221442  34.105  80.709  55.053
34062DT     SC321443  33.999  80.405  55.091
34063DA     BB121444  34.195  81.117  55.660
34063DA     BB221445  34.104  81.246  55.329
34063DA     BB321446  33.892  81.257  55.309
34063DA     SC121447  33.863  80.970  55.193
34063DA     SC221448  33.804  80.864  54.975
34063DA     SC321449  33.754  80.654  55.114
34063DA     SC421450  33.836  80.850  55.297
34064DT     BB121451  33.783  81.445  55.294
34064DT     BB221452  33.707  81.422  54.942
34064DT     BB321453  33.506  81.382  54.915
34064DT     SC121454  33.537  81.132  54.989
34064DT     SC221455  33.509  81.004  54.819
34064DT     SC321456  33.513  80.910  55.129
34065DA     BB121457  33.578  81.723  54.680
34065DA     BB221458  33.398  81.480  54.471
34065DA     BB321459  33.192  81.473  54.526
34065DA     SC121460  33.231  81.247  54.735
34065DA     SC221461  33.170  81.006  54.760
34065DA     SC321462  33.208  81.043  55.011
34065DA     SC421463  33.258  81.290  54.888
34066DC     BB121464  33.036  81.541  54.395
34066DC     BB221465  32.914  81.215  54.302
34066DC     BB321466  32.732  81.179  54.393
34066DC     SC121467  32.846  81.138  54.625
34066DC     SC221468  32.830  80.930  54.678
34066DC     SC321469  32.912  81.171  54.879
34067DG     BB121470  32.638  81.152  53.994
34067DG     BB221471  32.529  80.856  54.172
34067DG     BB321472  32.355  80.892  54.262
34067DG     SC121473  32.482  80.992  54.521
34067DG     SC221474  32.468  80.857  54.787
34067DG     SC321475  32.587  81.127  54.812
34067DG     SC421476  32.518  81.148  54.535
34068DC     BB121477  32.140  80.784  54.216
34068DC     BB221478  32.122  80.560  54.498
34068DC     BB321479  31.977  80.624  54.630
34068DC     SC121480  32.130  80.819  54.716
34068DC     SC221481  32.191  80.779  54.918
34068DC     SC321482  32.215  81.064  54.765
34069DG     BB121483  31.850  80.250  54.524
34069DG     BB221484  31.882  80.280  54.883
34069DG     BB321485  31.721  80.368  54.958
34069DG     SC121486  31.832  80.652  54.932
34069DG     SC221487  31.902  80.834  55.157
34069DG     SC321488  31.914  80.977  54.898
34069DG     SC421489  31.808  80.732  54.795
34070DA     BB121490  31.714  80.097  55.167
34070DA     BB221491  31.766  80.321  55.452
34070DA     BB321492  31.584  80.420  55.502
34070DA     SC121493  31.637  80.664  55.317
34070DA     SC221494  31.691  80.906  55.341
34070DA     SC321495  31.606  80.929  55.100
34070DA     SC421496  31.579  80.658  55.167
34071DA     BB121497  31.691  80.289  55.776
34071DA     BB221498  31.713  80.632  55.903
34071DA     BB321499  31.518  80.709  55.942
34071DA     SC121500  31.483  80.830  55.657
34071DA     SC221501  31.472  81.056  55.553
34071DA     SC321502  31.357  80.938  55.356
34071DA     SC421503  31.412  80.738  55.546
34072DT     BB121504  31.519  80.739  56.110
34072DT     BB221505  31.532  81.099  56.093
34072DT     BB321506  31.341  81.177  56.104
34072DT     SC121507  31.290  81.105  55.857
34072DT     SC221508  31.275  81.281  55.733
34072DT     SC321509  31.177  80.983  55.652
34073DA     BB121510  31.617  81.367  56.360
34073DA     BB221511  31.422  81.624  56.185
34073DA     BB321512  31.219  81.620  56.251
34073DA     SC121513  31.126  81.419  56.034
34073DA     SC221514  30.983  81.421  55.829
34073DA     SC321515  30.969  81.166  55.861
34073DA     SC421516  31.129  81.262  56.071
34074DA     BB121517  31.297  81.938  56.289
34074DA     BB221518  31.013  82.012  56.069
34074DA     BB321519  30.829  81.974  56.170
34074DA     SC121520  30.811  81.678  56.074
34074DA     SC221521  30.670  81.543  55.918
34074DA     SC321522  30.754  81.340  56.051
34074DA     SC421523  30.873  81.565  56.169
34075DT     BB121524  30.694  82.130  56.227
34075DT     BB221525  30.433  82.060  55.988
34075DT     BB321526  30.271  81.974  56.084
34075DT     SC121527  30.397  81.745  56.106
34075DT     SC221528  30.304  81.600  55.977
34075DT     SC321529  30.513  81.536  56.217
34076DT     BB121530  30.092  82.204  56.092
34076DT     BB221531  29.889  81.950  55.936
34076DT     BB321532  29.776  81.851  56.080
34076DT     SC121533  29.986  81.719  56.165
34076DT     SC221534  29.966  81.512  56.113
34076DT     SC321535  30.178  81.634  56.326
34077DT     BB121536  29.506  81.972  56.040
34077DT     BB221537  29.442  81.618  56.008
34077DT     BB321538  29.377  81.542  56.189
34077DT     SC121539  29.619  81.552  56.289
34077DT     SC221540  29.694  81.352  56.316
34077DT     SC321541  29.820  81.621  56.445
34078DG     BB121542  29.045  81.460  55.958
34078DG     BB221543  29.164  81.159  56.120
34078DG     BB321544  29.087  81.145  56.303
34078DG     SC121545  29.316  81.299  56.437
34078DG     SC221546  29.514  81.186  56.629
34078DG     SC321547  29.540  81.480  56.613
34078DG     SC421548  29.307  81.458  56.447
34079DG     BB121549  28.946  80.858  56.229
34079DG     BB221550  29.171  80.713  56.473
34079DG     BB321551  29.089  80.721  56.654
34079DG     SC121552  29.205  80.996  56.721
34079DG     SC221553  29.410  81.054  56.931
34079DG     SC321554  29.299  81.305  56.820
34079DG     SC421555  29.123  81.127  56.681
34080DT     BB121556  29.057  80.538  56.750
34080DT     BB221557  29.325  80.538  56.991
34080DT     BB321558  29.252  80.586  57.179
34080DT     SC121559  29.228  80.839  57.113
34080DT     SC221560  29.373  80.955  57.221
34080DT     SC321561  29.116  81.072  57.062
34081DT     BB121562  29.318  80.338  57.217
34081DT     BB221563  29.508  80.529  57.456
34081DT     BB321564  29.388  80.579  57.618
34081DT     SC121565  29.263  80.762  57.478
34081DT     SC221566  29.316  80.957  57.552
34081DT     SC321567  29.067  80.890  57.355
34082DC     BB121568  29.554  80.414  57.728
34082DC     BB221569  29.583  80.723  57.913
34082DC     BB321570  29.424  80.742  58.044
34082DC     SC121571  29.259  80.802  57.848
34082DC     SC221572  29.202  81.008  57.864
34082DC     SC321573  29.057  80.784  57.680
34083DT     BB121574  29.613  80.706  58.219
34083DT     BB221575  29.457  81.018  58.309
34083DT     BB321576  29.282  80.982  58.414
34083DT     SC121577  29.156  80.910  58.195
34083DT     SC221578  29.009  81.059  58.145
34083DT     SC321579  29.027  80.761  58.020
34084DG     BB121580  29.531  81.224  58.627
34084DG     BB221581  29.196  81.359  58.607
34084DG     BB321582  29.075  81.257  58.726
34084DG     SC121583  28.997  81.052  58.512
34084DG     SC221584  28.726  81.020  58.390
34084DG     SC321585  28.906  80.799  58.309
34084DG     SC421586  29.086  80.920  58.495
34085DT     BB121587  28.981  81.359  58.886
34085DT     BB221588  28.637  81.377  58.780
34085DT     BB321589  28.526  81.229  58.872
34085DT     SC121590  28.630  81.044  58.716
34085DT     SC221591  28.479  80.971  58.582
34085DT     SC321592  28.765  80.831  58.641
34086DC     BB121593  28.407  81.413  59.031
34086DC     BB221594  28.131  81.238  58.878
34086DC     BB321595  28.086  81.069  58.988
34086DC     SC121596  28.297  80.943  58.897
34086DC     SC221597  28.235  80.785  58.765
34086DC     SC321598  28.531  80.820  58.893
34087DA     BB121599  27.713  81.266  58.969
34087DA     BB221600  27.653  80.914  58.885
34087DA     BB321601  27.658  80.793  59.061
34087DA     SC121602  27.963  80.734  59.040
34087DA     SC221603  28.110  80.538  58.989
34087DA     SC321604  28.294  80.672  59.107
34087DA     SC421605  28.064  80.832  59.117
34088DA     BB121606  27.346  80.674  59.001
34088DA     BB221607  27.488  80.337  58.979
34088DA     BB321608  27.516  80.255  59.174
34088DA     SC121609  27.806  80.363  59.205
34088DA     SC221610  28.038  80.270  59.212
34088DA     SC321611  28.101  80.492  59.325
34088DA     SC421612  27.825  80.506  59.275
34089DA     BB121613  27.322  79.977  59.116
34089DA     BB221614  27.619  79.768  59.165
34089DA     BB321615  27.647  79.728  59.373
34089DA     SC121616  27.828  79.976  59.422
34089DA     SC221617  28.068  80.023  59.473
34089DA     SC321618  27.985  80.251  59.556
34089DA     SC421619  27.757  80.112  59.470
34090DA     BB121620  27.639  79.386  59.335
34090DA     BB221621  27.990  79.377  59.441
34090DA     BB321622  28.003  79.367  59.654
34090DA     SC121623  28.012  79.676  59.691
34090DA     SC221624  28.178  79.848  59.761
34090DA     SC321625  27.974  79.997  59.806
34090DA     SC421626  27.873  79.753  59.714
34091DA     BB121627  28.183  79.086  59.631
34091DA     BB221628  28.466  79.273  59.771
34091DA     BB321629  28.456  79.274  59.984
34091DA     SC121630  28.290  79.537  59.999
34091DA     SC221631  28.325  79.772  60.072
34091DA     SC321632  28.069  79.784  60.087
34091DA     SC421633  28.130  79.523  60.004
34092DC     BB121634  28.605  79.178  60.090
34092DC     BB221635  28.782  79.479  60.180
34092DC     BB321636  28.756  79.519  60.381
34092DC     SC121637  28.510  79.601  60.341
34092DC     SC221638  28.499  79.814  60.372
34092DC     SC321639  28.246  79.612  60.353
34093DA     BB121640  29.156  79.536  60.260
34093DA     BB221641  29.075  79.844  60.441
34093DA     BB321642  29.049  79.803  60.649
34093DA     SC121643  28.743  79.751  60.625
34093DA     SC221644  28.531  79.862  60.695
34093DA     SC321645  28.424  79.632  60.663
34093DA     SC421646  28.695  79.600  60.601
34094DC     BB121647  29.172  79.894  60.723
34094DC     BB221648  28.961  80.150  60.864
34094DC     BB321649  28.909  80.100  61.057
34094DC     SC121650  28.739  79.918  60.973
34094DC     SC221651  28.538  79.984  61.014
34094DC     SC321652  28.627  79.683  60.932
34095DG     BB121653  29.076  80.470  61.025
34095DG     BB221654  28.764  80.477  61.207
34095DG     BB321655  28.789  80.397  61.388
34095DG     SC121656  28.722  80.112  61.299
34095DG     SC221657  28.483  79.954  61.382
34095DG     SC321658  28.674  79.785  61.231
34095DG     SC421659  28.840  80.019  61.244
34096DA     BB121660  28.632  80.690  61.487
34096DA     BB221661  28.376  80.491  61.658
34096DA     BB321662  28.458  80.398  61.832
34096DA     SC121663  28.544  80.139  61.684
34096DA     SC221664  28.476  79.899  61.677
34096DA     SC321665  28.708  79.857  61.577
34096DA     SC421666  28.693  80.133  61.624
34097DG     BB121667  28.240  80.562  61.985
34097DG     BB221668  28.119  80.233  62.077
34097DG     BB321669  28.225  80.162  62.229
34097DG     SC121670  28.436  80.027  62.052
34097DG     SC221671  28.480  79.733  62.025
34097DG     SC321672  28.694  79.885  61.888
34097DG     SC421673  28.564  80.112  62.005
34098DT     BB121674  28.142  80.116  62.445
34098DT     BB221675  28.134  79.755  62.443
34098DT     BB321676  28.288  79.680  62.560
34098DT     SC121677  28.466  79.739  62.376
34098DT     SC221678  28.542  79.558  62.289
34098DT     SC321679  28.673  79.852  62.259
34099DC     BB121680  28.126  79.602  62.778
34099DC     BB221681  28.299  79.299  62.688
34099DC     BB321682  28.475  79.283  62.796
34099DC     SC121683  28.591  79.467  62.649
34099DC     SC221684  28.744  79.376  62.528
34099DC     SC321685  28.708  79.693  62.582
34100DC     BB121686  28.380  79.081  62.964
34100DC     BB221687  28.674  78.938  62.813
34100DC     BB321688  28.841  78.980  62.929
34100DC     SC121689  28.844  79.229  62.847
34100DC     SC221690  29.015  79.261  62.721
34100DC     SC321691  28.832  79.493  62.854
34101DC     BB121692  28.870  78.717  63.035
34101DC     BB221693  29.188  78.782  62.877
34101DC     BB321694  29.321  78.861  63.015
34101DC     SC121695  29.200  79.094  63.010
34101DC     SC221696  29.328  79.238  62.914
34101DC     SC321697  29.064  79.305  63.090
34102DT     BB121698  29.465  78.626  63.022
34102DT     BB221699  29.705  78.876  62.922
34102DT     BB321700  29.794  78.959  63.089
34102DT     SC121701  29.579  79.099  63.145
34102DT     SC221702  29.619  79.308  63.111
34102DT     SC321703  29.366  79.186  63.274
34103DA     BB121704  30.085  78.838  62.816
34103DA     BB221705  30.160  79.182  62.917
34103DA     BB321706  30.236  79.186  63.116
34103DA     SC121707  29.956  79.222  63.247
34103DA     SC221708  29.830  79.400  63.369
34103DA     SC321709  29.684  79.208  63.456
34103DA     SC421710  29.877  79.089  63.292
34104DT     BB121711  30.408  79.246  63.118
34104DT     BB221712  30.346  79.571  63.260
34104DT     BB321713  30.388  79.569  63.463
34104DT     SC121714  30.168  79.435  63.515
34104DT     SC221715  30.030  79.562  63.620
34104DT     SC321716  30.010  79.239  63.594
34105DA     BB121717  30.567  79.897  63.273
34105DA     BB221718  30.407  80.016  63.582
34105DA     BB321719  30.513  79.944  63.752
34105DA     SC121720  30.345  79.684  63.779
34105DA     SC221721  30.175  79.589  63.935
34105DA     SC321722  30.239  79.362  63.834
34105DA     SC421723  30.399  79.552  63.704
34106DT     BB121724  30.601  80.080  63.857
34106DT     BB221725  30.390  80.066  64.150
34106DT     BB321726  30.483  79.956  64.299
34106DT     SC121727  30.433  79.730  64.175
34106DT     SC221728  30.287  79.619  64.287
34106DT     SC321729  30.474  79.502  64.049
34107DG     BB121730  30.430  80.322  64.477
34107DG     BB221731  30.319  80.058  64.698
34107DG     BB321732  30.475  79.976  64.789
34107DG     SC121733  30.524  79.765  64.573
34107DG     SC221734  30.489  79.470  64.604
34107DG     SC321735  30.618  79.535  64.345
34107DG     SC421736  30.619  79.802  64.449
34108DT     BB121737  30.560  79.975  65.046
34108DT     BB221738  30.487  79.635  65.142
34108DT     BB321739  30.664  79.531  65.172
34108DT     SC121740  30.707  79.515  64.913
34108DT     SC221741  30.683  79.311  64.850
34108DT     SC321742  30.821  79.548  64.678
34109DG     BB121743  30.556  79.493  65.579
34109DG     BB221744  30.643  79.167  65.450
34109DG     BB321745  30.838  79.135  65.473
34109DG     SC121746  30.914  79.255  65.202
34109DG     SC221747  31.027  79.105  64.969
34109DG     SC321748  31.036  79.397  64.921
34109DG     SC421749  30.944  79.412  65.192
34110DA     BB121750  30.845  78.821  65.672
34110DA     BB221751  31.005  78.638  65.397
34110DA     BB321752  31.218  78.650  65.414
34110DA     SC121753  31.242  78.907  65.241
34110DA     SC221754  31.329  78.971  65.016
34110DA     SC321755  31.335  79.210  65.109
34110DA     SC421756  31.239  79.049  65.317
34111DT     BB121757  31.387  78.469  65.466
34111DT     BB221758  31.492  78.431  65.123
34111DT     BB321759  31.691  78.482  65.103
34111DT     SC121760  31.635  78.738  65.123
34111DT     SC221761  31.668  78.833  64.933
34111DT     SC321762  31.629  78.984  65.217
34112DA     BB121763  31.654  78.101  64.940
34112DA     BB221764  31.815  78.314  64.688
34112DA     BB321765  32.021  78.344  64.737
34112DA     SC121766  31.969  78.601  64.905
34112DA     SC221767  32.013  78.846  64.886
34112DA     SC321768  31.980  78.851  65.140
34112DA     SC421769  31.946  78.583  65.063
34113DA     BB121770  32.020  78.241  64.433
34113DA     BB221771  32.169  78.565  64.348
34113DA     BB321772  32.373  78.572  64.409
34113DA     SC121773  32.310  78.688  64.691
34113DA     SC221774  32.342  78.903  64.813
34113DA     SC321775  32.310  78.763  65.026
34113DA     SC421776  32.289  78.583  64.811
34114DA     BB121777  32.346  78.665  64.101
34114DA     BB221778  32.494  78.981  64.214
34114DA     BB321779  32.698  78.951  64.270
34114DA     SC121780  32.632  78.889  64.568
34114DA     SC221781  32.663  78.998  64.790
34114DA     SC321782  32.629  78.763  64.887
34114DA     SC421783  32.610  78.735  64.609
34115DC     BB121784  32.777  79.050  64.161
34115DC     BB221785  32.882  79.304  64.394
34115DC     BB321786  33.070  79.259  64.469
34115DC     SC121787  32.971  79.071  64.623
34115DC     SC221788  32.985  79.132  64.829
34115DC     SC321789  32.926  78.831  64.724
34116DT     BB121790  33.126  79.468  64.328
34116DT     BB221791  33.250  79.540  64.659
34116DT     BB321792  33.430  79.444  64.689
34116DT     SC121793  33.311  79.212  64.716
34116DT     SC221794  33.327  79.147  64.921
34116DT     SC321795  33.241  78.962  64.669
34117DG     BB121796  33.480  79.843  64.758
34117DG     BB221797  33.626  79.645  65.022
34117DG     BB321798  33.797  79.564  64.960
34117DG     SC121799  33.665  79.310  64.852
34117DG     SC221800  33.701  79.034  64.961
34117DG     SC321801  33.552  79.028  64.705
34117DG     SC421802  33.612  79.308  64.701
34118DG     BB121803  33.987  79.711  65.199
34118DG     BB221804  34.086  79.379  65.304
34118DG     BB321805  34.238  79.315  65.192
34118DG     SC121806  34.059  79.186  64.980
34118DG     SC221807  34.037  78.893  64.924
34118DG     SC321808  33.893  79.051  64.719
34118DG     SC421809  34.009  79.274  64.857
34119DT     BB121810  34.505  79.267  65.238
34119DT     BB221811  34.515  78.907  65.226
34119DT     BB321812  34.619  78.844  65.059
34119DT     SC121813  34.418  78.906  64.902
34119DT     SC221814  34.330  78.726  64.824
34119DT     SC321815  34.279  79.026  64.712
34120DT     BB121816  34.920  78.764  65.142
34120DT     BB221817  34.814  78.469  64.964
34120DT     BB321818  34.890  78.471  64.772
34120DT     SC121819  34.716  78.654  64.698
34120DT     SC221820  34.574  78.566  64.562
34120DT     SC321821  34.619  78.883  64.612
34121DA     BB121822  35.081  78.100  64.869
34121DA     BB221823  34.899  78.040  64.556
34121DA     BB321824  35.016  78.103  64.389
34121DA     SC121825  34.901  78.392  64.387
34121DA     SC221826  34.752  78.530  64.242
34121DA     SC321827  34.859  78.732  64.359
34121DA     SC421828  34.981  78.504  64.470
34122DT     BB121829  35.110  77.966  64.221
34122DT     BB221830  34.859  78.043  63.974
34122DT     BB321831  34.944  78.150  63.818
34122DT     SC121832  34.957  78.368  63.963
34122DT     SC221833  34.816  78.512  63.888
34122DT     SC321834  35.059  78.572  64.095
34123DA     BB121835  34.737  77.825  63.655
34123DA     BB221836  34.623  78.129  63.484
34123DA     BB321837  34.773  78.198  63.348
34123DA     SC121838  34.912  78.382  63.556
34123DA     SC221839  34.940  78.626  63.597
34123DA     SC321840  35.141  78.558  63.742
34123DA     SC421841  35.034  78.319  63.641
34124DA     BB121842  34.507  78.180  63.160
34124DA     BB221843  34.546  78.542  63.111
34124DA     BB321844  34.711  78.581  62.981
34124DA     SC121845  34.919  78.602  63.212
34124DA     SC221846  35.056  78.780  63.321
34124DA     SC321847  35.202  78.586  63.405
34124DA     SC421848  34.998  78.469  63.253
34125DA     BB121849  34.471  78.749  62.835
34125DA     BB221850  34.675  79.048  62.890
34125DA     BB321851  34.842  79.049  62.757
34125DA     SC121852  35.031  78.898  62.953
34125DA     SC221853  35.233  78.949  63.090
34125DA     SC321854  35.270  78.695  63.092
34125DA     SC421855  35.037  78.738  62.942
34126DC     BB121856  34.854  79.192  62.609
34126DC     BB221857  35.114  79.390  62.762
34126DC     BB321858  35.293  79.360  62.663
34126DC     SC121859  35.323  79.123  62.772
34126DC     SC221860  35.486  79.129  62.912
34126DC     SC321861  35.346  78.862  62.794
34127DT     BB121862  35.290  79.610  62.537
34127DT     BB221863  35.601  79.607  62.720
34127DT     BB321864  35.752  79.530  62.601
34127DT     SC121865  35.660  79.285  62.629
34127DT     SC221866  35.797  79.171  62.750
34127DT     SC321867  35.557  79.050  62.569
34128DT     BB121868  35.874  79.778  62.561
34128DT     BB221869  36.129  79.574  62.715
34128DT     BB321870  36.240  79.477  62.570
34128DT     SC121871  36.045  79.308  62.522
34128DT     SC221872  36.102  79.112  62.591
34128DT     SC321873  35.853  79.179  62.394
34129DG     BB121874  36.482  79.698  62.806
34129DG     BB221875  36.580  79.350  62.800
34129DG     BB321876  36.677  79.310  62.631
34129DG     SC121877  36.426  79.235  62.474
34129DG     SC221878  36.358  78.963  62.371
34129DG     SC321879  36.169  79.165  62.267
34129DG     SC421880  36.345  79.350  62.397
34130DG     BB121881  36.850  79.217  62.879
34130DG     BB221882  36.806  78.887  62.737
34130DG     BB321883  36.914  78.870  62.571
34130DG     SC121884  36.692  78.972  62.386
34130DG     SC221885  36.548  78.811  62.180
34130DG     SC321886  36.478  79.097  62.158
34130DG     SC421887  36.679  79.129  62.359
34131DT     BB121888  36.997  78.727  62.622
34131DT     BB221889  36.868  78.474  62.400
34131DT     BB321890  36.968  78.481  62.219
34131DT     SC121891  36.840  78.698  62.147
34131DT     SC221892  36.705  78.651  61.986
34131DT     SC321893  36.795  78.949  62.078
34132DT     BB121894  37.026  78.257  62.327
34132DT     BB221895  36.895  78.183  61.999
34132DT     BB321896  37.034  78.235  61.854
34132DT     SC121897  36.983  78.490  61.885
34132DT     SC221898  36.882  78.565  61.711
34132DT     SC321899  37.018  78.745  61.943
34133DT     BB121900  37.068  77.974  61.819
34133DT     BB221901  36.998  78.102  61.489
34133DT     BB321902  37.171  78.178  61.405
34133DT     SC121903  37.162  78.391  61.557
34133DT     SC221904  37.115  78.563  61.437
34133DT     SC321905  37.230  78.568  61.740
34134DC     BB121906  37.207  77.962  61.230
34134DC     BB221907  37.218  78.250  61.012
34134DC     BB321908  37.412  78.319  60.996
34134DC     SC121909  37.403  78.423  61.236
34134DC     SC221910  37.404  78.638  61.221
34134DC     SC321911  37.460  78.467  61.490
34135DA     BB121912  37.316  78.260  60.589
34135DA     BB221913  37.462  78.596  60.616
34135DA     BB321914  37.674  78.583  60.632
34135DA     SC121915  37.676  78.571  60.942
34135DA     SC221916  37.743  78.717  61.133
34135DA     SC321917  37.747  78.501  61.271
34135DA     SC421918  37.674  78.425  61.011
34136DA     BB121919  37.690  78.784  60.368
34136DA     BB221920  37.856  79.031  60.582
34136DA     BB321921  38.063  78.985  60.601
34136DA     SC121922  38.026  78.808  60.854
34136DA     SC221923  38.080  78.820  61.097
34136DA     SC321924  38.051  78.565  61.095
34136DA     SC421925  38.004  78.650  60.832
34137DC     BB121926  38.203  79.114  60.521
34137DC     BB221927  38.308  79.258  60.835
34137DC     BB321928  38.496  79.188  60.885
34137DC     SC121929  38.400  78.954  60.954
34137DC     SC221930  38.415  78.930  61.167
34137DC     SC321931  38.356  78.694  60.953
34138DT     BB121932  38.576  79.435  60.834
34138DT     BB221933  38.672  79.374  61.176
34138DT     BB321934  38.854  79.274  61.182
34138DT     SC121935  38.741  79.049  61.108
34138DT     SC221936  38.744  78.910  61.272
34138DT     SC321937  38.682  78.837  60.963
34139DC     BB121938  38.937  79.502  61.278
34139DC     BB221939  39.027  79.256  61.526
34139DC     BB321940  39.201  79.160  61.470
34139DC     SC121941  39.076  79.021  61.287
34139DC     SC221942  39.069  78.814  61.347
34139DC     SC321943  39.006  78.928  61.050
34140DA     BB121944  39.231  79.290  61.870
34140DA     BB221945  39.355  78.945  61.852
34140DA     BB321946  39.540  78.939  61.747
34140DA     SC121947  39.410  78.894  61.469
34140DA     SC221948  39.392  78.710  61.301
34140DA     SC321949  39.335  78.896  61.133
34140DA     SC421950  39.378  79.024  61.380
34141DA     BB121951  39.652  78.783  62.019
34141DA     BB221952  39.740  78.500  61.802
34141DA     BB321953  39.916  78.544  61.691
34141DA     SC121954  39.763  78.666  61.449
34141DA     SC221955  39.715  78.606  61.212
34141DA     SC321956  39.665  78.856  61.181
34141DA     SC421957  39.737  78.825  61.450
34142DA     BB121958  40.053  78.265  61.816
34142DA     BB221959  40.084  78.141  61.472
34142DA     BB321960  40.254  78.228  61.377
34142DA     SC121961  40.096  78.470  61.262
34142DA     SC221962  40.021  78.552  61.039
34142DA     SC321963  40.000  78.781  61.153
34142DA     SC421964  40.091  78.604  61.351
34143DA     BB121965  40.356  77.917  61.316
34143DA     BB221966  40.333  77.995  60.959
34143DA     BB321967  40.504  78.105  60.895
34143DA     SC121968  40.375  78.383  60.952
34143DA     SC221969  40.291  78.578  60.820
34143DA     SC321970  40.318  78.711  61.038
34143DA     SC421971  40.400  78.449  61.096
34144DT     BB121972  40.646  78.023  60.761
34144DT     BB221973  40.544  78.214  60.472
34144DT     BB321974  40.687  78.357  60.428
34144DT     SC121975  40.611  78.506  60.631
34144DT     SC221976  40.516  78.684  60.557
34144DT     SC321977  40.619  78.636  60.860
34145DA     BB121978  40.608  78.143  60.077
34145DA     BB221979  40.591  78.500  59.997
34145DA     BB321980  40.786  78.585  59.995
34145DA     SC121981  40.781  78.665  60.296
34145DA     SC221982  40.771  78.874  60.432
34145DA     SC321983  40.864  78.730  60.623
34145DA     SC421984  40.841  78.559  60.402
34146DA     BB121985  40.675  78.680  59.701
34146DA     BB221986  40.729  79.025  59.815
34146DA     BB321987  40.938  79.069  59.820
34146DA     SC121988  40.974  78.979  60.116
34146DA     SC221989  41.020  79.085  60.337
34146DA     SC321990  41.095  78.851  60.411
34146DA     SC421991  41.018  78.827  60.142
34147DA     BB121992  40.849  79.326  59.629
34147DA     BB221993  40.987  79.546  59.888
34147DA     BB321994  41.200  79.545  59.880
34147DA     SC121995  41.230  79.309  60.082
34147DA     SC221996  41.311  79.275  60.315
34147DA     SC321997  41.334  79.028  60.250
34147DA     SC421998  41.239  79.160  60.021
34148DG     BB121999  41.219  79.861  59.810
34148DG     BB222000  41.390  79.885  60.128
34148DG     BB322001  41.585  79.854  60.103
34148DG     SC122002  41.567  79.551  60.143
34148DG     SC222003  41.683  79.398  60.372
34148DG     SC322004  41.582  79.215  60.163
34148DG     SC422005  41.539  79.458  60.017
34149DT     BB122006  41.818  80.014  60.123
34149DT     BB222007  41.946  79.888  60.436
34149DT     BB322008  42.124  79.788  60.405
34149DT     SC122009  42.000  79.582  60.301
34149DT     SC222010  42.015  79.414  60.435
34149DT     SC322011  41.923  79.401  60.124
34150DT     BB122012  42.353  79.981  60.496
34150DT     BB222013  42.407  79.687  60.699
34150DT     BB322014  42.557  79.571  60.617
34150DT     SC122015  42.398  79.487  60.426
34150DT     SC222016  42.354  79.278  60.456
34150DT     SC322017  42.300  79.446  60.185
34151DA     BB122018  42.694  79.634  61.008
34151DA     BB222019  42.681  79.271  60.953
34151DA     BB322020  42.851  79.208  60.841
34151DA     SC122021  42.713  79.243  60.564
34151DA     SC222022  42.628  79.098  60.380
34151DA     SC322023  42.644  79.308  60.234
34151DA     SC422024  42.731  79.384  60.490
34152DC     BB122025  42.964  79.088  60.937
34152DC     BB222026  42.843  78.790  60.773
34152DC     BB322027  42.982  78.725  60.634
34152DC     SC122028  42.917  78.918  60.468
34152DC     SC222029  42.815  78.834  60.298
34152DC     SC322030  42.937  79.134  60.318
34153DG     BB122031  42.863  78.448  60.908
34153DG     BB222032  42.811  78.337  60.568
34153DG     BB322033  42.986  78.294  60.483
34153DG     SC122034  43.033  78.577  60.377
34153DG     SC222035  43.037  78.658  60.089
34153DG     SC322036  43.125  78.881  60.263
34153DG     SC422037  43.107  78.684  60.470
34154DT     BB122038  42.974  78.116  60.428
34154DT     BB222039  42.949  78.147  60.070
34154DT     BB322040  43.138  78.141  59.985
34154DT     SC122041  43.191  78.385  60.066
34154DT     SC222042  43.199  78.516  59.895
34154DT     SC322043  43.306  78.585  60.193
34155DT     BB122044  43.041  77.918  59.898
34155DT     BB222045  43.135  78.106  59.605
34155DT     BB322046  43.340  78.096  59.578
34155DT     SC122047  43.383  78.263  59.776
34155DT     SC222048  43.456  78.450  59.697
34155DT     SC322049  43.466  78.358  60.008
34156DT     BB122050  43.275  77.950  59.371
34156DT     BB222051  43.473  78.221  59.239
34156DT     BB322052  43.674  78.181  59.267
34156DT     SC122053  43.658  78.235  59.523
34156DT     SC222054  43.763  78.418  59.565
34156DT     SC322055  43.664  78.202  59.785
34157DT     BB122056  43.684  78.147  59.005
34157DT     BB222057  43.927  78.404  59.077
34157DT     BB322058  44.105  78.317  59.139
34157DT     SC122059  44.004  78.260  59.374
34157DT     SC222060  44.097  78.383  59.524
34157DT     SC322061  43.918  78.119  59.580
34158DT     BB122062  44.206  78.393  58.905
34158DT     BB222063  44.420  78.543  59.154
34158DT     BB322064  44.562  78.406  59.218
34158DT     SC122065  44.384  78.276  59.359
34158DT     SC222066  44.424  78.304  59.569
34158DT     SC322067  44.227  78.080  59.442
34159DT     BB122068  44.739  78.554  59.087
34159DT     BB222069  44.858  78.542  59.427
34159DT     BB322070  44.965  78.367  59.458
34159DT     SC122071  44.744  78.225  59.465
34159DT     SC222072  44.711  78.153  59.665
34159DT     SC322073  44.562  78.046  59.398
34160DA     BB122074  45.188  78.697  59.593
34160DA     BB222075  45.189  78.441  59.856
34160DA     BB322076  45.307  78.274  59.796
34160DA     SC122077  45.068  78.122  59.665
34160DA     SC222078  44.933  77.918  59.711
34160DA     SC322079  44.870  77.929  59.462
34160DA     SC422080  45.042  78.145  59.508
34161DT     BB122081  45.487  78.229  59.894
34161DT     BB222082  45.371  77.937  60.071
34161DT     BB322083  45.450  77.766  59.986
34161DT     SC122084  45.286  77.783  59.781
34161DT     SC222085  45.142  77.624  59.791
34161DT     SC322086  45.201  77.811  59.533
34162DT     BB122087  45.636  77.718  60.192
34162DT     BB222088  45.450  77.409  60.172
34162DT     BB322089  45.543  77.280  60.039
34162DT     SC122090  45.457  77.417  59.833
34162DT     SC222091  45.308  77.302  59.728
34162DT     SC322092  45.459  77.566  59.615
34163DT     BB122093  45.657  77.103  60.234
34163DT     BB222094  45.463  76.882  60.025
34163DT     BB322095  45.582  76.805  59.874
34163DT     SC122096  45.580  77.033  59.744
34163DT     SC222097  45.465  77.011  59.563
34163DT     SC322098  45.665  77.256  59.632
34164DT     BB122099  45.609  76.541  59.982
34164DT     BB222100  45.469  76.486  59.654
34164DT     BB322101  45.621  76.453  59.518
34164DT     SC122102  45.685  76.707  59.516
34164DT     SC222103  45.632  76.792  59.325
34164DT     SC322104  45.826  76.928  59.547
34165DT     BB122105  45.564  76.181  59.497
34165DT     BB222106  45.529  76.307  59.160
34165DT     BB322107  45.710  76.293  59.061
34165DT     SC122108  45.807  76.497  59.193
34165DT     SC222109  45.831  76.665  59.060
34165DT     SC322110  45.961  76.637  59.355
34166DT     BB122111  45.596  76.101  58.916
34166DT     BB222112  45.692  76.354  58.678
34166DT     BB322113  45.889  76.327  58.621
34166DT     SC122114  45.977  76.420  58.850
34166DT     SC222115  46.071  76.610  58.818
34166DT     SC322116  46.096  76.428  59.085
34167DG     BB122117  45.612  76.360  58.325
34167DG     BB222118  45.887  76.590  58.283
34167DG     BB322119  46.051  76.491  58.228
34167DG     SC122120  46.146  76.440  58.515
34167DG     SC222121  46.391  76.556  58.641
34167DG     SC322122  46.270  76.350  58.815
34167DG     SC422123  46.096  76.309  58.591
34168DT     BB122124  46.081  76.587  58.088
34168DT     BB222125  46.392  76.754  58.164
34168DT     BB322126  46.551  76.627  58.130
34168DT     SC122127  46.499  76.491  58.349
34168DT     SC222128  46.654  76.526  58.494
34168DT     SC322129  46.433  76.290  58.506
34169DT     BB122130  46.565  76.825  57.974
34169DT     BB222131  46.888  76.794  58.131
34169DT     BB322132  46.984  76.624  58.063
34169DT     SC122133  46.829  76.470  58.209
34169DT     SC222134  46.945  76.383  58.368
34169DT     SC322135  46.650  76.287  58.274
34170DT     BB122136  47.141  76.789  57.930
34170DT     BB222137  47.370  76.555  58.081
34170DT     BB322138  47.376  76.380  57.970
34170DT     SC122139  47.142  76.305  58.061
34170DT     SC222140  47.167  76.136  58.192
34170DT     SC322141  46.887  76.238  58.065
34171DT     BB122142  47.624  76.404  57.788
34171DT     BB222143  47.662  76.065  57.906
34171DT     BB322144  47.583  75.932  57.769
34171DT     SC122145  47.338  75.995  57.838
34171DT     SC222146  47.248  75.828  57.940
34171DT     SC322147  47.091  76.086  57.821
34172DC     BB122148  47.813  75.800  57.564
34172DC     BB222149  47.642  75.502  57.672
34172DC     BB322150  47.512  75.436  57.524
34172DC     SC122151  47.342  75.629  57.578
34172DC     SC222152  47.165  75.545  57.666
34172DC     SC322153  47.193  75.844  57.546
34173DT     BB122154  47.645  75.190  57.362
34173DT     BB222155  47.330  75.049  57.470
34173DT     BB322156  47.196  75.050  57.313
34173DT     SC122157  47.159  75.309  57.335
34173DT     SC222158  46.960  75.347  57.408
34173DT     SC322159  47.158  75.565  57.274
34174DT     BB122160  47.193  74.762  57.235
34174DT     BB222161  46.848  74.831  57.317
34174DT     BB322162  46.742  74.872  57.145
34174DT     SC122163  46.850  75.111  57.126
34174DT     SC222164  46.700  75.260  57.167
34174DT     SC322165  46.990  75.313  57.032
34175DA     BB122166  46.536  74.572  57.349
34175DA     BB222167  46.298  74.841  57.276
34175DA     BB322168  46.242  74.837  57.071
34175DA     SC122169  46.469  75.030  56.979
34175DA     SC222170  46.489  75.263  56.894
34175DA     SC322171  46.718  75.189  56.805
34175DA     SC422172  46.607  74.964  56.931
34176DT     BB122173  46.061  74.800  57.050
34176DT     BB222174  45.958  75.135  56.963
34176DT     BB322175  45.931  75.150  56.759
34176DT     SC122176  46.190  75.151  56.717
34176DT     SC222177  46.250  75.346  56.648
34176DT     SC322178  46.428  75.076  56.632
34177DA     BB122179  45.608  75.308  56.974
34177DA     BB222180  45.703  75.548  56.715
34177DA     BB322181  45.652  75.473  56.522
34177DA     SC122182  45.927  75.334  56.476
34177DA     SC222183  46.128  75.364  56.332
34177DA     SC322184  46.178  75.119  56.385
34177DA     SC422185  45.940  75.180  56.520
34178DA     BB122186  45.517  75.772  56.523
34178DA     BB222187  45.720  75.842  56.226
34178DA     BB322188  45.647  75.733  56.058
34178DA     SC122189  45.828  75.485  56.109
34178DA     SC222190  46.025  75.375  56.003
34178DA     SC322191  45.955  75.167  56.135
34178DA     SC422192  45.768  75.366  56.199
34179DG     BB122193  45.601  76.012  55.922
34179DG     BB222194  45.839  75.889  55.679
34179DG     BB322195  45.746  75.774  55.546
34179DG     SC122196  45.786  75.515  55.705
34179DG     SC222197  45.956  75.284  55.624
34179DG     SC322198  45.794  75.217  55.862
34179DG     SC422199  45.676  75.474  55.814
34180DT     BB122200  45.712  75.814  55.304
34180DT     BB222201  45.944  75.578  55.160
34180DT     BB322202  45.840  75.421  55.073
34180DT     SC122203  45.785  75.318  55.308
34180DT     SC222204  45.894  75.135  55.333
34180DT     SC322205  45.645  75.233  55.515
34181DA     BB122206  46.065  75.547  54.738
34181DA     BB222207  46.109  75.184  54.763
34181DA     BB322208  45.938  75.083  54.683
34181DA     SC122209  45.788  75.072  54.956
34181DA     SC222210  45.722  74.899  55.123
34181DA     SC322211  45.550  75.071  55.203
34181DA     SC422212  45.687  75.192  54.990
34182DA     BB122213  46.140  74.917  54.473
34182DA     BB222214  46.040  74.607  54.642
34182DA     BB322215  45.853  74.538  54.565
34182DA     SC122216  45.682  74.693  54.775
34182DA     SC222217  45.539  74.640  54.971
34182DA     SC322218  45.438  74.873  54.935
34182DA     SC422219  45.632  74.840  54.735
34183DT     BB122220  45.833  74.354  54.451
34183DT     BB222221  45.687  74.160  54.717
34183DT     BB322222  45.487  74.123  54.677
34183DT     SC122223  45.421  74.370  54.737
34183DT     SC222224  45.308  74.371  54.920
34183DT     SC322225  45.332  74.617  54.710
34184DC     BB122226  45.537  73.858  54.622
34184DC     BB222227  45.296  73.850  54.889
34184DC     BB322228  45.104  73.853  54.811
34184DC     SC122229  45.124  74.109  54.754
34184DC     SC222230  44.994  74.221  54.883
34184DC     SC322231  45.134  74.331  54.612
34185DA     BB122232  45.124  73.528  55.075
34185DA     BB222233  44.826  73.724  55.161
34185DA     BB322234  44.673  73.693  55.015
34185DA     SC122235  44.763  73.931  54.836
34185DA     SC222236  44.678  74.157  54.772
34185DA     SC322237  44.837  74.138  54.572
34185DA     SC422238  44.867  73.900  54.717
34186DC     BB122239  44.501  73.597  55.070
34186DC     BB222240  44.291  73.891  55.078
34186DC     BB322241  44.166  73.893  54.913
34186DC     SC122242  44.363  73.961  54.754
34186DC     SC222243  44.333  74.163  54.686
34186DC     SC322244  44.540  73.949  54.559
34187DT     BB122245  43.948  73.832  55.069
34187DT     BB222246  43.861  74.143  54.908
34187DT     BB322247  43.771  74.106  54.725
34187DT     SC122248  44.001  74.041  54.616
34187DT     SC222249  44.057  74.193  54.474
34187DT     SC322250  44.189  73.898  54.500
34188DT     BB122251  43.529  74.183  54.824
34188DT     BB222252  43.588  74.403  54.545
34188DT     BB322253  43.518  74.317  54.371
34188DT     SC122254  43.720  74.150  54.362
34188DT     SC222255  43.849  74.201  54.198
34188DT     SC322256  43.855  73.923  54.364
34189DA     BB122257  43.376  74.708  54.412
34189DA     BB222258  43.524  74.672  54.078
34189DA     BB322259  43.399  74.552  53.954
34189DA     SC122260  43.539  74.285  54.031
34189DA     SC222261  43.687  74.116  53.923
34189DA     SC322262  43.609  73.958  54.109
34189DA     SC422263  43.478  74.202  54.154
34190DC     BB122264  43.350  74.655  53.825
34190DC     BB222265  43.562  74.510  53.571
34190DC     BB322266  43.456  74.369  53.463
34190DC     SC122267  43.468  74.196  53.661
34190DC     SC222268  43.598  74.034  53.606
34190DC     SC322269  43.391  74.036  53.855
34191DG     BB122270  43.646  74.657  53.245
34191DG     BB222271  43.725  74.323  53.131
34191DG     BB322272  43.567  74.243  53.040
34191DG     SC122273  43.451  74.121  53.296
34191DG     SC222274  43.427  73.829  53.356
34191DG     SC322275  43.285  73.991  53.559
34191DG     SC422276  43.351  74.209  53.385
34192DA     BB122277  43.825  74.179  52.818
34192DA     BB222278  43.736  73.824  52.833
34192DA     BB322279  43.545  73.791  52.744
34192DA     SC122280  43.388  73.828  53.010
34192DA     SC222281  43.258  73.687  53.169
34192DA     SC322282  43.154  73.908  53.248
34192DA     SC422283  43.334  73.976  53.044
34193DT     BB122284  43.551  73.687  52.587
34193DT     BB222285  43.398  73.388  52.718
34193DT     BB322286  43.198  73.382  52.666
34193DT     SC122287  43.139  73.565  52.844
34193DT     SC222288  43.024  73.476  53.003
34193DT     SC322289  43.056  73.794  52.948
34194DA     BB122290  43.351  73.012  52.536
34194DA     BB222291  43.039  72.945  52.716
34194DA     BB322292  42.871  73.003  52.598
34194DA     SC122293  42.861  73.293  52.712
34194DA     SC222294  42.712  73.428  52.859
34194DA     SC322295  42.825  73.632  52.752
34194DA     SC422296  42.942  73.407  52.632
34195DT     BB122297  42.722  72.863  52.507
34195DT     BB222298  42.450  72.936  52.733
34195DT     BB322299  42.303  73.043  52.634
34195DT     SC122300  42.447  73.262  52.638
34195DT     SC222301  42.358  73.404  52.771
34195DT     SC322302  42.587  73.468  52.551
34196DA     BB122303  42.086  72.717  52.790
34196DA     BB222304  41.904  73.021  52.883
34196DA     BB322305  41.796  73.097  52.715
34196DA     SC122306  42.027  73.279  52.616
34196DA     SC222307  42.076  73.524  52.602
34196DA     SC322308  42.250  73.457  52.425
34196DA     SC422309  42.129  73.218  52.508
34197DT     BB122310  41.580  73.099  52.709
34197DT     BB222311  41.545  73.453  52.771
34197DT     BB322312  41.481  73.549  52.599
34197DT     SC122313  41.719  73.528  52.490
34197DT     SC222314  41.809  73.723  52.477
34197DT     SC322315  41.910  73.456  52.322
34198DC     BB122316  41.239  73.587  52.713
34198DC     BB222317  41.359  73.919  52.636
34198DC     BB322318  41.308  73.969  52.442
34198DC     SC122319  41.494  73.811  52.344
34198DC     SC222320  41.649  73.931  52.256
34198DC     SC322321  41.606  73.612  52.212
34199DA     BB122322  41.203  74.271  52.713
34199DA     BB222323  41.389  74.423  52.436
34199DA     BB322324  41.271  74.421  52.258
34199DA     SC122325  41.376  74.145  52.161
34199DA     SC222326  41.521  74.056  51.979
34199DA     SC322327  41.406  73.831  52.025
34199DA     SC422328  41.292  74.014  52.204
34200DT     BB122329  41.245  74.588  52.215
34200DT     BB222330  41.465  74.597  51.930
34200DT     BB322331  41.357  74.562  51.756
34200DT     SC122332  41.338  74.306  51.812
34200DT     SC222333  41.458  74.194  51.672
34200DT     SC322334  41.231  74.072  51.869
34201DC     BB122335  41.388  74.823  51.692
34201DC     BB222336  41.517  74.645  51.406
34201DC     BB322337  41.363  74.601  51.274
34201DC     SC122338  41.273  74.410  51.431
34201DC     SC222339  41.308  74.219  51.338
34201DC     SC322340  41.112  74.275  51.590
34202DA     BB122341  41.654  74.794  51.042
34202DA     BB222342  41.546  74.496  50.857
34202DA     BB322343  41.353  74.528  50.771
34202DA     SC122344  41.199  74.416  51.017
34202DA     SC222345  41.061  74.216  51.073
34202DA     SC322346  40.969  74.358  51.266
34202DA     SC422347  41.153  74.521  51.130
34203DC     BB122348  41.314  74.546  50.553
34203DC     BB222349  41.156  74.225  50.508
34203DC     BB322350  40.954  74.250  50.471
34203DC     SC122351  40.907  74.307  50.722
34203DC     SC222352  40.796  74.147  50.813
34203DC     SC322353  40.837  74.443  50.937
34204DT     BB122354  40.962  74.193  50.190
34204DT     BB222355  40.718  73.959  50.315
34204DT     BB322356  40.528  74.039  50.299
34204DT     SC122357  40.571  74.199  50.503
34204DT     SC222358  40.450  74.136  50.670
34204DT     SC322359  40.602  74.421  50.642
34205DT     BB122360  40.450  73.878  50.082
34205DT     BB222361  40.200  73.810  50.332
34205DT     BB322362  40.039  73.939  50.308
34205DT     SC122363  40.175  74.140  50.409
34205DT     SC222364  40.094  74.192  50.601
34205DT     SC322365  40.298  74.372  50.425
34206DT     BB122366  39.883  73.735  50.212
34206DT     BB222367  39.699  73.862  50.495
34206DT     BB322368  39.573  74.015  50.435
34206DT     SC122369  39.773  74.182  50.411
34206DT     SC222370  39.760  74.332  50.565
34206DT     SC322371  39.948  74.346  50.301
34207DG     BB122372  39.354  73.726  50.619
34207DG     BB222373  39.287  74.053  50.760
34207DG     BB322374  39.167  74.155  50.639
34207DG     SC122375  39.394  74.280  50.477
34207DG     SC222376  39.467  74.569  50.471
34207DG     SC322377  39.618  74.418  50.266
34207DG     SC422378  39.451  74.201  50.349
34208DA     BB122379  38.980  74.207  50.925
34208DA     BB222380  39.004  74.570  50.878
34208DA     BB322381  38.878  74.632  50.718
34208DA     SC122382  39.097  74.601  50.500
34208DA     SC222383  39.234  74.750  50.353
34208DA     SC322384  39.268  74.541  50.208
34208DA     SC422385  39.106  74.461  50.422
34209DG     BB122386  38.734  74.809  50.933
34209DG     BB222387  38.838  75.083  50.722
34209DG     BB322388  38.711  75.105  50.571
34209DG     SC122389  38.860  74.914  50.385
34209DG     SC222390  39.001  74.990  50.133
34209DG     SC322391  38.987  74.696  50.161
34209DG     SC422392  38.824  74.758  50.389
34210DT     BB122393  38.554  75.294  50.524
34210DT     BB222394  38.711  75.451  50.239
34210DT     BB322395  38.600  75.414  50.068
34210DT     SC122396  38.684  75.166  50.057
34210DT     SC222397  38.815  75.143  49.888
34210DT     SC322398  38.680  74.902  50.058
34211DT     BB122399  38.464  75.673  50.033
34211DT     BB222400  38.620  75.622  49.712
34211DT     BB322401  38.486  75.533  49.582
34211DT     SC122402  38.512  75.301  49.701
34211DT     SC222403  38.615  75.165  49.571
34211DT     SC322404  38.450  75.084  49.838
34212DT     BB122405  38.416  75.763  49.417
34212DT     BB222406  38.531  75.521  49.176
34212DT     BB322407  38.371  75.414  49.101
34212DT     SC122408  38.349  75.275  49.323
34212DT     SC222409  38.408  75.072  49.286
34212DT     SC322410  38.248  75.179  49.546
34213DC     BB122411  38.357  75.539  48.842
34213DC     BB222412  38.396  75.189  48.765
34213DC     BB322413  38.211  75.100  48.739
34213DC     SC122414  38.166  75.102  48.998
34213DC     SC222415  38.170  74.901  49.073
34213DC     SC322416  38.054  75.159  49.230
34214DT     BB122417  38.238  75.079  48.463
34214DT     BB222418  38.184  74.740  48.573
34214DT     BB322419  37.982  74.697  48.573
34214DT     SC122420  37.944  74.839  48.790
34214DT     SC222421  37.897  74.708  48.954
34214DT     SC322422  37.856  75.030  48.950
34215DT     BB122423  38.012  74.535  48.355
34215DT     BB222424  37.870  74.321  48.608
34215DT     BB322425  37.663  74.332  48.603
34215DT     SC122426  37.666  74.569  48.716
34215DT     SC222427  37.587  74.553  48.915
34215DT     SC322428  37.632  74.828  48.750
34216DC     BB122429  37.654  74.082  48.498
34216DC     BB222430  37.457  74.062  48.800
34216DC     BB322431  37.262  74.117  48.761
34216DC     SC122432  37.327  74.371  48.746
34216DC     SC222433  37.245  74.476  48.914
34216DC     SC322434  37.364  74.612  48.645
34217DT     BB122435  37.186  73.858  48.789
34217DT     BB222436  36.987  74.038  49.031
34217DT     BB322437  36.814  74.109  48.941
34217DT     SC122438  36.947  74.298  48.817
34217DT     SC222439  36.894  74.489  48.900
34217DT     SC322440  37.050  74.440  48.620
34218DT     BB122441  36.673  73.925  49.080
34218DT     BB222442  36.527  74.242  49.173
34218DT     BB322443  36.381  74.296  49.036
34218DT     SC122444  36.562  74.360  48.857
34218DT     SC222445  36.562  74.574  48.830
34218DT     SC322446  36.703  74.357  48.634
34219DA     BB122447  36.217  74.322  49.420
34219DA     BB222448  36.141  74.634  49.243
34219DA     BB322449  35.991  74.601  49.095
34219DA     SC122450  36.193  74.535  48.868
34219DA     SC222451  36.275  74.640  48.657
34219DA     SC322452  36.351  74.404  48.593
34219DA     SC422453  36.232  74.381  48.846
34220DT     BB122454  35.827  74.693  49.129
34220DT     BB222455  35.867  74.946  48.875
34220DT     BB322456  35.751  74.900  48.710
34220DT     SC122457  35.918  74.711  48.636
34220DT     SC222458  36.018  74.771  48.456
34220DT     SC322459  36.011  74.471  48.578
34221DC     BB122460  35.611  75.108  48.787
34221DC     BB222461  35.714  75.181  48.449
34221DC     BB322462  35.588  75.086  48.315
34221DC     SC122463  35.699  74.853  48.364
34221DC     SC222464  35.811  74.789  48.192
34221DC     SC322465  35.726  74.603  48.444
34222DC     BB122466  35.507  75.329  48.263
34222DC     BB222467  35.618  75.196  47.947
34222DC     BB322468  35.471  75.075  47.865
34222DC     SC122469  35.522  74.883  48.036
34222DC     SC222470  35.612  74.717  47.932
34222DC     SC322471  35.488  74.709  48.231
34223DT     BB122472  35.438  75.268  47.686
34223DT     BB222473  35.508  74.970  47.494
34223DT     BB322474  35.335  74.859  47.470
34223DT     SC122475  35.345  74.776  47.719
34223DT     SC222476  35.392  74.566  47.722
34223DT     SC322477  35.278  74.740  47.971
34224DC     BB122478  35.326  74.931  47.210
34224DC     BB222479  35.325  74.571  47.205
34224DC     BB322480  35.132  74.500  47.227
34224DC     SC122481  35.131  74.558  47.483
34224DC     SC222482  35.132  74.376  47.597
34224DC     SC322483  35.065  74.672  47.711
34225DT     BB122484  35.123  74.425  46.965
34225DT     BB222485  35.051  74.123  47.148
34225DT     BB322486  34.849  74.112  47.189
34225DT     SC122487  34.868  74.295  47.376
34225DT     SC222488  34.837  74.203  47.569
34225DT     SC322489  34.833  74.521  47.506
34226DT     BB122490  34.813  73.913  47.004
34226DT     BB222491  34.695  73.771  47.314
34226DT     BB322492  34.495  73.818  47.341
34226DT     SC122493  34.553  74.065  47.405
34226DT     SC222494  34.513  74.097  47.614
34226DT     SC322495  34.564  74.329  47.393
34227DG     BB122496  34.525  73.411  47.346
34227DG     BB222497  34.360  73.536  47.643
34227DG     BB322498  34.171  73.584  47.600
34227DG     SC122499  34.236  73.873  47.523
34227DG     SC222500  34.149  74.117  47.671
34227DG     SC322501  34.273  74.189  47.412
34227DG     SC422502  34.276  73.906  47.371
34228DC     BB122503  34.018  73.480  47.703
34228DC     BB222504  33.909  73.731  47.938
34228DC     BB322505  33.734  73.819  47.871
34228DC     SC122506  33.864  73.957  47.689
34228DC     SC222507  33.862  74.165  47.742
34228DC     SC322508  33.942  74.044  47.453
34229DT     BB122509  33.627  73.692  48.074
34229DT     BB222510  33.556  74.042  48.129
34229DT     BB322511  33.392  74.099  48.017
34229DT     SC122512  33.534  74.099  47.796
34229DT     SC222513  33.559  74.302  47.728
34229DT     SC322514  33.617  74.034  47.554
34230DC     BB122515  33.284  74.117  48.252
34230DC     BB222516  33.253  74.445  48.105
34230DC     BB322517  33.094  74.447  47.972
34230DC     SC122518  33.232  74.312  47.794
34230DC     SC222519  33.278  74.440  47.627
34230DC     SC322520  33.304  74.117  47.631
34231DA     BB122521  33.061  74.772  48.236
34231DA     BB222522  33.011  74.896  47.895
34231DA     BB322523  32.824  74.829  47.818
34231DA     SC122524  32.941  74.569  47.694
34231DA     SC222525  32.985  74.476  47.466
34231DA     SC322526  32.989  74.248  47.582
34231DA     SC422527  32.938  74.436  47.784
34232DC     BB122528  32.683  74.966  47.783
34232DC     BB222529  32.700  74.958  47.422
34232DC     BB322530  32.540  74.851  47.346
34232DC     SC122531  32.649  74.623  47.418
34232DC     SC222532  32.710  74.515  47.243
34232DC     SC322533  32.683  74.393  47.542
34233DG     BB122534  32.498  75.222  47.178
34233DG     BB222535  32.490  74.964  46.925
34233DG     BB322536  32.309  74.880  46.920
34233DG     SC122537  32.376  74.665  47.127
34233DG     SC222538  32.394  74.371  47.076
34233DG     SC322539  32.409  74.429  47.366
34233DG     SC422540  32.353  74.697  47.282
34234DC     BB122541  32.159  74.887  46.737
34234DC     BB222542  32.196  74.552  46.608
34234DC     BB322543  32.028  74.440  46.652
34234DC     SC122544  32.099  74.418  46.904
34234DC     SC222545  32.155  74.214  46.945
34234DC     SC322546  32.094  74.443  47.167
34235DA     BB122547  32.079  74.400  46.238
34235DA     BB222548  32.045  74.063  46.379
34235DA     BB322549  31.841  74.024  46.428
34235DA     SC122550  31.866  74.130  46.720
34235DA     SC222551  31.864  74.037  46.951
34235DA     SC322552  31.808  74.276  47.025
34235DA     SC422553  31.830  74.285  46.746
34236DT     BB122554  31.749  73.880  46.326
34236DT     BB222555  31.761  73.632  46.587
34236DT     BB322556  31.574  73.610  46.672
34236DT     SC122557  31.597  73.838  46.801
34236DT     SC222558  31.616  73.799  47.012
34236DT     SC322559  31.550  74.086  46.877
34237DG     BB122560  31.732  73.261  46.537
34237DG     BB222561  31.635  73.243  46.886
34237DG     BB322562  31.437  73.233  46.901
34237DG     SC122563  31.398  73.536  46.913
34237DG     SC222564  31.300  73.691  47.149
34237DG     SC322565  31.318  73.864  46.910
34237DG     SC422566  31.381  73.618  46.777
34238DA     BB122567  31.558  72.986  47.106
34238DA     BB222568  31.373  73.141  47.382
34238DA     BB322569  31.163  73.123  47.350
34238DA     SC122570  31.139  73.394  47.198
34238DA     SC222571  31.041  73.619  47.238
34238DA     SC322572  31.051  73.646  46.983
34238DA     SC422573  31.153  73.391  47.038
34239DA     BB122574  31.246  73.029  47.655
34239DA     BB222575  31.002  73.281  47.763
34239DA     BB322576  30.807  73.228  47.697
34239DA     SC122577  30.829  73.382  47.428
34239DA     SC222578  30.730  73.586  47.323
34239DA     SC322579  30.804  73.482  47.100
34239DA     SC422580  30.881  73.301  47.300
34240DC     BB122581  30.714  73.203  47.840
34240DC     BB222582  30.492  73.486  47.812
34240DC     BB322583  30.321  73.432  47.708
34240DC     SC122584  30.451  73.432  47.480
34240DC     SC222585  30.383  73.597  47.360
34240DC     SC322586  30.558  73.344  47.256
34241DT     BB122587  30.160  73.422  47.936
34241DT     BB222588  29.971  73.633  47.712
34241DT     BB322589  29.845  73.517  47.596
34241DT     SC122590  30.045  73.433  47.448
34241DT     SC222591  30.029  73.517  47.251
34241DT     SC322592  30.220  73.269  47.337
34242DA     BB122593  29.551  73.772  47.763
34242DA     BB222594  29.479  73.756  47.404
34242DA     BB322595  29.376  73.575  47.357
34242DA     SC122596  29.636  73.414  47.300
34242DA     SC222597  29.751  73.313  47.103
34242DA     SC322598  29.874  73.168  47.274
34242DA     SC422599  29.701  73.332  47.422
34243DT     BB122600  29.143  73.539  47.288
34243DT     BB222601  29.213  73.465  46.942
34243DT     BB322602  29.166  73.268  46.901
34243DT     SC122603  29.379  73.182  47.028
34243DT     SC222604  29.519  73.101  46.886
34243DT     SC322605  29.529  73.059  47.207
34244DT     BB122606  28.919  73.309  46.754
34244DT     BB222607  29.120  73.118  46.524
34244DT     BB322608  29.078  72.916  46.544
34244DT     SC122609  29.211  72.902  46.769
34244DT     SC222610  29.390  72.786  46.740
34244DT     SC322611  29.262  72.869  47.026
34245DT     BB122612  28.927  72.890  46.303
34245DT     BB222613  29.187  72.643  46.266
34245DT     BB322614  29.122  72.460  46.337
34245DT     SC122615  29.145  72.539  46.586
34245DT     SC222616  29.308  72.433  46.679
34245DT     SC322617  29.079  72.604  46.833
34246DA     BB122618  29.254  72.376  45.948
34246DA     BB222619  29.407  72.127  46.170
34246DA     BB322620  29.264  71.978  46.223
34246DA     SC122621  29.167  72.128  46.478
34246DA     SC222622  29.181  72.100  46.726
34246DA     SC322623  28.980  72.258  46.735
34246DA     SC422624  29.041  72.227  46.463
34247DA     BB122625  29.485  71.761  46.107
34247DA     BB222626  29.501  71.617  46.443
34247DA     BB322627  29.333  71.489  46.477
34247DA     SC122628  29.154  71.714  46.595
34247DA     SC222629  29.058  71.777  46.817
34247DA     SC322630  28.891  71.917  46.682
34247DA     SC422631  29.058  71.794  46.494
34248DT     BB122632  29.347  71.267  46.500
34248DT     BB222633  29.293  71.259  46.856
34248DT     BB322634  29.108  71.176  46.898
34248DT     SC122635  28.985  71.395  46.822
34248DT     SC222636  28.898  71.491  46.993
34248DT     SC322637  28.829  71.556  46.683
34249DA     BB122638  29.366  70.935  47.126
34249DA     BB222639  29.097  71.045  47.350
34249DA     BB322640  28.920  70.929  47.315
34249DA     SC122641  28.806  71.124  47.101
34249DA     SC222642  28.616  71.285  47.080
34249DA     SC322643  28.650  71.260  46.827
34249DA     SC422644  28.841  71.094  46.947
34250DG     BB122645  28.938  70.826  47.613
34250DG     BB222646  28.632  71.015  47.651
34250DG     BB322647  28.475  70.901  47.605
34250DG     SC122648  28.476  70.977  47.308
34250DG     SC222649  28.265  71.134  47.167
34250DG     SC322650  28.460  71.021  46.975
34250DG     SC422651  28.565  70.891  47.207
34251DT     BB122652  28.323  70.859  47.757
34251DT     BB222653  28.059  71.081  47.651
34251DT     BB322654  27.909  70.973  47.559
34251DT     SC122655  28.054  70.942  47.343
34251DT     SC222656  27.969  71.057  47.182
34251DT     SC322657  28.192  70.823  47.151
34252DT     BB122658  27.771  71.036  47.773
34252DT     BB222659  27.586  71.173  47.496
34252DT     BB322660  27.469  71.026  47.409
34252DT     SC122661  27.678  70.915  47.296
34252DT     SC222662  27.668  70.945  47.083
34252DT     SC322663  27.863  70.736  47.237
34253DT     BB122664  27.278  71.171  47.510
34253DT     BB222665  27.212  71.157  47.156
34253DT     BB322666  27.120  70.977  47.109
34253DT     SC122667  27.346  70.846  47.135
34253DT     SC222668  27.412  70.778  46.942
34253DT     SC322669  27.524  70.675  47.229
34254DT     BB122670  26.916  71.134  47.064
34254DT     BB222671  26.971  70.955  46.755
34254DT     BB322672  26.888  70.766  46.768
34254DT     SC122673  27.083  70.683  46.922
34254DT     SC222674  27.205  70.543  46.814
34254DT     SC322675  27.209  70.590  47.135
34255DA     BB122676  26.756  70.951  46.414
34255DA     BB222677  26.868  70.612  46.331
34255DA     BB322678  26.731  70.468  46.408
34255DA     SC122679  26.879  70.437  46.680
34255DA     SC222680  27.014  70.264  46.798
34255DA     SC322681  26.956  70.394  47.012
34255DA     SC422682  26.831  70.530  46.802
34256DT     BB122683  26.629  70.361  46.277
34256DT     BB222684  26.803  70.049  46.326
34256DT     BB322685  26.688  69.921  46.442
34256DT     SC122686  26.742  70.058  46.660
34256DT     SC222687  26.869  69.940  46.788
34256DT     SC322688  26.708  70.207  46.874
34257DT     BB122689  26.630  69.765  46.226
34257DT     BB222690  26.775  69.537  46.464
34257DT     BB322691  26.628  69.464  46.591
34257DT     SC122692  26.617  69.692  46.721
34257DT     SC222693  26.697  69.664  46.919
34257DT     SC322694  26.521  69.917  46.818
34258DA     BB122695  26.821  69.124  46.439
34258DA     BB222696  26.801  69.086  46.803
34258DA     BB322697  26.602  69.038  46.862
34258DA     SC122698  26.514  69.334  46.899
34258DA     SC222699  26.455  69.486  47.087
34258DA     SC322700  26.339  69.629  46.908
34258DA     SC422701  26.447  69.408  46.773
34259DT     BB122702  26.563  68.854  46.943
34259DT     BB222703  26.523  68.966  47.284
34259DT     BB322704  26.323  68.965  47.336
34259DT     SC122705  26.276  69.180  47.193
34259DT     SC222706  26.233  69.345  47.325
34259DT     SC322707  26.177  69.337  47.006
34260DA     BB122708  26.534  68.755  47.631
34260DA     BB222709  26.318  68.999  47.798
34260DA     BB322710  26.114  68.937  47.787
34260DA     SC122711  26.058  69.088  47.521
34260DA     SC222712  25.926  69.286  47.445
34260DA     SC322713  25.943  69.181  47.211
34260DA     SC422714  26.078  69.006  47.384
34261DA     BB122715  26.134  68.977  48.112
34261DA     BB222716  25.873  69.232  48.079
34261DA     BB322717  25.682  69.140  48.051
34261DA     SC122718  25.702  69.138  47.740
34261DA     SC222719  25.594  69.253  47.547
34261DA     SC322720  25.680  69.056  47.407
34261DA     SC422721  25.763  69.006  47.671
34262DT     BB122722  25.550  69.166  48.195
34262DT     BB222723  25.340  69.402  48.022
34262DT     BB322724  25.167  69.308  47.956
34262DT     SC122725  25.296  69.187  47.763
34262DT     SC222726  25.235  69.269  47.574
34262DT     SC322727  25.400  68.993  47.617
34263DT     BB122728  25.039  69.448  48.143
34263DT     BB222729  24.873  69.534  47.834
34263DT     BB322730  24.729  69.392  47.790
34263DT     SC122731  24.911  69.218  47.717
34263DT     SC222732  24.900  69.188  47.504
34263DT     SC322733  25.058  68.999  47.715
34264DT     BB122734  24.553  69.582  47.848
34264DT     BB222735  24.469  69.477  47.513
34264DT     BB322736  24.349  69.308  47.520
34264DT     SC122737  24.553  69.156  47.583
34264DT     SC222738  24.599  69.026  47.418
34264DT     SC322739  24.708  68.994  47.722
34265DT     BB122740  24.141  69.461  47.443
34265DT     BB222741  24.148  69.192  47.202
34265DT     BB322742  24.044  69.029  47.275
34265DT     SC122743  24.239  68.969  47.441
34265DT     SC222744  24.334  68.787  47.377
34265DT     SC322745  24.368  68.928  47.667
34266DT     BB122746  23.825  69.069  47.108
34266DT     BB222747  23.915  68.725  47.046
34266DT     BB322748  23.815  68.601  47.179
34266DT     SC122749  23.973  68.672  47.376
34266DT     SC222750  24.099  68.506  47.429
34266DT     SC322751  24.053  68.775  47.605
34267DT     BB122752  23.606  68.494  47.003
34267DT     BB222753  23.755  68.195  47.140
34267DT     BB322754  23.650  68.134  47.308
34267DT     SC122755  23.755  68.327  47.452
34267DT     SC222756  23.890  68.243  47.596
34267DT     SC322757  23.773  68.545  47.600
34268DA     BB122758  23.586  67.765  47.098
34268DA     BB222759  23.708  67.670  47.430
34268DA     BB322760  23.547  67.670  47.571
34268DA     SC122761  23.587  67.967  47.654
34268DA     SC222762  23.665  68.094  47.854
34268DA     SC322763  23.540  68.293  47.752
34268DA     SC422764  23.502  68.078  47.575
34269DG     BB122765  23.529  67.339  47.661
34269DG     BB222766  23.647  67.458  47.982
34269DG     BB322767  23.493  67.480  48.106
34269DG     SC122768  23.439  67.770  48.027
34269DG     SC222769  23.474  68.010  48.202
34269DG     SC322770  23.338  68.083  47.950
34269DG     SC422771  23.340  67.800  47.904
34270DG     BB122772  23.586  67.255  48.349
34270DG     BB222773  23.640  67.543  48.560
34270DG     BB322774  23.478  67.577  48.671
34270DG     SC122775  23.346  67.762  48.465
34270DG     SC222776  23.297  68.054  48.498
34270DG     SC322777  23.163  67.952  48.255
34270DG     SC422778  23.252  67.697  48.352
34271DG     BB122779  23.663  67.543  48.936
34271DG     BB222780  23.605  67.896  48.988
34271DG     BB322781  23.438  67.923  49.092
34271DG     SC122782  23.257  67.937  48.846
34271DG     SC222783  23.107  68.177  48.752
34271DG     SC322784  23.027  67.937  48.599
34271DG     SC422785  23.195  67.801  48.787
34272DA     BB122786  23.658  68.114  49.264
34272DA     BB222787  23.450  68.407  49.192
34272DA     BB322788  23.272  68.403  49.309
34272DA     SC122789  23.106  68.247  49.096
34272DA     SC222790  22.916  68.292  48.942
34272DA     SC322791  22.887  68.037  48.936
34272DA     SC422792  23.104  68.087  49.107
34273DT     BB122793  23.278  68.544  49.414
34273DT     BB222794  23.027  68.737  49.240
34273DT     BB322795  22.844  68.714  49.332
34273DT     SC122796  22.815  68.472  49.234
34273DT     SC222797  22.659  68.472  49.087
34273DT     SC322798  22.790  68.210  49.224
34274DA     BB122799  22.939  69.115  49.257
34274DA     BB222800  22.597  69.052  49.140
34274DA     BB322801  22.466  69.021  49.306
34274DA     SC122802  22.508  68.713  49.313
34274DA     SC222803  22.376  68.508  49.265
34274DA     SC322804  22.548  68.386  49.411
34274DA     SC422805  22.624  68.656  49.409
34275DA     BB122806  22.320  69.250  49.127
34275DA     BB222807  22.038  69.016  49.104
34275DA     BB322808  21.939  69.001  49.292
34275DA     SC122809  22.113  68.762  49.391
34275DA     SC222810  22.083  68.519  49.437
34275DA     SC322811  22.295  68.541  49.581
34275DA     SC422812  22.244  68.797  49.476
34276DT     BB122813  21.767  69.064  49.282
34276DT     BB222814  21.598  68.746  49.299
34276DT     BB322815  21.532  68.712  49.492
34276DT     SC122816  21.775  68.658  49.574
34276DT     SC222817  21.789  68.448  49.621
34276DT     SC322818  22.002  68.677  49.707
34277DA     BB122819  21.229  68.644  49.210
34277DA     BB222820  21.235  68.362  49.444
34277DA     BB322821  21.164  68.424  49.636
34277DA     SC122822  21.447  68.501  49.741
34277DA     SC222823  21.611  68.417  49.909
34277DA     SC322824  21.711  68.653  49.900
34277DA     SC422825  21.494  68.654  49.722
34278DA     BB122826  20.995  68.154  49.559
34278DA     BB222827  21.125  68.014  49.872
34278DA     BB322828  21.040  68.116  50.040
34278DA     SC122829  21.266  68.330  50.055
34278DA     SC222830  21.454  68.388  50.208
34278DA     SC322831  21.446  68.619  50.096
34278DA     SC422832  21.244  68.467  49.975
34279DA     BB122833  20.987  67.799  50.111
34279DA     BB222834  21.166  67.862  50.425
34279DA     BB322835  21.050  67.988  50.552
34279DA     SC122836  21.173  68.252  50.443
34279DA     SC222837  21.325  68.433  50.525
34279DA     SC322838  21.224  68.575  50.336
34279DA     SC422839  21.097  68.325  50.322
34280DC     BB122840  20.977  67.911  50.721
34280DC     BB222841  21.179  68.094  50.958
34280DC     BB322842  21.069  68.249  51.040
34280DC     SC122843  21.090  68.390  50.819
34280DC     SC222844  21.218  68.559  50.854
34280DC     SC322845  21.022  68.519  50.599
34281DA     BB122846  21.179  68.053  51.399
34281DA     BB222847  21.238  68.411  51.453
34281DA     BB322848  21.054  68.512  51.488
34281DA     SC122849  21.004  68.578  51.188
34281DA     SC222850  21.003  68.779  51.041
34281DA     SC322851  20.863  68.636  50.881
34281DA     SC422852  20.917  68.473  51.103
34282DA     BB122853  21.146  68.640  51.796
34282DA     BB222854  21.113  68.978  51.656
34282DA     BB322855  20.910  69.043  51.668
34282DA     SC122856  20.833  68.933  51.387
34282DA     SC222857  20.774  69.024  51.163
34282DA     SC322858  20.669  68.794  51.119
34282DA     SC422859  20.773  68.784  51.380
34283DT     BB122860  20.816  69.217  51.803
34283DT     BB222861  20.787  69.456  51.535
34283DT     BB322862  20.587  69.494  51.495
34283DT     SC122863  20.559  69.262  51.375
34283DT     SC222864  20.531  69.293  51.164
34283DT     SC322865  20.474  69.017  51.324
34284DT     BB122866  20.599  69.746  51.605
34284DT     BB222867  20.499  69.801  51.263
34284DT     BB322868  20.293  69.794  51.247
34284DT     SC122869  20.291  69.533  51.271
34284DT     SC222870  20.235  69.444  51.084
34284DT     SC322871  20.244  69.293  51.370
34285DC     BB122872  20.313  70.053  51.200
34285DC     BB222873  20.156  69.914  50.907
34285DC     BB322874  19.953  69.893  50.939
34285DC     SC122875  19.990  69.685  51.094
34285DC     SC222876  19.918  69.508  50.994
34285DC     SC322877  19.992  69.533  51.309
34286DT     BB122878  19.955  70.078  50.759
34286DT     BB222879  19.760  69.808  50.621
34286DT     BB322880  19.570  69.809  50.703
34286DT     SC122881  19.659  69.712  50.930
34286DT     SC222882  19.588  69.510  50.954
34286DT     SC322883  19.719  69.694  51.186
34287DA     BB122884  19.564  69.774  50.282
34287DA     BB222885  19.334  69.527  50.424
34287DA     BB322886  19.166  69.625  50.514
34287DA     SC122887  19.298  69.646  50.795
34287DA     SC222888  19.268  69.545  51.021
34287DA     SC322889  19.399  69.748  51.107
34287DA     SC422890  19.380  69.780  50.829
34288DT     BB122891  18.998  69.594  50.428
34288DT     BB222892  18.849  69.387  50.683
34288DT     BB322893  18.721  69.500  50.800
34288DT     SC122894  18.923  69.615  50.923
34288DT     SC222895  18.930  69.546  51.127
34288DT     SC322896  19.088  69.802  51.006
34289DT     BB122897  18.479  69.402  50.689
34289DT     BB222898  18.435  69.350  51.043
34289DT     BB322899  18.347  69.516  51.129
34289DT     SC122900  18.571  69.652  51.114
34289DT     SC222901  18.649  69.683  51.312
34289DT     SC322902  18.743  69.839  51.044
34290DG     BB122903  18.034  69.253  51.218
34290DG     BB222904  18.139  69.427  51.517
34290DG     BB322905  18.045  69.602  51.530
34290DG     SC122906  18.259  69.756  51.375
34290DG     SC222907  18.438  69.967  51.487
34290DG     SC322908  18.464  69.952  51.192
34290DG     SC422909  18.248  69.765  51.216
34291DT     BB122910  17.854  69.711  51.706
34291DT     BB222911  18.075  69.919  51.901
34291DT     BB322912  18.027  70.119  51.873
34291DT     SC122913  18.135  70.119  51.634
34291DT     SC222914  18.314  70.239  51.637
34291DT     SC322915  18.158  70.137  51.372
34292DA     BB122916  18.000  70.090  52.292
34292DA     BB222917  18.225  70.370  52.219
34292DA     BB322918  18.112  70.544  52.168
34292DA     SC122919  18.108  70.483  51.863
34292DA     SC222920  18.208  70.577  51.655
34292DA     SC322921  18.020  70.452  51.533
34292DA     SC422922  17.983  70.400  51.806
34293DT     BB122923  18.111  70.722  52.294
34293DT     BB222924  18.337  70.911  52.086
34293DT     BB322925  18.235  71.066  51.994
34293DT     SC122926  18.119  70.901  51.826
34293DT     SC222927  18.198  70.933  51.628
34293DT     SC322928  17.930  70.765  51.701
34294DA     BB122929  18.578  71.213  52.181
34294DA     BB222930  18.579  71.328  51.833
34294DA     BB322931  18.433  71.481  51.805
34294DA     SC122932  18.205  71.285  51.727
34294DA     SC222933  18.075  71.225  51.523
34294DA     SC322934  17.903  71.128  51.686
34294DA     SC422935  18.110  71.232  51.844
34295DC     BB122936  18.515  71.640  51.759
34295DC     BB222937  18.425  71.631  51.410
34295DC     BB322938  18.263  71.755  51.375
34295DC     SC122939  18.098  71.583  51.486
34295DC     SC222940  17.972  71.498  51.334
34295DC     SC322941  17.923  71.481  51.654
34296DC     BB122942  18.447  71.885  51.247
34296DC     BB222943  18.195  71.806  51.002
34296DC     BB322944  18.037  71.939  51.018
34296DC     SC122945  17.950  71.824  51.237
34296DC     SC222946  17.764  71.724  51.195
34296DC     SC322947  17.883  71.790  51.489
34297DA     BB122948  18.180  71.857  50.629
34297DA     BB222949  17.814  71.836  50.631
34297DA     BB322950  17.728  72.028  50.667
34297DA     SC122951  17.720  71.993  50.976
34297DA     SC222952  17.547  71.964  51.153
34297DA     SC322953  17.730  72.044  51.315
34297DA     SC422954  17.846  72.046  51.060
34298DA     BB122955  17.588  71.875  50.411
34298DA     BB222956  17.274  71.929  50.593
34298DA     BB322957  17.235  72.138  50.612
34298DA     SC122958  17.383  72.165  50.884
34298DA     SC222959  17.324  72.206  51.123
34298DA     SC322960  17.569  72.277  51.150
34298DA     SC422961  17.538  72.207  50.880
34299DA     BB122962  16.962  71.987  50.501
34299DA     BB222963  16.794  72.146  50.786
34299DA     BB322964  16.797  72.358  50.765
34299DA     SC122965  17.066  72.394  50.918
34299DA     SC222966  17.142  72.487  51.136
34299DA     SC322967  17.374  72.499  51.026
34299DA     SC422968  17.201  72.395  50.832
34300DG     BB122969  16.490  72.309  50.784
34300DG     BB222970  16.517  72.534  51.066
34300DG     BB322971  16.542  72.720  51.003
34300DG     SC122972  16.848  72.703  50.996
34300DG     SC222973  17.036  72.854  51.172
34300DG     SC322974  17.183  72.713  50.957
34300DG     SC422975  16.920  72.651  50.863
34301DT     BB122976  16.389  72.917  51.017
34301DT     BB222977  16.557  73.130  51.254
34301DT     BB322978  16.640  73.293  51.157
34301DT     SC122979  16.833  73.145  51.059
34301DT     SC222980  17.019  73.199  51.152
34301DT     SC322981  16.986  73.021  50.883
34302DT     BB122982  16.446  73.525  51.206
34302DT     BB222983  16.761  73.669  51.307
34302DT     BB322984  16.841  73.781  51.152
34302DT     SC122985  16.910  73.564  51.021
34302DT     SC222986  17.125  73.546  51.021
34302DT     SC322987  16.920  73.381  50.832
34303DA     BB122988  16.832  74.102  51.432
34303DA     BB222989  17.171  74.098  51.294
34303DA     BB322990  17.176  74.200  51.107
34303DA     SC122991  17.117  73.946  50.938
34303DA     SC222992  17.239  73.798  50.777
34303DA     SC322993  17.006  73.724  50.701
34303DA     SC422994  16.964  73.913  50.903
34304DA     BB122995  17.414  74.403  51.226
34304DA     BB222996  17.642  74.260  50.976
34304DA     BB322997  17.619  74.360  50.789
34304DA     SC122998  17.401  74.164  50.684
34304DA     SC222999  17.381  73.987  50.510
34304DA     SC323000  17.128  74.024  50.531
34304DA     SC423001  17.247  74.202  50.711
34305DT     BB123002  17.776  74.472  50.714
34305DT     BB223003  17.880  74.230  50.468
34305DT     BB323004  17.831  74.297  50.278
34305DT     SC123005  17.577  74.241  50.316
34305DT     SC223006  17.522  74.074  50.192
34305DT     SC323007  17.317  74.275  50.344
34306DC     BB123008  18.092  74.325  50.247
34306DC     BB223009  17.990  74.098  49.986
34306DC     BB323010  17.919  74.204  49.823
34306DC     SC123011  17.695  74.260  49.948
34306DC     SC223012  17.533  74.153  49.855
34306DC     SC323013  17.503  74.400  50.063
34307DT     BB123014  18.138  74.114  49.713
34307DT     BB223015  17.870  74.002  49.499
34307DT     BB323016  17.812  74.155  49.372
34307DT     SC123017  17.688  74.279  49.567
34307DT     SC223018  17.475  74.270  49.534
34307DT     SC323019  17.626  74.466  49.744
34308DT     BB123020  17.926  74.017  49.174
34308DT     BB223021  17.589  74.076  49.060
34308DT     BB323022  17.576  74.263  48.972
34308DT     SC123023  17.584  74.382  49.206
34308DT     SC223024  17.392  74.470  49.248
34308DT     SC323025  17.668  74.534  49.404
34309DT     BB123026  17.566  74.165  48.708
34309DT     BB223027  17.277  74.380  48.728
34309DT     BB323028  17.328  74.573  48.672
34309DT     SC123029  17.451  74.614  48.900
34309DT     SC223030  17.340  74.756  49.017
34309DT     SC323031  17.645  74.663  49.072
34310DC     BB123032  17.219  74.588  48.395
34310DC     BB223033  17.071  74.876  48.554
34310DC     BB323034  17.186  75.044  48.517
34310DC     SC123035  17.369  74.966  48.688
34310DC     SC223036  17.366  75.096  48.859
34310DC     SC323037  17.601  74.886  48.784
34311DA     BB123038  16.824  75.197  48.353
34311DA     BB223039  16.947  75.453  48.585
34311DA     BB323040  17.097  75.572  48.491
34311DA     SC123041  17.333  75.392  48.584
34311DA     SC223042  17.524  75.406  48.744
34311DA     SC323043  17.627  75.216  48.606
34311DA     SC423044  17.381  75.275  48.485
34312DT     BB123045  17.083  75.801  48.431
34312DT     BB223046  17.283  75.921  48.706
34312DT     BB323047  17.461  75.999  48.635
34312DT     SC123048  17.557  75.759  48.589
34312DT     SC223049  17.716  75.718  48.728
34312DT     SC323050  17.651  75.551  48.457
34313DC     BB123051  17.389  76.266  48.682
34313DC     BB223052  17.689  76.220  48.876
34313DC     BB323053  17.855  76.270  48.762
34313DC     SC123054  17.836  76.047  48.624
34313DC     SC223055  18.001  75.918  48.674
34313DC     SC323056  17.803  75.885  48.419
34314DA     BB123057  17.882  76.483  49.121
34314DA     BB223058  18.201  76.312  49.069
34314DA     BB323059  18.314  76.410  48.916
34314DA     SC123060  18.197  76.236  48.685
34314DA     SC223061  18.276  76.059  48.529
34314DA     SC323062  18.074  76.124  48.385
34314DA     SC423063  18.067  76.292  48.609
34315DT     BB123064  18.484  76.496  48.971
34315DT     BB223065  18.704  76.247  48.831
34315DT     BB323066  18.790  76.319  48.657
34315DT     SC123067  18.567  76.286  48.524
34315DT     SC223068  18.591  76.126  48.382
34315DT     SC323069  18.350  76.343  48.384
34316DT     BB123070  19.029  76.342  48.786
34316DT     BB223071  19.096  76.123  48.507
34316DT     BB323072  19.144  76.235  48.339
34316DT     SC123073  18.893  76.305  48.304
34316DT     SC223074  18.816  76.209  48.128
34316DT     SC323075  18.678  76.456  48.285
34317DA     BB123076  19.442  75.947  48.395
34317DA     BB223077  19.332  75.930  48.046
34317DA     BB323078  19.406  76.097  47.936
34317DA     SC123079  19.157  76.276  47.994
34317DA     SC223080  18.964  76.370  47.866
34317DA     SC323081  18.946  76.538  48.060
34317DA     SC423082  19.163  76.372  48.122
34318DG     BB123083  19.533  75.869  47.776
34318DG     BB223084  19.314  75.995  47.517
34318DG     BB323085  19.396  76.154  47.430
34318DG     SC123086  19.270  76.354  47.624
34318DG     SC223087  19.063  76.559  47.555
34318DG     SC323088  19.164  76.600  47.830
34318DG     SC423089  19.347  76.391  47.759
34319DA     BB123090  19.315  75.969  47.156
34319DA     BB223091  19.106  76.246  47.038
34319DA     BB323092  19.228  76.408  46.971
34319DA     SC123093  19.236  76.548  47.249
34319DA     SC223094  19.146  76.755  47.353
34319DA     SC323095  19.330  76.723  47.529
34319DA     SC423096  19.358  76.511  47.347
34320DT     BB123097  19.189  76.421  46.807
34320DT     BB223098  19.002  76.729  46.829
34320DT     BB323099  19.126  76.890  46.795
34320DT     SC123100  19.235  76.867  47.032
34320DT     SC223101  19.176  77.033  47.155
34320DT     SC323102  19.417  76.827  47.219
34321DT     BB123103  18.976  76.899  46.585
34321DT     BB223104  18.944  77.222  46.743
34321DT     BB323105  19.111  77.337  46.702
34321DT     SC123106  19.258  77.199  46.871
34321DT     SC223107  19.306  77.322  47.041
34321DT     SC323108  19.448  77.041  46.963
34322DA     BB123109  18.758  77.553  46.625
34322DA     BB223110  18.986  77.766  46.818
34322DA     BB323111  19.154  77.821  46.700
34322DA     SC123112  19.327  77.578  46.787
34322DA     SC223113  19.530  77.536  46.925
34322DA     SC323114  19.546  77.314  46.797
34322DA     SC423115  19.320  77.446  46.695
34323DA     BB123116  19.053  78.117  46.801
34323DA     BB223117  19.384  78.155  46.953
34323DA     BB323118  19.532  78.185  46.803
34323DA     SC123119  19.595  77.882  46.769
34323DA     SC223120  19.783  77.726  46.818
34323DA     SC323121  19.674  77.573  46.644
34323DA     SC423122  19.513  77.802  46.656
34324DC     BB123123  19.623  78.361  46.798
34324DC     BB223124  19.941  78.250  46.929
34324DC     BB323125  20.079  78.235  46.775
34324DC     SC123126  19.967  78.014  46.687
34324DC     SC223127  20.099  77.848  46.723
34324DC     SC323128  19.842  77.847  46.527
34325DC     BB123129  20.199  78.450  46.877
34325DC     BB223130  20.454  78.194  46.871
34325DC     BB323131  20.542  78.186  46.684
34325DC     SC123132  20.332  78.067  46.581
34325DC     SC223133  20.382  77.864  46.532
34325DC     SC323134  20.119  78.025  46.431
34326DC     BB123135  20.755  78.288  46.802
34326DC     BB223136  20.869  77.981  46.650
34326DC     BB323137  20.912  78.012  46.450
34326DC     SC123138  20.657  78.021  46.389
34326DC     SC223139  20.605  77.847  46.275
34326DC     SC323140  20.425  78.114  46.305
34327DT     BB123141  21.164  77.982  46.521
34327DT     BB223142  21.110  77.737  46.262
34327DT     BB323143  21.126  77.826  46.076
34327DT     SC123144  20.892  77.942  46.102
34327DT     SC223145  20.753  77.852  45.965
34327DT     SC323146  20.710  78.132  46.124
34328DA     BB123147  21.376  77.487  46.073
34328DA     BB223148  21.180  77.485  45.764
34328DA     BB323149  21.247  77.639  45.632
34328DA     SC123150  21.049  77.852  45.742
34328DA     SC223151  20.847  77.974  45.663
34328DA     SC323152  20.902  78.144  45.847
34328DA     SC423153  21.101  77.947  45.861
34329DT     BB123154  21.349  77.600  45.445
34329DT     BB223155  21.079  77.694  45.224
34329DT     BB323156  21.120  77.876  45.135
34329DT     SC123157  21.066  78.005  45.357
34329DT     SC223158  20.884  78.117  45.333
34329DT     SC323159  21.100  78.155  45.571
34330DT     BB123160  21.202  77.792  44.865
34330DT     BB223161  20.940  78.030  44.799
34330DT     BB323162  21.021  78.218  44.770
34330DT     SC123163  21.067  78.247  45.026
34330DT     SC223164  20.936  78.397  45.106
34330DT     SC323165  21.199  78.277  45.253
34331DT     BB123166  21.017  78.262  44.466
34331DT     BB223167  20.836  78.549  44.589
34331DT     BB323168  20.961  78.713  44.600
34331DT     SC123169  21.080  78.617  44.814
34331DT     SC223170  21.028  78.739  44.984
34331DT     SC323171  21.269  78.522  44.971
34332DC     BB123172  20.870  78.867  44.367
34332DC     BB223173  20.824  79.095  44.643
34332DC     BB323174  20.989  79.219  44.661
34332DC     SC123175  21.133  79.025  44.763
34332DC     SC223176  21.171  79.067  44.971
34332DC     SC323177  21.324  78.846  44.790
34333DG     BB123178  20.679  79.478  44.599
34333DG     BB223179  20.857  79.559  44.903
34333DG     BB323180  21.020  79.666  44.860
34333DG     SC123181  21.201  79.421  44.826
34333DG     SC223182  21.430  79.348  45.003
34333DG     SC323183  21.424  79.176  44.762
34333DG     SC423184  21.212  79.352  44.683
34334DA     BB123185  20.900  79.886  45.095
34334DA     BB223186  21.201  79.832  45.296
34334DA     BB323187  21.366  79.940  45.214
34334DA     SC123188  21.460  79.705  45.033
34334DA     SC223189  21.652  79.547  45.021
34334DA     SC323190  21.584  79.514  44.776
34334DA     SC423191  21.403  79.700  44.882
34335DA     BB123192  21.365  80.040  45.523
34335DA     BB223193  21.699  79.892  45.548
34335DA     BB323194  21.842  80.013  45.447
34335DA     SC123195  21.810  79.866  45.174
34335DA     SC223196  21.945  79.715  45.030
34335DA     SC323197  21.788  79.788  44.841
34335DA     SC423198  21.703  79.925  45.070
34336DT     BB123199  21.970  80.087  45.563
34336DT     BB223200  22.243  79.873  45.467
34336DT     BB323201  22.370  79.973  45.337
34336DT     SC123202  22.199  79.949  45.139
34336DT     SC223203  22.278  79.812  44.993
34336DT     SC323204  22.029  80.015  44.949
34337DT     BB123205  22.542  79.972  45.539
34337DT     BB223206  22.712  79.805  45.268
34337DT     BB323207  22.798  79.944  45.142
34337DT     SC123208  22.566  80.008  45.039
34337DT     SC223209  22.556  79.939  44.836
34337DT     SC323210  22.354  80.151  44.974
34338DT     BB123211  23.026  79.854  45.240
34338DT     BB223212  23.050  79.806  44.883
34338DT     BB323213  23.110  79.982  44.792
34338DT     SC123214  22.872  80.089  44.825
34338DT     SC223215  22.776  80.109  44.634
34338DT     SC323216  22.683  80.252  44.909
34339DC     BB123217  23.330  79.848  44.749
34339DC     BB223218  23.215  79.952  44.423
34339DC     BB323219  23.272  80.147  44.387
34339DC     SC123220  23.087  80.239  44.550
34339DC     SC223221  22.935  80.339  44.436
34339DC     SC323222  22.976  80.358  44.757
34340DG     BB123223  23.399  79.896  44.093
34340DG     BB223224  23.223  80.183  43.960
34340DG     BB323225  23.338  80.345  43.973
34340DG     SC123226  23.239  80.422  44.252
34340DG     SC223227  23.078  80.665  44.320
34340DG     SC323228  23.167  80.526  44.565
34340DG     SC423229  23.313  80.362  44.381
34341DG     BB123230  23.281  80.357  43.653
34341DG     BB223231  23.133  80.680  43.722
34341DG     BB323232  23.276  80.815  43.754
34341DG     SC123233  23.289  80.765  44.055
34341DG     SC223234  23.210  80.959  44.268
34341DG     SC323235  23.345  80.723  44.385
34341DG     SC423236  23.388  80.652  44.111
34342DG     BB123237  23.140  80.983  43.507
34342DG     BB223238  23.084  81.245  43.751
34342DG     BB323239  23.253  81.345  43.782
34342DG     SC123240  23.349  81.164  44.009
34342DG     SC223241  23.378  81.243  44.296
34342DG     SC323242  23.494  80.975  44.248
34342DG     SC423243  23.436  81.035  43.974
34343DT     BB123244  23.263  81.555  43.734
34343DT     BB223245  23.261  81.707  44.061
34343DT     BB323246  23.454  81.762  44.114
34343DT     SC123247  23.520  81.513  44.162
34343DT     SC223248  23.548  81.485  44.374
34343DT     SC323249  23.643  81.280  44.141
34344DT     BB123250  23.388  82.022  44.079
34344DT     BB223251  23.508  82.003  44.419
34344DT     BB323252  23.714  82.021  44.422
34344DT     SC123253  23.745  81.776  44.332
34344DT     SC223254  23.826  81.653  44.488
34344DT     SC323255  23.812  81.577  44.173
34345DG     BB123256  23.566  82.320  44.657
34345DG     BB223257  23.815  82.126  44.832
34345DG     BB323258  23.997  82.177  44.770
34345DG     SC123259  24.005  81.970  44.544
34345DG     SC223260  24.186  81.733  44.530
34345DG     SC323261  24.039  81.770  44.275
34345DG     SC423262  23.947  82.010  44.400
34346DG     BB123263  24.075  82.256  45.080
34346DG     BB223264  24.324  81.994  45.059
34346DG     BB323265  24.487  82.063  44.968
34346DG     SC123266  24.392  81.986  44.687
34346DG     SC223267  24.515  81.777  44.512
34346DG     SC323268  24.312  81.934  44.364
34346DG     SC423269  24.305  82.091  44.603
34347DA     BB123270  24.674  81.948  45.240
34347DA     BB223271  24.866  81.729  45.017
34347DA     BB323272  25.009  81.843  44.907
34347DA     SC123273  24.817  81.899  44.668
34347DA     SC223274  24.796  81.830  44.429
34347DA     SC323275  24.649  82.040  44.404
34347DA     SC423276  24.730  82.034  44.673
34348DA     BB123277  25.230  81.629  45.031
34348DA     BB223278  25.301  81.529  44.685
34348DA     BB323279  25.424  81.675  44.590
34348DA     SC123280  25.185  81.841  44.480
34348DA     SC223281  25.080  81.891  44.259
34348DA     SC323282  24.977  82.094  44.377
34348DA     SC423283  25.131  81.963  44.571
34349DA     BB123284  25.631  81.424  44.525
34349DA     BB223285  25.570  81.487  44.169
34349DA     BB323286  25.684  81.655  44.103
34349DA     SC123287  25.462  81.862  44.166
34349DA     SC223288  25.306  82.011  44.039
34349DA     SC323289  25.287  82.144  44.258
34349DA     SC423290  25.464  81.932  44.311
34350DC     BB123291  25.844  81.635  43.961
34350DC     BB223292  25.659  81.766  43.681
34350DC     BB323293  25.728  81.955  43.633
34350DC     SC123294  25.609  82.061  43.841
34350DC     SC223295  25.446  82.185  43.775
34350DC     SC323296  25.576  82.185  44.072
34351DA     BB123297  25.734  81.728  43.282
34351DA     BB223298  25.551  82.039  43.212
34351DA     BB323299  25.687  82.203  43.196
34351DA     SC123300  25.673  82.276  43.498
34351DA     SC223301  25.581  82.460  43.639
34351DA     SC323302  25.745  82.376  43.819
34351DA     SC423303  25.782  82.210  43.596
34352DT     BB123304  25.688  82.278  43.025
34352DT     BB223305  25.499  82.573  43.109
34352DT     BB323306  25.626  82.735  43.131
34352DT     SC123307  25.710  82.646  43.364
34352DT     SC223308  25.638  82.776  43.519
34352DT     SC323309  25.872  82.554  43.550
34353DT     BB123310  25.509  82.815  42.911
34353DT     BB223311  25.449  83.075  43.154
34353DT     BB323312  25.615  83.198  43.168
34353DT     SC123313  25.748  83.016  43.303
34353DT     SC223314  25.773  83.083  43.506
34353DT     SC323315  25.933  82.839  43.365
34354DT     BB123316  25.455  83.370  43.054
34354DT     BB223317  25.563  83.526  43.361
34354DT     BB323318  25.752  83.607  43.337
34354DT     SC123319  25.864  83.369  43.345
34354DT     SC223320  25.976  83.350  43.527
34354DT     SC323321  25.998  83.155  43.268
34355DA     BB123322  25.499  83.900  43.502
34355DA     BB223323  25.811  83.894  43.696
34355DA     BB323324  25.971  83.976  43.581
34355DA     SC123325  26.056  83.702  43.460
34355DA     SC223326  26.247  83.543  43.479
34355DA     SC323327  26.167  83.452  43.253
34355DA     SC423328  25.991  83.660  43.319
34356DA     BB123329  26.004  84.170  43.846
34356DA     BB223330  26.342  84.031  43.881
34356DA     BB323331  26.472  84.115  43.735
34356DA     SC123332  26.416  83.893  43.524
34356DA     SC223333  26.539  83.703  43.419
34356DA     SC323334  26.363  83.719  43.233
34356DA     SC423335  26.298  83.920  43.417
34357DT     BB123336  26.632  84.242  43.788
34357DT     BB223337  26.896  84.003  43.734
34357DT     BB323338  27.000  84.051  43.561
34357DT     SC123339  26.805  83.963  43.410
34357DT     SC223340  26.867  83.783  43.309
34357DT     SC323341  26.608  83.963  43.234
34358DT     BB123342  27.221  84.140  43.702
34358DT     BB223343  27.350  83.879  43.489
34358DT     BB323344  27.407  83.959  43.306
34358DT     SC123345  27.157  83.984  43.230
34358DT     SC223346  27.116  83.843  43.072
34358DT     SC323347  26.930  84.095  43.154
34359DT     BB123348  27.663  83.919  43.376
34359DT     BB223349  27.618  83.730  43.072
34359DT     BB323350  27.647  83.852  42.907
34359DT     SC123351  27.415  83.969  42.943
34359DT     SC223352  27.281  83.911  42.785
34359DT     SC323353  27.237  84.157  42.992
34360DT     BB123354  27.862  83.706  42.875
34360DT     BB223355  27.670  83.663  42.573
34360DT     BB323356  27.702  83.823  42.446
34360DT     SC123357  27.552  83.981  42.593
34360DT     SC223358  27.371  84.027  42.486
34360DT     SC323359  27.482  84.181  42.749
34361DT     BB123360  27.822  83.639  42.305
34361DT     BB223361  27.565  83.773  42.090
34361DT     BB323362  27.629  83.951  42.006
34361DT     SC123363  27.595  84.080  42.232
34361DT     SC223364  27.429  84.216  42.212
34361DT     SC323365  27.650  84.219  42.449
34362DC     BB123366  27.628  83.805  41.791
34362DC     BB223367  27.411  84.084  41.719
34362DC     BB323368  27.523  84.250  41.670
34362DC     SC123369  27.593  84.288  41.920
34362DC     SC223370  27.497  84.466  41.995
34362DC     SC323371  27.743  84.309  42.136
34363DT     BB123372  27.428  84.211  41.427
34363DT     BB223373  27.338  84.550  41.511
34363DT     BB323374  27.499  84.677  41.477
34363DT     SC123375  27.622  84.591  41.692
34363DT     SC223376  27.625  84.747  41.840
34363DT     SC323377  27.804  84.477  41.845
34364DC     BB123378  27.363  84.772  41.268
34364DC     BB223379  27.439  85.062  41.468
34364DC     BB323380  27.630  85.130  41.425
34364DC     SC123381  27.739  84.932  41.559
34364DC     SC223382  27.831  85.008  41.737
34364DC     SC323383  27.879  84.714  41.610
34365DC     BB123384  27.528  85.344  41.293
34365DC     BB223385  27.748  85.489  41.539
34365DC     BB323386  27.941  85.497  41.466
34365DC     SC123387  27.973  85.239  41.498
34365DC     SC223388  28.114  85.203  41.656
34365DC     SC323389  28.013  84.984  41.440
34366DT     BB123390  27.933  85.771  41.428
34366DT     BB223391  28.223  85.721  41.637
34366DT     BB323392  28.390  85.688  41.519
34366DT     SC123393  28.311  85.444  41.463
34366DT     SC223394  28.441  85.302  41.559
34366DT     SC323395  28.230  85.235  41.323
34367DT     BB123396  28.502  85.940  41.564
34367DT     BB223397  28.761  85.712  41.666
34367DT     BB323398  28.883  85.667  41.505
34367DT     SC123399  28.700  85.510  41.401
34367DT     SC223400  28.766  85.306  41.413
34367DT     SC323401  28.522  85.416  41.231
34368DT     BB123402  29.097  85.822  41.596
34368DT     BB223403  29.238  85.492  41.558
34368DT     BB323404  29.312  85.468  41.366
34368DT     SC123405  29.070  85.444  41.267
34368DT     SC223406  29.040  85.241  41.201
34368DT     SC323407  28.854  85.496  41.126
34369DT     BB123408  29.578  85.482  41.447
34369DT     BB223409  29.553  85.163  41.281
34369DT     BB323410  29.594  85.185  41.079
34369DT     SC123411  29.360  85.296  41.036
34369DT     SC223412  29.237  85.161  40.922
34369DT     SC323413  29.179  85.476  40.971
34370DA     BB123414  29.840  84.878  41.223
34370DA     BB223415  29.667  84.754  40.925
34370DA     BB323416  29.749  84.842  40.749
34370DA     SC123417  29.552  85.083  40.748
34370DA     SC223418  29.360  85.164  40.611
34370DA     SC323419  29.409  85.393  40.716
34370DA     SC423420  29.599  85.217  40.823
34371DT     BB123421  29.844  84.720  40.620
34371DT     BB223422  29.583  84.713  40.371
34371DT     BB323423  29.637  84.830  40.208
34371DT     SC123424  29.590  85.051  40.342
34371DT     SC223425  29.416  85.147  40.260
34371DT     SC323426  29.631  85.282  40.461
34372DT     BB123427  29.665  84.601  40.074
34372DT     BB223428  29.424  84.792  39.885
34372DT     BB323429  29.521  84.923  39.757
34372DT     SC123430  29.585  85.082  39.956
34372DT     SC223431  29.473  85.265  39.939
34372DT     SC323432  29.731  85.217  40.129
34373DT     BB123433  29.436  84.766  39.560
34373DT     BB223434  29.309  85.093  39.479
34373DT     BB323435  29.455  85.204  39.382
34373DT     SC123436  29.586  85.242  39.606
34373DT     SC223437  29.572  85.448  39.663
34373DT     SC323438  29.780  85.232  39.784
34374DT     BB123439  29.317  85.178  39.151
34374DT     BB223440  29.356  85.534  39.193
34374DT     BB323441  29.537  85.595  39.115
34374DT     SC123442  29.669  85.494  39.318
34374DT     SC223443  29.750  85.653  39.437
34374DT     SC323444  29.834  85.340  39.455
34375DA     BB123445  29.254  85.845  38.930
34375DA     BB223446  29.523  86.059  39.055
34375DA     BB323447  29.696  86.042  38.930
34375DA     SC123448  29.821  85.809  39.094
34375DA     SC223449  30.017  85.774  39.244
34375DA     SC323450  29.987  85.525  39.192
34375DA     SC423451  29.787  85.659  39.047
34376DC     BB123452  29.769  86.205  38.805
34376DC     BB223453  30.054  86.288  39.010
34376DC     BB323454  30.228  86.230  38.916
34376DC     SC123455  30.183  85.977  38.972
34376DC     SC223456  30.327  85.910  39.117
34376DC     SC323457  30.135  85.720  38.937
34377DT     BB123458  30.306  86.490  38.847
34377DT     BB223459  30.583  86.364  39.041
34377DT     BB323460  30.721  86.274  38.917
34377DT     SC123461  30.567  86.064  38.885
34377DT     SC223462  30.656  85.895  38.984
34377DT     SC323463  30.415  85.884  38.767
34378DT     BB123464  30.895  86.481  38.954
34378DT     BB223465  31.074  86.189  39.067
34378DT     BB323466  31.174  86.102  38.908
34378DT     SC123467  30.950  86.004  38.812
34378DT     SC223468  30.950  85.790  38.834
34378DT     SC323469  30.749  85.961  38.647
34379DT     BB123470  31.392  86.187  39.030
34379DT     BB223471  31.428  85.828  39.008
34379DT     BB323472  31.502  85.776  38.822
34379DT     SC123473  31.271  85.823  38.707
34379DT     SC223474  31.184  85.637  38.643
34379DT     SC323475  31.089  85.932  38.551
34380DA     BB123476  31.693  85.591  39.148
34380DA     BB223477  31.610  85.336  38.898
34380DA     BB323478  31.728  85.364  38.722
34380DA     SC123479  31.520  85.550  38.583
34380DA     SC223480  31.364  85.540  38.389
34380DA     SC323481  31.367  85.797  38.400
34380DA     SC423482  31.536  85.709  38.605
34381DA     BB123483  31.750  85.050  38.812
34381DA     BB223484  31.623  84.974  38.477
34381DA     BB323485  31.766  85.030  38.329
34381DA     SC123486  31.654  85.318  38.293
34381DA     SC223487  31.532  85.448  38.119
34381DA     SC323488  31.619  85.655  38.243
34381DA     SC423489  31.719  85.434  38.383
34382DC     BB123490  31.829  84.883  38.239
34382DC     BB223491  31.668  84.946  37.922
34382DC     BB323492  31.800  85.039  37.793
34382DC     SC123493  31.777  85.267  37.921
34382DC     SC223494  31.672  85.408  37.797
34382DC     SC323495  31.841  85.479  38.064
34383DT     BB123496  31.821  84.810  37.651
34383DT     BB223497  31.726  85.059  37.407
34383DT     BB323498  31.895  85.156  37.336
34383DT     SC123499  31.918  85.293  37.559
34383DT     SC223500  31.873  85.500  37.521
34383DT     SC323501  32.020  85.383  37.785
34384DA     BB123502  31.703  85.022  36.986
34384DA     BB223503  31.789  85.375  36.936
34384DA     BB323504  31.998  85.396  36.900
34384DA     SC123505  32.071  85.434  37.200
34384DA     SC223506  32.152  85.617  37.349
34384DA     SC323507  32.225  85.428  37.507
34384DA     SC423508  32.110  85.302  37.284
34385DT     BB123509  32.085  85.459  36.707
34385DT     BB223510  32.176  85.793  36.810
34385DT     BB323511  32.381  85.808  36.827
34385DT     SC123512  32.381  85.672  37.051
34385DT     SC223513  32.432  85.803  37.214
34385DT     SC323514  32.430  85.479  37.224
34386DT     BB123515  32.408  85.961  36.595
34386DT     BB223516  32.556  86.165  36.853
34386DT     BB323517  32.758  86.122  36.870
34386DT     SC123518  32.706  85.895  36.992
34386DT     SC223519  32.767  85.910  37.198
34386DT     SC323520  32.695  85.636  37.040
34387DT     BB123521  32.824  86.361  36.756
34387DT     BB223522  32.986  86.367  37.078
34387DT     BB323523  33.173  86.279  37.065
34387DT     SC123524  33.068  86.039  37.052
34387DT     SC223525  33.112  85.932  37.234
34387DT     SC323526  33.003  85.801  36.958
34388DA     BB123527  33.210  86.653  37.249
34388DA     BB223528  33.385  86.406  37.455
34388DA     BB323529  33.566  86.345  37.360
34388DA     SC123530  33.435  86.107  37.209
34388DA     SC223531  33.440  85.858  37.216
34388DA     SC323532  33.349  85.869  36.977
34388DA     SC423533  33.379  86.135  37.060
34389DT     BB123534  33.720  86.394  37.456
34389DT     BB223535  33.804  86.065  37.578
34389DT     BB323536  33.955  85.984  37.462
34389DT     SC123537  33.789  85.936  37.264
34389DT     SC223538  33.761  85.724  37.244
34389DT     SC323539  33.678  85.948  37.025
34390DC     BB123540  34.112  86.018  37.674
34390DC     BB223541  34.134  85.666  37.597
34390DC     BB323542  34.274  85.635  37.448
34390DC     SC123543  34.111  85.728  37.265
34390DC     SC223544  34.048  85.567  37.137
34390DC     SC323545  34.013  85.884  37.075
34391DT     BB123546  34.438  85.527  37.631
34391DT     BB223547  34.403  85.272  37.379
34391DT     BB323548  34.540  85.304  37.227
34391DT     SC123549  34.400  85.504  37.132
34391DT     SC223550  34.314  85.449  36.943
34391DT     SC323551  34.336  85.750  37.061
34392DA     BB123552  34.580  84.905  37.351
34392DA     BB223553  34.558  84.908  36.985
34392DA     BB323554  34.738  84.984  36.901
34392DA     SC123555  34.641  85.279  36.897
34392DA     SC223556  34.575  85.450  36.727
34392DA     SC323557  34.620  85.621  36.912
34392DA     SC423558  34.676  85.370  37.024
34393DA     BB123559  34.716  84.700  36.737
34393DA     BB223560  34.702  84.901  36.431
34393DA     BB323561  34.895  84.980  36.385
34393DA     SC123562  34.850  85.243  36.546
34393DA     SC223563  34.819  85.486  36.497
34393DA     SC323564  34.890  85.523  36.741
34393DA     SC423565  34.898  85.246  36.699
34394DA     BB123566  34.828  84.835  36.098
34394DA     BB223567  34.856  85.168  35.946
34394DA     BB323568  35.061  85.227  35.936
34394DA     SC123569  35.059  85.368  36.213
34394DA     SC223570  35.072  85.600  36.303
34394DA     SC323571  35.143  85.490  36.523
34394DA     SC423572  35.103  85.280  36.341
34395DT     BB123573  35.142  85.247  35.755
34395DT     BB223574  35.154  85.607  35.749
34395DT     BB323575  35.348  85.672  35.784
34395DT     SC123576  35.329  85.615  36.040
34395DT     SC223577  35.326  85.797  36.154
34395DT     SC323578  35.376  85.499  36.272
34396DT     BB123579  35.376  85.745  35.523
34396DT     BB223580  35.450  86.045  35.708
34396DT     BB323581  35.650  86.049  35.761
34396DT     SC123582  35.612  85.868  35.948
34396DT     SC223583  35.636  85.960  36.141
34396DT     SC323584  35.630  85.641  36.081
34397DT     BB123585  35.715  86.243  35.574
34397DT     BB223586  35.828  86.382  35.887
34397DT     BB323587  36.023  86.323  35.924
34397DT     SC123588  35.946  86.081  35.988
34397DT     SC223589  35.975  86.050  36.199
34397DT     SC323590  35.919  85.818  35.979
34398DA     BB123591  36.042  86.743  35.954
34398DA     BB223592  36.204  86.604  36.253
34398DA     BB323593  36.398  86.530  36.205
34398DA     SC123594  36.298  86.242  36.140
34398DA     SC223595  36.315  86.014  36.239
34398DA     SC323596  36.253  85.929  36.005
34398DA     SC423597  36.260  86.209  35.987
34399DC     BB123598  36.588  86.619  36.278
34399DC     BB223599  36.656  86.363  36.524
34399DC     BB323600  36.818  86.249  36.464
34399DC     SC123601  36.673  86.125  36.284
34399DC     SC223602  36.645  85.920  36.344
34399DC     SC323603  36.588  86.041  36.048
34400DG     BB123604  36.925  86.407  36.825
34400DG     BB223605  36.951  86.046  36.825
34400DG     BB323606  37.121  85.990  36.737
34400DG     SC123607  36.998  85.974  36.457
34400DG     SC223608  36.960  85.725  36.296
34400DG     SC323609  36.902  85.965  36.134
34400DG     SC423610  36.997  86.105  36.365
34401DT     BB123611  37.279  85.878  36.849
34401DT     BB223612  37.228  85.544  36.721
34401DT     BB323613  37.380  85.495  36.589
34401DT     SC123614  37.278  85.650  36.403
34401DT     SC223615  37.201  85.528  36.243
34401DT     SC323616  37.256  85.847  36.229
34402DA     BB123617  37.328  85.192  36.873
34402DA     BB223618  37.333  85.038  36.540
34402DA     BB323619  37.530  85.044  36.459
34402DA     SC123620  37.491  85.318  36.318
34402DA     SC223621  37.471  85.405  36.085
34402DA     SC323622  37.535  85.632  36.186
34402DA     SC423623  37.533  85.450  36.400
34403DT     BB123624  37.607  84.872  36.435
34403DT     BB223625  37.583  84.861  36.075
34403DT     BB323626  37.767  84.905  35.990
34403DT     SC123627  37.740  85.160  36.047
34403DT     SC223628  37.713  85.271  35.865
34403DT     SC323629  37.786  85.396  36.154
34404DT     BB123630  37.794  84.645  35.919
34404DT     BB223631  37.830  84.828  35.610
34404DT     BB323632  38.026  84.887  35.585
34404DT     SC123633  38.001  85.075  35.766
34404DT     SC223634  38.008  85.268  35.670
34404DT     SC323635  38.038  85.212  35.988
34405DA     BB123636  37.933  84.685  35.229
34405DA     BB223637  38.089  85.003  35.136
34405DA     BB323638  38.299  84.995  35.168
34405DA     SC123639  38.284  85.101  35.460
34405DA     SC223640  38.346  85.308  35.585
34405DA     SC323641  38.335  85.161  35.794
34405DA     SC423642  38.273  84.993  35.578
34406DT     BB123643  38.446  84.999  35.006
34406DT     BB223644  38.553  85.340  35.059
34406DT     BB323645  38.745  85.342  35.136
34406DT     SC123646  38.659  85.266  35.372
34406DT     SC223647  38.680  85.429  35.511
34406DT     SC323648  38.625  85.119  35.588
34407DA     BB123649  38.751  85.592  34.801
34407DA     BB223650  38.896  85.778  35.081
34407DA     BB323651  39.094  85.709  35.122
34407DA     SC123652  39.003  85.494  35.327
34407DA     SC223653  39.017  85.455  35.573
34407DA     SC323654  38.971  85.209  35.517
34407DA     SC423655  38.975  85.345  35.272
34408DT     BB123656  39.230  85.840  35.092
34408DT     BB223657  39.291  85.914  35.439
34408DT     BB323658  39.466  85.823  35.501
34408DT     SC123659  39.350  85.588  35.508
34408DT     SC223660  39.331  85.523  35.712
34408DT     SC323661  39.296  85.336  35.450
34409DT     BB123662  39.535  86.071  35.513
34409DT     BB223663  39.577  85.941  35.847
34409DT     BB323664  39.754  85.834  35.859
34409DT     SC123665  39.651  85.633  35.726
34409DT     SC223666  39.627  85.465  35.858
34409DT     SC323667  39.613  85.455  35.535
34410DT     BB123668  39.786  86.036  36.011
34410DT     BB223669  39.840  85.744  36.217
34410DT     BB323670  40.024  85.660  36.172
34410DT     SC123671  39.934  85.561  35.947
34410DT     SC223672  39.922  85.347  35.962
34410DT     SC323673  39.905  85.519  35.688
34411DA     BB123674  39.945  85.702  36.588
34411DA     BB223675  40.087  85.370  36.524
34411DA     BB323676  40.288  85.387  36.456
34411DA     SC123677  40.212  85.399  36.155
34411DA     SC223678  40.233  85.254  35.953
34411DA     SC323679  40.198  85.470  35.820
34411DA     SC423680  40.190  85.544  36.090
34412DC     BB123681  40.414  85.316  36.576
34412DC     BB223682  40.512  85.028  36.382
34412DC     BB323683  40.687  85.069  36.278
34412DC     SC123684  40.559  85.220  36.106
34412DC     SC223685  40.556  85.122  35.914
34412DC     SC323686  40.486  85.433  35.970
34413DA     BB123687  40.773  84.713  36.487
34413DA     BB223688  40.881  84.666  36.140
34413DA     BB323689  41.060  84.777  36.102
34413DA     SC123690  40.911  85.033  36.009
34413DA     SC223691  40.875  85.159  35.797
34413DA     SC323692  40.816  85.358  35.948
34413DA     SC423693  40.879  85.145  36.120
34414DT     BB123694  41.257  84.686  36.062
34414DT     BB223695  41.263  84.756  35.709
34414DT     BB323696  41.402  84.904  35.669
34414DT     SC123697  41.244  85.090  35.766
34414DT     SC223698  41.173  85.215  35.606
34414DT     SC323699  41.154  85.282  35.922
34415DC     BB123700  41.579  84.727  35.554
34415DC     BB223701  41.515  84.970  35.295
34415DC     BB323702  41.647  85.128  35.312
34415DC     SC123703  41.519  85.224  35.521
34415DC     SC223704  41.422  85.408  35.467
34415DC     SC323705  41.471  85.300  35.769
34416DC     BB123706  41.768  85.041  35.089
34416DC     BB223707  41.663  85.377  35.013
34416DC     BB323708  41.805  85.512  35.079
34416DC     SC123709  41.733  85.480  35.329
34416DC     SC223710  41.638  85.659  35.399
34416DC     SC323711  41.745  85.416  35.584
34417DT     BB123712  41.844  85.548  34.822
34417DT     BB223713  41.754  85.872  34.953
34417DT     BB323714  41.920  85.961  35.040
34417DT     SC123715  41.904  85.803  35.249
34417DT     SC223716  41.844  85.918  35.421
34417DT     SC323717  41.969  85.619  35.427
34418DA     BB123718  41.715  86.220  34.777
34418DA     BB223719  41.780  86.398  35.092
34418DA     BB323720  41.990  86.433  35.115
34418DA     SC123721  42.042  86.167  35.268
34418DA     SC223722  42.102  86.097  35.499
34418DA     SC323723  42.179  85.877  35.390
34418DA     SC423724  42.085  86.039  35.181
34419DC     BB123725  42.030  86.613  35.112
34419DC     BB223726  42.111  86.650  35.462
34419DC     BB323727  42.316  86.640  35.488
34419DC     SC123728  42.317  86.381  35.451
34419DC     SC223729  42.362  86.282  35.637
34419DC     SC323730  42.367  86.145  35.344
34420DA     BB123731  42.193  86.995  35.680
34420DA     BB223732  42.417  86.816  35.908
34420DA     BB323733  42.618  86.827  35.839
34420DA     SC123734  42.601  86.566  35.670
34420DA     SC223735  42.694  86.335  35.678
34420DA     SC323736  42.636  86.326  35.428
34420DA     SC423737  42.559  86.581  35.516
34421DA     BB123738  42.708  86.957  36.136
34421DA     BB223739  42.928  86.667  36.183
34421DA     BB323740  43.110  86.694  36.075
34421DA     SC123741  43.005  86.557  35.817
34421DA     SC223742  43.046  86.346  35.690
34421DA     SC323743  42.940  86.469  35.491
34421DA     SC423744  42.938  86.651  35.705
34422DG     BB123745  43.281  86.687  36.346
34422DG     BB223746  43.418  86.383  36.204
34422DG     BB323747  43.574  86.427  36.089
34422DG     SC123748  43.406  86.461  35.834
34422DG     SC223749  43.415  86.285  35.594
34422DG     SC323750  43.252  86.526  35.542
34422DG     SC423751  43.345  86.605  35.801
34423DA     BB123752  43.774  86.199  36.265
34423DA     BB223753  43.826  86.003  35.960
34423DA     BB323754  43.976  86.094  35.838
34423DA     SC123755  43.774  86.267  35.677
34423DA     SC223756  43.683  86.277  35.446
34423DA     SC323757  43.619  86.519  35.502
34423DA     SC423758  43.744  86.416  35.731
34424DC     BB123759  44.161  85.999  35.805
34424DC     BB223760  44.092  85.894  35.466
34424DC     BB323761  44.201  86.010  35.333
34424DC     SC123762  44.041  86.215  35.368
34424DC     SC223763  43.927  86.248  35.189
34424DC     SC323764  43.958  86.456  35.436
34425DA     BB123765  44.284  85.610  35.237
34425DA     BB223766  44.191  85.782  34.927
34425DA     BB323767  44.349  85.909  34.863
34425DA     SC123768  44.246  86.158  35.018
34425DA     SC223769  44.145  86.380  34.965
34425DA     SC323770  44.222  86.448  35.201
34425DA     SC423771  44.303  86.182  35.167
34426DA     BB123772  44.314  85.738  34.584
34426DA     BB223773  44.226  86.055  34.423
34426DA     BB323774  44.401  86.172  34.388
34426DA     SC123775  44.385  86.320  34.661
34426DA     SC223776  44.335  86.550  34.744
34426DA     SC323777  44.458  86.478  34.958
34426DA     SC423778  44.465  86.257  34.785
34427DA     BB123779  44.289  86.172  34.079
34427DA     BB223780  44.259  86.537  34.111
34427DA     BB323781  44.451  86.629  34.094
34427DA     SC123782  44.510  86.619  34.399
34427DA     SC223783  44.530  86.780  34.588
34427DA     SC323784  44.660  86.593  34.706
34427DA     SC423785  44.589  86.491  34.455
34428DT     BB123786  44.490  86.750  33.932
34428DT     BB223787  44.464  87.062  34.112
34428DT     BB323788  44.652  87.144  34.139
34428DT     SC123789  44.709  86.969  34.326
34428DT     SC223790  44.719  87.068  34.517
34428DT     SC323791  44.829  86.771  34.452
34429DT     BB123792  44.587  87.334  33.960
34429DT     BB223793  44.662  87.512  34.265
34429DT     BB323794  44.866  87.548  34.277
34429DT     SC123795  44.914  87.298  34.338
34429DT     SC223796  44.979  87.286  34.543
34429DT     SC323797  45.007  87.052  34.321
34430DA     BB123798  44.627  87.885  34.352
34430DA     BB223799  44.870  87.848  34.624
34430DA     BB323800  45.067  87.890  34.553
34430DA     SC123801  45.127  87.595  34.475
34430DA     SC223802  45.274  87.409  34.555
34430DA     SC323803  45.239  87.309  34.321
34430DA     SC423804  45.095  87.549  34.324
34431DA     BB123805  45.008  88.059  34.825
34431DA     BB223806  45.298  87.881  34.963
34431DA     BB323807  45.476  87.943  34.863
34431DA     SC123808  45.460  87.722  34.645
34431DA     SC223809  45.583  87.515  34.582
34431DA     SC323810  45.476  87.545  34.351
34431DA     SC423811  45.384  87.759  34.507
34432DT     BB123812  45.571  88.016  34.986
34432DT     BB223813  45.824  87.759  35.010
34432DT     BB323814  45.982  87.804  34.885
34432DT     SC123815  45.845  87.736  34.673
34432DT     SC223816  45.927  87.555  34.590
34432DT     SC323817  45.719  87.755  34.442
34433DA     BB123818  46.125  87.711  35.271
34433DA     BB223819  46.330  87.531  35.025
34433DA     BB323820  46.452  87.668  34.916
34433DA     SC123821  46.242  87.714  34.691
34433DA     SC223822  46.216  87.658  34.449
34433DA     SC323823  46.045  87.849  34.444
34433DA     SC423824  46.140  87.837  34.708
34434DT     BB123825  46.656  87.665  34.940
34434DT     BB223826  46.739  87.523  34.619
34434DT     BB323827  46.814  87.670  34.494
34434DT     SC123828  46.575  87.772  34.457
34434DT     SC223829  46.512  87.735  34.254
34434DT     SC323830  46.374  87.944  34.461
34435DT     BB123831  47.080  87.585  34.511
34435DT     BB223832  47.014  87.588  34.157
34435DT     BB323833  47.060  87.774  34.078
34435DT     SC123834  46.844  87.880  34.182
34435DT     SC223835  46.706  87.929  34.024
34435DT     SC323836  46.691  88.035  34.331
34436DA     BB123837  47.287  87.513  33.837
34436DA     BB223838  47.101  87.735  33.612
34436DA     BB323839  47.193  87.927  33.604
34436DA     SC123840  47.024  88.044  33.839
34436DA     SC223841  46.843  88.212  33.870
34436DA     SC323842  46.916  88.216  34.115
34436DA     SC423843  47.086  88.033  33.987
34437DT     BB123844  47.287  88.002  33.426
34437DT     BB223845  47.023  88.232  33.338
34437DT     BB323846  47.086  88.427  33.369
34437DT     SC123847  47.061  88.401  33.629
34437DT     SC223848  46.896  88.521  33.697
34437DT     SC323849  47.125  88.390  33.884
34438DT     BB123850  47.095  88.460  33.102
34438DT     BB223851  46.863  88.710  33.218
34438DT     BB323852  46.965  88.880  33.275
34438DT     SC123853  47.049  88.766  33.496
34438DT     SC223854  46.952  88.857  33.665
34438DT     SC323855  47.213  88.665  33.676
34439DC     BB123856  46.855  88.989  33.061
34439DC     BB223857  46.747  89.194  33.338
34439DC     BB323858  46.893  89.333  33.384
34439DC     SC123859  47.043  89.149  33.498
34439DC     SC223860  47.047  89.182  33.710
34439DC     SC323861  47.247  88.989  33.543
34440DT     BB123862  46.716  89.499  33.290
34440DT     BB223863  46.784  89.611  33.626
34440DT     BB323864  46.959  89.721  33.630
34440DT     SC123865  47.105  89.504  33.606
34440DT     SC223866  47.210  89.468  33.790
34440DT     SC323867  47.273  89.328  33.505
34441DT     BB123868  46.808  89.938  33.670
34441DT     BB223869  47.042  89.939  33.944
34441DT     BB323870  47.218  90.030  33.886
34441DT     SC123871  47.289  89.820  33.745
34441DT     SC223872  47.456  89.723  33.840
34441DT     SC323873  47.353  89.671  33.538
34442DT     BB123874  47.159  90.250  34.036
34442DT     BB223875  47.486  90.150  34.152
34442DT     BB323876  47.632  90.236  34.033
34442DT     SC123877  47.582  90.069  33.837
34442DT     SC223878  47.748  89.933  33.815
34442DT     SC323879  47.509  89.979  33.600
34443DA     BB123880  47.749  90.359  34.419
34443DA     BB223881  48.049  90.229  34.252
34443DA     BB323882  48.123  90.371  34.112
34443DA     SC123883  47.957  90.259  33.874
34443DA     SC223884  47.999  90.135  33.661
34443DA     SC323885  47.769  90.223  33.589
34443DA     SC423886  47.813  90.324  33.847
34444DT     BB123887  48.324  90.500  34.123
34444DT     BB223888  48.505  90.312  33.874
34444DT     BB323889  48.535  90.428  33.705
34444DT     SC123890  48.285  90.403  33.632
34444DT     SC223891  48.274  90.281  33.456
34444DT     SC323892  48.036  90.467  33.573
34445DG     BB123893  48.930  90.362  33.810
34445DG     BB223894  48.872  90.266  33.466
34445DG     BB323895  48.889  90.425  33.347
34445DG     SC123896  48.594  90.502  33.368
34445DG     SC223897  48.394  90.494  33.145
34445DG     SC323898  48.281  90.627  33.384
34445DG     SC423899  48.547  90.599  33.486
34446DA     BB123900  49.125  90.262  33.148
34446DA     BB223901  48.897  90.275  32.862
34446DA     BB323902  48.911  90.465  32.765
34446DA     SC123903  48.685  90.596  32.935
34446DA     SC223904  48.452  90.677  32.902
34446DA     SC323905  48.490  90.813  33.116
34446DA     SC423906  48.729  90.674  33.069
34447DC     BB123907  48.981  90.465  32.579
34447DC     BB223908  48.659  90.505  32.420
34447DC     BB323909  48.641  90.698  32.347
34447DC     SC123910  48.604  90.795  32.588
34447DC     SC223911  48.400  90.862  32.608
34447DC     SC323912  48.644  90.934  32.808
34448DA     BB123913  48.530  90.384  32.091
34448DA     BB223914  48.260  90.632  32.101
34448DA     BB323915  48.322  90.813  32.008
34448DA     SC123916  48.432  90.940  32.270
34448DA     SC223917  48.371  91.126  32.425
34448DA     SC323918  48.615  91.113  32.503
34448DA     SC423919  48.588  90.917  32.304
34449DT     BB123920  48.207  90.804  31.905
34449DT     BB223921  48.013  91.082  32.029
34449DT     BB323922  48.088  91.260  31.953
34449DT     SC123923  48.294  91.251  32.115
34449DT     SC223924  48.276  91.406  32.262
34449DT     SC323925  48.544  91.236  32.198
34450DT     BB123926  47.851  91.221  31.873
34450DT     BB223927  47.858  91.546  32.028
34450DT     BB323928  47.969  91.678  31.913
34450DT     SC123929  48.194  91.568  31.989
34450DT     SC223930  48.301  91.705  32.116
34450DT     SC323931  48.424  91.439  31.978
34451DT     BB123932  47.733  91.783  31.867
34451DT     BB223933  47.941  92.059  31.972
34451DT     BB323934  48.057  92.125  31.814
34451DT     SC123935  48.216  91.917  31.834
34451DT     SC223936  48.408  91.980  31.906
34451DT     SC323937  48.341  91.693  31.772
34452DT     BB123938  47.904  92.354  31.764
34452DT     BB223939  48.240  92.483  31.785
34452DT     BB323940  48.329  92.480  31.598
34452DT     SC123941  48.362  92.219  31.610
34452DT     SC223942  48.571  92.174  31.629
34452DT     SC323943  48.338  91.963  31.551
34453DA     BB123944  48.379  92.896  31.669
34453DA     BB223945  48.704  92.774  31.551
34453DA     BB323946  48.703  92.756  31.338
34453DA     SC123947  48.606  92.460  31.340
34453DA     SC223948  48.700  92.235  31.286
34453DA     SC323949  48.455  92.161  31.267
34453DA     SC423950  48.448  92.434  31.331
34454DT     BB123951  48.823  92.889  31.159
34454DT     BB223952  49.069  92.635  31.087
34454DT     BB323953  49.045  92.566  30.894
34454DT     SC123954  48.832  92.428  30.961
34454DT     SC223955  48.877  92.218  30.952
34454DT     SC323956  48.581  92.348  30.971
34455DC     BB123957  49.272  92.698  30.774
34455DC     BB223958  49.331  92.349  30.707
34455DC     BB323959  49.257  92.299  30.520
34455DC     SC123960  49.010  92.305  30.609
34455DC     SC223961  48.931  92.104  30.612
34455DC     SC323962  48.758  92.377  30.637
34456DT     BB123963  49.511  92.276  30.426
34456DT     BB223964  49.363  91.952  30.372
34456DT     BB323965  49.268  91.947  30.189
34456DT     SC123966  49.068  92.091  30.279
34456DT     SC223967  48.892  91.969  30.291
34456DT     SC323968  48.901  92.293  30.307
34457DA     BB123969  49.520  91.618  30.248
34457DA     BB223970  49.194  91.495  30.132
34457DA     BB323971  49.165  91.546  29.927
34457DA     SC123972  49.027  91.818  29.989
34457DA     SC223973  48.799  91.918  29.970
34457DA     SC323974  48.919  92.144  29.981
34457DA     SC423975  49.120  91.949  29.995
34458DG     BB123976  49.137  91.241  29.946
34458DG     BB223977  48.804  91.316  29.826
34458DG     BB323978  48.810  91.365  29.634
34458DG     SC123979  48.850  91.664  29.687
34458DG     SC223980  48.655  91.881  29.624
34458DG     SC323981  48.915  91.994  29.708
34458DG     SC423982  48.999  91.721  29.703
34459DT     BB123983  48.706  91.243  29.502
34459DT     BB223984  48.430  91.449  29.395
34459DT     BB323985  48.473  91.536  29.212
34459DT     SC123986  48.638  91.707  29.324
34459DT     SC223987  48.554  91.904  29.315
34459DT     SC323988  48.862  91.832  29.384
34460DT     BB123989  48.305  91.367  29.067
34460DT     BB223990  48.203  91.695  28.959
34460DT     BB323991  48.317  91.755  28.797
34460DT     SC123992  48.525  91.802  28.950
34460DT     SC223993  48.560  92.014  28.960
34460DT     SC323994  48.767  91.782  29.053
34461DC     BB123995  48.133  91.710  28.566
34461DC     BB223996  48.235  92.052  28.515
34461DC     BB323997  48.395  92.059  28.383
34461DC     SC123998  48.560  91.972  28.568
34461DC     SC223999  48.694  92.130  28.624
34461DC     SC324000  48.732  91.816  28.694
34462DT     BB124001  48.272  92.145  28.119
34462DT     BB224002  48.534  92.389  28.167
34462DT     BB324003  48.703  92.333  28.061
34462DT     SC124004  48.759  92.146  28.237
34462DT     SC224005  48.936  92.202  28.347
34462DT     SC324006  48.802  91.907  28.340
34463DT     BB124007  48.694  92.516  27.829
34463DT     BB224008  49.017  92.583  27.973
34463DT     BB324009  49.162  92.472  27.877
34463DT     SC124010  49.084  92.252  27.998
34463DT     SC224011  49.235  92.190  28.138
34463DT     SC324012  48.988  92.009  28.033
34464DA     BB124013  49.313  92.862  27.840
34464DA     BB224014  49.582  92.656  27.980
34464DA     BB324015  49.674  92.541  27.826
34464DA     SC124016  49.485  92.296  27.861
34464DA     SC224017  49.500  92.062  27.945
34464DA     SC324018  49.285  92.022  27.810
34464DA     SC424019  49.352  92.291  27.770
34465DT     BB124020  49.877  92.575  27.767
34465DT     BB224021  50.014  92.287  27.936
34465DT     BB324022  50.071  92.144  27.797
34465DT     SC124023  49.821  92.077  27.751
34465DT     SC224024  49.785  91.880  27.829
34465DT     SC324025  49.593  92.041  27.624
34466DT     BB124026  50.334  92.197  27.847
34466DT     BB224027  50.295  91.846  27.920
34466DT     BB324028  50.324  91.735  27.748
34466DT     SC124029  50.089  91.805  27.655
34466DT     SC224030  49.958  91.634  27.656
34466DT     SC324031  49.906  91.912  27.498
34467DT     BB124032  50.561  91.647  27.847
34467DT     BB224033  50.370  91.347  27.787
34467DT     BB324034  50.396  91.285  27.592
34467DT     SC124035  50.240  91.476  27.502
34467DT     SC224036  50.057  91.391  27.428
34467DT     SC324037  50.162  91.692  27.373
34468DT     BB124038  50.543  91.077  27.683
34468DT     BB224039  50.273  90.925  27.499
34468DT     BB324040  50.322  90.911  27.299
34468DT     SC124041  50.283  91.168  27.264
34468DT     SC224042  50.108  91.199  27.143
34468DT     SC324043  50.333  91.422  27.210
34469DT     BB124044  50.343  90.646  27.334
34469DT     BB224045  50.093  90.687  27.077
34469DT     BB324046  50.184  90.704  26.892
34469DT     SC124047  50.262  90.949  26.943
34469DT     SC224048  50.152  91.086  26.819
34469DT     SC324049  50.420  91.156  26.987
34470DA     BB124050  49.875  90.421  26.888
34470DA     BB224051  49.830  90.647  26.603
34470DA     BB324052  49.982  90.613  26.456
34470DA     SC124053  50.179  90.821  26.575
34470DA     SC224054  50.272  91.044  26.513
34470DA     SC324055  50.459  90.990  26.680
34470DA     SC424056  50.287  90.769  26.682
34471DT     BB124057  49.905  90.553  26.304
34471DT     BB224058  49.949  90.854  26.109
34471DT     BB324059  50.117  90.836  25.990
34471DT     SC124060  50.276  90.872  26.195
34471DT     SC224061  50.374  91.063  26.178
34471DT     SC324062  50.459  90.823  26.379
34472DA     BB124063  49.789  90.964  25.760
34472DA     BB224064  50.077  91.176  25.678
34472DA     BB324065  50.222  91.064  25.567
34472DA     SC124066  50.378  90.971  25.820
34472DA     SC224067  50.600  91.014  25.927
34472DA     SC324068  50.561  90.792  26.049
34472DA     SC424069  50.336  90.830  25.886
34473DA     BB124070  50.188  91.318  25.359
34473DA     BB224071  50.547  91.377  25.400
34473DA     BB324072  50.659  91.229  25.296
34473DA     SC124073  50.675  91.035  25.539
34473DA     SC224074  50.849  90.951  25.697
34473DA     SC324075  50.686  90.758  25.742
34473DA     SC424076  50.561  90.923  25.553
34474DA     BB124077  50.815  91.478  25.135
34474DA     BB224078  51.131  91.356  25.275
34474DA     BB324079  51.200  91.186  25.166
34474DA     SC124080  51.053  90.979  25.347
34474DA     SC224081  51.114  90.805  25.515
34474DA     SC324082  50.881  90.708  25.468
34474DA     SC424083  50.905  90.934  25.303
34475DA     BB124084  51.497  91.336  25.096
34475DA     BB224085  51.664  91.070  25.286
34475DA     BB324086  51.692  90.898  25.163
34475DA     SC124087  51.421  90.767  25.242
34475DA     SC224088  51.342  90.571  25.374
34475DA     SC324089  51.123  90.596  25.243
34475DA     SC424090  51.293  90.798  25.150
34476DC     BB124091  51.901  90.798  25.072
34476DC     BB224092  51.911  90.525  25.308
34476DC     BB324093  51.886  90.345  25.208
34476DC     SC124094  51.629  90.390  25.177
34476DC     SC224095  51.517  90.254  25.300
34476DC     SC324096  51.398  90.434  25.058
34477DA     BB124097  52.246  90.288  25.416
34477DA     BB224098  52.023  90.011  25.504
34477DA     BB324099  52.020  89.865  25.347
34477DA     SC124100  51.780  89.995  25.198
34477DA     SC224101  51.541  89.942  25.152
34477DA     SC324102  51.561  90.110  24.960
34477DA     SC424103  51.813  90.102  25.082
34478DA     BB124104  52.093  89.698  25.610
34478DA     BB224105  51.771  89.530  25.560
34478DA     BB324106  51.785  89.390  25.399
34478DA     SC124107  51.698  89.596  25.182
34478DA     SC224108  51.501  89.636  25.034
34478DA     SC324109  51.662  89.776  24.892
34478DA     SC424110  51.814  89.677  25.106
34479DG     BB124111  51.691  89.271  25.660
34479DG     BB224112  51.391  89.228  25.464
34479DG     BB324113  51.419  89.087  25.327
34479DG     SC124114  51.522  89.279  25.113
34479DG     SC224115  51.385  89.347  24.857
34479DG     SC324116  51.658  89.459  24.862
34479DG     SC424117  51.679  89.312  25.107
34480DA     BB124118  51.111  89.096  25.500
34480DA     BB224119  50.955  89.088  25.168
34480DA     BB324120  51.020  88.916  25.060
34480DA     SC124121  51.263  89.060  24.929
34480DA     SC224122  51.331  89.138  24.702
34480DA     SC324123  51.570  89.136  24.795
34480DA     SC424124  51.404  89.051  25.005
34481DA     BB124125  50.691  88.983  25.050
34481DA     BB224126  50.735  88.952  24.687
34481DA     BB324127  50.809  88.758  24.637
34481DA     SC124128  51.108  88.841  24.655
34481DA     SC224129  51.300  88.873  24.499
34481DA     SC324130  51.448  88.847  24.707
34481DA     SC424131  51.183  88.820  24.796
34482DA     BB124132  50.549  88.800  24.436
34482DA     BB224133  50.778  88.715  24.162
34482DA     BB324134  50.839  88.511  24.177
34482DA     SC124135  51.089  88.573  24.351
34482DA     SC224136  51.337  88.569  24.326
34482DA     SC324137  51.343  88.562  24.582
34482DA     SC424138  51.072  88.567  24.511
34483DT     BB124139  50.776  88.351  24.040
34483DT     BB224140  51.093  88.289  23.879
34483DT     BB324141  51.172  88.109  23.944
34483DT     SC124142  51.239  88.214  24.175
34483DT     SC224143  51.453  88.228  24.188
34483DT     SC324144  51.246  88.258  24.435
34484DA     BB124145  51.169  88.002  23.531
34484DA     BB224146  51.498  87.901  23.656
34484DA     BB324147  51.485  87.714  23.757
34484DA     SC124148  51.431  87.840  24.036
34484DA     SC224149  51.551  87.866  24.253
34484DA     SC324150  51.318  87.906  24.353
34484DA     SC424151  51.278  87.861  24.079
34485DA     BB124152  51.715  87.533  23.562
34485DA     BB224153  51.929  87.492  23.857
34485DA     BB324154  51.874  87.317  23.964
34485DA     SC124155  51.669  87.463  24.148
34485DA     SC224156  51.650  87.528  24.388
34485DA     SC324157  51.398  87.546  24.341
34485DA     SC424158  51.516  87.467  24.099
34486DA     BB124159  52.185  87.169  23.947
34486DA     BB224160  52.210  87.198  24.312
34486DA     BB324161  52.126  87.026  24.406
34486DA     SC124162  51.841  87.149  24.428
34486DA     SC224163  51.689  87.232  24.608
34486DA     SC324164  51.501  87.198  24.437
34486DA     SC424165  51.738  87.120  24.308
34487DA     BB124166  52.416  86.981  24.560
34487DA     BB224167  52.243  87.048  24.876
34487DA     BB324168  52.149  86.870  24.948
34487DA     SC124169  51.880  86.924  24.803
34487DA     SC224170  51.646  86.986  24.865
34487DA     SC324171  51.582  86.894  24.634
34487DA     SC424172  51.860  86.861  24.657
34488DG     BB124173  52.336  86.915  25.189
34488DG     BB224174  52.023  86.976  25.360
34488DG     BB324175  51.944  86.804  25.421
34488DG     SC124176  51.786  86.757  25.164
34488DG     SC224177  51.488  86.759  25.139
34488DG     SC324178  51.615  86.664  24.888
34488DG     SC424179  51.855  86.679  25.043
34489DG     BB124180  51.957  86.961  25.699
34489DG     BB224181  51.596  86.933  25.698
34489DG     BB324182  51.542  86.750  25.755
34489DG     SC124183  51.545  86.634  25.472
34489DG     SC224184  51.307  86.538  25.319
34489DG     SC324185  51.557  86.469  25.178
34489DG     SC424186  51.681  86.573  25.414
34490DA     BB124187  51.346  86.963  25.937
34490DA     BB224188  51.051  86.789  25.806
34490DA     BB324189  51.042  86.590  25.882
34490DA     SC124190  51.205  86.466  25.648
34490DA     SC224191  51.164  86.315  25.453
34490DA     SC324192  51.417  86.277  25.455
34490DA     SC424193  51.364  86.454  25.666
34491DA     BB124194  50.750  86.739  25.918
34491DA     BB224195  50.617  86.453  25.731
34491DA     BB324196  50.643  86.273  25.843
34491DA     SC124197  50.922  86.208  25.720
34491DA     SC224198  51.020  86.040  25.564
34491DA     SC324199  51.246  86.106  25.668
34491DA     SC424200  51.052  86.262  25.798
34492DA     BB124201  50.323  86.266  25.762
34492DA     BB224202  50.393  85.941  25.609
34492DA     BB324203  50.438  85.796  25.759
34492DA     SC124204  50.744  85.850  25.754
34492DA     SC224205  50.951  85.732  25.682
34492DA     SC324206  51.074  85.894  25.838
34492DA     SC424207  50.802  85.959  25.858
34493DT     BB124208  50.309  85.643  25.792
34493DT     BB224209  50.512  85.377  25.656
34493DT     BB324210  50.597  85.268  25.809
34493DT     SC124211  50.771  85.459  25.859
34493DT     SC224212  50.967  85.393  25.801
34493DT     SC324213  50.899  85.650  25.987
34494DA     BB124214  50.401  84.963  25.593
34494DA     BB224215  50.742  84.845  25.658
34494DA     BB324216  50.761  84.781  25.861
34494DA     SC124217  50.850  85.060  25.966
34494DA     SC224218  51.057  85.166  26.057
34494DA     SC324219  50.899  85.343  26.155
34494DA     SC424220  50.735  85.159  26.020
34495DT     BB124221  50.792  84.564  25.938
34495DT     BB224222  51.140  84.601  26.024
34495DT     BB324223  51.163  84.595  26.229
34495DT     SC124224  51.066  84.837  26.256
34495DT     SC224225  51.224  84.971  26.317
34495DT     SC324226  50.906  85.034  26.328
34496DA     BB124227  51.427  84.297  26.095
34496DA     BB224228  51.615  84.515  26.323
34496DA     BB324229  51.565  84.472  26.525
34496DA     SC124230  51.333  84.679  26.537
34496DA     SC224231  51.286  84.897  26.648
34496DA     SC324232  51.039  84.844  26.603
34496DA     SC424233  51.185  84.627  26.501
34497DG     BB124234  51.866  84.400  26.561
34497DG     BB224235  51.863  84.690  26.776
34497DG     BB324236  51.803  84.638  26.959
34497DG     SC124237  51.506  84.687  26.901
34497DG     SC224238  51.337  84.900  27.023
34497DG     SC324239  51.172  84.712  26.866
34497DG     SC424240  51.418  84.568  26.841
34498DA     BB124241  52.089  84.799  27.063
34498DA     BB224242  51.885  85.033  27.258
34498DA     BB324243  51.813  84.939  27.435
34498DA     SC124244  51.550  84.837  27.304
34498DA     SC224245  51.306  84.886  27.319
34498DA     SC324246  51.274  84.654  27.214
34498DA     SC424247  51.551  84.690  27.240
34499DT     BB124248  51.882  85.015  27.594
34499DT     BB224249  51.580  85.186  27.694
34499DT     BB324250  51.483  85.079  27.841
34499DT     SC124251  51.399  84.901  27.667
34499DT     SC224252  51.186  84.919  27.644
34499DT     SC324253  51.368  84.670  27.545
34500DA     BB124254  51.524  85.480  27.960
34500DA     BB224255  51.176  85.378  28.015
34500DA     BB324256  51.164  85.241  28.178
34500DA     SC124257  51.197  84.988  28.000
34500DA     SC224258  51.057  84.796  27.924
34500DA     SC324259  51.280  84.679  27.876
34500DA     SC424260  51.346  84.931  27.979
34501DA     BB124261  50.943  85.463  28.276
34501DA     BB224262  50.696  85.192  28.270
34501DA     BB324263  50.725  85.062  28.437
34501DA     SC124264  50.920  84.871  28.286
34501DA     SC224265  50.918  84.638  28.197
34501DA     SC324266  51.174  84.657  28.201
34501DA     SC424267  51.077  84.902  28.297
34502DC     BB124268  50.582  85.058  28.569
34502DC     BB224269  50.449  84.733  28.485
34502DC     BB324270  50.512  84.593  28.624
34502DC     SC124271  50.754  84.590  28.522
34502DC     SC224272  50.789  84.401  28.426
34502DC     SC324273  51.016  84.618  28.503
34503DA     BB124274  50.095  84.557  28.595
34503DA     BB224275  50.239  84.220  28.573
34503DA     BB324276  50.310  84.157  28.764
34503DA     SC124277  50.597  84.269  28.721
34503DA     SC224278  50.827  84.179  28.686
34503DA     SC324279  50.907  84.411  28.762
34503DA     SC424280  50.627  84.419  28.772
34504DT     BB124281  50.218  84.000  28.865
34504DT     BB224282  50.477  83.754  28.814
34504DT     BB324283  50.582  83.725  28.990
34504DT     SC124284  50.707  83.954  28.963
34504DT     SC224285  50.915  83.917  28.920
34504DT     SC324286  50.787  84.200  29.013
34505DA     BB124287  50.462  83.337  28.879
34505DA     BB224288  50.820  83.322  28.959
34505DA     BB324289  50.849  83.329  29.170
34505DA     SC124290  50.871  83.639  29.182
34505DA     SC224291  51.048  83.810  29.226
34505DA     SC324292  50.853  83.969  29.274
34505DA     SC424293  50.737  83.722  29.210
34506DA     BB124294  51.021  83.044  29.140
34506DA     BB224295  51.314  83.223  29.268
34506DA     BB324296  51.304  83.240  29.480
34506DA     SC124297  51.154  83.512  29.477
34506DA     SC224298  51.202  83.750  29.533
34506DA     SC324299  50.948  83.778  29.546
34506DA     SC424300  50.993  83.509  29.481
34507DT     BB124301  51.443  83.136  29.626
34507DT     BB224302  51.637  83.429  29.709
34507DT     BB324303  51.598  83.486  29.904
34507DT     SC124304  51.364  83.583  29.838
34507DT     SC224305  51.368  83.798  29.853
34507DT     SC324306  51.102  83.615  29.827
34508DT     BB124307  51.845  83.398  30.004
34508DT     BB224308  51.837  83.749  30.086
34508DT     BB324309  51.754  83.776  30.274
34508DT     SC124310  51.513  83.727  30.182
34508DT     SC224311  51.397  83.909  30.187
34508DT     SC324312  51.279  83.609  30.148
34509DA     BB124313  52.120  83.978  30.265
34509DA     BB224314  51.864  84.212  30.384
34509DA     BB324315  51.809  84.165  30.585
34509DA     SC124316  51.578  83.973  30.504
34509DA     SC224317  51.329  83.970  30.512
34509DA     SC324318  51.352  83.716  30.488
34509DA     SC424319  51.613  83.817  30.489
34510DC     BB124320  51.853  84.303  30.697
34510DC     BB224321  51.518  84.429  30.740
34510DC     BB324322  51.441  84.363  30.920
34510DC     SC124323  51.404  84.121  30.825
34510DC     SC224324  51.193  84.083  30.805
34510DC     SC324325  51.428  83.860  30.794
34511DT     BB124326  51.463  84.616  31.002
34511DT     BB224327  51.114  84.536  31.046
34511DT     BB324328  51.084  84.445  31.229
34511DT     SC124329  51.190  84.220  31.143
34511DT     SC224330  51.036  84.071  31.127
34511DT     SC324331  51.355  84.016  31.121
34512DA     BB124332  50.810  84.758  31.184
34512DA     BB224333  50.627  84.464  31.304
34512DA     BB324334  50.673  84.426  31.509
34512DA     SC124335  50.912  84.237  31.445
34512DA     SC224336  50.965  83.994  31.464
34512DA     SC324337  51.210  84.067  31.449
34512DA     SC424338  51.058  84.302  31.436
34513DT     BB124339  50.528  84.451  31.654
34513DT     BB224340  50.472  84.102  31.726
34513DT     BB324341  50.557  84.053  31.908
34513DT     SC124342  50.799  84.058  31.807
34513DT     SC224343  50.877  83.858  31.800
34513DT     SC324344  51.048  84.131  31.764
34514DG     BB124345  50.161  83.964  31.969
34514DG     BB224346  50.370  83.684  32.064
34514DG     BB324347  50.441  83.712  32.248
34514DG     SC124348  50.693  83.859  32.155
34514DG     SC224349  50.973  83.759  32.179
34514DG     SC324350  50.969  84.041  32.090
34514DG     SC424351  50.687  84.018  32.136
34515DA     BB124352  50.319  83.401  32.361
34515DA     BB224353  50.659  83.288  32.440
34515DA     BB324354  50.719  83.362  32.631
34515DA     SC124355  50.845  83.622  32.518
34515DA     SC224356  51.073  83.720  32.489
34515DA     SC324357  50.952  83.945  32.469
34515DA     SC424358  50.752  83.753  32.509
34516DT     BB124359  50.752  83.231  32.803
34516DT     BB224360  51.112  83.245  32.794
34516DT     BB324361  51.183  83.352  32.957
34516DT     SC124362  51.109  83.579  32.849
34516DT     SC224363  51.284  83.691  32.793
34516DT     SC324364  50.983  83.808  32.814
34517DC     BB124365  51.274  83.120  33.062
34517DC     BB224366  51.566  83.329  33.036
34517DC     BB324367  51.586  83.445  33.207
34517DC     SC124368  51.390  83.603  33.132
34517DC     SC224369  51.470  83.796  33.081
34517DC     SC324370  51.157  83.726  33.132
34518DC     BB124371  51.793  83.290  33.248
34518DC     BB224372  51.925  83.626  33.246
34518DC     BB324373  51.899  83.713  33.432
34518DC     SC124374  51.642  83.747  33.389
34518DC     SC224375  51.600  83.957  33.367
34518DC     SC324376  51.381  83.723  33.416
34519DA     BB124377  52.287  83.765  33.281
34519DA     BB224378  52.173  84.085  33.418
34519DA     BB324379  52.157  84.073  33.631
34519DA     SC124380  51.860  83.981  33.629
34519DA     SC224381  51.637  84.075  33.691
34519DA     SC324382  51.559  83.830  33.698
34519DA     SC424383  51.831  83.823  33.629
34520DT     BB124384  52.280  84.183  33.721
34520DT     BB224385  52.050  84.423  33.861
34520DT     BB324386  52.008  84.375  34.058
34520DT     SC124387  51.854  84.175  33.986
34520DT     SC224388  51.649  84.223  34.031
34520DT     SC324389  51.764  83.929  33.956
34521DA     BB124390  52.133  84.777  34.083
34521DA     BB224391  51.834  84.743  34.291
34521DA     BB324392  51.880  84.639  34.472
34521DA     SC124393  51.817  84.358  34.356
34521DA     SC224394  51.643  84.181  34.385
34521DA     SC324395  51.816  84.023  34.281
34521DA     SC424396  51.938  84.275  34.290
34522DA     BB124397  51.762  84.896  34.659
34522DA     BB224398  51.514  84.667  34.800
34522DA     BB324399  51.602  84.550  34.956
34522DA     SC124400  51.690  84.319  34.767
34522DA     SC224401  51.627  84.082  34.724
34522DA     SC324402  51.858  84.061  34.615
34522DA     SC424403  51.838  84.326  34.705
34523DA     BB124404  51.366  84.656  35.172
34523DA     BB224405  51.253  84.309  35.201
34523DA     BB324406  51.375  84.203  35.341
34523DA     SC124407  51.578  84.106  35.126
34523DA     SC224408  51.643  83.891  35.017
34523DA     SC324409  51.862  84.011  34.958
34523DA     SC424410  51.708  84.197  35.101
34524DT     BB124411  51.301  84.128  35.533
34524DT     BB224412  51.278  83.782  35.432
34524DT     BB324413  51.424  83.671  35.528
34524DT     SC124414  51.612  83.769  35.373
34524DT     SC224415  51.684  83.614  35.242
34524DT     SC324416  51.828  83.900  35.298
34525DC     BB124417  51.230  83.558  35.674
34525DC     BB224418  51.391  83.283  35.505
34525DC     BB324419  51.556  83.220  35.613
34525DC     SC124420  51.695  83.430  35.539
34525DC     SC224421  51.852  83.367  35.406
34525DC     SC324422  51.832  83.655  35.554
34526DA     BB124423  51.310  82.898  35.504
34526DA     BB224424  51.656  82.815  35.417
34526DA     BB324425  51.771  82.781  35.594
34526DA     SC124426  51.862  83.077  35.621
34526DA     SC224427  52.072  83.209  35.598
34526DA     SC324428  51.954  83.386  35.740
34526DA     SC424429  51.771  83.175  35.712
34527DA     BB124430  51.826  82.518  35.407
34527DA     BB224431  52.180  82.610  35.426
34527DA     BB324432  52.254  82.579  35.624
34527DA     SC124433  52.187  82.866  35.721
34527DA     SC224434  52.310  83.073  35.786
34527DA     SC324435  52.094  83.140  35.906
34527DA     SC424436  52.044  82.889  35.791
34528DA     BB124437  52.480  82.406  35.454
34528DA     BB224438  52.732  82.628  35.602
34528DA     BB324439  52.759  82.581  35.808
34528DA     SC124440  52.543  82.782  35.907
34528DA     SC224441  52.535  82.998  36.031
34528DA     SC324442  52.289  82.938  36.078
34528DA     SC424443  52.393  82.726  35.926
34529DA     BB124444  53.087  82.541  35.744
34529DA     BB224445  53.154  82.810  35.984
34529DA     BB324446  53.141  82.737  36.184
34529DA     SC124447  52.838  82.802  36.214
34529DA     SC224448  52.696  82.962  36.341
34529DA     SC324449  52.505  82.797  36.295
34529DA     SC424450  52.733  82.686  36.176
34530DA     BB124451  53.461  82.833  36.264
34530DA     BB224452  53.319  83.059  36.515
34530DA     BB324453  53.280  82.954  36.697
34530DA     SC124454  52.989  82.878  36.619
34530DA     SC224455  52.757  82.937  36.689
34530DA     SC324456  52.688  82.717  36.578
34530DA     SC424457  52.966  82.736  36.545
34531DC     BB124458  53.390  82.969  36.926
34531DC     BB224459  53.123  83.158  37.078
34531DC     BB324460  53.035  83.046  37.228
34531DC     SC124461  52.912  82.894  37.053
34531DC     SC224462  52.700  82.934  37.060
34531DC     SC324463  52.841  82.679  36.917
34532DA     BB124464  53.139  83.403  37.420
34532DA     BB224465  52.784  83.343  37.487
34532DA     BB324466  52.761  83.195  37.639
34532DA     SC124467  52.751  82.957  37.439
34532DA     SC224468  52.582  82.793  37.356
34532DA     SC324469  52.785  82.652  37.286
34532DA     SC424470  52.889  82.883  37.405
34533DA     BB124471  52.581  83.437  37.762
34533DA     BB224472  52.295  83.210  37.735
34533DA     BB324473  52.300  83.064  37.890
34533DA     SC124474  52.464  82.858  37.724
34533DA     SC224475  52.426  82.636  37.617
34533DA     SC324476  52.681  82.613  37.622
34533DA     SC424477  52.624  82.862  37.738
34534DT     BB124478  52.155  83.080  38.009
34534DT     BB224479  51.973  82.791  37.893
34534DT     BB324480  52.002  82.632  38.022
34534DT     SC124481  52.245  82.593  37.931
34534DT     SC224482  52.251  82.408  37.821
34534DT     SC324483  52.508  82.575  37.925
34535DT     BB124484  51.749  82.668  38.094
34535DT     BB224485  51.767  82.324  37.985
34535DT     BB324486  51.835  82.204  38.140
34535DT     SC124487  52.080  82.292  38.110
34535DT     SC224488  52.204  82.134  38.032
34535DT     SC324489  52.310  82.410  38.164
34536DT     BB124490  51.585  82.099  38.172
34536DT     BB224491  51.796  81.811  38.120
34536DT     BB324492  51.875  81.748  38.301
34536DT     SC124493  52.044  81.949  38.306
34536DT     SC224494  52.244  81.875  38.277
34536DT     SC324495  52.164  82.170  38.385
34537DT     BB124496  51.710  81.524  38.319
34537DT     BB224497  52.043  81.388  38.345
34537DT     BB324498  52.102  81.382  38.544
34537DT     SC124499  52.140  81.642  38.548
34537DT     SC224500  52.351  81.683  38.563
34537DT     SC324501  52.112  81.896  38.613
34538DG     BB124502  52.120  80.987  38.436
34538DG     BB224503  52.433  81.095  38.582
34538DG     BB324504  52.421  81.091  38.780
34538DG     SC124505  52.318  81.378  38.805
34538DG     SC224506  52.465  81.606  38.929
34538DG     SC324507  52.185  81.682  38.868
34538DG     SC424508  52.160  81.405  38.799
34539DT     BB124509  52.551  80.952  38.918
34539DT     BB224510  52.788  81.194  39.043
34539DT     BB324511  52.749  81.234  39.243
34539DT     SC124512  52.540  81.379  39.181
34539DT     SC224513  52.581  81.586  39.223
34539DT     SC324514  52.289  81.459  39.165
34540DA     BB124515  53.152  81.139  39.190
34540DA     BB224516  53.131  81.455  39.376
34540DA     BB324517  53.066  81.418  39.576
34540DA     SC124518  52.764  81.452  39.510
34540DA     SC224519  52.582  81.615  39.557
34540DA     SC324520  52.422  81.422  39.499
34540DA     SC424521  52.682  81.319  39.471
34541DT     BB124522  53.198  81.468  39.681
34541DT     BB224523  53.043  81.772  39.801
34541DT     BB324524  52.950  81.737  39.983
34541DT     SC124525  52.753  81.608  39.866
34541DT     SC224526  52.573  81.726  39.880
34541DT     SC324527  52.590  81.412  39.799
34542DC     BB124528  53.142  81.893  40.058
34542DC     BB224529  52.837  82.055  40.160
34542DC     BB324530  52.764  81.968  40.333
34542DC     SC124531  52.681  81.757  40.200
34542DC     SC224532  52.466  81.755  40.197
34542DC     SC324533  52.660  81.506  40.121
34543DT     BB124534  52.832  82.200  40.425
34543DT     BB224535  52.482  82.161  40.503
34543DT     BB324536  52.459  82.039  40.668
34543DT     SC124537  52.515  81.825  40.526
34543DT     SC224538  52.338  81.705  40.505
34543DT     SC324539  52.641  81.609  40.442
34544DA     BB124540  52.233  82.392  40.706
34544DA     BB224541  52.022  82.107  40.799
34544DA     BB324542  52.090  82.021  40.982
34544DA     SC124543  52.282  81.818  40.844
34544DA     SC224544  52.295  81.572  40.808
34544DA     SC324545  52.545  81.613  40.765
34544DA     SC424546  52.434  81.864  40.822
34545DA     BB124547  51.771  82.069  41.048
34545DA     BB224548  51.751  81.708  41.111
34545DA     BB324549  51.852  81.659  41.293
34545DA     SC124550  52.127  81.608  41.156
34545DA     SC224551  52.275  81.414  41.107
34545DA     SC324552  52.461  81.589  41.081
34545DA     SC424553  52.229  81.732  41.146
34546DC     BB124554  51.744  81.593  41.449
34546DC     BB224555  51.852  81.249  41.441
34546DC     BB324556  51.990  81.215  41.592
34546DC     SC124557  52.178  81.342  41.459
34546DC     SC224558  52.326  81.201  41.392
34546DC     SC324559  52.359  81.523  41.399
34547DT     BB124560  51.812  81.073  41.752
34547DT     BB224561  52.092  80.848  41.716
34547DT     BB324562  52.231  80.883  41.866
34547DT     SC124563  52.313  81.103  41.749
34547DT     SC224564  52.512  81.074  41.673
34547DT     SC324565  52.362  81.359  41.708
34548DA     BB124566  52.158  80.470  41.917
34548DA     BB224567  52.522  80.516  41.913
34548DA     BB324568  52.589  80.594  42.099
34548DA     SC124569  52.563  80.891  42.011
34548DA     SC224570  52.715  81.082  41.959
34548DA     SC324571  52.510  81.230  42.001
34548DA     SC424572  52.425  80.967  42.043
34549DT     BB124573  52.719  80.486  42.263
34549DT     BB224574  53.026  80.661  42.191
34549DT     BB324575  53.075  80.786  42.349
34549DT     SC124576  52.888  80.957  42.281
34549DT     SC224577  52.979  81.137  42.207
34549DT     SC324578  52.669  81.104  42.294
34550DA     BB124579  53.426  80.556  42.315
34550DA     BB224580  53.527  80.908  42.313
34550DA     BB324581  53.524  80.987  42.511
34550DA     SC124582  53.229  81.084  42.494
34550DA     SC224583  53.107  81.301  42.483
34550DA     SC324584  52.903  81.167  42.563
34550DA     SC424585  53.115  80.983  42.545
34551DT     BB124586  53.708  81.053  42.628
34551DT     BB224587  53.654  81.407  42.579
34551DT     BB324588  53.605  81.496  42.760
34551DT     SC124589  53.363  81.395  42.753
34551DT     SC224590  53.220  81.552  42.720
34551DT     SC324591  53.152  81.252  42.821
34552DT     BB124592  53.848  81.618  42.766
34552DT     BB224593  53.609  81.888  42.767
34552DT     BB324594  53.553  81.932  42.962
34552DT     SC124595  53.404  81.716  42.976
34552DT     SC224596  53.196  81.773  42.982
34552DT     SC324597  53.315  81.481  43.054
34553DT     BB124598  53.687  82.156  42.923
34553DT     BB224599  53.350  82.259  42.999
34553DT     BB324600  53.322  82.264  43.204
34553DT     SC124601  53.312  82.002  43.217
34553DT     SC224602  53.111  81.941  43.265
34553DT     SC324603  53.376  81.754  43.280
34554DT     BB124604  53.306  82.516  43.147
34554DT     BB224605  52.993  82.430  43.304
34554DT     BB324606  53.017  82.420  43.509
34554DT     SC124607  53.143  82.191  43.492
34554DT     SC224608  53.019  82.035  43.574
34554DT     SC324609  53.336  82.011  43.509
34555DA     BB124610  52.679  82.639  43.384
34555DA     BB224611  52.580  82.412  43.654
34555DA     BB324612  52.670  82.471  43.838
34555DA     SC124613  52.924  82.296  43.799
34555DA     SC224614  53.024  82.091  43.901
34555DA     SC324615  53.244  82.172  43.797
34555DA     SC424616  53.051  82.364  43.728
34556DT     BB124617  52.541  82.517  43.948
34556DT     BB224618  52.568  82.240  44.177
34556DT     BB324619  52.690  82.292  44.336
34556DT     SC124620  52.906  82.272  44.188
34556DT     SC224621  53.020  82.101  44.252
34556DT     SC324622  53.126  82.340  44.060
34557DT     BB124623  52.470  82.299  44.490
34557DT     BB224624  52.694  82.077  44.665
34557DT     BB324625  52.825  82.187  44.783
34557DT     SC124626  52.963  82.261  44.572
34557DT     SC224627  53.156  82.166  44.576
34557DT     SC324628  53.072  82.417  44.389
34558DT     BB124629  52.699  82.127  45.026
34558DT     BB224630  53.042  82.037  45.087
34558DT     BB324631  53.146  82.200  45.162
34558DT     SC124632  53.153  82.313  44.925
34558DT     SC224633  53.355  82.311  44.851
34558DT     SC324634  53.111  82.488  44.732
34559DG     BB124635  53.193  81.950  45.490
34559DG     BB224636  53.514  82.083  45.390
34559DG     BB324637  53.540  82.263  45.470
34559DG     SC124638  53.413  82.414  45.235
34559DG     SC224639  53.554  82.597  45.047
34559DG     SC324640  53.262  82.609  45.006
34559DG     SC424641  53.255  82.440  45.237
34560DA     BB124642  53.855  82.201  45.642
34560DA     BB224643  54.027  82.452  45.436
34560DA     BB324644  54.003  82.646  45.521
34560DA     SC124645  53.744  82.711  45.362
34560DA     SC224646  53.674  82.863  45.177
34560DA     SC324647  53.435  82.825  45.264
34560DA     SC424648  53.603  82.676  45.432
34561DT     BB124649  54.171  82.785  45.620
34561DT     BB224650  54.201  83.005  45.336
34561DT     BB324651  54.133  83.194  45.386
34561DT     SC124652  53.883  83.115  45.376
34561DT     SC224653  53.786  83.205  45.206
34561DT     SC324654  53.638  83.058  45.454
34562DC     BB124655  54.388  83.304  45.392
34562DC     BB224656  54.213  83.492  45.138
34562DC     BB324657  54.119  83.656  45.224
34562DC     SC124658  53.933  83.504  45.329
34562DC     SC224659  53.746  83.542  45.230
34562DC     SC324660  53.784  83.384  45.510
34563DT     BB124661  54.300  83.810  45.099
34563DT     BB224662  53.979  83.914  44.971
34563DT     BB324663  53.895  84.055  45.097
34563DT     SC124664  53.834  83.871  45.275
34563DT     SC224665  53.620  83.846  45.281
34563DT     SC324666  53.831  83.736  45.501
34564DT     BB124667  53.941  84.212  44.894
34564DT     BB224668  53.584  84.221  44.947
34564DT     BB324669  53.539  84.352  45.101
34564DT     SC124670  53.624  84.182  45.281
34564DT     SC224671  53.457  84.107  45.394
34564DT     SC324672  53.769  84.078  45.476
34565DA     BB124673  53.305  84.393  44.752
34565DA     BB224674  53.084  84.378  45.044
34565DA     BB324675  53.109  84.552  45.165
34565DA     SC124676  53.332  84.426  45.342
34565DA     SC224677  53.359  84.348  45.577
34565DA     SC324678  53.611  84.373  45.536
34565DA     SC424679  53.485  84.450  45.297
34566DC     BB124680  52.958  84.618  45.158
34566DC     BB224681  52.860  84.545  45.498
34566DC     BB324682  52.914  84.701  45.622
34566DC     SC124683  53.167  84.631  45.613
34566DC     SC224684  53.226  84.555  45.806
34566DC     SC324685  53.426  84.642  45.566
34567DA     BB124686  52.517  84.567  45.679
34567DA     BB224687  52.679  84.605  46.006
34567DA     BB324688  52.719  84.811  46.045
34567DA     SC124689  53.004  84.804  45.919
34567DA     SC224690  53.240  84.818  45.996
34567DA     SC324691  53.294  84.881  45.753
34567DA     SC424692  53.017  84.843  45.763
34568DA     BB124693  52.561  84.704  46.314
34568DA     BB224694  52.857  84.815  46.500
34568DA     BB324695  52.872  85.028  46.496
34568DA     SC124696  53.046  85.035  46.238
34568DA     SC224697  53.281  85.090  46.176
34568DA     SC324698  53.190  85.118  45.937
34568DA     SC424699  52.970  85.049  46.097
34569DA     BB124700  52.890  84.981  46.823
34569DA     BB224701  53.214  85.152  46.809
34569DA     BB324702  53.186  85.361  46.775
34569DA     SC124703  53.199  85.337  46.466
34569DA     SC224704  53.355  85.402  46.282
34569DA     SC324705  53.152  85.377  46.128
34569DA     SC424706  53.061  85.318  46.386
34570DA     BB124707  53.369  85.404  47.051
34570DA     BB224708  53.608  85.591  46.845
34570DA     BB324709  53.532  85.786  46.803
34570DA     SC124710  53.390  85.700  46.539
34570DA     SC224711  53.417  85.737  46.294
34570DA     SC324712  53.171  85.666  46.277
34570DA     SC424713  53.236  85.655  46.549
34571DT     BB124714  53.612  85.985  46.882
34571DT     BB224715  53.764  86.096  46.575
34571DT     BB324716  53.658  86.256  46.497
34571DT     SC124717  53.464  86.098  46.417
34571DT     SC224718  53.464  86.088  46.202
34571DT     SC324719  53.225  85.989  46.397
34572DA     BB124720  54.044  86.426  46.519
34572DA     BB224721  53.920  86.488  46.180
34572DA     BB324722  53.780  86.649  46.180
34572DA     SC124723  53.532  86.467  46.225
34572DA     SC224724  53.333  86.392  46.096
34572DA     SC324725  53.230  86.338  46.325
34572DA     SC424726  53.485  86.442  46.377
34573DG     BB124727  53.969  86.822  45.989
34573DG     BB224728  53.700  86.776  45.752
34573DG     BB324729  53.566  86.921  45.772
34573DG     SC124730  53.399  86.772  45.980
34573DG     SC224731  53.121  86.671  45.941
34573DG     SC324732  53.203  86.647  46.224
34573DG     SC424733  53.435  86.789  46.135
34574DT     BB124734  53.516  87.075  45.604
34574DT     BB224735  53.203  86.938  45.488
34574DT     BB324736  53.046  87.058  45.549
34574DT     SC124737  53.065  86.970  45.795
34574DT     SC224738  52.893  86.849  45.840
34574DT     SC324739  53.103  86.969  46.056
34575DA     BB124740  53.020  86.986  45.138
34575DA     BB224741  52.697  86.902  45.291
34575DA     BB324742  52.594  87.080  45.349
34575DA     SC124743  52.716  87.086  45.636
34575DA     SC224744  52.638  87.051  45.870
34575DA     SC324745  52.847  87.182  45.938
34575DA     SC424746  52.851  87.170  45.657
34576DC     BB124747  52.442  87.092  45.255
34576DC     BB224748  52.220  86.998  45.523
34576DC     BB324749  52.138  87.167  45.610
34576DC     SC124750  52.364  87.223  45.732
34576DC     SC224751  52.339  87.193  45.944
34576DC     SC324752  52.583  87.352  45.801
34577DA     BB124753  51.861  86.863  45.519
34577DA     BB224754  51.808  86.975  45.864
34577DA     BB324755  51.733  87.175  45.867
34577DA     SC124756  52.015  87.306  45.880
34577DA     SC224757  52.152  87.433  46.046
34577DA     SC324758  52.287  87.513  45.843
34577DA     SC424759  52.086  87.346  45.741
34578DT     BB124760  51.583  87.158  45.939
34578DT     BB224761  51.663  87.315  46.254
34578DT     BB324762  51.622  87.517  46.244
34578DT     SC124763  51.835  87.561  46.097
34578DT     SC224764  51.980  87.671  46.211
34578DT     SC324765  51.983  87.630  45.890
34579DG     BB124766  51.437  87.334  46.559
34579DG     BB224767  51.619  87.630  46.661
34579DG     BB324768  51.523  87.793  46.599
34579DG     SC124769  51.667  87.806  46.329
34579DG     SC224770  51.859  88.018  46.243
34579DG     SC324771  51.791  87.839  46.017
34579DG     SC424772  51.606  87.726  46.205
34580DT     BB124773  51.462  87.919  46.747
34580DT     BB224774  51.682  88.202  46.709
34580DT     BB324775  51.590  88.348  46.595
34580DT     SC124776  51.626  88.211  46.374
34580DT     SC224777  51.772  88.311  46.251
34580DT     SC324778  51.572  88.074  46.155
34581DG     BB124779  51.681  88.527  46.952
34581DG     BB224780  51.798  88.724  46.672
34581DG     BB324781  51.646  88.823  46.590
34581DG     SC124782  51.575  88.600  46.393
34581DG     SC224783  51.601  88.613  46.096
34581DG     SC324784  51.457  88.368  46.178
34581DG     SC424785  51.472  88.485  46.439
34582DA     BB124786  51.824  89.124  46.622
34582DA     BB224787  51.811  89.172  46.258
34582DA     BB324788  51.619  89.243  46.200
34582DA     SC124789  51.500  88.959  46.154
34582DA     SC224790  51.427  88.818  45.962
34582DA     SC324791  51.295  88.684  46.137
34582DA     SC424792  51.424  88.889  46.278
34583DT     BB124793  51.595  89.434  46.121
34583DT     BB224794  51.550  89.332  45.778
34583DT     BB324795  51.352  89.353  45.724
34583DT     SC124796  51.283  89.141  45.862
34583DT     SC224797  51.226  88.983  45.726
34583DT     SC324798  51.167  88.991  46.045
34584DA     BB124799  51.592  89.544  45.438
34584DA     BB224800  51.358  89.322  45.262
34584DA     BB324801  51.161  89.402  45.269
34584DA     SC124802  51.084  89.254  45.533
34584DA     SC224803  50.933  89.069  45.603
34584DA     SC324804  50.954  89.169  45.838
34584DA     SC424805  51.108  89.333  45.671
34585DC     BB124806  51.102  89.443  45.102
34585DC     BB224807  50.871  89.168  45.067
34585DC     BB324808  50.679  89.231  45.110
34585DC     SC124809  50.730  89.237  45.367
34585DC     SC224810  50.621  89.079  45.465
34585DC     SC324811  50.764  89.331  45.611
34586DA     BB124812  50.701  89.012  44.750
34586DA     BB224813  50.423  88.882  44.950
34586DA     BB324814  50.267  89.027  44.963
34586DA     SC124815  50.377  89.159  45.222
34586DA     SC224816  50.312  89.175  45.463
34586DA     SC324817  50.467  89.380  45.469
34586DA     SC424818  50.476  89.284  45.206
34587DA     BB124819  50.107  88.757  44.861
34587DA     BB224820  49.901  88.794  45.163
34587DA     BB324821  49.775  88.965  45.146
34587DA     SC124822  49.979  89.160  45.276
34587DA     SC224823  50.002  89.289  45.488
34587DA     SC324824  50.170  89.433  45.358
34587DA     SC424825  50.079  89.239  45.178
34588DT     BB124826  49.572  88.941  45.131
34588DT     BB224827  49.485  89.062  45.460
34588DT     BB324828  49.409  89.254  45.446
34588DT     SC124829  49.647  89.355  45.404
34588DT     SC224830  49.708  89.470  45.576
34588DT     SC324831  49.847  89.477  45.283
34589DA     BB124832  49.087  89.065  45.648
34589DA     BB224833  49.160  89.374  45.831
34589DA     BB324834  49.080  89.542  45.728
34589DA     SC124835  49.338  89.594  45.562
34589DA     SC224836  49.519  89.765  45.550
34589DA     SC324837  49.563  89.674  45.315
34589DA     SC424838  49.349  89.524  45.417
34590DT     BB124839  48.889  89.698  45.783
34590DT     BB224840  49.099  89.972  45.885
34590DT     BB324841  49.078  90.131  45.754
34590DT     SC124842  49.220  90.008  45.570
34590DT     SC224843  49.408  90.110  45.546
34590DT     SC324844  49.284  89.890  45.343
34591DG     BB124845  48.935  90.329  46.090
34591DG     BB224846  49.209  90.514  45.944
34591DG     BB324847  49.141  90.636  45.803
34591DG     SC124848  49.168  90.431  45.577
34591DG     SC224849  49.357  90.448  45.346
34591DG     SC324850  49.165  90.225  45.310
34591DG     SC424851  49.045  90.332  45.547
34592DT     BB124852  49.151  90.883  45.802
34592DT     BB224853  49.430  90.927  45.578
34592DT     BB324854  49.365  91.010  45.400
34592DT     SC124855  49.260  90.782  45.323
34592DT     SC224856  49.374  90.702  45.159
34592DT     SC324857  49.079  90.604  45.252
34593DC     BB124858  49.485  91.247  45.463
34593DC     BB224859  49.642  91.144  45.155
34593DC     BB324860  49.533  91.214  44.993
34593DC     SC124861  49.346  91.034  45.031
34593DC     SC224862  49.351  90.891  44.871
34593DC     SC324863  49.110  90.930  45.083
34594DT     BB124864  49.738  91.379  44.949
34594DT     BB224865  49.709  91.182  44.649
34594DT     BB324866  49.568  91.266  44.523
34594DT     SC124867  49.371  91.179  44.673
34594DT     SC224868  49.265  91.024  44.569
34594DT     SC324869  49.161  91.181  44.832
34595DT     BB124870  49.774  91.329  44.368
34595DT     BB224871  49.561  91.124  44.162
34595DT     BB324872  49.412  91.240  44.077
34595DT     SC124873  49.283  91.255  44.305
34595DT     SC224874  49.100  91.141  44.292
34595DT     SC324875  49.173  91.357  44.522
34596DC     BB124876  49.542  91.195  43.853
34596DC     BB224877  49.209  91.069  43.797
34596DC     BB324878  49.083  91.224  43.743
34596DC     SC124879  49.075  91.314  43.990
34596DC     SC224880  48.879  91.280  44.071
34596DC     SC324881  49.106  91.474  44.197
34597DT     BB124882  49.086  91.104  43.510
34597DT     BB224883  48.739  91.117  43.608
34597DT     BB324884  48.659  91.303  43.563
34597DT     SC124885  48.785  91.414  43.765
34597DT     SC224886  48.642  91.471  43.915
34597DT     SC324887  48.950  91.569  43.900
34598DG     BB124888  48.445  90.997  43.401
34598DG     BB224889  48.236  91.226  43.588
34598DG     BB324890  48.212  91.395  43.487
34598DG     SC124891  48.458  91.532  43.608
34598DG     SC224892  48.455  91.768  43.790
34598DG     SC324893  48.731  91.704  43.705
34598DG     SC424894  48.600  91.512  43.537
34599DT     BB124895  48.025  91.427  43.451
34599DT     BB224896  47.947  91.706  43.666
34599DT     BB324897  47.968  91.883  43.562
34599DT     SC124898  48.230  91.868  43.572
34599DT     SC224899  48.305  92.021  43.703
34599DT     SC324900  48.481  91.847  43.493
34600DT     BB124901  47.710  91.886  43.589
34600DT     BB224902  47.823  92.201  43.723
34600DT     BB324903  47.862  92.334  43.569
34600DT     SC124904  48.085  92.209  43.509
34600DT     SC224905  48.253  92.333  43.560
34600DT     SC324906  48.262  92.070  43.371
34601DT     BB124907  47.640  92.470  43.636
34601DT     BB224908  47.899  92.720  43.633
34601DT     BB324909  47.927  92.791  43.441
34601DT     SC124910  48.052  92.572  43.369
34601DT     SC224911  48.260  92.616  43.336
34601DT     SC324912  48.105  92.346  43.243
34602DA     BB124913  47.859  93.147  43.656
34602DA     BB224914  48.151  93.206  43.442
34602DA     BB324915  48.089  93.234  43.239
34602DA     SC124916  48.110  92.932  43.165
34602DA     SC224917  48.255  92.786  43.025
34602DA     SC324918  48.061  92.620  43.032
34602DA     SC424919  47.978  92.843  43.181
34603DC     BB124920  48.099  93.430  43.116
34603DC     BB224921  48.376  93.334  42.906
34603DC     BB324922  48.312  93.305  42.712
34603DC     SC124923  48.200  93.076  42.776
34603DC     SC224924  48.311  92.915  42.685
34603DC     SC324925  48.015  92.892  42.815
34604DA     BB124926  48.616  93.589  42.651
34604DA     BB224927  48.678  93.315  42.416
34604DA     BB324928  48.547  93.330  42.248
34604DA     SC124929  48.325  93.154  42.376
34604DA     SC224930  48.225  92.928  42.341
34604DA     SC324931  48.024  93.018  42.473
34604DA     SC424932  48.209  93.229  42.458
34605DA     BB124933  48.823  93.324  42.067
34605DA     BB224934  48.703  93.009  41.924
34605DA     BB324935  48.557  93.047  41.773
34605DA     SC124936  48.316  93.035  41.969
34605DA     SC224937  48.123  92.885  42.016
34605DA     SC324938  48.018  93.088  42.131
34605DA     SC424939  48.267  93.174  42.035
34606DC     BB124940  48.601  92.999  41.580
34606DC     BB224941  48.395  92.703  41.564
34606DC     BB324942  48.226  92.740  41.451
34606DC     SC124943  48.119  92.881  41.645
34606DC     SC224944  47.951  92.773  41.726
34606DC     SC324945  48.019  93.086  41.776
34607DT     BB124946  48.331  92.581  41.263
34607DT     BB224947  48.013  92.432  41.345
34607DT     BB324948  47.862  92.521  41.234
34607DT     SC124949  47.870  92.737  41.384
34607DT     SC224950  47.690  92.748  41.502
34607DT     SC324951  47.903  92.988  41.456
34608DT     BB124952  47.847  92.293  41.098
34608DT     BB224953  47.515  92.345  41.230
34608DT     BB324954  47.409  92.471  41.105
34608DT     SC124955  47.543  92.680  41.189
34608DT     SC224956  47.413  92.806  41.305
34608DT     SC324957  47.702  92.891  41.186
34609DA     BB124958  47.175  92.129  41.174
34609DA     BB224959  46.964  92.424  41.228
34609DA     BB324960  46.917  92.516  41.041
34609DA     SC124961  47.163  92.707  41.046
34609DA     SC224962  47.207  92.951  41.074
34609DA     SC324963  47.433  92.902  40.962
34609DA     SC424964  47.298  92.657  40.974
34610DT     BB124965  46.725  92.514  40.978
34610DT     BB224966  46.654  92.862  41.041
34610DT     BB324967  46.653  92.968  40.863
34610DT     SC124968  46.915  92.960  40.847
34610DT     SC224969  46.994  93.157  40.878
34610DT     SC324970  47.156  92.904  40.757
34611DC     BB124971  46.372  92.996  40.853
34611DC     BB224972  46.493  93.336  40.833
34611DC     BB324973  46.519  93.390  40.634
34611DC     SC124974  46.737  93.245  40.615
34611DC     SC224975  46.907  93.375  40.596
34611DC     SC324976  46.903  93.056  40.536
34612DC     BB124977  46.291  93.557  40.622
34612DC     BB224978  46.562  93.774  40.523
34612DC     BB324979  46.585  93.770  40.317
34612DC     SC124980  46.695  93.532  40.326
34612DC     SC224981  46.903  93.548  40.275
34612DC     SC324982  46.731  93.274  40.288
34613DT     BB124983  46.478  94.025  40.285
34613DT     BB224984  46.806  94.046  40.136
34613DT     BB324985  46.796  93.997  39.935
34613DT     SC124986  46.769  93.742  39.991
34613DT     SC224987  46.947  93.637  39.932
34613DT     SC324988  46.663  93.501  40.006
34614DT     BB124989  46.836  94.259  39.866
34614DT     BB224990  47.105  94.080  39.705
34614DT     BB324991  47.045  94.016  39.518
34614DT     SC124992  46.898  93.825  39.621
34614DT     SC224993  46.986  93.635  39.578
34614DT     SC324994  46.685  93.683  39.686
34615DT     BB124995  47.212  94.199  39.421
34615DT     BB224996  47.325  93.886  39.281
34615DT     BB324997  47.218  93.842  39.110
34615DT     SC124998  47.006  93.775  39.250
34615DT     SC224999  46.975  93.563  39.235
34615DT     SC325000  46.761  93.779  39.346
34616DT     BB125001  47.446  93.891  38.990
34616DT     BB225002  47.357  93.555  38.891
34616DT     BB325003  47.223  93.562  38.734
34616DT     SC125004  47.027  93.634  38.893
34616DT     SC225005  46.886  93.472  38.910
34616DT     SC325006  46.835  93.779  39.000
34617DA     BB125007  47.538  93.297  38.652
34617DA     BB225008  47.223  93.131  38.564
34617DA     BB325009  47.137  93.223  38.391
34617DA     SC125010  46.970  93.429  38.552
34617DA     SC225011  46.730  93.472  38.604
34617DA     SC325012  46.805  93.711  38.660
34617DA     SC425013  47.036  93.573  38.581
34618DC     BB125014  47.130  93.112  38.232
34618DC     BB225015  46.773  93.061  38.220
34618DC     BB325016  46.689  93.187  38.078
34618DC     SC125017  46.716  93.395  38.236
34618DC     SC225018  46.523  93.461  38.302
34618DC     SC325019  46.798  93.629  38.325
34619DC     BB125020  46.647  92.984  37.889
34619DC     BB225021  46.322  93.139  37.917
34619DC     BB325022  46.305  93.293  37.780
34619DC     SC125023  46.460  93.448  37.925
34619DC     SC225024  46.343  93.608  38.009
34619DC     SC325025  46.667  93.596  37.996
34620DA     BB125026  45.967  93.070  37.653
34620DA     BB225027  45.855  93.418  37.681
34620DA     BB325028  45.916  93.529  37.510
34620DA     SC125029  46.186  93.619  37.636
34620DA     SC225030  46.290  93.830  37.720
34620DA     SC325031  46.513  93.709  37.689
34620DA     SC425032  46.315  93.527  37.608
34621DT     BB125033  45.785  93.627  37.321
34621DT     BB225034  45.807  93.969  37.432
34621DT     BB325035  45.920  94.080  37.299
34621DT     SC125036  46.143  93.972  37.384
34621DT     SC225037  46.258  94.120  37.490
34621DT     SC325038  46.367  93.833  37.385
34622DT     BB125039  45.707  94.229  37.163
34622DT     BB225040  45.923  94.488  37.293
34622DT     BB325041  46.059  94.546  37.149
34622DT     SC125042  46.199  94.326  37.181
34622DT     SC225043  46.388  94.374  37.272
34622DT     SC325044  46.313  94.094  37.127
34623DT     BB125045  45.936  94.792  37.099
34623DT     BB225046  46.270  94.878  37.204
34623DT     BB325047  46.395  94.889  37.039
34623DT     SC125048  46.402  94.628  37.017
34623DT     SC225049  46.599  94.557  37.069
34623DT     SC325050  46.369  94.386  36.916
34624DA     BB125051  46.433  95.237  37.267
34624DA     BB225052  46.768  95.101  37.210
34624DA     BB325053  46.828  95.133  37.007
34624DA     SC125054  46.713  94.862  36.905
34624DA     SC225055  46.801  94.644  36.821
34624DA     SC325056  46.567  94.613  36.720
34624DA     SC425057  46.562  94.861  36.849
34625DA     BB125058  47.068  95.246  37.193
34625DA     BB225059  47.277  94.993  37.029
34625DA     BB325060  47.312  95.047  36.825
34625DA     SC125061  47.064  94.895  36.717
34625DA     SC225062  47.018  94.692  36.579
34625DA     SC325063  46.787  94.797  36.539
34625DA     SC425064  46.926  94.977  36.703
34626DC     BB125065  47.484  95.072  36.810
34626DC     BB225066  47.556  94.771  36.624
34626DC     BB325067  47.558  94.813  36.421
34626DC     SC125068  47.297  94.830  36.413
34626DC     SC225069  47.218  94.663  36.303
34626DC     SC325070  47.055  94.931  36.383
34627DG     BB125071  47.901  94.632  36.550
34627DG     BB225072  47.757  94.465  36.263
34627DG     BB325073  47.786  94.574  36.099
34627DG     SC125074  47.525  94.731  36.129
34627DG     SC225075  47.289  94.717  35.946
34627DG     SC325076  47.257  94.936  36.142
34627DG     SC425077  47.525  94.866  36.216
34628DT     BB125078  47.897  94.485  35.952
34628DT     BB225079  47.649  94.415  35.699
34628DT     BB325080  47.651  94.563  35.555
34628DT     SC125081  47.529  94.731  35.715
34628DT     SC225082  47.329  94.766  35.644
34628DT     SC325083  47.485  94.943  35.866
34629DT     BB125084  47.765  94.389  35.383
34629DT     BB225085  47.470  94.506  35.211
34629DT     BB325086  47.512  94.684  35.112
34629DT     SC125087  47.509  94.818  35.338
34629DT     SC225088  47.337  94.947  35.342
34629DT     SC325089  47.593  94.966  35.539
34630DC     BB125090  47.511  94.560  34.868
34630DC     BB225091  47.269  94.826  34.833
34630DC     BB325092  47.364  95.000  34.775
34630DC     SC125093  47.463  95.037  35.015
34630DC     SC225094  47.368  95.207  35.106
34630DC     SC325095  47.639  95.063  35.210
34631DC     BB125096  47.273  94.992  34.509
34631DC     BB225097  47.165  95.316  34.625
34631DC     BB325098  47.312  95.457  34.587
34631DC     SC125099  47.461  95.367  34.783
34631DC     SC225100  47.467  95.512  34.941
34631DC     SC325101  47.666  95.259  34.909
34632DT     BB125102  47.174  95.577  34.375
34632DT     BB225103  47.236  95.849  34.604
34632DT     BB325104  47.417  95.939  34.559
34632DT     SC125105  47.551  95.739  34.663
34632DT     SC225106  47.647  95.803  34.844
34632DT     SC325107  47.712  95.531  34.681
34633DG     BB125108  47.147  96.245  34.518
34633DG     BB225109  47.416  96.338  34.742
34633DG     BB325110  47.575  96.394  34.637
34633DG     SC125111  47.695  96.113  34.622
34633DG     SC225112  47.948  96.023  34.753
34633DG     SC325113  47.845  95.815  34.569
34633DG     SC425114  47.653  96.017  34.502
34634DA     BB125115  47.588  96.696  34.814
34634DA     BB225116  47.921  96.611  34.942
34634DA     BB325117  48.070  96.651  34.794
34634DA     SC125118  48.058  96.367  34.669
34634DA     SC225119  48.204  96.165  34.656
34634DA     SC325120  48.059  96.099  34.455
34634DA     SC425121  47.958  96.344  34.546
34635DA     BB125122  48.205  96.832  35.034
34635DA     BB225123  48.492  96.604  35.018
34635DA     BB325124  48.615  96.652  34.850
34635DA     SC125125  48.467  96.459  34.656
34635DA     SC225126  48.513  96.244  34.538
34635DA     SC325127  48.321  96.312  34.382
34635DA     SC425128  48.345  96.519  34.570
34636DA     BB125129  48.846  96.667  35.081
34636DA     BB225130  49.009  96.388  34.909
34636DA     BB325131  49.111  96.457  34.735
34636DA     SC125132  48.868  96.415  34.546
34636DA     SC225133  48.803  96.264  34.359
34636DA     SC325134  48.632  96.445  34.299
34636DA     SC425135  48.769  96.540  34.524
34637DT     BB125136  49.308  96.440  34.737
34637DT     BB225137  49.324  96.157  34.514
34637DT     BB325138  49.387  96.218  34.326
34637DT     SC125139  49.153  96.325  34.274
34637DT     SC225140  49.054  96.209  34.122
34637DT     SC325141  48.970  96.507  34.220
34638DA     BB125142  49.602  95.887  34.466
34638DA     BB225143  49.484  95.815  34.127
34638DA     BB325144  49.589  95.934  33.984
34638DA     SC125145  49.385  96.169  33.993
34638DA     SC225146  49.214  96.270  33.842
34638DA     SC325147  49.236  96.478  33.992
34638DA     SC425148  49.414  96.288  34.097
34639DT     BB125149  49.675  95.822  33.883
34639DT     BB225150  49.467  95.858  33.590
34639DT     BB325151  49.550  95.997  33.461
34639DT     SC125152  49.475  96.196  33.615
34639DT     SC225153  49.319  96.307  33.518
34639DT     SC325154  49.491  96.405  33.775
34640DG     BB125155  49.457  95.633  33.299
34640DG     BB225156  49.319  95.909  33.110
34640DG     BB325157  49.465  96.007  33.017
34640DG     SC125158  49.517  96.200  33.248
34640DG     SC225159  49.466  96.495  33.246
34640DG     SC325160  49.613  96.415  33.489
34640DG     SC425161  49.621  96.159  33.362
34641DT     BB125162  49.443  96.007  32.820
34641DT     BB225163  49.358  96.350  32.746
34641DT     BB325164  49.529  96.455  32.694
34641DT     SC125165  49.609  96.463  32.944
34641DT     SC225166  49.596  96.665  33.016
34641DT     SC325167  49.758  96.423  33.158
34642DA     BB125168  49.240  96.524  32.396
34642DA     BB225169  49.392  96.846  32.483
34642DA     BB325170  49.592  96.856  32.409
34642DA     SC125171  49.719  96.740  32.668
34642DA     SC225172  49.861  96.821  32.856
34642DA     SC325173  49.916  96.573  32.895
34642DA     SC425174  49.742  96.581  32.675
34643DA     BB125175  49.501  97.139  32.255
34643DA     BB225176  49.761  97.312  32.446
34643DA     BB325177  49.953  97.274  32.362
34643DA     SC125178  50.008  97.023  32.538
34643DA     SC225179  50.158  96.959  32.726
34643DA     SC325180  50.108  96.717  32.657
34643DA     SC425181  49.965  96.880  32.479
34644DC     BB125182  50.092  97.424  32.249
34644DC     BB225183  50.335  97.463  32.513
34644DC     BB325184  50.514  97.376  32.457
34644DC     SC125185  50.419  97.135  32.496
34644DC     SC225186  50.514  97.047  32.667
34644DC     SC325187  50.339  96.889  32.446
34645DA     BB125188  50.644  97.768  32.546
34645DA     BB225189  50.866  97.538  32.727
34645DA     BB325190  51.012  97.456  32.594
34645DA     SC125191  50.839  97.209  32.518
34645DA     SC225192  50.841  96.963  32.557
34645DA     SC325193  50.686  96.950  32.353
34645DA     SC425194  50.744  97.222  32.388
34646DT     BB125195  51.234  97.499  32.603
34646DT     BB225196  51.324  97.183  32.753
34646DT     BB325197  51.430  97.068  32.617
34646DT     SC125198  51.212  97.013  32.482
34646DT     SC225199  51.163  96.805  32.508
34646DT     SC325200  51.039  97.003  32.283
34647DT     BB125201  51.666  97.106  32.755
34647DT     BB225202  51.619  96.749  32.752
34647DT     BB325203  51.707  96.667  32.583
34647DT     SC125204  51.513  96.756  32.430
34647DT     SC225205  51.396  96.591  32.359
34647DT     SC325206  51.388  96.893  32.241
34648DG     BB125207  51.852  96.494  32.920
34648DG     BB225208  51.722  96.249  32.688
34648DG     BB325209  51.851  96.223  32.539
34648DG     SC125210  51.730  96.442  32.363
34648DG     SC225211  51.588  96.401  32.103
34648DG     SC325212  51.636  96.689  32.153
34648DG     SC425213  51.784  96.592  32.379
34649DT     BB125214  51.909  96.036  32.529
34649DT     BB225215  51.736  95.916  32.236
34649DT     BB325216  51.860  95.927  32.071
34649DT     SC125217  51.832  96.188  32.057
34649DT     SC225218  51.718  96.238  31.883
34649DT     SC325219  51.893  96.445  32.061
34650DA     BB125220  51.663  95.556  32.108
34650DA     BB225221  51.634  95.672  31.761
34650DA     BB325222  51.825  95.669  31.666
34650DA     SC125223  51.897  95.961  31.744
34650DA     SC225224  51.925  96.181  31.631
34650DA     SC325225  52.059  96.248  31.839
34650DA     SC425226  51.978  95.983  31.881
34651DT     BB125227  51.834  95.545  31.527
34651DT     BB225228  51.843  95.779  31.252
34651DT     BB325229  52.038  95.806  31.189
34651DT     SC125230  52.095  95.953  31.398
34651DT     SC225231  52.125  96.157  31.336
34651DT     SC325232  52.208  96.032  31.623
34652DG     BB125233  51.831  95.675  30.862
34652DG     BB225234  52.022  95.972  30.785
34652DG     BB325235  52.213  95.924  30.759
34652DG     SC125236  52.288  95.961  31.054
34652DG     SC225237  52.468  96.173  31.164
34652DG     SC325238  52.400  95.973  31.372
34652DG     SC425239  52.274  95.837  31.154
34653DA     BB125240  52.214  96.084  30.447
34653DA     BB225241  52.479  96.312  30.559
34653DA     BB325242  52.668  96.214  30.553
34653DA     SC125243  52.651  96.109  30.845
34653DA     SC225244  52.763  96.153  31.064
34653DA     SC325245  52.675  95.922  31.132
34653DA     SC425246  52.589  95.963  30.868
34654DT     BB125247  52.820  96.272  30.417
34654DT     BB225248  53.032  96.437  30.658
34654DT     BB325249  53.200  96.322  30.694
34654DT     SC125250  53.063  96.151  30.838
34654DT     SC225251  53.121  96.169  31.044
34654DT     SC325252  52.951  95.925  30.915
34655DA     BB125253  53.332  96.708  30.599
34655DA     BB225254  53.502  96.604  30.907
34655DA     BB325255  53.652  96.459  30.863
34655DA     SC125256  53.462  96.215  30.900
34655DA     SC225257  53.431  96.028  31.062
34655DA     SC325258  53.302  95.913  30.872
34655DA     SC425259  53.386  96.159  30.769
34656DT     BB125260  53.836  96.514  30.897
34656DT     BB225261  53.888  96.316  31.195
34656DT     BB325262  54.001  96.149  31.150
34656DT     SC125263  53.797  96.033  31.033
34656DT     SC225264  53.732  95.866  31.152
34656DT     SC325265  53.648  95.924  30.844
34657DA     BB125266  54.170  96.345  31.481
34657DA     BB225267  54.145  95.988  31.560
34657DA     BB325268  54.288  95.877  31.446
34657DA     SC125269  54.095  95.825  31.208
34657DA     SC225270  53.974  95.632  31.107
34657DA     SC325271  53.959  95.777  30.896
34657DA     SC425272  54.098  95.930  31.086
34658DA     BB125273  54.369  95.767  31.747
34658DA     BB225274  54.291  95.430  31.626
34658DA     BB325275  54.445  95.361  31.496
34658DA     SC125276  54.310  95.472  31.238
34658DA     SC225277  54.198  95.381  31.035
34658DA     SC325278  54.248  95.609  30.929
34658DA     SC425279  54.352  95.619  31.190
34659DT     BB125280  54.577  95.199  31.547
34659DT     BB225281  54.438  94.953  31.324
34659DT     BB325282  54.566  94.920  31.165
34659DT     SC125283  54.500  95.149  31.054
34659DT     SC225284  54.387  95.112  30.875
34659DT     SC325285  54.520  95.394  30.960
34660DA     BB125286  54.524  94.525  31.310
34660DA     BB225287  54.469  94.512  30.948
34660DA     BB325288  54.655  94.522  30.844
34660DA     SC125289  54.654  94.832  30.820
34660DA     SC225290  54.628  95.003  30.641
34660DA     SC325291  54.743  95.163  30.806
34660DA     SC425292  54.728  94.915  30.936
34661DC     BB125293  54.752  94.353  30.721
34661DC     BB225294  54.673  94.492  30.398
34661DC     BB325295  54.846  94.555  30.303
34661DC     SC125296  54.864  94.765  30.459
34661DC     SC225297  54.824  94.943  30.344
34661DC     SC325298  54.957  94.934  30.639
34662DC     BB125299  54.840  94.346  30.124
34662DC     BB225300  54.836  94.642  29.917
34662DC     BB325301  55.030  94.702  29.875
34662DC     SC125302  55.062  94.795  30.118
34662DC     SC225303  55.072  95.010  30.111
34662DC     SC325304  55.156  94.824  30.363
34663DA     BB125305  54.817  94.677  29.515
34663DA     BB225306  54.985  95.003  29.526
34663DA     BB325307  55.195  94.980  29.497
34663DA     SC125308  55.258  94.950  29.800
34663DA     SC225309  55.371  95.082  29.979
34663DA     SC325310  55.391  94.858  30.104
34663DA     SC425311  55.262  94.801  29.861
34664DT     BB125312  55.264  95.059  29.336
34664DT     BB225313  55.430  95.339  29.490
34664DT     BB325314  55.633  95.303  29.503
34664DT     SC125315  55.599  95.134  29.701
34664DT     SC225316  55.677  95.220  29.882
34664DT     SC325317  55.598  94.909  29.838
34665DT     BB125318  55.679  95.485  29.307
34665DT     BB225319  55.879  95.599  29.584
34665DT     BB325320  56.063  95.505  29.582
34665DT     SC125321  55.958  95.281  29.670
34665DT     SC225322  56.024  95.245  29.871
34665DT     SC325323  55.882  95.029  29.677
34666DC     BB125324  56.202  95.730  29.493
34666DC     BB225325  56.370  95.639  29.799
34666DC     BB325326  56.522  95.505  29.759
34666DC     SC125327  56.351  95.310  29.721
34666DC     SC225328  56.368  95.168  29.882
34666DC     SC325329  56.215  95.118  29.601
34667DT     BB125330  56.737  95.687  29.793
34667DT     BB225331  56.809  95.423  30.027
34667DT     BB325332  56.928  95.279  29.938
34667DT     SC125333  56.726  95.186  29.800
34667DT     SC225334  56.673  94.991  29.873
34667DT     SC325335  56.575  95.122  29.593
34668DT     BB125336  57.160  95.352  30.078
34668DT     BB225337  57.104  95.006  30.165
34668DT     BB325338  57.203  94.882  30.032
34668DT     SC125339  57.025  94.929  29.845
34668DT     SC225340  56.910  94.750  29.811
34668DT     SC325341  56.920  95.010  29.618
34669DA     BB125342  57.302  94.775  30.423
34669DA     BB225343  57.185  94.475  30.248
34669DA     BB325344  57.333  94.408  30.109
34669DA     SC125345  57.221  94.576  29.872
34669DA     SC225346  57.104  94.535  29.655
34669DA     SC325347  57.187  94.768  29.589
34669DA     SC425348  57.283  94.723  29.849
34670DA     BB125349  57.222  94.174  30.303
34670DA     BB225350  57.107  94.018  29.991
34670DA     BB325351  57.274  93.960  29.872
34670DA     SC125352  57.289  94.230  29.718
34670DA     SC225353  57.245  94.313  29.486
34670DA     SC325354  57.394  94.511  29.551
34670DA     SC425355  57.385  94.344  29.776
34671DT     BB125356  57.263  93.788  29.860
34671DT     BB225357  57.161  93.771  29.514
34671DT     BB325358  57.326  93.738  29.393
34671DT     SC125359  57.406  93.986  29.422
34671DT     SC225360  57.382  94.091  29.236
34671DT     SC325361  57.556  94.192  29.490
34672DT     BB125362  57.203  93.511  29.364
34672DT     BB225363  57.251  93.637  29.030
34672DT     BB325364  57.445  93.599  28.967
34672DT     SC125365  57.539  93.791  29.120
34672DT     SC225366  57.609  93.952  28.997
34672DT     SC325367  57.675  93.911  29.311
34673DC     BB125368  57.348  93.409  28.801
34673DC     BB225369  57.548  93.618  28.586
34673DC     BB325370  57.746  93.556  28.591
34673DC     SC125371  57.781  93.660  28.829
34673DC     SC225372  57.912  93.831  28.814
34673DC     SC325373  57.829  93.678  29.088
34674DT     BB125374  57.748  93.424  28.337
34674DT     BB225375  58.035  93.643  28.314
34674DT     BB325376  58.205  93.543  28.377
34674DT     SC125377  58.132  93.561  28.629
34674DT     SC225378  58.263  93.698  28.731
34674DT     SC325379  58.057  93.490  28.872
34675DG     BB125380  58.344  93.593  27.984
34675DG     BB225381  58.601  93.700  28.214
34675DG     BB325382  58.715  93.546  28.266
34675DG     SC125383  58.543  93.467  28.506
34675DG     SC225384  58.625  93.483  28.793
34675DG     SC325385  58.367  93.341  28.765
34675DG     SC425386  58.421  93.366  28.485
34676DT     BB125387  58.995  93.459  28.220
34676DT     BB225388  59.129  93.539  28.545
34676DT     BB325389  59.194  93.367  28.640
34676DT     SC125390  58.947  93.293  28.691
34676DT     SC225391  58.911  93.306  28.902
34676DT     SC325392  58.725  93.150  28.687
34677DT     BB125393  59.501  93.375  28.614
34677DT     BB225394  59.448  93.359  28.971
34677DT     BB325395  59.474  93.165  29.037
34677DT     SC125396  59.243  93.091  28.937
34677DT     SC225397  59.106  93.049  29.097
34677DT     SC325398  59.067  92.965  28.786
34678DG     BB125399  59.751  93.380  29.242
34678DG     BB225400  59.527  93.207  29.467
34678DG     BB325401  59.590  93.020  29.495
34678DG     SC125402  59.431  92.905  29.260
34678DG     SC225403  59.202  92.715  29.279
34678DG     SC325404  59.287  92.749  28.998
34678DG     SC425405  59.498  92.903  29.115
34679DT     BB125406  59.615  92.999  29.680
34679DT     BB225407  59.322  92.807  29.769
34679DT     BB325408  59.370  92.606  29.780
34679DT     SC125409  59.380  92.586  29.519
34679DT     SC225410  59.215  92.467  29.450
34679DT     SC325411  59.477  92.547  29.276
34680DA     BB125412  59.100  92.824  30.038
34680DA     BB225413  58.953  92.502  29.941
34680DA     BB325414  59.076  92.341  30.008
34680DA     SC125415  59.245  92.329  29.747
34680DA     SC225416  59.274  92.175  29.554
34680DA     SC325417  59.498  92.295  29.518
34680DA     SC425418  59.380  92.415  29.742
34681DA     BB125419  58.721  92.352  30.009
34681DA     BB225420  58.768  92.020  29.860
34681DA     BB325421  58.901  91.903  29.979
34681DA     SC125422  59.156  91.994  29.826
34681DA     SC225423  59.323  91.894  29.670
34681DA     SC325424  59.474  92.090  29.739
34681DA     SC425425  59.235  92.122  29.882
34682DC     BB125426  58.793  91.794  30.004
34682DC     BB225427  58.961  91.521  29.838
34682DC     BB325428  59.111  91.446  29.960
34682DC     SC125429  59.265  91.653  29.910
34682DC     SC225430  59.432  91.591  29.790
34682DC     SC325431  59.407  91.872  29.949
34683DA     BB125432  58.880  91.115  29.838
34683DA     BB225433  59.233  91.021  29.816
34683DA     BB325434  59.317  91.001  30.011
34683DA     SC125435  59.410  91.297  30.028
34683DA     SC225436  59.625  91.424  30.028
34683DA     SC325437  59.489  91.614  30.134
34683DA     SC425438  59.309  91.403  30.094
34684DT     BB125439  59.379  90.810  30.108
34684DT     BB225440  59.736  90.863  30.099
34684DT     BB325441  59.806  90.903  30.289
34684DT     SC125442  59.707  91.146  30.283
34684DT     SC225443  59.868  91.288  30.273
34684DT     SC325444  59.559  91.355  30.345
34685DT     BB125445  59.927  90.646  30.354
34685DT     BB225446  60.196  90.879  30.412
34685DT     BB325447  60.198  90.937  30.611
34685DT     SC125448  59.989  91.091  30.576
34685DT     SC225449  60.048  91.297  30.593
34685DT     SC325450  59.744  91.187  30.600
34686DA     BB125451  60.594  90.791  30.578
34686DA     BB225452  60.616  91.124  30.731
34686DA     BB325453  60.567  91.113  30.939
34686DA     SC125454  60.263  91.167  30.895
34686DA     SC225455  60.100  91.350  30.940
34686DA     SC325456  59.921  91.168  30.915
34686DA     SC425457  60.167  91.039  30.877
34687DG     BB125458  60.859  91.213  31.020
34687DG     BB225459  60.681  91.504  31.140
34687DG     BB325460  60.624  91.476  31.328
34687DG     SC125461  60.355  91.351  31.255
34687DG     SC225462  60.086  91.471  31.306
34687DG     SC325463  60.061  91.192  31.210
34687DG     SC425464  60.347  91.193  31.232
34688DT     BB125465  60.699  91.605  31.513
34688DT     BB225466  60.409  91.813  31.566
34688DT     BB325467  60.310  91.754  31.738
34688DT     SC125468  60.213  91.541  31.620
34688DT     SC225469  60.001  91.564  31.595
34688DT     SC325470  60.167  91.288  31.565
34689DG     BB125471  60.409  92.147  31.783
34689DG     BB225472  60.055  92.093  31.833
34689DG     BB325473  60.023  92.018  32.015
34689DG     SC125474  60.048  91.726  31.927
34689DG     SC225475  59.828  91.524  31.924
34689DG     SC325476  60.089  91.396  31.869
34689DG     SC425477  60.192  91.657  31.927
34690DC     BB125478  59.903  92.132  32.149
34690DC     BB225479  59.594  91.946  32.141
34690DC     BB325480  59.577  91.829  32.311
34690DC     SC125481  59.755  91.658  32.220
34690DC     SC225482  59.658  91.472  32.172
34690DC     SC325483  59.977  91.517  32.202
34691DA     BB125484  59.227  92.051  32.258
34691DA     BB225485  59.133  91.701  32.315
34691DA     BB325486  59.165  91.648  32.519
34691DA     SC125487  59.456  91.549  32.473
34691DA     SC225488  59.580  91.333  32.473
34691DA     SC325489  59.790  91.477  32.505
34691DA     SC425490  59.575  91.656  32.494
34692DA     BB125491  58.856  91.559  32.461
34692DA     BB225492  58.964  91.219  32.548
34692DA     BB325493  59.001  91.204  32.758
34692DA     SC125494  59.302  91.280  32.734
34692DA     SC225495  59.523  91.168  32.760
34692DA     SC325496  59.617  91.406  32.787
34692DA     SC425497  59.341  91.435  32.749
34693DA     BB125498  58.795  90.955  32.708
34693DA     BB225499  59.063  90.738  32.834
34693DA     BB325500  59.084  90.762  33.044
34693DA     SC125501  59.296  90.988  33.021
34693DA     SC225502  59.540  91.019  33.066
34693DA     SC325503  59.487  91.270  33.070
34693DA     SC425504  59.243  91.140  33.021
34694DT     BB125505  59.040  90.606  33.152
34694DT     BB225506  59.376  90.515  33.244
34694DT     BB325507  59.415  90.575  33.438
34694DT     SC125508  59.437  90.826  33.365
34694DT     SC225509  59.642  90.889  33.382
34694DT     SC325510  59.386  91.084  33.345
34695DC     BB125511  59.407  90.317  33.518
34695DC     BB225512  59.730  90.434  33.626
34695DC     BB325513  59.715  90.523  33.812
34695DC     SC125514  59.603  90.737  33.709
34695DC     SC225515  59.739  90.902  33.723
34695DC     SC325516  59.422  90.922  33.658
34696DT     BB125517  59.842  90.310  33.920
34696DT     BB225518  60.042  90.595  34.017
34696DT     BB325519  59.967  90.678  34.191
34696DT     SC125520  59.765  90.785  34.062
34696DT     SC225521  59.788  90.999  34.058
34696DT     SC325522  59.517  90.836  33.987
34697DT     BB125523  60.180  90.581  34.324
34697DT     BB225524  60.185  90.936  34.390
34697DT     BB325525  60.064  90.979  34.552
34697DT     SC125526  59.847  90.946  34.409
34697DT     SC225527  59.751  91.136  34.380
34697DT     SC325528  59.618  90.846  34.325
34698DA     BB125529  60.438  91.155  34.625
34698DA     BB225530  60.180  91.407  34.693
34698DA     BB325531  60.078  91.361  34.875
34698DA     SC125532  59.858  91.191  34.736
34698DA     SC225533  59.614  91.208  34.688
34698DA     SC325534  59.622  90.953  34.660
34698DA     SC425535  59.883  91.032  34.724
34699DA     BB125536  60.164  91.671  34.949
34699DA     BB225537  59.806  91.744  34.983
34699DA     BB325538  59.731  91.663  35.165
34699DA     SC125539  59.651  91.390  35.039
34699DA     SC225540  59.441  91.267  34.983
34699DA     SC325541  59.589  91.057  34.981
34699DA     SC425542  59.759  91.271  35.044
34700DC     BB125543  59.666  91.787  35.321
34700DC     BB225544  59.312  91.729  35.284
34700DC     BB325545  59.244  91.607  35.437
34700DC     SC125546  59.354  91.395  35.327
34700DC     SC225547  59.200  91.265  35.254
34700DC     SC325548  59.512  91.186  35.295
34701DT     BB125549  59.115  91.813  35.573
34701DT     BB225550  58.855  91.568  35.520
34701DT     BB325551  58.851  91.435  35.679
34701DT     SC125552  59.068  91.314  35.594
34701DT     SC225553  59.018  91.118  35.524
34701DT     SC325554  59.317  91.226  35.589
34702DA     BB125555  58.455  91.574  35.654
34702DA     BB225556  58.442  91.208  35.668
34702DA     BB325557  58.479  91.140  35.867
34702DA     SC125558  58.787  91.115  35.826
34702DA     SC225559  58.957  90.933  35.810
34702DA     SC325560  59.127  91.115  35.868
34702DA     SC425561  58.877  91.242  35.865
34703DT     BB125562  58.329  91.044  35.981
34703DT     BB225563  58.460  90.710  35.950
34703DT     BB325564  58.543  90.649  36.129
34703DT     SC125565  58.753  90.802  36.093
34703DT     SC225566  58.926  90.679  36.057
34703DT     SC325567  58.929  90.995  36.132
34704DA     BB125568  58.274  90.350  36.012
34704DA     BB225569  58.593  90.189  36.094
34704DA     BB325570  58.622  90.186  36.305
34704DA     SC125571  58.772  90.458  36.313
34704DA     SC225572  59.004  90.541  36.355
34704DA     SC325573  58.893  90.768  36.400
34704DA     SC425574  58.684  90.591  36.338
34705DA     BB125575  58.663  89.868  36.237
34705DA     BB225576  59.004  89.906  36.366
34705DA     BB325577  59.002  89.919  36.579
34705DA     SC125578  58.979  90.229  36.585
34705DA     SC225579  59.121  90.424  36.648
34705DA     SC325580  58.900  90.553  36.664
34705DA     SC425581  58.831  90.292  36.591
34706DG     BB125582  59.180  89.668  36.546
34706DG     BB225583  59.429  89.884  36.694
34706DG     BB325584  59.404  89.891  36.891
34706DG     SC125585  59.213  90.130  36.883
34706DG     SC225586  59.268  90.403  36.990
34706DG     SC325587  58.985  90.377  36.910
34706DG     SC425588  59.056  90.103  36.867
34707DA     BB125589  59.741  89.815  36.896
34707DA     BB225590  59.805  90.125  37.081
34707DA     BB325591  59.740  90.106  37.284
34707DA     SC125592  59.454  90.213  37.228
34707DA     SC225593  59.319  90.416  37.281
34707DA     SC325594  59.115  90.269  37.229
34707DA     SC425595  59.340  90.105  37.193
34708DT     BB125596  59.881  90.113  37.414
34708DT     BB225597  59.809  90.443  37.539
34708DT     BB325598  59.708  90.430  37.720
34708DT     SC125599  59.486  90.360  37.599
34708DT     SC225600  59.343  90.519  37.615
34708DT     SC325601  59.279  90.214  37.527
34709DA     BB125602  60.034  90.690  37.765
34709DA     BB225603  59.737  90.855  37.903
34709DA     BB325604  59.679  90.762  38.086
34709DA     SC125605  59.488  90.557  37.951
34709DA     SC225606  59.243  90.514  37.936
34709DA     SC325607  59.309  90.276  37.867
34709DA     SC425608  59.550  90.413  37.911
34710DT     BB125609  59.694  90.875  38.238
34710DT     BB225610  59.341  90.932  38.286
34710DT     BB325611  59.270  90.812  38.439
34710DT     SC125612  59.278  90.599  38.285
34710DT     SC225613  59.077  90.536  38.240
34710DT     SC325614  59.347  90.362  38.193
34711DC     BB125615  59.248  91.026  38.609
34711DC     BB225616  58.917  90.883  38.605
34711DC     BB325617  58.902  90.737  38.751
34711DC     SC125618  59.044  90.568  38.608
34711DC     SC225619  58.918  90.409  38.539
34711DC     SC325620  59.242  90.409  38.537
34712DA     BB125621  58.579  90.995  38.821
34712DA     BB225622  58.448  90.653  38.823
34712DA     BB325623  58.501  90.554  39.005
34712DA     SC125624  58.767  90.439  38.892
34712DA     SC225625  58.860  90.216  38.829
34712DA     SC325626  59.090  90.327  38.853
34712DA     SC425627  58.901  90.526  38.914
34713DT     BB125628  58.355  90.498  39.154
34713DT     BB225629  58.359  90.144  39.086
34713DT     BB325630  58.453  90.043  39.240
34713DT     SC125631  58.689  90.125  39.160
34713DT     SC225632  58.800  89.957  39.082
34713DT     SC325633  58.923  90.246  39.160
34714DT     BB125634  58.216  89.939  39.342
34714DT     BB225635  58.419  89.648  39.278
34714DT     BB325636  58.531  89.601  39.446
34714DT     SC125637  58.694  89.802  39.402
34714DT     SC225638  58.887  89.726  39.342
34714DT     SC325639  58.823  90.030  39.437
34715DA     BB125640  58.331  89.249  39.342
34715DA     BB225641  58.685  89.166  39.386
34715DA     BB325642  58.735  89.160  39.593
34715DA     SC125643  58.816  89.460  39.607
34715DA     SC225644  59.025  89.594  39.635
34715DA     SC325645  58.868  89.785  39.705
34715DA     SC425646  58.702  89.566  39.649
34716DC     BB125647  58.788  88.983  39.670
34716DC     BB225648  59.141  89.051  39.694
34716DC     BB325649  59.193  89.086  39.892
34716DC     SC125650  59.084  89.325  39.887
34716DC     SC225651  59.238  89.474  39.897
34716DC     SC325652  58.922  89.525  39.944
34717DC     BB125653  59.318  88.852  39.882
34717DC     BB225654  59.573  89.090  39.974
34717DC     BB325655  59.570  89.121  40.179
34717DC     SC125656  59.352  89.266  40.161
34717DC     SC225657  59.400  89.471  40.205
34717DC     SC325658  59.102  89.344  40.193
34718DT     BB125659  59.800  88.990  40.180
34718DT     BB225660  59.873  89.307  40.334
34718DT     BB325661  59.823  89.301  40.535
34718DT     SC125662  59.567  89.317  40.480
34718DT     SC225663  59.491  89.508  40.542
34718DT     SC325664  59.312  89.250  40.463
34719DA     BB125665  60.213  89.449  40.493
34719DA     BB225666  60.033  89.667  40.727
34719DA     BB325667  60.001  89.567  40.912
34719DA     SC125668  59.725  89.450  40.828
34719DA     SC225669  59.485  89.482  40.887
34719DA     SC325670  59.449  89.250  40.784
34719DA     SC425671  59.724  89.303  40.761
34720DT     BB125672  60.095  89.636  41.073
34720DT     BB225673  59.809  89.777  41.242
34720DT     BB325674  59.750  89.652  41.396
34720DT     SC125675  59.644  89.481  41.227
34720DT     SC225676  59.430  89.485  41.246
34720DT     SC325677  59.603  89.258  41.094
34721DA     BB125678  59.798  90.029  41.576
34721DA     BB225679  59.475  89.894  41.685
34721DA     BB325680  59.504  89.738  41.828
34721DA     SC125681  59.513  89.512  41.614
34721DA     SC225682  59.370  89.320  41.542
34721DA     SC325683  59.584  89.228  41.435
34721DA     SC425684  59.657  89.470  41.556
34722DA     BB125685  59.304  89.916  42.023
34722DA     BB225686  59.073  89.631  42.019
34722DA     BB325687  59.143  89.478  42.150
34722DA     SC125688  59.309  89.332  41.931
34722DA     SC225689  59.298  89.117  41.804
34722DA     SC325690  59.548  89.156  41.759
34722DA     SC425691  59.463  89.372  41.915
34723DT     BB125692  59.036  89.428  42.322
34723DT     BB225693  58.899  89.119  42.196
34723DT     BB325694  58.994  88.958  42.285
34723DT     SC125695  59.209  88.995  42.139
34723DT     SC225696  59.229  88.834  41.998
34723DT     SC325697  59.460  89.047  42.075
34724DA     BB125698  58.580  88.905  42.325
34724DA     BB225699  58.722  88.596  42.187
34724DA     BB325700  58.831  88.491  42.338
34724DA     SC125701  59.102  88.630  42.273
34724DA     SC225702  59.322  88.568  42.173
34724DA     SC325703  59.412  88.778  42.292
34724DA     SC425704  59.139  88.763  42.355
34725DT     BB125705  58.755  88.328  42.375
34725DT     BB225706  59.001  88.125  42.207
34725DT     BB325707  59.135  88.049  42.345
34725DT     SC125708  59.254  88.282  42.369
34725DT     SC225709  59.450  88.272  42.282
34725DT     SC325710  59.341  88.506  42.478
34726DC     BB125711  59.019  87.821  42.288
34726DC     BB225712  59.369  87.771  42.215
34726DC     BB325713  59.473  87.731  42.390
34726DC     SC125714  59.460  87.982  42.464
34726DC     SC225715  59.656  88.070  42.455
34726DC     SC325716  59.399  88.196  42.606
34727DC     BB125717  59.495  87.489  42.290
34727DC     BB225718  59.833  87.597  42.353
34727DC     BB325719  59.880  87.572  42.553
34727DC     SC125720  59.734  87.779  42.621
34727DC     SC225721  59.863  87.938  42.688
34727DC     SC325722  59.543  87.922  42.733
34728DT     BB125723  60.040  87.365  42.486
34728DT     BB225724  60.253  87.588  42.673
34728DT     BB325725  60.233  87.553  42.876
34728DT     SC125726  59.999  87.672  42.881
34728DT     SC225727  60.015  87.856  42.990
34728DT     SC325728  59.739  87.707  42.909
34729DT     BB125729  60.479  87.425  42.900
34729DT     BB225730  60.494  87.690  43.144
34729DT     BB325731  60.418  87.624  43.325
34729DT     SC125732  60.172  87.637  43.235
34729DT     SC225733  60.068  87.797  43.334
34729DT     SC325734  59.931  87.560  43.159
34730DT     BB125735  60.667  87.595  43.462
34730DT     BB225736  60.478  87.820  43.672
34730DT     BB325737  60.373  87.712  43.813
34730DT     SC125738  60.198  87.632  43.635
34730DT     SC225739  60.008  87.727  43.673
34730DT     SC325740  60.058  87.473  43.479
34731DT     BB125741  60.536  87.767  44.050
34731DT     BB225742  60.208  87.881  44.148
34731DT     BB325743  60.109  87.731  44.251
34731DT     SC125744  60.065  87.597  44.029
34731DT     SC225745  59.855  87.603  43.983
34731DT     SC325746  60.074  87.403  43.851
34732DA     BB125747  60.090  88.061  44.509
34732DA     BB225748  59.749  87.932  44.472
34732DA     BB325749  59.722  87.756  44.589
34732DA     SC125750  59.808  87.562  44.362
34732DA     SC225751  59.701  87.391  44.215
34732DA     SC325752  59.938  87.301  44.181
34732DA     SC425753  59.963  87.520  44.355
34733DG     BB125754  59.502  87.919  44.737
34733DG     BB225755  59.283  87.673  44.588
34733DG     BB325756  59.274  87.511  44.703
34733DG     SC125757  59.511  87.373  44.567
34733DG     SC225758  59.498  87.124  44.403
34733DG     SC325759  59.778  87.200  44.454
34733DG     SC425760  59.659  87.400  44.621
34734DC     BB125761  59.082  87.446  44.795
34734DC     BB225762  58.997  87.166  44.583
34734DC     BB325763  59.031  86.989  44.684
34734DC     SC125764  59.291  87.013  44.654
34734DC     SC225765  59.361  86.863  44.517
34734DC     SC325766  59.546  87.041  44.715
34735DA     BB125767  58.645  86.986  44.525
34735DA     BB225768  58.810  86.673  44.429
34735DA     BB325769  58.827  86.543  44.597
34735DA     SC125770  59.106  86.650  44.683
34735DA     SC225771  59.342  86.568  44.688
34735DA     SC325772  59.381  86.754  44.860
34735DA     SC425773  59.110  86.771  44.789
34736DA     BB125774  58.686  86.358  44.371
34736DA     BB225775  58.978  86.139  44.402
34736DA     BB325776  58.972  86.032  44.586
34736DA     SC125777  59.132  86.247  44.744
34736DA     SC225778  59.357  86.270  44.849
34736DA     SC325779  59.251  86.459  44.986
34736DA     SC425780  59.047  86.361  44.821
34737DC     BB125781  58.956  85.852  44.556
34737DC     BB225782  59.294  85.761  44.645
34737DC     BB325783  59.299  85.687  44.839
34737DC     SC125784  59.270  85.927  44.940
34737DC     SC225785  59.453  85.986  45.037
34737DC     SC325786  59.165  86.130  45.071
34738DA     BB125787  59.504  85.441  44.567
34738DA     BB225788  59.715  85.492  44.862
34738DA     BB325789  59.633  85.390  45.031
34738DA     SC125790  59.464  85.633  45.126
34738DA     SC225791  59.463  85.795  45.316
34738DA     SC325792  59.218  85.836  45.254
34738DA     SC425793  59.312  85.643  45.073
34739DC     BB125794  59.747  85.265  45.080
34739DC     BB225795  59.859  85.416  45.388
34739DC     BB325796  59.751  85.340  45.547
34739DC     SC125797  59.540  85.482  45.481
34739DC     SC225798  59.508  85.635  45.628
34739DC     SC325799  59.295  85.540  45.404
34740DA     BB125800  60.163  85.326  45.631
34740DA     BB225801  59.989  85.455  45.927
34740DA     BB325802  59.874  85.301  46.018
34740DA     SC125803  59.616  85.364  45.855
34740DA     SC225804  59.390  85.459  45.897
34740DA     SC325805  59.323  85.342  45.678
34740DA     SC425806  59.594  85.283  45.718
34741DA     BB125807  60.042  85.384  46.293
34741DA     BB225808  59.719  85.450  46.453
34741DA     BB325809  59.622  85.267  46.503
34741DA     SC125810  59.469  85.247  46.232
34741DA     SC225811  59.234  85.265  46.151
34741DA     SC325812  59.317  85.136  45.945
34741DA     SC425813  59.539  85.165  46.113
34742DA     BB125814  59.601  85.367  46.824
34742DA     BB225815  59.236  85.341  46.798
34742DA     BB325816  59.175  85.137  46.819
34742DA     SC125817  59.188  85.077  46.514
34742DA     SC225818  59.029  85.029  46.328
34742DA     SC325819  59.232  84.929  46.207
34742DA     SC425820  59.326  85.017  46.456
34743DT     BB125821  59.057  85.040  46.997
34743DT     BB225822  58.741  85.007  46.825
34743DT     BB325823  58.699  84.808  46.792
34743DT     SC125824  58.877  84.794  46.600
34743DT     SC225825  58.776  84.770  46.411
34743DT     SC325826  59.092  84.721  46.465
34744DG     BB125827  58.378  84.915  47.026
34744DG     BB225828  58.265  84.758  46.720
34744DG     BB325829  58.270  84.560  46.740
34744DG     SC125830  58.558  84.531  46.640
34744DG     SC225831  58.643  84.398  46.387
34744DG     SC325832  58.877  84.466  46.554
34744DG     SC425833  58.678  84.542  46.745
34745DG     BB125834  57.944  84.530  46.681
34745DG     BB225835  58.036  84.346  46.384
34745DG     BB325836  58.058  84.153  46.428
34745DG     SC125837  58.356  84.178  46.496
34745DG     SC225838  58.582  84.058  46.342
34745DG     SC325839  58.678  84.174  46.596
34745DG     SC425840  58.399  84.215  46.645
34746DC     BB125841  57.928  83.994  46.337
34746DC     BB225842  58.154  83.849  46.096
34746DC     BB325843  58.221  83.665  46.163
34746DC     SC125844  58.380  83.778  46.338
34746DC     SC225845  58.585  83.747  46.278
34746DC     SC325846  58.485  83.847  46.570
34747DT     BB125847  58.069  83.545  45.974
34747DT     BB225848  58.403  83.427  45.909
34747DT     BB325849  58.443  83.260  46.024
34747DT     SC125850  58.470  83.406  46.241
34747DT     SC225851  58.676  83.407  46.302
34747DT     SC325852  58.424  83.504  46.482
34748DC     BB125853  58.430  83.106  45.802
34748DC     BB225854  58.757  83.038  45.939
34748DC     BB325855  58.744  82.888  46.080
34748DC     SC125856  58.635  83.050  46.256
34748DC     SC225857  58.775  83.087  46.415
34748DC     SC325858  58.458  83.154  46.421
34749DA     BB125859  59.043  82.765  45.813
34749DA     BB225860  59.175  82.724  46.153
34749DA     BB325861  59.088  82.554  46.247
34749DA     SC125862  58.851  82.713  46.371
34749DA     SC225863  58.776  82.785  46.597
34749DA     SC325864  58.544  82.812  46.489
34749DA     SC425865  58.715  82.722  46.286
34750DA     BB125866  59.401  82.458  46.295
34750DA     BB225867  59.333  82.471  46.655
34750DA     BB325868  59.223  82.299  46.715
34750DA     SC125869  58.945  82.430  46.670
34750DA     SC225870  58.754  82.511  46.809
34750DA     SC325871  58.615  82.490  46.595
34750DA     SC425872  58.875  82.409  46.527
34751DT     BB125873  59.306  82.143  46.846
34751DT     BB225874  59.123  82.237  47.143
34751DT     BB325875  58.979  82.094  47.185
34751DT     SC125876  58.827  82.178  46.989
34751DT     SC225877  58.651  82.273  47.070
34751DT     SC325878  58.691  82.179  46.762
34752DC     BB125879  59.119  81.992  47.403
34752DC     BB225880  58.799  82.087  47.541
34752DC     BB325881  58.667  81.928  47.528
34752DC     SC125882  58.636  81.964  47.270
34752DC     SC225883  58.438  82.037  47.231
34752DC     SC325884  58.643  81.917  47.011
34753DG     BB125885  58.689  82.018  47.926
34753DG     BB225886  58.346  82.016  47.811
34753DG     BB325887  58.279  81.829  47.801
34753DG     SC125888  58.368  81.786  47.512
34753DG     SC225889  58.188  81.748  47.277
34753DG     SC325890  58.470  81.698  47.203
34753DG     SC425891  58.516  81.732  47.483
34754DT     BB125892  58.107  81.757  47.928
34754DT     BB225893  57.842  81.747  47.684
34754DT     BB325894  57.801  81.551  47.632
34754DT     SC125895  58.020  81.536  47.487
34754DT     SC225896  57.967  81.524  47.279
34754DT     SC325897  58.258  81.458  47.405
34755DT     BB125898  57.568  81.567  47.767
34755DT     BB225899  57.473  81.481  47.430
34755DT     BB325900  57.478  81.275  47.406
34755DT     SC125901  57.740  81.274  47.399
34755DT     SC225902  57.806  81.225  47.200
34755DT     SC325903  57.990  81.224  47.467
34756DT     BB125904  57.211  81.285  47.395
34756DT     BB225905  57.311  81.132  47.084
34756DT     BB325906  57.338  80.929  47.111
34756DT     SC125907  57.564  80.966  47.237
34756DT     SC225908  57.727  80.897  47.115
34756DT     SC325909  57.743  80.966  47.431
34757DC     BB125910  57.122  80.911  46.962
34757DC     BB225911  57.375  80.722  46.787
34757DC     BB325912  57.389  80.532  46.867
34757DC     SC125913  57.515  80.622  47.079
34757DC     SC225914  57.719  80.556  47.075
34757DC     SC325915  57.566  80.681  47.331
34758DC     BB125916  57.284  80.459  46.638
34758DC     BB225917  57.592  80.273  46.664
34758DC     BB325918  57.564  80.106  46.782
34758DC     SC125919  57.561  80.251  47.001
34758DC     SC225920  57.738  80.211  47.115
34758DC     SC325921  57.473  80.364  47.222
34759DA     BB125922  57.753  79.998  46.423
34759DA     BB225923  57.931  79.835  46.699
34759DA     BB325924  57.811  79.681  46.784
34759DA     SC125925  57.677  79.866  46.995
34759DA     SC225926  57.682  79.898  47.242
34759DA     SC325927  57.458  80.018  47.210
34759DA     SC425928  57.538  79.936  46.954
34760DA     BB125929  58.086  79.509  46.725
34760DA     BB225930  58.093  79.433  47.083
34760DA     BB325931  57.940  79.292  47.132
34760DA     SC125932  57.726  79.510  47.194
34760DA     SC225933  57.606  79.599  47.394
34760DA     SC325934  57.434  79.688  47.226
34760DA     SC425935  57.630  79.556  47.074
34761DT     BB125936  57.983  79.093  47.194
34761DT     BB225937  57.894  79.130  47.541
34761DT     BB325938  57.715  79.033  47.579
34761DT     SC125939  57.578  79.223  47.459
34761DT     SC225940  57.465  79.332  47.606
34761DT     SC325941  57.422  79.343  47.285
34762DA     BB125942  57.977  78.872  47.865
34762DA     BB225943  57.671  78.970  48.041
34762DA     BB325944  57.514  78.831  48.001
34762DA     SC125945  57.407  78.984  47.753
34762DA     SC225946  57.205  79.117  47.692
34762DA     SC325947  57.273  79.069  47.449
34762DA     SC425948  57.465  78.942  47.609
34763DA     BB125949  57.495  78.807  48.330
34763DA     BB225950  57.151  78.931  48.304
34763DA     BB325951  57.020  78.775  48.239
34763DA     SC125952  57.054  78.839  47.937
34763DA     SC225953  56.916  78.931  47.751
34763DA     SC325954  57.085  78.818  47.595
34763DA     SC425955  57.169  78.760  47.857
34764DT     BB125956  56.878  78.707  48.368
34764DT     BB225957  56.595  78.862  48.205
34764DT     BB325958  56.486  78.719  48.102
34764DT     SC125959  56.667  78.707  47.913
34764DT     SC225960  56.587  78.792  47.732
34764DT     SC325961  56.854  78.609  47.754
34765DG     BB125962  56.228  78.891  48.367
34765DG     BB225963  56.092  78.894  48.032
34765DG     BB325964  56.020  78.714  47.987
34765DG     SC125965  56.284  78.610  47.871
34765DG     SC225966  56.335  78.542  47.585
34765DG     SC325967  56.562  78.457  47.756
34765DG     SC425968  56.389  78.540  47.969
34766DA     BB125969  55.718  78.867  47.897
34766DA     BB225970  55.747  78.732  47.558
34766DA     BB325971  55.695  78.525  47.555
34766DA     SC125972  55.985  78.426  47.606
34766DA     SC225973  56.165  78.308  47.480
34766DA     SC325974  56.263  78.253  47.710
34766DA     SC425975  56.030  78.402  47.758
34767DT     BB125976  55.513  78.442  47.458
34767DT     BB225977  55.681  78.289  47.177
34767DT     BB325978  55.679  78.083  47.197
34767DT     SC125979  55.864  78.091  47.383
34767DT     SC225980  56.046  78.008  47.305
34767DT     SC325981  55.981  78.065  47.618
34768DC     BB125982  55.470  78.014  47.002
34768DC     BB225983  55.752  77.817  46.893
34768DC     BB325984  55.741  77.627  46.975
34768DC     SC125985  55.815  77.717  47.210
34768DC     SC225986  56.013  77.645  47.255
34768DC     SC325987  55.806  77.776  47.467
34769DC     BB125988  55.651  77.468  46.742
34769DC     BB225989  55.960  77.308  46.839
34769DC     BB325990  55.920  77.147  46.963
34769DC     SC125991  55.865  77.306  47.165
34769DC     SC225992  56.020  77.287  47.314
34769DC     SC325993  55.730  77.426  47.357
34770DT     BB125994  55.975  76.940  46.773
34770DT     BB225995  56.209  76.881  47.042
34770DT     BB325996  56.129  76.746  47.176
34770DT     SC125997  55.967  76.928  47.274
34770DT     SC225998  56.028  76.978  47.474
34770DT     SC325999  55.743  77.052  47.338
34771DT     BB126000  56.308  76.561  47.092
34771DT     BB226001  56.380  76.608  47.442
34771DT     BB326002  56.264  76.481  47.556
34771DT     SC126003  56.050  76.628  47.516
34771DT     SC226004  55.995  76.724  47.700
34771DT     SC326005  55.810  76.699  47.436
34772DG     BB126006  56.663  76.452  47.629
34772DG     BB226007  56.473  76.515  47.930
34772DG     BB326008  56.376  76.351  47.985
34772DG     SC126009  56.125  76.414  47.822
34772DG     SC226010  55.855  76.478  47.933
34772DG     SC326011  55.843  76.442  47.640
34772DG     SC426012  56.117  76.365  47.670
34773DT     BB126013  56.431  76.296  48.164
34773DT     BB226014  56.140  76.376  48.363
34773DT     BB326015  56.020  76.209  48.383
34773DT     SC126016  55.934  76.231  48.136
34773DT     SC226017  55.727  76.290  48.137
34773DT     SC326018  55.891  76.174  47.882
34774DG     BB126019  56.119  76.352  48.752
34774DG     BB226020  55.762  76.300  48.720
34774DG     BB326021  55.721  76.106  48.730
34774DG     SC126022  55.748  76.059  48.429
34774DG     SC226023  55.526  75.984  48.243
34774DG     SC326024  55.789  75.967  48.107
34774DG     SC426025  55.891  76.022  48.368
34775DA     BB126026  55.488  76.178  48.981
34775DA     BB226027  55.221  76.027  48.780
34775DA     BB326028  55.233  75.814  48.788
34775DA     SC126029  55.418  75.791  48.539
34775DA     SC226030  55.401  75.708  48.304
34775DA     SC326031  55.657  75.697  48.311
34775DA     SC426032  55.576  75.790  48.564
34776DA     BB126033  54.917  75.814  48.895
34776DA     BB226034  54.830  75.623  48.594
34776DA     BB326035  54.879  75.417  48.620
34776DA     SC126036  55.166  75.446  48.504
34776DA     SC226037  55.291  75.374  48.300
34776DA     SC326038  55.502  75.415  48.440
34776DA     SC426039  55.286  75.475  48.608
34777DA     BB126040  54.562  75.350  48.547
34777DA     BB226041  54.683  75.170  48.251
34777DA     BB326042  54.749  74.975  48.305
34777DA     SC126043  55.043  75.061  48.359
34777DA     SC226044  55.267  75.028  48.254
34777DA     SC326045  55.361  75.094  48.483
34777DA     SC426046  55.082  75.103  48.509
34778DG     BB126047  54.527  74.883  48.110
34778DG     BB226048  54.811  74.767  47.918
34778DG     BB326049  54.868  74.588  47.982
34778DG     SC126050  55.063  74.697  48.191
34778DG     SC226051  55.360  74.668  48.185
34778DG     SC326052  55.270  74.781  48.443
34778DG     SC426053  55.009  74.729  48.338
34779DA     BB126054  54.848  74.537  47.647
34779DA     BB226055  55.204  74.447  47.646
34779DA     BB326056  55.232  74.256  47.736
34779DA     SC126057  55.274  74.370  48.022
34779DA     SC226058  55.461  74.395  48.186
34779DA     SC326059  55.276  74.421  48.362
34779DA     SC426060  55.145  74.383  48.117
34780DG     BB126061  55.348  74.275  47.453
34780DG     BB226062  55.653  74.214  47.638
34780DG     BB326063  55.654  74.028  47.708
34780DG     SC126064  55.518  74.101  47.972
34780DG     SC226065  55.642  74.087  48.243
34780DG     SC326066  55.352  74.141  48.263
34780DG     SC426067  55.358  74.100  47.980
34781DA     BB126068  55.966  74.072  47.565
34781DA     BB226069  56.114  73.965  47.883
34781DA     BB326070  56.067  73.761  47.922
34781DA     SC126071  55.806  73.826  48.079
34781DA     SC226072  55.725  73.814  48.315
34781DA     SC326073  55.490  73.822  48.212
34781DA     SC426074  55.668  73.830  47.996
34782DA     BB126075  56.394  73.769  47.959
34782DA     BB226076  56.337  73.636  48.295
34782DA     BB326077  56.268  73.434  48.284
34782DA     SC126078  55.966  73.511  48.276
34782DA     SC226079  55.768  73.494  48.426
34782DA     SC326080  55.630  73.525  48.212
34782DA     SC426081  55.898  73.531  48.132
34783DC     BB126082  56.386  73.275  48.350
34783DC     BB226083  56.197  73.192  48.646
34783DC     BB326084  56.089  73.018  48.614
34783DC     SC126085  55.916  73.144  48.463
34783DC     SC226086  55.727  73.155  48.565
34783DC     SC326087  55.776  73.213  48.250
34784DA     BB126088  56.304  72.927  48.964
34784DA     BB226089  55.955  72.834  49.026
34784DA     BB326090  55.908  72.651  48.927
34784DA     SC126091  55.813  72.789  48.664
34784DA     SC226092  55.599  72.825  48.542
34784DA     SC326093  55.747  72.868  48.337
34784DA     SC426094  55.922  72.811  48.548
34785DA     BB126095  55.812  72.538  49.223
34785DA     BB226096  55.475  72.500  49.084
34785DA     BB326097  55.463  72.320  48.968
34785DA     SC126098  55.545  72.457  48.701
34785DA     SC226099  55.437  72.518  48.484
34785DA     SC326100  55.677  72.529  48.393
34785DA     SC426101  55.701  72.457  48.663
34786DA     BB126102  55.209  72.267  49.169
34786DA     BB226103  54.997  72.267  48.870
34786DA     BB326104  55.018  72.084  48.764
34786DA     SC126105  55.251  72.186  48.584
34786DA     SC226106  55.287  72.245  48.344
34786DA     SC326107  55.536  72.213  48.395
34786DA     SC426108  55.401  72.160  48.635
34787DT     BB126109  54.859  71.974  48.757
34787DT     BB226110  54.775  72.036  48.412
34787DT     BB326111  54.830  71.874  48.295
34787DT     SC126112  55.084  71.938  48.310
34787DT     SC226113  55.152  72.006  48.118
34787DT     SC326114  55.341  71.923  48.368
34788DT     BB126115  54.569  71.828  48.270
34788DT     BB226116  54.691  71.855  47.932
34788DT     BB326117  54.769  71.674  47.870
34788DT     SC126118  54.984  71.707  48.016
34788DT     SC226119  55.153  71.740  47.887
34788DT     SC326120  55.166  71.668  48.203
34789DA     BB126121  54.496  71.801  47.576
34789DA     BB226122  54.801  71.691  47.406
34789DA     BB326123  54.819  71.478  47.415
34789DA     SC126124  54.981  71.478  47.680
34789DA     SC226125  55.213  71.427  47.754
34789DA     SC326126  55.112  71.402  47.988
34789DA     SC426127  54.898  71.466  47.818
34790DA     BB126128  54.843  71.483  47.080
34790DA     BB226129  55.172  71.324  47.115
34790DA     BB326130  55.150  71.116  47.155
34790DA     SC126131  55.148  71.151  47.464
34790DA     SC226132  55.297  71.098  47.657
34790DA     SC326133  55.086  71.122  47.801
34790DA     SC426134  55.005  71.169  47.536
34791DC     BB126135  55.201  70.930  47.014
34791DC     BB226136  55.496  70.822  47.190
34791DC     BB326137  55.462  70.640  47.282
34791DC     SC126138  55.316  70.753  47.469
34791DC     SC226139  55.421  70.744  47.656
34791DC     SC326140  55.107  70.814  47.617
34792DT     BB126141  55.607  70.463  47.101
34792DT     BB226142  55.754  70.390  47.422
34792DT     BB326143  55.658  70.229  47.509
34792DT     SC126144  55.448  70.375  47.568
34792DT     SC226145  55.438  70.402  47.781
34792DT     SC326146  55.200  70.463  47.570
34793DA     BB126147  56.058  70.097  47.513
34793DA     BB226148  55.928  70.054  47.853
34793DA     BB326149  55.806  69.878  47.864
34793DA     SC126150  55.542  70.027  47.794
34793DA     SC226151  55.331  70.092  47.910
34793DA     SC326152  55.232  70.113  47.674
34793DA     SC426153  55.499  70.033  47.640
34794DT     BB126154  55.860  69.696  47.982
34794DT     BB226155  55.632  69.761  48.254
34794DT     BB326156  55.478  69.622  48.252
34794DT     SC126157  55.365  69.739  48.046
34794DT     SC226158  55.181  69.832  48.109
34794DT     SC326159  55.271  69.777  47.802
34795DG     BB126160  55.658  69.585  48.615
34795DG     BB226161  55.303  69.647  48.649
34795DG     BB326162  55.202  69.478  48.621
34795DG     SC126163  55.173  69.518  48.318
34795DG     SC226164  54.917  69.568  48.172
34795DG     SC326165  55.140  69.520  47.983
34795DG     SC426166  55.287  69.462  48.221
34796DT     BB126167  55.079  69.399  48.782
34796DT     BB226168  54.750  69.491  48.668
34796DT     BB326169  54.652  69.324  48.594
34796DT     SC126170  54.796  69.328  48.375
34796DT     SC226171  54.672  69.384  48.208
34796DT     SC326172  54.967  69.251  48.189
34797DT     BB126173  54.501  69.351  48.808
34797DT     BB226174  54.275  69.377  48.527
34797DT     BB326175  54.222  69.188  48.462
34797DT     SC126176  54.457  69.153  48.350
34797DT     SC226177  54.435  69.153  48.136
34797DT     SC326178  54.695  69.051  48.300
34798DT     BB126179  53.994  69.266  48.556
34798DT     BB226180  53.936  69.191  48.208
34798DT     BB326181  53.916  68.986  48.183
34798DT     SC126182  54.174  68.949  48.213
34798DT     SC226183  54.259  68.889  48.024
34798DT     SC326184  54.402  68.866  48.314
34799DT     BB126185  53.676  69.066  48.129
34799DT     BB226186  53.788  68.885  47.838
34799DT     BB326187  53.775  68.682  47.871
34799DT     SC126188  53.986  68.686  48.027
34799DT     SC226189  54.149  68.585  47.929
34799DT     SC326190  54.136  68.664  48.243
34800DT     BB126191  53.592  68.713  47.692
34800DT     BB226192  53.817  68.463  47.561
34800DT     BB326193  53.781  68.280  47.653
34800DT     SC126194  53.898  68.359  47.874
34800DT     SC226195  54.083  68.252  47.899
34800DT     SC326196  53.931  68.426  48.127
34801DA     BB126197  53.784  68.221  47.236
34801DA     BB226198  53.981  67.953  47.390
34801DA     BB326199  53.854  67.817  47.493
34801DA     SC126200  53.871  67.968  47.764
34801DA     SC226201  53.970  67.932  47.990
34801DA     SC326202  53.802  68.109  48.070
34801DA     SC426203  53.758  68.079  47.795
34802DT     BB126204  53.824  67.618  47.426
34802DT     BB226205  54.007  67.449  47.687
34802DT     BB326206  53.876  67.357  47.817
34802DT     SC126207  53.811  67.587  47.926
34802DT     SC226208  53.888  67.596  48.127
34802DT     SC326209  53.665  67.794  48.000
34803DA     BB126210  54.121  67.033  47.707
34803DA     BB226211  54.093  67.024  48.072
34803DA     BB326212  53.904  66.945  48.130
34803DA     SC126213  53.762  67.222  48.138
34803DA     SC226214  53.668  67.376  48.309
34803DA     SC326215  53.535  67.478  48.115
34803DA     SC426216  53.688  67.271  48.004
34804DT     BB126217  53.865  66.741  48.234
34804DT     BB226218  53.792  66.875  48.561
34804DT     BB326219  53.591  66.847  48.605
34804DT     SC126220  53.519  67.039  48.442
34804DT     SC226221  53.445  67.206  48.556
34804DT     SC326222  53.407  67.161  48.237
34805DT     BB126223  53.632  66.637  48.792
34805DT     BB226224  53.449  66.884  48.980
34805DT     BB326225  53.246  66.848  48.966
34805DT     SC126226  53.238  66.939  48.720
34805DT     SC226227  53.130  67.125  48.716
34805DT     SC326228  53.207  66.944  48.458
34806DG     BB126229  53.325  66.831  49.366
34806DG     BB226230  53.055  67.062  49.298
34806DG     BB326231  52.885  66.962  49.275
34806DG     SC126232  52.919  66.924  48.973
34806DG     SC226233  52.750  67.047  48.760
34806DG     SC326234  52.935  66.847  48.645
34806DG     SC426235  52.999  66.796  48.919
34807DT     BB126236  52.709  66.990  49.414
34807DT     BB226237  52.486  67.185  49.208
34807DT     BB326238  52.331  67.067  49.139
34807DT     SC126239  52.487  66.948  48.966
34807DT     SC226240  52.432  67.007  48.767
34807DT     SC326241  52.623  66.757  48.844
34808DT     BB126242  52.158  67.194  49.308
34808DT     BB226243  52.012  67.237  48.981
34808DT     BB326244  51.891  67.076  48.936
34808DT     SC126245  52.100  66.922  48.891
34808DT     SC226246  52.112  66.878  48.680
34808DT     SC326247  52.273  66.725  48.916
34809DT     BB126248  51.660  67.223  48.971
34809DT     BB226249  51.630  67.093  48.636
34809DT     BB326250  51.537  66.908  48.640
34809DT     SC126251  51.754  66.792  48.732
34809DT     SC226252  51.837  66.665  48.580
34809DT     SC326253  51.916  66.662  48.895
34810DT     BB126254  51.298  67.006  48.537
34810DT     BB226255  51.390  66.743  48.308
34810DT     BB326256  51.311  66.563  48.372
34810DT     SC126257  51.489  66.543  48.564
34810DT     SC226258  51.625  66.383  48.519
34810DT     SC326259  51.592  66.529  48.806
34811DA     BB126260  51.186  66.603  47.974
34811DA     BB226261  51.330  66.268  48.011
34811DA     BB326262  51.195  66.141  48.116
34811DA     SC126263  51.311  66.209  48.397
34811DA     SC226264  51.444  66.094  48.575
34811DA     SC326265  51.352  66.276  48.731
34811DA     SC426266  51.243  66.329  48.478
34812DT     BB126267  51.109  65.980  48.019
34812DT     BB226268  51.308  65.723  48.176
34812DT     BB326269  51.194  65.621  48.316
34812DT     SC126270  51.206  65.821  48.485
34812DT     SC226271  51.328  65.766  48.653
34812DT     SC326272  51.129  66.021  48.639
34813DT     BB126273  51.186  65.404  48.152
34813DT     BB226274  51.329  65.281  48.460
34813DT     BB326275  51.178  65.225  48.590
34813DT     SC126276  51.120  65.475  48.644
34813DT     SC226277  51.177  65.519  48.846
34813DT     SC326278  50.984  65.701  48.660
34814DA     BB126279  51.439  64.898  48.562
34814DA     BB226280  51.378  64.963  48.918
34814DA     BB326281  51.182  64.899  48.972
34814DA     SC126282  51.050  65.173  48.912
34814DA     SC226283  50.945  65.360  49.040
34814DA     SC326284  50.834  65.424  48.818
34814DA     SC426285  50.989  65.196  48.765
34815DA     BB126286  51.348  64.729  49.201
34815DA     BB226287  51.165  64.924  49.452
34815DA     BB326288  50.965  64.852  49.470
34815DA     SC126289  50.850  65.044  49.254
34815DA     SC226290  50.700  65.243  49.245
34815DA     SC326291  50.670  65.184  48.997
34815DA     SC426292  50.843  64.990  49.103
34816DA     BB126293  51.048  64.829  49.787
34816DA     BB226294  50.783  65.073  49.855
34816DA     BB326295  50.592  64.979  49.847
34816DA     SC126296  50.549  65.035  49.544
34816DA     SC226297  50.404  65.178  49.401
34816DA     SC326298  50.462  65.015  49.212
34816DA     SC426299  50.597  64.921  49.440
34817DC     BB126300  50.482  64.966  50.018
34817DC     BB226301  50.246  65.226  49.934
34817DC     BB326302  50.064  65.142  49.883
34817DC     SC126303  50.156  65.064  49.650
34817DC     SC226304  50.063  65.179  49.494
34817DC     SC326305  50.230  64.904  49.453
34818DT     BB126306  49.970  65.240  50.113
34818DT     BB226307  49.764  65.387  49.856
34818DT     BB326308  49.610  65.258  49.807
34818DT     SC126309  49.773  65.102  49.674
34818DT     SC226310  49.730  65.116  49.463
34818DT     SC326311  49.911  64.887  49.605
34819DT     BB126312  49.462  65.440  49.923
34819DT     BB226313  49.335  65.413  49.586
34819DT     BB326314  49.207  65.252  49.572
34819DT     SC126315  49.407  65.082  49.577
34819DT     SC226316  49.427  64.989  49.384
34819DT     SC326317  49.565  64.888  49.659
34820DA     BB126318  49.060  65.608  49.400
34820DA     BB226319  49.012  65.333  49.163
34820DA     BB326320  48.868  65.195  49.237
34820DA     SC126321  49.077  65.017  49.384
34820DA     SC226322  49.174  64.789  49.359
34820DA     SC326323  49.240  64.812  49.606
34820DA     SC426324  49.107  65.050  49.538
34821DA     BB126325  48.783  65.272  48.929
34821DA     BB226326  48.806  64.912  48.864
34821DA     BB326327  48.653  64.808  48.970
34821DA     SC126328  48.826  64.760  49.224
34821DA     SC226329  48.935  64.568  49.340
34821DA     SC326330  48.937  64.721  49.546
34821DA     SC426331  48.817  64.870  49.341
34822DT     BB126332  48.534  64.728  48.855
34822DT     BB226333  48.632  64.386  48.912
34822DT     BB326334  48.505  64.298  49.050
34822DT     SC126335  48.617  64.429  49.248
34822DT     SC226336  48.726  64.291  49.372
34822DT     SC326337  48.645  64.595  49.452
34823DT     BB126338  48.402  64.155  48.850
34823DT     BB226339  48.507  63.910  49.093
34823DT     BB326340  48.361  63.886  49.237
34823DT     SC126341  48.422  64.115  49.349
34823DT     SC226342  48.513  64.079  49.540
34823DT     SC326343  48.400  64.364  49.435
34824DA     BB126344  48.447  63.499  49.096
34824DA     BB226345  48.451  63.489  49.463
34824DA     BB326346  48.252  63.502  49.539
34824DA     SC126347  48.254  63.812  49.560
34824DA     SC226348  48.256  63.985  49.740
34824DA     SC326349  48.168  64.145  49.559
34824DA     SC426350  48.198  63.895  49.434
34825DT     BB126351  48.168  63.341  49.638
34825DT     BB226352  48.189  63.478  49.971
34825DT     BB326353  48.001  63.539  50.034
34825DT     SC126354  48.009  63.751  49.879
34825DT     SC226355  48.026  63.927  50.001
34825DT     SC326356  47.946  63.919  49.687
34826DA     BB126357  48.148  63.287  50.336
34826DA     BB226358  48.028  63.594  50.496
34826DA     BB326359  47.814  63.598  50.498
34826DA     SC126360  47.790  63.745  50.224
34826DA     SC226361  47.721  63.969  50.141
34826DA     SC326362  47.691  63.853  49.914
34826DA     SC426363  47.776  63.654  50.092
34827DA     BB126364  47.865  63.646  50.819
34827DA     BB226365  47.696  63.969  50.777
34827DA     BB326366  47.486  63.941  50.759
34827DA     SC126367  47.491  63.917  50.449
34827DA     SC226368  47.416  64.051  50.252
34827DA     SC326369  47.430  63.830  50.123
34827DA     SC426370  47.504  63.770  50.386
34828DA     BB126371  47.490  64.158  51.005
34828DA     BB226372  47.301  64.381  50.784
34828DA     BB326373  47.098  64.316  50.768
34828DA     SC126374  47.150  64.134  50.521
34828DA     SC226375  47.094  64.132  50.278
34828DA     SC326376  47.146  63.881  50.289
34828DA     SC426377  47.186  63.980  50.549
34829DC     BB126378  46.957  64.435  50.843
34829DC     BB226379  46.831  64.556  50.527
34829DC     BB326380  46.652  64.463  50.482
34829DC     SC126381  46.775  64.239  50.419
34829DC     SC226382  46.760  64.207  50.207
34829DC     SC326383  46.850  63.986  50.427
34830DT     BB126384  46.525  64.695  50.531
34830DT     BB226385  46.437  64.611  50.191
34830DT     BB326386  46.275  64.482  50.190
34830DT     SC126387  46.425  64.280  50.267
34830DT     SC226388  46.444  64.140  50.105
34830DT     SC326389  46.519  64.084  50.416
34831DT     BB126390  46.114  64.681  50.098
34831DT     BB226391  46.083  64.419  49.852
34831DT     BB326392  45.934  64.287  49.908
34831DT     SC126393  46.088  64.181  50.093
34831DT     SC226394  46.142  63.981  50.035
34831DT     SC326395  46.176  64.108  50.331
34832DT     BB126396  45.773  64.382  49.711
34832DT     BB226397  45.801  64.028  49.644
34832DT     BB326398  45.657  63.925  49.751
34832DT     SC126399  45.791  63.956  49.975
34832DT     SC226400  45.870  63.766  50.038
34832DT     SC326401  45.850  64.034  50.220
34833DC     BB126402  45.513  63.875  49.524
34833DC     BB226403  45.581  63.548  49.660
34833DC     BB326404  45.434  63.496  49.796
34833DC     SC126405  45.532  63.660  49.976
34833DC     SC226406  45.617  63.546  50.137
34833DC     SC326407  45.548  63.863  50.144
34834DT     BB126408  45.330  63.313  49.621
34834DT     BB226409  45.412  63.122  49.916
34834DT     BB326410  45.253  63.125  50.049
34834DT     SC126411  45.306  63.373  50.118
34834DT     SC226412  45.379  63.376  50.321
34834DT     SC326413  45.277  63.633  50.152
34835DA     BB126414  45.364  62.726  49.989
34835DA     BB226415  45.347  62.786  50.350
34835DA     BB326416  45.144  62.802  50.413
34835DA     SC126417  45.129  63.110  50.373
34835DA     SC226418  45.113  63.314  50.515
34835DA     SC326419  45.029  63.431  50.303
34835DA     SC426420  45.077  63.164  50.231
34836DG     BB126421  45.244  62.567  50.581
34836DG     BB226422  45.184  62.800  50.850
34836DG     BB326423  44.990  62.807  50.892
34836DG     SC126424  44.930  63.032  50.694
34836DG     SC226425  44.843  63.309  50.764
34836DG     SC326426  44.825  63.263  50.472
34836DG     SC426427  44.893  62.994  50.542
34837DA     BB126428  45.128  62.764  51.201
34837DA     BB226429  44.968  63.076  51.308
34837DA     BB326430  44.757  63.050  51.323
34837DA     SC126431  44.700  63.135  51.029
34837DA     SC226432  44.595  63.327  50.909
34837DA     SC326433  44.574  63.165  50.711
34837DA     SC426434  44.695  63.019  50.917
34838DA     BB126435  44.879  63.192  51.591
34838DA     BB226436  44.645  63.464  51.515
34838DA     BB326437  44.443  63.395  51.532
34838DA     SC126438  44.421  63.308  51.234
34838DA     SC226439  44.301  63.383  51.029
34838DA     SC326440  44.347  63.146  50.941
34838DA     SC426441  44.458  63.156  51.198
34839DA     BB126442  44.481  63.678  51.697
34839DA     BB226443  44.206  63.800  51.487
34839DA     BB326444  44.027  63.692  51.529
34839DA     SC126445  44.080  63.474  51.313
34839DA     SC226446  43.984  63.405  51.094
34839DA     SC326447  44.099  63.180  51.137
34839DA     SC426448  44.157  63.341  51.359
34840DT     BB126449  43.910  63.805  51.596
34840DT     BB226450  43.677  63.808  51.321
34840DT     BB326451  43.529  63.667  51.351
34840DT     SC126452  43.693  63.471  51.291
34840DT     SC226453  43.634  63.384  51.103
34840DT     SC326454  43.840  63.254  51.317
34841DT     BB126455  43.345  63.860  51.412
34841DT     BB226456  43.183  63.664  51.156
34841DT     BB326457  43.085  63.504  51.241
34841DT     SC126458  43.311  63.377  51.282
34841DT     SC226459  43.322  63.206  51.151
34841DT     SC326460  43.510  63.260  51.409
34842DT     BB126461  42.825  63.610  51.215
34842DT     BB226462  42.799  63.287  51.056
34842DT     BB326463  42.744  63.144  51.195
34842DT     SC126464  42.984  63.142  51.301
34842DT     SC226465  43.081  62.955  51.256
34842DT     SC326466  43.177  63.171  51.478
34843DT     BB126467  42.478  63.118  51.107
34843DT     BB226468  42.605  62.781  51.092
34843DT     BB326469  42.571  62.684  51.272
34843DT     SC126470  42.764  62.818  51.389
34843DT     SC226471  42.927  62.685  51.433
34843DT     SC326472  42.886  62.983  51.555
34844DA     BB126473  42.403  62.427  50.986
34844DA     BB226474  42.619  62.224  51.202
34844DA     BB326475  42.525  62.190  51.390
34844DA     SC126476  42.647  62.442  51.525
34844DA     SC226477  42.816  62.494  51.701
34844DA     SC326478  42.701  62.723  51.715
34844DA     SC426479  42.562  62.578  51.520
34845DA     BB126480  42.582  61.873  51.318
34845DA     BB226481  42.791  61.860  51.619
34845DA     BB326482  42.669  61.849  51.793
34845DA     SC126483  42.654  62.158  51.832
34845DA     SC226484  42.742  62.328  51.992
34845DA     SC326485  42.554  62.478  51.902
34845DA     SC426486  42.531  62.235  51.764
34846DT     BB126487  42.670  61.679  51.909
34846DT     BB226488  42.861  61.814  52.184
34846DT     BB326489  42.737  61.850  52.345
34846DT     SC126490  42.636  62.063  52.230
34846DT     SC226491  42.701  62.239  52.334
34846DT     SC326492  42.460  62.225  52.118
34847DT     BB126493  42.830  61.633  52.493
34847DT     BB226494  42.882  61.914  52.712
34847DT     BB326495  42.713  61.945  52.829
34847DT     SC126496  42.583  62.048  52.625
34847DT     SC226497  42.554  62.258  52.658
34847DT     SC326498  42.400  62.077  52.437
34848DT     BB126499  42.819  61.842  53.072
34848DT     BB226500  42.716  62.176  53.159
34848DT     BB326501  42.521  62.174  53.230
34848DT     SC126502  42.426  62.141  52.987
34848DT     SC226503  42.324  62.320  52.925
34848DT     SC326504  42.303  62.030  52.782
34849DA     BB126505  42.723  62.362  53.549
34849DA     BB226506  42.439  62.576  53.459
34849DA     BB326507  42.258  62.496  53.539
34849DA     SC126508  42.193  62.325  53.288
34849DA     SC226509  42.025  62.325  53.103
34849DA     SC326510  42.089  62.078  53.073
34849DA     SC426511  42.245  62.173  53.286
34850DA     BB126512  42.224  62.791  53.680
34850DA     BB226513  41.929  62.838  53.468
34850DA     BB326514  41.760  62.738  53.553
34850DA     SC126515  41.812  62.471  53.402
34850DA     SC226516  41.706  62.339  53.219
34850DA     SC326517  41.838  62.140  53.313
34850DA     SC426518  41.901  62.359  53.476
34851DA     BB126519  41.654  63.040  53.506
34851DA     BB226520  41.416  62.893  53.269
34851DA     BB326521  41.261  62.790  53.373
34851DA     SC126522  41.410  62.517  53.375
34851DA     SC226523  41.386  62.293  53.268
34851DA     SC326524  41.535  62.208  53.460
34851DA     SC426525  41.502  62.483  53.503
34852DA     BB126526  41.122  62.993  53.160
34852DA     BB226527  40.979  62.690  53.010
34852DA     BB326528  40.833  62.605  53.140
34852DA     SC126529  41.037  62.421  53.287
34852DA     SC226530  41.088  62.177  53.303
34852DA     SC326531  41.208  62.237  53.521
34852DA     SC426532  41.106  62.478  53.421
34853DA     BB126533  40.692  62.634  52.847
34853DA     BB226534  40.649  62.270  52.862
34853DA     BB326535  40.506  62.219  53.012
34853DA     SC126536  40.717  62.191  53.239
34853DA     SC226537  40.818  62.009  53.376
34853DA     SC326538  40.882  62.196  53.540
34853DA     SC426539  40.746  62.321  53.329
34854DA     BB126540  40.401  62.063  52.743
34854DA     BB226541  40.440  61.755  52.938
34854DA     BB326542  40.292  61.744  53.091
34854DA     SC126543  40.466  61.888  53.305
34854DA     SC226544  40.584  61.829  53.516
34854DA     SC326545  40.578  62.081  53.566
34854DA     SC426546  40.451  62.047  53.318
34855DA     BB126547  40.247  61.455  52.943
34855DA     BB226548  40.332  61.302  53.266
34855DA     BB326549  40.171  61.326  53.404
34855DA     SC126550  40.276  61.596  53.517
34855DA     SC226551  40.375  61.681  53.730
34855DA     SC326552  40.304  61.913  53.647
34855DA     SC426553  40.223  61.732  53.449
34856DA     BB126554  40.214  61.003  53.421
34856DA     BB226555  40.295  61.054  53.774
34856DA     BB326556  40.118  61.095  53.886
34856DA     SC126557  40.136  61.403  53.849
34856DA     SC226558  40.184  61.603  53.990
34856DA     SC326559  40.066  61.736  53.805
34856DA     SC426560  40.059  61.468  53.724
34857DA     BB126561  40.257  60.850  54.047
34857DA     BB226562  40.279  61.083  54.330
34857DA     BB326563  40.085  61.116  54.414
34857DA     SC126564  40.022  61.361  54.232
34857DA     SC226565  39.995  61.607  54.258
34857DA     SC326566  39.868  61.596  54.035
34857DA     SC426567  39.945  61.333  54.094
34858DT     BB126568  40.099  61.058  54.572
34858DT     BB226569  40.104  61.379  54.736
34858DT     BB326570  39.912  61.432  54.793
34858DT     SC126571  39.846  61.489  54.546
34858DT     SC226572  39.820  61.702  54.527
34858DT     SC326573  39.723  61.479  54.313
34859DA     BB126574  40.227  61.490  55.073
34859DA     BB226575  40.018  61.790  55.060
34859DA     BB326576  39.821  61.746  55.129
34859DA     SC126577  39.712  61.672  54.847
34859DA     SC226578  39.553  61.767  54.680
34859DA     SC326579  39.544  61.530  54.584
34859DA     SC426580  39.718  61.518  54.803
34860DT     BB126581  39.829  61.852  55.244
34860DT     BB226582  39.579  62.080  55.121
34860DT     BB326583  39.390  62.009  55.166
34860DT     SC126584  39.405  61.826  54.978
34860DT     SC226585  39.269  61.875  54.819
34860DT     SC326586  39.415  61.590  54.862
34861DG     BB126587  39.436  62.389  55.310
34861DG     BB226588  39.123  62.349  55.134
34861DG     BB326589  38.997  62.241  55.243
34861DG     SC126590  39.088  61.972  55.128
34861DG     SC226591  38.924  61.790  54.957
34861DG     SC326592  39.177  61.660  55.038
34861DG     SC426593  39.210  61.895  55.197
34862DA     BB126594  38.749  62.491  55.211
34862DA     BB226595  38.514  62.247  55.070
34862DA     BB326596  38.437  62.121  55.223
34862DA     SC126597  38.660  61.906  55.192
34862DA     SC226598  38.681  61.672  55.110
34862DA     SC326599  38.897  61.663  55.248
34862DA     SC426600  38.791  61.920  55.285
34863DC     BB126601  38.226  62.119  55.301
34863DC     BB226602  38.125  61.805  55.154
34863DC     BB326603  38.105  61.661  55.302
34863DC     SC126604  38.365  61.638  55.325
34863DC     SC226605  38.427  61.446  55.249
34863DC     SC326606  38.606  61.645  55.431
34864DT     BB126607  37.817  61.654  55.317
34864DT     BB226608  37.906  61.309  55.256
34864DT     BB326609  37.927  61.209  55.436
34864DT     SC126610  38.157  61.325  55.483
34864DT     SC226611  38.315  61.179  55.468
34864DT     SC326612  38.340  61.474  55.600
34865DT     BB126613  37.683  61.061  55.424
34865DT     BB226614  37.935  60.806  55.463
34865DT     BB326615  37.963  60.764  55.663
34865DT     SC126616  38.096  60.988  55.699
34865DT     SC226617  38.303  60.943  55.736
34865DT     SC326618  38.158  61.228  55.789
34866DG     BB126619  37.845  60.402  55.513
34866DG     BB226620  38.158  60.371  55.693
34866DG     BB326621  38.123  60.359  55.888
34866DG     SC126622  38.133  60.661  55.935
34866DG     SC226623  38.341  60.807  56.092
34866DG     SC326624  38.119  60.987  56.018
34866DG     SC426625  37.999  60.747  55.919
34867DG     BB126626  38.272  60.062  55.908
34867DG     BB226627  38.516  60.225  56.120
34867DG     BB326628  38.453  60.225  56.309
34867DG     SC126629  38.305  60.492  56.285
34867DG     SC226630  38.379  60.746  56.424
34867DG     SC326631  38.117  60.772  56.289
34867DG     SC426632  38.153  60.493  56.237
34868DT     BB126633  38.562  60.116  56.480
34868DT     BB226634  38.719  60.397  56.645
34868DT     BB326635  38.621  60.437  56.823
34868DT     SC126636  38.418  60.545  56.697
34868DT     SC226637  38.416  60.757  56.733
34868DT     SC326638  38.173  60.583  56.609
34869DA     BB126639  39.029  60.399  56.914
34869DA     BB226640  38.910  60.714  57.059
34869DA     BB326641  38.792  60.676  57.232
34869DA     SC126642  38.523  60.661  57.076
34869DA     SC226643  38.315  60.797  57.053
34869DA     SC326644  38.208  60.580  56.965
34869DA     SC426645  38.475  60.516  57.025
34870DA     BB126646  39.012  60.887  57.346
34870DA     BB226647  38.729  61.112  57.409
34870DA     BB326648  38.618  61.045  57.578
34870DA     SC126649  38.424  60.867  57.412
34870DA     SC226650  38.184  60.868  57.346
34870DA     SC326651  38.216  60.617  57.303
34870DA     SC426652  38.464  60.713  57.392
34871DA     BB126653  38.685  61.358  57.635
34871DA     BB226654  38.321  61.407  57.636
34871DA     BB326655  38.235  61.322  57.811
34871DA     SC126656  38.185  61.044  57.681
34871DA     SC226657  37.990  60.907  57.607
34871DA     SC326658  38.150  60.708  57.621
34871DA     SC426659  38.300  60.932  57.697
34872DG     BB126660  38.158  61.618  57.809
34872DG     BB226661  37.827  61.475  57.777
34872DG     BB326662  37.770  61.398  57.951
34872DG     SC126663  37.887  61.121  57.895
34872DG     SC226664  37.732  60.869  57.856
34872DG     SC326665  38.021  60.812  57.875
34872DG     SC426666  38.039  61.091  57.935
34873DA     BB126667  37.496  61.587  57.863
34873DA     BB226668  37.290  61.284  57.885
34873DA     BB326669  37.274  61.220  58.088
34873DA     SC126670  37.524  61.035  58.076
34873DA     SC226671  37.573  60.791  58.079
34873DA     SC326672  37.810  60.860  58.147
34873DA     SC426673  37.665  61.098  58.119
34874DC     BB126674  37.102  61.231  58.144
34874DC     BB226675  37.033  60.877  58.156
34874DC     BB326676  37.058  60.807  58.350
34874DC     SC126677  37.319  60.819  58.328
34874DC     SC226678  37.399  60.619  58.324
34874DC     SC326679  37.569  60.891  58.373
34875DT     BB126680  36.793  60.783  58.359
34875DT     BB226681  36.920  60.455  58.439
34875DT     BB326682  36.970  60.445  58.640
34875DT     SC126683  37.187  60.588  58.601
34875DT     SC226684  37.360  60.463  58.628
34875DT     SC326685  37.359  60.787  58.616
34876DC     BB126686  36.753  60.289  58.691
34876DC     BB226687  37.033  60.098  58.815
34876DC     BB326688  37.076  60.153  59.010
34876DC     SC126689  37.185  60.378  58.930
34876DC     SC226690  37.398  60.371  58.963
34876DC     SC326691  37.225  60.637  58.897
34877DT     BB126692  36.974  59.920  59.111
34877DT     BB226693  37.313  59.930  59.235
34877DT     BB326694  37.319  60.035  59.413
34877DT     SC126695  37.292  60.264  59.289
34877DT     SC226696  37.476  60.375  59.302
34877DT     SC326697  37.188  60.494  59.212
34878DT     BB126698  37.358  59.806  59.558
34878DT     BB226699  37.641  60.014  59.641
34878DT     BB326700  37.594  60.137  59.801
34878DT     SC126701  37.446  60.291  59.648
34878DT     SC226702  37.542  60.482  59.624
34878DT     SC326703  37.234  60.414  59.551
34879DA     BB126704  37.951  59.941  59.898
34879DA     BB226705  38.000  60.300  59.955
34879DA     BB326706  37.895  60.362  60.130
34879DA     SC126707  37.633  60.434  59.978
34879DA     SC226708  37.505  60.639  59.917
34879DA     SC326709  37.306  60.481  59.886
34879DA     SC426710  37.521  60.319  59.965
34880DC     BB126711  38.007  60.423  60.273
34880DC     BB226712  37.937  60.775  60.234
34880DC     BB326713  37.801  60.836  60.378
34880DC     SC126714  37.603  60.719  60.252
34880DC     SC226715  37.472  60.869  60.170
34880DC     SC326716  37.404  60.553  60.202
34881DA     BB126717  38.128  61.096  60.388
34881DA     BB226718  37.823  61.299  60.376
34881DA     BB326719  37.723  61.293  60.564
34881DA     SC126720  37.547  61.047  60.490
34881DA     SC226721  37.307  60.999  60.442
34881DA     SC326722  37.367  60.755  60.495
34881DA     SC426723  37.604  60.901  60.528
34882DG     BB126724  37.772  61.597  60.544
34882DG     BB226725  37.410  61.607  60.537
34882DG     BB326726  37.338  61.588  60.722
34882DG     SC126727  37.322  61.283  60.711
34882DG     SC226728  37.072  61.120  60.714
34882DG     SC326729  37.311  60.947  60.741
34882DG     SC426730  37.450  61.197  60.755
34883DA     BB126731  37.156  61.872  60.643
34883DA     BB226732  36.845  61.690  60.711
34883DA     BB326733  36.819  61.664  60.921
34883DA     SC126734  36.966  61.391  60.930
34883DA     SC226735  36.908  61.151  60.967
34883DA     SC326736  37.157  61.120  61.021
34883DA     SC426737  37.124  61.392  60.962
34884DA     BB126738  36.528  61.803  60.851
34884DA     BB226739  36.372  61.499  60.983
34884DA     BB326740  36.384  61.496  61.196
34884DA     SC126741  36.656  61.344  61.202
34884DA     SC226742  36.740  61.118  61.266
34884DA     SC326743  36.970  61.230  61.281
34884DA     SC426744  36.790  61.432  61.207
34885DG     BB126745  36.069  61.493  61.201
34885DG     BB226746  36.114  61.170  61.357
34885DG     BB326747  36.144  61.192  61.552
34885DG     SC126748  36.448  61.215  61.529
34885DG     SC226749  36.648  61.018  61.632
34885DG     SC326750  36.782  61.264  61.538
34885DG     SC426751  36.513  61.359  61.505
34886DA     BB126752  35.881  60.969  61.632
34886DA     BB226753  36.115  60.747  61.807
34886DA     BB326754  36.155  60.822  62.003
34886DA     SC126755  36.401  60.991  61.915
34886DA     SC226756  36.648  60.986  61.944
34886DA     SC326757  36.640  61.234  61.880
34886DA     SC426758  36.375  61.144  61.874
34887DG     BB126759  36.030  60.559  62.136
34887DG     BB226760  36.369  60.504  62.250
34887DG     BB326761  36.398  60.595  62.424
34887DG     SC126762  36.491  60.858  62.299
34887DG     SC226763  36.766  60.974  62.316
34887DG     SC326764  36.578  61.167  62.195
34887DG     SC426765  36.382  60.969  62.262
34888DT     BB126766  36.447  60.490  62.640
34888DT     BB226767  36.800  60.560  62.663
34888DT     BB326768  36.835  60.700  62.811
34888DT     SC126769  36.744  60.894  62.659
34888DT     SC226770  36.906  61.022  62.601
34888DT     SC326771  36.591  61.091  62.574
34889DT     BB126772  36.945  60.512  62.980
34889DT     BB226773  37.207  60.756  62.933
34889DT     BB326774  37.191  60.905  63.076
34889DT     SC126775  36.984  61.011  62.954
34889DT     SC226776  37.041  61.201  62.870
34889DT     SC326777  36.737  61.093  62.910
34890DA     BB126778  37.581  60.756  63.058
34890DA     BB226779  37.596  61.121  63.036
34890DA     BB326780  37.549  61.209  63.224
34890DA     SC126781  37.244  61.230  63.167
34890DA     SC226782  37.076  61.410  63.124
34890DA     SC326783  36.902  61.234  63.193
34890DA     SC426784  37.151  61.108  63.214
34891DC     BB126785  37.693  61.295  63.273
34891DC     BB226786  37.567  61.627  63.211
34891DC     BB326787  37.490  61.708  63.385
34891DC     SC126788  37.276  61.557  63.369
34891DC     SC226789  37.105  61.679  63.323
34891DC     SC326790  37.096  61.373  63.429
34892DA     BB126791  37.750  61.967  63.176
34892DA     BB226792  37.444  62.149  63.263
34892DA     BB326793  37.430  62.175  63.474
34892DA     SC126794  37.273  61.910  63.521
34892DA     SC226795  37.042  61.842  63.588
34892DA     SC326796  37.148  61.617  63.649
34892DA     SC426797  37.358  61.778  63.554
34893DT     BB126798  37.436  62.348  63.510
34893DT     BB226799  37.090  62.388  63.601
34893DT     BB326800  37.069  62.374  63.807
34893DT     SC126801  37.102  62.114  63.800
34893DT     SC226802  36.916  62.018  63.849
34893DT     SC326803  37.207  61.876  63.843
34894DG     BB126804  36.914  62.726  63.670
34894DG     BB226805  36.678  62.545  63.877
34894DG     BB326806  36.731  62.559  64.068
34894DG     SC126807  36.908  62.309  64.062
34894DG     SC226808  36.855  62.053  64.208
34894DG     SC326809  37.125  62.052  64.087
34894DG     SC426810  37.062  62.323  64.021
34895DA     BB126811  36.402  62.655  64.107
34895DA     BB226812  36.352  62.375  64.339
34895DA     BB326813  36.451  62.414  64.525
34895DA     SC126814  36.718  62.280  64.439
34895DA     SC226815  36.849  62.076  64.496
34895DA     SC326816  37.049  62.200  64.394
34895DA     SC426817  36.831  62.374  64.372
34896DT     BB126818  36.332  62.430  64.665
34896DT     BB226819  36.407  62.115  64.824
34896DT     BB326820  36.539  62.145  64.981
34896DT     SC126821  36.740  62.181  64.817
34896DT     SC226822  36.875  62.014  64.832
34896DT     SC326823  36.939  62.299  64.690
34897DA     BB126824  36.212  61.914  65.111
34897DA     BB226825  36.520  61.751  65.223
34897DA     BB326826  36.613  61.866  65.377
34897DA     SC126827  36.787  62.033  65.181
34897DA     SC226828  37.028  62.055  65.120
34897DA     SC326829  36.963  62.284  65.025
34897DA     SC426830  36.727  62.173  65.129
34898DA     BB126831  36.596  61.568  65.515
34898DA     BB226832  36.961  61.584  65.541
34898DA     BB326833  37.018  61.727  65.689
34898DA     SC126834  37.034  61.965  65.489
34898DA     SC226835  37.210  62.109  65.387
34898DA     SC326836  37.019  62.274  65.341
34898DA     SC426837  36.902  62.055  65.471
34899DT     BB126838  37.108  61.657  65.848
34899DT     BB226839  37.439  61.778  65.774
34899DT     BB326840  37.479  61.948  65.885
34899DT     SC126841  37.324  62.094  65.731
34899DT     SC226842  37.445  62.230  65.616
34899DT     SC326843  37.123  62.247  65.655
34900DA     BB126844  37.803  61.690  65.965
34900DA     BB226845  37.941  62.019  65.882
34900DA     BB326846  37.909  62.156  66.043
34900DA     SC126847  37.635  62.257  65.935
34900DA     SC226848  37.541  62.465  65.836
34900DA     SC326849  37.312  62.371  65.905
34900DA     SC426850  37.502  62.182  65.987
34901DA     BB126851  38.238  62.211  66.046
34901DA     BB226852  38.167  62.561  65.963
34901DA     BB326853  38.108  62.669  66.138
34901DA     SC126854  37.805  62.610  66.102
34901DA     SC226855  37.598  62.737  66.044
34901DA     SC326856  37.472  62.542  66.154
34901DA     SC426857  37.745  62.481  66.176
34902DA     BB126858  38.354  62.876  66.058
34902DA     BB226859  38.098  63.136  66.018
34902DA     BB326860  38.038  63.211  66.208
34902DA     SC126861  37.807  63.006  66.244
34902DA     SC226862  37.557  63.008  66.246
34902DA     SC326863  37.577  62.784  66.370
34902DA     SC426864  37.840  62.869  66.321
34903DC     BB126865  38.081  63.402  66.249
34903DC     BB226866  37.746  63.528  66.206
34903DC     BB326867  37.660  63.566  66.390
34903DC     SC126868  37.624  63.310  66.435
34903DC     SC226869  37.414  63.265  66.429
34903DC     SC326870  37.646  63.073  66.547
34904DA     BB126871  37.617  63.901  66.141
34904DA     BB226872  37.290  63.823  66.286
34904DA     BB326873  37.287  63.872  66.494
34904DA     SC126874  37.382  63.590  66.586
34904DA     SC226875  37.287  63.393  66.706
34904DA     SC326876  37.531  63.328  66.751
34904DA     SC426877  37.540  63.568  66.605
34905DG     BB126878  37.057  64.047  66.387
34905DG     BB226879  36.861  63.834  66.604
34905DG     BB326880  36.883  63.891  66.793
34905DG     SC126881  37.124  63.710  66.845
34905DG     SC226882  37.130  63.475  67.030
34905DG     SC326883  37.401  63.539  66.932
34905DG     SC426884  37.271  63.765  66.814
34906DT     BB126885  36.711  63.959  66.901
34906DT     BB226886  36.648  63.683  67.124
34906DT     BB326887  36.722  63.726  67.313
34906DT     SC126888  36.969  63.687  67.234
34906DT     SC226889  37.045  63.508  67.325
34906DT     SC326890  37.221  63.735  67.176
34907DT     BB126891  36.469  63.762  67.411
34907DT     BB226892  36.614  63.511  67.626
34907DT     BB326893  36.718  63.602  67.781
34907DT     SC126894  36.915  63.667  67.620
34907DT     SC226895  37.089  63.551  67.670
34907DT     SC326896  37.084  63.816  67.483
34908DA     BB126897  36.453  63.343  67.981
34908DA     BB226898  36.788  63.285  68.119
34908DA     BB326899  36.843  63.444  68.250
34908DA     SC126900  36.976  63.615  68.027
34908DA     SC226901  37.206  63.687  67.962
34908DA     SC326902  37.089  63.872  67.829
34908DA     SC426903  36.885  63.724  67.952
34909DA     BB126904  36.893  63.211  68.481
34909DA     BB226905  37.246  63.310  68.480
34909DA     BB326906  37.275  63.485  68.598
34909DA     SC126907  37.232  63.681  68.360
34909DA     SC226908  37.369  63.839  68.223
34909DA     SC326909  37.145  63.948  68.162
34909DA     SC426910  37.083  63.736  68.335
34910DA     BB126911  37.494  63.294  68.746
34910DA     BB226912  37.748  63.528  68.623
34910DA     BB326913  37.751  63.705  68.743
34910DA     SC126914  37.544  63.856  68.567
34910DA     SC226915  37.541  64.050  68.410
34910DA     SC326916  37.288  64.056  68.453
34910DA     SC426917  37.388  63.844  68.608
34911DT     BB126918  37.919  63.747  68.858
34911DT     BB226919  38.048  64.004  68.641
34911DT     BB326920  38.026  64.190  68.730
34911DT     SC126921  37.768  64.191  68.680
34911DT     SC226922  37.725  64.339  68.531
34911DT     SC326923  37.508  64.193  68.721
34912DA     BB126924  38.416  64.134  68.592
34912DA     BB226925  38.296  64.458  68.468
34912DA     BB326926  38.286  64.599  68.627
34912DA     SC126927  37.991  64.532  68.702
34912DA     SC226928  37.768  64.641  68.688
34912DA     SC326929  37.697  64.473  68.869
34912DA     SC426930  37.967  64.420  68.815
34913DG     BB126931  38.474  64.729  68.425
34913DG     BB226932  38.210  64.975  68.412
34913DG     BB326933  38.220  65.094  68.572
34913DG     SC126934  38.037  64.918  68.744
34913DG     SC226935  37.765  64.991  68.842
34913DG     SC326936  37.858  64.740  68.967
34913DG     SC426937  38.103  64.800  68.831
34914DT     BB126938  38.248  65.288  68.526
34914DT     BB226939  37.927  65.434  68.600
34914DT     BB326940  37.930  65.521  68.789
34914DT     SC126941  37.920  65.286  68.905
34914DT     SC226942  37.728  65.262  69.000
34914DT     SC326943  37.990  65.078  69.052
34915DA     BB126944  37.776  65.792  68.509
34915DA     BB226945  37.557  65.795  68.804
34915DA     BB326946  37.655  65.890  68.968
34915DA     SC126947  37.779  65.627  69.078
34915DA     SC226948  37.751  65.478  69.276
34915DA     SC326949  37.986  65.393  69.219
34915DA     SC426950  37.927  65.588  69.027
34916DG     BB126951  37.410  66.079  68.948
34916DG     BB226952  37.346  65.960  69.284
34916DG     BB326953  37.462  66.057  69.413
34916DG     SC126954  37.693  65.857  69.394
34916DG     SC226955  37.786  65.676  69.612
34916DG     SC326956  37.972  65.669  69.382
34916DG     SC426957  37.805  65.878  69.282
34917DA     BB126958  37.176  66.134  69.600
34917DA     BB226959  37.320  65.973  69.897
34917DA     BB326960  37.468  66.100  69.985
34917DA     SC126961  37.703  65.980  69.820
34917DA     SC226962  37.904  65.838  69.862
34917DA     SC326963  37.992  65.934  69.641
34917DA     SC426964  37.741  66.052  69.682
34918DT     BB126965  37.446  66.201  70.181
34918DT     BB226966  37.680  66.000  70.367
34918DT     BB326967  37.850  66.110  70.410
34918DT     SC126968  37.935  66.091  70.162
34918DT     SC226969  38.108  65.964  70.155
34918DT     SC326970  38.008  66.161  69.918
34919DA     BB126971  37.742  65.991  70.801
34919DA     BB226972  38.101  65.925  70.768
34919DA     BB326973  38.212  66.105  70.789
34919DA     SC126974  38.209  66.171  70.485
34919DA     SC226975  38.371  66.179  70.296
34919DA     SC326976  38.199  66.329  70.180
34919DA     SC426977  38.090  66.264  70.430
34920DG     BB126978  38.375  66.018  71.061
34920DG     BB226979  38.669  66.039  70.851
34920DG     BB326980  38.747  66.221  70.862
34920DG     SC126981  38.583  66.333  70.630
34920DG     SC226982  38.690  66.421  70.366
34920DG     SC326983  38.404  66.493  70.393
34920DG     SC426984  38.439  66.396  70.660
34921DT     BB126985  38.975  66.303  70.958
34921DT     BB226986  39.154  66.359  70.650
34921DT     BB326987  39.188  66.561  70.624
34921DT     SC126988  38.937  66.602  70.558
34921DT     SC226989  38.925  66.652  70.349
34921DT     SC326990  38.690  66.693  70.568
34922DT     BB126991  39.464  66.553  70.685
34922DT     BB226992  39.453  66.694  70.353
34922DT     BB326993  39.444  66.900  70.364
34922DT     SC126994  39.192  66.893  70.438
34922DT     SC226995  39.069  66.971  70.278
34922DT     SC326996  38.976  66.924  70.585
34923DG     BB126997  39.780  66.818  70.148
34923DG     BB226998  39.563  67.045  69.970
34923DG     BB326999  39.586  67.230  70.040
34923DG     SC127000  39.370  67.203  70.254
34923DG     SC227001  39.111  67.351  70.261
34923DG     SC327002  39.154  67.202  70.513
34923DG     SC427003  39.410  67.147  70.399
34924DA     BB127004  39.637  67.326  69.710
34924DA     BB227005  39.348  67.550  69.730
34924DA     BB327006  39.399  67.728  69.837
34924DA     SC127007  39.316  67.615  70.114
34924DA     SC227008  39.135  67.654  70.282
34924DA     SC327009  39.294  67.540  70.449
34924DA     SC427010  39.429  67.543  70.203
34925DA     BB127011  39.283  67.870  69.564
34925DA     BB227012  39.029  68.027  69.776
34925DA     BB327013  39.114  68.190  69.885
34925DA     SC127014  39.193  68.015  70.130
34925DA     SC227015  39.121  67.987  70.368
34925DA     SC327016  39.351  67.879  70.403
34925DA     SC427017  39.340  67.952  70.132
34926DT     BB127018  39.054  68.387  69.846
34926DT     BB227019  38.853  68.428  70.143
34926DT     BB327020  38.950  68.552  70.277
34926DT     SC127021  39.119  68.363  70.343
34926DT     SC227022  39.080  68.298  70.544
34926DT     SC327023  39.347  68.233  70.373
34927DT     BB127024  38.775  68.760  70.229
34927DT     BB227025  38.748  68.702  70.584
34927DT     BB327026  38.888  68.815  70.685
34927DT     SC127027  39.083  68.656  70.610
34927DT     SC227028  39.156  68.548  70.781
34927DT     SC327029  39.305  68.573  70.494
34928DT     BB127030  38.690  68.976  70.778
34928DT     BB227031  38.850  68.846  71.074
34928DT     BB327032  39.010  68.967  71.127
34928DT     SC127033  39.156  68.873  70.930
34928DT     SC227034  39.316  68.754  71.011
34928DT     SC327035  39.297  68.866  70.708
34929DT     BB127036  38.860  69.037  71.334
34929DT     BB227037  39.160  68.897  71.477
34929DT     BB327038  39.308  69.041  71.486
34929DT     SC127039  39.349  69.027  71.227
34929DT     SC227040  39.542  68.937  71.190
34929DT     SC327041  39.362  69.098  70.973
34930DA     BB127042  39.254  68.815  71.837
34930DA     BB227043  39.611  68.825  71.754
34930DA     BB327044  39.688  69.023  71.778
34930DA     SC127045  39.630  69.108  71.485
34930DA     SC227046  39.760  69.161  71.279
34930DA     SC327047  39.548  69.281  71.200
34930DA     SC427048  39.489  69.178  71.454
34931DT     BB127049  39.809  69.019  71.908
34931DT     BB227050  40.102  69.064  71.702
34931DT     BB327051  40.156  69.264  71.700
34931DT     SC127052  39.958  69.324  71.539
34931DT     SC227053  40.035  69.376  71.346
34931DT     SC327054  39.734  69.433  71.451
34932DA     BB127055  40.493  69.032  71.793
34932DA     BB227056  40.591  69.276  71.537
34932DA     BB327057  40.600  69.472  71.621
34932DA     SC127058  40.303  69.540  71.556
34932DA     SC227059  40.178  69.691  71.402
34932DA     SC327060  39.982  69.660  71.564
34932DA     SC427061  40.194  69.509  71.669
34933DA     BB127062  40.903  69.466  71.493
34933DA     BB227063  40.807  69.758  71.293
34933DA     BB327064  40.805  69.934  71.414
34933DA     SC127065  40.506  69.905  71.494
34933DA     SC227066  40.290  70.022  71.448
34933DA     SC327067  40.206  69.906  71.661
34933DA     SC427068  40.472  69.825  71.629
34934DC     BB127069  40.943  70.085  71.381
34934DC     BB227070  40.716  70.321  71.230
34934DC     BB327071  40.675  70.474  71.363
34934DC     SC127072  40.518  70.320  71.506
34934DC     SC227073  40.314  70.384  71.483
34934DC     SC327074  40.425  70.182  71.710
34935DT     BB127075  40.826  70.645  71.214
34935DT     BB227076  40.502  70.803  71.231
34935DT     BB327077  40.489  70.921  71.400
34935DT     SC127078  40.464  70.710  71.555
34935DT     SC227079  40.264  70.703  71.634
34935DT     SC327080  40.516  70.531  71.741
34936DA     BB127081  40.370  71.144  71.068
34936DA     BB227082  40.119  71.191  71.331
34936DA     BB327083  40.198  71.314  71.487
34936DA     SC127084  40.309  71.075  71.652
34936DA     SC227085  40.258  70.960  71.867
34936DA     SC327086  40.498  70.871  71.853
34936DA     SC427087  40.461  71.031  71.626
34937DA     BB127088  39.913  71.456  71.411
34937DA     BB227089  39.820  71.407  71.762
34937DA     BB327090  39.934  71.537  71.888
34937DA     SC127091  40.164  71.333  71.933
34937DA     SC227092  40.254  71.194  72.119
34937DA     SC327093  40.469  71.183  71.980
34937DA     SC427094  40.289  71.339  71.832
34938DT     BB127095  39.832  71.673  71.978
34938DT     BB227096  39.858  71.547  72.315
34938DT     BB327097  40.004  71.651  72.418
34938DT     SC127098  40.195  71.526  72.290
34938DT     SC227099  40.298  71.393  72.425
34938DT     SC327100  40.403  71.484  72.133
34939DT     BB127101  39.824  71.804  72.570
34939DT     BB227102  40.045  71.669  72.821
34939DT     BB327103  40.205  71.797  72.850
34939DT     SC127104  40.315  71.723  72.624
34939DT     SC227105  40.493  71.609  72.666
34939DT     SC327106  40.411  71.735  72.379
34940DC     BB127107  40.138  71.955  73.106
34940DC     BB227108  40.473  71.841  73.178
34940DC     BB327109  40.610  71.989  73.131
34940DC     SC127110  40.582  71.943  72.874
34940DC     SC227111  40.763  71.855  72.797
34940DC     SC327112  40.524  71.983  72.620
34941DT     BB127113  40.700  72.146  73.398
34941DT     BB227114  41.019  72.053  73.259
34941DT     BB327115  41.103  72.214  73.161
34941DT     SC127116  40.937  72.189  72.959
34941DT     SC227117  41.046  72.121  72.786
34941DT     SC327118  40.746  72.245  72.786
34942DA     BB127119  41.428  72.153  73.430
34942DA     BB227120  41.574  72.162  73.094
34942DA     BB327121  41.605  72.364  73.032
34942DA     SC127122  41.326  72.390  72.897
34942DA     SC227123  41.233  72.410  72.667
34942DA     SC327124  41.024  72.504  72.781
34942DA     SC427125  41.205  72.448  72.987
34943DG     BB127126  41.918  72.314  73.014
34943DG     BB227127  41.862  72.357  72.659
34943DG     BB327128  41.880  72.549  72.610
34943DG     SC127129  41.585  72.614  72.658
34943DG     SC227130  41.387  72.692  72.448
34943DG     SC327131  41.272  72.725  72.719
34943DG     SC427132  41.538  72.658  72.804
34944DT     BB127133  42.040  72.622  72.467
34944DT     BB227134  41.843  72.676  72.170
34944DT     BB327135  41.816  72.879  72.138
34944DT     SC127136  41.641  72.894  72.333
34944DT     SC227137  41.446  72.931  72.250
34944DT     SC327138  41.530  72.964  72.562
34945DA     BB127139  41.958  72.707  71.784
34945DA     BB227140  41.666  72.912  71.701
34945DA     BB327141  41.715  73.119  71.712
34945DA     SC127142  41.634  73.147  72.011
34945DA     SC227143  41.454  73.256  72.145
34945DA     SC327144  41.616  73.234  72.343
34945DA     SC427145  41.749  73.125  72.122
34946DG     BB127146  41.636  73.121  71.411
34946DG     BB227147  41.374  73.342  71.527
34946DG     BB327148  41.444  73.527  71.544
34946DG     SC127149  41.534  73.493  71.834
34946DG     SC227150  41.417  73.632  72.072
34946DG     SC327151  41.663  73.485  72.146
34946DG     SC427152  41.681  73.438  71.864
34947DG     BB127153  41.219  73.642  71.328
34947DG     BB227154  41.089  73.840  71.601
34947DG     BB327155  41.191  74.011  71.616
34947DG     SC127156  41.402  73.898  71.807
34947DG     SC227157  41.440  73.977  72.092
34947DG     SC327158  41.660  73.801  72.001
34947DG     SC427159  41.532  73.828  71.746
34948DT     BB127160  41.103  74.234  71.582
34948DT     BB227161  41.079  74.345  71.925
34948DT     BB327162  41.223  74.488  71.963
34948DT     SC127163  41.413  74.308  71.969
34948DT     SC227164  41.486  74.287  72.171
34948DT     SC327165  41.632  74.175  71.904
34949DA     BB127166  40.858  74.653  72.081
34949DA     BB227167  41.093  74.688  72.361
34949DA     BB327168  41.232  74.846  72.322
34949DA     SC127169  41.441  74.660  72.185
34949DA     SC227170  41.668  74.571  72.235
34949DA     SC327171  41.685  74.529  71.982
34949DA     SC427172  41.432  74.644  72.025
34950DG     BB127173  41.098  74.937  72.579
34950DG     BB227174  41.429  74.879  72.711
34950DG     BB327175  41.548  75.032  72.667
34950DG     SC127176  41.642  74.916  72.400
34950DG     SC227177  41.919  74.825  72.336
34950DG     SC327178  41.750  74.829  72.093
34950DG     SC427179  41.557  74.948  72.268
34951DG     BB127180  41.574  75.008  72.984
34951DG     BB227181  41.923  74.941  72.918
34951DG     BB327182  42.017  75.110  72.871
34951DG     SC127183  41.963  75.085  72.571
34951DG     SC227184  42.168  75.040  72.358
34951DG     SC327185  41.904  75.101  72.239
34951DG     SC427186  41.828  75.147  72.511
34952DG     BB127187  42.191  74.988  73.112
34952DG     BB227188  42.462  74.988  72.872
34952DG     BB327189  42.525  75.173  72.841
34952DG     SC127190  42.331  75.226  72.610
34952DG     SC227191  42.406  75.268  72.324
34952DG     SC327192  42.119  75.324  72.367
34952DG     SC427193  42.186  75.284  72.642
34953DT     BB127194  42.714  75.193  72.888
34953DT     BB227195  42.875  75.234  72.567
34953DT     BB327196  42.896  75.436  72.524
34953DT     SC127197  42.640  75.458  72.468
34953DT     SC227198  42.616  75.491  72.257
34953DT     SC327199  42.389  75.536  72.484
34954DT     BB127200  43.156  75.402  72.567
34954DT     BB227201  43.136  75.548  72.238
34954DT     BB327202  43.120  75.754  72.253
34954DT     SC127203  42.870  75.738  72.329
34954DT     SC227204  42.743  75.813  72.173
34954DT     SC327205  42.654  75.758  72.480
34955DT     BB127206  43.379  75.789  72.168
34955DT     BB227207  43.186  75.995  71.944
34955DT     BB327208  43.161  76.184  72.025
34955DT     SC127209  42.983  76.095  72.196
34955DT     SC227210  42.789  76.172  72.143
34955DT     SC327211  42.868  76.033  72.425
34956DT     BB127212  43.347  76.311  71.856
34956DT     BB227213  43.045  76.505  71.810
34956DT     BB327214  43.040  76.661  71.946
34956DT     SC127215  42.981  76.498  72.143
34956DT     SC227216  42.778  76.533  72.206
34956DT     SC327217  43.001  76.364  72.369
34957DA     BB127218  42.990  76.859  71.579
34957DA     BB227219  42.730  76.984  71.805
34957DA     BB327220  42.812  77.124  71.943
34957DA     SC127221  42.878  76.908  72.158
34957DA     SC227222  42.797  76.842  72.385
34957DA     SC327223  43.023  76.724  72.409
34957DA     SC427224  43.025  76.842  72.155
34958DT     BB127225  42.764  77.337  71.943
34958DT     BB227226  42.552  77.332  72.235
34958DT     BB327227  42.647  77.427  72.393
34958DT     SC127228  42.808  77.223  72.429
34958DT     SC227229  42.758  77.125  72.614
34958DT     SC327230  43.030  77.081  72.443
34959DT     BB127231  42.484  77.652  72.379
34959DT     BB227232  42.444  77.536  72.719
34959DT     BB327233  42.585  77.625  72.841
34959DT     SC127234  42.775  77.471  72.745
34959DT     SC227235  42.838  77.332  72.897
34959DT     SC327236  42.996  77.397  72.621
34960DG     BB127237  42.226  77.732  73.001
34960DG     BB227238  42.440  77.583  73.251
34960DG     BB327239  42.572  77.717  73.316
34960DG     SC127240  42.783  77.649  73.105
34960DG     SC227241  43.049  77.523  73.157
34960DG     SC327242  43.028  77.614  72.876
34960DG     SC427243  42.779  77.725  72.964
34961DG     BB127244  42.462  77.683  73.626
34961DG     BB227245  42.793  77.561  73.708
34961DG     BB327246  42.914  77.714  73.747
34961DG     SC127247  43.005  77.747  73.456
34961DG     SC227248  43.281  77.697  73.353
34961DG     SC327249  43.112  77.825  73.146
34961DG     SC427250  42.921  77.842  73.359
34962DT     BB127251  43.006  77.739  73.947
34962DT     BB227252  43.347  77.640  73.881
34962DT     BB327253  43.469  77.807  73.871
34962DT     SC127254  43.376  77.870  73.634
34962DT     SC227255  43.530  77.841  73.487
34962DT     SC327256  43.255  78.007  73.444
34963DG     BB127257  43.615  77.559  74.159
34963DG     BB227258  43.871  77.652  73.921
34963DG     BB327259  43.935  77.836  73.958
34963DG     SC127260  43.728  77.971  73.777
34963DG     SC227261  43.786  78.119  73.525
34963DG     SC327262  43.503  78.153  73.604
34963DG     SC427263  43.586  78.011  73.839
34964DA     BB127264  44.252  77.696  73.952
34964DA     BB227265  44.348  77.924  73.681
34964DA     BB327266  44.379  78.121  73.758
34964DA     SC127267  44.084  78.211  73.713
34964DA     SC227268  43.960  78.368  73.564
34964DA     SC327269  43.775  78.357  73.742
34964DA     SC427270  43.982  78.192  73.836
34965DA     BB127271  44.669  78.084  73.605
34965DA     BB227272  44.580  78.378  73.404
34965DA     BB327273  44.601  78.556  73.519
34965DA     SC127274  44.308  78.553  73.622
34965DA     SC227275  44.099  78.686  73.589
34965DA     SC327276  44.022  78.583  73.811
34965DA     SC427277  44.279  78.480  73.762
34966DT     BB127278  44.750  78.699  73.475
34966DT     BB227279  44.532  78.951  73.336
34966DT     BB327280  44.512  79.108  73.470
34966DT     SC127281  44.353  78.966  73.624
34966DT     SC227282  44.154  79.046  73.613
34966DT     SC327283  44.263  78.837  73.836
34967DA     BB127284  44.638  79.304  73.119
34967DA     BB227285  44.347  79.487  73.245
34967DA     BB327286  44.402  79.608  73.412
34967DA     SC127287  44.340  79.389  73.623
34967DA     SC227288  44.171  79.347  73.802
34967DA     SC327289  44.344  79.184  73.899
34967DA     SC427290  44.461  79.293  73.668
34968DA     BB127291  44.280  79.875  73.249
34968DA     BB227292  44.034  79.912  73.518
34968DA     BB327293  44.121  80.014  73.684
34968DA     SC127294  44.217  79.754  73.825
34968DA     SC227295  44.160  79.622  74.029
34968DA     SC327296  44.394  79.519  74.003
34968DA     SC427297  44.366  79.703  73.793
34969DA     BB127298  43.871  80.230  73.655
34969DA     BB227299  43.761  80.123  73.988
34969DA     BB327300  43.876  80.221  74.139
34969DA     SC127301  44.093  79.998  74.153
34969DA     SC227302  44.167  79.823  74.314
34969DA     SC327303  44.388  79.825  74.182
34969DA     SC427304  44.223  80.016  74.060
34970DC     BB127305  43.783  80.356  74.268
34970DC     BB227306  43.771  80.135  74.553
34970DC     BB327307  43.909  80.195  74.695
34970DC     SC127308  44.109  80.103  74.553
34970DC     SC227309  44.193  79.931  74.651
34970DC     SC327310  44.330  80.098  74.410
34971DA     BB127311  43.531  80.138  74.868
34971DA     BB227312  43.779  79.953  75.066
34971DA     BB327313  43.901  80.088  75.176
34971DA     SC127314  44.117  80.114  74.953
34971DA     SC227315  44.353  80.045  74.916
34971DA     SC327316  44.358  80.229  74.737
34971DA     SC427317  44.100  80.234  74.847
34972DT     BB127318  43.877  80.063  75.355
34972DT     BB227319  44.190  79.896  75.418
34972DT     BB327320  44.328  80.031  75.494
34972DT     SC127321  44.362  80.141  75.258
34972DT     SC227322  44.559  80.093  75.185
34972DT     SC327323  44.362  80.321  75.065
34973DT     BB127324  44.298  79.895  75.716
34973DT     BB227325  44.650  79.876  75.638
34973DT     BB327326  44.746  80.048  75.702
34973DT     SC127327  44.645  80.187  75.504
34973DT     SC227328  44.803  80.239  75.367
34973DT     SC327329  44.506  80.370  75.375
34974DC     BB127330  44.854  79.888  75.880
34974DC     BB227331  45.131  80.034  75.701
34974DC     BB327332  45.172  80.222  75.777
34974DC     SC127333  44.961  80.324  75.659
34974DC     SC227334  45.024  80.455  75.500
34974DC     SC327335  44.726  80.441  75.628
34975DA     BB127336  45.521  79.990  75.748
34975DA     BB227337  45.586  80.318  75.598
34975DA     BB327338  45.592  80.469  75.749
34975DA     SC127339  45.289  80.534  75.730
34975DA     SC227340  45.145  80.722  75.651
34975DA     SC327341  44.963  80.618  75.799
34975DA     SC427342  45.189  80.455  75.829
34976DT     BB127343  45.758  80.543  75.759
34976DT     BB227344  45.676  80.861  75.609
34976DT     BB327345  45.643  81.002  75.756
34976DT     SC127346  45.409  80.898  75.814
34976DT     SC227347  45.254  81.034  75.752
34976DT     SC327348  45.217  80.780  75.950
34977DA     BB127349  45.907  81.145  75.461
34977DA     BB227350  45.653  81.401  75.525
34977DA     BB327351  45.679  81.485  75.719
34977DA     SC127352  45.491  81.280  75.859
34977DA     SC227353  45.267  81.280  75.969
34977DA     SC327354  45.344  81.063  76.081
34977DA     SC427355  45.558  81.147  75.920
34978DA     BB127356  45.666  81.748  75.523
34978DA     BB227357  45.380  81.855  75.727
34978DA     BB327358  45.445  81.912  75.922
34978DA     SC127359  45.409  81.627  76.043
34978DA     SC227360  45.258  81.513  76.205
34978DA     SC327361  45.443  81.337  76.223
34978DA     SC427362  45.536  81.529  76.041
34979DT     BB127363  45.424  82.098  75.966
34979DT     BB227364  45.154  82.064  76.202
34979DT     BB327365  45.227  82.072  76.396
34979DT     SC127366  45.325  81.829  76.378
34979DT     SC227367  45.212  81.697  76.505
34979DT     SC327368  45.500  81.632  76.370
34980DT     BB127369  45.125  82.323  76.433
34980DT     BB227370  44.991  82.133  76.708
34980DT     BB327371  45.125  82.132  76.866
34980DT     SC127372  45.282  81.961  76.743
34980DT     SC227373  45.275  81.772  76.844
34980DT     SC327374  45.494  81.861  76.623
34981DT     BB127375  44.984  82.315  77.028
34981DT     BB227376  45.027  82.028  77.242
34981DT     BB327377  45.203  82.046  77.350
34981DT     SC127378  45.347  81.988  77.138
34981DT     SC227379  45.437  81.794  77.164
34981DT     SC327380  45.520  82.014  76.941
34982DT     BB127381  45.078  82.107  77.593
34982DT     BB227382  45.279  81.817  77.669
34982DT     BB327383  45.467  81.876  77.731
34982DT     SC127384  45.538  81.938  77.486
34982DT     SC227385  45.685  81.798  77.417
34982DT     SC327386  45.614  82.082  77.279
34983DT     BB127387  45.412  81.806  77.989
34983DT     BB227388  45.705  81.613  77.905
34983DT     BB327389  45.876  81.724  77.944
34983DT     SC127390  45.836  81.874  77.732
34983DT     SC227391  45.987  81.830  77.585
34983DT     SC327392  45.790  82.087  77.584
34984DT     BB127393  45.926  81.562  78.153
34984DT     BB227394  46.220  81.538  77.945
34984DT     BB327395  46.351  81.693  77.990
34984DT     SC127396  46.200  81.867  77.864
34984DT     SC227397  46.300  81.932  77.685
34984DT     SC327398  46.044  82.075  77.823
34985DG     BB127399  46.556  81.344  78.047
34985DG     BB227400  46.737  81.569  77.830
34985DG     BB327401  46.824  81.712  77.938
34985DG     SC127402  46.586  81.903  77.925
34985DG     SC227403  46.579  82.166  77.784
34985DG     SC327404  46.336  82.128  77.947
34985DG     SC427405  46.471  81.892  78.036
34986DT     BB127406  47.052  81.740  77.953
34986DT     BB227407  47.101  82.034  77.750
34986DT     BB327408  47.135  82.199  77.870
34986DT     SC127409  46.882  82.211  77.938
34986DT     SC227410  46.793  82.386  77.850
34986DT     SC327411  46.664  82.207  78.087
34987DA     BB127412  47.475  82.208  77.620
34987DA     BB227413  47.331  82.545  77.618
34987DA     BB327414  47.380  82.648  77.799
34987DA     SC127415  47.127  82.553  77.952
34987DA     SC227416  46.916  82.653  78.039
34987DA     SC327417  46.905  82.447  78.191
34987DA     SC427418  47.139  82.419  78.039
34988DT     BB127419  47.526  82.839  77.829
34988DT     BB227420  47.258  83.077  77.868
34988DT     BB327421  47.257  83.151  78.061
34988DT     SC127422  47.157  82.928  78.155
34988DT     SC227423  46.954  82.963  78.220
34988DT     SC327424  47.136  82.704  78.293
34989DA     BB127425  47.279  83.501  77.829
34989DA     BB227426  46.990  83.534  78.054
34989DA     BB327427  47.055  83.588  78.250
34989DA     SC127428  47.083  83.295  78.349
34989DA     SC227429  46.967  83.142  78.508
34989DA     SC327430  47.184  83.006  78.504
34989DA     SC427431  47.227  83.225  78.333
34990DA     BB127432  46.839  83.810  78.172
34990DA     BB227433  46.635  83.662  78.439
34990DA     BB327434  46.708  83.722  78.630
34990DA     SC127435  46.900  83.479  78.659
34990DA     SC227436  46.917  83.273  78.798
34990DA     SC327437  47.166  83.274  78.732
34990DA     SC427438  47.052  83.498  78.608
34991DC     BB127439  46.575  83.806  78.696
34991DC     BB227440  46.469  83.544  78.920
34991DC     BB327441  46.547  83.578  79.109
34991DC     SC127442  46.786  83.502  79.033
34991DC     SC227443  46.835  83.314  79.126
34991DC     SC327444  47.044  83.512  78.977
34992DA     BB127445  46.140  83.464  79.072
34992DA     BB227446  46.301  83.260  79.331
34992DA     BB327447  46.357  83.382  79.497
34992DA     SC127448  46.641  83.443  79.387
34992DA     SC227449  46.877  83.386  79.442
34992DA     SC327450  46.939  83.593  79.304
34992DA     SC427451  46.659  83.576  79.298
34993DT     BB127452  46.263  83.321  79.628
34993DT     BB227453  46.533  83.169  79.814
34993DT     BB327454  46.607  83.303  79.953
34993DT     SC127455  46.730  83.441  79.767
34993DT     SC227456  46.942  83.416  79.788
34993DT     SC327457  46.795  83.643  79.610
34994DT     BB127458  46.492  83.151  80.141
34994DT     BB227459  46.838  83.174  80.241
34994DT     BB327460  46.869  83.347  80.349
34994DT     SC127461  46.857  83.494  80.132
34994DT     SC227462  47.052  83.574  80.089
34994DT     SC327463  46.773  83.674  79.958
34995DG     BB127464  46.979  83.049  80.606
34995DG     BB227465  47.237  83.301  80.583
34995DG     BB327466  47.191  83.456  80.698
34995DG     SC127467  47.037  83.605  80.479
34995DG     SC227468  47.118  83.862  80.352
34995DG     SC327469  46.845  83.785  80.269
34995DG     SC427470  46.881  83.575  80.460
34996DA     BB127471  47.502  83.435  80.856
34996DA     BB227472  47.587  83.774  80.747
34996DA     BB327473  47.494  83.918  80.873
34996DA     SC127474  47.236  83.940  80.700
34996DA     SC227475  47.128  84.108  80.551
34996DA     SC327476  46.913  83.974  80.591
34996DA     SC427477  47.113  83.844  80.738
34997DC     BB127478  47.612  84.037  80.991
34997DC     BB227479  47.576  84.338  80.796
34997DC     BB327480  47.452  84.472  80.894
34997DC     SC127481  47.239  84.332  80.832
34997DC     SC227482  47.120  84.441  80.690
34997DC     SC327483  47.022  84.184  80.861
34998DA     BB127484  47.806  84.658  80.772
34998DA     BB227485  47.524  84.869  80.670
34998DA     BB327486  47.435  84.962  80.840
34998DA     SC127487  47.230  84.733  80.889
34998DA     SC227488  46.984  84.698  80.870
34998DA     SC327489  47.020  84.500  81.030
34998DA     SC427490  47.273  84.615  80.990
34999DA     BB127491  47.491  85.196  80.621
34999DA     BB227492  47.131  85.266  80.641
34999DA     BB327493  47.082  85.347  80.832
34999DA     SC127494  47.024  85.070  80.962
34999DA     SC227495  46.826  84.943  81.045
34999DA     SC327496  46.996  84.804  81.178
34999DA     SC427497  47.145  84.996  81.037
35000DT     BB127498  47.023  85.512  80.809
35000DT     BB227499  46.677  85.459  80.898
35000DT     BB327500  46.648  85.503  81.098
35000DT     SC127501  46.765  85.281  81.172
35000DT     SC227502  46.619  85.147  81.256
35000DT     SC327503  46.941  85.118  81.283
35001DT     BB127504  46.518  85.731  81.028
35001DT     BB227505  46.290  85.565  81.253
35001DT     BB327506  46.336  85.613  81.449
35001DT     SC127507  46.546  85.455  81.446
35001DT     SC227508  46.509  85.285  81.573
35001DT     SC327509  46.797  85.376  81.455
35002DT     BB127510  46.124  85.797  81.492
35002DT     BB227511  46.090  85.566  81.767
35002DT     BB327512  46.199  85.633  81.930
35002DT     SC127513  46.425  85.563  81.817
35002DT     SC227514  46.509  85.395  81.923
35002DT     SC327515  46.665  85.581  81.709
35003DC     BB127516  45.983  85.734  82.095
35003DC     BB227517  46.151  85.501  82.313
35003DC     BB327518  46.292  85.600  82.427
35003DC     SC127519  46.455  85.623  82.223
35003DC     SC227520  46.626  85.497  82.254
35003DC     SC327521  46.601  85.733  82.033
35004DT     BB127522  46.147  85.595  82.672
35004DT     BB227523  46.459  85.432  82.753
35004DT     BB327524  46.594  85.571  82.825
35004DT     SC127525  46.635  85.668  82.584
35004DT     SC227526  46.834  85.617  82.520
35004DT     SC327527  46.640  85.838  82.383
35005DT     BB127528  46.570  85.470  83.077
35005DT     BB227529  46.921  85.438  82.999
35005DT     BB327530  47.021  85.612  83.051
35005DT     SC127531  46.923  85.740  82.844
35005DT     SC227532  47.080  85.779  82.703
35005DT     SC327533  46.787  85.916  82.703
35006DT     BB127534  47.130  85.468  83.244
35006DT     BB227535  47.408  85.593  83.051
35006DT     BB327536  47.457  85.785  83.113
35006DT     SC127537  47.246  85.885  82.992
35006DT     SC227538  47.310  86.002  82.823
35006DT     SC327539  47.015  86.006  82.956
35007DG     BB127540  47.782  85.540  83.134
35007DG     BB227541  47.853  85.843  82.951
35007DG     BB327542  47.871  85.996  83.077
35007DG     SC127543  47.575  86.070  83.069
35007DG     SC227544  47.459  86.320  82.953
35007DG     SC327545  47.253  86.166  83.099
35007DG     SC427546  47.474  86.000  83.172
35008DT     BB127547  48.060  86.100  83.091
35008DT     BB227548  47.987  86.415  82.930
35008DT     BB327549  47.954  86.561  83.073
35008DT     SC127550  47.716  86.463  83.128
35008DT     SC227551  47.565  86.600  83.059
35008DT     SC327552  47.519  86.352  83.263
35009DA     BB127553  48.257  86.735  82.837
35009DA     BB227554  47.998  86.990  82.885
35009DA     BB327555  48.009  87.071  83.082
35009DA     SC127556  47.811  86.864  83.204
35009DA     SC227557  47.580  86.863  83.296
35009DA     SC327558  47.648  86.644  83.411
35009DA     SC427559  47.873  86.730  83.268
35010DT     BB127560  48.079  87.292  83.156
35010DT     BB227561  47.748  87.412  83.235
35010DT     BB327562  47.730  87.439  83.440
35010DT     SC127563  47.714  87.180  83.480
35010DT     SC227564  47.514  87.130  83.543
35010DT     SC327565  47.774  86.938  83.565
35011DA     BB127566  47.632  87.837  83.328
35011DA     BB227567  47.365  87.726  83.555
35011DA     BB327568  47.427  87.748  83.758
35011DA     SC127569  47.547  87.462  83.778
35011DA     SC227570  47.494  87.247  83.893
35011DA     SC327571  47.740  87.188  83.852
35011DA     SC427572  47.703  87.444  83.744
35012DA     BB127573  47.158  87.939  83.817
35012DA     BB227574  47.039  87.679  84.045
35012DA     BB327575  47.127  87.703  84.238
35012DA     SC127576  47.371  87.520  84.176
35012DA     SC227577  47.455  87.296  84.246
35012DA     SC327578  47.683  87.378  84.161
35012DA     SC427579  47.504  87.590  84.119
35013DA     BB127580  46.816  87.707  84.345
35013DA     BB227581  46.892  87.400  84.529
35013DA     BB327582  46.994  87.445  84.711
35013DA     SC127583  47.278  87.425  84.585
35013DA     SC227584  47.475  87.273  84.597
35013DA     SC327585  47.608  87.471  84.504
35013DA     SC427586  47.343  87.560  84.528
35014DA     BB127587  46.749  87.267  84.831
35014DA     BB227588  47.004  87.030  84.947
35014DA     BB327589  47.100  87.105  85.122
35014DA     SC127590  47.325  87.251  84.965
35014DA     SC227591  47.571  87.227  84.928
35014DA     SC327592  47.564  87.473  84.858
35014DA     SC427593  47.301  87.405  84.926
35015DA     BB127594  47.007  86.810  85.224
35015DA     BB227595  47.362  86.737  85.273
35015DA     BB327596  47.435  86.836  85.448
35015DA     SC127597  47.521  87.093  85.296
35015DA     SC227598  47.734  87.207  85.231
35015DA     SC327599  47.589  87.417  85.205
35015DA     SC427600  47.415  87.213  85.286
35016DC     BB127601  47.492  86.719  85.596
35016DC     BB227602  47.847  86.766  85.553
35016DC     BB327603  47.920  86.893  85.699
35016DC     SC127604  47.815  87.102  85.580
35016DC     SC227605  47.973  87.224  85.499
35016DC     SC327606  47.664  87.314  85.539
35017DG     BB127607  48.124  86.542  85.718
35017DG     BB227608  48.348  86.824  85.695
35017DG     BB327609  48.363  86.914  85.872
35017DG     SC127610  48.129  87.105  85.822
35017DG     SC227611  48.148  87.401  85.792
35017DG     SC327612  47.866  87.315  85.809
35017DG     SC427613  47.981  87.058  85.861
35018DA     BB127614  48.699  86.882  85.811
35018DA     BB227615  48.737  87.246  85.837
35018DA     BB327616  48.723  87.307  86.041
35018DA     SC127617  48.416  87.352  86.032
35018DA     SC227618  48.257  87.544  86.039
35018DA     SC327619  48.081  87.370  86.107
35018DA     SC427620  48.321  87.229  86.075
35019DC     BB127621  48.883  87.381  86.105
35019DC     BB227622  48.777  87.725  86.115
35019DC     BB327623  48.728  87.778  86.309
35019DC     SC127624  48.502  87.644  86.297
35019DC     SC227625  48.337  87.781  86.296
35019DC     SC327626  48.319  87.462  86.351
35020DT     BB127627  48.945  87.924  86.292
35020DT     BB227628  48.682  88.155  86.380
35020DT     BB327629  48.647  88.149  86.584
35020DT     SC127630  48.523  87.918  86.563
35020DT     SC227631  48.314  87.946  86.603
35020DT     SC327632  48.469  87.662  86.594
35021DT     BB127633  48.756  88.388  86.585
35021DT     BB227634  48.434  88.431  86.742
35021DT     BB327635  48.444  88.375  86.941
35021DT     SC127636  48.450  88.121  86.878
35021DT     SC227637  48.265  88.029  86.938
35021DT     SC327638  48.536  87.873  86.853
35022DA     BB127639  48.274  88.760  86.932
35022DA     BB227640  48.071  88.552  87.156
35022DA     BB327641  48.176  88.515  87.338
35022DA     SC127642  48.310  88.254  87.236
35022DA     SC227643  48.294  88.009  87.281
35022DA     SC327644  48.527  87.995  87.175
35022DA     SC427645  48.455  88.266  87.169
35023DT     BB127646  48.111  88.596  87.522
35023DT     BB227647  47.986  88.289  87.665
35023DT     BB327648  48.116  88.223  87.813
35023DT     SC127649  48.290  88.142  87.634
35023DT     SC227650  48.297  87.927  87.634
35023DT     SC327651  48.514  88.124  87.497
35024DA     BB127652  47.742  88.237  88.006
35024DA     BB227653  47.891  87.909  88.077
35024DA     BB327654  48.046  87.928  88.223
35024DA     SC127655  48.271  87.971  88.012
35024DA     SC227656  48.468  87.845  87.925
35024DA     SC327657  48.552  88.074  87.844
35024DA     SC427658  48.307  88.122  87.971
35025DT     BB127659  48.029  87.845  88.419
35025DT     BB227660  48.253  87.568  88.366
35025DT     BB327661  48.431  87.601  88.468
35025DT     SC127662  48.509  87.778  88.292
35025DT     SC227663  48.674  87.699  88.179
35025DT     SC327664  48.582  88.010  88.188
35026DT     BB127665  48.368  87.410  88.655
35026DT     BB227666  48.684  87.301  88.519
35026DT     BB327667  48.840  87.388  88.624
35026DT     SC127668  48.799  87.620  88.509
35026DT     SC227669  48.962  87.664  88.376
35026DT     SC327670  48.740  87.876  88.479
35027DA     BB127671  48.910  86.975  88.614
35027DA     BB227672  49.218  87.144  88.509
35027DA     BB327673  49.314  87.235  88.677
35027DA     SC127674  49.167  87.507  88.645
35027DA     SC227675  49.224  87.741  88.579
35027DA     SC327676  49.008  87.806  88.700
35027DA     SC427677  49.030  87.528  88.726
35028DC     BB127678  49.490  87.161  88.729
35028DC     BB227679  49.690  87.435  88.606
35028DC     BB327680  49.752  87.554  88.763
35028DC     SC127681  49.513  87.658  88.790
35028DC     SC227682  49.519  87.865  88.729
35028DC     SC327683  49.281  87.722  88.897
35029DC     BB127684  50.004  87.459  88.732
35029DC     BB227685  50.037  87.817  88.702
35029DC     BB327686  50.059  87.902  88.890
35029DC     SC127687  49.805  87.867  88.944
35029DC     SC227688  49.707  88.058  88.950
35029DC     SC327689  49.586  87.779  89.062
35030DA     BB127690  50.375  88.045  88.653
35030DA     BB227691  50.219  88.332  88.819
35030DA     BB327692  50.270  88.335  89.026
35030DA     SC127693  50.024  88.166  89.113
35030DA     SC227694  49.812  88.201  89.240
35030DA     SC327695  49.812  87.946  89.270
35030DA     SC427696  50.043  88.007  89.123
35031DA     BB127697  50.366  88.640  88.949
35031DA     BB227698  50.117  88.759  89.191
35031DA     BB327699  50.187  88.729  89.390
35031DA     SC127700  50.061  88.446  89.418
35031DA     SC227701  49.875  88.338  89.544
35031DA     SC327702  49.998  88.118  89.497
35031DA     SC427703  50.153  88.319  89.379
35032DA     BB127704  50.115  89.049  89.404
35032DA     BB227705  49.874  88.962  89.666
35032DA     BB327706  49.975  88.917  89.848
35032DA     SC127707  50.001  88.613  89.788
35032DA     SC227708  49.905  88.399  89.874
35032DA     SC327709  50.108  88.288  89.764
35032DA     SC427710  50.134  88.563  89.714
35033DA     BB127711  49.763  89.145  89.953
35033DA     BB227712  49.629  88.886  90.175
35033DA     BB327713  49.764  88.849  90.336
35033DA     SC127714  49.918  88.624  90.187
35033DA     SC227715  49.945  88.376  90.203
35033DA     SC327716  50.160  88.411  90.067
35033DA     SC427717  50.048  88.666  90.103
35034DA     BB127718  49.493  88.909  90.514
35034DA     BB227719  49.527  88.569  90.645
35034DA     BB327720  49.685  88.560  90.788
35034DA     SC127721  49.902  88.487  90.577
35034DA     SC227722  50.042  88.289  90.517
35034DA     SC327723  50.194  88.458  90.398
35034DA     SC427724  49.985  88.608  90.510
35035DA     BB127725  49.449  88.433  90.980
35035DA     BB227726  49.653  88.129  90.998
35035DA     BB327727  49.818  88.158  91.130
35035DA     SC127728  50.010  88.259  90.906
35035DA     SC227729  50.213  88.177  90.787
35035DA     SC327730  50.251  88.424  90.726
35035DA     SC427731  50.017  88.417  90.880
35036DA     BB127732  49.702  87.888  91.281
35036DA     BB227733  50.020  87.726  91.197
35036DA     BB327734  50.174  87.791  91.329
35036DA     SC127735  50.261  88.029  91.149
35036DA     SC227736  50.457  88.091  91.007
35036DA     SC327737  50.372  88.332  91.030
35036DA     SC427738  50.193  88.172  91.176
35037DA     BB127739  50.213  87.469  91.384
35037DA     BB227740  50.551  87.505  91.245
35037DA     BB327741  50.681  87.593  91.389
35037DA     SC127742  50.625  87.885  91.298
35037DA     SC227743  50.747  88.070  91.183
35037DA     SC327744  50.571  88.224  91.288
35037DA     SC427745  50.507  87.965  91.373
35038DA     BB127746  50.851  87.325  91.314
35038DA     BB227747  51.111  87.552  91.189
35038DA     BB327748  51.217  87.640  91.352
35038DA     SC127749  51.028  87.886  91.373
35038DA     SC227750  51.039  88.132  91.328
35038DA     SC327751  50.837  88.149  91.485
35038DA     SC427752  50.904  87.877  91.474
35039DG     BB127753  51.445  87.497  91.205
35039DG     BB227754  51.554  87.838  91.150
35039DG     BB327755  51.645  87.907  91.313
35039DG     SC127756  51.389  88.017  91.439
35039DG     SC227757  51.326  88.306  91.484
35039DG     SC327758  51.125  88.132  91.615
35039DG     SC427759  51.301  87.922  91.532
35040DT     BB127760  51.826  87.960  91.270
35040DT     BB227761  51.802  88.320  91.275
35040DT     BB327762  51.858  88.392  91.461
35040DT     SC127763  51.632  88.313  91.568
35040DT     SC227764  51.514  88.485  91.620
35040DT     SC327765  51.463  88.182  91.723
35041DA     BB127766  52.043  88.595  91.143
35041DA     BB227767  51.910  88.842  91.379
35041DA     BB327768  52.021  88.838  91.561
35041DA     SC127769  51.837  88.627  91.696
35041DA     SC227770  51.670  88.619  91.882
35041DA     SC327771  51.712  88.366  91.882
35041DA     SC427772  51.877  88.472  91.681
35042DT     BB127773  52.111  88.996  91.589
35042DT     BB227774  51.908  89.121  91.859
35042DT     BB327775  51.999  89.080  92.041
35042DT     SC127776  51.934  88.826  92.026
35042DT     SC227777  51.785  88.782  92.175
35042DT     SC327778  51.958  88.564  92.009
35043DA     BB127779  51.904  89.489  92.037
35043DA     BB227780  51.794  89.351  92.358
35043DA     BB327781  51.962  89.308  92.482
35043DA     SC127782  51.994  89.016  92.381
35043DA     SC227783  51.962  88.785  92.470
35043DA     SC327784  52.118  88.712  92.279
35043DA     SC427785  52.094  88.991  92.257
35044DA     BB127786  51.805  89.499  92.702
35044DA     BB227787  51.797  89.208  92.925
35044DA     BB327788  51.988  89.177  93.014
35044DA     SC127789  52.090  88.988  92.790
35044DA     SC227790  52.145  88.746  92.763
35044DA     SC327791  52.282  88.821  92.559
35044DA     SC427792  52.171  89.054  92.667
35045DT     BB127793  52.021  89.205  93.223
35045DT     BB227794  52.044  88.855  93.308
35045DT     BB327795  52.240  88.806  93.353
35045DT     SC127796  52.307  88.813  93.099
35045DT     SC227797  52.350  88.613  93.031
35045DT     SC327798  52.426  88.887  92.876
35046DT     BB127799  52.182  88.784  93.619
35046DT     BB227800  52.319  88.462  93.531
35046DT     BB327801  52.525  88.466  93.551
35046DT     SC127802  52.552  88.607  93.331
35046DT     SC227803  52.643  88.485  93.179
35046DT     SC327804  52.612  88.808  93.172
35047DT     BB127805  52.500  88.307  93.767
35047DT     BB227806  52.715  88.123  93.543
35047DT     BB327807  52.911  88.183  93.570
35047DT     SC127808  52.869  88.409  93.443
35047DT     SC227809  52.973  88.405  93.255
35047DT     SC327810  52.847  88.667  93.398
35048DG     BB127811  52.884  87.780  93.625
35048DG     BB227812  53.142  87.865  93.386
35048DG     BB327813  53.303  87.933  93.482
35048DG     SC127814  53.213  88.225  93.476
35048DG     SC227815  53.344  88.446  93.324
35048DG     SC327816  53.135  88.552  93.505
35048DG     SC427817  53.122  88.281  93.595
35049DA     BB127818  53.469  87.698  93.288
35049DA     BB227819  53.680  87.964  93.150
35049DA     BB327820  53.821  88.030  93.296
35049DA     SC127821  53.635  88.253  93.409
35049DA     SC227822  53.626  88.502  93.410
35049DA     SC327823  53.469  88.475  93.611
35049DA     SC427824  53.541  88.216  93.533
35050DA     BB127825  54.032  87.963  93.051
35050DA     BB227826  54.135  88.315  93.068
35050DA     BB327827  54.254  88.349  93.242
35050DA     SC127828  54.012  88.424  93.423
35050DA     SC227829  53.921  88.627  93.535
35050DA     SC327830  53.795  88.462  93.686
35050DA     SC427831  53.943  88.305  93.508
35051DA     BB127832  54.479  88.472  93.030
35051DA     BB227833  54.453  88.791  93.210
35051DA     BB327834  54.560  88.781  93.394
35051DA     SC127835  54.316  88.682  93.559
35051DA     SC227836  54.164  88.770  93.736
35051DA     SC327837  54.111  88.524  93.785
35051DA     SC427838  54.297  88.523  93.575
35052DT     BB127839  54.743  88.895  93.437
35052DT     BB227840  54.594  89.135  93.661
35052DT     BB327841  54.656  89.098  93.855
35052DT     SC127842  54.498  88.889  93.874
35052DT     SC227843  54.339  88.932  94.011
35052DT     SC327844  54.421  88.638  93.901
35053DA     BB127845  54.755  89.503  93.800
35053DA     BB227846  54.569  89.478  94.115
35053DA     BB327847  54.694  89.398  94.269
35053DA     SC127848  54.614  89.103  94.213
35053DA     SC227849  54.484  88.922  94.325
35053DA     SC327850  54.614  88.762  94.172
35053DA     SC427851  54.706  89.019  94.110
35054DT     BB127852  54.760  89.514  94.443
35054DT     BB227853  54.536  89.358  94.679
35054DT     BB327854  54.643  89.237  94.809
35054DT     SC127855  54.675  89.054  94.623
35054DT     SC227856  54.558  88.880  94.674
35054DT     SC327857  54.792  88.893  94.451
35055DA     BB127858  54.417  89.493  95.052
35055DA     BB227859  54.359  89.149  95.166
35055DA     BB327860  54.528  89.077  95.274
35055DA     SC127861  54.668  88.957  95.023
35055DA     SC227862  54.722  88.732  94.932
35055DA     SC327863  54.897  88.853  94.790
35055DA     SC427864  54.772  89.051  94.944
35056DT     BB127865  54.505  89.038  95.470
35056DT     BB227866  54.498  88.679  95.438
35056DT     BB327867  54.677  88.599  95.504
35056DT     SC127868  54.801  88.678  95.286
35056DT     SC227869  54.852  88.506  95.167
35056DT     SC327870  54.970  88.806  95.130
35057DA     BB127871  54.356  88.402  95.688
35057DA     BB227872  54.581  88.149  95.547
35057DA     BB327873  54.761  88.139  95.661
35057DA     SC127874  54.911  88.350  95.489
35057DA     SC227875  55.100  88.356  95.326
35057DA     SC327876  55.112  88.606  95.380
35057DA     SC427877  54.903  88.504  95.537
35058DA     BB127878  54.658  87.830  95.650
35058DA     BB227879  54.974  87.757  95.479
35058DA     BB327880  55.137  87.768  95.616
35058DA     SC127881  55.193  88.069  95.564
35058DA     SC227882  55.369  88.208  95.456
35058DA     SC327883  55.273  88.402  95.595
35058DA     SC427884  55.120  88.176  95.660
35059DA     BB127885  55.169  87.477  95.471
35059DA     BB227886  55.497  87.599  95.359
35059DA     BB327887  55.631  87.612  95.524
35059DA     SC127888  55.559  87.907  95.591
35059DA     SC227889  55.667  88.131  95.579
35059DA     SC327890  55.491  88.203  95.751
35059DA     SC427891  55.442  87.932  95.699
35060DT     BB127892  55.769  87.496  95.501
35060DT     BB227893  56.023  87.740  95.425
35060DT     BB327894  56.132  87.784  95.595
35060DT     SC127895  55.936  87.928  95.694
35060DT     SC227896  55.993  88.135  95.694
35060DT     SC327897  55.743  88.006  95.855
35061DT     BB127898  56.337  87.650  95.485
35061DT     BB227899  56.472  87.976  95.559
35061DT     BB327900  56.537  87.983  95.756
35061DT     SC127901  56.290  87.996  95.845
35061DT     SC227902  56.255  88.191  95.927
35061DT     SC327903  56.068  87.930  95.970
35062DT     BB127904  56.798  87.978  95.675
35062DT     BB227905  56.776  88.271  95.884
35062DT     BB327906  56.809  88.219  96.082
35062DT     SC127907  56.571  88.111  96.102
35062DT     SC227908  56.448  88.232  96.230
35062DT     SC327909  56.382  87.930  96.135
35063DG     BB127910  57.109  88.490  96.010
35063DG     BB227911  56.928  88.578  96.310
35063DG     BB327912  56.992  88.468  96.463
35063DG     SC127913  56.792  88.241  96.417
35063DG     SC227914  56.568  88.166  96.599
35063DG     SC327915  56.600  87.966  96.384
35063DG     SC427916  56.831  88.122  96.318
35064DT     BB127917  57.114  88.541  96.671
35064DT     BB227918  56.849  88.515  96.915
35064DT     BB327919  56.886  88.357  97.043
35064DT     SC127920  56.818  88.182  96.859
35064DT     SC227921  56.633  88.089  96.914
35064DT     SC327922  56.837  87.985  96.686
35065DA     BB127923  56.844  88.673  97.318
35065DA     BB227924  56.625  88.403  97.433
35065DA     BB327925  56.739  88.252  97.533
35065DA     SC127926  56.790  88.086  97.275
35065DA     SC227927  56.719  87.866  97.180
35065DA     SC327928  56.926  87.887  97.031
35065DA     SC427929  56.924  88.116  97.192
35066DA     BB127930  56.536  88.299  97.790
35066DA     BB227931  56.423  87.953  97.742
35066DA     BB327932  56.561  87.817  97.832
35066DA     SC127933  56.733  87.783  97.575
35066DA     SC227934  56.780  87.606  97.406
35066DA     SC327935  56.990  87.742  97.351
35066DA     SC427936  56.859  87.881  97.556
35067DT     BB127937  56.500  87.704  97.994
35067DT     BB227938  56.458  87.396  97.810
35067DT     BB327939  56.609  87.263  97.859
35067DT     SC127940  56.784  87.398  97.717
35067DT     SC227941  56.840  87.282  97.544
35067DT     SC327942  56.996  87.543  97.657
35068DA     BB127943  56.230  87.089  97.880
35068DA     BB227944  56.447  86.873  97.678
35068DA     BB327945  56.592  86.777  97.802
35068DA     SC127946  56.805  87.002  97.768
35068DA     SC227947  57.026  87.031  97.657
35068DA     SC327948  57.058  87.229  97.818
35068DA     SC427949  56.806  87.120  97.878
35069DT     BB127950  56.558  86.610  97.787
35069DT     BB227951  56.843  86.523  97.584
35069DT     BB327952  56.998  86.456  97.704
35069DT     SC127953  57.051  86.700  97.785
35069DT     SC227954  57.240  86.763  97.703
35069DT     SC327955  57.080  86.908  97.944
35070DA     BB127956  56.920  86.217  97.365
35070DA     BB227957  57.282  86.271  97.393
35070DA     BB327958  57.358  86.173  97.567
35070DA     SC127959  57.319  86.420  97.752
35070DA     SC227960  57.462  86.585  97.872
35070DA     SC327961  57.256  86.627  98.018
35070DA     SC427962  57.180  86.431  97.833
35071DT     BB127963  57.477  86.027  97.531
35071DT     BB227964  57.784  86.178  97.647
35071DT     BB327965  57.831  86.107  97.835
35071DT     SC127966  57.644  86.254  97.946
35071DT     SC227967  57.735  86.410  98.062
35071DT     SC327968  57.425  86.319  98.077
35072DA     BB127969  58.180  86.038  97.612
35072DA     BB227970  58.285  86.180  97.933
35072DA     BB327971  58.269  86.034  98.087
35072DA     SC127972  57.977  86.109  98.163
35072DA     SC227973  57.858  86.217  98.354
35072DA     SC327974  57.648  86.103  98.261
35072DA     SC427975  57.859  86.029  98.091
35073DC     BB127976  58.445  85.924  98.203
35073DC     BB227977  58.403  86.087  98.522
35073DC     BB327978  58.334  85.952  98.662
35073DC     SC127979  58.093  85.955  98.558
35073DC     SC227980  57.958  86.053  98.694
35073DC     SC327981  57.872  85.873  98.439
35074DA     BB127982  58.685  86.064  98.876
35074DA     BB227983  58.411  86.076  99.120
35074DA     BB327984  58.369  85.881  99.195
35074DA     SC127985  58.156  85.818  98.977
35074DA     SC227986  57.909  85.787  98.965
35074DA     SC327987  57.956  85.664  98.744
35074DA     SC427988  58.206  85.744  98.843
35075DA     BB127989  58.422  85.951  99.531
35075DA     BB227990  58.070  85.875  99.599
35075DA     BB327991  58.046  85.666  99.639
35075DA     SC127992  57.992  85.591  99.342
35075DA     SC227993  57.801  85.513  99.203
35075DA     SC327994  57.980  85.433  99.037
35075DA     SC427995  58.119  85.548  99.252
35076DC     BB127996  57.986  85.535  99.858
35076DC     BB227997  57.644  85.468  99.764
35076DC     BB327998  57.614  85.264  99.746
35076DC     SC127999  57.744  85.256  99.519
35076DC     SC228000  57.606  85.216  99.359
35076DC     SC328001  57.929  85.196  99.341
35077DA     BB128002  57.315  85.363 100.025
35077DA     BB228003  57.151  85.176  99.755
35077DA     BB328004  57.178  84.966  99.783
35077DA     SC128005  57.440  84.954  99.616
35077DA     SC228006  57.515  84.861  99.397
35077DA     SC328007  57.752  84.878  99.494
35077DA     SC428008  57.579  84.971  99.694
35078DT     BB128009  57.011  84.833  99.828
35078DT     BB228010  56.986  84.698  99.494
35078DT     BB328011  57.043  84.499  99.494
35078DT     SC128012  57.296  84.563  99.516
35078DT     SC228013  57.398  84.516  99.332
35078DT     SC328014  57.539  84.584  99.616
35079DT     BB128015  56.785  84.445  99.449
35079DT     BB228016  56.961  84.308  99.166
35079DT     BB328017  57.025  84.116  99.209
35079DT     SC128018  57.217  84.206  99.363
35079DT     SC228019  57.407  84.170  99.269
35079DT     SC328020  57.361  84.252  99.579
35080DG     BB128021  56.809  84.158  98.868
35080DG     BB228022  57.123  83.988  98.811
35080DG     BB328023  57.114  83.803  98.884
35080DG     SC128024  57.215  83.881  99.162
35080DG     SC228025  57.475  83.799  99.283
35080DG     SC328026  57.304  83.934  99.483
35080DG     SC428027  57.109  83.927  99.273
35081DA     BB128028  57.255  83.792  98.566
35081DA     BB228029  57.537  83.612  98.715
35081DA     BB328030  57.472  83.425  98.795
35081DA     SC128031  57.411  83.540  99.078
35081DA     SC228032  57.506  83.523  99.308
35081DA     SC328033  57.276  83.607  99.387
35081DA     SC428034  57.262  83.591  99.107
35082DC     BB128035  57.557  83.313  98.704
35082DC     BB228036  57.777  83.193  98.964
35082DC     BB328037  57.689  83.035  99.063
35082DC     SC128038  57.524  83.195  99.190
35082DC     SC228039  57.576  83.200  99.399
35082DC     SC328040  57.299  83.307  99.269
35083DA     BB128041  58.080  82.924  98.951
35083DA     BB228042  58.027  82.823  99.299
35083DA     BB328043  57.888  82.661  99.309
35083DA     SC128044  57.639  82.845  99.337
35083DA     SC228045  57.471  82.903  99.512
35083DA     SC328046  57.325  82.982  99.317
35083DA     SC428047  57.562  82.887  99.202
35084DA     BB128048  58.128  82.505  99.480
35084DA     BB228049  57.890  82.480  99.758
35084DA     BB328050  57.746  82.327  99.719
35084DA     SC128051  57.544  82.520  99.580
35084DA     SC228052  57.320  82.618  99.628
35084DA     SC328053  57.307  82.659  99.375
35084DA     SC428054  57.555  82.535  99.421
35085DA     BB128055  57.836  82.192 100.011
35085DA     BB228056  57.491  82.243 100.124
35085DA     BB328057  57.364  82.092 100.043
35085DA     SC128058  57.291  82.255  99.789
35085DA     SC228059  57.092  82.372  99.694
35085DA     SC328060  57.213  82.353  99.469
35085DA     SC428061  57.382  82.233  99.658
35086DT     BB128062  57.268  81.941 100.165
35086DT     BB228063  56.937  82.084 100.154
35086DT     BB328064  56.814  81.968 100.033
35086DT     SC128065  56.928  82.059  99.815
35086DT     SC228066  56.790  82.185  99.709
35086DT     SC328067  57.066  82.063  99.590
35087DA     BB128068  56.610  82.006 100.398
35087DA     BB228069  56.377  82.097 100.130
35087DA     BB328070  56.311  81.922 100.027
35087DA     SC128071  56.539  81.930  99.815
35087DA     SC228072  56.563  81.976  99.571
35087DA     SC328073  56.785  81.849  99.590
35087DA     SC428074  56.673  81.847  99.847
35088DT     BB128075  56.119  81.876 100.042
35088DT     BB228076  56.025  81.982  99.710
35088DT     BB328077  56.000  81.817  99.588
35088DT     SC128078  56.259  81.780  99.570
35088DT     SC228079  56.324  81.826  99.370
35088DT     SC328080  56.495  81.665  99.594
35089DT     BB128081  55.738  81.870  99.593
35089DT     BB228082  55.827  81.878  99.244
35089DT     BB328083  55.826  81.686  99.166
35089DT     SC128084  56.051  81.626  99.287
35089DT     SC228085  56.207  81.605  99.140
35089DT     SC328086  56.222  81.508  99.449
35090DC     BB128087  55.608  81.759  99.032
35090DC     BB228088  55.843  81.652  98.780
35090DC     BB328089  55.836  81.446  98.759
35090DC     SC128090  55.966  81.411  98.984
35090DC     SC228091  56.163  81.335  98.941
35090DC     SC328092  56.019  81.337  99.232
35091DG     BB128093  55.761  81.617  98.397
35091DG     BB228094  56.027  81.372  98.377
35091DG     BB328095  55.951  81.189  98.381
35091DG     SC128096  55.961  81.165  98.686
35091DG     SC228097  56.135  80.979  98.842
35091DG     SC328098  55.939  81.112  99.019
35091DG     SC428099  55.836  81.216  98.772
35092DA     BB128100  56.151  81.151  98.103
35092DA     BB228101  56.326  80.877  98.272
35092DA     BB328102  56.201  80.705  98.284
35092DA     SC128103  56.079  80.782  98.560
35092DA     SC228104  56.089  80.700  98.795
35092DA     SC328105  55.870  80.829  98.828
35092DA     SC428106  55.943  80.867  98.560
35093DT     BB128107  56.265  80.559  98.185
35093DT     BB228108  56.371  80.357  98.464
35093DT     BB328109  56.228  80.213  98.505
35093DT     SC128110  56.069  80.391  98.615
35093DT     SC228111  56.059  80.357  98.827
35093DT     SC328112  55.858  80.544  98.654
35094DG     BB128113  56.583  80.023  98.435
35094DG     BB228114  56.434  79.916  98.746
35094DG     BB328115  56.282  79.792  98.710
35094DG     SC128116  56.072  80.014  98.694
35094DG     SC228117  55.848  80.058  98.886
35094DG     SC328118  55.820  80.234  98.650
35094DG     SC428119  56.045  80.086  98.553
35095DG     BB128120  56.430  79.556  98.889
35095DG     BB228121  56.141  79.572  99.107
35095DG     BB328122  55.993  79.463  99.031
35095DG     SC128123  55.874  79.694  98.868
35095DG     SC228124  55.609  79.823  98.914
35095DG     SC328125  55.730  79.918  98.661
35095DG     SC428126  55.928  79.719  98.719
35096DC     BB128127  55.899  79.270  99.129
35096DC     BB228128  55.585  79.400  99.249
35096DC     BB328129  55.430  79.334  99.129
35096DC     SC128130  55.497  79.500  98.938
35096DC     SC228131  55.347  79.653  98.920
35096DC     SC328132  55.578  79.589  98.703
35097DA     BB128133  55.302  79.209  99.511
35097DA     BB228134  55.024  79.391  99.357
35097DA     BB328135  54.926  79.268  99.212
35097DA     SC128136  55.104  79.364  98.975
35097DA     SC228137  55.078  79.502  98.769
35097DA     SC328138  55.291  79.384  98.688
35097DA     SC428139  55.236  79.279  98.942
35098DA     BB128140  54.647  79.323  99.383
35098DA     BB228141  54.523  79.500  99.086
35098DA     BB328142  54.451  79.361  98.942
35098DA     SC128143  54.724  79.333  98.796
35098DA     SC228144  54.824  79.398  98.577
35098DA     SC328145  54.999  79.217  98.625
35098DA     SC428146  54.823  79.215  98.844
35099DA     BB128147  54.185  79.547  98.969
35099DA     BB228148  54.242  79.640  98.619
35099DA     BB328149  54.178  79.484  98.489
35099DA     SC128150  54.454  79.342  98.483
35099DA     SC228151  54.639  79.303  98.320
35099DA     SC328152  54.707  79.110  98.475
35099DA     SC428153  54.480  79.226  98.591
35100DA     BB128154  54.042  79.761  98.393
35100DA     BB228155  54.236  79.713  98.086
35100DA     BB328156  54.158  79.549  97.973
35100DA     SC128157  54.342  79.337  98.108
35100DA     SC228158  54.536  79.194  98.045
35100DA     SC328159  54.471  79.051  98.248
35100DA     SC428160  54.285  79.261  98.238
35101DA     BB128161  54.193  79.811  97.785
35101DA     BB228162  54.420  79.601  97.588
35101DA     BB328163  54.312  79.445  97.491
35101DA     SC128164  54.346  79.242  97.724
35101DA     SC228165  54.470  79.030  97.767
35101DA     SC328166  54.300  78.994  97.956
35101DA     SC428167  54.231  79.237  97.836
35102DT     BB128168  54.339  79.480  97.329
35102DT     BB228169  54.558  79.203  97.257
35102DT     BB328170  54.448  79.040  97.192
35102DT     SC128171  54.362  78.991  97.435
35102DT     SC228172  54.451  78.808  97.506
35102DT     SC328173  54.197  78.960  97.638
35103DT     BB128174  54.561  79.092  96.960
35103DT     BB228175  54.641  78.747  97.029
35103DT     BB328176  54.481  78.626  96.977
35103DT     SC128177  54.345  78.702  97.188
35103DT     SC228178  54.330  78.537  97.326
35103DT     SC328179  54.154  78.809  97.335
35104DT     BB128180  54.615  78.533  96.757
35104DT     BB228181  54.523  78.234  96.937
35104DT     BB328182  54.333  78.173  96.881
35104DT     SC128183  54.222  78.366  97.019
35104DT     SC228184  54.118  78.282  97.188
35104DT     SC328185  54.083  78.584  97.075
35105DA     BB128186  54.566  77.829  96.816
35105DA     BB228187  54.271  77.726  97.008
35105DA     BB328188  54.100  77.717  96.881
35105DA     SC128189  54.015  78.012  96.932
35105DA     SC228190  53.832  78.134  97.049
35105DA     SC328191  53.897  78.333  96.901
35105DA     SC428192  54.070  78.123  96.830
35106DT     BB128193  53.998  77.530  96.831
35106DT     BB228194  53.714  77.582  97.047
35106DT     BB328195  53.545  77.621  96.934
35106DT     SC128196  53.628  77.864  96.880
35106DT     SC228197  53.502  78.006  96.982
35106DT     SC328198  53.710  78.074  96.742
35107DT     BB128199  53.445  77.376  96.995
35107DT     BB228200  53.198  77.609  97.115
35107DT     BB328201  53.064  77.655  96.964
35107DT     SC128202  53.240  77.807  96.843
35107DT     SC228203  53.179  78.013  96.858
35107DT     SC328204  53.405  77.896  96.658
35108DA     BB128205  52.877  77.553  97.325
35108DA     BB228206  52.733  77.867  97.201
35108DA     BB328207  52.615  77.831  97.027
35108DA     SC128208  52.850  77.875  96.829
35108DA     SC228209  52.919  78.044  96.659
35108DA     SC328210  53.068  77.859  96.564
35108DA     SC428211  52.935  77.747  96.784
35109DA     BB128212  52.451  78.011  97.245
35109DA     BB228213  52.424  78.257  96.974
35109DA     BB328214  52.305  78.180  96.815
35109DA     SC128215  52.545  78.056  96.662
35109DA     SC228216  52.671  78.097  96.451
35109DA     SC328217  52.750  77.854  96.474
35109DA     SC428218  52.582  77.902  96.694
35110DC     BB128219  52.183  78.290  96.816
35110DC     BB228220  52.255  78.448  96.499
35110DC     BB328221  52.161  78.345  96.346
35110DC     SC128222  52.337  78.151  96.359
35110DC     SC228223  52.461  78.154  96.183
35110DC     SC328224  52.439  77.910  96.396
35111DA     BB128225  52.060  78.751  96.302
35111DA     BB228226  52.143  78.620  95.970
35111DA     BB328227  51.989  78.489  95.901
35111DA     SC128228  52.120  78.233  96.021
35111DA     SC228229  52.232  78.027  95.938
35111DA     SC328230  52.177  77.928  96.168
35111DA     SC428231  52.075  78.189  96.169
35112DA     BB128232  51.967  78.680  95.626
35112DA     BB228233  52.039  78.381  95.425
35112DA     BB328234  51.865  78.259  95.410
35112DA     SC128235  51.933  78.090  95.663
35112DA     SC228236  52.004  77.857  95.716
35112DA     SC328237  51.917  77.906  95.952
35112DA     SC428238  51.872  78.139  95.804
35113DT     BB128239  51.721  78.215  95.219
35113DT     BB228240  51.824  77.874  95.160
35113DT     BB328241  51.668  77.745  95.203
35113DT     SC128242  51.702  77.776  95.461
35113DT     SC228243  51.779  77.594  95.545
35113DT     SC328244  51.653  77.842  95.711
35114DT     BB128245  51.563  77.672  94.930
35114DT     BB228246  51.625  77.349  95.077
35114DT     BB328247  51.450  77.274  95.159
35114DT     SC128248  51.465  77.439  95.362
35114DT     SC228249  51.509  77.328  95.541
35114DT     SC328250  51.402  77.634  95.529
35115DA     BB128251  51.527  76.948  94.897
35115DA     BB228252  51.466  76.801  95.227
35115DA     BB328253  51.256  76.785  95.263
35115DA     SC128254  51.233  77.065  95.397
35115DA     SC228255  51.192  77.158  95.625
35115DA     SC328256  51.128  77.374  95.503
35115DA     SC428257  51.196  77.190  95.303
35116DT     BB128258  51.114  76.583  95.280
35116DT     BB228259  51.089  76.592  95.640
35116DT     BB328260  50.892  76.626  95.696
35116DT     SC128261  50.909  76.879  95.628
35116DT     SC228262  50.904  77.001  95.806
35116DT     SC328263  50.863  77.106  95.502
35117DG     BB128264  50.969  76.263  95.868
35117DG     BB228265  50.854  76.500  96.115
35117DG     BB328266  50.656  76.507  96.116
35117DG     SC128267  50.638  76.729  95.905
35117DG     SC228268  50.540  77.007  95.951
35117DG     SC328269  50.582  76.956  95.663
35117DG     SC428270  50.634  76.689  95.750
35118DA     BB128271  50.680  76.453  96.453
35118DA     BB228272  50.522  76.777  96.517
35118DA     BB328273  50.310  76.763  96.490
35118DA     SC128274  50.318  76.839  96.189
35118DA     SC228275  50.250  77.032  96.045
35118DA     SC328276  50.258  76.864  95.852
35118DA     SC428277  50.328  76.720  96.082
35119DT     BB128278  50.217  76.794  96.650
35119DT     BB228279  50.105  77.127  96.567
35119DT     BB328280  49.906  77.122  96.511
35119DT     SC128281  49.967  77.017  96.278
35119DT     SC228282  49.931  77.162  96.123
35119DT     SC328283  49.978  76.844  96.079
35120DT     BB128284  49.889  77.253  96.734
35120DT     BB228285  49.754  77.472  96.480
35120DT     BB328286  49.560  77.417  96.436
35120DT     SC128287  49.641  77.208  96.300
35120DT     SC228288  49.602  77.239  96.091
35120DT     SC328289  49.677  76.956  96.231
35121DG     BB128290  49.623  77.811  96.530
35121DG     BB228291  49.440  77.769  96.221
35121DG     BB328292  49.256  77.702  96.259
35121DG     SC128293  49.334  77.407  96.244
35121DG     SC228294  49.244  77.212  96.037
35121DG     SC328295  49.388  77.074  96.256
35121DG     SC428296  49.386  77.333  96.377
35122DA     BB128297  49.187  77.966  96.045
35122DA     BB228298  49.004  77.732  95.829
35122DA     BB328299  48.826  77.666  95.926
35122DA     SC128300  48.960  77.419  96.058
35122DA     SC228301  48.954  77.171  96.035
35122DA     SC328302  49.052  77.166  96.272
35122DA     SC428303  49.020  77.437  96.207
35123DC     BB128304  48.663  77.723  95.843
35123DC     BB228305  48.561  77.403  95.711
35123DC     BB328306  48.418  77.318  95.834
35123DC     SC128307  48.597  77.256  96.015
35123DC     SC228308  48.622  77.043  96.021
35123DC     SC328309  48.728  77.253  96.244
35124DA     BB128310  48.251  77.312  95.448
35124DA     BB228311  48.203  76.979  95.595
35124DA     BB328312  48.050  76.985  95.744
35124DA     SC128313  48.246  77.047  95.978
35124DA     SC228314  48.336  76.930  96.179
35124DA     SC328315  48.392  77.166  96.265
35124DA     SC428316  48.271  77.202  96.014
35125DT     BB128317  47.869  76.885  95.716
35125DT     BB228318  47.932  76.615  95.946
35125DT     BB328319  47.819  76.641  96.118
35125DT     SC128320  47.977  76.833  96.202
35125DT     SC228321  48.087  76.764  96.374
35125DT     SC328322  48.058  77.072  96.277
35126DA     BB128323  47.740  76.252  95.983
35126DA     BB228324  47.821  76.232  96.340
35126DA     BB328325  47.658  76.306  96.457
35126DA     SC128326  47.762  76.599  96.462
35126DA     SC228327  47.859  76.757  96.629
35126DA     SC328328  47.788  76.941  96.464
35126DA     SC428329  47.710  76.698  96.348
35127DA     BB128330  47.706  76.012  96.594
35127DA     BB228331  47.776  76.192  96.905
35127DA     BB328332  47.596  76.270  96.988
35127DA     SC128333  47.616  76.543  96.840
35127DA     SC228334  47.660  76.781  96.898
35127DA     SC328335  47.548  76.835  96.673
35127DA     SC428336  47.543  76.556  96.698
35128DA     BB128337  47.722  76.106  97.243
35128DA     BB228338  47.724  76.427  97.420
35128DA     BB328339  47.525  76.484  97.472
35128DA     SC128340  47.476  76.644  97.209
35128DA     SC228341  47.449  76.882  97.140
35128DA     SC328342  47.339  76.787  96.929
35128DA     SC428343  47.410  76.565  97.086
35129DT     BB128344  47.482  76.490  97.663
35129DT     BB228345  47.467  76.848  97.699
35129DT     BB328346  47.270  76.911  97.704
35129DT     SC128347  47.243  76.873  97.446
35129DT     SC228348  47.223  77.063  97.348
35129DT     SC328349  47.156  76.774  97.217
35130DT     BB128350  47.283  76.962  97.973
35130DT     BB228351  47.169  77.273  97.830
35130DT     BB328352  46.963  77.271  97.813
35130DT     SC128353  46.974  77.109  97.607
35130DT     SC228354  46.914  77.214  97.429
35130DT     SC328355  46.940  76.892  97.460
35131DT     BB128356  46.918  77.446  98.027
35131DT     BB228357  46.749  77.604  97.750
35131DT     BB328358  46.554  77.536  97.739
35131DT     SC128359  46.630  77.305  97.641
35131DT     SC228360  46.569  77.291  97.436
35131DT     SC328361  46.671  77.045  97.621
35132DT     BB128362  46.439  77.772  97.837
35132DT     BB228363  46.281  77.725  97.517
35132DT     BB328364  46.109  77.611  97.539
35132DT     SC128365  46.250  77.392  97.572
35132DT     SC228366  46.224  77.264  97.401
35132DT     SC328367  46.350  77.176  97.686
35133DT     BB128368  45.941  77.827  97.497
35133DT     BB228369  45.850  77.590  97.240
35133DT     BB328370  45.704  77.462  97.311
35133DT     SC128371  45.879  77.331  97.457
35133DT     SC228372  45.908  77.134  97.374
35133DT     SC328373  46.002  77.232  97.668
35134DA     BB128374  45.573  77.622  96.947
35134DA     BB228375  45.542  77.258  96.929
35134DA     BB328376  45.379  77.191  97.049
35134DA     SC128377  45.552  77.151  97.305
35134DA     SC228378  45.637  76.962  97.443
35134DA     SC328379  45.667  77.137  97.628
35134DA     SC428380  45.562  77.275  97.407
35135DG     BB128381  45.301  77.089  96.771
35135DG     BB228382  45.350  76.769  96.931
35135DG     BB328383  45.193  76.725  97.045
35135DG     SC128384  45.306  76.860  97.296
35135DG     SC228385  45.388  76.722  97.547
35135DG     SC328386  45.390  77.015  97.583
35135DG     SC428387  45.277  77.016  97.320
35136DT     BB128388  45.100  76.555  96.991
35136DT     BB228389  45.202  76.329  97.254
35136DT     BB328390  45.054  76.318  97.398
35136DT     SC128391  45.117  76.555  97.492
35136DT     SC228392  45.206  76.533  97.687
35136DT     SC328393  45.096  76.809  97.558
35137DA     BB128394  45.190  75.938  97.275
35137DA     BB228395  45.186  75.950  97.641
35137DA     BB328396  44.986  75.959  97.713
35137DA     SC128397  44.974  76.270  97.715
35137DA     SC228398  44.965  76.453  97.884
35137DA     SC328399  44.875  76.597  97.692
35137DA     SC428400  44.918  76.343  97.583
35138DT     BB128401  44.947  75.810  97.808
35138DT     BB228402  44.945  75.963  98.135
35138DT     BB328403  44.750  76.010  98.189
35138DT     SC128404  44.745  76.215  98.025
35138DT     SC228405  44.743  76.397  98.138
35138DT     SC328406  44.675  76.369  97.823
35139DA     BB128407  44.934  75.796  98.502
35139DA     BB228408  44.771  76.092  98.645
35139DA     BB328409  44.559  76.070  98.638
35139DA     SC128410  44.530  76.204  98.358
35139DA     SC228411  44.439  76.416  98.263
35139DA     SC328412  44.433  76.290  98.040
35139DA     SC428413  44.533  76.108  98.229
35140DA     BB128414  44.597  76.139  98.958
35140DA     BB228415  44.387  76.433  98.898
35140DA     BB328416  44.183  76.374  98.870
35140DA     SC128417  44.208  76.344  98.561
35140DA     SC228418  44.126  76.461  98.357
35140DA     SC328419  44.178  76.242  98.235
35140DA     SC428420  44.246  76.199  98.504
35141DT     BB128421  44.021  76.421  99.013
35141DT     BB228422  43.859  76.675  98.815
35141DT     BB328423  43.677  76.605  98.745
35141DT     SC128424  43.796  76.454  98.566
35141DT     SC228425  43.759  76.532  98.369
35141DT     SC328426  43.876  76.238  98.437
35142DA     BB128427  43.570  76.962  98.938
35142DA     BB228428  43.412  76.968  98.607
35142DA     BB328429  43.240  76.840  98.605
35142DA     SC128430  43.398  76.589  98.512
35142DA     SC228431  43.416  76.447  98.308
35142DA     SC328432  43.514  76.269  98.464
35142DA     SC428433  43.456  76.491  98.626
35143DA     BB128434  43.058  77.102  98.504
35143DA     BB228435  42.983  76.917  98.196
35143DA     BB328436  42.825  76.778  98.230
35143DA     SC128437  43.014  76.544  98.310
35143DA     SC228438  43.088  76.326  98.215
35143DA     SC328439  43.156  76.267  98.456
35143DA     SC428440  43.048  76.526  98.466
35144DT     BB128441  42.610  76.789  98.142
35144DT     BB228442  42.655  76.526  97.898
35144DT     BB328443  42.540  76.362  97.949
35144DT     SC128444  42.705  76.296  98.143
35144DT     SC228445  42.808  76.115  98.090
35144DT     SC328446  42.796  76.248  98.385
35145DT     BB128447  42.332  76.394  97.750
35145DT     BB228448  42.459  76.062  97.688
35145DT     BB328449  42.345  75.923  97.790
35145DT     SC128450  42.454  75.989  98.019
35145DT     SC228451  42.580  75.828  98.087
35145DT     SC328452  42.479  76.079  98.265
35146DT     BB128453  42.212  75.823  97.560
35146DT     BB228454  42.377  75.534  97.700
35146DT     BB328455  42.248  75.435  97.829
35146DT     SC128456  42.280  75.620  98.013
35146DT     SC228457  42.390  75.537  98.178
35146DT     SC328458  42.223  75.815  98.181
35147DT     BB128459  42.222  75.231  97.649
35147DT     BB228460  42.357  75.077  97.946
35147DT     BB328461  42.203  75.016  98.070
35147DT     SC128462  42.156  75.263  98.145
35147DT     SC228463  42.213  75.288  98.350
35147DT     SC328464  42.030  75.493  98.179
35148DT     BB128465  42.293  74.783  97.999
35148DT     BB228466  42.328  74.799  98.358
35148DT     BB328467  42.147  74.754  98.449
35148DT     SC128468  42.049  74.989  98.386
35148DT     SC228469  42.026  75.107  98.564
35148DT     SC328470  41.895  75.172  98.275
35149DA     BB128471  42.501  74.581  98.601
35149DA     BB228472  42.303  74.716  98.878
35149DA     BB328473  42.120  74.608  98.897
35149DA     SC128474  41.960  74.796  98.708
35149DA     SC228475  41.778  74.965  98.726
35149DA     SC328476  41.744  74.925  98.475
35149DA     SC428477  41.954  74.756  98.552
35150DG     BB128478  42.292  74.633  99.155
35150DG     BB228479  41.986  74.788  99.271
35150DG     BB328480  41.840  74.654  99.275
35150DG     SC128481  41.749  74.707  98.988
35150DG     SC228482  41.489  74.829  98.905
35150DG     SC328483  41.636  74.726  98.670
35150DG     SC428484  41.817  74.625  98.868
35151DA     BB128485  41.818  74.821  99.583
35151DA     BB228486  41.463  74.877  99.511
35151DA     BB328487  41.360  74.691  99.498
35151DA     SC128488  41.404  74.659  99.192
35151DA     SC228489  41.267  74.667  98.984
35151DA     SC328490  41.460  74.537  98.876
35151DA     SC428491  41.534  74.578  99.144
35152DA     BB128492  41.166  74.845  99.720
35152DA     BB228493  40.889  74.784  99.488
35152DA     BB328494  40.839  74.577  99.485
35152DA     SC128495  41.033  74.510  99.251
35152DA     SC228496  41.017  74.443  99.011
35152DA     SC328497  41.257  74.358  99.039
35152DA     SC428498  41.181  74.461  99.289
35153DG     BB128499  40.549  74.650  99.591
35153DG     BB228500  40.442  74.511  99.274
35153DG     BB328501  40.429  74.313  99.288
35153DG     SC128502  40.719  74.263  99.204
35153DG     SC228503  40.808  74.130  98.952
35153DG     SC328504  41.036  74.172  99.135
35153DG     SC428505  40.833  74.260  99.317
35154DA     BB128506  40.095  74.313  99.171
35154DA     BB228507  40.191  74.107  98.883
35154DA     BB328508  40.208  73.902  98.941
35154DA     SC128509  40.510  73.922  99.013
35154DA     SC228510  40.727  73.838  98.923
35154DA     SC328511  40.819  73.884  99.158
35154DA     SC428512  40.548  73.956  99.166
35155DC     BB128513  40.075  73.757  98.868
35155DC     BB228514  40.306  73.605  98.636
35155DC     BB328515  40.367  73.420  98.708
35155DC     SC128516  40.523  73.533  98.886
35155DC     SC228517  40.729  73.498  98.833
35155DC     SC328518  40.621  73.603  99.121
35156DA     BB128519  40.234  73.373  98.313
35156DA     BB228520  40.563  73.215  98.342
35156DA     BB328521  40.549  73.035  98.455
35156DA     SC128522  40.604  73.174  98.728
35156DA     SC228523  40.787  73.181  98.898
35156DA     SC328524  40.606  73.265  99.060
35156DA     SC428525  40.478  73.224  98.814
35157DT     BB128526  40.590  72.881  98.356
35157DT     BB228527  40.913  72.817  98.502
35157DT     BB328528  40.898  72.668  98.645
35157DT     SC128529  40.784  72.833  98.815
35157DT     SC228530  40.920  72.873  98.977
35157DT     SC328531  40.602  72.939  98.974
35158DT     BB128532  41.030  72.512  98.475
35158DT     BB228533  41.227  72.507  98.777
35158DT     BB328534  41.150  72.368  98.910
35158DT     SC128535  40.948  72.525  98.969
35158DT     SC228536  40.970  72.596  99.171
35158DT     SC328537  40.701  72.613  98.992
35159DA     BB128538  41.560  72.280  98.872
35159DA     BB228539  41.478  72.286  99.229
35159DA     BB328540  41.364  72.114  99.282
35159DA     SC128541  41.089  72.249  99.230
35159DA     SC228542  40.895  72.330  99.363
35159DA     SC328543  40.764  72.316  99.143
35159DA     SC428544  41.025  72.233  99.083
35160DG     BB128545  41.596  72.021  99.482
35160DG     BB228546  41.343  72.076  99.734
35160DG     BB328547  41.231  71.914  99.754
35160DG     SC128548  41.027  71.999  99.542
35160DG     SC228549  40.741  72.070  99.592
35160DG     SC328550  40.796  72.051  99.302
35160DG     SC428551  41.053  71.959  99.389
35161DA     BB128552  41.283  71.878 100.106
35161DA     BB228553  40.925  71.924 100.171
35161DA     BB328554  40.821  71.740 100.148
35161DA     SC128555  40.759  71.785  99.846
35161DA     SC228556  40.560  71.832  99.704
35161DA     SC328557  40.704  71.745  99.510
35161DA     SC428558  40.864  71.727  99.739
35162DT     BB128559  40.721  71.624 100.315
35162DT     BB228560  40.384  71.719 100.230
35162DT     BB328561  40.280  71.555 100.159
35162DT     SC128562  40.407  71.564  99.929
35162DT     SC228563  40.270  71.625  99.775
35162DT     SC328564  40.563  71.493  99.729
35163DT     BB128565  40.128  71.532 100.390
35163DT     BB228566  39.885  71.573 100.126
35163DT     BB328567  39.831  71.388 100.050
35163DT     SC128568  40.059  71.365  99.922
35163DT     SC228569  40.024  71.380  99.710
35163DT     SC328570  40.295  71.273  99.850
35164DT     BB128571  39.588  71.411 100.168
35164DT     BB228572  39.516  71.369  99.817
35164DT     BB328573  39.505  71.167  99.771
35164DT     SC128574  39.766  71.143  99.784
35164DT     SC228575  39.845  71.109  99.587
35164DT     SC328576  40.004  71.063  99.865
35165DA     BB128577  39.158  71.352  99.626
35165DA     BB228578  39.300  71.149  99.355
35165DA     BB328579  39.268  70.942  99.393
35165DA     SC128580  39.536  70.903  99.546
35165DA     SC228581  39.754  70.788  99.510
35165DA     SC328582  39.781  70.803  99.765
35165DA     SC428583  39.533  70.921  99.706
35166DG     BB128584  39.113  70.956  99.125
35166DG     BB228585  39.375  70.732  99.014
35166DG     BB328586  39.333  70.546  99.069
35166DG     SC128587  39.474  70.566  99.339
35166DG     SC228588  39.720  70.418  99.420
35166DG     SC328589  39.602  70.560  99.651
35166DG     SC428590  39.392  70.619  99.466
35167DG     BB128591  39.346  70.460  98.753
35167DG     BB228592  39.626  70.250  98.847
35167DG     BB328593  39.559  70.077  98.918
35167DG     SC128594  39.544  70.174  99.208
35167DG     SC228595  39.713  70.077  99.434
35167DG     SC328596  39.496  70.253  99.532
35167DG     SC428597  39.409  70.243  99.259
35168DC     BB128598  39.608  69.887  98.816
35168DC     BB228599  39.858  69.751  99.038
35168DC     BB328600  39.776  69.598  99.151
35168DC     SC128601  39.646  69.769  99.302
35168DC     SC228602  39.732  69.770  99.499
35168DC     SC328603  39.445  69.897  99.416
35169DA     BB128604  40.133  69.472  98.974
35169DA     BB228605  40.147  69.389  99.330
35169DA     BB328606  40.014  69.227  99.374
35169DA     SC128607  39.772  69.411  99.438
35169DA     SC228608  39.638  69.478  99.638
35169DA     SC328609  39.457  69.546  99.469
35169DA     SC428610  39.671  69.446  99.318
35170DT     BB128611  40.111  69.088  99.431
35170DT     BB228612  40.018  69.108  99.779
35170DT     BB328613  39.865  68.975  99.819
35170DT     SC128614  39.689  69.129  99.699
35170DT     SC228615  39.556  69.213  99.846
35170DT     SC328616  39.509  69.212  99.525
35171DA     BB128617  40.181  68.955 100.098
35171DA     BB228618  39.863  68.969 100.279
35171DA     BB328619  39.752  68.790 100.248
35171DA     SC128620  39.601  68.899  99.998
35171DA     SC228621  39.368  68.967  99.939
35171DA     SC328622  39.442  68.933  99.695
35171DA     SC428623  39.665  68.870  99.854
35172DC     BB128624  39.732  68.700 100.403
35172DC     BB228625  39.381  68.766 100.452
35172DC     BB328626  39.269  68.606 100.382
35172DC     SC128627  39.311  68.676 100.133
35172DC     SC228628  39.127  68.748 100.046
35172DC     SC328629  39.395  68.666  99.883
35173DA     BB128630  39.143  68.693 100.774
35173DA     BB228631  38.845  68.662 100.562
35173DA     BB328632  38.814  68.458 100.507
35173DA     SC128633  38.983  68.478 100.246
35173DA     SC228634  38.944  68.474 100.000
35173DA     SC328635  39.192  68.414  99.982
35173DA     SC428636  39.139  68.440 100.256
35174DA     BB128637  38.517  68.522 100.633
35174DA     BB228638  38.383  68.444 100.301
35174DA     BB328639  38.388  68.234 100.266
35174DA     SC128640  38.671  68.237 100.137
35174DA     SC228641  38.772  68.204  99.912
35174DA     SC328642  38.991  68.161 100.038
35174DA     SC428643  38.797  68.213 100.234
35175DA     BB128644  38.071  68.291 100.202
35175DA     BB228645  38.139  68.170  99.863
35175DA     BB328646  38.161  67.958  99.863
35175DA     SC128647  38.469  67.965  99.909
35175DA     SC228648  38.676  67.914  99.780
35175DA     SC328649  38.791  67.900 100.010
35175DA     SC428650  38.521  67.960 100.061
35176DA     BB128651  37.934  68.001  99.631
35176DA     BB228652  38.175  67.848  99.401
35176DA     BB328653  38.190  67.638  99.438
35176DA     SC128654  38.422  67.667  99.642
35176DA     SC228655  38.666  67.613  99.654
35176DA     SC328656  38.636  67.629  99.908
35176DA     SC428657  38.384  67.680  99.798
35177DT     BB128658  38.130  67.534  99.294
35177DT     BB228659  38.454  67.425  99.180
35177DT     BB328660  38.492  67.233  99.249
35177DT     SC128661  38.538  67.321  99.492
35177DT     SC228662  38.748  67.300  99.537
35177DT     SC328663  38.512  67.358  99.752
35178DT     BB128664  38.464  67.164  98.997
35178DT     BB228665  38.794  67.050  99.091
35178DT     BB328666  38.780  66.869  99.191
35178DT     SC128667  38.690  66.987  99.408
35178DT     SC228668  38.840  66.977  99.562
35178DT     SC328669  38.529  67.055  99.605
35179DT     BB128670  38.887  66.759  98.975
35179DT     BB228671  39.106  66.665  99.246
35179DT     BB328672  39.029  66.500  99.344
35179DT     SC128673  38.845  66.645  99.461
35179DT     SC228674  38.887  66.658  99.672
35179DT     SC328675  38.606  66.736  99.529
35180DT     BB128676  39.224  66.347  99.237
35180DT     BB228677  39.256  66.297  99.593
35180DT     BB328678  39.126  66.149  99.655
35180DT     SC128679  38.920  66.309  99.633
35180DT     SC228680  38.844  66.356  99.829
35180DT     SC328681  38.690  66.409  99.548
35181DA     BB128682  39.499  66.018  99.801
35181DA     BB228683  39.259  65.996 100.078
35181DA     BB328684  39.131  65.827 100.052
35181DA     SC128685  38.915  65.985  99.894
35181DA     SC228686  38.682  66.066  99.930
35181DA     SC328687  38.669  66.081  99.674
35181DA     SC428688  38.926  65.987  99.733
35182DG     BB128689  39.242  65.705 100.323
35182DG     BB228690  38.902  65.756 100.436
35182DG     BB328691  38.790  65.599 100.386
35182DG     SC128692  38.709  65.712 100.114
35182DG     SC228693  38.434  65.796 100.033
35182DG     SC328694  38.616  65.796  99.800
35182DG     SC428695  38.802  65.682  99.987
35183DT     BB128696  38.681  65.447 100.538
35183DT     BB228697  38.341  65.563 100.511
35183DT     BB328698  38.227  65.425 100.406
35183DT     SC128699  38.336  65.498 100.178
35183DT     SC228700  38.189  65.599 100.058
35183DT     SC328701  38.473  65.484  99.954
35184DT     BB128702  38.093  65.340 100.633
35184DT     BB228703  37.833  65.456 100.411
35184DT     BB328704  37.770  65.301 100.289
35184DT     SC128705  37.987  65.317 100.143
35184DT     SC228706  37.937  65.393  99.948
35184DT     SC328707  38.216  65.250 100.030
35185DT     BB128708  37.535  65.286 100.426
35185DT     BB228709  37.440  65.356 100.085
35185DT     BB328710  37.421  65.179  99.979
35185DT     SC128711  37.682  65.150  99.966
35185DT     SC228712  37.747  65.179  99.763
35185DT     SC328713  37.922  65.048 100.003
35186DA     BB128714  37.083  65.420  99.929
35186DA     BB228715  37.204  65.319  99.598
35186DA     BB328716  37.166  65.111  99.565
35186DA     SC128717  37.438  65.017  99.681
35186DA     SC228718  37.650  64.916  99.596
35186DA     SC328719  37.689  64.843  99.839
35186DA     SC428720  37.444  64.979  99.837
35187DA     BB128721  37.052  65.278  99.310
35187DA     BB228722  37.290  65.081  99.113
35187DA     BB328723  37.229  64.876  99.106
35187DA     SC128724  37.390  64.794  99.359
35187DA     SC228725  37.591  64.657  99.414
35187DA     SC328726  37.495  64.649  99.652
35187DA     SC428727  37.313  64.800  99.500
35188DA     BB128728  37.297  64.989  98.806
35188DA     BB228729  37.545  64.719  98.796
35188DA     BB328730  37.448  64.529  98.799
35188DA     SC128731  37.452  64.505  99.109
35188DA     SC228732  37.568  64.367  99.282
35188DA     SC328733  37.376  64.437  99.437
35188DA     SC428734  37.324  64.558  99.189
35189DT     BB128735  37.494  64.463  98.652
35189DT     BB228736  37.717  64.210  98.781
35189DT     BB328737  37.613  64.035  98.815
35189DT     SC128738  37.500  64.134  99.030
35189DT     SC228739  37.579  64.035  99.204
35189DT     SC328740  37.314  64.222  99.195
35190DC     BB128741  37.765  63.965  98.620
35190DC     BB228742  37.828  63.728  98.884
35190DC     BB328743  37.673  63.592  98.896
35190DC     SC128744  37.516  63.769  99.008
35190DC     SC228745  37.481  63.714  99.213
35190DC     SC328746  37.312  63.933  99.044
35191DG     BB128747  38.002  63.361  98.827
35191DG     BB228748  37.808  63.225  99.100
35191DG     BB328749  37.654  63.121  99.029
35191DG     SC128750  37.464  63.361  99.022
35191DG     SC228751  37.220  63.397  99.192
35191DG     SC328752  37.235  63.606  98.983
35191DG     SC428753  37.459  63.453  98.891
35192DT     BB128754  37.611  62.878  99.042
35192DT     BB228755  37.338  62.861  99.278
35192DT     BB328756  37.164  62.809  99.180
35192DT     SC128757  37.141  63.049  99.076
35192DT     SC228758  36.974  63.151  99.165
35192DT     SC328759  37.129  63.241  98.896
35193DG     BB128760  37.187  62.483  99.433
35193DG     BB228761  36.855  62.625  99.449
35193DG     BB328762  36.742  62.552  99.303
35193DG     SC128763  36.818  62.771  99.102
35193DG     SC228764  36.635  62.979  98.992
35193DG     SC328765  36.895  62.983  98.852
35193DG     SC428766  36.948  62.750  99.010
35194DT     BB128767  36.526  62.388  99.299
35194DT     BB228768  36.265  62.625  99.221
35194DT     BB328769  36.188  62.585  99.033
35194DT     SC128770  36.401  62.686  98.917
35194DT     SC228771  36.348  62.870  98.819
35194DT     SC328772  36.620  62.701  98.771
35195DA     BB128773  35.820  62.552  99.245
35195DA     BB228774  35.752  62.773  98.960
35195DA     BB328775  35.715  62.657  98.784
35195DA     SC128776  36.013  62.654  98.694
35195DA     SC228777  36.153  62.753  98.513
35195DA     SC328778  36.320  62.567  98.568
35195DA     SC428779  36.104  62.531  98.743
35196DT     BB128780  35.499  62.617  98.647
35196DT     BB228781  35.590  62.833  98.372
35196DT     BB328782  35.610  62.722  98.199
35196DT     SC128783  35.840  62.624  98.279
35196DT     SC228784  35.998  62.705  98.158
35196DT     SC328785  36.022  62.448  98.355
35197DT     BB128786  35.355  62.786  98.047
35197DT     BB228787  35.613  62.880  97.813
35197DT     BB328788  35.643  62.728  97.676
35197DT     SC128789  35.770  62.582  97.854
35197DT     SC228790  35.978  62.571  97.801
35197DT     SC328791  35.826  62.383  98.017
35198DT     BB128792  35.511  62.846  97.440
35198DT     BB228793  35.848  62.786  97.327
35198DT     BB328794  35.858  62.605  97.226
35198DT     SC128795  35.842  62.470  97.451
35198DT     SC228796  36.031  62.375  97.490
35198DT     SC328797  35.750  62.307  97.637
35199DA     BB128798  36.020  62.889  96.969
35199DA     BB228799  36.263  62.616  97.000
35199DA     BB328800  36.203  62.450  96.880
35199DA     SC128801  36.040  62.314  97.107
35199DA     SC228802  36.057  62.111  97.251
35199DA     SC328803  35.805  62.140  97.288
35199DA     SC428804  35.883  62.348  97.117
35200DA     BB128805  36.506  62.510  96.792
35200DA     BB228806  36.584  62.174  96.916
35200DA     BB328807  36.512  62.026  96.780
35200DA     SC128808  36.235  61.999  96.917
35200DA     SC228809  36.111  61.829  97.053
35200DA     SC328810  35.900  61.958  96.983
35200DA     SC428811  36.115  62.091  96.862
35201DT     BB128812  36.656  61.960  96.748
35201DT     BB228813  36.604  61.654  96.931
35201DT     BB328814  36.512  61.513  96.810
35201DT     SC128815  36.281  61.636  96.828
35201DT     SC228816  36.145  61.517  96.944
35201DT     SC328817  36.064  61.769  96.758
35202DA     BB128818  36.840  61.385  97.050
35202DA     BB228819  36.565  61.144  97.078
35202DA     BB328820  36.529  61.051  96.890
35202DA     SC128821  36.319  61.261  96.798
35202DA     SC228822  36.073  61.272  96.759
35202DA     SC328823  36.125  61.478  96.616
35202DA     SC428824  36.372  61.387  96.713
35203DA     BB128825  36.553  60.815  97.120
35203DA     BB228826  36.221  60.711  97.005
35203DA     BB328827  36.231  60.640  96.804
35203DA     SC128828  36.174  60.919  96.678
35203DA     SC228829  35.989  61.031  96.553
35203DA     SC328830  36.169  61.197  96.476
35203DA     SC428831  36.300  61.011  96.640
35204DA     BB128832  36.077  60.387  96.951
35204DA     BB228833  35.806  60.439  96.710
35204DA     BB328834  35.869  60.380  96.515
35204DA     SC128835  35.975  60.662  96.437
35204DA     SC228836  35.913  60.847  96.282
35204DA     SC328837  36.156  60.923  96.308
35204DA     SC428838  36.131  60.693  96.465
35205DT     BB128839  35.786  60.213  96.419
35205DT     BB228840  35.594  60.391  96.170
35205DT     BB328841  35.687  60.377  95.986
35205DT     SC128842  35.871  60.550  96.057
35205DT     SC228843  35.843  60.733  95.947
35205DT     SC328844  36.107  60.651  96.116
35206DC     BB128845  35.511  60.185  95.869
35206DC     BB228846  35.506  60.458  95.633
35206DC     BB328847  35.653  60.430  95.489
35206DC     SC128848  35.842  60.497  95.658
35206DC     SC228849  35.926  60.687  95.600
35206DC     SC328850  36.056  60.479  95.812
35207DT     BB128851  35.485  60.348  95.270
35207DT     BB228852  35.664  60.632  95.138
35207DT     BB328853  35.835  60.569  95.041
35207DT     SC128854  35.956  60.520  95.269
35207DT     SC228855  36.114  60.663  95.298
35207DT     SC328856  36.074  60.387  95.463
35208DT     BB128857  35.740  60.613  94.777
35208DT     BB228858  36.037  60.817  94.800
35208DT     BB328859  36.202  60.709  94.736
35208DT     SC128860  36.206  60.569  94.958
35208DT     SC228861  36.379  60.623  95.074
35208DT     SC328862  36.193  60.362  95.121
35209DC     BB128863  36.217  60.858  94.508
35209DC     BB228864  36.533  60.909  94.674
35209DC     BB328865  36.667  60.762  94.617
35209DC     SC128866  36.547  60.584  94.767
35209DC     SC228867  36.674  60.533  94.933
35209DC     SC328868  36.412  60.368  94.837
35210DT     BB128869  36.789  60.959  94.493
35210DT     BB228870  37.028  60.832  94.731
35210DT     BB328871  37.123  60.665  94.653
35210DT     SC128872  36.910  60.516  94.693
35210DT     SC228873  36.950  60.375  94.850
35210DT     SC328874  36.702  60.362  94.642
35211DT     BB128875  37.331  60.825  94.646
35211DT     BB228876  37.431  60.547  94.853
35211DT     BB328877  37.494  60.389  94.734
35211DT     SC128878  37.247  60.331  94.667
35211DT     SC228879  37.191  60.144  94.758
35211DT     SC328880  37.032  60.295  94.519
35212DT     BB128881  37.728  60.451  94.835
35212DT     BB228882  37.677  60.104  94.918
35212DT     BB328883  37.725  59.984  94.756
35212DT     SC128884  37.505  60.051  94.631
35212DT     SC228885  37.373  59.882  94.623
35212DT     SC328886  37.344  60.153  94.448
35213DT     BB128887  37.937  59.909  94.899
35213DT     BB228888  37.768  59.601  94.814
35213DT     BB328889  37.824  59.540  94.625
35213DT     SC128890  37.676  59.725  94.512
35213DT     SC228891  37.509  59.632  94.413
35213DT     SC328892  37.610  59.937  94.371
35214DA     BB128893  37.884  59.210  94.878
35214DA     BB228894  37.706  59.091  94.582
35214DA     BB328895  37.837  59.083  94.414
35214DA     SC128896  37.774  59.373  94.320
35214DA     SC228897  37.656  59.484  94.130
35214DA     SC328898  37.793  59.692  94.194
35214DA     SC428899  37.869  59.491  94.374
35215DT     BB128900  37.897  58.898  94.324
35215DT     BB228901  37.698  58.928  94.025
35215DT     BB328902  37.820  58.969  93.862
35215DT     SC128903  37.853  59.217  93.940
35215DT     SC228904  37.752  59.349  93.803
35215DT     SC328905  37.972  59.437  94.024
35216DG     BB128906  37.636  58.618  93.760
35216DG     BB228907  37.598  58.865  93.499
35216DG     BB328908  37.762  58.872  93.387
35216DG     SC128909  37.899  59.085  93.558
35216DG     SC228910  37.962  59.364  93.473
35216DG     SC328911  38.087  59.303  93.734
35216DG     SC428912  37.989  59.039  93.683
35217DT     BB128913  37.764  58.818  93.165
35217DT     BB228914  37.788  59.145  93.015
35217DT     BB328915  37.979  59.175  92.941
35217DT     SC128916  38.075  59.211  93.182
35217DT     SC228917  38.132  59.417  93.207
35217DT     SC328918  38.217  59.172  93.401
35218DT     BB128919  37.879  59.154  92.691
35218DT     BB228920  38.038  59.478  92.698
35218DT     BB328921  38.239  59.458  92.652
35218DT     SC128922  38.292  59.358  92.889
35218DT     SC228923  38.407  59.499  93.002
35218DT     SC328924  38.367  59.186  93.074
35219DC     BB128925  38.182  59.578  92.420
35219DC     BB228926  38.440  59.783  92.568
35219DC     BB328927  38.626  59.705  92.523
35219DC     SC128928  38.595  59.510  92.696
35219DC     SC228929  38.729  59.540  92.862
35219DC     SC328930  38.569  59.266  92.794
35220DT     BB128931  38.662  59.913  92.359
35220DT     BB228932  38.945  59.924  92.582
35220DT     BB328933  39.094  59.799  92.513
35220DT     SC128934  38.962  59.586  92.592
35220DT     SC228935  39.065  59.496  92.758
35220DT     SC328936  38.831  59.358  92.581
35221DT     BB128937  39.251  60.010  92.429
35221DT     BB228938  39.469  59.822  92.646
35221DT     BB328939  39.569  59.677  92.538
35221DT     SC128940  39.353  59.529  92.523
35221DT     SC228941  39.379  59.352  92.644
35221DT     SC328942  39.148  59.397  92.421
35222DC     BB128943  39.814  59.811  92.539
35222DC     BB228944  39.893  59.488  92.678
35222DC     BB328945  39.946  59.357  92.527
35222DC     SC128946  39.696  59.332  92.449
35222DC     SC228947  39.626  59.134  92.496
35222DC     SC328948  39.481  59.346  92.297
35223DA     BB128949  40.269  59.335  92.793
35223DA     BB228950  40.167  58.991  92.718
35223DA     BB328951  40.237  58.934  92.525
35223DA     SC128952  39.980  59.029  92.377
35223DA     SC228953  39.786  58.926  92.258
35223DA     SC328954  39.756  59.157  92.150
35223DA     SC428955  39.979  59.179  92.320
35224DA     BB128956  40.368  58.684  92.692
35224DA     BB228957  40.155  58.462  92.492
35224DA     BB328958  40.238  58.436  92.297
35224DA     SC128959  40.082  58.676  92.174
35224DA     SC228960  39.896  58.711  92.011
35224DA     SC328961  39.987  58.950  91.990
35224DA     SC428962  40.155  58.819  92.173
35225DA     BB128963  40.203  58.125  92.388
35225DA     BB228964  39.975  58.088  92.103
35225DA     BB328965  40.086  58.081  91.921
35225DA     SC128966  40.074  58.389  91.874
35225DA     SC228967  39.964  58.548  91.717
35225DA     SC328968  40.145  58.714  91.790
35225DA     SC428969  40.196  58.477  91.931
35226DC     BB128970  40.073  57.915  91.830
35226DC     BB228971  39.858  58.024  91.562
35226DC     BB328972  39.969  58.056  91.390
35226DC     SC128973  40.068  58.280  91.486
35226DC     SC228974  39.987  58.446  91.376
35226DC     SC328975  40.243  58.456  91.575
35227DT     BB128976  39.853  57.837  91.292
35227DT     BB228977  39.782  58.095  91.050
35227DT     BB328978  39.941  58.115  90.919
35227DT     SC128979  40.085  58.238  91.101
35227DT     SC228980  40.109  58.444  91.045
35227DT     SC328981  40.281  58.288  91.271
35228DT     BB128982  39.796  57.997  90.722
35228DT     BB228983  39.902  58.310  90.577
35228DT     BB328984  40.090  58.288  90.492
35228DT     SC128985  40.205  58.286  90.728
35228DT     SC228986  40.319  58.467  90.754
35228DT     SC328987  40.342  58.201  90.937
35229DC     BB128988  40.000  58.286  90.224
35229DC     BB228989  40.249  58.548  90.227
35229DC     BB328990  40.435  58.469  90.181
35229DC     SC128991  40.456  58.361  90.419
35229DC     SC228992  40.609  58.463  90.531
35229DC     SC328993  40.478  58.177  90.607
35230DA     BB128994  40.412  58.765  89.879
35230DA     BB228995  40.739  58.805  90.039
35230DA     BB328996  40.876  58.658  89.966
35230DA     SC128997  40.807  58.449  90.186
35230DA     SC228998  40.917  58.347  90.384
35230DA     SC328999  40.744  58.159  90.359
35230DA     SC429000  40.692  58.342  90.152
35231DT     BB129001  41.069  58.692  89.830
35231DT     BB229002  41.309  58.648  90.095
35231DT     BB329003  41.419  58.475  90.063
35231DT     SC129004  41.217  58.324  90.136
35231DT     SC229005  41.263  58.231  90.325
35231DT     SC329006  41.023  58.147  90.124
35232DG     BB129007  41.708  58.765  90.064
35232DG     BB229008  41.786  58.505  90.302
35232DG     BB329009  41.872  58.351  90.210
35232DG     SC129010  41.608  58.208  90.151
35232DG     SC229011  41.520  57.947  90.267
35232DG     SC329012  41.337  58.033  90.052
35232DG     SC429013  41.530  58.242  90.015
35233DC     BB129014  42.091  58.278  90.250
35233DC     BB229015  42.027  57.983  90.447
35233DC     BB329016  42.066  57.813  90.334
35233DC     SC129017  41.845  57.845  90.196
35233DC     SC229018  41.706  57.689  90.247
35233DC     SC329019  41.685  57.886  89.990
35234DA     BB129020  42.284  57.770  90.689
35234DA     BB229021  42.094  57.460  90.637
35234DA     BB329022  42.183  57.344  90.482
35234DA     SC129023  42.014  57.472  90.255
35234DA     SC229024  41.830  57.404  90.100
35234DA     SC329025  41.904  57.604  89.957
35234DA     SC429026  42.076  57.600  90.179
35235DT     BB129027  42.272  57.158  90.525
35235DT     BB229028  42.008  56.955  90.387
35235DT     BB329029  42.070  56.869  90.209
35235DT     SC129030  42.046  57.098  90.082
35235DT     SC229031  41.880  57.086  89.944
35235DT     SC329032  42.110  57.314  89.945
35236DT     BB129033  42.093  56.617  90.322
35236DT     BB229034  41.858  56.574  90.051
35236DT     BB329035  41.959  56.526  89.877
35236DT     SC129036  42.042  56.773  89.848
35236DT     SC229037  41.943  56.863  89.679
35236DT     SC329038  42.204  56.980  89.830
35237DA     BB129039  41.659  56.241  89.936
35237DA     BB229040  41.627  56.371  89.595
35237DA     BB329041  41.782  56.293  89.471
35237DA     SC129042  41.980  56.526  89.528
35237DA     SC229043  42.079  56.719  89.405
35237DA     SC329044  42.259  56.717  89.587
35237DA     SC429045  42.083  56.508  89.650
35238DT     BB129046  41.715  56.185  89.334
35238DT     BB229047  41.760  56.425  89.068
35238DT     BB329048  41.928  56.378  88.958
35238DT     SC129049  42.087  56.465  89.148
35238DT     SC229050  42.185  56.644  89.082
35238DT     SC329051  42.270  56.464  89.338
35239DA     BB129052  41.580  56.472  88.741
35239DA     BB229053  41.862  56.664  88.607
35239DA     BB329054  42.003  56.534  88.513
35239DA     SC129055  42.171  56.491  88.771
35239DA     SC229056  42.396  56.554  88.857
35239DA     SC329057  42.365  56.359  89.021
35239DA     SC429058  42.134  56.365  88.864
35240DT     BB129059  41.990  56.603  88.371
35240DT     BB229060  42.317  56.754  88.364
35240DT     BB329061  42.457  56.617  88.296
35240DT     SC129062  42.453  56.489  88.525
35240DT     SC229063  42.640  56.519  88.627
35240DT     SC329064  42.418  56.295  88.701
35241DG     BB129065  42.452  56.980  88.105
35241DG     BB229066  42.785  56.880  88.206
35241DG     BB329067  42.846  56.726  88.095
35241DG     SC129068  42.733  56.513  88.284
35241DG     SC229069  42.892  56.320  88.446
35241DG     SC329070  42.603  56.255  88.458
35241DG     SC429071  42.581  56.464  88.264
35242DA     BB129072  43.125  56.931  88.066
35242DA     BB229073  43.334  56.655  88.186
35242DA     BB329074  43.342  56.499  88.041
35242DA     SC129075  43.096  56.346  88.155
35242DA     SC229076  43.051  56.133  88.276
35242DA     SC329077  42.809  56.161  88.193
35242DA     SC429078  42.951  56.381  88.093
35243DT     BB129079  43.513  56.469  87.961
35243DT     BB229080  43.588  56.151  88.114
35243DT     BB329081  43.549  55.998  87.981
35243DT     SC129082  43.290  56.024  88.015
35243DT     SC229083  43.215  55.852  88.121
35243DT     SC329084  43.036  56.071  87.962
35244DT     BB129085  43.815  55.954  87.939
35244DT     BB229086  43.688  55.630  88.032
35244DT     BB329087  43.618  55.531  87.864
35244DT     SC129088  43.403  55.682  87.856
35244DT     SC229089  43.231  55.564  87.908
35244DT     SC329090  43.225  55.857  87.770
35245DT     BB129091  43.835  55.353  87.842
35245DT     BB229092  43.548  55.134  87.845
35245DT     BB329093  43.481  55.102  87.652
35245DT     SC129094  43.376  55.342  87.640
35245DT     SC229095  43.161  55.326  87.639
35245DT     SC329096  43.332  55.591  87.564
35246DG     BB129097  43.576  54.712  87.750
35246DG     BB229098  43.241  54.728  87.616
35246DG     BB329099  43.247  54.727  87.417
35246DG     SC129100  43.264  55.031  87.391
35246DG     SC229101  43.055  55.209  87.275
35246DG     SC329102  43.304  55.360  87.327
35246DG     SC429103  43.408  55.101  87.393
35247DT     BB129104  43.167  54.548  87.229
35247DT     BB229105  42.870  54.713  87.110
35247DT     BB329106  42.897  54.777  86.915
35247DT     SC129107  43.051  54.975  86.993
35247DT     SC229108  42.949  55.161  86.962
35247DT     SC329109  43.266  55.125  87.023
35248DA     BB129110  42.555  54.535  86.833
35248DA     BB229111  42.485  54.865  86.689
35248DA     BB329112  42.577  54.883  86.498
35248DA     SC129113  42.842  55.002  86.609
35248DA     SC229114  42.962  55.220  86.607
35248DA     SC329115  43.171  55.083  86.665
35248DA     SC429116  42.961  54.899  86.644
35249DG     BB129117  42.300  54.915  86.317
35249DG     BB229118  42.419  55.254  86.273
35249DG     BB329119  42.520  55.268  86.102
35249DG     SC129120  42.790  55.198  86.229
35249DG     SC229121  43.024  55.383  86.257
35249DG     SC329122  43.098  55.106  86.330
35249DG     SC429123  42.834  55.045  86.239
35250DT     BB129124  42.463  55.409  85.901
35250DT     BB229125  42.686  55.683  85.973
35250DT     BB329126  42.836  55.692  85.831
35250DT     SC129127  42.958  55.484  85.935
35250DT     SC229128  43.142  55.547  86.026
35250DT     SC329129  43.059  55.242  85.958
35251DG     BB129130  42.629  56.038  85.868
35251DG     BB229131  42.982  56.082  85.932
35251DG     BB329132  43.083  56.082  85.760
35251DG     SC129133  43.128  55.779  85.758
35251DG     SC229134  43.391  55.641  85.787
35251DG     SC329135  43.179  55.449  85.714
35251DG     SC429136  43.018  55.684  85.691
35252DA     BB129137  43.187  56.344  85.952
35252DA     BB229138  43.526  56.205  85.932
35252DA     BB329139  43.598  56.215  85.731
35252DA     SC129140  43.491  55.933  85.653
35252DA     SC229141  43.584  55.708  85.599
35252DA     SC329142  43.358  55.663  85.488
35252DA     SC429143  43.344  55.925  85.588
35253DT     BB129144  43.725  56.309  85.760
35253DT     BB229145  43.981  56.061  85.706
35253DT     BB329146  44.029  56.051  85.505
35253DT     SC129147  43.806  55.924  85.450
35253DT     SC229148  43.851  55.721  85.394
35253DT     SC329149  43.569  55.873  85.347
35254DT     BB129150  44.251  56.155  85.593
35254DT     BB229151  44.347  55.857  85.413
35254DT     BB329152  44.345  55.893  85.209
35254DT     SC129153  44.083  55.889  85.202
35254DT     SC229154  44.018  55.713  85.096
35254DT     SC329155  43.834  55.970  85.170
35255DT     BB129156  44.618  55.892  85.203
35255DT     BB229157  44.522  55.649  84.955
35255DT     BB329158  44.489  55.743  84.773
35255DT     SC129159  44.260  55.839  84.856
35255DT     SC229160  44.099  55.742  84.752
35255DT     SC329161  44.075  56.014  84.927
35256DT     BB129162  44.728  55.655  84.651
35256DT     BB229163  44.470  55.543  84.425
35256DT     BB329164  44.432  55.689  84.283
35256DT     SC129165  44.302  55.836  84.458
35256DT     SC229166  44.093  55.838  84.408
35256DT     SC329167  44.241  56.040  84.614
35257DC     BB129168  44.561  55.557  84.068
35257DC     BB229169  44.223  55.606  83.952
35257DC     BB329170  44.209  55.786  83.850
35257DC     SC129171  44.218  55.923  84.073
35257DC     SC229172  44.026  56.013  84.109
35257DC     SC329173  44.303  56.090  84.259
35258DA     BB129174  44.051  55.484  83.608
35258DA     BB229175  43.803  55.753  83.632
35258DA     BB329176  43.863  55.921  83.514
35258DA     SC129177  44.018  56.059  83.746
35258DA     SC229178  43.992  56.261  83.890
35258DA     SC329179  44.244  56.236  83.935
35258DA     SC429180  44.175  56.027  83.761
35259DA     BB129181  43.559  55.837  83.445
35259DA     BB229182  43.473  56.174  83.562
35259DA     BB329183  43.548  56.321  83.427
35259DA     SC129184  43.821  56.352  83.575
35259DA     SC229185  43.937  56.524  83.712
35259DA     SC329186  44.152  56.398  83.652
35259DA     SC429187  43.943  56.261  83.525
35260DT     BB129188  43.405  56.370  83.411
35260DT     BB229189  43.448  56.685  83.582
35260DT     BB329190  43.541  56.821  83.457
35260DT     SC129191  43.773  56.702  83.487
35260DT     SC229192  43.904  56.830  83.601
35260DT     SC329193  43.993  56.570  83.428
35261DA     BB129194  43.207  56.954  83.692
35261DA     BB229195  43.475  57.204  83.701
35261DA     BB329196  43.510  57.282  83.506
35261DA     SC129197  43.727  57.071  83.435
35261DA     SC229198  43.974  57.065  83.398
35261DA     SC329199  43.929  56.845  83.273
35261DA     SC429200  43.679  56.937  83.360
35262DT     BB129201  43.470  57.447  83.517
35262DT     BB229202  43.802  57.583  83.477
35262DT     BB329203  43.841  57.616  83.277
35262DT     SC129204  43.874  57.360  83.233
35262DT     SC229205  44.081  57.320  83.191
35262DT     SC329206  43.834  57.117  83.136
35263DA     BB129207  43.929  57.978  83.475
35263DA     BB229208  44.205  57.906  83.244
35263DA     BB329209  44.142  57.936  83.042
35263DA     SC129210  44.048  57.642  83.002
35263DA     SC229211  44.120  57.441  82.873
35263DA     SC329212  43.879  57.358  82.908
35263DA     SC429213  43.894  57.608  83.033
35264DA     BB129214  44.403  58.141  83.018
35264DA     BB229215  44.531  57.921  82.753
35264DA     BB329216  44.425  57.955  82.571
35264DA     SC129217  44.209  57.739  82.628
35264DA     SC229218  44.143  57.516  82.540
35264DA     SC329219  43.916  57.562  82.650
35264DA     SC429220  44.074  57.787  82.702
35265DT     BB129221  44.518  58.042  82.399
35265DT     BB229222  44.539  57.738  82.205
35265DT     BB329223  44.401  57.743  82.051
35265DT     SC129224  44.203  57.696  82.217
35265DT     SC229225  44.125  57.499  82.183
35265DT     SC329226  43.981  57.732  82.355
35266DG     BB129227  44.765  57.696  81.873
35266DG     BB229228  44.532  57.442  81.765
35266DG     BB329229  44.408  57.517  81.629
35266DG     SC129230  44.200  57.610  81.834
35266DG     SC229231  43.924  57.500  81.866
35266DG     SC329232  43.961  57.742  82.032
35266DG     SC429233  44.214  57.756  81.898
35267DA     BB129234  44.498  57.244  81.436
35267DA     BB229235  44.148  57.137  81.425
35267DA     BB329236  44.037  57.261  81.292
35267DA     SC129237  43.955  57.465  81.511
35267DA     SC229238  43.747  57.534  81.632
35267DA     SC329239  43.874  57.750  81.685
35267DA     SC429240  44.050  57.593  81.533
35268DA     BB129241  43.960  56.965  81.168
35268DA     BB229242  43.611  57.048  81.243
35268DA     BB329243  43.537  57.192  81.104
35268DA     SC129244  43.619  57.437  81.279
35268DA     SC229245  43.506  57.614  81.412
35268DA     SC329246  43.727  57.743  81.390
35268DA     SC429247  43.764  57.501  81.252
35269DT     BB129248  43.390  57.142  80.967
35269DT     BB229249  43.119  57.323  81.124
35269DT     BB329250  43.077  57.494  81.016
35269DT     SC129251  43.293  57.613  81.108
35269DT     SC229252  43.235  57.772  81.242
35269DT     SC329253  43.529  57.730  81.111
35270DC     BB129254  42.839  57.400  80.899
35270DC     BB229255  42.738  57.705  81.063
35270DC     BB329256  42.758  57.865  80.933
35270DC     SC129257  43.019  57.863  80.960
35270DC     SC229258  43.081  58.038  81.069
35270DC     SC329259  43.275  57.842  80.898
35271DT     BB129260  42.478  57.910  80.864
35271DT     BB229261  42.584  58.230  80.991
35271DT     BB329262  42.645  58.352  80.834
35271DT     SC129263  42.869  58.218  80.807
35271DT     SC229264  43.034  58.342  80.870
35271DT     SC329265  43.056  58.067  80.700
35272DA     BB129266  42.357  58.584  81.033
35272DA     BB229267  42.657  58.791  80.994
35272DA     BB329268  42.673  58.863  80.794
35272DA     SC129269  42.841  58.622  80.694
35272DA     SC229270  43.075  58.578  80.619
35272DA     SC329271  42.979  58.368  80.508
35272DA     SC429272  42.762  58.497  80.631
35273DA     BB129273  42.692  59.150  80.951
35273DA     BB229274  43.028  59.183  80.809
35273DA     BB329275  43.016  59.239  80.603
35273DA     SC129276  43.014  58.947  80.498
35273DA     SC229277  43.166  58.794  80.372
35273DA     SC329278  42.955  58.659  80.320
35273DA     SC429279  42.871  58.877  80.475
35274DG     BB129280  43.177  59.481  80.710
35274DG     BB229281  43.433  59.344  80.494
35274DG     BB329282  43.400  59.399  80.306
35274DG     SC129283  43.225  59.156  80.240
35274DG     SC229284  43.295  58.937  80.050
35274DG     SC329285  43.014  58.913  80.140
35274DG     SC429286  43.068  59.164  80.268
35275DC     BB129287  43.546  59.522  80.201
35275DC     BB229288  43.696  59.281  79.978
35275DC     BB329289  43.621  59.307  79.787
35275DC     SC129290  43.393  59.196  79.853
35275DC     SC229291  43.375  59.005  79.755
35275DC     SC329292  43.135  59.168  79.898
35276DT     BB129293  43.859  59.414  79.703
35276DT     BB229294  43.803  59.135  79.481
35276DT     BB329295  43.689  59.196  79.319
35276DT     SC129296  43.471  59.202  79.466
35276DT     SC229297  43.340  59.043  79.406
35276DT     SC329298  43.259  59.296  79.591
35277DT     BB129299  43.904  59.188  79.145
35277DT     BB229300  43.661  58.968  78.995
35277DT     BB329301  43.536  59.075  78.870
35277DT     SC129302  43.408  59.179  79.074
35277DT     SC229303  43.208  59.098  79.082
35277DT     SC329304  43.314  59.359  79.242
35278DC     BB129305  43.651  58.970  78.641
35278DC     BB229306  43.302  58.882  78.614
35278DC     BB329307  43.199  59.033  78.517
35278DC     SC129308  43.208  59.186  78.729
35278DC     SC229309  43.010  59.205  78.812
35278DC     SC329310  43.265  59.392  78.885
35279DA     BB129311  43.112  58.670  78.327
35279DA     BB229312  42.795  58.837  78.405
35279DA     BB329313  42.763  59.002  78.273
35279DA     SC129314  42.903  59.209  78.459
35279DA     SC229315  42.838  59.403  78.600
35279DA     SC329316  43.085  59.471  78.584
35279DA     SC429317  43.060  59.235  78.436
35280DT     BB129318  42.616  58.972  78.171
35280DT     BB229319  42.399  59.202  78.345
35280DT     BB329320  42.387  59.380  78.241
35280DT     SC129321  42.627  59.451  78.318
35280DT     SC229322  42.612  59.616  78.455
35280DT     SC329323  42.882  59.517  78.306
35281DC     BB129324  42.140  59.300  78.197
35281DC     BB229325  42.108  59.622  78.358
35281DC     BB329326  42.130  59.773  78.218
35281DC     SC129327  42.389  59.735  78.206
35281DC     SC229328  42.490  59.903  78.294
35281DC     SC329329  42.627  59.676  78.108
35282DT     BB129330  41.873  59.809  78.263
35282DT     BB229331  42.025  60.130  78.328
35282DT     BB329332  42.053  60.232  78.150
35282DT     SC129333  42.256  60.078  78.085
35282DT     SC229334  42.438  60.193  78.095
35282DT     SC329335  42.403  59.903  77.953
35283DG     BB129336  41.824  60.470  78.387
35283DG     BB229337  42.102  60.655  78.248
35283DG     BB329338  42.064  60.702  78.059
35283DG     SC129339  42.185  60.446  77.944
35283DG     SC229340  42.431  60.429  77.775
35283DG     SC329341  42.292  60.168  77.785
35283DG     SC429342  42.092  60.317  77.927
35284DA     BB129343  42.129  61.045  78.117
35284DA     BB229344  42.391  61.048  77.861
35284DA     BB329345  42.304  61.061  77.666
35284DA     SC129346  42.286  60.752  77.628
35284DA     SC229347  42.396  60.577  77.488
35284DA     SC329348  42.190  60.434  77.542
35284DA     SC429349  42.150  60.680  77.671
35285DT     BB129350  42.309  61.244  77.513
35285DT     BB229351  42.542  61.098  77.280
35285DT     BB329352  42.447  61.057  77.100
35285DT     SC129353  42.325  60.849  77.204
35285DT     SC229354  42.405  60.669  77.118
35285DT     SC329355  42.131  60.692  77.289
35286DC     BB129356  42.547  61.279  76.930
35286DC     BB229357  42.637  60.985  76.741
35286DC     BB329358  42.492  60.945  76.599
35286DC     SC129359  42.327  60.853  76.782
35286DC     SC229360  42.305  60.640  76.758
35286DC     SC329361  42.114  60.832  76.936
35287DT     BB129362  42.634  61.036  76.361
35287DT     BB229363  42.554  60.692  76.286
35287DT     BB329364  42.378  60.682  76.177
35287DT     SC129365  42.235  60.734  76.391
35287DT     SC229366  42.124  60.558  76.447
35287DT     SC329367  42.071  60.859  76.555
35288DC     BB129368  42.510  60.615  75.941
35288DC     BB229369  42.283  60.340  75.999
35288DC     BB329370  42.102  60.377  75.905
35288DC     SC129371  42.035  60.552  76.088
35288DC     SC229372  41.873  60.473  76.207
35288DC     SC329373  41.970  60.783  76.199
35289DA     BB129374  42.250  59.998  75.815
35289DA     BB229375  41.901  59.963  75.924
35289DA     BB329376  41.769  60.038  75.774
35289DA     SC129377  41.764  60.327  75.889
35289DA     SC229378  41.601  60.477  76.004
35289DA     SC329379  41.754  60.668  75.927
35289DA     SC429380  41.871  60.432  75.831
35290DC     BB129381  41.673  59.902  75.721
35290DC     BB229382  41.363  59.999  75.877
35290DC     BB329383  41.243  60.099  75.740
35290DC     SC129384  41.392  60.315  75.757
35290DC     SC229385  41.281  60.471  75.856
35290DC     SC329386  41.554  60.511  75.686
35291DT     BB129387  41.110  59.882  75.778
35291DT     BB229388  40.884  60.153  75.856
35291DT     BB329389  40.814  60.239  75.682
35291DT     SC129390  41.044  60.359  75.640
35291DT     SC229391  41.019  60.571  75.668
35291DT     SC329392  41.272  60.426  75.525
35292DA     BB129393  40.495  60.152  75.943
35292DA     BB229394  40.451  60.493  75.813
35292DA     BB329395  40.402  60.487  75.605
35292DA     SC129396  40.699  60.502  75.511
35292DA     SC229397  40.848  60.666  75.397
35292DA     SC329398  40.995  60.463  75.341
35292DA     SC429399  40.775  60.363  75.485
35293DA     BB129400  40.151  60.673  75.711
35293DA     BB229401  40.273  60.932  75.482
35293DA     BB329402  40.229  60.879  75.280
35293DA     SC129403  40.499  60.730  75.235
35293DA     SC229404  40.709  60.764  75.105
35293DA     SC329405  40.744  60.512  75.136
35293DA     SC429406  40.502  60.572  75.264
35294DC     BB129407  40.091  60.988  75.167
35294DC     BB229408  40.330  61.154  74.953
35294DC     BB329409  40.325  61.070  74.764
35294DC     SC129410  40.454  60.857  74.847
35294DC     SC229411  40.652  60.855  74.762
35294DC     SC329412  40.504  60.604  74.905
35295DA     BB129413  40.277  61.483  74.706
35295DA     BB229414  40.539  61.368  74.477
35295DA     BB329415  40.454  61.258  74.315
35295DA     SC129416  40.475  60.983  74.459
35295DA     SC229417  40.607  60.773  74.436
35295DA     SC329418  40.420  60.664  74.573
35295DA     SC429419  40.348  60.934  74.544
35296DT     BB129420  40.466  61.336  74.128
35296DT     BB229421  40.721  61.111  74.005
35296DT     BB329422  40.636  60.971  73.879
35296DT     SC129423  40.531  60.841  74.081
35296DT     SC229424  40.631  60.652  74.104
35296DT     SC329425  40.350  60.736  74.241
35297DT     BB129426  40.757  61.095  73.674
35297DT     BB229427  40.876  60.754  73.658
35297DT     BB329428  40.741  60.637  73.554
35297DT     SC129429  40.573  60.636  73.756
35297DT     SC229430  40.566  60.438  73.842
35297DT     SC329431  40.355  60.678  73.898
35298DG     BB129432  41.103  60.607  73.369
35298DG     BB229433  40.964  60.281  73.443
35298DG     BB329434  40.820  60.237  73.313
35298DG     SC129435  40.596  60.363  73.479
35298DG     SC229436  40.371  60.216  73.610
35298DG     SC329437  40.330  60.509  73.626
35298DG     SC429438  40.563  60.518  73.460
35299DA     BB129439  40.986  59.936  73.255
35299DA     BB229440  40.687  59.750  73.358
35299DA     BB329441  40.540  59.755  73.203
35299DA     SC129442  40.402  60.012  73.310
35299DA     SC229443  40.186  60.075  73.417
35299DA     SC329444  40.238  60.313  73.338
35299DA     SC429445  40.452  60.153  73.250
35300DG     BB129446  40.563  59.440  73.192
35300DG     BB229447  40.218  59.454  73.301
35300DG     BB329448  40.098  59.479  73.145
35300DG     SC129449  40.107  59.785  73.157
35300DG     SC229450  39.878  59.965  73.224
35300DG     SC329451  40.110  60.121  73.129
35300DG     SC429452  40.223  59.863  73.078
35301DT     BB129453  39.924  59.323  73.049
35301DT     BB229454  39.622  59.483  73.163
35301DT     BB329455  39.520  59.564  73.003
35301DT     SC129456  39.692  59.762  72.984
35301DT     SC229457  39.596  59.945  73.043
35301DT     SC329458  39.878  59.920  72.885
35302DT     BB129459  39.316  59.369  72.997
35302DT     BB229460  39.136  59.680  73.031
35302DT     BB329461  39.087  59.754  72.844
35302DT     SC129462  39.334  59.830  72.801
35302DT     SC229463  39.344  60.045  72.803
35302DT     SC329464  39.574  59.845  72.692
35303DC     BB129465  38.816  59.689  72.867
35303DC     BB229466  38.814  60.044  72.802
35303DC     BB329467  38.805  60.078  72.598
35303DC     SC129468  39.056  60.010  72.567
35303DC     SC229469  39.171  60.185  72.516
35303DC     SC329470  39.269  59.877  72.486
35304DA     BB129471  38.491  60.302  72.762
35304DA     BB229472  38.677  60.524  72.537
35304DA     BB329473  38.632  60.477  72.334
35304DA     SC129474  38.864  60.272  72.304
35304DA     SC229475  39.082  60.255  72.184
35304DA     SC329476  39.059  60.002  72.219
35304DA     SC429477  38.831  60.117  72.335
35305DC     BB129478  38.523  60.613  72.204
35305DC     BB229479  38.806  60.719  72.006
35305DC     BB329480  38.793  60.639  71.816
35305DC     SC129481  38.863  60.401  71.903
35305DC     SC229482  39.060  60.354  71.829
35305DC     SC329483  38.850  60.144  71.960
35306DC     BB129484  38.718  60.880  71.689
35306DC     BB229485  39.014  60.778  71.510
35306DC     BB329486  38.962  60.662  71.347
35306DC     SC129487  38.907  60.456  71.501
35306DC     SC229488  39.055  60.303  71.469
35306DC     SC329489  38.771  60.265  71.621
35307DC     BB129490  39.014  60.861  71.152
35307DC     BB229491  39.223  60.585  71.052
35307DC     BB329492  39.121  60.464  70.918
35307DC     SC129493  38.972  60.364  71.109
35307DC     SC229494  39.026  60.158  71.139
35307DC     SC329495  38.759  60.303  71.251
35308DA     BB129496  39.482  60.559  70.729
35308DA     BB229497  39.442  60.195  70.714
35308DA     BB329498  39.300  60.142  70.564
35308DA     SC129499  39.057  60.149  70.757
35308DA     SC229500  38.898  59.986  70.860
35308DA     SC329501  38.745  60.189  70.896
35308DA     SC429502  38.975  60.287  70.769
35309DA     BB129503  39.556  59.962  70.479
35309DA     BB229504  39.343  59.670  70.543
35309DA     BB329505  39.203  59.644  70.383
35309DA     SC129506  38.983  59.819  70.516
35309DA     SC229507  38.759  59.785  70.621
35309DA     SC329508  38.723  60.035  70.577
35309DA     SC429509  38.979  59.975  70.479
35310DA     BB129510  39.352  59.361  70.430
35310DA     BB229511  39.018  59.228  70.504
35310DA     BB329512  38.901  59.221  70.326
35310DA     SC129513  38.782  59.506  70.363
35310DA     SC229514  38.562  59.609  70.417
35310DA     SC329515  38.658  59.822  70.312
35310DA     SC429516  38.860  59.628  70.292
35311DT     BB129517  38.868  59.054  70.303
35311DT     BB229518  38.518  59.064  70.391
35311DT     BB329519  38.403  59.086  70.220
35311DT     SC129520  38.469  59.339  70.200
35311DT     SC229521  38.297  59.462  70.242
35311DT     SC329522  38.572  59.562  70.102
35312DT     BB129523  38.337  58.845  70.288
35312DT     BB229524  38.027  59.029  70.269
35312DT     BB329525  37.969  59.049  70.071
35312DT     SC129526  38.152  59.231  70.028
35312DT     SC229527  38.057  59.422  69.998
35312DT     SC329528  38.365  59.350  69.928
35313DT     BB129529  37.780  58.881  70.142
35313DT     BB229530  37.607  59.165  70.000
35313DT     BB329531  37.608  59.152  69.793
35313DT     SC129532  37.861  59.222  69.783
35313DT     SC229533  37.877  59.418  69.697
35313DT     SC329534  38.120  59.208  69.737
35314DA     BB129535  37.208  59.213  69.906
35314DA     BB229536  37.279  59.438  69.625
35314DA     BB329537  37.295  59.327  69.443
35314DA     SC129538  37.602  59.281  69.469
35314DA     SC229539  37.810  59.357  69.355
35314DA     SC329540  37.919  59.150  69.460
35314DA     SC429541  37.651  59.146  69.542
35315DG     BB129542  37.048  59.490  69.324
35315DG     BB229543  37.288  59.601  69.078
35315DG     BB329544  37.302  59.468  68.931
35315DG     SC129545  37.525  59.307  69.065
35315DG     SC229546  37.806  59.282  68.967
35315DG     SC329547  37.756  59.096  69.192
35315DG     SC429548  37.486  59.188  69.166
35316DT     BB129549  37.236  59.484  68.684
35316DT     BB229550  37.560  59.508  68.528
35316DT     BB329551  37.602  59.334  68.424
35316DT     SC129552  37.650  59.204  68.647
35316DT     SC229553  37.860  59.160  68.660
35316DT     SC329554  37.627  59.027  68.842
35317DT     BB129555  37.553  59.414  68.141
35317DT     BB229556  37.889  59.286  68.130
35317DT     BB329557  37.887  59.087  68.072
35317DT     SC129558  37.799  59.011  68.307
35317DT     SC229559  37.954  58.902  68.409
35317DT     SC329560  37.641  58.909  68.491
35318DT     BB129561  37.976  59.099  67.783
35318DT     BB229562  38.215  58.874  67.933
35318DT     BB329563  38.158  58.678  67.899
35318DT     SC129564  37.967  58.695  68.079
35318DT     SC229565  38.019  58.573  68.249
35318DT     SC329566  37.726  58.697  68.186
35319DT     BB129567  38.352  58.605  67.693
35319DT     BB229568  38.413  58.368  67.958
35319DT     BB329569  38.308  58.193  67.923
35319DT     SC129570  38.082  58.306  67.992
35319DT     SC229571  38.014  58.222  68.178
35319DT     SC329572  37.836  58.402  67.975
35320DT     BB129573  38.538  58.052  67.858
35320DT     BB229574  38.400  57.880  68.144
35320DT     BB329575  38.270  57.731  68.081
35320DT     SC129576  38.086  57.908  68.020
35320DT     SC229577  37.922  57.890  68.158
35320DT     SC329578  37.917  58.050  67.876
35321DA     BB129579  38.550  57.600  68.363
35321DA     BB229580  38.214  57.505  68.477
35321DA     BB329581  38.135  57.349  68.353
35321DA     SC129582  37.999  57.544  68.153
35321DA     SC229583  37.768  57.612  68.090
35321DA     SC329584  37.874  57.696  67.871
35321DA     SC429585  38.084  57.589  68.023
35322DT     BB129586  38.114  57.218  68.461
35322DT     BB229587  37.754  57.232  68.478
35322DT     BB329588  37.672  57.104  68.338
35322DT     SC129589  37.731  57.268  68.142
35322DT     SC229590  37.550  57.353  68.063
35322DT     SC329591  37.841  57.362  67.922
35323DC     BB129592  37.602  56.974  68.553
35323DC     BB229593  37.295  57.039  68.376
35323DC     BB329594  37.271  56.902  68.223
35323DC     SC129595  37.454  57.022  68.077
35323DC     SC229596  37.359  57.117  67.908
35323DC     SC329597  37.677  57.063  67.943
35324DA     BB129598  36.918  56.910  68.450
35324DA     BB229599  36.826  56.930  68.095
35324DA     BB329600  36.861  56.742  67.999
35324DA     SC129601  37.152  56.811  67.916
35324DA     SC229602  37.278  56.859  67.706
35324DA     SC329603  37.487  56.798  67.841
35324DA     SC429604  37.270  56.768  68.016
35325DT     BB129605  36.701  56.629  67.929
35325DT     BB229606  36.755  56.693  67.578
35325DT     BB329607  36.835  56.525  67.487
35325DT     SC129608  37.070  56.569  67.595
35325DT     SC229609  37.209  56.628  67.441
35325DT     SC329610  37.286  56.534  67.742
35326DG     BB129611  36.486  56.589  67.284
35326DG     BB229612  36.767  56.567  67.057
35326DG     BB329613  36.813  56.376  67.025
35326DG     SC129614  37.010  56.359  67.258
35326DG     SC229615  37.305  56.320  67.236
35326DG     SC329616  37.217  56.298  67.518
35326DG     SC429617  36.955  56.318  67.403
35327DA     BB129618  36.791  56.454  66.690
35327DA     BB229619  37.144  56.364  66.648
35327DA     BB329620  37.167  56.152  66.643
35327DA     SC129621  37.209  56.125  66.950
35327DA     SC229622  37.395  56.068  67.107
35327DA     SC329623  37.209  56.018  67.276
35327DA     SC429624  37.079  56.097  67.041
35328DT     BB129625  37.231  56.104  66.482
35328DT     BB229626  37.568  56.035  66.591
35328DT     BB329627  37.593  55.831  66.620
35328DT     SC129628  37.456  55.839  66.844
35328DT     SC229629  37.588  55.805  67.010
35328DT     SC329630  37.264  55.794  67.020
35329DA     BB129631  37.896  56.039  66.410
35329DA     BB229632  38.049  55.827  66.667
35329DA     BB329633  38.015  55.621  66.622
35329DA     SC129634  37.750  55.605  66.784
35329DA     SC229635  37.667  55.498  66.994
35329DA     SC329636  37.433  55.531  66.895
35329DA     SC429637  37.612  55.633  66.705
35330DT     BB129638  38.168  55.590  66.616
35330DT     BB229639  38.188  55.379  66.908
35330DT     BB329640  38.124  55.188  66.862
35330DT     SC129641  37.873  55.264  66.857
35330DT     SC229642  37.769  55.178  67.024
35330DT     SC329643  37.631  55.315  66.765
35331DT     BB129644  38.376  55.139  66.898
35331DT     BB229645  38.202  54.904  67.109
35331DT     BB329646  38.131  54.746  66.995
35331DT     SC129647  37.939  54.895  66.896
35331DT     SC229648  37.750  54.828  66.974
35331DT     SC329649  37.792  55.026  66.721
35332DT     BB129650  38.323  54.582  67.095
35332DT     BB229651  38.017  54.399  67.148
35332DT     BB329652  37.969  54.290  66.979
35332DT     SC129653  37.891  54.506  66.852
35332DT     SC229654  37.678  54.500  66.826
35332DT     SC329655  37.883  54.698  66.672
35333DA     BB129656  37.968  53.987  67.273
35333DA     BB229657  37.665  53.940  67.072
35333DA     BB329658  37.714  53.851  66.884
35333DA     SC129659  37.754  54.123  66.739
35333DA     SC229660  37.639  54.258  66.563
35333DA     SC329661  37.864  54.377  66.535
35333DA     SC429662  37.903  54.185  66.735
35334DT     BB129663  37.664  53.632  66.806
35334DT     BB229664  37.408  53.727  66.570
35334DT     BB329665  37.475  53.694  66.377
35334DT     SC129666  37.631  53.905  66.387
35334DT     SC229667  37.554  54.057  66.256
35334DT     SC329668  37.851  54.051  66.386
35335DG     BB129669  37.151  53.437  66.377
35335DG     BB229670  37.134  53.659  66.092
35335DG     BB329671  37.244  53.587  65.943
35335DG     SC129672  37.500  53.731  66.030
35335DG     SC229673  37.637  53.951  65.881
35335DG     SC329674  37.802  53.858  66.108
35335DG     SC429675  37.598  53.659  66.134
35336DG     BB129676  36.992  53.554  65.716
35336DG     BB229677  37.163  53.804  65.518
35336DG     BB329678  37.291  53.716  65.394
35336DG     SC129679  37.525  53.724  65.592
35336DG     SC229680  37.774  53.885  65.562
35336DG     SC329681  37.797  53.698  65.790
35336DG     SC429682  37.544  53.602  65.694
35337DT     BB129683  37.285  53.713  65.147
35337DT     BB229684  37.543  53.955  65.076
35337DT     BB329685  37.709  53.859  64.996
35337DT     SC129686  37.777  53.763  65.230
35337DT     SC229687  37.957  53.859  65.297
35337DT     SC329688  37.828  53.589  65.421
35338DG     BB129689  37.602  54.121  64.699
35338DG     BB229690  37.949  54.165  64.791
35338DG     BB329691  38.061  54.030  64.698
35338DG     SC129692  38.037  53.820  64.919
35338DG     SC229693  38.258  53.722  65.094
35338DG     SC329694  38.015  53.559  65.132
35338DG     SC429695  37.914  53.717  64.915
35339DT     BB129696  38.229  54.082  64.541
35339DT     BB229697  38.523  54.033  64.745
35339DT     BB329698  38.622  53.861  64.685
35339DT     SC129699  38.441  53.708  64.799
35339DT     SC229700  38.528  53.611  64.970
35339DT     SC329701  38.248  53.530  64.827
35340DG     BB129702  38.882  54.172  64.654
35340DG     BB229703  39.015  53.907  64.862
35340DG     BB329704  39.085  53.760  64.748
35340DG     SC129705  38.819  53.608  64.737
35340DG     SC229706  38.765  53.341  64.858
35340DG     SC329707  38.539  53.427  64.687
35340DG     SC429708  38.714  53.644  64.622
35341DA     BB129709  39.356  53.806  64.950
35341DA     BB229710  39.324  53.458  65.063
35341DA     BB329711  39.389  53.324  64.910
35341DA     SC129712  39.107  53.296  64.781
35341DA     SC229713  38.932  53.120  64.759
35341DA     SC329714  38.845  53.260  64.562
35341DA     SC429715  39.070  53.396  64.661
35342DT     BB129716  39.531  53.237  64.971
35342DT     BB229717  39.367  52.919  65.023
35342DT     BB329718  39.400  52.795  64.860
35342DT     SC129719  39.230  52.930  64.713
35342DT     SC229720  39.056  52.808  64.677
35342DT     SC329721  39.134  53.080  64.519
35343DT     BB129722  39.543  52.666  65.036
35343DT     BB229723  39.301  52.428  64.913
35343DT     BB329724  39.363  52.352  64.730
35343DT     SC129725  39.299  52.575  64.607
35343DT     SC229726  39.129  52.541  64.481
35343DT     SC329727  39.324  52.799  64.470
35344DC     BB129728  39.404  52.128  64.864
35344DC     BB229729  39.180  52.039  64.595
35344DC     BB329730  39.288  52.006  64.421
35344DC     SC129731  39.326  52.264  64.387
35344DC     SC229732  39.212  52.330  64.217
35344DC     SC329733  39.450  52.495  64.364
35345DA     BB129734  39.038  51.674  64.482
35345DA     BB229735  39.005  51.778  64.132
35345DA     BB329736  39.181  51.729  64.023
35345DA     SC129737  39.321  52.001  64.078
35345DA     SC229738  39.386  52.204  63.949
35345DA     SC329739  39.550  52.249  64.142
35345DA     SC429740  39.417  52.010  64.206
35346DA     BB129741  38.963  51.579  63.825
35346DA     BB229742  39.082  51.799  63.557
35346DA     BB329743  39.273  51.735  63.488
35346DA     SC129744  39.432  51.912  63.688
35346DA     SC229745  39.578  52.114  63.679
35346DA     SC329746  39.665  52.036  63.908
35346DA     SC429747  39.474  51.846  63.828
35347DT     BB129748  39.295  51.660  63.296
35347DT     BB229749  39.463  51.945  63.154
35347DT     BB329750  39.664  51.903  63.127
35347DT     SC129751  39.711  51.924  63.385
35347DT     SC229752  39.829  52.100  63.421
35347DT     SC329753  39.779  51.858  63.631
35348DT     BB129754  39.635  51.885  62.854
35348DT     BB229755  39.891  52.135  62.900
35348DT     BB329756  40.077  52.044  62.909
35348DT     SC129757  40.031  51.958  63.153
35348DT     SC229758  40.157  52.064  63.291
35348DT     SC329759  39.992  51.792  63.354
35349DT     BB129760  40.143  52.136  62.660
35349DT     BB229761  40.405  52.262  62.874
35349DT     BB329762  40.556  52.122  62.890
35349DT     SC129763  40.412  51.973  63.051
35349DT     SC229764  40.496  51.978  63.249
35349DT     SC329765  40.275  51.766  63.142
35350DT     BB129766  40.720  52.273  62.734
35350DT     BB229767  40.906  52.228  63.040
35350DT     BB329768  41.014  52.052  63.031
35350DT     SC129769  40.798  51.907  63.067
35350DT     SC229770  40.805  51.816  63.262
35350DT     SC329771  40.604  51.734  63.021
35351DC     BB129772  41.249  52.189  63.002
35351DC     BB229773  41.302  51.982  63.293
35351DC     BB329774  41.374  51.797  63.236
35351DC     SC129775  41.138  51.723  63.149
35351DC     SC229776  41.059  51.570  63.279
35351DC     SC329777  40.947  51.647  62.984
35352DG     BB129778  41.653  51.953  63.490
35352DG     BB229779  41.551  51.622  63.594
35352DG     BB329780  41.643  51.485  63.482
35352DG     SC129781  41.423  51.478  63.269
35352DG     SC229782  41.243  51.247  63.211
35352DG     SC329783  41.212  51.459  63.006
35352DG     SC429784  41.431  51.580  63.146
35353DC     BB129785  41.789  51.332  63.566
35353DC     BB229786  41.588  51.032  63.562
35353DC     BB329787  41.648  50.909  63.406
35353DC     SC129788  41.533  51.064  63.229
35353DC     SC229789  41.363  50.963  63.145
35353DC     SC329790  41.504  51.228  63.024
35354DT     BB129791  41.768  50.730  63.578
35354DT     BB229792  41.529  50.531  63.394
35354DT     BB329793  41.616  50.459  63.221
35354DT     SC129794  41.603  50.695  63.106
35354DT     SC229795  41.458  50.689  62.948
35354DT     SC329796  41.680  50.920  62.993
35355DA     BB129797  41.457  50.123  63.415
35355DA     BB229798  41.341  50.116  63.067
35355DA     BB329799  41.499  50.056  62.937
35355DA     SC129800  41.600  50.346  62.885
35355DA     SC229801  41.605  50.508  62.696
35355DA     SC329802  41.792  50.624  62.828
35355DA     SC429803  41.715  50.403  62.981
35356DA     BB129804  41.273  49.837  62.849
35356DA     BB229805  41.287  49.989  62.515
35356DA     BB329806  41.464  49.927  62.413
35356DA     SC129807  41.636  50.165  62.516
35356DA     SC229808  41.741  50.371  62.422
35356DA     SC329809  41.891  50.365  62.630
35356DA     SC429810  41.720  50.143  62.651
35357DA     BB129811  41.232  49.852  62.197
35357DA     BB229812  41.394  50.093  61.973
35357DA     BB329813  41.575  50.011  61.896
35357DA     SC129814  41.753  50.124  62.125
35357DA     SC229815  41.928  50.298  62.154
35357DA     SC329816  41.993  50.170  62.366
35357DA     SC429817  41.778  50.029  62.253
35358DA     BB129818  41.406  50.114  61.638
35358DA     BB229819  41.690  50.338  61.575
35358DA     BB329820  41.859  50.226  61.509
35358DA     SC129821  41.972  50.183  61.796
35358DA     SC229822  42.167  50.261  61.931
35358DA     SC329823  42.122  50.055  62.077
35358DA     SC429824  41.929  50.049  61.874
35359DT     BB129825  41.892  50.283  61.350
35359DT     BB229826  42.191  50.469  61.427
35359DT     BB329827  42.358  50.351  61.395
35359DT     SC129828  42.312  50.214  61.614
35359DT     SC229829  42.463  50.259  61.760
35359DT     SC329830  42.257  50.010  61.772
35360DC     BB129831  42.386  50.526  61.208
35360DC     BB229832  42.689  50.542  61.404
35360DC     BB329833  42.812  50.382  61.356
35360DC     SC129834  42.660  50.215  61.489
35360DC     SC229835  42.765  50.148  61.665
35360DC     SC329836  42.498  50.013  61.540
35361DT     BB129837  42.962  50.567  61.245
35361DT     BB229838  43.179  50.395  61.476
35361DT     BB329839  43.249  50.220  61.390
35361DT     SC129840  43.016  50.102  61.423
35361DT     SC229841  43.035  49.949  61.574
35361DT     SC329842  42.788  49.983  61.367
35362DT     BB129843  43.493  50.332  61.362
35362DT     BB229844  43.555  50.027  61.545
35362DT     BB329845  43.576  49.869  61.413
35362DT     SC129846  43.318  49.862  61.367
35362DT     SC229847  43.234  49.684  61.452
35362DT     SC329848  43.088  49.877  61.237
35363DA     BB129849  43.924  49.850  61.648
35363DA     BB229850  43.783  49.512  61.635
35363DA     BB329851  43.820  49.423  61.445
35363DA     SC129852  43.556  49.526  61.317
35363DA     SC229853  43.339  49.430  61.238
35363DA     SC329854  43.316  49.647  61.103
35363DA     SC429855  43.560  49.667  61.240
35364DT     BB129856  43.952  49.255  61.419
35364DT     BB229857  43.693  49.009  61.366
35364DT     BB329858  43.690  48.951  61.167
35364DT     SC129859  43.577  49.176  61.095
35364DT     SC229860  43.375  49.138  61.033
35364DT     SC329861  43.542  49.410  60.978
35365DT     BB129862  43.799  48.706  61.227
35365DT     BB229863  43.488  48.628  61.062
35365DT     BB329864  43.517  48.618  60.857
35365DT     SC129865  43.534  48.879  60.838
35365DT     SC229866  43.361  48.954  60.735
35365DT     SC329867  43.635  49.118  60.792
35366DC     BB129868  43.483  48.352  60.874
35366DC     BB229869  43.231  48.463  60.642
35366DC     BB329870  43.310  48.475  60.451
35366DC     SC129871  43.441  48.695  60.511
35366DC     SC229872  43.354  48.860  60.405
35366DC     SC329873  43.642  48.860  60.553
35367DA     BB129874  42.951  48.257  60.444
35367DA     BB229875  42.939  48.509  60.178
35367DA     BB329876  43.073  48.457  60.020
35367DA     SC129877  43.313  48.614  60.140
35367DA     SC229878  43.445  48.818  60.087
35367DA     SC329879  43.626  48.717  60.238
35367DA     SC429880  43.414  48.533  60.237
35368DC     BB129881  42.986  48.417  59.857
35368DC     BB229882  43.081  48.716  59.680
35368DC     BB329883  43.241  48.677  59.555
35368DC     SC129884  43.408  48.670  59.757
35368DC     SC229885  43.538  48.841  59.749
35368DC     SC329886  43.582  48.577  59.932
35369DA     BB129887  42.947  48.862  59.318
35369DA     BB229888  43.267  49.027  59.248
35369DA     BB329889  43.393  48.899  59.132
35369DA     SC129890  43.528  48.768  59.380
35369DA     SC229891  43.752  48.768  59.490
35369DA     SC329892  43.676  48.549  59.599
35369DA     SC429893  43.463  48.632  59.437
35370DC     BB129894  43.444  48.945  58.932
35370DC     BB229895  43.787  49.038  58.994
35370DC     BB329896  43.914  48.890  58.927
35370DC     SC129897  43.854  48.736  59.131
35370DC     SC229898  44.024  48.721  59.262
35370DC     SC329899  43.762  48.530  59.268
35371DT     BB129900  44.001  49.031  58.702
35371DT     BB229901  44.306  48.953  58.879
35371DT     BB329902  44.380  48.770  58.815
35371DT     SC129903  44.195  48.640  58.949
35371DT     SC229904  44.286  48.536  59.114
35371DT     SC329905  43.988  48.485  58.999
35372DA     BB129906  44.699  49.039  58.774
35372DA     BB229907  44.822  48.748  58.959
35372DA     BB329908  44.849  48.582  58.828
35372DA     SC129909  44.561  48.471  58.869
35372DA     SC229910  44.453  48.274  58.977
35372DA     SC329911  44.252  48.328  58.826
35372DA     SC429912  44.448  48.520  58.766
35373DT     BB129913  45.034  48.519  58.802
35373DT     BB229914  45.004  48.222  59.005
35373DT     BB329915  44.987  48.055  58.883
35373DT     SC129916  44.739  48.114  58.824
35373DT     SC229917  44.607  47.970  58.914
35373DT     SC329918  44.527  48.181  58.681
35374DA     BB129919  45.288  47.991  59.169
35374DA     BB229920  45.065  47.700  59.170
35374DA     BB329921  45.092  47.585  58.992
35374DA     SC129922  44.873  47.738  58.831
35374DA     SC229923  44.646  47.692  58.739
35374DA     SC329924  44.690  47.892  58.585
35374DA     SC429925  44.920  47.864  58.743
35375DA     BB129926  45.126  47.360  59.228
35375DA     BB229927  44.840  47.190  59.074
35375DA     BB329928  44.897  47.102  58.888
35375DA     SC129929  44.823  47.353  58.720
35375DA     SC229930  44.649  47.419  58.553
35375DA     SC329931  44.814  47.605  58.486
35375DA     SC429932  44.939  47.461  58.692
35376DT     BB129933  44.894  46.905  58.876
35376DT     BB229934  44.600  46.875  58.670
35376DT     BB329935  44.654  46.835  58.475
35376DT     SC129936  44.732  47.083  58.437
35376DT     SC229937  44.596  47.180  58.301
35376DT     SC329938  44.889  47.289  58.387
35377DG     BB129939  44.418  46.518  58.582
35377DG     BB229940  44.303  46.668  58.273
35377DG     BB329941  44.417  46.606  58.122
35377DG     SC129942  44.619  46.834  58.149
35377DG     SC229943  44.664  47.053  57.951
35377DG     SC329944  44.871  47.058  58.162
35377DG     SC429945  44.745  46.815  58.246
35378DA     BB129946  44.133  46.499  57.943
35378DA     BB229947  44.209  46.736  57.674
35378DA     BB329948  44.361  46.658  57.547
35378DA     SC129949  44.596  46.784  57.709
35378DA     SC229950  44.765  46.965  57.678
35378DA     SC329951  44.896  46.846  57.864
35378DA     SC429952  44.662  46.695  57.825
35379DA     BB129953  44.141  46.712  57.308
35379DA     BB229954  44.379  46.954  57.171
35379DA     BB329955  44.535  46.854  57.065
35379DA     SC129956  44.721  46.830  57.313
35379DA     SC229957  44.937  46.928  57.392
35379DA     SC329958  44.948  46.725  57.549
35379DA     SC429959  44.710  46.697  57.402
35380DA     BB129960  44.430  47.063  56.840
35380DA     BB229961  44.763  47.214  56.859
35380DA     BB329962  44.906  47.091  56.759
35380DA     SC129963  44.979  46.927  57.013
35380DA     SC229964  45.174  46.902  57.167
35380DA     SC329965  45.067  46.679  57.233
35380DA     SC429966  44.898  46.791  57.040
35381DG     BB129967  44.927  47.356  56.608
35381DG     BB229968  45.257  47.354  56.755
35381DG     BB329969  45.377  47.233  56.653
35381DG     SC129970  45.309  46.985  56.819
35381DG     SC229971  45.497  46.839  56.999
35381DG     SC329972  45.243  46.690  56.967
35381DG     SC429973  45.185  46.895  56.776
35382DA     BB129974  45.570  47.516  56.669
35382DA     BB229975  45.830  47.319  56.838
35382DA     BB329976  45.922  47.185  56.701
35382DA     SC129977  45.725  46.951  56.759
35382DA     SC229978  45.731  46.728  56.870
35382DA     SC329979  45.518  46.678  56.735
35382DA     SC429980  45.595  46.939  56.666
35383DT     BB129981  46.099  47.227  56.678
35383DT     BB229982  46.235  46.950  56.865
35383DT     BB329983  46.293  46.799  56.735
35383DT     SC129984  46.043  46.729  56.694
35383DT     SC229985  46.007  46.537  56.784
35383DT     SC329986  45.815  46.685  56.569
35384DA     BB129987  46.606  46.887  57.000
35384DA     BB229988  46.559  46.523  56.994
35384DA     BB329989  46.625  46.443  56.808
35384DA     SC129990  46.347  46.470  56.670
35384DA     SC229991  46.166  46.318  56.588
35384DA     SC329992  46.092  46.518  56.445
35384DA     SC429993  46.317  46.605  56.588
35385DC     BB129994  46.774  46.327  56.823
35385DC     BB229995  46.596  46.018  56.766
35385DC     BB329996  46.624  45.956  56.571
35385DC     SC129997  46.460  46.139  56.480
35385DC     SC229998  46.281  46.045  56.406
35385DC     SC329999  46.373  46.351  56.349
35386DG     BB130000  46.739  45.663  56.829
35386DG     BB230001  46.504  45.541  56.584
35386DG     BB330002  46.595  45.517  56.409
35386DG     SC130003  46.537  45.801  56.311
35386DG     SC230004  46.358  45.876  56.084
35386DG     SC330005  46.509  46.111  56.182
35386DG     SC430006  46.641  45.918  56.346
35387DA     BB130007  46.441  45.211  56.436
35387DA     BB230008  46.269  45.275  56.118
35387DA     BB330009  46.407  45.265  55.956
35387DA     SC130010  46.478  45.568  55.965
35387DA     SC230011  46.440  45.770  55.825
35387DA     SC330012  46.639  45.871  55.952
35387DA     SC430013  46.604  45.612  56.054
35388DC     BB130014  46.359  45.130  55.852
35388DC     BB230015  46.237  45.325  55.574
35388DC     BB330016  46.386  45.346  55.431
35388DC     SC130017  46.513  45.522  55.579
35388DC     SC230018  46.499  45.716  55.487
35388DC     SC330019  46.702  45.633  55.725
35389DG     BB130020  46.047  45.188  55.267
35389DG     BB230021  46.173  45.466  55.074
35389DG     BB330022  46.337  45.412  54.976
35389DG     SC130023  46.529  45.490  55.201
35389DG     SC230024  46.729  45.712  55.192
35389DG     SC330025  46.766  45.547  55.435
35389DG     SC430026  46.564  45.382  55.314
35390DA     BB130027  46.183  45.541  54.688
35390DA     BB230028  46.470  45.761  54.632
35390DA     BB330029  46.638  45.649  54.563
35390DA     SC130030  46.750  45.596  54.849
35390DA     SC230031  46.946  45.666  54.986
35390DA     SC330032  46.896  45.458  55.127
35390DA     SC430033  46.704  45.461  54.923
35391DA     BB130034  46.655  45.850  54.294
35391DA     BB230035  46.995  45.941  54.398
35391DA     BB330036  47.133  45.787  54.346
35391DA     SC130037  47.103  45.634  54.615
35391DA     SC230038  47.241  45.588  54.818
35391DA     SC330039  47.080  45.393  54.859
35391DA     SC430040  46.993  45.517  54.623
35392DT     BB130041  47.301  45.794  54.184
35392DT     BB230042  47.577  45.818  54.415
35392DT     BB330043  47.688  45.643  54.412
35392DT     SC130044  47.504  45.515  54.548
35392DT     SC230045  47.579  45.472  54.745
35392DT     SC330046  47.317  45.340  54.608
35393DA     BB130047  47.982  45.934  54.332
35393DA     BB230048  48.106  45.726  54.607
35393DA     BB330049  48.178  45.540  54.532
35393DA     SC130050  47.905  45.395  54.563
35393DA     SC230051  47.805  45.216  54.706
35393DA     SC330052  47.630  45.193  54.520
35393DA     SC430053  47.806  45.394  54.436
35394DT     BB130054  48.381  45.493  54.545
35394DT     BB230055  48.348  45.263  54.821
35394DT     BB330056  48.373  45.068  54.755
35394DT     SC130057  48.135  45.067  54.645
35394DT     SC230058  48.006  44.935  54.755
35394DT     SC330059  47.947  45.056  54.460
35395DC     BB130060  48.606  45.068  54.885
35395DC     BB230061  48.417  44.798  55.030
35395DC     BB330062  48.438  44.627  54.916
35395DC     SC130063  48.279  44.721  54.730
35395DC     SC230064  48.095  44.609  54.730
35395DC     SC330065  48.196  44.810  54.496
35396DT     BB130066  48.575  44.540  55.123
35396DT     BB230067  48.308  44.302  55.078
35396DT     BB330068  48.357  44.167  54.929
35396DT     SC130069  48.313  44.346  54.742
35396DT     SC230070  48.138  44.291  54.631
35396DT     SC330071  48.358  44.511  54.541
35397DA     BB130072  48.223  43.967  55.275
35397DA     BB230073  48.049  43.827  54.984
35397DA     BB330074  48.185  43.716  54.863
35397DA     SC130075  48.263  43.959  54.684
35397DA     SC230076  48.229  44.033  54.449
35397DA     SC330077  48.431  44.186  54.489
35397DA     SC430078  48.391  44.045  54.728
35398DA     BB130079  47.951  43.487  54.905
35398DA     BB230080  47.915  43.485  54.540
35398DA     BB330081  48.082  43.386  54.450
35398DA     SC130082  48.250  43.646  54.420
35398DA     SC230083  48.331  43.793  54.236
35398DA     SC330084  48.505  43.876  54.405
35398DA     SC430085  48.351  43.683  54.539
35399DT     BB130086  48.060  43.202  54.350
35399DT     BB230087  48.096  43.330  54.015
35399DT     BB330088  48.281  43.278  53.939
35399DT     SC130089  48.401  43.459  54.087
35399DT     SC230090  48.475  43.617  53.962
35399DT     SC330091  48.558  43.564  54.270
35400DG     BB130092  48.023  43.101  53.673
35400DG     BB230093  48.262  43.312  53.502
35400DG     BB330094  48.434  43.215  53.480
35400DG     SC130095  48.551  43.312  53.746
35400DG     SC230096  48.783  43.497  53.778
35400DG     SC330097  48.701  43.383  54.039
35400DG     SC430098  48.523  43.227  53.878
35401DT     BB130099  48.542  43.146  53.269
35401DT     BB230100  48.799  43.399  53.246
35401DT     BB330101  48.985  43.313  53.278
35401DT     SC130102  48.940  43.293  53.536
35401DT     SC230103  49.067  43.431  53.641
35401DT     SC330104  48.903  43.186  53.773
35402DA     BB130105  49.009  43.524  52.917
35402DA     BB230106  49.290  43.630  53.128
35402DA     BB330107  49.440  43.478  53.134
35402DA     SC130108  49.321  43.336  53.384
35402DA     SC230109  49.382  43.302  53.623
35402DA     SC330110  49.219  43.104  53.616
35402DA     SC430111  49.217  43.216  53.359
35403DT     BB130112  49.611  43.527  53.054
35403DT     BB230113  49.789  43.573  53.364
35403DT     BB330114  49.913  43.410  53.399
35403DT     SC130115  49.709  43.260  53.467
35403DT     SC230116  49.717  43.219  53.678
35403DT     SC330117  49.532  43.064  53.461
35404DT     BB130118  50.111  43.579  53.350
35404DT     BB230119  50.172  43.455  53.683
35404DT     BB330120  50.270  43.273  53.674
35404DT     SC130121  50.051  43.149  53.601
35404DT     SC230122  49.984  43.022  53.761
35404DT     SC330123  49.881  43.011  53.454
35405DT     BB130124  50.478  43.407  53.769
35405DT     BB230125  50.420  43.141  54.006
35405DT     BB330126  50.509  42.967  53.940
35405DT     SC130127  50.321  42.930  53.760
35405DT     SC230128  50.201  42.761  53.816
35405DT     SC330129  50.205  42.904  53.525
35406DA     BB130130  50.620  43.042  54.338
35406DA     BB230131  50.514  42.692  54.312
35406DA     BB330132  50.658  42.578  54.204
35406DA     SC130133  50.524  42.627  53.927
35406DA     SC230134  50.399  42.494  53.757
35406DA     SC330135  50.463  42.681  53.594
35406DA     SC430136  50.575  42.752  53.841
35407DA     BB130137  50.631  42.397  54.476
35407DA     BB230138  50.525  42.122  54.258
35407DA     BB330139  50.692  42.045  54.149
35407DA     SC130140  50.652  42.237  53.907
35407DA     SC230141  50.581  42.220  53.669
35407DA     SC330142  50.700  42.446  53.639
35407DA     SC430143  50.732  42.376  53.909
35408DC     BB130144  50.751  41.859  54.190
35408DC     BB230145  50.628  41.706  53.887
35408DC     BB330146  50.786  41.669  53.758
35408DC     SC130147  50.804  41.924  53.695
35408DC     SC230148  50.740  41.952  53.492
35408DC     SC330149  50.903  42.167  53.672
35409DA     BB130150  50.574  41.309  53.798
35409DA     BB230151  50.628  41.369  53.440
35409DA     BB330152  50.832  41.334  53.389
35409DA     SC130153  50.920  41.629  53.439
35409DA     SC230154  50.995  41.824  53.304
35409DA     SC330155  51.092  41.913  53.524
35409DA     SC430156  50.975  41.666  53.586
35410DT     BB130157  50.876  41.180  53.268
35410DT     BB230158  50.951  41.374  52.973
35410DT     BB330159  51.156  41.381  52.944
35410DT     SC130160  51.186  41.552  53.141
35410DT     SC230161  51.242  41.744  53.061
35410DT     SC330162  51.264  41.654  53.371
35411DA     BB130163  50.990  41.251  52.581
35411DA     BB230164  51.225  41.522  52.505
35411DA     BB330165  51.427  41.454  52.525
35411DA     SC130166  51.450  41.533  52.825
35411DA     SC230167  51.571  41.703  52.963
35411DA     SC330168  51.525  41.545  53.160
35411DA     SC430169  51.413  41.422  52.935
35412DT     BB130170  51.548  41.441  52.359
35412DT     BB230171  51.754  41.728  52.432
35412DT     BB330172  51.940  41.666  52.497
35412DT     SC130173  51.844  41.598  52.732
35412DT     SC230174  51.917  41.734  52.881
35412DT     SC330175  51.774  41.448  52.937
35413DT     BB130176  52.060  41.740  52.261
35413DT     BB230177  52.241  41.923  52.514
35413DT     BB330178  52.398  41.808  52.585
35413DT     SC130179  52.235  41.657  52.723
35413DT     SC230180  52.263  41.694  52.933
35413DT     SC330181  52.104  41.443  52.805
35414DC     BB130182  52.586  41.962  52.454
35414DC     BB230183  52.684  41.977  52.801
35414DC     BB330184  52.810  41.820  52.846
35414DC     SC130185  52.611  41.649  52.845
35414DC     SC230186  52.575  41.581  53.046
35414DC     SC330187  52.459  41.445  52.775
35415DT     BB130188  53.026  41.988  52.861
35415DT     BB230189  53.013  41.827  53.184
35415DT     BB330190  53.120  41.650  53.179
35415DT     SC130191  52.930  41.530  53.043
35415DT     SC230192  52.834  41.384  53.167
35415DT     SC330193  52.807  41.406  52.845
35416DT     BB130194  53.313  41.763  53.333
35416DT     BB230195  53.202  41.476  53.521
35416DT     BB330196  53.308  41.308  53.462
35416DT     SC130197  53.171  41.291  53.238
35416DT     SC230198  53.044  41.119  53.245
35416DT     SC330199  53.118  41.290  52.980
35417DA     BB130200  53.315  41.345  53.879
35417DA     BB230201  53.214  41.003  53.795
35417DA     BB330202  53.380  40.893  53.718
35417DA     SC130203  53.324  40.969  53.422
35417DA     SC230204  53.245  40.856  53.214
35417DA     SC330205  53.353  41.054  53.090
35417DA     SC430206  53.397  41.100  53.364
35418DA     BB130207  53.258  40.707  53.956
35418DA     BB230208  53.205  40.454  53.696
35418DA     BB330209  53.392  40.374  53.632
35418DA     SC130210  53.430  40.582  53.404
35418DA     SC230211  53.428  40.585  53.155
35418DA     SC330212  53.560  40.804  53.177
35418DA     SC430213  53.513  40.716  53.439
35419DC     BB130214  53.399  40.199  53.673
35419DC     BB230215  53.362  40.070  53.338
35419DC     BB330216  53.548  40.026  53.258
35419DC     SC130217  53.602  40.280  53.222
35419DC     SC230218  53.604  40.323  53.011
35419DC     SC330219  53.720  40.515  53.245
35420DT     BB130220  53.468  39.777  53.282
35420DT     BB230221  53.555  39.817  52.934
35420DT     BB330222  53.760  39.799  52.910
35420DT     SC130223  53.801  40.037  53.011
35420DT     SC230224  53.868  40.170  52.856
35420DT     SC330225  53.884  40.226  53.175
35421DT     BB130226  53.727  39.554  52.795
35421DT     BB230227  53.920  39.739  52.553
35421DT     BB330228  54.122  39.723  52.596
35421DT     SC130229  54.100  39.888  52.798
35421DT     SC230230  54.201  40.073  52.751
35421DT     SC330231  54.104  39.979  53.046
35422DC     BB130232  54.178  39.544  52.386
35422DC     BB230233  54.413  39.812  52.333
35422DC     BB330234  54.589  39.773  52.434
35422DC     SC130235  54.479  39.832  52.665
35422DC     SC230236  54.563  40.015  52.740
35422DC     SC330237  54.387  39.804  52.910
35423DC     BB130238  54.752  39.696  52.209
35423DC     BB230239  54.944  39.960  52.361
35423DC     BB330240  55.080  39.881  52.495
35423DC     SC130241  54.891  39.832  52.671
35423DC     SC230242  54.915  39.963  52.839
35423DC     SC330243  54.729  39.697  52.830
35424DT     BB130244  55.319  39.914  52.336
35424DT     BB230245  55.395  40.091  52.641
35424DT     BB330246  55.493  39.966  52.773
35424DT     SC130247  55.271  39.838  52.829
35424DT     SC230248  55.212  39.883  53.031
35424DT     SC330249  55.095  39.642  52.848
35425DT     BB130250  55.750  40.084  52.741
35425DT     BB230251  55.683  40.115  53.094
35425DT     BB330252  55.760  39.951  53.196
35425DT     SC130253  55.567  39.796  53.109
35425DT     SC230254  55.438  39.744  53.273
35425DT     SC330255  55.444  39.600  52.983
35426DA     BB130256  55.895  40.301  53.379
35426DA     BB230257  55.749  40.085  53.638
35426DA     BB330258  55.879  39.922  53.680
35426DA     SC130259  55.752  39.733  53.468
35426DA     SC230260  55.612  39.527  53.465
35426DA     SC330261  55.697  39.497  53.225
35426DA     SC430262  55.817  39.732  53.321
35427DT     BB130263  55.936  39.932  53.852
35427DT     BB230264  55.731  39.665  53.982
35427DT     BB330265  55.843  39.492  53.999
35427DT     SC130266  55.838  39.454  53.739
35427DT     SC230267  55.715  39.283  53.694
35427DT     SC330268  55.921  39.428  53.490
35428DG     BB130269  55.645  39.606  54.336
35428DG     BB230270  55.580  39.262  54.248
35428DG     BB330271  55.741  39.151  54.285
35428DG     SC130272  55.863  39.191  54.007
35428DG     SC230273  55.899  38.979  53.800
35428DG     SC330274  56.034  39.230  53.720
35428DG     SC430275  55.958  39.316  53.982
35429DT     BB130276  55.691  39.015  54.408
35429DT     BB230277  55.706  38.713  54.211
35429DT     BB330278  55.895  38.629  54.225
35429DT     SC130279  55.996  38.812  54.066
35429DT     SC230280  56.050  38.721  53.878
35429DT     SC330281  56.144  39.014  53.982
35430DC     BB130282  55.774  38.443  54.367
35430DC     BB230283  55.950  38.263  54.109
35430DC     BB330284  56.149  38.240  54.162
35430DC     SC130285  56.201  38.491  54.108
35430DC     SC230286  56.325  38.502  53.933
35430DC     SC330287  56.270  38.743  54.142
35431DT     BB130288  56.112  37.975  54.219
35431DT     BB230289  56.392  37.977  53.990
35431DT     BB330290  56.568  38.004  54.095
35431DT     SC130291  56.517  38.258  54.132
35431DT     SC230292  56.654  38.376  54.016
35431DT     SC330293  56.465  38.485  54.255
35432DT     BB130294  56.653  37.737  54.073
35432DT     BB230295  56.932  37.926  53.943
35432DT     BB330296  57.063  37.974  54.096
35432DT     SC130297  56.900  38.158  54.187
35432DT     SC230298  56.986  38.353  54.153
35432DT     SC330299  56.737  38.287  54.350
35433DC     BB130300  57.260  37.787  54.024
35433DC     BB230301  57.438  38.100  54.029
35433DC     BB330302  57.516  38.134  54.217
35433DC     SC130303  57.280  38.195  54.314
35433DC     SC230304  57.274  38.405  54.360
35433DC     SC330305  57.061  38.182  54.460
35434DA     BB130306  57.842  38.175  53.956
35434DA     BB230307  57.840  38.468  54.177
35434DA     BB330308  57.910  38.415  54.371
35434DA     SC130309  57.627  38.346  54.480
35434DA     SC230310  57.464  38.441  54.644
35434DA     SC330311  57.361  38.206  54.646
35434DA     SC430312  57.578  38.193  54.469
35435DA     BB130313  58.118  38.664  54.316
35435DA     BB230314  57.970  38.829  54.608
35435DA     BB330315  58.041  38.739  54.788
35435DA     SC130316  57.811  38.530  54.804
35435DA     SC230317  57.612  38.486  54.947
35435DA     SC330318  57.624  38.247  54.855
35435DA     SC430319  57.836  38.387  54.736
35436DT     BB130320  58.162  38.847  54.917
35436DT     BB230321  57.915  38.903  55.174
35436DT     BB330322  57.953  38.782  55.336
35436DT     SC130323  57.864  38.570  55.209
35436DT     SC230324  57.679  38.506  55.299
35436DT     SC330325  57.861  38.333  55.093
35437DT     BB130326  58.048  38.990  55.495
35437DT     BB230327  57.783  38.845  55.692
35437DT     BB330328  57.858  38.693  55.811
35437DT     SC130329  57.878  38.532  55.605
35437DT     SC230330  57.732  38.374  55.624
35437DT     SC330331  57.985  38.376  55.421
35438DG     BB130332  57.718  38.949  56.104
35438DG     BB230333  57.585  38.616  56.152
35438DG     BB330334  57.717  38.503  56.249
35438DG     SC130335  57.857  38.403  55.996
35438DG     SC230336  57.856  38.122  55.895
35438DG     SC330337  58.045  38.290  55.740
35438DG     SC430338  57.978  38.488  55.935
35439DC     BB130339  57.707  38.394  56.487
35439DC     BB230340  57.635  38.054  56.388
35439DC     BB330341  57.797  37.933  56.431
35439DC     SC130342  57.933  38.029  56.228
35439DC     SC230343  57.952  37.877  56.077
35439DC     SC330344  58.122  38.152  56.093
35440DG     BB130345  57.502  37.762  56.660
35440DG     BB230346  57.644  37.522  56.430
35440DG     BB330347  57.810  37.444  56.507
35440DG     SC130348  57.995  37.657  56.388
35440DG     SC230349  58.202  37.612  56.177
35440DG     SC330350  58.224  37.884  56.290
35440DG     SC430351  58.023  37.791  56.471
35441DC     BB130352  57.831  37.218  56.552
35441DC     BB230353  58.024  37.119  56.265
35441DC     BB330354  58.218  37.072  56.322
35441DC     SC130355  58.278  37.326  56.353
35441DC     SC230356  58.417  37.385  56.200
35441DC     SC330357  58.349  37.552  56.469
35442DA     BB130358  58.040  36.783  56.078
35442DA     BB230359  58.367  36.871  55.937
35442DA     BB330360  58.524  36.795  56.060
35442DA     SC130361  58.543  37.051  56.235
35442DA     SC230362  58.705  37.238  56.271
35442DA     SC330363  58.583  37.274  56.494
35442DA     SC430364  58.456  37.056  56.370
35443DA     BB130365  58.581  36.703  55.754
35443DA     BB230366  58.896  36.888  55.788
35443DA     BB330367  59.027  36.788  55.923
35443DA     SC130368  58.924  36.941  56.174
35443DA     SC230369  59.010  37.113  56.333
35443DA     SC330370  58.826  37.029  56.491
35443DA     SC430371  58.805  36.874  56.258
35444DA     BB130372  59.202  36.842  55.653
35444DA     BB230373  59.430  37.030  55.870
35444DA     BB330374  59.535  36.897  56.000
35444DA     SC130375  59.324  36.915  56.228
35444DA     SC230376  59.307  37.010  56.458
35444DA     SC330377  59.113  36.847  56.490
35444DA     SC430378  59.206  36.805  56.229
35445DT     BB130379  59.722  36.890  55.968
35445DT     BB230380  59.827  37.070  56.263
35445DT     BB330381  59.893  36.937  56.407
35445DT     SC130382  59.648  36.863  56.463
35445DT     SC230383  59.595  36.935  56.659
35445DT     SC330384  59.434  36.711  56.489
35446DA     BB130385  60.186  37.232  56.356
35446DA     BB230386  60.128  37.192  56.716
35446DA     BB330387  60.212  37.008  56.784
35446DA     SC130388  59.952  36.844  56.736
35446DA     SC230389  59.776  36.732  56.873
35446DA     SC330390  59.724  36.598  56.661
35446DA     SC430391  59.935  36.770  56.594
35447DC     BB130392  60.363  37.020  56.909
35447DC     BB230393  60.187  36.918  57.207
35447DC     BB330394  60.235  36.722  57.254
35447DC     SC130395  60.086  36.630  57.058
35447DC     SC230396  59.915  36.530  57.140
35447DC     SC330397  60.019  36.509  56.833
35448DG     BB130398  60.321  36.957  57.574
35448DG     BB230399  60.117  36.674  57.669
35448DG     BB330400  60.229  36.510  57.678
35448DG     SC130401  60.186  36.433  57.385
35448DG     SC230402  60.037  36.194  57.286
35448DG     SC330403  60.176  36.331  57.064
35448DG     SC430404  60.286  36.492  57.274
35449DA     BB130405  60.082  36.474  57.989
35449DA     BB230406  59.957  36.143  57.893
35449DA     BB330407  60.117  36.002  57.887
35449DA     SC130408  60.183  36.052  57.587
35449DA     SC230409  60.164  35.929  57.371
35449DA     SC330410  60.341  36.093  57.285
35449DA     SC430411  60.295  36.163  57.553
35450DT     BB130412  60.110  35.861  58.019
35450DT     BB230413  60.031  35.588  57.797
35450DT     BB330414  60.201  35.477  57.758
35450DT     SC130415  60.294  35.663  57.597
35450DT     SC230416  60.289  35.590  57.394
35450DT     SC330417  60.451  35.851  57.499
35451DA     BB130418  59.924  35.191  57.892
35451DA     BB230419  60.083  35.055  57.590
35451DA     BB330420  60.281  34.991  57.634
35451DA     SC130421  60.412  35.264  57.565
35451DA     SC230422  60.560  35.359  57.388
35451DA     SC330423  60.611  35.544  57.559
35451DA     SC430424  60.432  35.369  57.686
35452DT     BB130425  60.347  34.779  57.635
35452DT     BB230426  60.539  34.792  57.329
35452DT     BB330427  60.741  34.782  57.372
35452DT     SC130428  60.744  35.030  57.457
35452DT     SC230429  60.855  35.152  57.319
35452DT     SC330430  60.768  35.236  57.620
35453DC     BB130431  60.776  34.515  57.287
35453DC     BB230432  61.018  34.698  57.093
35453DC     BB330433  61.199  34.704  57.193
35453DC     SC130434  61.108  34.882  57.363
35453DC     SC230435  61.205  35.071  57.328
35453DC     SC330436  61.033  34.992  57.591
35454DA     BB130437  61.295  34.553  56.814
35454DA     BB230438  61.528  34.827  56.885
35454DA     BB330439  61.676  34.764  57.024
35454DA     SC130440  61.514  34.853  57.275
35454DA     SC230441  61.528  35.029  57.450
35454DA     SC330442  61.373  34.877  57.587
35454DA     SC430443  61.419  34.744  57.344
35455DA     BB130444  61.880  34.872  56.790
35455DA     BB230445  62.005  35.114  57.035
35455DA     BB330446  62.135  35.019  57.174
35455DA     SC130447  61.908  34.950  57.376
35455DA     SC230448  61.836  35.022  57.604
35455DA     SC330449  61.708  34.800  57.611
35455DA     SC430450  61.837  34.807  57.362
35456DT     BB130451  62.332  35.070  57.175
35456DT     BB230452  62.326  35.264  57.479
35456DT     BB330453  62.414  35.157  57.632
35456DT     SC130454  62.205  35.001  57.655
35456DT     SC230455  62.104  35.043  57.840
35456DT     SC330456  62.056  34.783  57.652
35457DC     BB130457  62.636  35.318  57.628
35457DC     BB230458  62.519  35.339  57.968
35457DC     BB330459  62.602  35.187  58.081
35457DC     SC130460  62.443  35.009  57.971
35457DC     SC230461  62.301  34.941  58.117
35457DC     SC330462  62.363  34.799  57.833
35458DA     BB130463  62.695  35.535  58.296
35458DA     BB230464  62.552  35.295  58.533
35458DA     BB330465  62.695  35.144  58.581
35458DA     SC130466  62.604  34.953  58.352
35458DA     SC230467  62.487  34.734  58.329
35458DA     SC330468  62.593  34.724  58.096
35458DA     SC430469  62.680  34.965  58.211
35459DA     BB130470  62.649  35.226  58.900
35459DA     BB230471  62.523  34.886  58.954
35459DA     BB330472  62.685  34.749  58.974
35459DA     SC130473  62.697  34.683  58.670
35459DA     SC230474  62.647  34.489  58.521
35459DA     SC330475  62.800  34.605  58.352
35459DA     SC430476  62.797  34.770  58.579
35460DA     BB130477  62.544  34.669  59.261
35460DA     BB230478  62.493  34.333  59.122
35460DA     BB330479  62.674  34.220  59.132
35460DA     SC130480  62.774  34.309  58.851
35460DA     SC230481  62.808  34.206  58.627
35460DA     SC330482  62.965  34.404  58.582
35460DA     SC430483  62.869  34.438  58.843
35461DC     BB130484  62.684  34.053  59.256
35461DC     BB230485  62.659  33.810  58.991
35461DC     BB330486  62.842  33.718  58.961
35461DC     SC130487  62.938  33.931  58.841
35461DC     SC230488  62.966  33.888  58.632
35461DC     SC330489  63.089  34.141  58.792
35462DT     BB130490  62.733  33.498  59.066
35462DT     BB230491  62.837  33.403  58.734
35462DT     BB330492  63.037  33.348  58.736
35462DT     SC130493  63.113  33.598  58.756
35462DT     SC230494  63.208  33.659  58.572
35462DT     SC330495  63.222  33.818  58.855
35463DT     BB130496  62.945  33.104  58.693
35463DT     BB230497  63.163  33.175  58.414
35463DT     BB330498  63.359  33.137  58.466
35463DT     SC130499  63.371  33.355  58.612
35463DT     SC230500  63.502  33.497  58.516
35463DT     SC330501  63.396  33.512  58.822
35464DA     BB130502  63.250  32.965  58.099
35464DA     BB230503  63.567  33.145  58.056
35464DA     BB330504  63.723  33.045  58.160
35464DA     SC130505  63.682  33.204  58.424
35464DA     SC230506  63.804  33.378  58.556
35464DA     SC330507  63.659  33.301  58.753
35464DA     SC430508  63.584  33.141  58.535
35465DA     BB130509  63.829  33.096  57.855
35465DA     BB230510  64.104  33.282  58.011
35465DA     BB330511  64.232  33.149  58.119
35465DA     SC130512  64.076  33.177  58.387
35465DA     SC230513  64.113  33.278  58.612
35465DA     SC330514  63.927  33.120  58.691
35465DA     SC430515  63.960  33.070  58.417
35466DA     BB130516  64.432  33.323  57.926
35466DA     BB230517  64.601  33.424  58.236
35466DA     BB330518  64.703  33.258  58.322
35466DA     SC130519  64.462  33.169  58.497
35466DA     SC230520  64.401  33.163  58.739
35466DA     SC330521  64.228  32.987  58.670
35466DA     SC430522  64.362  33.060  58.435
35467DT     BB130523  64.889  33.279  58.324
35467DT     BB230524  64.931  33.327  58.679
35467DT     BB330525  64.990  33.150  58.768
35467DT     SC130526  64.748  33.050  58.747
35467DT     SC230527  64.660  33.033  58.943
35467DT     SC330528  64.551  32.892  58.672
35468DG     BB130529  65.281  33.422  58.858
35468DG     BB230530  65.169  33.248  59.155
35468DG     BB330531  65.249  33.066  59.161
35468DG     SC130532  65.021  32.933  59.006
35468DG     SC230533  64.828  32.733  59.114
35468DG     SC330534  64.799  32.759  58.821
35468DG     SC430535  65.029  32.928  58.846
35469DT     BB130536  65.403  32.985  59.324
35469DT     BB230537  65.195  32.761  59.516
35469DT     BB330538  65.242  32.565  59.471
35469DT     SC130539  65.120  32.580  59.240
35469DT     SC230540  64.942  32.458  59.245
35469DT     SC330541  65.081  32.580  58.979
35470DT     BB130542  65.390  32.503  59.710
35470DT     BB230543  65.137  32.245  59.699
35470DT     BB330544  65.210  32.079  59.598
35470DT     SC130545  65.185  32.200  59.366
35470DT     SC230546  65.027  32.107  59.254
35470DT     SC330547  65.251  32.310  59.136
35471DT     BB130548  65.263  31.899  59.823
35471DT     BB230549  65.041  31.707  59.614
35471DT     BB330550  65.151  31.584  59.488
35471DT     SC130551  65.218  31.788  59.337
35471DT     SC230552  65.119  31.771  59.146
35471DT     SC330553  65.368  31.967  59.215
35472DA     BB130554  64.892  31.315  59.680
35472DA     BB230555  64.860  31.259  59.319
35472DA     BB330556  65.027  31.146  59.247
35472DA     SC130557  65.198  31.398  59.180
35472DA     SC230558  65.282  31.515  58.977
35472DA     SC330559  65.455  31.621  59.134
35472DA     SC430560  65.298  31.451  59.294
35473DA     BB130561  64.784  30.960  59.137
35473DA     BB230562  64.904  31.039  58.799
35473DA     BB330563  65.079  30.926  58.754
35473DA     SC130564  65.275  31.142  58.862
35473DA     SC230565  65.443  31.302  58.769
35473DA     SC330566  65.539  31.307  59.006
35473DA     SC430567  65.321  31.130  59.015
35474DA     BB130568  64.880  30.869  58.504
35474DA     BB230569  65.139  31.021  58.294
35474DA     BB330570  65.306  30.890  58.276
35474DA     SC130571  65.455  31.006  58.524
35474DA     SC230572  65.659  31.142  58.569
35474DA     SC330573  65.644  31.048  58.807
35474DA     SC430574  65.430  30.935  58.666
35475DC     BB130575  65.325  30.839  58.104
35475DC     BB230576  65.618  31.036  58.030
35475DC     BB330577  65.788  30.919  58.047
35475DC     SC130578  65.775  30.923  58.309
35475DC     SC230579  65.938  31.040  58.387
35475DC     SC330580  65.750  30.839  58.558
35476DT     BB130581  65.799  30.943  57.785
35476DT     BB230582  66.117  31.064  57.904
35476DT     BB330583  66.244  30.905  57.940
35476DT     SC130584  66.116  30.842  58.160
35476DT     SC230585  66.240  30.885  58.330
35476DT     SC330586  65.971  30.705  58.332
35477DG     BB130587  66.433  31.144  57.668
35477DG     BB230588  66.650  31.066  57.947
35477DG     BB330589  66.722  30.881  57.927
35477DG     SC130590  66.491  30.749  58.078
35477DG     SC230591  66.511  30.611  58.343
35477DG     SC330592  66.245  30.569  58.222
35477DG     SC430593  66.361  30.704  57.997
35478DA     BB130594  67.051  31.000  57.963
35478DA     BB230595  67.101  30.787  58.257
35478DA     BB330596  67.138  30.586  58.197
35478DA     SC130597  66.839  30.503  58.202
35478DA     SC230598  66.690  30.357  58.340
35478DA     SC330599  66.533  30.361  58.137
35478DA     SC430600  66.755  30.516  58.065
35479DT     BB130601  67.333  30.479  58.221
35479DT     BB230602  67.229  30.269  58.496
35479DT     BB330603  67.213  30.073  58.432
35479DT     SC130604  66.989  30.124  58.305
35479DT     SC230605  66.826  30.028  58.406
35479DT     SC330606  66.817  30.152  58.108
35480DC     BB130607  67.447  29.983  58.561
35480DC     BB230608  67.186  29.773  58.696
35480DC     BB330609  67.167  29.602  58.581
35480DC     SC130610  67.047  29.735  58.389
35480DC     SC230611  66.841  29.675  58.379
35480DC     SC330612  67.001  29.842  58.152
35481DA     BB130613  67.212  29.478  58.978
35481DA     BB230614  66.916  29.312  58.841
35481DA     BB330615  66.973  29.155  58.707
35481DA     SC130616  66.973  29.337  58.455
35481DA     SC230617  66.838  29.365  58.247
35481DA     SC330618  67.044  29.485  58.153
35481DA     SC430619  67.112  29.407  58.414
35482DA     BB130620  66.770  29.010  58.915
35482DA     BB230621  66.558  28.946  58.624
35482DA     BB330622  66.644  28.794  58.501
35482DA     SC130623  66.805  28.993  58.325
35482DA     SC230624  66.800  29.078  58.090
35482DA     SC330625  67.044  29.146  58.131
35482DA     SC430626  66.956  29.027  58.369
35483DA     BB130627  66.335  28.712  58.559
35483DA     BB230628  66.293  28.727  58.195
35483DA     BB330629  66.399  28.568  58.101
35483DA     SC130630  66.661  28.731  58.066
35483DA     SC230631  66.793  28.831  57.879
35483DA     SC330632  66.989  28.830  58.043
35483DA     SC430633  66.772  28.720  58.182
35484DG     BB130634  66.106  28.542  58.015
35484DG     BB230635  66.253  28.602  57.690
35484DG     BB330636  66.350  28.440  57.628
35484DG     SC130637  66.616  28.521  57.756
35484DG     SC230638  66.866  28.594  57.609
35484DG     SC330639  66.918  28.570  57.899
35484DG     SC430640  66.646  28.479  57.907
35485DT     BB130641  66.276  28.377  57.461
35485DT     BB230642  66.536  28.455  57.223
35485DT     BB330643  66.662  28.292  57.201
35485DT     SC130644  66.775  28.337  57.433
35485DT     SC230645  66.977  28.404  57.402
35485DT     SC330646  66.852  28.301  57.683
35486DT     BB130647  66.553  28.270  56.962
35486DT     BB230648  66.908  28.287  56.901
35486DT     BB330649  66.994  28.101  56.930
35486DT     SC130650  66.975  28.124  57.190
35486DT     SC230651  67.171  28.146  57.275
35486DT     SC330652  66.900  28.076  57.439
35487DA     BB130653  67.121  28.219  56.545
35487DA     BB230654  67.415  28.091  56.725
35487DA     BB330655  67.405  27.879  56.741
35487DA     SC130656  67.255  27.882  57.014
35487DA     SC230657  67.303  27.826  57.252
35487DA     SC330658  67.048  27.813  57.279
35487DA     SC430659  67.094  27.878  57.010
35488DA     BB130660  67.707  27.856  56.593
35488DA     BB230661  67.832  27.696  56.898
35488DA     BB330662  67.776  27.490  56.902
35488DA     SC130663  67.508  27.540  57.052
35488DA     SC230664  67.412  27.496  57.278
35488DA     SC330665  67.184  27.529  57.165
35488DA     SC430666  67.376  27.563  56.963
35489DG     BB130667  68.082  27.373  56.895
35489DG     BB230668  68.002  27.250  57.225
35489DG     BB330669  67.926  27.067  57.213
35489DG     SC130670  67.637  27.162  57.187
35489DG     SC230671  67.420  27.121  57.388
35489DG     SC330672  67.310  27.231  57.136
35489DG     SC430673  67.578  27.193  57.041
35490DA     BB130674  68.163  26.917  57.435
35490DA     BB230675  67.895  26.837  57.673
35490DA     BB330676  67.800  26.654  57.619
35490DA     SC130677  67.585  26.789  57.440
35490DA     SC230678  67.339  26.830  57.446
35490DA     SC330679  67.359  26.863  57.192
35490DA     SC430680  67.617  26.805  57.283
35491DA     BB130681  67.871  26.542  57.924
35491DA     BB230682  67.510  26.529  57.987
35491DA     BB330683  67.428  26.347  57.910
35491DA     SC130684  67.362  26.467  57.631
35491DA     SC230685  67.160  26.529  57.499
35491DA     SC330686  67.313  26.516  57.294
35491DA     SC430687  67.474  26.452  57.516
35492DG     BB130688  67.348  26.291  58.206
35492DG     BB230689  67.013  26.329  58.074
35492DG     BB330690  66.950  26.156  57.998
35492DG     SC130691  67.059  26.211  57.717
35492DG     SC230692  66.896  26.254  57.471
35492DG     SC330693  67.183  26.230  57.404
35492DG     SC430694  67.209  26.168  57.683
35493DA     BB130695  66.675  26.208  58.197
35493DA     BB230696  66.461  26.212  57.899
35493DA     BB330697  66.431  26.014  57.827
35493DA     SC130698  66.677  26.019  57.636
35493DA     SC230699  66.720  26.023  57.391
35493DA     SC330700  66.954  25.937  57.451
35493DA     SC430701  66.816  25.964  57.694
35494DT     BB130702  66.247  25.948  57.837
35494DT     BB230703  66.175  25.977  57.484
35494DT     BB330704  66.179  25.790  57.396
35494DT     SC130705  66.441  25.783  57.405
35494DT     SC230706  66.520  25.798  57.206
35494DT     SC330707  66.685  25.706  57.469
35495DT     BB130708  65.912  25.809  57.371
35495DT     BB230709  66.034  25.763  57.035
35495DT     BB330710  66.057  25.562  56.994
35495DT     SC130711  66.274  25.549  57.141
35495DT     SC230712  66.444  25.518  57.014
35495DT     SC330713  66.438  25.479  57.335
35496DA     BB130714  65.840  25.754  56.693
35496DA     BB230715  66.107  25.557  56.536
35496DA     BB330716  66.063  25.348  56.552
35496DA     SC130717  66.212  25.312  56.823
35496DA     SC230718  66.418  25.201  56.906
35496DA     SC330719  66.308  25.214  57.137
35496DA     SC430720  66.125  25.329  56.957
35497DC     BB130721  66.043  25.285  56.388
35497DC     BB230722  66.354  25.103  56.371
35497DC     BB330723  66.322  24.904  56.417
35497DC     SC130724  66.295  24.959  56.672
35497DC     SC230725  66.464  24.880  56.780
35497DC     SC330726  66.186  24.982  56.911
35498DT     BB130727  66.387  24.893  56.168
35498DT     BB230728  66.623  24.682  56.342
35498DT     BB330729  66.534  24.501  56.390
35498DT     SC130730  66.395  24.611  56.583
35498DT     SC230731  66.468  24.541  56.773
35498DT     SC330732  66.187  24.695  56.723
35499DA     BB130733  66.923  24.475  56.224
35499DA     BB230734  66.899  24.248  56.510
35499DA     BB330735  66.761  24.091  56.469
35499DA     SC130736  66.515  24.243  56.585
35499DA     SC230737  66.364  24.226  56.782
35499DA     SC330738  66.202  24.369  56.644
35499DA     SC430739  66.428  24.332  56.483
35500DA     BB130740  67.033  23.939  56.579
35500DA     BB230741  66.815  23.779  56.825
35500DA     BB330742  66.678  23.647  56.729
35500DA     SC130743  66.457  23.863  56.691
35500DA     SC230744  66.231  23.913  56.783
35500DA     SC330745  66.200  24.057  56.572
35500DA     SC430746  66.457  23.946  56.553
35501DT     BB130747  66.699  23.455  56.761
35501DT     BB230748  66.399  23.401  56.955
35501DT     BB330749  66.251  23.320  56.835
35501DT     SC130750  66.208  23.550  56.717
35501DT     SC230751  66.016  23.626  56.776
35501DT     SC330752  66.195  23.733  56.527
35502DT     BB130753  66.271  23.059  56.938
35502DT     BB230754  65.921  23.139  56.975
35502DT     BB330755  65.817  23.084  56.804
35502DT     SC130756  65.914  23.289  56.671
35502DT     SC230757  65.756  23.430  56.632
35502DT     SC330758  66.047  23.426  56.489
35503DT     BB130759  65.692  22.853  56.910
35503DT     BB230760  65.417  23.053  56.791
35503DT     BB330761  65.373  23.003  56.595
35503DT     SC130762  65.585  23.131  56.507
35503DT     SC230763  65.523  23.306  56.399
35503DT     SC330764  65.819  23.174  56.393
35504DT     BB130765  65.140  22.872  56.664
35504DT     BB230766  65.034  23.129  56.434
35504DT     BB330767  65.043  23.058  56.240
35504DT     SC130768  65.305  23.076  56.237
35504DT     SC230769  65.364  23.234  56.104
35504DT     SC330770  65.558  23.005  56.224
35505DT     BB130771  64.777  23.060  56.242
35505DT     BB230772  64.871  23.278  55.971
35505DT     BB330773  64.907  23.167  55.800
35505DT     SC130774  65.137  23.082  55.894
35505DT     SC230775  65.297  23.170  55.781
35505DT     SC330776  65.323  22.918  55.982
35506DA     BB130777  64.654  23.497  55.730
35506DA     BB230778  64.919  23.495  55.476
35506DA     BB330779  64.894  23.329  55.344
35506DA     SC130780  65.071  23.136  55.513
35506DA     SC230781  65.293  23.025  55.493
35506DA     SC330782  65.205  22.863  55.671
35506DA     SC430783  64.997  23.045  55.623
35507DC     BB130784  64.864  23.394  55.183
35507DC     BB230785  65.180  23.306  55.035
35507DC     BB330786  65.165  23.123  54.939
35507DC     SC130787  65.166  22.994  55.168
35507DC     SC230788  65.351  22.885  55.188
35507DC     SC330789  65.085  22.843  55.368
35508DA     BB130790  65.333  23.394  54.663
35508DA     BB230791  65.530  23.085  54.652
35508DA     BB330792  65.419  22.929  54.560
35508DA     SC130793  65.294  22.826  54.826
35508DA     SC230794  65.313  22.626  54.974
35508DA     SC330795  65.085  22.698  55.066
35508DA     SC430796  65.152  22.887  54.869
35509DT     BB130797  65.464  22.840  54.363
35509DT     BB230798  65.587  22.523  54.484
35509DT     BB330799  65.449  22.374  54.445
35509DT     SC130800  65.292  22.458  54.638
35509DT     SC230801  65.293  22.314  54.798
35509DT     SC330802  65.081  22.556  54.761
35510DT     BB130803  65.560  22.228  54.202
35510DT     BB230804  65.515  21.962  54.442
35510DT     BB330805  65.333  21.869  54.410
35510DT     SC130806  65.202  22.071  54.516
35510DT     SC230807  65.117  22.010  54.704
35510DT     SC330808  65.039  22.277  54.537
35511DA     BB130809  65.555  21.505  54.352
35511DA     BB230810  65.300  21.426  54.604
35511DA     BB330811  65.117  21.371  54.509
35511DA     SC130812  65.004  21.660  54.503
35511DA     SC230813  64.823  21.790  54.615
35511DA     SC330814  64.845  21.952  54.417
35511DA     SC430815  65.032  21.749  54.372
35512DA     BB130816  65.119  21.078  54.672
35512DA     BB230817  64.822  21.192  54.854
35512DA     BB330818  64.646  21.148  54.743
35512DA     SC130819  64.643  21.419  54.591
35512DA     SC230820  64.505  21.627  54.587
35512DA     SC330821  64.608  21.667  54.356
35512DA     SC430822  64.717  21.426  54.449
35513DT     BB130823  64.505  21.008  54.818
35513DT     BB230824  64.268  21.255  54.930
35513DT     BB330825  64.099  21.251  54.810
35513DT     SC130826  64.226  21.371  54.614
35513DT     SC230827  64.148  21.571  54.590
35513DT     SC330828  64.336  21.413  54.378
35514DT     BB130829  63.967  21.146  55.019
35514DT     BB230830  63.789  21.450  54.941
35514DT     BB330831  63.647  21.413  54.795
35514DT     SC130832  63.832  21.399  54.608
35514DT     SC230833  63.815  21.569  54.478
35514DT     SC330834  63.985  21.300  54.418
35515DA     BB130835  63.478  21.618  55.117
35515DA     BB230836  63.379  21.789  54.808
35515DA     BB330837  63.237  21.672  54.701
35515DA     SC130838  63.451  21.520  54.535
35515DA     SC230839  63.529  21.511  54.298
35515DA     SC330840  63.629  21.283  54.361
35515DA     SC430841  63.505  21.380  54.593
35516DT     BB130842  63.059  21.750  54.686
35516DT     BB230843  63.077  21.839  54.337
35516DT     BB330844  62.970  21.703  54.223
35516DT     SC130845  63.157  21.520  54.251
35516DT     SC230846  63.254  21.489  54.062
35516DT     SC330847  63.276  21.296  54.321
35517DT     BB130848  62.774  21.889  54.180
35517DT     BB230849  62.876  21.788  53.849
35517DT     BB330850  62.766  21.623  53.788
35517DT     SC130851  62.902  21.464  53.946
35517DT     SC230852  63.025  21.333  53.827
35517DT     SC330853  62.957  21.296  54.142
35518DT     BB130854  62.626  21.778  53.612
35518DT     BB230855  62.768  21.516  53.408
35518DT     BB330856  62.641  21.353  53.404
35518DT     SC130857  62.708  21.285  53.648
35518DT     SC230858  62.822  21.103  53.643
35518DT     SC330859  62.687  21.234  53.906
35519DA     BB130860  62.733  21.451  53.008
35519DA     BB230861  62.782  21.089  53.049
35519DA     BB330862  62.594  20.990  53.060
35519DA     SC130863  62.573  21.009  53.369
35519DA     SC230864  62.584  20.855  53.565
35519DA     SC330865  62.462  21.042  53.693
35519DA     SC430866  62.497  21.137  53.431
35520DA     BB130867  62.747  20.824  52.825
35520DA     BB230868  62.706  20.527  53.036
35520DA     BB330869  62.503  20.463  53.036
35520DA     SC130870  62.423  20.636  53.283
35520DA     SC230871  62.358  20.598  53.521
35520DA     SC330872  62.256  20.834  53.508
35520DA     SC430873  62.364  20.783  53.255
35521DT     BB130874  62.484  20.297  52.959
35521DT     BB230875  62.416  20.112  53.261
35521DT     BB330876  62.212  20.083  53.282
35521DT     SC130877  62.176  20.333  53.353
35521DT     SC230878  62.122  20.342  53.561
35521DT     SC330879  62.092  20.583  53.347
35522DA     BB130880  62.401  19.710  53.326
35522DA     BB230881  62.160  19.748  53.600
35522DA     BB330882  61.961  19.732  53.526
35522DA     SC130883  61.930  20.037  53.472
35522DA     SC230884  61.802  20.229  53.567
35522DA     SC330885  61.847  20.343  53.342
35522DA     SC430886  61.967  20.091  53.325
35523DG     BB130887  61.930  19.484  53.717
35523DG     BB230888  61.681  19.691  53.877
35523DG     BB330889  61.508  19.676  53.780
35523DG     SC130890  61.566  19.907  53.588
35523DG     SC230891  61.422  20.169  53.580
35523DG     SC330892  61.605  20.141  53.349
35523DG     SC430893  61.642  19.876  53.451
35524DT     BB130894  61.308  19.586  53.869
35524DT     BB230895  61.117  19.887  53.926
35524DT     BB330896  60.966  19.902  53.785
35524DT     SC130897  61.137  19.971  53.598
35524DT     SC230898  61.107  20.178  53.546
35524DT     SC330899  61.279  19.962  53.376
35525DT     BB130900  60.764  19.838  53.965
35525DT     BB230901  60.668  20.161  53.836
35525DT     BB330902  60.551  20.138  53.667
35525DT     SC130903  60.759  20.072  53.522
35525DT     SC230904  60.800  20.229  53.381
35525DT     SC330905  60.920  19.928  53.371
35526DA     BB130906  60.344  20.391  53.928
35526DA     BB230907  60.355  20.552  53.599
35526DA     BB330908  60.219  20.456  53.465
35526DA     SC130909  60.430  20.253  53.359
35526DA     SC230910  60.555  20.211  53.148
35526DA     SC330911  60.590  19.974  53.240
35526DA     SC430912  60.440  20.111  53.433
35527DA     BB130913  60.139  20.770  53.446
35527DA     BB230914  60.230  20.747  53.092
35527DA     BB330915  60.083  20.635  52.985
35527DA     SC130916  60.225  20.362  53.027
35527DA     SC230917  60.348  20.194  52.889
35527DA     SC330918  60.296  20.030  53.079
35527DA     SC430919  60.182  20.274  53.155
35528DA     BB130920  60.131  20.914  52.824
35528DA     BB230921  60.229  20.702  52.541
35528DA     BB330922  60.059  20.596  52.466
35528DA     SC130923  60.101  20.349  52.651
35528DA     SC230924  60.170  20.111  52.627
35528DA     SC330925  60.056  20.077  52.854
35528DA     SC430926  60.024  20.348  52.792
35529DT     BB130927  60.033  20.651  52.301
35529DT     BB230928  60.140  20.350  52.132
35529DT     BB330929  59.977  20.230  52.092
35529DT     SC130930  59.958  20.157  52.343
35529DT     SC230931  60.013  19.950  52.362
35529DT     SC330932  59.860  20.126  52.586
35530DT     BB130933  60.025  20.298  51.843
35530DT     BB230934  60.026  19.937  51.845
35530DT     BB330935  59.832  19.865  51.840
35530DT     SC130936  59.794  19.929  52.092
35530DT     SC230937  59.780  19.749  52.210
35530DT     SC330938  59.696  20.046  52.307
35531DT     BB130939  59.860  19.788  51.580
35531DT     BB230940  59.750  19.489  51.749
35531DT     BB330941  59.543  19.485  51.758
35531DT     SC130942  59.540  19.668  51.946
35531DT     SC230943  59.475  19.579  52.131
35531DT     SC330944  59.493  19.896  52.070
35532DT     BB130945  59.514  19.290  51.561
35532DT     BB230946  59.335  19.154  51.843
35532DT     BB330947  59.138  19.215  51.838
35532DT     SC130948  59.203  19.457  51.916
35532DT     SC230949  59.130  19.490  52.116
35532DT     SC330950  59.234  19.719  51.912
35533DG     BB130951  59.102  18.807  51.822
35533DG     BB230952  58.901  18.944  52.089
35533DG     BB330953  58.729  19.012  52.017
35533DG     SC130954  58.835  19.294  51.963
35533DG     SC230955  58.749  19.543  52.103
35533DG     SC330956  58.924  19.606  51.872
35533DG     SC430957  58.904  19.325  51.822
35534DC     BB130958  58.519  18.927  52.073
35534DC     BB230959  58.402  19.184  52.297
35534DC     BB330960  58.255  19.297  52.205
35534DC     SC130961  58.432  19.420  52.056
35534DC     SC230962  58.447  19.626  52.118
35534DC     SC330963  58.563  19.502  51.842
35535DG     BB130964  58.102  19.142  52.548
35535DG     BB230965  58.064  19.501  52.535
35535DG     BB330966  57.913  19.549  52.415
35535DG     SC130967  58.086  19.565  52.163
35535DG     SC230968  58.146  19.813  52.007
35535DG     SC330969  58.243  19.573  51.865
35535DG     SC430970  58.110  19.433  52.077
35536DG     BB130971  57.802  19.701  52.678
35536DG     BB230972  57.832  20.003  52.482
35536DG     BB330973  57.678  20.019  52.357
35536DG     SC130974  57.815  19.866  52.130
35536DG     SC230975  57.899  19.980  51.867
35536DG     SC330976  57.927  19.686  51.867
35536DG     SC430977  57.800  19.707  52.123
35537DC     BB130978  57.563  20.184  52.384
35537DC     BB230979  57.649  20.386  52.097
35537DC     BB330980  57.508  20.362  51.949
35537DC     SC130981  57.601  20.125  51.887
35537DC     SC230982  57.695  20.132  51.694
35537DC     SC330983  57.611  19.863  51.854
35538DT     BB130984  57.433  20.610  52.006
35538DT     BB230985  57.507  20.614  51.652
35538DT     BB330986  57.344  20.544  51.545
35538DT     SC130987  57.394  20.296  51.617
35538DT     SC230988  57.462  20.185  51.445
35538DT     SC330989  57.364  20.059  51.727
35539DA     BB130990  57.439  20.915  51.371
35539DA     BB230991  57.395  20.673  51.099
35539DA     BB330992  57.188  20.626  51.074
35539DA     SC130993  57.192  20.386  51.271
35539DA     SC230994  57.175  20.138  51.260
35539DA     SC330995  57.114  20.151  51.509
35539DA     SC430996  57.155  20.415  51.425
35540DT     BB130997  57.064  20.684  50.897
35540DT     BB230998  57.044  20.355  50.750
35540DT     BB330999  56.852  20.280  50.771
35540DT     SC131000  56.890  20.232  51.026
35540DT     SC231001  56.898  20.019  51.058
35540DT     SC331002  56.862  20.245  51.288
35541DA     BB131003  56.900  20.250  50.352
35541DA     BB231004  56.781  19.923  50.469
35541DA     BB331005  56.571  19.929  50.505
35541DA     SC131006  56.599  20.012  50.803
35541DA     SC231007  56.561  19.910  51.028
35541DA     SC331008  56.556  20.152  51.114
35541DA     SC431009  56.598  20.170  50.837
35542DA     BB131010  56.543  19.673  50.295
35542DA     BB231011  56.420  19.474  50.577
35542DA     BB331012  56.213  19.513  50.611
35542DA     SC131013  56.265  19.745  50.812
35542DA     SC231014  56.238  19.786  51.056
35542DA     SC331015  56.248  20.035  50.994
35542DA     SC431016  56.272  19.894  50.753
35543DA     BB131017  56.184  19.187  50.582
35543DA     BB231018  56.071  19.184  50.931
35543DA     BB331019  55.867  19.244  50.943
35543DA     SC131020  55.933  19.546  50.979
35543DA     SC231021  55.919  19.718  51.160
35543DA     SC331022  55.931  19.889  50.970
35543DA     SC431023  55.940  19.637  50.847
35544DT     BB131024  55.730  19.108  51.005
35544DT     BB231025  55.689  19.243  51.337
35544DT     BB331026  55.507  19.341  51.351
35544DT     SC131027  55.597  19.545  51.212
35544DT     SC231028  55.617  19.716  51.341
35544DT     SC331029  55.623  19.720  51.017
35545DA     BB131030  55.549  19.071  51.668
35545DA     BB231031  55.453  19.397  51.806
35545DA     BB331032  55.249  19.440  51.761
35545DA     SC131033  55.313  19.585  51.494
35545DA     SC231034  55.306  19.818  51.404
35545DA     SC331035  55.306  19.707  51.173
35545DA     SC431036  55.312  19.497  51.359
35546DT     BB131037  55.143  19.450  51.915
35546DT     BB231038  55.105  19.808  51.918
35546DT     BB331039  54.920  19.861  51.840
35546DT     SC131040  54.999  19.809  51.596
35546DT     SC231041  55.016  19.992  51.485
35546DT     SC331042  55.013  19.694  51.359
35547DT     BB131043  54.867  19.930  52.089
35547DT     BB231044  54.816  20.229  51.893
35547DT     BB331045  54.628  20.225  51.806
35547DT     SC131046  54.705  20.047  51.629
35547DT     SC231047  54.713  20.139  51.434
35547DT     SC331048  54.720  19.820  51.495
35548DA     BB131049  54.700  20.590  52.000
35548DA     BB231050  54.570  20.660  51.664
35548DA     BB331051  54.364  20.606  51.652
35548DA     SC131052  54.421  20.315  51.556
35548DA     SC231053  54.394  20.181  51.348
35548DA     SC331054  54.412  19.976  51.502
35548DA     SC431055  54.433  20.201  51.668
35549DA     BB131056  54.370  20.914  51.542
35549DA     BB231057  54.228  20.781  51.231
35549DA     BB331058  54.026  20.720  51.262
35549DA     SC131059  54.099  20.428  51.340
35549DA     SC231060  54.076  20.200  51.242
35549DA     SC331061  54.109  20.116  51.482
35549DA     SC431062  54.120  20.396  51.496
35550DT     BB131063  53.906  20.822  51.164
35550DT     BB231064  53.816  20.571  50.921
35550DT     BB331065  53.637  20.482  50.975
35550DT     SC131066  53.753  20.345  51.166
35550DT     SC231067  53.756  20.136  51.113
35550DT     SC331068  53.814  20.258  51.408
35551DA     BB131069  53.598  20.605  50.576
35551DA     BB231070  53.477  20.259  50.599
35551DA     BB331071  53.289  20.253  50.698
35551DA     SC131072  53.412  20.217  50.982
35551DA     SC231073  53.427  20.038  51.154
35551DA     SC331074  53.477  20.228  51.318
35551DA     SC431075  53.440  20.349  51.068
35552DG     BB131076  53.180  20.130  50.432
35552DG     BB231077  53.115  19.843  50.642
35552DG     BB331078  52.942  19.866  50.738
35552DG     SC131079  53.068  20.005  50.980
35552DG     SC231080  53.082  19.896  51.257
35552DG     SC331081  53.169  20.179  51.251
35552DG     SC431082  53.085  20.165  50.978
35553DT     BB131083  52.769  19.729  50.705
35553DT     BB231084  52.771  19.535  51.009
35553DT     BB331085  52.619  19.599  51.135
35553DT     SC131086  52.752  19.816  51.199
35553DT     SC231087  52.816  19.803  51.404
35553DT     SC331088  52.815  20.071  51.222
35554DA     BB131089  52.582  19.183  51.097
35554DA     BB231090  52.565  19.265  51.454
35554DA     BB331091  52.378  19.357  51.500
35554DA     SC131092  52.480  19.647  51.450
35554DA     SC231093  52.530  19.850  51.586
35554DA     SC331094  52.508  19.978  51.364
35554DA     SC431095  52.461  19.708  51.303
35555DT     BB131096  52.249  19.258  51.619
35555DT     BB231097  52.290  19.462  51.913
35555DT     BB331098  52.126  19.586  51.936
35555DT     SC131099  52.208  19.742  51.741
35555DT     SC231100  52.270  19.931  51.822
35555DT     SC331101  52.212  19.868  51.510
35556DC     BB131102  52.034  19.438  52.147
35556DC     BB231103  52.058  19.773  52.279
35556DC     BB331104  51.882  19.877  52.240
35556DC     SC131105  51.946  19.905  51.987
35556DC     SC231106  51.990  20.112  51.947
35556DC     SC331107  51.934  19.883  51.725
35557DT     BB131108  51.785  19.865  52.504
35557DT     BB231109  51.780  20.218  52.428
35557DT     BB331110  51.598  20.270  52.347
35557DT     SC131111  51.660  20.158  52.117
35557DT     SC231112  51.687  20.311  51.968
35557DT     SC331113  51.651  19.994  51.911
35558DA     BB131114  51.607  20.542  52.672
35558DA     BB231115  51.521  20.738  52.374
35558DA     BB331116  51.315  20.711  52.325
35558DA     SC131117  51.366  20.469  52.136
35558DA     SC231118  51.355  20.420  51.892
35558DA     SC331119  51.342  20.174  51.963
35558DA     SC431120  51.357  20.322  52.200
35559DA     BB131121  51.246  21.046  52.342
35559DA     BB231122  51.171  21.038  51.983
35559DA     BB331123  50.968  20.981  51.951
35559DA     SC131124  51.032  20.677  51.932
35559DA     SC231125  51.034  20.499  51.757
35559DA     SC331126  51.022  20.334  51.953
35559DA     SC431127  51.023  20.590  52.067
35560DT     BB131128  50.786  21.114  51.863
35560DT     BB231129  50.801  20.967  51.534
35560DT     BB331130  50.627  20.861  51.497
35560DT     SC131131  50.702  20.666  51.656
35560DT     SC231132  50.747  20.491  51.538
35560DT     SC331133  50.703  20.499  51.859
35561DT     BB131134  50.531  21.049  51.313
35561DT     BB231135  50.563  20.743  51.123
35561DT     BB331136  50.385  20.638  51.129
35561DT     SC131137  50.429  20.562  51.376
35561DT     SC231138  50.469  20.351  51.380
35561DT     SC331139  50.398  20.536  51.637
35562DA     BB131140  50.536  20.681  50.742
35562DA     BB231141  50.465  20.326  50.800
35562DA     BB331142  50.254  20.293  50.805
35562DA     SC131143  50.231  20.336  51.113
35562DA     SC231144  50.184  20.198  51.315
35562DA     SC331145  50.125  20.420  51.428
35562DA     SC431146  50.197  20.484  51.164
35563DA     BB131147  50.390  20.081  50.600
35563DA     BB231148  50.251  19.822  50.820
35563DA     BB331149  50.038  19.819  50.805
35563DA     SC131150  49.995  20.023  51.037
35563DA     SC231151  49.907  20.020  51.271
35563DA     SC331152  49.879  20.274  51.240
35563DA     SC431153  49.984  20.178  50.999
35564DA     BB131154  50.143  19.513  50.764
35564DA     BB231155  49.933  19.431  51.053
35564DA     BB331156  49.727  19.451  51.003
35564DA     SC131157  49.709  19.749  51.090
35564DA     SC231158  49.603  19.882  51.272
35564DA     SC331159  49.633  20.083  51.115
35564DA     SC431160  49.735  19.861  50.978
35565DT     BB131161  49.636  19.288  51.008
35565DT     BB231162  49.443  19.350  51.307
35565DT     BB331163  49.251  19.408  51.256
35565DT     SC131164  49.334  19.647  51.185
35565DT     SC231165  49.261  19.792  51.326
35565DT     SC331166  49.386  19.856  51.034
35566DT     BB131167  49.163  19.168  51.341
35566DT     BB231168  48.970  19.407  51.529
35566DT     BB331169  48.804  19.467  51.420
35566DT     SC131170  48.952  19.616  51.262
35566DT     SC231171  48.909  19.823  51.300
35566DT     SC331172  49.069  19.706  51.044
35567DA     BB131173  48.658  19.344  51.793
35567DA     BB231174  48.507  19.669  51.716
35567DA     BB331175  48.357  19.647  51.565
35567DA     SC131176  48.553  19.695  51.328
35567DA     SC231177  48.596  19.871  51.157
35567DA     SC331178  48.717  19.686  51.027
35567DA     SC431179  48.623  19.566  51.262
35568DT     BB131180  48.157  19.679  51.610
35568DT     BB231181  48.124  19.995  51.440
35568DT     BB331182  48.015  19.970  51.265
35568DT     SC131183  48.219  19.856  51.145
35568DT     SC231184  48.294  19.987  50.992
35568DT     SC331185  48.365  19.672  51.025
35569DA     BB131186  47.832  20.283  51.475
35569DA     BB231187  47.880  20.395  51.130
35569DA     BB331188  47.740  20.299  51.000
35569DA     SC131189  47.927  20.059  50.936
35569DA     SC231190  48.055  19.972  50.741
35569DA     SC331191  48.054  19.748  50.865
35569DA     SC431192  47.914  19.928  51.028
35570DT     BB131193  47.603  20.413  50.914
35570DT     BB231194  47.742  20.408  50.581
35570DT     BB331195  47.633  20.280  50.461
35570DT     SC131196  47.738  20.069  50.576
35570DT     SC231197  47.868  19.969  50.437
35570DT     SC331198  47.756  19.845  50.715
35571DA     BB131199  47.654  20.644  50.255
35571DA     BB231200  47.742  20.378  50.018
35571DA     BB331201  47.568  20.270  49.960
35571DA     SC131202  47.593  20.059  50.187
35571DA     SC231203  47.647  19.817  50.209
35571DA     SC331204  47.529  19.832  50.437
35571DA     SC431205  47.514  20.089  50.325
35572DT     BB131206  47.500  20.281  49.765
35572DT     BB231207  47.603  19.951  49.663
35572DT     BB331208  47.437  19.827  49.647
35572DT     SC131209  47.417  19.808  49.908
35572DT     SC231210  47.469  19.609  49.970
35572DT     SC331211  47.318  19.831  50.152
35573DT     BB131212  47.448  19.829  49.372
35573DT     BB231213  47.460  19.478  49.458
35573DT     BB331214  47.268  19.402  49.472
35573DT     SC131215  47.229  19.522  49.702
35573DT     SC231216  47.220  19.374  49.858
35573DT     SC331217  47.127  19.683  49.884
35574DT     BB131218  47.295  19.264  49.235
35574DT     BB231219  47.206  19.010  49.476
35574DT     BB331220  47.000  18.994  49.488
35574DT     SC131221  46.982  19.218  49.624
35574DT     SC231222  46.924  19.174  49.826
35574DT     SC331223  46.919  19.466  49.686
35575DT     BB131224  46.998  18.753  49.353
35575DT     BB231225  46.829  18.680  49.664
35575DT     BB331226  46.626  18.717  49.644
35575DT     SC131227  46.664  18.976  49.653
35575DT     SC231228  46.585  19.054  49.838
35575DT     SC331229  46.668  19.229  49.578
35576DT     BB131230  46.564  18.447  49.640
35576DT     BB231231  46.367  18.578  49.912
35576DT     BB331232  46.183  18.643  49.842
35576DT     SC131233  46.291  18.856  49.734
35576DT     SC231234  46.227  19.031  49.843
35576DT     SC331235  46.368  19.030  49.551
35577DT     BB131236  46.045  18.427  49.952
35577DT     BB231237  45.880  18.717  50.091
35577DT     BB331238  45.725  18.776  49.967
35577DT     SC131239  45.893  18.877  49.792
35577DT     SC231240  45.876  19.092  49.793
35577DT     SC331241  46.024  18.914  49.567
35578DG     BB131242  45.542  18.697  50.324
35578DG     BB231243  45.457  19.027  50.205
35578DG     BB331244  45.312  19.015  50.069
35578DG     SC131245  45.505  18.988  49.832
35578DG     SC231246  45.544  19.188  49.614
35578DG     SC331247  45.686  18.936  49.552
35578DG     SC431248  45.555  18.842  49.789
35579DT     BB131249  45.098  19.106  50.093
35579DT     BB231250  45.122  19.395  49.879
35579DT     BB331251  45.012  19.364  49.706
35579DT     SC131252  45.193  19.200  49.611
35579DT     SC231253  45.292  19.293  49.443
35579DT     SC331254  45.306  18.978  49.522
35580DT     BB131255  44.820  19.541  49.789
35580DT     BB231256  44.933  19.671  49.472
35580DT     BB331257  44.823  19.588  49.318
35580DT     SC131258  44.951  19.359  49.340
35580DT     SC231259  45.076  19.330  49.168
35580DT     SC331260  44.995  19.103  49.384
35581DA     BB131261  44.816  20.003  49.271
35581DA     BB231262  44.909  19.855  48.949
35581DA     BB331263  44.739  19.765  48.857
35581DA     SC131264  44.788  19.486  48.986
35581DA     SC231265  44.859  19.258  48.912
35581DA     SC331266  44.751  19.176  49.130
35581DA     SC431267  44.715  19.454  49.125
35582DT     BB131268  44.676  19.847  48.689
35582DT     BB231269  44.797  19.589  48.467
35582DT     BB331270  44.639  19.470  48.405
35582DT     SC131271  44.627  19.350  48.638
35582DT     SC231272  44.693  19.147  48.617
35582DT     SC331273  44.534  19.270  48.871
35583DT     BB131274  44.654  19.581  48.157
35583DT     BB231275  44.692  19.227  48.100
35583DT     BB331276  44.506  19.138  48.081
35583DT     SC131277  44.462  19.155  48.339
35583DT     SC231278  44.465  18.958  48.425
35583DT     SC331279  44.352  19.226  48.568
35584DT     BB131280  44.546  19.105  47.813
35584DT     BB231281  44.479  18.773  47.936
35584DT     BB331282  44.275  18.738  47.937
35584DT     SC131283  44.242  18.890  48.148
35584DT     SC231284  44.189  18.767  48.317
35584DT     SC331285  44.160  19.089  48.300
35585DT     BB131286  44.297  18.568  47.723
35585DT     BB231287  44.141  18.369  47.980
35585DT     BB331288  43.936  18.391  47.972
35585DT     SC131289  43.950  18.630  48.079
35585DT     SC231290  43.868  18.625  48.278
35585DT     SC331291  43.930  18.892  48.106
35586DA     BB131292  44.016  17.981  47.968
35586DA     BB231293  43.762  18.043  48.225
35586DA     BB331294  43.573  18.083  48.134
35586DA     SC131295  43.618  18.391  48.122
35586DA     SC231296  43.528  18.595  48.232
35586DA     SC331297  43.623  18.722  48.030
35586DA     SC431298  43.683  18.451  47.988
35587DA     BB131299  43.498  17.844  48.341
35587DA     BB231300  43.270  18.083  48.501
35587DA     BB331301  43.098  18.115  48.378
35587DA     SC131302  43.223  18.354  48.224
35587DA     SC231303  43.190  18.601  48.208
35587DA     SC331304  43.313  18.583  47.984
35587DA     SC431305  43.300  18.322  48.086
35588DA     BB131306  42.972  18.040  48.669
35588DA     BB231307  42.812  18.369  48.659
35588DA     BB331308  42.654  18.371  48.515
35588DA     SC131309  42.836  18.465  48.280
35588DA     SC231310  42.866  18.669  48.141
35588DA     SC331311  42.982  18.513  47.974
35588DA     SC431312  42.903  18.351  48.189
35589DA     BB131313  42.510  18.485  48.785
35589DA     BB231314  42.434  18.786  48.590
35589DA     BB331315  42.284  18.744  48.445
35589DA     SC131316  42.487  18.666  48.222
35589DA     SC231317  42.568  18.758  48.006
35589DA     SC331318  42.646  18.519  47.956
35589DA     SC431319  42.527  18.510  48.209
35590DT     BB131320  42.119  18.835  48.472
35590DT     BB231321  42.145  19.068  48.198
35590DT     BB331322  42.031  19.003  48.039
35590DT     SC131323  42.206  18.817  47.979
35590DT     SC231324  42.303  18.867  47.794
35590DT     SC331325  42.310  18.578  47.940
35591DA     BB131326  41.920  19.401  48.113
35591DA     BB231327  41.976  19.366  47.753
35591DA     BB331328  41.817  19.254  47.664
35591DA     SC131329  41.957  18.979  47.700
35591DA     SC231330  42.063  18.805  47.556
35591DA     SC331331  42.027  18.647  47.755
35591DA     SC431332  41.925  18.896  47.834
35592DG     BB131333  41.769  19.512  47.494
35592DG     BB231334  41.857  19.295  47.219
35592DG     BB331335  41.699  19.188  47.163
35592DG     SC131336  41.757  18.957  47.355
35592DG     SC231337  41.835  18.679  47.276
35592DG     SC331338  41.779  18.695  47.567
35592DG     SC431339  41.698  18.962  47.504
35593DA     BB131340  41.765  19.301  46.842
35593DA     BB231341  41.802  18.954  46.727
35593DA     BB331342  41.611  18.861  46.711
35593DA     SC131343  41.611  18.752  47.002
35593DA     SC231344  41.629  18.531  47.117
35593DA     SC331345  41.523  18.651  47.318
35593DA     SC431346  41.544  18.844  47.116
35594DA     BB131347  41.730  18.800  46.410
35594DA     BB231348  41.692  18.444  46.489
35594DA     BB331349  41.486  18.389  46.486
35594DA     SC131350  41.440  18.448  46.787
35594DA     SC231351  41.396  18.319  46.996
35594DA     SC331352  41.308  18.541  47.090
35594DA     SC431353  41.388  18.595  46.827
35595DA     BB131354  41.598  18.159  46.276
35595DA     BB231355  41.470  17.908  46.511
35595DA     BB331356  41.257  17.898  46.499
35595DA     SC131357  41.210  18.111  46.720
35595DA     SC231358  41.123  18.119  46.954
35595DA     SC331359  41.087  18.369  46.911
35595DA     SC431360  41.193  18.264  46.673
35596DG     BB131361  41.283  17.594  46.409
35596DG     BB231362  41.106  17.528  46.717
35596DG     BB331363  40.910  17.546  46.688
35596DG     SC131364  40.903  17.845  46.756
35596DG     SC231365  40.768  17.968  46.992
35596DG     SC331366  40.861  18.176  46.804
35596DG     SC431367  40.927  17.951  46.639
35597DA     BB131368  40.822  17.219  46.810
35597DA     BB231369  40.615  17.365  47.075
35597DA     BB331370  40.422  17.416  47.000
35597DA     SC131371  40.503  17.705  46.920
35597DA     SC231372  40.455  17.938  46.996
35597DA     SC331373  40.536  18.009  46.763
35597DA     SC431374  40.556  17.729  46.770
35598DA     BB131375  40.238  17.220  47.221
35598DA     BB231376  40.095  17.527  47.360
35598DA     BB331377  39.922  17.585  47.250
35598DA     SC131378  40.079  17.763  47.049
35598DA     SC231379  40.104  18.006  46.998
35598DA     SC331380  40.191  17.928  46.769
35598DA     SC431381  40.130  17.695  46.912
35599DA     BB131382  39.703  17.581  47.518
35599DA     BB231383  39.679  17.946  47.486
35599DA     BB331384  39.521  17.998  47.353
35599DA     SC131385  39.702  18.000  47.100
35599DA     SC231386  39.794  18.168  46.940
35599DA     SC331387  39.827  17.969  46.781
35599DA     SC431388  39.713  17.864  47.015
35600DT     BB131389  39.322  18.113  47.410
35600DT     BB231390  39.456  18.428  47.296
35600DT     BB331391  39.346  18.497  47.134
35600DT     SC131392  39.457  18.321  46.974
35600DT     SC231393  39.586  18.422  46.835
35600DT     SC331394  39.481  18.116  46.809
35601DA     BB131395  39.391  18.784  47.429
35601DA     BB231396  39.517  18.922  47.114
35601DA     BB331397  39.354  18.973  46.985
35601DA     SC131398  39.345  18.695  46.846
35601DA     SC231399  39.397  18.599  46.622
35601DA     SC331400  39.245  18.404  46.692
35601DA     SC431401  39.246  18.584  46.908
35602DT     BB131402  39.380  19.139  46.968
35602DT     BB231403  39.514  19.125  46.633
35602DT     BB331404  39.362  19.157  46.496
35602DT     SC131405  39.266  18.916  46.534
35602DT     SC231406  39.300  18.796  46.359
35602DT     SC331407  39.098  18.723  46.602
35603DT     BB131408  39.512  19.365  46.467
35603DT     BB231409  39.501  19.205  46.144
35603DT     BB331410  39.322  19.248  46.049
35603DT     SC131411  39.190  19.083  46.205
35603DT     SC231412  39.125  18.913  46.090
35603DT     SC331413  39.019  18.995  46.385
35604DC     BB131414  39.485  19.381  45.896
35604DC     BB231415  39.309  19.154  45.678
35604DC     BB331416  39.122  19.230  45.632
35604DC     SC131417  39.031  19.171  45.870
35604DC     SC231418  38.888  19.011  45.854
35604DC     SC331419  38.931  19.201  46.113
35605DT     BB131420  39.223  19.266  45.389
35605DT     BB231421  38.927  19.066  45.339
35605DT     BB331422  38.760  19.189  45.331
35605DT     SC131423  38.765  19.226  45.590
35605DT     SC231424  38.597  19.127  45.681
35605DT     SC331425  38.785  19.349  45.823
35606DT     BB131426  38.749  19.134  45.069
35606DT     BB231427  38.424  19.042  45.195
35606DT     BB331428  38.300  19.208  45.200
35606DT     SC131429  38.424  19.303  45.411
35606DT     SC231430  38.293  19.292  45.581
35606DT     SC331431  38.567  19.463  45.564
35607DT     BB131432  38.166  19.103  44.993
35607DT     BB231433  37.913  19.162  45.243
35607DT     BB331434  37.845  19.357  45.230
35607DT     SC131435  38.064  19.449  45.340
35607DT     SC231436  38.019  19.525  45.537
35607DT     SC331437  38.291  19.581  45.370
35608DT     BB131438  37.614  19.263  45.127
35608DT     BB231439  37.511  19.466  45.408
35608DT     BB331440  37.492  19.663  45.349
35608DT     SC131441  37.753  19.694  45.343
35608DT     SC231442  37.813  19.824  45.503
35608DT     SC331443  37.995  19.739  45.250
35609DT     BB131444  37.220  19.646  45.359
35609DT     BB231445  37.295  19.933  45.565
35609DT     BB331446  37.306  20.103  45.448
35609DT     SC131447  37.540  20.032  45.353
35609DT     SC231448  37.691  20.164  45.430
35609DT     SC331449  37.727  19.959  45.181
35610DA     BB131450  37.019  20.222  45.734
35610DA     BB231451  37.254  20.501  45.699
35610DA     BB331452  37.215  20.608  45.519
35610DA     SC131453  37.411  20.438  45.347
35610DA     SC231454  37.630  20.469  45.233
35610DA     SC331455  37.563  20.263  45.094
35610DA     SC431456  37.351  20.310  45.271
35611DA     BB131457  37.164  20.913  45.673
35611DA     BB231458  37.447  21.050  45.485
35611DA     BB331459  37.384  21.114  45.291
35611DA     SC131460  37.442  20.840  45.155
35611DA     SC231461  37.605  20.746  44.991
35611DA     SC331462  37.432  20.560  44.957
35611DA     SC431463  37.321  20.734  45.147
35612DT     BB131464  37.359  21.347  45.188
35612DT     BB231465  37.654  21.326  44.981
35612DT     BB331466  37.600  21.329  44.781
35612DT     SC131467  37.514  21.081  44.792
35612DT     SC231468  37.646  20.954  44.679
35612DT     SC331469  37.350  20.875  44.784
35613DG     BB131470  37.830  21.670  44.796
35613DG     BB231471  37.951  21.446  44.538
35613DG     BB331472  37.848  21.475  44.370
35613DG     SC131473  37.633  21.268  44.438
35613DG     SC231474  37.585  21.011  44.295
35613DG     SC331475  37.369  21.065  44.489
35613DG     SC431476  37.504  21.315  44.521
35614DT     BB131477  37.945  21.548  44.174
35614DT     BB231478  37.962  21.237  43.992
35614DT     BB331479  37.822  21.236  43.840
35614DT     SC131480  37.626  21.198  44.009
35614DT     SC231481  37.546  21.000  43.983
35614DT     SC331482  37.405  21.242  44.147
35615DC     BB131483  38.032  21.251  43.680
35615DC     BB231484  37.861  20.948  43.585
35615DC     BB331485  37.707  20.992  43.453
35615DC     SC131486  37.559  21.089  43.646
35615DC     SC231487  37.392  20.958  43.681
35615DC     SC331488  37.421  21.262  43.790
35616DT     BB131489  37.864  20.866  43.286
35616DT     BB231490  37.551  20.686  43.278
35616DT     BB331491  37.417  20.784  43.154
35616DT     SC131492  37.376  20.972  43.334
35616DT     SC231493  37.177  20.953  43.413
35616DT     SC331494  37.372  21.210  43.447
35617DT     BB131495  37.453  20.577  42.996
35617DT     BB231496  37.096  20.593  43.049
35617DT     BB331497  37.013  20.733  42.921
35617DT     SC131498  37.105  20.932  43.066
35617DT     SC231499  36.942  21.031  43.164
35617DT     SC331500  37.244  21.146  43.134
35618DA     BB131501  36.790  20.381  42.859
35618DA     BB231502  36.551  20.658  42.893
35618DA     BB331503  36.553  20.779  42.717
35618DA     SC131504  36.773  20.972  42.823
35618DA     SC231505  36.790  21.209  42.899
35618DA     SC331506  37.041  21.184  42.852
35618DA     SC431507  36.926  20.937  42.787
35619DA     BB131508  36.219  20.735  42.673
35619DA     BB231509  36.175  21.097  42.705
35619DA     BB331510  36.218  21.194  42.520
35619DA     SC131511  36.519  21.237  42.584
35619DA     SC231512  36.672  21.428  42.636
35619DA     SC331513  36.861  21.269  42.566
35619DA     SC431514  36.622  21.124  42.536
35620DT     BB131515  36.067  21.311  42.355
35620DT     BB231516  36.169  21.645  42.445
35620DT     BB331517  36.268  21.734  42.286
35620DT     SC131518  36.483  21.589  42.328
35620DT     SC231519  36.641  21.716  42.400
35620DT     SC331520  36.676  21.414  42.288
35621DC     BB131521  36.059  21.917  42.191
35621DC     BB231522  36.337  22.135  42.264
35621DC     BB331523  36.447  22.170  42.092
35621DC     SC131524  36.552  21.930  42.101
35621DC     SC231525  36.761  21.945  42.149
35621DC     SC331526  36.612  21.683  42.031
35622DA     BB131527  36.355  22.546  42.250
35622DA     BB231528  36.717  22.534  42.194
35622DA     BB331529  36.760  22.555  41.986
35622DA     SC131530  36.754  22.249  41.930
35622DA     SC231531  36.916  22.069  41.871
35622DA     SC331532  36.711  21.939  41.789
35622DA     SC431533  36.614  22.185  41.882
35623DG     BB131534  36.911  22.797  42.099
35623DG     BB231535  37.198  22.609  41.983
35623DG     BB331536  37.222  22.635  41.787
35623DG     SC131537  37.045  22.398  41.710
35623DG     SC231538  37.136  22.146  41.578
35623DG     SC331539  36.841  22.158  41.589
35623DG     SC431540  36.887  22.421  41.691
35624DA     BB131541  37.541  22.703  41.892
35624DA     BB231542  37.664  22.432  41.678
35624DA     BB331543  37.653  22.488  41.473
35624DA     SC131544  37.366  22.374  41.433
35624DA     SC231545  37.258  22.184  41.312
35624DA     SC331546  37.042  22.320  41.334
35624DA     SC431547  37.242  22.474  41.455
35625DG     BB131548  37.955  22.432  41.501
35625DG     BB231549  37.880  22.173  41.259
35625DG     BB331550  37.862  22.253  41.078
35625DG     SC131551  37.562  22.307  41.103
35625DG     SC231552  37.346  22.173  40.946
35625DG     SC331553  37.237  22.398  41.104
35625DG     SC431554  37.513  22.446  41.165
35626DA     BB131555  38.092  22.014  40.970
35626DA     BB231556  37.848  21.886  40.728
35626DA     BB331557  37.834  22.018  40.561
35626DA     SC131558  37.604  22.188  40.684
35626DA     SC231559  37.361  22.227  40.643
35626DA     SC331560  37.395  22.444  40.777
35626DA     SC431561  37.646  22.318  40.768
35627DA     BB131562  37.901  21.749  40.379
35627DA     BB231563  37.575  21.795  40.218
35627DA     BB331564  37.586  21.951  40.073
35627DA     SC131565  37.505  22.175  40.273
35627DA     SC231566  37.310  22.325  40.313
35627DA     SC331567  37.475  22.471  40.444
35627DA     SC431568  37.623  22.253  40.349
35628DT     BB131569  37.566  21.916  39.859
35628DT     BB231570  37.232  22.047  39.828
35628DT     BB331571  37.235  22.227  39.727
35628DT     SC131572  37.331  22.352  39.937
35628DT     SC231573  37.181  22.484  40.016
35628DT     SC331574  37.497  22.489  40.089
35629DA     BB131575  36.956  21.985  39.530
35629DA     BB231576  36.795  22.307  39.603
35629DA     BB331577  36.867  22.457  39.470
35629DA     SC131578  37.099  22.546  39.657
35629DA     SC231579  37.159  22.743  39.797
35629DA     SC331580  37.399  22.654  39.784
35629DA     SC431581  37.242  22.475  39.636
35630DG     BB131582  36.568  22.461  39.408
35630DG     BB231583  36.593  22.792  39.552
35630DG     BB331584  36.666  22.918  39.417
35630DG     SC131585  36.958  22.870  39.494
35630DG     SC231586  37.142  23.070  39.620
35630DG     SC331587  37.290  22.827  39.538
35630DG     SC431588  37.039  22.752  39.422
35631DC     BB131589  36.540  23.064  39.385
35631DC     BB231590  36.700  23.341  39.552
35631DC     BB331591  36.811  23.451  39.416
35631DC     SC131592  36.998  23.267  39.408
35631DC     SC231593  37.176  23.342  39.503
35631DC     SC331594  37.157  23.079  39.314
35632DG     BB131595  36.543  23.676  39.628
35632DG     BB231596  36.877  23.814  39.639
35632DG     BB331597  36.924  23.894  39.462
35632DG     SC131598  37.042  23.635  39.349
35632DG     SC231599  37.329  23.589  39.281
35632DG     SC331600  37.161  23.364  39.186
35632DG     SC431601  36.945  23.532  39.274
35633DT     BB131602  36.964  24.094  39.464
35633DT     BB231603  37.321  24.103  39.411
35633DT     BB331604  37.362  24.137  39.211
35633DT     SC131605  37.296  23.891  39.149
35633DT     SC231606  37.472  23.782  39.091
35633DT     SC331607  37.166  23.688  39.039
35634DT     BB131608  37.441  24.388  39.271
35634DT     BB231609  37.723  24.243  39.098
35634DT     BB331610  37.698  24.264  38.893
35634DT     SC131611  37.517  24.074  38.888
35634DT     SC231612  37.597  23.902  38.786
35634DT     SC331613  37.285  23.953  38.855
35635DA     BB131614  38.077  24.430  38.967
35635DA     BB231615  38.112  24.197  38.686
35635DA     BB331616  38.029  24.282  38.509
35635DA     SC131617  37.745  24.165  38.556
35635DA     SC231618  37.598  23.991  38.454
35635DA     SC331619  37.405  24.114  38.571
35635DA     SC431620  37.639  24.256  38.635
35636DG     BB131621  38.316  24.266  38.377
35636DG     BB231622  38.154  24.028  38.157
35636DG     BB331623  38.066  24.123  38.007
35636DG     SC131624  37.799  24.159  38.153
35636DG     SC231625  37.540  24.030  38.079
35636DG     SC331626  37.500  24.233  38.290
35636DG     SC431627  37.778  24.289  38.244
35637DA     BB131628  38.238  23.913  37.791
35637DA     BB231629  37.920  23.783  37.665
35637DA     BB331630  37.833  23.920  37.527
35637DA     SC131631  37.670  24.072  37.744
35637DA     SC231632  37.431  24.100  37.810
35637DA     SC331633  37.510  24.312  37.931
35637DA     SC431634  37.739  24.201  37.812
35638DC     BB131635  37.819  23.854  37.349
35638DC     BB231636  37.464  23.792  37.355
35638DC     BB331637  37.364  23.942  37.255
35638DC     SC131638  37.401  24.110  37.453
35638DC     SC231639  37.213  24.150  37.550
35638DC     SC331640  37.486  24.321  37.588
35639DA     BB131641  37.242  23.559  37.136
35639DA     BB231642  36.944  23.759  37.210
35639DA     BB331643  36.919  23.912  37.063
35639DA     SC131644  37.086  24.123  37.219
35639DA     SC231645  37.045  24.336  37.342
35639DA     SC331646  37.295  24.381  37.308
35639DA     SC431647  37.243  24.133  37.186
35640DC     BB131648  36.769  23.877  36.987
35640DC     BB231649  36.579  24.149  37.128
35640DC     BB331650  36.584  24.312  37.000
35640DC     SC131651  36.831  24.368  37.068
35640DC     SC231652  36.835  24.550  37.182
35640DC     SC331653  37.092  24.405  37.048
35641DA     BB131654  36.187  24.229  37.113
35641DA     BB231655  36.244  24.590  37.148
35641DA     BB331656  36.263  24.680  36.956
35641DA     SC131657  36.572  24.645  36.942
35641DA     SC231658  36.775  24.790  36.950
35641DA     SC331659  36.895  24.592  36.839
35641DA     SC431660  36.628  24.512  36.872
35642DT     BB131661  36.121  24.807  36.899
35642DT     BB231662  36.315  25.110  36.929
35642DT     BB331663  36.375  25.175  36.742
35642DT     SC131664  36.557  24.986  36.727
35642DT     SC231665  36.752  25.075  36.739
35642DT     SC331666  36.686  24.772  36.643
35643DT     BB131667  36.194  25.384  36.738
35643DT     BB231668  36.514  25.543  36.683
35643DT     BB331669  36.557  25.547  36.481
35643DT     SC131670  36.613  25.290  36.480
35643DT     SC231671  36.825  25.264  36.449
35643DT     SC331672  36.599  25.033  36.423
35644DT     BB131673  36.508  25.820  36.455
35644DT     BB231674  36.847  25.779  36.338
35644DT     BB331675  36.847  25.741  36.134
35644DT     SC131676  36.764  25.495  36.172
35644DT     SC231677  36.923  25.358  36.123
35644DT     SC331678  36.611  25.281  36.163
35645DT     BB131679  36.946  25.989  36.086
35645DT     BB231680  37.189  25.764  35.943
35645DT     BB331681  37.136  25.717  35.748
35645DT     SC131682  36.945  25.558  35.831
35645DT     SC231683  36.998  25.354  35.787
35645DT     SC331684  36.703  25.460  35.870
35646DT     BB131685  37.345  25.864  35.677
35646DT     BB231686  37.407  25.536  35.540
35646DT     BB331687  37.309  25.516  35.358
35646DT     SC131688  37.077  25.490  35.478
35646DT     SC231689  37.006  25.288  35.454
35646DT     SC331690  36.829  25.541  35.552
35647DA     BB131691  37.711  25.393  35.346
35647DA     BB231692  37.504  25.133  35.191
35647DA     BB331693  37.422  25.204  35.007
35647DA     SC131694  37.163  25.317  35.137
35647DA     SC231695  36.919  25.263  35.141
35647DA     SC331696  36.887  25.506  35.217
35647DA     SC431697  37.164  25.471  35.182
35648DT     BB131698  37.487  25.103  34.879
35648DT     BB231699  37.185  24.923  34.798
35648DT     BB331700  37.087  25.016  34.641
35648DT     SC131701  37.004  25.210  34.798
35648DT     SC231702  36.791  25.194  34.825
35648DT     SC331703  36.973  25.452  34.899
35649DT     BB131704  37.162  24.808  34.495
35649DT     BB231705  36.804  24.827  34.453
35649DT     BB331706  36.757  24.967  34.308
35649DT     SC131707  36.811  25.166  34.471
35649DT     SC231708  36.628  25.267  34.523
35649DT     SC331709  36.929  25.379  34.572
35650DA     BB131710  36.555  24.620  34.177
35650DA     BB231711  36.320  24.900  34.151
35650DA     BB331712  36.371  25.025  33.985
35650DA     SC131713  36.556  25.211  34.152
35650DA     SC231714  36.554  25.447  34.235
35650DA     SC331715  36.808  25.419  34.258
35650DA     SC431716  36.713  25.175  34.158
35651DT     BB131717  36.257  25.058  33.770
35651DT     BB231718  36.131  25.389  33.838
35651DT     BB331719  36.225  25.527  33.715
35651DT     SC131720  36.446  25.514  33.856
35651DT     SC231721  36.474  25.700  33.962
35651DT     SC331722  36.698  25.470  33.918
35652DA     BB131723  35.826  25.616  33.595
35652DA     BB231724  35.983  25.938  33.675
35652DA     BB331725  36.102  26.005  33.511
35652DA     SC131726  36.362  25.867  33.611
35652DA     SC231727  36.583  25.935  33.705
35652DA     SC331728  36.663  25.702  33.633
35652DA     SC431729  36.393  25.718  33.558
35653DA     BB131730  35.932  26.298  33.488
35653DA     BB231731  36.240  26.473  33.580
35653DA     BB331732  36.361  26.507  33.408
35653DA     SC131733  36.518  26.240  33.434
35653DA     SC231734  36.750  26.167  33.490
35653DA     SC331735  36.688  25.949  33.371
35653DA     SC431736  36.461  26.113  33.354
35654DC     BB131737  36.409  26.715  33.314
35654DC     BB231738  36.744  26.732  33.448
35654DC     BB331739  36.882  26.722  33.294
35654DC     SC131740  36.841  26.464  33.264
35654DC     SC231741  37.015  26.356  33.329
35654DC     SC331742  36.771  26.236  33.153
35655DA     BB131743  36.974  27.060  33.520
35655DA     BB231744  37.279  26.859  33.490
35655DA     BB331745  37.363  26.879  33.295
35655DA     SC131746  37.206  26.639  33.176
35655DA     SC231747  37.256  26.409  33.093
35655DA     SC331748  37.032  26.426  32.970
35655DA     SC431749  37.065  26.669  33.106
35656DT     BB131750  37.531  26.959  33.301
35656DT     BB231751  37.720  26.657  33.246
35656DT     BB331752  37.783  26.649  33.049
35656DT     SC131753  37.542  26.588  32.965
35656DT     SC231754  37.540  26.384  32.896
35656DT     SC331755  37.311  26.606  32.840
35657DT     BB131756  38.009  26.678  33.172
35657DT     BB231757  38.033  26.367  32.991
35657DT     BB331758  38.074  26.403  32.792
35657DT     SC131759  37.828  26.482  32.747
35657DT     SC231760  37.728  26.337  32.624
35657DT     SC331761  37.624  26.637  32.685
35658DA     BB131762  38.304  26.102  32.978
35658DA     BB231763  38.183  25.979  32.654
35658DA     BB331764  38.273  26.088  32.495
35658DA     SC131765  38.050  26.304  32.483
35658DA     SC231766  37.867  26.372  32.328
35658DA     SC331767  37.873  26.597  32.451
35658DA     SC431768  38.070  26.437  32.571
35659DT     BB131769  38.357  25.969  32.415
35659DT     BB231770  38.158  25.960  32.114
35659DT     BB331771  38.233  26.094  31.976
35659DT     SC131772  38.135  26.298  32.109
35659DT     SC231773  37.974  26.386  31.996
35659DT     SC331774  38.126  26.521  32.249
35660DC     BB131775  38.300  25.875  31.850
35660DC     BB231776  38.112  26.067  31.610
35660DC     BB331777  38.233  26.214  31.527
35660DC     SC131778  38.221  26.359  31.745
35660DC     SC231779  38.105  26.536  31.707
35660DC     SC331780  38.297  26.486  31.964
35661DT     BB131781  38.249  26.076  31.293
35661DT     BB231782  38.142  26.405  31.192
35661DT     BB331783  38.306  26.528  31.165
35661DT     SC131784  38.342  26.550  31.424
35661DT     SC231785  38.295  26.751  31.485
35661DT     SC331786  38.456  26.531  31.661
35662DT     BB131787  38.298  26.524  30.883
35662DT     BB231788  38.298  26.876  30.963
35662DT     BB331789  38.492  26.947  30.972
35662DT     SC131790  38.532  26.831  31.204
35662DT     SC231791  38.549  26.981  31.357
35662DT     SC331792  38.633  26.669  31.386
35663DA     BB131793  38.314  27.208  30.695
35663DA     BB231794  38.492  27.415  30.940
35663DA     BB331795  38.702  27.412  30.901
35663DA     SC131796  38.756  27.168  31.086
35663DA     SC231797  38.869  27.123  31.304
35663DA     SC331798  38.877  26.878  31.226
35663DA     SC431799  38.753  27.021  31.019
35664DG     BB131800  38.681  27.722  30.858
35664DG     BB231801  38.894  27.733  31.151
35664DG     BB331802  39.084  27.712  31.097
35664DG     SC131803  39.082  27.407  31.120
35664DG     SC231804  39.233  27.245  31.321
35664DG     SC331805  39.109  27.071  31.116
35664DG     SC431806  39.039  27.320  30.993
35665DT     BB131807  39.237  27.873  31.131
35665DT     BB231808  39.425  27.739  31.408
35665DT     BB331809  39.607  27.667  31.341
35665DT     SC131810  39.493  27.455  31.235
35665DT     SC231811  39.549  27.281  31.347
35665DT     SC331812  39.412  27.282  31.054
35666DT     BB131813  39.738  27.877  31.456
35666DT     BB231814  39.898  27.586  31.596
35666DT     BB331815  40.051  27.523  31.472
35666DT     SC131816  39.881  27.423  31.300
35666DT     SC231817  39.894  27.208  31.303
35666DT     SC331818  39.747  27.386  31.075
35667DA     BB131819  40.247  27.566  31.843
35667DA     BB231820  40.346  27.241  31.707
35667DA     BB331821  40.489  27.266  31.550
35667DA     SC131822  40.274  27.282  31.325
35667DA     SC231823  40.197  27.142  31.134
35667DA     SC331824  40.096  27.359  31.042
35667DA     SC431825  40.220  27.427  31.284
35668DT     BB131826  40.734  27.213  31.539
35668DT     BB231827  40.703  26.925  31.325
35668DT     BB331828  40.790  26.964  31.141
35668DT     SC131829  40.588  27.117  31.069
35668DT     SC231830  40.477  27.020  30.913
35668DT     SC331831  40.453  27.331  30.998
35669DA     BB131832  41.054  26.629  31.214
35669DA     BB231833  40.908  26.572  30.883
35669DA     BB331834  41.019  26.677  30.734
35669DA     SC131835  40.847  26.935  30.751
35669DA     SC231836  40.681  27.056  30.610
35669DA     SC331837  40.736  27.260  30.756
35669DA     SC431838  40.895  27.050  30.852
35670DA     BB131839  41.108  26.402  30.538
35670DA     BB231840  40.881  26.532  30.281
35670DA     BB331841  40.987  26.657  30.145
35670DA     SC131842  40.934  26.918  30.306
35670DA     SC231843  40.800  27.127  30.281
35670DA     SC331844  40.960  27.226  30.455
35670DA     SC431845  41.044  26.962  30.414
35671DC     BB131846  41.015  26.608  29.925
35671DC     BB231847  40.744  26.822  29.820
35671DC     BB331848  40.818  26.981  29.709
35671DC     SC131849  40.910  27.098  29.925
35671DC     SC231850  40.795  27.276  29.964
35671DC     SC331851  41.081  27.201  30.098
35672DA     BB131852  40.493  26.781  29.537
35672DA     BB231853  40.416  27.139  29.553
35672DA     BB331854  40.537  27.247  29.414
35672DA     SC131855  40.767  27.299  29.617
35672DA     SC231856  40.864  27.493  29.740
35672DA     SC331857  41.073  27.346  29.766
35672DA     SC431858  40.888  27.193  29.621
35673DT     BB131859  40.422  27.315  29.309
35673DT     BB231860  40.449  27.654  29.431
35673DT     BB331861  40.586  27.759  29.317
35673DT     SC131862  40.787  27.636  29.430
35673DT     SC231863  40.895  27.775  29.555
35673DT     SC331864  41.001  27.484  29.459
35674DA     BB131865  40.223  27.965  29.375
35674DA     BB231866  40.501  28.193  29.447
35674DA     BB331867  40.606  28.240  29.267
35674DA     SC131868  40.808  28.004  29.295
35674DA     SC231869  41.050  27.974  29.343
35674DA     SC331870  41.022  27.743  29.235
35674DA     SC431871  40.770  27.866  29.223
35675DG     BB131872  40.519  28.521  29.359
35675DG     BB231873  40.876  28.571  29.383
35675DG     BB331874  40.953  28.601  29.202
35675DG     SC131875  41.005  28.305  29.147
35675DG     SC231876  41.273  28.176  29.120
35675DG     SC331877  41.058  27.987  29.046
35675DG     SC431878  40.889  28.216  29.081
35676DA     BB131879  41.098  28.882  29.342
35676DA     BB231880  41.430  28.753  29.256
35676DA     BB331881  41.465  28.776  29.046
35676DA     SC131882  41.351  28.496  28.972
35676DA     SC231883  41.437  28.277  28.890
35676DA     SC331884  41.195  28.232  28.817
35676DA     SC431885  41.195  28.488  28.933
35677DT     BB131886  41.609  28.900  28.995
35677DT     BB231887  41.850  28.649  28.901
35677DT     BB331888  41.862  28.635  28.695
35677DT     SC131889  41.633  28.508  28.683
35677DT     SC231890  41.667  28.304  28.624
35677DT     SC331891  41.381  28.456  28.624
35678DT     BB131892  42.100  28.743  28.726
35678DT     BB231893  42.158  28.429  28.558
35678DT     BB331894  42.128  28.451  28.355
35678DT     SC131895  41.867  28.457  28.386
35678DT     SC231896  41.781  28.278  28.305
35678DT     SC331897  41.619  28.547  28.385
35679DA     BB131898  42.482  28.250  28.459
35679DA     BB231899  42.309  28.059  28.198
35679DA     BB331900  42.310  28.167  28.014
35679DA     SC131901  42.041  28.313  28.070
35679DA     SC231902  41.807  28.310  27.982
35679DA     SC331903  41.786  28.542  28.088
35679DA     SC431904  42.048  28.457  28.141
35680DA     BB131905  42.404  27.854  27.969
35680DA     BB231906  42.132  27.841  27.724
35680DA     BB331907  42.171  27.976  27.563
35680DA     SC131908  42.023  28.216  27.696
35680DA     SC231909  41.814  28.347  27.660
35680DA     SC331910  41.927  28.527  27.803
35680DA     SC431911  42.111  28.316  27.786
35681DC     BB131912  42.192  27.883  27.414
35681DC     BB231913  41.892  27.986  27.243
35681DC     BB331914  41.933  28.148  27.120
35681DC     SC131915  41.947  28.311  27.325
35681DC     SC231916  41.779  28.445  27.321
35681DC     SC331917  42.046  28.481  27.500
35682DA     BB131918  41.745  27.869  26.865
35682DA     BB231919  41.595  28.197  26.799
35682DA     BB331920  41.730  28.320  26.690
35682DA     SC131921  41.860  28.444  26.945
35682DA     SC231922  41.865  28.665  27.060
35682DA     SC331923  42.077  28.578  27.174
35682DA     SC431924  41.991  28.372  27.004
35683DT     BB131925  41.708  28.386  26.475
35683DT     BB231926  41.627  28.731  26.543
35683DT     BB331927  41.785  28.853  26.488
35683DT     SC131928  41.924  28.780  26.698
35683DT     SC231929  41.941  28.945  26.834
35683DT     SC331930  42.118  28.675  26.842
35684DG     BB131931  41.489  28.999  26.242
35684DG     BB231932  41.642  29.267  26.430
35684DG     BB331933  41.810  29.326  26.341
35684DG     SC131934  41.988  29.128  26.492
35684DG     SC231935  42.199  29.199  26.691
35684DG     SC331936  42.209  28.911  26.624
35684DG     SC431937  42.010  28.981  26.432
35685DA     BB131938  41.697  29.656  26.338
35685DA     BB231939  41.979  29.758  26.548
35685DA     BB331940  42.155  29.781  26.430
35685DA     SC131941  42.249  29.487  26.467
35685DA     SC231942  42.432  29.365  26.585
35685DA     SC331943  42.380  29.173  26.422
35685DA     SC431944  42.202  29.380  26.357
35686DT     BB131945  42.234  29.966  26.412
35686DT     BB231946  42.514  29.914  26.634
35686DT     BB331947  42.688  29.894  26.525
35686DT     SC131948  42.622  29.651  26.449
35686DT     SC231949  42.753  29.509  26.545
35686DT     SC331950  42.557  29.449  26.293
35687DT     BB131951  42.757  30.132  26.620
35687DT     BB231952  43.023  29.911  26.722
35687DT     BB331953  43.160  29.890  26.568
35687DT     SC131954  42.998  29.734  26.434
35687DT     SC231955  43.076  29.534  26.432
35687DT     SC331956  42.840  29.648  26.240
35688DG     BB131957  43.355  30.023  26.901
35688DG     BB231958  43.516  29.731  26.761
35688DG     BB331959  43.619  29.782  26.599
35688DG     SC131960  43.386  29.737  26.406
35688DG     SC231961  43.370  29.526  26.196
35688DG     SC331962  43.147  29.718  26.169
35688DG     SC431963  43.285  29.858  26.376
35689DA     BB131964  43.895  29.622  26.742
35689DA     BB231965  43.919  29.399  26.452
35689DA     BB331966  44.003  29.502  26.285
35689DA     SC131967  43.729  29.598  26.174
35689DA     SC231968  43.583  29.551  25.978
35689DA     SC331969  43.474  29.778  26.030
35689DA     SC431970  43.676  29.742  26.222
35690DG     BB131971  44.246  29.297  26.285
35690DG     BB231972  44.115  29.206  25.960
35690DG     BB331973  44.188  29.327  25.821
35690DG     SC131974  43.963  29.532  25.846
35690DG     SC231975  43.758  29.594  25.638
35690DG     SC331976  43.742  29.787  25.862
35690DG     SC431977  43.977  29.651  25.953
35691DT     BB131978  44.343  29.276  25.626
35691DT     BB231979  44.107  29.284  25.354
35691DT     BB331980  44.142  29.449  25.234
35691DT     SC131981  44.037  29.610  25.413
35691DT     SC231982  43.851  29.688  25.338
35691DT     SC331983  44.016  29.803  25.591
35692DA     BB131984  44.156  29.133  24.958
35692DA     BB231985  43.926  29.384  24.823
35692DA     BB331986  44.035  29.547  24.738
35692DA     SC131987  44.042  29.712  25.001
35692DA     SC231988  43.940  29.922  25.090
35692DA     SC331989  44.132  29.918  25.261
35692DA     SC431990  44.169  29.693  25.098
35693DA     BB131991  43.854  29.476  24.474
35693DA     BB231992  43.706  29.810  24.509
35693DA     BB331993  43.840  29.959  24.433
35693DA     SC131994  43.981  30.006  24.706
35693DA     SC231995  43.995  30.185  24.878
35693DA     SC331996  44.210  30.068  24.954
35693DA     SC431997  44.113  29.919  24.737
35694DC     BB131998  43.780  30.060  24.272
35694DC     BB231999  43.697  30.365  24.445
35694DC     BB332000  43.841  30.508  24.409
35694DC     SC132001  44.011  30.389  24.571
35694DC     SC232002  44.039  30.511  24.746
35694DC     SC332003  44.226  30.262  24.655
35695DA     BB132004  43.458  30.661  24.342
35695DA     BB232005  43.639  30.896  24.557
35695DA     BB332006  43.791  30.996  24.446
35695DA     SC132007  44.011  30.786  24.509
35695DA     SC232008  44.221  30.774  24.644
35695DA     SC332009  44.281  30.574  24.494
35695DA     SC432010  44.031  30.666  24.405
35696DT     BB132011  43.753  31.173  24.440
35696DT     BB232012  44.010  31.281  24.669
35696DT     BB332013  44.175  31.348  24.564
35696DT     SC132014  44.246  31.103  24.503
35696DT     SC232015  44.426  31.052  24.609
35696DT     SC332016  44.300  30.889  24.359
35697DG     BB132017  44.041  31.634  24.821
35697DG     BB232018  44.396  31.575  24.859
35697DG     BB332019  44.495  31.657  24.707
35697DG     SC132020  44.479  31.408  24.530
35697DG     SC232021  44.710  31.238  24.446
35697DG     SC332022  44.464  31.161  24.301
35697DG     SC432023  44.353  31.389  24.433
35698DT     BB132024  44.633  31.808  24.753
35698DT     BB232025  44.950  31.644  24.697
35698DT     BB332026  45.025  31.697  24.511
35698DT     SC132027  44.852  31.541  24.389
35698DT     SC232028  44.955  31.374  24.302
35698DT     SC332029  44.652  31.466  24.234
35699DA     BB132030  45.333  31.772  24.786
35699DA     BB232031  45.478  31.588  24.504
35699DA     BB332032  45.494  31.715  24.333
35699DA     SC132033  45.213  31.641  24.221
35699DA     SC232034  45.119  31.515  24.028
35699DA     SC332035  44.904  31.647  24.073
35699DA     SC432036  45.089  31.734  24.264
35700DC     BB132037  45.682  31.776  24.257
35700DC     BB232038  45.679  31.571  23.960
35700DC     BB332039  45.644  31.688  23.793
35700DC     SC132040  45.390  31.713  23.854
35700DC     SC232041  45.272  31.604  23.711
35700DC     SC332042  45.161  31.824  23.921
35701DA     BB132043  46.001  31.491  23.690
35701DA     BB232044  45.774  31.457  23.405
35701DA     BB332045  45.766  31.639  23.294
35701DA     SC132046  45.526  31.755  23.456
35701DA     SC232047  45.285  31.806  23.417
35701DA     SC332048  45.307  31.961  23.621
35701DA     SC432049  45.560  31.847  23.583
35702DA     BB132050  45.851  31.459  23.028
35702DA     BB232051  45.530  31.554  22.878
35702DA     BB332052  45.542  31.750  22.797
35702DA     SC132053  45.447  31.890  23.058
35702DA     SC232054  45.247  32.014  23.139
35702DA     SC332055  45.402  32.108  23.320
35702DA     SC432056  45.560  31.939  23.161
35703DG     BB132057  45.479  31.623  22.517
35703DG     BB232058  45.174  31.816  22.545
35703DG     BB332059  45.205  32.001  22.479
35703DG     SC132060  45.291  32.110  22.752
35703DG     SC232061  45.141  32.310  22.916
35703DG     SC332062  45.409  32.259  23.031
35703DG     SC432063  45.445  32.102  22.793
35704DG     BB132064  44.967  31.960  22.255
35704DG     BB232065  44.790  32.223  22.429
35704DG     BB332066  44.851  32.401  22.364
35704DG     SC132067  45.077  32.426  22.569
35704DG     SC232068  45.089  32.625  22.791
35704DG     SC332069  45.345  32.478  22.767
35704DG     SC432070  45.221  32.367  22.534
35705DT     BB132071  44.711  32.540  22.263
35705DT     BB232072  44.656  32.784  22.522
35705DT     BB332073  44.761  32.957  22.480
35705DT     SC132074  44.988  32.845  22.548
35705DT     SC232075  45.060  32.933  22.731
35705DT     SC332076  45.233  32.748  22.529
35706DT     BB132077  44.528  33.081  22.424
35706DT     BB232078  44.676  33.282  22.684
35706DT     BB332079  44.805  33.420  22.601
35706DT     SC132080  44.986  33.236  22.554
35706DT     SC232081  45.155  33.266  22.684
35706DT     SC332082  45.149  33.076  22.422
35707DA     BB132083  44.543  33.625  22.856
35707DA     BB232084  44.884  33.732  22.936
35707DA     BB332085  44.960  33.859  22.782
35707DA     SC132086  45.084  33.626  22.617
35707DA     SC232087  45.312  33.542  22.559
35707DA     SC332088  45.195  33.421  22.365
35707DA     SC432089  44.994  33.560  22.502
35708DT     BB132090  44.997  34.052  22.827
35708DT     BB232091  45.357  34.028  22.833
35708DT     BB332092  45.436  34.114  22.662
35708DT     SC132093  45.363  33.908  22.516
35708DT     SC232094  45.537  33.799  22.454
35708DT     SC332095  45.239  33.767  22.331
35709DT     BB132096  45.527  34.328  22.805
35709DT     BB232097  45.822  34.195  22.646
35709DT     BB332098  45.845  34.279  22.458
35709DT     SC132099  45.650  34.132  22.360
35709DT     SC232100  45.731  33.987  22.224
35709DT     SC332101  45.418  34.068  22.252
35710DT     BB132102  46.055  34.421  22.550
35710DT     BB232103  46.187  34.232  22.273
35710DT     BB332104  46.155  34.335  22.096
35710DT     SC132105  45.900  34.274  22.097
35710DT     SC232106  45.859  34.135  21.938
35710DT     SC332107  45.638  34.302  22.105
35711DA     BB132108  46.560  34.225  22.116
35711DA     BB232109  46.432  34.128  21.787
35711DA     BB332110  46.400  34.301  21.666
35711DA     SC132111  46.105  34.340  21.755
35711DA     SC232112  45.877  34.318  21.656
35711DA     SC332113  45.801  34.471  21.847
35711DA     SC432114  46.077  34.437  21.881
35712DA     BB132115  46.590  34.123  21.465
35712DA     BB232116  46.310  34.131  21.228
35712DA     BB332117  46.292  34.324  21.140
35712DA     SC132118  46.096  34.432  21.356
35712DA     SC232119  45.856  34.497  21.372
35712DA     SC332120  45.926  34.628  21.581
35712DA     SC432121  46.160  34.508  21.483
35713DC     BB132122  46.329  34.348  20.939
35713DC     BB232123  45.987  34.391  20.835
35713DC     BB332124  45.951  34.590  20.792
35713DC     SC132125  45.947  34.654  21.046
35713DC     SC232126  45.747  34.706  21.104
35713DC     SC332127  46.015  34.765  21.275
35714DG     BB132128  45.866  34.392  20.444
35714DG     BB232129  45.590  34.604  20.544
35714DG     BB332130  45.628  34.793  20.494
35714DG     SC132131  45.768  34.861  20.758
35714DG     SC232132  45.667  35.051  20.965
35714DG     SC332133  45.943  34.965  21.026
35714DG     SC432134  45.925  34.836  20.771
35715DT     BB132135  45.503  34.918  20.341
35715DT     BB232136  45.317  35.129  20.566
35715DT     BB332137  45.390  35.323  20.558
35715DT     SC132138  45.602  35.255  20.698
35715DT     SC232139  45.592  35.345  20.893
35715DT     SC332140  45.855  35.212  20.760
35716DT     BB132141  45.169  35.413  20.422
35716DT     BB232142  45.178  35.612  20.723
35716DT     BB332143  45.294  35.780  20.692
35716DT     SC132144  45.516  35.640  20.704
35716DT     SC232145  45.622  35.690  20.884
35716DT     SC332146  45.743  35.529  20.630
35717DA     BB132147  44.923  35.884  20.854
35717DA     BB232148  45.186  36.039  21.058
35717DA     BB332149  45.277  36.200  20.951
35717DA     SC132150  45.498  36.022  20.823
35717DA     SC232151  45.745  35.992  20.842
35717DA     SC332152  45.728  35.882  20.610
35717DA     SC432153  45.467  35.959  20.678
35718DA     BB132154  45.190  36.298  21.247
35718DA     BB232155  45.546  36.367  21.297
35718DA     BB332156  45.609  36.528  21.172
35718DA     SC132157  45.689  36.346  20.933
35718DA     SC232158  45.898  36.273  20.819
35718DA     SC332159  45.745  36.214  20.621
35718DA     SC432160  45.578  36.317  20.821
35719DA     BB132161  45.706  36.557  21.485
35719DA     BB232162  46.043  36.573  21.342
35719DA     BB332163  46.064  36.746  21.220
35719DA     SC132164  45.973  36.602  20.959
35719DA     SC232165  46.076  36.527  20.745
35719DA     SC332166  45.836  36.524  20.654
35719DA     SC432167  45.817  36.608  20.921
35720DA     BB132168  46.316  36.703  21.432
35720DA     BB232169  46.525  36.721  21.132
35720DA     BB332170  46.502  36.911  21.037
35720DA     SC132171  46.268  36.818  20.854
35720DA     SC232172  46.230  36.774  20.611
35720DA     SC332173  45.981  36.801  20.667
35720DA     SC432174  46.119  36.840  20.908
35721DG     BB132175  46.807  36.904  21.091
35721DG     BB232176  46.824  36.938  20.731
35721DG     BB332177  46.780  37.125  20.679
35721DG     SC132178  46.480  37.074  20.653
35721DG     SC232179  46.322  37.081  20.399
35721DG     SC332180  46.143  37.058  20.634
35721DG     SC432181  46.386  37.091  20.782
35722DA     BB132182  47.079  37.146  20.492
35722DA     BB232183  46.890  37.233  20.190
35722DA     BB332184  46.826  37.436  20.198
35722DA     SC132185  46.554  37.369  20.334
35722DA     SC232186  46.312  37.371  20.274
35722DA     SC332187  46.270  37.375  20.527
35722DA     SC432188  46.549  37.373  20.495
35723DG     BB132189  46.997  37.523  19.938
35723DG     BB232190  46.674  37.596  19.793
35723DG     BB332191  46.621  37.783  19.837
35723DG     SC132192  46.479  37.708  20.097
35723DG     SC232193  46.185  37.728  20.149
35723DG     SC332194  46.332  37.664  20.398
35723DG     SC432195  46.563  37.703  20.233
35724DA     BB132196  46.566  37.885  19.498
35724DA     BB232197  46.213  37.956  19.566
35724DA     BB332198  46.192  38.150  19.652
35724DA     SC132199  46.217  38.050  19.946
35724DA     SC232200  46.069  38.025  20.145
35724DA     SC332201  46.288  38.019  20.280
35724DA     SC432202  46.363  38.049  20.012
35725DT     BB132203  46.093  38.328  19.552
35725DT     BB232204  45.788  38.315  19.745
35725DT     BB332205  45.778  38.478  19.872
35725DT     SC132206  45.958  38.374  20.033
35725DT     SC232207  45.865  38.318  20.218
35725DT     SC332208  46.183  38.344  20.167
35726DA     BB132209  45.417  38.482  19.660
35726DA     BB232210  45.336  38.508  20.016
35726DA     BB332211  45.376  38.706  20.087
35726DA     SC132212  45.669  38.641  20.172
35726DA     SC232213  45.799  38.617  20.383
35726DA     SC332214  46.006  38.656  20.236
35726DA     SC432215  45.785  38.669  20.064
35727DT     BB132216  45.220  38.816  20.147
35727DT     BB232217  45.282  38.788  20.501
35727DT     BB332218  45.360  38.965  20.574
35727DT     SC132219  45.594  38.914  20.466
35727DT     SC232220  45.737  38.873  20.621
35727DT     SC332221  45.807  38.938  20.312
35728DG     BB132222  45.021  38.883  20.783
35728DG     BB232223  45.302  38.944  21.004
35728DG     BB332224  45.337  39.139  21.016
35728DG     SC132225  45.531  39.144  20.780
35728DG     SC232226  45.824  39.201  20.794
35728DG     SC332227  45.732  39.190  20.513
35728DG     SC432228  45.473  39.167  20.632
35729DA     BB132229  45.325  39.094  21.360
35729DA     BB232230  45.668  39.222  21.389
35729DA     BB332231  45.669  39.434  21.368
35729DA     SC132232  45.711  39.427  21.059
35729DA     SC232233  45.892  39.481  20.896
35729DA     SC332234  45.704  39.491  20.722
35729DA     SC432235  45.580  39.430  20.966
35730DA     BB132236  45.827  39.419  21.656
35730DA     BB232237  46.111  39.581  21.490
35730DA     BB332238  46.072  39.789  21.462
35730DA     SC132239  45.943  39.752  21.181
35730DA     SC232240  45.999  39.805  20.944
35730DA     SC332241  45.748  39.779  20.900
35730DA     SC432242  45.784  39.733  21.174
35731DT     BB132243  46.183  39.932  21.564
35731DT     BB232244  46.381  40.041  21.282
35731DT     BB332245  46.317  40.227  21.219
35731DT     SC132246  46.103  40.125  21.108
35731DT     SC232247  46.119  40.139  20.894
35731DT     SC332248  45.848  40.074  21.060
35732DT     BB132249  46.542  40.344  21.320
35732DT     BB232250  46.543  40.433  20.970
35732DT     BB332251  46.434  40.606  20.941
35732DT     SC132252  46.207  40.478  20.972
35732DT     SC232253  46.104  40.469  20.783
35732DT     SC332254  45.975  40.405  21.074
35733DA     BB132255  46.808  40.656  20.760
35733DA     BB232256  46.551  40.751  20.517
35733DA     BB332257  46.464  40.938  20.570
35733DA     SC132258  46.238  40.811  20.742
35733DA     SC232259  45.990  40.782  20.728
35733DA     SC332260  46.002  40.745  20.982
35733DA     SC432261  46.265  40.792  20.899
35734DT     BB132262  46.497  41.076  20.445
35734DT     BB232263  46.166  41.087  20.302
35734DT     BB332264  46.060  41.247  20.380
35734DT     SC132265  46.025  41.121  20.608
35734DT     SC232266  45.818  41.068  20.630
35734DT     SC332267  46.040  41.066  20.866
35735DA     BB132268  46.036  41.249  19.961
35735DA     BB232269  45.698  41.291  20.097
35735DA     BB332270  45.677  41.484  20.185
35735DA     SC132271  45.766  41.391  20.468
35735DA     SC232272  45.662  41.358  20.693
35735DA     SC332273  45.902  41.371  20.783
35735DA     SC432274  45.922  41.404  20.505
35736DC     BB132275  45.553  41.595  20.096
35736DC     BB232276  45.292  41.584  20.346
35736DC     BB332277  45.298  41.756  20.462
35736DC     SC132278  45.510  41.671  20.590
35736DC     SC232279  45.457  41.624  20.793
35736DC     SC332280  45.758  41.659  20.679
35737DA     BB132281  44.902  41.714  20.325
35737DA     BB232282  44.891  41.782  20.685
35737DA     BB332283  44.941  41.986  20.724
35737DA     SC132284  45.245  41.930  20.757
35737DA     SC232285  45.414  41.930  20.940
35737DA     SC332286  45.588  41.950  20.753
35737DA     SC432287  45.338  41.944  20.626
35738DA     BB132288  44.650  42.000  20.885
35738DA     BB232289  44.840  42.085  21.188
35738DA     BB332290  44.900  42.289  21.183
35738DA     SC132291  45.172  42.231  21.044
35738DA     SC232292  45.414  42.237  21.102
35738DA     SC332293  45.454  42.246  20.849
35738DA     SC432294  45.176  42.238  20.883
35739DA     BB132295  44.747  42.325  21.477
35739DA     BB232296  45.073  42.412  21.620
35739DA     BB332297  45.122  42.615  21.576
35739DA     SC132298  45.270  42.547  21.311
35739DA     SC232299  45.503  42.548  21.225
35739DA     SC332300  45.396  42.551  20.992
35739DA     SC432301  45.184  42.550  21.175
35740DA     BB132302  45.157  42.661  21.904
35740DA     BB232303  45.511  42.735  21.840
35740DA     BB332304  45.533  42.936  21.772
35740DA     SC132305  45.506  42.863  21.471
35740DA     SC232306  45.652  42.856  21.269
35740DA     SC332307  45.433  42.864  21.135
35740DA     SC432308  45.359  42.870  21.406
35741DA     BB132309  45.745  42.965  22.023
35741DA     BB232310  46.007  43.025  21.773
35741DA     BB332311  45.999  43.227  21.705
35741DA     SC132312  45.805  43.166  21.470
35741DA     SC232313  45.814  43.159  21.220
35741DA     SC332314  45.558  43.181  21.231
35741DA     SC432315  45.647  43.182  21.497
35742DG     BB132316  46.285  43.229  21.819
35742DG     BB232317  46.372  43.273  21.471
35742DG     BB332318  46.353  43.464  21.420
35742DG     SC132319  46.060  43.439  21.336
35742DG     SC232320  45.953  43.468  21.059
35742DG     SC332321  45.732  43.452  21.255
35742DG     SC432322  45.945  43.460  21.446
35743DA     BB132323  46.668  43.406  21.300
35743DA     BB232324  46.553  43.498  20.964
35743DA     BB332325  46.522  43.709  20.952
35743DA     SC132326  46.223  43.695  21.038
35743DA     SC232327  45.999  43.730  20.933
35743DA     SC332328  45.914  43.759  21.174
35743DA     SC432329  46.190  43.711  21.194
35744DT     BB132330  46.636  43.777  20.832
35744DT     BB232331  46.397  43.843  20.571
35744DT     BB332332  46.337  44.042  20.578
35744DT     SC132333  46.188  43.997  20.790
35744DT     SC232334  45.981  44.014  20.735
35744DT     SC332335  46.099  44.011  21.037
35745DG     BB132336  46.482  43.946  20.209
35745DG     BB232337  46.158  44.106  20.190
35745DG     BB332338  46.176  44.301  20.226
35745DG     SC132339  46.137  44.274  20.528
35745DG     SC232340  45.905  44.378  20.685
35745DG     SC332341  46.119  44.280  20.865
35745DG     SC432342  46.265  44.248  20.621
35746DT     BB132343  46.122  44.437  20.072
35746DT     BB232344  45.814  44.578  20.198
35746DT     BB332345  45.851  44.763  20.283
35746DT     SC132346  45.960  44.653  20.495
35746DT     SC232347  45.831  44.683  20.664
35746DT     SC332348  46.141  44.587  20.675
35747DT     BB132349  45.735  44.896  20.072
35747DT     BB232350  45.558  45.020  20.360
35747DT     BB332351  45.658  45.183  20.439
35747DT     SC132352  45.844  45.030  20.542
35747DT     SC232353  45.826  45.030  20.756
35747DT     SC332354  46.081  44.923  20.587
35748DA     BB132355  45.268  45.332  20.380
35748DA     BB232356  45.368  45.423  20.721
35748DA     BB332357  45.505  45.587  20.717
35748DA     SC132358  45.758  45.406  20.704
35748DA     SC232359  45.949  45.345  20.852
35748DA     SC332360  46.068  45.274  20.636
35748DA     SC432361  45.816  45.369  20.558
35749DT     BB132362  45.460  45.791  20.793
35749DT     BB232363  45.656  45.765  21.094
35749DT     BB332364  45.824  45.886  21.080
35749DT     SC132365  45.941  45.719  20.916
35749DT     SC232366  46.107  45.626  21.015
35749DT     SC332367  46.050  45.622  20.696
35750DA     BB132368  45.639  46.005  21.438
35750DA     BB232369  45.992  45.938  21.513
35750DA     BB332370  46.114  46.098  21.442
35750DA     SC132371  46.162  45.971  21.162
35750DA     SC232372  46.350  45.868  21.036
35750DA     SC332373  46.211  45.918  20.826
35750DA     SC432374  46.061  46.011  21.044
35751DG     BB132375  46.192  46.124  21.741
35751DG     BB232376  46.516  46.020  21.618
35751DG     BB332377  46.614  46.177  21.546
35751DG     SC132378  46.505  46.148  21.262
35751DG     SC232379  46.664  46.076  21.020
35751DG     SC332380  46.389  46.158  20.946
35751DG     SC432381  46.367  46.221  21.224
35752DA     BB132382  46.857  46.051  21.752
35752DA     BB232383  47.076  46.011  21.461
35752DA     BB332384  47.147  46.201  21.395
35752DA     SC132385  46.911  46.247  21.197
35752DA     SC232386  46.876  46.256  20.950
35752DA     SC332387  46.661  46.384  21.005
35752DA     SC432388  46.782  46.327  21.251
35753DA     BB132389  47.409  46.011  21.428
35753DA     BB232390  47.464  46.072  21.070
35753DA     BB332391  47.522  46.275  21.038
35753DA     SC132392  47.230  46.376  20.998
35753DA     SC232393  47.089  46.462  20.811
35753DA     SC332394  46.941  46.561  20.996
35753DA     SC432395  47.152  46.431  21.127
35754DG     BB132396  47.753  46.110  20.920
35754DG     BB232397  47.644  46.271  20.615
35754DG     BB332398  47.702  46.462  20.614
35754DG     SC132399  47.449  46.565  20.751
35754DG     SC232400  47.242  46.742  20.627
35754DG     SC332401  47.194  46.711  20.917
35754DG     SC432402  47.443  46.570  20.911
35755DA     BB132403  47.820  46.374  20.300
35755DA     BB232404  47.618  46.643  20.154
35755DA     BB332405  47.699  46.833  20.205
35755DA     SC132406  47.531  46.864  20.465
35755DA     SC232407  47.342  47.005  20.547
35755DA     SC332408  47.421  46.938  20.781
35755DA     SC432409  47.596  46.812  20.602
35756DG     BB132410  47.724  46.867  19.895
35756DG     BB232411  47.494  47.140  19.951
35756DG     BB332412  47.593  47.300  20.016
35756DG     SC132413  47.566  47.227  20.312
35756DG     SC232414  47.408  47.376  20.516
35756DG     SC332415  47.572  47.167  20.644
35756DG     SC432416  47.677  47.133  20.379
35757DC     BB132417  47.611  47.501  19.901
35757DC     BB232418  47.390  47.713  20.093
35757DC     BB332419  47.501  47.843  20.210
35757DC     SC132420  47.564  47.651  20.377
35757DC     SC232421  47.464  47.684  20.565
35757DC     SC332422  47.710  47.479  20.514
35758DA     BB132423  47.251  48.107  19.997
35758DA     BB232424  47.228  48.198  20.351
35758DA     BB332425  47.402  48.305  20.412
35758DA     SC132426  47.558  48.050  20.500
35758DA     SC232427  47.636  47.946  20.712
35758DA     SC332428  47.801  47.816  20.564
35758DA     SC432429  47.653  47.980  20.391
35759DA     BB132430  47.197  48.548  20.512
35759DA     BB232431  47.317  48.485  20.854
35759DA     BB332432  47.505  48.581  20.885
35759DA     SC132433  47.673  48.335  20.794
35759DA     SC232434  47.824  48.166  20.899
35759DA     SC332435  47.912  48.129  20.661
35759DA     SC432436  47.715  48.328  20.640
35760DG     BB132437  47.357  48.742  21.108
35760DG     BB232438  47.578  48.553  21.323
35760DG     BB332439  47.754  48.644  21.337
35760DG     SC132440  47.876  48.499  21.097
35760DG     SC232441  48.100  48.302  21.107
35760DG     SC332442  48.034  48.373  20.827
35760DG     SC432443  47.858  48.562  20.951
35761DA     BB132444  47.706  48.617  21.675
35761DA     BB232445  48.009  48.411  21.700
35761DA     BB332446  48.183  48.534  21.690
35761DA     SC132447  48.209  48.513  21.380
35761DA     SC232448  48.362  48.407  21.215
35761DA     SC332449  48.265  48.576  21.048
35761DA     SC432450  48.137  48.627  21.292
35762DT     BB132451  48.274  48.523  21.846
35762DT     BB232452  48.544  48.316  21.724
35762DT     BB332453  48.708  48.433  21.680
35762DT     SC132454  48.595  48.523  21.461
35762DT     SC232455  48.698  48.443  21.289
35762DT     SC332456  48.489  48.691  21.287
35763DT     BB132457  48.810  48.311  21.888
35763DT     BB232458  49.036  48.241  21.616
35763DT     BB332459  49.165  48.400  21.588
35763DT     SC132460  48.975  48.543  21.475
35763DT     SC232461  49.018  48.566  21.266
35763DT     SC332462  48.801  48.737  21.436
35764DG     BB132463  49.377  48.058  21.648
35764DG     BB232464  49.488  48.234  21.352
35764DG     BB332465  49.596  48.393  21.404
35764DG     SC132466  49.356  48.582  21.418
35764DG     SC232467  49.304  48.813  21.236
35764DG     SC332468  49.113  48.812  21.463
35764DG     SC432469  49.275  48.595  21.556
35765DC     BB132470  49.806  48.407  21.347
35765DC     BB232471  49.798  48.661  21.090
35765DC     BB332472  49.863  48.842  21.167
35765DC     SC132473  49.637  48.876  21.296
35765DC     SC232474  49.528  49.038  21.206
35765DC     SC332475  49.467  48.906  21.496
35766DG     BB132476  50.125  48.766  20.862
35766DG     BB232477  49.986  49.098  20.833
35766DG     BB332478  50.080  49.222  20.957
35766DG     SC132479  49.890  49.171  21.192
35766DG     SC232480  49.702  49.370  21.312
35766DG     SC332481  49.715  49.124  21.476
35766DG     SC432482  49.922  49.051  21.293
35767DA     BB132483  50.150  49.445  20.694
35767DA     BB232484  49.961  49.711  20.862
35767DA     BB332485  50.080  49.801  21.016
35767DA     SC132486  49.982  49.607  21.238
35767DA     SC232487  49.840  49.617  21.443
35767DA     SC332488  49.960  49.401  21.513
35767DA     SC432489  50.069  49.474  21.265
35768DT     BB132490  50.151  50.006  21.005
35768DT     BB232491  49.919  50.141  21.246
35768DT     BB332492  50.018  50.190  21.420
35768DT     SC132493  50.039  49.937  21.489
35768DT     SC232494  49.913  49.899  21.659
35768DT     SC332495  50.147  49.705  21.549
35769DA     BB132496  49.802  50.528  21.304
35769DA     BB232497  49.727  50.463  21.657
35769DA     BB332498  49.892  50.519  21.780
35769DA     SC132499  50.026  50.238  21.768
35769DA     SC232500  50.069  50.048  21.924
35769DA     SC332501  50.251  49.979  21.756
35769DA     SC432502  50.135  50.213  21.653
35770DC     BB132503  49.858  50.665  21.900
35770DC     BB232504  49.837  50.467  22.202
35770DC     BB332505  50.012  50.486  22.310
35770DC     SC132506  50.142  50.330  22.143
35770DC     SC232507  50.188  50.144  22.239
35770DC     SC332508  50.317  50.252  21.962
35771DC     BB132509  49.877  50.633  22.492
35771DC     BB232510  50.015  50.359  22.682
35771DC     BB332511  50.207  50.406  22.743
35771DC     SC132512  50.302  50.368  22.501
35771DC     SC232513  50.425  50.191  22.500
35771DC     SC332514  50.416  50.418  22.269
35772DA     BB132515  49.989  50.278  23.076
35772DA     BB232516  50.307  50.096  23.073
35772DA     BB332517  50.467  50.225  23.129
35772DA     SC132518  50.529  50.314  22.837
35772DA     SC232519  50.710  50.282  22.669
35772DA     SC332520  50.614  50.492  22.556
35772DA     SC432521  50.455  50.447  22.783
35773DA     BB132522  50.511  49.979  23.338
35773DA     BB232523  50.841  49.935  23.184
35773DA     BB332524  50.974  50.090  23.247
35773DA     SC132525  50.902  50.280  23.011
35773DA     SC232526  51.013  50.369  22.806
35773DA     SC332527  50.835  50.553  22.815
35773DA     SC432528  50.785  50.387  23.035
35774DA     BB132529  51.144  49.821  23.314
35774DA     BB232530  51.398  49.949  23.083
35774DA     BB332531  51.502  50.114  23.171
35774DA     SC132532  51.308  50.329  23.058
35774DA     SC232533  51.312  50.511  22.888
35774DA     SC332534  51.110  50.606  23.014
35774DA     SC432535  51.184  50.373  23.151
35775DT     BB132536  51.679  50.074  23.197
35775DT     BB232537  51.814  50.282  22.935
35775DT     BB332538  51.883  50.460  23.014
35775DT     SC132539  51.639  50.550  23.046
35775DT     SC232540  51.604  50.711  22.908
35775DT     SC332541  51.420  50.637  23.164
35776DC     BB132542  52.118  50.361  22.954
35776DC     BB232543  52.105  50.681  22.787
35776DC     BB332544  52.152  50.832  22.921
35776DC     SC132545  51.918  50.813  23.037
35776DC     SC232546  51.801  50.988  22.993
35776DC     SC332547  51.735  50.770  23.223
35777DA     BB132548  52.385  50.880  22.574
35777DA     BB232549  52.252  51.209  22.669
35777DA     BB332550  52.347  51.279  22.846
35777DA     SC132551  52.137  51.152  23.037
35777DA     SC232552  51.956  51.230  23.190
35777DA     SC332553  51.978  51.000  23.301
35777DA     SC432554  52.166  51.004  23.093
35778DA     BB132555  52.421  51.555  22.672
35778DA     BB232556  52.246  51.751  22.928
35778DA     BB332557  52.366  51.766  23.104
35778DA     SC132558  52.248  51.510  23.236
35778DA     SC232559  52.101  51.453  23.429
35778DA     SC332560  52.204  51.218  23.411
35778DA     SC432561  52.325  51.371  23.210
35779DG     BB132562  52.417  52.099  23.110
35779DG     BB232563  52.246  52.092  23.428
35779DG     BB332564  52.377  52.067  23.575
35779DG     SC132565  52.362  51.761  23.569
35779DG     SC232566  52.252  51.587  23.785
35779DG     SC332567  52.386  51.425  23.577
35779DG     SC432568  52.461  51.681  23.472
35780DA     BB132569  52.362  52.370  23.831
35780DA     BB232570  52.257  52.153  24.108
35780DA     BB332571  52.427  52.086  24.217
35780DA     SC132572  52.466  51.828  24.047
35780DA     SC232573  52.440  51.582  24.076
35780DA     SC332574  52.596  51.562  23.873
35780DA     SC432575  52.565  51.837  23.921
35781DG     BB132576  52.427  52.222  24.560
35781DG     BB232577  52.368  51.881  24.664
35781DG     BB332578  52.535  51.803  24.739
35781DG     SC132579  52.634  51.696  24.470
35781DG     SC232580  52.663  51.408  24.395
35781DG     SC332581  52.783  51.583  24.189
35781DG     SC432582  52.723  51.791  24.377
35782DT     BB132583  52.614  51.709  24.997
35782DT     BB232584  52.568  51.357  24.934
35782DT     BB332585  52.749  51.258  24.952
35782DT     SC132586  52.831  51.352  24.721
35782DT     SC232587  52.841  51.191  24.578
35782DT     SC332588  52.975  51.485  24.545
35783DA     BB132589  52.477  51.059  25.196
35783DA     BB232590  52.630  50.810  24.976
35783DA     BB332591  52.827  50.763  25.042
35783DA     SC132592  52.964  50.982  24.869
35783DA     SC232593  53.112  50.994  24.669
35783DA     SC332594  53.170  51.230  24.751
35783DA     SC432595  52.988  51.126  24.937
35784DA     BB132596  52.681  50.475  25.013
35784DA     BB232597  52.939  50.395  24.765
35784DA     BB332598  53.126  50.361  24.860
35784DA     SC132599  53.217  50.658  24.841
35784DA     SC232600  53.387  50.791  24.717
35784DA     SC332601  53.355  50.967  24.901
35784DA     SC432602  53.184  50.754  24.966
35785DA     BB132603  53.089  50.095  24.675
35785DA     BB232604  53.404  50.190  24.512
35785DA     BB332605  53.568  50.155  24.643
35785DA     SC132606  53.561  50.440  24.768
35785DA     SC232607  53.701  50.647  24.766
35785DA     SC332608  53.577  50.709  24.982
35785DA     SC432609  53.474  50.460  24.902
35786DT     BB132610  53.703  50.010  24.595
35786DT     BB232611  53.977  50.227  24.504
35786DT     BB332612  54.120  50.227  24.653
35786DT     SC132613  53.970  50.378  24.807
35786DT     SC232614  54.058  50.573  24.824
35786DT     SC332615  53.823  50.454  25.013
35787DT     BB132616  54.310  50.063  24.518
35787DT     BB232617  54.501  50.357  24.604
35787DT     BB332618  54.594  50.329  24.786
35787DT     SC132619  54.368  50.362  24.915
35787DT     SC232620  54.374  50.548  25.024
35787DT     SC332621  54.160  50.309  25.068
35788DT     BB132622  54.869  50.280  24.695
35788DT     BB232623  54.906  50.557  24.924
35788DT     BB332624  54.955  50.487  25.112
35788DT     SC132625  54.710  50.404  25.154
35788DT     SC232626  54.618  50.527  25.305
35788DT     SC332627  54.507  50.242  25.199
35789DA     BB132628  55.271  50.754  25.040
35789DA     BB232629  55.130  50.842  25.367
35789DA     BB332630  55.204  50.709  25.517
35789DA     SC132631  54.971  50.505  25.485
35789DA     SC232632  54.774  50.427  25.617
35789DA     SC332633  54.781  50.219  25.467
35789DA     SC432634  54.993  50.382  25.383
35790DC     BB132635  55.326  50.783  25.668
35790DC     BB232636  55.069  50.787  25.921
35790DC     BB332637  55.105  50.639  26.061
35790DC     SC132638  55.026  50.452  25.894
35790DC     SC232639  54.840  50.369  25.964
35790DC     SC332640  55.033  50.240  25.738
35791DT     BB132641  55.151  50.846  26.213
35791DT     BB232642  54.877  50.669  26.368
35791DT     BB332643  54.950  50.511  26.480
35791DT     SC132644  55.001  50.371  26.264
35791DT     SC232645  54.865  50.204  26.253
35791DT     SC332646  55.136  50.240  26.079
35792DT     BB132647  54.858  50.664  26.666
35792DT     BB232648  54.682  50.351  26.699
35792DT     BB332649  54.802  50.212  26.794
35792DT     SC132650  54.948  50.179  26.578
35792DT     SC232651  54.912  49.983  26.497
35792DT     SC332652  55.157  50.180  26.417
35793DG     BB132653  54.440  50.260  26.976
35793DG     BB232654  54.513  49.913  26.906
35793DG     BB332655  54.653  49.846  27.031
35793DG     SC132656  54.887  49.924  26.851
35793DG     SC232657  55.075  49.735  26.715
35793DG     SC332658  55.168  50.015  26.688
35793DG     SC432659  54.950  50.071  26.864
35794DA     BB132660  54.421  49.594  27.072
35794DA     BB232661  54.675  49.350  26.970
35794DA     BB332662  54.823  49.328  27.122
35794DA     SC132663  55.008  49.551  27.010
35794DA     SC232664  55.231  49.567  26.899
35794DA     SC332665  55.228  49.813  26.974
35794DA     SC432666  54.988  49.700  27.067
35795DG     BB132667  54.720  49.038  27.103
35795DG     BB232668  55.061  48.976  26.997
35795DG     BB332669  55.181  48.971  27.156
35795DG     SC132670  55.241  49.271  27.150
35795DG     SC232671  55.506  49.396  27.089
35795DG     SC332672  55.314  49.599  27.185
35795DG     SC432673  55.145  49.371  27.229
35796DC     BB132674  55.282  48.793  27.190
35796DC     BB232675  55.619  48.878  27.094
35796DC     BB332676  55.732  48.920  27.262
35796DC     SC132677  55.616  49.153  27.291
35796DC     SC232678  55.757  49.310  27.248
35796DC     SC332679  55.472  49.347  27.397
35797DT     BB132680  55.850  48.696  27.198
35797DT     BB232681  56.113  48.944  27.208
35797DT     BB332682  56.171  48.977  27.403
35797DT     SC132683  55.954  49.115  27.453
35797DT     SC232684  56.005  49.322  27.480
35797DT     SC332685  55.723  49.185  27.561
35798DA     BB132686  56.502  48.914  27.150
35798DA     BB232687  56.571  49.205  27.363
35798DA     BB332688  56.597  49.144  27.566
35798DA     SC132689  56.296  49.177  27.639
35798DA     SC232690  56.156  49.328  27.779
35798DA     SC332691  55.982  49.140  27.772
35798DA     SC432692  56.202  49.047  27.625
35799DC     BB132693  56.769  49.173  27.628
35799DC     BB232694  56.699  49.440  27.860
35799DC     BB332695  56.680  49.365  28.051
35799DC     SC132696  56.443  49.265  27.997
35799DC     SC232697  56.293  49.375  28.105
35799DC     SC332698  56.251  49.088  27.960
35800DT     BB132699  56.924  49.464  28.127
35800DT     BB232700  56.700  49.585  28.383
35800DT     BB332701  56.680  49.443  28.532
35800DT     SC132702  56.526  49.295  28.380
35800DT     SC232703  56.325  49.298  28.457
35800DT     SC332704  56.441  49.089  28.238
35801DT     BB132705  56.858  49.548  28.748
35801DT     BB232706  56.550  49.490  28.927
35801DT     BB332707  56.555  49.304  29.017
35801DT     SC132708  56.517  49.183  28.787
35801DT     SC232709  56.320  49.095  28.784
35801DT     SC332710  56.561  49.030  28.577
35802DA     BB132711  56.493  49.515  29.384
35802DA     BB232712  56.248  49.243  29.384
35802DA     BB332713  56.338  49.062  29.450
35802DA     SC132714  56.421  48.971  29.164
35802DA     SC232715  56.356  48.794  29.001
35802DA     SC332716  56.585  48.838  28.894
35802DA     SC432717  56.567  49.012  29.113
35803DT     BB132718  56.308  48.923  29.665
35803DT     BB232719  56.110  48.664  29.510
35803DT     BB332720  56.212  48.484  29.516
35803DT     SC132721  56.374  48.561  29.325
35803DT     SC232722  56.333  48.448  29.147
35803DT     SC332723  56.597  48.628  29.200
35804DG     BB132724  55.882  48.379  29.741
35804DG     BB232725  55.925  48.149  29.465
35804DG     BB332726  56.053  48.006  29.516
35804DG     SC132727  56.301  48.158  29.418
35804DG     SC232728  56.474  48.081  29.188
35804DG     SC332729  56.594  48.304  29.340
35804DG     SC432730  56.376  48.257  29.519
35805DA     BB132731  55.821  47.761  29.427
35805DA     BB232732  56.045  47.639  29.164
35805DA     BB332733  56.191  47.508  29.246
35805DA     SC132734  56.398  47.734  29.301
35805DA     SC232735  56.619  47.807  29.212
35805DA     SC332736  56.645  47.932  29.434
35805DA     SC432737  56.396  47.804  29.446
35806DT     BB132738  56.191  47.306  29.193
35806DT     BB232739  56.471  47.327  28.967
35806DT     BB332740  56.636  47.235  29.050
35806DT     SC132741  56.675  47.435  29.215
35806DT     SC232742  56.854  47.540  29.160
35806DT     SC332743  56.696  47.570  29.441
35807DT     BB132744  56.603  47.046  28.865
35807DT     BB232745  56.934  47.177  28.808
35807DT     BB332746  57.070  47.081  28.931
35807DT     SC132747  56.985  47.214  29.141
35807DT     SC232748  57.138  47.353  29.203
35807DT     SC332749  56.879  47.264  29.377
35808DA     BB132750  57.195  47.094  28.532
35808DA     BB232751  57.470  47.211  28.745
35808DA     BB332752  57.552  47.049  28.856
35808DA     SC132753  57.362  47.088  29.100
35808DA     SC232754  57.380  47.164  29.337
35808DA     SC332755  57.157  47.041  29.371
35808DA     SC432756  57.225  47.005  29.101
35809DC     BB132757  57.718  47.029  28.804
35809DC     BB232758  57.875  47.159  29.102
35809DC     BB332759  57.929  47.003  29.227
35809DC     SC132760  57.679  46.966  29.300
35809DC     SC232761  57.655  47.026  29.505
35809DC     SC332762  57.445  46.849  29.332
35810DA     BB132763  58.232  47.290  29.168
35810DA     BB232764  58.206  47.215  29.526
35810DA     BB332765  58.270  47.015  29.565
35810DA     SC132766  57.985  46.893  29.532
35810DA     SC232767  57.811  46.789  29.676
35810DA     SC332768  57.719  46.690  29.459
35810DA     SC432769  57.944  46.840  29.386
35811DA     BB132770  58.432  47.208  29.777
35811DA     BB232771  58.284  46.999  30.039
35811DA     BB332772  58.363  46.801  30.029
35811DA     SC132773  58.142  46.696  29.837
35811DA     SC232774  57.947  46.540  29.846
35811DA     SC332775  57.967  46.532  29.591
35811DA     SC432776  58.171  46.703  29.679
35812DT     BB132777  58.466  46.752  30.178
35812DT     BB232778  58.237  46.515  30.324
35812DT     BB332779  58.292  46.322  30.272
35812DT     SC132780  58.202  46.354  30.027
35812DT     SC232781  58.027  46.232  29.999
35812DT     SC332782  58.200  46.373  29.764
35813DT     BB132783  58.387  46.269  30.524
35813DT     BB232784  58.152  46.002  30.461
35813DT     BB332785  58.247  45.846  30.364
35813DT     SC132786  58.252  45.979  30.138
35813DT     SC232787  58.117  45.887  29.998
35813DT     SC332788  58.346  46.105  29.926
35814DT     BB132789  58.257  45.678  30.588
35814DT     BB232790  58.090  45.478  30.337
35814DT     BB332791  58.230  45.371  30.228
35814DT     SC132792  58.304  45.586  30.097
35814DT     SC232793  58.241  45.570  29.892
35814DT     SC332794  58.456  45.783  30.009
35815DT     BB132795  58.175  45.121  30.346
35815DT     BB232796  58.127  45.062  29.994
35815DT     BB332797  58.305  45.000  29.908
35815DT     SC132798  58.404  45.242  29.917
35815DT     SC232799  58.421  45.321  29.718
35815DT     SC332800  58.562  45.444  29.982
35816DT     BB132801  58.225  44.733  29.879
35816DT     BB232802  58.309  44.836  29.544
35816DT     BB332803  58.509  44.798  29.506
35816DT     SC132804  58.584  45.001  29.655
35816DT     SC232805  58.667  45.154  29.529
35816DT     SC332806  58.696  45.136  29.851
35817DA     BB132807  58.290  44.624  29.194
35817DA     BB232808  58.554  44.831  29.046
35817DA     BB332809  58.743  44.736  29.068
35817DA     SC132810  58.807  44.871  29.340
35817DA     SC232811  58.965  45.043  29.428
35817DA     SC332812  58.916  44.940  29.658
35817DA     SC432813  58.765  44.793  29.474
35818DA     BB132814  58.738  44.791  28.746
35818DA     BB232815  59.033  45.002  28.800
35818DA     BB332816  59.205  44.882  28.836
35818DA     SC132817  59.167  44.876  29.145
35818DA     SC232818  59.280  44.970  29.346
35818DA     SC332819  59.157  44.786  29.476
35818DA     SC432820  59.083  44.754  29.207
35819DT     BB132821  59.337  44.897  28.702
35819DT     BB232822  59.569  45.097  28.893
35819DT     BB332823  59.722  44.977  28.966
35819DT     SC132824  59.564  44.873  29.148
35819DT     SC232825  59.625  44.942  29.343
35819DT     SC332826  59.424  44.695  29.283
35820DT     BB132827  59.877  45.103  28.792
35820DT     BB232828  60.030  45.160  29.114
35820DT     BB332829  60.148  44.998  29.166
35820DT     SC132830  59.937  44.852  29.222
35820DT     SC232831  59.927  44.820  29.435
35820DT     SC332832  59.759  44.658  29.210
35821DT     BB132833  60.362  45.153  29.123
35821DT     BB232834  60.398  45.039  29.464
35821DT     BB332835  60.490  44.853  29.466
35821DT     SC132836  60.271  44.735  29.384
35821DT     SC232837  60.190  44.615  29.543
35821DT     SC332838  60.106  44.598  29.231
35822DT     BB132839  60.710  44.972  29.565
35822DT     BB232840  60.630  44.715  29.805
35822DT     BB332841  60.712  44.534  29.745
35822DT     SC132842  60.530  44.504  29.559
35822DT     SC232843  60.399  44.342  29.613
35822DT     SC332844  60.420  44.480  29.320
35823DT     BB132845  60.906  44.547  29.940
35823DT     BB232846  60.745  44.229  29.996
35823DT     BB332847  60.835  44.082  29.880
35823DT     SC132848  60.719  44.173  29.663
35823DT     SC232849  60.572  44.031  29.596
35823DT     SC332850  60.690  44.278  29.422
35824DC     BB132851  60.972  43.960  30.093
35824DC     BB232852  60.783  43.689  29.947
35824DC     BB332853  60.896  43.596  29.800
35824DC     SC132854  60.858  43.796  29.634
35824DC     SC232855  60.730  43.731  29.473
35824DC     SC332856  60.910  44.001  29.476
35825DG     BB132857  60.837  43.283  30.061
35825DG     BB232858  60.735  43.191  29.726
35825DG     BB332859  60.894  43.133  29.620
35825DG     SC132860  60.957  43.414  29.516
35825DG     SC232861  60.936  43.505  29.232
35825DG     SC332862  61.067  43.711  29.400
35825DG     SC432863  61.052  43.509  29.602
35826DT     BB132864  60.940  42.909  29.526
35826DT     BB232865  60.858  42.972  29.180
35826DT     BB332866  61.030  42.970  29.065
35826DT     SC132867  61.102  43.206  29.156
35826DT     SC232868  61.087  43.351  28.998
35826DT     SC332869  61.244  43.391  29.278
35827DT     BB132870  60.965  42.727  28.949
35827DT     BB232871  60.990  42.957  28.672
35827DT     BB332872  61.184  42.961  28.601
35827DT     SC132873  61.265  43.103  28.807
35827DT     SC232874  61.315  43.301  28.742
35827DT     SC332875  61.395  43.169  29.027
35828DA     BB132876  60.907  42.906  28.293
35828DA     BB232877  61.128  43.184  28.203
35828DA     BB332878  61.323  43.111  28.154
35828DA     SC132879  61.432  43.135  28.444
35828DA     SC232880  61.595  43.276  28.569
35828DA     SC332881  61.596  43.086  28.742
35828DA     SC432882  61.420  43.006  28.539
35829DT     BB132883  61.343  43.156  27.991
35829DT     BB232884  61.577  43.424  28.048
35829DT     BB332885  61.771  43.353  28.029
35829DT     SC132886  61.757  43.233  28.262
35829DT     SC232887  61.886  43.333  28.402
35829DT     SC332888  61.755  43.039  28.441
35830DT     BB132889  61.743  43.516  27.834
35830DT     BB232890  62.024  43.636  28.027
35830DT     BB332891  62.189  43.516  27.993
35830DT     SC132892  62.090  43.323  28.141
35830DT     SC232893  62.205  43.305  28.321
35830DT     SC332894  61.992  43.088  28.209
35831DG     BB132895  62.260  43.913  27.931
35831DG     BB232896  62.510  43.761  28.143
35831DG     BB332897  62.628  43.643  28.034
35831DG     SC132898  62.454  43.394  28.073
35831DG     SC232899  62.531  43.149  28.225
35831DG     SC332900  62.278  43.107  28.078
35831DG     SC432901  62.335  43.365  27.970
35832DT     BB132902  62.821  43.696  28.035
35832DT     BB232903  62.979  43.436  28.228
35832DT     BB332904  63.054  43.290  28.102
35832DT     SC132905  62.813  43.196  28.055
35832DT     SC232906  62.793  43.002  28.147
35832DT     SC332907  62.594  43.129  27.925
35833DT     BB132908  63.304  43.375  28.154
35833DT     BB232909  63.315  43.022  28.227
35833DT     BB332910  63.351  42.915  28.054
35833DT     SC132911  63.106  42.954  27.969
35833DT     SC232912  62.999  42.767  27.974
35833DT     SC332913  62.905  43.036  27.819
35834DA     BB132914  63.661  42.774  28.304
35834DA     BB232915  63.509  42.480  28.148
35834DA     BB332916  63.572  42.462  27.945
35834DA     SC132917  63.336  42.630  27.831
35834DA     SC232918  63.132  42.591  27.694
35834DA     SC332919  63.140  42.844  27.647
35834DA     SC432920  63.359  42.788  27.813
35835DT     BB132921  63.720  42.299  27.841
35835DT     BB232922  63.463  42.117  27.664
35835DT     BB332923  63.484  42.146  27.460
35835DT     SC132924  63.388  42.389  27.476
35835DT     SC232925  63.194  42.396  27.383
35835DT     SC332926  63.375  42.652  27.463
35836DG     BB132927  63.555  41.733  27.446
35836DG     BB232928  63.293  41.820  27.214
35836DG     BB332929  63.372  41.873  27.039
35836DG     SC132930  63.396  42.170  27.112
35836DG     SC232931  63.243  42.394  26.987
35836DG     SC332932  63.455  42.497  27.165
35836DG     SC432933  63.529  42.221  27.184
35837DT     BB132934  63.365  41.764  26.781
35837DT     BB232935  63.118  41.986  26.641
35837DT     BB332936  63.202  42.101  26.491
35837DT     SC132937  63.328  42.250  26.666
35837DT     SC232938  63.242  42.447  26.667
35837DT     SC332939  63.526  42.364  26.798
35838DA     BB132940  62.877  41.921  26.297
35838DA     BB232941  62.843  42.284  26.259
35838DA     BB332942  62.970  42.355  26.103
35838DA     SC132943  63.211  42.409  26.292
35838DA     SC232944  63.334  42.607  26.382
35838DA     SC332945  63.525  42.442  26.427
35838DA     SC432946  63.319  42.292  26.310
35839DT     BB132947  62.874  42.432  25.954
35839DT     BB232948  62.928  42.771  26.064
35839DT     BB332949  63.069  42.863  25.943
35839DT     SC132950  63.265  42.729  26.055
35839DT     SC232951  63.386  42.864  26.172
35839DT     SC332952  63.467  42.563  26.084
35840DT     BB132953  62.841  42.970  25.939
35840DT     BB232954  63.070  43.206  26.088
35840DT     BB332955  63.201  43.278  25.945
35840DT     SC132956  63.336  43.053  25.944
35840DT     SC232957  63.530  43.086  26.031
35840DT     SC332958  63.440  42.827  25.857
35841DA     BB132959  63.020  43.496  26.280
35841DA     BB232960  63.377  43.576  26.251
35841DA     BB332961  63.418  43.660  26.060
35841DA     SC132962  63.481  43.386  25.926
35841DA     SC232963  63.680  43.266  25.835
35841DA     SC332964  63.510  43.124  25.706
35841DA     SC432965  63.360  43.310  25.853
35842DG     BB132966  63.517  43.810  26.320
35842DG     BB232967  63.831  43.770  26.144
35842DG     BB332968  63.824  43.867  25.971
35842DG     SC132969  63.713  43.630  25.813
35842DG     SC232970  63.857  43.480  25.598
35842DG     SC332971  63.573  43.397  25.614
35842DG     SC432972  63.555  43.609  25.805
35843DC     BB132973  63.960  44.012  25.956
35843DC     BB232974  64.185  43.892  25.700
35843DC     BB332975  64.128  43.967  25.516
35843DC     SC132976  63.925  43.802  25.502
35843DC     SC232977  63.962  43.655  25.349
35843DC     SC332978  63.677  43.714  25.490
35844DG     BB132979  64.508  44.122  25.550
35844DG     BB232980  64.464  43.967  25.226
35844DG     BB332981  64.370  44.092  25.103
35844DG     SC132982  64.090  43.995  25.180
35844DG     SC232983  63.900  43.849  25.001
35844DG     SC332984  63.768  43.926  25.254
35844DG     SC432985  64.015  44.063  25.303
35845DA     BB132986  64.614  44.098  24.835
35845DA     BB232987  64.371  43.964  24.596
35845DA     BB332988  64.252  44.121  24.514
35845DA     SC132989  64.031  44.101  24.731
35845DA     SC232990  63.793  44.028  24.746
35845DA     SC332991  63.784  44.170  24.960
35845DA     SC432992  64.045  44.195  24.861
35846DC     BB132993  64.250  44.209  24.286
35846DC     BB232994  63.940  44.049  24.191
35846DC     BB332995  63.795  44.192  24.156
35846DC     SC132996  63.765  44.237  24.413
35846DC     SC232997  63.573  44.164  24.477
35846DC     SC332998  63.766  44.364  24.644
35847DA     BB132999  63.804  43.953  23.814
35847DA     BB233000  63.456  43.970  23.928
35847DA     BB333001  63.370  44.157  23.876
35847DA     SC133002  63.451  44.297  24.142
35847DA     SC233003  63.338  44.384  24.347
35847DA     SC333004  63.552  44.522  24.381
35847DA     SC433005  63.591  44.375  24.145
35848DA     BB133006  63.171  43.929  23.770
35848DA     BB233007  62.923  44.075  23.997
35848DA     BB333008  62.857  44.264  23.923
35848DA     SC133009  63.074  44.428  24.073
35848DA     SC233010  63.085  44.589  24.263
35848DA     SC333011  63.311  44.659  24.164
35848DA     SC433012  63.211  44.458  23.995
35849DA     BB133013  62.620  44.060  24.021
35849DA     BB233014  62.521  44.336  24.241
35849DA     BB333015  62.462  44.506  24.126
35849DA     SC133016  62.747  44.630  24.118
35849DA     SC233017  62.865  44.827  24.214
35849DA     SC333018  63.036  44.792  24.026
35849DA     SC433019  62.841  44.592  23.993
35850DT     BB133020  62.322  44.505  24.192
35850DT     BB233021  62.344  44.820  24.366
35850DT     BB333022  62.312  44.976  24.234
35850DT     SC133023  62.551  44.946  24.129
35850DT     SC233024  62.674  45.114  24.183
35850DT     SC333025  62.739  44.897  23.951
35851DC     BB133026  62.100  44.990  24.379
35851DC     BB233027  62.240  45.323  24.374
35851DC     BB333028  62.201  45.413  24.192
35851DC     SC133029  62.384  45.267  24.073
35851DC     SC233030  62.550  45.393  24.017
35851DC     SC333031  62.494  45.092  23.910
35852DC     BB133032  62.008  45.574  24.299
35852DC     BB233033  62.223  45.804  24.122
35852DC     BB333034  62.165  45.815  23.923
35852DC     SC133035  62.270  45.580  23.871
35852DC     SC233036  62.443  45.605  23.746
35852DC     SC333037  62.288  45.326  23.803
35853DT     BB133038  62.027  46.069  23.926
35853DT     BB233039  62.264  46.109  23.657
35853DT     BB333040  62.177  46.054  23.477
35853DT     SC133041  62.194  45.799  23.538
35853DT     SC233042  62.340  45.705  23.411
35853DT     SC333043  62.121  45.552  23.594
35854DT     BB133044  62.133  46.316  23.368
35854DT     BB233045  62.329  46.150  23.114
35854DT     BB333046  62.204  46.060  22.975
35854DT     SC133047  62.142  45.868  23.143
35854DT     SC233048  62.229  45.683  23.074
35854DT     SC333049  61.999  45.713  23.301
35855DT     BB133050  62.256  46.247  22.776
35855DT     BB233051  62.349  45.932  22.628
35855DT     BB333052  62.185  45.848  22.533
35855DT     SC133053  62.077  45.780  22.762
35855DT     SC233054  62.081  45.565  22.782
35855DT     SC333055  61.905  45.770  22.962
35856DT     BB133056  62.303  45.902  22.297
35856DT     BB233057  62.252  45.545  22.296
35856DT     BB333058  62.061  45.501  22.229
35856DT     SC133059  61.955  45.577  22.457
35856DT     SC233060  61.879  45.406  22.562
35856DT     SC333061  61.812  45.715  22.630
35857DT     BB133062  62.178  45.407  22.011
35857DT     BB233063  61.987  45.130  22.141
35857DT     BB333064  61.790  45.145  22.080
35857DT     SC133065  61.743  45.339  22.251
35857DT     SC233066  61.612  45.267  22.406
35857DT     SC333067  61.682  45.577  22.344
35858DA     BB133068  61.924  44.757  21.985
35858DA     BB233069  61.601  44.727  22.155
35858DA     BB333070  61.443  44.794  22.027
35858DA     SC133071  61.454  45.088  22.125
35858DA     SC233072  61.312  45.243  22.259
35858DA     SC333073  61.446  45.431  22.147
35858DA     SC433074  61.548  45.191  22.044
35859DT     BB133075  61.298  44.660  21.950
35859DT     BB233076  61.024  44.768  22.158
35859DT     BB333077  60.890  44.879  22.046
35859DT     SC133078  61.052  45.086  22.044
35859DT     SC233079  60.968  45.243  22.164
35859DT     SC333080  61.212  45.275  21.953
35860DT     BB133081  60.686  44.681  22.022
35860DT     BB233082  60.516  44.962  22.171
35860DT     BB333083  60.435  45.082  22.023
35860DT     SC133084  60.670  45.178  21.960
35860DT     SC233085  60.681  45.385  22.018
35860DT     SC333086  60.887  45.232  21.819
35861DG     BB133087  60.085  44.975  22.215
35861DG     BB233088  60.109  45.335  22.190
35861DG     BB333089  60.038  45.396  22.015
35861DG     SC133090  60.306  45.375  21.870
35861DG     SC233091  60.465  45.603  21.761
35861DG     SC333092  60.579  45.345  21.675
35861DG     SC433093  60.347  45.236  21.802
35862DT     BB133094  59.848  45.537  21.987
35862DT     BB233095  60.012  45.850  21.913
35862DT     BB333096  59.984  45.899  21.714
35862DT     SC133097  60.157  45.719  21.637
35862DT     SC233098  60.333  45.816  21.560
35862DT     SC333099  60.256  45.504  21.520
35863DT     BB133100  59.818  46.098  21.794
35863DT     BB233101  60.076  46.265  21.605
35863DT     BB333102  60.027  46.266  21.404
35863DT     SC133103  60.087  46.012  21.380
35863DT     SC233104  60.265  45.992  21.261
35863DT     SC333105  60.059  45.753  21.336
35864DA     BB133106  60.133  46.651  21.531
35864DA     BB233107  60.315  46.579  21.221
35864DA     BB333108  60.181  46.579  21.055
35864DA     SC133109  60.117  46.276  21.074
35864DA     SC233110  60.163  46.068  20.943
35864DA     SC333111  59.964  45.968  21.069
35864DA     SC433112  59.990  46.232  21.162
35865DT     BB133113  60.204  46.724  20.918
35865DT     BB233114  60.340  46.519  20.654
35865DT     BB333115  60.195  46.484  20.510
35865DT     SC133116  60.073  46.311  20.666
35865DT     SC233117  60.097  46.113  20.585
35865DT     SC333118  59.885  46.200  20.814
35866DT     BB133119  60.306  46.661  20.323
35866DT     BB233120  60.281  46.350  20.141
35866DT     BB333121  60.097  46.338  20.047
35866DT     SC133122  59.975  46.288  20.273
35866DT     SC233123  59.905  46.084  20.273
35866DT     SC333124  59.813  46.316  20.480
35867DG     BB133125  60.340  46.327  19.712
35867DG     BB233126  60.106  46.052  19.705
35867DG     BB333127  59.933  46.111  19.627
35867DG     SC133128  59.813  46.197  19.895
35867DG     SC233129  59.582  46.068  20.033
35867DG     SC333130  59.659  46.319  20.169
35867DG     SC433131  59.838  46.346  19.948
35868DT     BB133132  59.809  46.044  19.402
35868DT     BB233133  59.558  45.825  19.541
35868DT     BB333134  59.370  45.909  19.517
35868DT     SC133135  59.414  46.082  19.709
35868DT     SC233136  59.291  46.035  19.878
35868DT     SC333137  59.449  46.313  19.831
35869DA     BB133138  59.335  45.530  19.344
35869DA     BB233139  59.065  45.564  19.590
35869DA     BB333140  58.906  45.683  19.510
35869DA     SC133141  59.021  45.952  19.616
35869DA     SC233142  58.963  46.122  19.789
35869DA     SC333143  59.113  46.280  19.654
35869DA     SC433144  59.117  46.035  19.518
35870DC     BB133145  58.745  45.585  19.493
35870DC     BB233146  58.586  45.726  19.784
35870DC     BB333147  58.445  45.866  19.727
35870DC     SC133148  58.631  46.041  19.667
35870DC     SC233149  58.626  46.202  19.809
35870DC     SC333150  58.781  46.204  19.525
35871DT     BB133151  58.317  45.675  19.839
35871DT     BB233152  58.252  45.971  20.034
35871DT     BB333153  58.120  46.095  19.933
35871DT     SC133154  58.308  46.171  19.765
35871DT     SC233155  58.357  46.377  19.802
35871DT     SC333156  58.440  46.206  19.540
35872DC     BB133157  58.002  46.016  20.144
35872DC     BB233158  58.007  46.377  20.156
35872DC     BB333159  57.874  46.454  20.017
35872DC     SC133160  58.035  46.396  19.819
35872DC     SC233161  58.114  46.578  19.735
35872DC     SC333162  58.127  46.285  19.598
35873DA     BB133163  57.842  46.631  20.401
35873DA     BB233164  57.842  46.895  20.146
35873DA     BB333165  57.665  46.883  20.027
35873DA     SC133166  57.790  46.694  19.815
35873DA     SC233167  57.862  46.707  19.576
35873DA     SC333168  57.845  46.451  19.579
35873DA     SC433169  57.772  46.536  19.836
35874DT     BB133170  57.548  47.031  20.046
35874DT     BB233171  57.604  47.180  19.723
35874DT     BB333172  57.451  47.128  19.593
35874DT     SC133173  57.545  46.885  19.567
35874DT     SC233174  57.622  46.859  19.368
35874DT     SC333175  57.559  46.621  19.580
35875DG     BB133176  57.448  47.537  19.605
35875DG     BB233177  57.456  47.415  19.264
35875DG     BB333178  57.275  47.355  19.209
35875DG     SC133179  57.314  47.067  19.306
35875DG     SC233180  57.328  46.825  19.132
35875DG     SC333181  57.316  46.749  19.418
35875DG     SC433182  57.278  47.030  19.457
35876DC     BB133183  57.154  47.452  19.041
35876DC     BB233184  57.188  47.205  18.780
35876DC     BB333185  57.011  47.099  18.760
35876DC     SC133186  57.057  46.964  18.980
35876DC     SC233187  57.100  46.759  18.931
35876DC     SC333188  57.028  46.873  19.226
35877DG     BB133189  57.091  47.267  18.397
35877DG     BB233190  57.040  46.910  18.370
35877DG     BB333191  56.846  46.868  18.377
35877DG     SC133192  56.837  46.839  18.682
35877DG     SC233193  56.786  46.587  18.833
35877DG     SC333194  56.788  46.820  19.015
35877DG     SC433195  56.810  46.969  18.771
35878DA     BB133196  56.917  46.689  18.092
35878DA     BB233197  56.800  46.384  18.258
35878DA     BB333198  56.587  46.384  18.272
35878DA     SC133199  56.582  46.523  18.551
35878DA     SC233200  56.526  46.463  18.786
35878DA     SC333201  56.502  46.716  18.824
35878DA     SC433202  56.571  46.684  18.554
35879DT     BB133203  56.518  46.248  18.176
35879DT     BB233204  56.423  46.038  18.453
35879DT     BB333205  56.222  46.064  18.495
35879DT     SC133206  56.268  46.297  18.607
35879DT     SC233207  56.235  46.283  18.819
35879DT     SC333208  56.262  46.557  18.650
35880DT     BB133209  56.207  45.821  18.403
35880DT     BB233210  56.066  45.807  18.735
35880DT     BB333211  55.872  45.878  18.732
35880DT     SC133212  55.954  46.126  18.710
35880DT     SC233213  55.912  46.232  18.893
35880DT     SC333214  55.993  46.367  18.609
35881DA     BB133215  55.865  45.504  18.924
35881DA     BB233216  55.670  45.738  19.127
35881DA     BB333217  55.485  45.784  19.031
35881DA     SC133218  55.597  46.030  18.877
35881DA     SC233219  55.571  46.278  18.882
35881DA     SC333220  55.663  46.271  18.643
35881DA     SC433221  55.654  46.005  18.729
35882DT     BB133222  55.308  45.721  19.114
35882DT     BB233223  55.193  46.043  19.229
35882DT     BB333224  55.043  46.113  19.104
35882DT     SC133225  55.216  46.172  18.915
35882DT     SC233226  55.230  46.385  18.896
35882DT     SC333227  55.340  46.167  18.683
35883DT     BB133228  54.845  46.065  19.291
35883DT     BB233229  54.808  46.415  19.213
35883DT     BB333230  54.681  46.439  19.051
35883DT     SC133231  54.866  46.356  18.884
35883DT     SC233232  54.931  46.522  18.762
35883DT     SC333233  54.990  46.208  18.704
35884DT     BB133234  54.476  46.535  19.208
35884DT     BB233235  54.529  46.794  18.963
35884DT     BB333236  54.413  46.757  18.795
35884DT     SC133237  54.574  46.565  18.717
35884DT     SC233238  54.679  46.627  18.541
35884DT     SC333239  54.659  46.324  18.653
35885DA     BB133240  54.327  47.151  18.912
35885DA     BB233241  54.402  47.155  18.553
35885DA     BB333242  54.239  47.071  18.443
35885DA     SC133243  54.350  46.781  18.451
35885DA     SC233244  54.448  46.616  18.291
35885DA     SC333245  54.385  46.440  18.466
35885DA     SC433246  54.302  46.686  18.571
35886DG     BB133247  54.227  47.352  18.307
35886DG     BB233248  54.317  47.163  18.012
35886DG     BB333249  54.155  47.082  17.931
35886DG     SC133250  54.174  46.823  18.093
35886DG     SC233251  54.232  46.551  17.984
35886DG     SC333252  54.154  46.535  18.269
35886DG     SC433253  54.103  46.816  18.237
35887DT     BB133254  54.086  47.136  17.726
35887DT     BB233255  54.182  46.843  17.539
35887DT     BB333256  54.016  46.727  17.499
35887DT     SC133257  54.007  46.642  17.747
35887DT     SC233258  54.059  46.433  17.752
35887DT     SC333259  53.918  46.600  17.992
35888DA     BB133260  54.205  46.790  17.129
35888DA     BB233261  54.137  46.431  17.161
35888DA     BB333262  53.929  46.392  17.134
35888DA     SC133263  53.860  46.419  17.436
35888DA     SC233264  53.789  46.271  17.623
35888DA     SC333265  53.707  46.486  17.736
35888DA     SC433266  53.814  46.564  17.489
35889DC     BB133267  53.861  46.285  16.967
35889DC     BB233268  53.789  45.978  17.143
35889DC     BB333269  53.585  45.954  17.163
35889DC     SC133270  53.573  46.137  17.350
35889DC     SC233271  53.528  46.044  17.539
35889DC     SC333272  53.511  46.361  17.475
35890DC     BB133273  53.579  45.753  16.975
35890DC     BB233274  53.440  45.603  17.273
35890DC     BB333275  53.236  45.635  17.279
35890DC     SC133276  53.269  45.887  17.346
35890DC     SC233277  53.206  45.916  17.549
35890DC     SC333278  53.262  46.150  17.333
35891DA     BB133279  53.289  45.223  17.326
35891DA     BB233280  53.068  45.338  17.595
35891DA     BB333281  52.872  45.375  17.519
35891DA     SC133282  52.928  45.674  17.454
35891DA     SC233283  52.859  45.898  17.540
35891DA     SC333284  52.935  45.987  17.312
35891DA     SC433285  52.980  45.710  17.306
35892DG     BB133286  52.798  45.158  17.726
35892DG     BB233287  52.622  45.433  17.882
35892DG     BB333288  52.446  45.459  17.794
35892DG     SC133289  52.551  45.655  17.584
35892DG     SC233290  52.481  45.945  17.564
35892DG     SC333291  52.637  45.857  17.328
35892DG     SC433292  52.609  45.598  17.446
35893DA     BB133293  52.334  45.449  18.118
35893DA     BB233294  52.193  45.785  18.077
35893DA     BB333295  52.016  45.777  17.957
35893DA     SC133296  52.168  45.821  17.689
35893DA     SC233297  52.189  46.000  17.516
35893DA     SC333298  52.271  45.812  17.361
35893DA     SC433299  52.215  45.690  17.608
35894DA     BB133300  51.926  45.941  18.224
35894DA     BB233301  51.841  46.216  17.997
35894DA     BB333302  51.668  46.167  17.882
35894DA     SC133303  51.829  46.039  17.648
35894DA     SC233304  51.883  46.092  17.411
35894DA     SC333305  51.936  45.842  17.388
35894DA     SC433306  51.856  45.881  17.654
35895DA     BB133307  51.589  46.458  18.008
35895DA     BB233308  51.551  46.573  17.662
35895DA     BB333309  51.376  46.488  17.574
35895DA     SC133310  51.524  46.238  17.463
35895DA     SC233311  51.591  46.147  17.240
35895DA     SC333312  51.608  45.921  17.360
35895DA     SC433313  51.527  46.107  17.555
35896DA     BB133314  51.320  46.807  17.512
35896DA     BB233315  51.310  46.716  17.157
35896DA     BB333316  51.129  46.611  17.112
35896DA     SC133317  51.249  46.330  17.169
35896DA     SC233318  51.312  46.127  17.038
35896DA     SC333319  51.297  46.003  17.263
35896DA     SC433320  51.233  46.271  17.317
35897DC     BB133321  50.981  46.697  16.990
35897DC     BB233322  51.033  46.488  16.700
35897DC     BB333323  50.879  46.351  16.683
35897DC     SC133324  50.974  46.207  16.881
35897DC     SC233325  51.050  46.021  16.804
35897DC     SC333326  50.991  46.088  17.116
35898DT     BB133327  50.746  46.479  16.468
35898DT     BB233328  50.799  46.143  16.346
35898DT     BB333329  50.636  46.024  16.393
35898DT     SC133330  50.708  46.011  16.645
35898DT     SC233331  50.774  45.811  16.690
35898DT     SC333332  50.701  46.041  16.907
35899DA     BB133333  50.655  45.969  15.975
35899DA     BB233334  50.631  45.635  16.125
35899DA     BB333335  50.430  45.594  16.182
35899DA     SC133336  50.462  45.707  16.469
35899DA     SC233337  50.469  45.620  16.703
35899DA     SC333338  50.412  45.860  16.773
35899DA     SC433339  50.425  45.862  16.493
35900DC     BB133340  50.295  45.437  16.086
35900DC     BB233341  50.320  45.197  16.354
35900DC     BB333342  50.139  45.182  16.452
35900DC     SC133343  50.175  45.413  16.572
35900DC     SC233344  50.208  45.380  16.782
35900DC     SC333345  50.138  45.664  16.643
35901DA     BB133346  50.246  44.792  16.347
35901DA     BB233347  50.165  44.793  16.705
35901DA     BB333348  49.954  44.804  16.733
35901DA     SC133349  49.948  45.115  16.743
35901DA     SC233350  49.907  45.293  16.912
35901DA     SC333351  49.862  45.446  16.711
35901DA     SC433352  49.922  45.193  16.605
35902DC     BB133353  49.873  44.648  16.816
35902DC     BB233354  49.822  44.797  17.141
35902DC     BB333355  49.623  44.849  17.165
35902DC     SC133356  49.650  45.056  17.005
35902DC     SC233357  49.635  45.237  17.120
35902DC     SC333358  49.618  45.215  16.797
35903DT     BB133359  49.615  44.651  17.340
35903DT     BB233360  49.515  44.945  17.524
35903DT     BB333361  49.314  44.983  17.492
35903DT     SC133362  49.361  45.074  17.251
35903DT     SC233363  49.326  45.286  17.246
35903DT     SC333364  49.356  45.093  16.988
35904DT     BB133365  49.277  44.907  17.745
35904DT     BB233366  49.143  45.242  17.727
35904DT     BB333367  48.949  45.237  17.655
35904DT     SC133368  49.032  45.190  17.411
35904DT     SC233369  48.995  45.363  17.288
35904DT     SC333370  49.070  45.067  17.181
35905DA     BB133371  48.949  45.461  18.010
35905DA     BB233372  48.768  45.652  17.755
35905DA     BB333373  48.578  45.563  17.716
35905DA     SC133374  48.684  45.380  17.488
35905DA     SC233375  48.661  45.363  17.240
35905DA     SC333376  48.740  45.121  17.270
35905DA     SC433377  48.733  45.232  17.527
35906DG     BB133378  48.466  45.837  17.812
35906DG     BB233379  48.351  45.857  17.470
35906DG     BB333380  48.181  45.755  17.449
35906DG     SC133381  48.319  45.491  17.380
35906DG     SC233382  48.307  45.351  17.117
35906DG     SC333383  48.438  45.181  17.321
35906DG     SC433384  48.361  45.392  17.498
35907DG     BB133385  48.033  46.030  17.346
35907DG     BB233386  47.987  45.857  17.031
35907DG     BB333387  47.824  45.742  17.040
35907DG     SC133388  47.973  45.496  17.145
35907DG     SC233389  48.013  45.240  16.998
35907DG     SC333390  48.101  45.215  17.279
35907DG     SC433391  47.991  45.478  17.303
35908DA     BB133392  47.739  45.903  16.748
35908DA     BB233393  47.737  45.581  16.574
35908DA     BB333394  47.562  45.470  16.625
35908DA     SC133395  47.694  45.325  16.867
35908DA     SC233396  47.769  45.095  16.925
35908DA     SC333397  47.757  45.175  17.169
35908DA     SC433398  47.680  45.393  17.012
35909DA     BB133399  47.568  45.472  16.301
35909DA     BB233400  47.588  45.107  16.324
35909DA     BB333401  47.402  45.026  16.389
35909DA     SC133402  47.476  45.037  16.691
35909DA     SC233403  47.527  44.877  16.875
35909DA     SC333404  47.468  45.070  17.033
35909DA     SC433405  47.434  45.169  16.773
35910DT     BB133406  47.351  44.928  16.259
35910DT     BB233407  47.412  44.609  16.415
35910DT     BB333408  47.240  44.542  16.510
35910DT     SC133409  47.271  44.714  16.705
35910DT     SC233410  47.323  44.609  16.886
35910DT     SC333411  47.225  44.917  16.867
35911DT     BB133412  47.239  44.364  16.317
35911DT     BB233413  47.237  44.173  16.624
35911DT     BB333414  47.044  44.161  16.698
35911DT     SC133415  47.051  44.411  16.779
35911DT     SC233416  47.055  44.415  16.994
35911DT     SC333417  46.993  44.667  16.800
35912DA     BB133418  47.207  43.775  16.684
35912DA     BB233419  47.050  43.821  17.012
35912DA     BB333420  46.837  43.822  16.993
35912DA     SC133421  46.818  44.130  16.954
35912DA     SC233422  46.735  44.327  17.082
35912DA     SC333423  46.729  44.446  16.855
35912DA     SC433424  46.820  44.186  16.803
35913DA     BB133425  46.863  43.587  17.222
35913DA     BB233426  46.659  43.801  17.439
35913DA     BB333427  46.455  43.797  17.377
35913DA     SC133428  46.482  44.039  17.183
35913DA     SC233429  46.404  44.275  17.172
35913DA     SC333430  46.453  44.257  16.920
35913DA     SC433431  46.517  44.007  17.030
35914DA     BB133432  46.410  43.716  17.692
35914DA     BB233433  46.204  44.018  17.722
35914DA     BB333434  46.013  43.987  17.631
35914DA     SC133435  46.102  44.089  17.351
35914DA     SC233436  46.059  44.286  17.204
35914DA     SC333437  46.144  44.137  17.014
35914DA     SC433438  46.157  43.981  17.246
35915DT     BB133439  45.857  43.988  17.751
35915DT     BB233440  45.726  44.309  17.652
35915DT     BB333441  45.562  44.284  17.528
35915DT     SC133442  45.716  44.215  17.327
35915DT     SC233443  45.713  44.370  17.178
35915DT     SC333444  45.825  44.069  17.136
35916DG     BB133445  45.444  44.508  17.846
35916DG     BB233446  45.354  44.665  17.533
35916DG     BB333447  45.194  44.575  17.456
35916DG     SC133448  45.356  44.369  17.298
35916DG     SC233449  45.374  44.352  17.000
35916DG     SC333450  45.500  44.117  17.127
35916DG     SC433451  45.396  44.231  17.368
35917DA     BB133452  45.060  44.895  17.431
35917DA     BB233453  45.016  44.849  17.069
35917DA     BB333454  44.852  44.718  17.031
35917DA     SC133455  45.026  44.460  17.030
35917DA     SC233456  45.105  44.291  16.865
35917DA     SC333457  45.144  44.140  17.068
35917DA     SC433458  45.042  44.381  17.169
35918DT     BB133459  44.681  44.790  16.941
35918DT     BB233460  44.724  44.632  16.620
35918DT     BB333461  44.595  44.471  16.602
35918DT     SC133462  44.742  44.325  16.763
35918DT     SC233463  44.836  44.168  16.651
35918DT     SC333464  44.814  44.184  16.974
35919DA     BB133465  44.492  44.693  16.258
35919DA     BB233466  44.533  44.345  16.150
35919DA     BB333467  44.363  44.229  16.207
35919DA     SC133468  44.481  44.146  16.482
35919DA     SC233469  44.566  43.939  16.591
35919DA     SC333470  44.523  44.061  16.812
35919DA     SC433471  44.445  44.238  16.609
35920DT     BB133472  44.184  44.128  16.068
35920DT     BB233473  44.299  43.787  16.099
35920DT     BB333474  44.162  43.676  16.207
35920DT     SC133475  44.238  43.788  16.433
35920DT     SC233476  44.340  43.643  16.554
35920DT     SC333477  44.228  43.929  16.655
35921DT     BB133478  44.011  43.513  15.997
35921DT     BB233479  44.134  43.258  16.221
35921DT     BB333480  43.985  43.203  16.354
35921DT     SC133481  44.014  43.426  16.490
35921DT     SC233482  44.100  43.381  16.682
35921DT     SC333483  43.958  43.660  16.598
35922DA     BB133484  44.074  42.825  16.189
35922DA     BB233485  44.093  42.788  16.553
35922DA     BB333486  43.898  42.764  16.636
35922DA     SC133487  43.853  43.068  16.682
35922DA     SC233488  43.835  43.225  16.874
35922DA     SC333489  43.717  43.382  16.710
35922DA     SC433490  43.780  43.150  16.564
35923DA     BB133491  44.020  42.488  16.767
35923DA     BB233492  43.969  42.642  17.096
35923DA     BB333493  43.765  42.620  17.157
35923DA     SC133494  43.674  42.889  17.030
35923DA     SC233495  43.597  43.113  17.108
35923DA     SC333496  43.497  43.139  16.874
35923DA     SC433497  43.617  42.885  16.880
35924DC     BB133498  43.733  42.507  17.317
35924DC     BB233499  43.675  42.781  17.545
35924DC     BB333500  43.473  42.795  17.589
35924DC     SC133501  43.421  42.898  17.353
35924DC     SC233502  43.364  43.104  17.376
35924DC     SC333503  43.320  42.923  17.111
35925DA     BB133504  43.719  42.805  17.927
35925DA     BB233505  43.484  43.085  17.945
35925DA     BB333506  43.286  43.014  17.983
35925DA     SC133507  43.212  42.987  17.683
35925DA     SC233508  43.061  43.099  17.519
35925DA     SC333509  43.083  42.884  17.381
35925DA     SC433510  43.237  42.844  17.613
35926DA     BB133511  43.361  43.254  18.190
35926DA     BB233512  43.067  43.424  18.052
35926DA     BB333513  42.889  43.320  18.107
35926DA     SC133514  42.887  43.139  17.854
35926DA     SC233515  42.751  43.113  17.647
35926DA     SC333516  42.853  42.878  17.634
35926DA     SC433517  42.960  42.996  17.865
35927DT     BB133518  42.802  43.432  18.203
35927DT     BB233519  42.534  43.501  17.972
35927DT     BB333520  42.374  43.375  18.009
35927DT     SC133521  42.499  43.171  17.900
35927DT     SC233522  42.403  43.118  17.716
35927DT     SC333523  42.617  42.936  17.877
35928DT     BB133524  42.262  43.596  18.091
35928DT     BB233525  42.033  43.460  17.847
35928DT     BB333526  41.917  43.312  17.934
35928DT     SC133527  42.118  43.143  17.932
35928DT     SC233528  42.079  42.987  17.789
35928DT     SC333529  42.307  42.981  18.020
35929DT     BB133530  41.705  43.479  17.930
35929DT     BB233531  41.582  43.179  17.771
35929DT     BB333532  41.515  43.046  17.914
35929DT     SC133533  41.761  42.983  17.982
35929DT     SC233534  41.803  42.782  17.920
35929DT     SC333535  41.978  42.957  18.129
35930DT     BB133536  41.237  43.090  17.872
35930DT     BB233537  41.265  42.731  17.850
35930DT     BB333538  41.238  42.646  18.037
35930DT     SC133539  41.477  42.722  18.115
35930DT     SC233540  41.603  42.550  18.137
35930DT     SC333541  41.666  42.846  18.251
35931DT     BB133542  40.955  42.544  18.026
35931DT     BB233543  41.138  42.251  18.133
35931DT     BB333544  41.131  42.235  18.339
35931DT     SC133545  41.304  42.430  18.368
35931DT     SC233546  41.490  42.351  18.442
35931DT     SC333547  41.406  42.664  18.437
35932DT     BB133548  40.923  42.018  18.393
35932DT     BB233549  41.213  41.895  18.569
35932DT     BB333550  41.200  41.944  18.770
35932DT     SC133551  41.259  42.194  18.720
35932DT     SC233552  41.455  42.238  18.798
35932DT     SC333553  41.236  42.457  18.703
35933DC     BB133554  41.126  41.683  18.890
35933DC     BB233555  41.432  41.770  19.061
35933DC     BB333556  41.388  41.862  19.241
35933DC     SC133557  41.318  42.084  19.120
35933DC     SC233558  41.464  42.237  19.162
35933DC     SC333559  41.169  42.285  19.037
35934DA     BB133560  41.647  41.548  19.334
35934DA     BB233561  41.787  41.854  19.480
35934DA     BB333562  41.680  41.907  19.657
35934DA     SC133563  41.474  42.086  19.509
35934DA     SC233564  41.419  42.329  19.491
35934DA     SC333565  41.190  42.250  19.408
35934DA     SC433566  41.337  42.017  19.461
35935DT     BB133567  41.788  41.900  19.814
35935DT     BB233568  41.831  42.256  19.848
35935DT     BB333569  41.708  42.328  19.998
35935DT     SC133570  41.495  42.305  19.846
35935DT     SC233571  41.423  42.501  19.794
35935DT     SC333572  41.260  42.223  19.758
35936DT     BB133573  41.939  42.366  20.112
35936DT     BB233574  41.784  42.691  20.095
35936DT     BB333575  41.648  42.713  20.250
35936DT     SC133576  41.475  42.556  20.131
35936DT     SC233577  41.307  42.672  20.065
35936DT     SC333578  41.318  42.349  20.086
35937DT     BB133579  41.830  42.884  20.316
35937DT     BB233580  41.522  43.070  20.295
35937DT     BB333581  41.407  43.038  20.464
35937DT     SC133582  41.341  42.797  20.382
35937DT     SC233583  41.132  42.795  20.330
35937DT     SC333584  41.319  42.535  20.374
35938DA     BB133585  41.438  43.449  20.377
35938DA     BB233586  41.088  43.372  20.457
35938DA     BB333587  41.068  43.324  20.664
35938DA     SC133588  41.113  43.019  20.622
35938DA     SC233589  40.979  42.809  20.635
35938DA     SC333590  41.205  42.690  20.656
35938DA     SC433591  41.263  42.963  20.635
35939DT     BB133592  40.966  43.449  20.778
35939DT     BB233593  40.676  43.243  20.838
35939DT     BB333594  40.687  43.158  21.027
35939DT     SC133595  40.870  42.987  20.948
35939DT     SC233596  40.787  42.789  20.945
35939DT     SC333597  41.102  42.862  20.931
35940DT     BB133598  40.496  43.328  21.152
35940DT     BB233599  40.376  42.997  21.232
35940DT     BB333600  40.457  42.934  21.411
35940DT     SC133601  40.690  42.890  21.300
35940DT     SC233602  40.728  42.678  21.294
35940DT     SC333603  40.948  42.912  21.247
35941DT     BB133604  40.226  42.970  21.579
35941DT     BB233605  40.315  42.624  21.634
35941DT     BB333606  40.443  42.609  21.796
35941DT     SC133607  40.644  42.704  21.657
35941DT     SC233608  40.788  42.548  21.623
35941DT     SC333609  40.838  42.865  21.580
35942DT     BB133610  40.254  42.502  21.980
35942DT     BB233611  40.519  42.258  21.976
35942DT     BB333612  40.657  42.301  22.124
35942DT     SC133613  40.755  42.501  21.985
35942DT     SC233614  40.953  42.451  21.918
35942DT     SC333615  40.822  42.747  21.917
35943DT     BB133616  40.576  42.090  22.282
35943DT     BB233617  40.927  42.029  22.223
35943DT     BB333618  41.041  42.124  22.368
35943DT     SC133619  40.999  42.359  22.259
35943DT     SC233620  41.183  42.431  22.173
35943DT     SC333621  40.917  42.607  22.229
35944DT     BB133622  41.097  41.882  22.469
35944DT     BB233623  41.418  42.026  22.387
35944DT     BB333624  41.483  42.146  22.542
35944DT     SC133625  41.312  42.335  22.480
35944DT     SC233626  41.418  42.505  22.402
35944DT     SC333627  41.109  42.502  22.499
35945DA     BB133628  41.787  41.878  22.431
35945DA     BB233629  41.930  42.216  22.445
35945DA     BB333630  41.945  42.282  22.647
35945DA     SC133631  41.663  42.414  22.650
35945DA     SC233632  41.567  42.644  22.658
35945DA     SC333633  41.352  42.529  22.739
35945DA     SC433634  41.539  42.324  22.700
35946DA     BB133635  42.252  42.330  22.543
35946DA     BB233636  42.199  42.684  22.620
35946DA     BB333637  42.199  42.715  22.831
35946DA     SC133638  41.891  42.675  22.861
35946DA     SC233639  41.691  42.814  22.914
35946DA     SC333640  41.577  42.592  22.972
35946DA     SC433641  41.839  42.526  22.894
35947DA     BB133642  42.430  42.936  22.752
35947DA     BB233643  42.206  43.190  22.893
35947DA     BB333644  42.208  43.181  23.106
35947DA     SC133645  41.972  42.980  23.125
35947DA     SC233646  41.734  42.981  23.201
35947DA     SC333647  41.760  42.726  23.216
35947DA     SC433648  42.008  42.823  23.130
35948DC     BB133649  42.287  43.339  23.215
35948DC     BB233650  41.970  43.472  23.325
35948DC     BB333651  41.940  43.427  23.525
35948DC     SC133652  41.886  43.177  23.470
35948DC     SC233653  41.678  43.139  23.506
35948DC     SC333654  41.907  42.914  23.463
35949DA     BB133655  41.885  43.840  23.480
35949DA     BB233656  41.593  43.705  23.656
35949DA     BB333657  41.644  43.656  23.857
35949DA     SC133658  41.725  43.363  23.791
35949DA     SC233659  41.639  43.133  23.834
35949DA     SC333660  41.878  43.055  23.783
35949DA     SC433661  41.880  43.334  23.757
35950DA     BB133662  41.383  43.846  23.886
35950DA     BB233663  41.219  43.554  24.034
35950DA     BB333664  41.295  43.517  24.230
35950DA     SC133665  41.521  43.327  24.134
35950DA     SC233666  41.575  43.084  24.147
35950DA     SC333667  41.816  43.156  24.096
35950DA     SC433668  41.664  43.392  24.103
35951DA     BB133669  40.971  43.526  24.259
35951DA     BB233670  40.999  43.180  24.376
35951DA     BB333671  41.087  43.174  24.570
35951DA     SC133672  41.378  43.149  24.465
35951DA     SC233673  41.558  42.976  24.458
35951DA     SC333674  41.718  43.173  24.421
35951DA     SC433675  41.462  43.285  24.444
35952DA     BB133676  40.813  42.998  24.588
35952DA     BB233677  41.030  42.719  24.683
35952DA     BB333678  41.111  42.750  24.878
35952DA     SC133679  41.365  42.898  24.775
35952DA     SC233680  41.610  42.854  24.760
35952DA     SC333681  41.633  43.109  24.738
35952DA     SC433682  41.359  43.058  24.764
35953DG     BB133683  40.962  42.483  24.910
35953DG     BB233684  41.298  42.362  24.971
35953DG     BB333685  41.355  42.411  25.155
35953DG     SC133686  41.475  42.680  25.073
35953DG     SC233687  41.765  42.752  25.081
35953DG     SC333688  41.598  42.990  25.022
35953DG     SC433689  41.381  42.809  25.071
35954DA     BB133690  41.434  42.076  25.172
35954DA     BB233691  41.782  42.164  25.246
35954DA     BB333692  41.799  42.239  25.445
35954DA     SC133693  41.753  42.536  25.364
35954DA     SC233694  41.886  42.746  25.351
35954DA     SC333695  41.659  42.866  25.355
35954DA     SC433696  41.602  42.591  25.368
35955DG     BB133697  41.990  41.998  25.452
35955DG     BB233698  42.235  42.258  25.508
35955DG     BB333699  42.227  42.319  25.697
35955DG     SC133700  42.019  42.537  25.644
35955DG     SC233701  42.064  42.831  25.665
35955DG     SC333702  41.777  42.771  25.624
35955DG     SC433703  41.863  42.500  25.651
35956DA     BB133704  42.565  42.264  25.671
35956DA     BB233705  42.624  42.614  25.764
35956DA     BB333706  42.579  42.645  25.970
35956DA     SC133707  42.281  42.721  25.919
35956DA     SC233708  42.138  42.924  25.932
35956DA     SC333709  41.941  42.760  25.941
35956DA     SC433710  42.172  42.603  25.924
35957DA     BB133711  42.877  42.769  25.922
35957DA     BB233712  42.737  43.085  26.043
35957DA     BB333713  42.690  43.071  26.251
35957DA     SC133714  42.399  42.973  26.204
35957DA     SC233715  42.167  43.061  26.233
35957DA     SC333716  42.094  42.816  26.227
35957DA     SC433717  42.373  42.814  26.199
35958DC     BB133718  42.792  43.185  26.336
35958DC     BB233719  42.537  43.421  26.431
35958DC     BB333720  42.466  43.378  26.620
35958DC     SC133721  42.330  43.172  26.531
35958DC     SC233722  42.120  43.215  26.543
35958DC     SC333723  42.252  42.922  26.496
35959DT     BB133724  42.593  43.596  26.700
35959DT     BB233725  42.256  43.639  26.819
35959DT     BB333726  42.230  43.537  26.997
35959DT     SC133727  42.223  43.306  26.872
35959DT     SC233728  42.023  43.226  26.882
35959DT     SC333729  42.290  43.063  26.796
35960DG     BB133730  42.147  43.923  27.115
35960DG     BB233731  41.891  43.697  27.235
35960DG     BB333732  41.956  43.602  27.397
35960DG     SC133733  42.079  43.369  27.242
35960DG     SC233734  41.984  43.085  27.246
35960DG     SC333735  42.242  43.108  27.103
35960DG     SC433736  42.231  43.380  27.192
35961DC     BB133737  41.889  43.607  27.664
35961DC     BB233738  41.718  43.291  27.694
35961DC     BB333739  41.829  43.161  27.811
35961DC     SC133740  42.001  43.120  27.617
35961DC     SC233741  41.980  42.919  27.544
35961DC     SC333742  42.228  43.118  27.482
35962DT     BB133743  41.691  43.164  28.081
35962DT     BB233744  41.696  42.813  27.999
35962DT     BB333745  41.857  42.721  28.091
35962DT     SC133746  42.025  42.827  27.919
35962DT     SC233747  42.104  42.673  27.792
35962DT     SC333748  42.223  42.973  27.823
35963DC     BB133749  41.719  42.581  28.304
35963DC     BB233750  41.890  42.318  28.127
35963DC     BB333751  42.073  42.280  28.216
35963DC     SC133752  42.176  42.499  28.116
35963DC     SC233753  42.321  42.448  27.966
35963DC     SC333754  42.285  42.739  28.104
35964DT     BB133755  41.990  42.038  28.324
35964DT     BB233756  42.271  41.951  28.116
35964DT     BB333757  42.446  41.961  28.226
35964DT     SC133758  42.444  42.223  28.220
35964DT     SC233759  42.605  42.294  28.096
35964DT     SC333760  42.433  42.473  28.304
35965DT     BB133761  42.460  41.692  28.218
35965DT     BB233762  42.766  41.805  28.065
35965DT     BB333763  42.909  41.839  28.210
35965DT     SC133764  42.792  42.062  28.285
35965DT     SC233765  42.914  42.229  28.229
35965DT     SC333766  42.665  42.237  28.436
35966DT     BB133767  43.036  41.622  28.120
35966DT     BB233768  43.277  41.889  28.090
35966DT     BB333769  43.376  41.916  28.270
35966DT     SC133770  43.166  42.032  28.376
35966DT     SC233771  43.208  42.241  28.407
35966DT     SC333772  42.961  42.076  28.537
35967DT     BB133773  43.596  41.810  28.156
35967DT     BB233774  43.699  42.136  28.272
35967DT     BB333775  43.755  42.125  28.471
35967DT     SC133776  43.506  42.108  28.549
35967DT     SC233777  43.450  42.289  28.651
35967DT     SC333778  43.285  42.009  28.656
35968DA     BB133779  44.071  42.310  28.265
35968DA     BB233780  43.994  42.515  28.559
35968DA     BB333781  44.064  42.420  28.736
35968DA     SC133782  43.798  42.266  28.788
35968DA     SC233783  43.611  42.272  28.953
35968DA     SC333784  43.562  42.032  28.875
35968DA     SC433785  43.785  42.118  28.728
35969DG     BB133786  44.239  42.675  28.769
35969DG     BB233787  44.032  42.724  29.062
35969DG     BB333788  44.104  42.618  29.214
35969DG     SC133789  43.940  42.367  29.149
35969DG     SC233790  43.720  42.253  29.315
35969DG     SC333791  43.791  42.070  29.095
35969DG     SC433792  44.001  42.259  29.048
35970DA     BB133793  44.090  42.914  29.389
35970DA     BB233794  43.856  42.762  29.626
35970DA     BB333795  43.959  42.632  29.760
35970DA     SC133796  43.924  42.380  29.581
35970DA     SC233797  43.796  42.166  29.587
35970DA     SC333798  43.968  42.082  29.416
35970DA     SC433799  44.041  42.346  29.476
35971DC     BB133800  43.960  42.687  29.947
35971DC     BB233801  43.720  42.443  30.064
35971DC     BB333802  43.818  42.291  30.165
35971DC     SC133803  43.908  42.188  29.941
35971DC     SC233804  43.809  42.001  29.904
35971DC     SC333805  44.076  42.108  29.755
35972DT     BB133806  43.704  42.392  30.383
35972DT     BB233807  43.596  42.048  30.372
35972DT     BB333808  43.740  41.926  30.456
35972DT     SC133809  43.894  41.949  30.245
35972DT     SC233810  43.901  41.761  30.141
35972DT     SC333811  44.102  42.011  30.096
35973DA     BB133812  43.367  41.839  30.627
35973DA     BB233813  43.527  41.522  30.534
35973DA     BB333814  43.690  41.481  30.665
35973DA     SC133815  43.901  41.625  30.488
35973DA     SC233816  44.095  41.563  30.344
35973DA     SC333817  44.168  41.807  30.372
35973DA     SC433818  43.930  41.780  30.519
35974DA     BB133819  43.529  41.195  30.704
35974DA     BB233820  43.830  41.027  30.580
35974DA     BB333821  43.982  41.025  30.730
35974DA     SC133822  44.109  41.295  30.640
35974DA     SC233823  44.320  41.372  30.531
35974DA     SC333824  44.262  41.602  30.630
35974DA     SC433825  44.056  41.429  30.710
35975DT     BB133826  44.051  40.844  30.831
35975DT     BB233827  44.371  40.820  30.667
35975DT     BB333828  44.522  40.867  30.801
35975DT     SC133829  44.465  41.123  30.788
35975DT     SC233830  44.623  41.227  30.686
35975DT     SC333831  44.388  41.364  30.863
35976DA     BB133832  44.644  40.488  30.665
35976DA     BB233833  44.935  40.710  30.638
35976DA     BB333834  45.024  40.739  30.829
35976DA     SC133835  44.853  40.991  30.897
35976DA     SC233836  44.889  41.236  30.923
35976DA     SC333837  44.669  41.233  31.055
35976DA     SC433838  44.716  40.968  30.977
35977DC     BB133839  45.228  40.663  30.892
35977DC     BB233840  45.395  40.982  30.872
35977DC     BB333841  45.447  41.047  31.061
35977DC     SC133842  45.198  41.111  31.116
35977DC     SC233843  45.180  41.325  31.128
35977DC     SC333844  44.962  41.109  31.233
35978DA     BB133845  45.797  41.063  30.834
35978DA     BB233846  45.756  41.389  30.996
35978DA     BB333847  45.808  41.376  31.203
35978DA     SC133848  45.519  41.307  31.296
35978DA     SC233849  45.335  41.416  31.424
35978DA     SC333850  45.246  41.178  31.459
35978DA     SC433851  45.480  41.151  31.308
35979DT     BB133852  45.960  41.481  31.250
35979DT     BB233853  45.778  41.745  31.416
35979DT     BB333854  45.794  41.723  31.621
35979DT     SC133855  45.625  41.522  31.621
35979DT     SC233856  45.442  41.583  31.715
35979DT     SC333857  45.530  41.278  31.650
35980DC     BB133858  45.933  41.940  31.592
35980DC     BB233859  45.665  42.026  31.818
35980DC     BB333860  45.711  41.961  32.009
35980DC     SC133861  45.661  41.712  31.945
35980DC     SC233862  45.482  41.647  32.045
35980DC     SC333863  45.699  41.455  31.900
35981DG     BB133864  45.611  42.357  31.981
35981DG     BB233865  45.421  42.184  32.236
35981DG     BB333866  45.539  42.142  32.391
35981DG     SC133867  45.626  41.869  32.282
35981DG     SC233868  45.559  41.603  32.400
35981DG     SC333869  45.759  41.576  32.183
35981DG     SC433870  45.754  41.862  32.186
35982DT     BB133871  45.476  42.225  32.559
35982DT     BB233872  45.356  41.943  32.749
35982DT     BB333873  45.505  41.875  32.876
35982DT     SC133874  45.634  41.764  32.676
35982DT     SC233875  45.623  41.550  32.694
35982DT     SC333876  45.826  41.715  32.501
35983DC     BB133877  45.359  41.975  33.074
35983DC     BB233878  45.411  41.629  33.162
35983DC     BB333879  45.596  41.606  33.253
35983DC     SC133880  45.720  41.630  33.023
35983DC     SC233881  45.806  41.441  32.968
35983DC     SC333882  45.877  41.728  32.835
35984DG     BB133883  45.321  41.469  33.523
35984DG     BB233884  45.586  41.229  33.472
35984DG     BB333885  45.749  41.285  33.571
35984DG     SC133886  45.864  41.449  33.340
35984DG     SC233887  46.112  41.386  33.186
35984DG     SC333888  46.009  41.654  33.115
35984DG     SC433889  45.822  41.603  33.326
35985DC     BB133890  45.844  41.167  33.747
35985DC     BB233891  46.137  41.028  33.590
35985DC     BB333892  46.306  41.130  33.652
35985DC     SC133893  46.247  41.336  33.501
35985DC     SC233894  46.388  41.349  33.339
35985DC     SC333895  46.181  41.582  33.431
35986DT     BB133896  46.395  40.924  33.816
35986DT     BB233897  46.672  40.984  33.593
35986DT     BB333898  46.797  41.129  33.672
35986DT     SC133899  46.627  41.319  33.612
35986DT     SC233900  46.708  41.441  33.454
35986DT     SC333901  46.456  41.518  33.642
35987DA     BB133902  47.053  40.805  33.592
35987DA     BB233903  47.205  41.105  33.445
35987DA     BB333904  47.291  41.227  33.598
35987DA     SC133905  47.032  41.395  33.643
35987DA     SC233906  46.954  41.628  33.602
35987DA     SC333907  46.776  41.578  33.779
35987DA     SC433908  46.930  41.345  33.756
35988DA     BB133909  47.564  41.202  33.415
35988DA     BB233910  47.547  41.565  33.371
35988DA     BB333911  47.618  41.665  33.546
35988DA     SC133912  47.337  41.680  33.680
35988DA     SC233913  47.169  41.855  33.737
35988DA     SC333914  47.077  41.683  33.904
35988DA     SC433915  47.295  41.560  33.779
35989DA     BB133916  47.813  41.810  33.326
35989DA     BB233917  47.650  42.125  33.421
35989DA     BB333918  47.724  42.193  33.609
35989DA     SC133919  47.506  42.045  33.775
35989DA     SC233920  47.308  42.104  33.914
35989DA     SC333921  47.335  41.871  34.017
35989DA     SC433922  47.541  41.897  33.828
35990DA     BB133923  47.775  42.459  33.426
35990DA     BB233924  47.541  42.631  33.650
35990DA     BB333925  47.634  42.672  33.838
35990DA     SC133926  47.544  42.404  33.968
35990DA     SC233927  47.385  42.329  34.146
35990DA     SC333928  47.526  42.115  34.152
35990DA     SC433929  47.644  42.279  33.958
35991DA     BB133930  47.528  42.970  33.758
35991DA     BB233931  47.323  42.955  34.062
35991DA     BB333932  47.445  42.983  34.235
35991DA     SC133933  47.502  42.680  34.274
35991DA     SC233934  47.442  42.499  34.435
35991DA     SC333935  47.647  42.376  34.342
35991DA     SC433936  47.634  42.619  34.204
35992DA     BB133937  47.215  43.209  34.281
35992DA     BB233938  47.130  43.029  34.589
35992DA     BB333939  47.279  43.063  34.738
35992DA     SC133940  47.452  42.818  34.657
35992DA     SC233941  47.513  42.595  34.751
35992DA     SC333942  47.712  42.604  34.589
35992DA     SC433943  47.570  42.843  34.550
35993DT     BB133944  47.217  43.160  34.893
35993DT     BB233945  47.211  42.880  35.120
35993DT     BB333946  47.376  42.885  35.244
35993DT     SC133947  47.534  42.805  35.050
35993DT     SC233948  47.601  42.605  35.092
35993DT     SC333949  47.727  42.806  34.871
35994DC     BB133950  47.208  42.949  35.441
35994DC     BB233951  47.375  42.650  35.554
35994DC     BB333952  47.556  42.699  35.642
35994DC     SC133953  47.666  42.747  35.408
35994DC     SC233954  47.812  42.594  35.365
35994DC     SC333955  47.781  42.877  35.210
35995DC     BB133956  47.444  42.631  35.874
35995DC     BB233957  47.737  42.422  35.847
35995DC     BB333958  47.904  42.524  35.914
35995DC     SC133959  47.911  42.670  35.696
35995DC     SC233960  48.083  42.615  35.580
35995DC     SC333961  47.904  42.881  35.539
35996DT     BB133962  47.899  42.359  36.122
35996DT     BB233963  48.226  42.317  35.977
35996DT     BB333964  48.354  42.465  36.047
35996DT     SC133965  48.241  42.645  35.894
35996DT     SC233966  48.378  42.703  35.738
35996DT     SC333967  48.107  42.861  35.821
35997DA     BB133968  48.535  42.088  36.092
35997DA     BB233969  48.778  42.315  35.937
35997DA     BB333970  48.845  42.460  36.079
35997DA     SC133971  48.624  42.667  36.008
35997DA     SC233972  48.609  42.890  35.897
35997DA     SC333973  48.385  42.913  36.019
35997DA     SC433974  48.488  42.663  36.093
35998DG     BB133975  49.119  42.332  36.012
35998DG     BB233976  49.194  42.665  35.892
35998DG     BB333977  49.238  42.784  36.045
35998DG     SC133978  48.949  42.873  36.091
35998DG     SC233979  48.842  43.149  36.049
35998DG     SC333980  48.642  42.977  36.183
35998DG     SC433981  48.856  42.787  36.189
35999DA     BB133982  49.530  42.870  35.872
35999DA     BB233983  49.432  43.223  35.879
35999DA     BB333984  49.462  43.305  36.073
35999DA     SC133985  49.175  43.236  36.173
35999DA     SC233986  48.967  43.358  36.234
35999DA     SC333987  48.903  43.145  36.362
35999DA     SC433988  49.155  43.095  36.248
36000DT     BB133989  49.610  43.452  36.113
36000DT     BB233990  49.387  43.732  36.156
36000DT     BB333991  49.375  43.783  36.357
36000DT     SC133992  49.224  43.574  36.408
36000DT     SC233993  49.024  43.640  36.455
36000DT     SC333994  49.145  43.344  36.510
36001DA     BB133995  49.485  44.149  36.182
36001DA     BB233996  49.201  44.218  36.404
36001DA     BB333997  49.265  44.220  36.607
36001DA     SC133998  49.213  43.917  36.653
36001DA     SC233999  49.053  43.774  36.781
36001DA     SC334000  49.229  43.589  36.755
36001DA     SC434001  49.335  43.815  36.627
36002DT     BB134002  49.270  44.401  36.737
36002DT     BB234003  48.981  44.316  36.935
36002DT     BB334004  49.039  44.267  37.128
36002DT     SC134005  49.131  44.034  37.049
36002DT     SC234006  49.006  43.878  37.127
36002DT     SC334007  49.301  43.839  36.999
36003DT     BB134008  48.942  44.503  37.236
36003DT     BB234009  48.770  44.245  37.420
36003DT     BB334010  48.881  44.191  37.587
36003DT     SC134011  49.053  44.059  37.440
36003DT     SC234012  49.032  43.848  37.477
36003DT     SC334013  49.281  43.990  37.325
36004DC     BB134014  48.703  44.316  37.753
36004DC     BB234015  48.711  43.974  37.868
36004DC     BB334016  48.862  43.950  38.007
36004DC     SC134017  49.046  43.956  37.819
36004DC     SC234018  49.133  43.761  37.799
36004DC     SC334019  49.253  44.037  37.677
36005DT     BB134020  48.679  43.929  38.207
36005DT     BB234021  48.868  43.623  38.226
36005DT     BB334022  49.036  43.652  38.345
36005DT     SC134023  49.157  43.788  38.156
36005DT     SC234024  49.321  43.672  38.079
36005DT     SC334025  49.271  43.989  38.029
36006DA     BB134026  48.837  43.313  38.493
36006DA     BB234027  49.190  43.226  38.451
36006DA     BB334028  49.308  43.318  38.603
36006DA     SC134029  49.365  43.576  38.438
36006DA     SC234030  49.559  43.683  38.325
36006DA     SC334031  49.421  43.899  38.338
36006DA     SC434032  49.264  43.700  38.457
36007DC     BB134033  49.401  43.200  38.741
36007DC     BB234034  49.735  43.235  38.609
36007DC     BB334035  49.846  43.360  38.730
36007DC     SC134036  49.720  43.572  38.639
36007DC     SC234037  49.856  43.689  38.519
36007DC     SC334038  49.569  43.788  38.634
36008DA     BB134039  50.069  43.009  38.683
36008DA     BB234040  50.289  43.292  38.610
36008DA     BB334041  50.344  43.393  38.790
36008DA     SC134042  50.105  43.592  38.780
36008DA     SC234043  50.069  43.835  38.741
36008DA     SC334044  49.844  43.800  38.860
36008DA     SC434045  49.970  43.550  38.858
36009DT     BB134046  50.537  43.387  38.845
36009DT     BB234047  50.615  43.727  38.753
36009DT     BB334048  50.630  43.845  38.923
36009DT     SC134049  50.370  43.847  38.954
36009DT     SC234050  50.295  44.045  38.914
36009DT     SC334051  50.133  43.807  39.061
36010DT     BB134052  50.890  43.853  38.870
36010DT     BB234053  50.782  44.197  38.871
36010DT     BB334054  50.779  44.270  39.064
36010DT     SC134055  50.560  44.136  39.119
36010DT     SC234056  50.396  44.273  39.143
36010DT     SC334057  50.397  43.962  39.232
36011DT     BB134058  50.992  44.419  38.999
36011DT     BB234059  50.745  44.656  39.112
36011DT     BB334060  50.754  44.676  39.318
36011DT     SC134061  50.637  44.444  39.353
36011DT     SC234062  50.440  44.474  39.433
36011DT     SC334063  50.600  44.193  39.426
36012DA     BB134064  50.759  45.053  39.136
36012DA     BB234065  50.515  45.061  39.409
36012DA     BB334066  50.614  45.058  39.598
36012DA     SC134067  50.612  44.748  39.621
36012DA     SC234068  50.499  44.574  39.760
36012DA     SC334069  50.691  44.420  39.686
36012DA     SC434070  50.740  44.668  39.565
36013DA     BB134071  50.419  45.319  39.633
36013DA     BB234072  50.275  45.148  39.924
36013DA     BB334073  50.413  45.149  40.086
36013DA     SC134074  50.545  44.878  40.007
36013DA     SC234075  50.555  44.645  40.095
36013DA     SC334076  50.766  44.622  39.951
36013DA     SC434077  50.675  44.884  39.912
36014DA     BB134078  50.160  45.282  40.253
36014DA     BB234079  50.182  44.999  40.485
36014DA     BB334080  50.349  45.024  40.616
36014DA     SC134081  50.548  44.872  40.431
36014DA     SC234082  50.672  44.656  40.432
36014DA     SC334083  50.826  44.768  40.259
36014DA     SC434084  50.632  44.959  40.326
36015DG     BB134085  50.154  45.030  40.870
36015DG     BB234086  50.331  44.731  40.968
36015DG     BB334087  50.495  44.779  41.070
36015DG     SC134088  50.674  44.795  40.822
36015DG     SC234089  50.901  44.612  40.757
36015DG     SC334090  50.894  44.841  40.570
36015DG     SC434091  50.685  44.934  40.743
36016DG     BB134092  50.422  44.625  41.369
36016DG     BB234093  50.712  44.416  41.315
36016DG     BB334094  50.873  44.500  41.397
36016DG     SC134095  50.949  44.657  41.145
36016DG     SC234096  51.192  44.613  40.978
36016DG     SC334097  51.049  44.859  40.895
36016DG     SC434098  50.886  44.803  41.123
36017DC     BB134099  51.026  44.427  41.601
36017DC     BB234100  51.313  44.305  41.419
36017DC     BB334101  51.476  44.429  41.453
36017DC     SC134102  51.377  44.615  41.296
36017DC     SC234103  51.496  44.629  41.117
36017DC     SC334104  51.277  44.846  41.217
36018DA     BB134105  51.634  44.057  41.569
36018DA     BB234106  51.871  44.204  41.330
36018DA     BB334107  51.993  44.349  41.427
36018DA     SC134108  51.802  44.587  41.365
36018DA     SC234109  51.801  44.790  41.220
36018DA     SC334110  51.619  44.877  41.379
36018DA     SC434111  51.691  44.624  41.475
36019DG     BB134112  52.239  44.170  41.354
36019DG     BB234113  52.322  44.449  41.139
36019DG     BB334114  52.430  44.583  41.240
36019DG     SC134115  52.187  44.740  41.338
36019DG     SC234116  52.115  45.019  41.260
36019DG     SC334117  51.942  44.924  41.481
36019DG     SC434118  52.117  44.697  41.476
36020DG     BB134119  52.648  44.536  41.008
36020DG     BB234120  52.590  44.882  40.921
36020DG     BB334121  52.697  45.001  41.040
36020DG     SC134122  52.479  45.025  41.254
36020DG     SC234123  52.329  45.273  41.324
36020DG     SC334124  52.270  45.057  41.517
36020DG     SC434125  52.473  44.917  41.371
36021DT     BB134126  52.813  45.109  40.932
36021DT     BB234127  52.656  45.433  40.951
36021DT     BB334128  52.743  45.545  41.102
36021DT     SC134129  52.620  45.405  41.287
36021DT     SC234130  52.471  45.527  41.383
36021DT     SC334131  52.582  45.243  41.493
36022DC     BB134132  52.822  45.678  40.895
36022DC     BB234133  52.642  45.913  41.101
36022DC     BB334134  52.761  45.976  41.258
36022DC     SC134135  52.730  45.747  41.383
36022DC     SC234136  52.610  45.778  41.559
36022DC     SC334137  52.788  45.515  41.494
36023DT     BB134138  52.756  46.200  41.126
36023DT     BB234139  52.635  46.280  41.456
36023DT     BB334140  52.795  46.299  41.587
36023DT     SC134141  52.830  46.040  41.594
36023DT     SC234142  52.776  45.966  41.789
36023DT     SC334143  52.945  45.804  41.565
36024DA     BB134144  52.553  46.641  41.626
36024DA     BB234145  52.631  46.518  41.963
36024DA     BB334146  52.836  46.555  42.010
36024DA     SC134147  52.937  46.283  41.899
36024DA     SC234148  53.031  46.070  41.990
36024DA     SC334149  53.120  46.032  41.752
36024DA     SC434150  52.985  46.278  41.746
36025DT     BB134151  52.880  46.688  42.156
36025DT     BB234152  52.987  46.447  42.404
36025DT     BB334153  53.194  46.448  42.418
36025DT     SC134154  53.217  46.318  42.191
36025DT     SC234155  53.289  46.119  42.230
36025DT     SC334156  53.282  46.266  41.941
36026DC     BB134157  53.187  46.576  42.661
36026DC     BB234158  53.374  46.274  42.724
36026DC     BB334159  53.575  46.305  42.685
36026DC     SC134160  53.533  46.299  42.426
36026DC     SC234161  53.621  46.121  42.343
36026DC     SC334162  53.520  46.378  42.174
36027DT     BB134163  53.634  46.303  42.951
36027DT     BB234164  53.841  46.043  42.811
36027DT     BB334165  54.020  46.124  42.744
36027DT     SC134166  53.904  46.230  42.535
36027DT     SC234167  53.969  46.128  42.357
36027DT     SC334168  53.815  46.413  42.367
36028DT     BB134169  54.146  46.003  42.950
36028DT     BB234170  54.312  45.878  42.656
36028DT     BB334171  54.462  46.008  42.598
36028DT     SC134172  54.288  46.180  42.503
36028DT     SC234173  54.303  46.185  42.289
36028DT     SC334174  54.149  46.402  42.474
36029DA     BB134175  54.618  45.619  42.620
36029DA     BB234176  54.719  45.765  42.299
36029DA     BB334177  54.867  45.916  42.329
36029DA     SC134178  54.660  46.147  42.356
36029DA     SC234179  54.589  46.347  42.225
36029DA     SC334180  54.494  46.433  42.447
36029DA     SC434181  54.609  46.184  42.504
36030DT     BB134182  55.038  45.875  42.255
36030DT     BB234183  55.025  46.106  41.979
36030DT     BB334184  55.135  46.275  42.023
36030DT     SC134185  54.949  46.363  42.186
36030DT     SC234186  54.855  46.537  42.100
36030DT     SC334187  54.831  46.440  42.408
36031DC     BB134188  55.332  46.199  41.849
36031DC     BB234189  55.237  46.529  41.737
36031DC     BB334190  55.347  46.672  41.839
36031DC     SC134191  55.205  46.637  42.057
36031DC     SC234192  55.084  46.811  42.092
36031DC     SC334193  55.143  46.575  42.306
36032DA     BB134194  55.401  46.761  41.433
36032DA     BB234195  55.311  47.073  41.603
36032DA     BB334196  55.476  47.146  41.717
36032DA     SC134197  55.395  46.994  41.976
36032DA     SC234198  55.308  47.051  42.203
36032DA     SC334199  55.396  46.820  42.272
36032DA     SC434200  55.458  46.848  42.000
36033DG     BB134201  55.465  47.402  41.536
36033DG     BB234202  55.380  47.566  41.846
36033DG     BB334203  55.546  47.612  41.946
36033DG     SC134204  55.557  47.346  42.098
36033DG     SC234205  55.520  47.311  42.393
36033DG     SC334206  55.612  47.060  42.267
36033DG     SC434207  55.635  47.223  42.033
36034DG     BB134208  55.458  47.929  41.942
36034DG     BB234209  55.442  47.906  42.303
36034DG     BB334210  55.623  47.932  42.381
36034DG     SC134211  55.696  47.635  42.372
36034DG     SC234212  55.739  47.458  42.608
36034DG     SC334213  55.818  47.320  42.358
36034DG     SC434214  55.765  47.576  42.240
36035DG     BB134215  55.502  48.184  42.552
36035DG     BB234216  55.582  47.991  42.847
36035DG     BB334217  55.774  48.016  42.894
36035DG     SC134218  55.872  47.782  42.723
36035DG     SC234219  55.993  47.528  42.826
36035DG     SC334220  56.016  47.545  42.532
36035DG     SC434221  55.909  47.808  42.570
36036DT     BB134222  55.826  48.105  43.084
36036DT     BB234223  55.942  47.819  43.270
36036DT     BB334224  56.149  47.819  43.277
36036DT     SC134225  56.166  47.741  43.027
36036DT     SC234226  56.239  47.539  43.020
36036DT     SC334227  56.222  47.744  42.770
36037DT     BB134228  56.130  47.882  43.537
36037DT     BB234229  56.325  47.579  43.531
36037DT     BB334230  56.525  47.624  43.498
36037DT     SC134231  56.480  47.675  43.245
36037DT     SC234232  56.572  47.522  43.124
36037DT     SC334233  56.462  47.807  43.017
36038DT     BB134234  56.575  47.559  43.755
36038DT     BB234235  56.796  47.349  43.563
36038DT     BB334236  56.971  47.451  43.519
36038DT     SC134237  56.850  47.596  43.337
36038DT     SC234238  56.921  47.540  43.142
36038DT     SC334239  56.752  47.807  43.213
36039DT     BB134240  57.112  47.301  43.700
36039DT     BB234241  57.291  47.258  43.389
36039DT     BB334242  57.431  47.409  43.367
36039DT     SC134243  57.244  47.583  43.307
36039DT     SC234244  57.261  47.638  43.100
36039DT     SC334245  57.088  47.795  43.324
36040DG     BB134246  57.655  47.066  43.360
36040DG     BB234247  57.727  47.275  43.073
36040DG     BB334248  57.852  47.421  43.125
36040DG     SC134249  57.630  47.617  43.202
36040DG     SC234250  57.564  47.871  43.061
36040DG     SC334251  57.413  47.849  43.314
36040DG     SC434252  57.573  47.615  43.352
36041DA     BB134253  58.079  47.336  42.870
36041DA     BB234254  58.041  47.668  42.717
36041DA     BB334255  58.163  47.810  42.818
36041DA     SC134256  57.943  47.892  43.022
36041DA     SC234257  57.799  48.090  43.069
36041DA     SC334258  57.771  47.989  43.303
36041DA     SC434259  57.939  47.814  43.162
36042DA     BB134260  58.282  47.868  42.517
36042DA     BB234261  58.154  48.210  42.550
36042DA     BB334262  58.286  48.327  42.671
36042DA     SC134263  58.139  48.260  42.937
36042DA     SC234264  57.998  48.378  43.105
36042DA     SC334265  58.063  48.187  43.264
36042DA     SC434266  58.192  48.133  43.022
36043DC     BB134267  58.382  48.479  42.583
36043DC     BB234268  58.185  48.745  42.727
36043DC     BB334269  58.293  48.840  42.876
36043DC     SC134270  58.258  48.640  43.041
36043DC     SC234271  58.127  48.701  43.200
36043DC     SC334272  58.313  48.436  43.199
36044DT     BB134273  58.311  49.049  42.709
36044DT     BB234274  58.158  49.182  43.008
36044DT     BB334275  58.304  49.236  43.144
36044DT     SC134276  58.350  48.985  43.205
36044DT     SC234277  58.281  48.946  43.405
36044DT     SC334278  58.477  48.755  43.231
36045DC     BB134279  58.238  49.489  43.090
36045DC     BB234280  58.201  49.459  43.448
36045DC     BB334281  58.384  49.487  43.541
36045DC     SC134282  58.467  49.249  43.467
36045DC     SC234283  58.482  49.122  43.640
36045DC     SC334284  58.609  49.062  43.348
36046DA     BB134285  58.113  49.746  43.730
36046DA     BB234286  58.304  49.576  43.992
36046DA     BB334287  58.503  49.651  44.000
36046DA     SC134288  58.617  49.443  43.798
36046DA     SC234289  58.769  49.246  43.803
36046DA     SC334290  58.793  49.284  43.550
36046DA     SC434291  58.619  49.484  43.643
36047DT     BB134292  58.586  49.773  44.167
36047DT     BB234293  58.804  49.522  44.306
36047DT     BB334294  59.001  49.571  44.268
36047DT     SC134295  58.978  49.499  44.016
36047DT     SC234296  59.092  49.320  43.982
36047DT     SC334297  58.971  49.516  43.753
36048DA     BB134298  59.032  49.548  44.691
36048DA     BB234299  59.312  49.353  44.558
36048DA     BB334300  59.471  49.482  44.499
36048DA     SC134301  59.370  49.513  44.206
36048DA     SC234302  59.440  49.442  43.978
36048DA     SC334303  59.290  49.633  43.895
36048DA     SC434304  59.273  49.637  44.174
36049DG     BB134305  59.711  49.384  44.715
36049DG     BB234306  59.882  49.266  44.419
36049DG     BB334307  60.010  49.403  44.356
36049DG     SC134308  59.808  49.544  44.174
36049DG     SC234309  59.818  49.554  43.875
36049DG     SC334310  59.608  49.734  43.980
36049DG     SC434311  59.717  49.661  44.234
36050DC     BB134312  60.285  49.409  44.338
36050DC     BB234313  60.313  49.343  43.985
36050DC     BB334314  60.395  49.507  43.888
36050DC     SC134315  60.171  49.642  43.909
36050DC     SC234316  60.083  49.664  43.714
36050DC     SC334317  60.000  49.830  43.980
36051DT     BB134318  60.649  49.387  43.841
36051DT     BB234319  60.522  49.464  43.511
36051DT     BB334320  60.590  49.650  43.451
36051DT     SC134321  60.422  49.772  43.612
36051DT     SC234322  60.271  49.871  43.496
36051DT     SC334323  60.332  49.921  43.810
36052DC     BB134324  60.740  49.517  43.275
36052DC     BB234325  60.525  49.729  43.077
36052DC     BB334326  60.608  49.918  43.060
36052DC     SC134327  60.545  49.978  43.307
36052DC     SC234328  60.390  50.127  43.306
36052DC     SC334329  60.571  50.042  43.561
36053DA     BB134330  60.482  49.759  42.693
36053DA     BB234331  60.350  50.099  42.725
36053DA     BB334332  60.508  50.242  42.709
36053DA     SC134333  60.566  50.249  43.014
36053DA     SC234334  60.539  50.409  43.204
36053DA     SC334335  60.715  50.266  43.323
36053DA     SC434336  60.678  50.148  43.071
36054DA     BB134337  60.281  50.339  42.496
36054DA     BB234338  60.272  50.652  42.686
36054DA     BB334339  60.452  50.762  42.655
36054DA     SC134340  60.601  50.634  42.897
36054DA     SC234341  60.683  50.704  43.122
36054DA     SC334342  60.837  50.499  43.107
36054DA     SC434343  60.690  50.503  42.868
36055DA     BB134344  60.226  50.987  42.584
36055DA     BB234345  60.371  51.190  42.853
36055DA     BB334346  60.560  51.269  42.792
36055DA     SC134347  60.723  51.028  42.902
36055DA     SC234348  60.883  50.982  43.087
36055DA     SC334349  60.955  50.778  42.948
36055DA     SC434350  60.754  50.907  42.800
36056DA     BB134351  60.415  51.549  42.883
36056DA     BB234352  60.685  51.589  43.128
36056DA     BB334353  60.865  51.648  43.030
36056DA     SC134354  60.965  51.357  42.985
36056DA     SC234355  61.146  51.208  43.071
36056DA     SC334356  61.107  51.071  42.857
36056DA     SC434357  60.927  51.286  42.846
36057DA     BB134358  60.854  51.892  43.250
36057DA     BB234359  61.176  51.769  43.377
36057DA     BB334360  61.334  51.827  43.247
36057DA     SC134361  61.318  51.569  43.073
36057DA     SC234362  61.456  51.366  43.032
36057DA     SC334363  61.321  51.343  42.815
36057DA     SC434364  61.224  51.573  42.943
36058DT     BB134365  61.472  51.959  43.315
36058DT     BB234366  61.741  51.722  43.358
36058DT     BB334367  61.881  51.745  43.207
36058DT     SC134368  61.723  51.629  43.033
36058DT     SC234369  61.805  51.437  42.978
36058DT     SC334370  61.570  51.595  42.820
36059DA     BB134371  62.078  51.749  43.576
36059DA     BB234372  62.255  51.516  43.355
36059DA     BB334373  62.363  51.623  43.205
36059DA     SC134374  62.129  51.621  43.000
36059DA     SC234375  62.077  51.513  42.782
36059DA     SC334376  61.904  51.701  42.754
36059DA     SC434377  62.029  51.746  43.001
36060DC     BB134378  62.549  51.602  43.220
36060DC     BB234379  62.596  51.389  42.933
36060DC     BB334380  62.665  51.500  42.773
36060DC     SC134381  62.428  51.605  42.734
36060DC     SC234382  62.345  51.528  42.550
36060DC     SC334383  62.236  51.785  42.715
36061DA     BB134384  62.914  51.166  42.823
36061DA     BB234385  62.828  51.192  42.468
36061DA     BB334386  62.928  51.358  42.379
36061DA     SC134387  62.698  51.559  42.437
36061DA     SC234388  62.527  51.686  42.308
36061DA     SC334389  62.514  51.838  42.514
36061DA     SC434390  62.705  51.642  42.574
36062DA     BB134391  63.023  51.122  42.170
36062DA     BB234392  62.860  51.318  41.906
36062DA     BB334393  62.977  51.489  41.857
36062DA     SC134394  62.837  51.674  42.064
36062DA     SC234395  62.682  51.870  42.062
36062DA     SC334396  62.765  51.913  42.301
36062DA     SC434397  62.902  51.685  42.211
36063DT     BB134398  63.059  51.497  41.676
36063DT     BB234399  62.840  51.749  41.539
36063DT     BB334400  62.938  51.931  41.532
36063DT     SC134401  62.914  51.963  41.791
36063DT     SC234402  62.775  52.123  41.831
36063DT     SC334403  62.981  51.991  42.045
36064DT     BB134404  62.955  51.911  41.262
36064DT     BB234405  62.786  52.225  41.318
36064DT     BB334406  62.925  52.376  41.345
36064DT     SC134407  62.981  52.292  41.587
36064DT     SC234408  62.908  52.434  41.731
36064DT     SC334409  63.118  52.194  41.790
36065DT     BB134410  62.860  52.474  41.102
36065DT     BB234411  62.808  52.750  41.328
36065DT     BB334412  62.986  52.852  41.357
36065DT     SC134413  63.079  52.662  41.512
36065DT     SC234414  63.089  52.734  41.715
36065DT     SC334415  63.231  52.466  41.600
36066DC     BB134416  62.893  53.058  41.207
36066DC     BB234417  62.984  53.211  41.521
36066DC     BB334418  63.185  53.260  41.519
36066DC     SC134419  63.256  53.009  41.549
36066DC     SC234420  63.340  52.982  41.745
36066DC     SC334421  63.363  52.774  41.498
36067DT     BB134422  63.131  53.530  41.494
36067DT     BB234423  63.342  53.510  41.787
36067DT     BB334424  63.541  53.521  41.731
36067DT     SC134425  63.537  53.274  41.641
36067DT     SC234426  63.655  53.149  41.770
36067DT     SC334427  63.550  53.071  41.474
36068DT     BB134428  63.585  53.788  41.816
36068DT     BB234429  63.841  53.602  41.989
36068DT     BB334430  64.013  53.596  41.874
36068DT     SC134431  63.908  53.420  41.711
36068DT     SC234432  64.007  53.231  41.737
36068DT     SC334433  63.814  53.312  41.489
36069DA     BB134434  64.174  53.765  42.228
36069DA     BB234435  64.392  53.485  42.136
36069DA     BB334436  64.525  53.542  41.979
36069DA     SC134437  64.334  53.452  41.751
36069DA     SC234438  64.324  53.273  41.579
36069DA     SC334439  64.157  53.426  41.458
36069DA     SC434440  64.233  53.562  41.691
36070DA     BB134441  64.791  53.459  42.168
36070DA     BB234442  64.866  53.197  41.923
36070DA     BB334443  64.976  53.277  41.759
36070DA     SC134444  64.723  53.346  41.591
36070DA     SC234445  64.613  53.266  41.383
36070DA     SC334446  64.495  53.494  41.381
36070DA     SC434447  64.661  53.494  41.607
36071DT     BB134448  65.180  53.220  41.718
36071DT     BB234449  65.098  52.999  41.445
36071DT     BB334450  65.160  53.081  41.266
36071DT     SC134451  64.962  53.254  41.268
36071DT     SC234452  64.823  53.204  41.112
36071DT     SC334453  64.834  53.484  41.275
36072DA     BB134454  65.298  52.688  41.301
36072DA     BB234455  65.126  52.722  40.980
36072DA     BB334456  65.242  52.839  40.845
36072DA     SC134457  65.114  53.109  40.929
36072DA     SC234458  64.961  53.280  40.830
36072DA     SC334459  65.056  53.438  41.008
36072DA     SC434460  65.186  53.193  41.046
36073DC     BB134461  65.285  52.735  40.708
36073DC     BB234462  65.055  52.882  40.472
36073DC     BB334463  65.153  53.024  40.357
36073DC     SC134464  65.155  53.195  40.555
36073DC     SC234465  65.022  53.358  40.511
36073DC     SC334466  65.247  53.354  40.744
36074DT     BB134467  65.110  52.845  40.173
36074DT     BB234468  64.948  53.146  40.057
36074DT     BB334469  65.088  53.275  39.977
36074DT     SC134470  65.177  53.340  40.215
36074DT     SC234471  65.123  53.544  40.258
36074DT     SC334472  65.341  53.366  40.420
36075DC     BB134473  64.966  53.214  39.754
36075DC     BB234474  64.944  53.573  39.782
36075DC     BB334475  65.121  53.660  39.722
36075DC     SC134476  65.241  53.588  39.943
36075DC     SC234477  65.282  53.762  40.063
36075DC     SC334478  65.411  53.468  40.106
36076DT     BB134479  64.980  53.743  39.516
36076DT     BB234480  65.115  54.041  39.667
36076DT     BB334481  65.311  54.069  39.605
36076DT     SC134482  65.396  53.876  39.762
36076DT     SC234483  65.512  53.961  39.923
36076DT     SC334484  65.502  53.648  39.839
36077DA     BB134485  65.097  54.426  39.545
36077DA     BB234486  65.410  54.507  39.719
36077DA     BB334487  65.576  54.484  39.587
36077DA     SC134488  65.626  54.186  39.661
36077DA     SC234489  65.798  54.053  39.783
36077DA     SC334490  65.702  53.852  39.655
36077DA     SC434491  65.554  54.074  39.571
36078DT     BB134492  65.668  54.646  39.547
36078DT     BB234493  65.961  54.580  39.747
36078DT     BB334494  66.116  54.515  39.627
36078DT     SC134495  66.006  54.279  39.599
36078DT     SC234496  66.123  54.132  39.703
36078DT     SC334497  65.892  54.070  39.485
36079DA     BB134498  66.250  54.828  39.873
36079DA     BB234499  66.490  54.552  39.896
36079DA     BB334500  66.599  54.533  39.713
36079DA     SC134501  66.398  54.333  39.586
36079DA     SC234502  66.393  54.091  39.523
36079DA     SC334503  66.199  54.156  39.369
36079DA     SC434504  66.280  54.393  39.495
36080DT     BB134505  66.777  54.567  39.739
36080DT     BB234506  66.892  54.227  39.710
36080DT     BB334507  66.962  54.192  39.518
36080DT     SC134508  66.718  54.182  39.422
36080DT     SC234509  66.672  53.981  39.363
36080DT     SC334510  66.504  54.246  39.282
36081DT     BB134511  67.216  54.188  39.613
36081DT     BB234512  67.178  53.871  39.445
36081DT     BB334513  67.223  53.891  39.244
36081DT     SC134514  66.996  54.014  39.198
36081DT     SC234515  66.868  53.886  39.081
36081DT     SC334516  66.825  54.203  39.131
36082DT     BB134517  67.455  53.755  39.282
36082DT     BB234518  67.282  53.570  39.024
36082DT     BB334519  67.326  53.651  38.839
36082DT     SC134520  67.170  53.857  38.882
36082DT     SC234521  66.997  53.844  38.755
36082DT     SC334522  67.093  54.107  38.919
36083DA     BB134523  67.400  53.239  38.817
36083DA     BB234524  67.196  53.332  38.527
36083DA     BB334525  67.314  53.440  38.385
36083DA     SC134526  67.247  53.719  38.506
36083DA     SC234527  67.116  53.921  38.442
36083DA     SC334528  67.260  54.044  38.615
36083DA     SC434529  67.348  53.777  38.617
36084DC     BB134530  67.347  53.353  38.210
36084DC     BB234531  67.125  53.560  38.015
36084DC     BB334532  67.235  53.697  37.905
36084DC     SC134533  67.282  53.842  38.119
36084DC     SC234534  67.174  54.027  38.105
36084DC     SC334535  67.415  53.962  38.313
36085DA     BB134536  66.973  53.502  37.642
36085DA     BB234537  66.945  53.862  37.582
36085DA     BB334538  67.119  53.934  37.482
36085DA     SC134539  67.271  54.002  37.745
36085DA     SC234540  67.345  54.206  37.868
36085DA     SC334541  67.510  54.050  37.987
36085DA     SC434542  67.367  53.889  37.807
36086DA     BB134543  66.893  54.050  37.273
36086DA     BB234544  67.022  54.385  37.345
36086DA     BB334545  67.210  54.415  37.247
36086DA     SC134546  67.379  54.311  37.487
36086DA     SC234547  67.535  54.405  37.657
36086DA     SC334548  67.618  54.164  37.685
36086DA     SC434549  67.418  54.155  37.489
36087DT     BB134550  67.226  54.552  37.094
36087DT     BB234551  67.413  54.802  37.274
36087DT     BB334552  67.611  54.800  37.213
36087DT     SC134553  67.658  54.579  37.347
36087DT     SC234554  67.786  54.623  37.514
36087DT     SC334555  67.720  54.328  37.397
36088DA     BB134556  67.503  55.203  37.156
36088DA     BB234557  67.822  55.202  37.338
36088DA     BB334558  67.982  55.157  37.205
36088DA     SC134559  67.967  54.850  37.254
36088DA     SC234560  68.105  54.673  37.365
36088DA     SC334561  67.973  54.508  37.219
36088DA     SC434562  67.876  54.763  37.154
36089DA     BB134563  68.135  55.443  37.294
36089DA     BB234564  68.411  55.242  37.426
36089DA     BB334565  68.543  55.184  37.268
36089DA     SC134566  68.393  54.918  37.208
36089DA     SC234567  68.434  54.673  37.234
36089DA     SC334568  68.251  54.644  37.057
36089DA     SC434569  68.278  54.921  37.096
36090DC     BB134570  68.761  55.256  37.235
36090DC     BB234571  68.917  54.952  37.351
36090DC     BB334572  69.009  54.855  37.193
36090DC     SC134573  68.779  54.774  37.097
36090DC     SC234574  68.762  54.561  37.121
36090DC     SC334575  68.574  54.747  36.932
36091DA     BB134576  69.308  54.893  37.484
36091DA     BB234577  69.299  54.541  37.380
36091DA     BB334578  69.391  54.517  37.190
36091DA     SC134579  69.128  54.559  37.029
36091DA     SC234580  68.973  54.423  36.890
36091DA     SC334581  68.894  54.647  36.794
36091DA     SC434582  69.094  54.709  36.981
36092DG     BB134583  69.580  54.330  37.349
36092DG     BB234584  69.430  54.078  37.138
36092DG     BB334585  69.520  54.075  36.961
36092DG     SC134586  69.333  54.281  36.835
36092DG     SC234587  69.138  54.229  36.614
36092DG     SC334588  69.159  54.519  36.671
36092DG     SC434589  69.369  54.437  36.847
36093DA     BB134590  69.550  53.736  37.022
36093DA     BB234591  69.355  53.667  36.719
36093DA     BB334592  69.474  53.701  36.545
36093DA     SC134593  69.391  53.999  36.516
36093DA     SC234594  69.255  54.139  36.360
36093DA     SC334595  69.386  54.337  36.456
36093DA     SC434596  69.484  54.110  36.587
36094DC     BB134597  69.517  53.542  36.432
36094DC     BB234598  69.291  53.619  36.162
36094DC     BB334599  69.397  53.693  36.000
36094DC     SC134600  69.431  53.925  36.120
36094DC     SC234601  69.315  54.075  36.019
36094DC     SC334602  69.553  54.130  36.233
36095DA     BB134603  69.158  53.379  35.858
36095DA     BB234604  69.106  53.669  35.640
36095DA     BB334605  69.276  53.699  35.515
36095DA     SC134606  69.418  53.891  35.714
36095DA     SC234607  69.476  54.133  35.728
36095DA     SC334608  69.650  54.060  35.902
36095DA     SC434609  69.522  53.826  35.819
36096DT     BB134610  69.252  53.674  35.317
36096DT     BB234611  69.251  54.024  35.232
36096DT     BB334612  69.432  54.076  35.146
36096DT     SC134613  69.554  54.069  35.378
36096DT     SC234614  69.608  54.269  35.436
36096DT     SC334615  69.721  53.995  35.568
36097DA     BB134616  69.116  54.207  34.905
36097DA     BB234617  69.343  54.490  34.962
36097DA     BB334618  69.523  54.463  34.851
36097DA     SC134619  69.671  54.314  35.081
36097DA     SC234620  69.860  54.358  35.238
36097DA     SC334621  69.870  54.103  35.265
36097DA     SC434622  69.662  54.154  35.083
36098DA     BB134623  69.405  54.758  34.789
36098DA     BB234624  69.720  54.882  34.930
36098DA     BB334625  69.883  54.835  34.801
36098DA     SC134626  69.943  54.561  34.936
36098DA     SC234627  70.122  54.461  35.078
36098DA     SC334628  70.029  54.235  35.001
36098DA     SC434629  69.872  54.431  34.875
36099DT     BB134630  69.928  54.985  34.774
36099DT     BB234631  70.234  54.974  34.967
36099DT     BB334632  70.389  54.903  34.850
36099DT     SC134633  70.297  54.658  34.864
36099DT     SC234634  70.431  54.539  34.983
36099DT     SC334635  70.197  54.425  34.789
36100DG     BB134636  70.440  55.250  35.069
36100DG     BB234637  70.710  55.013  35.112
36100DG     BB334638  70.811  54.994  34.942
36100DG     SC134639  70.638  54.766  34.836
36100DG     SC234640  70.726  54.484  34.793
36100DG     SC334641  70.456  54.528  34.680
36100DG     SC434642  70.507  54.801  34.751
36101DT     BB134643  70.987  55.040  34.980
36101DT     BB234644  71.167  54.731  34.941
36101DT     BB334645  71.224  54.707  34.743
36101DT     SC134646  70.979  54.645  34.672
36101DT     SC234647  70.970  54.437  34.618
36101DT     SC334648  70.744  54.660  34.553
36102DC     BB134649  71.473  54.757  34.822
36102DC     BB234650  71.496  54.447  34.639
36102DC     BB334651  71.507  54.485  34.436
36102DC     SC134652  71.251  54.544  34.426
36102DC     SC234653  71.147  54.391  34.317
36102DC     SC334654  71.030  54.684  34.392
36103DA     BB134655  71.850  54.246  34.496
36103DA     BB234656  71.677  54.115  34.200
36103DA     BB334657  71.709  54.243  34.033
36103DA     SC134658  71.457  54.417  34.088
36103DA     SC234659  71.234  54.457  33.984
36103DA     SC334660  71.233  54.676  34.117
36103DA     SC434661  71.476  54.549  34.178
36104DT     BB134662  71.833  54.197  33.844
36104DT     BB234663  71.552  54.150  33.622
36104DT     BB334664  71.542  54.306  33.487
36104DT     SC134665  71.449  54.469  33.670
36104DT     SC234666  71.244  54.516  33.627
36104DT     SC334667  71.435  54.674  33.836
36105DA     BB134668  71.552  53.972  33.231
36105DA     BB234669  71.269  54.180  33.127
36105DA     BB334670  71.337  54.349  33.015
36105DA     SC134671  71.365  54.533  33.265
36105DA     SC234672  71.252  54.734  33.360
36105DA     SC334673  71.468  54.767  33.494
36105DA     SC434674  71.508  54.537  33.338
36106DT     BB134675  71.293  54.374  32.807
36106DT     BB234676  71.039  54.626  32.853
36106DT     BB334677  71.110  54.810  32.789
36106DT     SC134678  71.261  54.834  33.002
36106DT     SC234679  71.182  54.991  33.128
36106DT     SC334680  71.476  54.857  33.152
36107DA     BB134681  70.740  54.738  32.606
36107DA     BB234682  70.728  55.070  32.760
36107DA     BB334683  70.847  55.208  32.649
36107DA     SC134684  71.106  55.154  32.812
36107DA     SC234685  71.250  55.276  32.975
36107DA     SC334686  71.432  55.107  32.910
36107DA     SC434687  71.207  55.041  32.757
36108DC     BB134688  70.745  55.344  32.572
36108DC     BB234689  70.846  55.606  32.799
36108DC     BB334690  70.992  55.724  32.711
36108DC     SC134691  71.174  55.538  32.745
36108DC     SC234692  71.315  55.603  32.894
36108DC     SC334693  71.355  55.355  32.689
36109DA     BB134694  70.684  55.958  32.875
36109DA     BB234695  71.006  56.092  32.988
36109DA     BB334696  71.110  56.183  32.825
36109DA     SC134697  71.260  55.923  32.745
36109DA     SC234698  71.493  55.835  32.750
36109DA     SC334699  71.413  55.669  32.572
36109DA     SC434700  71.191  55.829  32.634
36110DA     BB134701  71.111  56.418  33.054
36110DA     BB234702  71.477  56.399  33.036
36110DA     BB334703  71.546  56.481  32.852
36110DA     SC134704  71.537  56.210  32.699
36110DA     SC234705  71.699  56.046  32.604
36110DA     SC334706  71.501  55.964  32.462
36110DA     SC434707  71.402  56.174  32.620
36111DT     BB134708  71.657  56.658  32.850
36111DT     BB234709  71.977  56.509  32.774
36111DT     BB334710  72.029  56.549  32.578
36111DT     SC134711  71.856  56.374  32.487
36111DT     SC234712  71.961  56.207  32.403
36111DT     SC334713  71.647  56.274  32.361
36112DA     BB134714  72.358  56.676  32.804
36112DA     BB234715  72.487  56.468  32.530
36112DA     BB334716  72.482  56.577  32.347
36112DA     SC134717  72.196  56.481  32.269
36112DA     SC234718  72.091  56.332  32.099
36112DA     SC334719  71.875  56.460  32.150
36112DA     SC434720  72.073  56.574  32.313
36113DA     BB134721  72.802  56.499  32.333
36113DA     BB234722  72.728  56.316  32.024
36113DA     BB334723  72.708  56.451  31.860
36113DA     SC134724  72.402  56.489  31.897
36113DA     SC234725  72.192  56.427  31.776
36113DA     SC334726  72.083  56.617  31.911
36113DA     SC434727  72.352  56.612  31.989
36114DG     BB134728  72.946  56.291  31.742
36114DG     BB234729  72.702  56.198  31.492
36114DG     BB334730  72.690  56.340  31.353
36114DG     SC134731  72.471  56.498  31.498
36114DG     SC234732  72.190  56.534  31.404
36114DG     SC334733  72.246  56.706  31.639
36114DG     SC434734  72.513  56.609  31.605
36115DT     BB134735  72.740  56.291  31.150
36115DT     BB234736  72.415  56.278  30.994
36115DT     BB334737  72.382  56.450  30.884
36115DT     SC134738  72.342  56.592  31.102
36115DT     SC234739  72.135  56.648  31.113
36115DT     SC334740  72.376  56.775  31.288
36116DT     BB134741  72.403  56.289  30.677
36116DT     BB234742  72.080  56.446  30.642
36116DT     BB334743  72.101  56.632  30.554
36116DT     SC134744  72.196  56.735  30.776
36116DT     SC234745  72.053  56.872  30.858
36116DT     SC334746  72.364  56.849  30.944
36117DC     BB134747  71.986  56.521  30.344
36117DC     BB234748  71.782  56.809  30.418
36117DC     BB334749  71.866  56.978  30.334
36117DC     SC134750  72.054  56.986  30.518
36117DC     SC234751  72.021  57.155  30.646
36117DC     SC334752  72.293  56.980  30.628
36118DA     BB134753  71.465  56.972  30.210
36118DA     BB234754  71.541  57.313  30.318
36118DA     BB334755  71.667  57.410  30.176
36118DA     SC134756  71.932  57.320  30.312
36118DA     SC234757  72.119  57.425  30.439
36118DA     SC334758  72.253  57.216  30.376
36118DA     SC434759  71.999  57.183  30.261
36119DC     BB134760  71.606  57.580  30.040
36119DC     BB234761  71.796  57.842  30.200
36119DC     BB334762  71.956  57.897  30.080
36119DC     SC134763  72.087  57.678  30.140
36119DC     SC234764  72.257  57.729  30.262
36119DC     SC334765  72.209  57.446  30.112
36120DA     BB134766  71.780  58.285  30.103
36120DA     BB234767  72.137  58.332  30.173
36120DA     BB334768  72.248  58.336  29.991
36120DA     SC134769  72.301  58.029  29.988
36120DA     SC234770  72.495  57.875  30.018
36120DA     SC334771  72.350  57.703  29.895
36120DA     SC434772  72.196  57.937  29.909
36121DG     BB134773  72.364  58.649  30.006
36121DG     BB234774  72.689  58.492  30.037
36121DG     BB334775  72.774  58.476  29.858
36121DG     SC134776  72.654  58.201  29.798
36121DG     SC234777  72.806  57.945  29.771
36121DG     SC334778  72.524  57.909  29.690
36121DG     SC434779  72.510  58.193  29.727
36122DG     BB134780  73.051  58.665  29.922
36122DG     BB234781  73.244  58.363  29.878
36122DG     BB334782  73.300  58.345  29.688
36122DG     SC134783  73.050  58.189  29.604
36122DG     SC234784  73.043  57.904  29.515
36122DG     SC334785  72.781  58.034  29.473
36122DG     SC434786  72.921  58.270  29.556
36123DT     BB134787  73.525  58.346  29.609
36123DT     BB234788  73.573  57.994  29.548
36123DT     BB334789  73.580  57.958  29.344
36123DT     SC134790  73.320  57.990  29.322
36123DT     SC234791  73.228  57.801  29.278
36123DT     SC334792  73.088  58.092  29.248
36124DA     BB134793  73.924  57.782  29.505
36124DA     BB234794  73.758  57.530  29.296
36124DA     BB334795  73.790  57.573  29.089
36124DA     SC134796  73.534  57.748  29.061
36124DA     SC234797  73.312  57.733  28.948
36124DA     SC334798  73.305  57.988  28.973
36124DA     SC434799  73.549  57.906  29.085
36125DG     BB134800  73.928  57.294  29.085
36125DG     BB234801  73.652  57.212  28.866
36125DG     BB334802  73.693  57.269  28.680
36125DG     SC134803  73.574  57.549  28.714
36125DG     SC234804  73.331  57.654  28.576
36125DG     SC334805  73.470  57.870  28.721
36125DG     SC434806  73.667  57.668  28.768
36126DT     BB134807  73.712  57.122  28.508
36126DT     BB234808  73.400  57.179  28.336
36126DT     BB334809  73.433  57.286  28.162
36126DT     SC134810  73.472  57.508  28.297
36126DT     SC234811  73.308  57.643  28.261
36126DT     SC334812  73.592  57.721  28.395
36127DA     BB134813  73.213  56.948  28.054
36127DA     BB234814  73.046  57.241  27.910
36127DA     BB334815  73.156  57.313  27.742
36127DA     SC134816  73.330  57.509  27.909
36127DA     SC234817  73.353  57.756  27.939
36127DA     SC334818  73.586  57.702  28.033
36127DA     SC434819  73.471  57.456  27.963
36128DT     BB134820  73.066  57.301  27.565
36128DT     BB234821  72.984  57.651  27.538
36128DT     BB334822  73.110  57.743  27.402
36128DT     SC134823  73.310  57.739  27.573
36128DT     SC234824  73.353  57.940  27.637
36128DT     SC334825  73.544  57.681  27.680
36129DA     BB134826  72.708  57.831  27.331
36129DA     BB234827  72.896  58.145  27.339
36129DA     BB334828  73.020  58.162  27.166
36129DA     SC134829  73.266  58.025  27.298
36129DA     SC234830  73.493  58.090  27.378
36129DA     SC334831  73.549  57.840  27.361
36129DA     SC434832  73.282  57.866  27.280
36130DC     BB134833  72.958  58.298  27.094
36130DC     BB234834  73.234  58.518  27.171
36130DC     BB334835  73.371  58.516  27.016
36130DC     SC134836  73.459  58.279  27.086
36130DC     SC234837  73.659  58.297  27.165
36130DC     SC334838  73.514  58.021  27.075
36131DT     BB134839  73.276  58.753  27.016
36131DT     BB234840  73.634  58.787  27.053
36131DT     BB334841  73.727  58.749  26.872
36131DT     SC134842  73.686  58.491  26.896
36131DT     SC234843  73.874  58.392  26.930
36131DT     SC334844  73.596  58.249  26.845
36132DT     BB134845  73.775  59.003  26.893
36132DT     BB234846  74.097  58.847  26.849
36132DT     BB334847  74.125  58.799  26.650
36132DT     SC134848  73.960  58.596  26.667
36132DT     SC234849  74.071  58.412  26.651
36132DT     SC334850  73.749  58.443  26.625
36133DT     BB134851  74.303  58.998  26.638
36133DT     BB234852  74.482  58.708  26.518
36133DT     BB334853  74.442  58.679  26.317
36133DT     SC134854  74.202  58.587  26.370
36133DT     SC234855  74.195  58.376  26.326
36133DT     SC334856  73.939  58.568  26.376
36134DC     BB134857  74.691  58.769  26.237
36134DC     BB234858  74.664  58.442  26.087
36134DC     BB334859  74.573  58.456  25.901
36134DC     SC134860  74.338  58.494  26.011
36134DC     SC234861  74.215  58.321  25.976
36134DC     SC334862  74.111  58.611  26.078
36135DA     BB134863  74.932  58.255  25.810
36135DA     BB234864  74.658  58.066  25.654
36135DA     BB334865  74.590  58.166  25.478
36135DA     SC134866  74.374  58.333  25.627
36135DA     SC234867  74.125  58.343  25.641
36135DA     SC334868  74.160  58.581  25.730
36135DA     SC434869  74.416  58.479  25.679
36136DT     BB134870  74.616  58.085  25.277
36136DT     BB234871  74.273  57.982  25.233
36136DT     BB334872  74.179  58.105  25.095
36136DT     SC134873  74.163  58.301  25.268
36136DT     SC234874  73.958  58.331  25.324
36136DT     SC334875  74.202  58.537  25.381
36137DA     BB134876  74.115  57.709  24.975
36137DA     BB234877  73.791  57.880  24.981
36137DA     BB334878  73.775  58.014  24.816
36137DA     SC134879  73.892  58.257  24.971
36137DA     SC234880  73.810  58.474  25.062
36137DA     SC334881  74.057  58.544  25.060
36137DA     SC434882  74.050  58.282  24.961
36138DC     BB134883  73.639  57.967  24.690
36138DC     BB234884  73.403  58.223  24.786
36138DC     BB334885  73.408  58.378  24.649
36138DC     SC134886  73.636  58.465  24.745
36138DC     SC234887  73.605  58.653  24.846
36138DC     SC334888  73.891  58.531  24.757
36139DA     BB134889  73.014  58.251  24.724
36139DA     BB234890  73.026  58.616  24.752
36139DA     BB334891  73.057  58.704  24.560
36139DA     SC134892  73.367  58.704  24.582
36139DA     SC234893  73.550  58.872  24.607
36139DA     SC334894  73.704  58.687  24.518
36139DA     SC434895  73.446  58.577  24.524
36140DA     BB134896  72.794  58.862  24.678
36140DA     BB234897  72.992  59.169  24.640
36140DA     BB334898  73.018  59.215  24.434
36140DA     SC134899  73.283  59.055  24.406
36140DA     SC234900  73.526  59.103  24.372
36140DA     SC334901  73.542  58.860  24.292
36140DA     SC434902  73.273  58.901  24.358
36141DT     BB134903  72.930  59.381  24.361
36141DT     BB234904  73.229  59.579  24.320
36141DT     BB334905  73.282  59.588  24.120
36141DT     SC134906  73.371  59.341  24.125
36141DT     SC234907  73.585  59.342  24.106
36141DT     SC334908  73.393  59.084  24.071
36142DT     BB134909  73.199  59.849  24.097
36142DT     BB234910  73.542  59.856  23.984
36142DT     BB334911  73.550  59.816  23.781
36142DT     SC134912  73.503  59.561  23.822
36142DT     SC234913  73.680  59.447  23.777
36142DT     SC334914  73.381  59.327  23.815
36143DA     BB134915  73.760  60.178  23.819
36143DA     BB234916  73.967  59.952  23.618
36143DA     BB334917  73.889  59.937  23.420
36143DA     SC134918  73.707  59.693  23.484
36143DA     SC234919  73.698  59.451  23.428
36143DA     SC334920  73.451  59.465  23.495
36143DA     SC434921  73.556  59.723  23.529
36144DC     BB134922  73.992  60.016  23.241
36144DC     BB234923  74.099  59.697  23.112
36144DC     BB334924  73.992  59.650  22.941
36144DC     SC134925  73.779  59.591  23.082
36144DC     SC234926  73.744  59.379  23.074
36144DC     SC334927  73.533  59.602  23.177
36145DA     BB134928  74.393  59.616  22.825
36145DA     BB234929  74.223  59.309  22.721
36145DA     BB334930  74.103  59.345  22.548
36145DA     SC134931  73.848  59.419  22.709
36145DA     SC234932  73.623  59.320  22.754
36145DA     SC334933  73.554  59.558  22.819
36145DA     SC434934  73.824  59.574  22.744
36146DC     BB134935  74.153  59.255  22.367
36146DC     BB234936  73.890  59.008  22.372
36146DC     BB334937  73.744  59.057  22.234
36146DC     SC134938  73.652  59.249  22.388
36146DC     SC234939  73.458  59.193  22.464
36146DC     SC334940  73.587  59.491  22.472
36147DT     BB134941  73.825  58.851  22.080
36147DT     BB234942  73.477  58.784  22.147
36147DT     BB334943  73.359  58.881  22.007
36147DT     SC134944  73.400  59.113  22.121
36147DT     SC234945  73.218  59.181  22.214
36147DT     SC334946  73.480  59.362  22.156
36148DT     BB134947  73.304  58.640  21.904
36148DT     BB234948  72.983  58.778  21.990
36148DT     BB334949  72.914  58.898  21.836
36148DT     SC134950  73.083  59.089  21.898
36148DT     SC234951  72.974  59.257  21.979
36148DT     SC334952  73.282  59.260  21.878
36149DA     BB134953  72.617  58.626  21.952
36149DA     BB234954  72.467  58.960  21.936
36149DA     BB334955  72.449  59.023  21.733
36149DA     SC134956  72.728  59.161  21.726
36149DA     SC234957  72.819  59.393  21.714
36149DA     SC334958  73.035  59.282  21.633
36149DA     SC434959  72.853  59.074  21.676
36150DT     BB134960  72.270  59.044  21.675
36150DT     BB234961  72.265  59.404  21.667
36150DT     BB334962  72.289  59.471  21.472
36150DT     SC134963  72.545  59.412  21.475
36150DT     SC234964  72.660  59.594  21.472
36150DT     SC334965  72.773  59.296  21.412
36151DT     BB134966  72.034  59.544  21.483
36151DT     BB234967  72.213  59.845  21.397
36151DT     BB334968  72.248  59.850  21.193
36151DT     SC134969  72.437  59.669  21.212
36151DT     SC234970  72.627  59.760  21.173
36151DT     SC334971  72.566  59.441  21.180
36152DA     BB134972  72.076  60.216  21.309
36152DA     BB234973  72.368  60.288  21.099
36152DA     BB334974  72.328  60.237  20.896
36152DA     SC134975  72.434  59.946  20.923
36152DA     SC234976  72.629  59.812  20.843
36152DA     SC334977  72.484  59.607  20.895
36152DA     SC434978  72.328  59.831  20.961
36153DA     BB134979  72.423  60.549  20.849
36153DA     BB234980  72.691  60.414  20.637
36153DA     BB334981  72.612  60.349  20.450
36153DA     SC134982  72.559  60.058  20.547
36153DA     SC234983  72.650  59.830  20.505
36153DA     SC334984  72.427  59.745  20.599
36153DA     SC434985  72.413  60.025  20.607
36154DT     BB134986  72.663  60.447  20.277
36154DT     BB234987  72.884  60.194  20.145
36154DT     BB334988  72.790  60.092  19.991
36154DT     SC134989  72.638  59.961  20.159
36154DT     SC234990  72.696  59.754  20.162
36154DT     SC334991  72.421  59.875  20.283
36155DA     BB134992  73.155  60.220  19.825
36155DA     BB234993  73.118  59.863  19.749
36155DA     BB334994  72.974  59.835  19.594
36155DA     SC134995  72.734  59.806  19.790
36155DA     SC234996  72.579  59.626  19.867
36155DA     SC334997  72.425  59.817  19.939
36155DA     SC434998  72.651  59.939  19.827
36156DA     BB134999  73.215  59.671  19.438
36156DA     BB235000  73.002  59.373  19.457
36156DA     BB335001  72.850  59.381  19.307
36156DA     SC135002  72.644  59.526  19.491
36156DA     SC235003  72.428  59.473  19.604
36156DA     SC335004  72.395  59.727  19.615
36156DA     SC435005  72.641  59.687  19.486
36157DT     BB135006  72.845  59.244  19.145
36157DT     BB235007  72.573  59.044  19.273
36157DT     BB335008  72.401  59.078  19.162
36157DT     SC135009  72.365  59.312  19.275
36157DT     SC235010  72.192  59.303  19.403
36157DT     SC335011  72.342  59.573  19.304
36158DT     BB135012  72.421  58.832  19.047
36158DT     BB235013  72.099  58.832  19.210
36158DT     BB335014  71.956  58.910  19.082
36158DT     SC135015  72.044  59.154  19.119
36158DT     SC235016  71.899  59.266  19.232
36158DT     SC335017  72.150  59.390  19.068
36159DT     BB135018  71.859  58.662  19.066
36159DT     BB235019  71.589  58.862  19.196
36159DT     BB335020  71.487  58.954  19.041
36159DT     SC135021  71.681  59.127  19.006
36159DT     SC235022  71.614  59.322  19.066
36159DT     SC335023  71.879  59.258  18.891
36160DC     BB135024  71.297  58.789  19.111
36160DC     BB235025  71.157  59.119  19.146
36160DC     BB335026  71.095  59.190  18.962
36160DC     SC135027  71.342  59.235  18.886
36160DC     SC235028  71.376  59.447  18.874
36160DC     SC335029  71.568  59.217  18.750
36161DT     BB135030  70.848  59.159  19.056
36161DT     BB235031  70.868  59.506  18.960
36161DT     BB335032  70.828  59.527  18.758
36161DT     SC135033  71.064  59.431  18.694
36161DT     SC235034  71.185  59.588  18.610
36161DT     SC335035  71.248  59.270  18.593
36162DG     BB135036  70.572  59.762  18.971
36162DG     BB235037  70.734  59.947  18.706
36162DG     BB335038  70.652  59.901  18.531
36162DG     SC135039  70.843  59.668  18.475
36162DG     SC235040  71.049  59.658  18.258
36162DG     SC335041  71.023  59.395  18.391
36162DG     SC435042  70.806  59.522  18.528
36163DT     BB135043  70.538  60.051  18.401
36163DT     BB235044  70.769  60.107  18.129
36163DT     BB335045  70.704  60.007  17.960
36163DT     SC135046  70.779  59.775  18.058
36163DT     SC235047  70.948  59.702  17.947
36163DT     SC335048  70.765  59.529  18.151
36164DA     BB135049  70.743  60.401  17.814
36164DA     BB235050  70.909  60.181  17.572
36164DA     BB335051  70.765  60.082  17.450
36164DA     SC135052  70.739  59.835  17.638
36164DA     SC235053  70.800  59.594  17.634
36164DA     SC335054  70.624  59.567  17.819
36164DA     SC435055  70.624  59.839  17.750
36165DA     BB135056  70.904  60.203  17.165
36165DA     BB235057  70.978  59.858  17.066
36165DA     BB335058  70.808  59.770  16.972
36165DA     SC135059  70.691  59.656  17.237
36165DA     SC235060  70.658  59.432  17.343
36165DA     SC335061  70.483  59.551  17.489
36165DA     SC435062  70.585  59.747  17.317
36166DA     BB135063  70.990  59.703  16.698
36166DA     BB235064  70.939  59.346  16.767
36166DA     BB335065  70.753  59.281  16.686
36166DA     SC135066  70.592  59.341  16.945
36166DA     SC235067  70.476  59.213  17.124
36166DA     SC335068  70.349  59.431  17.171
36166DA     SC435069  70.522  59.486  16.957
36167DT     BB135070  70.741  59.138  16.522
36167DT     BB235071  70.654  58.857  16.731
36167DT     BB335072  70.458  58.800  16.694
36167DT     SC135073  70.365  59.007  16.826
36167DT     SC235074  70.273  58.939  17.008
36167DT     SC335075  70.239  59.233  16.875
36168DT     BB135076  70.570  58.586  16.588
36168DT     BB235077  70.367  58.465  16.861
36168DT     BB335078  70.171  58.441  16.798
36168DT     SC135079  70.130  58.700  16.800
36168DT     SC235080  69.995  58.750  16.960
36168DT     SC335081  70.078  58.944  16.714
36169DA     BB135082  70.360  58.148  17.039
36169DA     BB235083  70.029  58.226  17.176
36169DA     BB335084  69.876  58.167  17.040
36169DA     SC135085  69.867  58.442  16.894
36169DA     SC235086  69.710  58.635  16.873
36169DA     SC335087  69.842  58.692  16.660
36169DA     SC435088  69.960  58.460  16.764
36170DT     BB135089  69.826  58.086  17.156
36170DT     BB235090  69.516  58.263  17.204
36170DT     BB335091  69.382  58.213  17.054
36170DT     SC135092  69.511  58.361  16.880
36170DT     SC235093  69.391  58.532  16.829
36170DT     SC335094  69.652  58.428  16.667
36171DG     BB135095  69.248  58.189  17.445
36171DG     BB235096  69.015  58.356  17.225
36171DG     BB335097  68.940  58.227  17.093
36171DG     SC135098  69.160  58.275  16.885
36171DG     SC235099  69.123  58.401  16.617
36171DG     SC335100  69.395  58.287  16.644
36171DG     SC435101  69.294  58.187  16.892
36172DG     BB135102  68.644  58.313  17.206
36172DG     BB235103  68.567  58.405  16.865
36172DG     BB335104  68.529  58.242  16.758
36172DG     SC135105  68.820  58.201  16.673
36172DG     SC235106  68.928  58.227  16.396
36172DG     SC335107  69.132  58.115  16.578
36172DG     SC435108  68.917  58.114  16.767
36173DT     BB135109  68.326  58.191  16.662
36173DT     BB235110  68.391  58.245  16.312
36173DT     BB335111  68.413  58.063  16.215
36173DT     SC135112  68.652  58.028  16.318
36173DT     SC235113  68.800  58.045  16.163
36173DT     SC335114  68.849  57.923  16.460
36174DG     BB135115  68.096  58.230  16.018
36174DG     BB235116  68.348  58.119  15.784
36174DG     BB335117  68.332  57.923  15.755
36174DG     SC135118  68.522  57.849  15.984
36174DG     SC235119  68.790  57.721  15.955
36174DG     SC335120  68.708  57.731  16.239
36174DG     SC435121  68.462  57.829  16.131
36175DC     BB135122  68.279  57.823  15.552
36175DC     BB235123  68.601  57.694  15.452
36175DC     BB335124  68.605  57.488  15.476
36175DC     SC135125  68.626  57.511  15.737
36175DC     SC235126  68.822  57.449  15.798
36175DC     SC335127  68.567  57.493  15.993
36176DT     BB135128  68.595  57.453  15.207
36176DT     BB235129  68.894  57.279  15.309
36176DT     BB335130  68.847  57.085  15.365
36176DT     SC135131  68.742  57.167  15.592
36176DT     SC235132  68.868  57.106  15.755
36176DT     SC335133  68.563  57.214  15.780
36177DG     BB135134  69.121  57.054  15.065
36177DG     BB235135  69.221  56.860  15.354
36177DG     BB335136  69.118  56.690  15.361
36177DG     SC135137  68.888  56.807  15.527
36177DG     SC235138  68.819  56.733  15.807
36177DG     SC335139  68.611  56.907  15.690
36177DG     SC435140  68.765  56.876  15.451
36178DC     BB135141  69.213  56.483  15.343
36178DC     BB235142  69.193  56.364  15.683
36178DC     BB335143  69.041  56.224  15.700
36178DC     SC135144  68.858  56.412  15.689
36178DC     SC235145  68.763  56.430  15.881
36178DC     SC335146  68.653  56.554  15.602
36179DA     BB135147  69.370  56.007  15.851
36179DA     BB235148  69.097  55.968  16.092
36179DA     BB335149  68.953  55.828  16.019
36179DA     SC135150  68.780  56.043  15.875
36179DA     SC235151  68.556  56.148  15.903
36179DA     SC335152  68.578  56.213  15.656
36179DA     SC435153  68.812  56.073  15.721
36180DA     BB135154  68.981  55.626  16.294
36180DA     BB235155  68.631  55.702  16.372
36180DA     BB335156  68.501  55.573  16.264
36180DA     SC135157  68.476  55.763  16.019
36180DA     SC235158  68.301  55.907  15.914
36180DA     SC335159  68.446  55.894  15.703
36180DA     SC435160  68.579  55.742  15.897
36181DT     BB135161  68.349  55.388  16.345
36181DT     BB235162  68.047  55.582  16.316
36181DT     BB335163  67.922  55.499  16.173
36181DT     SC135164  68.073  55.589  15.978
36181DT     SC235165  67.967  55.744  15.873
36181DT     SC335166  68.233  55.590  15.769
36182DA     BB135167  67.683  55.528  16.515
36182DA     BB235168  67.502  55.690  16.241
36182DA     BB335169  67.413  55.543  16.114
36182DA     SC135170  67.659  55.523  15.924
36182DA     SC235171  67.716  55.586  15.689
36182DA     SC335172  67.905  55.414  15.712
36182DA     SC435173  67.769  55.411  15.957
36183DA     BB135174  67.154  55.727  16.183
36183DA     BB235175  67.137  55.802  15.825
36183DA     BB335176  67.055  55.636  15.718
36183DA     SC135177  67.332  55.504  15.665
36183DA     SC235178  67.482  55.462  15.470
36183DA     SC335179  67.589  55.281  15.617
36183DA     SC435180  67.384  55.395  15.771
36184DA     BB135181  66.868  55.883  15.620
36184DA     BB235182  66.991  55.812  15.282
36184DA     BB335183  66.901  55.634  15.206
36184DA     SC135184  67.125  55.447  15.313
36184DA     SC235185  67.310  55.307  15.220
36184DA     SC335186  67.303  55.184  15.445
36184DA     SC435187  67.105  55.382  15.459
36185DG     BB135188  66.801  55.831  14.990
36185DG     BB235189  67.007  55.625  14.774
36185DG     BB335190  66.908  55.460  14.724
36185DG     SC135191  67.009  55.297  14.963
36185DG     SC235192  67.191  55.061  14.950
36185DG     SC335193  67.083  55.096  15.223
36185DG     SC435194  66.926  55.301  15.100
36186DT     BB135195  66.856  55.417  14.512
36186DT     BB235196  67.093  55.157  14.432
36186DT     BB335197  66.997  54.973  14.429
36186DT     SC135198  66.984  54.966  14.691
36186DT     SC235199  67.116  54.814  14.765
36186DT     SC335200  66.882  54.962  14.934
36187DA     BB135201  67.203  55.009  14.066
36187DA     BB235202  67.286  54.682  14.210
36187DA     BB335203  67.121  54.548  14.188
36187DA     SC135204  66.994  54.623  14.462
36187DA     SC235205  66.959  54.516  14.685
36187DA     SC335206  66.776  54.693  14.718
36187DA     SC435207  66.884  54.740  14.464
36188DT     BB135208  67.146  54.389  14.068
36188DT     BB235209  67.178  54.143  14.331
36188DT     BB335210  67.004  54.031  14.344
36188DT     SC135211  66.876  54.229  14.459
36188DT     SC235212  66.836  54.178  14.664
36188DT     SC335213  66.698  54.420  14.498
36189DA     BB135214  67.344  53.788  14.329
36189DA     BB235215  67.135  53.678  14.609
36189DA     BB335216  66.959  53.582  14.536
36189DA     SC135217  66.790  53.843  14.529
36189DA     SC235218  66.598  53.942  14.653
36189DA     SC335219  66.569  54.092  14.447
36189DA     SC435220  66.788  53.926  14.392
36190DC     BB135221  66.967  53.417  14.592
36190DC     BB235222  66.708  53.440  14.842
36190DC     BB335223  66.527  53.377  14.763
36190DC     SC135224  66.500  53.599  14.626
36190DC     SC235225  66.339  53.715  14.709
36190DC     SC335226  66.479  53.762  14.420
36191DA     BB135227  66.620  53.216  15.144
36191DA     BB235228  66.273  53.332  15.144
36191DA     BB335229  66.155  53.213  15.012
36191DA     SC135230  66.203  53.396  14.765
36191DA     SC235231  66.072  53.554  14.623
36191DA     SC335232  66.256  53.518  14.448
36191DA     SC435233  66.327  53.359  14.668
36192DA     BB135234  65.993  53.221  15.298
36192DA     BB235235  65.713  53.358  15.105
36192DA     BB335236  65.636  53.211  14.970
36192DA     SC135237  65.823  53.293  14.735
36192DA     SC235238  65.803  53.402  14.512
36192DA     SC335239  66.029  53.293  14.460
36192DA     SC435240  65.964  53.215  14.722
36193DT     BB135241  65.465  53.165  15.013
36193DT     BB235242  65.300  53.321  14.733
36193DT     BB335243  65.266  53.182  14.583
36193DT     SC135244  65.519  53.183  14.515
36193DT     SC235245  65.541  53.276  14.322
36193DT     SC335246  65.766  53.098  14.473
36194DA     BB135247  64.899  53.374  14.657
36194DA     BB235248  64.949  53.361  14.294
36194DA     BB335249  64.926  53.162  14.223
36194DA     SC135250  65.227  53.090  14.255
36194DA     SC235251  65.422  53.042  14.108
36194DA     SC335252  65.525  52.929  14.314
36194DA     SC435253  65.273  53.023  14.394
36195DT     BB135254  64.766  53.106  14.100
36195DT     BB235255  64.951  53.067  13.793
36195DT     BB335256  64.975  52.866  13.750
36195DT     SC135257  65.158  52.839  13.937
36195DT     SC235258  65.349  52.806  13.846
36195DT     SC335259  65.277  52.758  14.158
36196DG     BB135260  64.767  52.993  13.418
36196DG     BB235261  65.063  52.810  13.321
36196DG     BB335262  65.029  52.614  13.331
36196DG     SC135263  65.118  52.589  13.623
36196DG     SC235264  65.359  52.441  13.720
36196DG     SC335265  65.190  52.529  13.947
36196DG     SC435266  65.011  52.612  13.739
36197DA     BB135267  65.123  52.543  12.992
36197DA     BB235268  65.394  52.324  13.107
36197DA     BB335269  65.318  52.130  13.153
36197DA     SC135270  65.262  52.197  13.452
36197DA     SC235271  65.354  52.135  13.675
36197DA     SC335272  65.129  52.216  13.767
36197DA     SC435273  65.115  52.251  13.489
36198DT     BB135274  65.358  51.925  13.039
36198DT     BB235275  65.590  51.795  13.283
36198DT     BB335276  65.506  51.632  13.379
36198DT     SC135277  65.348  51.787  13.520
36198DT     SC235278  65.410  51.784  13.726
36198DT     SC335279  65.127  51.896  13.615
36199DA     BB135280  65.868  51.473  13.235
36199DA     BB235281  65.852  51.402  13.594
36199DA     BB335282  65.723  51.237  13.632
36199DA     SC135283  65.469  51.413  13.668
36199DA     SC235284  65.316  51.481  13.854
36199DA     SC335285  65.149  51.537  13.668
36199DA     SC435286  65.378  51.440  13.538
36200DA     BB135287  65.989  51.123  13.782
36200DA     BB235288  65.797  51.148  14.093
36200DA     BB335289  65.661  50.984  14.110
36200DA     SC135290  65.427  51.130  13.967
36200DA     SC235291  65.204  51.225  14.028
36200DA     SC335292  65.152  51.208  13.778
36200DA     SC435293  65.413  51.110  13.808
36201DT     BB135294  65.697  50.864  14.259
36201DT     BB235295  65.431  50.987  14.470
36201DT     BB335296  65.275  50.851  14.473
36201DT     SC135297  65.200  50.920  14.232
36201DT     SC235298  65.012  51.024  14.242
36201DT     SC335299  65.147  50.902  13.974
36202DC     BB135300  65.359  50.834  14.718
36202DC     BB235301  65.015  50.940  14.738
36202DC     BB335302  64.889  50.778  14.714
36202DC     SC135303  64.936  50.770  14.456
36202DC     SC235304  64.760  50.830  14.349
36202DC     SC335305  65.018  50.682  14.221
36203DT     BB135306  64.848  50.845  14.958
36203DT     BB235307  64.526  50.858  14.796
36203DT     BB335308  64.452  50.666  14.771
36203DT     SC135309  64.619  50.618  14.574
36203DT     SC235310  64.510  50.605  14.389
36203DT     SC335311  64.815  50.509  14.436
36204DT     BB135312  64.284  50.754  14.948
36204DT     BB235313  64.081  50.637  14.673
36204DT     BB335314  64.066  50.431  14.679
36204DT     SC135315  64.312  50.402  14.592
36204DT     SC235316  64.308  50.322  14.392
36204DT     SC335317  64.567  50.335  14.587
36205DC     BB135318  63.811  50.461  14.757
36205DC     BB235319  63.791  50.240  14.473
36205DC     BB335320  63.824  50.044  14.533
36205DC     SC135321  64.082  50.088  14.560
36205DC     SC235322  64.189  49.981  14.407
36205DC     SC335323  64.318  50.113  14.673
36206DA     BB135324  63.450  50.002  14.339
36206DA     BB235325  63.661  49.726  14.222
36206DA     BB335326  63.675  49.575  14.371
36206DA     SC135327  63.929  49.696  14.505
36206DA     SC235328  64.171  49.639  14.527
36206DA     SC335329  64.169  49.800  14.727
36206DA     SC435330  63.907  49.799  14.627
36207DC     BB135331  63.578  49.336  14.389
36207DC     BB235332  63.890  49.162  14.333
36207DC     BB335333  63.944  49.058  14.503
36207DC     SC135334  64.017  49.279  14.624
36207DC     SC235335  64.231  49.281  14.646
36207DC     SC335336  64.023  49.476  14.800
36208DA     BB135337  63.934  48.703  14.261
36208DA     BB235338  64.260  48.699  14.429
36208DA     BB335339  64.242  48.615  14.624
36208DA     SC135340  64.185  48.887  14.764
36208DA     SC235341  64.302  49.042  14.921
36208DA     SC335342  64.069  49.136  14.969
36208DA     SC435343  64.032  48.932  14.781
36209DG     BB135344  64.435  48.347  14.580
36209DG     BB235345  64.657  48.523  14.805
36209DG     BB335346  64.632  48.457  14.991
36209DG     SC135347  64.414  48.660  15.060
36209DG     SC235348  64.438  48.882  15.258
36209DG     SC335349  64.159  48.855  15.162
36209DG     SC435350  64.261  48.624  15.029
36210DT     BB135351  64.802  48.352  15.118
36210DT     BB235352  64.902  48.640  15.310
36210DT     BB335353  64.850  48.615  15.509
36210DT     SC135354  64.597  48.660  15.456
36210DT     SC235355  64.539  48.849  15.541
36210DT     SC335356  64.337  48.620  15.432
36211DT     BB135357  65.110  48.605  15.535
36211DT     BB235358  65.002  48.896  15.719
36211DT     BB335359  64.940  48.840  15.909
36211DT     SC135360  64.717  48.740  15.814
36211DT     SC235361  64.552  48.863  15.877
36211DT     SC335362  64.530  48.564  15.753
36212DG     BB135363  65.207  49.147  15.853
36212DG     BB235364  64.921  49.243  16.053
36212DG     BB335365  64.930  49.153  16.230
36212DG     SC135366  64.773  48.906  16.139
36212DG     SC235367  64.501  48.826  16.233
36212DG     SC335368  64.623  48.613  16.069
36212DG     SC435369  64.853  48.783  16.076
36213DT     BB135370  64.925  49.294  16.345
36213DT     BB235371  64.602  49.262  16.502
36213DT     BB335372  64.615  49.139  16.668
36213DT     SC135373  64.632  48.925  16.517
36213DT     SC235374  64.453  48.809  16.537
36213DT     SC335375  64.731  48.707  16.406
36214DA     BB135376  64.407  49.496  16.749
36214DA     BB235377  64.223  49.216  16.898
36214DA     BB335378  64.332  49.134  17.062
36214DA     SC135379  64.484  48.925  16.888
36214DA     SC235380  64.486  48.678  16.856
36214DA     SC335381  64.719  48.714  16.754
36214DA     SC435382  64.627  48.968  16.829
36215DT     BB135383  64.253  49.156  17.240
36215DT     BB235384  64.160  48.812  17.298
36215DT     BB335385  64.296  48.723  17.426
36215DT     SC135386  64.476  48.707  17.235
36215DT     SC235387  64.504  48.501  17.180
36215DT     SC335388  64.700  48.747  17.101
36216DA     BB135389  63.925  48.649  17.607
36216DA     BB235390  64.110  48.333  17.610
36216DA     BB335391  64.262  48.337  17.760
36216DA     SC135392  64.481  48.450  17.570
36216DA     SC235393  64.691  48.370  17.462
36216DA     SC335394  64.748  48.619  17.435
36216DA     SC435395  64.499  48.610  17.563
36217DG     BB135396  64.123  48.093  17.908
36217DG     BB235397  64.432  47.919  17.832
36217DG     BB335398  64.565  47.953  17.975
36217DG     SC135399  64.682  48.203  17.842
36217DG     SC235400  64.957  48.230  17.730
36217DG     SC335401  64.819  48.492  17.735
36217DG     SC435402  64.616  48.346  17.874
36218DT     BB135403  64.658  47.789  18.124
36218DT     BB235404  64.991  47.752  17.989
36218DT     BB335405  65.128  47.839  18.116
36218DT     SC135406  65.058  48.080  18.040
36218DT     SC235407  65.217  48.169  17.926
36218DT     SC335408  64.963  48.326  18.051
36219DC     BB135409  65.228  47.596  18.215
36219DC     BB235410  65.523  47.764  18.093
36219DC     BB335411  65.609  47.875  18.245
36219DC     SC135412  65.421  48.058  18.227
36219DC     SC235413  65.505  48.239  18.146
36219DC     SC335414  65.218  48.212  18.293
36220DT     BB135415  65.824  47.699  18.284
36220DT     BB235416  65.985  48.016  18.223
36220DT     BB335417  66.015  48.116  18.402
36220DT     SC135418  65.760  48.178  18.419
36220DT     SC235419  65.736  48.389  18.390
36220DT     SC335420  65.513  48.187  18.510
36221DT     BB135421  66.288  48.068  18.403
36221DT     BB235422  66.262  48.427  18.427
36221DT     BB335423  66.251  48.484  18.626
36221DT     SC135424  66.003  48.402  18.644
36221DT     SC235425  65.873  48.572  18.664
36221DT     SC335426  65.792  48.264  18.721
36222DT     BB135427  66.509  48.583  18.625
36222DT     BB235428  66.306  48.862  18.729
36222DT     BB335429  66.284  48.861  18.935
36222DT     SC135430  66.114  48.662  18.923
36222DT     SC235431  65.917  48.733  18.976
36222DT     SC335432  66.009  48.422  18.958
36223DG     BB135433  66.454  49.219  18.842
36223DG     BB235434  66.156  49.264  19.042
36223DG     BB335435  66.197  49.228  19.233
36223DG     SC135436  66.133  48.929  19.218
36223DG     SC235437  65.906  48.791  19.354
36223DG     SC335438  66.091  48.595  19.232
36223DG     SC435439  66.250  48.827  19.177
36224DA     BB135440  66.048  49.535  19.286
36224DA     BB235441  65.799  49.375  19.503
36224DA     BB335442  65.886  49.326  19.692
36224DA     SC135443  65.975  49.041  19.603
36224DA     SC235444  65.912  48.804  19.652
36224DA     SC335445  66.144  48.745  19.560
36224DA     SC435446  66.123  49.024  19.544
36225DA     BB135447  65.622  49.496  19.783
36225DA     BB235448  65.515  49.193  19.960
36225DA     BB335449  65.635  49.163  20.134
36225DA     SC135450  65.847  48.988  19.988
36225DA     SC235451  65.920  48.749  19.985
36225DA     SC335452  66.137  48.838  19.883
36225DA     SC435453  65.975  49.063  19.926
36226DT     BB135454  65.543  49.178  20.306
36226DT     BB235455  65.541  48.827  20.390
36226DT     BB335456  65.688  48.786  20.529
36226DT     SC135457  65.877  48.806  20.348
36226DT     SC235458  65.961  48.611  20.311
36226DT     SC335459  66.089  48.894  20.219
36227DT     BB135460  65.503  48.755  20.729
36227DT     BB235461  65.690  48.446  20.733
36227DT     BB335462  65.856  48.465  20.855
36227DT     SC135463  65.980  48.611  20.676
36227DT     SC235464  66.145  48.499  20.595
36227DT     SC335465  66.098  48.818  20.563
36228DT     BB135466  65.750  48.311  21.063
36228DT     BB235467  66.063  48.149  20.986
36228DT     BB335468  66.215  48.231  21.101
36228DT     SC135469  66.219  48.448  20.954
36228DT     SC235470  66.402  48.454  20.840
36228DT     SC335471  66.198  48.702  20.885
36229DT     BB135472  66.241  48.012  21.280
36229DT     BB235473  66.572  48.051  21.143
36229DT     BB335474  66.684  48.179  21.262
36229DT     SC135475  66.554  48.389  21.173
36229DT     SC235476  66.686  48.507  21.051
36229DT     SC335477  66.400  48.603  21.170
36230DT     BB135478  66.844  47.976  21.372
36230DT     BB235479  67.080  48.201  21.219
36230DT     BB335480  67.140  48.344  21.356
36230DT     SC135481  66.911  48.471  21.336
36230DT     SC235482  66.942  48.659  21.237
36230DT     SC335483  66.678  48.574  21.404
36231DA     BB135484  67.489  48.174  21.200
36231DA     BB235485  67.520  48.538  21.171
36231DA     BB335486  67.562  48.625  21.361
36231DA     SC135487  67.263  48.668  21.435
36231DA     SC235488  67.106  48.859  21.464
36231DA     SC335489  66.963  48.695  21.600
36231DA     SC435490  67.189  48.551  21.517
36232DT     BB135491  67.739  48.712  21.381
36232DT     BB235492  67.617  49.051  21.365
36232DT     BB335493  67.619  49.136  21.554
36232DT     SC135494  67.407  48.998  21.625
36232DT     SC235495  67.239  49.130  21.648
36232DT     SC335496  67.256  48.825  21.756
36233DT     BB135497  67.818  49.286  21.463
36233DT     BB235498  67.564  49.520  21.567
36233DT     BB335499  67.578  49.555  21.770
36233DT     SC135500  67.474  49.320  21.826
36233DT     SC235501  67.278  49.348  21.911
36233DT     SC335502  67.452  49.074  21.919
36234DA     BB135503  67.555  49.912  21.553
36234DA     BB235504  67.313  49.928  21.828
36234DA     BB335505  67.415  49.946  22.015
36234DA     SC135506  67.433  49.640  22.064
36234DA     SC235507  67.333  49.471  22.218
36234DA     SC335508  67.533  49.324  22.154
36234DA     SC435509  67.565  49.564  22.013
36235DT     BB135510  67.374  50.105  22.091
36235DT     BB235511  67.161  49.977  22.353
36235DT     BB335512  67.269  49.961  22.529
36235DT     SC135513  67.394  49.747  22.442
36235DT     SC235514  67.328  49.575  22.552
36235DT     SC335515  67.590  49.590  22.363
36236DT     BB135516  67.118  50.161  22.608
36236DT     BB235517  67.066  49.902  22.853
36236DT     BB335518  67.220  49.904  22.992
36236DT     SC135519  67.386  49.794  22.820
36236DT     SC235520  67.431  49.594  22.883
36236DT     SC335521  67.594  49.765  22.661
36237DG     BB135522  66.865  49.943  23.189
36237DG     BB235523  67.069  49.683  23.334
36237DG     BB335524  67.215  49.763  23.443
36237DG     SC135525  67.413  49.778  23.210
36237DG     SC235526  67.666  49.622  23.185
36237DG     SC335527  67.648  49.828  22.973
36237DG     SC435528  67.414  49.909  23.117
36238DT     BB135529  67.226  49.728  23.657
36238DT     BB235530  67.509  49.507  23.687
36238DT     BB335531  67.676  49.613  23.749
36238DT     SC135532  67.706  49.721  23.512
36238DT     SC235533  67.883  49.642  23.419
36238DT     SC335534  67.719  49.904  23.323
36239DG     BB135535  67.629  49.331  24.043
36239DG     BB235536  67.970  49.336  23.924
36239DG     BB335537  68.070  49.486  24.008
36239DG     SC135538  67.998  49.688  23.789
36239DG     SC235539  68.189  49.813  23.597
36239DG     SC335540  67.922  49.940  23.578
36239DG     SC435541  67.863  49.773  23.803
36240DC     BB135542  68.260  49.476  24.165
36240DC     BB235543  68.532  49.576  23.951
36240DC     BB335544  68.596  49.766  24.001
36240DC     SC135545  68.385  49.874  23.888
36240DC     SC235546  68.446  49.981  23.711
36240DC     SC335547  68.159  50.008  23.860
36241DT     BB135548  68.840  49.698  24.142
36241DT     BB235549  68.952  49.928  23.887
36241DT     BB335550  68.955  50.121  23.962
36241DT     SC135551  68.693  50.138  23.951
36241DT     SC235552  68.637  50.278  23.797
36241DT     SC335553  68.443  50.163  24.029
36242DT     BB135554  69.238  50.144  23.988
36242DT     BB235555  69.148  50.419  23.773
36242DT     BB335556  69.113  50.589  23.886
36242DT     SC135557  68.882  50.497  23.968
36242DT     SC235558  68.723  50.612  23.880
36242DT     SC335559  68.693  50.408  24.130
36243DA     BB135560  69.393  50.702  23.596
36243DA     BB235561  69.118  50.944  23.585
36243DA     BB335562  69.131  51.078  23.751
36243DA     SC135563  68.953  50.902  23.937
36243DA     SC235564  68.726  50.913  24.038
36243DA     SC335565  68.814  50.740  24.205
36243DA     SC435566  69.027  50.796  24.032
36244DT     BB135567  69.165  51.266  23.707
36244DT     BB235568  68.829  51.383  23.764
36244DT     BB335569  68.819  51.484  23.945
36244DT     SC135570  68.831  51.260  24.080
36244DT     SC235571  68.641  51.223  24.174
36244DT     SC335572  68.920  51.073  24.244
36245DA     BB135573  68.644  51.705  23.634
36245DA     BB235574  68.410  51.695  23.916
36245DA     BB335575  68.482  51.815  24.077
36245DA     SC135576  68.637  51.582  24.213
36245DA     SC235577  68.619  51.444  24.420
36245DA     SC335578  68.867  51.391  24.382
36245DA     SC435579  68.792  51.562  24.173
36246DT     BB135580  68.369  51.954  24.107
36246DT     BB235581  68.226  51.831  24.414
36246DT     BB335582  68.320  51.919  24.576
36246DT     SC135583  68.534  51.771  24.543
36246DT     SC235584  68.549  51.630  24.705
36246DT     SC335585  68.785  51.703  24.495
36247DA     BB135586  67.902  51.945  24.614
36247DA     BB235587  68.041  51.826  24.932
36247DA     BB335588  68.149  51.982  25.029
36247DA     SC135589  68.421  51.910  24.897
36247DA     SC235590  68.640  51.815  24.967
36247DA     SC335591  68.732  51.921  24.753
36247DA     SC435592  68.459  51.985  24.760
36248DA     BB135593  67.945  51.892  25.271
36248DA     BB235594  68.246  51.818  25.468
36248DA     BB335595  68.340  51.999  25.530
36248DA     SC135596  68.524  52.018  25.280
36248DA     SC235597  68.766  51.996  25.226
36248DA     SC335598  68.711  52.128  25.014
36248DA     SC435599  68.469  52.103  25.154
36249DT     BB135600  68.344  52.048  25.729
36249DT     BB235601  68.694  51.981  25.784
36249DT     BB335602  68.799  52.159  25.798
36249DT     SC135603  68.783  52.198  25.539
36249DT     SC235604  68.979  52.175  25.452
36249DT     SC335605  68.720  52.308  25.308
36250DT     BB135606  68.832  52.133  26.070
36250DT     BB235607  69.167  52.167  25.943
36250DT     BB335608  69.218  52.368  25.932
36250DT     SC135609  69.068  52.402  25.719
36250DT     SC235610  69.193  52.436  25.548
36250DT     SC335611  68.874  52.491  25.564
36251DA     BB135612  69.529  52.199  26.158
36251DA     BB235613  69.684  52.399  25.893
36251DA     BB335614  69.671  52.607  25.940
36251DA     SC135615  69.399  52.648  25.795
36251DA     SC235616  69.314  52.763  25.591
36251DA     SC335617  69.084  52.750  25.704
36251DA     SC435618  69.265  52.632  25.883
36252DA     BB135619  69.998  52.602  25.898
36252DA     BB235620  69.949  52.836  25.621
36252DA     BB335621  69.917  53.034  25.695
36252DA     SC135622  69.607  53.004  25.709
36252DA     SC235623  69.408  53.095  25.590
36252DA     SC335624  69.276  53.023  25.799
36252DA     SC435625  69.543  52.954  25.848
36253DA     BB135626  70.166  53.099  25.493
36253DA     BB235627  69.934  53.315  25.309
36253DA     BB335628  69.905  53.499  25.414
36253DA     SC135629  69.660  53.395  25.576
36253DA     SC235630  69.414  53.435  25.585
36253DA     SC335631  69.426  53.333  25.820
36253DA     SC435632  69.689  53.330  25.720
36254DT     BB135633  69.970  53.661  25.325
36254DT     BB235634  69.648  53.787  25.225
36254DT     BB335635  69.591  53.943  25.348
36254DT     SC135636  69.535  53.778  25.544
36254DT     SC235637  69.323  53.774  25.576
36254DT     SC335638  69.547  53.660  25.780
36255DT     BB135639  69.632  54.101  25.138
36255DT     BB235640  69.288  54.155  25.232
36255DT     BB335641  69.277  54.296  25.383
36255DT     SC135642  69.363  54.123  25.560
36255DT     SC235643  69.203  54.074  25.695
36255DT     SC335644  69.518  54.009  25.741
36256DA     BB135645  69.012  54.393  25.074
36256DA     BB235646  68.831  54.415  25.392
36256DA     BB335647  68.898  54.584  25.504
36256DA     SC135648  69.120  54.427  25.654
36256DA     SC235649  69.165  54.348  25.886
36256DA     SC335650  69.411  54.334  25.812
36256DA     SC435651  69.268  54.427  25.589
36257DT     BB135652  68.764  54.714  25.527
36257DT     BB235653  68.703  54.655  25.878
36257DT     BB335654  68.801  54.797  25.992
36257DT     SC135655  69.033  54.682  25.949
36257DT     SC235656  69.103  54.594  26.132
36257DT     SC335657  69.281  54.646  25.866
36258DT     BB135658  68.562  54.904  26.046
36258DT     BB235659  68.707  54.836  26.369
36258DT     BB335660  68.830  54.993  26.426
36258DT     SC135661  69.017  54.918  26.257
36258DT     SC235662  69.186  54.842  26.366
36258DT     SC335663  69.183  54.923  26.052
36259DA     BB135664  68.566  54.926  26.746
36259DA     BB235665  68.906  54.949  26.883
36259DA     BB335666  68.974  55.151  26.878
36259DA     SC135667  69.103  55.126  26.596
36259DA     SC235668  69.332  55.123  26.498
36259DA     SC335669  69.216  55.185  26.277
36259DA     SC435670  69.012  55.166  26.469
36260DC     BB135671  69.006  55.259  27.055
36260DC     BB235672  69.367  55.255  27.046
36260DC     BB335673  69.438  55.441  26.993
36260DC     SC135674  69.369  55.406  26.742
36260DC     SC235675  69.546  55.385  26.622
36260DC     SC335676  69.246  55.440  26.511
36261DT     BB135677  69.527  55.513  27.252
36261DT     BB235678  69.822  55.554  27.048
36261DT     BB335679  69.834  55.748  26.979
36261DT     SC135680  69.643  55.705  26.804
36261DT     SC235681  69.726  55.707  26.605
36261DT     SC335682  69.411  55.724  26.679
36262DA     BB135683  70.207  55.692  27.164
36262DA     BB235684  70.272  55.835  26.832
36262DA     BB335685  70.230  56.044  26.832
36262DA     SC135686  69.934  56.009  26.745
36262DA     SC235687  69.794  56.055  26.544
36262DA     SC335688  69.594  56.042  26.705
36262DA     SC435689  69.823  55.999  26.861
36263DG     BB135690  70.534  56.102  26.762
36263DG     BB235691  70.397  56.233  26.454
36263DG     BB335692  70.347  56.425  26.478
36263DG     SC135693  70.062  56.364  26.571
36263DG     SC235694  69.812  56.431  26.422
36263DG     SC335695  69.750  56.334  26.695
36263DG     SC435696  70.035  56.340  26.726
36264DT     BB135697  70.446  56.623  26.366
36264DT     BB235698  70.185  56.703  26.130
36264DT     BB335699  70.090  56.878  26.186
36264DT     SC135700  69.963  56.756  26.381
36264DT     SC235701  69.754  56.744  26.333
36264DT     SC335702  69.885  56.691  26.624
36265DA     BB135703  70.207  56.970  25.792
36265DA     BB235704  69.851  57.053  25.820
36265DA     BB335705  69.827  57.240  25.920
36265DA     SC135706  69.807  57.114  26.204
36265DA     SC235707  69.632  57.080  26.379
36265DA     SC335708  69.830  57.050  26.540
36265DA     SC435709  69.943  57.099  26.288
36266DT     BB135710  69.748  57.438  25.825
36266DT     BB235711  69.420  57.419  25.973
36266DT     BB335712  69.395  57.572  26.111
36266DT     SC135713  69.549  57.449  26.285
36266DT     SC235714  69.429  57.381  26.450
36266DT     SC335715  69.753  57.401  26.445
36267DT     BB135716  69.221  57.721  25.948
36267DT     BB235717  69.030  57.653  26.247
36267DT     BB335718  69.055  57.807  26.383
36267DT     SC135719  69.296  57.725  26.444
36267DT     SC235720  69.297  57.647  26.644
36267DT     SC335721  69.559  57.725  26.470
36268DT     BB135722  68.800  57.875  26.333
36268DT     BB235723  68.811  57.796  26.685
36268DT     BB335724  68.865  57.964  26.793
36268DT     SC135725  69.115  57.942  26.717
36268DT     SC235726  69.236  57.885  26.885
36268DT     SC335727  69.346  58.000  26.602
36269DA     BB135728  68.541  57.737  26.930
36269DA     BB235729  68.773  57.795  27.208
36269DA     BB335730  68.775  58.002  27.261
36269DA     SC135731  69.007  58.075  27.067
36269DA     SC235732  69.246  58.144  27.083
36269DA     SC335733  69.215  58.233  26.844
36269DA     SC435734  68.967  58.125  26.919
36270DC     BB135735  68.736  57.954  27.398
36270DC     BB235736  69.044  58.042  27.564
36270DC     BB335737  69.050  58.246  27.599
36270DC     SC135738  69.099  58.296  27.346
36270DC     SC235739  69.300  58.368  27.325
36270DC     SC335740  69.068  58.386  27.100
36271DT     BB135741  69.052  58.114  27.815
36271DT     BB235742  69.338  58.333  27.821
36271DT     BB335743  69.276  58.530  27.836
36271DT     SC135744  69.200  58.534  27.585
36271DT     SC235745  69.331  58.662  27.472
36271DT     SC335746  69.043  58.551  27.374
36272DT     BB135747  69.384  58.500  28.069
36272DT     BB235748  69.538  58.794  27.928
36272DT     BB335749  69.408  58.955  27.943
36272DT     SC135750  69.259  58.863  27.747
36272DT     SC235751  69.281  58.990  27.575
36272DT     SC335752  69.050  58.767  27.619
36273DC     BB135753  69.560  59.061  28.140
36273DC     BB235754  69.528  59.328  27.900
36273DC     BB335755  69.353  59.433  27.933
36273DC     SC135756  69.209  59.239  27.830
36273DC     SC235757  69.125  59.304  27.643
36273DC     SC335758  69.033  59.043  27.812
36274DA     BB135759  69.637  59.745  27.948
36274DA     BB235760  69.365  59.858  27.730
36274DA     BB335761  69.196  59.917  27.846
36274DA     SC135762  69.065  59.635  27.843
36274DA     SC235763  68.865  59.525  27.741
36274DA     SC335764  68.895  59.347  27.924
36274DA     SC435765  69.099  59.535  27.964
36275DT     BB135766  69.118  60.128  27.869
36275DT     BB235767  68.828  60.087  27.658
36275DT     BB335768  68.656  60.090  27.772
36275DT     SC135769  68.702  59.848  27.862
36275DT     SC235770  68.556  59.713  27.780
36275DT     SC335771  68.753  59.651  28.031
36276DA     BB135772  68.591  60.382  27.477
36276DA     BB235773  68.297  60.162  27.482
36276DA     BB335774  68.175  60.205  27.651
36276DA     SC135775  68.317  60.000  27.837
36276DA     SC235776  68.263  59.782  27.946
36276DA     SC335777  68.457  59.837  28.105
36276DA     SC435778  68.439  60.053  27.926
36277DT     BB135779  67.991  60.282  27.620
36277DT     BB235780  67.807  59.980  27.693
36277DT     BB335781  67.717  59.996  27.879
36277DT     SC135782  67.946  59.961  28.002
36277DT     SC235783  67.946  59.769  28.100
36277DT     SC335784  68.157  60.010  28.153
36278DA     BB135785  67.431  59.875  27.597
36278DA     BB235786  67.409  59.651  27.886
36278DA     BB335787  67.322  59.753  28.052
36278DA     SC135788  67.595  59.850  28.165
36278DA     SC235789  67.741  59.804  28.362
36278DA     SC335790  67.848  60.032  28.311
36278DA     SC435791  67.648  59.995  28.118
36279DA     BB135792  67.128  59.488  28.036
36279DA     BB235793  67.241  59.411  28.377
36279DA     BB335794  67.151  59.545  28.517
36279DA     SC135795  67.381  59.754  28.501
36279DA     SC235796  67.564  59.839  28.648
36279DA     SC335797  67.565  60.044  28.494
36279DA     SC435798  67.365  59.873  28.395
36280DT     BB135799  67.022  59.469  28.649
36280DT     BB235800  67.235  59.490  28.939
36280DT     BB335801  67.179  59.651  29.056
36280DT     SC135802  67.285  59.822  28.888
36280DT     SC235803  67.459  59.911  28.978
36280DT     SC335804  67.306  60.018  28.713
36281DA     BB135805  67.190  59.316  29.311
36281DA     BB235806  67.378  59.587  29.471
36281DA     BB335807  67.244  59.737  29.544
36281DA     SC135808  67.251  59.904  29.282
36281DA     SC235809  67.340  60.124  29.206
36281DA     SC335810  67.170  60.104  29.014
36281DA     SC435811  67.138  59.874  29.172
36282DT     BB135812  67.232  59.763  29.742
36282DT     BB235813  67.417  60.073  29.755
36282DT     BB335814  67.287  60.232  29.780
36282DT     SC135815  67.208  60.217  29.530
36282DT     SC235816  67.280  60.389  29.422
36282DT     SC335817  67.050  60.183  29.321
36283DG     BB135818  67.558  60.237  30.085
36283DG     BB235819  67.543  60.555  29.913
36283DG     BB335820  67.379  60.654  29.967
36283DG     SC135821  67.204  60.535  29.746
36283DG     SC235822  67.086  60.684  29.516
36283DG     SC335823  66.978  60.409  29.530
36283DG     SC435824  67.127  60.397  29.774
36284DT     BB135825  67.404  60.841  30.062
36284DT     BB235826  67.310  61.070  29.800
36284DT     BB335827  67.116  61.135  29.830
36284DT     SC135828  67.018  60.906  29.749
36284DT     SC235829  66.920  60.932  29.559
36284DT     SC335830  66.891  60.675  29.754
36285DA     BB135831  67.365  61.469  29.771
36285DA     BB235832  67.073  61.504  29.552
36285DA     BB335833  66.898  61.546  29.668
36285DA     SC135834  66.821  61.247  29.705
36285DA     SC235835  66.642  61.092  29.627
36285DA     SC335836  66.708  60.947  29.828
36285DA     SC435837  66.875  61.172  29.836
36286DC     BB135838  66.814  61.723  29.643
36286DC     BB235839  66.527  61.610  29.457
36286DC     BB335840  66.361  61.604  29.580
36286DC     SC135841  66.447  61.387  29.699
36286DC     SC235842  66.321  61.221  29.645
36286DC     SC335843  66.534  61.226  29.889
36287DA     BB135844  66.246  61.833  29.246
36287DA     BB235845  65.988  61.579  29.302
36287DA     BB335846  65.871  61.629  29.473
36287DA     SC135847  66.052  61.472  29.672
36287DA     SC235848  66.037  61.267  29.812
36287DA     SC335849  66.230  61.369  29.947
36287DA     SC435850  66.171  61.553  29.744
36288DC     BB135851  65.665  61.683  29.459
36288DC     BB235852  65.535  61.370  29.583
36288DC     BB335853  65.461  61.396  29.775
36288DC     SC135854  65.703  61.407  29.876
36288DC     SC235855  65.739  61.231  29.993
36288DC     SC335856  65.917  61.502  29.997
36289DA     BB135857  65.153  61.218  29.553
36289DA     BB235858  65.203  61.019  29.857
36289DA     BB335859  65.123  61.121  30.027
36289DA     SC135860  65.388  61.269  30.094
36289DA     SC235861  65.563  61.262  30.271
36289DA     SC335862  65.624  61.498  30.191
36289DA     SC435863  65.410  61.415  30.030
36290DT     BB135864  64.975  61.032  30.111
36290DT     BB235865  65.164  60.907  30.391
36290DT     BB335866  65.127  61.022  30.559
36290DT     SC135867  65.274  61.218  30.468
36290DT     SC235868  65.453  61.235  30.587
36290DT     SC335869  65.342  61.457  30.378
36291DT     BB135870  64.997  60.809  30.653
36291DT     BB235871  65.259  60.874  30.893
36291DT     BB335872  65.197  61.017  31.028
36291DT     SC135873  65.226  61.209  30.851
36291DT     SC235874  65.391  61.334  30.907
36291DT     SC335875  65.165  61.406  30.687
36292DT     BB135876  65.202  60.814  31.192
36292DT     BB235877  65.430  61.057  31.331
36292DT     BB335878  65.325  61.200  31.436
36292DT     SC135879  65.241  61.313  31.214
36292DT     SC235880  65.336  61.505  31.191
36292DT     SC335881  65.078  61.399  31.026
36293DT     BB135882  65.445  61.085  31.636
36293DT     BB235883  65.545  61.431  31.649
36293DT     BB335884  65.395  61.545  31.736
36293DT     SC135885  65.247  61.531  31.520
36293DT     SC235886  65.238  61.725  31.427
36293DT     SC335887  65.044  61.473  31.362
36294DA     BB135888  65.776  61.624  31.898
36294DA     BB235889  65.610  61.943  31.823
36294DA     BB335890  65.446  61.974  31.956
36294DA     SC135891  65.238  61.836  31.769
36294DA     SC235892  65.044  61.903  31.628
36294DA     SC335893  64.974  61.657  31.642
36294DA     SC435894  65.211  61.679  31.791
36295DA     BB135895  65.623  62.249  31.973
36295DA     BB235896  65.317  62.422  31.865
36295DA     BB335897  65.171  62.416  32.020
36295DA     SC135898  65.041  62.151  31.921
36295DA     SC235899  64.827  62.078  31.815
36295DA     SC335900  64.888  61.844  31.901
36295DA     SC435901  65.096  62.013  31.984
36296DA     BB135902  65.185  62.736  31.946
36296DA     BB235903  64.826  62.711  31.873
36296DA     BB335904  64.715  62.685  32.053
36296DA     SC135905  64.726  62.374  32.043
36296DA     SC235906  64.568  62.185  32.004
36296DA     SC335907  64.744  62.041  32.123
36296DA     SC435908  64.847  62.302  32.120
36297DA     BB135909  64.553  62.945  31.929
36297DA     BB235910  64.251  62.738  31.942
36297DA     BB335911  64.186  62.713  32.144
36297DA     SC135912  64.351  62.454  32.191
36297DA     SC235913  64.307  62.211  32.224
36297DA     SC335914  64.542  62.203  32.326
36297DA     SC435915  64.499  62.470  32.252
36298DC     BB135916  64.007  62.799  32.214
36298DC     BB235917  63.815  62.496  32.244
36298DC     BB335918  63.797  62.443  32.444
36298DC     SC135919  64.046  62.361  32.453
36298DC     SC235920  64.049  62.146  32.473
36298DC     SC335921  64.300  62.346  32.522
36299DT     BB135922  63.525  62.525  32.482
36299DT     BB235923  63.523  62.182  32.594
36299DT     BB335924  63.560  62.175  32.798
36299DT     SC135925  63.815  62.227  32.761
36299DT     SC235926  63.931  62.052  32.808
36299DT     SC335927  64.046  62.352  32.771
36300DT     BB135928  63.290  62.124  32.907
36300DT     BB235929  63.484  61.855  33.047
36300DT     BB335930  63.552  61.907  33.236
36300DT     SC135931  63.732  62.069  33.135
36300DT     SC235932  63.928  61.986  33.169
36300DT     SC335933  63.863  62.291  33.079
36301DG     BB135934  63.321  61.582  33.347
36301DG     BB235935  63.658  61.545  33.471
36301DG     BB335936  63.678  61.640  33.645
36301DG     SC135937  63.761  61.906  33.518
36301DG     SC235938  64.029  62.035  33.542
36301DG     SC335939  63.835  62.217  33.413
36301DG     SC435940  63.647  62.011  33.476
36302DA     BB135941  63.800  61.349  33.792
36302DA     BB235942  64.122  61.513  33.853
36302DA     BB335943  64.111  61.634  34.028
36302DA     SC135944  64.023  61.890  33.876
36302DA     SC235945  64.119  62.113  33.817
36302DA     SC335946  63.876  62.187  33.784
36302DA     SC435947  63.865  61.918  33.862
36303DA     BB135948  64.370  61.447  34.085
36303DA     BB235949  64.564  61.758  34.084
36303DA     BB335950  64.530  61.867  34.264
36303DA     SC135951  64.292  62.030  34.148
36303DA     SC235952  64.244  62.266  34.081
36303DA     SC335953  63.997  62.201  34.104
36303DA     SC435954  64.144  61.971  34.169
36304DA     BB135955  64.851  61.840  34.223
36304DA     BB235956  64.852  62.206  34.212
36304DA     BB335957  64.806  62.286  34.405
36304DA     SC135958  64.499  62.298  34.353
36304DA     SC235959  64.324  62.472  34.318
36304DA     SC335960  64.157  62.288  34.383
36304DA     SC435961  64.411  62.170  34.397
36305DG     BB135962  65.079  62.402  34.326
36305DG     BB235963  64.892  62.711  34.340
36305DG     BB335964  64.856  62.760  34.530
36305DG     SC135965  64.591  62.607  34.545
36305DG     SC235966  64.320  62.729  34.576
36305DG     SC335967  64.307  62.435  34.603
36305DG     SC435968  64.592  62.453  34.587
36306DA     BB135969  64.983  63.063  34.422
36306DA     BB235970  64.673  63.226  34.530
36306DA     BB335971  64.662  63.230  34.743
36306DA     SC135972  64.513  62.958  34.765
36306DA     SC235973  64.285  62.877  34.828
36306DA     SC335974  64.398  62.650  34.864
36306DA     SC435975  64.602  62.826  34.784
36307DT     BB135976  64.670  63.406  34.827
36307DT     BB235977  64.325  63.426  34.930
36307DT     BB335978  64.309  63.382  35.131
36307DT     SC135979  64.346  63.126  35.087
36307DT     SC235980  64.162  63.020  35.125
36307DT     SC335981  64.456  62.887  35.093
36308DA     BB135982  64.117  63.755  35.095
36308DA     BB235983  63.895  63.536  35.287
36308DA     BB335984  63.968  63.513  35.486
36308DA     SC135985  64.139  63.261  35.420
36308DA     SC235986  64.135  63.017  35.470
36308DA     SC335987  64.384  63.021  35.407
36308DA     SC435988  64.292  63.285  35.378
36309DA     BB135989  63.670  63.620  35.590
36309DA     BB235990  63.625  63.292  35.749
36309DA     BB335991  63.730  63.284  35.934
36309DA     SC135992  63.992  63.174  35.808
36309DA     SC235993  64.122  62.961  35.809
36309DA     SC335994  64.320  63.105  35.733
36309DA     SC435995  64.104  63.280  35.763
36310DA     BB135996  63.436  63.200  36.055
36310DA     BB235997  63.587  62.878  36.145
36310DA     BB335998  63.705  62.898  36.321
36310DA     SC135999  63.967  62.965  36.167
36310DA     SC236000  64.186  62.855  36.120
36310DA     SC336001  64.270  63.092  36.069
36310DA     SC436002  64.001  63.120  36.141
36311DG     BB136003  63.507  62.689  36.436
36311DG     BB236004  63.802  62.481  36.440
36311DG     BB336005  63.908  62.516  36.604
36311DG     SC136006  64.076  62.739  36.479
36311DG     SC236007  64.369  62.728  36.424
36311DG     SC336008  64.263  63.001  36.379
36311DG     SC436009  64.022  62.890  36.484
36312DA     BB136010  63.895  62.174  36.638
36312DA     BB236011  64.261  62.162  36.621
36312DA     BB336012  64.346  62.229  36.805
36312DA     SC136013  64.364  62.527  36.716
36312DA     SC236014  64.542  62.691  36.658
36312DA     SC336015  64.364  62.870  36.705
36312DA     SC436016  64.240  62.622  36.751
36313DA     BB136017  64.488  61.940  36.758
36313DA     BB236018  64.804  62.125  36.748
36313DA     BB336019  64.857  62.192  36.943
36313DA     SC136020  64.710  62.465  36.915
36313DA     SC236021  64.771  62.706  36.895
36313DA     SC336022  64.531  62.752  36.973
36313DA     SC436023  64.558  62.473  36.966
36314DA     BB136024  65.122  62.036  36.837
36314DA     BB236025  65.295  62.358  36.874
36314DA     BB336026  65.322  62.404  37.081
36314DA     SC136027  65.053  62.559  37.106
36314DA     SC236028  64.978  62.795  37.137
36314DA     SC336029  64.757  62.693  37.216
36314DA     SC436030  64.923  62.476  37.153
36315DT     BB136031  65.497  62.409  37.118
36315DT     BB236032  65.525  62.767  37.147
36315DT     BB336033  65.516  62.823  37.347
36315DT     SC136034  65.258  62.780  37.355
36315DT     SC236035  65.155  62.968  37.374
36315DT     SC336036  65.025  62.675  37.423
36316DC     BB136037  65.764  62.882  37.299
36316DC     BB236038  65.610  63.188  37.412
36316DC     BB336039  65.594  63.187  37.618
36316DC     SC136040  65.395  63.017  37.610
36316DC     SC236041  65.214  63.116  37.670
36316DC     SC336042  65.256  62.795  37.646
36317DA     BB136043  65.749  63.545  37.456
36317DA     BB236044  65.491  63.627  37.703
36317DA     BB336045  65.555  63.573  37.899
36317DA     SC136046  65.434  63.286  37.885
36317DA     SC236047  65.246  63.160  37.990
36317DA     SC336048  65.375  62.950  37.918
36317DA     SC436049  65.529  63.168  37.833
36318DA     BB136050  65.445  63.883  37.910
36318DA     BB236051  65.218  63.763  38.171
36318DA     BB336052  65.328  63.702  38.343
36318DA     SC136053  65.358  63.407  38.250
36318DA     SC236054  65.272  63.182  38.316
36318DA     SC336055  65.473  63.089  38.187
36318DA     SC436056  65.490  63.368  38.166
36319DG     BB136057  65.143  63.919  38.466
36319DG     BB236058  65.031  63.641  38.669
36319DG     BB336059  65.168  63.599  38.808
36319DG     SC136060  65.320  63.400  38.632
36319DG     SC236061  65.341  63.105  38.678
36319DG     SC336062  65.522  63.191  38.461
36319DG     SC436063  65.437  63.454  38.537
36320DT     BB136064  65.133  63.621  39.031
36320DT     BB236065  65.121  63.280  39.147
36320DT     BB336066  65.302  63.229  39.234
36320DT     SC136067  65.420  63.211  39.001
36320DT     SC236068  65.466  63.005  38.959
36320DT     SC336069  65.585  63.262  38.802
36321DG     BB136070  65.075  63.182  39.582
36321DG     BB236071  65.285  62.891  39.536
36321DG     BB336072  65.465  62.924  39.614
36321DG     SC136073  65.582  63.041  39.356
36321DG     SC236074  65.798  62.918  39.190
36321DG     SC336075  65.738  63.192  39.098
36321DG     SC436076  65.568  63.198  39.329
36322DA     BB136077  65.489  62.642  39.846
36322DA     BB236078  65.781  62.506  39.671
36322DA     BB336079  65.960  62.596  39.744
36322DA     SC136080  65.958  62.828  39.537
36322DA     SC236081  66.091  62.899  39.338
36322DA     SC336082  65.989  63.131  39.378
36322DA     SC436083  65.885  62.965  39.579
36323DG     BB136084  66.087  62.319  39.859
36323DG     BB236085  66.337  62.370  39.603
36323DG     BB336086  66.491  62.473  39.677
36323DG     SC136087  66.373  62.747  39.607
36323DG     SC236088  66.483  62.939  39.407
36323DG     SC336089  66.266  63.063  39.563
36323DG     SC436090  66.277  62.819  39.713
36324DA     BB136091  66.718  62.228  39.570
36324DA     BB236092  66.886  62.471  39.353
36324DA     BB336093  67.022  62.590  39.466
36324DA     SC136094  66.813  62.811  39.531
36324DA     SC236095  66.770  63.048  39.469
36324DA     SC336096  66.627  63.057  39.682
36324DA     SC436097  66.729  62.796  39.668
36325DT     BB136098  67.236  62.578  39.438
36325DT     BB236099  67.271  62.890  39.260
36325DT     BB336100  67.365  63.030  39.380
36325DT     SC136101  67.148  63.064  39.524
36325DT     SC236102  67.067  63.260  39.485
36325DT     SC336103  66.985  63.066  39.731
36326DG     BB136104  67.609  62.998  39.054
36326DG     BB236105  67.522  63.344  39.117
36326DG     BB336106  67.637  63.417  39.261
36326DG     SC136107  67.448  63.336  39.487
36326DG     SC236108  67.295  63.522  39.664
36326DG     SC336109  67.274  63.243  39.761
36326DG     SC436110  67.463  63.191  39.553
36327DG     BB136111  67.766  63.659  39.068
36327DG     BB236112  67.607  63.895  39.292
36327DG     BB336113  67.729  63.936  39.444
36327DG     SC136114  67.624  63.709  39.621
36327DG     SC236115  67.472  63.741  39.876
36327DG     SC336116  67.548  63.458  39.833
36327DG     SC436117  67.692  63.564  39.609
36328DT     BB136118  67.832  64.153  39.499
36328DT     BB236119  67.623  64.253  39.776
36328DT     BB336120  67.731  64.245  39.952
36328DT     SC136121  67.720  63.983  39.956
36328DT     SC236122  67.592  63.919  40.118
36328DT     SC336123  67.798  63.731  39.953
36329DT     BB136124  67.756  64.525  39.980
36329DT     BB236125  67.587  64.419  40.281
36329DT     BB336126  67.726  64.381  40.430
36329DT     SC136127  67.797  64.155  40.316
36329DT     SC236128  67.731  63.990  40.437
36329DT     SC336129  67.946  63.974  40.196
36330DA     BB136130  67.432  64.638  40.574
36330DA     BB236131  67.461  64.356  40.806
36330DA     BB336132  67.640  64.372  40.920
36330DA     SC136133  67.813  64.209  40.720
36330DA     SC236134  67.925  63.987  40.711
36330DA     SC336135  68.068  64.089  40.523
36330DA     SC436136  67.892  64.291  40.606
36331DT     BB136137  67.591  64.389  41.090
36331DT     BB236138  67.678  64.054  41.192
36331DT     BB336139  67.865  64.054  41.281
36331DT     SC136140  67.985  64.081  41.049
36331DT     SC236141  68.089  63.899  41.001
36331DT     SC336142  68.130  64.187  40.856
36332DT     BB136143  67.714  63.996  41.484
36332DT     BB236144  67.949  63.723  41.455
36332DT     BB336145  68.132  63.778  41.534
36332DT     SC136146  68.186  63.929  41.326
36332DT     SC236147  68.345  63.840  41.213
36332DT     SC336148  68.237  64.144  41.183
36333DT     BB136149  68.067  63.604  41.719
36333DT     BB236150  68.386  63.494  41.591
36333DT     BB336151  68.538  63.603  41.679
36333DT     SC136152  68.482  63.814  41.533
36333DT     SC236153  68.640  63.846  41.390
36333DT     SC336154  68.408  64.059  41.468
36334DA     BB136155  68.632  63.196  41.721
36334DA     BB236156  68.931  63.368  41.598
36334DA     BB336157  69.017  63.487  41.753
36334DA     SC136158  68.855  63.743  41.680
36334DA     SC236159  68.899  63.968  41.582
36334DA     SC336160  68.676  64.036  41.690
36334DA     SC436161  68.715  63.766  41.756
36335DA     BB136162  69.288  63.315  41.678
36335DA     BB236163  69.446  63.635  41.593
36335DA     BB336164  69.499  63.742  41.770
36335DA     SC136165  69.229  63.894  41.789
36335DA     SC236166  69.146  64.127  41.761
36335DA     SC336167  68.944  64.051  41.899
36335DA     SC436168  69.112  63.827  41.878
36336DA     BB136169  69.796  63.746  41.628
36336DA     BB236170  69.770  64.111  41.627
36336DA     BB336171  69.808  64.189  41.822
36336DA     SC136172  69.510  64.181  41.910
36336DA     SC236173  69.327  64.343  41.959
36336DA     SC336174  69.217  64.150  42.087
36336DA     SC436175  69.458  64.048  41.985
36337DT     BB136176  69.970  64.300  41.843
36337DT     BB236177  69.801  64.618  41.863
36337DT     BB336178  69.799  64.684  42.059
36337DT     SC136179  69.612  64.511  42.124
36337DT     SC236180  69.429  64.616  42.163
36337DT     SC336181  69.493  64.307  42.241
36338DA     BB136182  69.929  64.981  41.793
36338DA     BB236183  69.673  65.125  42.012
36338DA     BB336184  69.748  65.145  42.211
36338DA     SC136185  69.650  64.864  42.301
36338DA     SC236186  69.477  64.769  42.454
36338DA     SC336187  69.620  64.555  42.450
36338DA     SC436188  69.753  64.741  42.287
36339DT     BB136189  69.749  65.315  42.247
36339DT     BB236190  69.478  65.318  42.484
36339DT     BB336191  69.552  65.302  42.677
36339DT     SC136192  69.603  65.046  42.644
36339DT     SC236193  69.468  64.931  42.765
36339DT     SC336194  69.738  64.821  42.623
36340DA     BB136195  69.273  65.617  42.647
36340DA     BB236196  69.201  65.426  42.952
36340DA     BB336197  69.358  65.452  43.094
36340DA     SC136198  69.523  65.208  42.994
36340DA     SC236199  69.585  64.981  43.076
36340DA     SC336200  69.775  64.993  42.904
36340DA     SC436201  69.635  65.235  42.882
36341DA     BB136202  69.111  65.541  43.300
36341DA     BB236203  69.221  65.273  43.524
36341DA     BB336204  69.401  65.329  43.625
36341DA     SC136205  69.588  65.207  43.408
36341DA     SC236206  69.746  65.015  43.386
36341DA     SC336207  69.846  65.146  43.190
36341DA     SC436208  69.637  65.305  43.289
36342DA     BB136209  69.253  65.275  43.924
36342DA     BB236210  69.509  65.022  43.994
36342DA     BB336211  69.690  65.116  44.058
36342DA     SC136212  69.808  65.139  43.771
36342DA     SC236213  69.993  65.037  43.639
36342DA     SC336214  69.972  65.242  43.487
36342DA     SC436215  69.780  65.275  43.690
36343DC     BB136216  69.792  65.115  44.275
36343DC     BB236217  70.061  64.889  44.192
36343DC     BB336218  70.242  64.990  44.197
36343DC     SC136219  70.190  65.110  43.969
36343DC     SC236220  70.320  65.033  43.816
36343DC     SC336221  70.141  65.302  43.796
36344DT     BB136222  70.346  64.887  44.447
36344DT     BB236223  70.602  64.801  44.207
36344DT     BB336224  70.746  64.950  44.202
36344DT     SC136225  70.587  65.110  44.068
36344DT     SC236226  70.661  65.133  43.868
36344DT     SC336227  70.437  65.319  44.010
36345DT     BB136228  70.945  64.803  44.340
36345DT     BB236229  71.100  64.886  44.025
36345DT     BB336230  71.203  65.065  44.042
36345DT     SC136231  70.980  65.203  44.040
36345DT     SC236232  70.967  65.313  43.856
36345DT     SC336233  70.786  65.362  44.120
36346DT     BB136234  71.443  64.933  44.033
36346DT     BB236235  71.453  65.162  43.754
36346DT     BB336236  71.527  65.345  43.815
36346DT     SC136237  71.303  65.405  43.937
36346DT     SC236238  71.204  65.564  43.830
36346DT     SC336239  71.133  65.463  44.130
36347DG     BB136240  71.755  65.203  43.510
36347DG     BB236241  71.633  65.536  43.442
36347DG     BB336242  71.739  65.670  43.544
36347DG     SC136243  71.558  65.662  43.791
36347DG     SC236244  71.386  65.885  43.889
36347DG     SC336245  71.393  65.663  44.085
36347DG     SC436246  71.588  65.554  43.905
36348DT     BB136247  71.843  65.812  43.432
36348DT     BB236248  71.643  66.108  43.485
36348DT     BB336249  71.732  66.228  43.628
36348DT     SC136250  71.656  66.066  43.821
36348DT     SC236251  71.505  66.163  43.940
36348DT     SC336252  71.670  65.897  44.023
36349DT     BB136253  71.788  66.395  43.429
36349DT     BB236254  71.598  66.591  43.665
36349DT     BB336255  71.722  66.664  43.813
36349DT     SC136256  71.738  66.428  43.927
36349DT     SC236257  71.634  66.433  44.115
36349DT     SC336258  71.841  66.203  44.018
36350DT     BB136259  71.688  66.904  43.702
36350DT     BB236260  71.583  66.943  44.045
36350DT     BB336261  71.747  66.979  44.166
36350DT     SC136262  71.822  66.728  44.152
36350DT     SC236263  71.794  66.634  44.344
36350DT     SC336264  71.968  66.515  44.097
36351DG     BB136265  71.485  67.287  44.214
36351DG     BB236266  71.583  67.144  44.532
36351DG     BB336267  71.765  67.206  44.581
36351DG     SC136268  71.908  66.975  44.441
36351DG     SC236269  72.064  66.758  44.576
36351DG     SC336270  72.098  66.746  44.282
36351DG     SC436271  71.948  66.989  44.287
36352DT     BB136272  71.787  67.319  44.758
36352DT     BB236273  71.943  67.081  44.979
36352DT     BB336274  72.147  67.117  44.990
36352DT     SC136275  72.185  67.014  44.751
36352DT     SC236276  72.291  66.828  44.770
36352DT     SC336277  72.249  66.996  44.496
36353DC     BB136278  72.104  67.203  45.237
36353DC     BB236279  72.349  66.941  45.272
36353DC     BB336280  72.539  67.016  45.236
36353DC     SC136281  72.494  67.026  44.977
36353DC     SC236282  72.614  66.877  44.878
36353DC     SC336283  72.461  67.124  44.735
36354DT     BB136284  72.586  66.989  45.497
36354DT     BB236285  72.848  66.800  45.336
36354DT     BB336286  73.003  66.926  45.282
36354DT     SC136287  72.864  67.023  45.081
36354DT     SC236288  72.951  66.957  44.896
36354DT     SC336289  72.734  67.195  44.930
36355DG     BB136290  73.168  66.644  45.527
36355DG     BB236291  73.355  66.676  45.219
36355DG     BB336292  73.469  66.838  45.226
36355DG     SC136293  73.256  67.023  45.107
36355DG     SC236294  73.270  67.157  44.841
36355DG     SC336295  73.040  67.257  44.998
36355DG     SC436296  73.152  67.095  45.205
36356DA     BB136297  73.756  66.648  45.145
36356DA     BB236298  73.811  66.851  44.845
36356DA     BB336299  73.899  67.038  44.896
36356DA     SC136300  73.627  67.185  44.931
36356DA     SC236301  73.496  67.362  44.813
36356DA     SC336302  73.372  67.389  45.036
36356DA     SC436303  73.562  67.187  45.078
36357DT     BB136304  74.113  67.108  44.847
36357DT     BB236305  74.021  67.341  44.588
36357DT     BB336306  74.052  67.535  44.653
36357DT     SC136307  73.840  67.526  44.807
36357DT     SC236308  73.688  67.656  44.726
36357DT     SC336309  73.691  67.528  45.024
36358DT     BB136310  74.300  67.603  44.507
36358DT     BB236311  74.068  67.861  44.405
36358DT     BB336312  74.091  68.028  44.525
36358DT     SC136313  73.969  67.910  44.725
36358DT     SC236314  73.778  68.004  44.757
36358DT     SC336315  73.928  67.803  44.963
36359DA     BB136316  74.145  68.192  44.142
36359DA     BB236317  73.884  68.388  44.309
36359DA     BB336318  73.972  68.527  44.446
36359DA     SC136319  73.963  68.331  44.688
36359DA     SC236320  73.839  68.309  44.903
36359DA     SC336321  74.032  68.156  44.975
36359DA     SC436322  74.093  68.240  44.714
36360DT     BB136323  73.952  68.731  44.411
36360DT     BB236324  73.688  68.777  44.653
36360DT     BB336325  73.760  68.880  44.817
36360DT     SC136326  73.888  68.668  44.904
36360DT     SC236327  73.793  68.595  45.083
36360DT     SC336328  74.087  68.510  44.976
36361DA     BB136329  73.405  69.038  44.665
36361DA     BB236330  73.362  68.977  45.024
36361DA     BB336331  73.476  69.117  45.137
36361DA     SC136332  73.730  68.938  45.149
36361DA     SC236333  73.856  68.808  45.320
36361DA     SC336334  74.053  68.821  45.156
36361DA     SC436335  73.841  68.959  45.034
36362DG     BB136336  73.182  69.132  45.217
36362DG     BB236337  73.320  69.012  45.529
36362DG     BB336338  73.419  69.158  45.620
36362DG     SC136339  73.687  69.095  45.486
36362DG     SC236340  73.931  68.992  45.622
36362DG     SC336341  73.990  69.066  45.342
36362DG     SC436342  73.721  69.163  45.345
36363DA     BB136343  73.218  69.017  45.859
36363DA     BB236344  73.519  68.957  46.060
36363DA     BB336345  73.603  69.142  46.124
36363DA     SC136346  73.789  69.171  45.876
36363DA     SC236347  74.033  69.161  45.826
36363DA     SC336348  73.974  69.292  45.613
36363DA     SC436349  73.732  69.254  45.750
36364DA     BB136350  73.574  68.939  46.380
36364DA     BB236351  73.935  68.986  46.419
36364DA     BB336352  73.978  69.188  46.471
36364DA     SC136353  74.010  69.283  46.177
36364DA     SC236354  74.193  69.360  46.026
36364DA     SC336355  74.006  69.464  45.885
36364DA     SC436356  73.880  69.342  46.103
36365DT     BB136357  74.050  69.189  46.633
36365DT     BB236358  74.387  69.276  46.536
36365DT     BB336359  74.414  69.481  46.552
36365DT     SC136360  74.274  69.524  46.334
36365DT     SC236361  74.404  69.593  46.178
36365DT     SC336362  74.081  69.609  46.176
36366DT     BB136363  74.568  69.423  46.758
36366DT     BB236364  74.775  69.621  46.539
36366DT     BB336365  74.737  69.822  46.568
36366DT     SC136366  74.509  69.805  46.439
36366DT     SC236367  74.525  69.910  46.252
36366DT     SC336368  74.250  69.810  46.391
36367DG     BB136369  75.135  69.768  46.637
36367DG     BB236370  75.077  70.041  46.407
36367DG     BB336371  75.016  70.202  46.507
36367DG     SC136372  74.719  70.132  46.487
36367DG     SC236373  74.513  70.283  46.333
36367DG     SC336374  74.387  70.075  46.501
36367DG     SC436375  74.653  70.040  46.600
36368DC     BB136376  75.134  70.396  46.518
36368DC     BB236377  74.940  70.614  46.306
36368DC     BB336378  74.829  70.745  46.422
36368DC     SC136379  74.660  70.556  46.488
36368DC     SC236380  74.470  70.594  46.394
36368DC     SC336381  74.524  70.385  46.636
36369DA     BB136382  75.038  71.007  46.166
36369DA     BB236383  74.687  71.112  46.164
36369DA     BB336384  74.639  71.215  46.345
36369DA     SC136385  74.549  70.959  46.496
36369DA     SC236386  74.337  70.860  46.582
36369DA     SC336387  74.488  70.718  46.734
36369DA     SC436388  74.660  70.881  46.583
36370DT     BB136389  74.590  71.441  46.369
36370DT     BB236390  74.236  71.400  46.421
36370DT     BB336391  74.188  71.446  46.617
36370DT     SC136392  74.289  71.220  46.704
36370DT     SC236393  74.131  71.092  46.772
36370DT     SC336394  74.447  71.052  46.832
36371DT     BB136395  74.066  71.714  46.586
36371DT     BB236396  73.808  71.527  46.755
36371DT     BB336397  73.821  71.558  46.959
36371DT     SC136398  74.032  71.404  46.978
36371DT     SC236399  73.979  71.224  47.083
36371DT     SC336400  74.280  71.328  47.022
36372DT     BB136401  73.593  71.731  46.985
36372DT     BB236402  73.519  71.458  47.209
36372DT     BB336403  73.584  71.503  47.400
36372DT     SC136404  73.835  71.463  47.332
36372DT     SC236405  73.907  71.285  47.430
36372DT     SC336406  74.090  71.510  47.285
36373DT     BB136407  73.327  71.539  47.491
36373DT     BB236408  73.461  71.278  47.701
36373DT     BB336409  73.554  71.362  47.867
36373DT     SC136410  73.759  71.439  47.723
36373DT     SC236411  73.932  71.322  47.778
36373DT     SC336412  73.935  71.596  47.605
36374DA     BB136413  73.286  71.067  47.996
36374DA     BB236414  73.608  71.006  48.159
36374DA     BB336415  73.644  71.152  48.310
36374DA     SC136416  73.791  71.349  48.120
36374DA     SC236417  74.023  71.435  48.086
36374DA     SC336418  73.911  71.630  47.962
36374DA     SC436419  73.703  71.463  48.048
36375DT     BB136420  73.650  71.084  48.494
36375DT     BB236421  74.007  71.111  48.540
36375DT     BB336422  74.051  71.276  48.656
36375DT     SC136423  74.002  71.439  48.456
36375DT     SC236424  74.186  71.528  48.389
36375DT     SC336425  73.888  71.629  48.313
36376DC     BB136426  74.116  71.113  48.862
36376DC     BB236427  74.412  71.313  48.809
36376DC     BB336428  74.398  71.490  48.915
36376DC     SC136429  74.225  71.588  48.744
36376DC     SC236430  74.317  71.747  48.633
36376DC     SC336431  73.999  71.683  48.646
36377DA     BB136432  74.765  71.322  49.027
36377DA     BB236433  74.826  71.672  48.939
36377DA     BB336434  74.756  71.801  49.093
36377DA     SC136435  74.471  71.832  48.971
36377DA     SC236436  74.336  72.011  48.861
36377DA     SC336437  74.133  71.867  48.924
36377DA     SC436438  74.358  71.730  49.020
36378DA     BB136439  75.063  71.919  49.086
36378DA     BB236440  74.919  72.242  48.989
36378DA     BB336441  74.837  72.341  49.160
36378DA     SC136442  74.553  72.217  49.124
36378DA     SC236443  74.325  72.294  49.060
36378DA     SC336444  74.242  72.081  49.177
36378DA     SC436445  74.522  72.080  49.203
36379DA     BB136446  75.033  72.581  49.057
36379DA     BB236447  74.731  72.782  49.009
36379DA     BB336448  74.659  72.855  49.196
36379DA     SC136449  74.474  72.611  49.248
36379DA     SC236450  74.229  72.563  49.255
36379DA     SC336451  74.294  72.356  49.391
36379DA     SC436452  74.534  72.488  49.332
36380DA     BB136453  74.681  73.123  49.014
36380DA     BB236454  74.319  73.156  49.063
36380DA     BB336455  74.276  73.218  49.262
36380DA     SC136456  74.252  72.929  49.373
36380DA     SC236457  74.073  72.778  49.459
36380DA     SC336458  74.264  72.647  49.569
36380DA     SC436459  74.385  72.861  49.435
36381DT     BB136460  74.197  73.391  49.273
36381DT     BB236461  73.863  73.281  49.354
36381DT     BB336462  73.827  73.306  49.556
36381DT     SC136463  73.977  73.099  49.616
36381DT     SC236464  73.852  72.940  49.689
36381DT     SC336465  74.175  72.957  49.716
36382DT     BB136466  73.662  73.507  49.490
36382DT     BB236467  73.459  73.280  49.684
36382DT     BB336468  73.482  73.319  49.886
36382DT     SC136469  73.719  73.208  49.888
36382DT     SC236470  73.710  73.024  50.000
36382DT     SC336471  73.980  73.181  49.912
36383DC     BB136472  73.232  73.426  49.893
36383DC     BB236473  73.227  73.165  50.143
36383DC     BB336474  73.295  73.240  50.323
36383DC     SC136475  73.543  73.240  50.239
36383DC     SC236476  73.654  73.088  50.344
36383DC     SC336477  73.781  73.329  50.167
36384DA     BB136478  72.925  73.058  50.402
36384DA     BB236479  73.165  72.934  50.650
36384DA     BB336480  73.206  73.084  50.796
36384DA     SC136481  73.447  73.204  50.640
36384DA     SC236482  73.695  73.216  50.665
36384DA     SC336483  73.681  73.415  50.503
36384DA     SC436484  73.417  73.326  50.539
36385DA     BB136485  73.120  72.840  50.994
36385DA     BB236486  73.457  72.861  51.135
36385DA     BB336487  73.474  73.030  51.264
36385DA     SC136488  73.569  73.223  51.039
36385DA     SC236489  73.778  73.343  50.975
36385DA     SC336490  73.624  73.495  50.837
36385DA     SC436491  73.456  73.307  50.961
36386DA     BB136492  73.580  72.785  51.449
36386DA     BB236493  73.897  72.967  51.468
36386DA     BB336494  73.877  73.138  51.594
36386DA     SC136495  73.796  73.330  51.363
36386DA     SC236496  73.894  73.523  51.239
36386DA     SC336497  73.653  73.577  51.172
36386DA     SC436498  73.639  73.348  51.333
36387DA     BB136499  74.140  72.974  51.694
36387DA     BB236500  74.326  73.282  51.627
36387DA     BB336501  74.271  73.434  51.767
36387DA     SC136502  74.042  73.548  51.591
36387DA     SC236503  73.996  73.755  51.460
36387DA     SC336504  73.749  73.687  51.477
36387DA     SC436505  73.894  73.489  51.614
36388DG     BB136506  74.576  73.398  51.786
36388DG     BB236507  74.571  73.746  51.688
36388DG     BB336508  74.507  73.858  51.839
36388DG     SC136509  74.212  73.839  51.762
36388DG     SC236510  74.041  74.065  51.667
36388DG     SC336511  73.878  73.823  51.718
36388DG     SC436512  74.124  73.718  51.819
36389DA     BB136513  74.792  74.046  51.764
36389DA     BB236514  74.585  74.348  51.739
36389DA     BB336515  74.513  74.405  51.932
36389DA     SC136516  74.251  74.238  51.910
36389DA     SC236517  74.006  74.281  51.887
36389DA     SC336518  73.977  74.042  51.975
36389DA     SC436519  74.254  74.088  51.968
36390DA     BB136520  74.647  74.711  51.881
36390DA     BB236521  74.316  74.856  51.941
36390DA     BB336522  74.270  74.854  52.150
36390DA     SC136523  74.134  74.575  52.142
36390DA     SC236524  73.904  74.481  52.166
36390DA     SC336525  74.022  74.259  52.216
36390DA     SC436526  74.226  74.446  52.173
36391DT     BB136527  74.257  75.037  52.328
36391DT     BB236528  73.900  75.033  52.373
36391DT     BB336529  73.853  74.964  52.562
36391DT     SC136530  73.909  74.717  52.493
36391DT     SC236531  73.728  74.601  52.486
36391DT     SC336532  74.030  74.482  52.488
36392DA     BB136533  73.654  75.339  52.618
36392DA     BB236534  73.414  75.082  52.723
36392DA     BB336535  73.456  75.019  52.923
36392DA     SC136536  73.647  74.789  52.838
36392DA     SC236537  73.647  74.540  52.837
36392DA     SC336538  73.902  74.560  52.819
36392DA     SC436539  73.804  74.823  52.828
36393DA     BB136540  73.143  75.098  53.036
36393DA     BB236541  73.087  74.742  53.101
36393DA     BB336542  73.162  74.689  53.294
36393DA     SC136543  73.445  74.614  53.191
36393DA     SC236544  73.582  74.407  53.162
36393DA     SC336545  73.784  74.566  53.157
36393DA     SC436546  73.558  74.729  53.191
36394DT     BB136547  73.034  74.626  53.466
36394DT     BB236548  73.110  74.274  53.439
36394DT     BB336549  73.225  74.214  53.600
36394DT     SC136550  73.438  74.332  53.502
36394DT     SC236551  73.580  74.182  53.440
36394DT     SC336552  73.641  74.498  53.480
36395DG     BB136553  72.889  73.982  53.603
36395DG     BB236554  73.189  73.780  53.602
36395DG     BB336555  73.267  73.772  53.785
36395DG     SC136556  73.442  74.020  53.749
36395DG     SC236557  73.741  74.024  53.741
36395DG     SC336558  73.632  74.299  53.750
36395DG     SC436559  73.381  74.164  53.783
36396DC     BB136560  73.283  73.580  53.888
36396DC     BB236561  73.637  73.516  53.860
36396DC     BB336562  73.731  73.554  54.040
36396DC     SC136563  73.712  73.813  54.004
36396DC     SC236564  73.908  73.895  53.970
36396DC     SC336565  73.641  74.064  54.043
36397DT     BB136566  73.765  73.289  54.067
36397DT     BB236567  74.098  73.428  54.082
36397DT     BB336568  74.140  73.488  54.276
36397DT     SC136569  73.986  73.699  54.252
36397DT     SC236570  74.108  73.877  54.248
36397DT     SC336571  73.787  73.867  54.293
36398DG     BB136572  74.426  73.217  54.171
36398DG     BB236573  74.573  73.525  54.291
36398DG     BB336574  74.566  73.531  54.490
36398DG     SC136575  74.292  73.666  54.501
36398DG     SC236576  74.237  73.942  54.600
36398DG     SC336577  73.985  73.796  54.550
36398DG     SC436578  74.160  73.575  54.501
36399DT     BB136579  74.752  73.537  54.611
36399DT     BB236580  74.754  73.882  54.716
36399DT     BB336581  74.696  73.897  54.914
36399DT     SC136582  74.445  73.852  54.852
36399DT     SC236583  74.331  74.032  54.883
36399DT     SC336584  74.210  73.734  54.841
36400DT     BB136585  74.950  73.959  54.973
36400DT     BB236586  74.755  74.239  55.089
36400DT     BB336587  74.683  74.201  55.280
36400DT     SC136588  74.503  74.034  55.187
36400DT     SC236589  74.307  74.120  55.211
36400DT     SC336590  74.372  73.809  55.145
36401DT     BB136591  74.855  74.386  55.365
36401DT     BB236592  74.531  74.503  55.473
36401DT     BB336593  74.481  74.416  55.654
36401DT     SC136594  74.429  74.186  55.537
36401DT     SC236595  74.217  74.149  55.545
36401DT     SC336596  74.446  73.931  55.473
36402DA     BB136597  74.426  74.832  55.662
36402DA     BB236598  74.125  74.671  55.798
36402DA     BB336599  74.167  74.585  55.988
36402DA     SC136600  74.247  74.308  55.871
36402DA     SC236601  74.156  74.076  55.867
36402DA     SC336602  74.396  74.004  55.811
36402DA     SC436603  74.403  74.283  55.839
36403DA     BB136604  73.901  74.768  56.044
36403DA     BB236605  73.738  74.458  56.153
36403DA     BB336606  73.820  74.393  56.339
36403DA     SC136607  74.041  74.217  56.209
36403DA     SC236608  74.093  73.974  56.185
36403DA     SC336609  74.333  74.051  56.137
36403DA     SC436610  74.184  74.285  56.183
36404DG     BB136611  73.525  74.424  56.433
36404DG     BB236612  73.553  74.068  56.494
36404DG     BB336613  73.647  74.036  56.666
36404DG     SC136614  73.926  74.030  56.540
36404DG     SC236615  74.105  73.791  56.523
36404DG     SC336616  74.248  74.036  56.439
36404DG     SC436617  74.008  74.167  56.524
36405DT     BB136618  73.552  73.936  56.854
36405DT     BB236619  73.712  73.613  56.854
36405DT     BB336620  73.856  73.605  57.003
36405DT     SC136621  74.020  73.755  56.864
36405DT     SC236622  74.187  73.637  56.798
36405DT     SC336623  74.170  73.960  56.795
36406DA     BB136624  73.619  73.270  57.101
36406DA     BB236625  73.968  73.158  57.105
36406DA     BB336626  74.065  73.223  57.284
36406DA     SC136627  74.164  73.492  57.162
36406DA     SC236628  74.381  73.594  57.094
36406DA     SC336629  74.257  73.818  57.111
36406DA     SC436630  74.070  73.621  57.179
36407DT     BB136631  74.141  73.090  57.467
36407DT     BB236632  74.492  73.112  57.385
36407DT     BB336633  74.591  73.222  57.530
36407DT     SC136634  74.492  73.447  57.438
36407DT     SC236635  74.650  73.562  57.348
36407DT     SC336636  74.356  73.672  57.429
36408DA     BB136637  74.810  72.863  57.527
36408DA     BB236638  75.051  73.137  57.490
36408DA     BB336639  75.089  73.229  57.679
36408DA     SC136640  74.862  73.440  57.648
36408DA     SC236641  74.843  73.686  57.614
36408DA     SC336642  74.604  73.659  57.704
36408DA     SC436643  74.717  73.403  57.707
36409DG     BB136644  75.383  73.140  57.636
36409DG     BB236645  75.438  73.497  57.611
36409DG     BB336646  75.464  73.574  57.792
36409DG     SC136647  75.166  73.630  57.837
36409DG     SC236648  75.040  73.900  57.858
36409DG     SC336649  74.846  73.687  57.927
36409DG     SC436650  75.074  73.516  57.901
36410DA     BB136651  75.737  73.705  57.638
36410DA     BB236652  75.609  74.042  57.707
36410DA     BB336653  75.634  74.090  57.913
36410DA     SC136654  75.355  73.979  57.997
36410DA     SC236655  75.137  74.070  58.076
36410DA     SC336656  75.093  73.833  58.164
36410DA     SC436657  75.347  73.826  58.045
36411DA     BB136658  75.753  74.331  57.730
36411DA     BB236659  75.506  74.542  57.899
36411DA     BB336660  75.556  74.563  58.106
36411DA     SC136661  75.390  74.316  58.197
36411DA     SC236662  75.182  74.271  58.327
36411DA     SC336663  75.276  74.034  58.356
36411DA     SC436664  75.466  74.175  58.205
36412DA     BB136665  75.503  74.862  57.982
36412DA     BB236666  75.243  74.890  58.239
36412DA     BB336667  75.330  74.896  58.434
36412DA     SC136668  75.320  74.587  58.474
36412DA     SC236669  75.196  74.424  58.615
36412DA     SC336670  75.388  74.262  58.562
36412DA     SC436671  75.450  74.502  58.431
36413DA     BB136672  75.132  75.157  58.428
36413DA     BB236673  74.965  75.004  58.717
36413DA     BB336674  75.092  75.012  58.888
36413DA     SC136675  75.223  74.735  58.833
36413DA     SC236676  75.223  74.507  58.935
36413DA     SC336677  75.442  74.472  58.807
36413DA     SC436678  75.359  74.734  58.747
36414DT     BB136679  75.031  75.125  59.035
36414DT     BB236680  74.938  74.860  59.261
36414DT     BB336681  75.084  74.835  59.405
36414DT     SC136682  75.244  74.717  59.234
36414DT     SC236683  75.263  74.509  59.285
36414DT     SC336684  75.454  74.672  59.081
36415DG     BB136685  74.737  74.915  59.605
36415DG     BB236686  74.895  74.615  59.730
36415DG     BB336687  75.047  74.663  59.849
36415DG     SC136688  75.254  74.669  59.624
36415DG     SC236689  75.483  74.480  59.590
36415DG     SC336690  75.503  74.705  59.399
36415DG     SC436691  75.277  74.806  59.544
36416DC     BB136692  75.046  74.606  60.062
36416DC     BB236693  75.284  74.335  60.063
36416DC     BB336694  75.465  74.400  60.141
36416DC     SC136695  75.522  74.531  59.921
36416DC     SC236696  75.685  74.433  59.820
36416DC     SC336697  75.574  74.732  59.759
36417DG     BB136698  75.334  74.081  60.359
36417DG     BB236699  75.672  74.032  60.240
36417DG     BB336700  75.799  74.139  60.349
36417DG     SC136701  75.780  74.388  60.172
36417DG     SC236702  76.000  74.501  60.005
36417DG     SC336703  75.769  74.685  60.012
36417DG     SC436704  75.667  74.497  60.203
36418DT     BB136705  75.943  74.032  60.451
36418DT     BB236706  76.240  74.105  60.260
36418DT     BB336707  76.350  74.254  60.353
36418DT     SC136708  76.179  74.438  60.276
36418DT     SC236709  76.273  74.564  60.129
36418DT     SC336710  75.998  74.629  60.288
36419DC     BB136711  76.519  74.060  60.401
36419DC     BB236712  76.709  74.311  60.226
36419DC     BB336713  76.767  74.460  60.357
36419DC     SC136714  76.524  74.560  60.364
36419DC     SC236715  76.522  74.750  60.264
36419DC     SC336716  76.290  74.635  60.457
36420DC     BB136717  77.014  74.365  60.333
36420DC     BB236718  77.042  74.714  60.246
36420DC     BB336719  77.058  74.829  60.418
36420DC     SC136720  76.803  74.798  60.472
36420DC     SC236721  76.701  74.985  60.445
36420DC     SC336722  76.583  74.725  60.598
36421DG     BB136723  77.403  74.916  60.214
36421DG     BB236724  77.234  75.219  60.316
36421DG     BB336725  77.272  75.256  60.507
36421DG     SC136726  77.033  75.096  60.612
36421DG     SC236727  76.794  75.209  60.751
36421DG     SC336728  76.793  74.914  60.763
36421DG     SC436729  77.052  74.940  60.642
36422DT     BB136730  77.394  75.445  60.598
36422DT     BB236731  77.124  75.641  60.735
36422DT     BB336732  77.128  75.631  60.942
36422DT     SC136733  77.032  75.386  60.939
36422DT     SC236734  76.831  75.388  61.016
36422DT     SC336735  77.017  75.125  60.974
36423DA     BB136736  77.132  76.044  60.866
36423DA     BB236737  76.867  75.981  61.112
36423DA     BB336738  76.951  75.948  61.305
36423DA     SC136739  76.974  75.640  61.269
36423DA     SC236740  76.867  75.434  61.361
36423DA     SC336741  77.076  75.312  61.277
36423DA     SC436742  77.113  75.582  61.211
36424DA     BB136743  76.746  76.190  61.390
36424DA     BB236744  76.580  75.947  61.609
36424DA     BB336745  76.694  75.916  61.786
36424DA     SC136746  76.858  75.680  61.669
36424DA     SC236747  76.877  75.433  61.702
36424DA     SC336748  77.106  75.456  61.590
36424DA     SC436749  76.999  75.715  61.598
36425DC     BB136750  76.610  75.975  61.953
36425DC     BB236751  76.526  75.646  62.076
36425DC     BB336752  76.659  75.590  62.224
36425DC     SC136753  76.849  75.544  62.048
36425DC     SC236754  76.886  75.333  62.037
36425DC     SC336755  77.077  75.566  61.918
36426DT     BB136756  76.457  75.620  62.395
36426DT     BB236757  76.565  75.279  62.438
36426DT     BB336758  76.725  75.271  62.569
36426DT     SC136759  76.889  75.366  62.387
36426DT     SC236760  77.026  75.211  62.327
36426DT     SC336761  77.058  75.528  62.265
36427DA     BB136762  76.434  74.994  62.691
36427DA     BB236763  76.760  74.825  62.690
36427DA     BB336764  76.881  74.897  62.851
36427DA     SC136765  77.011  75.125  62.684
36427DA     SC236766  77.235  75.178  62.589
36427DA     SC336767  77.151  75.420  62.580
36427DA     SC436768  76.941  75.269  62.688
36428DT     BB136769  76.926  74.769  62.999
36428DT     BB236770  77.274  74.721  62.913
36428DT     BB336771  77.394  74.828  63.043
36428DT     SC136772  77.332  75.055  62.926
36428DT     SC236773  77.503  75.131  62.821
36428DT     SC336774  77.234  75.298  62.891
36429DA     BB136775  77.546  74.437  63.062
36429DA     BB236776  77.831  74.663  63.012
36429DA     BB336777  77.876  74.766  63.193
36429DA     SC136778  77.690  75.007  63.131
36429DA     SC236779  77.713  75.248  63.074
36429DA     SC336780  77.470  75.270  63.154
36429DA     SC436781  77.539  75.000  63.187
36430DG     BB136782  78.162  74.630  63.188
36430DG     BB236783  78.276  74.970  63.144
36430DG     BB336784  78.296  75.058  63.321
36430DG     SC136785  78.009  75.163  63.328
36430DG     SC236786  77.927  75.450  63.317
36430DG     SC336787  77.695  75.277  63.379
36430DG     SC436788  77.894  75.071  63.391
36431DT     BB136789  78.499  75.136  63.410
36431DT     BB236790  78.461  75.491  63.358
36431DT     BB336791  78.427  75.586  63.539
36431DT     SC136792  78.180  75.498  63.548
36431DT     SC236793  78.044  75.662  63.520
36431DT     SC336794  77.966  75.367  63.630
36432DT     BB136795  78.675  75.692  63.525
36432DT     BB236796  78.454  75.976  63.546
36432DT     BB336797  78.414  76.020  63.744
36432DT     SC136798  78.252  75.814  63.765
36432DT     SC236799  78.050  75.884  63.784
36432DT     SC336800  78.153  75.583  63.845
36433DT     BB136801  78.562  76.236  63.705
36433DT     BB236802  78.240  76.360  63.812
36433DT     BB336803  78.228  76.356  64.018
36433DT     SC136804  78.198  76.095  64.019
36433DT     SC236805  77.997  76.047  64.080
36433DT     SC336806  78.246  75.840  64.065
36434DT     BB136807  78.238  76.619  63.999
36434DT     BB236808  77.934  76.549  64.180
36434DT     BB336809  77.976  76.519  64.380
36434DT     SC136810  78.075  76.281  64.331
36434DT     SC236811  77.943  76.131  64.411
36434DT     SC336812  78.248  76.083  64.313
36435DA     BB136813  77.665  76.800  64.348
36435DA     BB236814  77.570  76.553  64.601
36435DA     BB336815  77.689  76.577  64.777
36435DA     SC136816  77.910  76.379  64.684
36435DA     SC236817  77.993  76.152  64.747
36435DA     SC336818  78.208  76.219  64.624
36435DA     SC436819  78.036  76.440  64.604
36436DC     BB136820  77.603  76.642  64.953
36436DC     BB236821  77.617  76.328  65.132
36436DC     BB336822  77.769  76.334  65.272
36436DC     SC136823  77.952  76.308  65.086
36436DC     SC236824  78.044  76.114  65.103
36436DC     SC336825  78.158  76.364  64.931
36437DT     BB136826  77.606  76.367  65.505
36437DT     BB236827  77.805  76.076  65.584
36437DT     BB336828  77.977  76.133  65.683
36437DT     SC136829  78.084  76.224  65.462
36437DT     SC236830  78.248  76.097  65.404
36437DT     SC336831  78.187  76.392  65.287
36438DC     BB136832  77.910  76.057  65.960
36438DC     BB236833  78.218  75.879  65.897
36438DC     BB336834  78.379  75.991  65.965
36438DC     SC136835  78.360  76.156  65.763
36438DC     SC236836  78.529  76.128  65.632
36438DC     SC336837  78.324  76.380  65.627
36439DA     BB136838  78.441  75.631  66.177
36439DA     BB236839  78.754  75.709  66.003
36439DA     BB336840  78.864  75.856  66.110
36439DA     SC136841  78.736  76.097  65.961
36439DA     SC236842  78.805  76.270  65.796
36439DA     SC336843  78.601  76.402  65.878
36439DA     SC436844  78.605  76.164  66.027
36440DT     BB136845  79.051  75.807  66.196
36440DT     BB236846  79.244  75.964  65.935
36440DT     BB336847  79.335  76.135  66.007
36440DT     SC136848  79.107  76.267  66.003
36440DT     SC236849  79.114  76.416  65.849
36440DT     SC336850  78.896  76.400  66.088
36441DG     BB136851  79.598  75.873  65.845
36441DG     BB236852  79.616  76.199  65.688
36441DG     BB336853  79.711  76.327  65.807
36441DG     SC136854  79.458  76.418  65.954
36441DG     SC236855  79.337  76.691  65.940
36441DG     SC336856  79.205  76.526  66.148
36441DG     SC436857  79.410  76.337  66.083
36442DA     BB136858  79.847  76.361  65.496
36442DA     BB236859  79.753  76.716  65.509
36442DA     BB336860  79.868  76.818  65.657
36442DA     SC136861  79.663  76.767  65.885
36442DA     SC236862  79.503  76.901  66.022
36442DA     SC336863  79.512  76.705  66.187
36442DA     SC436864  79.683  76.636  65.976
36443DT     BB136865  79.954  76.931  65.566
36443DT     BB236866  79.773  77.223  65.676
36443DT     BB336867  79.868  77.307  65.840
36443DT     SC136868  79.780  77.116  65.998
36443DT     SC236869  79.633  77.197  66.133
36443DT     SC336870  79.780  76.910  66.162
36444DA     BB136871  79.769  77.590  65.543
36444DA     BB236872  79.665  77.719  65.870
36444DA     BB336873  79.836  77.764  65.990
36444DA     SC136874  79.849  77.481  66.119
36444DA     SC236875  79.809  77.379  66.343
36444DA     SC336876  79.952  77.184  66.257
36444DA     SC436877  79.942  77.371  66.048
36445DT     BB136878  79.850  77.944  66.025
36445DT     BB236879  79.762  77.931  66.375
36445DT     BB336880  79.933  77.932  66.491
36445DT     SC136881  79.986  77.683  66.431
36445DT     SC236882  79.958  77.560  66.605
36445DT     SC336883  80.112  77.472  66.334
36446DA     BB136884  79.671  78.229  66.633
36446DA     BB236885  79.792  78.036  66.921
36446DA     BB336886  79.997  78.080  66.959
36446DA     SC136887  80.106  77.853  66.777
36446DA     SC236888  80.224  77.635  66.803
36446DA     SC336889  80.291  77.665  66.557
36446DA     SC436890  80.139  77.891  66.623
36447DC     BB136891  80.034  78.170  67.127
36447DC     BB236892  80.185  77.891  67.298
36447DC     BB336893  80.391  77.911  67.298
36447DC     SC136894  80.405  77.844  67.045
36447DC     SC236895  80.498  77.650  67.028
36447DC     SC336896  80.451  77.861  66.786
36448DA     BB136897  80.272  77.841  67.695
36448DA     BB236898  80.552  77.617  67.621
36448DA     BB336899  80.735  77.728  67.610
36448DA     SC136900  80.713  77.782  67.304
36448DA     SC236901  80.829  77.710  67.096
36448DA     SC336902  80.726  77.921  66.991
36448DA     SC436903  80.641  77.918  67.258
36449DC     BB136904  80.874  77.695  67.750
36449DC     BB236905  81.108  77.516  67.543
36449DC     BB336906  81.267  77.639  67.492
36449DC     SC136907  81.119  77.771  67.320
36449DC     SC236908  81.186  77.727  67.120
36449DC     SC336909  80.989  77.970  67.205
36450DA     BB136910  81.444  77.293  67.653
36450DA     BB236911  81.618  77.372  67.340
36450DA     BB336912  81.745  77.542  67.366
36450DA     SC136913  81.527  77.747  67.282
36450DA     SC236914  81.481  77.901  67.091
36450DA     SC336915  81.326  78.024  67.254
36450DA     SC436916  81.436  77.811  67.399
36451DA     BB136917  82.015  77.366  67.264
36451DA     BB236918  82.053  77.601  66.985
36451DA     BB336919  82.158  77.776  67.049
36451DA     SC136920  81.901  77.931  67.129
36451DA     SC236921  81.771  78.128  67.048
36451DA     SC336922  81.671  78.134  67.284
36451DA     SC436923  81.851  77.919  67.282
36452DA     BB136924  82.387  77.727  66.808
36452DA     BB236925  82.286  78.047  66.661
36452DA     BB336926  82.385  78.209  66.759
36452DA     SC136927  82.161  78.250  66.971
36452DA     SC236928  81.987  78.419  67.026
36452DA     SC336929  81.986  78.313  67.259
36452DA     SC436930  82.176  78.171  67.111
36453DC     BB136931  82.540  78.341  66.662
36453DC     BB236932  82.324  78.626  66.618
36453DC     BB336933  82.385  78.780  66.742
36453DC     SC136934  82.285  78.660  66.953
36453DC     SC236935  82.114  78.769  67.023
36453DC     SC336936  82.273  78.539  67.187
36454DG     BB136937  82.396  78.924  66.362
36454DG     BB236938  82.196  79.136  66.576
36454DG     BB336939  82.315  79.255  66.683
36454DG     SC136940  82.343  79.059  66.916
36454DG     SC236941  82.236  79.098  67.192
36454DG     SC336942  82.411  78.860  67.180
36454DG     SC436943  82.460  78.950  66.912
36455DT     BB136944  82.290  79.460  66.654
36455DT     BB236945  82.122  79.560  66.957
36455DT     BB336946  82.256  79.648  67.087
36455DT     SC136947  82.361  79.415  67.148
36455DT     SC236948  82.310  79.365  67.351
36455DT     SC336949  82.538  79.220  67.171
36456DT     BB136950  82.123  79.866  67.030
36456DT     BB236951  82.108  79.839  67.390
36456DT     BB336952  82.282  79.914  67.473
36456DT     SC136953  82.418  79.702  67.400
36456DT     SC236954  82.471  79.587  67.575
36456DT     SC336955  82.598  79.552  67.279
36457DG     BB136956  81.967  80.116  67.635
36457DG     BB236957  82.194  80.001  67.892
36457DG     BB336958  82.355  80.118  67.897
36457DG     SC136959  82.513  79.952  67.694
36457DG     SC236960  82.760  79.794  67.751
36457DG     SC336961  82.706  79.805  67.460
36457DG     SC436962  82.497  79.985  67.538
36458DT     BB136963  82.420  80.262  68.076
36458DT     BB236964  82.710  80.096  68.211
36458DT     BB336965  82.882  80.197  68.155
36458DT     SC136966  82.866  80.105  67.910
36458DT     SC236967  83.026  79.965  67.875
36458DT     SC336968  82.840  80.102  67.647
36459DA     BB136969  82.959  80.236  68.576
36459DA     BB236970  83.277  80.128  68.429
36459DA     BB336971  83.381  80.295  68.347
36459DA     SC136972  83.254  80.265  68.064
36459DA     SC236973  83.327  80.199  67.835
36459DA     SC336974  83.118  80.324  67.754
36459DA     SC436975  83.120  80.349  68.034
36460DT     BB136976  83.616  80.453  68.410
36460DT     BB236977  83.821  80.310  68.150
36460DT     BB336978  83.880  80.458  68.018
36460DT     SC136979  83.641  80.467  67.910
36460DT     SC236980  83.649  80.387  67.710
36460DT     SC336981  83.406  80.560  67.836
36461DT     BB136982  84.175  80.523  68.086
36461DT     BB236983  84.191  80.427  67.738
36461DT     BB336984  84.195  80.596  67.618
36461DT     SC136985  83.940  80.640  67.659
36461DT     SC236986  83.832  80.604  67.477
36461DT     SC336987  83.718  80.760  67.737
36462DT     BB136988  84.472  80.583  67.543
36462DT     BB236989  84.293  80.563  67.230
36462DT     BB336990  84.273  80.752  67.148
36462DT     SC136991  84.087  80.815  67.322
36462DT     SC236992  83.897  80.831  67.222
36462DT     SC336993  83.964  80.939  67.520
36463DC     BB136994  84.454  80.691  66.952
36463DC     BB236995  84.148  80.768  66.776
36463DC     BB336996  84.139  80.972  66.738
36463DC     SC136997  84.081  81.024  66.988
36463DC     SC236998  83.877  81.092  67.002
36463DC     SC336999  84.102  81.120  67.233
36464DA     BB137000  84.064  80.745  66.394
36464DA     BB237001  83.793  80.989  66.434
36464DA     BB337002  83.864  81.186  66.392
36464DA     SC137003  83.945  81.245  66.686
36464DA     SC237004  83.868  81.391  66.873
36464DA     SC337005  84.103  81.356  66.970
36464DA     SC437006  84.096  81.213  66.730
36465DT     BB137007  83.778  81.254  66.246
36465DT     BB237008  83.564  81.483  66.425
36465DT     BB337009  83.644  81.674  66.419
36465DT     SC137010  83.829  81.611  66.594
36465DT     SC237011  83.790  81.713  66.779
36465DT     SC337012  84.067  81.566  66.698
36466DG     BB137013  83.261  81.661  66.281
36466DG     BB237014  83.305  81.909  66.541
36466DG     BB337015  83.403  82.066  66.468
36466DG     SC137016  83.680  81.957  66.537
36466DG     SC237017  83.869  82.070  66.739
36466DG     SC337018  84.000  81.858  66.579
36466DG     SC437019  83.755  81.864  66.430
36467DA     BB137020  83.137  82.223  66.620
36467DA     BB237021  83.375  82.413  66.825
36467DA     BB337022  83.478  82.556  66.706
36467DA     SC137023  83.712  82.365  66.633
36467DA     SC237024  83.955  82.342  66.686
36467DA     SC337025  83.966  82.198  66.474
36467DA     SC437026  83.698  82.279  66.498
36468DA     BB137027  83.360  82.718  66.964
36468DA     BB237028  83.710  82.805  67.034
36468DA     BB337029  83.783  82.940  66.886
36468DA     SC137030  83.889  82.715  66.699
36468DA     SC237031  84.110  82.626  66.624
36468DA     SC337032  83.979  82.525  66.428
36468DA     SC437033  83.791  82.661  66.584
36469DC     BB137034  83.823  83.095  66.964
36469DC     BB237035  84.182  83.069  66.944
36469DC     BB337036  84.251  83.170  66.777
36469DC     SC137037  84.166  82.980  66.617
36469DC     SC237038  84.335  82.876  66.533
36469DC     SC337039  84.029  82.858  66.428
36470DT     BB137040  84.347  83.329  66.958
36470DT     BB237041  84.630  83.230  66.758
36470DT     BB337042  84.634  83.339  66.582
36470DT     SC137043  84.435  83.200  66.482
36470DT     SC237044  84.508  83.077  66.321
36470DT     SC337045  84.197  83.143  66.385
36471DG     BB137046  84.992  83.413  66.765
36471DG     BB237047  85.041  83.321  66.419
36471DG     BB337048  85.002  83.476  66.301
36471DG     SC137049  84.705  83.410  66.269
36471DG     SC237050  84.570  83.324  66.017
36471DG     SC337051  84.371  83.378  66.230
36471DG     SC437052  84.600  83.468  66.376
36472DT     BB137053  85.158  83.596  66.161
36472DT     BB237054  85.060  83.483  65.832
36472DT     BB337055  84.962  83.635  65.732
36472DT     SC137056  84.745  83.602  65.876
36472DT     SC237057  84.589  83.520  65.753
36472DT     SC337058  84.550  83.654  66.045
36473DA     BB137059  85.269  83.546  65.456
36473DA     BB237060  84.955  83.552  65.266
36473DA     BB337061  84.896  83.753  65.227
36473DA     SC137062  84.726  83.780  65.486
36473DA     SC237063  84.485  83.798  65.547
36473DA     SC337064  84.570  83.895  65.769
36473DA     SC437065  84.798  83.839  65.616
36474DA     BB137066  84.890  83.676  64.903
36474DA     BB237067  84.530  83.744  64.907
36474DA     BB337068  84.494  83.954  64.889
36474DA     SC137069  84.495  84.005  65.195
36474DA     SC237070  84.330  84.067  65.373
36474DA     SC337071  84.535  84.140  65.508
36474DA     SC437072  84.634  84.047  65.263
36475DA     BB137073  84.309  83.853  64.640
36475DA     BB237074  84.022  83.989  64.823
36475DA     BB337075  84.014  84.202  64.802
36475DA     SC137076  84.187  84.257  65.055
36475DA     SC237077  84.154  84.351  65.284
36475DA     SC337078  84.408  84.386  65.284
36475DA     SC437079  84.345  84.272  65.035
36476DA     BB137080  83.720  84.095  64.720
36476DA     BB237081  83.597  84.297  65.000
36476DA     BB337082  83.609  84.504  64.954
36476DA     SC137083  83.895  84.539  65.071
36476DA     SC237084  84.003  84.651  65.266
36476DA     SC337085  84.220  84.634  65.130
36476DA     SC437086  84.020  84.520  64.970
36477DA     BB137087  83.311  84.436  65.065
36477DA     BB237088  83.380  84.688  65.322
36477DA     BB337089  83.393  84.882  65.234
36477DA     SC137090  83.700  84.866  65.185
36477DA     SC237091  83.907  84.972  65.274
36477DA     SC337092  84.016  84.895  65.055
36477DA     SC437093  83.749  84.811  65.042
36478DT     BB137094  83.265  84.967  65.306
36478DT     BB237095  83.460  85.196  65.507
36478DT     BB337096  83.498  85.369  65.400
36478DT     SC137097  83.678  85.247  65.252
36478DT     SC237098  83.873  85.323  65.301
36478DT     SC337099  83.797  85.147  65.039
36479DT     BB137100  83.324  85.491  65.561
36479DT     BB237101  83.619  85.699  65.575
36479DT     BB337102  83.621  85.829  65.414
36479DT     SC137103  83.689  85.637  65.249
36479DT     SC237104  83.891  85.667  65.183
36479DT     SC337105  83.676  85.465  65.050
36480DT     BB137106  83.537  86.069  65.551
36480DT     BB237107  83.830  86.181  65.374
36480DT     BB337108  83.776  86.255  65.188
36480DT     SC137109  83.735  86.014  65.094
36480DT     SC237110  83.887  85.967  64.950
36480DT     SC337111  83.611  85.804  64.994
36481DC     BB137112  83.769  86.569  65.210
36481DC     BB237113  83.977  86.523  64.919
36481DC     BB337114  83.865  86.547  64.747
36481DC     SC137115  83.751  86.313  64.780
36481DC     SC237116  83.820  86.178  64.627
36481DC     SC337117  83.563  86.131  64.820
36482DT     BB137118  83.923  86.835  64.632
36482DT     BB237119  83.996  86.625  64.348
36482DT     BB337120  83.835  86.624  64.218
36482DT     SC137121  83.696  86.468  64.377
36482DT     SC237122  83.676  86.274  64.286
36482DT     SC337123  83.505  86.385  64.538
36483DA     BB137124  84.130  86.758  63.945
36483DA     BB237125  83.966  86.471  63.788
36483DA     BB337126  83.783  86.531  63.696
36483DA     SC137127  83.610  86.476  63.948
36483DA     SC237128  83.436  86.313  64.021
36483DA     SC337129  83.374  86.489  64.197
36483DA     SC437130  83.586  86.598  64.050
36484DT     BB137131  83.745  86.530  63.472
36484DT     BB237132  83.547  86.228  63.474
36484DT     BB337133  83.350  86.273  63.427
36484DT     SC137134  83.309  86.376  63.665
36484DT     SC237135  83.176  86.247  63.776
36484DT     SC337136  83.254  86.553  63.853
36485DT     BB137137  83.376  86.155  63.180
36485DT     BB237138  83.110  85.972  63.340
36485DT     BB337139  82.928  86.063  63.302
36485DT     SC137140  82.980  86.257  63.470
36485DT     SC237141  82.851  86.239  63.642
36485DT     SC337142  83.028  86.499  63.563
36486DG     BB137143  82.917  85.675  63.181
36486DG     BB237144  82.645  85.753  63.406
36486DG     BB337145  82.504  85.854  63.309
36486DG     SC137146  82.624  86.129  63.371
36486DG     SC237147  82.501  86.338  63.545
36486DG     SC337148  82.738  86.444  63.403
36486DG     SC437149  82.732  86.190  63.271
36487DA     BB137150  82.303  85.613  63.448
36487DA     BB237151  82.110  85.875  63.617
36487DA     BB337152  81.986  85.978  63.477
36487DA     SC137153  82.199  86.195  63.410
36487DA     SC237154  82.232  86.439  63.449
36487DA     SC337155  82.398  86.426  63.253
36487DA     SC437156  82.297  86.167  63.286
36488DG     BB137157  81.774  85.872  63.673
36488DG     BB237158  81.718  86.225  63.729
36488DG     BB337159  81.608  86.301  63.582
36488DG     SC137160  81.848  86.374  63.406
36488DG     SC237161  81.936  86.650  63.336
36488DG     SC337162  82.086  86.449  63.180
36488DG     SC437163  81.905  86.265  63.304
36489DC     BB137164  81.418  86.384  63.631
36489DC     BB237165  81.479  86.738  63.597
36489DC     BB337166  81.403  86.806  63.417
36489DC     SC137167  81.601  86.696  63.284
36489DC     SC237168  81.728  86.850  63.204
36489DC     SC337169  81.729  86.538  63.116
36490DT     BB137170  81.215  86.930  63.560
36490DT     BB237171  81.371  87.191  63.366
36490DT     BB337172  81.286  87.199  63.177
36490DT     SC137173  81.413  86.981  63.102
36490DT     SC237174  81.563  87.033  62.956
36490DT     SC337175  81.455  86.734  63.021
36491DG     BB137176  81.247  87.566  63.349
36491DG     BB237177  81.394  87.589  63.020
36491DG     BB337178  81.253  87.569  62.881
36491DG     SC137179  81.281  87.264  62.864
36491DG     SC237180  81.382  87.111  62.628
36491DG     SC337181  81.271  86.928  62.833
36491DG     SC437182  81.194  87.173  62.962
36492DT     BB137183  81.209  87.732  62.742
36492DT     BB237184  81.352  87.610  62.434
36492DT     BB337185  81.203  87.539  62.310
36492DT     SC137186  81.174  87.322  62.455
36492DT     SC237187  81.245  87.152  62.345
36492DT     SC337188  81.063  87.142  62.613
36493DT     BB137189  81.235  87.754  62.149
36493DT     BB237190  81.279  87.471  61.930
36493DT     BB337191  81.095  87.407  61.859
36493DT     SC137192  81.035  87.298  62.090
36493DT     SC237193  81.034  87.084  62.070
36493DT     SC337194  80.910  87.252  62.317
36494DT     BB137195  81.150  87.507  61.611
36494DT     BB237196  81.074  87.160  61.551
36494DT     BB337197  80.870  87.135  61.526
36494DT     SC137198  80.826  87.165  61.783
36494DT     SC237199  80.764  86.977  61.867
36494DT     SC337200  80.738  87.267  62.009
36495DT     BB137201  80.896  87.094  61.254
36495DT     BB237202  80.720  86.801  61.371
36495DT     BB337203  80.516  86.835  61.370
36495DT     SC137204  80.533  86.987  61.583
36495DT     SC237205  80.440  86.887  61.749
36495DT     SC337206  80.520  87.201  61.737
36496DA     BB137207  80.562  86.482  61.147
36496DA     BB237208  80.297  86.423  61.394
36496DA     BB337209  80.117  86.521  61.334
36496DA     SC137210  80.182  86.785  61.485
36496DA     SC237211  80.097  86.909  61.684
36496DA     SC337212  80.212  87.114  61.579
36496DA     SC437213  80.258  86.900  61.403
36497DG     BB137214  79.973  86.239  61.320
36497DG     BB237215  79.774  86.372  61.591
36497DG     BB337216  79.621  86.476  61.517
36497DG     SC137217  79.773  86.741  61.508
36497DG     SC237218  79.715  86.982  61.675
36497DG     SC337219  79.915  87.044  61.466
36497DG     SC437220  79.857  86.778  61.377
36498DG     BB137221  79.393  86.282  61.666
36498DG     BB237222  79.297  86.576  61.855
36498DG     BB337223  79.163  86.681  61.753
36498DG     SC137224  79.370  86.851  61.607
36498DG     SC237225  79.413  87.145  61.642
36498DG     SC337226  79.571  87.042  61.414
36498DG     SC437227  79.430  86.799  61.468
36499DA     BB137228  78.951  86.674  62.031
36499DA     BB237229  78.964  87.040  62.052
36499DA     BB337230  78.831  87.127  61.910
36499DA     SC137231  79.046  87.145  61.685
36499DA     SC237232  79.174  87.323  61.566
36499DA     SC337233  79.211  87.145  61.384
36499DA     SC437234  79.057  87.021  61.582
36500DT     BB137235  78.668  87.233  61.976
36500DT     BB237236  78.802  87.560  61.907
36500DT     BB337237  78.708  87.641  61.741
36500DT     SC137238  78.841  87.484  61.579
36500DT     SC237239  78.981  87.601  61.465
36500DT     SC337240  78.890  87.297  61.400
36501DT     BB137241  78.591  87.812  61.909
36501DT     BB237242  78.773  88.019  61.677
36501DT     BB337243  78.659  88.051  61.507
36501DT     SC137244  78.704  87.807  61.421
36501DT     SC237245  78.832  87.815  61.248
36501DT     SC337246  78.659  87.559  61.346
36502DA     BB137247  78.815  88.410  61.660
36502DA     BB237248  78.887  88.395  61.301
36502DA     BB337249  78.708  88.418  61.188
36502DA     SC137250  78.647  88.113  61.176
36502DA     SC237251  78.645  87.932  61.005
36502DA     SC337252  78.494  87.806  61.170
36502DA     SC437253  78.553  88.052  61.291
36503DT     BB137254  78.713  88.572  61.089
36503DT     BB237255  78.760  88.416  60.767
36503DT     BB337256  78.579  88.402  60.668
36503DT     SC137257  78.501  88.204  60.822
36503DT     SC237258  78.494  88.022  60.707
36503DT     SC337259  78.361  88.068  60.999
36504DA     BB137260  78.873  88.570  60.418
36504DA     BB237261  78.699  88.306  60.233
36504DA     BB337262  78.499  88.366  60.187
36504DA     SC137263  78.378  88.246  60.447
36504DA     SC237264  78.229  88.057  60.511
36504DA     SC337265  78.191  88.187  60.729
36504DA     SC437266  78.366  88.343  60.575
36505DA     BB137267  78.613  88.277  59.892
36505DA     BB237268  78.341  88.031  59.888
36505DA     BB337269  78.153  88.128  59.861
36505DA     SC137270  78.101  88.163  60.166
36505DA     SC237271  77.946  88.070  60.338
36505DA     SC337272  78.005  88.279  60.474
36505DA     SC437273  78.149  88.300  60.234
36506DA     BB137274  78.136  87.910  59.616
36506DA     BB237275  77.836  87.779  59.781
36506DA     BB337276  77.672  87.912  59.754
36506DA     SC137277  77.729  88.074  60.013
36506DA     SC237278  77.625  88.108  60.237
36506DA     SC337279  77.764  88.323  60.248
36506DA     SC437280  77.823  88.205  60.000
36507DA     BB137281  77.531  87.637  59.643
36507DA     BB237282  77.284  87.678  59.911
36507DA     BB337283  77.149  87.835  59.863
36507DA     SC137284  77.318  88.056  60.002
36507DA     SC237285  77.302  88.202  60.203
36507DA     SC337286  77.475  88.350  60.085
36507DA     SC437287  77.425  88.136  59.911
36508DT     BB137288  76.955  87.789  59.830
36508DT     BB237289  76.824  87.918  60.140
36508DT     BB337290  76.728  88.099  60.106
36508DT     SC137291  76.957  88.224  60.078
36508DT     SC237292  76.987  88.356  60.246
36508DT     SC337293  77.153  88.362  59.967
36509DA     BB137294  76.458  87.855  60.316
36509DA     BB237295  76.471  88.181  60.484
36509DA     BB337296  76.369  88.328  60.368
36509DA     SC137297  76.623  88.414  60.210
36509DA     SC237298  76.773  88.612  60.196
36509DA     SC337299  76.842  88.518  59.968
36509DA     SC437300  76.651  88.340  60.070
36510DA     BB137301  76.209  88.371  60.652
36510DA     BB237302  76.338  88.714  60.650
36510DA     BB337303  76.231  88.832  60.508
36510DA     SC137304  76.426  88.771  60.274
36510DA     SC237305  76.596  88.892  60.138
36510DA     SC337306  76.564  88.705  59.966
36510DA     SC437307  76.391  88.646  60.179
36511DC     BB137308  76.109  88.989  60.572
36511DC     BB237309  76.328  89.258  60.472
36511DC     BB337310  76.252  89.351  60.303
36511DC     SC137311  76.324  89.152  60.150
36511DC     SC237312  76.485  89.215  60.022
36511DC     SC337313  76.307  88.947  59.985
36512DC     BB137314  76.182  89.570  60.451
36512DC     BB237315  76.399  89.701  60.194
36512DC     BB337316  76.288  89.746  60.025
36512DC     SC137317  76.264  89.493  59.963
36512DC     SC237318  76.379  89.451  59.786
36512DC     SC337319  76.152  89.259  59.914
36513DT     BB137320  76.320  90.012  60.075
36513DT     BB237321  76.455  89.965  59.744
36513DT     BB337322  76.304  89.980  59.603
36513DT     SC137323  76.210  89.743  59.666
36513DT     SC237324  76.247  89.607  59.504
36513DT     SC337325  76.045  89.557  59.753
36514DA     BB137326  76.615  90.236  59.487
36514DA     BB237327  76.522  90.033  59.197
36514DA     BB337328  76.333  90.097  59.119
36514DA     SC137329  76.167  89.902  59.294
36514DA     SC237330  76.028  89.697  59.262
36514DA     SC337331  75.924  89.756  59.489
36514DA     SC437332  76.113  89.956  59.436
36515DA     BB137333  76.517  90.111  58.848
36515DA     BB237334  76.288  89.862  58.706
36515DA     BB337335  76.102  89.953  58.655
36515DA     SC137336  75.971  89.897  58.931
36515DA     SC237337  75.791  89.752  59.024
36515DA     SC337338  75.787  89.917  59.221
36515DA     SC437339  75.983  90.012  59.043
36516DG     BB137340  76.183  89.850  58.375
36516DG     BB237341  75.887  89.646  58.417
36516DG     BB337342  75.724  89.753  58.375
36516DG     SC137343  75.687  89.853  58.662
36516DG     SC237344  75.461  89.783  58.844
36516DG     SC337345  75.628  89.998  58.961
36516DG     SC437346  75.761  89.988  58.707
36517DG     BB137347  75.655  89.526  58.151
36517DG     BB237348  75.356  89.462  58.343
36517DG     BB337349  75.217  89.597  58.299
36517DG     SC137350  75.304  89.795  58.515
36517DG     SC237351  75.147  89.872  58.757
36517DG     SC337352  75.386  90.044  58.728
36517DG     SC437353  75.417  89.904  58.480
36518DT     BB137354  75.030  89.532  58.210
36518DT     BB237355  74.800  89.568  58.487
36518DT     BB337356  74.689  89.741  58.464
36518DT     SC137357  74.893  89.891  58.532
36518DT     SC237358  74.854  89.980  58.725
36518DT     SC337359  75.085  90.071  58.516
36519DT     BB137360  74.474  89.589  58.406
36519DT     BB237361  74.369  89.793  58.685
36519DT     BB337362  74.299  89.975  58.617
36519DT     SC137363  74.543  90.059  58.567
36519DT     SC237364  74.595  90.214  58.707
36519DT     SC337365  74.754  90.143  58.433
36520DT     BB137366  74.046  89.901  58.678
36520DT     BB237367  74.096  90.208  58.861
36520DT     BB337368  74.052  90.370  58.740
36520DT     SC137369  74.275  90.340  58.606
36520DT     SC237370  74.408  90.504  58.651
36520DT     SC337371  74.440  90.296  58.405
36521DA     BB137372  73.819  90.430  59.083
36521DA     BB237373  73.993  90.745  59.014
36521DA     BB337374  73.901  90.845  58.849
36521DA     SC137375  74.082  90.712  58.635
36521DA     SC237376  74.265  90.780  58.480
36521DA     SC337377  74.205  90.567  58.349
36521DA     SC437378  74.029  90.576  58.566
36522DC     BB137379  73.798  91.030  58.875
36522DC     BB237380  74.051  91.240  58.727
36522DC     BB337381  73.987  91.308  58.542
36522DC     SC137382  74.029  91.074  58.432
36522DC     SC237383  74.195  91.087  58.297
36522DC     SC337384  73.980  90.845  58.311
36523DG     BB137385  74.066  91.639  58.767
36523DG     BB237386  74.242  91.650  58.451
36523DG     BB337387  74.118  91.708  58.307
36523DG     SC137388  74.027  91.424  58.237
36523DG     SC237389  74.082  91.279  57.982
36523DG     SC337390  73.890  91.129  58.149
36523DG     SC437391  73.902  91.361  58.316
36524DT     BB137392  74.162  91.888  58.203
36524DT     BB237393  74.281  91.762  57.886
36524DT     BB337394  74.133  91.780  57.743
36524DT     SC137395  74.000  91.577  57.844
36524DT     SC237396  74.010  91.411  57.708
36524DT     SC337397  73.807  91.440  57.959
36525DA     BB137398  74.492  91.940  57.599
36525DA     BB237399  74.354  91.719  57.341
36525DA     BB337400  74.182  91.808  57.252
36525DA     SC137401  73.982  91.678  57.453
36525DA     SC237402  73.805  91.503  57.449
36525DA     SC337403  73.719  91.615  57.664
36525DA     SC437404  73.944  91.762  57.584
36526DA     BB137405  74.364  91.734  56.990
36526DA     BB237406  74.080  91.531  56.876
36526DA     BB337407  73.920  91.657  56.813
36526DA     SC137408  73.785  91.666  57.093
36526DA     SC237409  73.578  91.579  57.202
36526DA     SC337410  73.617  91.762  57.377
36526DA     SC437411  73.826  91.787  57.191
36527DA     BB137412  73.945  91.472  56.540
36527DA     BB237413  73.595  91.378  56.592
36527DA     BB337414  73.466  91.540  56.541
36527DA     SC137415  73.464  91.660  56.829
36527DA     SC237416  73.302  91.685  57.017
36527DA     SC337417  73.459  91.870  57.100
36527DA     SC437418  73.573  91.772  56.863
36528DA     BB137419  73.306  91.334  56.329
36528DA     BB237420  72.998  91.393  56.520
36528DA     BB337421  72.913  91.581  56.466
36528DA     SC137422  73.066  91.741  56.686
36528DA     SC237423  73.012  91.859  56.899
36528DA     SC337424  73.235  91.981  56.863
36528DA     SC437425  73.207  91.806  56.645
36529DA     BB137426  72.612  91.445  56.375
36529DA     BB237427  72.450  91.642  56.638
36529DA     BB337428  72.407  91.839  56.568
36529DA     SC137429  72.678  91.958  56.662
36529DA     SC237430  72.759  92.117  56.837
36529DA     SC337431  72.969  92.139  56.690
36529DA     SC437432  72.800  91.959  56.557
36530DC     BB137433  72.187  91.954  56.514
36530DC     BB237434  72.182  92.158  56.812
36530DC     BB337435  72.197  92.358  56.760
36530DC     SC137436  72.453  92.333  56.706
36530DC     SC237437  72.568  92.438  56.855
36530DC     SC337438  72.678  92.329  56.570
36531DT     BB137439  71.922  92.440  56.806
36531DT     BB237440  72.112  92.657  57.023
36531DT     BB337441  72.152  92.836  56.926
36531DT     SC137442  72.334  92.723  56.776
36531DT     SC237443  72.529  92.795  56.833
36531DT     SC337444  72.458  92.634  56.560
36532DG     BB137445  71.947  92.935  57.264
36532DG     BB237446  72.262  93.111  57.246
36532DG     BB337447  72.246  93.267  57.124
36532DG     SC137448  72.326  93.111  56.873
36532DG     SC237449  72.575  93.152  56.714
36532DG     SC337450  72.390  92.967  56.575
36532DG     SC437451  72.213  93.037  56.788
36533DG     BB137452  72.340  93.446  57.379
36533DG     BB237453  72.631  93.528  57.180
36533DG     BB337454  72.588  93.675  57.053
36533DG     SC137455  72.497  93.487  56.829
36533DG     SC237456  72.634  93.448  56.567
36533DG     SC337457  72.371  93.312  56.570
36533DG     SC437458  72.344  93.441  56.824
36534DT     BB137459  72.695  93.860  57.071
36534DT     BB237460  72.916  93.843  56.786
36534DT     BB337461  72.843  93.961  56.633
36534DT     SC137462  72.656  93.786  56.576
36534DT     SC237463  72.699  93.694  56.386
36534DT     SC337464  72.417  93.680  56.545
36535DG     BB137465  73.218  94.098  56.719
36535DG     BB237466  73.181  94.029  56.366
36535DG     BB337467  73.081  94.177  56.278
36535DG     SC137468  72.806  94.052  56.324
36535DG     SC237469  72.622  93.948  56.112
36535DG     SC337470  72.487  93.953  56.375
36535DG     SC437471  72.728  94.084  56.460
36536DT     BB137472  73.171  94.313  56.115
36536DT     BB237473  73.009  94.184  55.820
36536DT     BB337474  72.862  94.316  55.756
36536DT     SC137475  72.702  94.244  55.952
36536DT     SC237476  72.535  94.135  55.871
36536DT     SC337477  72.555  94.260  56.170
36537DT     BB137478  73.010  94.401  55.537
36537DT     BB237479  72.704  94.276  55.395
36537DT     BB337480  72.564  94.428  55.383
36537DT     SC137481  72.520  94.418  55.642
36537DT     SC237482  72.324  94.339  55.679
36537DT     SC337483  72.510  94.491  55.895
36538DA     BB137484  72.592  94.255  55.005
36538DA     BB237485  72.238  94.263  55.099
36538DA     BB337486  72.161  94.462  55.083
36538DA     SC137487  72.229  94.537  55.378
36538DA     SC237488  72.106  94.584  55.589
36538DA     SC337489  72.321  94.701  55.665
36538DA     SC437490  72.371  94.606  55.406
36539DC     BB137491  72.033  94.464  54.958
36539DC     BB237492  71.755  94.480  55.187
36539DC     BB337493  71.689  94.676  55.204
36539DC     SC137494  71.895  94.741  55.352
36539DC     SC237495  71.829  94.779  55.554
36539DC     SC337496  72.118  94.859  55.430
36540DA     BB137497  71.405  94.364  55.160
36540DA     BB237498  71.306  94.583  55.437
36540DA     BB337499  71.258  94.778  55.364
36540DA     SC137500  71.548  94.887  55.397
36540DA     SC237501  71.668  95.050  55.543
36540DA     SC337502  71.846  95.053  55.359
36540DA     SC437503  71.647  94.876  55.271
36541DC     BB137504  71.106  94.777  55.414
36541DC     BB237505  71.140  95.028  55.671
36541DC     BB337506  71.120  95.217  55.589
36541DC     SC137507  71.359  95.205  55.482
36541DC     SC237508  71.489  95.343  55.583
36541DC     SC337509  71.549  95.198  55.299
36542DG     BB137510  70.865  95.153  55.902
36542DG     BB237511  71.042  95.467  55.932
36542DG     BB337512  70.971  95.598  55.801
36542DG     SC137513  71.165  95.518  55.578
36542DG     SC237514  71.383  95.689  55.466
36542DG     SC337515  71.349  95.442  55.306
36542DG     SC437516  71.124  95.400  55.478
36543DA     BB137517  70.938  95.817  56.070
36543DA     BB237518  71.146  96.064  55.897
36543DA     BB337519  71.037  96.155  55.739
36543DA     SC137520  71.127  95.948  55.525
36543DA     SC237521  71.273  95.942  55.323
36543DA     SC337522  71.141  95.732  55.258
36543DA     SC437523  71.032  95.820  55.501
36544DT     BB137524  70.980  96.359  55.744
36544DT     BB237525  71.212  96.480  55.496
36544DT     BB337526  71.112  96.524  55.321
36544DT     SC137527  71.085  96.270  55.262
36544DT     SC237528  71.209  96.222  55.093
36544DT     SC337529  70.971  96.037  55.213
36545DT     BB137530  71.133  96.798  55.359
36545DT     BB237531  71.279  96.744  55.033
36545DT     BB337532  71.133  96.756  54.887
36545DT     SC137533  71.038  96.520  54.952
36545DT     SC237534  71.080  96.380  54.795
36545DT     SC337535  70.870  96.336  55.038
36546DT     BB137536  71.228  96.999  54.802
36546DT     BB237537  71.234  96.792  54.506
36546DT     BB337538  71.052  96.802  54.408
36546DT     SC137539  70.938  96.649  54.589
36546DT     SC237540  70.891  96.459  54.501
36546DT     SC337541  70.777  96.572  54.782
36547DT     BB137542  71.168  96.949  54.214
36547DT     BB237543  71.022  96.668  54.040
36547DT     BB337544  70.824  96.709  53.995
36547DT     SC137545  70.751  96.672  54.244
36547DT     SC237546  70.635  96.492  54.258
36547DT     SC337547  70.657  96.723  54.485
36548DC     BB137548  70.889  96.738  53.732
36548DC     BB237549  70.629  96.488  53.731
36548DC     BB337550  70.443  96.580  53.724
36548DC     SC137551  70.460  96.651  53.977
36548DC     SC237552  70.319  96.537  54.092
36548DC     SC337553  70.475  96.803  54.191
36549DG     BB137554  70.444  96.349  53.386
36549DG     BB237555  70.142  96.293  53.577
36549DG     BB337556  70.012  96.439  53.542
36549DG     SC137557  70.113  96.618  53.768
36549DG     SC237558  69.962  96.691  54.015
36549DG     SC337559  70.212  96.848  53.994
36549DG     SC437560  70.232  96.721  53.738
36550DC     BB137561  69.787  96.428  53.428
36550DC     BB237562  69.566  96.462  53.710
36550DC     BB337563  69.474  96.648  53.706
36550DC     SC137564  69.694  96.767  53.786
36550DC     SC237565  69.668  96.840  53.986
36550DC     SC337566  69.906  96.924  53.784
36551DG     BB137567  69.138  96.410  53.677
36551DG     BB237568  69.100  96.648  53.947
36551DG     BB337569  69.035  96.822  53.876
36551DG     SC137570  69.316  96.934  53.827
36551DG     SC237571  69.441  97.163  53.971
36551DG     SC337572  69.607  97.080  53.741
36551DG     SC437573  69.387  96.906  53.686
36552DT     BB137574  68.821  96.933  53.923
36552DT     BB237575  68.930  97.190  54.151
36552DT     BB337576  68.920  97.375  54.060
36552DT     SC137577  69.134  97.324  53.916
36552DT     SC237578  69.296  97.449  53.984
36552DT     SC337579  69.287  97.282  53.706
36553DG     BB137580  68.671  97.415  54.382
36553DG     BB237581  68.920  97.677  54.377
36553DG     BB337582  68.865  97.821  54.251
36553DG     SC137583  69.003  97.695  54.009
36553DG     SC237584  69.238  97.808  53.863
36553DG     SC337585  69.125  97.576  53.718
36553DG     SC437586  68.922  97.590  53.920
36554DG     BB137587  68.867  98.049  54.493
36554DG     BB237588  69.135  98.208  54.310
36554DG     BB337589  69.060  98.329  54.171
36554DG     SC137590  69.049  98.114  53.954
36554DG     SC237591  69.212  98.109  53.704
36554DG     SC337592  69.003  97.899  53.698
36554DG     SC437593  68.917  98.024  53.941
36555DA     BB137594  69.256  98.589  54.298
36555DA     BB237595  69.431  98.616  53.977
36555DA     BB337596  69.313  98.726  53.837
36555DA     SC137597  69.170  98.473  53.724
36555DA     SC237598  69.169  98.341  53.512
36555DA     SC337599  68.942  98.252  53.594
36555DA     SC437600  69.031  98.430  53.791
36556DT     BB137601  69.374  98.917  53.765
36556DT     BB237602  69.482  98.800  53.441
36556DT     BB337603  69.350  98.864  53.295
36556DT     SC137604  69.171  98.686  53.369
36556DT     SC237605  69.153  98.536  53.216
36556DT     SC337606  68.947  98.584  53.461
36557DT     BB137607  69.535  99.042  53.201
36557DT     BB237608  69.466  98.823  52.923
36557DT     BB337609  69.304  98.894  52.815
36557DT     SC137610  69.135  98.816  53.000
36557DT     SC237611  69.019  98.651  52.924
36557DT     SC337612  68.952  98.826  53.189
36558DA     BB137613  69.635  98.798  52.580
36558DA     BB237614  69.340  98.627  52.445
36558DA     BB337615  69.208  98.768  52.355
36558DA     SC137616  69.045  98.819  52.615
36558DA     SC237617  68.816  98.770  52.702
36558DA     SC337618  68.862  98.960  52.869
36558DA     SC437619  69.091  98.940  52.709
36559DT     BB137620  69.217  98.697  52.218
36559DT     BB237621  68.887  98.551  52.226
36559DT     BB337622  68.748  98.687  52.155
36559DT     SC137623  68.760  98.826  52.377
36559DT     SC237624  68.575  98.805  52.485
36559DT     SC337625  68.803  99.028  52.542
36560DT     BB137626  68.775  98.460  52.046
36560DT     BB237627  68.433  98.489  52.155
36560DT     BB337628  68.341  98.647  52.058
36560DT     SC137629  68.469  98.823  52.205
36560DT     SC237630  68.330  98.920  52.337
36560DT     SC337631  68.631  99.020  52.271
36561DA     BB137632  68.138  98.267  52.146
36561DA     BB237633  67.914  98.552  52.200
36561DA     BB337634  67.893  98.665  52.021
36561DA     SC137635  68.130  98.856  52.084
36561DA     SC237636  68.164  99.095  52.144
36561DA     SC337637  68.405  99.061  52.063
36561DA     SC437638  68.275  98.815  52.027
36562DA     BB137639  67.587  98.607  52.141
36562DA     BB237640  67.543  98.970  52.115
36562DA     BB337641  67.555  99.032  51.912
36562DA     SC137642  67.862  99.082  51.920
36562DA     SC237643  68.017  99.277  51.913
36562DA     SC337644  68.196  99.106  51.844
36562DA     SC437645  67.958  98.961  51.877
36563DA     BB137646  67.259  99.173  51.971
36563DA     BB237647  67.410  99.492  51.871
36563DA     BB337648  67.436  99.499  51.660
36563DA     SC137649  67.723  99.379  51.668
36563DA     SC237650  67.957  99.457  51.626
36563DA     SC337651  68.013  99.208  51.599
36563DA     SC437652  67.738  99.220  51.653
36564DT     BB137653  67.324  99.631  51.518
36564DT     BB237654  67.594  99.859  51.446
36564DT     BB337655  67.662  99.830  51.253
36564DT     SC137656  67.784  99.608  51.321
36564DT     SC237657  67.997  99.639  51.313
36564DT     SC337658  67.847  99.352  51.331
36565DG     BB137659  67.540 100.221  51.247
36565DG     BB237660  67.881 100.190  51.130
36565DG     BB337661  67.882 100.133  50.939
36565DG     SC137662  67.884  99.833  51.003
36565DG     SC237663  68.108  99.644  50.947
36565DG     SC337664  67.866  99.498  51.035
36565DG     SC437665  67.744  99.757  51.022
36566DG     BB137666  68.052 100.404  50.867
36566DG     BB237667  68.319 100.181  50.769
36566DG     BB337668  68.290 100.118  50.583
36566DG     SC137669  68.126  99.873  50.665
36566DG     SC237670  68.208  99.588  50.633
36566DG     SC337671  67.925  99.607  50.719
36566DG     SC437672  67.967  99.888  50.682
36567DC     BB137673  68.438 100.166  50.446
36567DC     BB237674  68.603  99.848  50.400
36567DC     BB337675  68.536  99.758  50.227
36567DC     SC137676  68.307  99.694  50.339
36567DC     SC237677  68.299  99.480  50.366
36567DC     SC337678  68.048  99.685  50.387
36568DG     BB137679  68.942  99.795  50.221
36568DG     BB237680  68.836  99.456  50.149
36568DG     BB337681  68.764  99.446  49.964
36568DG     SC137682  68.476  99.510  50.047
36568DG     SC237683  68.244  99.323  50.032
36568DG     SC337684  68.155  99.597  50.100
36568DG     SC437685  68.430  99.663  50.054
36569DC     BB137686  68.862  99.320  49.827
36569DC     BB237687  68.630  99.046  49.792
36569DC     BB337688  68.518  99.071  49.620
36569DC     SC137689  68.374  99.259  49.731
36569DC     SC237690  68.174  99.187  49.763
36569DC     SC337691  68.269  99.497  49.777
36570DG     BB137692  68.705  98.709  49.565
36570DG     BB237693  68.349  98.682  49.505
36570DG     BB337694  68.305  98.753  49.325
36570DG     SC137695  68.259  99.040  49.423
36570DG     SC237696  67.998  99.184  49.425
36570DG     SC337697  68.220  99.367  49.492
36570DG     SC437698  68.383  99.140  49.429
36571DT     BB137699  68.217  98.633  49.123
36571DT     BB237700  67.874  98.745  49.121
36571DT     BB337701  67.842  98.874  48.963
36571DT     SC137702  67.970  99.068  49.086
36571DT     SC237703  67.830  99.221  49.143
36571DT     SC337704  68.153  99.251  49.137
36572DA     BB137705  67.543  98.585  48.896
36572DA     BB237706  67.381  98.913  48.878
36572DA     BB337707  67.423  99.007  48.691
36572DA     SC137708  67.678  99.152  48.792
36572DA     SC237709  67.750  99.386  48.842
36572DA     SC337710  67.989  99.295  48.820
36572DA     SC437711  67.819  99.077  48.773
36573DC     BB137712  67.271  99.044  48.533
36573DC     BB237713  67.242  99.400  48.588
36573DC     BB337714  67.327  99.503  48.430
36573DC     SC137715  67.569  99.446  48.511
36573DC     SC237716  67.664  99.626  48.583
36573DC     SC337717  67.813  99.346  48.514
36574DT     BB137718  67.081  99.584  48.320
36574DT     BB237719  67.258  99.893  48.375
36574DT     BB337720  67.367  99.943  48.206
36574DT     SC137721  67.546  99.759  48.259
36574DT     SC237722  67.731  99.854  48.316
36574DT     SC337723  67.695  99.542  48.234
36575DA     BB137724  67.136 100.287  48.277
36575DA     BB237725  67.483 100.396  48.236
36575DA     BB337726  67.538 100.392  48.029
36575DA     SC137727  67.643 100.099  48.037
36575DA     SC237728  67.862  99.982  48.022
36575DA     SC337729  67.724  99.774  47.961
36575DA     SC437730  67.540  99.982  48.000
36576DA     BB137731  67.622 100.714  48.059
36576DA     BB237732  67.967 100.616  47.984
36576DA     BB337733  67.994 100.595  47.773
36576DA     SC137734  67.920 100.293  47.770
36576DA     SC237735  68.036 100.075  47.733
36576DA     SC337736  67.802  99.982  47.686
36576DA     SC437737  67.767 100.254  47.742
36577DT     BB137738  68.125 100.730  47.643
36577DT     BB237739  68.396 100.494  47.617
36577DT     BB337740  68.411 100.424  47.423
36577DT     SC137741  68.199 100.272  47.452
36577DT     SC237742  68.259 100.066  47.453
36577DT     SC337743  67.957 100.176  47.418
36578DG     BB137744  68.769 100.596  47.511
36578DG     BB237745  68.807 100.250  47.415
36578DG     BB337746  68.804 100.233  47.217
36578DG     SC137747  68.501 100.197  47.199
36578DG     SC237748  68.358  99.950  47.112
36578DG     SC337749  68.169 100.176  47.141
36578DG     SC437750  68.408 100.327  47.187
36579DA     BB137751  69.071 100.063  47.322
36579DA     BB237752  68.917  99.761  47.183
36579DA     BB337753  68.923  99.766  46.970
36579DA     SC137754  68.646  99.905  46.942
36579DA     SC237755  68.417  99.846  46.862
36579DA     SC337756  68.382 100.100  46.841
36579DA     SC437757  68.644 100.066  46.934
36580DC     BB137758  68.987  99.640  47.007
36580DC     BB237759  68.719  99.429  46.890
36580DC     BB337760  68.714  99.430  46.683
36580DC     SC137761  68.609  99.670  46.680
36580DC     SC237762  68.405  99.658  46.612
36580DC     SC337763  68.582  99.929  46.635
36581DT     BB137764  68.739  99.214  46.821
36581DT     BB237765  68.446  99.181  46.613
36581DT     BB337766  68.500  99.193  46.413
36581DT     SC137767  68.534  99.453  46.431
36581DT     SC237768  68.380  99.553  46.320
36581DT     SC337769  68.654  99.688  46.429
36582DA     BB137770  68.204  98.906  46.549
36582DA     BB237771  68.099  99.059  46.233
36582DA     BB337772  68.242  99.017  46.079
36582DA     SC137773  68.411  99.272  46.133
36582DA     SC237774  68.460  99.488  46.018
36582DA     SC337775  68.667  99.499  46.170
36582DA     SC437776  68.534  99.260  46.235
36583DC     BB137777  68.155  98.924  45.967
36583DC     BB237778  68.152  99.161  45.695
36583DC     BB337779  68.318  99.134  45.575
36583DC     SC137780  68.474  99.246  45.753
36583DC     SC237781  68.543  99.436  45.679
36583DC     SC337782  68.667  99.276  45.932
36584DT     BB137783  68.156  99.031  45.390
36584DT     BB237784  68.339  99.288  45.215
36584DT     BB337785  68.521  99.214  45.152
36584DT     SC137786  68.618  99.223  45.395
36584DT     SC237787  68.768  99.377  45.407
36584DT     SC337788  68.720  99.142  45.625
36585DA     BB137789  68.354  99.368  44.798
36585DA     BB237790  68.701  99.484  44.812
36585DA     BB337791  68.835  99.325  44.764
36585DA     SC137792  68.867  99.231  45.059
36585DA     SC237793  69.044  99.230  45.235
36585DA     SC337794  68.905  99.045  45.345
36585DA     SC437795  68.767  99.116  45.112
36586DT     BB137796  68.959  99.313  44.580
36586DT     BB237797  69.278  99.381  44.735
36586DT     BB337798  69.393  99.209  44.738
36586DT     SC137799  69.250  99.107  44.933
36586DT     SC237800  69.368  99.102  45.113
36586DT     SC337801  69.088  98.945  45.063
36587DA     BB137802  69.652  99.479  44.543
36587DA     BB237803  69.847  99.316  44.807
36587DA     BB337804  69.902  99.119  44.747
36587DA     SC137805  69.649  98.985  44.869
36587DA     SC237806  69.593  98.834  45.059
36587DA     SC337807  69.377  98.784  44.930
36587DA     SC437808  69.521  98.966  44.773
36588DT     BB137809  70.117  99.042  44.698
36588DT     BB237810  70.163  98.853  45.002
36588DT     BB337811  70.166  98.651  44.960
36588DT     SC137812  69.906  98.647  44.924
36588DT     SC237813  69.813  98.538  45.084
36588DT     SC337814  69.672  98.621  44.804
36589DA     BB137815  70.534  98.694  45.161
36589DA     BB237816  70.358  98.414  45.320
36589DA     BB337817  70.375  98.238  45.200
36589DA     SC137818  70.115  98.294  45.038
36589DA     SC237819  69.886  98.197  45.018
36589DA     SC337820  69.877  98.318  44.792
36589DA     SC437821  70.130  98.375  44.900
36590DT     BB137822  70.492  98.045  45.255
36590DT     BB237823  70.201  97.850  45.340
36590DT     BB337824  70.173  97.699  45.201
36590DT     SC137825  70.085  97.869  45.022
36590DT     SC237826  69.875  97.836  44.990
36590DT     SC337827  70.071  98.011  44.800
36591DG     BB137828  70.218  97.499  45.554
36591DG     BB237829  69.908  97.409  45.391
36591DG     BB337830  69.942  97.271  45.252
36591DG     SC137831  69.993  97.473  45.028
36591DG     SC237832  69.821  97.515  44.788
36591DG     SC337833  70.074  97.667  44.764
36591DG     SC437834  70.141  97.528  45.006
36592DC     BB137835  69.847  97.075  45.270
36592DC     BB237836  69.584  97.106  45.025
36592DC     BB337837  69.632  96.998  44.855
36592DC     SC137838  69.808  97.179  44.781
36592DC     SC237839  69.736  97.281  44.606
36592DC     SC337840  70.039  97.289  44.719
36593DT     BB137841  69.434  96.849  44.937
36593DT     BB237842  69.341  96.963  44.608
36593DT     BB337843  69.433  96.847  44.463
36593DT     SC137844  69.664  96.962  44.506
36593DT     SC237845  69.716  97.083  44.336
36593DT     SC337846  69.917  96.994  44.574
36594DA     BB137847  69.021  96.902  44.396
36594DA     BB237848  69.202  96.968  44.084
36594DA     BB337849  69.284  96.787  44.006
36594DA     SC137850  69.555  96.818  44.156
36594DA     SC237851  69.793  96.866  44.098
36594DA     SC337852  69.848  96.761  44.326
36594DA     SC437853  69.569  96.749  44.300
36595DC     BB137854  69.208  96.747  43.847
36595DC     BB237855  69.491  96.821  43.637
36595DC     BB337856  69.594  96.647  43.593
36595DC     SC137857  69.697  96.638  43.834
36595DC     SC237858  69.908  96.678  43.824
36595DC     SC337859  69.751  96.552  44.078
36596DA     BB137860  69.518  96.846  43.231
36596DA     BB237861  69.870  96.744  43.232
36596DA     BB337862  69.886  96.532  43.208
36596DA     SC137863  69.880  96.472  43.513
36596DA     SC237864  70.037  96.391  43.688
36596DA     SC337865  69.826  96.333  43.822
36596DA     SC437866  69.737  96.443  43.580
36597DA     BB137867  70.085  96.611  42.955
36597DA     BB237868  70.350  96.427  43.128
36597DA     BB337869  70.321  96.217  43.106
36597DA     SC137870  70.150  96.188  43.364
36597DA     SC237871  70.174  96.087  43.591
36597DA     SC337872  69.917  96.095  43.598
36597DA     SC437873  69.991  96.200  43.349
36598DA     BB137874  70.631  96.216  42.987
36598DA     BB237875  70.720  95.995  43.266
36598DA     BB337876  70.656  95.796  43.226
36598DA     SC137877  70.378  95.833  43.361
36598DA     SC237878  70.259  95.753  43.565
36598DA     SC337879  70.044  95.819  43.442
36598DA     SC437880  70.255  95.879  43.267
36599DA     BB137881  70.971  95.719  43.283
36599DA     BB237882  70.854  95.516  43.565
36599DA     BB337883  70.775  95.331  43.496
36599DA     SC137884  70.484  95.438  43.468
36599DA     SC237885  70.264  95.407  43.581
36599DA     SC337886  70.163  95.501  43.365
36599DA     SC437887  70.440  95.498  43.325
36600DA     BB137888  70.991  95.220  43.714
36600DA     BB237889  70.706  95.075  43.893
36600DA     BB337890  70.636  94.901  43.791
36600DA     SC137891  70.431  95.057  43.616
36600DA     SC237892  70.183  95.079  43.597
36600DA     SC337893  70.229  95.167  43.360
36600DA     SC437894  70.480  95.107  43.471
36601DA     BB137895  70.681  94.787  44.094
36601DA     BB237896  70.322  94.714  44.095
36601DA     BB337897  70.280  94.545  43.972
36601DA     SC137898  70.232  94.714  43.715
36601DA     SC237899  70.040  94.777  43.569
36601DA     SC337900  70.218  94.830  43.392
36601DA     SC437901  70.357  94.740  43.618
36602DA     BB137902  70.138  94.465  44.255
36602DA     BB237903  69.824  94.453  44.067
36602DA     BB337904  69.820  94.281  43.940
36602DA     SC137905  69.946  94.428  43.696
36602DA     SC237906  69.874  94.506  43.471
36602DA     SC337907  70.124  94.508  43.414
36602DA     SC437908  70.106  94.421  43.680
36603DC     BB137909  69.686  94.156  43.987
36603DC     BB237910  69.462  94.226  43.712
36603DC     BB337911  69.482  94.081  43.566
36603DC     SC137912  69.711  94.182  43.487
36603DC     SC237913  69.687  94.270  43.292
36603DC     SC337914  69.969  94.202  43.436
36604DT     BB137915  69.242  94.003  43.642
36604DT     BB237916  69.211  94.074  43.290
36604DT     BB337917  69.277  93.912  43.179
36604DT     SC137918  69.528  93.967  43.232
36604DT     SC237919  69.625  94.035  43.053
36604DT     SC337920  69.773  93.941  43.325
36605DA     BB137921  68.900  94.039  43.044
36605DA     BB237922  69.119  93.996  42.753
36605DA     BB337923  69.158  93.788  42.720
36605DA     SC137924  69.413  93.784  42.898
36605DA     SC237925  69.660  93.761  42.867
36605DA     SC337926  69.665  93.696  43.115
36605DA     SC437927  69.395  93.744  43.053
36606DA     BB137928  69.053  93.882  42.424
36606DA     BB237929  69.378  93.770  42.297
36606DA     BB337930  69.389  93.557  42.299
36606DA     SC137931  69.509  93.542  42.586
36606DA     SC237932  69.726  93.481  42.691
36606DA     SC337933  69.590  93.450  42.906
36606DA     SC437934  69.406  93.526  42.708
36607DA     BB137935  69.469  93.609  41.983
36607DA     BB237936  69.786  93.438  42.056
36607DA     BB337937  69.753  93.228  42.077
36607DA     SC137938  69.704  93.241  42.384
36607DA     SC237939  69.820  93.170  42.593
36607DA     SC337940  69.589  93.189  42.703
36607DA     SC437941  69.552  93.258  42.434
36608DC     BB137942  69.830  93.092  41.937
36608DC     BB237943  70.091  92.955  42.145
36608DC     BB337944  70.039  92.765  42.209
36608DC     SC137945  69.866  92.863  42.382
36608DC     SC237946  69.939  92.830  42.581
36608DC     SC337947  69.637  92.915  42.501
36609DG     BB137948  70.385  92.690  42.002
36609DG     BB237949  70.400  92.545  42.333
36609DG     BB337950  70.304  92.371  42.335
36609DG     SC137951  70.033  92.495  42.410
36609DG     SC237952  69.887  92.455  42.667
36609DG     SC337953  69.718  92.598  42.471
36609DG     SC437954  69.936  92.544  42.293
36610DA     BB137955  70.582  92.193  42.465
36610DA     BB237956  70.392  92.106  42.766
36610DA     BB337957  70.266  91.938  42.728
36610DA     SC137958  70.023  92.111  42.639
36610DA     SC237959  69.796  92.169  42.726
36610DA     SC337960  69.742  92.232  42.483
36610DA     SC437961  70.008  92.143  42.482
36611DA     BB137962  70.410  91.778  42.983
36611DA     BB237963  70.085  91.779  43.152
36611DA     BB337964  69.965  91.617  43.082
36611DA     SC137965  69.833  91.781  42.853
36611DA     SC237966  69.609  91.875  42.798
36611DA     SC337967  69.693  91.882  42.556
36611DA     SC437968  69.903  91.776  42.708
36612DA     BB137969  69.947  91.546  43.401
36612DA     BB237970  69.586  91.608  43.376
36612DA     BB337971  69.488  91.440  43.288
36612DA     SC137972  69.515  91.545  42.997
36612DA     SC237973  69.365  91.634  42.818
36612DA     SC337974  69.555  91.573  42.657
36612DA     SC437975  69.644  91.500  42.912
36613DA     BB137976  69.318  91.483  43.562
36613DA     BB237977  69.028  91.544  43.346
36613DA     BB337978  68.959  91.361  43.261
36613DA     SC137979  69.137  91.382  43.007
36613DA     SC237980  69.107  91.421  42.763
36613DA     SC337981  69.338  91.314  42.737
36613DA     SC437982  69.281  91.311  43.012
36614DA     BB137983  68.693  91.495  43.394
36614DA     BB237984  68.552  91.492  43.055
36614DA     BB337985  68.504  91.293  42.996
36614DA     SC137986  68.783  91.239  42.868
36614DA     SC237987  68.877  91.206  42.639
36614DA     SC337988  69.075  91.095  42.759
36614DA     SC437989  68.896  91.172  42.961
36615DT     BB137990  68.322  91.268  42.972
36615DT     BB237991  68.324  91.248  42.612
36615DT     BB337992  68.317  91.050  42.552
36615DT     SC137993  68.568  91.012  42.618
36615DT     SC237994  68.685  90.985  42.440
36615DT     SC337995  68.780  90.917  42.743
36616DC     BB137996  68.066  91.095  42.471
36616DC     BB237997  68.234  90.967  42.179
36616DC     BB337998  68.234  90.760  42.182
36616DC     SC137999  68.419  90.755  42.368
36616DC     SC238000  68.603  90.681  42.284
36616DC     SC338001  68.537  90.712  42.600
36617DC     BB138002  68.044  90.746  41.983
36617DC     BB238003  68.318  90.547  41.857
36617DC     BB338004  68.298  90.351  41.921
36617DC     SC138005  68.374  90.415  42.164
36617DC     SC238006  68.568  90.330  42.203
36617DC     SC338007  68.366  90.451  42.425
36618DA     BB138008  68.336  90.316  41.504
36618DA     BB238009  68.570  90.078  41.656
36618DA     BB338010  68.465  89.908  41.731
36618DA     SC138011  68.423  90.029  42.015
36618DA     SC238012  68.505  89.988  42.246
36618DA     SC338013  68.297  90.118  42.321
36618DA     SC438014  68.287  90.110  42.041
36619DA     BB138015  68.668  89.725  41.542
36619DA     BB238016  68.791  89.570  41.850
36619DA     BB338017  68.656  89.419  41.917
36619DA     SC138018  68.491  89.613  42.096
36619DA     SC238019  68.453  89.653  42.339
36619DA     SC338020  68.239  89.775  42.265
36619DA     SC438021  68.362  89.684  42.030
36620DT     BB138022  68.711  89.217  41.917
36620DT     BB238023  68.762  89.190  42.273
36620DT     BB338024  68.608  89.079  42.358
36620DT     SC138025  68.440  89.279  42.334
36620DT     SC238026  68.393  89.357  42.529
36620DT     SC338027  68.231  89.420  42.255
36621DT     BB138028  68.775  88.864  42.401
36621DT     BB238029  68.648  88.943  42.729
36621DT     BB338030  68.472  88.840  42.764
36621DT     SC138031  68.338  88.999  42.605
36621DT     SC238032  68.203  89.120  42.722
36621DT     SC338033  68.193  89.081  42.400
36622DA     BB138034  68.728  88.770  43.088
36622DA     BB238035  68.401  88.867  43.222
36622DA     BB338036  68.261  88.708  43.200
36622DA     SC138037  68.162  88.802  42.920
36622DA     SC238038  67.955  88.900  42.822
36622DA     SC338039  68.046  88.817  42.597
36622DA     SC438040  68.235  88.741  42.791
36623DT     BB138041  68.188  88.613  43.367
36623DT     BB238042  67.857  88.757  43.358
36623DT     BB338043  67.720  88.615  43.295
36623DT     SC138044  67.803  88.634  43.047
36623DT     SC238045  67.651  88.728  42.928
36623DT     SC338046  67.908  88.567  42.814
36624DT     BB138047  67.614  88.587  43.549
36624DT     BB238048  67.330  88.675  43.344
36624DT     BB338049  67.243  88.504  43.267
36624DT     SC138050  67.438  88.474  43.093
36624DT     SC238051  67.364  88.512  42.895
36624DT     SC338052  67.645  88.368  42.968
36625DG     BB138053  66.944  88.682  43.481
36625DG     BB238054  66.837  88.612  43.143
36625DG     BB338055  66.783  88.421  43.127
36625DG     SC138056  67.063  88.322  43.051
36625DG     SC238057  67.143  88.208  42.787
36625DG     SC338058  67.360  88.177  42.985
36625DG     SC438059  67.165  88.281  43.167
36626DA     BB138060  66.484  88.533  42.993
36626DA     BB238061  66.554  88.352  42.682
36626DA     BB338062  66.511  88.144  42.706
36626DA     SC138063  66.799  88.071  42.798
36626DA     SC238064  66.995  87.946  42.709
36626DA     SC338065  67.071  87.931  42.953
36626DA     SC438066  66.828  88.071  42.956
36627DG     BB138067  66.318  88.211  42.476
36627DG     BB238068  66.534  87.984  42.294
36627DG     BB338069  66.483  87.796  42.333
36627DG     SC138070  66.671  87.770  42.573
36627DG     SC238071  66.912  87.594  42.589
36627DG     SC338072  66.851  87.713  42.853
36627DG     SC438073  66.618  87.812  42.719
36628DT     BB138074  66.426  87.691  42.170
36628DT     BB238075  66.709  87.473  42.117
36628DT     BB338076  66.670  87.286  42.197
36628DT     SC138077  66.705  87.374  42.441
36628DT     SC238078  66.885  87.290  42.523
36628DT     SC338079  66.652  87.439  42.692
36629DC     BB138080  66.671  87.227  41.945
36629DC     BB238081  66.918  87.011  42.096
36629DC     BB338082  66.825  86.851  42.187
36629DC     SC138083  66.744  87.001  42.386
36629DC     SC238084  66.851  86.947  42.565
36629DC     SC338085  66.583  87.129  42.552
36630DC     BB138086  66.939  86.721  41.992
36630DC     BB238087  67.047  86.553  42.293
36630DC     BB338088  66.898  86.426  42.360
36630DC     SC138089  66.755  86.627  42.449
36630DC     SC238090  66.753  86.623  42.664
36630DC     SC338091  66.556  86.797  42.475
36631DC     BB138092  67.046  86.216  42.278
36631DC     BB238093  66.968  86.139  42.622
36631DC     BB338094  66.784  86.047  42.634
36631DC     SC138095  66.659  86.274  42.591
36631DC     SC238096  66.558  86.335  42.771
36631DC     SC338097  66.507  86.455  42.474
36632DT     BB138098  66.883  85.786  42.678
36632DT     BB238099  66.649  85.832  42.949
36632DT     BB338100  66.461  85.766  42.893
36632DT     SC138101  66.424  85.978  42.742
36632DT     SC238102  66.273  86.103  42.830
36632DT     SC338103  66.385  86.126  42.527
36633DT     BB138104  66.451  85.511  43.035
36633DT     BB238105  66.149  85.676  43.145
36633DT     BB338106  65.990  85.620  43.026
36633DT     SC138107  66.074  85.770  42.828
36633DT     SC238108  65.940  85.936  42.802
36633DT     SC338109  66.166  85.839  42.591
36634DT     BB138110  65.854  85.435  43.207
36634DT     BB238111  65.596  85.673  43.125
36634DT     BB338112  65.484  85.603  42.965
36634DT     SC138113  65.676  85.658  42.795
36634DT     SC238114  65.616  85.823  42.670
36634DT     SC338115  65.866  85.624  42.615
36635DT     BB138116  65.250  85.529  43.114
36635DT     BB238117  65.125  85.763  42.869
36635DT     BB338118  65.060  85.661  42.701
36635DT     SC138119  65.306  85.615  42.623
36635DT     SC238120  65.348  85.730  42.446
36635DT     SC338121  65.526  85.483  42.559
36636DT     BB138122  64.790  85.704  42.757
36636DT     BB238123  64.836  85.848  42.430
36636DT     BB338124  64.800  85.706  42.284
36636DT     SC138125  65.029  85.587  42.332
36636DT     SC238126  65.161  85.617  42.166
36636DT     SC338127  65.201  85.400  42.403
36637DC     BB138128  64.568  85.832  42.218
36637DC     BB238129  64.759  85.828  41.912
36637DC     BB338130  64.723  85.653  41.809
36637DC     SC138131  64.871  85.515  41.976
36637DC     SC238132  65.050  85.450  41.877
36637DC     SC338133  64.939  85.337  42.159
36638DA     BB138134  64.671  85.978  41.551
36638DA     BB238135  64.889  85.735  41.384
36638DA     BB338136  64.777  85.565  41.322
36638DA     SC138137  64.823  85.407  41.586
36638DA     SC238138  64.948  85.205  41.661
36638DA     SC338139  64.788  85.205  41.862
36638DA     SC438140  64.712  85.423  41.702
36639DC     BB138141  64.763  85.538  41.129
36639DC     BB238142  64.988  85.257  41.107
36639DC     BB338143  64.881  85.081  41.085
36639DC     SC138144  64.810  85.085  41.338
36639DC     SC238145  64.909  84.924  41.442
36639DC     SC338146  64.657  85.096  41.553
36640DA     BB138147  65.174  85.096  40.786
36640DA     BB238148  65.189  84.765  40.943
36640DA     BB338149  65.020  84.648  40.886
36640DA     SC138150  64.843  84.741  41.125
36640DA     SC238151  64.749  84.642  41.334
36640DA     SC338152  64.583  84.838  41.326
36640DA     SC438153  64.748  84.868  41.102
36641DG     BB138154  65.232  84.453  40.768
36641DG     BB238155  65.100  84.227  41.017
36641DG     BB338156  64.935  84.139  40.948
36641DG     SC138157  64.746  84.355  41.054
36641DG     SC238158  64.543  84.319  41.270
36641DG     SC338159  64.512  84.582  41.139
36641DG     SC438160  64.714  84.482  40.962
36642DT     BB138161  64.922  83.916  40.915
36642DT     BB238162  64.716  83.816  41.193
36642DT     BB338163  64.524  83.773  41.127
36642DT     SC138164  64.469  84.028  41.098
36642DT     SC238165  64.325  84.088  41.246
36642DT     SC338166  64.407  84.257  40.982
36643DA     BB138167  64.653  83.443  41.350
36643DA     BB238168  64.319  83.536  41.470
36643DA     BB338169  64.171  83.478  41.329
36643DA     SC138170  64.177  83.748  41.175
36643DA     SC238171  64.028  83.945  41.141
36643DA     SC338172  64.170  83.991  40.933
36643DA     SC438173  64.276  83.759  41.048
36644DC     BB138174  64.044  83.338  41.387
36644DC     BB238175  63.759  83.553  41.434
36644DC     BB338176  63.626  83.530  41.276
36644DC     SC138177  63.781  83.667  41.115
36644DC     SC238178  63.688  83.856  41.069
36644DC     SC338179  63.939  83.725  40.912
36645DA     BB138180  63.423  83.497  41.641
36645DA     BB238181  63.236  83.727  41.427
36645DA     BB338182  63.142  83.621  41.268
36645DA     SC138183  63.382  83.652  41.072
36645DA     SC238184  63.433  83.776  40.861
36645DA     SC338185  63.621  83.603  40.830
36645DA     SC438186  63.492  83.535  41.070
36646DA     BB138187  62.893  83.792  41.395
36646DA     BB238188  62.853  83.941  41.063
36646DA     BB338189  62.774  83.797  40.926
36646DA     SC138190  63.052  83.695  40.833
36646DA     SC238191  63.193  83.704  40.628
36646DA     SC338192  63.316  83.502  40.728
36646DA     SC438193  63.115  83.569  40.911
36647DA     BB138194  62.556  84.041  40.878
36647DA     BB238195  62.654  84.035  40.525
36647DA     BB338196  62.574  83.862  40.429
36647DA     SC138197  62.822  83.684  40.488
36647DA     SC238198  63.009  83.579  40.360
36647DA     SC338199  63.032  83.423  40.562
36647DA     SC438200  62.820  83.596  40.622
36648DA     BB138201  62.438  84.073  40.207
36648DA     BB238202  62.626  83.899  39.945
36648DA     BB338203  62.531  83.714  39.896
36648DA     SC138204  62.693  83.549  40.105
36648DA     SC238205  62.871  83.375  40.104
36648DA     SC338206  62.793  83.322  40.342
36648DA     SC438207  62.629  83.530  40.251
36649DT     BB138208  62.412  83.651  39.697
36649DT     BB238209  62.664  83.429  39.564
36649DT     BB338210  62.596  83.233  39.570
36649DT     SC138211  62.632  83.220  39.830
36649DT     SC238212  62.795  83.087  39.872
36649DT     SC338213  62.578  83.197  40.087
36650DT     BB138214  62.513  83.173  39.283
36650DT     BB238215  62.745  82.906  39.356
36650DT     BB338216  62.641  82.736  39.414
36650DT     SC138217  62.588  82.839  39.649
36650DT     SC238218  62.698  82.733  39.800
36650DT     SC338219  62.450  82.935  39.853
36651DG     BB138220  62.815  82.573  39.074
36651DG     BB238221  62.890  82.368  39.362
36651DG     BB338222  62.744  82.237  39.392
36651DG     SC138223  62.581  82.421  39.574
36651DG     SC238224  62.530  82.379  39.865
36651DG     SC338225  62.367  82.603  39.761
36651DG     SC438226  62.474  82.520  39.508
36652DG     BB138227  62.946  81.974  39.359
36652DG     BB238228  62.880  81.908  39.708
36652DG     BB338229  62.719  81.792  39.726
36652DG     SC138230  62.522  82.026  39.740
36652DG     SC238231  62.358  82.103  39.978
36652DG     SC338232  62.276  82.257  39.739
36652DG     SC438233  62.461  82.084  39.604
36653DC     BB138234  62.736  81.592  39.819
36653DC     BB238235  62.594  81.656  40.144
36653DC     BB338236  62.403  81.577  40.155
36653DC     SC138237  62.305  81.769  40.005
36653DC     SC238238  62.179  81.896  40.125
36653DC     SC338239  62.191  81.890  39.801
36654DA     BB138240  62.629  81.454  40.485
36654DA     BB238241  62.309  81.584  40.608
36654DA     BB338242  62.151  81.448  40.562
36654DA     SC138243  62.086  81.579  40.287
36654DA     SC238244  61.902  81.713  40.186
36654DA     SC338245  61.998  81.637  39.961
36654DA     SC438246  62.160  81.520  40.157
36655DA     BB138247  62.111  81.492  40.883
36655DA     BB238248  61.778  81.621  40.801
36655DA     BB338249  61.649  81.461  40.743
36655DA     SC138250  61.719  81.483  40.440
36655DA     SC238251  61.606  81.554  40.230
36655DA     SC338252  61.787  81.417  40.110
36655DA     SC438253  61.839  81.391  40.385
36656DT     BB138254  61.493  81.416  40.862
36656DT     BB238255  61.235  81.553  40.651
36656DT     BB338256  61.132  81.400  40.556
36656DT     SC138257  61.332  81.358  40.391
36656DT     SC238258  61.275  81.419  40.193
36656DT     SC338259  61.531  81.236  40.269
36657DA     BB138260  60.842  81.641  40.741
36657DA     BB238261  60.739  81.587  40.393
36657DA     BB338262  60.666  81.388  40.367
36657DA     SC138263  60.944  81.270  40.290
36657DA     SC238264  61.055  81.178  40.087
36657DA     SC338265  61.219  81.069  40.251
36657DA     SC438266  61.034  81.210  40.408
36658DC     BB138267  60.466  81.356  40.323
36658DC     BB238268  60.514  81.274  39.975
36658DC     BB338269  60.487  81.071  39.946
36658DC     SC138270  60.719  81.016  40.055
36658DC     SC238271  60.854  80.945  39.904
36658DC     SC338272  60.897  80.920  40.224
36659DA     BB138273  60.253  81.282  39.671
36659DA     BB238274  60.445  81.029  39.487
36659DA     BB338275  60.367  80.834  39.525
36659DA     SC138276  60.552  80.781  39.769
36659DA     SC238277  60.746  80.634  39.825
36659DA     SC338278  60.682  80.678  40.070
36659DA     SC438279  60.496  80.819  39.915
36660DG     BB138280  60.347  80.866  39.222
36660DG     BB238281  60.586  80.594  39.230
36660DG     BB338282  60.493  80.423  39.271
36660DG     SC138283  60.524  80.450  39.575
36660DG     SC238284  60.690  80.275  39.750
36660DG     SC338285  60.522  80.457  39.912
36660DG     SC438286  60.411  80.528  39.657
36661DA     BB138287  60.686  80.341  38.999
36661DA     BB238288  60.840  80.075  39.198
36661DA     BB338289  60.698  79.921  39.238
36661DA     SC138290  60.600  80.047  39.505
36661DA     SC238291  60.613  79.998  39.749
36661DA     SC338292  60.411  80.153  39.771
36661DA     SC438293  60.473  80.146  39.498
36662DA     BB138294  60.965  79.772  39.118
36662DA     BB238295  60.967  79.583  39.432
36662DA     BB338296  60.799  79.452  39.441
36662DA     SC138297  60.614  79.660  39.581
36662DA     SC238298  60.509  79.691  39.805
36662DA     SC338299  60.347  79.849  39.684
36662DA     SC438300  60.523  79.753  39.488
36663DA     BB138301  61.047  79.244  39.503
36663DA     BB238302  60.875  79.170  39.819
36663DA     BB338303  60.698  79.058  39.783
36663DA     SC138304  60.515  79.309  39.756
36663DA     SC238305  60.333  79.419  39.886
36663DA     SC338306  60.273  79.534  39.664
36663DA     SC438307  60.493  79.370  39.609
36664DA     BB138308  60.831  78.847  40.002
36664DA     BB238309  60.532  78.900  40.208
36664DA     BB338310  60.366  78.795  40.125
36664DA     SC138311  60.272  79.035  39.949
36664DA     SC238312  60.081  79.196  39.943
36664DA     SC338313  60.147  79.232  39.698
36664DA     SC438314  60.327  79.043  39.799
36665DA     BB138315  60.331  78.644  40.421
36665DA     BB238316  59.998  78.796  40.444
36665DA     BB338317  59.858  78.687  40.325
36665DA     SC138318  59.905  78.858  40.070
36665DA     SC238319  59.780  79.025  39.934
36665DA     SC338320  59.945  78.966  39.746
36665DA     SC438321  60.016  78.807  39.966
36666DT     BB138322  59.686  78.564  40.405
36666DT     BB238323  59.427  78.798  40.317
36666DT     BB338324  59.313  78.723  40.162
36666DT     SC138325  59.503  78.772  39.987
36666DT     SC238326  59.441  78.931  39.857
36666DT     SC338327  59.690  78.731  39.806
36667DA     BB138328  59.030  78.815  40.458
36667DA     BB238329  58.918  78.971  40.146
36667DA     BB338330  58.834  78.825  40.015
36667DA     SC138331  59.104  78.762  39.873
36667DA     SC238332  59.207  78.797  39.649
36667DA     SC338333  59.367  78.608  39.715
36667DA     SC438334  59.193  78.642  39.932
36668DA     BB138335  58.583  79.033  40.022
36668DA     BB238336  58.640  79.081  39.663
36668DA     BB338337  58.563  78.915  39.553
36668DA     SC138338  58.830  78.755  39.562
36668DA     SC238339  59.008  78.685  39.402
36668DA     SC338340  59.067  78.507  39.578
36668DA     SC438341  58.850  78.651  39.683
36669DC     BB138342  58.423  78.964  39.440
36669DC     BB238343  58.613  78.952  39.133
36669DC     BB338344  58.574  78.776  39.033
36669DC     SC138345  58.720  78.638  39.201
36669DC     SC238346  58.898  78.569  39.102
36669DC     SC338347  58.785  78.462  39.387
36670DT     BB138348  58.461  78.942  38.868
36670DT     BB238349  58.715  78.771  38.677
36670DT     BB338350  58.646  78.584  38.620
36670DT     SC138351  58.676  78.489  38.862
36670DT     SC238352  58.838  78.348  38.864
36670DT     SC338353  58.617  78.386  39.098
36671DT     BB138354  58.658  78.702  38.390
36671DT     BB238355  58.870  78.411  38.364
36671DT     BB338356  58.755  78.242  38.336
36671DT     SC138357  58.681  78.242  38.588
36671DT     SC238358  58.771  78.075  38.689
36671DT     SC338359  58.526  78.256  38.801
36672DT     BB138360  58.865  78.251  38.101
36672DT     BB238361  58.949  77.927  38.236
36672DT     BB338362  58.788  77.799  38.216
36672DT     SC138363  58.660  77.917  38.413
36672DT     SC238364  58.651  77.784  38.582
36672DT     SC338365  58.475  78.053  38.543
36673DT     BB138366  58.937  77.679  38.036
36673DT     BB238367  58.855  77.424  38.278
36673DT     BB338368  58.666  77.349  38.240
36673DT     SC138369  58.553  77.565  38.337
36673DT     SC238370  58.455  77.517  38.523
36673DT     SC338371  58.411  77.787  38.349
36674DA     BB138372  58.937  77.030  38.279
36674DA     BB238373  58.644  76.958  38.486
36674DA     BB338374  58.475  76.914  38.364
36674DA     SC138375  58.378  77.209  38.349
36674DA     SC238376  58.188  77.345  38.436
36674DA     SC338377  58.247  77.510  38.249
36674DA     SC438378  58.429  77.299  38.226
36675DT     BB138379  58.411  76.736  38.380
36675DT     BB238380  58.112  76.812  38.567
36675DT     BB338381  57.948  76.813  38.440
36675DT     SC138382  58.018  77.044  38.338
36675DT     SC238383  57.878  77.195  38.401
36675DT     SC338384  58.095  77.225  38.162
36676DT     BB138385  57.877  76.590  38.563
36676DT     BB238386  57.598  76.815  38.605
36676DT     BB338387  57.478  76.812  38.436
36676DT     SC138388  57.653  76.954  38.301
36676DT     SC238389  57.572  77.150  38.264
36676DT     SC338390  57.830  77.020  38.117
36677DG     BB138391  57.250  76.718  38.761
36677DG     BB238392  57.103  76.984  38.566
36677DG     BB338393  57.021  76.910  38.400
36677DG     SC138394  57.276  76.938  38.233
36677DG     SC238395  57.313  77.123  38.001
36677DG     SC338396  57.542  76.937  38.026
36677DG     SC438397  57.381  76.818  38.231
36678DT     BB138398  56.810  76.931  38.370
36678DT     BB238399  56.795  77.182  38.111
36678DT     BB338400  56.764  77.092  37.927
36678DT     SC138401  57.012  77.008  37.918
36678DT     SC238402  57.118  77.116  37.764
36678DT     SC338403  57.219  76.844  37.909
36679DT     BB138404  56.507  77.182  37.921
36679DT     BB238405  56.653  77.306  37.615
36679DT     BB338406  56.639  77.162  37.467
36679DT     SC138407  56.832  77.021  37.575
36679DT     SC238408  57.006  77.029  37.448
36679DT     SC338409  56.958  76.821  37.691
36680DG     BB138410  56.430  77.478  37.308
36680DG     BB238411  56.682  77.360  37.078
36680DG     BB338412  56.617  77.198  36.983
36680DG     SC138413  56.727  77.003  37.192
36680DG     SC238414  56.948  76.807  37.149
36680DG     SC338415  56.817  76.762  37.411
36680DG     SC438416  56.636  76.963  37.317
36681DT     BB138417  56.570  77.169  36.743
36681DT     BB238418  56.859  76.979  36.642
36681DT     BB338419  56.803  76.784  36.598
36681DT     SC138420  56.776  76.726  36.852
36681DT     SC238421  56.932  76.590  36.911
36681DT     SC338422  56.663  76.656  37.080
36682DC     BB138423  56.833  76.819  36.324
36682DC     BB238424  57.052  76.543  36.401
36682DC     BB338425  56.949  76.364  36.386
36682DC     SC138426  56.823  76.409  36.612
36682DC     SC238427  56.893  76.271  36.762
36682DC     SC338428  56.626  76.454  36.782
36683DT     BB138429  57.084  76.303  36.159
36683DT     BB238430  57.152  76.028  36.381
36683DT     BB338431  57.003  75.885  36.364
36683DT     SC138432  56.835  76.034  36.500
36683DT     SC238433  56.798  75.943  36.692
36683DT     SC338434  56.623  76.180  36.557
36684DA     BB138435  57.368  75.684  36.314
36684DA     BB238436  57.170  75.497  36.559
36684DA     BB338437  57.011  75.392  36.462
36684DA     SC138438  56.807  75.625  36.493
36684DA     SC238439  56.600  75.672  36.623
36684DA     SC338440  56.554  75.852  36.446
36684DA     SC438441  56.796  75.731  36.373
36685DC     BB138442  57.009  75.183  36.454
36685DC     BB238443  56.747  75.133  36.697
36685DC     BB338444  56.573  75.076  36.601
36685DC     SC138445  56.531  75.321  36.515
36685DC     SC238446  56.362  75.405  36.617
36685DC     SC338447  56.500  75.523  36.349
36686DT     BB138448  56.581  74.802  36.676
36686DT     BB238449  56.261  74.913  36.798
36686DT     BB338450  56.115  74.881  36.653
36686DT     SC138451  56.202  75.084  36.511
36686DT     SC238452  56.056  75.243  36.518
36686DT     SC338453  56.304  75.221  36.310
36687DA     BB138454  55.951  74.674  36.981
36687DA     BB238455  55.692  74.901  36.856
36687DA     BB338456  55.600  74.820  36.682
36687DA     SC138457  55.798  74.956  36.484
36687DA     SC238458  55.793  75.138  36.314
36687DA     SC338459  56.005  75.029  36.220
36687DA     SC438460  55.928  74.873  36.440
36688DA     BB138461  55.317  74.852  36.846
36688DA     BB238462  55.223  75.103  36.596
36688DA     BB338463  55.148  75.008  36.420
36688DA     SC138464  55.426  74.991  36.281
36688DA     SC238465  55.541  75.095  36.087
36688DA     SC338466  55.699  74.893  36.097
36688DA     SC438467  55.512  74.857  36.303
36689DT     BB138468  54.964  75.048  36.384
36689DT     BB238469  55.036  75.291  36.127
36689DT     BB338470  54.996  75.211  35.941
36689DT     SC138471  55.213  75.064  35.950
36689DT     SC238472  55.356  75.138  35.806
36689DT     SC338473  55.369  74.851  35.956
36690DA     BB138474  54.883  75.604  36.053
36690DA     BB238475  55.066  75.612  35.736
36690DA     BB338476  54.957  75.508  35.584
36690DA     SC138477  55.092  75.234  35.641
36690DA     SC238478  55.253  75.080  35.528
36690DA     SC338479  55.158  74.899  35.683
36690DA     SC438480  55.019  75.135  35.745
36691DA     BB138481  55.106  75.805  35.534
36691DA     BB238482  55.267  75.627  35.258
36691DA     BB338483  55.120  75.548  35.125
36691DA     SC138484  55.099  75.275  35.272
36691DA     SC238485  55.160  75.037  35.229
36691DA     SC338486  54.987  74.981  35.411
36691DA     SC438487  54.986  75.261  35.386
36692DT     BB138488  55.188  75.630  35.015
36692DT     BB238489  55.309  75.352  34.820
36692DT     BB338490  55.153  75.269  34.712
36692DT     SC138491  55.054  75.156  34.927
36692DT     SC238492  55.080  74.942  34.914
36692DT     SC338493  54.887  75.098  35.123
36693DT     BB138494  55.298  75.371  34.525
36693DT     BB238495  55.251  75.024  34.436
36693DT     BB338496  55.061  74.996  34.359
36693DT     SC138497  54.953  75.014  34.598
36693DT     SC238498  54.878  74.822  34.657
36693DT     SC338499  54.807  75.105  34.798
36694DA     BB138500  55.338  74.824  34.093
36694DA     BB238501  55.059  74.589  34.136
36694DA     BB338502  54.884  74.665  34.040
36694DA     SC138503  54.781  74.813  34.294
36694DA     SC238504  54.594  74.791  34.458
36694DA     SC338505  54.639  75.038  34.511
36694DA     SC438506  54.823  74.967  34.312
36695DT     BB138507  54.803  74.573  33.869
36695DT     BB238508  54.506  74.434  34.020
36695DT     BB338509  54.340  74.544  33.965
36695DT     SC138510  54.406  74.740  34.126
36695DT     SC238511  54.265  74.749  34.289
36695DT     SC338512  54.478  74.980  34.208
36696DA     BB138513  54.226  74.154  33.852
36696DA     BB238514  53.942  74.299  34.033
36696DA     BB338515  53.838  74.438  33.909
36696DA     SC138516  54.007  74.683  34.000
36696DA     SC238517  53.973  74.891  34.135
36696DA     SC338518  54.181  74.979  34.013
36696DA     SC438519  54.136  74.721  33.913
36697DC     BB138520  53.626  74.413  33.820
36697DC     BB238521  53.460  74.650  34.036
36697DC     BB338522  53.403  74.816  33.927
36697DC     SC138523  53.650  74.904  33.916
36697DC     SC238524  53.667  75.081  34.038
36697DC     SC338525  53.883  74.979  33.818
36698DA     BB138526  53.026  74.708  34.086
36698DA     BB238527  53.065  75.067  34.149
36698DA     BB338528  53.022  75.178  33.973
36698DA     SC138529  53.316  75.176  33.870
36698DA     SC238530  53.502  75.340  33.840
36698DA     SC338531  53.599  75.168  33.676
36698DA     SC438532  53.359  75.058  33.771
36699DA     BB138533  52.784  75.358  34.134
36699DA     BB238534  52.987  75.658  34.076
36699DA     BB338535  52.949  75.737  33.882
36699DA     SC138536  53.175  75.573  33.745
36699DA     SC238537  53.397  75.617  33.640
36699DA     SC338538  53.365  75.389  33.525
36699DA     SC438539  53.136  75.430  33.682
36700DC     BB138540  52.840  75.943  33.824
36700DC     BB238541  53.144  76.119  33.741
36700DC     BB338542  53.147  76.161  33.538
36700DC     SC138543  53.202  75.912  33.479
36700DC     SC238544  53.403  75.898  33.404
36700DC     SC338545  53.176  75.669  33.379
36701DT     BB138546  53.096  76.438  33.566
36701DT     BB238547  53.413  76.423  33.394
36701DT     BB338548  53.383  76.428  33.190
36701DT     SC138549  53.300  76.179  33.189
36701DT     SC238550  53.446  76.055  33.091
36701DT     SC338551  53.141  75.970  33.160
36702DA     BB138552  53.664  76.716  33.299
36702DA     BB238553  53.807  76.512  33.029
36702DA     BB338554  53.714  76.560  32.843
36702DA     SC138555  53.491  76.344  32.872
36702DA     SC238556  53.429  76.128  32.764
36702DA     SC338557  53.195  76.170  32.862
36702DA     SC438558  53.352  76.389  32.939
36703DA     BB138559  54.035  76.575  32.802
36703DA     BB238560  53.987  76.312  32.551
36703DA     BB338561  53.885  76.389  32.381
36703DA     SC138562  53.602  76.321  32.489
36703DA     SC238563  53.417  76.162  32.436
36703DA     SC338564  53.267  76.324  32.566
36703DA     SC438565  53.524  76.435  32.572
36704DA     BB138566  54.152  76.228  32.281
36704DA     BB238567  53.919  76.023  32.086
36704DA     BB338568  53.829  76.139  31.931
36704DA     SC138569  53.587  76.227  32.105
36704DA     SC238570  53.341  76.184  32.115
36704DA     SC338571  53.329  76.402  32.250
36704DA     SC438572  53.599  76.366  32.186
36705DT     BB138573  53.879  76.076  31.769
36705DT     BB238574  53.561  75.935  31.671
36705DT     BB338575  53.458  76.069  31.551
36705DT     SC138576  53.398  76.219  31.758
36705DT     SC238577  53.187  76.205  31.797
36705DT     SC338578  53.389  76.428  31.918
36706DA     BB138579  53.465  75.705  31.341
36706DA     BB238580  53.122  75.835  31.327
36706DA     BB338581  53.112  76.003  31.195
36706DA     SC138582  53.171  76.212  31.418
36706DA     SC238583  53.047  76.392  31.538
36706DA     SC338584  53.280  76.485  31.595
36706DA     SC438585  53.324  76.255  31.441
36707DT     BB138586  53.007  76.004  30.999
36707DT     BB238587  52.729  76.211  31.099
36707DT     BB338588  52.745  76.398  31.012
36707DT     SC138589  52.936  76.467  31.177
36707DT     SC238590  52.863  76.618  31.312
36707DT     SC338591  53.174  76.540  31.265
36708DT     BB138592  52.543  76.368  30.808
36708DT     BB238593  52.439  76.664  30.986
36708DT     BB338594  52.516  76.833  30.895
36708DT     SC138595  52.756  76.784  30.990
36708DT     SC238596  52.805  76.931  31.138
36708DT     SC338597  53.013  76.727  30.997
36709DC     BB138598  52.274  76.924  30.773
36709DC     BB238599  52.378  77.202  30.977
36709DC     BB338600  52.493  77.333  30.865
36709DC     SC138601  52.699  77.170  30.872
36709DC     SC238602  52.853  77.256  30.996
36709DC     SC338603  52.890  77.007  30.791
36710DA     BB138604  52.190  77.560  31.041
36710DA     BB238605  52.510  77.722  31.117
36710DA     BB338606  52.585  77.823  30.945
36710DA     SC138607  52.747  77.578  30.842
36710DA     SC238608  52.986  77.512  30.818
36710DA     SC338609  52.901  77.341  30.647
36710DA     SC438610  52.674  77.479  30.738
36711DT     BB138611  52.595  78.010  30.969
36711DT     BB238612  52.953  78.026  31.011
36711DT     BB338613  53.042  78.090  30.836
36711DT     SC138614  53.003  77.857  30.722
36711DT     SC238615  53.192  77.758  30.695
36711DT     SC338616  52.913  77.675  30.553
36712DA     BB138617  53.179  78.305  31.170
36712DA     BB238618  53.469  78.188  30.978
36712DA     BB338619  53.483  78.294  30.793
36712DA     SC138620  53.311  78.089  30.635
36712DA     SC238621  53.345  77.918  30.456
36712DA     SC338622  53.092  77.938  30.418
36712DA     SC438623  53.153  78.116  30.625
36713DT     BB138624  53.636  78.395  30.787
36713DT     BB238625  53.815  78.185  30.555
36713DT     BB338626  53.802  78.264  30.364
36713DT     SC138627  53.553  78.184  30.340
36713DT     SC238628  53.543  78.024  30.196
36713DT     SC338629  53.291  78.193  30.311
36714DC     BB138630  54.057  78.315  30.397
36714DC     BB238631  54.038  78.106  30.103
36714DC     BB338632  53.989  78.221  29.938
36714DC     SC138633  53.739  78.241  30.016
36714DC     SC238634  53.613  78.128  29.884
36714DC     SC338635  53.513  78.348  30.099
36715DG     BB138636  54.332  78.008  29.882
36715DG     BB238637  54.092  77.954  29.617
36715DG     BB338638  54.084  78.113  29.499
36715DG     SC138639  53.864  78.252  29.660
36715DG     SC238640  53.585  78.305  29.566
36715DG     SC338641  53.638  78.441  29.823
36715DG     SC438642  53.905  78.347  29.781
36716DA     BB138643  54.118  77.858  29.271
36716DA     BB238644  53.806  77.969  29.113
36716DA     BB338645  53.835  78.158  29.017
36716DA     SC138646  53.754  78.325  29.266
36716DA     SC238647  53.565  78.472  29.336
36716DA     SC338648  53.729  78.565  29.510
36716DA     SC438649  53.871  78.371  29.366
36717DT     BB138650  53.807  78.127  28.851
36717DT     BB238651  53.494  78.303  28.821
36717DT     BB338652  53.527  78.498  28.761
36717DT     SC138653  53.613  78.564  29.001
36717DT     SC238654  53.470  78.695  29.094
36717DT     SC338655  53.774  78.645  29.193
36718DT     BB138656  53.414  78.408  28.547
36718DT     BB238657  53.221  78.697  28.645
36718DT     BB338658  53.321  78.870  28.590
36718DT     SC138659  53.494  78.842  28.786
36718DT     SC238660  53.461  78.995  28.933
36718DT     SC338661  53.723  78.806  28.911
36719DA     BB138662  52.924  78.900  28.449
36719DA     BB238663  53.015  79.220  28.602
36719DA     BB338664  53.159  79.322  28.482
36719DA     SC138665  53.404  79.197  28.628
36719DA     SC238666  53.586  79.272  28.781
36719DA     SC338667  53.710  79.061  28.705
36719DA     SC438668  53.465  79.061  28.567
36720DA     BB138669  52.953  79.591  28.471
36720DA     BB238670  53.222  79.790  28.621
36720DA     BB338671  53.370  79.838  28.475
36720DA     SC138672  53.542  79.585  28.530
36720DA     SC238673  53.764  79.531  28.631
36720DA     SC338674  53.746  79.310  28.502
36720DA     SC438675  53.513  79.454  28.442
36721DA     BB138676  53.353  80.186  28.503
36721DA     BB238677  53.705  80.190  28.608
36721DA     BB338678  53.833  80.195  28.438
36721DA     SC138679  53.856  79.885  28.416
36721DA     SC238680  54.030  79.710  28.451
36721DA     SC338681  53.882  79.562  28.302
36721DA     SC438682  53.751  79.810  28.320
36722DA     BB138683  53.995  80.485  28.528
36722DA     BB238684  54.306  80.293  28.559
36722DA     BB338685  54.404  80.280  28.370
36722DA     SC138686  54.263  80.016  28.287
36722DA     SC238687  54.325  79.776  28.254
36722DA     SC338688  54.110  79.762  28.113
36722DA     SC438689  54.127  80.027  28.203
36723DA     BB138690  54.671  80.412  28.517
36723DA     BB238691  54.845  80.096  28.450
36723DA     BB338692  54.918  80.092  28.250
36723DA     SC138693  54.661  79.962  28.133
36723DA     SC238694  54.593  79.742  28.035
36723DA     SC338695  54.396  79.871  27.934
36723DA     SC438696  54.546  80.060  28.078
36724DA     BB138697  55.193  80.026  28.411
36724DA     BB238698  55.193  79.703  28.237
36724DA     BB338699  55.255  79.728  28.034
36724DA     SC138700  54.967  79.773  27.925
36724DA     SC238701  54.802  79.652  27.783
36724DA     SC338702  54.693  79.881  27.750
36724DA     SC438703  54.915  79.925  27.916
36725DA     BB138704  55.450  79.491  28.145
36725DA     BB238705  55.303  79.280  27.884
36725DA     BB338706  55.375  79.339  27.692
36725DA     SC138707  55.144  79.541  27.641
36725DA     SC238708  54.944  79.561  27.492
36725DA     SC338709  54.955  79.812  27.545
36725DA     SC438710  55.168  79.694  27.685
36726DT     BB138711  55.479  79.208  27.608
36726DT     BB238712  55.240  79.110  27.357
36726DT     BB338713  55.285  79.200  27.176
36726DT     SC138714  55.195  79.432  27.261
36726DT     SC238715  55.014  79.481  27.156
36726DT     SC338716  55.192  79.685  27.334
36727DT     BB138717  55.376  78.964  27.070
36727DT     BB238718  55.126  79.075  26.835
36727DT     BB338719  55.212  79.200  26.694
36727DT     SC138720  55.226  79.397  26.867
36727DT     SC238721  55.087  79.551  26.811
36727DT     SC338722  55.329  79.582  27.025
36728DA     BB138723  55.035  78.909  26.444
36728DA     BB238724  54.938  79.237  26.312
36728DA     BB338725  55.100  79.324  26.203
36728DA     SC138726  55.217  79.472  26.451
36728DA     SC238727  55.240  79.707  26.531
36728DA     SC338728  55.425  79.616  26.683
36728DA     SC438729  55.330  79.396  26.536
36729DC     BB138730  55.122  79.365  25.964
36729DC     BB238731  55.064  79.720  25.985
36729DC     BB338732  55.235  79.823  25.932
36729DC     SC138733  55.349  79.765  26.162
36729DC     SC238734  55.367  79.944  26.280
36729DC     SC338735  55.520  79.664  26.335
36730DT     BB138736  55.156  79.916  25.668
36730DT     BB238737  55.225  80.219  25.851
36730DT     BB338738  55.420  80.279  25.817
36730DT     SC138739  55.514  80.090  25.972
36730DT     SC238740  55.596  80.178  26.151
36730DT     SC338741  55.645  79.874  26.049
36731DT     BB138742  55.339  80.495  25.661
36731DT     BB238743  55.516  80.643  25.938
36731DT     BB338744  55.716  80.664  25.891
36731DT     SC138745  55.758  80.406  25.921
36731DT     SC238746  55.879  80.374  26.096
36731DT     SC338747  55.820  80.157  25.863
36732DA     BB138748  55.540  81.007  26.051
36732DA     BB238749  55.845  80.932  26.241
36732DA     BB338750  56.017  80.970  26.121
36732DA     SC138751  56.031  80.681  26.007
36732DA     SC238752  56.179  80.481  26.028
36732DA     SC338753  56.075  80.406  25.806
36732DA     SC438754  55.956  80.652  25.868
36733DT     BB138755  56.096  81.092  26.208
36733DT     BB238756  56.366  80.889  26.334
36733DT     BB338757  56.529  80.901  26.207
36733DT     SC138758  56.413  80.746  26.030
36733DT     SC238759  56.514  80.557  26.022
36733DT     SC338760  56.302  80.667  25.804
36734DT     BB138761  56.620  81.021  26.416
36734DT     BB238762  56.849  80.750  26.351
36734DT     BB338763  56.976  80.801  26.196
36734DT     SC138764  56.787  80.766  26.018
36734DT     SC238765  56.831  80.592  25.900
36734DT     SC338766  56.611  80.819  25.829
36735DC     BB138767  57.152  80.806  26.389
36735DC     BB238768  57.285  80.576  26.144
36735DC     BB338769  57.376  80.681  25.991
36735DC     SC138770  57.143  80.752  25.891
36735DC     SC238771  57.112  80.650  25.704
36735DC     SC338772  56.943  80.904  25.812
36736DG     BB138773  57.651  80.426  26.148
36736DG     BB238774  57.637  80.399  25.787
36736DG     BB338775  57.731  80.553  25.704
36736DG     SC138776  57.483  80.731  25.694
36736DG     SC238777  57.343  80.823  25.446
36736DG     SC338778  57.235  80.960  25.685
36736DG     SC438779  57.448  80.824  25.820
36737DC     BB138780  57.919  80.532  25.578
36737DC     BB238781  57.793  80.598  25.246
36737DC     BB338782  57.849  80.788  25.186
36737DC     SC138783  57.670  80.898  25.343
36737DC     SC238784  57.515  80.986  25.223
36737DC     SC338785  57.566  81.042  25.538
36738DA     BB138786  57.987  80.543  24.873
36738DA     BB238787  57.808  80.823  24.720
36738DA     BB338788  57.926  81.000  24.727
36738DA     SC138789  57.814  81.094  25.001
36738DA     SC238790  57.667  81.276  25.088
36738DA     SC338791  57.775  81.227  25.315
36738DA     SC438792  57.893  81.049  25.133
36739DA     BB138793  57.887  81.019  24.396
36739DA     BB238794  57.721  81.342  24.447
36739DA     BB338795  57.865  81.496  24.478
36739DA     SC138796  57.869  81.463  24.788
36739DA     SC238797  57.796  81.592  24.988
36739DA     SC338798  57.962  81.446  25.118
36739DA     SC438799  57.979  81.363  24.850
36740DT     BB138800  57.899  81.657  24.336
36740DT     BB238801  57.736  81.916  24.527
36740DT     BB338802  57.877  82.047  24.604
36740DT     SC138803  57.952  81.873  24.786
36740DT     SC238804  57.890  81.942  24.980
36740DT     SC338805  58.103  81.705  24.921
36741DT     BB138806  57.822  82.259  24.424
36741DT     BB238807  57.778  82.409  24.749
36741DT     BB338808  57.956  82.495  24.811
36741DT     SC138809  58.059  82.260  24.865
36741DT     SC238810  58.080  82.238  25.078
36741DT     SC338811  58.219  82.050  24.854
36742DA     BB138812  57.678  82.807  24.842
36742DA     BB238813  57.858  82.790  25.161
36742DA     BB338814  58.052  82.876  25.142
36742DA     SC138815  58.190  82.609  25.063
36742DA     SC238816  58.351  82.447  25.164
36742DA     SC338817  58.392  82.368  24.924
36742DA     SC438818  58.202  82.575  24.907
36743DA     BB138819  57.952  83.058  25.396
36743DA     BB238820  58.225  82.907  25.589
36743DA     BB338821  58.411  82.998  25.539
36743DA     SC138822  58.477  82.797  25.311
36743DA     SC238823  58.639  82.612  25.269
36743DA     SC338824  58.585  82.649  25.021
36743DA     SC438825  58.431  82.836  25.162
36744DA     BB138826  58.416  83.035  25.862
36744DA     BB238827  58.716  82.825  25.862
36744DA     BB338828  58.885  82.937  25.795
36744DA     SC138829  58.847  82.862  25.496
36744DA     SC238830  58.963  82.723  25.324
36744DA     SC338831  58.834  82.864  25.153
36744DA     SC438832  58.759  82.961  25.405
36745DT     BB138833  59.017  82.959  25.929
36745DT     BB238834  59.254  82.723  25.794
36745DT     BB338835  59.406  82.824  25.696
36745DT     SC138836  59.249  82.878  25.492
36745DT     SC238837  59.314  82.765  25.321
36745DT     SC338838  59.109  83.016  25.317
36746DT     BB138839  59.548  82.736  25.897
36746DT     BB238840  59.711  82.608  25.602
36746DT     BB338841  59.832  82.755  25.519
36746DT     SC138842  59.625  82.884  25.425
36746DT     SC238843  59.623  82.869  25.210
36746DT     SC338844  59.449  83.077  25.387
36747DC     BB138845  60.021  82.595  25.602
36747DC     BB238846  60.081  82.637  25.249
36747DC     BB338847  60.180  82.816  25.215
36747DC     SC138848  59.962  82.955  25.259
36747DC     SC238849  59.895  83.042  25.074
36747DC     SC338850  59.794  83.124  25.371
36748DA     BB138851  60.373  82.502  25.013
36748DA     BB238852  60.346  82.786  24.783
36748DA     BB338853  60.475  82.944  24.845
36748DA     SC138854  60.261  83.083  25.024
36748DA     SC238855  60.126  83.292  25.021
36748DA     SC338856  60.097  83.253  25.273
36748DA     SC438857  60.256  83.041  25.179
36749DT     BB138858  60.636  82.993  24.730
36749DT     BB238859  60.520  83.313  24.610
36749DT     BB338860  60.616  83.466  24.711
36749DT     SC138861  60.472  83.425  24.926
36749DT     SC238862  60.338  83.590  24.955
36749DT     SC338863  60.410  83.364  25.175
36750DA     BB138864  60.702  83.570  24.310
36750DA     BB238865  60.594  83.877  24.478
36750DA     BB338866  60.751  83.953  24.601
36750DA     SC138867  60.660  83.798  24.854
36750DA     SC238868  60.559  83.849  25.076
36750DA     SC338869  60.650  83.620  25.148
36750DA     SC438870  60.726  83.653  24.880
36751DA     BB138871  60.750  84.255  24.442
36751DA     BB238872  60.657  84.412  24.760
36751DA     BB338873  60.831  84.444  24.880
36751DA     SC138874  60.812  84.169  25.024
36751DA     SC238875  60.760  84.084  25.253
36751DA     SC338876  60.883  83.871  25.179
36751DA     SC438877  60.894  84.046  24.960
36752DA     BB138878  60.756  84.772  24.898
36752DA     BB238879  60.715  84.729  25.260
36752DA     BB338880  60.905  84.737  25.358
36752DA     SC138881  60.954  84.430  25.339
36752DA     SC238882  60.963  84.235  25.495
36752DA     SC338883  61.094  84.118  25.307
36752DA     SC438884  61.034  84.375  25.212
36753DT     BB138885  60.958  84.896  25.492
36753DT     BB238886  60.915  84.706  25.795
36753DT     BB338887  61.100  84.666  25.881
36753DT     SC138888  61.152  84.483  25.700
36753DT     SC238889  61.150  84.289  25.792
36753DT     SC338890  61.271  84.359  25.500
36754DA     BB138891  60.846  84.831  26.170
36754DA     BB238892  60.993  84.525  26.308
36754DA     BB338893  61.199  84.556  26.353
36754DA     SC138894  61.300  84.464  26.073
36754DA     SC238895  61.425  84.271  25.976
36754DA     SC338896  61.472  84.428  25.779
36754DA     SC438897  61.319  84.577  25.961
36755DA     BB138898  61.079  84.436  26.632
36755DA     BB238899  61.317  84.161  26.589
36755DA     BB338900  61.516  84.229  26.627
36755DA     SC138901  61.571  84.306  26.330
36755DA     SC238902  61.712  84.224  26.141
36755DA     SC338903  61.679  84.459  26.042
36755DA     SC438904  61.540  84.457  26.286
36756DT     BB138905  61.597  84.149  26.779
36756DT     BB238906  61.828  83.935  26.602
36756DT     BB338907  62.016  84.021  26.601
36756DT     SC138908  61.944  84.197  26.420
36756DT     SC238909  62.043  84.153  26.234
36756DT     SC338910  61.890  84.429  26.307
36757DA     BB138911  62.064  83.628  26.744
36757DA     BB238912  62.317  83.685  26.485
36757DA     BB338913  62.470  83.815  26.558
36757DA     SC138914  62.329  84.074  26.460
36757DA     SC238915  62.365  84.249  26.286
36757DA     SC338916  62.209  84.395  26.429
36757DA     SC438917  62.232  84.150  26.564
36758DT     BB138918  62.676  83.751  26.596
36758DT     BB238919  62.823  83.914  26.309
36758DT     BB338920  62.934  84.078  26.371
36758DT     SC138921  62.718  84.218  26.418
36758DT     SC238922  62.702  84.376  26.273
36758DT     SC338923  62.534  84.354  26.550
36759DT     BB138924  63.194  83.962  26.333
36759DT     BB238925  63.202  84.260  26.130
36759DT     BB338926  63.278  84.419  26.240
36759DT     SC138927  63.055  84.442  26.376
36759DT     SC238928  62.956  84.624  26.320
36759DT     SC338929  62.887  84.443  26.579
36760DA     BB138930  63.514  84.405  25.895
36760DA     BB238931  63.388  84.748  25.930
36760DA     BB338932  63.496  84.851  26.083
36760DA     SC138933  63.300  84.768  26.311
36760DA     SC238934  63.131  84.877  26.458
36760DA     SC338935  63.162  84.673  26.610
36760DA     SC438936  63.335  84.634  26.393
36761DA     BB138937  63.527  85.054  25.832
36761DA     BB238938  63.337  85.295  26.033
36761DA     BB338939  63.459  85.376  26.187
36761DA     SC138940  63.383  85.159  26.396
36761DA     SC238941  63.252  85.144  26.608
36761DA     SC338942  63.386  84.929  26.652
36761DA     SC438943  63.477  85.028  26.406
36762DT     BB138944  63.482  85.557  26.164
36762DT     BB238945  63.258  85.660  26.427
36762DT     BB338946  63.366  85.709  26.597
36762DT     SC138947  63.412  85.457  26.650
36762DT     SC238948  63.302  85.400  26.826
36762DT     SC338949  63.543  85.231  26.689
36763DC     BB138950  63.288  85.953  26.539
36763DC     BB238951  63.162  85.887  26.870
36763DC     BB338952  63.311  85.917  27.010
36763DC     SC138953  63.430  85.692  26.943
36763DC     SC238954  63.410  85.550  27.103
36763DC     SC338955  63.614  85.527  26.852
36764DT     BB138956  63.167  86.125  27.080
36764DT     BB238957  63.195  85.923  27.378
36764DT     BB338958  63.376  85.959  27.471
36764DT     SC138959  63.506  85.821  27.289
36764DT     SC238960  63.581  85.640  27.378
36764DT     SC338961  63.672  85.764  27.093
36765DA     BB138962  63.058  85.984  27.743
36765DA     BB238963  63.318  85.768  27.886
36765DA     BB338964  63.489  85.884  27.940
36765DA     SC138965  63.629  85.850  27.664
36765DA     SC238966  63.828  85.732  27.571
36765DA     SC338967  63.810  85.898  27.376
36765DA     SC438968  63.601  85.963  27.552
36766DA     BB138969  63.414  85.711  28.206
36766DA     BB238970  63.750  85.567  28.173
36766DA     BB338971  63.898  85.713  28.219
36766DA     SC138972  63.925  85.813  27.925
36766DA     SC238973  64.095  85.805  27.743
36766DA     SC338974  63.967  86.004  27.643
36766DA     SC438975  63.834  85.937  27.880
36767DA     BB138976  63.966  85.447  28.396
36767DA     BB238977  64.288  85.447  28.220
36767DA     BB338978  64.405  85.615  28.281
36767DA     SC138979  64.297  85.802  28.057
36767DA     SC238980  64.382  85.910  27.849
36767DA     SC338981  64.185  86.071  27.876
36767DA     SC438982  64.169  85.893  28.092
36768DT     BB138983  64.542  85.546  28.354
36768DT     BB238984  64.781  85.629  28.096
36768DT     BB338985  64.869  85.812  28.138
36768DT     SC138986  64.653  85.942  28.067
36768DT     SC238987  64.690  86.049  27.884
36768DT     SC338988  64.439  86.096  28.084
36769DA     BB138989  65.149  85.513  28.033
36769DA     BB238990  65.230  85.821  27.852
36769DA     BB338991  65.296  85.972  27.988
36769DA     SC138992  65.011  86.088  28.033
36769DA     SC238993  64.885  86.296  27.976
36769DA     SC338994  64.728  86.228  28.168
36769DA     SC438995  64.925  86.030  28.157
36770DA     BB138996  65.536  85.969  27.759
36770DA     BB238997  65.465  86.326  27.715
36770DA     BB338998  65.523  86.435  27.889
36770DA     SC138999  65.245  86.409  28.027
36770DA     SC239000  65.053  86.558  28.086
36770DA     SC339001  64.989  86.375  28.254
36770DA     SC439002  65.222  86.285  28.126
36771DT     BB139003  65.698  86.581  27.907
36771DT     BB239004  65.509  86.887  27.935
36771DT     BB339005  65.524  86.961  28.128
36771DT     SC139006  65.359  86.779  28.219
36771DT     SC239007  65.174  86.872  28.276
36771DT     SC339008  65.269  86.572  28.357
36772DT     BB139009  65.726  87.183  28.100
36772DT     BB239010  65.453  87.351  28.265
36772DT     BB339011  65.486  87.355  28.470
36772DT     SC139012  65.424  87.101  28.492
36772DT     SC239013  65.237  87.082  28.596
36772DT     SC339014  65.449  86.843  28.541
36773DC     BB139015  65.583  87.639  28.526
36773DC     BB239016  65.306  87.607  28.755
36773DC     BB339017  65.376  87.557  28.943
36773DC     SC139018  65.424  87.310  28.869
36773DC     SC239019  65.285  87.178  28.966
36773DC     SC339020  65.557  87.089  28.813
36774DT     BB139021  65.354  87.817  29.091
36774DT     BB239022  65.161  87.592  29.296
36774DT     BB339023  65.277  87.521  29.452
36774DT     SC139024  65.408  87.361  29.291
36774DT     SC239025  65.356  87.157  29.334
36774DT     SC339026  65.608  87.254  29.156
36775DT     BB139027  65.165  87.679  29.672
36775DT     BB239028  65.119  87.338  29.781
36775DT     BB339029  65.276  87.281  29.904
36775DT     SC139030  65.438  87.259  29.698
36775DT     SC239031  65.485  87.052  29.666
36775DT     SC339032  65.642  87.304  29.537
36776DA     BB139033  64.933  87.198  30.127
36776DA     BB239034  65.139  86.895  30.128
36776DA     BB339035  65.301  86.916  30.264
36776DA     SC139036  65.496  87.034  30.052
36776DA     SC239037  65.702  86.963  29.931
36776DA     SC339038  65.739  87.213  29.889
36776DA     SC439039  65.502  87.194  30.038
36777DC     BB139040  65.309  86.796  30.434
36777DC     BB239041  65.568  86.575  30.314
36777DC     BB339042  65.745  86.612  30.415
36777DC     SC139043  65.785  86.834  30.280
36777DC     SC239044  65.952  86.807  30.147
36777DC     SC339045  65.816  87.090  30.228
36778DA     BB139046  65.664  86.203  30.432
36778DA     BB239047  66.011  86.245  30.321
36778DA     BB339048  66.134  86.304  30.485
36778DA     SC139049  66.095  86.609  30.436
36778DA     SC239050  66.231  86.802  30.357
36778DA     SC339051  66.054  86.948  30.472
36778DA     SC439052  65.975  86.682  30.514
36779DG     BB139053  66.274  86.042  30.407
36779DG     BB239054  66.548  86.266  30.331
36779DG     BB339055  66.645  86.313  30.498
36779DG     SC139056  66.472  86.558  30.559
36779DG     SC239057  66.562  86.843  30.555
36779DG     SC339058  66.289  86.821  30.666
36779DG     SC439059  66.338  86.539  30.645
36780DC     BB139060  66.848  86.258  30.511
36780DC     BB239061  67.016  86.575  30.473
36780DC     BB339062  67.078  86.645  30.658
36780DC     SC139063  66.832  86.712  30.723
36780DC     SC239064  66.816  86.926  30.730
36780DC     SC339065  66.602  86.716  30.851
36781DT     BB139066  67.321  86.592  30.570
36781DT     BB239067  67.328  86.941  30.660
36781DT     BB339068  67.359  86.960  30.864
36781DT     SC139069  67.112  86.888  30.916
36781DT     SC239070  67.002  87.057  30.991
36781DT     SC339071  66.909  86.747  31.009
36782DG     BB139072  67.651  87.166  30.668
36782DG     BB239073  67.490  87.371  30.919
36782DG     BB339074  67.555  87.319  31.100
36782DG     SC139075  67.339  87.107  31.144
36782DG     SC239076  67.119  87.121  31.346
36782DG     SC339077  67.129  86.854  31.218
36782DG     SC439078  67.366  86.957  31.095
36783DT     BB139079  67.667  87.462  31.228
36783DT     BB239080  67.421  87.546  31.478
36783DT     BB339081  67.463  87.445  31.654
36783DT     SC139082  67.375  87.218  31.555
36783DT     SC239083  67.192  87.163  31.653
36783DT     SC339084  67.375  86.969  31.468
36784DT     BB139085  67.550  87.675  31.776
36784DT     BB239086  67.290  87.552  31.995
36784DT     BB339087  67.371  87.419  32.132
36784DT     SC139088  67.392  87.232  31.949
36784DT     SC239089  67.251  87.075  31.991
36784DT     SC339090  67.502  87.055  31.786
36785DT     BB139091  67.347  87.600  32.337
36785DT     BB239092  67.164  87.312  32.452
36785DT     BB339093  67.292  87.181  32.550
36785DT     SC139094  67.397  87.102  32.323
36785DT     SC239095  67.338  86.898  32.284
36785DT     SC339096  67.575  87.059  32.133
36786DT     BB139097  67.183  87.247  32.792
36786DT     BB239098  67.142  86.890  32.770
36786DT     BB339099  67.311  86.794  32.842
36786DT     SC139100  67.447  86.855  32.625
36786DT     SC239101  67.484  86.676  32.512
36786DT     SC339102  67.631  86.961  32.470
36787DT     BB139103  67.176  86.716  33.065
36787DT     BB239104  67.297  86.408  32.921
36787DT     BB339105  67.488  86.368  32.990
36787DT     SC139106  67.591  86.554  32.835
36787DT     SC239107  67.707  86.461  32.680
36787DT     SC339108  67.715  86.775  32.761
36788DA     BB139109  67.257  86.024  33.053
36788DA     BB239110  67.568  85.922  32.889
36788DA     BB339111  67.731  85.933  33.025
36788DA     SC139112  67.803  86.227  32.953
36788DA     SC239113  67.987  86.349  32.836
36788DA     SC339114  67.903  86.556  32.961
36788DA     SC439115  67.737  86.344  33.041
36789DG     BB139116  67.759  85.628  32.971
36789DG     BB239117  68.078  85.726  32.832
36789DG     BB339118  68.212  85.746  32.977
36789DG     SC139119  68.151  86.042  33.027
36789DG     SC239120  68.336  86.270  32.975
36789DG     SC339121  68.096  86.360  33.123
36789DG     SC439122  68.036  86.080  33.132
36790DT     BB139123  68.396  85.617  32.989
36790DT     BB239124  68.652  85.847  32.884
36790DT     BB339125  68.761  85.912  33.047
36790DT     SC139126  68.565  86.068  33.126
36790DT     SC239127  68.623  86.273  33.099
36790DT     SC339128  68.372  86.168  33.275
36791DA     BB139129  69.047  85.770  32.775
36791DA     BB239130  69.157  86.101  32.888
36791DA     BB339131  69.234  86.090  33.086
36791DA     SC139132  68.961  86.148  33.222
36791DA     SC239133  68.855  86.332  33.352
36791DA     SC339134  68.691  86.152  33.435
36791DA     SC439135  68.870  86.021  33.263
36792DT     BB139136  69.437  86.125  33.122
36792DT     BB239137  69.398  86.451  33.270
36792DT     BB339138  69.428  86.440  33.475
36792DT     SC139139  69.194  86.328  33.511
36792DT     SC239140  69.063  86.466  33.612
36792DT     SC339141  69.013  86.148  33.576
36793DT     BB139142  69.673  86.566  33.457
36793DT     BB239143  69.485  86.771  33.687
36793DT     BB339144  69.509  86.701  33.880
36793DT     SC139145  69.350  86.497  33.835
36793DT     SC239146  69.167  86.523  33.945
36793DT     SC339147  69.268  86.248  33.805
36794DC     BB139148  69.672  86.913  33.951
36794DC     BB239149  69.401  86.926  34.189
36794DC     BB339150  69.446  86.808  34.353
36794DC     SC139151  69.400  86.588  34.219
36794DC     SC239152  69.221  86.495  34.293
36794DC     SC339153  69.441  86.356  34.101
36795DA     BB139154  69.346  87.185  34.507
36795DA     BB239155  69.151  86.934  34.691
36795DA     BB339156  69.276  86.831  34.830
36795DA     SC139157  69.353  86.606  34.629
36795DA     SC239158  69.309  86.362  34.598
36795DA     SC339159  69.519  86.363  34.451
36795DA     SC439160  69.487  86.627  34.542
36796DA     BB139161  69.044  86.928  35.039
36796DA     BB239162  68.975  86.572  35.098
36796DA     BB339163  69.125  86.488  35.225
36796DA     SC139164  69.310  86.401  34.990
36796DA     SC239165  69.384  86.189  34.883
36796DA     SC339166  69.579  86.328  34.790
36796DA     SC439167  69.424  86.504  34.943
36797DA     BB139168  68.854  86.404  35.385
36797DA     BB239169  68.954  86.056  35.328
36797DA     BB339170  69.115  86.003  35.457
36797DA     SC139171  69.336  86.087  35.255
36797DA     SC239172  69.509  85.976  35.114
36797DA     SC339173  69.624  86.205  35.109
36797DA     SC439174  69.393  86.237  35.265
36798DT     BB139175  69.068  85.869  35.580
36798DT     BB239176  69.247  85.600  35.421
36798DT     BB339177  69.426  85.565  35.521
36798DT     SC139178  69.534  85.781  35.418
36798DT     SC239179  69.687  85.724  35.278
36798DT     SC339180  69.644  86.020  35.403
36799DA     BB139181  69.209  85.212  35.453
36799DA     BB239182  69.556  85.158  35.349
36799DA     BB339183  69.685  85.152  35.519
36799DA     SC139184  69.744  85.458  35.514
36799DA     SC239185  69.936  85.608  35.464
36799DA     SC339186  69.808  85.784  35.600
36799DA     SC439187  69.649  85.553  35.603
36800DT     BB139188  69.755  84.992  35.526
36800DT     BB239189  70.090  85.082  35.428
36800DT     BB339190  70.207  85.113  35.596
36800DT     SC139191  70.092  85.344  35.643
36800DT     SC239192  70.233  85.502  35.607
36800DT     SC339193  69.952  85.530  35.766
36801DA     BB139194  70.406  84.853  35.331
36801DA     BB239195  70.644  85.108  35.442
36801DA     BB339196  70.695  85.077  35.647
36801DA     SC139197  70.468  85.260  35.756
36801DA     SC239198  70.447  85.481  35.869
36801DA     SC339199  70.215  85.399  35.942
36801DA     SC439200  70.327  85.190  35.792
36802DA     BB139201  71.000  85.083  35.522
36802DA     BB239202  71.064  85.370  35.741
36802DA     BB339203  71.085  85.306  35.944
36802DA     SC139204  70.783  85.337  36.011
36802DA     SC239205  70.639  85.486  36.150
36802DA     SC339206  70.465  85.297  36.136
36802DA     SC439207  70.689  85.208  35.992
36803DT     BB139208  71.268  85.320  36.043
36803DT     BB239209  71.181  85.598  36.255
36803DT     BB339210  71.153  85.532  36.450
36803DT     SC139211  70.922  85.425  36.389
36803DT     SC239212  70.764  85.538  36.483
36803DT     SC339213  70.735  85.243  36.351
36804DA     BB139214  71.425  85.851  36.467
36804DA     BB239215  71.162  85.913  36.716
36804DA     BB339216  71.186  85.783  36.883
36804DA     SC139217  71.006  85.559  36.766
36804DA     SC239218  70.782  85.458  36.812
36804DA     SC339219  70.867  85.257  36.678
36804DA     SC439220  71.077  85.443  36.680
36805DT     BB139221  71.228  85.872  37.048
36805DT     BB239222  70.903  85.833  37.201
36805DT     BB339223  70.908  85.679  37.339
36805DT     SC139224  70.909  85.498  37.149
36805DT     SC239225  70.721  85.394  37.149
36805DT     SC339226  70.991  85.300  36.996
36806DA     BB139227  70.736  86.025  37.504
36806DA     BB239228  70.518  85.740  37.579
36806DA     BB339229  70.611  85.612  37.722
36806DA     SC139230  70.750  85.433  37.509
36806DA     SC239231  70.730  85.201  37.421
36806DA     SC339232  70.970  85.234  37.336
36806DA     SC439233  70.900  85.473  37.465
36807DT     BB139234  70.513  85.610  37.873
36807DT     BB239235  70.381  85.275  37.843
36807DT     BB339236  70.497  85.144  37.952
36807DT     SC139237  70.689  85.151  37.774
36807DT     SC239238  70.700  84.961  37.673
36807DT     SC339239  70.926  85.194  37.665
36808DT     BB139240  70.293  85.127  38.123
36808DT     BB239241  70.362  84.785  38.033
36808DT     BB339242  70.517  84.711  38.148
36808DT     SC139243  70.695  84.849  38.012
36808DT     SC239244  70.816  84.714  37.896
36808DT     SC339245  70.883  85.025  37.958
36809DT     BB139246  70.351  84.555  38.306
36809DT     BB239247  70.599  84.321  38.189
36809DT     BB339248  70.761  84.320  38.318
36809DT     SC139249  70.846  84.551  38.228
36809DT     SC239250  71.028  84.522  38.117
36809DT     SC339251  70.913  84.806  38.222
36810DT     BB139252  70.714  84.070  38.468
36810DT     BB239253  71.052  84.029  38.349
36810DT     BB339254  71.186  84.094  38.493
36810DT     SC139255  71.132  84.345  38.441
36810DT     SC239256  71.303  84.437  38.346
36810DT     SC339257  71.049  84.593  38.474
36811DA     BB139258  71.339  83.698  38.464
36811DA     BB239259  71.627  83.921  38.430
36811DA     BB339260  71.694  83.986  38.621
36811DA     SC139261  71.513  84.240  38.626
36811DA     SC239262  71.542  84.487  38.613
36811DA     SC339263  71.309  84.499  38.719
36811DA     SC439264  71.368  84.226  38.694
36812DG     BB139265  71.978  83.847  38.579
36812DG     BB239266  72.098  84.188  38.573
36812DG     BB339267  72.143  84.248  38.757
36812DG     SC139268  71.862  84.354  38.818
36812DG     SC239269  71.789  84.641  38.861
36812DG     SC339270  71.562  84.463  38.926
36812DG     SC439271  71.753  84.255  38.880
36813DA     BB139272  72.448  84.339  38.626
36813DA     BB239273  72.380  84.688  38.715
36813DA     BB339274  72.412  84.719  38.924
36813DA     SC139275  72.118  84.655  39.002
36813DA     SC239276  71.919  84.778  39.089
36813DA     SC339277  71.834  84.547  39.162
36813DA     SC439278  72.083  84.503  39.042
36814DC     BB139279  72.555  84.838  38.961
36814DC     BB239280  72.351  85.120  39.058
36814DC     BB339281  72.346  85.136  39.264
36814DC     SC139282  72.182  84.931  39.283
36814DC     SC239283  71.989  85.001  39.347
36814DC     SC339284  72.090  84.693  39.347
36815DA     BB139285  72.441  85.505  39.088
36815DA     BB239286  72.175  85.559  39.334
36815DA     BB339287  72.250  85.534  39.532
36815DA     SC139288  72.185  85.230  39.545
36815DA     SC239289  72.025  85.081  39.665
36815DA     SC339290  72.190  84.893  39.607
36815DA     SC439291  72.300  85.127  39.500
36816DT     BB139292  72.252  85.694  39.644
36816DT     BB239293  71.979  85.602  39.861
36816DT     BB339294  72.053  85.534  40.042
36816DT     SC139295  72.127  85.306  39.935
36816DT     SC239296  72.002  85.148  40.011
36816DT     SC339297  72.283  85.110  39.853
36817DT     BB139298  71.977  85.764  40.176
36817DT     BB239299  71.817  85.498  40.360
36817DT     BB339300  71.944  85.428  40.507
36817DT     SC139301  72.091  85.301  40.330
36817DT     SC239302  72.065  85.089  40.355
36817DT     SC339303  72.300  85.233  40.184
36818DA     BB139304  71.595  85.525  40.721
36818DA     BB239305  71.691  85.183  40.815
36818DA     BB339306  71.856  85.187  40.951
36818DA     SC139307  72.071  85.172  40.727
36818DA     SC239308  72.238  85.008  40.642
36818DA     SC339309  72.354  85.211  40.536
36818DA     SC439310  72.129  85.311  40.670
36819DA     BB139311  71.658  85.009  41.144
36819DA     BB239312  71.901  84.737  41.110
36819DA     BB339313  72.067  84.769  41.239
36819DA     SC139314  72.232  84.926  41.028
36819DA     SC239315  72.438  84.892  40.891
36819DA     SC339316  72.441  85.148  40.868
36819DA     SC439317  72.218  85.087  41.026
36820DT     BB139318  72.087  84.636  41.377
36820DT     BB239319  72.359  84.460  41.219
36820DT     BB339320  72.538  84.507  41.312
36820DT     SC139321  72.543  84.744  41.199
36820DT     SC239322  72.702  84.750  41.054
36820DT     SC339323  72.543  85.006  41.173
36821DA     BB139324  72.471  84.098  41.245
36821DA     BB239325  72.804  84.186  41.120
36821DA     BB339326  72.933  84.234  41.282
36821DA     SC139327  72.865  84.538  41.279
36821DA     SC239328  72.978  84.752  41.220
36821DA     SC339329  72.799  84.863  41.366
36821DA     SC439330  72.746  84.588  41.375
36822DT     BB139331  73.049  84.117  41.264
36822DT     BB239332  73.314  84.332  41.146
36822DT     BB339333  73.424  84.403  41.307
36822DT     SC139334  73.233  84.570  41.373
36822DT     SC239335  73.298  84.772  41.334
36822DT     SC339336  73.042  84.686  41.514
36823DG     BB139337  73.652  84.222  41.019
36823DG     BB239338  73.780  84.547  41.112
36823DG     BB339339  73.861  84.540  41.294
36823DG     SC139340  73.601  84.609  41.439
36823DG     SC239341  73.547  84.859  41.593
36823DG     SC339342  73.329  84.662  41.632
36823DG     SC439343  73.501  84.490  41.481
36824DT     BB139344  74.065  84.582  41.311
36824DT     BB239345  74.067  84.903  41.475
36824DT     BB339346  74.099  84.879  41.678
36824DT     SC139347  73.854  84.791  41.714
36824DT     SC239348  73.742  84.938  41.825
36824DT     SC339349  73.655  84.630  41.775
36825DA     BB139350  74.393  85.156  41.560
36825DA     BB239351  74.232  85.287  41.863
36825DA     BB339352  74.298  85.179  42.034
36825DA     SC139353  74.069  84.969  42.018
36825DA     SC239354  73.864  84.908  42.148
36825DA     SC339355  73.881  84.681  42.030
36825DA     SC439356  74.097  84.833  41.936
36826DA     BB139357  74.394  85.469  42.170
36826DA     BB239358  74.152  85.409  42.439
36826DA     BB339359  74.232  85.273  42.582
36826DA     SC139360  74.120  85.020  42.440
36826DA     SC239361  73.945  84.847  42.482
36826DA     SC339362  74.074  84.704  42.313
36826DA     SC439363  74.215  84.946  42.334
36827DC     BB139364  74.285  85.327  42.791
36827DC     BB239365  73.999  85.169  42.944
36827DC     BB339366  74.059  85.002  43.050
36827DC     SC139367  74.095  84.865  42.829
36827DC     SC239368  73.945  84.711  42.815
36827DC     SC339369  74.216  84.729  42.639
36828DT     BB139370  74.014  85.128  43.289
36828DT     BB239371  73.801  84.837  43.298
36828DT     BB339372  73.906  84.675  43.376
36828DT     SC139373  74.042  84.647  43.153
36828DT     SC239374  73.980  84.465  43.055
36828DT     SC339375  74.246  84.638  42.986
36829DA     BB139376  73.537  84.722  43.567
36829DA     BB239377  73.569  84.373  43.460
36829DA     BB339378  73.714  84.272  43.580
36829DA     SC139379  73.952  84.339  43.390
36829DA     SC239380  74.103  84.218  43.233
36829DA     SC339381  74.259  84.419  43.260
36829DA     SC439382  74.036  84.473  43.421
36830DA     BB139383  73.442  84.092  43.577
36830DA     BB239384  73.652  83.829  43.430
36830DA     BB339385  73.794  83.759  43.574
36830DA     SC139386  74.014  83.963  43.494
36830DA     SC239387  74.237  83.960  43.381
36830DA     SC339388  74.275  84.187  43.495
36830DA     SC439389  74.019  84.102  43.574
36831DA     BB139390  73.647  83.490  43.457
36831DA     BB239391  73.983  83.382  43.357
36831DA     BB339392  74.100  83.335  43.530
36831DA     SC139393  74.215  83.622  43.560
36831DA     SC239394  74.434  83.737  43.532
36831DA     SC339395  74.335  83.920  43.682
36831DA     SC439396  74.135  83.724  43.656
36832DT     BB139397  74.150  83.149  43.548
36832DT     BB239398  74.500  83.185  43.470
36832DT     BB339399  74.612  83.185  43.644
36832DT     SC139400  74.536  83.429  43.704
36832DT     SC239401  74.703  83.562  43.684
36832DT     SC339402  74.423  83.629  43.833
36833DG     BB139403  74.758  82.870  43.427
36833DG     BB239404  75.025  83.089  43.536
36833DG     BB339405  75.069  83.052  43.727
36833DG     SC139406  74.868  83.254  43.838
36833DG     SC239407  74.935  83.505  43.985
36833DG     SC339408  74.644  83.451  43.995
36833DG     SC439409  74.718  83.206  43.866
36834DG     BB139410  75.385  82.974  43.655
36834DG     BB239411  75.478  83.261  43.855
36834DG     BB339412  75.490  83.209  44.047
36834DG     SC139413  75.197  83.270  44.108
36834DG     SC239414  75.097  83.488  44.286
36834DG     SC339415  74.876  83.308  44.205
36834DG     SC439416  75.087  83.155  44.086
36835DA     BB139417  75.808  83.346  44.049
36835DA     BB239418  75.702  83.588  44.303
36835DA     BB339419  75.696  83.497  44.496
36835DA     SC139420  75.399  83.409  44.472
36835DA     SC239421  75.180  83.469  44.575
36835DA     SC339422  75.101  83.240  44.492
36835DA     SC439423  75.369  83.262  44.414
36836DG     BB139424  75.898  83.722  44.542
36836DG     BB239425  75.637  83.842  44.761
36836DG     BB339426  75.642  83.743  44.933
36836DG     SC139427  75.452  83.522  44.840
36836DG     SC239428  75.177  83.471  44.945
36836DG     SC339429  75.263  83.253  44.765
36836DG     SC439430  75.513  83.393  44.768
36837DA     BB139431  75.623  84.072  45.023
36837DA     BB239432  75.317  83.994  45.209
36837DA     BB339433  75.362  83.872  45.378
36837DA     SC139434  75.323  83.604  45.224
36837DA     SC239435  75.161  83.414  45.222
36837DA     SC339436  75.349  83.281  45.109
36837DA     SC439437  75.453  83.538  45.156
36838DA     BB139438  75.167  84.127  45.452
36838DA     BB239439  74.939  83.871  45.582
36838DA     BB339440  75.029  83.767  45.745
36838DA     SC139441  75.155  83.546  45.566
36838DA     SC239442  75.123  83.303  45.523
36838DA     SC339443  75.361  83.309  45.429
36838DA     SC439444  75.305  83.570  45.513
36839DA     BB139445  74.723  83.860  45.837
36839DA     BB239446  74.672  83.506  45.917
36839DA     BB339447  74.803  83.446  46.075
36839DA     SC139448  75.033  83.358  45.885
36839DA     SC239449  75.141  83.145  45.813
36839DA     SC339450  75.338  83.293  45.742
36839DA     SC439451  75.145  83.467  45.849
36840DA     BB139452  74.517  83.339  46.214
36840DA     BB239453  74.675  83.009  46.243
36840DA     BB339454  74.827  83.013  46.393
36840DA     SC139455  75.054  83.091  46.195
36840DA     SC239456  75.257  82.985  46.096
36840DA     SC339457  75.335  83.225  46.049
36840DA     SC439458  75.086  83.248  46.176
36841DT     BB139459  74.838  82.916  46.624
36841DT     BB239460  75.085  82.661  46.559
36841DT     BB339461  75.261  82.706  46.659
36841DT     SC139462  75.319  82.895  46.486
36841DT     SC239463  75.489  82.834  46.368
36841DT     SC339464  75.369  83.135  46.387
36842DT     BB139465  75.273  82.533  46.922
36842DT     BB239466  75.592  82.459  46.772
36842DT     BB339467  75.740  82.574  46.860
36842DT     SC139468  75.660  82.789  46.733
36842DT     SC239469  75.807  82.844  46.587
36842DT     SC339470  75.564  83.031  46.691
36843DG     BB139471  75.905  82.211  46.993
36843DG     BB239472  76.156  82.401  46.815
36843DG     BB339473  76.251  82.523  46.941
36843DG     SC139474  76.056  82.756  46.901
36843DG     SC239475  76.120  83.017  46.771
36843DG     SC339476  75.852  83.024  46.896
36843DG     SC439477  75.926  82.765  46.994
36844DA     BB139478  76.575  82.403  46.861
36844DA     BB239479  76.668  82.730  46.723
36844DA     BB339480  76.738  82.858  46.878
36844DA     SC139481  76.457  82.977  46.940
36844DA     SC239482  76.339  83.195  46.913
36844DA     SC339483  76.180  83.108  47.094
36844DA     SC439484  76.370  82.906  47.055
36845DA     BB139485  76.992  82.878  46.677
36845DA     BB239486  76.909  83.234  46.640
36845DA     BB339487  76.977  83.344  46.809
36845DA     SC139488  76.711  83.310  46.968
36845DA     SC239489  76.521  83.454  47.042
36845DA     SC339490  76.475  83.269  47.214
36845DA     SC439491  76.700  83.185  47.068
36846DT     BB139492  77.107  83.467  46.762
36846DT     BB239493  76.896  83.759  46.782
36846DT     BB339494  76.931  83.859  46.960
36846DT     SC139495  76.800  83.678  47.097
36846DT     SC239496  76.616  83.762  47.171
36846DT     SC339497  76.750  83.485  47.270
36847DT     BB139498  77.032  84.037  46.798
36847DT     BB239499  76.772  84.209  46.980
36847DT     BB339500  76.842  84.268  47.165
36847DT     SC139501  76.831  84.022  47.257
36847DT     SC239502  76.673  84.008  47.403
36847DT     SC339503  76.908  83.790  47.355
36848DC     BB139504  76.819  84.504  47.057
36848DC     BB239505  76.619  84.515  47.356
36848DC     BB339506  76.740  84.547  47.521
36848DC     SC139507  76.827  84.299  47.514
36848DC     SC239508  76.750  84.192  47.684
36848DC     SC339509  76.992  84.095  47.491
36849DG     BB139510  76.454  84.837  47.506
36849DG     BB239511  76.472  84.684  47.834
36849DG     BB339512  76.632  84.751  47.931
36849DG     SC139513  76.818  84.531  47.826
36849DG     SC239514  76.944  84.315  47.989
36849DG     SC339515  77.054  84.318  47.715
36849DG     SC439516  76.895  84.555  47.688
36850DT     BB139517  76.616  84.870  48.119
36850DT     BB239518  76.727  84.634  48.369
36850DT     BB339519  76.921  84.678  48.425
36850DT     SC139520  77.017  84.581  48.201
36850DT     SC239521  77.125  84.399  48.242
36850DT     SC339522  77.139  84.570  47.967
36851DA     BB139523  76.711  84.666  48.790
36851DA     BB239524  77.015  84.465  48.832
36851DA     BB339525  77.185  84.592  48.850
36851DA     SC139526  77.245  84.597  48.545
36851DA     SC239527  77.419  84.508  48.390
36851DA     SC339528  77.336  84.688  48.227
36851DA     SC439529  77.180  84.716  48.458
36852DG     BB139530  77.241  84.479  49.143
36852DG     BB239531  77.545  84.352  48.993
36852DG     BB339532  77.686  84.492  48.999
36852DG     SC139533  77.611  84.614  48.728
36852DG     SC239534  77.779  84.608  48.481
36852DG     SC339535  77.544  84.784  48.445
36852DG     SC439536  77.501  84.730  48.722
36853DA     BB139537  77.913  84.275  49.159
36853DA     BB239538  78.145  84.301  48.876
36853DA     BB339539  78.258  84.482  48.889
36853DA     SC139540  78.054  84.649  48.723
36853DA     SC239541  78.044  84.757  48.499
36853DA     SC339542  77.855  84.899  48.598
36853DA     SC439543  77.940  84.728  48.803
36854DA     BB139544  78.526  84.288  48.873
36854DA     BB239545  78.607  84.455  48.557
36854DA     BB339546  78.696  84.645  48.594
36854DA     SC139547  78.426  84.799  48.593
36854DA     SC239548  78.309  84.965  48.448
36854DA     SC339549  78.170  85.019  48.657
36854DA     SC439550  78.352  84.820  48.734
36855DC     BB139551  78.900  84.685  48.543
36855DC     BB239552  78.826  84.882  48.250
36855DC     BB339553  78.867  85.082  48.286
36855DC     SC139554  78.651  85.107  48.434
36855DC     SC239555  78.509  85.231  48.331
36855DC     SC339556  78.499  85.149  48.645
36856DT     BB139557  79.082  85.067  48.122
36856DT     BB239558  78.871  85.320  47.977
36856DT     BB339559  78.912  85.504  48.063
36856DT     SC139560  78.787  85.438  48.283
36856DT     SC239561  78.606  85.553  48.300
36856DT     SC339562  78.744  85.382  48.537
36857DT     BB139563  79.019  85.571  47.828
36857DT     BB239564  78.754  85.808  47.883
36857DT     BB339565  78.822  85.964  48.001
36857DT     SC139566  78.816  85.814  48.216
36857DT     SC239567  78.659  85.881  48.347
36857DT     SC339568  78.899  85.680  48.428
36858DG     BB139569  78.659  86.089  47.650
36858DG     BB239570  78.506  86.249  47.936
36858DG     BB339571  78.630  86.385  48.012
36858DG     SC139572  78.767  86.189  48.203
36858DG     SC239573  78.751  86.195  48.502
36858DG     SC339574  78.952  85.998  48.411
36858DG     SC439575  78.894  86.106  48.152
36859DC     BB139576  78.541  86.551  48.009
36859DC     BB239577  78.467  86.606  48.358
36859DC     BB339578  78.619  86.715  48.446
36859DC     SC139579  78.778  86.507  48.448
36859DC     SC239580  78.807  86.441  48.651
36859DC     SC339581  78.985  86.352  48.395
36860DT     BB139582  78.418  86.874  48.453
36860DT     BB239583  78.528  86.833  48.794
36860DT     BB339584  78.702  86.941  48.826
36860DT     SC139585  78.845  86.766  48.694
36860DT     SC239586  78.973  86.660  48.830
36860DT     SC339587  79.000  86.661  48.507
36861DT     BB139588  78.543  87.087  48.972
36861DT     BB239589  78.813  86.991  49.192
36861DT     BB339590  78.977  87.112  49.159
36861DT     SC139591  79.033  86.989  48.934
36861DT     SC239592  79.214  86.876  48.958
36861DT     SC339593  79.071  86.948  48.676
36862DA     BB139594  78.898  87.109  49.572
36862DA     BB239595  79.258  87.059  49.524
36862DA     BB339596  79.350  87.239  49.457
36862DA     SC139597  79.313  87.175  49.155
36862DA     SC239598  79.457  87.115  48.960
36862DA     SC339599  79.259  87.194  48.817
36862DA     SC439600  79.180  87.229  49.083
36863DT     BB139601  79.483  87.341  49.579
36863DT     BB239602  79.784  87.258  49.398
36863DT     BB339603  79.849  87.423  49.290
36863DT     SC139604  79.658  87.391  49.112
36863DT     SC239605  79.745  87.327  48.926
36863DT     SC339606  79.444  87.440  48.967
36864DA     BB139607  80.185  87.310  49.515
36864DA     BB239608  80.295  87.354  49.168
36864DA     BB339609  80.308  87.562  49.120
36864DA     SC139610  80.015  87.582  49.017
36864DA     SC239611  79.898  87.613  48.799
36864DA     SC339612  79.697  87.686  48.941
36864DA     SC439613  79.902  87.625  49.123
36865DT     BB139614  80.494  87.655  49.080
36865DT     BB239615  80.452  87.682  48.723
36865DT     BB339616  80.417  87.880  48.671
36865DT     SC139617  80.171  87.868  48.762
36865DT     SC239618  80.033  87.878  48.597
36865DT     SC339619  79.959  87.919  48.910
36866DA     BB139620  80.732  87.742  48.431
36866DA     BB239621  80.485  87.903  48.213
36866DA     BB339622  80.492  88.115  48.236
36866DA     SC139623  80.279  88.122  48.462
36866DA     SC239624  80.044  88.199  48.491
36866DA     SC339625  80.096  88.197  48.742
36866DA     SC439626  80.331  88.115  48.614
36867DA     BB139627  80.526  88.092  47.911
36867DA     BB239628  80.217  88.286  47.885
36867DA     BB339629  80.253  88.491  47.933
36867DA     SC139630  80.192  88.456  48.236
36867DA     SC239631  80.015  88.525  48.398
36867DA     SC339632  80.191  88.479  48.579
36867DA     SC439633  80.315  88.423  48.334
36868DG     BB139634  80.150  88.535  47.644
36868DG     BB239635  79.885  88.713  47.814
36868DG     BB339636  79.946  88.896  47.863
36868DG     SC139637  80.057  88.813  48.136
36868DG     SC239638  79.949  88.897  48.401
36868DG     SC339639  80.207  88.755  48.432
36868DG     SC439640  80.209  88.763  48.146
36869DA     BB139641  79.660  89.019  47.705
36869DA     BB239642  79.553  89.177  48.019
36869DA     BB339643  79.666  89.354  48.055
36869DA     SC139644  79.888  89.209  48.217
36869DA     SC239645  79.966  89.199  48.454
36869DA     SC339646  80.186  89.110  48.356
36869DA     SC439647  80.017  89.157  48.137
36870DC     BB139648  79.576  89.545  48.049
36870DC     BB239649  79.576  89.603  48.405
36870DC     BB339650  79.721  89.742  48.454
36870DC     SC139651  79.912  89.566  48.420
36870DC     SC239652  80.000  89.518  48.610
36870DC     SC339653  80.126  89.449  48.320
36871DA     BB139654  79.371  89.901  48.624
36871DA     BB239655  79.630  89.908  48.883
36871DA     BB339656  79.767  90.068  48.848
36871DA     SC139657  79.961  89.897  48.675
36871DA     SC239658  80.191  89.802  48.695
36871DA     SC339659  80.184  89.786  48.439
36871DA     SC439660  79.938  89.896  48.516
36872DT     BB139661  79.780  90.235  48.979
36872DT     BB239662  80.093  90.143  49.134
36872DT     BB339663  80.244  90.268  49.068
36872DT     SC139664  80.252  90.148  48.835
36872DT     SC239665  80.436  90.038  48.817
36872DT     SC339666  80.235  90.110  48.574
36873DC     BB139667  80.257  90.402  49.309
36873DC     BB239668  80.593  90.282  49.258
36873DC     BB339669  80.702  90.421  49.151
36873DC     SC139670  80.579  90.357  48.928
36873DC     SC239671  80.716  90.257  48.796
36873DC     SC339672  80.428  90.380  48.713
36874DT     BB139673  80.850  90.500  49.372
36874DT     BB239674  81.099  90.399  49.131
36874DT     BB339675  81.152  90.560  49.012
36874DT     SC139676  80.927  90.546  48.879
36874DT     SC239677  80.967  90.480  48.678
36874DT     SC339678  80.691  90.614  48.782
36875DT     BB139679  81.404  90.602  49.133
36875DT     BB239680  81.482  90.557  48.784
36875DT     BB339681  81.483  90.740  48.687
36875DT     SC139682  81.221  90.752  48.692
36875DT     SC239683  81.145  90.730  48.491
36875DT     SC339684  80.977  90.836  48.747
36876DA     BB139685  81.862  90.583  48.594
36876DA     BB239686  81.706  90.688  48.279
36876DA     BB339687  81.718  90.900  48.257
36876DA     SC139688  81.444  90.954  48.396
36876DA     SC239689  81.217  91.033  48.331
36876DA     SC339690  81.186  91.086  48.580
36876DA     SC439691  81.445  90.981  48.554
36877DT     BB139692  81.838  90.997  48.103
36877DT     BB239693  81.559  91.078  47.889
36877DT     BB339694  81.527  91.282  47.889
36877DT     SC139695  81.422  91.274  48.129
36877DT     SC239696  81.211  91.316  48.116
36877DT     SC339697  81.388  91.318  48.387
36878DT     BB139698  81.618  91.289  47.635
36878DT     BB239699  81.279  91.410  47.618
36878DT     BB339700  81.275  91.614  47.651
36878DT     SC139701  81.316  91.580  47.908
36878DT     SC239702  81.138  91.633  48.017
36878DT     SC339703  81.433  91.592  48.145
36879DA     BB139704  81.054  91.462  47.328
36879DA     BB239705  80.838  91.676  47.533
36879DA     BB339706  80.901  91.879  47.520
36879DA     SC139707  81.094  91.860  47.764
36879DA     SC239708  81.105  91.948  47.997
36879DA     SC339709  81.356  91.897  47.982
36879DA     SC439710  81.247  91.823  47.735
36880DT     BB139711  80.760  91.895  47.478
36880DT     BB239712  80.650  92.077  47.769
36880DT     BB339713  80.722  92.271  47.763
36880DT     SC139714  80.964  92.191  47.827
36880DT     SC239715  81.010  92.258  48.026
36880DT     SC339716  81.223  92.143  47.810
36881DT     BB139717  80.469  92.270  47.753
36881DT     BB239718  80.562  92.484  48.028
36881DT     BB339719  80.646  92.659  47.956
36881DT     SC139720  80.869  92.536  47.894
36881DT     SC239721  81.026  92.602  48.026
36881DT     SC339722  81.067  92.438  47.750
36882DT     BB139723  80.423  92.750  48.053
36882DT     BB239724  80.682  92.957  48.196
36882DT     BB339725  80.745  93.097  48.057
36882DT     SC139726  80.878  92.914  47.922
36882DT     SC239727  81.090  92.949  47.944
36882DT     SC339728  80.951  92.755  47.725
36883DT     BB139729  80.612  93.305  48.182
36883DT     BB239730  80.946  93.435  48.140
36883DT     BB339731  80.962  93.529  47.957
36883DT     SC139732  80.969  93.299  47.831
36883DT     SC239733  81.166  93.268  47.750
36883DT     SC339734  80.900  93.102  47.670
36884DG     BB139735  81.037  93.864  48.191
36884DG     BB239736  81.289  93.839  47.933
36884DG     BB339737  81.223  93.923  47.765
36884DG     SC139738  81.096  93.666  47.657
36884DG     SC239739  81.187  93.515  47.416
36884DG     SC339740  80.930  93.408  47.517
36884DG     SC439741  80.945  93.632  47.696
36885DA     BB139742  81.489  94.166  47.707
36885DA     BB239743  81.579  94.012  47.387
36885DA     BB339744  81.459  94.092  47.230
36885DA     SC139745  81.236  93.877  47.258
36885DA     SC239746  81.149  93.683  47.127
36885DA     SC339747  80.936  93.710  47.268
36885DA     SC439748  81.112  93.910  47.354
36886DT     BB139749  81.522  94.240  47.039
36886DT     BB239750  81.512  93.981  46.788
36886DT     BB339751  81.362  94.020  46.652
36886DT     SC139752  81.177  93.947  46.824
36886DT     SC239753  81.087  93.763  46.758
36886DT     SC339754  80.969  93.961  46.986
36887DA     BB139755  81.699  93.978  46.407
36887DA     BB239756  81.438  93.760  46.269
36887DA     BB339757  81.298  93.875  46.157
36887DA     SC139758  81.109  93.925  46.399
36887DA     SC239759  80.882  93.855  46.475
36887DA     SC339760  80.890  94.062  46.626
36887DA     SC439761  81.133  94.059  46.485
36888DT     BB139762  81.282  93.849  45.948
36888DT     BB239763  80.973  93.661  45.954
36888DT     BB339764  80.819  93.778  45.881
36888DT     SC139765  80.810  93.918  46.102
36888DT     SC239766  80.628  93.873  46.208
36888DT     SC339767  80.824  94.125  46.266
36889DC     BB139768  80.816  93.624  45.659
36889DC     BB239769  80.480  93.600  45.789
36889DC     BB339770  80.365  93.755  45.716
36889DC     SC139771  80.482  93.927  45.876
36889DC     SC239772  80.341  93.992  46.026
36889DC     SC339773  80.624  94.134  45.956
36890DA     BB139774  80.162  93.394  45.654
36890DA     BB239775  79.925  93.632  45.801
36890DA     BB339776  79.870  93.780  45.657
36890DA     SC139777  80.098  93.977  45.737
36890DA     SC239778  80.120  94.198  45.849
36890DA     SC339779  80.350  94.210  45.734
36890DA     SC439780  80.237  93.966  45.656
36891DC     BB139781  79.683  93.779  45.599
36891DC     BB239782  79.578  94.078  45.771
36891DC     BB339783  79.564  94.235  45.637
36891DC     SC139784  79.825  94.259  45.626
36891DC     SC239785  79.884  94.443  45.721
36891DC     SC339786  80.070  94.260  45.528
36892DA     BB139787  79.203  94.216  45.850
36892DA     BB239788  79.315  94.565  45.849
36892DA     BB339789  79.289  94.651  45.656
36892DA     SC139790  79.573  94.572  45.556
36892DA     SC239791  79.787  94.687  45.498
36892DA     SC339792  79.842  94.474  45.367
36892DA     SC439793  79.589  94.432  45.479
36893DC     BB139794  79.156  94.796  45.639
36893DC     BB239795  79.389  95.069  45.599
36893DC     BB339796  79.397  95.126  45.400
36893DC     SC139797  79.539  94.914  45.337
36893DC     SC239798  79.739  94.975  45.287
36893DC     SC339799  79.606  94.685  45.225
36894DA     BB139800  79.325  95.475  45.622
36894DA     BB239801  79.596  95.548  45.385
36894DA     BB339802  79.518  95.564  45.187
36894DA     SC139803  79.557  95.263  45.120
36894DA     SC239804  79.703  95.123  44.973
36894DA     SC339805  79.523  94.943  45.000
36894DA     SC439806  79.433  95.164  45.148
36895DA     BB139807  79.671  95.858  45.189
36895DA     BB239808  79.867  95.742  44.901
36895DA     BB339809  79.748  95.747  44.724
36895DA     SC139810  79.644  95.456  44.756
36895DA     SC239811  79.674  95.236  44.642
36895DA     SC339812  79.454  95.170  44.756
36895DA     SC439813  79.506  95.435  44.834
36896DT     BB139814  79.781  95.887  44.554
36896DT     BB239815  79.912  95.647  44.319
36896DT     BB339816  79.773  95.610  44.170
36896DT     SC139817  79.626  95.465  44.332
36896DT     SC239818  79.635  95.259  44.272
36896DT     SC339819  79.420  95.387  44.478
36897DT     BB139820  79.889  95.766  43.951
36897DT     BB239821  79.849  95.438  43.805
36897DT     BB339822  79.668  95.427  43.705
36897DT     SC139823  79.536  95.410  43.932
36897DT     SC239824  79.454  95.213  43.952
36897DT     SC339825  79.371  95.472  44.128
36898DG     BB139826  79.896  95.374  43.356
36898DG     BB239827  79.651  95.109  43.382
36898DG     BB339828  79.480  95.166  43.298
36898DG     SC139829  79.366  95.288  43.555
36898DG     SC239830  79.130  95.186  43.707
36898DG     SC339831  79.218  95.448  43.812
36898DG     SC439832  79.397  95.441  43.588
36899DT     BB139833  79.326  95.085  43.065
36899DT     BB239834  79.077  94.890  43.240
36899DT     BB339835  78.891  94.976  43.215
36899DT     SC139836  78.948  95.169  43.383
36899DT     SC239837  78.831  95.145  43.562
36899DT     SC339838  78.994  95.412  43.476
36900DT     BB139839  78.770  94.786  43.024
36900DT     BB239840  78.557  94.769  43.314
36900DT     BB339841  78.394  94.894  43.290
36900DT     SC139842  78.541  95.107  43.333
36900DT     SC239843  78.486  95.194  43.522
36900DT     SC339844  78.663  95.337  43.291
36901DT     BB139845  78.239  94.674  43.267
36901DT     BB239846  78.120  94.845  43.561
36901DT     BB339847  77.978  94.986  43.509
36901DT     SC139848  78.161  95.147  43.413
36901DT     SC239849  78.178  95.320  43.540
36901DT     SC339850  78.299  95.292  43.240
36902DA     BB139851  77.877  94.736  43.832
36902DA     BB239852  77.823  95.086  43.929
36902DA     BB339853  77.659  95.168  43.821
36902DA     SC139854  77.835  95.273  43.587
36902DA     SC239855  77.910  95.494  43.497
36902DA     SC339856  77.956  95.366  43.279
36902DA     SC439857  77.855  95.177  43.460
36903DT     BB139858  77.549  95.206  43.944
36903DT     BB239859  77.588  95.565  43.929
36903DT     BB339860  77.448  95.645  43.800
36903DT     SC139861  77.581  95.560  43.590
36903DT     SC239862  77.666  95.728  43.486
36903DT     SC339863  77.638  95.427  43.370
36904DT     BB139864  77.342  95.741  44.020
36904DT     BB239865  77.403  96.029  43.811
36904DT     BB339866  77.251  96.049  43.673
36904DT     SC139867  77.342  95.848  43.531
36904DT     SC239868  77.421  95.923  43.345
36904DT     SC339869  77.353  95.613  43.413
36905DA     BB139870  77.299  96.419  43.866
36905DA     BB239871  77.286  96.480  43.505
36905DA     BB339872  77.087  96.452  43.432
36905DA     SC139873  77.128  96.151  43.367
36905DA     SC239874  77.145  96.006  43.165
36905DA     SC339875  77.085  95.813  43.323
36905DA     SC439876  77.088  96.044  43.481
36906DT     BB139877  76.981  96.613  43.360
36906DT     BB239878  77.006  96.527  43.010
36906DT     BB339879  76.825  96.454  42.942
36906DT     SC139880  76.862  96.225  43.065
36906DT     SC239881  76.895  96.070  42.919
36906DT     SC339882  76.825  96.025  43.233
36907DA     BB139883  76.942  96.759  42.681
36907DA     BB239884  76.855  96.466  42.479
36907DA     BB339885  76.643  96.439  42.475
36907DA     SC139886  76.637  96.254  42.726
36907DA     SC239887  76.593  96.014  42.777
36907DA     SC339888  76.552  96.094  43.017
36907DA     SC439889  76.614  96.324  42.869
36908DT     BB139890  76.571  96.460  42.304
36908DT     BB239891  76.512  96.109  42.241
36908DT     BB339892  76.312  96.065  42.271
36908DT     SC139893  76.339  96.078  42.531
36908DT     SC239894  76.319  95.881  42.615
36908DT     SC339895  76.309  96.159  42.781
36909DG     BB139896  76.456  95.952  41.907
36909DG     BB239897  76.292  95.680  42.080
36909DG     BB339898  76.095  95.708  42.079
36909DG     SC139899  76.091  95.867  42.340
36909DG     SC239900  75.967  95.779  42.597
36909DG     SC339901  76.052  96.062  42.613
36909DG     SC439902  76.111  96.026  42.335
36910DA     BB139903  76.146  95.378  41.988
36910DA     BB239904  75.920  95.281  42.260
36910DA     BB339905  75.723  95.354  42.222
36910DA     SC139906  75.767  95.623  42.371
36910DA     SC239907  75.689  95.734  42.581
36910DA     SC339908  75.762  95.953  42.469
36910DA     SC439909  75.818  95.749  42.284
36911DT     BB139910  75.607  95.216  42.197
36911DT     BB239911  75.414  95.253  42.500
36911DT     BB339912  75.242  95.362  42.461
36911DT     SC139913  75.378  95.586  42.446
36911DT     SC239914  75.329  95.710  42.615
36911DT     SC339915  75.483  95.806  42.346
36912DT     BB139916  75.088  95.137  42.479
36912DT     BB239917  74.930  95.368  42.706
36912DT     BB339918  74.795  95.487  42.603
36912DT     SC139919  74.989  95.628  42.495
36912DT     SC239920  74.987  95.826  42.578
36912DT     SC339921  75.147  95.732  42.312
36913DT     BB139922  74.554  95.358  42.692
36913DT     BB239923  74.496  95.705  42.773
36913DT     BB339924  74.399  95.799  42.616
36913DT     SC139925  74.619  95.805  42.473
36913DT     SC239926  74.687  96.008  42.455
36913DT     SC339927  74.788  95.757  42.277
36914DT     BB139928  74.132  95.814  42.729
36914DT     BB239929  74.206  96.158  42.646
36914DT     BB339930  74.134  96.202  42.458
36914DT     SC139931  74.327  96.067  42.343
36914DT     SC239932  74.460  96.204  42.244
36914DT     SC339933  74.451  95.883  42.200
36915DC     BB139934  73.912  96.359  42.544
36915DC     BB239935  74.097  96.582  42.329
36915DC     BB339936  74.025  96.570  42.135
36915DC     SC139937  74.142  96.337  42.099
36915DC     SC239938  74.303  96.360  41.959
36915DC     SC339939  74.172  96.079  42.053
36916DC     BB139940  73.910  96.817  42.157
36916DC     BB239941  74.135  96.846  41.876
36916DC     BB339942  74.038  96.790  41.702
36916DC     SC139943  74.052  96.536  41.767
36916DC     SC239944  74.190  96.436  41.635
36916DC     SC339945  73.976  96.292  41.831
36917DC     BB139946  74.045  97.047  41.634
36917DC     BB239947  74.216  96.876  41.367
36917DC     BB339948  74.079  96.806  41.229
36917DC     SC139949  74.005  96.612  41.389
36917DC     SC239950  74.071  96.424  41.309
36917DC     SC339951  73.852  96.464  41.545
36918DA     BB139952  74.387  97.016  41.035
36918DA     BB239953  74.335  96.700  40.857
36918DA     BB339954  74.149  96.703  40.752
36918DA     SC139955  73.985  96.584  40.988
36918DA     SC239956  73.867  96.371  41.041
36918DA     SC339957  73.740  96.509  41.216
36918DA     SC439958  73.916  96.687  41.090
36919DT     BB139959  74.158  96.700  40.554
36919DT     BB239960  74.038  96.364  40.505
36919DT     BB339961  73.840  96.367  40.444
36919DT     SC139962  73.759  96.427  40.686
36919DT     SC239963  73.653  96.259  40.769
36919DT     SC339964  73.650  96.562  40.885
36920DT     BB139965  73.899  96.302  40.179
36920DT     BB239966  73.656  96.053  40.276
36920DT     BB339967  73.465  96.122  40.237
36920DT     SC139968  73.473  96.284  40.443
36920DT     SC239969  73.338  96.214  40.594
36920DT     SC339970  73.474  96.508  40.583
36921DT     BB139971  73.394  95.974  39.986
36921DT     BB239972  73.117  95.894  40.203
36921DT     BB339973  72.958  96.022  40.165
36921DT     SC139974  73.078  96.221  40.287
36921DT     SC239975  72.974  96.265  40.470
36921DT     SC339976  73.194  96.454  40.325
36922DT     BB139977  72.775  95.844  40.009
36922DT     BB239978  72.566  95.957  40.281
36922DT     BB339979  72.452  96.118  40.220
36922DT     SC139980  72.659  96.279  40.230
36922DT     SC239981  72.634  96.417  40.393
36922DT     SC339982  72.849  96.445  40.152
36923DT     BB139983  72.197  95.982  40.194
36923DT     BB239984  72.125  96.248  40.427
36923DT     BB339985  72.049  96.411  40.326
36923DT     SC139986  72.285  96.474  40.231
36923DT     SC239987  72.354  96.656  40.324
36923DT     SC339988  72.480  96.518  40.058
36924DG     BB139989  71.763  96.308  40.597
36924DG     BB239990  71.851  96.657  40.629
36924DG     BB339991  71.754  96.764  40.492
36924DG     SC139992  71.973  96.736  40.279
36924DG     SC239993  72.144  96.957  40.173
36924DG     SC339994  72.184  96.709  40.017
36924DG     SC439995  71.970  96.610  40.180
36925DA     BB139996  71.658  96.961  40.756
36925DA     BB239997  71.815  97.253  40.600
36925DA     BB339998  71.694  97.327  40.441
36925DA     SC139999  71.830  97.151  40.223
36925DA     SC240000  71.979  97.185  40.026
36925DA     SC340001  71.895  96.955  39.949
36925DA     SC440002  71.764  97.008  40.191
36926DT     BB140003  71.612  97.507  40.465
36926DT     BB240004  71.820  97.686  40.230
36926DT     BB340005  71.713  97.725  40.057
36926DT     SC140006  71.732  97.475  39.980
36926DT     SC240007  71.862  97.463  39.809
36926DT     SC340008  71.661  97.230  39.911
36927DA     BB140009  71.866  98.096  40.177
36927DA     BB240010  71.932  98.063  39.818
36927DA     BB340011  71.752  98.093  39.707
36927DA     SC140012  71.672  97.793  39.707
36927DA     SC240013  71.656  97.606  39.543
36927DA     SC340014  71.500  97.496  39.715
36927DA     SC440015  71.576  97.742  39.826
36928DA     BB140016  71.911  98.333  39.535
36928DA     BB240017  71.850  98.141  39.228
36928DA     BB340018  71.651  98.173  39.159
36928DA     SC140019  71.531  97.934  39.318
36928DA     SC240020  71.434  97.710  39.269
36928DA     SC340021  71.328  97.727  39.502
36928DA     SC440022  71.472  97.964  39.465
36929DT     BB140023  71.574  98.294  38.961
36929DT     BB240024  71.482  98.004  38.768
36929DT     BB340025  71.277  98.000  38.740
36929DT     SC140026  71.235  97.926  38.988
36929DT     SC240027  71.164  97.723  38.991
36929DT     SC340028  71.153  97.932  39.238
36930DA     BB140029  71.403  97.984  38.338
36930DA     BB240030  71.160  97.714  38.381
36930DA     BB340031  70.961  97.790  38.371
36930DA     SC140032  70.940  97.842  38.677
36930DA     SC240033  70.816  97.748  38.872
36930DA     SC340034  70.868  97.971  38.987
36930DA     SC440035  70.981  97.988  38.731
36931DT     BB140036  70.816  97.744  38.206
36931DT     BB240037  70.617  97.512  38.397
36931DT     BB340038  70.430  97.593  38.435
36931DT     SC140039  70.529  97.754  38.617
36931DT     SC240040  70.460  97.693  38.811
36931DT     SC340041  70.598  97.977  38.740
36932DT     BB140042  70.307  97.424  38.255
36932DT     BB240043  70.141  97.357  38.568
36932DT     BB340044  69.979  97.483  38.591
36932DT     SC140045  70.135  97.687  38.645
36932DT     SC240046  70.113  97.741  38.852
36932DT     SC340047  70.254  97.921  38.623
36933DG     BB140048  69.843  97.100  38.614
36933DG     BB240049  69.744  97.294  38.903
36933DG     BB340050  69.589  97.410  38.856
36933DG     SC140051  69.761  97.646  38.766
36933DG     SC240052  69.779  97.912  38.901
36933DG     SC340053  69.918  97.917  38.641
36933DG     SC440054  69.808  97.654  38.613
36934DC     BB140055  69.402  97.381  38.961
36934DC     BB240056  69.402  97.665  39.183
36934DC     BB340057  69.272  97.810  39.112
36934DC     SC140058  69.441  97.879  38.923
36934DC     SC240059  69.520  98.075  38.966
36934DC     SC340060  69.542  97.918  38.683
36935DT     BB140061  69.117  97.747  39.318
36935DT     BB240062  69.186  98.099  39.356
36935DT     BB340063  69.053  98.210  39.242
36935DT     SC140064  69.178  98.146  39.020
36935DT     SC240065  69.276  98.320  38.941
36935DT     SC340066  69.223  98.043  38.782
36936DT     BB140067  68.954  98.282  39.475
36936DT     BB240068  69.046  98.590  39.312
36936DT     BB340069  68.897  98.648  39.181
36936DT     SC140070  68.964  98.463  39.008
36936DT     SC240071  69.050  98.556  38.834
36936DT     SC340072  68.949  98.249  38.855
36937DG     BB140073  68.986  98.942  39.448
36937DG     BB240074  68.993  99.062  39.108
36937DG     BB340075  68.807  99.082  39.039
36937DG     SC140076  68.790  98.797  38.930
36937DG     SC240077  68.771  98.720  38.642
36937DG     SC340078  68.730  98.485  38.817
36937DG     SC440079  68.739  98.680  39.027
36938DG     BB140080  68.902  99.387  38.983
36938DG     BB240081  68.828  99.320  38.636
36938DG     BB340082  68.631  99.328  38.606
36938DG     SC140083  68.585  99.031  38.666
36938DG     SC240084  68.497  98.824  38.470
36938DG     SC340085  68.496  98.715  38.745
36938DG     SC440086  68.558  98.986  38.817
36939DC     BB140087  68.559  99.473  38.474
36939DC     BB240088  68.454  99.278  38.189
36939DC     BB340089  68.250  99.248  38.195
36939DC     SC140090  68.274  99.070  38.386
36939DC     SC240091  68.226  98.875  38.309
36939DC     SC340092  68.251  98.954  38.622
36940DT     BB140093  68.214  99.425  37.992
36940DT     BB240094  68.044  99.127  37.879
36940DT     BB340095  67.850  99.125  37.952
36940DT     SC140096  67.932  99.062  38.193
36940DT     SC240097  67.873  98.860  38.238
36940DT     SC340098  67.978  99.080  38.452
36941DA     BB140099  67.783  99.082  37.537
36941DA     BB240100  67.576  98.830  37.705
36941DA     BB340101  67.403  98.922  37.791
36941DA     SC140102  67.539  98.976  38.066
36941DA     SC240103  67.522  98.892  38.300
36941DA     SC340104  67.638  99.111  38.365
36941DA     SC440105  67.611  99.119  38.086
36942DA     BB140106  67.200  98.715  37.618
36942DA     BB240107  67.078  98.584  37.938
36942DA     BB340108  66.928  98.713  38.019
36942DA     SC140109  67.130  98.886  38.180
36942DA     SC240110  67.189  98.926  38.419
36942DA     SC340111  67.295  99.144  38.335
36942DA     SC440112  67.188  99.018  38.109
36943DA     BB140113  66.717  98.452  38.032
36943DA     BB240114  66.712  98.491  38.396
36943DA     BB340115  66.575  98.644  38.452
36943DA     SC140116  66.787  98.871  38.444
36943DA     SC240117  66.906  99.019  38.606
36943DA     SC340118  66.951  99.170  38.403
36943DA     SC440119  66.804  98.953  38.306
36944DT     BB140120  66.394  98.603  38.562
36944DT     BB240121  66.514  98.725  38.880
36944DT     BB340122  66.419  98.903  38.927
36944DT     SC140123  66.562  99.035  38.752
36944DT     SC240124  66.698  99.166  38.855
36944DT     SC340125  66.622  99.180  38.540
36945DT     BB140126  66.276  98.776  39.122
36945DT     BB240127  66.454  99.038  39.295
36945DT     BB340128  66.343  99.213  39.291
36945DT     SC140129  66.403  99.254  39.038
36945DT     SC240130  66.535  99.423  39.022
36945DT     SC340131  66.373  99.284  38.778
36946DA     BB140132  66.460  99.132  39.685
36946DA     BB240133  66.545  99.481  39.610
36946DA     BB340134  66.368  99.600  39.600
36946DA     SC140135  66.327  99.557  39.295
36946DA     SC240136  66.342  99.692  39.086
36946DA     SC340137  66.193  99.510  38.982
36946DA     SC440138  66.233  99.435  39.249
36947DG     BB140139  66.518  99.746  39.827
36947DG     BB240140  66.517 100.017  39.588
36947DG     BB340141  66.340 100.107  39.588
36947DG     SC140142  66.221  99.926  39.372
36947DG     SC240143  66.142 100.010  39.096
36947DG     SC340144  66.052  99.734  39.152
36947DG     SC440145  66.149  99.790  39.415
36948DC     BB140146  66.324 100.317  39.645
36948DC     BB240147  66.267 100.476  39.326
36948DC     BB340148  66.067 100.525  39.306
36948DC     SC140149  66.003 100.274  39.262
36948DC     SC240150  65.942 100.250  39.057
36948DC     SC340151  65.894 100.036  39.296
36949DT     BB140152  66.125 100.788  39.339
36949DT     BB240153  65.954 100.772  39.022
36949DT     BB340154  65.749 100.784  39.051
36949DT     SC140155  65.740 100.537  39.139
36949DT     SC240156  65.638 100.413  38.995
36949DT     SC340157  65.704 100.333  39.302
36950DT     BB140158  65.742 101.039  38.952
36950DT     BB240159  65.511 100.856  38.744
36950DT     BB340160  65.323 100.856  38.830
36950DT     SC140161  65.396 100.681  39.011
36950DT     SC240162  65.298 100.494  38.974
36950DT     SC340163  65.452 100.576  39.247
36951DA     BB140164  65.272 100.991  38.436
36951DA     BB240165  65.024 100.727  38.497
36951DA     BB340166  64.867 100.800  38.622
36951DA     SC140167  65.005 100.715  38.887
36951DA     SC240168  64.971 100.546  39.067
36951DA     SC340169  65.119 100.698  39.211
36951DA     SC440170  65.098 100.824  38.961
36952DA     BB140171  64.682 100.688  38.373
36952DA     BB240172  64.529 100.460  38.615
36952DA     BB340173  64.392 100.566  38.740
36952DA     SC140174  64.605 100.633  38.957
36952DA     SC240175  64.656 100.567  39.192
36952DA     SC340176  64.792 100.784  39.202
36952DA     SC440177  64.683 100.773  38.944
36953DT     BB140178  64.189 100.526  38.729
36953DT     BB240179  64.166 100.342  39.039
36953DT     BB340180  64.073 100.457  39.183
36953DT     SC140181  64.288 100.604  39.214
36953DT     SC240182  64.374 100.564  39.407
36953DT     SC340183  64.447 100.815  39.215
36954DA     BB140184  63.855 100.098  39.176
36954DA     BB240185  63.941 100.169  39.525
36954DA     BB340186  63.817 100.326  39.602
36954DA     SC140187  64.013 100.553  39.520
36954DA     SC240188  64.164 100.716  39.633
36954DA     SC340189  64.152 100.849  39.414
36954DA     SC440190  63.992 100.622  39.376
36955DA     BB140191  63.749 100.104  39.835
36955DA     BB240192  63.902 100.337  40.073
36955DA     BB340193  63.767 100.495  40.120
36955DA     SC140194  63.869 100.681  39.892
36955DA     SC240195  63.997 100.894  39.871
36955DA     SC340196  63.893 100.910  39.637
36955DA     SC440197  63.793 100.673  39.750
36956DA     BB140198  63.840 100.386  40.417
36956DA     BB240199  63.986 100.717  40.477
36956DA     BB340200  63.832 100.862  40.507
36956DA     SC140201  63.812 100.939  40.206
36956DA     SC240202  63.867 101.134  40.061
36956DA     SC340203  63.701 101.031  39.894
36956DA     SC440204  63.704 100.860  40.116
36957DT     BB140205  63.843 100.929  40.675
36957DT     BB240206  63.986 101.247  40.581
36957DT     BB340207  63.838 101.392  40.576
36957DT     SC140208  63.743 101.298  40.351
36957DT     SC240209  63.783 101.438  40.192
36957DT     SC340210  63.576 101.189  40.178
36958DT     BB140211  63.990 101.462  40.768
36958DT     BB240212  63.992 101.734  40.531
36958DT     BB340213  63.815 101.841  40.545
36958DT     SC140214  63.683 101.651  40.420
36958DT     SC240215  63.625 101.721  40.225
36958DT     SC340216  63.508 101.459  40.376
36959DG     BB140217  64.178 102.038  40.550
36959DG     BB240218  63.944 102.177  40.312
36959DG     BB340219  63.791 102.261  40.407
36959DG     SC140220  63.623 102.006  40.413
36959DG     SC240221  63.366 101.962  40.267
36959DG     SC340222  63.420 101.739  40.454
36959DG     SC440223  63.640 101.904  40.535
36960DT     BB140224  63.800 102.422  40.337
36960DT     BB240225  63.493 102.453  40.150
36960DT     BB340226  63.337 102.501  40.278
36960DT     SC140227  63.329 102.256  40.372
36960DT     SC240228  63.148 102.160  40.306
36960DT     SC340229  63.343 102.054  40.542
36961DT     BB140230  63.349 102.734  40.161
36961DT     BB240231  63.002 102.637  40.141
36961DT     BB340232  62.908 102.676  40.321
36961DT     SC140233  63.024 102.469  40.435
36961DT     SC240234  62.876 102.318  40.474
36961DT     SC340235  63.175 102.329  40.598
36962DA     BB140236  62.657 102.887  40.054
36962DA     BB240237  62.438 102.702  40.282
36962DA     BB340238  62.432 102.796  40.473
36962DA     SC140239  62.670 102.632  40.588
36962DA     SC240240  62.706 102.454  40.759
36962DA     SC340241  62.951 102.530  40.757
36962DA     SC440242  62.817 102.695  40.574
36963DA     BB140243  62.091 102.837  40.473
36963DA     BB240244  62.072 102.625  40.771
36963DA     BB340245  62.110 102.741  40.947
36963DA     SC140246  62.417 102.689  40.944
36963DA     SC240247  62.584 102.563  41.079
36963DA     SC340248  62.758 102.718  40.972
36963DA     SC440249  62.509 102.796  40.868
36964DT     BB140250  61.959 102.806  41.128
36964DT     BB240251  62.087 102.571  41.369
36964DT     BB340252  62.180 102.672  41.524
36964DT     SC140253  62.388 102.727  41.373
36964DT     SC240254  62.558 102.615  41.443
36964DT     SC340255  62.567 102.866  41.238
36965DA     BB140256  61.901 102.433  41.727
36965DA     BB240257  62.228 102.375  41.883
36965DA     BB340258  62.278 102.537  42.013
36965DA     SC140259  62.426 102.700  41.792
36965DA     SC240260  62.660 102.766  41.737
36965DA     SC340261  62.552 102.949  41.593
36965DA     SC440262  62.340 102.807  41.709
36966DG     BB140263  62.281 102.321  42.236
36966DG     BB240264  62.634 102.398  42.242
36966DG     BB340265  62.667 102.556  42.357
36966DG     SC140266  62.634 102.760  42.131
36966DG     SC240267  62.849 102.934  42.019
36966DG     SC340268  62.584 103.011  41.912
36966DG     SC440269  62.488 102.817  42.099
36967DC     BB140270  62.792 102.527  42.524
36967DC     BB240271  63.096 102.686  42.413
36967DC     BB340272  63.113 102.874  42.498
36967DC     SC140273  62.930 102.972  42.338
36967DC     SC240274  63.022 103.107  42.198
36967DC     SC340275  62.705 103.081  42.256
36968DA     BB140276  63.466 102.651  42.543
36968DA     BB240277  63.553 102.983  42.414
36968DA     BB340278  63.523 103.131  42.565
36968DA     SC140279  63.229 103.190  42.482
36968DA     SC240280  63.100 103.375  42.377
36968DA     SC340281  62.894 103.265  42.481
36968DA     SC440282  63.113 103.107  42.557
36969DC     BB140283  63.682 103.211  42.615
36969DC     BB240284  63.626 103.530  42.456
36969DC     BB340285  63.558 103.667  42.595
36969DC     SC140286  63.320 103.557  42.599
36969DC     SC240287  63.178 103.691  42.508
36969DC     SC340288  63.106 103.432  42.689
36970DA     BB140289  63.881 103.836  42.385
36970DA     BB240290  63.610 104.082  42.395
36970DA     BB340291  63.587 104.160  42.592
36970DA     SC140292  63.379 103.945  42.679
36970DA     SC240293  63.136 103.935  42.733
36970DA     SC340294  63.193 103.716  42.854
36970DA     SC440295  63.435 103.812  42.750
36971DT     BB140296  63.633 104.361  42.638
36971DT     BB240297  63.293 104.477  42.677
36971DT     BB340298  63.252 104.508  42.877
36971DT     SC140299  63.235 104.250  42.922
36971DT     SC240300  63.030 104.199  42.964
36971DT     SC340301  63.289 104.012  43.020
36972DT     BB140302  63.261 104.789  42.860
36972DT     BB240303  62.935 104.722  43.001
36972DT     BB340304  62.947 104.718  43.208
36972DT     SC140305  63.063 104.483  43.205
36972DT     SC240306  62.928 104.335  43.284
36972DT     SC340307  63.246 104.296  43.239
36973DT     BB140308  62.822 104.968  43.246
36973DT     BB240309  62.620 104.739  43.439
36973DT     BB340310  62.690 104.730  43.633
36973DT     SC140311  62.896 104.584  43.560
36973DT     SC240312  62.873 104.384  43.636
36973DT     SC340313  63.145 104.511  43.516
36974DA     BB140314  62.283 104.820  43.670
36974DA     BB240315  62.353 104.535  43.890
36974DA     BB340316  62.456 104.601  44.066
36974DA     SC140317  62.739 104.562  43.944
36974DA     SC240318  62.934 104.409  43.976
36974DA     SC340319  63.071 104.593  43.860
36974DA     SC440320  62.807 104.688  43.871
36975DC     BB140321  62.362 104.586  44.248
36975DC     BB240322  62.549 104.303  44.368
36975DC     BB340323  62.684 104.363  44.514
36975DC     SC140324  62.842 104.471  44.334
36975DC     SC240325  63.023 104.355  44.320
36975DC     SC340326  62.977 104.653  44.200
36976DC     BB140327  62.529 104.237  44.694
36976DC     BB240328  62.854 104.084  44.727
36976DC     BB340329  62.972 104.194  44.856
36976DC     SC140330  63.009 104.381  44.675
36976DC     SC240331  63.214 104.376  44.609
36976DC     SC340332  63.002 104.616  44.556
36977DA     BB140333  62.978 103.790  44.965
36977DA     BB240334  63.324 103.912  44.955
36977DA     BB340335  63.361 104.043  45.119
36977DA     SC140336  63.279 104.300  44.963
36977DA     SC240337  63.390 104.502  44.870
36977DA     SC340338  63.156 104.607  44.872
36977DA     SC440339  63.126 104.347  44.974
36978DA     BB140340  63.607 103.830  45.150
36978DA     BB240341  63.833 104.116  45.113
36978DA     BB340342  63.830 104.236  45.290
36978DA     SC140343  63.599 104.420  45.190
36978DA     SC240344  63.571 104.657  45.117
36978DA     SC340345  63.322 104.621  45.169
36978DA     SC440346  63.449 104.379  45.230
36979DG     BB140347  64.133 104.167  45.296
36979DG     BB240348  64.170 104.525  45.256
36979DG     BB340349  64.147 104.615  45.432
36979DG     SC140350  63.845 104.650  45.403
36979DG     SC240351  63.700 104.910  45.375
36979DG     SC340352  63.510 104.687  45.414
36979DG     SC440353  63.748 104.533  45.454
36980DG     BB140354  64.451 104.747  45.409
36980DG     BB240355  64.288 105.070  45.415
36980DG     BB340356  64.252 105.124  45.603
36980DG     SC140357  63.975 104.993  45.614
36980DG     SC240358  63.714 105.135  45.637
36980DG     SC340359  63.678 104.843  45.667
36980DG     SC440360  63.964 104.840  45.659
36981DA     BB140361  64.416 105.431  45.553
36981DA     BB240362  64.109 105.615  45.636
36981DA     BB340363  64.082 105.622  45.848
36981DA     SC140364  63.915 105.360  45.860
36981DA     SC240365  63.678 105.295  45.906
36981DA     SC340366  63.774 105.061  45.952
36981DA     SC440367  63.993 105.223  45.886
36982DA     BB140368  64.066 105.951  45.807
36982DA     BB240369  63.724 105.935  45.941
36982DA     BB340370  63.729 105.917  46.153
36982DA     SC140371  63.730 105.606  46.152
36982DA     SC240372  63.574 105.420  46.212
36982DA     SC340373  63.785 105.275  46.222
36982DA     SC440374  63.873 105.532  46.154
36983DT     BB140375  63.658 106.073  46.283
36983DT     BB240376  63.351 105.911  46.379
36983DT     BB340377  63.363 105.847  46.576
36983DT     SC140378  63.520 105.648  46.509
36983DT     SC240379  63.414 105.462  46.533
36983DT     SC340380  63.734 105.494  46.496
36984DT     BB140381  63.192 106.045  46.666
36984DT     BB240382  63.035 105.738  46.770
36984DT     BB340383  63.105 105.683  46.957
36984DT     SC140384  63.334 105.604  46.858
36984DT     SC240385  63.348 105.390  46.871
36984DT     SC340386  63.593 105.593  46.810
36985DC     BB140387  62.866 105.751  47.079
36985DC     BB240388  62.914 105.404  47.164
36985DC     BB340389  63.023 105.388  47.339
36985DC     SC140390  63.245 105.452  47.214
36985DC     SC240391  63.374 105.280  47.205
36985DC     SC340392  63.462 105.587  47.147
36986DT     BB140393  62.801 105.307  47.474
36986DT     BB240394  63.038 105.039  47.520
36986DT     BB340395  63.157 105.078  47.685
36986DT     SC140396  63.293 105.259  47.553
36986DT     SC240397  63.493 105.187  47.518
36986DT     SC340398  63.393 105.494  47.486
36987DA     BB140399  62.999 104.692  47.724
36987DA     BB240400  63.361 104.672  47.779
36987DA     BB340401  63.411 104.755  47.969
36987DA     SC140402  63.456 105.043  47.858
36987DA     SC240403  63.647 105.199  47.821
36987DA     SC340404  63.469 105.384  47.817
36987DA     SC440405  63.331 105.144  47.861
36988DA     BB140406  63.552 104.462  47.981
36988DA     BB240407  63.870 104.640  48.018
36988DA     BB340408  63.885 104.725  48.213
36988DA     SC140409  63.756 104.996  48.132
36988DA     SC240410  63.828 105.233  48.103
36988DA     SC340411  63.579 105.290  48.128
36988DA     SC440412  63.597 105.011  48.151
36989DA     BB140413  64.162 104.557  48.177
36989DA     BB240414  64.334 104.877  48.224
36989DA     BB340415  64.319 104.940  48.428
36989DA     SC140416  64.057 105.102  48.383
36989DA     SC240417  63.985 105.341  48.379
36989DA     SC340418  63.749 105.249  48.417
36989DA     SC440419  63.917 105.025  48.408
36990DT     BB140420  64.483 104.945  48.504
36990DT     BB240421  64.518 105.304  48.517
36990DT     BB340422  64.466 105.373  48.706
36990DT     SC140423  64.211 105.337  48.658
36990DT     SC240424  64.113 105.528  48.643
36990DT     SC340425  63.966 105.242  48.678
36991DC     BB140426  64.725 105.423  48.736
36991DC     BB240427  64.561 105.738  48.797
36991DC     BB340428  64.494 105.747  48.992
36991DC     SC140429  64.296 105.583  48.940
36991DC     SC240430  64.110 105.690  48.950
36991DC     SC340431  64.143 105.368  48.947
36992DA     BB140432  64.716 106.095  48.916
36992DA     BB240433  64.402 106.193  49.078
36992DA     BB340434  64.404 106.138  49.284
36992DA     SC140435  64.278 105.858  49.236
36992DA     SC240436  64.062 105.742  49.282
36992DA     SC340437  64.195 105.525  49.249
36992DA     SC440438  64.378 105.734  49.213
36993DA     BB140439  64.333 106.457  49.328
36993DA     BB240440  64.023 106.347  49.491
36993DA     BB340441  64.064 106.274  49.688
36993DA     SC140442  64.107 105.980  49.596
36993DA     SC240443  63.990 105.761  49.619
36993DA     SC340444  64.217 105.656  49.561
36993DA     SC440445  64.257 105.934  49.560
36994DG     BB140446  63.875 106.503  49.787
36994DG     BB240447  63.672 106.226  49.900
36994DG     BB340448  63.737 106.162  50.077
36994DG     SC140449  63.934 105.960  49.958
36994DG     SC240450  63.914 105.662  49.980
36994DG     SC340451  64.173 105.742  49.863
36994DG     SC440452  64.082 106.007  49.924
36995DT     BB140453  63.610 106.171  50.263
36995DT     BB240454  63.518 105.825  50.304
36995DT     BB340455  63.627 105.740  50.458
36995DT     SC140456  63.843 105.730  50.309
36995DT     SC240457  63.889 105.525  50.262
36995DT     SC340458  64.089 105.777  50.224
36996DA     BB140459  63.223 105.659  50.531
36996DA     BB240460  63.409 105.344  50.563
36996DA     BB340461  63.524 105.344  50.743
36996DA     SC140462  63.777 105.467  50.611
36996DA     SC240463  64.007 105.394  50.550
36996DA     SC340464  64.064 105.644  50.546
36996DA     SC440465  63.793 105.627  50.615
36997DT     BB140466  63.473 105.212  50.883
36997DT     BB240467  63.751 104.988  50.836
36997DT     BB340468  63.889 105.013  50.988
36997DT     SC140469  63.973 105.239  50.884
36997DT     SC240470  64.173 105.213  50.807
36997DT     SC340471  64.025 105.497  50.858
36998DA     BB140472  63.803 104.603  50.967
36998DA     BB240473  64.167 104.641  50.974
36998DA     BB340474  64.232 104.698  51.169
36998DA     SC140475  64.214 105.003  51.113
36998DA     SC240476  64.370 105.195  51.085
36998DA     SC340477  64.167 105.342  51.138
36998DA     SC440478  64.076 105.077  51.150
36999DA     BB140479  64.425 104.434  51.131
36999DA     BB240480  64.711 104.661  51.167
36999DA     BB340481  64.735 104.718  51.372
36999DA     SC140482  64.553 104.969  51.349
36999DA     SC240483  64.580 105.217  51.352
36999DA     SC340484  64.329 105.223  51.408
36999DA     SC440485  64.397 104.952  51.384
37000DA     BB140486  65.043 104.607  51.328
37000DA     BB240487  65.158 104.946  51.404
37000DA     BB340488  65.148 104.983  51.614
37000DA     SC140489  64.858 105.095  51.606
37000DA     SC240490  64.745 105.316  51.636
37000DA     SC340491  64.532 105.177  51.676
37000DA     SC440492  64.737 104.992  51.629
37001DG     BB140493  65.460 105.027  51.609
37001DG     BB240494  65.371 105.365  51.703
37001DG     BB340495  65.349 105.377  51.900
37001DG     SC140496  65.051 105.307  51.897
37001DG     SC240497  64.828 105.491  51.970
37001DG     SC340498  64.729 105.215  51.931
37001DG     SC440499  65.007 105.154  51.904
37002DA     BB140500  65.572 105.644  51.899
37002DA     BB240501  65.314 105.864  52.040
37002DA     BB340502  65.294 105.829  52.250
37002DA     SC140503  65.074 105.611  52.217
37002DA     SC240504  64.830 105.587  52.263
37002DA     SC340505  64.874 105.334  52.252
37002DA     SC440506  65.122 105.458  52.208
37003DT     BB140507  65.346 105.977  52.381
37003DT     BB240508  65.011 106.074  52.472
37003DT     BB340509  64.966 106.005  52.662
37003DT     SC140510  64.938 105.759  52.574
37003DT     SC240511  64.731 105.703  52.585
37003DT     SC340512  64.981 105.501  52.542
37004DT     BB140513  64.982 106.258  52.765
37004DT     BB240514  64.650 106.146  52.853
37004DT     BB340515  64.655 106.046  53.033
37004DT     SC140516  64.765 105.835  52.922
37004DT     SC240517  64.622 105.673  52.920
37004DT     SC340518  64.941 105.647  52.867
37005DA     BB140519  64.358 106.340  53.068
37005DA     BB240520  64.215 106.022  53.180
37005DA     BB340521  64.292 105.969  53.372
37005DA     SC140522  64.532 105.807  53.259
37005DA     SC240523  64.604 105.569  53.245
37005DA     SC340524  64.839 105.663  53.206
37005DA     SC440525  64.671 105.885  53.237
37006DC     BB140526  64.166 105.966  53.537
37006DC     BB240527  64.143 105.607  53.565
37006DC     BB340528  64.254 105.541  53.727
37006DC     SC140529  64.480 105.580  53.598
37006DC     SC240530  64.570 105.389  53.554
37006DC     SC340531  64.717 105.678  53.537
37007DC     BB140532  64.026 105.486  53.866
37007DC     BB240533  64.203 105.172  53.856
37007DC     BB340534  64.334 105.160  54.015
37007DC     SC140535  64.500 105.329  53.903
37007DC     SC240536  64.679 105.225  53.843
37007DC     SC340537  64.644 105.547  53.863
37008DT     BB140538  64.174 104.974  54.127
37008DT     BB240539  64.494 104.811  54.093
37008DT     BB340540  64.612 104.852  54.258
37008DT     SC140541  64.657 105.097  54.174
37008DT     SC240542  64.863 105.115  54.115
37008DT     SC340543  64.659 105.360  54.167
37009DA     BB140544  64.605 104.440  54.187
37009DA     BB240545  64.954 104.544  54.227
37009DA     BB340546  64.994 104.591  54.431
37009DA     SC140547  64.921 104.892  54.401
37009DA     SC240548  65.039 105.112  54.402
37009DA     SC340549  64.808 105.212  54.452
37009DA     SC440550  64.770 104.935  54.433
37010DA     BB140551  65.227 104.381  54.342
37010DA     BB240552  65.464 104.648  54.426
37010DA     BB340553  65.470 104.679  54.637
37010DA     SC140554  65.246 104.894  54.637
37010DA     SC240555  65.226 105.140  54.675
37010DA     SC340556  64.977 105.093  54.715
37010DA     SC440557  65.094 104.844  54.660
37011DT     BB140558  65.635 104.637  54.706
37011DT     BB240559  65.744 104.974  54.775
37011DT     BB340560  65.715 105.019  54.974
37011DT     SC140561  65.456 105.043  54.938
37011DT     SC240562  65.400 105.250  54.960
37011DT     SC340563  65.197 104.998  54.959
37012DA     BB140564  66.111 105.115  54.872
37012DA     BB240565  65.967 105.399  55.055
37012DA     BB340566  65.944 105.350  55.261
37012DA     SC140567  65.654 105.241  55.228
37012DA     SC240568  65.423 105.308  55.293
37012DA     SC340569  65.363 105.061  55.254
37012DA     SC440570  65.637 105.083  55.200
37013DA     BB140571  66.118 105.626  55.298
37013DA     BB240572  65.832 105.759  55.486
37013DA     BB340573  65.824 105.672  55.680
37013DA     SC140574  65.642 105.435  55.594
37013DA     SC240575  65.407 105.361  55.630
37013DA     SC340576  65.491 105.129  55.559
37013DA     SC440577  65.714 105.299  55.548
37014DT     BB140578  65.856 105.791  55.843
37014DT     BB240579  65.513 105.805  55.954
37014DT     BB340580  65.488 105.684  56.120
37014DT     SC140581  65.496 105.467  55.973
37014DT     SC240582  65.301 105.376  55.969
37014DT     SC340583  65.579 105.236  55.877
37015DA     BB140584  65.336 106.062  56.217
37015DA     BB240585  65.083 105.813  56.308
37015DA     BB340586  65.144 105.707  56.484
37015DA     SC140587  65.291 105.483  56.327
37015DA     SC240588  65.261 105.240  56.279
37015DA     SC340589  65.511 105.239  56.225
37015DA     SC440590  65.449 105.503  56.299
37016DT     BB140591  65.032 105.734  56.639
37016DT     BB240592  64.869 105.412  56.633
37016DT     BB340593  64.952 105.288  56.777
37016DT     SC140594  65.168 105.252  56.632
37016DT     SC240595  65.172 105.049  56.561
37016DT     SC340596  65.421 105.257  56.558
37017DT     BB140597  64.722 105.317  56.904
37017DT     BB240598  64.761 104.961  56.858
37017DT     BB340599  64.883 104.884  57.007
37017DT     SC140600  65.098 104.985  56.896
37017DT     SC240601  65.218 104.825  56.816
37017DT     SC340602  65.314 105.132  56.862
37018DA     BB140603  64.531 104.655  56.981
37018DA     BB240604  64.817 104.425  56.990
37018DA     BB340605  64.905 104.424  57.184
37018DA     SC140606  65.106 104.653  57.121
37018DA     SC240607  65.352 104.679  57.089
37018DA     SC340608  65.312 104.928  57.138
37018DA     SC440609  65.061 104.804  57.155
37019DT     BB140610  64.892 104.257  57.291
37019DT     BB240611  65.238 104.158  57.266
37019DT     BB340612  65.337 104.200  57.442
37019DT     SC140613  65.342 104.457  57.387
37019DT     SC240614  65.544 104.517  57.345
37019DT     SC340615  65.296 104.716  57.405
37020DA     BB140616  65.419 103.792  57.378
37020DA     BB240617  65.737 103.956  57.458
37020DA     BB340618  65.747 104.001  57.667
37020DA     SC140619  65.622 104.284  57.637
37020DA     SC240620  65.696 104.521  57.657
37020DA     SC340621  65.447 104.575  57.684
37020DA     SC440622  65.462 104.297  57.653
37021DC     BB140623  65.886 103.902  57.820
37021DC     BB240624  66.111 104.182  57.856
37021DC     BB340625  66.089 104.266  58.044
37021DC     SC140626  65.862 104.378  57.977
37021DC     SC240627  65.888 104.591  57.965
37021DC     SC340628  65.604 104.434  57.974
37022DC     BB140629  66.330 104.164  58.146
37022DC     BB240630  66.361 104.521  58.189
37022DC     BB340631  66.288 104.576  58.375
37022DC     SC140632  66.040 104.544  58.297
37022DC     SC240633  65.944 104.736  58.285
37022DC     SC340634  65.795 104.448  58.283
37023DT     BB140635  66.542 104.625  58.463
37023DT     BB240636  66.368 104.938  58.507
37023DT     BB340637  66.276 104.942  58.693
37023DT     SC140638  66.088 104.777  58.611
37023DT     SC240639  65.901 104.883  58.598
37023DT     SC340640  65.938 104.561  58.594
37024DA     BB140641  66.500 105.290  58.633
37024DA     BB240642  66.165 105.387  58.747
37024DA     BB340643  66.140 105.337  58.953
37024DA     SC140644  66.025 105.054  58.896
37024DA     SC240645  65.807 104.936  58.915
37024DA     SC340646  65.946 104.720  58.908
37024DA     SC440647  66.129 104.931  58.891
37025DA     BB140648  66.053 105.652  58.932
37025DA     BB240649  65.727 105.545  59.061
37025DA     BB340650  65.744 105.487  59.266
37025DA     SC140651  65.803 105.189  59.202
37025DA     SC240652  65.688 104.969  59.225
37025DA     SC340653  65.922 104.867  59.205
37025DA     SC440654  65.957 105.145  59.189
37026DA     BB140655  65.496 105.703  59.281
37026DA     BB240656  65.295 105.431  59.422
37026DA     BB340657  65.358 105.388  59.622
37026DA     SC140658  65.566 105.173  59.535
37026DA     SC240659  65.593 104.926  59.551
37026DA     SC340660  65.842 104.971  59.510
37026DA     SC440661  65.717 105.222  59.510
37027DC     BB140662  65.235 105.429  59.790
37027DC     BB240663  65.151 105.088  59.873
37027DC     BB340664  65.256 105.028  60.042
37027DC     SC140665  65.479 105.006  59.905
37027DC     SC240666  65.532 104.798  59.889
37027DC     SC340667  65.726 105.050  59.826
37028DA     BB140668  64.863 104.949  60.184
37028DA     BB240669  65.062 104.651  60.259
37028DA     BB340670  65.181 104.683  60.434
37028DA     SC140671  65.426 104.792  60.276
37028DA     SC240672  65.658 104.718  60.220
37028DA     SC340673  65.704 104.966  60.174
37028DA     SC440674  65.436 104.951  60.254
37029DA     BB140675  65.056 104.417  60.620
37029DA     BB240676  65.388 104.264  60.610
37029DA     BB340677  65.507 104.334  60.772
37029DA     SC140678  65.626 104.574  60.613
37029DA     SC240679  65.847 104.641  60.517
37029DA     SC340680  65.752 104.879  60.518
37029DA     SC440681  65.550 104.715  60.623
37030DA     BB140682  65.564 104.022  60.897
37030DA     BB240683  65.916 104.064  60.804
37030DA     BB340684  66.024 104.158  60.962
37030DA     SC140685  65.974 104.447  60.857
37030DA     SC240686  66.107 104.632  60.755
37030DA     SC340687  65.915 104.784  60.831
37030DA     SC440688  65.845 104.525  60.914
37031DA     BB140689  66.217 103.896  60.938
37031DA     BB240690  66.479 104.124  60.822
37031DA     BB340691  66.574 104.219  60.988
37031DA     SC140692  66.380 104.462  60.989
37031DA     SC240693  66.389 104.706  60.936
37031DA     SC340694  66.178 104.724  61.080
37031DA     SC440695  66.250 104.453  61.083
37032DT     BB140696  66.754 104.172  61.000
37032DT     BB240697  66.883 104.482  60.867
37032DT     BB340698  66.954 104.601  61.020
37032DT     SC140699  66.710 104.662  61.095
37032DT     SC240700  66.672 104.869  61.051
37032DT     SC340701  66.493 104.680  61.244
37033DT     BB140702  67.182 104.545  60.906
37033DT     BB240703  67.155 104.905  60.899
37033DT     BB340704  67.209 104.983  61.083
37033DT     SC140705  66.983 104.906  61.191
37033DT     SC240706  66.862 105.079  61.236
37033DT     SC340707  66.814 104.779  61.349
37034DA     BB140708  67.404 105.180  60.766
37034DA     BB240709  67.265 105.433  60.992
37034DA     BB340710  67.372 105.435  61.177
37034DA     SC140711  67.186 105.226  61.315
37034DA     SC240712  67.016 105.223  61.497
37034DA     SC340713  67.060 104.970  61.505
37034DA     SC440714  67.228 105.071  61.305
37035DG     BB140715  67.426 105.728  61.093
37035DG     BB240716  67.237 105.800  61.393
37035DG     BB340717  67.355 105.782  61.553
37035DG     SC140718  67.293 105.484  61.594
37035DG     SC240719  67.145 105.366  61.825
37035DG     SC340720  67.265 105.154  61.657
37035DG     SC440721  67.383 105.375  61.519
37036DA     BB140722  67.256 106.101  61.649
37036DA     BB240723  67.121 105.968  61.963
37036DA     BB340724  67.279 105.929  62.101
37036DA     SC140725  67.321 105.635  62.008
37036DA     SC240726  67.283 105.405  62.098
37036DA     SC340727  67.454 105.330  61.922
37036DA     SC440728  67.430 105.608  61.893
37037DG     BB140729  67.137 106.137  62.284
37037DG     BB240730  67.087 105.849  62.497
37037DG     BB340731  67.248 105.819  62.610
37037DG     SC140732  67.386 105.636  62.407
37037DG     SC240733  67.441 105.345  62.443
37037DG     SC340734  67.575 105.448  62.200
37037DG     SC440735  67.480 105.701  62.295
37038DT     BB140736  67.226 105.830  62.822
37038DT     BB240737  67.237 105.480  62.912
37038DT     BB340738  67.423 105.433  62.989
37038DT     SC140739  67.533 105.440  62.751
37038DT     SC240740  67.588 105.240  62.693
37038DT     SC340741  67.688 105.515  62.551
37039DA     BB140742  67.103 105.293  63.221
37039DA     BB240743  67.340 105.019  63.170
37039DA     BB340744  67.521 105.056  63.277
37039DA     SC140745  67.659 105.204  63.041
37039DA     SC240746  67.847 105.163  62.882
37039DA     SC340747  67.847 105.417  62.848
37039DA     SC440748  67.644 105.364  63.034
37040DG     BB140749  67.404 104.785  63.361
37040DG     BB240750  67.719 104.670  63.226
37040DG     BB340751  67.868 104.723  63.346
37040DG     SC140752  67.916 104.993  63.209
37040DG     SC240753  68.159 105.070  63.054
37040DG     SC340754  67.983 105.303  63.096
37040DG     SC440755  67.834 105.121  63.259
37041DC     BB140756  67.962 104.567  63.407
37041DC     BB240757  68.282 104.591  63.241
37041DC     BB340758  68.417 104.691  63.362
37041DC     SC140759  68.303 104.922  63.312
37041DC     SC240760  68.435 105.042  63.192
37041DC     SC340761  68.174 105.148  63.351
37042DA     BB140762  68.592 104.333  63.228
37042DA     BB240763  68.838 104.602  63.190
37042DA     BB340764  68.907 104.667  63.381
37042DA     SC140765  68.689 104.886  63.413
37042DA     SC240766  68.677 105.135  63.414
37042DA     SC340767  68.453 105.103  63.536
37042DA     SC440768  68.553 104.846  63.489
37043DC     BB140769  69.099 104.633  63.431
37043DC     BB240770  69.217 104.973  63.411
37043DC     BB340771  69.239 105.052  63.601
37043DC     SC140772  68.979 105.077  63.628
37043DC     SC240773  68.927 105.286  63.627
37043DC     SC340774  68.734 105.044  63.721
37044DT     BB140775  69.512 105.038  63.587
37044DT     BB240776  69.446 105.383  63.668
37044DT     BB340777  69.432 105.406  63.873
37044DT     SC140778  69.194 105.295  63.877
37044DT     SC240779  69.046 105.444  63.924
37044DT     SC340780  69.001 105.123  63.931
37045DT     BB140781  69.678 105.531  63.893
37045DT     BB240782  69.451 105.764  64.049
37045DT     BB340783  69.433 105.720  64.251
37045DT     SC140784  69.282 105.511  64.200
37045DT     SC240785  69.081 105.551  64.266
37045DT     SC340786  69.202 105.260  64.187
37046DA     BB140787  69.540 106.127  64.250
37046DA     BB240788  69.253 106.091  64.475
37046DA     BB340789  69.314 106.003  64.659
37046DA     SC140790  69.261 105.711  64.565
37046DA     SC240791  69.100 105.527  64.615
37046DA     SC340792  69.277 105.372  64.513
37046DA     SC440793  69.384 105.631  64.500
37047DT     BB140794  69.319 106.107  64.860
37047DT     BB240795  69.031 105.943  65.001
37047DT     BB340796  69.090 105.812  65.150
37047DT     SC140797  69.180 105.640  64.974
37047DT     SC240798  69.053 105.466  64.973
37047DT     SC340799  69.347 105.487  64.838
37048DT     BB140800  69.014 105.966  65.386
37048DT     BB240801  68.842 105.653  65.433
37048DT     BB340802  68.958 105.526  65.549
37048DT     SC140803  69.119 105.478  65.347
37048DT     SC240804  69.093 105.275  65.281
37048DT     SC340805  69.339 105.470  65.202
37049DA     BB140806  68.610 105.527  65.791
37049DA     BB240807  68.696 105.176  65.734
37049DA     BB340808  68.853 105.115  65.865
37049DA     SC140809  69.081 105.191  65.668
37049DA     SC240810  69.251 105.073  65.528
37049DA     SC340811  69.375 105.298  65.526
37049DA     SC440812  69.143 105.339  65.679
37050DT     BB140813  68.843 104.957  66.050
37050DT     BB240814  68.999 104.690  65.864
37050DT     BB340815  69.183 104.644  65.947
37050DT     SC140816  69.291 104.861  65.846
37050DT     SC240817  69.430 104.807  65.691
37050DT     SC340818  69.408 105.097  65.833
37051DA     BB140819  68.974 104.284  65.929
37051DA     BB240820  69.294 104.236  65.757
37051DA     BB340821  69.452 104.214  65.899
37051DA     SC140822  69.517 104.518  65.911
37051DA     SC240823  69.701 104.670  65.839
37051DA     SC340824  69.605 104.834  66.011
37051DA     SC440825  69.443 104.606  66.023
37052DT     BB140826  69.529 104.046  65.887
37052DT     BB240827  69.825 104.155  65.711
37052DT     BB340828  69.985 104.167  65.842
37052DT     SC140829  69.891 104.388  65.948
37052DT     SC240830  70.018 104.553  65.893
37052DT     SC340831  69.792 104.555  66.126
37053DG     BB140832  70.044 103.944  65.505
37053DG     BB240833  70.295 104.200  65.548
37053DG     BB340834  70.417 104.151  65.698
37053DG     SC140835  70.249 104.291  65.912
37053DG     SC240836  70.330 104.532  66.069
37053DG     SC340837  70.079 104.417  66.175
37053DG     SC440838  70.131 104.210  65.984
37054DT     BB140839  70.588 104.147  65.625
37054DT     BB240840  70.744 104.439  65.768
37054DT     BB340841  70.837 104.389  65.946
37054DT     SC140842  70.607 104.374  66.072
37054DT     SC240843  70.591 104.537  66.211
37054DT     SC340844  70.404 104.272  66.205
37055DG     BB140845  71.085 104.576  65.681
37055DG     BB240846  71.096 104.728  66.009
37055DG     BB340847  71.193 104.609  66.135
37055DG     SC140848  70.943 104.456  66.222
37055DG     SC240849  70.819 104.463  66.494
37055DG     SC340850  70.692 104.255  66.326
37055DG     SC440851  70.898 104.327  66.139
37056DG     BB140852  71.387 104.868  66.184
37056DG     BB240853  71.285 104.847  66.530
37056DG     BB340854  71.383 104.700  66.621
37056DG     SC140855  71.175 104.486  66.555
37056DG     SC240856  71.001 104.344  66.751
37056DG     SC340857  70.978 104.222  66.482
37056DG     SC440858  71.188 104.406  66.417
37057DT     BB140859  71.524 104.739  66.790
37057DT     BB240860  71.340 104.613  67.073
37057DT     BB340861  71.413 104.428  67.129
37057DT     SC140862  71.298 104.312  66.924
37057DT     SC240863  71.137 104.187  66.993
37057DT     SC340864  71.269 104.179  66.697
37058DA     BB140865  71.429 104.651  67.486
37058DA     BB240866  71.271 104.329  67.565
37058DA     BB340867  71.418 104.174  67.571
37058DA     SC140868  71.388 104.101  67.270
37058DA     SC240869  71.299 103.912  67.133
37058DA     SC340870  71.445 104.006  66.945
37058DA     SC440871  71.487 104.174  67.165
37059DT     BB140872  71.480 104.066  67.755
37059DT     BB240873  71.309 103.757  67.681
37059DT     BB340874  71.446 103.609  67.634
37059DT     SC140875  71.491 103.714  67.398
37059DT     SC240876  71.411 103.584  67.246
37059DT     SC340877  71.618 103.828  67.197
37060DA     BB140878  71.213 103.441  67.940
37060DA     BB240879  71.227 103.198  67.666
37060DA     BB340880  71.418 103.102  67.662
37060DA     SC140881  71.545 103.310  67.469
37060DA     SC240882  71.625 103.318  67.233
37060DA     SC340883  71.760 103.523  67.306
37060DA     SC440884  71.622 103.435  67.534
37061DC     BB140885  71.439 102.894  67.705
37061DC     BB240886  71.488 102.789  67.364
37061DC     BB340887  71.685 102.733  67.334
37061DC     SC140888  71.764 102.983  67.334
37061DC     SC240889  71.827 103.038  67.135
37061DC     SC340890  71.887 103.205  67.406
37062DA     BB140891  71.442 102.421  67.198
37062DA     BB240892  71.683 102.501  66.933
37062DA     BB340893  71.877 102.430  66.985
37062DA     SC140894  71.963 102.693  67.126
37062DA     SC240895  72.123 102.880  67.086
37062DA     SC340896  72.101 102.925  67.338
37062DA     SC440897  71.938 102.704  67.285
37063DA     BB140898  71.824 102.308  66.688
37063DA     BB240899  72.118 102.501  66.584
37063DA     BB340900  72.296 102.412  66.661
37063DA     SC140901  72.295 102.579  66.923
37063DA     SC240902  72.429 102.763  67.026
37063DA     SC340903  72.326 102.686  67.248
37063DA     SC440904  72.221 102.516  67.051
37064DT     BB140905  72.395 102.357  66.524
37064DT     BB240906  72.649 102.613  66.546
37064DT     BB340907  72.812 102.541  66.652
37064DT     SC140908  72.682 102.561  66.880
37064DT     SC240909  72.769 102.720  66.997
37064DT     SC340910  72.565 102.492  67.106
37065DT     BB140911  72.927 102.553  66.418
37065DT     BB240912  73.132 102.754  66.636
37065DT     BB340913  73.258 102.633  66.747
37065DT     SC140914  73.061 102.556  66.901
37065DT     SC240915  73.088 102.638  67.098
37065DT     SC340916  72.884 102.399  67.019
37066DA     BB140917  73.482 102.941  66.569
37066DA     BB240918  73.583 102.915  66.920
37066DA     BB340919  73.693 102.735  66.953
37066DA     SC140920  73.442 102.566  67.024
37066DA     SC240921  73.344 102.456  67.226
37066DA     SC340922  73.212 102.313  67.059
37066DA     SC440923  73.370 102.486  66.904
37067DA     BB140924  73.918 102.943  67.080
37067DA     BB240925  73.888 102.756  67.394
37067DA     BB340926  73.987 102.568  67.379
37067DA     SC140927  73.735 102.416  67.278
37067DA     SC240928  73.578 102.243  67.364
37067DA     SC340929  73.520 102.202  67.117
37067DA     SC440930  73.714 102.405  67.119
37068DT     BB140931  74.172 102.514  67.488
37068DT     BB240932  74.021 102.285  67.722
37068DT     BB340933  74.074 102.091  67.676
37068DT     SC140934  73.911 102.087  67.470
37068DT     SC240935  73.747 101.954  67.512
37068DT     SC340936  73.825 102.073  67.221
37069DT     BB140937  74.269 102.046  67.884
37069DT     BB240938  74.036 101.775  67.929
37069DT     BB340939  74.100 101.608  67.825
37069DT     SC140940  74.028 101.715  67.596
37069DT     SC240941  73.858 101.608  67.517
37069DT     SC340942  74.045 101.815  67.353
37070DA     BB140943  74.059 101.450  68.213
37070DA     BB240944  73.874 101.229  67.987
37070DA     BB340945  74.009 101.101  67.882
37070DA     SC140946  74.046 101.295  67.642
37070DA     SC240947  73.983 101.305  67.401
37070DA     SC340948  74.172 101.477  67.380
37070DA     SC440949  74.169 101.399  67.649
37071DG     BB140950  73.867 100.854  68.017
37071DG     BB240951  73.761 100.786  67.678
37071DG     BB340952  73.898 100.677  67.584
37071DG     SC140953  74.054 100.918  67.479
37071DG     SC240954  74.081 100.998  67.193
37071DG     SC340955  74.260 101.159  67.365
37071DG     SC440956  74.170 100.981  67.570
37072DT     BB140957  73.848 100.475  67.509
37072DT     BB240958  73.811 100.544  67.157
37072DT     BB340959  73.976 100.472  67.053
37072DT     SC140960  74.126 100.669  67.140
37072DT     SC240961  74.172 100.801  66.977
37072DT     SC340962  74.320 100.797  67.265
37073DA     BB140963  73.611 100.356  66.882
37073DA     BB240964  73.823 100.501  66.621
37073DA     BB340965  73.987 100.371  66.577
37073DA     SC140966  74.177 100.500  66.786
37073DA     SC240967  74.384 100.640  66.786
37073DA     SC340968  74.416 100.557  67.027
37073DA     SC440969  74.180 100.436  66.934
37074DT     BB140970  73.964 100.327  66.413
37074DT     BB240971  74.233 100.525  66.276
37074DT     BB340972  74.405 100.409  66.261
37074DT     SC140973  74.445 100.420  66.520
37074DT     SC240974  74.619 100.541  66.560
37074DT     SC340975  74.472 100.342  66.770
37075DT     BB140976  74.348 100.449  66.012
37075DT     BB240977  74.684 100.572  66.058
37075DT     BB340978  74.817 100.414  66.065
37075DT     SC140979  74.741 100.350  66.308
37075DT     SC240980  74.899 100.394  66.446
37075DT     SC340981  74.639 100.211  66.507
37076DT     BB140982  74.889 100.515  65.837
37076DT     BB240983  75.190 100.501  66.035
37076DT     BB340984  75.265 100.308  66.036
37076DT     SC140985  75.078 100.227  66.201
37076DT     SC240986  75.165 100.183  66.393
37076DT     SC340987  74.869 100.095  66.294
37077DG     BB140988  75.561 100.551  65.894
37077DG     BB240989  75.684 100.333  66.154
37077DG     BB340990  75.710 100.149  66.082
37077DG     SC140991  75.425 100.057  66.149
37077DG     SC240992  75.351  99.849  66.351
37077DG     SC340993  75.116  99.929  66.190
37077DG     SC440994  75.309 100.080  66.042
37078DT     BB140995  75.915 100.035  66.059
37078DT     BB240996  75.893  99.786  66.320
37078DT     BB340997  75.855  99.601  66.237
37078DT     SC140998  75.604  99.664  66.190
37078DT     SC240999  75.476  99.551  66.321
37078DT     SC341000  75.382  99.716  66.058
37079DG     BB141001  76.222  99.510  66.408
37079DG     BB241002  75.977  99.263  66.505
37079DG     BB341003  75.961  99.124  66.363
37079DG     SC141004  75.741  99.272  66.209
37079DG     SC241005  75.458  99.181  66.177
37079DG     SC341006  75.514  99.415  66.004
37079DG     SC441007  75.783  99.377  66.096
37080DT     BB141008  76.021  98.860  66.355
37080DT     BB241009  75.688  98.725  66.384
37080DT     BB341010  75.635  98.630  66.207
37080DT     SC141011  75.598  98.860  66.086
37080DT     SC241012  75.388  98.888  66.048
37080DT     SC341013  75.630  99.058  65.915
37081DT     BB141014  75.661  98.349  66.288
37081DT     BB241015  75.317  98.377  66.182
37081DT     BB341016  75.299  98.320  65.984
37081DT     SC141017  75.408  98.544  65.901
37081DT     SC241018  75.258  98.663  65.803
37081DT     SC341019  75.579  98.709  65.788
37082DC     BB141020  75.171  98.082  66.049
37082DC     BB241021  74.935  98.260  65.842
37082DC     BB341022  74.964  98.211  65.643
37082DC     SC141023  75.181  98.358  65.630
37082DC     SC241024  75.144  98.530  65.506
37082DC     SC341025  75.435  98.425  65.602
37083DG     BB141026  74.582  98.142  65.762
37083DG     BB241027  74.598  98.361  65.475
37083DG     BB341028  74.639  98.256  65.312
37083DG     SC141029  74.943  98.284  65.340
37083DG     SC241030  75.123  98.435  65.157
37083DG     SC341031  75.280  98.278  65.352
37083DG     SC441032  75.023  98.176  65.427
37084DT     BB141033  74.498  98.279  65.181
37084DT     BB241034  74.654  98.492  64.936
37084DT     BB341035  74.733  98.378  64.782
37084DT     SC141036  74.933  98.300  64.933
37084DT     SC241037  75.115  98.388  64.861
37084DT     SC341038  75.094  98.141  65.070
37085DT     BB141039  74.541  98.498  64.657
37085DT     BB241040  74.843  98.579  64.477
37085DT     BB341041  74.899  98.420  64.358
37085DT     SC141042  74.985  98.284  64.565
37085DT     SC241043  75.200  98.270  64.557
37085DT     SC341044  75.004  98.094  64.746
37086DC     BB141045  74.829  98.581  64.163
37086DC     BB241046  75.169  98.486  64.090
37086DC     BB341047  75.173  98.299  64.001
37086DC     SC141048  75.123  98.181  64.230
37086DC     SC241049  75.298  98.073  64.293
37086DC     SC341050  74.999  98.038  64.414
37087DA     BB141051  75.395  98.555  63.751
37087DA     BB241052  75.589  98.247  63.798
37087DA     BB341053  75.500  98.086  63.690
37087DA     SC141054  75.319  97.994  63.926
37087DA     SC241055  75.304  97.801  64.083
37087DA     SC341056  75.062  97.876  64.120
37087DA     SC441057  75.171  98.056  63.935
37088DT     BB141058  75.592  97.993  63.517
37088DT     BB241059  75.685  97.683  63.677
37088DT     BB341060  75.563  97.530  63.611
37088DT     SC141061  75.362  97.617  63.756
37088DT     SC241062  75.325  97.479  63.917
37088DT     SC341063  75.125  97.715  63.819
37089DT     BB141064  75.753  97.404  63.441
37089DT     BB241065  75.651  97.140  63.665
37089DT     BB341066  75.492  97.036  63.583
37089DT     SC141067  75.326  97.232  63.638
37089DT     SC241068  75.191  97.170  63.794
37089DT     SC341069  75.154  97.429  63.603
37090DT     BB141070  75.642  96.809  63.517
37090DT     BB241071  75.382  96.684  63.734
37090DT     BB341072  75.217  96.628  63.622
37090DT     SC141073  75.149  96.878  63.582
37090DT     SC241074  74.969  96.922  63.690
37090DT     SC341075  75.099  97.105  63.456
37091DT     BB141076  75.271  96.366  63.670
37091DT     BB241077  74.940  96.419  63.803
37091DT     BB341078  74.799  96.392  63.653
37091DT     SC141079  74.859  96.622  63.544
37091DT     SC241080  74.696  96.760  63.571
37091DT     SC341081  74.944  96.798  63.366
37092DA     BB141082  74.703  96.176  64.000
37092DA     BB241083  74.410  96.371  63.898
37092DA     BB341084  74.326  96.291  63.719
37092DA     SC141085  74.497  96.471  63.531
37092DA     SC241086  74.460  96.663  63.376
37092DA     SC341087  74.684  96.596  63.271
37092DA     SC441088  74.637  96.412  63.478
37093DT     BB141089  74.164  96.235  63.757
37093DT     BB241090  73.985  96.500  63.590
37093DT     BB341091  73.931  96.440  63.400
37093DT     SC141092  74.178  96.468  63.313
37093DT     SC241093  74.188  96.635  63.178
37093DT     SC341094  74.414  96.406  63.214
37094DA     BB141095  73.612  96.614  63.615
37094DA     BB241096  73.627  96.765  63.281
37094DA     BB341097  73.574  96.621  63.132
37094DA     SC141098  73.866  96.523  63.088
37094DA     SC241099  74.040  96.536  62.909
37094DA     SC341100  74.147  96.335  63.028
37094DA     SC441101  73.916  96.398  63.175
37095DA     BB141102  73.380  96.878  63.066
37095DA     BB241103  73.538  96.880  62.735
37095DA     BB341104  73.476  96.709  62.623
37095DA     SC141105  73.711  96.530  62.721
37095DA     SC241106  73.918  96.428  62.625
37095DA     SC341107  73.907  96.267  62.825
37095DA     SC441108  73.686  96.439  62.851
37096DT     BB141109  73.369  96.745  62.466
37096DT     BB241110  73.620  96.668  62.219
37096DT     BB341111  73.588  96.479  62.142
37096DT     SC141112  73.679  96.366  62.360
37096DT     SC241113  73.868  96.271  62.318
37096DT     SC341114  73.685  96.222  62.581
37097DT     BB141115  73.499  96.583  61.905
37097DT     BB241116  73.770  96.364  61.811
37097DT     BB341117  73.700  96.171  61.786
37097DT     SC141118  73.680  96.137  62.046
37097DT     SC241119  73.828  95.996  62.111
37097DT     SC341120  73.572  96.095  62.283
37098DA     BB141121  73.901  96.257  61.427
37098DA     BB241122  74.024  95.934  61.549
37098DA     BB341123  73.878  95.782  61.516
37098DA     SC141124  73.741  95.821  61.793
37098DA     SC241125  73.719  95.694  62.007
37098DA     SC341126  73.515  95.844  62.051
37098DA     SC441127  73.617  95.922  61.801
37099DT     BB141128  73.914  95.626  61.382
37099DT     BB241129  73.979  95.374  61.631
37099DT     BB341130  73.819  95.242  61.642
37099DT     SC141131  73.673  95.419  61.769
37099DT     SC241132  73.644  95.355  61.972
37099DT     SC341133  73.476  95.587  61.821
37100DT     BB141134  73.977  95.059  61.529
37100DT     BB241135  73.880  94.918  61.846
37100DT     BB341136  73.695  94.825  61.829
37100DT     SC141137  73.571  95.056  61.822
37100DT     SC241138  73.458  95.082  62.004
37100DT     SC341139  73.424  95.257  61.733
37101DA     BB141140  73.971  94.568  62.011
37101DA     BB241141  73.668  94.576  62.217
37101DA     BB341142  73.510  94.471  62.119
37101DA     SC141143  73.401  94.723  61.972
37101DA     SC241144  73.201  94.871  61.981
37101DA     SC341145  73.266  94.941  61.743
37101DA     SC441146  73.458  94.753  61.824
37102DA     BB141147  73.526  94.345  62.419
37102DA     BB241148  73.180  94.460  62.457
37102DA     BB341149  73.049  94.343  62.336
37102DA     SC141150  73.071  94.530  62.089
37102DA     SC241151  72.925  94.690  61.965
37102DA     SC341152  73.090  94.658  61.771
37102DA     SC441153  73.183  94.496  61.980
37103DC     BB141154  72.932  94.249  62.440
37103DC     BB241155  72.637  94.443  62.366
37103DC     BB341156  72.526  94.349  62.218
37103DC     SC141157  72.696  94.421  62.033
37103DC     SC241158  72.604  94.568  61.905
37103DC     SC341159  72.877  94.404  61.841
37104DC     BB141160  72.350  94.296  62.410
37104DC     BB241161  72.162  94.472  62.157
37104DC     BB341162  72.102  94.340  62.009
37104DC     SC141163  72.345  94.329  61.910
37104DC     SC241164  72.348  94.427  61.719
37104DC     SC341165  72.579  94.232  61.836
37105DT     BB141166  71.849  94.358  62.100
37105DT     BB241167  71.826  94.448  61.752
37105DT     BB341168  71.808  94.278  61.636
37105DT     SC141169  72.061  94.218  61.668
37105DT     SC241170  72.165  94.244  61.482
37105DT     SC341171  72.278  94.087  61.742
37106DT     BB141172  71.543  94.329  61.585
37106DT     BB241173  71.691  94.300  61.258
37106DT     BB341174  71.690  94.102  61.197
37106DT     SC141175  71.887  94.043  61.360
37106DT     SC241176  72.064  94.000  61.246
37106DT     SC341177  72.020  93.932  61.560
37107DT     BB141178  71.487  94.142  61.014
37107DT     BB241179  71.756  94.003  60.818
37107DT     BB341180  71.744  93.796  60.818
37107DT     SC141181  71.833  93.783  61.065
37107DT     SC241182  72.031  93.698  61.064
37107DT     SC341183  71.840  93.736  61.324
37108DC     BB141184  71.658  93.789  60.557
37108DC     BB241185  71.956  93.586  60.558
37108DC     BB341186  71.907  93.390  60.604
37108DC     SC141187  71.872  93.450  60.857
37108DC     SC241188  72.029  93.361  60.975
37108DC     SC341189  71.752  93.484  61.090
37109DT     BB141190  71.953  93.313  60.346
37109DT     BB241191  72.176  93.108  60.543
37109DT     BB341192  72.078  92.936  60.605
37109DT     SC141193  71.941  93.069  60.785
37109DT     SC241194  72.008  93.013  60.981
37109DT     SC341195  71.735  93.175  60.912
37110DA     BB141196  72.442  92.829  60.426
37110DA     BB241197  72.418  92.658  60.750
37110DA     BB341198  72.274  92.502  60.740
37110DA     SC141199  72.037  92.681  60.832
37110DA     SC241200  71.890  92.706  61.032
37110DA     SC341201  71.729  92.828  60.874
37110DA     SC441202  71.949  92.753  60.717
37111DT     BB141203  72.346  92.326  60.762
37111DT     BB241204  72.226  92.269  61.097
37111DT     BB341205  72.058  92.147  61.092
37111DT     SC141206  71.908  92.343  61.004
37111DT     SC241207  71.770  92.402  61.158
37111DT     SC341208  71.751  92.484  60.845
37112DA     BB141209  72.336  91.999  61.370
37112DA     BB241210  72.007  92.010  61.531
37112DA     BB341211  71.879  91.860  61.449
37112DA     SC141212  71.764  92.045  61.227
37112DA     SC241213  71.547  92.156  61.173
37112DA     SC341214  71.638  92.171  60.933
37112DA     SC441215  71.837  92.044  61.084
37113DG     BB141216  71.877  91.771  61.745
37113DG     BB241217  71.526  91.852  61.717
37113DG     BB341218  71.429  91.704  61.626
37113DG     SC141219  71.470  91.817  61.345
37113DG     SC241220  71.255  91.922  61.165
37113DG     SC341221  71.513  91.902  61.022
37113DG     SC441222  71.602  91.778  61.264
37114DA     BB141223  71.213  91.715  61.897
37114DA     BB241224  70.933  91.783  61.670
37114DA     BB341225  70.878  91.605  61.565
37114DA     SC141226  71.070  91.658  61.326
37114DA     SC241227  71.052  91.719  61.084
37114DA     SC341228  71.290  91.626  61.064
37114DA     SC441229  71.217  91.595  61.333
37115DT     BB141230  70.698  91.525  61.602
37115DT     BB241231  70.541  91.623  61.292
37115DT     BB341232  70.526  91.460  61.165
37115DT     SC141233  70.783  91.469  61.111
37115DT     SC241234  70.810  91.532  60.907
37115DT     SC341235  71.036  91.398  61.096
37116DT     BB141236  70.257  91.447  61.205
37116DT     BB241237  70.294  91.481  60.848
37116DT     BB341238  70.318  91.294  60.762
37116DT     SC141239  70.565  91.278  60.848
37116DT     SC241240  70.700  91.291  60.681
37116DT     SC341241  70.777  91.192  60.980
37117DT     BB141242  70.067  91.306  60.657
37117DT     BB241243  70.282  91.257  60.372
37117DT     BB341244  70.316  91.055  60.342
37117DT     SC141245  70.480  91.044  60.546
37117DT     SC241246  70.680  91.013  60.475
37117DT     SC341247  70.580  90.978  60.781
37118DT     BB141248  70.158  91.063  60.122
37118DT     BB241249  70.476  90.941  60.003
37118DT     BB341250  70.486  90.735  60.027
37118DT     SC141251  70.521  90.759  60.286
37118DT     SC241252  70.722  90.700  60.336
37118DT     SC341253  70.478  90.738  60.545
37119DT     BB141254  70.466  90.713  59.760
37119DT     BB241255  70.775  90.546  59.845
37119DT     BB341256  70.737  90.350  59.899
37119DT     SC141257  70.641  90.425  60.131
37119DT     SC241258  70.776  90.364  60.287
37119DT     SC341259  70.470  90.462  60.329
37120DA     BB141260  71.043  90.364  59.611
37120DA     BB241261  71.154  90.152  59.889
37120DA     BB341262  71.045  89.968  59.890
37120DA     SC141263  70.821  90.075  60.077
37120DA     SC241264  70.743  90.038  60.311
37120DA     SC341265  70.521  90.139  60.231
37120DA     SC441266  70.690  90.138  60.008
37121DT     BB141267  71.145  89.794  59.850
37121DT     BB241268  71.146  89.665  60.187
37121DT     BB341269  71.009  89.511  60.204
37121DT     SC141270  70.808  89.679  60.203
37121DT     SC241271  70.717  89.683  60.399
37121DT     SC341272  70.588  89.803  60.126
37122DA     BB141273  71.370  89.354  60.348
37122DA     BB241274  71.110  89.273  60.594
37122DA     BB341275  70.987  89.114  60.522
37122DA     SC141276  70.782  89.302  60.384
37122DA     SC241277  70.545  89.373  60.417
37122DA     SC341278  70.552  89.443  60.171
37122DA     SC441279  70.806  89.338  60.229
37123DA     BB141280  71.067  88.969  60.807
37123DA     BB241281  70.709  88.970  60.890
37123DA     BB341282  70.609  88.813  60.786
37123DA     SC141283  70.540  88.988  60.538
37123DA     SC241284  70.337  89.088  60.433
37123DA     SC341285  70.479  89.102  60.220
37123DA     SC441286  70.644  88.987  60.415
37124DA     BB141287  70.507  88.727  61.087
37124DA     BB241288  70.164  88.785  60.972
37124DA     BB341289  70.096  88.621  60.854
37124DA     SC141290  70.195  88.741  60.585
37124DA     SC241291  70.094  88.837  60.377
37124DA     SC341292  70.321  88.787  60.268
37124DA     SC441293  70.342  88.701  60.535
37125DA     BB141294  69.853  88.631  61.071
37125DA     BB241295  69.628  88.697  60.789
37125DA     BB341296  69.592  88.518  60.679
37125DA     SC141297  69.830  88.559  60.484
37125DA     SC241298  69.864  88.613  60.243
37125DA     SC341299  70.099  88.514  60.275
37125DA     SC441300  69.971  88.493  60.524
37126DG     BB141301  69.301  88.583  60.759
37126DG     BB241302  69.260  88.618  60.401
37126DG     BB341303  69.236  88.439  60.318
37126DG     SC141304  69.535  88.393  60.271
37126DG     SC241305  69.671  88.377  60.006
37126DG     SC341306  69.856  88.301  60.224
37126DG     SC441307  69.622  88.325  60.387
37127DA     BB141308  68.964  88.591  60.173
37127DA     BB241309  69.097  88.512  59.841
37127DA     BB341310  69.075  88.304  59.800
37127DA     SC141311  69.353  88.226  59.917
37127DA     SC241312  69.573  88.146  59.832
37127DA     SC341313  69.614  88.067  60.072
37127DA     SC441314  69.359  88.183  60.071
37128DA     BB141315  68.938  88.437  59.534
37128DA     BB241316  69.186  88.253  59.337
37128DA     BB341317  69.140  88.045  59.335
37128DA     SC141318  69.310  87.980  59.587
37128DA     SC241319  69.520  87.858  59.641
37128DA     SC341320  69.430  87.849  59.881
37128DA     SC441321  69.235  87.983  59.729
37129DA     BB141322  69.160  88.089  59.008
37129DA     BB241323  69.422  87.833  59.005
37129DA     BB341324  69.337  87.639  59.030
37129DA     SC141325  69.360  87.642  59.341
37129DA     SC241326  69.493  87.527  59.517
37129DA     SC341327  69.307  87.600  59.677
37129DA     SC441328  69.233  87.696  59.424
37130DC     BB141329  69.334  87.490  58.874
37130DC     BB241330  69.581  87.267  59.015
37130DC     BB341331  69.489  87.097  59.087
37130DC     SC141332  69.396  87.226  59.296
37130DC     SC241333  69.497  87.158  59.473
37130DC     SC341334  69.224  87.333  59.465
37131DA     BB141335  69.765  86.916  58.824
37131DA     BB241336  69.792  86.734  59.141
37131DA     BB341337  69.632  86.594  59.160
37131DA     SC141338  69.442  86.793  59.304
37131DA     SC241339  69.345  86.824  59.532
37131DA     SC341340  69.169  86.969  59.415
37131DA     SC441341  69.341  86.879  59.213
37132DT     BB141342  69.646  86.359  59.155
37132DT     BB241343  69.599  86.309  59.509
37132DT     BB341344  69.417  86.215  59.543
37132DT     SC141345  69.285  86.436  59.493
37132DT     SC241346  69.197  86.510  59.675
37132DT     SC341347  69.121  86.606  59.375
37133DC     BB141348  69.527  85.963  59.607
37133DC     BB241349  69.331  86.046  59.898
37133DC     BB341350  69.140  85.969  59.879
37133DC     SC141351  69.075  86.154  59.704
37133DC     SC241352  68.932  86.289  59.793
37133DC     SC341353  69.001  86.266  59.477
37134DT     BB141354  69.189  85.775  60.068
37134DT     BB241355  68.901  85.952  60.196
37134DT     BB341356  68.728  85.866  60.124
37134DT     SC141357  68.765  85.971  59.886
37134DT     SC241358  68.617  86.123  59.852
37134DT     SC341359  68.807  85.989  59.627
37135DA     BB141360  68.691  85.895  60.540
37135DA     BB241361  68.383  86.028  60.392
37135DA     BB341362  68.262  85.869  60.316
37135DA     SC141363  68.388  85.876  60.031
37135DA     SC241364  68.319  85.941  59.801
37135DA     SC341365  68.515  85.795  59.723
37135DA     SC441366  68.513  85.780  60.003
37136DG     BB141367  68.048  85.971  60.519
37136DG     BB241368  67.856  86.037  60.220
37136DG     BB341369  67.765  85.870  60.160
37136DG     SC141370  67.996  85.778  59.982
37136DG     SC241371  67.992  85.757  59.684
37136DG     SC341372  68.238  85.636  59.794
37136DG     SC441373  68.112  85.688  60.046
37137DC     BB141374  67.528  85.833  60.153
37137DC     BB241375  67.464  85.846  59.798
37137DC     BB341376  67.423  85.656  59.726
37137DC     SC141377  67.677  85.589  59.741
37137DC     SC241378  67.756  85.567  59.542
37137DC     SC341379  67.896  85.463  59.816
37138DA     BB141380  67.076  85.859  59.598
37138DA     BB241381  67.201  85.673  59.308
37138DA     BB341382  67.147  85.467  59.323
37138DA     SC141383  67.407  85.384  59.473
37138DA     SC241384  67.613  85.252  59.427
37138DA     SC341385  67.636  85.237  59.682
37138DA     SC441386  67.403  85.385  59.634
37139DT     BB141387  66.986  85.334  59.188
37139DT     BB241388  67.236  85.158  58.997
37139DT     BB341389  67.230  84.956  59.042
37139DT     SC141390  67.345  84.995  59.274
37139DT     SC241391  67.544  84.913  59.270
37139DT     SC341392  67.381  85.003  59.535
37140DT     BB141393  67.103  84.861  58.798
37140DT     BB241394  67.416  84.680  58.809
37140DT     BB341395  67.388  84.496  58.898
37140DT     SC141396  67.370  84.604  59.136
37140DT     SC241397  67.543  84.551  59.252
37140DT     SC341398  67.269  84.678  59.368
37141DA     BB141399  67.579  84.436  58.533
37141DA     BB241400  67.774  84.265  58.792
37141DA     BB341401  67.676  84.085  58.853
37141DA     SC141402  67.515  84.222  59.081
37141DA     SC241403  67.511  84.221  59.330
37141DA     SC341404  67.272  84.312  59.307
37141DA     SC441405  67.368  84.276  59.045
37142DC     BB141406  67.780  83.941  58.811
37142DC     BB241407  67.891  83.872  59.147
37142DC     BB341408  67.780  83.717  59.228
37142DC     SC141409  67.572  83.873  59.262
37142DC     SC241410  67.542  83.906  59.473
37142DC     SC341411  67.329  83.971  59.237
37143DT     BB141412  68.011  83.599  59.207
37143DT     BB241413  67.922  83.579  59.556
37143DT     BB341414  67.786  83.426  59.586
37143DT     SC141415  67.592  83.566  59.480
37143DT     SC241416  67.451  83.621  59.634
37143DT     SC341417  67.400  83.639  59.314
37144DT     BB141418  67.989  83.313  59.709
37144DT     BB241419  67.722  83.318  59.952
37144DT     BB341420  67.593  83.160  59.919
37144DT     SC141421  67.489  83.278  59.709
37144DT     SC241422  67.287  83.337  59.754
37144DT     SC341423  67.420  83.325  59.459
37145DC     BB141424  67.691  83.047  60.141
37145DC     BB241425  67.335  83.058  60.195
37145DC     BB341426  67.245  82.893  60.107
37145DC     SC141427  67.275  82.995  59.867
37145DC     SC241428  67.082  83.049  59.788
37145DC     SC341429  67.357  83.023  59.618
37146DC     BB141430  67.199  82.766  60.350
37146DC     BB241431  66.873  82.776  60.196
37146DC     BB341432  66.844  82.607  60.080
37146DC     SC141433  67.004  82.699  59.893
37146DC     SC241434  66.889  82.749  59.718
37146DC     SC341435  67.211  82.718  59.731
37147DT     BB141436  66.667  82.476  60.258
37147DT     BB241437  66.482  82.488  59.948
37147DT     BB341438  66.518  82.317  59.838
37147DT     SC141439  66.758  82.401  59.771
37147DT     SC241440  66.760  82.448  59.561
37147DT     SC341441  67.020  82.411  59.751
37148DG     BB141442  66.112  82.296  59.894
37148DG     BB241443  66.194  82.268  59.543
37148DG     BB341444  66.245  82.081  59.499
37148DG     SC141445  66.542  82.122  59.558
37148DG     SC241446  66.764  82.113  59.358
37148DG     SC341447  66.871  82.126  59.633
37148DG     SC441448  66.596  82.099  59.707
37149DT     BB141449  66.126  81.941  59.352
37149DT     BB241450  66.343  81.954  59.064
37149DT     BB341451  66.441  81.773  59.041
37149DT     SC141452  66.602  81.827  59.242
37149DT     SC241453  66.801  81.860  59.167
37149DT     SC341454  66.721  81.808  59.476
37150DT     BB141455  66.288  81.726  58.825
37150DT     BB241456  66.627  81.715  58.703
37150DT     BB341457  66.705  81.525  58.729
37150DT     SC141458  66.733  81.563  58.987
37150DT     SC241459  66.943  81.575  59.035
37150DT     SC341460  66.701  81.533  59.247
37151DT     BB141461  66.692  81.512  58.466
37151DT     BB241462  67.039  81.457  58.547
37151DT     BB341463  67.069  81.259  58.600
37151DT     SC141464  66.956  81.296  58.833
37151DT     SC241465  67.105  81.283  58.988
37151DT     SC341466  66.784  81.273  59.032
37152DT     BB141467  67.199  81.238  58.370
37152DT     BB241468  67.437  81.140  58.622
37152DT     BB341469  67.409  80.941  58.672
37152DT     SC141470  67.192  80.997  58.809
37152DT     SC241471  67.231  80.968  59.019
37152DT     SC341472  66.939  81.002  58.882
37153DA     BB141473  67.814  81.012  58.586
37153DA     BB241474  67.792  80.830  58.904
37153DA     BB341475  67.732  80.629  58.871
37153DA     SC141476  67.428  80.689  58.898
37153DA     SC241477  67.244  80.641  59.060
37153DA     SC341478  67.086  80.692  58.864
37153DA     SC441479  67.347  80.724  58.764
37154DG     BB141480  68.004  80.584  59.008
37154DG     BB241481  67.794  80.435  59.263
37154DG     BB341482  67.740  80.252  59.208
37154DG     SC141483  67.487  80.343  59.062
37154DG     SC241484  67.206  80.283  59.145
37154DG     SC341485  67.213  80.410  58.878
37154DG     SC441486  67.496  80.384  58.908
37155DA     BB141487  67.854  80.182  59.524
37155DA     BB241488  67.523  80.049  59.608
37155DA     BB341489  67.492  79.862  59.511
37155DA     SC141490  67.363  79.989  59.257
37155DA     SC241491  67.137  80.000  59.151
37155DA     SC341492  67.264  80.061  58.936
37155DA     SC441493  67.460  80.024  59.134
37156DA     BB141494  67.422  79.823  59.827
37156DA     BB241495  67.088  79.726  59.712
37156DA     BB341496  67.097  79.540  59.607
37156DA     SC141497  67.141  79.672  59.329
37156DA     SC241498  67.014  79.702  59.116
37156DA     SC341499  67.243  79.744  59.009
37156DA     SC441500  67.293  79.693  59.280
37157DT     BB141501  67.001  79.438  59.701
37157DT     BB241502  66.724  79.407  59.472
37157DT     BB341503  66.754  79.245  59.347
37157DT     SC141504  66.934  79.376  59.208
37157DT     SC241505  66.855  79.419  59.012
37157DT     SC341506  67.166  79.441  59.102
37158DA     BB141507  66.365  79.242  59.513
37158DA     BB241508  66.340  79.165  59.155
37158DA     BB341509  66.428  78.975  59.114
37158DA     SC141510  66.711  79.090  59.058
37158DA     SC241511  66.862  79.121  58.862
37158DA     SC341512  67.050  79.140  59.035
37158DA     SC441513  66.814  79.098  59.181
37159DG     BB141514  66.141  78.899  59.008
37159DG     BB241515  66.317  78.841  58.697
37159DG     BB341516  66.410  78.665  58.704
37159DG     SC141517  66.669  78.780  58.821
37159DG     SC241518  66.934  78.792  58.683
37159DG     SC341519  66.960  78.868  58.967
37159DG     SC441520  66.685  78.791  58.980
37160DG     BB141521  66.254  78.495  58.441
37160DG     BB241522  66.579  78.463  58.284
37160DG     BB341523  66.669  78.298  58.350
37160DG     SC141524  66.805  78.437  58.586
37160DG     SC241525  67.099  78.481  58.619
37160DG     SC341526  66.953  78.553  58.866
37160DG     SC441527  66.728  78.446  58.726
37161DT     BB141528  66.749  78.031  58.245
37161DT     BB241529  67.105  78.081  58.217
37161DT     BB341530  67.205  77.957  58.349
37161DT     SC141531  67.137  78.106  58.553
37161DT     SC241532  67.312  78.206  58.630
37161DT     SC341533  67.026  78.180  58.781
37162DT     BB141534  67.315  77.720  58.182
37162DT     BB241535  67.612  77.847  58.343
37162DT     BB341536  67.656  77.733  58.510
37162DT     SC141537  67.460  77.843  58.646
37162DT     SC241538  67.542  77.969  58.800
37162DT     SC341539  67.234  77.868  58.780
37163DG     BB141540  68.001  77.657  58.295
37163DG     BB241541  68.083  77.787  58.623
37163DG     BB341542  68.087  77.639  58.755
37163DG     SC141543  67.791  77.662  58.828
37163DG     SC241544  67.681  77.748  59.092
37163DG     SC341545  67.466  77.646  58.917
37163DG     SC441546  67.684  77.579  58.743
37164DA     BB141547  68.410  77.732  58.854
37164DA     BB241548  68.287  77.808  59.191
37164DA     BB341549  68.272  77.629  59.307
37164DA     SC141550  67.977  77.572  59.226
37164DA     SC241551  67.753  77.574  59.334
37164DA     SC341552  67.681  77.422  59.139
37164DA     SC441553  67.953  77.478  59.098
37165DA     BB141554  68.460  77.805  59.509
37165DA     BB241555  68.183  77.785  59.749
37165DA     BB341556  68.178  77.593  59.841
37165DA     SC141557  67.987  77.470  59.629
37165DA     SC241558  67.751  77.390  59.617
37165DA     SC341559  67.826  77.259  59.410
37165DA     SC441560  68.053  77.395  59.503
37166DA     BB141561  68.184  77.784  60.106
37166DA     BB241562  67.856  77.643  60.189
37166DA     BB341563  67.877  77.445  60.265
37166DA     SC141564  67.851  77.309  59.987
37166DA     SC241565  67.686  77.166  59.866
37166DA     SC341566  67.884  77.101  59.715
37166DA     SC441567  67.987  77.280  59.906
37167DA     BB141568  67.701  77.591  60.497
37167DA     BB241569  67.439  77.346  60.418
37167DA     BB341570  67.492  77.154  60.494
37167DA     SC141571  67.637  77.064  60.234
37167DA     SC241572  67.601  76.900  60.050
37167DA     SC341573  67.853  76.923  60.007
37167DA     SC441574  67.796  77.091  60.225
37168DG     BB141575  67.227  77.206  60.639
37168DG     BB241576  67.120  76.924  60.439
37168DG     BB341577  67.183  76.755  60.522
37168DG     SC141578  67.450  76.751  60.372
37168DG     SC241579  67.531  76.553  60.164
37168DG     SC341580  67.759  76.726  60.239
37168DG     SC441581  67.576  76.826  60.435
37169DG     BB141582  66.869  76.690  60.511
37169DG     BB241583  66.963  76.419  60.290
37169DG     BB341584  67.035  76.267  60.396
37169DG     SC141585  67.325  76.366  60.386
37169DG     SC241586  67.551  76.232  60.244
37169DG     SC341587  67.649  76.455  60.413
37169DG     SC441588  67.376  76.466  60.500
37170DT     BB141589  66.929  76.117  60.357
37170DT     BB241590  67.149  75.915  60.155
37170DT     BB341591  67.253  75.782  60.275
37170DT     SC141592  67.409  75.973  60.365
37170DT     SC241593  67.608  75.945  60.288
37170DT     SC341594  67.525  76.141  60.532
37171DA     BB141595  67.083  75.603  59.934
37171DA     BB241596  67.429  75.488  59.967
37171DA     BB341597  67.450  75.363  60.138
37171DA     SC141598  67.522  75.597  60.331
37171DA     SC241599  67.721  75.678  60.456
37171DA     SC341600  67.552  75.805  60.602
37171DA     SC441601  67.401  75.666  60.411
37172DC     BB141602  67.494  75.191  60.091
37172DC     BB241603  67.835  75.192  60.209
37172DC     BB341604  67.845  75.104  60.396
37172DC     SC141605  67.739  75.316  60.510
37172DC     SC241606  67.888  75.415  60.629
37172DC     SC341607  67.569  75.467  60.643
37173DA     BB141608  68.133  74.918  60.154
37173DA     BB241609  68.292  75.002  60.474
37173DA     BB341610  68.221  74.873  60.628
37173DA     SC141611  67.986  75.060  60.710
37173DA     SC241612  67.924  75.205  60.903
37173DA     SC341613  67.684  75.186  60.813
37173DA     SC441614  67.844  75.035  60.639
37174DC     BB141615  68.349  74.738  60.716
37174DC     BB241616  68.385  74.907  61.033
37174DC     BB341617  68.278  74.808  61.179
37174DC     SC141618  68.050  74.899  61.085
37174DC     SC241619  67.967  75.041  61.224
37174DC     SC341620  67.810  74.903  60.976
37175DT     BB141621  68.508  74.715  61.291
37175DT     BB241622  68.340  74.886  61.561
37175DT     BB341623  68.209  74.757  61.656
37175DT     SC141624  68.038  74.770  61.458
37175DT     SC241625  67.863  74.877  61.522
37175DT     SC341626  67.888  74.696  61.255
37176DA     BB141627  68.450  74.931  61.952
37176DA     BB241628  68.101  74.955  62.063
37176DA     BB341629  68.030  74.763  62.124
37176DA     SC141630  67.922  74.687  61.842
37176DA     SC241631  67.701  74.654  61.732
37176DA     SC341632  67.832  74.520  61.556
37176DA     SC441633  68.021  74.606  61.744
37177DA     BB141634  67.954  74.932  62.396
37177DA     BB241635  67.605  74.835  62.338
37177DA     BB341636  67.576  74.630  62.388
37177DA     SC141637  67.640  74.526  62.102
37177DA     SC241638  67.517  74.421  61.912
37177DA     SC341639  67.747  74.342  61.833
37177DA     SC441640  67.792  74.484  62.070
37178DA     BB141641  67.333  74.747  62.581
37178DA     BB241642  67.100  74.538  62.390
37178DA     BB341643  67.119  74.334  62.448
37178DA     SC141644  67.336  74.268  62.235
37178DA     SC241645  67.353  74.134  62.025
37178DA     SC341646  67.607  74.142  62.065
37178DA     SC441647  67.490  74.283  62.278
37179DT     BB141648  66.965  74.209  62.564
37179DT     BB241649  66.858  74.001  62.290
37179DT     BB341650  66.926  73.807  62.318
37179DT     SC141651  67.171  73.874  62.253
37179DT     SC241652  67.222  73.786  62.064
37179DT     SC341653  67.430  73.917  62.274
37180DA     BB141654  66.511  73.712  62.290
37180DA     BB241655  66.685  73.481  62.064
37180DA     BB341656  66.769  73.319  62.175
37180DA     SC141657  67.042  73.460  62.220
37180DA     SC241658  67.278  73.435  62.143
37180DA     SC341659  67.339  73.574  62.351
37180DA     SC441660  67.060  73.546  62.355
37181DT     BB141661  66.709  73.074  62.182
37181DT     BB241662  66.987  72.966  61.979
37181DT     BB341663  67.115  72.848  62.091
37181DT     SC141664  67.209  73.058  62.219
37181DT     SC241665  67.413  73.093  62.159
37181DT     SC341666  67.265  73.223  62.416
37182DT     BB141667  67.045  72.597  61.975
37182DT     BB241668  67.399  72.627  61.913
37182DT     BB341669  67.506  72.538  62.067
37182DT     SC141670  67.454  72.738  62.229
37182DT     SC241671  67.635  72.848  62.267
37182DT     SC341672  67.359  72.871  62.436
37183DA     BB141673  67.647  72.377  61.707
37183DA     BB241674  67.935  72.500  61.897
37183DA     BB341675  67.979  72.368  62.059
37183DA     SC141676  67.797  72.518  62.262
37183DA     SC241677  67.825  72.659  62.466
37183DA     SC341678  67.581  72.598  62.517
37183DA     SC441679  67.645  72.467  62.277
37184DT     BB141680  68.147  72.287  62.041
37184DT     BB241681  68.315  72.490  62.288
37184DT     BB341682  68.333  72.385  62.465
37184DT     SC141683  68.079  72.417  62.520
37184DT     SC241684  68.059  72.551  62.688
37184DT     SC341685  67.826  72.359  62.568
37185DT     BB141686  68.587  72.390  62.400
37185DT     BB241687  68.564  72.553  62.721
37185DT     BB341688  68.555  72.412  62.872
37185DT     SC141689  68.306  72.355  62.814
37185DT     SC241690  68.178  72.424  62.972
37185DT     SC341691  68.094  72.217  62.738
37186DT     BB141692  68.789  72.512  62.921
37186DT     BB241693  68.597  72.558  63.223
37186DT     BB341694  68.589  72.381  63.329
37186DT     SC141695  68.416  72.279  63.160
37186DT     SC241696  68.224  72.260  63.257
37186DT     SC341697  68.311  72.119  62.978
37187DC     BB141698  68.741  72.513  63.495
37187DC     BB241699  68.455  72.408  63.689
37187DC     BB341700  68.477  72.211  63.746
37187DC     SC141701  68.422  72.126  63.504
37187DC     SC241702  68.231  72.028  63.504
37187DC     SC341703  68.453  72.011  63.269
37188DC     BB141704  68.506  72.314  63.986
37188DC     BB241705  68.233  72.081  64.015
37188DC     BB341706  68.306  71.888  64.035
37188DC     SC141707  68.370  71.877  63.781
37188DC     SC241708  68.240  71.738  63.681
37188DC     SC341709  68.516  71.859  63.562
37189DT     BB141710  68.224  71.899  64.288
37189DT     BB241711  68.062  71.608  64.151
37189DT     BB341712  68.191  71.446  64.157
37189DT     SC141713  68.331  71.539  63.956
37189DT     SC241714  68.301  71.415  63.784
37189DT     SC341715  68.535  71.636  63.819
37190DT     BB141716  68.041  71.341  64.354
37190DT     BB241717  68.050  71.085  64.101
37190DT     BB341718  68.222  70.970  64.122
37190DT     SC141719  68.371  71.162  64.022
37190DT     SC241720  68.444  71.102  63.829
37190DT     SC341721  68.556  71.349  64.005
37191DA     BB141722  67.910  70.688  64.120
37191DA     BB241723  68.167  70.569  63.886
37191DA     BB341724  68.333  70.490  63.993
37191DA     SC141725  68.486  70.761  64.004
37191DA     SC241726  68.691  70.862  63.903
37191DA     SC341727  68.679  71.029  64.097
37191DA     SC441728  68.463  70.855  64.132
37192DT     BB141729  68.389  70.277  63.995
37192DT     BB241730  68.678  70.306  63.781
37192DT     BB341731  68.851  70.279  63.891
37192DT     SC141732  68.829  70.518  63.998
37192DT     SC241733  68.985  70.645  63.922
37192DT     SC341734  68.798  70.706  64.180
37193DA     BB141735  68.896  69.993  63.586
37193DA     BB241736  69.208  70.184  63.601
37193DA     BB341737  69.326  70.120  63.767
37193DA     SC141738  69.204  70.327  63.964
37193DA     SC241739  69.278  70.533  64.085
37193DA     SC341740  69.080  70.487  64.242
37193DA     SC441741  69.078  70.281  64.052
37194DA     BB141742  69.570  70.065  63.548
37194DA     BB241743  69.764  70.323  63.721
37194DA     BB341744  69.855  70.242  63.897
37194DA     SC141745  69.616  70.314  64.083
37194DA     SC241746  69.568  70.473  64.269
37194DA     SC341747  69.374  70.315  64.327
37194DA     SC441748  69.501  70.203  64.104
37195DA     BB141749  70.132  70.356  63.763
37195DA     BB241750  70.159  70.579  64.053
37195DA     BB341751  70.234  70.472  64.222
37195DA     SC141752  69.952  70.391  64.326
37195DA     SC241753  69.803  70.446  64.518
37195DA     SC341754  69.685  70.225  64.464
37195DA     SC441755  69.893  70.250  64.277
37196DG     BB141756  70.461  70.680  64.203
37196DG     BB241757  70.324  70.788  64.520
37196DG     BB341758  70.396  70.676  64.667
37196DG     SC141759  70.172  70.467  64.650
37196DG     SC241760  69.965  70.415  64.858
37196DG     SC341761  69.955  70.209  64.645
37196DG     SC441762  70.189  70.343  64.550
37197DG     BB141763  70.495  70.958  64.788
37197DG     BB241764  70.272  70.887  65.063
37197DG     BB341765  70.359  70.761  65.190
37197DG     SC141766  70.255  70.509  65.051
37197DG     SC241767  70.058  70.315  65.163
37197DG     SC341768  70.175  70.212  64.912
37197DG     SC441769  70.341  70.445  64.932
37198DA     BB141770  70.249  71.005  65.404
37198DA     BB241771  70.056  70.751  65.585
37198DA     BB341772  70.187  70.622  65.693
37198DA     SC141773  70.216  70.417  65.461
37198DA     SC241774  70.145  70.183  65.411
37198DA     SC341775  70.333  70.184  65.238
37198DA     SC441776  70.339  70.437  65.360
37199DA     BB141777  69.958  70.725  65.903
37199DA     BB241778  69.880  70.370  65.950
37199DA     BB341779  70.040  70.272  66.051
37199DA     SC141780  70.188  70.192  65.789
37199DA     SC241781  70.236  69.984  65.661
37199DA     SC341782  70.424  70.120  65.550
37199DA     SC441783  70.300  70.293  65.733
37200DA     BB141784  69.773  70.192  66.223
37200DA     BB241785  69.863  69.843  66.152
37200DA     BB341786  70.040  69.789  66.258
37200DA     SC141787  70.232  69.873  66.028
37200DA     SC241788  70.383  69.761  65.864
37200DA     SC341789  70.497  69.990  65.844
37200DA     SC441790  70.290  70.023  66.030
37201DA     BB141791  69.851  69.542  66.368
37201DA     BB241792  70.096  69.311  66.223
37201DA     BB341793  70.271  69.302  66.345
37201DA     SC141794  70.417  69.532  66.195
37201DA     SC241795  70.613  69.558  66.043
37201DA     SC341796  70.608  69.805  66.112
37201DA     SC441797  70.398  69.681  66.252
37202DG     BB141798  70.220  68.992  66.396
37202DG     BB241799  70.535  68.952  66.223
37202DG     BB341800  70.686  68.968  66.352
37202DG     SC141801  70.715  69.271  66.319
37202DG     SC241802  70.948  69.412  66.196
37202DG     SC341803  70.761  69.605  66.321
37202DG     SC441804  70.628  69.368  66.412
37203DT     BB141805  70.846  68.794  66.416
37203DT     BB241806  71.138  68.904  66.234
37203DT     BB341807  71.280  68.976  66.366
37203DT     SC141808  71.144  69.197  66.404
37203DT     SC241809  71.249  69.362  66.314
37203DT     SC341810  71.004  69.385  66.525
37204DT     BB141811  71.447  68.755  66.338
37204DT     BB241812  71.655  69.034  66.245
37204DT     BB341813  71.754  69.107  66.411
37204DT     SC141814  71.535  69.220  66.502
37204DT     SC241815  71.554  69.434  66.488
37204DT     SC341816  71.331  69.274  66.659
37205DG     BB141817  72.029  69.006  66.130
37205DG     BB241818  72.072  69.347  66.241
37205DG     BB341819  72.164  69.350  66.418
37205DG     SC141820  71.905  69.338  66.580
37205DG     SC241821  71.798  69.554  66.756
37205DG     SC341822  71.642  69.305  66.789
37205DG     SC441823  71.843  69.195  66.618
37206DG     BB141824  72.364  69.538  66.252
37206DG     BB241825  72.277  69.795  66.491
37206DG     BB341826  72.373  69.764  66.662
37206DG     SC141827  72.154  69.587  66.783
37206DG     SC241828  71.983  69.655  67.018
37206DG     SC341829  71.944  69.373  66.937
37206DG     SC441830  72.158  69.430  66.755
37207DT     BB141831  72.484  69.917  66.706
37207DT     BB241832  72.319  70.064  66.991
37207DT     BB341833  72.401  69.991  67.166
37207DT     SC141834  72.280  69.760  67.136
37207DT     SC241835  72.127  69.739  67.286
37207DT     SC341836  72.245  69.501  67.100
37208DA     BB141837  72.379  70.412  67.186
37208DA     BB241838  72.269  70.276  67.508
37208DA     BB341839  72.434  70.189  67.612
37208DA     SC141840  72.392  69.905  67.492
37208DA     SC241841  72.318  69.681  67.571
37208DA     SC341842  72.436  69.591  67.362
37208DA     SC441843  72.472  69.869  67.358
37209DA     BB141844  72.374  70.388  67.883
37209DA     BB241845  72.347  70.087  68.091
37209DA     BB341846  72.541  70.010  68.135
37209DA     SC141847  72.551  69.823  67.887
37209DA     SC241848  72.545  69.579  67.839
37209DA     SC341849  72.650  69.640  67.614
37209DA     SC441850  72.618  69.882  67.752
37210DT     BB141851  72.721  70.000  68.359
37210DT     BB241852  72.694  69.646  68.422
37210DT     BB341853  72.877  69.555  68.390
37210DT     SC141854  72.850  69.574  68.129
37210DT     SC241855  72.820  69.378  68.046
37210DT     SC341856  72.896  69.645  67.880
37211DA     BB141857  72.915  69.416  68.808
37211DA     BB241858  72.983  69.118  68.606
37211DA     BB341859  73.190  69.108  68.556
37211DA     SC141860  73.159  69.266  68.290
37211DA     SC241861  73.173  69.220  68.046
37211DA     SC341862  73.207  69.474  68.021
37211DA     SC441863  73.180  69.426  68.296
37212DA     BB141864  73.267  68.795  68.698
37212DA     BB241865  73.325  68.664  68.360
37212DA     BB341866  73.530  68.688  68.306
37212DA     SC141867  73.489  68.968  68.178
37212DA     SC241868  73.493  69.069  67.949
37212DA     SC341869  73.527  69.292  68.071
37212DA     SC441870  73.511  69.097  68.271
37213DC     BB141871  73.685  68.516  68.271
37213DC     BB241872  73.670  68.533  67.911
37213DC     BB341873  73.851  68.600  67.836
37213DC     SC141874  73.801  68.846  67.912
37213DC     SC241875  73.768  68.969  67.739
37213DC     SC341876  73.824  69.076  68.040
37214DT     BB141877  73.914  68.350  67.738
37214DT     BB241878  73.917  68.564  67.447
37214DT     BB341879  74.105  68.645  67.421
37214DT     SC141880  74.071  68.811  67.620
37214DT     SC241881  74.055  69.012  67.544
37214DT     SC341882  74.106  68.929  67.854
37215DT     BB141883  74.138  68.486  67.204
37215DT     BB241884  74.179  68.821  67.078
37215DT     BB341885  74.376  68.881  67.101
37215DT     SC141886  74.345  68.915  67.359
37215DT     SC241887  74.352  69.125  67.405
37215DT     SC341888  74.375  68.882  67.619
37216DT     BB141889  74.411  68.862  66.832
37216DT     BB241890  74.495  69.204  66.910
37216DT     BB341891  74.694  69.218  66.964
37216DT     SC141892  74.647  69.110  67.198
37216DT     SC241893  74.672  69.258  67.352
37216DT     SC341894  74.654  68.938  67.399
37217DT     BB141895  74.756  69.342  66.727
37217DT     BB241896  74.865  69.573  66.982
37217DT     BB341897  75.059  69.531  67.038
37217DT     SC141898  74.982  69.320  67.174
37217DT     SC241899  75.008  69.358  67.384
37217DT     SC341900  74.957  69.068  67.248
37218DA     BB141901  75.041  69.937  66.941
37218DA     BB241902  75.200  69.906  67.270
37218DA     BB341903  75.400  69.833  67.249
37218DA     SC141904  75.318  69.534  67.274
37218DA     SC241905  75.345  69.348  67.438
37218DA     SC341906  75.296  69.193  67.240
37218DA     SC441907  75.287  69.454  67.138
37219DA     BB141908  75.434  70.101  67.427
37219DA     BB241909  75.564  69.881  67.690
37219DA     BB341910  75.760  69.814  67.640
37219DA     SC141911  75.662  69.559  67.491
37219DA     SC241912  75.666  69.312  67.526
37219DA     SC341913  75.625  69.296  67.274
37219DA     SC441914  75.638  69.570  67.333
37220DG     BB141915  75.766  69.954  67.909
37220DG     BB241916  75.856  69.621  68.017
37220DG     BB341917  76.043  69.580  67.963
37220DG     SC141918  75.965  69.463  67.691
37220DG     SC241919  75.994  69.178  67.608
37220DG     SC341920  75.917  69.347  67.378
37220DG     SC441921  75.953  69.561  67.565
37221DC     BB141922  76.128  69.539  68.121
37221DC     BB241923  76.186  69.184  68.092
37221DC     BB341924  76.369  69.149  68.002
37221DC     SC141925  76.274  69.216  67.766
37221DC     SC241926  76.263  69.041  67.642
37221DC     SC341927  76.242  69.348  67.540
37222DA     BB141928  76.298  68.917  68.349
37222DA     BB241929  76.436  68.702  68.087
37222DA     BB341930  76.638  68.757  68.044
37222DA     SC141931  76.561  68.959  67.820
37222DA     SC241932  76.581  68.976  67.572
37222DA     SC341933  76.547  69.228  67.608
37222DA     SC441934  76.540  69.113  67.863
37223DA     BB141935  76.674  68.433  68.099
37223DA     BB241936  76.819  68.413  67.762
37223DA     BB341937  77.012  68.503  67.759
37223DA     SC141938  76.907  68.785  67.684
37223DA     SC241939  76.913  68.938  67.487
37223DA     SC341940  76.859  69.124  67.655
37223DA     SC441941  76.874  68.887  67.804
37224DG     BB141942  77.131  68.222  67.675
37224DG     BB241943  77.230  68.398  67.375
37224DG     BB341944  77.402  68.492  67.406
37224DG     SC141945  77.272  68.750  67.505
37224DG     SC241946  77.277  69.015  67.367
37224DG     SC341947  77.163  69.041  67.638
37224DG     SC441948  77.239  68.765  67.661
37225DA     BB141949  77.560  68.342  67.125
37225DA     BB241950  77.618  68.670  66.972
37225DA     BB341951  77.790  68.762  67.058
37225DA     SC141952  77.632  68.908  67.282
37225DA     SC241953  77.568  69.142  67.341
37225DA     SC341954  77.532  69.051  67.578
37225DA     SC441955  77.617  68.832  67.423
37226DA     BB141956  77.908  68.788  66.748
37226DA     BB241957  77.903  69.152  66.791
37226DA     BB341958  78.074  69.216  66.901
37226DA     SC141959  77.935  69.194  67.178
37226DA     SC241960  77.853  69.347  67.357
37226DA     SC341961  77.865  69.142  67.510
37226DA     SC441962  77.950  69.055  67.258
37227DA     BB141963  78.115  69.412  66.641
37227DA     BB241964  78.075  69.695  66.870
37227DA     BB341965  78.254  69.726  66.982
37227DA     SC141966  78.170  69.540  67.216
37227DA     SC241967  78.104  69.563  67.455
37227DA     SC341968  78.166  69.315  67.475
37227DA     SC441969  78.215  69.386  67.208
37228DT     BB141970  78.347  69.894  66.947
37228DT     BB241971  78.255  70.059  67.255
37228DT     BB341972  78.416  70.058  67.386
37228DT     SC141973  78.382  69.804  67.439
37228DT     SC241974  78.311  69.782  67.641
37228DT     SC341975  78.430  69.545  67.454
37229DG     BB141976  78.292  70.442  67.325
37229DG     BB241977  78.315  70.363  67.677
37229DG     BB341978  78.505  70.364  67.735
37229DG     SC141979  78.550  70.067  67.673
37229DG     SC241980  78.603  69.853  67.874
37229DG     SC341981  78.640  69.751  67.599
37229DG     SC441982  78.597  70.024  67.526
37230DT     BB141983  78.570  70.505  67.883
37230DT     BB241984  78.619  70.297  68.173
37230DT     BB341985  78.820  70.257  68.198
37230DT     SC141986  78.819  70.086  67.999
37230DT     SC241987  78.846  69.887  68.075
37230DT     SC341988  78.875  69.977  67.766
37231DA     BB141989  78.686  70.405  68.568
37231DA     BB241990  78.882  70.102  68.634
37231DA     BB341991  79.090  70.141  68.607
37231DA     SC141992  79.091  70.061  68.306
37231DA     SC241993  79.181  69.877  68.164
37231DA     SC341994  79.152  70.041  67.969
37231DA     SC441995  79.066  70.178  68.198
37232DG     BB141996  79.122  70.063  68.909
37232DG     BB241997  79.321  69.793  68.774
37232DG     BB341998  79.506  69.856  68.739
37232DG     SC141999  79.447  69.946  68.452
37232DG     SC242000  79.559  69.824  68.203
37232DG     SC342001  79.413  70.074  68.142
37232DG     SC442002  79.394  70.095  68.427
37233DT     BB142003  79.689  69.774  68.846
37233DT     BB242004  79.840  69.572  68.588
37233DT     BB342005  80.006  69.669  68.511
37233DT     SC142006  79.856  69.838  68.378
37233DT     SC242007  79.873  69.798  68.167
37233DT     SC342008  79.747  70.065  68.300
37234DT     BB142009  80.182  69.497  68.636
37234DT     BB242010  80.273  69.475  68.288
37234DT     BB342011  80.413  69.620  68.242
37234DT     SC142012  80.230  69.809  68.247
37234DT     SC242013  80.197  69.881  68.047
37234DT     SC342014  80.099  70.025  68.320
37235DT     BB142015  80.627  69.441  68.226
37235DT     BB242016  80.630  69.608  67.906
37235DT     BB342017  80.749  69.777  67.916
37235DT     SC142018  80.566  69.907  68.052
37235DT     SC242019  80.483  70.063  67.929
37235DT     SC342020  80.449  70.036  68.250
37236DA     BB142021  80.914  69.568  67.590
37236DA     BB242022  80.858  69.913  67.480
37236DA     BB342023  81.009  70.042  67.560
37236DA     SC142024  80.847  70.110  67.818
37236DA     SC242025  80.730  70.308  67.915
37236DA     SC342026  80.753  70.185  68.139
37236DA     SC442027  80.873  70.019  67.947
37237DA     BB142028  81.082  70.139  67.248
37237DA     BB242029  80.975  70.476  67.342
37237DA     BB342030  81.133  70.578  67.445
37237DA     SC142031  81.042  70.484  67.727
37237DA     SC242032  80.942  70.585  67.932
37237DA     SC342033  81.032  70.377  68.053
37237DA     SC442034  81.107  70.349  67.785
37238DA     BB142035  81.107  70.818  67.216
37238DA     BB242036  81.000  71.042  67.485
37238DA     BB342037  81.169  71.117  67.591
37238DA     SC142038  81.172  70.887  67.800
37238DA     SC242039  81.125  70.858  68.043
37238DA     SC342040  81.266  70.644  68.024
37238DA     SC442041  81.264  70.758  67.768
37239DT     BB142042  81.216  71.322  67.584
37239DT     BB242043  81.084  71.395  67.912
37239DT     BB342044  81.239  71.435  68.043
37239DT     SC142045  81.302  71.180  68.057
37239DT     SC242046  81.253  71.105  68.253
37239DT     SC342047  81.441  70.958  68.034
37240DG     BB142048  80.969  71.736  68.027
37240DG     BB242049  81.012  71.609  68.363
37240DG     BB342050  81.184  71.676  68.438
37240DG     SC142051  81.349  71.439  68.335
37240DG     SC242052  81.481  71.231  68.504
37240DG     SC342053  81.564  71.206  68.221
37240DG     SC442054  81.414  71.448  68.189
37241DT     BB142055  81.139  71.767  68.596
37241DT     BB242056  81.250  71.537  68.851
37241DT     BB342057  81.443  71.584  68.909
37241DT     SC142058  81.542  71.484  68.688
37241DT     SC242059  81.651  71.304  68.733
37241DT     SC342060  81.667  71.470  68.455
37242DT     BB142061  81.297  71.628  69.114
37242DT     BB242062  81.544  71.385  69.214
37242DT     BB342063  81.728  71.477  69.238
37242DT     SC142064  81.761  71.495  68.978
37242DT     SC242065  81.918  71.362  68.917
37242DT     SC342066  81.792  71.602  68.739
37243DC     BB142067  81.672  71.413  69.482
37243DC     BB242068  81.993  71.264  69.411
37243DC     BB342069  82.141  71.408  69.419
37243DC     SC142070  82.067  71.508  69.187
37243DC     SC242071  82.218  71.465  69.040
37243DC     SC342072  81.976  71.679  69.009
37244DT     BB142073  82.216  71.286  69.640
37244DT     BB242074  82.511  71.293  69.433
37244DT     BB342075  82.604  71.477  69.449
37244DT     SC142076  82.421  71.592  69.300
37244DT     SC242077  82.507  71.647  69.110
37244DT     SC342078  82.223  71.751  69.228
37245DT     BB142079  82.804  71.368  69.598
37245DT     BB242080  82.976  71.533  69.326
37245DT     BB342081  83.009  71.732  69.374
37245DT     SC142082  82.756  71.792  69.333
37245DT     SC242083  82.739  71.913  69.157
37245DT     SC342084  82.509  71.871  69.381
37246DG     BB142085  83.388  71.588  69.315
37246DG     BB242086  83.333  71.889  69.121
37246DG     BB342087  83.354  72.049  69.237
37246DG     SC142088  83.060  72.058  69.321
37246DG     SC242089  82.864  72.271  69.249
37246DG     SC342090  82.750  72.086  69.449
37246DG     SC442091  83.014  71.975  69.449
37247DA     BB142092  83.588  72.187  69.013
37247DA     BB242093  83.371  72.478  68.960
37247DA     BB342094  83.391  72.615  69.122
37247DA     SC142095  83.160  72.489  69.288
37247DA     SC242096  82.929  72.550  69.359
37247DA     SC342097  82.960  72.372  69.541
37247DA     SC442098  83.199  72.376  69.395
37248DA     BB142099  83.461  72.835  68.885
37248DA     BB242100  83.162  73.020  68.990
37248DA     BB342101  83.202  73.131  69.168
37248DA     SC142102  83.114  72.903  69.360
37248DA     SC242103  82.927  72.856  69.518
37248DA     SC342104  83.085  72.683  69.623
37248DA     SC442105  83.228  72.801  69.412
37249DA     BB142106  83.089  73.377  68.982
37249DA     BB242107  82.820  73.413  69.228
37249DA     BB342108  82.892  73.510  69.404
37249DA     SC142109  82.971  73.245  69.547
37249DA     SC242110  82.892  73.110  69.742
37249DA     SC342111  83.126  73.003  69.736
37249DA     SC442112  83.121  73.192  69.528
37250DA     BB142113  82.637  73.702  69.335
37250DA     BB242114  82.500  73.603  69.660
37250DA     BB342115  82.605  73.701  69.818
37250DA     SC142116  82.816  73.475  69.851
37250DA     SC242117  82.875  73.301  70.019
37250DA     SC342118  83.105  73.297  69.905
37250DA     SC442119  82.953  73.489  69.767
37251DG     BB142120  82.322  73.812  69.879
37251DG     BB242121  82.365  73.622  70.184
37251DG     BB342122  82.475  73.726  70.313
37251DG     SC142123  82.742  73.613  70.214
37251DG     SC242124  82.925  73.434  70.369
37251DG     SC342125  83.053  73.525  70.118
37251DG     SC442126  82.818  73.687  70.094
37252DT     BB142127  82.386  73.777  70.496
37252DT     BB242128  82.550  73.550  70.724
37252DT     BB342129  82.700  73.648  70.826
37252DT     SC142130  82.855  73.647  70.614
37252DT     SC242131  83.021  73.513  70.648
37252DT     SC342132  83.000  73.734  70.412
37253DG     BB142133  82.439  73.481  71.090
37253DG     BB242134  82.781  73.386  71.160
37253DG     BB342135  82.877  73.538  71.245
37253DG     SC142136  82.973  73.658  70.980
37253DG     SC242137  83.256  73.673  70.887
37253DG     SC342138  83.077  73.828  70.708
37253DG     SC442139  82.879  73.763  70.905
37254DC     BB142140  82.951  73.505  71.436
37254DC     BB242141  83.306  73.480  71.378
37254DC     BB342142  83.398  73.660  71.422
37254DC     SC142143  83.307  73.769  71.201
37254DC     SC242144  83.470  73.803  71.065
37254DC     SC342145  83.173  73.930  71.041
37255DA     BB142146  83.603  73.351  71.621
37255DA     BB242147  83.851  73.564  71.453
37255DA     BB342148  83.864  73.753  71.551
37255DA     SC142149  83.646  73.888  71.375
37255DA     SC242150  83.635  74.063  71.197
37255DA     SC342151  83.386  74.079  71.258
37255DA     SC442152  83.495  73.884  71.428
37256DT     BB142153  84.035  73.801  71.648
37256DT     BB242154  84.155  74.048  71.413
37256DT     BB342155  84.124  74.238  71.489
37256DT     SC142156  83.866  74.224  71.439
37256DT     SC242157  83.817  74.360  71.279
37256DT     SC342158  83.606  74.217  71.479
37257DG     BB142159  84.531  74.225  71.437
37257DG     BB242160  84.390  74.519  71.280
37257DG     BB342161  84.357  74.659  71.417
37257DG     SC142162  84.072  74.566  71.480
37257DG     SC242163  83.821  74.717  71.422
37257DG     SC342164  83.765  74.478  71.588
37257DG     SC442165  84.050  74.454  71.593
37258DC     BB142166  84.465  74.881  71.439
37258DC     BB242167  84.200  75.095  71.319
37258DC     BB342168  84.118  75.201  71.477
37258DC     SC142169  83.992  74.989  71.565
37258DC     SC242170  83.780  75.014  71.535
37258DC     SC342171  83.920  74.791  71.724
37259DT     BB142172  84.236  75.457  71.418
37259DT     BB242173  83.881  75.524  71.420
37259DT     BB342174  83.822  75.585  71.609
37259DT     SC142175  83.840  75.340  71.703
37259DT     SC242176  83.643  75.266  71.746
37259DT     SC342177  83.922  75.135  71.846
37260DA     BB142178  83.685  75.885  71.351
37260DA     BB242179  83.401  75.775  71.555
37260DA     BB342180  83.416  75.855  71.752
37260DA     SC142181  83.576  75.612  71.865
37260DA     SC242182  83.537  75.423  72.023
37260DA     SC342183  83.793  75.410  72.037
37260DA     SC442184  83.736  75.621  71.861
37261DT     BB142185  83.275  75.983  71.807
37261DT     BB242186  83.092  75.750  72.014
37261DT     BB342187  83.126  75.792  72.214
37261DT     SC142188  83.368  75.689  72.203
37261DT     SC242189  83.373  75.506  72.316
37261DT     SC342190  83.631  75.672  72.211
37262DT     BB142191  82.875  75.864  72.207
37262DT     BB242192  82.894  75.600  72.452
37262DT     BB342193  82.961  75.676  72.633
37262DT     SC142194  83.206  75.696  72.544
37262DT     SC242195  83.331  75.551  72.643
37262DT     SC342196  83.435  75.803  72.469
37263DA     BB142197  82.621  75.428  72.666
37263DA     BB242198  82.868  75.325  72.916
37263DA     BB342199  82.890  75.475  73.065
37263DA     SC142200  83.120  75.623  72.916
37263DA     SC242201  83.365  75.661  72.946
37263DA     SC342202  83.333  75.860  72.787
37263DA     SC442203  83.080  75.743  72.817
37264DG     BB142204  82.807  75.225  73.224
37264DG     BB242205  83.133  75.275  73.373
37264DG     BB342206  83.128  75.428  73.499
37264DG     SC142207  83.200  75.637  73.288
37264DG     SC242208  83.453  75.796  73.278
37264DG     SC342209  83.258  75.895  73.078
37264DG     SC442210  83.083  75.706  73.203
37265DA     BB142211  83.274  75.206  73.723
37265DA     BB242212  83.556  75.436  73.765
37265DA     BB342213  83.496  75.606  73.880
37265DA     SC142214  83.411  75.774  73.632
37265DA     SC242215  83.492  75.976  73.509
37265DA     SC342216  83.253  75.989  73.416
37265DA     SC442217  83.258  75.766  73.586
37266DC     BB142218  83.573  75.639  74.071
37266DC     BB242219  83.789  75.915  73.986
37266DC     BB342220  83.707  76.093  74.055
37266DC     SC142221  83.528  76.093  73.863
37266DC     SC242222  83.571  76.252  73.725
37266DC     SC342223  83.293  76.086  73.743
37267DG     BB142224  84.067  76.078  74.250
37267DG     BB242225  84.026  76.393  74.077
37267DG     BB342226  83.913  76.516  74.185
37267DG     SC142227  83.650  76.421  74.060
37267DG     SC242228  83.470  76.584  73.886
37267DG     SC342229  83.342  76.328  73.960
37267DG     SC442230  83.573  76.297  74.126
37268DA     BB142231  84.161  76.761  74.165
37268DA     BB242232  83.929  76.983  73.988
37268DA     BB342233  83.796  77.076  74.126
37268DA     SC142234  83.580  76.853  74.105
37268DA     SC242235  83.350  76.828  74.013
37268DA     SC342236  83.330  76.627  74.171
37268DA     SC442237  83.587  76.733  74.211
37269DG     BB142238  83.923  77.338  74.019
37269DG     BB242239  83.589  77.390  73.889
37269DG     BB342240  83.473  77.468  74.031
37269DG     SC142241  83.381  77.196  74.138
37269DG     SC242242  83.103  77.087  74.123
37269DG     SC342243  83.275  76.916  74.294
37269DG     SC442244  83.467  77.124  74.252
37270DT     BB142245  83.393  77.651  73.987
37270DT     BB242246  83.051  77.563  73.911
37270DT     BB342247  82.930  77.601  74.075
37270DT     SC142248  83.022  77.391  74.202
37270DT     SC242249  82.867  77.242  74.215
37270DT     SC342250  83.143  77.245  74.385
37271DG     BB142251  82.798  77.789  73.739
37271DG     BB242252  82.539  77.590  73.895
37271DG     BB342253  82.472  77.682  74.059
37271DG     SC142254  82.676  77.550  74.246
37271DG     SC242255  82.614  77.355  74.462
37271DG     SC342256  82.897  77.440  74.475
37271DG     SC442257  82.818  77.621  74.267
37272DA     BB142258  82.177  77.608  73.900
37272DA     BB242259  82.071  77.422  74.198
37272DA     BB342260  82.031  77.557  74.358
37272DA     SC142261  82.321  77.548  74.471
37272DA     SC242262  82.439  77.458  74.672
37272DA     SC342263  82.624  77.626  74.613
37272DA     SC442264  82.424  77.659  74.418
37273DC     BB142265  81.856  77.550  74.404
37273DC     BB242266  81.894  77.377  74.718
37273DC     BB342267  81.893  77.513  74.874
37273DC     SC142268  82.136  77.593  74.817
37273DC     SC242269  82.270  77.528  74.972
37273DC     SC342270  82.335  77.750  74.744
37274DA     BB142271  81.625  77.198  74.951
37274DA     BB242272  81.827  77.255  75.252
37274DA     BB342273  81.774  77.440  75.343
37274DA     SC142274  81.984  77.606  75.185
37274DA     SC242275  82.197  77.728  75.231
37274DA     SC342276  82.151  77.852  75.012
37274DA     SC442277  81.937  77.674  75.046
37275DT     BB142278  81.693  77.425  75.516
37275DT     BB242279  81.970  77.550  75.711
37275DT     BB342280  81.937  77.748  75.763
37275DT     SC142281  81.990  77.829  75.519
37275DT     SC242282  82.176  77.937  75.519
37275DT     SC342283  81.958  77.936  75.280
37276DA     BB142284  82.029  77.546  76.120
37276DA     BB242285  82.227  77.855  76.111
37276DA     BB342286  82.102  78.024  76.146
37276DA     SC142287  82.039  78.070  75.845
37276DA     SC242288  82.094  78.238  75.668
37276DA     SC342289  81.888  78.145  75.546
37276DA     SC442290  81.908  78.000  75.785
37277DA     BB142291  82.316  78.097  76.390
37277DA     BB242292  82.383  78.414  76.218
37277DA     BB342293  82.222  78.551  76.250
37277DA     SC142294  82.062  78.462  75.999
37277DA     SC242295  82.001  78.555  75.776
37277DA     SC342296  81.815  78.379  75.776
37277DA     SC442297  81.952  78.346  76.018
37278DA     BB142298  82.446  78.772  76.370
37278DA     BB242299  82.349  78.999  76.098
37278DA     BB342300  82.167  79.099  76.147
37278DA     SC142301  81.984  78.884  76.016
37278DA     SC242302  81.835  78.865  75.817
37278DA     SC342303  81.729  78.667  75.942
37278DA     SC442304  81.930  78.765  76.110
37279DA     BB142305  82.318  79.398  76.104
37279DA     BB242306  82.083  79.465  75.830
37279DA     BB342307  81.897  79.535  75.907
37279DA     SC142308  81.771  79.251  75.930
37279DA     SC242309  81.592  79.119  75.818
37279DA     SC342310  81.595  78.974  76.030
37279DA     SC442311  81.787  79.174  76.070
37280DT     BB142312  81.803  79.751  75.886
37280DT     BB242313  81.560  79.659  75.636
37280DT     BB342314  81.369  79.673  75.715
37280DT     SC142315  81.402  79.452  75.854
37280DT     SC242316  81.278  79.297  75.772
37280DT     SC342317  81.425  79.290  76.061
37281DG     BB142318  81.351  79.940  75.406
37281DG     BB242319  81.087  79.694  75.378
37281DG     BB342320  80.933  79.747  75.493
37281DG     SC142321  81.035  79.600  75.741
37281DG     SC242322  80.908  79.361  75.868
37281DG     SC342323  81.127  79.466  76.037
37281DG     SC442324  81.133  79.676  75.842
37282DC     BB142325  80.734  79.789  75.403
37282DC     BB242326  80.558  79.486  75.488
37282DC     BB342327  80.425  79.522  75.643
37282DC     SC142328  80.619  79.533  75.818
37282DC     SC242329  80.608  79.361  75.948
37282DC     SC342330  80.783  79.628  76.001
37283DT     BB142331  80.238  79.486  75.458
37283DT     BB242332  80.170  79.239  75.712
37283DT     BB342333  80.059  79.323  75.865
37283DT     SC142334  80.270  79.450  75.957
37283DT     SC242335  80.328  79.364  76.146
37283DT     SC342336  80.429  79.648  76.027
37284DT     BB142337  79.869  79.169  75.771
37284DT     BB242338  79.906  79.075  76.117
37284DT     BB342339  79.803  79.208  76.238
37284DT     SC142340  79.986  79.392  76.204
37284DT     SC242341  80.093  79.422  76.389
37284DT     SC342342  80.100  79.619  76.132
37285DT     BB142343  79.631  79.009  76.281
37285DT     BB242344  79.739  79.111  76.610
37285DT     BB342345  79.629  79.274  76.673
37285DT     SC142346  79.759  79.435  76.512
37285DT     SC242347  79.883  79.567  76.629
37285DT     SC342348  79.807  79.604  76.316
37286DA     BB142349  79.595  78.992  76.984
37286DA     BB242350  79.676  79.316  77.137
37286DA     BB342351  79.506  79.444  77.134
37286DA     SC142352  79.575  79.570  76.858
37286DA     SC242353  79.652  79.791  76.770
37286DA     SC342354  79.561  79.709  76.544
37286DA     SC442355  79.512  79.502  76.727
37287DT     BB142356  79.392  79.509  77.315
37287DT     BB242357  79.512  79.849  77.320
37287DT     BB342358  79.360  79.979  77.266
37287DT     SC142359  79.381  79.910  77.014
37287DT     SC242360  79.462  80.075  76.901
37287DT     SC342361  79.317  79.812  76.777
37288DG     BB142362  79.439  80.114  77.647
37288DG     BB242363  79.454  80.387  77.410
37288DG     BB342364  79.272  80.457  77.375
37288DG     SC142365  79.216  80.267  77.142
37288DG     SC242366  79.182  80.345  76.856
37288DG     SC342367  79.114  80.060  76.896
37288DG     SC442368  79.152  80.123  77.172
37289DA     BB142369  79.373  80.781  77.456
37289DA     BB242370  79.300  80.893  77.115
37289DA     BB342371  79.092  80.934  77.094
37289DA     SC142372  79.019  80.646  77.002
37289DA     SC242373  78.944  80.531  76.794
37289DA     SC342374  78.864  80.344  76.949
37289DA     SC442375  78.975  80.540  77.116
37290DT     BB142376  79.043  81.122  77.057
37290DT     BB242377  78.977  81.075  76.706
37290DT     BB342378  78.773  81.077  76.671
37290DT     SC142379  78.745  80.836  76.773
37290DT     SC242380  78.696  80.698  76.615
37290DT     SC342381  78.669  80.642  76.933
37291DA     BB142382  78.996  81.320  76.411
37291DA     BB242383  78.773  81.107  76.213
37291DA     BB342384  78.569  81.165  76.243
37291DA     SC142385  78.523  80.971  76.481
37291DA     SC242386  78.394  80.763  76.527
37291DA     SC342387  78.421  80.825  76.775
37291DA     SC442388  78.549  81.028  76.629
37292DG     BB142389  78.634  81.179  75.943
37292DG     BB242390  78.380  80.921  75.935
37292DG     BB342391  78.201  81.001  75.969
37292DG     SC142392  78.217  80.965  76.273
37292DG     SC242393  78.047  80.783  76.437
37292DG     SC342394  78.209  80.960  76.610
37292DG     SC442395  78.283  81.081  76.361
37293DA     BB142396  78.132  80.815  75.686
37293DA     BB242397  77.869  80.641  75.872
37293DA     BB342398  77.706  80.773  75.912
37293DA     SC142399  77.819  80.869  76.185
37293DA     SC242400  77.763  80.845  76.427
37293DA     SC342401  77.907  81.054  76.461
37293DA     SC442402  77.912  81.001  76.185
37294DA     BB142403  77.552  80.519  75.772
37294DA     BB242404  77.359  80.494  76.083
37294DA     BB342405  77.223  80.657  76.099
37294DA     SC142406  77.423  80.841  76.251
37294DA     SC242407  77.449  80.935  76.480
37294DA     SC342408  77.602  81.109  76.369
37294DA     SC442409  77.514  80.941  76.163
37295DG     BB142410  76.998  80.438  76.102
37295DG     BB242411  76.939  80.567  76.435
37295DG     BB342412  76.826  80.731  76.425
37295DG     SC142413  77.062  80.923  76.401
37295DG     SC242414  77.145  81.126  76.604
37295DG     SC342415  77.296  81.161  76.352
37295DG     SC442416  77.119  80.958  76.255
37296DT     BB142417  76.616  80.746  76.516
37296DT     BB242418  76.682  80.949  76.807
37296DT     BB342419  76.612  81.141  76.776
37296DT     SC142420  76.813  81.196  76.615
37296DT     SC242421  76.944  81.337  76.711
37296DT     SC342422  76.945  81.259  76.396
37297DA     BB142423  76.450  81.009  77.139
37297DA     BB242424  76.604  81.337  77.196
37297DA     BB342425  76.485  81.491  77.110
37297DA     SC142426  76.630  81.484  76.835
37297DA     SC242427  76.784  81.630  76.704
37297DA     SC342428  76.708  81.493  76.501
37297DA     SC442429  76.569  81.388  76.721
37298DC     BB142430  76.409  81.613  77.236
37298DC     BB242431  76.631  81.889  77.166
37298DC     BB342432  76.535  82.029  77.048
37298DC     SC142433  76.557  81.876  76.836
37298DC     SC242434  76.697  81.964  76.698
37298DC     SC342435  76.489  81.725  76.630
37299DT     BB142436  76.549  82.172  77.266
37299DT     BB242437  76.722  82.362  77.013
37299DT     BB342438  76.585  82.463  76.895
37299DT     SC142439  76.517  82.243  76.771
37299DT     SC242440  76.587  82.251  76.567
37299DT     SC342441  76.370  82.041  76.685
37300DT     BB142442  76.698  82.661  77.016
37300DT     BB242443  76.741  82.724  76.663
37300DT     BB342444  76.565  82.795  76.582
37300DT     SC142445  76.455  82.557  76.590
37300DT     SC242446  76.431  82.482  76.389
37300DT     SC342447  76.291  82.361  76.655
37301DT     BB142448  76.686  83.032  76.561
37301DT     BB242449  76.570  82.960  76.227
37301DT     BB342450  76.372  83.018  76.207
37301DT     SC142451  76.290  82.812  76.347
37301DT     SC242452  76.186  82.675  76.218
37301DT     SC342453  76.180  82.673  76.542
37302DT     BB142454  76.445  83.231  76.053
37302DT     BB242455  76.204  83.053  75.851
37302DT     BB342456  76.013  83.116  75.898
37302DT     SC142457  76.015  82.983  76.124
37302DT     SC242458  75.878  82.817  76.110
37302DT     SC342459  76.010  82.933  76.383
37303DT     BB142460  75.981  83.264  75.663
37303DT     BB242461  75.700  83.039  75.661
37303DT     BB342462  75.539  83.126  75.759
37303DT     SC142463  75.649  83.086  75.993
37303DT     SC242464  75.538  82.936  76.100
37303DT     SC342465  75.758  83.136  76.228
37304DT     BB142466  75.400  83.173  75.523
37304DT     BB242467  75.173  82.975  75.722
37304DT     BB342468  75.055  83.098  75.839
37304DT     SC142469  75.255  83.147  76.002
37304DT     SC242470  75.216  83.053  76.192
37304DT     SC342471  75.441  83.279  76.134
37305DT     BB142472  74.836  83.047  75.683
37305DT     BB242473  74.736  82.948  76.016
37305DT     BB342474  74.656  83.111  76.116
37305DT     SC142475  74.894  83.215  76.152
37305DT     SC242476  74.946  83.205  76.361
37305DT     SC342477  75.096  83.384  76.136
37306DT     BB142478  74.418  82.992  76.094
37306DT     BB242479  74.465  83.039  76.448
37306DT     BB342480  74.404  83.229  76.503
37306DT     SC142481  74.619  83.336  76.397
37306DT     SC242482  74.746  83.411  76.554
37306DT     SC342483  74.771  83.482  76.239
37307DT     BB142484  74.201  83.108  76.623
37307DT     BB242485  74.361  83.301  76.883
37307DT     BB342486  74.294  83.497  76.877
37307DT     SC142487  74.438  83.548  76.663
37307DT     SC242488  74.598  83.682  76.715
37307DT     SC342489  74.499  83.612  76.415
37308DA     BB142490  74.259  83.356  77.271
37308DA     BB242491  74.416  83.687  77.283
37308DA     BB342492  74.273  83.838  77.235
37308DA     SC142493  74.334  83.834  76.930
37308DA     SC242494  74.440  83.983  76.761
37308DA     SC342495  74.310  83.844  76.588
37308DA     SC442496  74.244  83.737  76.838
37309DC     BB142497  74.210  83.975  77.380
37309DC     BB242498  74.382  84.265  77.250
37309DC     BB342499  74.247  84.392  77.158
37309DC     SC142500  74.227  84.233  76.950
37309DC     SC242501  74.319  84.327  76.780
37309DC     SC342502  74.122  84.069  76.772
37310DT     BB142503  74.239  84.588  77.364
37310DT     BB242504  74.324  84.779  77.069
37310DT     BB342505  74.151  84.849  76.978
37310DT     SC142506  74.095  84.610  76.884
37310DT     SC242507  74.120  84.610  76.670
37310DT     SC342508  73.968  84.383  76.844
37311DA     BB142509  74.364  85.208  77.034
37311DA     BB242510  74.256  85.201  76.683
37311DA     BB342511  74.049  85.252  76.668
37311DA     SC142512  73.949  84.958  76.693
37311DA     SC242513  73.843  84.787  76.547
37311DA     SC342514  73.771  84.674  76.766
37311DA     SC442515  73.913  84.904  76.840
37312DC     BB142516  73.978  85.435  76.572
37312DC     BB242517  73.865  85.275  76.269
37312DC     BB342518  73.658  85.276  76.261
37312DC     SC142519  73.643  85.086  76.441
37312DC     SC242520  73.571  84.905  76.349
37312DC     SC342521  73.586  84.962  76.667
37313DA     BB142522  73.811  85.429  75.903
37313DA     BB242523  73.568  85.166  75.822
37313DA     BB342524  73.369  85.234  75.860
37313DA     SC142525  73.364  85.132  76.153
37313DA     SC242526  73.250  84.953  76.284
37313DA     SC342527  73.309  85.094  76.490
37313DA     SC442528  73.409  85.235  76.269
37314DT     BB142529  73.280  85.238  75.705
37314DT     BB242530  73.076  84.947  75.766
37314DT     BB342531  72.890  85.004  75.837
37314DT     SC142532  72.988  85.062  76.073
37314DT     SC242533  72.917  84.919  76.217
37314DT     SC342534  73.059  85.202  76.285
37315DT     BB142535  72.822  84.911  75.605
37315DT     BB242536  72.631  84.722  75.846
37315DT     BB342537  72.470  84.834  75.911
37315DT     SC142538  72.624  84.986  76.059
37315DT     SC242539  72.586  84.945  76.267
37315DT     SC342540  72.748  85.200  76.150
37316DA     BB142541  72.355  84.443  75.801
37316DA     BB242542  72.199  84.525  76.122
37316DA     BB342543  72.052  84.677  76.096
37316DA     SC142544  72.250  84.912  76.146
37316DA     SC242545  72.292  85.084  76.322
37316DA     SC342546  72.418  85.211  76.138
37316DA     SC442547  72.323  84.976  76.018
37317DG     BB142548  71.852  84.463  76.210
37317DG     BB242549  71.805  84.708  76.472
37317DG     BB342550  71.680  84.850  76.411
37317DG     SC142551  71.900  85.028  76.294
37317DG     SC242552  71.982  85.296  76.397
37317DG     SC342553  72.114  85.237  76.138
37317DG     SC442554  71.946  85.006  76.142
37318DC     BB142555  71.451  84.905  76.492
37318DC     BB242556  71.513  85.213  76.671
37318DC     BB342557  71.436  85.373  76.565
37318DC     SC142558  71.632  85.362  76.391
37318DC     SC242559  71.759  85.534  76.416
37318DC     SC342560  71.759  85.332  76.162
37319DT     BB142561  71.177  85.440  76.708
37319DT     BB242562  71.353  85.755  76.709
37319DT     BB342563  71.290  85.872  76.550
37319DT     SC142564  71.425  85.726  76.379
37319DT     SC242565  71.590  85.840  76.302
37319DT     SC342566  71.476  85.563  76.178
37320DG     BB142567  71.151  86.136  76.844
37320DG     BB242568  71.376  86.307  76.618
37320DG     BB342569  71.275  86.378  76.462
37320DG     SC142570  71.308  86.125  76.293
37320DG     SC242571  71.466  86.103  76.040
37320DG     SC342572  71.307  85.857  76.088
37320DG     SC442573  71.199  86.008  76.306
37321DT     BB142574  71.243  86.621  76.392
37321DT     BB242575  71.493  86.631  76.132
37321DT     BB342576  71.402  86.655  75.947
37321DT     SC142577  71.321  86.405  75.946
37321DT     SC242578  71.430  86.295  75.796
37321DT     SC342579  71.160  86.196  75.946
37322DC     BB142580  71.504  86.903  75.941
37322DC     BB242581  71.648  86.734  75.657
37322DC     BB342582  71.520  86.749  75.494
37322DC     SC142583  71.357  86.570  75.596
37322DC     SC242584  71.366  86.390  75.479
37322DC     SC342585  71.138  86.464  75.698
37323DA     BB142586  71.919  86.848  75.406
37323DA     BB242587  71.800  86.606  75.157
37323DA     BB342588  71.654  86.696  75.030
37323DA     SC142589  71.412  86.615  75.208
37323DA     SC242590  71.219  86.457  75.196
37323DA     SC342591  71.114  86.605  75.377
37323DA     SC442592  71.363  86.720  75.320
37324DA     BB142593  71.875  86.560  74.832
37324DA     BB242594  71.596  86.362  74.700
37324DA     BB342595  71.463  86.487  74.590
37324DA     SC142596  71.283  86.555  74.835
37324DA     SC242597  71.053  86.504  74.914
37324DA     SC342598  71.080  86.711  75.063
37324DA     SC442599  71.319  86.687  74.918
37325DA     BB142600  71.524  86.248  74.373
37325DA     BB242601  71.163  86.183  74.377
37325DA     BB342602  71.058  86.337  74.274
37325DA     SC142603  71.017  86.512  74.528
37325DA     SC242604  70.828  86.583  74.675
37325DA     SC342605  70.983  86.773  74.748
37325DA     SC442606  71.128  86.624  74.559
37326DT     BB142607  70.962  86.292  74.100
37326DT     BB242608  70.627  86.303  74.232
37326DT     BB342609  70.532  86.477  74.171
37326DT     SC142610  70.671  86.621  74.341
37326DT     SC242611  70.541  86.693  74.496
37326DT     SC342612  70.839  86.802  74.433
37327DG     BB142613  70.303  86.167  74.037
37327DG     BB242614  70.109  86.402  74.232
37327DG     BB342615  70.063  86.561  74.121
37327DG     SC142616  70.315  86.717  74.199
37327DG     SC242617  70.323  86.968  74.360
37327DG     SC342618  70.589  86.908  74.246
37327DG     SC442619  70.448  86.697  74.112
37328DG     BB142620  69.755  86.488  74.187
37328DG     BB242621  69.745  86.805  74.360
37328DG     BB342622  69.716  86.952  74.230
37328DG     SC142623  70.014  86.999  74.177
37328DG     SC242624  70.169  87.242  74.251
37328DG     SC342625  70.330  87.063  74.080
37328DG     SC442626  70.086  86.914  74.061
37329DT     BB142627  69.554  87.051  74.274
37329DT     BB242628  69.687  87.357  74.410
37329DT     BB342629  69.693  87.503  74.263
37329DT     SC142630  69.901  87.390  74.150
37329DT     SC242631  70.074  87.515  74.178
37329DT     SC342632  70.050  87.268  73.969
37330DC     BB142633  69.523  87.586  74.432
37330DC     BB242634  69.776  87.842  74.409
37330DC     BB342635  69.755  87.945  74.231
37330DC     SC142636  69.856  87.746  74.094
37330DC     SC242637  70.049  87.801  74.018
37330DC     SC342638  69.873  87.547  73.921
37331DC     BB142639  69.695  88.123  74.407
37331DC     BB242640  69.962  88.264  74.209
37331DC     BB342641  69.889  88.327  74.026
37331DC     SC142642  69.872  88.080  73.940
37331DC     SC242643  70.020  88.047  73.787
37331DC     SC342644  69.767  87.854  73.851
37332DG     BB142645  70.073  88.639  74.214
37332DG     BB242646  70.188  88.600  73.873
37332DG     BB342647  70.048  88.666  73.747
37332DG     SC142648  69.908  88.394  73.723
37332DG     SC242649  69.896  88.225  73.478
37332DG     SC342650  69.719  88.118  73.689
37332DG     SC442651  69.793  88.357  73.827
37333DC     BB142652  70.085  88.837  73.614
37333DC     BB242653  70.117  88.678  73.292
37333DC     BB342654  69.942  88.702  73.184
37333DC     SC142655  69.818  88.522  73.330
37333DC     SC242656  69.780  88.347  73.211
37333DC     SC342657  69.644  88.416  73.497
37334DA     BB142658  70.251  88.835  72.933
37334DA     BB242659  70.040  88.607  72.739
37334DA     BB342660  69.855  88.701  72.689
37334DA     SC142661  69.707  88.601  72.944
37334DA     SC242662  69.526  88.439  73.001
37334DA     SC342663  69.504  88.572  73.219
37334DA     SC442664  69.708  88.697  73.073
37335DT     BB142665  69.818  88.740  72.496
37335DT     BB242666  69.572  88.480  72.444
37335DT     BB342667  69.382  88.563  72.439
37335DT     SC142668  69.382  88.599  72.699
37335DT     SC242669  69.241  88.464  72.790
37335DT     SC342670  69.377  88.720  72.933
37336DT     BB142671  69.381  88.509  72.179
37336DT     BB242672  69.089  88.341  72.310
37336DT     BB342673  68.931  88.474  72.322
37336DT     SC142674  69.036  88.591  72.533
37336DT     SC242675  68.916  88.546  72.706
37336DT     SC342676  69.142  88.777  72.686
37337DC     BB142677  68.821  88.342  72.119
37337DC     BB242678  68.570  88.335  72.378
37337DC     BB342679  68.460  88.510  72.376
37337DC     SC142680  68.658  88.645  72.484
37337DC     SC242681  68.604  88.701  72.684
37337DC     SC342682  68.851  88.823  72.512
37338DT     BB142683  68.245  88.380  72.270
37338DT     BB242684  68.113  88.544  72.563
37338DT     BB342685  68.056  88.738  72.517
37338DT     SC142686  68.306  88.817  72.509
37338DT     SC242687  68.345  88.947  72.676
37338DT     SC342688  68.534  88.911  72.414
37339DT     BB142689  67.769  88.702  72.505
37339DT     BB242690  67.804  88.978  72.734
37339DT     BB342691  67.794  89.157  72.631
37339DT     SC142692  68.037  89.124  72.535
37339DT     SC242693  68.169  89.268  72.625
37339DT     SC342694  68.232  89.090  72.362
37340DC     BB142695  67.507  89.271  72.672
37340DC     BB242696  67.714  89.547  72.776
37340DC     BB342697  67.734  89.683  72.621
37340DC     SC142698  67.901  89.524  72.494
37340DC     SC242699  68.098  89.611  72.497
37340DC     SC342700  68.000  89.367  72.306
37341DT     BB142701  67.539  89.933  72.672
37341DT     BB242702  67.861  90.092  72.639
37341DT     BB342703  67.881  90.173  72.450
37341DT     SC142704  67.917  89.936  72.343
37341DT     SC242705  68.121  89.918  72.277
37341DT     SC342706  67.877  89.721  72.195
37342DT     BB142707  67.846  90.467  72.500
37342DT     BB242708  68.175  90.444  72.355
37342DT     BB342709  68.166  90.485  72.152
37342DT     SC142710  68.060  90.251  72.101
37342DT     SC242711  68.202  90.129  71.996
37342DT     SC342712  67.885  90.069  72.024
37343DC     BB142713  68.289  90.736  72.176
37343DC     BB242714  68.509  90.548  71.960
37343DC     BB342715  68.456  90.578  71.762
37343DC     SC142716  68.245  90.423  71.787
37343DC     SC242717  68.276  90.242  71.675
37343DC     SC342718  67.993  90.347  71.793
37344DT     BB142719  68.683  90.719  71.735
37344DT     BB242720  68.712  90.446  71.500
37344DT     BB342721  68.623  90.498  71.321
37344DT     SC142722  68.383  90.466  71.423
37344DT     SC242723  68.290  90.293  71.335
37344DT     SC342724  68.139  90.523  71.507
37345DT     BB142725  68.870  90.500  71.230
37345DT     BB242726  68.697  90.255  71.030
37345DT     BB342727  68.595  90.348  70.877
37345DT     SC142728  68.410  90.436  71.041
37345DT     SC242729  68.226  90.333  71.003
37345DT     SC342730  68.260  90.602  71.179
37346DA     BB142731  68.824  90.024  70.742
37346DA     BB242732  68.486  89.994  70.603
37346DA     BB342733  68.453  90.145  70.456
37346DA     SC142734  68.338  90.351  70.659
37346DA     SC242735  68.118  90.456  70.711
37346DA     SC342736  68.255  90.638  70.828
37346DA     SC442737  68.441  90.455  70.725
37347DA     BB142738  68.371  89.865  70.310
37347DA     BB242739  68.039  90.015  70.267
37347DA     BB342740  68.046  90.171  70.122
37347DA     SC142741  68.106  90.394  70.331
37347DA     SC242742  67.988  90.590  70.431
37347DA     SC342743  68.222  90.673  70.494
37347DA     SC442744  68.260  90.429  70.360
37348DA     BB142745  67.801  89.982  70.019
37348DA     BB242746  67.589  90.278  70.051
37348DA     BB342747  67.636  90.420  69.899
37348DA     SC142748  67.849  90.569  70.069
37348DA     SC242749  67.874  90.791  70.181
37348DA     SC342750  68.125  90.742  70.177
37348DA     SC442751  68.002  90.521  70.056
37349DT     BB142752  67.495  90.448  69.778
37349DT     BB242753  67.401  90.778  69.888
37349DT     BB342754  67.481  90.921  69.761
37349DT     SC142755  67.721  90.887  69.861
37349DT     SC242756  67.776  91.063  69.973
37349DT     SC342757  67.977  90.827  69.878
37350DA     BB142758  67.071  90.995  69.813
37350DA     BB242759  67.251  91.312  69.854
37350DA     BB342760  67.327  91.378  69.666
37350DA     SC142761  67.600  91.233  69.697
37350DA     SC242762  67.839  91.294  69.733
37350DA     SC342763  67.892  91.061  69.641
37350DA     SC442764  67.613  91.084  69.636
37351DT     BB142765  67.251  91.550  69.576
37351DT     BB242766  67.536  91.764  69.631
37351DT     BB342767  67.638  91.793  69.453
37351DT     SC142768  67.739  91.551  69.463
37351DT     SC242769  67.951  91.563  69.501
37351DT     SC342770  67.791  91.301  69.397
37352DT     BB142771  67.548  92.054  69.423
37352DT     BB242772  67.907  92.086  69.407
37352DT     BB342773  67.971  92.066  69.211
37352DT     SC142774  67.931  91.807  69.215
37352DT     SC242775  68.121  91.705  69.210
37352DT     SC342776  67.831  91.570  69.156
37353DA     BB142777  68.138  92.426  69.345
37353DA     BB242778  68.406  92.233  69.186
37353DA     BB342779  68.386  92.239  68.974
37353DA     SC142780  68.209  91.983  68.959
37353DA     SC242781  68.231  91.749  68.877
37353DA     SC342782  67.974  91.747  68.875
37353DA     SC442783  68.050  92.003  68.963
37354DA     BB142784  68.697  92.343  68.991
37354DA     BB242785  68.789  92.049  68.792
37354DA     BB342786  68.738  92.079  68.587
37354DA     SC142787  68.454  91.956  68.615
37354DA     SC242788  68.333  91.751  68.540
37354DA     SC342789  68.119  91.884  68.586
37354DA     SC442790  68.332  92.056  68.648
37355DA     BB142791  69.054  91.999  68.553
37355DA     BB242792  68.941  91.718  68.346
37355DA     BB342793  68.878  91.787  68.154
37355DA     SC142794  68.582  91.828  68.239
37355DA     SC242795  68.360  91.723  68.193
37355DA     SC342796  68.261  91.944  68.277
37355DA     SC442797  68.539  91.973  68.293
37356DG     BB142798  69.104  91.602  68.041
37356DG     BB242799  68.828  91.432  67.880
37356DG     BB342800  68.778  91.528  67.713
37356DG     SC142801  68.575  91.712  67.849
37356DG     SC242802  68.280  91.710  67.806
37356DG     SC342803  68.361  91.944  67.968
37356DG     SC442804  68.626  91.851  67.910
37357DG     BB142805  68.836  91.264  67.508
37357DG     BB242806  68.488  91.281  67.412
37357DG     BB342807  68.465  91.411  67.264
37357DG     SC142808  68.418  91.651  67.449
37357DG     SC242809  68.162  91.803  67.477
37357DG     SC342810  68.382  91.938  67.621
37357DG     SC442811  68.544  91.735  67.500
37358DG     BB142812  68.342  91.212  66.996
37358DG     BB242813  68.040  91.411  67.000
37358DG     BB342814  68.057  91.562  66.872
37358DG     SC142815  68.177  91.754  67.077
37358DG     SC242816  68.048  92.001  67.183
37358DG     SC342817  68.330  91.985  67.270
37358DG     SC442818  68.336  91.757  67.096
37359DT     BB142819  67.938  91.656  66.598
37359DT     BB242820  67.720  91.914  66.725
37359DT     BB342821  67.779  92.099  66.652
37359DT     SC142822  67.985  92.106  66.814
37359DT     SC242823  67.952  92.258  66.963
37359DT     SC342824  68.235  92.113  66.898
37360DT     BB142825  67.586  92.201  66.398
37360DT     BB242826  67.553  92.469  66.637
37360DT     BB342827  67.667  92.631  66.577
37360DT     SC142828  67.889  92.511  66.649
37360DT     SC242829  67.971  92.611  66.821
37360DT     SC342830  68.126  92.398  66.632
37361DC     BB142831  67.459  92.828  66.476
37361DC     BB242832  67.617  93.001  66.751
37361DC     BB342833  67.759  93.132  66.679
37361DC     SC142834  67.925  92.936  66.626
37361DC     SC242835  68.092  92.945  66.761
37361DC     SC342836  68.078  92.771  66.489
37362DT     BB142837  67.597  93.335  66.755
37362DT     BB242838  67.897  93.375  66.951
37362DT     BB342839  68.035  93.489  66.846
37362DT     SC142840  68.091  93.288  66.687
37362DT     SC242841  68.291  93.218  66.728
37362DT     SC342842  68.113  93.145  66.466
37363DT     BB142843  67.980  93.659  67.037
37363DT     BB242844  68.334  93.595  67.063
37363DT     BB342845  68.437  93.710  66.925
37363DT     SC142846  68.360  93.556  66.727
37363DT     SC242847  68.530  93.447  66.651
37363DT     SC342848  68.243  93.479  66.503
37364DT     BB142849  68.518  93.828  67.143
37364DT     BB242850  68.818  93.719  66.974
37364DT     BB342851  68.867  93.853  66.824
37364DT     SC142852  68.673  93.764  66.671
37364DT     SC242853  68.758  93.659  66.503
37364DT     SC342854  68.451  93.760  66.529
37365DT     BB142855  69.072  93.928  66.978
37365DT     BB242856  69.223  93.834  66.664
37365DT     BB342857  69.216  93.994  66.532
37365DT     SC142858  68.959  93.959  66.491
37365DT     SC242859  68.928  93.887  66.290
37365DT     SC342860  68.700  94.006  66.487
37366DA     BB142861  69.618  93.873  66.539
37366DA     BB242862  69.521  93.911  66.188
37366DA     BB342863  69.507  94.118  66.136
37366DA     SC142864  69.206  94.142  66.210
37366DA     SC242865  68.989  94.173  66.091
37366DA     SC342866  68.899  94.251  66.319
37366DA     SC442867  69.169  94.188  66.360
37367DC     BB142868  69.645  94.218  65.998
37367DC     BB242869  69.415  94.244  65.721
37367DC     BB342870  69.359  94.441  65.694
37367DC     SC142871  69.202  94.434  65.905
37367DC     SC242872  68.997  94.444  65.842
37367DC     SC342873  69.105  94.488  66.144
37368DT     BB142874  69.512  94.475  65.463
37368DT     BB242875  69.177  94.557  65.359
37368DT     BB342876  69.142  94.759  65.384
37368DT     SC142877  69.122  94.732  65.644
37368DT     SC242878  68.917  94.765  65.703
37368DT     SC342879  69.174  94.757  65.901
37369DT     BB142880  69.148  94.793  65.114
37369DT     BB242881  68.823  94.913  65.215
37369DT     BB342882  68.834  95.114  65.265
37369DT     SC142883  68.953  95.057  65.493
37369DT     SC242884  68.819  95.100  65.655
37369DT     SC342885  69.138  95.048  65.681
37370DG     BB142886  68.554  95.038  64.982
37370DG     BB242887  68.418  95.221  65.264
37370DG     BB342888  68.477  95.410  65.256
37370DG     SC142889  68.732  95.363  65.419
37370DG     SC242890  68.787  95.470  65.693
37370DG     SC342891  69.029  95.343  65.578
37370DG     SC442892  68.866  95.321  65.343
37371DT     BB142893  68.324  95.532  65.246
37371DT     BB242894  68.321  95.684  65.573
37371DT     BB342895  68.422  95.865  65.568
37371DT     SC142896  68.654  95.743  65.558
37371DT     SC242897  68.759  95.774  65.743
37371DT     SC342898  68.889  95.663  65.468
37372DC     BB142899  68.183  95.968  65.599
37372DC     BB242900  68.380  96.102  65.870
37372DC     BB342901  68.492  96.263  65.803
37372DC     SC142902  68.659  96.104  65.677
37372DC     SC242903  68.849  96.108  65.776
37372DC     SC342904  68.792  95.991  65.480
37373DG     BB142905  68.263  96.405  66.109
37373DG     BB242906  68.611  96.494  66.154
37373DG     BB342907  68.657  96.648  66.037
37373DG     SC142908  68.739  96.474  65.799
37373DG     SC242909  69.016  96.447  65.689
37373DG     SC342910  68.818  96.315  65.512
37373DG     SC442911  68.628  96.430  65.693
37374DA     BB142912  68.783  96.820  66.315
37374DA     BB242913  69.113  96.841  66.157
37374DA     BB342914  69.116  96.996  66.010
37374DA     SC142915  69.030  96.809  65.777
37374DA     SC242916  69.131  96.711  65.571
37374DA     SC342917  68.890  96.676  65.493
37374DA     SC442918  68.872  96.797  65.745
37375DT     BB142919  69.232  97.170  66.035
37375DT     BB242920  69.489  97.084  65.797
37375DT     BB342921  69.470  97.201  65.627
37375DT     SC142922  69.261  97.064  65.546
37375DT     SC242923  69.314  96.950  65.372
37375DT     SC342924  69.013  97.008  65.477
37376DA     BB142925  69.866  97.230  65.757
37376DA     BB242926  69.870  97.154  65.398
37376DA     BB342927  69.814  97.326  65.285
37376DA     SC142928  69.511  97.256  65.284
37376DA     SC242929  69.339  97.181  65.119
37376DA     SC342930  69.168  97.270  65.288
37376DA     SC442931  69.420  97.318  65.401
37377DT     BB142932  69.953  97.392  65.175
37377DT     BB242933  69.819  97.280  64.859
37377DT     BB342934  69.729  97.438  64.761
37377DT     SC142935  69.522  97.430  64.922
37377DT     SC242936  69.350  97.360  64.814
37377DT     SC342937  69.346  97.505  65.104
37378DA     BB142938  69.992  97.233  64.505
37378DA     BB242939  69.676  97.285  64.328
37378DA     BB342940  69.650  97.492  64.281
37378DA     SC142941  69.499  97.557  64.545
37378DA     SC242942  69.268  97.619  64.615
37378DA     SC342943  69.378  97.708  64.828
37378DA     SC442944  69.586  97.608  64.670
37379DT     BB142945  69.653  97.537  64.092
37379DT     BB242946  69.303  97.615  64.053
37379DT     BB342947  69.276  97.820  64.054
37379DT     SC142948  69.314  97.833  64.313
37379DT     SC242949  69.128  97.882  64.410
37379DT     SC342950  69.422  97.895  64.545
37380DA     BB142951  69.085  97.698  63.698
37380DA     BB242952  68.858  97.930  63.868
37380DA     BB342953  68.928  98.131  63.848
37380DA     SC142954  69.098  98.123  64.109
37380DA     SC242955  69.091  98.226  64.336
37380DA     SC342956  69.340  98.168  64.348
37380DA     SC442957  69.252  98.080  64.096
37381DA     BB142958  68.637  98.236  63.706
37381DA     BB242959  68.592  98.469  63.986
37381DA     BB342960  68.704  98.648  63.952
37381DA     SC142961  68.960  98.544  64.095
37381DA     SC242962  69.086  98.591  64.305
37381DA     SC342963  69.284  98.477  64.187
37381DA     SC442964  69.071  98.471  64.004
37382DG     BB142965  68.445  98.848  63.941
37382DG     BB242966  68.588  98.994  64.240
37382DG     BB342967  68.709  99.144  64.191
37382DG     SC142968  68.958  98.967  64.166
37382DG     SC242969  69.197  98.976  64.344
37382DG     SC342970  69.246  98.801  64.111
37382DG     SC442971  68.990  98.898  64.025
37383DA     BB142972  68.549  99.391  64.395
37383DA     BB242973  68.854  99.436  64.594
37383DA     BB342974  68.985  99.575  64.497
37383DA     SC142975  69.137  99.356  64.336
37383DA     SC242976  69.363  99.252  64.335
37383DA     SC342977  69.306  99.180  64.095
37383DA     SC442978  69.083  99.322  64.189
37384DT     BB142979  69.043  99.792  64.571
37384DT     BB242980  69.373  99.703  64.687
37384DT     BB342981  69.517  99.794  64.569
37384DT     SC142982  69.472  99.626  64.372
37384DT     SC242983  69.642  99.496  64.350
37384DT     SC342984  69.403  99.534  64.135
37385DT     BB142985  69.597  99.993  64.759
37385DT     BB242986  69.902  99.814  64.686
37385DT     BB342987  70.004  99.908  64.533
37385DT     SC142988  69.835  99.818  64.354
37385DT     SC242989  69.933  99.671  64.231
37385DT     SC342990  69.650  99.816  64.166
37386DC     BB142991  70.203 100.010  64.702
37386DC     BB242992  70.383  99.809  64.462
37386DC     BB342993  70.441  99.925  64.301
37386DC     SC142994  70.196  99.930  64.207
37386DC     SC242995  70.187  99.814  64.026
37386DC     SC342996  69.961 100.022  64.130
37387DG     BB142997  70.772  99.757  64.465
37387DG     BB242998  70.743  99.680  64.112
37387DG     BB342999  70.803  99.836  64.004
37387DG     SC143000  70.526  99.965  63.991
37387DG     SC243001  70.359  99.998  63.746
37387DG     SC343002  70.241 100.145  63.974
37387DG     SC443003  70.482 100.067  64.107
37388DG     BB143004  71.000  99.615  63.884
37388DG     BB243005  70.827  99.672  63.571
37388DG     BB343006  70.896  99.837  63.484
37388DG     SC143007  70.696 100.024  63.621
37388DG     SC243008  70.478 100.176  63.486
37388DG     SC343009  70.505 100.259  63.769
37388DG     SC443010  70.734 100.086  63.764
37389DG     BB143011  70.921  99.608  63.264
37389DG     BB243012  70.695  99.815  63.072
37389DG     BB343013  70.792  99.974  63.003
37389DG     SC143014  70.731 100.148  63.248
37389DG     SC243015  70.556 100.390  63.252
37389DG     SC343016  70.700 100.359  63.509
37389DG     SC443017  70.831 100.144  63.372
37390DT     BB143018  70.760  99.959  62.828
37390DT     BB243019  70.541 100.236  62.757
37390DT     BB343020  70.652 100.407  62.720
37390DT     SC143021  70.708 100.435  62.975
37390DT     SC243022  70.606 100.608  63.052
37390DT     SC343023  70.848 100.450  63.198
37391DA     BB143024  70.332 100.332  62.449
37391DA     BB243025  70.335 100.687  62.540
37391DA     BB343026  70.513 100.780  62.469
37391DA     SC143027  70.675 100.724  62.728
37391DA     SC243028  70.770 100.855  62.918
37391DA     SC343029  70.922 100.652  62.956
37391DA     SC443030  70.762 100.589  62.734
37392DA     BB143031  70.280 100.982  62.349
37392DA     BB243032  70.453 101.250  62.529
37392DA     BB343033  70.641 101.293  62.438
37392DA     SC143034  70.799 101.090  62.612
37392DA     SC243035  70.969 101.097  62.794
37392DA     SC343036  71.021 100.854  62.727
37392DA     SC443037  70.818 100.941  62.555
37393DA     BB143038  70.531 101.607  62.422
37393DA     BB243039  70.821 101.701  62.626
37393DA     BB343040  70.998 101.703  62.506
37393DA     SC143041  71.070 101.406  62.564
37393DA     SC243042  71.243 101.279  62.691
37393DA     SC343043  71.177 101.080  62.542
37393DA     SC443044  71.015 101.295  62.462
37394DT     BB143045  71.107 101.883  62.457
37394DT     BB243046  71.386 101.826  62.679
37394DT     BB343047  71.554 101.775  62.569
37394DT     SC143048  71.461 101.534  62.523
37394DT     SC243049  71.578 101.390  62.631
37394DT     SC343050  71.370 101.324  62.392
37395DG     BB143051  71.663 102.111  62.774
37395DG     BB243052  71.898 101.842  62.830
37395DG     BB343053  72.023 101.828  62.676
37395DG     SC143054  71.847 101.632  62.519
37395DG     SC243055  71.913 101.348  62.458
37395DG     SC343056  71.671 101.433  62.312
37395DG     SC443057  71.736 101.690  62.420
37396DT     BB143058  72.232 101.858  62.710
37396DT     BB243059  72.356 101.519  62.692
37396DT     BB343060  72.445 101.487  62.508
37396DT     SC143061  72.212 101.474  62.389
37396DT     SC243062  72.176 101.271  62.325
37396DT     SC343063  72.012 101.534  62.227
37397DA     BB143064  72.699 101.362  62.819
37397DA     BB243065  72.681 101.094  62.570
37397DA     BB343066  72.784 101.151  62.392
37397DA     SC143067  72.532 101.276  62.258
37397DA     SC243068  72.381 101.225  62.067
37397DA     SC343069  72.316 101.473  62.078
37397DA     SC443070  72.507 101.433  62.280
37398DA     BB143071  72.917 100.859  62.462
37398DA     BB243072  72.800 100.752  62.131
37398DA     BB343073  72.913 100.847  61.978
37398DA     SC143074  72.722 101.091  61.954
37398DA     SC243075  72.559 101.183  61.788
37398DA     SC343076  72.589 101.405  61.912
37398DA     SC443077  72.756 101.221  62.043
37399DT     BB143078  73.032 100.733  61.864
37399DT     BB243079  72.837 100.749  61.560
37399DT     BB343080  72.924 100.883  61.428
37399DT     SC143081  72.839 101.088  61.567
37399DT     SC243082  72.687 101.192  61.456
37399DT     SC343083  72.844 101.307  61.715
37400DA     BB143084  72.899 100.533  61.191
37400DA     BB243085  72.767 100.809  60.989
37400DA     BB343086  72.926 100.930  60.916
37400DA     SC143087  72.924 101.123  61.160
37400DA     SC243088  72.863 101.360  61.207
37400DA     SC343089  73.012 101.336  61.415
37400DA     SC443090  73.022 101.089  61.283
37401DA     BB143091  72.832 100.888  60.591
37401DA     BB243092  72.772 101.249  60.571
37401DA     BB343093  72.953 101.353  60.529
37401DA     SC143094  73.027 101.394  60.828
37401DA     SC243095  73.042 101.583  60.990
37401DA     SC343096  73.193 101.427  61.127
37401DA     SC443097  73.120 101.283  60.898
37402DA     BB143098  72.812 101.492  60.258
37402DA     BB243099  72.854 101.819  60.418
37402DA     BB343100  73.052 101.892  60.387
37402DA     SC143101  73.166 101.763  60.646
37402DA     SC243102  73.251 101.840  60.868
37402DA     SC343103  73.366 101.610  60.880
37402DA     SC443104  73.231 101.616  60.634
37403DC     BB143105  73.101 102.069  60.263
37403DC     BB243106  73.165 102.292  60.540
37403DC     BB343107  73.367 102.334  60.550
37403DC     SC143108  73.421 102.097  60.648
37403DC     SC243109  73.481 102.116  60.853
37403DC     SC343110  73.520 101.853  60.668
37404DT     BB143111  73.338 102.595  60.455
37404DT     BB243112  73.497 102.637  60.775
37404DT     BB343113  73.703 102.634  60.753
37404DT     SC143114  73.703 102.374  60.716
37404DT     SC243115  73.795 102.278  60.886
37404DT     SC343116  73.735 102.140  60.599
37405DT     BB143117  73.728 102.906  60.798
37405DT     BB243118  73.936 102.755  61.051
37405DT     BB343119  74.128 102.730  60.979
37405DT     SC143120  74.054 102.527  60.830
37405DT     SC243121  74.138 102.346  60.908
37405DT     SC343122  74.005 102.381  60.615
37406DA     BB143123  74.165 102.937  61.341
37406DA     BB243124  74.391 102.649  61.353
37406DA     BB343125  74.563 102.684  61.231
37406DA     SC143126  74.437 102.560  60.975
37406DA     SC243127  74.469 102.357  60.833
37406DA     SC343128  74.345 102.489  60.652
37406DA     SC443129  74.360 102.659  60.875
37407DA     BB143130  74.713 102.611  61.511
37407DA     BB243131  74.854 102.322  61.336
37407DA     BB343132  75.014 102.383  61.209
37407DA     SC143133  74.833 102.429  60.961
37407DA     SC243134  74.794 102.323  60.738
37407DA     SC343135  74.691 102.549  60.672
37407DA     SC443136  74.774 102.577  60.938
37408DC     BB143137  75.181 102.310  61.262
37408DC     BB243138  75.196 102.060  61.002
37408DC     BB343139  75.326 102.121  60.853
37408DC     SC143140  75.152 102.295  60.762
37408DC     SC243141  75.079 102.229  60.570
37408DC     SC343142  75.043 102.526  60.695
37409DC     BB143143  75.450 101.919  60.952
37409DC     BB243144  75.387 101.839  60.606
37409DC     BB343145  75.524 101.936  60.485
37409DC     SC143146  75.402 102.166  60.519
37409DC     SC243147  75.308 102.225  60.335
37409DC     SC343148  75.360 102.416  60.591
37410DT     BB143149  75.548 101.686  60.466
37410DT     BB243150  75.475 101.810  60.136
37410DT     BB343151  75.637 101.916  60.063
37410DT     SC143152  75.585 102.120  60.219
37410DT     SC243153  75.516 102.285  60.099
37410DT     SC343154  75.612 102.301  60.408
37411DC     BB143155  75.599 101.711  59.918
37411DC     BB243156  75.593 101.997  59.698
37411DC     BB343157  75.783 102.076  59.679
37411DC     SC143158  75.772 102.181  59.919
37411DC     SC243159  75.761 102.395  59.902
37411DC     SC343160  75.829 102.229  60.172
37412DA     BB143161  75.586 102.029  59.306
37412DA     BB243162  75.754 102.355  59.313
37412DA     BB343163  75.966 102.329  59.317
37412DA     SC143164  75.984 102.327  59.628
37412DA     SC243165  76.071 102.474  59.809
37412DA     SC343166  76.069 102.263  59.954
37412DA     SC443167  75.976 102.184  59.702
37413DT     BB143168  76.072 102.386  59.158
37413DT     BB243169  76.237 102.671  59.304
37413DT     BB343170  76.432 102.623  59.354
37413DT     SC143171  76.353 102.484  59.562
37413DT     SC243172  76.410 102.586  59.742
37413DT     SC343173  76.311 102.278  59.722
37414DA     BB143174  76.492 102.962  59.110
37414DA     BB243175  76.697 103.009  59.410
37414DA     BB343176  76.872 102.888  59.400
37414DA     SC143177  76.741 102.644  59.543
37414DA     SC243178  76.760 102.527  59.762
37414DA     SC343179  76.648 102.329  59.642
37414DA     SC443180  76.672 102.532  59.450
37415DC     BB143181  77.090 102.960  59.376
37415DC     BB243182  77.191 102.899  59.717
37415DC     BB343183  77.326 102.741  59.723
37415DC     SC143184  77.134 102.566  59.683
37415DC     SC243185  77.104 102.451  59.862
37415DC     SC343186  76.991 102.377  59.567
37416DA     BB143187  77.532 103.049  59.921
37416DA     BB243188  77.545 102.753  60.137
37416DA     BB343189  77.689 102.614  60.064
37416DA     SC143190  77.486 102.460  59.885
37416DA     SC243191  77.376 102.236  59.882
37416DA     SC343192  77.334 102.283  59.633
37416DA     SC443193  77.471 102.507  59.732
37417DA     BB143194  77.804 102.641  60.369
37417DA     BB243195  77.729 102.284  60.409
37417DA     BB343196  77.878 102.166  60.311
37417DA     SC143197  77.727 102.155  60.040
37417DA     SC243198  77.606 101.986  59.902
37417DA     SC343199  77.645 102.147  59.706
37417DA     SC443200  77.762 102.268  59.931
37418DA     BB143201  77.877 102.038  60.611
37418DA     BB243202  77.775 101.723  60.452
37418DA     BB343203  77.940 101.635  60.350
37418DA     SC143204  77.880 101.777  60.080
37418DA     SC243205  77.800 101.714  59.852
37418DA     SC343206  77.904 101.936  59.776
37418DA     SC443207  77.953 101.918  60.052
37419DC     BB143208  77.990 101.473  60.425
37419DC     BB243209  77.860 101.261  60.162
37419DC     BB343210  78.013 101.203  60.036
37419DC     SC143211  78.023 101.441  59.925
37419DC     SC243212  77.950 101.429  59.723
37419DC     SC343213  78.115 101.677  59.851
37420DA     BB143214  77.794 100.865  60.155
37420DA     BB243215  77.839 100.851  59.791
37420DA     BB343216  78.042 100.808  59.743
37420DA     SC143217  78.127 101.107  59.730
37420DA     SC243218  78.197 101.272  59.556
37420DA     SC343219  78.298 101.405  59.751
37420DA     SC443220  78.185 101.174  59.864
37421DT     BB143221  78.096 100.626  59.654
37421DT     BB243222  78.167 100.754  59.325
37421DT     BB343223  78.372 100.756  59.292
37421DT     SC143224  78.402 100.966  59.448
37421DT     SC243225  78.456 101.136  59.329
37421DT     SC343226  78.481 101.114  59.651
37422DT     BB143227  78.365 100.539  59.120
37422DT     BB243228  78.527 100.797  58.927
37422DT     BB343229  78.732 100.790  58.958
37422DT     SC143230  78.707 100.896  59.196
37422DT     SC243231  78.789 101.096  59.194
37422DT     SC343232  78.717 100.923  59.458
37423DA     BB143233  78.694 100.771  58.540
37423DA     BB243234  78.944 101.029  58.615
37423DA     BB343235  79.129 100.939  58.670
37423DA     SC143236  79.064 100.931  58.974
37423DA     SC243237  79.141 101.044  59.182
37423DA     SC343238  79.038 100.844  59.305
37423DA     SC443239  78.995 100.798  59.032
37424DC     BB143240  79.303 100.956  58.547
37424DC     BB243241  79.478 101.194  58.754
37424DC     BB343242  79.638 101.102  58.848
37424DC     SC143243  79.478 100.979  59.016
37424DC     SC243244  79.504 101.061  59.213
37424DC     SC343245  79.352 100.784  59.142
37425DC     BB143246  79.819 101.231  58.687
37425DC     BB243247  79.919 101.322  59.022
37425DC     BB343248  80.052 101.182  59.096
37425DC     SC143249  79.859 101.007  59.134
37425DC     SC243250  79.827 100.981  59.345
37425DC     SC343251  79.715 100.787  59.110
37426DC     BB143252  80.255 101.361  59.072
37426DC     BB243253  80.260 101.266  59.420
37426DC     BB343254  80.376 101.097  59.446
37426DC     SC143255  80.190 100.944  59.343
37426DC     SC243256  80.106 100.819  59.497
37426DC     SC343257  80.070 100.777  59.178
37427DA     BB143258  80.513 101.383  59.721
37427DA     BB243259  80.468 101.068  59.902
37427DA     BB343260  80.623 100.931  59.852
37427DA     SC143261  80.467 100.803  59.615
37427DA     SC243262  80.357 100.585  59.562
37427DA     SC343263  80.378 100.657  59.317
37427DA     SC443264  80.490 100.865  59.468
37428DA     BB143265  80.666 100.919  60.178
37428DA     BB243266  80.594 100.560  60.159
37428DA     BB343267  80.763 100.454  60.083
37428DA     SC143268  80.674 100.476  59.786
37428DA     SC243269  80.590 100.324  59.607
37428DA     SC343270  80.665 100.507  59.444
37428DA     SC443271  80.728 100.601  59.701
37429DA     BB143272  80.738 100.270  60.359
37429DA     BB243273  80.685  99.979  60.143
37429DA     BB343274  80.870  99.911  60.062
37429DA     SC143275  80.852 100.088  59.807
37429DA     SC243276  80.817 100.056  59.562
37429DA     SC343277  80.921 100.289  59.537
37429DA     SC443278  80.920 100.233  59.812
37430DT     BB143279  80.963  99.720  60.116
37430DT     BB243280  80.887  99.549  59.807
37430DT     BB343281  81.060  99.521  59.698
37430DT     SC143282  81.066  99.774  59.628
37430DT     SC243283  81.024  99.791  59.418
37430DT     SC343284  81.150 100.023  59.607
37431DT     BB143285  81.061  99.252  59.752
37431DT     BB243286  81.058  99.271  59.392
37431DT     BB343287  81.251  99.283  59.320
37431DT     SC143288  81.272  99.534  59.395
37431DT     SC243289  81.277  99.660  59.221
37431DT     SC343290  81.356  99.748  59.522
37432DC     BB143291  81.226  99.032  59.229
37432DC     BB243292  81.307  99.228  58.937
37432DC     BB343293  81.512  99.250  58.922
37432DC     SC143294  81.516  99.425  59.117
37432DC     SC243295  81.563  99.620  59.039
37432DC     SC343296  81.570  99.534  59.351
37433DA     BB143297  81.364  99.114  58.553
37433DA     BB243298  81.583  99.400  58.489
37433DA     BB343299  81.787  99.346  58.521
37433DA     SC143300  81.787  99.429  58.821
37433DA     SC243301  81.887  99.607  58.964
37433DA     SC343302  81.842  99.448  59.160
37433DA     SC443303  81.751  99.316  58.929
37434DC     BB143304  81.907  99.345  58.363
37434DC     BB243305  82.090  99.646  58.445
37434DC     BB343306  82.276  99.596  58.521
37434DC     SC143307  82.171  99.523  58.750
37434DC     SC243308  82.228  99.664  58.903
37434DC     SC343309  82.100  99.371  58.953
37435DT     BB143310  82.403  99.676  58.291
37435DT     BB243311  82.559  99.871  58.552
37435DT     BB343312  82.718  99.765  58.633
37435DT     SC143313  82.555  99.606  58.764
37435DT     SC243314  82.569  99.647  58.975
37435DT     SC343315  82.431  99.386  58.840
37436DA     BB143316  82.886 100.135  58.523
37436DA     BB243317  82.981 100.069  58.871
37436DA     BB343318  83.134  99.920  58.879
37436DA     SC143319  82.936  99.682  58.901
37436DA     SC243320  82.866  99.515  59.073
37436DA     SC343321  82.779  99.377  58.874
37436DA     SC443322  82.890  99.611  58.764
37437DA     BB143323  83.303 100.147  59.050
37437DA     BB243324  83.290  99.915  59.334
37437DA     BB343325  83.437  99.762  59.311
37437DA     SC143326  83.246  99.568  59.160
37437DA     SC243327  83.132  99.351  59.203
37437DA     SC343328  83.113  99.333  58.948
37437DA     SC443329  83.246  99.575  58.999
37438DC     BB143330  83.586  99.756  59.446
37438DC     BB243331  83.453  99.478  59.633
37438DC     BB343332  83.563  99.306  59.592
37438DC     SC143333  83.451  99.281  59.356
37438DC     SC243334  83.321  99.110  59.357
37438DC     SC343335  83.424  99.269  59.094
37439DT     BB143336  83.640  99.336  59.841
37439DT     BB243337  83.473  99.017  59.827
37439DT     BB343338  83.603  98.872  59.755
37439DT     SC143339  83.582  98.964  59.510
37439DT     SC243340  83.474  98.822  59.390
37439DT     SC343341  83.649  99.071  59.279
37440DC     BB143342  83.547  98.811  59.995
37440DC     BB243343  83.435  98.537  59.788
37440DC     BB343344  83.598  98.429  59.719
37440DC     SC143345  83.659  98.617  59.546
37440DC     SC243346  83.621  98.545  59.347
37440DC     SC343347  83.794  98.808  59.425
37441DT     BB143348  83.470  98.271  59.873
37441DT     BB243349  83.490  98.107  59.553
37441DT     BB343350  83.682  98.035  59.522
37441DT     SC143351  83.773  98.276  59.474
37441DT     SC243352  83.826  98.293  59.266
37441DT     SC343353  83.912  98.499  59.501
37442DT     BB143354  83.547  97.817  59.545
37442DT     BB243355  83.722  97.793  59.230
37442DT     BB343356  83.921  97.747  59.263
37442DT     SC143357  83.972  97.991  59.345
37442DT     SC243358  84.096  98.090  59.199
37442DT     SC343359  84.041  98.190  59.503
37443DA     BB143360  83.770  97.477  58.976
37443DA     BB243361  84.097  97.596  58.861
37443DA     BB343362  84.253  97.514  58.982
37443DA     SC143363  84.252  97.750  59.185
37443DA     SC243364  84.402  97.940  59.248
37443DA     SC343365  84.269  97.944  59.468
37443DA     SC443366  84.159  97.736  59.315
37444DG     BB143367  84.375  97.368  58.727
37444DG     BB243368  84.664  97.576  58.793
37444DG     BB343369  84.781  97.488  58.928
37444DG     SC143370  84.641  97.618  59.168
37444DG     SC243371  84.762  97.819  59.353
37444DG     SC343372  84.500  97.727  59.454
37444DG     SC443373  84.515  97.545  59.233
37445DC     BB143374  85.014  97.396  58.903
37445DC     BB243375  85.205  97.649  59.076
37445DC     BB343376  85.276  97.574  59.255
37445DC     SC143377  85.039  97.590  59.365
37445DC     SC243378  85.039  97.744  59.515
37445DC     SC343379  84.813  97.515  59.479
37446DT     BB143380  85.552  97.537  59.179
37446DT     BB243381  85.573  97.750  59.469
37446DT     BB343382  85.597  97.636  59.639
37446DT     SC143383  85.346  97.561  59.635
37446DT     SC243384  85.242  97.652  59.800
37446DT     SC343385  85.133  97.406  59.619
37447DA     BB143386  85.918  97.905  59.656
37447DA     BB243387  85.747  97.919  59.980
37447DA     BB343388  85.799  97.749  60.098
37447DA     SC143389  85.563  97.575  59.995
37447DA     SC243390  85.350  97.481  60.084
37447DA     SC343391  85.364  97.316  59.888
37447DA     SC443392  85.591  97.480  59.868
37448DA     BB143393  85.877  97.984  60.311
37448DA     BB243394  85.617  97.847  60.529
37448DA     BB343395  85.686  97.669  60.624
37448DA     SC143396  85.583  97.479  60.401
37448DA     SC243397  85.404  97.307  60.373
37448DA     SC343398  85.544  97.224  60.175
37448DA     SC443399  85.684  97.441  60.282
37449DC     BB143400  85.700  97.686  60.813
37449DC     BB243401  85.409  97.490  60.894
37449DC     BB343402  85.465  97.300  60.955
37449DC     SC143403  85.521  97.229  60.709
37449DC     SC243404  85.377  97.084  60.642
37449DC     SC343405  85.659  97.151  60.498
37450DT     BB143406  85.381  97.384  61.189
37450DT     BB243407  85.187  97.088  61.116
37450DT     BB343408  85.296  96.919  61.164
37450DT     SC143409  85.447  96.947  60.951
37450DT     SC243410  85.403  96.790  60.811
37450DT     SC343411  85.662  96.986  60.803
37451DA     BB143412  84.903  96.909  61.320
37451DA     BB243413  84.974  96.589  61.155
37451DA     BB343414  85.122  96.481  61.263
37451DA     SC143415  85.361  96.601  61.106
37451DA     SC243416  85.531  96.524  60.940
37451DA     SC343417  85.666  96.729  61.013
37451DA     SC443418  85.431  96.733  61.165
37452DT     BB143419  85.053  96.326  61.331
37452DT     BB243420  85.223  96.098  61.108
37452DT     BB343421  85.393  96.024  61.199
37452DT     SC143422  85.520  96.252  61.164
37452DT     SC243423  85.675  96.225  61.017
37452DT     SC343424  85.646  96.477  61.219
37453DT     BB143425  85.266  95.792  61.216
37453DT     BB243426  85.570  95.720  61.035
37453DT     BB343427  85.726  95.692  61.168
37453DT     SC143428  85.742  95.950  61.214
37453DT     SC243429  85.924  96.027  61.130
37453DT     SC343430  85.734  96.180  61.344
37454DA     BB143431  85.721  95.360  60.911
37454DA     BB243432  86.064  95.488  60.925
37454DA     BB343433  86.152  95.444  61.114
37454DA     SC143434  86.060  95.710  61.246
37454DA     SC243435  86.165  95.921  61.328
37454DA     SC343436  85.949  95.950  61.465
37454DA     SC443437  85.919  95.710  61.324
37455DA     BB143438  86.380  95.315  60.916
37455DA     BB243439  86.613  95.557  61.063
37455DA     BB343440  86.665  95.499  61.262
37455DA     SC143441  86.434  95.658  61.396
37455DA     SC243442  86.408  95.859  61.540
37455DA     SC343443  86.178  95.761  61.601
37455DA     SC443444  86.296  95.579  61.422
37456DA     BB143445  86.960  95.539  61.124
37456DA     BB243446  87.015  95.800  61.376
37456DA     BB343447  87.045  95.712  61.568
37456DA     SC143448  86.743  95.720  61.644
37456DA     SC243449  86.596  95.843  61.803
37456DA     SC343450  86.431  95.649  61.769
37456DA     SC443451  86.655  95.589  61.611
37457DT     BB143452  87.217  95.742  61.639
37457DT     BB243453  87.122  95.987  61.885
37457DT     BB343454  87.107  95.898  62.072
37457DT     SC143455  86.880  95.784  62.008
37457DT     SC243456  86.720  95.874  62.119
37457DT     SC343457  86.703  95.595  61.956
37458DA     BB143458  87.345  96.245  62.094
37458DA     BB243459  87.095  96.257  62.363
37458DA     BB343460  87.139  96.110  62.511
37458DA     SC143461  86.966  95.888  62.377
37458DA     SC243462  86.753  95.767  62.423
37458DA     SC343463  86.843  95.590  62.260
37458DA     SC443464  87.040  95.789  62.274
37459DA     BB143465  87.112  96.384  62.691
37459DA     BB243466  86.837  96.214  62.864
37459DA     BB343467  86.913  96.057  62.988
37459DA     SC143468  86.893  95.839  62.768
37459DA     SC243469  86.756  95.636  62.721
37459DA     SC343470  86.947  95.568  62.564
37459DA     SC443471  87.023  95.814  62.676
37460DC     BB143472  86.888  96.083  63.178
37460DC     BB243473  86.627  95.837  63.221
37460DC     BB343474  86.706  95.663  63.300
37460DC     SC143475  86.814  95.599  63.069
37460DC     SC243476  86.712  95.428  62.988
37460DC     SC343477  86.998  95.544  62.888
37461DA     BB143478  86.387  95.766  63.552
37461DA     BB243479  86.349  95.412  63.463
37461DA     BB343480  86.492  95.293  63.568
37461DA     SC143481  86.709  95.314  63.347
37461DA     SC243482  86.817  95.163  63.179
37461DA     SC343483  87.005  95.337  63.174
37461DA     SC443484  86.817  95.433  63.359
37462DA     BB143485  86.218  95.134  63.652
37462DA     BB243486  86.361  94.841  63.485
37462DA     BB343487  86.515  94.755  63.604
37462DA     SC143488  86.743  94.924  63.477
37462DA     SC243489  86.939  94.887  63.328
37462DA     SC343490  87.027  95.109  63.422
37462DA     SC443491  86.781  95.063  63.549
37463DA     BB143492  86.323  94.497  63.546
37463DA     BB243493  86.615  94.346  63.382
37463DA     BB343494  86.759  94.286  63.528
37463DA     SC143495  86.912  94.557  63.524
37463DA     SC243496  87.133  94.643  63.447
37463DA     SC343497  87.090  94.838  63.608
37463DA     SC443498  86.867  94.669  63.630
37464DC     BB143499  86.785  94.099  63.535
37464DC     BB243500  87.110  94.093  63.379
37464DC     BB343501  87.258  94.075  63.523
37464DC     SC143502  87.228  94.326  63.595
37464DC     SC243503  87.402  94.438  63.536
37464DC     SC343504  87.174  94.537  63.744
37465DA     BB143505  87.322  93.784  63.226
37465DA     BB243506  87.641  93.952  63.293
37465DA     BB343507  87.716  93.896  63.485
37465DA     SC143508  87.575  94.129  63.635
37465DA     SC243509  87.641  94.340  63.751
37465DA     SC343510  87.412  94.324  63.865
37465DA     SC443511  87.429  94.101  63.696
37466DC     BB143512  87.885  93.786  63.495
37466DC     BB243513  88.102  94.046  63.618
37466DC     BB343514  88.137  94.020  63.820
37466DC     SC143515  87.897  94.106  63.881
37466DC     SC243516  87.912  94.297  63.979
37466DC     SC343517  87.649  94.107  63.972
37467DC     BB143518  88.401  93.923  63.792
37467DC     BB243519  88.436  94.201  64.019
37467DC     BB343520  88.416  94.135  64.215
37467DC     SC143521  88.156  94.110  64.187
37467DC     SC243522  88.057  94.260  64.305
37467DC     SC343523  87.917  93.999  64.175
37468DT     BB143524  88.695  94.139  64.298
37468DT     BB243525  88.531  94.348  64.543
37468DT     BB343526  88.477  94.235  64.707
37468DT     SC143527  88.278  94.125  64.577
37468DT     SC243528  88.092  94.196  64.657
37468DT     SC343529  88.129  93.941  64.461
37469DA     BB143530  88.712  94.532  64.896
37469DA     BB243531  88.390  94.521  65.071
37469DA     BB343532  88.385  94.357  65.208
37469DA     SC143533  88.266  94.157  65.002
37469DA     SC243534  88.050  94.037  64.964
37469DA     SC343535  88.188  93.877  64.818
37469DA     SC443536  88.369  94.068  64.917
37470DA     BB143537  88.315  94.587  65.430
37470DA     BB243538  87.985  94.429  65.459
37470DA     BB343539  87.996  94.258  65.586
37470DA     SC143540  88.058  94.059  65.355
37470DA     SC243541  87.943  93.873  65.235
37470DA     SC343542  88.179  93.801  65.163
37470DA     SC443543  88.213  94.030  65.321
37471DT     BB143544  87.891  94.274  65.747
37471DT     BB243545  87.620  94.066  65.633
37471DT     BB343546  87.630  93.880  65.724
37471DT     SC143547  87.832  93.808  65.572
37471DT     SC243548  87.767  93.655  65.435
37471DT     SC343549  88.074  93.733  65.501
37472DA     BB143550  87.252  94.065  65.723
37472DA     BB243551  87.218  93.721  65.598
37472DA     BB343552  87.254  93.582  65.755
37472DA     SC143553  87.559  93.559  65.699
37472DA     SC243554  87.718  93.389  65.609
37472DA     SC343555  87.899  93.527  65.727
37472DA     SC443556  87.657  93.658  65.779
37473DG     BB143557  86.976  93.530  65.637
37473DG     BB243558  87.132  93.215  65.553
37473DG     BB343559  87.156  93.105  65.717
37473DG     SC143560  87.433  93.216  65.782
37473DG     SC243561  87.690  93.064  65.774
37473DG     SC343562  87.730  93.332  65.893
37473DG     SC443563  87.445  93.348  65.872
37474DA     BB143564  87.009  92.876  65.505
37474DA     BB243565  87.295  92.653  65.558
37474DA     BB343566  87.295  92.578  65.758
37474DA     SC143567  87.468  92.809  65.872
37474DA     SC243568  87.699  92.840  65.962
37474DA     SC343569  87.606  93.053  66.071
37474DA     SC443570  87.391  92.937  65.933
37475DT     BB143571  87.268  92.392  65.767
37475DT     BB243572  87.603  92.300  65.864
37475DT     BB343573  87.611  92.268  66.068
37475DT     SC143574  87.601  92.525  66.118
37475DT     SC243575  87.790  92.591  66.195
37475DT     SC343576  87.513  92.758  66.206
37476DG     BB143577  87.736  91.920  65.894
37476DG     BB243578  87.971  92.033  66.144
37476DG     BB343579  87.904  91.988  66.326
37476DG     SC143580  87.752  92.252  66.361
37476DG     SC243581  87.817  92.467  66.557
37476DG     SC343582  87.558  92.520  66.425
37476DG     SC443583  87.600  92.261  66.310
37477DA     BB143584  88.211  91.836  66.386
37477DA     BB243585  88.270  92.064  66.667
37477DA     BB343586  88.155  92.004  66.837
37477DA     SC143587  87.909  92.180  66.762
37477DA     SC243588  87.795  92.384  66.848
37477DA     SC343589  87.592  92.302  66.714
37477DA     SC443590  87.793  92.111  66.674
37478DT     BB143591  88.252  91.938  67.000
37478DT     BB243592  88.199  92.231  67.204
37478DT     BB343593  88.053  92.193  67.346
37478DT     SC143594  87.863  92.207  67.166
37478DT     SC243595  87.745  92.383  67.201
37478DT     SC343596  87.662  92.134  67.011
37479DA     BB143597  88.390  92.355  67.536
37479DA     BB243598  88.094  92.538  67.653
37479DA     BB343599  87.977  92.415  67.782
37479DA     SC143600  87.801  92.299  67.554
37479DA     SC243601  87.565  92.316  67.477
37479DA     SC343602  87.611  92.095  67.353
37479DA     SC443603  87.849  92.161  67.486
37480DC     BB143604  87.969  92.479  67.960
37480DC     BB243605  87.627  92.594  67.953
37480DC     BB343606  87.504  92.455  68.044
37480DC     SC143607  87.519  92.294  67.837
37480DC     SC243608  87.329  92.288  67.736
37480DC     SC343609  87.574  92.081  67.692
37481DA     BB143610  87.421  92.824  68.224
37481DA     BB243611  87.101  92.669  68.138
37481DA     BB343612  87.058  92.508  68.272
37481DA     SC143613  87.196  92.292  68.094
37481DA     SC243614  87.128  92.098  67.954
37481DA     SC343615  87.372  92.020  67.980
37481DA     SC443616  87.351  92.260  68.123
37482DA     BB143617  86.777  92.674  68.313
37482DA     BB243618  86.602  92.375  68.192
37482DA     BB343619  86.598  92.225  68.344
37482DA     SC143620  86.864  92.092  68.252
37482DA     SC243621  86.936  91.878  68.145
37482DA     SC343622  87.168  91.932  68.241
37482DA     SC443623  87.000  92.142  68.322
37483DG     BB143624  86.286  92.247  68.328
37483DG     BB243625  86.309  91.903  68.218
37483DG     BB343626  86.321  91.782  68.376
37483DG     SC143627  86.627  91.791  68.389
37483DG     SC243628  86.811  91.562  68.336
37483DG     SC343629  86.960  91.793  68.445
37483DG     SC443630  86.698  91.906  68.475
37484DT     BB143631  86.161  91.623  68.434
37484DT     BB243632  86.327  91.316  68.341
37484DT     BB343633  86.391  91.216  68.511
37484DT     SC143634  86.588  91.385  68.546
37484DT     SC243635  86.775  91.286  68.508
37484DT     SC343636  86.739  91.571  68.657
37485DT     BB143637  86.192  91.020  68.496
37485DT     BB243638  86.499  90.830  68.505
37485DT     BB343639  86.550  90.788  68.701
37485DT     SC143640  86.629  91.035  68.742
37485DT     SC243641  86.842  91.039  68.765
37485DT     SC343642  86.638  91.279  68.843
37486DA     BB143643  86.548  90.404  68.527
37486DA     BB243644  86.862  90.434  68.715
37486DA     BB343645  86.826  90.410  68.923
37486DA     SC143646  86.780  90.713  68.976
37486DA     SC243647  86.897  90.900  69.092
37486DA     SC343648  86.667  91.015  69.094
37486DA     SC443649  86.629  90.767  68.969
37487DA     BB143650  87.052  90.161  68.928
37487DA     BB243651  87.253  90.363  69.159
37487DA     BB343652  87.180  90.342  69.358
37487DA     SC143653  86.984  90.583  69.338
37487DA     SC243654  86.964  90.813  69.432
37487DA     SC343655  86.716  90.795  69.368
37487DA     SC443656  86.833  90.552  69.292
37488DA     BB143657  87.486  90.244  69.452
37488DA     BB243658  87.502  90.543  69.664
37488DA     BB343659  87.402  90.508  69.850
37488DA     SC143660  87.127  90.610  69.748
37488DA     SC243661  86.976  90.805  69.787
37488DA     SC343662  86.791  90.656  69.690
37488DA     SC443663  87.025  90.501  69.686
37489DT     BB143664  87.506  90.498  70.047
37489DT     BB243665  87.403  90.826  70.156
37489DT     BB343666  87.268  90.810  70.312
37489DT     SC143667  87.076  90.735  70.149
37489DT     SC243668  86.929  90.892  70.136
37489DT     SC343669  86.891  90.586  70.036
37490DC     BB143670  87.455  90.900  70.489
37490DC     BB243671  87.184  91.137  70.513
37490DC     BB343672  87.047  91.074  70.655
37490DC     SC143673  86.954  90.889  70.494
37490DC     SC243674  86.755  90.941  70.432
37490DC     SC343675  86.894  90.650  70.398
37491DG     BB143676  87.186  91.451  70.722
37491DG     BB243677  86.825  91.439  70.705
37491DG     BB343678  86.751  91.357  70.870
37491DG     SC143679  86.759  91.071  70.763
37491DG     SC243680  86.522  90.899  70.704
37491DG     SC343681  86.773  90.743  70.684
37491DG     SC443682  86.892  90.984  70.782
37492DT     BB143683  86.632  91.482  70.956
37492DT     BB243684  86.309  91.337  70.889
37492DT     BB343685  86.250  91.217  71.047
37492DT     SC143686  86.419  91.029  70.976
37492DT     SC243687  86.309  90.859  70.903
37492DT     SC343688  86.623  90.861  70.986
37493DT     BB143689  86.076  91.408  71.076
37493DT     BB243690  85.884  91.105  71.037
37493DT     BB343691  85.881  91.000  71.216
37493DT     SC143692  86.129  90.921  71.184
37493DT     SC243693  86.132  90.709  71.145
37493DT     SC343694  86.387  90.891  71.227
37494DA     BB143695  85.493  91.041  71.055
37494DA     BB243696  85.543  90.691  71.154
37494DA     BB343697  85.553  90.675  71.366
37494DA     SC143698  85.861  90.710  71.380
37494DA     SC243699  86.061  90.571  71.433
37494DA     SC343700  86.181  90.794  71.472
37494DA     SC443701  85.918  90.860  71.400
37495DC     BB143702  85.409  90.577  71.445
37495DC     BB243703  85.597  90.281  71.531
37495DC     BB343704  85.646  90.285  71.732
37495DC     SC143705  85.831  90.466  71.692
37495DC     SC243706  86.025  90.378  71.722
37495DC     SC343707  85.961  90.696  71.705
37496DT     BB143708  85.467  90.089  71.773
37496DT     BB243709  85.777  89.958  71.901
37496DT     BB343710  85.806  90.021  72.096
37496DT     SC143711  85.869  90.263  72.016
37496DT     SC243712  86.078  90.298  72.052
37496DT     SC343713  85.857  90.524  71.983
37497DA     BB143714  85.853  89.604  72.090
37497DA     BB243715  86.139  89.748  72.269
37497DA     BB343716  86.078  89.819  72.460
37497DA     SC143717  86.012  90.106  72.359
37497DA     SC243718  86.105  90.336  72.384
37497DA     SC343719  85.872  90.416  72.310
37497DA     SC443720  85.861  90.136  72.313
37498DA     BB143721  86.328  89.626  72.546
37498DA     BB243722  86.486  89.927  72.683
37498DA     BB343723  86.389  89.985  72.864
37498DA     SC143724  86.184  90.172  72.722
37498DA     SC243725  86.139  90.416  72.704
37498DA     SC343726  85.903  90.347  72.631
37498DA     SC443727  86.042  90.108  72.680
37499DA     BB143728  86.701  89.972  72.963
37499DA     BB243729  86.668  90.328  73.043
37499DA     BB343730  86.547  90.354  73.217
37499DA     SC143731  86.281  90.377  73.059
37499DA     SC243732  86.112  90.553  73.005
37499DA     SC343733  85.953  90.358  72.956
37499DA     SC443734  86.197  90.242  73.034
37500DA     BB143735  86.814  90.525  73.303
37500DA     BB243736  86.592  90.816  73.330
37500DA     BB343737  86.469  90.799  73.503
37500DA     SC143738  86.238  90.652  73.355
37500DA     SC243739  86.004  90.700  73.283
37500DA     SC343740  85.977  90.445  73.271
37500DA     SC443741  86.241  90.491  73.355
37501DG     BB143742  86.605  91.065  73.593
37501DG     BB243743  86.269  91.196  73.565
37501DG     BB343744  86.166  91.156  73.730
37501DG     SC143745  86.062  90.887  73.628
37501DG     SC243746  85.778  90.821  73.566
37501DG     SC343747  85.946  90.578  73.557
37501DG     SC443748  86.150  90.755  73.654
37502DA     BB143749  86.089  91.494  73.744
37502DA     BB243750  85.732  91.414  73.723
37502DA     BB343751  85.661  91.342  73.911
37502DA     SC143752  85.719  91.043  73.846
37502DA     SC243753  85.589  90.836  73.800
37502DA     SC343754  85.805  90.711  73.863
37502DA     SC443755  85.862  90.984  73.890
37503DA     BB143756  85.444  91.583  73.859
37503DA     BB243757  85.185  91.323  73.863
37503DA     BB343758  85.150  91.256  74.063
37503DA     SC143759  85.362  91.028  74.050
37503DA     SC243760  85.365  90.779  74.044
37503DA     SC343761  85.609  90.800  74.122
37503DA     SC443762  85.511  91.062  74.099
37504DA     BB143763  84.847  91.332  73.967
37504DA     BB243764  84.764  90.980  74.027
37504DA     BB343765  84.755  90.940  74.237
37504DA     SC143766  85.055  90.860  74.259
37504DA     SC243767  85.189  90.654  74.299
37504DA     SC343768  85.378  90.814  74.364
37504DA     SC443769  85.160  90.976  74.297
37505DA     BB143770  84.464  90.825  74.138
37505DA     BB243771  84.573  90.500  74.267
37505DA     BB343772  84.572  90.500  74.481
37505DA     SC143773  84.867  90.596  74.506
37505DA     SC243774  85.086  90.502  74.580
37505DA     SC343775  85.159  90.746  74.606
37505DA     SC443776  84.893  90.754  74.517
37506DT     BB143777  84.443  90.382  74.567
37506DT     BB243778  84.678  90.135  74.684
37506DT     BB343779  84.714  90.161  74.886
37506DT     SC143780  84.863  90.372  74.840
37506DT     SC243781  85.068  90.326  74.885
37506DT     SC343782  84.946  90.622  74.841
37507DC     BB143783  84.569  89.938  74.947
37507DC     BB243784  84.891  89.878  75.098
37507DC     BB343785  84.896  89.960  75.288
37507DC     SC143786  84.917  90.203  75.191
37507DC     SC243787  85.114  90.280  75.232
37507DC     SC343788  84.858  90.454  75.135
37508DA     BB143789  85.011  89.560  75.348
37508DA     BB243790  85.255  89.772  75.521
37508DA     BB343791  85.171  89.849  75.702
37508DA     SC143792  85.061  90.108  75.567
37508DA     SC243793  85.109  90.352  75.570
37508DA     SC343794  84.871  90.380  75.479
37508DA     SC443795  84.910  90.104  75.512
37509DC     BB143796  85.240  89.793  75.902
37509DC     BB243797  85.418  90.099  75.970
37509DC     BB343798  85.316  90.210  76.113
37509DC     SC143799  85.133  90.281  75.938
37509DC     SC243800  85.153  90.491  75.896
37509DC     SC343801  84.899  90.306  75.820
37510DA     BB143802  85.705  90.174  76.265
37510DA     BB243803  85.615  90.529  76.273
37510DA     BB343804  85.480  90.568  76.434
37510DA     SC143805  85.224  90.519  76.264
37510DA     SC243806  85.036  90.654  76.170
37510DA     SC343807  84.911  90.430  76.155
37510DA     SC443808  85.163  90.371  76.263
37511DT     BB143809  85.541  90.688  76.592
37511DT     BB243810  85.355  90.981  76.491
37511DT     BB343811  85.193  91.008  76.617
37511DT     SC143812  85.062  90.810  76.505
37511DT     SC243813  84.895  90.888  76.394
37511DT     SC343814  84.940  90.578  76.477
37512DA     BB143815  85.409  91.366  76.589
37512DA     BB243816  85.055  91.440  76.524
37512DA     BB343817  84.943  91.428  76.705
37512DA     SC143818  84.874  91.127  76.671
37512DA     SC243819  84.672  90.988  76.622
37512DA     SC343820  84.806  90.794  76.724
37512DA     SC443821  84.973  91.019  76.739
37513DA     BB143822  84.863  91.723  76.592
37513DA     BB243823  84.518  91.600  76.579
37513DA     BB343824  84.437  91.584  76.775
37513DA     SC143825  84.529  91.289  76.816
37513DA     SC243826  84.423  91.064  76.833
37513DA     SC343827  84.642  90.992  76.946
37513DA     SC443828  84.672  91.264  76.885
37514DA     BB143829  84.213  91.763  76.621
37514DA     BB243830  83.978  91.492  76.697
37514DA     BB343831  83.929  91.492  76.905
37514DA     SC143832  84.159  91.299  76.984
37514DA     SC243833  84.184  91.064  77.065
37514DA     SC343834  84.415  91.138  77.147
37514DA     SC443835  84.299  91.365  77.029
37515DA     BB143836  83.634  91.496  76.765
37515DA     BB243837  83.574  91.177  76.936
37515DA     BB343838  83.546  91.210  77.145
37515DA     SC143839  83.847  91.177  77.216
37515DA     SC243840  83.992  91.013  77.335
37515DA     SC343841  84.160  91.207  77.354
37515DA     SC443842  83.937  91.311  77.219
37516DT     BB143843  83.372  91.166  77.207
37516DT     BB243844  83.462  90.861  77.378
37516DT     BB343845  83.475  90.895  77.581
37516DT     SC143846  83.704  91.021  77.553
37516DT     SC243847  83.862  90.902  77.638
37516DT     SC343848  83.883  91.215  77.557
37517DT     BB143849  83.255  90.749  77.599
37517DT     BB243850  83.497  90.582  77.808
37517DT     BB343851  83.502  90.671  77.995
37517DT     SC143852  83.634  90.878  77.901
37517DT     SC243853  83.835  90.876  77.978
37517DT     SC343854  83.689  91.127  77.834
37518DG     BB143855  83.430  90.272  78.022
37518DG     BB243856  83.705  90.374  78.233
37518DG     BB343857  83.636  90.471  78.392
37518DG     SC143858  83.645  90.747  78.259
37518DG     SC243859  83.825  90.972  78.336
37518DG     SC343860  83.622  91.061  78.139
37518DG     SC443861  83.517  90.797  78.177
37519DC     BB143862  83.684  90.384  78.567
37519DC     BB243863  83.931  90.608  78.703
37519DC     BB343864  83.842  90.739  78.836
37519DC     SC143865  83.736  90.877  78.639
37519DC     SC243866  83.831  91.069  78.627
37519DC     SC343867  83.553  90.985  78.483
37520DA     BB143868  84.183  90.565  79.011
37520DA     BB243869  84.193  90.926  79.074
37520DA     BB343870  84.039  90.981  79.211
37520DA     SC143871  83.828  91.037  78.989
37520DA     SC243872  83.711  91.235  78.891
37520DA     SC343873  83.538  91.065  78.807
37520DA     SC443874  83.731  90.916  78.947
37521DG     BB143875  84.275  91.082  79.391
37521DG     BB243876  84.114  91.403  79.348
37521DG     BB343877  83.961  91.420  79.474
37521DG     SC143878  83.756  91.300  79.281
37521DG     SC243879  83.528  91.445  79.155
37521DG     SC343880  83.510  91.154  79.102
37521DG     SC443881  83.735  91.141  79.279
37522DT     BB143882  83.949  91.574  79.645
37522DT     BB243883  83.704  91.807  79.516
37522DT     BB343884  83.523  91.779  79.612
37522DT     SC143885  83.476  91.559  79.477
37522DT     SC243886  83.315  91.592  79.339
37522DT     SC343887  83.434  91.304  79.426
37523DT     BB143888  83.541  92.010  79.770
37523DT     BB243889  83.227  92.049  79.597
37523DT     BB343890  83.074  91.965  79.708
37523DT     SC143891  83.151  91.722  79.644
37523DT     SC243892  83.005  91.634  79.513
37523DT     SC343893  83.241  91.476  79.669
37524DA     BB143894  82.941  92.357  79.636
37524DA     BB243895  82.668  92.130  79.545
37524DA     BB343896  82.572  92.055  79.721
37524DA     SC143897  82.756  91.805  79.744
37524DA     SC243898  82.737  91.558  79.716
37524DA     SC343899  82.949  91.545  79.858
37524DA     SC443900  82.888  91.818  79.835
37525DT     BB143901  82.373  92.107  79.767
37525DT     BB243902  82.227  91.790  79.675
37525DT     BB343903  82.171  91.686  79.845
37525DT     SC143904  82.421  91.625  79.900
37525DT     SC243905  82.451  91.414  79.870
37525DT     SC343906  82.651  91.615  80.027
37526DA     BB143907  81.833  91.697  79.598
37526DA     BB243908  81.884  91.349  79.701
37526DA     BB343909  81.827  91.323  79.905
37526DA     SC143910  82.110  91.386  80.018
37526DA     SC243911  82.295  91.262  80.130
37526DA     SC343912  82.374  91.494  80.209
37526DA     SC443913  82.142  91.538  80.058
37527DA     BB143914  81.645  91.086  79.770
37527DA     BB243915  81.836  90.850  79.975
37527DA     BB343916  81.772  90.859  80.178
37527DA     SC143917  81.977  91.078  80.259
37527DA     SC243918  82.182  91.095  80.400
37527DA     SC343919  82.135  91.348  80.402
37527DA     SC443920  81.930  91.231  80.250
37528DA     BB143921  81.740  90.537  80.125
37528DA     BB243922  81.989  90.490  80.389
37528DA     BB343923  81.902  90.524  80.581
37528DA     SC143924  81.972  90.828  80.586
37528DA     SC243925  82.125  90.980  80.710
37528DA     SC343926  81.968  91.168  80.633
37528DA     SC443927  81.861  90.930  80.529
37529DA     BB143928  82.029  90.227  80.629
37529DA     BB243929  82.235  90.381  80.890
37529DA     BB343930  82.118  90.421  81.064
37529DA     SC143931  82.039  90.708  80.973
37529DA     SC243932  82.088  90.943  81.041
37529DA     SC343933  81.873  91.003  80.914
37529DA     SC443934  81.902  90.725  80.891
37530DT     BB143935  82.165  90.320  81.223
37530DT     BB243936  82.327  90.592  81.397
37530DT     BB343937  82.201  90.666  81.544
37530DT     SC143938  82.051  90.787  81.366
37530DT     SC243939  82.076  91.000  81.384
37530DT     SC343940  81.839  90.849  81.221
37531DT     BB143941  82.363  90.556  81.731
37531DT     BB243942  82.354  90.907  81.813
37531DT     BB343943  82.191  90.947  81.934
37531DT     SC143944  82.026  90.927  81.732
37531DT     SC243945  81.946  91.121  81.685
37531DT     SC343946  81.830  90.837  81.579
37532DT     BB143947  82.361  90.983  82.141
37532DT     BB243948  82.178  91.293  82.117
37532DT     BB343949  82.001  91.279  82.224
37532DT     SC143950  81.892  91.128  82.038
37532DT     SC243951  81.737  91.239  81.938
37532DT     SC343952  81.783  90.918  81.922
37533DT     BB143953  82.102  91.445  82.413
37533DT     BB243954  81.800  91.608  82.302
37533DT     BB343955  81.638  91.537  82.410
37533DT     SC143956  81.639  91.310  82.278
37533DT     SC243957  81.465  91.300  82.152
37533DT     SC343958  81.658  91.052  82.229
37534DC     BB143959  81.626  91.775  82.536
37534DC     BB243960  81.301  91.734  82.385
37534DC     BB343961  81.178  91.625  82.510
37534DC     SC143962  81.302  91.402  82.452
37534DC     SC243963  81.172  91.276  82.336
37534DC     SC343964  81.446  91.183  82.482
37535DA     BB143965  80.981  91.975  82.392
37535DA     BB243966  80.753  91.692  82.339
37535DA     BB343967  80.682  91.618  82.525
37535DA     SC143968  80.912  91.412  82.560
37535DA     SC243969  80.939  91.164  82.556
37535DA     SC343970  81.156  91.206  82.686
37535DA     SC443971  81.042  91.459  82.642
37536DT     BB143972  80.501  91.641  82.539
37536DT     BB243973  80.408  91.296  82.495
37536DT     BB343974  80.371  91.208  82.679
37536DT     SC143975  80.628  91.197  82.734
37536DT     SC243976  80.693  90.992  82.732
37536DT     SC343977  80.858  91.242  82.854
37537DT     BB143978  80.127  91.207  82.590
37537DT     BB243979  80.202  90.863  82.668
37537DT     BB343980  80.181  90.831  82.872
37537DT     SC143981  80.406  90.956  82.923
37537DT     SC243982  80.553  90.815  82.990
37537DT     SC343983  80.573  91.137  83.017
37538DT     BB143984  79.975  90.691  82.794
37538DT     BB243985  80.175  90.464  82.991
37538DT     BB343986  80.140  90.496  83.193
37538DT     SC143987  80.281  90.717  83.190
37538DT     SC243988  80.463  90.687  83.301
37538DT     SC343989  80.342  90.973  83.208
37539DA     BB143990  80.100  90.084  83.116
37539DA     BB243991  80.300  90.124  83.421
37539DA     BB343992  80.178  90.195  83.581
37539DA     SC143993  80.231  90.496  83.521
37539DA     SC243994  80.352  90.686  83.626
37539DA     SC343995  80.202  90.835  83.481
37539DA     SC443996  80.127  90.571  83.424
37540DT     BB143997  80.128  90.075  83.752
37540DT     BB243998  80.326  90.250  83.998
37540DT     BB343999  80.203  90.364  84.119
37540DT     SC144000  80.168  90.542  83.930
37540DT     SC244001  80.267  90.725  83.984
37540DT     SC344002  80.048  90.691  83.748
37541DT     BB144003  80.177  90.200  84.375
37541DT     BB244004  80.276  90.522  84.505
37541DT     BB344005  80.109  90.628  84.566
37541DT     SC144006  80.040  90.679  84.318
37541DT     SC244007  80.067  90.889  84.279
37541DT     SC344008  79.900  90.681  84.095
37542DA     BB144009  80.301  90.639  84.948
37542DA     BB244010  80.198  90.984  84.879
37542DA     BB344011  79.993  91.013  84.931
37542DA     SC144012  79.885  90.937  84.650
37542DA     SC244013  79.775  91.051  84.457
37542DA     SC344014  79.698  90.817  84.388
37542DA     SC444015  79.845  90.783  84.624
37543DC     BB144016  79.891  91.147  85.116
37543DC     BB244017  79.780  91.417  84.904
37543DC     BB344018  79.573  91.426  84.904
37543DC     SC144019  79.556  91.215  84.749
37543DC     SC244020  79.486  91.275  84.555
37543DC     SC344021  79.498  90.971  84.668
37544DA     BB144022  79.679  91.816  85.018
37544DA     BB244023  79.442  91.847  84.741
37544DA     BB344024  79.242  91.818  84.810
37544DA     SC144025  79.243  91.511  84.758
37544DA     SC244026  79.135  91.350  84.602
37544DA     SC344027  79.194  91.172  84.777
37544DA     SC444028  79.287  91.415  84.880
37545DC     BB144029  79.094  91.978  84.811
37545DC     BB244030  78.908  91.862  84.525
37545DC     BB344031  78.723  91.791  84.585
37545DC     SC144032  78.830  91.572  84.683
37545DC     SC244033  78.772  91.404  84.561
37545DC     SC344034  78.904  91.388  84.857
37546DT     BB144035  78.594  92.010  84.477
37546DT     BB244036  78.440  91.728  84.314
37546DT     BB344037  78.278  91.662  84.424
37546DT     SC144038  78.435  91.552  84.603
37546DT     SC244039  78.419  91.338  84.590
37546DT     SC344040  78.552  91.504  84.835
37547DA     BB144041  78.138  91.722  84.035
37547DA     BB244042  78.026  91.390  84.142
37547DA     BB344043  77.863  91.407  84.280
37547DA     SC144044  78.045  91.414  84.532
37547DA     SC244045  78.098  91.267  84.726
37547DA     SC344046  78.182  91.480  84.840
37547DA     SC444047  78.091  91.558  84.586
37548DA     BB144048  77.716  91.206  84.066
37548DA     BB244049  77.688  90.963  84.339
37548DA     BB344050  77.528  91.016  84.470
37548DA     SC144051  77.707  91.188  84.658
37548DA     SC244052  77.797  91.175  84.890
37548DA     SC344053  77.830  91.429  84.870
37548DA     SC444054  77.719  91.345  84.626
37549DA     BB144055  77.429  90.710  84.408
37549DA     BB244056  77.465  90.642  84.766
37549DA     BB344057  77.299  90.723  84.874
37549DA     SC144058  77.435  90.998  84.925
37549DA     SC244059  77.529  91.125  85.118
37549DA     SC344060  77.500  91.333  84.970
37549DA     SC444061  77.408  91.115  84.818
37550DA     BB144062  77.288  90.415  84.981
37550DA     BB244063  77.344  90.550  85.317
37550DA     BB344064  77.165  90.638  85.393
37550DA     SC144065  77.229  90.921  85.282
37550DA     SC244066  77.291  91.145  85.373
37550DA     SC344067  77.209  91.236  85.147
37550DA     SC444068  77.172  90.958  85.136
37551DA     BB144069  77.242  90.433  85.635
37551DA     BB244070  77.263  90.728  85.851
37551DA     BB344071  77.067  90.801  85.897
37551DA     SC144072  77.056  90.995  85.654
37551DA     SC244073  77.058  91.241  85.614
37551DA     SC344074  76.955  91.184  85.386
37551DA     SC444075  76.991  90.939  85.518
37552DG     BB144076  77.174  90.742  86.179
37552DG     BB244077  77.135  91.100  86.216
37552DG     BB344078  76.944  91.144  86.249
37552DG     SC144079  76.874  91.174  85.952
37552DG     SC244080  76.795  91.428  85.816
37552DG     SC344081  76.757  91.195  85.637
37552DG     SC444082  76.827  91.045  85.870
37553DT     BB144083  76.892  91.238  86.433
37553DT     BB244084  76.819  91.576  86.329
37553DT     BB344085  76.614  91.603  86.318
37553DT     SC144086  76.599  91.465  86.096
37553DT     SC244087  76.551  91.597  85.933
37553DT     SC344088  76.533  91.273  85.927
37554DC     BB144089  76.633  91.757  86.538
37554DC     BB244090  76.470  91.967  86.294
37554DC     BB344091  76.266  91.932  86.295
37554DC     SC144092  76.296  91.704  86.170
37554DC     SC244093  76.218  91.721  85.970
37554DC     SC344094  76.293  91.444  86.122
37555DT     BB144095  76.222  92.172  86.417
37555DT     BB244096  76.014  92.184  86.123
37555DT     BB344097  75.829  92.100  86.164
37555DT     SC144098  75.930  91.858  86.158
37555DT     SC244099  75.857  91.754  85.985
37555DT     SC344100  76.004  91.618  86.239
37556DA     BB144101  75.736  92.479  86.007
37556DA     BB244102  75.522  92.235  85.836
37556DA     BB344103  75.365  92.171  85.966
37556DA     SC144104  75.525  91.931  86.082
37556DA     SC244105  75.519  91.682  86.070
37556DA     SC344106  75.658  91.689  86.286
37556DA     SC444107  75.610  91.956  86.216
37557DC     BB144108  75.147  92.220  85.939
37557DC     BB244109  75.040  91.892  85.833
37557DC     BB344110  74.927  91.803  85.981
37557DC     SC144111  75.140  91.755  86.127
37557DC     SC244112  75.177  91.543  86.131
37557DC     SC344113  75.310  91.763  86.328
37558DC     BB144114  74.666  91.836  85.861
37558DC     BB244115  74.683  91.480  85.922
37558DC     BB344116  74.600  91.436  86.106
37558DC     SC144117  74.808  91.532  86.233
37558DC     SC244118  74.916  91.370  86.326
37558DC     SC344119  74.955  91.685  86.390
37559DC     BB144120  74.346  91.322  86.018
37559DC     BB244121  74.487  91.061  86.222
37559DC     BB344122  74.415  91.075  86.415
37559DC     SC144123  74.569  91.282  86.465
37559DC     SC244124  74.722  91.226  86.604
37559DC     SC344125  74.641  91.529  86.524
37560DA     BB144126  74.320  90.679  86.312
37560DA     BB244127  74.498  90.668  86.633
37560DA     BB344128  74.367  90.724  86.792
37560DA     SC144129  74.438  91.026  86.777
37560DA     SC244130  74.559  91.195  86.916
37560DA     SC344131  74.427  91.370  86.782
37560DA     SC444132  74.345  91.120  86.684
37561DG     BB144133  74.427  90.438  86.898
37561DG     BB244134  74.591  90.623  87.163
37561DG     BB344135  74.458  90.677  87.300
37561DG     SC144136  74.391  90.944  87.166
37561DG     SC244137  74.452  91.215  87.275
37561DG     SC344138  74.279  91.234  87.035
37561DG     SC444139  74.275  90.948  87.056
37562DG     BB144140  74.651  90.514  87.502
37562DG     BB244141  74.706  90.835  87.661
37562DG     BB344142  74.554  90.877  87.782
37562DG     SC144143  74.391  91.021  87.566
37562DG     SC244144  74.326  91.312  87.560
37562DG     SC344145  74.177  91.166  87.350
37562DG     SC444146  74.291  90.935  87.474
37563DG     BB144147  74.792  90.900  87.998
37563DG     BB244148  74.693  91.246  88.027
37563DG     BB344149  74.529  91.261  88.139
37563DG     SC144150  74.336  91.233  87.903
37563DG     SC244151  74.152  91.445  87.801
37563DG     SC344152  74.096  91.185  87.672
37563DG     SC444153  74.289  91.086  87.859
37564DT     BB144154  74.554  91.373  88.305
37564DT     BB244155  74.372  91.673  88.222
37564DT     BB344156  74.181  91.664  88.303
37564DT     SC144157  74.103  91.492  88.121
37564DT     SC244158  73.963  91.587  87.989
37564DT     SC344159  74.015  91.268  88.013
37565DT     BB144160  74.268  91.853  88.466
37565DT     BB244161  73.978  91.993  88.305
37565DT     BB344162  73.806  91.927  88.399
37565DT     SC144163  73.828  91.689  88.291
37565DT     SC244164  73.671  91.661  88.147
37565DT     SC344165  73.859  91.428  88.270
37566DC     BB144166  73.777  92.175  88.495
37566DC     BB244167  73.469  92.107  88.320
37566DC     BB344168  73.339  92.004  88.444
37566DC     SC144169  73.476  91.782  88.416
37566DC     SC244170  73.362  91.641  88.300
37566DC     SC344171  73.625  91.573  88.476
37567DC     BB144172  73.188  92.226  88.464
37567DC     BB244173  72.963  91.973  88.340
37567DC     BB344174  72.884  91.865  88.498
37567DC     SC144175  73.110  91.736  88.532
37567DC     SC244176  73.084  91.530  88.474
37567DC     SC344177  73.333  91.649  88.644
37568DT     BB144178  72.646  91.985  88.460
37568DT     BB244179  72.576  91.632  88.434
37568DT     BB344180  72.543  91.553  88.622
37568DT     SC144181  72.799  91.561  88.680
37568DT     SC244182  72.876  91.361  88.689
37568DT     SC344183  73.024  91.627  88.799
37569DA     BB144184  72.219  91.440  88.380
37569DA     BB244185  72.342  91.140  88.551
37569DA     BB344186  72.288  91.145  88.758
37569DA     SC144187  72.549  91.289  88.848
37569DA     SC244188  72.755  91.234  88.977
37569DA     SC344189  72.781  91.487  89.005
37569DA     SC444190  72.547  91.449  88.855
37570DA     BB144191  72.172  90.852  88.669
37570DA     BB244192  72.402  90.711  88.917
37570DA     BB344193  72.331  90.749  89.115
37570DA     SC144194  72.484  91.018  89.143
37570DA     SC244195  72.677  91.108  89.274
37570DA     SC344196  72.579  91.339  89.221
37570DA     SC444197  72.407  91.153  89.102
37571DA     BB144198  72.363  90.424  89.143
37571DA     BB244199  72.604  90.487  89.412
37571DA     BB344200  72.502  90.543  89.591
37571DA     SC144201  72.509  90.848  89.529
37571DA     SC244202  72.624  91.051  89.617
37571DA     SC344203  72.436  91.182  89.501
37571DA     SC444204  72.384  90.911  89.451
37572DT     BB144205  72.509  90.417  89.751
37572DT     BB244206  72.735  90.613  89.953
37572DT     BB344207  72.631  90.705  90.107
37572DT     SC144208  72.527  90.881  89.942
37572DT     SC244209  72.611  91.075  89.982
37572DT     SC344210  72.347  91.015  89.803
37573DA     BB144211  72.952  90.504  90.287
37573DA     BB244212  72.944  90.844  90.424
37573DA     BB344213  72.782  90.865  90.562
37573DA     SC144214  72.579  90.960  90.346
37573DA     SC244215  72.459  91.170  90.286
37573DA     SC344216  72.296  91.016  90.159
37573DA     SC444217  72.488  90.848  90.275
37574DA     BB144218  73.017  90.968  90.771
37574DA     BB244219  72.836  91.286  90.794
37574DA     BB344220  72.665  91.265  90.921
37574DA     SC144221  72.473  91.187  90.689
37574DA     SC244222  72.280  91.287  90.568
37574DA     SC344223  72.225  91.047  90.498
37574DA     SC444224  72.454  91.030  90.658
37575DG     BB144225  72.788  91.483  91.117
37575DG     BB244226  72.496  91.675  91.024
37575DG     BB344227  72.343  91.627  91.141
37575DG     SC144228  72.243  91.401  90.960
37575DG     SC244229  71.987  91.399  90.807
37575DG     SC344230  72.119  91.134  90.795
37575DG     SC444231  72.302  91.254  90.980
37576DT     BB144232  72.222  91.769  91.308
37576DT     BB244233  71.916  91.837  91.129
37576DT     BB344234  71.759  91.736  91.218
37576DT     SC144235  71.839  91.507  91.119
37576DT     SC244236  71.700  91.441  90.969
37576DT     SC344237  71.929  91.259  91.109
37577DT     BB144238  71.632  91.961  91.349
37577DT     BB244239  71.368  91.824  91.145
37577DT     BB344240  71.255  91.691  91.256
37577DT     SC144241  71.444  91.509  91.244
37577DT     SC244242  71.378  91.346  91.119
37577DT     SC344243  71.631  91.341  91.322
37578DA     BB144244  70.970  91.960  91.107
37578DA     BB244245  70.853  91.621  91.026
37578DA     BB344246  70.768  91.529  91.199
37578DA     SC144247  71.036  91.401  91.293
37578DA     SC244248  71.135  91.173  91.310
37578DA     SC344249  71.297  91.279  91.479
37578DA     SC444250  71.126  91.485  91.396
37579DC     BB144251  70.562  91.484  91.204
37579DC     BB244252  70.601  91.130  91.148
37579DC     BB344253  70.558  91.025  91.321
37579DC     SC144254  70.785  91.096  91.431
37579DC     SC244255  70.913  90.924  91.448
37579DC     SC344256  70.956  91.208  91.598
37580DC     BB144257  70.343  90.943  91.190
37580DC     BB244258  70.524  90.643  91.276
37580DC     BB344259  70.476  90.584  91.468
37580DC     SC144260  70.622  90.776  91.572
37580DC     SC244261  70.794  90.691  91.668
37580DC     SC344262  70.686  90.994  91.706
37581DG     BB144263  70.423  90.293  91.188
37581DG     BB244264  70.630  90.182  91.463
37581DG     BB344265  70.518  90.152  91.624
37581DG     SC144266  70.547  90.439  91.728
37581DG     SC244267  70.690  90.522  91.976
37581DG     SC344268  70.540  90.749  91.859
37581DG     SC444269  70.442  90.550  91.679
37582DA     BB144270  70.700  89.861  91.611
37582DA     BB244271  70.822  89.930  91.950
37582DA     BB344272  70.663  89.909  92.091
37582DA     SC144273  70.576  90.208  92.074
37582DA     SC244274  70.581  90.410  92.220
37582DA     SC344275  70.397  90.500  92.066
37582DA     SC444276  70.461  90.245  91.968
37583DT     BB144277  70.699  89.773  92.204
37583DT     BB244278  70.772  89.972  92.496
37583DT     BB344279  70.604  89.985  92.617
37583DT     SC144280  70.489  90.155  92.453
37583DT     SC244281  70.480  90.348  92.546
37583DT     SC344282  70.316  90.256  92.282
37584DA     BB144283  70.936  89.870  92.847
37584DA     BB244284  70.762  90.141  93.023
37584DA     BB344285  70.576  90.071  93.100
37584DA     SC144286  70.414  90.148  92.846
37584DA     SC244287  70.241  90.316  92.781
37584DA     SC344288  70.189  90.157  92.587
37584DA     SC444289  70.395  90.035  92.733
37585DA     BB144290  70.715  90.204  93.366
37585DA     BB244291  70.423  90.426  93.379
37585DA     BB344292  70.250  90.318  93.442
37585DA     SC144293  70.164  90.242  93.153
37585DA     SC244294  69.981  90.300  92.994
37585DA     SC344295  70.042  90.081  92.875
37585DA     SC444296  70.216  90.102  93.094
37586DA     BB144297  70.249  90.569  93.652
37586DA     BB244298  69.918  90.652  93.519
37586DA     BB344299  69.774  90.509  93.585
37586DA     SC144300  69.812  90.320  93.341
37586DA     SC244301  69.682  90.250  93.140
37586DA     SC344302  69.840  90.048  93.134
37586DA     SC444303  69.919  90.201  93.355
37587DA     BB144304  69.627  90.790  93.675
37587DA     BB244305  69.348  90.689  93.460
37587DA     BB344306  69.240  90.528  93.549
37587DA     SC144307  69.410  90.306  93.412
37587DA     SC244308  69.380  90.133  93.236
37587DA     SC344309  69.585  90.019  93.341
37587DA     SC444310  69.538  90.250  93.493
37588DT     BB144311  69.052  90.560  93.610
37588DT     BB244312  68.883  90.371  93.353
37588DT     BB344313  68.820  90.190  93.430
37588DT     SC144314  69.064  90.094  93.427
37588DT     SC244315  69.079  89.941  93.276
37588DT     SC344316  69.293  89.996  93.514
37589DT     BB144317  68.551  90.263  93.442
37589DT     BB244318  68.546  89.958  93.250
37589DT     BB344319  68.528  89.795  93.376
37589DT     SC144320  68.778  89.816  93.453
37589DT     SC244321  68.890  89.650  93.376
37589DT     SC344322  68.987  89.854  93.609
37590DT     BB144323  68.250  89.733  93.329
37590DT     BB244324  68.416  89.421  93.260
37590DT     BB344325  68.423  89.305  93.431
37590DT     SC144326  68.612  89.454  93.535
37590DT     SC244327  68.795  89.343  93.542
37590DT     SC344328  68.735  89.619  93.699
37591DG     BB144329  68.193  89.046  93.202
37591DG     BB244330  68.480  88.872  93.337
37591DG     BB344331  68.439  88.806  93.520
37591DG     SC144332  68.536  89.060  93.660
37591DG     SC244333  68.774  89.081  93.840
37591DG     SC344334  68.616  89.330  93.845
37591DG     SC444335  68.433  89.180  93.684
37592DA     BB144336  68.528  88.475  93.437
37592DA     BB244337  68.802  88.484  93.680
37592DA     BB344338  68.729  88.442  93.876
37592DA     SC144339  68.674  88.740  93.946
37592DA     SC244340  68.767  88.915  94.097
37592DA     SC344341  68.542  89.033  94.067
37592DA     SC444342  68.527  88.797  93.916
37593DA     BB144343  68.964  88.217  93.857
37593DA     BB244344  69.126  88.394  94.134
37593DA     BB344345  69.029  88.349  94.319
37593DA     SC144346  68.829  88.587  94.299
37593DA     SC244347  68.789  88.804  94.415
37593DA     SC344348  68.552  88.789  94.317
37593DA     SC444349  68.687  88.559  94.230
37594DT     BB144350  69.142  88.259  94.435
37594DT     BB244351  69.204  88.538  94.655
37594DT     BB344352  69.087  88.521  94.825
37594DT     SC144353  68.872  88.594  94.693
37594DT     SC244354  68.811  88.789  94.759
37594DT     SC344355  68.632  88.583  94.584
37595DT     BB144356  69.319  88.477  94.938
37595DT     BB244357  69.180  88.763  95.109
37595DT     BB344358  69.044  88.701  95.252
37595DT     SC144359  68.865  88.646  95.067
37595DT     SC244360  68.703  88.788  95.081
37595DT     SC344361  68.698  88.508  94.916
37596DA     BB144362  69.318  88.976  95.413
37596DA     BB244363  68.980  89.076  95.514
37596DA     BB344364  68.900  88.936  95.653
37596DA     SC144365  68.769  88.756  95.436
37596DA     SC244366  68.539  88.699  95.357
37596DA     SC344367  68.649  88.492  95.253
37596DA     SC444368  68.856  88.633  95.379
37597DT     BB144369  68.869  89.004  95.833
37597DT     BB244370  68.509  89.013  95.820
37597DT     BB344371  68.430  88.849  95.920
37597DT     SC144372  68.496  88.688  95.723
37597DT     SC244373  68.317  88.621  95.624
37597DT     SC344374  68.613  88.492  95.591
37598DA     BB144375  68.238  89.179  96.096
37598DA     BB244376  67.980  88.932  96.015
37598DA     BB344377  67.987  88.769  96.153
37598DA     SC144378  68.185  88.601  95.982
37598DA     SC244379  68.180  88.391  95.847
37598DA     SC344380  68.435  88.391  95.875
37598DA     SC444381  68.342  88.618  96.012
37599DG     BB144382  67.691  88.836  96.252
37599DG     BB244383  67.614  88.512  96.110
37599DG     BB344384  67.646  88.369  96.245
37599DG     SC144385  67.939  88.326  96.167
37599DG     SC244386  68.052  88.080  96.041
37599DG     SC344387  68.268  88.267  96.120
37599DG     SC444388  68.052  88.415  96.237
37600DT     BB144389  67.481  88.224  96.341
37600DT     BB244390  67.552  87.920  96.159
37600DT     BB344391  67.640  87.782  96.284
37600DT     SC144392  67.868  87.912  96.280
37600DT     SC244393  68.014  87.797  96.171
37600DT     SC344394  68.077  88.050  96.363
37601DT     BB144395  67.413  87.627  96.291
37601DT     BB244396  67.668  87.407  96.162
37601DT     BB344397  67.764  87.312  96.319
37601DT     SC144398  67.896  87.530  96.382
37601DT     SC244399  68.104  87.503  96.335
37601DT     SC344400  67.979  87.738  96.521
37602DT     BB144401  67.643  87.088  96.237
37602DT     BB244402  67.996  87.015  96.221
37602DT     BB344403  68.064  86.953  96.406
37602DT     SC144404  68.056  87.198  96.500
37602DT     SC244405  68.256  87.269  96.531
37602DT     SC344406  67.986  87.406  96.647
37603DA     BB144407  68.185  86.694  96.098
37603DA     BB244408  68.477  86.777  96.304
37603DA     BB344409  68.460  86.686  96.496
37603DA     SC144410  68.315  86.929  96.626
37603DA     SC244411  68.366  87.106  96.794
37603DA     SC344412  68.111  87.132  96.813
37603DA     SC444413  68.155  86.929  96.624
37604DA     BB144414  68.757  86.596  96.391
37604DA     BB244415  68.887  86.763  96.691
37604DA     BB344416  68.836  86.651  96.865
37604DA     SC144417  68.568  86.802  96.913
37604DA     SC244418  68.474  86.965  97.077
37604DA     SC344419  68.245  86.886  96.992
37604DA     SC444420  68.435  86.740  96.848
37605DT     BB144421  68.985  86.574  96.961
37605DT     BB244422  68.979  86.794  97.246
37605DT     BB344423  68.887  86.700  97.406
37605DT     SC144424  68.650  86.731  97.299
37605DT     SC244425  68.538  86.874  97.414
37605DT     SC344426  68.416  86.672  97.192
37606DC     BB144427  69.127  86.665  97.537
37606DC     BB244428  68.921  86.840  97.776
37606DC     BB344429  68.812  86.704  97.888
37606DC     SC144430  68.649  86.659  97.687
37606DC     SC244431  68.455  86.741  97.732
37606DC     SC344432  68.522  86.531  97.494
37607DT     BB144433  68.966  86.731  98.121
37607DT     BB244434  68.630  86.806  98.230
37607DT     BB344435  68.536  86.632  98.292
37607DT     SC144436  68.504  86.551  98.045
37607DT     SC244437  68.296  86.558  97.993
37607DT     SC344438  68.527  86.404  97.827
37608DA     BB144439  68.493  86.889  98.622
37608DA     BB244440  68.161  86.754  98.544
37608DA     BB344441  68.144  86.553  98.614
37608DA     SC144442  68.245  86.427  98.347
37608DA     SC244443  68.150  86.293  98.159
37608DA     SC344444  68.393  86.228  98.110
37608DA     SC444445  68.402  86.397  98.334
37609DT     BB144446  68.011  86.502  98.770
37609DT     BB244447  67.762  86.352  98.557
37609DT     BB344448  67.762  86.146  98.583
37609DT     SC144449  67.984  86.122  98.445
37609DT     SC244450  67.942  86.024  98.258
37609DT     SC344451  68.236  86.067  98.387
37610DT     BB144452  67.527  86.180  98.701
37610DT     BB244453  67.463  85.963  98.420
37610DT     BB344454  67.505  85.767  98.471
37610DT     SC144455  67.763  85.810  98.458
37610DT     SC244456  67.845  85.706  98.289
37610DT     SC344457  68.015  85.833  98.534
37611DT     BB144458  67.243  85.736  98.455
37611DT     BB244459  67.382  85.503  98.217
37611DT     BB344460  67.439  85.329  98.314
37611DT     SC144461  67.650  85.446  98.416
37611DT     SC244462  67.828  85.366  98.325
37611DT     SC344463  67.818  85.545  98.595
37612DT     BB144464  67.236  85.225  98.184
37612DT     BB244465  67.523  85.030  98.086
37612DT     BB344466  67.564  84.887  98.229
37612DT     SC144467  67.664  85.067  98.392
37612DT     SC244468  67.876  85.038  98.409
37612DT     SC344469  67.693  85.221  98.604
37613DC     BB144470  67.478  84.710  98.051
37613DC     BB244471  67.813  84.604  98.135
37613DC     BB344472  67.810  84.491  98.309
37613DC     SC144473  67.773  84.705  98.456
37613DC     SC244474  67.951  84.743  98.572
37613DC     SC344475  67.659  84.876  98.622
37614DT     BB144476  67.861  84.271  98.161
37614DT     BB244477  68.127  84.281  98.405
37614DT     BB344478  68.066  84.189  98.580
37614DT     SC144479  67.914  84.393  98.644
37614DT     SC244480  67.999  84.494  98.814
37614DT     SC344481  67.699  84.534  98.700
37615DG     BB144482  68.402  83.999  98.450
37615DG     BB244483  68.434  84.105  98.794
37615DG     BB344484  68.333  83.980  98.913
37615DG     SC144485  68.071  84.137  98.897
37615DG     SC244486  67.940  84.283  99.121
37615DG     SC344487  67.762  84.273  98.885
37615DG     SC444488  67.968  84.104  98.779
37616DA     BB144489  68.629  83.966  99.089
37616DA     BB244490  68.456  84.091  99.387
37616DA     BB344491  68.336  83.937  99.473
37616DA     SC144492  68.082  84.010  99.310
37616DA     SC244493  67.857  84.109  99.353
37616DA     SC344494  67.789  84.001  99.130
37616DA     SC444495  68.059  83.934  99.170
37617DA     BB144496  68.516  84.047  99.721
37617DA     BB244497  68.198  84.130  99.884
37617DA     BB344498  68.097  83.951  99.944
37617DA     SC144499  67.939  83.921  99.677
37617DA     SC244500  67.704  83.942  99.599
37617DA     SC344501  67.779  83.800  99.399
37617DA     SC444502  68.006  83.831  99.562
37618DT     BB144503  68.083  83.948 100.123
37618DT     BB244504  67.729  84.009 100.147
37618DT     BB344505  67.627  83.830 100.167
37618DT     SC144506  67.663  83.771  99.914
37618DT     SC244507  67.475  83.781  99.811
37618DT     SC344508  67.746  83.645  99.698
37619DT     BB144509  67.582  83.913 100.412
37619DT     BB244510  67.256  83.840 100.278
37619DT     BB344511  67.219  83.636 100.289
37619DT     SC144512  67.381  83.587 100.089
37619DT     SC244513  67.266  83.524  99.918
37619DT     SC344514  67.587  83.494  99.954
37620DA     BB144515  66.885  83.819 100.471
37620DA     BB244516  66.759  83.559 100.246
37620DA     BB344517  66.797  83.365 100.327
37620DA     SC144518  67.074  83.335 100.188
37620DA     SC244519  67.175  83.198 100.005
37620DA     SC344520  67.400  83.259 100.112
37620DA     SC444521  67.204  83.382 100.270
37621DG     BB144522  66.483  83.291 100.350
37621DG     BB244523  66.565  83.029 100.114
37621DG     BB344524  66.626  82.866 100.211
37621DG     SC144525  66.921  82.948 100.212
37621DG     SC244526  67.141  82.810 100.065
37621DG     SC344527  67.250  83.016 100.248
37621DG     SC444528  66.977  83.038 100.332
37622DT     BB144529  66.520  82.634 100.232
37622DT     BB244530  66.736  82.446 100.011
37622DT     BB344531  66.853  82.316 100.121
37622DT     SC144532  67.006  82.512 100.205
37622DT     SC244533  67.200  82.495 100.115
37622DT     SC344534  67.124  82.681 100.369
37623DA     BB144535  66.669  82.056  99.846
37623DA     BB244536  67.030  81.990  99.832
37623DA     BB344537  67.090  81.873  99.999
37623DA     SC144538  67.154  82.118 100.180
37623DA     SC244539  67.355  82.228 100.277
37623DA     SC344540  67.192  82.334 100.444
37623DA     SC444541  67.037  82.172 100.275
37624DT     BB144542  67.161  81.676  99.973
37624DT     BB244543  67.510  81.754 100.023
37624DT     BB344544  67.573  81.681 100.206
37624DT     SC144545  67.448  81.872 100.335
37624DT     SC244546  67.592  82.007 100.421
37624DT     SC344547  67.276  81.993 100.495
37625DA     BB144548  67.838  81.556  99.906
37625DA     BB244549  68.034  81.705 100.177
37625DA     BB344550  68.036  81.576 100.347
37625DA     SC144551  67.783  81.703 100.477
37625DA     SC244552  67.728  81.844 100.675
37625DA     SC344553  67.489  81.757 100.645
37625DA     SC444554  67.641  81.637 100.442
37626DA     BB144555  68.353  81.637 100.296
37626DA     BB244556  68.356  81.781 100.633
37626DA     BB344557  68.340  81.627 100.779
37626DA     SC144558  68.029  81.636 100.791
37626DA     SC244559  67.853  81.707 100.952
37626DA     SC344560  67.696  81.557 100.816
37626DA     SC444561  67.948  81.536 100.695
37627DA     BB144562  68.606  81.790 100.880
37627DA     BB244563  68.423  81.851 101.192
37627DA     BB344564  68.409  81.671 101.306
37627DA     SC144565  68.139  81.582 101.179
37627DA     SC244566  67.901  81.559 101.248
37627DA     SC344567  67.878  81.402 101.047
37627DA     SC444568  68.146  81.487 101.050
37628DA     BB144569  68.540  81.863 101.540
37628DA     BB244570  68.238  81.796 101.738
37628DA     BB344571  68.245  81.598 101.818
37628DA     SC144572  68.100  81.468 101.576
37628DA     SC244573  67.880  81.362 101.528
37628DA     SC344574  67.998  81.256 101.327
37628DA     SC444575  68.192  81.410 101.457
37629DG     BB144576  68.236  81.731 102.104
37629DG     BB244577  67.918  81.561 102.126
37629DG     BB344578  67.946  81.373 102.185
37629DG     SC144579  67.977  81.262 101.901
37629DG     SC244580  67.788  81.076 101.764
37629DG     SC344581  68.036  81.111 101.606
37629DG     SC444582  68.123  81.260 101.834
37630DT     BB144583  67.865  81.283 102.385
37630DT     BB244584  67.588  81.088 102.262
37630DT     BB344585  67.634  80.887 102.269
37630DT     SC144586  67.793  80.908 102.061
37630DT     SC244587  67.705  80.806 101.893
37630DT     SC344588  68.013  80.904 101.915
37631DA     BB144589  67.269  80.930 102.469
37631DA     BB244590  67.230  80.663 102.221
37631DA     BB344591  67.328  80.486 102.286
37631DA     SC144592  67.599  80.557 102.150
37631DA     SC244593  67.736  80.475 101.958
37631DA     SC344594  67.931  80.595 102.073
37631DA     SC444595  67.708  80.636 102.238
37632DA     BB144596  67.029  80.370 102.225
37632DA     BB244597  67.188  80.159 101.970
37632DA     BB344598  67.294  79.999 102.063
37632DA     SC144599  67.562  80.155 102.083
37632DA     SC244600  67.788  80.148 101.978
37632DA     SC344601  67.865  80.281 102.183
37632DA     SC444602  67.591  80.236 102.218
37633DT     BB144603  67.223  79.827 102.022
37633DT     BB244604  67.482  79.729 101.791
37633DT     BB344605  67.615  79.601 101.884
37633DT     SC144606  67.723  79.798 102.019
37633DT     SC244607  67.923  79.833 101.947
37633DT     SC344608  67.798  79.947 102.224
37634DG     BB144609  67.461  79.434 101.546
37634DG     BB244610  67.822  79.431 101.547
37634DG     BB344611  67.889  79.290 101.671
37634DG     SC144612  67.897  79.475 101.915
37634DG     SC244613  68.143  79.565 102.058
37634DG     SC344614  67.900  79.644 102.207
37634DG     SC444615  67.766  79.489 102.006
37635DT     BB144616  68.002  79.150 101.581
37635DT     BB244617  68.333  79.236 101.695
37635DT     BB344618  68.385  79.117 101.857
37635DT     SC144619  68.227  79.252 102.017
37635DT     SC244620  68.346  79.366 102.156
37635DT     SC344621  68.029  79.307 102.182
37636DG     BB144622  68.660  79.097 101.556
37636DG     BB244623  68.812  79.177 101.874
37636DG     BB344624  68.816  79.015 101.990
37636DG     SC144625  68.542  79.068 102.116
37636DG     SC244626  68.491  79.137 102.402
37636DG     SC344627  68.237  79.084 102.259
37636DG     SC444628  68.411  79.010 102.044
37637DA     BB144629  69.143  79.120 102.019
37637DA     BB244630  69.099  79.137 102.382
37637DA     BB344631  69.080  78.940 102.464
37637DA     SC144632  68.771  78.933 102.438
37637DA     SC244633  68.573  78.935 102.590
37637DA     SC344634  68.444  78.836 102.391
37637DA     SC444635  68.709  78.870 102.304
37638DA     BB144636  69.316  79.078 102.646
37638DA     BB244637  69.100  79.010 102.934
37638DA     BB344638  69.091  78.800 102.972
37638DA     SC144639  68.843  78.753 102.789
37638DA     SC244640  68.602  78.695 102.817
37638DA     SC344641  68.612  78.623 102.571
37638DA     SC444642  68.870  78.713 102.636
37639DG     BB144643  69.204  78.891 103.246
37639DG     BB244644  68.894  78.752 103.369
37639DG     BB344645  68.907  78.554 103.377
37639DG     SC144646  68.805  78.510 103.092
37639DG     SC244647  68.547  78.381 103.015
37639DG     SC344648  68.716  78.427 102.777
37639DG     SC444649  68.910  78.510 102.971
37640DC     BB144650  68.893  78.443 103.569
37640DC     BB244651  68.567  78.290 103.545
37640DC     BB344652  68.587  78.090 103.494
37640DC     SC144653  68.645  78.152 103.245
37640DC     SC244654  68.482  78.093 103.117
37640DC     SC344655  68.781  78.173 103.020
37641DA     BB144656  68.356  78.065 103.846
37641DA     BB244657  68.192  77.852 103.596
37641DA     BB344658  68.298  77.668 103.574
37641DA     SC144659  68.483  77.773 103.346
37641DA     SC244660  68.514  77.736 103.102
37641DA     SC344661  68.747  77.836 103.137
37641DA     SC444662  68.624  77.836 103.389
37642DA     BB144663  68.013  77.507 103.642
37642DA     BB244664  68.031  77.358 103.308
37642DA     BB344665  68.167  77.193 103.308
37642DA     SC144666  68.415  77.365 103.232
37642DA     SC244667  68.565  77.395 103.035
37642DA     SC344668  68.731  77.496 103.203
37642DA     SC444669  68.504  77.423 103.352
37643DT     BB144670  68.106  76.981 103.280
37643DT     BB244671  68.226  76.949 102.941
37643DT     BB344672  68.392  76.826 102.937
37643DT     SC144673  68.544  77.014 103.039
37643DT     SC244674  68.683  77.083 102.890
37643DT     SC344675  68.702  77.140 103.208
37644DA     BB144676  68.131  76.658 102.655
37644DA     BB244677  68.457  76.694 102.493
37644DA     BB344678  68.591  76.542 102.562
37644DA     SC144679  68.703  76.713 102.797
37644DA     SC244680  68.916  76.826 102.857
37644DA     SC344681  68.828  76.820 103.098
37644DA     SC444682  68.631  76.698 102.940
37645DA     BB144683  68.624  76.479 102.240
37645DA     BB244684  68.978  76.567 102.276
37645DA     BB344685  69.085  76.406 102.367
37645DA     SC144686  69.042  76.508 102.657
37645DA     SC244687  69.180  76.607 102.841
37645DA     SC344688  68.990  76.532 102.996
37645DA     SC444689  68.915  76.453 102.738
37646DG     BB144690  69.254  76.399 102.103
37646DG     BB244691  69.522  76.500 102.324
37646DG     BB344692  69.603  76.340 102.410
37646DG     SC144693  69.414  76.344 102.650
37646DG     SC244694  69.491  76.400 102.933
37646DG     SC344695  69.211  76.306 102.917
37646DG     SC444696  69.275  76.265 102.641
37647DA     BB144697  69.910  76.456 102.298
37647DA     BB244698  70.027  76.481 102.645
37647DA     BB344699  70.079  76.288 102.719
37647DA     SC144700  69.795  76.228 102.832
37647DA     SC244701  69.687  76.205 103.056
37647DA     SC344702  69.503  76.078 102.930
37647DA     SC444703  69.692  76.151 102.737
37648DT     BB144704  70.274  76.250 102.764
37648DT     BB244705  70.237  76.268 103.122
37648DT     BB344706  70.246  76.078 103.204
37648DT     SC144707  70.004  76.022 103.119
37648DT     SC244708  69.871  76.008 103.287
37648DT     SC344709  69.808  75.905 102.987
37649DT     BB144710  70.486  76.143 103.305
37649DT     BB244711  70.285  76.055 103.591
37649DT     BB344712  70.291  75.850 103.621
37649DT     SC144713  70.131  75.807 103.418
37649DT     SC244714  69.941  75.738 103.489
37649DT     SC344715  70.046  75.722 103.183
37650DC     BB144716  70.429  75.916 103.835
37650DC     BB244717  70.143  75.733 103.957
37650DC     BB344718  70.177  75.529 103.942
37650DC     SC144719  70.141  75.535 103.682
37650DC     SC244720  69.958  75.433 103.633
37650DC     SC344721  70.192  75.514 103.424
37651DA     BB144722  70.032  75.644 104.320
37651DA     BB244723  69.837  75.357 104.200
37651DA     BB344724  69.958  75.181 104.198
37651DA     SC144725  70.055  75.222 103.905
37651DA     SC244726  70.022  75.114 103.683
37651DA     SC344727  70.239  75.232 103.616
37651DA     SC444728  70.192  75.303 103.883
37652DT     BB144729  69.892  75.060 104.315
37652DT     BB244730  69.759  74.828 104.074
37652DT     BB344731  69.894  74.674 104.042
37652DT     SC144732  70.049  74.830 103.898
37652DT     SC244733  70.042  74.768 103.693
37652DT     SC344734  70.261  74.968 103.823
37653DA     BB144735  69.514  74.513 104.123
37653DA     BB244736  69.649  74.346 103.826
37653DA     BB344737  69.810  74.217 103.880
37653DA     SC144738  70.029  74.435 103.843
37653DA     SC244739  70.217  74.483 103.685
37653DA     SC344740  70.308  74.632 103.872
37653DA     SC444741  70.071  74.522 103.971
37654DT     BB144742  69.779  74.028 103.854
37654DT     BB244743  69.994  73.985 103.567
37654DT     BB344744  70.172  73.898 103.625
37654DT     SC144745  70.256  74.122 103.733
37654DT     SC244746  70.418  74.202 103.616
37654DT     SC344747  70.337  74.295 103.915
37655DT     BB144748  70.094  73.673 103.502
37655DT     BB244749  70.409  73.756 103.348
37655DT     BB344750  70.565  73.681 103.462
37655DT     SC144751  70.533  73.867 103.644
37655DT     SC244752  70.701  74.002 103.638
37655DT     SC344753  70.482  73.981 103.876
37656DC     BB144754  70.604  73.504 103.267
37656DC     BB244755  70.920  73.674 103.303
37656DC     BB344756  71.030  73.588 103.456
37656DC     SC144757  70.878  73.699 103.639
37656DC     SC244758  70.991  73.850 103.743
37656DC     SC344759  70.708  73.724 103.839
37657DT     BB144760  71.192  73.490 103.268
37657DT     BB244761  71.408  73.678 103.487
37657DT     BB344762  71.464  73.562 103.649
37657DT     SC144763  71.227  73.587 103.758
37657DT     SC244764  71.242  73.710 103.935
37657DT     SC344765  70.989  73.524 103.854
37658DT     BB144766  71.711  73.547 103.545
37658DT     BB244767  71.760  73.678 103.877
37658DT     BB344768  71.770  73.523 104.014
37658DT     SC144769  71.511  73.484 104.000
37658DT     SC244770  71.420  73.544 104.186
37658DT     SC344771  71.279  73.366 103.954
37659DT     BB144772  72.039  73.558 104.044
37659DT     BB244773  71.909  73.581 104.379
37659DT     BB344774  71.895  73.392 104.463
37659DT     SC144775  71.684  73.335 104.318
37659DT     SC244776  71.511  73.323 104.446
37659DT     SC344777  71.530  73.215 104.141
37660DC     BB144778  72.116  73.424 104.632
37660DC     BB244779  71.849  73.332 104.856
37660DC     BB344780  71.841  73.126 104.875
37660DC     SC144781  71.733  73.101 104.637
37660DC     SC244782  71.528  73.038 104.657
37660DC     SC344783  71.702  73.032 104.384
37661DG     BB144784  71.920  73.223 105.268
37661DG     BB244785  71.631  73.006 105.249
37661DG     BB344786  71.689  72.816 105.241
37661DG     SC144787  71.706  72.809 104.935
37661DG     SC244788  71.530  72.650 104.754
37661DG     SC344789  71.754  72.772 104.603
37661DG     SC444790  71.843  72.852 104.864
37662DC     BB144791  71.652  72.631 105.408
37662DC     BB244792  71.391  72.447 105.240
37662DC     BB344793  71.463  72.265 105.173
37662DC     SC144794  71.594  72.380 104.977
37662DC     SC244795  71.502  72.328 104.790
37662DC     SC344796  71.795  72.461 104.827
37663DC     BB144797  71.333  72.106 105.370
37663DC     BB244798  71.215  71.971 105.056
37663DC     BB344799  71.338  71.816 104.995
37663DC     SC144800  71.527  71.983 104.924
37663DC     SC244801  71.545  71.983 104.710
37663DC     SC344802  71.761  72.105 104.918
37664DG     BB144803  70.967  71.647 105.028
37664DG     BB244804  71.108  71.592 104.699
37664DG     BB344805  71.234  71.438 104.705
37664DG     SC144806  71.478  71.611 104.772
37664DG     SC244807  71.714  71.658 104.594
37664DG     SC344808  71.762  71.767 104.865
37664DG     SC444809  71.512  71.641 104.925
37665DT     BB144810  71.198  71.252 104.585
37665DT     BB244811  71.434  71.300 104.316
37665DT     BB344812  71.596  71.174 104.341
37665DT     SC144813  71.692  71.323 104.535
37665DT     SC244814  71.872  71.420 104.468
37665DT     SC344815  71.772  71.395 104.776
37666DG     BB144816  71.426  71.111 103.978
37666DG     BB244817  71.779  71.182 103.950
37666DG     BB344818  71.885  71.022 104.000
37666DG     SC144819  71.901  71.094 104.297
37666DG     SC244820  72.149  71.169 104.445
37666DG     SC344821  71.922  71.132 104.631
37666DG     SC444822  71.785  71.045 104.395
37667DG     BB144823  72.004  71.072 103.706
37667DG     BB244824  72.320  71.124 103.875
37667DG     BB344825  72.399  70.949 103.926
37667DG     SC144826  72.262  70.938 104.200
37667DG     SC244827  72.399  70.953 104.465
37667DG     SC344828  72.113  70.884 104.497
37667DG     SC444829  72.116  70.873 104.211
37668DA     BB144830  72.663  71.106 103.775
37668DA     BB244831  72.857  71.060 104.083
37668DA     BB344832  72.904  70.854 104.111
37668DA     SC144833  72.648  70.793 104.277
37668DA     SC244834  72.591  70.736 104.513
37668DA     SC344835  72.371  70.646 104.416
37668DA     SC444836  72.519  70.741 104.198
37669DA     BB144837  73.182  71.023 104.143
37669DA     BB244838  73.205  70.870 104.475
37669DA     BB344839  73.240  70.660 104.458
37669DA     SC144840  72.937  70.586 104.458
37669DA     SC244841  72.775  70.473 104.610
37669DA     SC344842  72.632  70.440 104.399
37669DA     SC444843  72.864  70.574 104.315
37670DT     BB144844  73.399  70.622 104.527
37670DT     BB244845  73.287  70.446 104.821
37670DT     BB344846  73.284  70.242 104.784
37670DT     SC144847  73.067  70.263 104.638
37670DT     SC244848  72.902  70.172 104.742
37670DT     SC344849  72.907  70.255 104.428
37671DT     BB144850  73.503  70.210 104.941
37671DT     BB244851  73.263  69.978 105.078
37671DT     BB344852  73.273  69.798 104.976
37671DT     SC144853  73.150  69.899 104.768
37671DT     SC244854  72.954  69.813 104.752
37671DT     SC344855  73.106  69.981 104.521
37672DT     BB144856  73.402  69.666 105.185
37672DT     BB244857  73.113  69.460 105.118
37672DT     BB344858  73.159  69.318 104.974
37672DT     SC144859  73.152  69.498 104.784
37672DT     SC244860  72.981  69.463 104.658
37672DT     SC344861  73.232  69.655 104.587
37673DC     BB144862  73.172  69.102 105.154
37673DC     BB244863  72.931  68.995 104.908
37673DC     BB344864  73.026  68.892 104.756
37673DC     SC144865  73.122  69.114 104.655
37673DC     SC244866  73.025  69.155 104.467
37673DC     SC344867  73.295  69.297 104.577
37674DA     BB144868  72.719  68.638 104.887
37674DA     BB244869  72.698  68.657 104.521
37674DA     BB344870  72.854  68.542 104.432
37674DA     SC144871  73.055  68.778 104.420
37674DA     SC244872  73.161  68.922 104.246
37674DA     SC344873  73.338  68.973 104.425
37674DA     SC444874  73.156  68.796 104.544
37675DA     BB144875  72.596  68.412 104.277
37675DA     BB244876  72.749  68.526 103.964
37675DA     BB344877  72.914  68.401 103.913
37675DA     SC144878  73.124  68.574 104.065
37675DA     SC244879  73.314  68.725 104.009
37675DA     SC344880  73.391  68.684 104.250
37675DA     SC444881  73.156  68.535 104.217
37676DA     BB144882  72.747  68.382 103.630
37676DA     BB244883  73.043  68.523 103.466
37676DA     BB344884  73.196  68.376 103.451
37676DA     SC144885  73.327  68.450 103.723
37676DA     SC244886  73.538  68.557 103.803
37676DA     SC344887  73.487  68.442 104.027
37676DA     SC444888  73.279  68.369 103.853
37677DT     BB144889  73.257  68.297 103.264
37677DT     BB244890  73.577  68.461 103.243
37677DT     BB344891  73.729  68.324 103.278
37677DT     SC144892  73.677  68.321 103.535
37677DT     SC244893  73.839  68.415 103.642
37677DT     SC344894  73.607  68.231 103.773
37678DT     BB144895  73.819  68.289 103.006
37678DT     BB244896  74.123  68.375 103.181
37678DT     BB344897  74.220  68.203 103.243
37678DT     SC144898  74.045  68.166 103.436
37678DT     SC244899  74.141  68.200 103.626
37678DT     SC344900  73.855  68.054 103.580
37679DC     BB144901  74.448  68.164 103.042
37679DC     BB244902  74.622  68.161 103.359
37679DC     BB344903  74.653  67.966 103.420
37679DC     SC144904  74.401  67.938 103.487
37679DC     SC244905  74.386  67.924 103.701
37679DC     SC344906  74.154  67.847 103.488
37680DC     BB144907  74.954  67.899 103.360
37680DC     BB244908  74.927  67.836 103.714
37680DC     BB344909  74.904  67.633 103.748
37680DC     SC144910  74.655  67.639 103.666
37680DC     SC244911  74.524  67.606 103.833
37680DC     SC344912  74.440  67.589 103.521
37681DA     BB144913  75.243  67.714 103.984
37681DA     BB244914  74.995  67.555 104.202
37681DA     BB344915  74.999  67.343 104.177
37681DA     SC144916  74.784  67.342 103.952
37681DA     SC244917  74.548  67.267 103.923
37681DA     SC344918  74.599  67.272 103.671
37681DA     SC444919  74.836  67.349 103.800
37682DT     BB144920  75.056  67.230 104.336
37682DT     BB244921  74.721  67.132 104.428
37682DT     BB344922  74.690  66.933 104.381
37682DT     SC144923  74.671  66.989 104.125
37682DT     SC244924  74.467  66.960 104.061
37682DT     SC344925  74.725  66.992 103.867
37683DT     BB144926  74.686  66.906 104.642
37683DT     BB244927  74.362  66.796 104.527
37683DT     BB344928  74.372  66.600 104.462
37683DT     SC144929  74.496  66.671 104.242
37683DT     SC244930  74.365  66.641 104.074
37683DT     SC344931  74.685  66.691 104.059
37684DT     BB144932  74.223  66.575 104.672
37684DT     BB244933  74.028  66.451 104.396
37684DT     BB344934  74.089  66.259 104.347
37684DT     SC144935  74.307  66.349 104.233
37684DT     SC244936  74.294  66.320 104.020
37684DT     SC344937  74.563  66.391 104.186
37685DA     BB144938  73.671  66.304 104.380
37685DA     BB244939  73.747  66.124 104.070
37685DA     BB344940  73.825  65.930 104.115
37685DA     SC144941  74.122  66.025 104.118
37685DA     SC244942  74.326  65.996 103.978
37685DA     SC344943  74.455  66.067 104.189
37685DA     SC444944  74.184  66.070 104.259
37686DA     BB144945  73.582  65.875 103.902
37686DA     BB244946  73.837  65.717 103.691
37686DA     BB344947  73.902  65.534 103.778
37686DA     SC144948  74.134  65.665 103.938
37686DA     SC244949  74.384  65.667 103.933
37686DA     SC344950  74.367  65.747 104.177
37686DA     SC444951  74.103  65.712 104.089
37687DA     BB144952  73.822  65.435 103.476
37687DA     BB244953  74.169  65.321 103.443
37687DA     BB344954  74.202  65.147 103.563
37687DA     SC144955  74.290  65.307 103.815
37687DA     SC244956  74.499  65.346 103.945
37687DA     SC344957  74.343  65.416 104.136
37687DA     SC444958  74.176  65.345 103.922
37688DT     BB144959  74.240  64.976 103.469
37688DT     BB244960  74.590  64.953 103.553
37688DT     BB344961  74.618  64.814 103.704
37688DT     SC144962  74.521  64.979 103.884
37688DT     SC244963  74.679  65.043 104.015
37688DT     SC344964  74.362  65.078 104.069
37689DT     BB144965  74.728  64.636 103.529
37689DT     BB244966  74.978  64.672 103.787
37689DT     BB344967  74.940  64.538 103.941
37689DT     SC144968  74.739  64.682 104.028
37689DT     SC244969  74.791  64.771 104.217
37689DT     SC344970  74.493  64.751 104.092
37690DT     BB144971  75.153  64.381 103.868
37690DT     BB244972  75.216  64.460 104.214
37690DT     BB344973  75.123  64.321 104.336
37690DT     SC144974  74.887  64.428 104.290
37690DT     SC244975  74.817  64.524 104.469
37690DT     SC344976  74.638  64.454 104.208
37691DA     BB144977  75.522  64.318 104.465
37691DA     BB244978  75.312  64.348 104.764
37691DA     BB344979  75.221  64.160 104.810
37691DA     SC144980  74.966  64.214 104.639
37691DA     SC244981  74.724  64.258 104.678
37691DA     SC344982  74.692  64.184 104.435
37691DA     SC444983  74.967  64.163 104.487
37692DT     BB144984  75.271  64.047 104.986
37692DT     BB244985  74.968  64.117 105.169
37692DT     BB344986  74.849  63.948 105.177
37692DT     SC144987  74.778  63.977 104.926
37692DT     SC244988  74.570  64.033 104.916
37692DT     SC344989  74.751  63.927 104.668
37693DT     BB144990  74.902  63.891 105.447
37693DT     BB244991  74.542  63.916 105.433
37693DT     BB344992  74.460  63.730 105.395
37693DT     SC144993  74.533  63.741 105.143
37693DT     SC244994  74.358  63.762 105.019
37693DT     SC344995  74.655  63.681 104.917
37694DA     BB144996  74.262  63.858 105.743
37694DA     BB244997  74.006  63.750 105.504
37694DA     BB344998  73.997  63.537 105.496
37694DA     SC144999  74.204  63.514 105.265
37694DA     SC245000  74.205  63.451 105.023
37694DA     SC345001  74.457  63.413 105.055
37694DA     SC445002  74.359  63.495 105.305
37695DA     BB145003  73.678  63.579 105.566
37695DA     BB245004  73.604  63.428 105.240
37695DA     BB345005  73.622  63.216 105.251
37695DA     SC145006  73.923  63.213 105.171
37695DA     SC245007  74.061  63.141 104.976
37695DA     SC345008  74.257  63.140 105.141
37695DA     SC445009  74.032  63.217 105.289
37696DA     BB145010  73.319  63.232 105.132
37696DA     BB245011  73.447  63.059 104.835
37696DA     BB345012  73.473  62.851 104.875
37696DA     SC145013  73.767  62.881 104.971
37696DA     SC245014  73.995  62.819 104.890
37696DA     SC345015  74.067  62.848 105.134
37696DA     SC445016  73.792  62.903 105.128
37697DA     BB145017  73.290  62.851 104.607
37697DA     BB245018  73.571  62.678 104.446
37697DA     BB345019  73.581  62.476 104.512
37697DA     SC145020  73.772  62.538 104.750
37697DA     SC245021  74.009  62.494 104.812
37697DA     SC345022  73.933  62.542 105.053
37697DA     SC445023  73.705  62.569 104.893
37698DT     BB145024  73.552  62.364 104.373
37698DT     BB245025  73.894  62.257 104.332
37698DT     BB345026  73.922  62.073 104.424
37698DT     SC145027  73.919  62.182 104.662
37698DT     SC245028  74.115  62.172 104.748
37698DT     SC345029  73.842  62.240 104.908
37699DC     BB145030  73.950  62.006 104.176
37699DC     BB245031  74.257  61.910 104.339
37699DC     BB345032  74.230  61.732 104.442
37699DC     SC145033  74.094  61.854 104.631
37699DC     SC245034  74.210  61.856 104.812
37699DC     SC345035  73.893  61.921 104.789
37700DT     BB145036  74.391  61.658 104.256
37700DT     BB245037  74.553  61.573 104.567
37700DT     BB345038  74.469  61.401 104.646
37700DT     SC145039  74.254  61.531 104.721
37700DT     SC245040  74.249  61.544 104.936
37700DT     SC345041  74.001  61.605 104.737
37701DT     BB145042  74.700  61.296 104.583
37701DT     BB245043  74.657  61.227 104.934
37701DT     BB345044  74.533  61.063 104.959
37701DT     SC145045  74.321  61.205 104.897
37701DT     SC245046  74.199  61.231 105.073
37701DT     SC345047  74.107  61.287 104.767
37702DA     BB145048  74.880  60.991 105.186
37702DA     BB245049  74.590  60.914 105.396
37702DA     BB345050  74.496  60.734 105.331
37702DA     SC145051  74.302  60.877 105.135
37702DA     SC245052  74.057  60.923 105.119
37702DA     SC345053  74.101  60.960 104.869
37702DA     SC445054  74.349  60.894 104.982
37703DA     BB145055  74.538  60.641 105.645
37703DA     BB245056  74.173  60.609 105.666
37703DA     BB345057  74.109  60.431 105.568
37703DA     SC145058  74.069  60.567 105.291
37703DA     SC245059  73.880  60.631 105.142
37703DA     SC345060  74.055  60.638 104.956
37703DA     SC445061  74.193  60.565 105.189
37704DA     BB145062  73.965  60.375 105.859
37704DA     BB245063  73.645  60.378 105.679
37704DA     BB345064  73.618  60.196 105.572
37704DA     SC145065  73.752  60.301 105.311
37704DA     SC245066  73.681  60.363 105.080
37704DA     SC345067  73.929  60.332 105.019
37704DA     SC445068  73.909  60.276 105.293
37705DT     BB145069  73.471  60.077 105.630
37705DT     BB245070  73.248  60.146 105.355
37705DT     BB345071  73.249  59.987 105.222
37705DT     SC145072  73.485  60.056 105.130
37705DT     SC245073  73.464  60.129 104.929
37705DT     SC345074  73.742  60.044 105.072
37706DT     BB145075  73.003  59.936 105.307
37706DT     BB245076  72.971  59.980 104.951
37706DT     BB345077  73.017  59.804 104.853
37706DT     SC145078  73.273  59.837 104.897
37706DT     SC245079  73.373  59.879 104.711
37706DT     SC345080  73.517  59.794 104.988
37707DT     BB145081  72.758  59.791 104.798
37707DT     BB245082  72.923  59.775 104.478
37707DT     BB345083  72.985  59.581 104.439
37707DT     SC145084  73.183  59.603 104.610
37707DT     SC245085  73.370  59.606 104.503
37707DT     SC345086  73.335  59.559 104.821
37708DT     BB145087  72.790  59.558 104.254
37708DT     BB245088  73.092  59.473 104.076
37708DT     BB345089  73.136  59.272 104.104
37708DT     SC145090  73.219  59.316 104.349
37708DT     SC245091  73.432  59.289 104.359
37708DT     SC345092  73.231  59.306 104.612
37709DT     BB145093  73.056  59.194 103.847
37709DT     BB245094  73.393  59.067 103.873
37709DT     BB345095  73.392  58.877 103.954
37709DT     SC145096  73.341  58.970 104.194
37709DT     SC245097  73.514  58.942 104.319
37709DT     SC345098  73.216  59.016 104.421
37710DT     BB145099  73.437  58.712 103.713
37710DT     BB245100  73.699  58.604 103.936
37710DT     BB345101  73.637  58.437 104.043
37710DT     SC145102  73.481  58.583 104.196
37710DT     SC245103  73.562  58.588 104.395
37710DT     SC345104  73.263  58.677 104.309
37711DA     BB145105  73.983  58.262 103.870
37711DA     BB245106  74.004  58.197 104.230
37711DA     BB345107  73.884  58.029 104.282
37711DA     SC145108  73.629  58.197 104.339
37711DA     SC245109  73.492  58.264 104.537
37711DA     SC345110  73.306  58.310 104.366
37711DA     SC445111  73.525  58.219 104.218
37712DA     BB145112  74.156  57.891 104.415
37712DA     BB245113  73.990  57.916 104.741
37712DA     BB345114  73.858  57.751 104.770
37712DA     SC145115  73.611  57.897 104.647
37712DA     SC245116  73.394  57.991 104.726
37712DA     SC345117  73.321  57.973 104.481
37712DA     SC445118  73.584  57.876 104.490
37713DT     BB145119  73.898  57.613 104.920
37713DT     BB245120  73.650  57.738 105.150
37713DT     BB345121  73.491  57.606 105.162
37713DT     SC145122  73.401  57.681 104.927
37713DT     SC245123  73.217  57.789 104.953
37713DT     SC345124  73.330  57.669 104.674
37714DA     BB145125  73.631  57.712 105.542
37714DA     BB245126  73.268  57.761 105.534
37714DA     BB345127  73.168  57.573 105.531
37714DA     SC145128  73.160  57.555 105.220
37714DA     SC245129  72.989  57.567 105.039
37714DA     SC345130  73.164  57.446 104.895
37714DA     SC445131  73.281  57.479 105.147
37715DA     BB145132  73.033  57.741 105.774
37715DA     BB245133  72.718  57.706 105.589
37715DA     BB345134  72.650  57.504 105.596
37715DA     SC145135  72.799  57.419 105.336
37715DA     SC245136  72.740  57.355 105.102
37715DA     SC345137  72.973  57.248 105.094
37715DA     SC445138  72.947  57.358 105.351
37716DC     BB145139  72.493  57.494 105.685
37716DC     BB245140  72.282  57.432 105.399
37716DC     BB345141  72.244  57.230 105.381
37716DC     SC145142  72.486  57.184 105.291
37716DC     SC245143  72.475  57.129 105.083
37716DC     SC345144  72.732  57.091 105.277
37717DA     BB145145  71.884  57.445 105.362
37717DA     BB245146  71.888  57.203 105.086
37717DA     BB345147  71.866  57.005 105.162
37717DA     SC145148  72.171  56.956 105.194
37717DA     SC245149  72.348  56.817 105.087
37717DA     SC345150  72.481  56.855 105.303
37717DA     SC445151  72.237  56.990 105.337
37718DT     BB145152  71.702  56.913 105.111
37718DT     BB245153  71.849  56.682 104.876
37718DT     BB345154  71.868  56.495 104.963
37718DT     SC145155  72.072  56.575 105.108
37718DT     SC245156  72.251  56.479 105.038
37718DT     SC345157  72.217  56.636 105.319
37719DT     BB145158  71.666  56.403 104.808
37719DT     BB245159  71.942  56.182 104.737
37719DT     BB345160  71.947  56.028 104.875
37719DT     SC145161  72.040  56.187 105.062
37719DT     SC245162  72.244  56.133 105.105
37719DT     SC345163  72.055  56.325 105.286
37720DC     BB145164  71.863  55.858 104.683
37720DC     BB245165  72.172  55.715 104.804
37720DC     BB345166  72.135  55.597 104.970
37720DC     SC145167  72.101  55.808 105.122
37720DC     SC245168  72.264  55.823 105.261
37720DC     SC345169  71.983  55.984 105.280
37721DA     BB145170  72.359  55.369 104.697
37721DA     BB245171  72.517  55.339 105.027
37721DA     BB345172  72.397  55.218 105.155
37721DA     SC145173  72.233  55.456 105.269
37721DA     SC245174  72.211  55.578 105.485
37721DA     SC345175  71.985  55.657 105.394
37721DA     SC445176  72.095  55.493 105.195
37722DT     BB145177  72.474  55.044 105.212
37722DT     BB245178  72.546  55.137 105.553
37722DT     BB345179  72.404  55.056 105.680
37722DT     SC145180  72.225  55.233 105.604
37722DT     SC245181  72.185  55.369 105.766
37722DT     SC345182  72.005  55.334 105.499
37723DA     BB145183  72.778  54.944 105.834
37723DA     BB245184  72.579  55.081 106.110
37723DA     BB345185  72.426  54.943 106.167
37723DA     SC145186  72.214  55.060 105.972
37723DA     SC245187  72.002  55.190 105.986
37723DA     SC345188  71.956  55.102 105.749
37723DA     SC445189  72.204  54.994 105.825
37724DA     BB145190  72.558  54.974 106.469
37724DA     BB245191  72.234  55.106 106.578
37724DA     BB345192  72.093  54.948 106.601
37724DA     SC145193  71.988  54.964 106.309
37724DA     SC245194  71.780  55.034 106.191
37724DA     SC345195  71.867  54.892 105.996
37724DA     SC445196  72.059  54.870 106.199
37725DA     BB145197  72.054  55.065 106.909
37725DA     BB245198  71.705  55.133 106.820
37725DA     BB345199  71.590  54.954 106.827
37725DA     SC145200  71.639  54.882 106.528
37725DA     SC245201  71.508  54.872 106.316
37725DA     SC345202  71.695  54.718 106.231
37725DA     SC445203  71.765  54.787 106.494
37726DG     BB145204  71.417  55.090 107.051
37726DG     BB245205  71.158  55.073 106.798
37726DG     BB345206  71.069  54.896 106.804
37726DG     SC145207  71.261  54.764 106.606
37726DG     SC245208  71.192  54.668 106.332
37726DG     SC345209  71.465  54.583 106.407
37726DG     SC445210  71.395  54.696 106.661
37727DT     BB145211  70.850  54.875 106.852
37727DT     BB245212  70.718  54.815 106.522
37727DT     BB345213  70.666  54.616 106.501
37727DT     SC145214  70.918  54.544 106.482
37727DT     SC245215  70.958  54.478 106.281
37727DT     SC345216  71.148  54.429 106.538
37728DA     BB145217  70.359  54.872 106.379
37728DA     BB245218  70.423  54.630 106.112
37728DA     BB345219  70.356  54.436 106.170
37728DA     SC145220  70.628  54.352 106.294
37728DA     SC245221  70.813  54.193 106.244
37728DA     SC345222  70.875  54.217 106.491
37728DA     SC445223  70.649  54.379 106.452
37729DA     BB145224  70.242  54.516 105.876
37729DA     BB245225  70.424  54.219 105.761
37729DA     BB345226  70.335  54.042 105.840
37729DA     SC145227  70.514  54.038 106.095
37729DA     SC245228  70.700  53.900 106.187
37729DA     SC345229  70.636  54.002 106.414
37729DA     SC445230  70.458  54.111 106.226
37730DA     BB145231  70.397  54.033 105.516
37730DA     BB245232  70.596  53.737 105.599
37730DA     BB345233  70.471  53.585 105.681
37730DA     SC145234  70.510  53.678 105.976
37730DA     SC245235  70.623  53.596 106.182
37730DA     SC345236  70.465  53.756 106.307
37730DA     SC445237  70.402  53.782 106.035
37731DG     BB145238  70.622  53.472 105.437
37731DG     BB245239  70.750  53.248 105.690
37731DG     BB345240  70.606  53.125 105.751
37731DG     SC145241  70.508  53.310 105.974
37731DG     SC245242  70.527  53.256 106.267
37731DG     SC345243  70.362  53.496 106.215
37731DG     SC445244  70.397  53.420 105.941
37732DG     BB145245  70.818  52.892 105.664
37732DG     BB245246  70.799  52.784 106.008
37732DG     BB345247  70.629  52.686 106.039
37732DG     SC145248  70.471  52.936 106.117
37732DG     SC245249  70.359  52.996 106.387
37732DG     SC345250  70.262  53.192 106.188
37732DG     SC445251  70.398  53.021 106.002
37733DT     BB145252  70.627  52.473 106.096
37733DT     BB245253  70.528  52.488 106.443
37733DT     BB345254  70.328  52.440 106.461
37733DT     SC145255  70.254  52.673 106.365
37733DT     SC245256  70.165  52.789 106.522
37733DT     SC345257  70.146  52.852 106.205
37734DA     BB145258  70.526  52.184 106.730
37734DA     BB245259  70.246  52.338 106.909
37734DA     BB345260  70.061  52.252 106.846
37734DA     SC145261  70.014  52.460 106.619
37734DA     SC245262  69.859  52.649 106.571
37734DA     SC345263  69.928  52.616 106.326
37734DA     SC445264  70.068  52.423 106.472
37735DG     BB145265  70.024  52.161 107.144
37735DG     BB245266  69.744  52.390 107.132
37735DG     BB345267  69.585  52.299 107.055
37735DG     SC145268  69.650  52.376 106.766
37735DG     SC245269  69.492  52.562 106.594
37735DG     SC345270  69.703  52.426 106.437
37735DG     SC445271  69.745  52.280 106.679
37736DT     BB145272  69.402  52.272 107.173
37736DT     BB245273  69.186  52.522 107.028
37736DT     BB345274  69.049  52.431 106.902
37736DT     SC145275  69.231  52.391 106.718
37736DT     SC245276  69.191  52.519 106.549
37736DT     SC345277  69.393  52.266 106.552
37737DT     BB145278  68.866  52.492 107.085
37737DT     BB245279  68.751  52.650 106.781
37737DT     BB345280  68.648  52.513 106.665
37737DT     SC145281  68.871  52.394 106.593
37737DT     SC245282  68.908  52.432 106.385
37737DT     SC345283  69.055  52.207 106.566
37738DT     BB145284  68.432  52.652 106.728
37738DT     BB245285  68.442  52.652 106.368
37738DT     BB345286  68.360  52.477 106.294
37738DT     SC145287  68.573  52.340 106.362
37738DT     SC245288  68.678  52.279 106.185
37738DT     SC345289  68.726  52.162 106.484
37739DT     BB145290  68.149  52.619 106.212
37739DT     BB245291  68.269  52.453 105.915
37739DT     BB345292  68.191  52.262 105.905
37739DT     SC145293  68.353  52.177 106.093
37739DT     SC245294  68.498  52.043 106.008
37739DT     SC345295  68.436  52.080 106.324
37740DG     BB145296  68.065  52.443 105.560
37740DG     BB245297  68.226  52.127 105.490
37740DG     BB345298  68.100  51.977 105.528
37740DG     SC145299  68.185  51.947 105.820
37740DG     SC245300  68.328  51.713 105.938
37740DG     SC345301  68.239  51.900 106.150
37740DG     SC445302  68.111  52.035 105.932
37741DC     BB145303  68.002  51.815 105.368
37741DC     BB245304  68.196  51.521 105.445
37741DC     BB345305  68.077  51.381 105.542
37741DC     SC145306  68.083  51.519 105.765
37741DC     SC245307  68.200  51.414 105.912
37741DC     SC345308  68.000  51.662 105.971
37742DT     BB145309  68.054  51.207 105.322
37742DT     BB245310  68.194  50.999 105.582
37742DT     BB345311  68.042  50.907 105.688
37742DT     SC145312  67.982  51.130 105.812
37742DT     SC245313  68.036  51.113 106.019
37742DT     SC345314  67.844  51.340 105.891
37743DT     BB145315  68.102  50.665 105.574
37743DT     BB245316  68.133  50.609 105.929
37743DT     BB345317  67.950  50.553 106.008
37743DT     SC145318  67.860  50.799 105.992
37743DT     SC245319  67.837  50.880 106.190
37743DT     SC345320  67.712  51.004 105.918
37744DC     BB145321  68.055  50.310 106.040
37744DC     BB245322  67.952  50.411 106.371
37744DC     BB345323  67.751  50.369 106.398
37744DC     SC145324  67.680  50.570 106.246
37744DC     SC245325  67.588  50.722 106.368
37744DC     SC345326  67.575  50.705 106.045
37745DT     BB145327  67.831  50.177 106.565
37745DT     BB245328  67.609  50.385 106.761
37745DT     BB345329  67.413  50.328 106.729
37745DT     SC145330  67.410  50.440 106.492
37745DT     SC245331  67.282  50.613 106.497
37745DT     SC345332  67.394  50.466 106.230
37746DT     BB145333  67.410  50.224 106.978
37746DT     BB245334  67.133  50.454 106.973
37746DT     BB345335  66.965  50.361 106.896
37746DT     SC145336  67.060  50.374 106.652
37746DT     SC245337  66.944  50.515 106.537
37746DT     SC345338  67.152  50.297 106.417
37747DT     BB145339  66.843  50.342 107.144
37747DT     BB245340  66.599  50.512 106.941
37747DT     BB345341  66.477  50.374 106.846
37747DT     SC145342  66.668  50.313 106.676
37747DT     SC245343  66.614  50.385 106.480
37747DT     SC345344  66.849  50.172 106.547
37748DA     BB145345  66.188  50.609 107.044
37748DA     BB245346  66.078  50.577 106.695
37748DA     BB345347  65.991  50.385 106.663
37748DA     SC145348  66.259  50.251 106.578
37748DA     SC245349  66.362  50.159 106.371
37748DA     SC345350  66.518  50.031 106.529
37748DA     SC445351  66.345  50.179 106.693
37749DT     BB145352  65.761  50.330 106.618
37749DT     BB245353  65.808  50.266 106.266
37749DT     BB345354  65.777  50.066 106.226
37749DT     SC145355  66.007  50.000 106.333
37749DT     SC245356  66.141  49.934 106.178
37749DT     SC345357  66.183  49.891 106.496
37750DA     BB145358  65.516  50.259 105.961
37750DA     BB245359  65.720  50.027 105.764
37750DA     BB345360  65.649  49.827 105.787
37750DA     SC145361  65.833  49.764 106.030
37750DA     SC245362  66.032  49.622 106.079
37750DA     SC345363  65.964  49.647 106.325
37750DA     SC445364  65.774  49.791 106.177
37751DG     BB145365  65.612  49.854 105.483
37751DG     BB245366  65.876  49.606 105.479
37751DG     BB345367  65.799  49.425 105.506
37751DG     SC145368  65.822  49.434 105.811
37751DG     SC245369  66.001  49.263 105.979
37751DG     SC345370  65.814  49.417 106.148
37751DG     SC445371  65.701  49.494 105.897
37752DA     BB145372  65.998  49.380 105.232
37752DA     BB245373  66.185  49.127 105.420
37752DA     BB345374  66.066  48.952 105.447
37752DA     SC145375  65.946  49.046 105.718
37752DA     SC245376  65.962  48.984 105.959
37752DA     SC345377  65.739  49.107 105.985
37752DA     SC445378  65.806  49.126 105.713
37753DT     BB145379  66.147  48.820 105.362
37753DT     BB245380  66.264  48.643 105.654
37753DT     BB345381  66.131  48.492 105.704
37753DT     SC145382  65.960  48.665 105.801
37753DT     SC245383  65.950  48.644 106.015
37753DT     SC345384  65.739  48.806 105.831
37754DT     BB145385  66.324  48.334 105.623
37754DT     BB245386  66.253  48.231 105.961
37754DT     BB345387  66.087  48.107 105.963
37754DT     SC145388  65.925  48.311 105.925
37754DT     SC245389  65.810  48.346 106.103
37754DT     SC345390  65.747  48.468 105.810
37755DT     BB145391  66.248  47.898 106.015
37755DT     BB245392  66.006  47.895 106.283
37755DT     BB345393  65.836  47.793 106.224
37755DT     SC145394  65.759  47.993 106.073
37755DT     SC245395  65.585  48.084 106.159
37755DT     SC345396  65.694  48.131 105.857
37756DA     BB145397  65.948  47.606 106.583
37756DA     BB245398  65.590  47.682 106.605
37756DA     BB345399  65.478  47.546 106.485
37756DA     SC145400  65.488  47.725 106.231
37756DA     SC245401  65.330  47.862 106.095
37756DA     SC345402  65.505  47.841 105.908
37756DA     SC445403  65.608  47.699 106.127
37757DG     BB145404  65.333  47.449 106.748
37757DG     BB245405  65.043  47.596 106.589
37757DG     BB345406  64.958  47.463 106.468
37757DG     SC145407  65.124  47.545 106.223
37757DG     SC245408  65.019  47.676 105.976
37757DG     SC345409  65.301  47.596 105.941
37757DG     SC445410  65.265  47.474 106.198
37758DA     BB145411  64.662  47.527 106.634
37758DA     BB245412  64.513  47.649 106.321
37758DA     BB345413  64.457  47.485 106.197
37758DA     SC145414  64.730  47.472 106.048
37758DA     SC245415  64.818  47.520 105.820
37758DA     SC345416  65.014  47.368 105.886
37758DA     SC445417  64.842  47.373 106.108
37759DA     BB145418  64.192  47.670 106.220
37759DA     BB245419  64.222  47.710 105.856
37759DA     BB345420  64.170  47.529 105.757
37759DA     SC145421  64.461  47.418 105.757
37759DA     SC245422  64.641  47.372 105.590
37759DA     SC345423  64.738  47.216 105.769
37759DA     SC445424  64.505  47.324 105.880
37760DA     BB145425  64.011  47.781 105.627
37760DA     BB245426  64.178  47.685 105.315
37760DA     BB345427  64.108  47.495 105.248
37760DA     SC145428  64.326  47.334 105.401
37760DA     SC245429  64.527  47.197 105.346
37760DA     SC345430  64.497  47.096 105.580
37760DA     SC445431  64.290  47.282 105.549
37761DG     BB145432  64.056  47.692 105.019
37761DG     BB245433  64.285  47.470 104.847
37761DG     BB345434  64.193  47.300 104.802
37761DG     SC145435  64.268  47.161 105.064
37761DG     SC245436  64.452  46.928 105.093
37761DG     SC345437  64.315  46.986 105.349
37761DG     SC445438  64.171  47.177 105.191
37762DT     BB145439  64.184  47.260 104.604
37762DT     BB245440  64.416  46.987 104.566
37762DT     BB345441  64.314  46.807 104.566
37762DT     SC145442  64.275  46.820 104.826
37762DT     SC245443  64.393  46.669 104.923
37762DT     SC345444  64.151  46.837 105.058
37763DA     BB145445  64.570  46.818 104.235
37763DA     BB245446  64.610  46.493 104.399
37763DA     BB345447  64.437  46.372 104.367
37763DA     SC145448  64.292  46.470 104.624
37763DA     SC245449  64.227  46.377 104.846
37763DA     SC345450  64.058  46.571 104.855
37763DA     SC445451  64.193  46.596 104.610
37764DT     BB145452  64.464  46.214 104.260
37764DT     BB245453  64.435  45.969 104.524
37764DT     BB345454  64.247  45.882 104.519
37764DT     SC145455  64.136  46.097 104.621
37764DT     SC245456  64.070  46.055 104.821
37764DT     SC345457  63.984  46.311 104.642
37765DT     BB145458  64.357  45.653 104.424
37765DT     BB245459  64.174  45.549 104.717
37765DT     BB345460  63.977  45.510 104.668
37765DT     SC145461  63.923  45.766 104.649
37765DT     SC245462  63.794  45.824 104.811
37765DT     SC345463  63.854  45.998 104.544
37766DA     BB145464  64.111  45.166 104.868
37766DA     BB245465  63.785  45.255 105.009
37766DA     BB345466  63.629  45.207 104.872
37766DA     SC145467  63.632  45.485 104.733
37766DA     SC245468  63.484  45.685 104.718
37766DA     SC345469  63.617  45.743 104.506
37766DA     SC445470  63.725  45.503 104.603
37767DT     BB145471  63.483  45.049 104.906
37767DT     BB245472  63.198  45.259 104.971
37767DT     BB345473  63.067  45.252 104.810
37767DT     SC145474  63.224  45.404 104.665
37767DT     SC245475  63.132  45.597 104.638
37767DT     SC345476  63.385  45.481 104.471
37768DA     BB145477  62.803  45.137 105.120
37768DA     BB245478  62.629  45.396 104.927
37768DA     BB345479  62.551  45.313 104.746
37768DA     SC145480  62.806  45.375 104.579
37768DA     SC245481  62.872  45.529 104.394
37768DA     SC345482  63.065  45.365 104.354
37768DA     SC445483  62.918  45.261 104.569
37769DA     BB145484  62.224  45.404 104.811
37769DA     BB245485  62.232  45.618 104.513
37769DA     BB345486  62.183  45.504 104.339
37769DA     SC145487  62.479  45.429 104.277
37769DA     SC245488  62.651  45.483 104.105
37769DA     SC345489  62.766  45.267 104.182
37769DA     SC445490  62.534  45.290 104.338
37770DA     BB145491  61.917  45.702 104.250
37770DA     BB245492  62.101  45.797 103.947
37770DA     BB345493  62.066  45.655 103.791
37770DA     SC145494  62.309  45.475 103.868
37770DA     SC245495  62.531  45.416 103.773
37770DA     SC345496  62.519  45.211 103.927
37770DA     SC445497  62.282  45.354 103.969
37771DA     BB145498  61.953  45.896 103.585
37771DA     BB245499  62.243  45.832 103.370
37771DA     BB345500  62.201  45.674 103.234
37771DA     SC145501  62.308  45.451 103.423
37771DA     SC245502  62.501  45.294 103.433
37771DA     SC345503  62.356  45.157 103.595
37771DA     SC445504  62.202  45.379 103.521
37772DA     BB145505  62.290  45.896 103.014
37772DA     BB245506  62.572  45.678 102.932
37772DA     BB345507  62.509  45.519 102.804
37772DA     SC145508  62.442  45.325 103.038
37772DA     SC245509  62.533  45.114 103.134
37772DA     SC345510  62.300  45.086 103.239
37772DA     SC445511  62.291  45.325 103.093
37773DT     BB145512  62.591  45.528 102.635
37773DT     BB245513  62.824  45.257 102.689
37773DT     BB345514  62.757  45.086 102.593
37773DT     SC145515  62.572  45.046 102.775
37773DT     SC245516  62.622  44.872 102.891
37773DT     SC345517  62.334  45.020 102.885
37774DT     BB145518  62.968  45.139 102.451
37774DT     BB245519  63.019  44.806 102.581
37774DT     BB345520  62.913  44.669 102.467
37774DT     SC145521  62.685  44.744 102.575
37774DT     SC245522  62.611  44.586 102.700
37774DT     SC345523  62.442  44.842 102.597
37775DT     BB145524  63.156  44.603 102.406
37775DT     BB245525  63.001  44.302 102.530
37775DT     BB345526  62.883  44.217 102.382
37775DT     SC145527  62.698  44.400 102.416
37775DT     SC245528  62.524  44.310 102.505
37775DT     SC345529  62.536  44.602 102.364
37776DA     BB145530  63.135  43.924 102.549
37776DA     BB245531  62.799  43.781 102.515
37776DA     BB345532  62.752  43.751 102.309
37776DA     SC145533  62.622  44.031 102.273
37776DA     SC245534  62.395  44.127 102.237
37776DA     SC345535  62.518  44.335 102.151
37776DA     SC445536  62.717  44.151 102.222
37777DA     BB145537  62.688  43.429 102.384
37777DA     BB245538  62.350  43.474 102.249
37777DA     BB345539  62.355  43.472 102.035
37777DA     SC145540  62.393  43.780 102.009
37777DA     SC245541  62.261  43.976 101.932
37777DA     SC345542  62.487  44.095 101.910
37777DA     SC445543  62.544  43.835 102.001
37778DT     BB145544  62.279  43.299 101.857
37778DT     BB245545  61.997  43.485 101.729
37778DT     BB345546  62.032  43.542 101.534
37778DT     SC145547  62.200  43.729 101.610
37778DT     SC245548  62.113  43.922 101.574
37778DT     SC345549  62.425  43.863 101.641
37779DT     BB145550  61.887  43.337 101.308
37779DT     BB245551  61.768  43.659 101.196
37779DT     BB345552  61.875  43.720 101.030
37779DT     SC145553  62.085  43.779 101.176
37779DT     SC245554  62.111  43.992 101.181
37779DT     SC345555  62.330  43.771 101.272
37780DT     BB145556  61.715  43.671 100.725
37780DT     BB245557  61.782  44.025 100.721
37780DT     BB345558  61.939  44.066 100.593
37780DT     SC145559  62.114  43.972 100.763
37780DT     SC245560  62.232  44.134 100.841
37780DT     SC345561  62.302  43.818 100.867
37781DA     BB145562  61.655  44.317 100.400
37781DA     BB245563  61.939  44.531 100.492
37781DA     BB345564  62.088  44.524 100.341
37781DA     SC145565  62.242  44.286 100.468
37781DA     SC245566  62.460  44.246 100.583
37781DA     SC345567  62.425  44.000 100.522
37781DA     SC445568  62.203  44.137 100.419
37782DA     BB145569  62.034  44.838 100.370
37782DA     BB245570  62.374  44.860 100.504
37782DA     BB345571  62.517  44.855 100.345
37782DA     SC145572  62.548  44.546 100.350
37782DA     SC245573  62.722  44.378 100.414
37782DA     SC345574  62.590  44.215 100.266
37782DA     SC445575  62.453  44.460 100.253
37783DC     BB145576  62.597  45.007 100.357
37783DC     BB245577  62.901  44.880 100.505
37783DC     BB345578  63.044  44.851 100.358
37783DC     SC145579  62.922  44.635 100.272
37783DC     SC245580  63.041  44.462 100.319
37783DC     SC345581  62.792  44.471 100.111
37784DA     BB145582  63.168  45.045 100.712
37784DA     BB245583  63.409  44.782 100.629
37784DA     BB345584  63.512  44.831 100.449
37784DA     SC145585  63.308  44.686 100.263
37784DA     SC245586  63.302  44.483 100.119
37784DA     SC345587  63.103  44.596 100.004
37784DA     SC445588  63.187  44.773 100.204
37785DC     BB145589  63.680  44.849 100.492
37785DC     BB245590  63.807  44.552 100.333
37785DC     BB345591  63.877  44.597 100.143
37785DC     SC145592  63.632  44.619 100.050
37785DC     SC245593  63.593  44.456  99.915
37785DC     SC345594  63.416  44.726  99.944
37786DT     BB145595  64.122  44.559 100.241
37786DT     BB245596  64.103  44.341  99.954
37786DT     BB345597  64.148  44.447  99.782
37786DT     SC145598  63.914  44.566  99.785
37786DT     SC245599  63.795  44.494  99.621
37786DT     SC345600  63.734  44.758  99.799
37787DC     BB145601  64.395  44.327  99.759
37787DC     BB245602  64.241  44.266  99.439
37787DC     BB345603  64.280  44.424  99.311
37787DC     SC145604  64.108  44.578  99.434
37787DC     SC245605  63.938  44.613  99.307
37787DC     SC345606  64.011  44.779  99.575
37788DA     BB145607  64.414  44.092  99.090
37788DA     BB245608  64.205  44.292  98.865
37788DA     BB345609  64.312  44.463  98.796
37788DA     SC145610  64.217  44.647  99.029
37788DA     SC245611  64.067  44.844  99.059
37788DA     SC345612  64.196  44.883  99.277
37788DA     SC445613  64.310  44.655  99.160
37789DA     BB145614  64.245  44.360  98.488
37789DA     BB245615  64.060  44.672  98.437
37789DA     BB345616  64.194  44.832  98.394
37789DA     SC145617  64.229  44.915  98.692
37789DA     SC245618  64.165  45.106  98.839
37789DA     SC345619  64.353  45.024  98.993
37789DA     SC445620  64.351  44.849  98.774
37790DC     BB145621  64.200  44.928  98.202
37790DC     BB245622  64.034  45.232  98.304
37790DC     BB345623  64.170  45.389  98.308
37790DC     SC145624  64.278  45.300  98.530
37790DC     SC245625  64.231  45.434  98.691
37790DC     SC345626  64.458  45.202  98.697
37791DT     BB145627  64.053  45.494  98.087
37791DT     BB245628  64.032  45.755  98.335
37791DT     BB345629  64.205  45.868  98.333
37791DT     SC145630  64.339  45.679  98.455
37791DT     SC245631  64.387  45.742  98.655
37791DT     SC345632  64.519  45.491  98.498
37792DA     BB145633  63.877  46.128  98.305
37792DA     BB245634  64.097  46.252  98.570
37792DA     BB345635  64.274  46.337  98.486
37792DA     SC145636  64.435  46.070  98.493
37792DA     SC245637  64.628  45.975  98.618
37792DA     SC345638  64.646  45.809  98.423
37792DA     SC445639  64.431  45.978  98.362
37793DG     BB145640  64.172  46.590  98.632
37793DG     BB245641  64.476  46.545  98.823
37793DG     BB345642  64.631  46.620  98.723
37793DG     SC145643  64.693  46.358  98.576
37793DG     SC245644  64.937  46.190  98.613
37793DG     SC345645  64.777  46.095  98.384
37793DG     SC445646  64.621  46.329  98.437
37794DT     BB145647  64.744  46.784  98.808
37794DT     BB245648  65.044  46.615  98.915
37794DT     BB345649  65.198  46.652  98.781
37794DT     SC145650  65.094  46.488  98.605
37794DT     SC245651  65.219  46.314  98.587
37794DT     SC345652  64.984  46.401  98.382
37795DT     BB145653  65.309  46.804  98.970
37795DT     BB245654  65.558  46.554  98.893
37795DT     BB345655  65.668  46.613  98.728
37795DT     SC145656  65.470  46.557  98.565
37795DT     SC245657  65.522  46.385  98.446
37795DT     SC345658  65.278  46.590  98.388
37796DT     BB145659  65.869  46.648  98.898
37796DT     BB245660  65.991  46.411  98.655
37796DT     BB345661  66.063  46.512  98.488
37796DT     SC145662  65.819  46.565  98.406
37796DT     SC245663  65.778  46.451  98.228
37796DT     SC345664  65.605  46.703  98.338
37797DA     BB145665  66.341  46.229  98.626
37797DA     BB245666  66.301  46.187  98.264
37797DA     BB345667  66.388  46.352  98.160
37797DA     SC145668  66.126  46.520  98.157
37797DA     SC245669  65.959  46.597  97.990
37797DA     SC345670  65.895  46.774  98.164
37797DA     SC445671  66.103  46.623  98.278
37798DA     BB145672  66.516  46.085  98.021
37798DA     BB245673  66.371  46.211  97.708
37798DA     BB345674  66.474  46.387  97.645
37798DA     SC145675  66.285  46.582  97.797
37798DA     SC245676  66.111  46.751  97.741
37798DA     SC345677  66.154  46.843  97.977
37798DA     SC445678  66.327  46.625  97.946
37799DT     BB145679  66.564  46.362  97.484
37799DT     BB245680  66.349  46.563  97.275
37799DT     BB345681  66.432  46.750  97.248
37799DT     SC145682  66.366  46.823  97.492
37799DT     SC245683  66.210  46.971  97.483
37799DT     SC345684  66.390  46.900  97.743
37800DA     BB145685  66.338  46.601  96.866
37800DA     BB245686  66.215  46.946  96.886
37800DA     BB345687  66.379  47.083  96.883
37800DA     SC145688  66.410  47.089  97.193
37800DA     SC245689  66.372  47.251  97.379
37800DA     SC345690  66.533  47.103  97.513
37800DA     SC445691  66.513  46.985  97.259
37801DT     BB145692  66.425  47.220  96.716
37801DT     BB245693  66.322  47.526  96.879
37801DT     BB345694  66.488  47.640  96.925
37801DT     SC145695  66.551  47.482  97.125
37801DT     SC245696  66.519  47.585  97.311
37801DT     SC345697  66.687  47.310  97.272
37802DA     BB145698  66.261  47.914  96.700
37802DA     BB245699  66.361  48.086  97.008
37802DA     BB345700  66.565  48.148  96.995
37802DA     SC145701  66.678  47.886  97.119
37802DA     SC245702  66.788  47.814  97.331
37802DA     SC345703  66.869  47.611  97.196
37802DA     SC445704  66.719  47.767  97.018
37803DA     BB145705  66.462  48.458  97.060
37803DA     BB245706  66.658  48.444  97.369
37803DA     BB345707  66.864  48.485  97.328
37803DA     SC145708  66.939  48.187  97.281
37803DA     SC245709  67.073  48.010  97.395
37803DA     SC345710  67.078  47.894  97.166
37803DA     SC445711  66.932  48.131  97.130
37804DG     BB145712  66.829  48.729  97.519
37804DG     BB245713  67.060  48.543  97.726
37804DG     BB345714  67.247  48.581  97.671
37804DG     SC145715  67.259  48.355  97.465
37804DG     SC245716  67.430  48.111  97.483
37804DG     SC345717  67.301  48.129  97.218
37804DG     SC445718  67.212  48.384  97.315
37805DT     BB145719  67.379  48.671  97.814
37805DT     BB245720  67.582  48.388  97.908
37805DT     BB345721  67.767  48.401  97.815
37805DT     SC145722  67.665  48.330  97.584
37805DT     SC245723  67.735  48.133  97.533
37805DT     SC345724  67.590  48.342  97.331
37806DG     BB145725  67.800  48.365  98.219
37806DG     BB245726  67.996  48.117  98.045
37806DG     BB345727  68.159  48.201  97.967
37806DG     SC145728  68.026  48.272  97.701
37806DG     SC245729  68.093  48.154  97.435
37806DG     SC345730  67.906  48.382  97.405
37806DG     SC445731  67.950  48.412  97.687
37807DG     BB145732  68.301  47.968  98.141
37807DG     BB245733  68.432  47.851  97.825
37807DG     BB345734  68.582  47.967  97.767
37807DG     SC145735  68.403  48.162  97.612
37807DG     SC245736  68.401  48.200  97.316
37807DG     SC345737  68.236  48.405  97.450
37807DG     SC445738  68.340  48.287  97.689
37808DA     BB145739  68.746  47.664  97.727
37808DA     BB245740  68.813  47.748  97.377
37808DA     BB345741  68.960  47.901  97.364
37808DA     SC145742  68.753  48.134  97.367
37808DA     SC245743  68.665  48.305  97.209
37808DA     SC345744  68.590  48.431  97.419
37808DA     SC445745  68.715  48.198  97.510
37809DA     BB145746  69.115  47.686  97.164
37809DA     BB245747  69.102  47.943  96.903
37809DA     BB345748  69.246  48.096  96.941
37809DA     SC145749  69.050  48.272  97.107
37809DA     SC245750  68.932  48.490  97.083
37809DA     SC345751  68.910  48.483  97.338
37809DA     SC445752  69.048  48.250  97.267
37810DG     BB145753  69.408  48.035  96.668
37810DG     BB245754  69.313  48.372  96.579
37810DG     BB345755  69.447  48.501  96.649
37810DG     SC145756  69.306  48.540  96.918
37810DG     SC245757  69.176  48.792  97.013
37810DG     SC345758  69.190  48.592  97.230
37810DG     SC445759  69.342  48.442  97.039
37811DA     BB145760  69.529  48.666  96.336
37811DA     BB245761  69.409  48.989  96.462
37811DA     BB345762  69.564  49.088  96.570
37811DA     SC145763  69.483  48.965  96.845
37811DA     SC245764  69.382  49.042  97.059
37811DA     SC345765  69.484  48.830  97.160
37811DA     SC445766  69.555  48.828  96.889
37812DT     BB145767  69.678  49.285  96.510
37812DT     BB245768  69.504  49.500  96.741
37812DT     BB345769  69.634  49.567  96.887
37812DT     SC145770  69.632  49.334  97.007
37812DT     SC245771  69.529  49.351  97.195
37812DT     SC345772  69.718  49.104  97.103
37813DC     BB145773  69.647  49.827  96.784
37813DC     BB245774  69.528  49.871  97.122
37813DC     BB345775  69.688  49.896  97.251
37813DC     SC145776  69.749  49.641  97.239
37813DC     SC245777  69.707  49.549  97.428
37813DC     SC345778  69.885  49.421  97.190
37814DT     BB145779  69.621  50.158  97.279
37814DT     BB245780  69.613  50.025  97.614
37814DT     BB345781  69.801  50.036  97.699
37814DT     SC145782  69.887  49.834  97.555
37814DT     SC245783  69.920  49.664  97.682
37814DT     SC345784  70.026  49.697  97.378
37815DG     BB145785  69.538  50.235  97.937
37815DG     BB245786  69.728  49.990  98.125
37815DG     BB345787  69.910  50.059  98.161
37815DG     SC145788  70.031  49.945  97.904
37815DG     SC245789  70.235  49.728  97.887
37815DG     SC345790  70.192  49.852  97.622
37815DG     SC445791  70.027  50.034  97.770
37816DT     BB145792  69.974  50.090  98.366
37816DT     BB245793  70.204  49.816  98.414
37816DT     BB345794  70.399  49.883  98.401
37816DT     SC145795  70.382  49.905  98.141
37816DT     SC245796  70.506  49.756  98.048
37816DT     SC345797  70.379  50.014  97.900
37817DG     BB145798  70.370  49.718  98.774
37817DG     BB245799  70.655  49.585  98.595
37817DG     BB345800  70.806  49.714  98.603
37817DG     SC145801  70.725  49.864  98.349
37817DG     SC245802  70.878  49.869  98.092
37817DG     SC345803  70.654  50.062  98.085
37817DG     SC445804  70.623  49.987  98.360
37818DA     BB145805  71.020  49.465  98.727
37818DA     BB245806  71.241  49.503  98.438
37818DA     BB345807  71.367  49.674  98.463
37818DA     SC145808  71.171  49.871  98.324
37818DA     SC245809  71.160  50.001  98.112
37818DA     SC345810  70.986  50.145  98.234
37818DA     SC445811  71.066  49.949  98.417
37819DG     BB145812  71.620  49.483  98.454
37819DG     BB245813  71.692  49.661  98.148
37819DG     BB345814  71.797  49.825  98.188
37819DG     SC145815  71.550  50.003  98.225
37819DG     SC245816  71.470  50.230  98.048
37819DG     SC345817  71.303  50.222  98.292
37819DG     SC445818  71.483  50.014  98.370
37820DA     BB145819  72.026  49.717  97.954
37820DA     BB245820  71.963  50.016  97.752
37820DA     BB345821  72.067  50.184  97.834
37820DA     SC145822  71.831  50.272  98.017
37820DA     SC245823  71.667  50.459  98.030
37820DA     SC345824  71.638  50.391  98.275
37820DA     SC445825  71.828  50.214  98.167
37821DT     BB145826  72.204  50.256  97.720
37821DT     BB245827  72.021  50.548  97.615
37821DT     BB345828  72.090  50.715  97.716
37821DT     SC145829  71.968  50.641  97.937
37821DT     SC245830  71.805  50.776  97.977
37821DT     SC345831  71.932  50.564  98.186
37822DA     BB145832  72.063  50.777  97.302
37822DA     BB245833  71.898  51.055  97.473
37822DA     BB345834  72.042  51.178  97.572
37822DA     SC145835  72.027  51.020  97.840
37822DA     SC245836  71.943  51.058  98.072
37822DA     SC345837  72.099  50.866  98.138
37822DA     SC445838  72.131  50.900  97.861
37823DA     BB145839  71.856  51.376  97.392
37823DA     BB245840  71.774  51.541  97.709
37823DA     BB345841  71.944  51.644  97.785
37823DA     SC145842  72.045  51.401  97.952
37823DA     SC245843  72.066  51.338  98.192
37823DA     SC345844  72.238  51.166  98.112
37823DA     SC445845  72.151  51.302  97.882
37824DA     BB145846  71.699  51.860  97.786
37824DA     BB245847  71.760  51.887  98.147
37824DA     BB345848  71.948  51.981  98.183
37824DA     SC145849  72.108  51.714  98.188
37824DA     SC245850  72.228  51.574  98.356
37824DA     SC345851  72.348  51.472  98.154
37824DA     SC445852  72.173  51.664  98.050
37825DT     BB145853  71.928  52.144  98.268
37825DT     BB245854  72.054  52.046  98.592
37825DT     BB345855  72.252  52.103  98.611
37825DT     SC145856  72.331  51.909  98.452
37825DT     SC245857  72.439  51.762  98.567
37825DT     SC345858  72.435  51.786  98.244
37826DT     BB145859  72.172  52.290  98.783
37826DT     BB245860  72.421  52.101  98.964
37826DT     BB345861  72.610  52.172  98.918
37826DT     SC145862  72.604  52.057  98.682
37826DT     SC245863  72.744  51.894  98.678
37826DT     SC345864  72.602  52.028  98.419
37827DT     BB145865  72.631  52.287  99.163
37827DT     BB245866  72.922  52.076  99.139
37827DT     BB345867  73.076  52.177  99.045
37827DT     SC145868  72.961  52.151  98.810
37827DT     SC245869  73.075  52.015  98.689
37827DT     SC345870  72.843  52.215  98.583
37828DA     BB145871  73.253  52.048  99.404
37828DA     BB245872  73.483  51.961  99.132
37828DA     BB345873  73.585  52.135  99.063
37828DA     SC145874  73.373  52.203  98.845
37828DA     SC245875  73.357  52.202  98.596
37828DA     SC345876  73.160  52.363  98.629
37828DA     SC445877  73.254  52.303  98.886
37829DC     BB145878  73.802  52.172  99.089
37829DC     BB245879  73.897  52.109  98.747
37829DC     BB345880  73.949  52.286  98.654
37829DC     SC145881  73.699  52.361  98.636
37829DC     SC245882  73.637  52.357  98.430
37829DC     SC345883  73.478  52.501  98.673
37830DA     BB145884  74.285  52.041  98.589
37830DA     BB245885  74.189  52.183  98.265
37830DA     BB345886  74.251  52.387  98.252
37830DA     SC145887  73.985  52.500  98.367
37830DA     SC245888  73.789  52.631  98.285
37830DA     SC345889  73.748  52.686  98.532
37830DA     SC445890  73.977  52.525  98.526
37831DA     BB145891  74.404  52.289  97.977
37831DA     BB245892  74.183  52.518  97.794
37831DA     BB345893  74.252  52.719  97.814
37831DA     SC145894  74.083  52.778  98.068
37831DA     SC245895  73.886  52.917  98.131
37831DA     SC345896  73.971  52.893  98.372
37831DA     SC445897  74.153  52.753  98.211
37832DG     BB145898  74.274  52.701  97.505
37832DG     BB245899  74.009  52.947  97.521
37832DG     BB345900  74.086  53.128  97.549
37832DG     SC145901  74.078  53.111  97.855
37832DG     SC245902  73.906  53.275  98.035
37832DG     SC345903  74.103  53.119  98.191
37832DG     SC445904  74.204  53.049  97.932
37833DA     BB145905  73.885  53.198  97.281
37833DA     BB245906  73.702  53.440  97.488
37833DA     BB345907  73.821  53.615  97.519
37833DA     SC145908  73.953  53.509  97.780
37833DA     SC245909  73.945  53.560  98.024
37833DA     SC345910  74.170  53.438  98.036
37833DA     SC445911  74.092  53.431  97.766
37834DA     BB145912  73.527  53.706  97.413
37834DA     BB245913  73.501  53.887  97.731
37834DA     BB345914  73.639  54.050  97.734
37834DA     SC145915  73.870  53.885  97.861
37834DA     SC245916  73.991  53.873  98.079
37834DA     SC345917  74.176  53.754  97.946
37834DA     SC445918  73.974  53.814  97.761
37835DT     BB145919  73.538  54.185  97.747
37835DT     BB245920  73.616  54.267  98.090
37835DT     BB345921  73.773  54.402  98.096
37835DT     SC145922  73.947  54.214  98.036
37835DT     SC245923  74.071  54.174  98.207
37835DT     SC345924  74.131  54.080  97.903
37836DA     BB145925  73.446  54.504  98.345
37836DA     BB245926  73.757  54.542  98.534
37836DA     BB345927  73.874  54.701  98.453
37836DA     SC145928  74.031  54.518  98.256
37836DA     SC245929  74.263  54.432  98.230
37836DA     SC345930  74.198  54.390  97.985
37836DA     SC445931  73.972  54.501  98.108
37837DA     BB145932  73.858  54.771  98.775
37837DA     BB245933  74.225  54.766  98.769
37837DA     BB345934  74.300  54.931  98.657
37837DA     SC145935  74.304  54.777  98.386
37837DA     SC245936  74.475  54.687  98.229
37837DA     SC345937  74.286  54.688  98.055
37837DA     SC445938  74.174  54.787  98.293
37838DT     BB145939  74.400  55.073  98.753
37838DT     BB245940  74.728  55.002  98.622
37838DT     BB345941  74.776  55.138  98.474
37838DT     SC145942  74.615  55.021  98.303
37838DT     SC245943  74.730  54.924  98.150
37838DT     SC345944  74.412  54.984  98.139
37839DG     BB145945  75.078  55.216  98.744
37839DG     BB245946  75.215  55.166  98.412
37839DG     BB345947  75.198  55.333  98.306
37839DG     SC145948  74.921  55.263  98.195
37839DG     SC245949  74.857  55.204  97.909
37839DG     SC345950  74.610  55.228  98.070
37839DG     SC445951  74.791  55.306  98.278
37840DG     BB145952  75.533  55.408  98.240
37840DG     BB245953  75.458  55.358  97.890
37840DG     BB345954  75.403  55.530  97.807
37840DG     SC145955  75.105  55.494  97.869
37840DG     SC245956  74.888  55.453  97.668
37840DG     SC345957  74.775  55.496  97.938
37840DG     SC445958  75.048  55.546  98.009
37841DC     BB145959  75.515  55.689  97.616
37841DC     BB245960  75.303  55.598  97.338
37841DC     BB345961  75.189  55.760  97.280
37841DC     SC145962  75.032  55.734  97.489
37841DC     SC245963  74.838  55.667  97.425
37841DC     SC345964  74.910  55.788  97.716
37842DG     BB145965  75.402  55.677  96.941
37842DG     BB245966  75.047  55.673  96.875
37842DG     BB345967  74.981  55.858  96.846
37842DG     SC145968  74.918  55.909  97.141
37842DG     SC245969  74.646  55.948  97.258
37842DG     SC345970  74.857  56.007  97.458
37842DG     SC445971  75.033  55.968  97.236
37843DT     BB145972  74.892  55.910  96.654
37843DT     BB245973  74.542  55.911  96.742
37843DT     BB345974  74.473  56.105  96.759
37843DT     SC145975  74.596  56.136  96.990
37843DT     SC245976  74.449  56.149  97.147
37843DT     SC345977  74.762  56.230  97.171
37844DG     BB145978  74.253  55.887  96.496
37844DG     BB245979  74.048  56.041  96.751
37844DG     BB345980  74.029  56.236  96.716
37844DG     SC145981  74.277  56.314  96.878
37844DG     SC245982  74.278  56.471  97.131
37844DG     SC345983  74.553  56.433  97.030
37844DG     SC445984  74.420  56.316  96.805
37845DA     BB145985  73.699  56.152  96.763
37845DA     BB245986  73.682  56.398  97.034
37845DA     BB345987  73.690  56.596  96.956
37845DA     SC145988  73.999  56.617  96.973
37845DA     SC245989  74.169  56.741  97.107
37845DA     SC345990  74.330  56.687  96.915
37845DA     SC445991  74.084  56.574  96.843
37846DA     BB145992  73.422  56.605  97.145
37846DA     BB245993  73.590  56.874  97.330
37846DA     BB345994  73.596  57.052  97.213
37846DA     SC145995  73.871  56.985  97.083
37846DA     SC245996  74.106  57.070  97.093
37846DA     SC345997  74.137  56.952  96.868
37846DA     SC445998  73.870  56.906  96.943
37847DT     BB145999  73.491  57.209  97.276
37847DT     BB246000  73.770  57.409  97.387
37847DT     BB346001  73.809  57.558  97.249
37847DT     SC146002  73.918  57.387  97.083
37847DT     SC246003  74.130  57.423  97.072
37847DT     SC346004  73.957  57.242  96.866
37848DT     BB146005  73.706  57.754  97.413
37848DT     BB246006  74.042  57.864  97.344
37848DT     BB346007  74.046  57.977  97.171
37848DT     SC146008  74.018  57.763  97.021
37848DT     SC246009  74.201  57.727  96.913
37848DT     SC346010  73.914  57.592  96.850
37849DA     BB146011  74.232  58.214  97.462
37849DA     BB246012  74.452  58.204  97.169
37849DA     BB346013  74.374  58.329  97.014
37849DA     SC146014  74.208  58.102  96.881
37849DA     SC246015  74.213  57.968  96.671
37849DA     SC346016  73.966  57.919  96.720
37849DA     SC446017  74.055  58.084  96.929
37850DT     BB146018  74.482  58.485  96.966
37850DT     BB246019  74.612  58.350  96.657
37850DT     BB346020  74.514  58.436  96.496
37850DT     SC146021  74.298  58.294  96.541
37850DT     SC246022  74.275  58.149  96.383
37850DT     SC346023  74.048  58.234  96.599
37851DT     BB146024  74.743  58.565  96.443
37851DT     BB246025  74.672  58.376  96.145
37851DT     BB346026  74.544  58.483  96.022
37851DT     SC146027  74.339  58.432  96.178
37851DT     SC246028  74.204  58.298  96.077
37851DT     SC346029  74.137  58.472  96.342
37852DT     BB146030  74.754  58.508  95.863
37852DT     BB246031  74.502  58.349  95.660
37852DT     BB346032  74.374  58.491  95.581
37852DT     SC146033  74.256  58.526  95.813
37852DT     SC246034  74.056  58.448  95.803
37852DT     SC346035  74.173  58.643  96.034
37853DT     BB146036  74.488  58.434  95.348
37853DT     BB246037  74.135  58.378  95.297
37853DT     BB346038  74.041  58.557  95.252
37853DT     SC146039  74.055  58.636  95.501
37853DT     SC246040  73.858  58.638  95.587
37853DT     SC346041  74.122  58.779  95.713
37854DT     BB146042  74.013  58.468  95.000
37854DT     BB246043  73.678  58.547  95.106
37854DT     BB346044  73.639  58.748  95.075
37854DT     SC146045  73.787  58.816  95.281
37854DT     SC246046  73.661  58.892  95.437
37854DT     SC346047  73.983  58.924  95.421
37855DA     BB146048  73.327  58.531  94.898
37855DA     BB246049  73.178  58.798  95.101
37855DA     BB346050  73.206  58.987  95.006
37855DA     SC146051  73.476  59.046  95.149
37855DA     SC246052  73.563  59.202  95.323
37855DA     SC346053  73.794  59.149  95.226
37855DA     SC446054  73.611  59.001  95.074
37856DA     BB146055  72.880  59.001  95.045
37856DA     BB246056  72.935  59.301  95.249
37856DA     BB346057  72.983  59.468  95.124
37856DA     SC146058  73.290  59.419  95.134
37856DA     SC246059  73.491  59.529  95.232
37856DA     SC346060  73.624  59.395  95.058
37856DA     SC446061  73.354  59.328  95.018
37857DT     BB146062  72.851  59.622  95.113
37857DT     BB246063  73.042  59.858  95.308
37857DT     BB346064  73.128  60.000  95.183
37857DT     SC146065  73.308  59.828  95.100
37857DT     SC246066  73.501  59.885  95.175
37857DT     SC346067  73.445  59.672  94.938
37858DT     BB146068  72.952  60.189  95.271
37858DT     BB246069  73.276  60.333  95.334
37858DT     BB346070  73.342  60.434  95.166
37858DT     SC146071  73.397  60.210  95.042
37858DT     SC246072  73.611  60.189  95.023
37858DT     SC346073  73.388  60.016  94.864
37859DT     BB146074  73.298  60.676  95.286
37859DT     BB246075  73.646  60.688  95.189
37859DT     BB346076  73.663  60.760  94.996
37859DT     SC146077  73.578  60.532  94.896
37859DT     SC246078  73.740  60.433  94.795
37859DT     SC346079  73.426  60.358  94.768
37860DA     BB146080  73.919  61.000  95.225
37860DA     BB246081  74.106  60.890  94.930
37860DA     BB346082  74.040  60.995  94.757
37860DA     SC146083  73.822  60.786  94.682
37860DA     SC246084  73.783  60.616  94.504
37860DA     SC346085  73.536  60.630  94.574
37860DA     SC446086  73.674  60.810  94.739
37861DT     BB146087  74.164  61.142  94.648
37861DT     BB246088  74.234  60.934  94.361
37861DT     BB346089  74.131  61.006  94.196
37861DT     SC146090  73.904  60.911  94.286
37861DT     SC246091  73.840  60.747  94.163
37861DT     SC346092  73.656  60.906  94.378
37862DA     BB146093  74.529  60.988  94.063
37862DA     BB246094  74.323  60.820  93.811
37862DA     BB346095  74.219  60.964  93.692
37862DA     SC146096  73.968  60.970  93.876
37862DA     SC246097  73.730  60.897  93.865
37862DA     SC346098  73.691  61.065  94.056
37862DA     SC446099  73.964  61.080  93.993
37863DT     BB146100  74.261  60.994  93.482
37863DT     BB246101  73.967  60.827  93.358
37863DT     BB346102  73.835  60.965  93.279
37863DT     SC146103  73.764  61.046  93.519
37863DT     SC246104  73.562  60.985  93.558
37863DT     SC346105  73.730  61.204  93.727
37864DT     BB146106  73.889  60.885  93.021
37864DT     BB246107  73.533  60.839  93.056
37864DT     BB346108  73.433  61.012  93.004
37864DT     SC146109  73.503  61.130  93.228
37864DT     SC246110  73.329  61.155  93.352
37864DT     SC346111  73.616  61.301  93.394
37865DA     BB146112  73.266  60.689  92.798
37865DA     BB246113  72.994  60.877  92.956
37865DA     BB346114  72.962  61.061  92.854
37865DA     SC146115  73.160  61.222  93.032
37865DA     SC246116  73.149  61.400  93.206
37865DA     SC346117  73.396  61.442  93.150
37865DA     SC446118  73.312  61.234  92.982
37866DA     BB146119  72.667  60.925  92.865
37866DA     BB246120  72.563  61.222  93.054
37866DA     BB346121  72.553  61.392  92.925
37866DA     SC146122  72.848  61.478  92.976
37866DA     SC246123  72.969  61.663  93.091
37866DA     SC346124  73.169  61.596  92.944
37866DA     SC446125  72.960  61.422  92.875
37867DG     BB146126  72.268  61.374  93.037
37867DG     BB246127  72.355  61.696  93.176
37867DG     BB346128  72.346  61.836  93.034
37867DG     SC146129  72.638  61.802  92.948
37867DG     SC246130  72.855  62.005  92.981
37867DG     SC346131  72.947  61.778  92.815
37867DG     SC446132  72.674  61.694  92.835
37868DC     BB146133  72.209  61.989  93.063
37868DC     BB246134  72.421  62.271  93.140
37868DC     BB346135  72.447  62.388  92.971
37868DC     SC146136  72.612  62.213  92.866
37868DC     SC246137  72.811  62.295  92.863
37868DC     SC346138  72.711  62.034  92.699
37869DA     BB146139  72.324  62.643  93.282
37869DA     BB246140  72.609  62.800  93.113
37869DA     BB346141  72.550  62.873  92.921
37869DA     SC146142  72.624  62.609  92.773
37869DA     SC246143  72.795  62.530  92.610
37869DA     SC346144  72.631  62.340  92.559
37869DA     SC446145  72.507  62.500  92.754
37870DT     BB146146  72.541  63.080  92.877
37870DT     BB246147  72.831  63.096  92.663
37870DT     BB346148  72.772  63.115  92.465
37870DT     SC146149  72.700  62.863  92.453
37870DT     SC246150  72.835  62.756  92.325
37870DT     SC346151  72.547  62.650  92.428
37871DT     BB146152  72.840  63.387  92.443
37871DT     BB246153  73.020  63.233  92.172
37871DT     BB346154  72.903  63.231  92.001
37871DT     SC146155  72.754  63.037  92.095
37871DT     SC246156  72.791  62.858  91.982
37871DT     SC346157  72.542  62.908  92.183
37872DG     BB146158  73.230  63.449  91.882
37872DG     BB246159  73.166  63.178  91.652
37872DG     BB346160  73.021  63.229  91.526
37872DG     SC146161  72.795  63.122  91.703
37872DG     SC246162  72.619  62.889  91.641
37872DG     SC346163  72.523  63.034  91.881
37872DG     SC446164  72.730  63.219  91.813
37873DA     BB146165  73.225  63.150  91.251
37873DA     BB246166  72.987  62.893  91.143
37873DA     BB346167  72.823  62.982  91.040
37873DA     SC146168  72.650  63.018  91.296
37873DA     SC246169  72.442  62.921  91.394
37873DA     SC346170  72.434  63.134  91.537
37873DA     SC446171  72.662  63.158  91.375
37874DA     BB146172  72.904  62.771  90.800
37874DA     BB246173  72.573  62.620  90.845
37874DA     BB346174  72.423  62.741  90.752
37874DA     SC146175  72.367  62.911  91.007
37874DA     SC246176  72.183  62.939  91.173
37874DA     SC346177  72.294  63.164  91.226
37874DA     SC446178  72.450  63.047  91.024
37875DG     BB146179  72.365  62.489  90.576
37875DG     BB246180  72.048  62.496  90.750
37875DG     BB346181  71.924  62.622  90.660
37875DG     SC146182  72.012  62.864  90.825
37875DG     SC246183  71.844  63.011  91.024
37875DG     SC346184  72.098  63.155  90.974
37875DG     SC446185  72.135  62.953  90.774
37876DG     BB146186  71.714  62.374  90.617
37876DG     BB246187  71.491  62.558  90.835
37876DG     BB346188  71.392  62.695  90.730
37876DG     SC146189  71.601  62.914  90.771
37876DG     SC246190  71.564  63.165  90.928
37876DG     SC346191  71.819  63.172  90.778
37876DG     SC446192  71.722  62.926  90.666
37877DT     BB146193  71.172  62.686  90.715
37877DT     BB246194  71.078  62.951  90.942
37877DT     BB346195  71.019  63.118  90.835
37877DT     SC146196  71.267  63.175  90.771
37877DT     SC246197  71.327  63.354  90.874
37877DT     SC346198  71.482  63.217  90.625
37878DA     BB146199  70.730  63.023  91.122
37878DA     BB246200  70.811  63.379  91.154
37878DA     BB346201  70.730  63.488  90.989
37878DA     SC146202  70.985  63.458  90.813
37878DA     SC246203  71.167  63.604  90.726
37878DA     SC346204  71.204  63.419  90.551
37878DA     SC446205  70.991  63.333  90.712
37879DT     BB146206  70.604  63.607  91.047
37879DT     BB246207  70.805  63.904  91.008
37879DT     BB346208  70.758  63.999  90.830
37879DT     SC146209  70.886  63.818  90.690
37879DT     SC246210  71.063  63.906  90.604
37879DT     SC346211  70.931  63.622  90.518
37880DT     BB146212  70.667  64.173  90.999
37880DT     BB246213  70.911  64.347  90.798
37880DT     BB346214  70.829  64.398  90.615
37880DT     SC146215  70.845  64.150  90.530
37880DT     SC246216  70.994  64.136  90.377
37880DT     SC346217  70.770  63.912  90.444
37881DG     BB146218  70.976  64.727  90.804
37881DG     BB246219  71.099  64.701  90.465
37881DG     BB346220  70.957  64.754  90.337
37881DG     SC146221  70.843  64.471  90.309
37881DG     SC246222  70.850  64.302  90.063
37881DG     SC346223  70.680  64.178  90.271
37881DG     SC446224  70.729  64.423  90.412
37882DA     BB146225  71.197  64.964  90.202
37882DA     BB246226  71.156  64.802  89.875
37882DA     BB346227  70.972  64.863  89.785
37882DA     SC146228  70.807  64.630  89.908
37882DA     SC246229  70.692  64.423  89.829
37882DA     SC346230  70.559  64.437  90.048
37882DA     SC446231  70.733  64.657  90.049
37883DA     BB146232  71.161  64.951  89.527
37883DA     BB246233  70.969  64.714  89.324
37883DA     BB346234  70.780  64.796  89.273
37883DA     SC146235  70.634  64.682  89.522
37883DA     SC246236  70.463  64.507  89.573
37883DA     SC346237  70.428  64.634  89.793
37883DA     SC446238  70.626  64.775  89.653
37884DA     BB146239  70.862  64.737  88.956
37884DA     BB246240  70.573  64.513  88.937
37884DA     BB346241  70.393  64.625  88.911
37884DA     SC146242  70.337  64.652  89.216
37884DA     SC246243  70.172  64.565  89.381
37884DA     SC346244  70.244  64.764  89.526
37884DA     SC446245  70.394  64.783  89.290
37885DC     BB146246  70.274  64.618  88.728
37885DC     BB246247  70.008  64.414  88.861
37885DC     BB346248  69.836  64.527  88.883
37885DC     SC146249  69.933  64.649  89.094
37885DC     SC246250  69.825  64.586  89.269
37885DC     SC346251  70.023  64.842  89.250
37886DT     BB146252  69.722  64.397  88.673
37886DT     BB246253  69.497  64.339  88.949
37886DT     BB346254  69.359  64.493  88.961
37886DT     SC146255  69.539  64.657  89.060
37886DT     SC246256  69.493  64.698  89.266
37886DT     SC346257  69.701  64.864  89.082
37887DT     BB146258  69.184  64.312  88.882
37887DT     BB246259  69.059  64.432  89.198
37887DT     BB346260  68.951  64.606  89.170
37887DT     SC146261  69.170  64.745  89.133
37887DT     SC246262  69.200  64.878  89.300
37887DT     SC346263  69.352  64.895  89.014
37888DA     BB146264  68.751  64.325  89.410
37888DA     BB246265  68.733  64.654  89.573
37888DA     BB346266  68.607  64.785  89.461
37888DA     SC146267  68.839  64.898  89.287
37888DA     SC246268  68.963  65.112  89.261
37888DA     SC346269  69.029  65.023  89.030
37888DA     SC446270  68.868  64.825  89.146
37889DG     BB146271  68.472  64.782  89.739
37889DG     BB246272  68.545  65.136  89.725
37889DG     BB346273  68.417  65.227  89.603
37889DG     SC146274  68.591  65.189  89.353
37889DG     SC246275  68.725  65.406  89.198
37889DG     SC346276  68.746  65.148  89.057
37889DG     SC446277  68.574  65.056  89.267
37890DA     BB146278  68.354  65.454  89.863
37890DA     BB246279  68.443  65.735  89.644
37890DA     BB346280  68.288  65.769  89.501
37890DA     SC146281  68.409  65.579  89.287
37890DA     SC246282  68.519  65.599  89.064
37890DA     SC346283  68.456  65.352  89.034
37890DA     SC446284  68.360  65.426  89.287
37891DA     BB146285  68.278  66.086  89.611
37891DA     BB246286  68.360  66.192  89.270
37891DA     BB346287  68.188  66.180  89.144
37891DA     SC146288  68.245  65.887  89.055
37891DA     SC246289  68.315  65.768  88.847
37891DA     SC346290  68.216  65.559  88.958
37891DA     SC446291  68.177  65.769  89.140
37892DA     BB146292  68.224  66.505  89.065
37892DA     BB246293  68.274  66.401  88.717
37892DA     BB346294  68.086  66.362  88.624
37892DA     SC146295  68.083  66.060  88.701
37892DA     SC246296  68.104  65.840  88.586
37892DA     SC346297  67.991  65.743  88.794
37892DA     SC446298  68.010  66.020  88.838
37893DT     BB146299  67.999  66.483  88.460
37893DT     BB246300  68.072  66.247  88.197
37893DT     BB346301  67.897  66.160  88.129
37893DT     SC146302  67.879  66.010  88.344
37893DT     SC246303  67.914  65.805  88.291
37893DT     SC346304  67.785  65.910  88.569
37894DC     BB146305  67.913  66.300  87.897
37894DC     BB246306  67.914  65.953  87.797
37894DC     BB346307  67.719  65.885  87.776
37894DC     SC146308  67.686  65.875  88.036
37894DC     SC246309  67.673  65.670  88.098
37894DC     SC346310  67.592  65.928  88.276
37895DG     BB146311  67.927  65.827  87.431
37895DG     BB246312  67.776  65.521  87.551
37895DG     BB346313  67.581  65.523  87.513
37895DG     SC146314  67.506  65.656  87.779
37895DG     SC246315  67.352  65.529  88.001
37895DG     SC346316  67.390  65.818  88.051
37895DG     SC446317  67.503  65.815  87.788
37896DT     BB146318  67.526  65.372  87.398
37896DT     BB246319  67.355  65.157  87.633
37896DT     BB346320  67.151  65.192  87.625
37896DT     SC146321  67.178  65.418  87.756
37896DT     SC246322  67.093  65.397  87.953
37896DT     SC346323  67.173  65.676  87.809
37897DC     BB146324  67.147  64.954  87.519
37897DC     BB246325  66.931  64.935  87.807
37897DC     BB346326  66.746  65.016  87.762
37897DC     SC146327  66.841  65.260  87.772
37897DC     SC246328  66.761  65.361  87.944
37897DC     SC346329  66.913  65.502  87.695
37898DT     BB146330  66.650  64.768  87.769
37898DT     BB246331  66.449  64.952  88.006
37898DT     BB346332  66.297  65.051  87.907
37898DT     SC146333  66.465  65.231  87.815
37898DT     SC246334  66.427  65.420  87.910
37898DT     SC346335  66.606  65.375  87.644
37899DA     BB146336  66.106  64.831  88.210
37899DA     BB246337  65.979  65.175  88.224
37899DA     BB346338  65.848  65.212  88.061
37899DA     SC146339  66.072  65.315  87.872
37899DA     SC246340  66.143  65.532  87.770
37899DA     SC346341  66.270  65.387  87.600
37899DA     SC446342  66.143  65.208  87.775
37900DC     BB146343  65.635  65.246  88.085
37900DC     BB246344  65.646  65.602  88.026
37900DC     BB346345  65.565  65.646  87.841
37900DC     SC146346  65.778  65.556  87.717
37900DC     SC246347  65.883  65.721  87.628
37900DC     SC346348  65.930  65.407  87.562
37901DA     BB146349  65.343  65.891  88.101
37901DA     BB246350  65.465  66.104  87.828
37901DA     BB346351  65.348  66.075  87.653
37901DA     SC146352  65.529  65.848  87.540
37901DA     SC246353  65.688  65.816  87.351
37901DA     SC346354  65.649  65.565  87.388
37901DA     SC446355  65.491  65.696  87.578
37902DA     BB146356  65.310  66.401  87.669
37902DA     BB246357  65.482  66.420  87.346
37902DA     BB346358  65.349  66.367  87.188
37902DA     SC146359  65.421  66.065  87.195
37902DA     SC246360  65.541  65.900  87.051
37902DA     SC346361  65.413  65.721  87.183
37902DA     SC446362  65.331  65.969  87.288
37903DA     BB146363  65.443  66.658  87.069
37903DA     BB246364  65.579  66.477  86.781
37903DA     BB346365  65.421  66.420  86.649
37903DA     SC146366  65.375  66.144  86.785
37903DA     SC246367  65.411  65.903  86.731
37903DA     SC346368  65.238  65.857  86.915
37903DA     SC446369  65.265  66.136  86.902
37904DT     BB146370  65.411  66.504  86.461
37904DT     BB246371  65.527  66.215  86.279
37904DT     BB346372  65.369  66.125  86.181
37904DT     SC146373  65.277  66.024  86.405
37904DT     SC246374  65.303  65.811  86.403
37904DT     SC346375  65.115  65.978  86.608
37905DA     BB146376  65.660  66.189  85.885
37905DA     BB246377  65.552  65.840  85.860
37905DA     BB346378  65.360  65.828  85.769
37905DA     SC146379  65.204  65.844  86.037
37905DA     SC246380  65.065  65.693  86.180
37905DA     SC346381  64.973  65.909  86.283
37905DA     SC446382  65.158  65.989  86.088
37906DG     BB146383  65.499  65.660  85.543
37906DG     BB246384  65.290  65.395  85.673
37906DG     BB346385  65.110  65.403  85.589
37906DG     SC146386  64.992  65.591  85.800
37906DG     SC246387  64.777  65.521  85.996
37906DG     SC346388  64.836  65.811  86.003
37906DG     SC446389  65.005  65.749  85.780
37907DT     BB146390  65.031  65.234  85.463
37907DT     BB246391  64.801  65.083  85.696
37907DT     BB346392  64.606  65.126  85.642
37907DT     SC146393  64.629  65.373  85.728
37907DT     SC246394  64.507  65.398  85.904
37907DT     SC346395  64.638  65.637  85.727
37908DG     BB146396  64.671  64.728  85.673
37908DG     BB246397  64.396  64.838  85.880
37908DG     BB346398  64.235  64.872  85.768
37908DG     SC146399  64.304  65.165  85.715
37908DG     SC246400  64.150  65.402  85.813
37908DG     SC346401  64.358  65.484  85.620
37908DG     SC446402  64.396  65.202  85.589
37909DA     BB146403  64.144  64.688  86.040
37909DA     BB246404  63.904  64.953  86.121
37909DA     BB346405  63.752  64.964  85.971
37909DA     SC146406  63.905  65.171  85.796
37909DA     SC246407  63.882  65.412  85.733
37909DA     SC346408  64.036  65.353  85.536
37909DA     SC446409  64.000  65.115  85.680
37910DT     BB146410  63.655  64.941  86.084
37910DT     BB246411  63.499  65.266  86.074
37910DT     BB346412  63.369  65.277  85.914
37910DT     SC146413  63.567  65.298  85.743
37910DT     SC246414  63.569  65.497  85.661
37910DT     SC346415  63.731  65.241  85.545
37911DC     BB146416  63.226  65.293  86.125
37911DC     BB246417  63.142  65.579  85.922
37911DC     BB346418  63.030  65.519  85.758
37911DC     SC146419  63.242  65.419  85.640
37911DC     SC246420  63.291  65.540  85.469
37911DC     SC346421  63.406  65.243  85.532
37912DT     BB146422  62.827  65.637  85.881
37912DT     BB246423  62.830  65.779  85.549
37912DT     BB346424  62.735  65.651  85.416
37912DT     SC146425  62.940  65.487  85.416
37912DT     SC246426  63.037  65.495  85.224
37912DT     SC346427  63.083  65.268  85.451
37913DC     BB146428  62.499  65.802  85.396
37913DC     BB246429  62.599  65.756  85.053
37913DC     BB346430  62.514  65.582  84.977
37913DC     SC146431  62.684  65.433  85.111
37913DC     SC246432  62.820  65.339  84.974
37913DC     SC346433  62.776  65.257  85.285
37914DA     BB146434  62.374  65.862  84.694
37914DA     BB246435  62.517  65.582  84.505
37914DA     BB346436  62.382  65.417  84.502
37914DA     SC146437  62.496  65.287  84.760
37914DA     SC246438  62.627  65.083  84.821
37914DA     SC346439  62.535  65.120  85.058
37914DA     SC446440  62.428  65.326  84.900
37915DA     BB146441  62.400  65.427  84.170
37915DA     BB246442  62.547  65.091  84.183
37915DA     BB346443  62.394  64.944  84.205
37915DA     SC146444  62.402  64.947  84.516
37915DA     SC246445  62.474  64.794  84.700
37915DA     SC346446  62.322  64.936  84.849
37915DA     SC446447  62.301  65.046  84.592
37916DA     BB146448  62.542  64.823  83.940
37916DA     BB246449  62.621  64.528  84.142
37916DA     BB346450  62.448  64.404  84.163
37916DA     SC146451  62.351  64.543  84.424
37916DA     SC246452  62.331  64.486  84.667
37916DA     SC346453  62.162  64.679  84.676
37916DA     SC446454  62.247  64.665  84.410
37917DA     BB146455  62.679  64.203  84.056
37917DA     BB246456  62.628  64.018  84.369
37917DA     BB346457  62.441  63.915  84.364
37917DA     SC146458  62.281  64.149  84.491
37917DA     SC246459  62.166  64.199  84.706
37917DA     SC346460  62.039  64.379  84.574
37917DA     SC446461  62.212  64.255  84.391
37918DA     BB146462  62.668  63.695  84.451
37918DA     BB246463  62.468  63.649  84.755
37918DA     BB346464  62.282  63.555  84.708
37918DA     SC146465  62.131  63.823  84.664
37918DA     SC246466  61.952  63.956  84.777
37918DA     SC346467  61.921  64.071  84.550
37918DA     SC446468  62.126  63.882  84.514
37919DT     BB146469  62.267  63.387  84.784
37919DT     BB246470  62.019  63.465  85.034
37919DT     BB346471  61.831  63.410  84.966
37919DT     SC146472  61.821  63.615  84.803
37919DT     SC246473  61.674  63.756  84.873
37919DT     SC346474  61.810  63.754  84.578
37920DC     BB146475  61.826  63.198  85.137
37920DC     BB246476  61.520  63.375  85.209
37920DC     BB346477  61.370  63.314  85.080
37920DC     SC146478  61.475  63.449  84.881
37920DC     SC246479  61.348  63.616  84.833
37920DC     SC346480  61.589  63.502  84.649
37921DC     BB146481  61.220  63.144  85.260
37921DC     BB246482  60.969  63.369  85.135
37921DC     BB346483  60.876  63.286  84.969
37921DC     SC146484  61.084  63.335  84.818
37921DC     SC246485  61.035  63.489  84.676
37921DC     SC346486  61.293  63.293  84.662
37922DG     BB146487  60.549  63.318  85.219
37922DG     BB246488  60.479  63.474  84.900
37922DG     BB346489  60.419  63.336  84.770
37922DG     SC146490  60.701  63.273  84.669
37922DG     SC246491  60.806  63.330  84.395
37922DG     SC346492  60.997  63.165  84.549
37922DG     SC446493  60.786  63.161  84.743
37923DA     BB146494  60.128  63.519  84.698
37923DA     BB246495  60.232  63.557  84.349
37923DA     BB346496  60.184  63.381  84.238
37923DA     SC146497  60.457  63.243  84.291
37923DA     SC246498  60.661  63.181  84.162
37923DA     SC346499  60.707  63.016  84.353
37923DA     SC446500  60.468  63.146  84.419
37924DT     BB146501  60.046  63.397  84.092
37924DT     BB246502  60.277  63.387  83.816
37924DT     BB346503  60.268  63.202  83.722
37924DT     SC146504  60.400  63.088  83.918
37924DT     SC246505  60.595  63.031  83.848
37924DT     SC346506  60.454  62.929  84.122
37925DC     BB146507  60.150  63.328  83.518
37925DC     BB246508  60.440  63.168  83.374
37925DC     BB346509  60.396  62.972  83.326
37925DC     SC146510  60.404  62.900  83.578
37925DC     SC246511  60.577  62.775  83.611
37925DC     SC346512  60.325  62.809  83.813
37926DA     BB146513  60.572  63.160  82.993
37926DA     BB246514  60.737  62.836  83.042
37926DA     BB346515  60.606  62.677  82.989
37926DA     SC146516  60.487  62.646  83.275
37926DA     SC246517  60.495  62.480  83.461
37926DA     SC346518  60.281  62.594  83.544
37926DA     SC446519  60.354  62.729  83.310
37927DT     BB146520  60.646  62.558  82.823
37927DT     BB246521  60.741  62.259  83.000
37927DT     BB346522  60.590  62.118  82.989
37927DT     SC146523  60.444  62.250  83.163
37927DT     SC246524  60.434  62.138  83.347
37927DT     SC346525  60.245  62.388  83.266
37928DA     BB146526  60.911  61.891  82.832
37928DA     BB246527  60.746  61.681  83.084
37928DA     BB346528  60.567  61.597  83.005
37928DA     SC146529  60.386  61.832  83.100
37928DA     SC246530  60.207  61.870  83.269
37928DA     SC346531  60.144  62.074  83.126
37928DA     SC446532  60.361  61.953  82.997
37929DA     BB146533  60.658  61.269  83.059
37929DA     BB246534  60.380  61.239  83.296
37929DA     BB346535  60.200  61.187  83.193
37929DA     SC146536  60.113  61.481  83.145
37929DA     SC246537  59.935  61.636  83.226
37929DA     SC346538  59.985  61.772  83.014
37929DA     SC446539  60.158  61.551  83.008
37930DC     BB146540  60.065  60.974  83.199
37930DC     BB246541  59.813  61.111  83.417
37930DC     BB346542  59.631  61.118  83.319
37930DC     SC146543  59.707  61.324  83.175
37930DC     SC246544  59.597  61.499  83.236
37930DC     SC346545  59.772  61.470  82.965
37931DA     BB146546  59.562  60.914  83.676
37931DA     BB246547  59.323  61.191  83.658
37931DA     BB346548  59.164  61.144  83.524
37931DA     SC146549  59.306  61.266  83.275
37931DA     SC246550  59.277  61.463  83.125
37931DA     SC346551  59.421  61.332  82.959
37931DA     SC446552  59.396  61.168  83.185
37932DA     BB146553  59.027  61.236  83.801
37932DA     BB246554  58.881  61.511  83.607
37932DA     BB346555  58.729  61.438  83.477
37932DA     SC146556  58.922  61.387  83.239
37932DA     SC246557  58.966  61.484  83.013
37932DA     SC346558  59.081  61.260  82.962
37932DA     SC446559  58.988  61.241  83.226
37933DA     BB146560  58.610  61.690  83.645
37933DA     BB246561  58.555  61.845  83.317
37933DA     BB346562  58.402  61.742  83.211
37933DA     SC146563  58.598  61.545  83.071
37933DA     SC246564  58.686  61.503  82.841
37933DA     SC346565  58.746  61.269  82.929
37933DA     SC446566  58.627  61.404  83.144
37934DA     BB146567  58.310  62.056  83.200
37934DA     BB246568  58.323  62.021  82.835
37934DA     BB346569  58.163  61.897  82.767
37934DA     SC146570  58.327  61.634  82.785
37934DA     SC246571  58.426  61.467  82.628
37934DA     SC346572  58.428  61.309  82.830
37934DA     SC446573  58.318  61.550  82.922
37935DT     BB146574  58.022  61.983  82.656
37935DT     BB246575  58.115  61.835  82.340
37935DT     BB346576  57.985  61.681  82.293
37935DT     SC146577  58.095  61.523  82.471
37935DT     SC246578  58.200  61.365  82.370
37935DT     SC346579  58.121  61.370  82.685
37936DA     BB146580  57.981  61.930  81.955
37936DA     BB246581  58.032  61.586  81.838
37936DA     BB346582  57.849  61.477  81.848
37936DA     SC146583  57.899  61.373  82.137
37936DA     SC246584  57.950  61.157  82.249
37936DA     SC346585  57.863  61.270  82.463
37936DA     SC446586  57.840  61.461  82.259
37937DC     BB146587  57.744  61.408  81.672
37937DC     BB246588  57.838  61.061  81.705
37937DC     BB346589  57.674  60.948  81.761
37937DC     SC146590  57.685  61.039  82.007
37937DC     SC246591  57.746  60.881  82.139
37937DC     SC346592  57.615  61.163  82.228
37938DC     BB146593  57.663  60.837  81.512
37938DC     BB246594  57.704  60.557  81.736
37938DC     BB346595  57.519  60.491  81.801
37938DC     SC146596  57.494  60.697  81.962
37938DC     SC246597  57.507  60.630  82.166
37938DC     SC346598  57.399  60.919  82.068
37939DT     BB146599  57.576  60.283  81.653
37939DT     BB246600  57.530  60.155  81.988
37939DT     BB346601  57.328  60.129  82.026
37939DT     SC146602  57.291  60.387  82.052
37939DT     SC246603  57.249  60.433  82.258
37939DT     SC346604  57.202  60.631  82.006
37940DT     BB146605  57.421  59.891  82.026
37940DT     BB246606  57.270  59.941  82.350
37940DT     BB346607  57.063  59.930  82.334
37940DT     SC146608  57.052  60.167  82.223
37940DT     SC246609  56.960  60.306  82.360
37940DT     SC346610  57.008  60.355  82.043
37941DG     BB146611  57.221  59.681  82.617
37941DG     BB246612  56.945  59.877  82.745
37941DG     BB346613  56.774  59.810  82.670
37941DG     SC146614  56.780  59.994  82.426
37941DG     SC246615  56.591  60.218  82.369
37941DG     SC346616  56.766  60.166  82.136
37941DG     SC446617  56.855  59.944  82.293
37942DT     BB146618  56.642  59.741  82.808
37942DT     BB246619  56.379  59.988  82.803
37942DT     BB346620  56.226  59.925  82.678
37942DT     SC146621  56.367  59.980  82.464
37942DT     SC246622  56.280  60.149  82.363
37942DT     SC346623  56.500  59.946  82.239
37943DA     BB146624  56.038  60.019  83.043
37943DA     BB246625  55.835  60.165  82.774
37943DA     BB346626  55.729  60.012  82.670
37943DA     SC146627  55.953  59.966  82.460
37943DA     SC246628  55.989  60.006  82.216
37943DA     SC346629  56.173  59.828  82.235
37943DA     SC446630  56.063  59.852  82.491
37944DT     BB146631  55.501  59.974  82.674
37944DT     BB246632  55.428  60.085  82.339
37944DT     BB346633  55.378  59.923  82.220
37944DT     SC146634  55.628  59.845  82.206
37944DT     SC246635  55.701  59.876  82.006
37944DT     SC346636  55.843  59.696  82.235
37945DG     BB146637  55.012  60.119  82.189
37945DG     BB246638  55.131  60.033  81.859
37945DG     BB346639  55.078  59.846  81.814
37945DG     SC146640  55.331  59.720  81.932
37945DG     SC246641  55.544  59.579  81.777
37945DG     SC346642  55.586  59.546  82.068
37945DG     SC446643  55.333  59.679  82.086
37946DA     BB146644  54.896  59.906  81.502
37946DA     BB246645  55.137  59.705  81.312
37946DA     BB346646  55.081  59.500  81.315
37946DA     SC146647  55.246  59.433  81.570
37946DA     SC246648  55.450  59.303  81.629
37946DA     SC346649  55.358  59.305  81.868
37946DA     SC446650  55.171  59.444  81.712
37947DT     BB146651  54.997  59.349  81.129
37947DT     BB246652  55.312  59.179  81.084
37947DT     BB346653  55.291  58.979  81.133
37947DT     SC146654  55.287  59.034  81.389
37947DT     SC246655  55.467  58.962  81.481
37947DT     SC346656  55.199  59.054  81.637
37948DC     BB146657  55.297  58.872  80.864
37948DC     BB246658  55.577  58.715  81.027
37948DC     BB346659  55.521  58.531  81.103
37948DC     SC146660  55.389  58.643  81.300
37948DC     SC246661  55.492  58.605  81.485
37948DC     SC346662  55.188  58.715  81.455
37949DA     BB146663  55.866  58.494  80.873
37949DA     BB246664  55.930  58.345  81.202
37949DA     BB346665  55.830  58.158  81.219
37949DA     SC146666  55.570  58.280  81.339
37949DA     SC246667  55.450  58.281  81.558
37949DA     SC346668  55.244  58.349  81.421
37949DA     SC446669  55.453  58.320  81.236
37950DA     BB146670  56.140  58.138  81.302
37950DA     BB246671  56.014  58.037  81.631
37950DA     BB346672  55.921  57.845  81.619
37950DA     SC146673  55.638  57.959  81.558
37950DA     SC246674  55.417  57.978  81.674
37950DA     SC346675  55.320  58.011  81.439
37950DA     SC446676  55.596  57.977  81.404
37951DC     BB146677  56.019  57.779  81.723
37951DC     BB246678  55.781  57.745  81.992
37951DC     BB346679  55.674  57.570  81.970
37951DC     SC146680  55.532  57.672  81.774
37951DC     SC246681  55.330  57.702  81.840
37951DC     SC346682  55.432  57.709  81.533
37952DT     BB146683  55.811  57.537  82.183
37952DT     BB246684  55.465  57.490  82.275
37952DT     BB346685  55.398  57.307  82.205
37952DT     SC146686  55.385  57.398  81.959
37952DT     SC246687  55.179  57.413  81.900
37952DT     SC346688  55.435  57.424  81.702
37953DG     BB146689  55.338  57.349  82.607
37953DG     BB246690  55.039  57.241  82.436
37953DG     BB346691  55.057  57.051  82.381
37953DG     SC146692  55.181  57.115  82.109
37953DG     SC246693  55.055  57.066  81.842
37953DG     SC346694  55.338  57.148  81.812
37953DG     SC446695  55.340  57.130  82.098
37954DA     BB146696  54.749  57.011  82.536
37954DA     BB246697  54.610  56.880  82.223
37954DA     BB346698  54.683  56.683  82.186
37954DA     SC146699  54.929  56.779  82.022
37954DA     SC246700  55.006  56.774  81.785
37954DA     SC346701  55.240  56.814  81.882
37954DA     SC446702  55.067  56.803  82.102
37955DA     BB146703  54.360  56.623  82.163
37955DA     BB246704  54.425  56.511  81.819
37955DA     BB346705  54.521  56.321  81.820
37955DA     SC146706  54.809  56.438  81.824
37955DA     SC246707  55.004  56.454  81.669
37955DA     SC346708  55.143  56.496  81.881
37955DA     SC446709  54.878  56.461  81.967
37956DT     BB146710  54.420  56.170  81.746
37956DT     BB246711  54.608  56.135  81.440
37956DT     BB346712  54.737  55.974  81.454
37956DT     SC146713  54.899  56.108  81.611
37956DT     SC246714  55.081  56.151  81.506
37956DT     SC346715  55.036  56.177  81.826
37957DA     BB146716  54.518  55.933  81.099
37957DA     BB246717  54.872  55.879  81.020
37957DA     BB346718  54.937  55.692  81.098
37957DA     SC146719  55.028  55.809  81.372
37957DA     SC246720  55.242  55.852  81.492
37957DA     SC346721  55.097  55.859  81.704
37957DA     SC446722  54.921  55.809  81.492
37958DA     BB146723  55.033  55.657  80.785
37958DA     BB246724  55.374  55.615  80.914
37958DA     BB346725  55.395  55.424  81.006
37958DA     SC146726  55.314  55.526  81.289
37958DA     SC246727  55.423  55.564  81.510
37958DA     SC346728  55.185  55.555  81.606
37958DA     SC446729  55.158  55.515  81.330
37959DA     BB146730  55.653  55.389  80.799
37959DA     BB246731  55.866  55.347  81.095
37959DA     BB346732  55.838  55.153  81.179
37959DA     SC146733  55.610  55.241  81.371
37959DA     SC246734  55.576  55.272  81.616
37959DA     SC346735  55.326  55.255  81.563
37959DA     SC446736  55.459  55.227  81.317
37960DC     BB146737  55.991  54.987  81.179
37960DC     BB246738  56.074  55.002  81.530
37960DC     BB346739  55.997  54.836  81.628
37960DC     SC146740  55.753  54.934  81.617
37960DC     SC246741  55.690  54.989  81.815
37960DC     SC346742  55.498  54.958  81.556
37961DT     BB146743  56.238  54.667  81.663
37961DT     BB246744  56.111  54.696  82.000
37961DT     BB346745  55.992  54.532  82.045
37961DT     SC146746  55.796  54.624  81.896
37961DT     SC246747  55.633  54.685  82.023
37961DT     SC346748  55.619  54.640  81.702
37962DA     BB146749  56.271  54.511  82.361
37962DA     BB246750  55.937  54.495  82.512
37962DA     BB346751  55.856  54.299  82.492
37962DA     SC146752  55.717  54.358  82.220
37962DA     SC246753  55.484  54.384  82.133
37962DA     SC346754  55.586  54.337  81.903
37962DA     SC446755  55.799  54.325  82.086
37963DC     BB146756  55.819  54.164  82.663
37963DC     BB246757  55.461  54.209  82.669
37963DC     BB346758  55.366  54.036  82.607
37963DC     SC146759  55.430  54.083  82.356
37963DC     SC246760  55.253  54.132  82.245
37963DC     SC346761  55.540  54.052  82.118
37964DT     BB146762  55.281  53.977  82.862
37964DT     BB246763  54.978  53.995  82.668
37964DT     BB346764  54.934  53.810  82.588
37964DT     SC146765  55.124  53.835  82.408
37964DT     SC246766  55.035  53.858  82.213
37964DT     SC346767  55.346  53.788  82.274
37965DC     BB146768  54.726  53.781  82.762
37965DC     BB246769  54.576  53.751  82.435
37965DC     BB346770  54.585  53.554  82.371
37965DC     SC146771  54.842  53.575  82.320
37965DC     SC246772  54.873  53.569  82.107
37965DC     SC346773  55.102  53.533  82.333
37966DA     BB146774  54.186  53.676  82.334
37966DA     BB246775  54.287  53.523  82.016
37966DA     BB346776  54.300  53.311  82.037
37966DA     SC146777  54.600  53.313  82.117
37966DA     SC246778  54.818  53.244  82.018
37966DA     SC346779  54.905  53.246  82.260
37966DA     SC446780  54.635  53.319  82.274
37967DA     BB146781  54.095  53.320  81.780
37967DA     BB246782  54.356  53.144  81.591
37967DA     BB346783  54.360  52.937  81.645
37967DA     SC146784  54.568  52.976  81.873
37967DA     SC246785  54.806  52.917  81.917
37967DA     SC346786  54.748  52.954  82.165
37967DA     SC446787  54.512  53.002  82.022
37968DT     BB146788  54.308  52.796  81.505
37968DT     BB246789  54.643  52.683  81.437
37968DT     BB346790  54.674  52.497  81.522
37968DT     SC146791  54.690  52.600  81.763
37968DT     SC246792  54.893  52.583  81.833
37968DT     SC346793  54.633  52.652  82.015
37969DT     BB146794  54.675  52.396  81.273
37969DT     BB246795  54.996  52.309  81.412
37969DT     BB346796  54.982  52.132  81.519
37969DT     SC146797  54.859  52.253  81.717
37969DT     SC246798  54.990  52.260  81.888
37969DT     SC346799  54.671  52.318  81.890
37970DC     BB146800  55.127  52.045  81.322
37970DC     BB246801  55.322  51.989  81.620
37970DC     BB346802  55.258  51.816  81.715
37970DC     SC146803  55.041  51.935  81.803
37970DC     SC246804  55.054  51.958  82.016
37970DC     SC346805  54.786  51.991  81.838
37971DT     BB146806  55.494  51.737  81.637
37971DT     BB246807  55.490  51.696  81.995
37971DT     BB346808  55.392  51.521  82.046
37971DT     SC146809  55.158  51.628  81.993
37971DT     SC246810  55.049  51.656  82.177
37971DT     SC346811  54.925  51.671  81.878
37972DT     BB146812  55.633  51.453  82.114
37972DT     BB246813  55.432  51.409  82.410
37972DT     BB346814  55.328  51.231  82.399
37972DT     SC146815  55.160  51.331  82.224
37972DT     SC246816  54.966  51.353  82.316
37972DT     SC346817  55.029  51.366  81.998
37973DT     BB146818  55.492  51.145  82.590
37973DT     BB246819  55.161  51.093  82.723
37973DT     BB346820  55.084  50.914  82.654
37973DT     SC146821  55.040  51.016  82.416
37973DT     SC246822  54.828  51.035  82.384
37973DT     SC346823  55.057  51.055  82.155
37974DT     BB146824  55.116  50.814  82.900
37974DT     BB246825  54.767  50.760  82.825
37974DT     BB346826  54.744  50.584  82.719
37974DT     SC146827  54.839  50.694  82.500
37974DT     SC246828  54.680  50.715  82.357
37974DT     SC346829  54.997  50.741  82.295
37975DA     BB146830  54.478  50.560  83.043
37975DA     BB246831  54.294  50.463  82.741
37975DA     BB346832  54.354  50.268  82.677
37975DA     SC146833  54.581  50.372  82.491
37975DA     SC246834  54.626  50.387  82.246
37975DA     SC346835  54.873  50.411  82.314
37975DA     SC446836  54.728  50.384  82.553
37976DT     BB146837  54.220  50.113  82.686
37976DT     BB246838  54.158  50.084  82.332
37976DT     BB346839  54.255  49.917  82.256
37976DT     SC146840  54.488  50.037  82.269
37976DT     SC246841  54.559  50.077  82.070
37976DT     SC346842  54.737  50.090  82.341
37977DT     BB146843  54.019  49.781  82.229
37977DT     BB246844  54.164  49.770  81.899
37977DT     BB346845  54.289  49.606  81.882
37977DT     SC146846  54.474  49.722  82.028
37977DT     SC246847  54.643  49.770  81.904
37977DT     SC346848  54.640  49.768  82.228
37978DC     BB146849  54.111  49.465  81.722
37978DC     BB246850  54.416  49.470  81.528
37978DC     BB346851  54.533  49.306  81.576
37978DC     SC146852  54.603  49.413  81.805
37978DC     SC246853  54.811  49.467  81.797
37978DC     SC346854  54.629  49.448  82.065
37979DT     BB146855  54.479  49.162  81.339
37979DT     BB246856  54.839  49.179  81.347
37979DT     BB346857  54.915  49.014  81.447
37979DT     SC146858  54.843  49.111  81.679
37979DT     SC246859  55.019  49.167  81.791
37979DT     SC346860  54.719  49.134  81.911
37980DA     BB146861  55.121  48.989  81.079
37980DA     BB246862  55.372  48.957  81.344
37980DA     BB346863  55.368  48.761  81.427
37980DA     SC146864  55.161  48.833  81.648
37980DA     SC246865  55.158  48.859  81.896
37980DA     SC346866  54.904  48.827  81.876
37980DA     SC446867  55.005  48.810  81.615
37981DA     BB146868  55.692  48.739  81.353
37981DA     BB246869  55.756  48.711  81.713
37981DA     BB346870  55.720  48.511  81.780
37981DA     SC146871  55.421  48.562  81.849
37981DA     SC246872  55.279  48.579  82.054
37981DA     SC346873  55.082  48.533  81.896
37981DA     SC446874  55.312  48.532  81.735
37982DG     BB146875  56.021  48.513  81.861
37982DG     BB246876  55.882  48.494  82.194
37982DG     BB346877  55.842  48.304  82.240
37982DG     SC146878  55.556  48.313  82.130
37982DG     SC246879  55.306  48.292  82.291
37982DG     SC346880  55.246  48.282  82.001
37982DG     SC446881  55.531  48.279  81.976
37983DT     BB146882  55.942  48.223  82.405
37983DT     BB246883  55.680  48.223  82.653
37983DT     BB346884  55.600  48.033  82.672
37983DT     SC146885  55.471  48.057  82.445
37983DT     SC246886  55.259  48.070  82.484
37983DT     SC346887  55.396  48.013  82.196
37984DC     BB146888  55.717  48.041  82.906
37984DC     BB246889  55.367  47.987  82.974
37984DC     BB346890  55.321  47.786  82.950
37984DC     SC146891  55.330  47.808  82.688
37984DC     SC246892  55.132  47.788  82.607
37984DC     SC346893  55.408  47.771  82.439
37985DC     BB146894  55.292  47.798  83.208
37985DC     BB246895  54.976  47.681  83.081
37985DC     BB346896  54.987  47.479  83.038
37985DC     SC146897  55.128  47.525  82.822
37985DC     SC246898  55.009  47.480  82.648
37985DC     SC346899  55.330  47.523  82.652
37986DT     BB146900  54.828  47.449  83.247
37986DT     BB246901  54.655  47.291  82.973
37986DT     BB346902  54.728  47.100  82.943
37986DT     SC146903  54.947  47.193  82.833
37986DT     SC246904  54.947  47.145  82.623
37986DT     SC346905  55.203  47.246  82.795
37987DA     BB146906  54.310  47.064  82.974
37987DA     BB246907  54.418  46.873  82.681
37987DA     BB346908  54.519  46.695  82.741
37987DA     SC146909  54.801  46.826  82.744
37987DA     SC246910  55.012  46.814  82.612
37987DA     SC346911  55.124  46.915  82.819
37987DA     SC446912  54.852  46.888  82.883
37988DT     BB146913  54.436  46.503  82.706
37988DT     BB246914  54.659  46.409  82.438
37988DT     BB346915  54.796  46.269  82.506
37988DT     SC146916  54.930  46.453  82.637
37988DT     SC246917  55.121  46.484  82.542
37988DT     SC346918  55.038  46.585  82.839
37989DC     BB146919  54.677  46.056  82.372
37989DC     BB246920  55.017  46.059  82.250
37989DC     BB346921  55.136  45.941  82.371
37989DC     SC146922  55.137  46.123  82.560
37989DC     SC246923  55.333  46.209  82.576
37989DC     SC346924  55.095  46.238  82.794
37990DT     BB146925  55.155  45.747  82.178
37990DT     BB246926  55.496  45.847  82.243
37990DT     BB346927  55.574  45.736  82.399
37990DT     SC146928  55.435  45.872  82.575
37990DT     SC246929  55.568  45.994  82.693
37990DT     SC346930  55.259  45.927  82.764
37991DT     BB146931  55.734  45.596  82.227
37991DT     BB246932  55.964  45.748  82.460
37991DT     BB346933  55.991  45.623  82.623
37991DT     SC146934  55.754  45.685  82.719
37991DT     SC246935  55.778  45.803  82.898
37991DT     SC346936  55.505  45.659  82.801
37992DA     BB146937  56.365  45.734  82.473
37992DA     BB246938  56.365  45.796  82.834
37992DA     BB346939  56.374  45.611  82.941
37992DA     SC146940  56.065  45.579  82.958
37992DA     SC246941  55.888  45.588  83.134
37992DA     SC346942  55.745  45.455  82.967
37992DA     SC446943  55.992  45.495  82.842
37993DA     BB146944  56.624  45.774  83.073
37993DA     BB246945  56.445  45.746  83.392
37993DA     BB346946  56.457  45.546  83.466
37993DA     SC146947  56.196  45.452  83.324
37993DA     SC246948  55.965  45.385  83.389
37993DA     SC346949  55.955  45.271  83.160
37993DA     SC446950  56.210  45.386  83.178
37994DC     BB146951  56.558  45.518  83.635
37994DC     BB246952  56.271  45.467  83.848
37994DC     BB346953  56.252  45.266  83.893
37994DC     SC146954  56.161  45.213  83.653
37994DC     SC246955  55.952  45.161  83.665
37994DC     SC346956  56.146  45.111  83.410
37995DG     BB146957  56.280  45.478  84.239
37995DG     BB246958  55.986  45.267  84.234
37995DG     BB346959  56.038  45.078  84.270
37995DG     SC146960  56.083  45.009  83.975
37995DG     SC246961  55.920  44.819  83.812
37995DG     SC346962  56.162  44.905  83.664
37995DG     SC446963  56.228  45.034  83.911
37996DC     BB146964  55.955  44.989  84.440
37996DC     BB246965  55.708  44.771  84.294
37996DC     BB346966  55.779  44.576  84.289
37996DC     SC146967  55.939  44.632  84.089
37996DC     SC246968  55.869  44.532  83.912
37996DC     SC346969  56.161  44.666  83.951
37997DG     BB146970  55.418  44.616  84.473
37997DG     BB246971  55.414  44.364  84.214
37997DG     BB346972  55.513  44.202  84.275
37997DG     SC146973  55.783  44.298  84.167
37997DG     SC246974  55.936  44.173  83.943
37997DG     SC346975  56.098  44.380  84.080
37997DG     SC446976  55.877  44.387  84.261
37998DA     BB146977  55.219  44.078  84.147
37998DA     BB246978  55.417  43.864  83.925
37998DA     BB346979  55.523  43.717  84.038
37998DA     SC146980  55.777  43.894  84.074
37998DA     SC246981  56.012  43.898  83.993
37998DA     SC346982  56.058  44.049  84.195
37998DA     SC446983  55.785  43.986  84.206
37999DT     BB146984  55.459  43.574  83.981
37999DT     BB246985  55.751  43.450  83.809
37999DT     BB346986  55.868  43.339  83.939
37999DT     SC146987  55.954  43.555  84.060
37999DT     SC246988  56.162  43.584  84.015
37999DT     SC346989  55.996  43.733  84.250
38000DG     BB146990  55.777  43.110  83.612
38000DG     BB246991  56.128  43.090  83.695
38000DG     BB346992  56.153  42.978  83.858
38000DG     SC146993  56.128  43.213  84.053
38000DG     SC246994  56.346  43.321  84.227
38000DG     SC346995  56.086  43.444  84.295
38000DG     SC446996  55.983  43.254  84.107
38001DG     BB146997  56.350  42.734  83.719
38001DG     BB246998  56.605  42.819  83.962
38001DG     BB346999  56.574  42.718  84.130
38001DG     SC147000  56.394  42.933  84.255
38001DG     SC247001  56.460  43.099  84.494
38001DG     SC347002  56.178  43.138  84.413
38001DG     SC447003  56.237  42.928  84.227
38002DA     BB147004  56.897  42.549  84.165
38002DA     BB247005  56.963  42.713  84.486
38002DA     BB347006  56.871  42.604  84.645
38002DA     SC147007  56.604  42.762  84.633
38002DA     SC247008  56.481  42.928  84.773
38002DA     SC347009  56.273  42.856  84.640
38002DA     SC447010  56.487  42.703  84.540
38003DC     BB147011  56.972  42.469  84.830
38003DC     BB247012  56.914  42.713  85.089
38003DC     BB347013  56.779  42.639  85.227
38003DC     SC147014  56.579  42.675  85.062
38003DC     SC247015  56.453  42.834  85.134
38003DC     SC347016  56.374  42.621  84.904
38004DC     BB147017  56.968  42.590  85.434
38004DC     BB247018  56.730  42.817  85.584
38004DC     BB347019  56.582  42.710  85.680
38004DC     SC147020  56.470  42.645  85.452
38004DC     SC247021  56.281  42.747  85.433
38004DC     SC347022  56.381  42.497  85.253
38005DT     BB147023  56.683  42.786  85.921
38005DT     BB247024  56.343  42.907  85.922
38005DT     BB347025  56.215  42.761  85.992
38005DT     SC147026  56.233  42.627  85.767
38005DT     SC247027  56.045  42.637  85.664
38005DT     SC347028  56.287  42.432  85.598
38006DA     BB147029  56.148  43.123  86.191
38006DA     BB247030  55.825  42.992  86.078
38006DA     BB347031  55.769  42.822  86.193
38006DA     SC147032  55.906  42.617  86.002
38006DA     SC247033  55.836  42.440  85.841
38006DA     SC347034  56.074  42.349  85.869
38006DA     SC447035  56.058  42.576  86.034
38007DA     BB147036  55.505  43.014  86.213
38007DA     BB247037  55.320  42.736  86.062
38007DA     BB347038  55.299  42.576  86.202
38007DA     SC147039  55.561  42.433  86.115
38007DA     SC247040  55.626  42.223  85.996
38007DA     SC347041  55.855  42.256  86.107
38007DA     SC447042  55.696  42.469  86.194
38008DA     BB147043  54.980  42.612  86.123
38008DA     BB247044  54.986  42.262  86.013
38008DA     BB347045  54.989  42.132  86.182
38008DA     SC147046  55.300  42.119  86.197
38008DA     SC247047  55.480  41.952  86.156
38008DA     SC347048  55.626  42.103  86.303
38008DA     SC447049  55.374  42.225  86.292
38009DA     BB147050  54.715  41.983  86.058
38009DA     BB247051  54.906  41.671  86.041
38009DA     BB347052  54.916  41.579  86.233
38009DA     SC147053  55.180  41.722  86.314
38009DA     SC247054  55.419  41.661  86.353
38009DA     SC347055  55.432  41.880  86.486
38009DA     SC447056  55.168  41.861  86.394
38010DG     BB147057  54.754  41.313  86.141
38010DG     BB247058  55.068  41.145  86.209
38010DG     BB347059  55.073  41.086  86.399
38010DG     SC147060  55.198  41.346  86.502
38010DG     SC247061  55.472  41.375  86.617
38010DG     SC347062  55.316  41.624  86.652
38010DG     SC447063  55.102  41.466  86.545
38011DG     BB147064  55.104  40.750  86.344
38011DG     BB247065  55.431  40.774  86.495
38011DG     BB347066  55.419  40.739  86.690
38011DG     SC147067  55.371  41.032  86.765
38011DG     SC247068  55.558  41.206  86.919
38011DG     SC347069  55.297  41.340  86.880
38011DG     SC447070  55.221  41.088  86.768
38012DG     BB147071  55.627  40.484  86.665
38012DG     BB247072  55.853  40.680  86.868
38012DG     BB347073  55.816  40.649  87.061
38012DG     SC147074  55.612  40.876  87.083
38012DG     SC247075  55.645  41.127  87.241
38012DG     SC347076  55.369  41.103  87.138
38012DG     SC447077  55.458  40.845  87.051
38013DT     BB147078  55.971  40.565  87.181
38013DT     BB247079  56.083  40.855  87.365
38013DT     BB347080  56.008  40.849  87.558
38013DT     SC147081  55.768  40.916  87.476
38013DT     SC247082  55.723  41.115  87.543
38013DT     SC347083  55.510  40.901  87.426
38014DA     BB147084  56.420  40.928  87.549
38014DA     BB247085  56.260  41.172  87.771
38014DA     BB347086  56.192  41.077  87.949
38014DA     SC147087  55.910  41.011  87.837
38014DA     SC247088  55.675  41.085  87.874
38014DA     SC347089  55.609  40.864  87.762
38014DA     SC447090  55.889  40.868  87.766
38015DC     BB147091  56.282  41.140  88.097
38015DC     BB247092  56.012  41.328  88.243
38015DC     BB347093  55.921  41.217  88.392
38015DC     SC147094  55.801  41.063  88.216
38015DC     SC247095  55.590  41.103  88.219
38015DC     SC347096  55.734  40.848  88.081
38016DT     BB147097  56.032  41.379  88.579
38016DT     BB247098  55.680  41.388  88.655
38016DT     BB347099  55.630  41.229  88.778
38016DT     SC147100  55.646  41.059  88.578
38016DT     SC247101  55.450  40.987  88.529
38016DT     SC347102  55.730  40.857  88.431
38017DA     BB147103  55.485  41.557  89.000
38017DA     BB247104  55.217  41.306  88.994
38017DA     BB347105  55.261  41.148  89.131
38017DA     SC147106  55.412  40.975  88.921
38017DA     SC247107  55.376  40.761  88.799
38017DA     SC347108  55.630  40.763  88.762
38017DA     SC447109  55.571  40.994  88.910
38018DT     BB147110  55.151  41.092  89.340
38018DT     BB247111  54.978  40.801  89.215
38018DT     BB347112  55.054  40.630  89.304
38018DT     SC147113  55.272  40.641  89.159
38018DT     SC247114  55.271  40.478  89.018
38018DT     SC347115  55.527  40.662  89.095
38019DG     BB147116  54.664  40.606  89.439
38019DG     BB247117  54.759  40.300  89.271
38019DG     BB347118  54.852  40.178  89.399
38019DG     SC147119  55.131  40.289  89.340
38019DG     SC247120  55.354  40.141  89.208
38019DG     SC347121  55.449  40.400  89.316
38019DG     SC447122  55.184  40.414  89.425
38020DT     BB147123  54.773  39.963  89.466
38020DT     BB247124  54.986  39.758  89.259
38020DT     BB347125  55.124  39.659  89.377
38020DT     SC147126  55.264  39.878  89.411
38020DT     SC247127  55.451  39.861  89.306
38020DT     SC347128  55.379  40.083  89.531
38021DG     BB147129  54.909  39.395  89.157
38021DG     BB247130  55.264  39.357  89.103
38021DG     BB347131  55.346  39.260  89.256
38021DG     SC147132  55.405  39.513  89.417
38021DG     SC247133  55.676  39.621  89.482
38021DG     SC347134  55.467  39.768  89.629
38021DG     SC447135  55.293  39.570  89.516
38022DT     BB147136  55.433  39.096  89.194
38022DT     BB247137  55.783  39.181  89.219
38022DT     BB347138  55.860  39.113  89.399
38022DT     SC147139  55.740  39.305  89.532
38022DT     SC247140  55.887  39.443  89.606
38022DT     SC347141  55.577  39.425  89.701
38023DC     BB147142  55.988  38.949  89.241
38023DC     BB247143  56.243  39.120  89.430
38023DC     BB347144  56.262  39.034  89.617
38023DC     SC147145  56.039  39.145  89.699
38023DC     SC247146  56.085  39.297  89.845
38023DC     SC347147  55.792  39.170  89.788
38024DT     BB147148  56.496  38.935  89.535
38024DT     BB247149  56.575  39.119  89.835
38024DT     BB347150  56.541  39.000  90.001
38024DT     SC147151  56.281  39.029  89.978
38024DT     SC247152  56.207  39.150  90.140
38024DT     SC347153  56.027  38.968  89.941
38025DA     BB147154  56.938  39.131  90.051
38025DA     BB247155  56.765  39.185  90.369
38025DA     BB347156  56.738  39.000  90.472
38025DA     SC147157  56.460  38.942  90.344
38025DA     SC247158  56.222  38.933  90.418
38025DA     SC347159  56.183  38.792  90.207
38025DA     SC447160  56.457  38.854  90.209
38026DC     BB147161  56.841  38.944  90.662
38026DC     BB247162  56.554  38.986  90.876
38026DC     BB347163  56.488  38.801  90.943
38026DC     SC147164  56.383  38.745  90.709
38026DC     SC247165  56.169  38.745  90.725
38026DC     SC347166  56.341  38.623  90.479
38027DC     BB147167  56.584  38.838  91.203
38027DC     BB247168  56.230  38.779  91.246
38027DC     BB347169  56.195  38.577  91.270
38027DC     SC147170  56.235  38.531  91.015
38027DC     SC247171  56.049  38.477  90.922
38027DC     SC347172  56.344  38.437  90.794
38028DG     BB147173  56.047  38.775  91.592
38028DG     BB247174  55.795  38.570  91.433
38028DG     BB347175  55.820  38.380  91.485
38028DG     SC147176  56.008  38.316  91.252
38028DG     SC247177  55.949  38.132  91.024
38028DG     SC347178  56.233  38.216  91.021
38028DG     SC447179  56.165  38.339  91.271
38029DG     BB147180  55.516  38.425  91.573
38029DG     BB247181  55.439  38.171  91.327
38029DG     BB347182  55.482  37.991  91.400
38029DG     SC147183  55.771  37.993  91.296
38029DG     SC247184  55.882  37.815  91.084
38029DG     SC347185  56.097  37.970  91.215
38029DG     SC447186  55.886  38.055  91.389
38030DA     BB147187  55.168  37.966  91.261
38030DA     BB247188  55.293  37.690  91.056
38030DA     BB347189  55.345  37.523  91.179
38030DA     SC147190  55.641  37.612  91.218
38030DA     SC247191  55.867  37.537  91.146
38030DA     SC347192  55.954  37.676  91.344
38030DA     SC447193  55.675  37.703  91.346
38031DA     BB147194  55.153  37.415  90.934
38031DA     BB247195  55.430  37.186  90.859
38031DA     BB347196  55.455  37.046  91.018
38031DA     SC147197  55.659  37.223  91.173
38031DA     SC247198  55.903  37.219  91.227
38031DA     SC347199  55.842  37.382  91.416
38031DA     SC447200  55.602  37.322  91.285
38032DA     BB147201  55.434  36.847  90.757
38032DA     BB247202  55.764  36.721  90.855
38032DA     BB347203  55.749  36.604  91.033
38032DA     SC147204  55.798  36.846  91.224
38032DA     SC247205  55.977  36.926  91.378
38032DA     SC347206  55.793  37.067  91.486
38032DA     SC447207  55.669  36.925  91.278
38033DT     BB147208  55.787  36.409  91.021
38033DT     BB247209  56.105  36.411  91.192
38033DT     BB347210  56.082  36.341  91.385
38033DT     SC147211  55.969  36.565  91.461
38033DT     SC247212  56.101  36.671  91.594
38033DT     SC347213  55.786  36.733  91.551
38034DC     BB147214  56.208  36.111  91.318
38034DC     BB247215  56.398  36.240  91.595
38034DC     BB347216  56.314  36.178  91.774
38034DC     SC147217  56.116  36.349  91.749
38034DC     SC247218  56.137  36.504  91.898
38034DC     SC347219  55.872  36.443  91.721
38035DT     BB147220  56.522  36.011  91.809
38035DT     BB247221  56.519  36.218  92.105
38035DT     BB347222  56.390  36.139  92.246
38035DT     SC147223  56.180  36.221  92.110
38035DT     SC247224  56.083  36.380  92.218
38035DT     SC347225  55.957  36.214  91.970
38036DT     BB147226  56.604  36.069  92.390
38036DT     BB247227  56.405  36.272  92.613
38036DT     BB347228  56.260  36.155  92.704
38036DT     SC147229  56.117  36.147  92.484
38036DT     SC247230  55.937  36.261  92.511
38036DT     SC347231  55.994  36.050  92.272
38037DA     BB147232  56.463  36.364  93.008
38037DA     BB247233  56.103  36.397  93.069
38037DA     BB347234  56.021  36.211  93.137
38037DA     SC147235  55.952  36.110  92.852
38037DA     SC247236  55.747  36.066  92.716
38037DA     SC347237  55.898  35.917  92.572
38037DA     SC447238  56.062  36.020  92.776
38038DG     BB147239  55.937  36.358  93.406
38038DG     BB247240  55.602  36.273  93.300
38038DG     BB347241  55.559  36.087  93.353
38038DG     SC147242  55.664  35.962  93.094
38038DG     SC247243  55.500  35.825  92.886
38038DG     SC347244  55.789  35.790  92.832
38038DG     SC447245  55.819  35.921  93.085
38039DG     BB147246  55.288  36.144  93.564
38039DG     BB247247  55.086  35.953  93.333
38039DG     BB347248  55.090  35.760  93.383
38039DG     SC147249  55.335  35.695  93.212
38039DG     SC247250  55.339  35.520  92.970
38039DG     SC347251  55.614  35.592  93.052
38039DG     SC447252  55.481  35.711  93.276
38040DC     BB147253  54.901  35.567  93.485
38040DC     BB247254  54.840  35.385  93.180
38040DC     BB347255  54.910  35.191  93.198
38040DC     SC147256  55.159  35.271  93.174
38040DC     SC247257  55.238  35.204  92.986
38040DC     SC347258  55.411  35.317  93.235
38041DA     BB147259  54.508  35.077  93.112
38041DA     BB247260  54.718  34.896  92.873
38041DA     BB347261  54.793  34.716  92.961
38041DA     SC147262  55.052  34.849  93.070
38041DA     SC247263  55.297  34.842  93.023
38041DA     SC347264  55.325  34.938  93.259
38041DA     SC447265  55.049  34.907  93.220
38042DT     BB147266  54.738  34.504  92.894
38042DT     BB247267  55.043  34.450  92.709
38042DT     BB347268  55.156  34.303  92.801
38042DT     SC147269  55.228  34.467  92.993
38042DT     SC247270  55.437  34.512  92.973
38042DT     SC347271  55.253  34.570  93.234
38043DT     BB147272  55.098  34.142  92.592
38043DT     BB247273  55.458  34.168  92.592
38043DT     BB347274  55.539  34.025  92.718
38043DT     SC147275  55.467  34.159  92.931
38043DT     SC247276  55.642  34.238  93.029
38043DT     SC347277  55.345  34.220  93.157
38044DT     BB147278  55.623  33.921  92.491
38044DT     BB247279  55.921  33.981  92.686
38044DT     BB347280  55.950  33.826  92.820
38044DT     SC147281  55.757  33.913  92.974
38044DT     SC247282  55.840  33.989  93.158
38044DT     SC347283  55.528  33.919  93.105
38045DC     BB147284  56.156  33.761  92.666
38045DC     BB247285  56.296  33.804  92.995
38045DC     BB347286  56.272  33.630  93.105
38045DC     SC147287  56.016  33.679  93.140
38045DC     SC247288  55.980  33.727  93.346
38045DC     SC347289  55.754  33.651  93.127
38046DT     BB147290  56.538  33.576  93.083
38046DT     BB247291  56.477  33.570  93.438
38046DT     BB347292  56.415  33.381  93.497
38046DT     SC147293  56.177  33.419  93.393
38046DT     SC247294  56.032  33.434  93.551
38046DT     SC347295  55.966  33.387  93.237
38047DA     BB147296  56.741  33.455  93.752
38047DA     BB247297  56.466  33.334  93.962
38047DA     BB347298  56.444  33.123  93.941
38047DA     SC147299  56.241  33.143  93.706
38047DA     SC247300  55.998  33.099  93.667
38047DA     SC347301  56.060  33.090  93.419
38047DA     SC447302  56.299  33.140  93.556
38048DT     BB147303  56.488  32.962  94.103
38048DT     BB247304  56.143  32.891  94.181
38048DT     BB347305  56.094  32.699  94.119
38048DT     SC147306  56.087  32.774  93.867
38048DT     SC247307  55.884  32.769  93.797
38048DT     SC347308  56.149  32.790  93.612
38049DT     BB147309  56.088  32.589  94.378
38049DT     BB247310  55.758  32.526  94.247
38049DT     BB347311  55.753  32.341  94.155
38049DT     SC147312  55.886  32.431  93.948
38049DT     SC247313  55.756  32.438  93.777
38049DT     SC347314  56.079  32.461  93.770
38050DC     BB147315  55.600  32.254  94.359
38050DC     BB247316  55.398  32.208  94.064
38050DC     BB347317  55.440  32.024  93.978
38050DC     SC147318  55.669  32.112  93.883
38050DC     SC247319  55.657  32.127  93.669
38050DC     SC347320  55.929  32.136  93.845
38051DG     BB147321  55.045  32.079  94.058
38051DG     BB247322  55.103  31.988  93.713
38051DG     BB347323  55.148  31.795  93.700
38051DG     SC147324  55.449  31.838  93.732
38051DG     SC247325  55.656  31.788  93.522
38051DG     SC347326  55.783  31.846  93.784
38051DG     SC447327  55.513  31.840  93.879
38052DA     BB147328  54.905  31.827  93.460
38052DA     BB247329  55.143  31.699  93.213
38052DA     BB347330  55.180  31.491  93.247
38052DA     SC147331  55.423  31.542  93.436
38052DA     SC247332  55.670  31.511  93.430
38052DA     SC347333  55.657  31.524  93.686
38052DA     SC447334  55.393  31.551  93.593
38053DC     BB147335  55.121  31.391  93.107
38053DC     BB247336  55.444  31.306  92.970
38053DC     BB347337  55.500  31.117  93.034
38053DC     SC147338  55.555  31.206  93.274
38053DC     SC247339  55.768  31.199  93.305
38053DC     SC347340  55.544  31.239  93.536
38054DC     BB147341  55.458  31.039  92.783
38054DC     BB247342  55.799  30.947  92.854
38054DC     BB347343  55.805  30.765  92.952
38054DC     SC147344  55.722  30.873  93.176
38054DC     SC247345  55.882  30.872  93.320
38054DC     SC347346  55.569  30.927  93.384
38055DT     BB147347  55.905  30.661  92.727
38055DT     BB247348  56.148  30.582  92.982
38055DT     BB347349  56.093  30.408  93.080
38055DT     SC147350  55.904  30.533  93.212
38055DT     SC247351  55.958  30.547  93.420
38055DT     SC347352  55.663  30.601  93.297
38056DC     BB147353  56.299  30.297  92.957
38056DC     BB247354  56.360  30.242  93.308
38056DC     BB347355  56.256  30.075  93.372
38056DC     SC147356  56.028  30.206  93.368
38056DC     SC247357  55.959  30.236  93.570
38056DC     SC347358  55.782  30.274  93.301
38057DT     BB147359  56.494  29.965  93.392
38057DT     BB247360  56.348  29.932  93.720
38057DT     BB347361  56.223  29.767  93.726
38057DT     SC147362  56.038  29.893  93.588
38057DT     SC247363  55.870  29.934  93.716
38057DT     SC347364  55.872  29.953  93.392
38058DA     BB147365  56.488  29.762  94.053
38058DA     BB247366  56.150  29.687  94.176
38058DA     BB347367  56.087  29.495  94.108
38058DA     SC147368  55.956  29.603  93.847
38058DA     SC247369  55.726  29.631  93.754
38058DA     SC347370  55.842  29.644  93.526
38058DA     SC447371  56.047  29.608  93.715
38059DT     BB147372  56.063  29.356  94.243
38059DT     BB247373  55.704  29.331  94.232
38059DT     BB347374  55.648  29.165  94.121
38059DT     SC147375  55.709  29.286  93.896
38059DT     SC247376  55.529  29.328  93.787
38059DT     SC347377  55.830  29.339  93.668
38060DT     BB147378  55.576  29.004  94.341
38060DT     BB247379  55.284  28.987  94.129
38060DT     BB347380  55.302  28.828  93.996
38060DT     SC147381  55.477  28.959  93.851
38060DT     SC247382  55.389  29.011  93.662
38060DT     SC347383  55.705  29.022  93.733
38061DA     BB147384  54.935  28.703  94.172
38061DA     BB247385  54.889  28.680  93.809
38061DA     BB347386  54.978  28.501  93.734
38061DA     SC147387  55.254  28.634  93.678
38061DA     SC247388  55.390  28.699  93.479
38061DA     SC347389  55.589  28.698  93.642
38061DA     SC447390  55.365  28.627  93.794
38062DT     BB147391  54.874  28.298  93.641
38062DT     BB247392  54.953  28.374  93.297
38062DT     BB347393  55.089  28.236  93.224
38062DT     SC147394  55.286  28.346  93.358
38062DT     SC247395  55.421  28.442  93.221
38062DT     SC347396  55.481  28.374  93.533
38063DT     BB147397  54.905  28.096  93.061
38063DT     BB247398  55.158  28.210  92.831
38063DT     BB347399  55.306  28.066  92.811
38063DT     SC147400  55.405  28.124  93.047
38063DT     SC247401  55.597  28.218  93.021
38063DT     SC347402  55.480  28.097  93.298
38064DT     BB147403  55.217  28.013  92.561
38064DT     BB247404  55.560  28.115  92.519
38064DT     BB347405  55.686  27.952  92.541
38064DT     SC147406  55.653  27.952  92.801
38064DT     SC247407  55.836  28.013  92.897
38064DT     SC347408  55.583  27.871  93.042
38065DA     BB147409  55.772  28.171  92.193
38065DA     BB247410  56.084  28.118  92.378
38065DA     BB347411  56.141  27.913  92.370
38065DA     SC147412  55.988  27.834  92.629
38065DA     SC247413  56.043  27.764  92.862
38065DA     SC347414  55.805  27.669  92.868
38065DA     SC447415  55.837  27.780  92.613
38066DA     BB147416  56.405  28.082  92.277
38066DA     BB247417  56.574  27.924  92.562
38066DA     BB347418  56.602  27.716  92.525
38066DA     SC147419  56.332  27.631  92.654
38066DA     SC247420  56.254  27.510  92.857
38066DA     SC347421  56.035  27.476  92.729
38066DA     SC447422  56.204  27.619  92.557
38067DT     BB147423  56.782  27.670  92.512
38067DT     BB247424  56.808  27.495  92.827
38067DT     BB347425  56.793  27.291  92.796
38067DT     SC147426  56.534  27.308  92.755
38067DT     SC247427  56.430  27.216  92.920
38067DT     SC347428  56.301  27.295  92.633
38068DC     BB147429  57.058  27.264  92.847
38068DC     BB247430  56.897  27.039  93.080
38068DC     BB347431  56.863  26.856  92.990
38068DC     SC147432  56.664  26.953  92.849
38068DC     SC247433  56.479  26.869  92.920
38068DC     SC347434  56.521  27.029  92.641
38069DA     BB147435  57.074  26.758  93.340
38069DA     BB247436  56.780  26.540  93.324
38069DA     BB347437  56.809  26.387  93.178
38069DA     SC147438  56.685  26.552  92.945
38069DA     SC247439  56.479  26.547  92.804
38069DA     SC347440  56.612  26.692  92.640
38069DA     SC447441  56.785  26.641  92.855
38070DT     BB147442  56.829  26.175  93.227
38070DT     BB247443  56.498  26.081  93.119
38070DT     BB347444  56.509  25.970  92.945
38070DT     SC147445  56.562  26.184  92.803
38070DT     SC247446  56.394  26.228  92.676
38070DT     SC347447  56.692  26.352  92.647
38071DT     BB147448  56.446  25.730  93.072
38071DT     BB247449  56.190  25.768  92.821
38071DT     BB347450  56.250  25.679  92.644
38071DT     SC147451  56.417  25.874  92.593
38071DT     SC247452  56.345  25.988  92.425
38071DT     SC347453  56.644  26.002  92.550
38072DC     BB147454  56.066  25.488  92.688
38072DC     BB247455  55.976  25.635  92.370
38072DC     BB347456  56.082  25.543  92.218
38072DC     SC147457  56.302  25.670  92.285
38072DC     SC247458  56.351  25.814  92.132
38072DC     SC347459  56.549  25.712  92.367
38073DT     BB147460  55.849  25.441  92.149
38073DT     BB247461  55.962  25.625  91.860
38073DT     BB347462  56.093  25.509  91.749
38073DT     SC147463  56.285  25.545  91.924
38073DT     SC247464  56.438  25.669  91.838
38073DT     SC347465  56.467  25.491  92.107
38074DG     BB147466  55.781  25.643  91.523
38074DG     BB247467  56.101  25.721  91.373
38074DG     BB347468  56.181  25.556  91.295
38074DG     SC147469  56.328  25.477  91.552
38074DG     SC247470  56.625  25.473  91.589
38074DG     SC347471  56.487  25.351  91.821
38074DG     SC447472  56.253  25.387  91.660
38075DT     BB147473  56.215  25.557  91.090
38075DT     BB247474  56.574  25.585  91.072
38075DT     BB347475  56.658  25.399  91.040
38075DT     SC147476  56.614  25.327  91.288
38075DT     SC247477  56.802  25.312  91.393
38075DT     SC347478  56.517  25.194  91.494
38076DT     BB147479  56.717  25.479  90.790
38076DT     BB247480  57.033  25.378  90.931
38076DT     BB347481  57.058  25.173  90.910
38076DT     SC147482  56.886  25.125  91.102
38076DT     SC247483  56.991  25.046  91.273
38076DT     SC347484  56.670  25.038  91.226
38077DA     BB147485  57.404  25.349  90.750
38077DA     BB247486  57.509  25.082  90.978
38077DA     BB347487  57.473  24.891  90.890
38077DA     SC147488  57.187  24.864  91.010
38077DA     SC247489  57.071  24.726  91.182
38077DA     SC347490  56.855  24.792  91.062
38077DA     SC447491  57.064  24.915  90.920
38078DA     BB147492  57.793  24.844  90.954
38078DA     BB247493  57.691  24.567  91.171
38078DA     BB347494  57.639  24.396  91.055
38078DA     SC147495  57.338  24.474  91.033
38078DA     SC247496  57.119  24.391  91.120
38078DA     SC347497  57.016  24.523  90.926
38078DA     SC447498  57.293  24.561  90.906
38079DG     BB147499  57.870  24.257  91.209
38079DG     BB247500  57.601  24.056  91.342
38079DG     BB347501  57.555  23.910  91.214
38079DG     SC147502  57.348  24.075  91.061
38079DG     SC247503  57.054  24.024  91.054
38079DG     SC347504  57.129  24.233  90.859
38079DG     SC447505  57.395  24.165  90.938
38080DT     BB147506  57.578  23.706  91.277
38080DT     BB247507  57.235  23.609  91.330
38080DT     BB347508  57.169  23.495  91.170
38080DT     SC147509  57.150  23.707  91.017
38080DT     SC247510  56.943  23.750  90.978
38080DT     SC347511  57.195  23.875  90.818
38081DT     BB147512  57.172  23.281  91.332
38081DT     BB247513  56.833  23.301  91.213
38081DT     BB347514  56.816  23.205  91.030
38081DT     SC147515  56.937  23.402  90.906
38081DT     SC247516  56.796  23.505  90.781
38081DT     SC347517  57.118  23.533  90.767
38082DT     BB147518  56.678  23.014  91.157
38082DT     BB247519  56.457  23.132  90.897
38082DT     BB347520  56.497  23.034  90.720
38082DT     SC147521  56.716  23.174  90.683
38082DT     SC247522  56.689  23.308  90.517
38082DT     SC347523  56.972  23.231  90.655
38083DT     BB147524  56.264  22.914  90.757
38083DT     BB247525  56.237  23.076  90.436
38083DT     BB347526  56.321  22.957  90.289
38083DT     SC147527  56.564  23.017  90.369
38083DT     SC247528  56.659  23.140  90.220
38083DT     SC347529  56.808  22.988  90.465
38084DT     BB147530  56.073  22.929  90.211
38084DT     BB247531  56.248  23.061  89.925
38084DT     BB347532  56.346  22.909  89.826
38084DT     SC147533  56.531  22.896  90.012
38084DT     SC247534  56.718  22.968  89.932
38084DT     SC347535  56.681  22.800  90.207
38085DC     BB147536  56.166  22.952  89.640
38085DC     BB247537  56.484  22.990  89.474
38085DC     BB347538  56.559  22.804  89.422
38085DC     SC147539  56.625  22.754  89.671
38085DC     SC247540  56.840  22.754  89.690
38085DC     SC347541  56.630  22.637  89.908
38086DG     BB147542  56.534  23.038  89.089
38086DG     BB247543  56.860  22.885  89.121
38086DG     BB347544  56.850  22.692  89.072
38086DG     SC147545  56.787  22.599  89.357
38086DG     SC247546  56.964  22.433  89.531
38086DG     SC347547  56.696  22.464  89.652
38086DG     SC447548  56.634  22.592  89.404
38087DT     BB147549  56.960  22.610  88.899
38087DT     BB247550  57.221  22.416  89.056
38087DT     BB347551  57.171  22.215  89.051
38087DT     SC147552  56.994  22.246  89.242
38087DT     SC247553  57.064  22.149  89.421
38087DT     SC347554  56.761  22.252  89.366
38088DT     BB147555  57.350  22.144  88.845
38088DT     BB247556  57.433  21.912  89.108
38088DT     BB347557  57.318  21.741  89.090
38088DT     SC147558  57.105  21.865  89.181
38088DT     SC247559  57.055  21.788  89.376
38088DT     SC347560  56.863  21.969  89.188
38089DA     BB147561  57.698  21.550  89.075
38089DA     BB247562  57.499  21.363  89.320
38089DA     BB347563  57.366  21.229  89.221
38089DA     SC147564  57.133  21.434  89.205
38089DA     SC247565  56.907  21.465  89.307
38089DA     SC347566  56.860  21.618  89.107
38089DA     SC447567  57.122  21.524  89.072
38090DG     BB147568  57.489  20.937  89.332
38090DG     BB247569  57.173  20.911  89.504
38090DG     BB347570  57.044  20.807  89.394
38090DG     SC147571  56.935  21.051  89.246
38090DG     SC247572  56.658  21.161  89.269
38090DG     SC347573  56.806  21.294  89.050
38090DG     SC447574  57.007  21.099  89.111
38091DT     BB147575  56.924  20.568  89.433
38091DT     BB247576  56.600  20.688  89.537
38091DT     BB347577  56.457  20.636  89.397
38091DT     SC147578  56.542  20.821  89.231
38091DT     SC247579  56.394  20.976  89.216
38091DT     SC347580  56.644  20.933  89.015
38092DC     BB147581  56.338  20.435  89.555
38092DC     BB247582  56.071  20.669  89.491
38092DC     BB347583  55.968  20.614  89.321
38092DC     SC147584  56.163  20.699  89.166
38092DC     SC247585  56.099  20.874  89.060
38092DC     SC347586  56.360  20.695  88.991
38093DT     BB147587  55.754  20.537  89.471
38093DT     BB247588  55.626  20.794  89.253
38093DT     BB347589  55.562  20.710  89.075
38093DT     SC147590  55.810  20.677  88.993
38093DT     SC247591  55.850  20.811  88.830
38093DT     SC347592  56.031  20.557  88.916
38094DA     BB147593  55.260  20.953  89.231
38094DA     BB247594  55.315  21.049  88.882
38094DA     BB347595  55.237  20.900  88.751
38094DA     SC147596  55.503  20.739  88.736
38094DA     SC247597  55.680  20.691  88.567
38094DA     SC347598  55.739  20.491  88.716
38094DA     SC447599  55.523  20.620  88.841
38095DC     BB147600  55.092  20.962  88.645
38095DC     BB247601  55.278  20.990  88.336
38095DC     BB347602  55.235  20.829  88.213
38095DC     SC147603  55.382  20.668  88.360
38095DC     SC247604  55.558  20.612  88.249
38095DC     SC347605  55.448  20.469  88.519
38096DT     BB147606  55.114  21.011  88.068
38096DT     BB247607  55.365  20.866  87.853
38096DT     BB347608  55.295  20.690  87.771
38096DT     SC147609  55.327  20.562  87.999
38096DT     SC247610  55.488  20.421  87.980
38096DT     SC347611  55.268  20.428  88.218
38097DC     BB147612  55.306  20.837  87.559
38097DC     BB247613  55.519  20.554  87.494
38097DC     BB347614  55.405  20.390  87.441
38097DC     SC147615  55.328  20.353  87.689
38097DC     SC247616  55.417  20.174  87.766
38097DC     SC347617  55.170  20.335  87.899
38098DT     BB147618  55.535  20.446  87.228
38098DT     BB247619  55.617  20.104  87.310
38098DT     BB347620  55.460  19.979  87.260
38098DT     SC147621  55.319  20.061  87.466
38098DT     SC247622  55.303  19.901  87.609
38098DT     SC347623  55.125  20.172  87.606
38099DA     BB147624  55.849  19.848  87.152
38099DA     BB247625  55.661  19.568  87.296
38099DA     BB347626  55.495  19.518  87.172
38099DA     SC147627  55.298  19.709  87.317
38099DA     SC247628  55.098  19.691  87.466
38099DA     SC347629  55.047  19.931  87.392
38099DA     SC447630  55.282  19.858  87.258
38100DA     BB147631  55.660  19.239  87.249
38100DA     BB247632  55.334  19.114  87.362
38100DA     BB347633  55.198  19.103  87.198
38100DA     SC147634  55.088  19.391  87.238
38100DA     SC247635  54.876  19.499  87.313
38100DA     SC347636  54.964  19.708  87.192
38100DA     SC447637  55.159  19.510  87.157
38101DT     BB147638  55.139  18.923  87.132
38101DT     BB247639  54.792  18.939  87.231
38101DT     BB347640  54.674  18.982  87.067
38101DT     SC147641  54.750  19.233  87.067
38101DT     SC247642  54.585  19.357  87.126
38101DT     SC347643  54.859  19.459  86.988
38102DT     BB147644  54.570  18.718  87.021
38102DT     BB247645  54.272  18.921  87.030
38102DT     BB347646  54.223  18.983  86.839
38102DT     SC147647  54.417  19.160  86.839
38102DT     SC247648  54.334  19.358  86.845
38102DT     SC347649  54.640  19.283  86.771
38103DA     BB147650  53.859  18.793  86.939
38103DA     BB247651  53.770  19.121  86.801
38103DA     BB347652  53.781  19.117  86.588
38103DA     SC147653  54.078  19.207  86.577
38103DA     SC247654  54.208  19.408  86.507
38103DA     SC347655  54.409  19.249  86.494
38103DA     SC447656  54.191  19.092  86.574
38104DT     BB147657  53.604  19.132  86.443
38104DT     BB247658  53.666  19.472  86.337
38104DT     BB347659  53.729  19.474  86.140
38104DT     SC147660  53.967  19.385  86.206
38104DT     SC247661  54.112  19.540  86.177
38104DT     SC347662  54.177  19.226  86.221
38105DT     BB147663  53.486  19.574  86.039
38105DT     BB247664  53.732  19.811  85.923
38105DT     BB347665  53.802  19.755  85.737
38105DT     SC147666  53.947  19.562  85.842
38105DT     SC247667  54.155  19.612  85.824
38105DT     SC347668  54.035  19.320  85.896
38106DA     BB147669  53.677  20.152  85.685
38106DA     BB247670  54.014  20.124  85.542
38106DA     BB347671  54.006  20.023  85.354
38106DA     SC147672  54.048  19.740  85.477
38106DA     SC247673  54.226  19.566  85.482
38106DA     SC347674  54.037  19.404  85.546
38106DA     SC447675  53.917  19.656  85.515
38107DA     BB147676  54.161  20.289  85.224
38107DA     BB247677  54.437  20.067  85.131
38107DA     BB347678  54.389  19.958  84.954
38107DA     SC147679  54.263  19.718  85.106
38107DA     SC247680  54.317  19.478  85.150
38107DA     SC347681  54.067  19.453  85.202
38107DA     SC447682  54.104  19.722  85.133
38108DA     BB147683  54.667  20.075  84.799
38108DA     BB247684  54.785  19.729  84.773
38108DA     BB347685  54.698  19.633  84.604
38108DA     SC147686  54.453  19.524  84.763
38108DA     SC247687  54.367  19.304  84.841
38108DA     SC347688  54.140  19.422  84.859
38108DA     SC447689  54.320  19.615  84.766
38109DT     BB147690  54.800  19.556  84.385
38109DT     BB247691  54.802  19.206  84.472
38109DT     BB347692  54.674  19.101  84.347
38109DT     SC147693  54.463  19.195  84.471
38109DT     SC247694  54.367  19.036  84.580
38109DT     SC347695  54.237  19.325  84.514
38110DC     BB147696  54.866  18.964  84.165
38110DC     BB247697  54.681  18.693  84.315
38110DC     BB347698  54.527  18.635  84.189
38110DC     SC147699  54.386  18.848  84.250
38110DC     SC247700  54.215  18.789  84.366
38110DC     SC347701  54.258  19.076  84.223
38111DT     BB147702  54.653  18.397  84.122
38111DT     BB247703  54.344  18.297  84.279
38111DT     BB347704  54.194  18.280  84.137
38111DT     SC147705  54.173  18.541  84.117
38111DT     SC247706  53.984  18.603  84.200
38111DT     SC347707  54.178  18.783  84.012
38112DA     BB147708  54.220  17.945  84.387
38112DA     BB247709  53.874  18.066  84.387
38112DA     BB347710  53.782  18.026  84.199
38112DA     SC147711  53.864  18.299  84.074
38112DA     SC247712  53.753  18.510  84.001
38112DA     SC347713  53.964  18.549  83.860
38112DA     SC447714  54.003  18.304  83.992
38113DT     BB147715  53.649  17.916  84.231
38113DT     BB247716  53.385  18.160  84.193
38113DT     BB347717  53.308  18.151  84.001
38113DT     SC147718  53.519  18.272  83.902
38113DT     SC247719  53.464  18.469  83.836
38113DT     SC347720  53.738  18.313  83.761
38114DA     BB147721  53.021  18.158  84.311
38114DA     BB247722  52.933  18.410  84.060
38114DA     BB347723  52.876  18.315  83.877
38114DA     SC147724  53.163  18.315  83.759
38114DA     SC247725  53.287  18.430  83.575
38114DA     SC347726  53.454  18.235  83.593
38114DA     SC447727  53.254  18.185  83.784
38115DT     BB147728  52.714  18.363  83.857
38115DT     BB247729  52.769  18.593  83.585
38115DT     BB347730  52.746  18.495  83.404
38115DT     SC147731  52.978  18.374  83.431
38115DT     SC247732  53.116  18.453  83.286
38115DT     SC347733  53.155  18.181  83.458
38116DT     BB147734  52.544  18.655  83.401
38116DT     BB247735  52.735  18.731  83.105
38116DT     BB347736  52.701  18.587  82.960
38116DT     SC147737  52.850  18.412  83.087
38116DT     SC247738  53.030  18.377  82.975
38116DT     SC347739  52.920  18.195  83.219
38117DA     BB147740  52.681  18.986  82.821
38117DA     BB247741  52.883  18.788  82.589
38117DA     BB347742  52.763  18.642  82.491
38117DA     SC147743  52.814  18.421  82.705
38117DA     SC247744  52.935  18.204  82.721
38117DA     SC347745  52.783  18.157  82.922
38117DA     SC447746  52.709  18.410  82.826
38118DT     BB147747  52.769  18.683  82.327
38118DT     BB247748  52.965  18.404  82.210
38118DT     BB347749  52.840  18.249  82.152
38118DT     SC147750  52.787  18.188  82.402
38118DT     SC247751  52.878  17.999  82.450
38118DT     SC347752  52.652  18.151  82.625
38119DT     BB147753  52.922  18.313  81.913
38119DT     BB247754  52.986  17.959  81.944
38119DT     BB347755  52.811  17.853  81.914
38119DT     SC147756  52.720  17.920  82.150
38119DT     SC247757  52.716  17.747  82.278
38119DT     SC347758  52.566  18.028  82.335
38120DT     BB147759  52.900  17.772  81.671
38120DT     BB247760  52.801  17.465  81.834
38120DT     BB347761  52.598  17.434  81.810
38120DT     SC147762  52.542  17.619  81.987
38120DT     SC247763  52.460  17.527  82.164
38120DT     SC347764  52.448  17.842  82.092
38121DT     BB147765  52.576  17.230  81.583
38121DT     BB247766  52.366  17.080  81.835
38121DT     BB347767  52.167  17.128  81.799
38121DT     SC147768  52.203  17.373  81.885
38121DT     SC247769  52.099  17.399  82.072
38121DT     SC347770  52.217  17.636  81.886
38122DA     BB147771  52.084  16.706  81.767
38122DA     BB247772  51.829  16.837  81.996
38122DA     BB347773  51.665  16.918  81.886
38122DA     SC147774  51.784  17.205  81.871
38122DA     SC247775  51.735  17.430  81.968
38122DA     SC347776  51.875  17.521  81.774
38122DA     SC447777  51.873  17.242  81.743
38123DA     BB147778  51.420  16.717  82.026
38123DA     BB247779  51.271  17.016  82.177
38123DA     BB347780  51.129  17.103  82.044
38123DA     SC147781  51.337  17.290  81.906
38123DA     SC247782  51.387  17.534  81.896
38123DA     SC347783  51.515  17.478  81.681
38123DA     SC447784  51.410  17.235  81.774
38124DT     BB147785  50.897  17.116  82.076
38124DT     BB247786  50.898  17.463  82.174
38124DT     BB347787  50.799  17.576  82.032
38124DT     SC147788  51.000  17.559  81.865
38124DT     SC247789  51.095  17.751  81.846
38124DT     SC347790  51.139  17.497  81.650
38125DC     BB147791  50.591  17.614  82.206
38125DC     BB247792  50.710  17.946  82.132
38125DC     BB347793  50.612  18.020  81.965
38125DC     SC147794  50.753  17.867  81.805
38125DC     SC247795  50.888  17.989  81.690
38125DC     SC347796  50.812  17.680  81.629
38126DA     BB147797  50.612  18.290  82.285
38126DA     BB247798  50.723  18.467  81.983
38126DA     BB347799  50.560  18.494  81.848
38126DA     SC147800  50.611  18.227  81.696
38126DA     SC247801  50.690  18.155  81.471
38126DA     SC347802  50.576  17.932  81.524
38126DA     SC447803  50.532  18.096  81.747
38127DT     BB147804  50.525  18.671  81.828
38127DT     BB247805  50.650  18.708  81.492
38127DT     BB347806  50.494  18.700  81.357
38127DT     SC147807  50.471  18.440  81.387
38127DT     SC247808  50.535  18.342  81.206
38127DT     SC347809  50.368  18.205  81.448
38128DT     BB147810  50.534  18.961  81.320
38128DT     BB247811  50.553  18.818  80.989
38128DT     BB347812  50.363  18.798  80.910
38128DT     SC147813  50.312  18.592  81.063
38128DT     SC247814  50.301  18.414  80.943
38128DT     SC347815  50.199  18.442  81.249
38129DC     BB147816  50.400  19.010  80.736
38129DC     BB247817  50.297  18.741  80.520
38129DC     BB347818  50.090  18.737  80.506
38129DC     SC147819  50.068  18.635  80.746
38129DC     SC247820  49.999  18.432  80.732
38129DC     SC347821  50.003  18.612  81.001
38130DG     BB147822  50.190  18.801  80.111
38130DG     BB247823  49.958  18.524  80.138
38130DG     BB347824  49.772  18.593  80.151
38130DG     SC147825  49.773  18.613  80.456
38130DG     SC247826  49.609  18.448  80.643
38130DG     SC347827  49.746  18.667  80.788
38130DG     SC447828  49.824  18.748  80.525
38131DA     BB147829  49.638  18.406  79.873
38131DA     BB247830  49.401  18.231  80.090
38131DA     BB347831  49.225  18.349  80.118
38131DA     SC147832  49.332  18.494  80.372
38131DA     SC247833  49.285  18.497  80.616
38131DA     SC347834  49.404  18.724  80.616
38131DA     SC447835  49.408  18.634  80.350
38132DC     BB147836  49.002  18.305  80.037
38132DC     BB247837  48.869  18.198  80.355
38132DC     BB347838  48.727  18.334  80.421
38132DC     SC147839  48.913  18.508  80.487
38132DC     SC247840  48.922  18.525  80.701
38132DC     SC347841  49.056  18.730  80.488
38133DT     BB147842  48.497  18.172  80.368
38133DT     BB247843  48.473  18.242  80.721
38133DT     BB347844  48.356  18.410  80.752
38133DT     SC147845  48.549  18.568  80.670
38133DT     SC247846  48.624  18.681  80.837
38133DT     SC347847  48.679  18.745  80.525
38134DT     BB147848  48.149  18.258  80.852
38134DT     BB247849  48.232  18.485  81.120
38134DT     BB347850  48.121  18.659  81.101
38134DT     SC147851  48.270  18.742  80.901
38134DT     SC247852  48.388  18.910  80.964
38134DT     SC347853  48.339  18.816  80.658
38135DT     BB147854  47.985  18.580  81.318
38135DT     BB247855  48.126  18.899  81.408
38135DT     BB347856  48.001  19.052  81.346
38135DT     SC147857  48.074  19.021  81.096
38135DT     SC247858  48.190  19.190  81.034
38135DT     SC347859  48.059  18.968  80.838
38136DT     BB147860  47.957  19.085  81.604
38136DT     BB247861  48.082  19.403  81.488
38136DT     BB347862  47.927  19.514  81.407
38136DT     SC147863  47.925  19.366  81.190
38136DT     SC247864  47.997  19.481  81.024
38136DT     SC347865  47.839  19.199  81.005
38137DA     BB147866  48.155  19.737  81.680
38137DA     BB247867  48.106  19.938  81.377
38137DA     BB347868  47.902  20.000  81.361
38137DA     SC147869  47.815  19.751  81.195
38137DA     SC247870  47.743  19.701  80.962
38137DA     SC347871  47.643  19.487  81.061
38137DA     SC447872  47.758  19.624  81.276
38138DT     BB147873  47.883  20.184  81.375
38138DT     BB247874  47.798  20.252  81.031
38138DT     BB347875  47.593  20.273  81.011
38138DT     SC147876  47.557  20.014  81.034
38138DT     SC247877  47.493  19.934  80.844
38138DT     SC347878  47.477  19.782  81.130
38139DA     BB147879  47.767  20.611  80.831
38139DA     BB247880  47.509  20.484  80.604
38139DA     BB347881  47.315  20.527  80.681
38139DA     SC147882  47.292  20.259  80.837
38139DA     SC247883  47.160  20.047  80.822
38139DA     SC347884  47.222  20.016  81.069
38139DA     SC447885  47.340  20.258  80.990
38140DT     BB147886  47.182  20.667  80.588
38140DT     BB247887  46.945  20.430  80.456
38140DT     BB347888  46.769  20.436  80.565
38140DT     SC147889  46.881  20.308  80.766
38140DT     SC247890  46.796  20.111  80.780
38140DT     SC347891  46.974  20.258  81.007
38141DA     BB147892  46.641  20.490  80.168
38141DA     BB247893  46.429  20.231  80.318
38141DA     BB347894  46.290  20.319  80.454
38141DA     SC147895  46.476  20.293  80.701
38141DA     SC247896  46.486  20.160  80.912
38141DA     SC347897  46.643  20.344  80.997
38141DA     SC447898  46.571  20.418  80.736
38142DG     BB147899  46.058  20.207  80.271
38142DG     BB247900  45.983  20.007  80.563
38142DG     BB347901  45.869  20.110  80.689
38142DG     SC147902  46.105  20.232  80.841
38142DG     SC247903  46.178  20.176  81.125
38142DG     SC347904  46.340  20.399  81.017
38142DG     SC447905  46.168  20.370  80.789
38143DT     BB147906  45.658  20.048  80.746
38143DT     BB247907  45.715  19.917  81.077
38143DT     BB347908  45.646  20.051  81.219
38143DT     SC147909  45.851  20.210  81.179
38143DT     SC247910  45.979  20.206  81.352
38143DT     SC347911  45.990  20.424  81.112
38144DA     BB147912  45.476  19.677  81.306
38144DA     BB247913  45.629  19.807  81.613
38144DA     BB347914  45.512  19.967  81.692
38144DA     SC147915  45.666  20.189  81.536
38144DA     SC247916  45.823  20.375  81.587
38144DA     SC347917  45.752  20.471  81.360
38144DA     SC447918  45.608  20.232  81.393
38145DC     BB147919  45.434  19.931  81.862
38145DC     BB247920  45.659  20.135  82.056
38145DC     BB347921  45.568  20.315  82.104
38145DC     SC147922  45.597  20.405  81.859
38145DC     SC247923  45.742  20.564  81.858
38145DC     SC347924  45.536  20.493  81.618
38146DG     BB147925  45.696  20.123  82.440
38146DG     BB247926  45.822  20.462  82.420
38146DG     BB347927  45.677  20.591  82.463
38146DG     SC147928  45.581  20.616  82.173
38146DG     SC247929  45.600  20.861  82.003
38146DG     SC347930  45.438  20.653  81.870
38146DG     SC447931  45.471  20.514  82.118
38147DG     BB147932  45.882  20.693  82.693
38147DG     BB247933  45.879  21.008  82.514
38147DG     BB347934  45.714  21.109  82.557
38147DG     SC147935  45.550  20.987  82.330
38147DG     SC247936  45.446  21.133  82.091
38147DG     SC347937  45.335  20.859  82.103
38147DG     SC447938  45.470  20.851  82.356
38148DT     BB147939  45.742  21.293  82.646
38148DT     BB247940  45.664  21.519  82.376
38148DT     BB347941  45.469  21.587  82.394
38148DT     SC147942  45.373  21.357  82.313
38148DT     SC247943  45.285  21.381  82.118
38148DT     SC347944  45.242  21.128  82.316
38149DT     BB147945  45.577  21.820  82.456
38149DT     BB247946  45.368  21.885  82.169
38149DT     BB347947  45.171  21.910  82.230
38149DT     SC147948  45.143  21.652  82.271
38149DT     SC247949  45.009  21.571  82.123
38149DT     SC347950  45.102  21.424  82.397
38150DA     BB147951  45.288  22.227  81.979
38150DA     BB247952  44.968  22.095  81.858
38150DA     BB347953  44.811  22.143  81.995
38150DA     SC147954  44.843  21.883  82.162
38150DA     SC247955  44.714  21.673  82.203
38150DA     SC347956  44.857  21.651  82.415
38150DA     SC447957  44.940  21.888  82.290
38151DC     BB147958  44.676  22.264  81.927
38151DC     BB247959  44.414  22.018  81.887
38151DC     BB347960  44.279  22.033  82.044
38151DC     SC147961  44.447  21.919  82.210
38151DC     SC247962  44.374  21.723  82.262
38151DC     SC347963  44.609  21.886  82.415
38152DA     BB147964  44.061  22.043  81.684
38152DA     BB247965  43.903  21.798  81.907
38152DA     BB347966  43.801  21.897  82.066
38152DA     SC147967  44.047  21.894  82.257
38152DA     SC247968  44.115  21.781  82.469
38152DA     SC347969  44.284  21.972  82.493
38152DA     SC447970  44.144  22.022  82.255
38153DT     BB147971  43.599  21.886  82.076
38153DT     BB247972  43.581  21.657  82.353
38153DT     BB347973  43.526  21.758  82.525
38153DT     SC147974  43.765  21.864  82.548
38153DT     SC247975  43.866  21.779  82.718
38153DT     SC347976  43.956  22.046  82.558
38154DA     BB147977  43.255  21.439  82.493
38154DA     BB247978  43.390  21.437  82.834
38154DA     BB347979  43.305  21.595  82.948
38154DA     SC147980  43.527  21.800  82.874
38154DA     SC247981  43.716  21.917  82.988
38154DA     SC347982  43.702  22.085  82.795
38154DA     SC447983  43.502  21.894  82.746
38155DC     BB147984  43.180  21.553  83.109
38155DC     BB247985  43.421  21.630  83.366
38155DC     BB347986  43.373  21.810  83.457
38155DC     SC147987  43.458  21.946  83.249
38155DC     SC247988  43.638  22.052  83.302
38155DC     SC347989  43.456  22.106  83.039
38156DA     BB147990  43.423  21.522  83.757
38156DA     BB247991  43.629  21.814  83.842
38156DA     BB347992  43.505  21.975  83.907
38156DA     SC147993  43.471  22.097  83.623
38156DA     SC247994  43.545  22.300  83.500
38156DA     SC347995  43.350  22.250  83.341
38156DA     SC447996  43.344  22.050  83.537
38157DT     BB147997  43.535  22.021  84.087
38157DT     BB247998  43.720  22.323  84.020
38157DT     BB347999  43.598  22.488  84.045
38157DT     SC148000  43.473  22.441  83.820
38157DT     SC248001  43.524  22.593  83.676
38157DT     SC348002  43.279  22.382  83.651
38158DT     BB148003  43.760  22.523  84.244
38158DT     BB248004  43.790  22.818  84.039
38158DT     BB348005  43.631  22.945  84.075
38158DT     SC148006  43.467  22.792  83.939
38158DT     SC248007  43.411  22.891  83.757
38158DT     SC348008  43.265  22.631  83.884
38159DT     BB148009  43.828  23.080  84.170
38159DT     BB248010  43.676  23.289  83.917
38159DT     BB348011  43.502  23.373  83.991
38159DT     SC148012  43.373  23.146  83.969
38159DT     SC248013  43.227  23.161  83.812
38159DT     SC348014  43.240  22.928  84.037
38160DA     BB148015  43.758  23.648  83.794
38160DA     BB248016  43.414  23.699  83.677
38160DA     BB348017  43.292  23.772  83.836
38160DA     SC148018  43.205  23.489  83.932
38160DA     SC248019  42.997  23.351  83.935
38160DA     SC348020  43.113  23.217  84.121
38160DA     SC448021  43.292  23.420  84.048
38161DG     BB148022  43.251  24.010  83.640
38161DG     BB248023  42.904  23.910  83.659
38161DG     BB348024  42.823  23.979  83.827
38161DG     SC148025  42.895  23.732  83.992
38161DG     SC248026  42.703  23.535  84.107
38161DG     SC348027  42.976  23.485  84.207
38161DG     SC448028  43.037  23.727  84.066
38162DG     BB148029  42.586  24.159  83.669
38162DG     BB248030  42.340  23.958  83.842
38162DG     BB348031  42.305  24.033  84.022
38162DG     SC148032  42.525  23.871  84.160
38162DG     SC248033  42.482  23.656  84.363
38162DG     SC348034  42.769  23.725  84.340
38162DG     SC448035  42.673  23.931  84.167
38163DT     BB148036  42.094  24.141  84.118
38163DT     BB248037  41.978  23.880  84.338
38163DT     BB348038  42.003  23.937  84.536
38163DT     SC148039  42.262  23.898  84.523
38163DT     SC248040  42.314  23.727  84.643
38163DT     SC348041  42.521  23.948  84.525
38164DA     BB148042  41.586  23.860  84.547
38164DA     BB248043  41.733  23.681  84.832
38164DA     BB348044  41.767  23.816  84.994
38164DA     SC148045  42.057  23.888  84.905
38164DA     SC248046  42.290  23.848  84.985
38164DA     SC348047  42.353  24.049  84.839
38164DA     SC448048  42.076  24.016  84.810
38165DT     BB148049  41.656  23.825  85.209
38165DT     BB248050  41.928  23.673  85.392
38165DT     BB348051  42.009  23.810  85.524
38165DT     SC148052  42.130  23.938  85.329
38165DT     SC248053  42.342  23.907  85.345
38165DT     SC348054  42.195  24.131  85.163
38166DG     BB148055  41.882  23.507  85.767
38166DG     BB248056  42.234  23.575  85.817
38166DG     BB348057  42.257  23.729  85.941
38166DG     SC148058  42.254  23.940  85.719
38166DG     SC248059  42.485  24.112  85.638
38166DG     SC348060  42.236  24.199  85.504
38166DG     SC448061  42.114  24.002  85.672
38167DC     BB148062  42.362  23.697  86.128
38167DC     BB248063  42.681  23.844  86.048
38167DC     BB348064  42.699  24.029  86.141
38167DC     SC148065  42.535  24.140  85.970
38167DC     SC248066  42.645  24.276  85.844
38167DC     SC348067  42.322  24.263  85.873
38168DA     BB148068  43.028  23.771  86.179
38168DA     BB248069  43.146  24.100  86.069
38168DA     BB348070  43.121  24.244  86.224
38168DA     SC148071  42.836  24.329  86.134
38168DA     SC248072  42.726  24.529  86.032
38168DA     SC348073  42.508  24.431  86.124
38168DA     SC448074  42.711  24.253  86.201
38169DA     BB148075  43.417  24.248  86.083
38169DA     BB248076  43.343  24.601  86.015
38169DA     BB348077  43.323  24.709  86.198
38169DA     SC148078  43.016  24.661  86.222
38169DA     SC248079  42.806  24.795  86.204
38169DA     SC348080  42.698  24.603  86.336
38169DA     SC448081  42.967  24.532  86.305
38170DG     BB148082  43.531  24.838  86.010
38170DG     BB248083  43.304  25.117  86.044
38170DG     BB348084  43.310  25.187  86.230
38170DG     SC148085  43.087  25.004  86.332
38170DG     SC248086  42.817  25.090  86.424
38170DG     SC348087  42.861  24.804  86.483
38170DG     SC448088  43.126  24.859  86.388
38171DA     BB148089  43.347  25.491  86.062
38171DA     BB248090  43.065  25.627  86.252
38171DA     BB348091  43.118  25.651  86.458
38171DA     SC148092  43.021  25.367  86.540
38171DA     SC248093  42.837  25.267  86.675
38171DA     SC348094  42.986  25.059  86.687
38171DA     SC448095  43.129  25.248  86.538
38172DG     BB148096  43.063  25.961  86.425
38172DG     BB248097  42.815  25.905  86.683
38172DG     BB348098  42.902  25.906  86.862
38172DG     SC148099  42.960  25.606  86.862
38172DG     SC248100  42.836  25.404  87.045
38172DG     SC348101  43.057  25.283  86.888
38172DG     SC448102  43.097  25.553  86.799
38173DT     BB148103  42.882  26.071  87.057
38173DT     BB248104  42.690  25.878  87.293
38173DT     BB348105  42.810  25.822  87.453
38173DT     SC148106  42.932  25.640  87.309
38173DT     SC248107  42.876  25.445  87.378
38173DT     SC348108  43.124  25.512  87.182
38174DT     BB148109  42.721  26.012  87.661
38174DT     BB248110  42.680  25.692  87.822
38174DT     BB348111  42.849  25.647  87.934
38174DT     SC148112  42.987  25.591  87.718
38174DT     SC248113  43.025  25.379  87.711
38174DT     SC348114  43.173  25.605  87.532
38175DT     BB148115  42.750  25.701  88.207
38175DT     BB248116  42.864  25.359  88.227
38175DT     BB348117  43.058  25.354  88.299
38175DT     SC148118  43.154  25.438  88.069
38175DT     SC248119  43.263  25.278  87.975
38175DT     SC348120  43.274  25.592  87.892
38176DA     BB148121  42.856  25.099  88.564
38176DA     BB248122  43.150  24.916  88.442
38176DA     BB348123  43.326  24.984  88.542
38176DA     SC148124  43.391  25.204  88.333
38176DA     SC248125  43.563  25.247  88.157
38176DA     SC348126  43.490  25.493  88.176
38176DA     SC448127  43.333  25.352  88.360
38177DC     BB148128  43.433  24.855  88.672
38177DC     BB248129  43.704  24.787  88.444
38177DC     BB348130  43.876  24.883  88.508
38177DC     SC148131  43.785  25.116  88.429
38177DC     SC248132  43.899  25.183  88.260
38177DC     SC348133  43.700  25.365  88.439
38178DA     BB148134  43.969  24.481  88.442
38178DA     BB248135  44.218  24.685  88.266
38178DA     BB348136  44.354  24.772  88.405
38178DA     SC148137  44.187  25.031  88.444
38178DA     SC248138  44.205  25.273  88.386
38178DA     SC348139  44.032  25.310  88.572
38178DA     SC448140  44.080  25.033  88.564
38179DA     BB148141  44.558  24.626  88.196
38179DA     BB248142  44.692  24.960  88.128
38179DA     BB348143  44.812  25.027  88.291
38179DA     SC148144  44.576  25.165  88.440
38179DA     SC248145  44.503  25.397  88.494
38179DA     SC348146  44.361  25.288  88.677
38179DA     SC448147  44.496  25.079  88.549
38180DT     BB148148  44.997  25.049  88.248
38180DT     BB248149  44.998  25.410  88.243
38180DT     BB348150  45.080  25.483  88.419
38180DT     SC148151  44.863  25.423  88.554
38180DT     SC248152  44.763  25.604  88.612
38180DT     SC348153  44.705  25.308  88.731
38181DA     BB148154  45.268  25.667  88.093
38181DA     BB248155  45.172  25.928  88.332
38181DA     BB348156  45.298  25.921  88.504
38181DA     SC148157  45.113  25.727  88.661
38181DA     SC248158  44.963  25.735  88.861
38181DA     SC348159  44.988  25.480  88.864
38181DA     SC448160  45.142  25.569  88.648
38182DT     BB148161  45.408  26.074  88.526
38182DT     BB248162  45.233  26.219  88.806
38182DT     BB348163  45.335  26.178  88.982
38182DT     SC148164  45.253  25.929  88.980
38182DT     SC248165  45.112  25.898  89.140
38182DT     SC348166  45.259  25.665  88.969
38183DA     BB148167  45.265  26.592  88.972
38183DA     BB248168  45.170  26.470  89.305
38183DA     BB348169  45.344  26.421  89.418
38183DA     SC148170  45.351  26.124  89.324
38183DA     SC248171  45.312  25.898  89.423
38183DA     SC348172  45.449  25.810  89.225
38183DA     SC448173  45.440  26.089  89.195
38184DC     BB148174  45.400  26.533  89.587
38184DC     BB248175  45.313  26.287  89.837
38184DC     BB348176  45.485  26.202  89.914
38184DC     SC148177  45.521  26.059  89.697
38184DC     SC248178  45.487  25.852  89.742
38184DC     SC348179  45.633  25.967  89.477
38185DA     BB148180  45.294  26.338  90.265
38185DA     BB248181  45.396  25.992  90.328
38185DA     BB348182  45.605  25.982  90.367
38185DA     SC148183  45.685  25.939  90.069
38185DA     SC248184  45.777  25.756  89.928
38185DA     SC348185  45.843  25.943  89.765
38185DA     SC448186  45.719  26.070  89.982
38186DC     BB148187  45.717  25.931  90.574
38186DC     BB248188  45.821  25.598  90.480
38186DC     BB348189  46.027  25.591  90.463
38186DC     SC148190  46.020  25.720  90.235
38186DC     SC248191  46.075  25.587  90.075
38186DC     SC348192  46.059  25.910  90.056
38187DA     BB148193  45.964  25.281  90.743
38187DA     BB248194  46.172  25.142  90.475
38187DA     BB348195  46.375  25.201  90.500
38187DA     SC148196  46.347  25.459  90.327
38187DA     SC248197  46.426  25.542  90.106
38187DA     SC348198  46.374  25.776  90.199
38187DA     SC448199  46.309  25.595  90.403
38188DC     BB148200  46.546  25.060  90.550
38188DC     BB248201  46.677  25.050  90.214
38188DC     BB348202  46.862  25.143  90.207
38188DC     SC148203  46.751  25.381  90.223
38188DC     SC248204  46.774  25.483  90.035
38188DC     SC348205  46.686  25.619  90.316
38189DA     BB148206  46.892  24.765  90.035
38189DA     BB248207  47.025  25.011  89.797
38189DA     BB348208  47.216  25.080  89.861
38189DA     SC148209  47.103  25.318  90.025
38189DA     SC248210  47.099  25.567  90.010
38189DA     SC348211  47.047  25.561  90.261
38189DA     SC448212  47.072  25.294  90.181
38190DT     BB148213  47.323  25.031  89.736
38190DT     BB248214  47.366  25.358  89.589
38190DT     BB348215  47.538  25.446  89.664
38190DT     SC148216  47.422  25.496  89.894
38190DT     SC248217  47.392  25.708  89.915
38190DT     SC348218  47.371  25.489  90.153
38191DA     BB148219  47.478  25.468  89.247
38191DA     BB248220  47.571  25.800  89.372
38191DA     BB348221  47.773  25.799  89.442
38191DA     SC148222  47.698  25.723  89.734
38191DA     SC248223  47.697  25.831  89.959
38191DA     SC348224  47.692  25.592  90.051
38191DA     SC448225  47.696  25.567  89.772
38192DT     BB148226  47.850  25.910  89.339
38192DT     BB248227  47.908  26.171  89.581
38192DT     BB348228  48.094  26.146  89.669
38192DT     SC148229  48.006  25.945  89.814
38192DT     SC248230  47.998  26.005  90.021
38192DT     SC348231  47.980  25.701  89.910
38193DG     BB148232  48.072  26.519  89.505
38193DG     BB248233  48.195  26.530  89.845
38193DG     BB348234  48.384  26.467  89.851
38193DG     SC148235  48.312  26.173  89.894
38193DG     SC248236  48.366  26.013  90.141
38193DG     SC348237  48.268  25.840  89.922
38193DG     SC448238  48.288  26.080  89.767
38194DT     BB148239  48.570  26.599  89.909
38194DT     BB248240  48.659  26.467  90.233
38194DT     BB348241  48.829  26.351  90.217
38194DT     SC148242  48.695  26.155  90.106
38194DT     SC248243  48.683  25.989  90.242
38194DT     SC348244  48.616  25.980  89.925
38195DA     BB148245  48.958  26.624  90.513
38195DA     BB248246  49.045  26.290  90.636
38195DA     BB348247  49.221  26.219  90.539
38195DA     SC148248  49.067  26.080  90.307
38195DA     SC248249  49.019  25.848  90.230
38195DA     SC348250  48.969  25.956  90.002
38195DA     SC448251  49.042  26.166  90.173
38196DT     BB148252  49.444  26.183  90.631
38196DT     BB248253  49.423  25.823  90.642
38196DT     BB348254  49.557  25.740  90.508
38196DT     SC148255  49.406  25.805  90.304
38196DT     SC248256  49.323  25.627  90.217
38196DT     SC348257  49.328  25.921  90.080
38197DC     BB148258  49.754  25.649  90.698
38197DC     BB248259  49.662  25.349  90.520
38197DC     BB348260  49.793  25.317  90.363
38197DC     SC148261  49.683  25.509  90.222
38197DC     SC248262  49.578  25.424  90.055
38197DC     SC348263  49.656  25.736  90.091
38198DT     BB148264  49.917  25.103  90.490
38198DT     BB248265  49.792  24.964  90.181
38198DT     BB348266  49.936  24.981  90.033
38198DT     SC148267  49.891  25.238  90.008
38198DT     SC248268  49.796  25.276  89.818
38198DT     SC348269  49.932  25.499  90.011
38199DA     BB148270  49.790  24.590  90.053
38199DA     BB248271  49.775  24.701  89.703
38199DA     BB348272  49.971  24.709  89.620
38199DA     SC148273  50.018  25.006  89.699
38199DA     SC248274  50.038  25.227  89.585
38199DA     SC348275  50.155  25.305  89.800
38199DA     SC448276  50.089  25.035  89.840
38200DA     BB148277  49.784  24.538  89.417
38200DA     BB248278  49.870  24.791  89.167
38200DA     BB348279  50.076  24.776  89.113
38200DA     SC148280  50.172  24.976  89.331
38200DA     SC248281  50.266  25.207  89.341
38200DA     SC348282  50.349  25.140  89.575
38200DA     SC448283  50.216  24.916  89.473
38201DC     BB148284  50.100  24.726  88.935
38201DC     BB248285  50.218  25.043  88.809
38201DC     BB348286  50.425  25.039  88.791
38201DC     SC148287  50.456  25.059  89.051
38201DC     SC248288  50.538  25.252  89.098
38201DC     SC348289  50.524  24.998  89.298
38202DA     BB148290  50.262  25.175  88.430
38202DA     BB248291  50.541  25.396  88.518
38202DA     BB348292  50.727  25.296  88.489
38202DA     SC148293  50.740  25.184  88.779
38202DA     SC248294  50.875  25.221  88.985
38202DA     SC348295  50.792  24.990  89.057
38202DA     SC448296  50.678  25.038  88.805
38203DC     BB148297  50.851  25.361  88.342
38203DC     BB248298  51.105  25.507  88.552
38203DC     BB348299  51.272  25.384  88.557
38203DC     SC148300  51.151  25.214  88.716
38203DC     SC248301  51.242  25.221  88.911
38203DC     SC348302  51.042  24.990  88.802
38204DA     BB148303  51.423  25.760  88.447
38204DA     BB248304  51.643  25.628  88.710
38204DA     BB348305  51.769  25.475  88.631
38204DA     SC148306  51.571  25.244  88.697
38204DA     SC248307  51.559  25.051  88.854
38204DA     SC348308  51.385  24.955  88.691
38204DA     SC448309  51.467  25.201  88.582
38205DA     BB148310  52.030  25.650  88.744
38205DA     BB248311  52.123  25.360  88.949
38205DA     BB348312  52.223  25.214  88.830
38205DA     SC148313  51.963  25.062  88.755
38205DA     SC248314  51.857  24.842  88.805
38205DA     SC348315  51.719  24.882  88.592
38205DA     SC448316  51.889  25.105  88.619
38206DG     BB148317  52.497  25.237  89.001
38206DG     BB248318  52.435  24.890  89.083
38206DG     BB348319  52.518  24.772  88.946
38206DG     SC148320  52.270  24.766  88.766
38206DG     SC248321  52.099  24.527  88.711
38206DG     SC348322  52.024  24.753  88.536
38206DG     SC448323  52.252  24.879  88.654
38207DA     BB148324  52.720  24.571  89.170
38207DA     BB248325  52.549  24.263  89.069
38207DA     BB348326  52.637  24.184  88.892
38207DA     SC148327  52.447  24.337  88.700
38207DA     SC248328  52.260  24.284  88.543
38207DA     SC348329  52.313  24.511  88.436
38207DA     SC448330  52.496  24.481  88.646
38208DC     BB148331  52.780  23.974  88.852
38208DC     BB248332  52.521  23.781  88.691
38208DC     BB348333  52.573  23.744  88.494
38208DC     SC148334  52.519  23.991  88.425
38208DC     SC248335  52.343  23.994  88.301
38208DC     SC348336  52.554  24.237  88.337
38209DC     BB148337  52.665  23.452  88.497
38209DC     BB248338  52.405  23.451  88.246
38209DC     BB348339  52.489  23.464  88.058
38209DC     SC148340  52.543  23.719  88.091
38209DC     SC248341  52.416  23.836  87.962
38209DC     SC348342  52.681  23.942  88.115
38210DA     BB148343  52.265  23.110  88.012
38210DA     BB248344  52.172  23.330  87.734
38210DA     BB348345  52.317  23.318  87.578
38210DA     SC148346  52.490  23.552  87.689
38210DA     SC248347  52.546  23.786  87.625
38210DA     SC348348  52.749  23.758  87.780
38210DA     SC448349  52.610  23.515  87.789
38211DT     BB148350  52.270  23.235  87.383
38211DT     BB248351  52.242  23.553  87.215
38211DT     BB348352  52.401  23.578  87.084
38211DT     SC148353  52.567  23.626  87.282
38211DT     SC248354  52.626  23.833  87.277
38211DT     SC348355  52.770  23.598  87.448
38212DA     BB148356  52.040  23.652  86.886
38212DA     BB248357  52.265  23.935  86.824
38212DA     BB348358  52.420  23.879  86.689
38212DA     SC148359  52.616  23.787  86.913
38212DA     SC248360  52.831  23.865  87.013
38212DA     SC348361  52.854  23.624  87.098
38212DA     SC448362  52.613  23.633  86.956
38213DA     BB148363  52.298  24.147  86.550
38213DA     BB248364  52.632  24.293  86.592
38213DA     BB348365  52.768  24.207  86.452
38213DA     SC148366  52.858  23.978  86.642
38213DA     SC248367  53.062  23.913  86.770
38213DA     SC348368  52.960  23.678  86.774
38213DA     SC448369  52.779  23.838  86.632
38214DA     BB148370  52.809  24.526  86.397
38214DA     BB248371  53.159  24.476  86.495
38214DA     BB348372  53.266  24.375  86.341
38214DA     SC148373  53.206  24.091  86.453
38214DA     SC248374  53.332  23.905  86.561
38214DA     SC348375  53.137  23.756  86.488
38214DA     SC448376  53.076  24.015  86.397
38215DC     BB148377  53.406  24.478  86.255
38215DC     BB248378  53.684  24.309  86.411
38215DC     BB348379  53.770  24.177  86.277
38215DC     SC148380  53.571  24.008  86.302
38215DC     SC248381  53.640  23.832  86.406
38215DC     SC348382  53.363  23.859  86.241
38216DA     BB148383  54.065  24.419  86.447
38216DA     BB248384  54.175  24.071  86.472
38216DA     BB348385  54.232  23.997  86.280
38216DA     SC148386  53.948  23.890  86.210
38216DA     SC248387  53.836  23.669  86.181
38216DA     SC348388  53.659  23.799  86.050
38216DA     SC448389  53.849  23.988  86.131
38217DT     BB148390  54.409  23.956  86.279
38217DT     BB248391  54.372  23.597  86.283
38217DT     BB348392  54.393  23.522  86.091
38217DT     SC148393  54.155  23.608  86.022
38217DT     SC248394  54.023  23.440  85.995
38217DT     SC348395  53.967  23.744  85.897
38218DC     BB148396  54.602  23.428  86.207
38218DC     BB248397  54.422  23.142  86.081
38218DC     BB348398  54.453  23.123  85.877
38218DC     SC148399  54.294  23.325  85.825
38218DC     SC248400  54.115  23.252  85.730
38218DC     SC348401  54.212  23.561  85.742
38219DA     BB148402  54.488  22.765  86.099
38219DA     BB248403  54.292  22.700  85.796
38219DA     BB348404  54.414  22.722  85.622
38219DA     SC148405  54.348  23.024  85.585
38219DA     SC248406  54.221  23.167  85.426
38219DA     SC348407  54.363  23.360  85.518
38219DA     SC448408  54.447  23.131  85.654
38220DT     BB148409  54.417  22.568  85.550
38220DT     BB248410  54.233  22.642  85.249
38220DT     BB348411  54.363  22.702  85.100
38220DT     SC148412  54.395  22.937  85.212
38220DT     SC248413  54.301  23.088  85.091
38220DT     SC348414  54.512  23.142  85.331
38221DT     BB148415  54.329  22.465  84.976
38221DT     BB248416  54.267  22.709  84.717
38221DT     BB348417  54.446  22.768  84.631
38221DT     SC148418  54.507  22.914  84.841
38221DT     SC248419  54.498  23.122  84.787
38221DT     SC348420  54.636  23.000  85.054
38222DA     BB148421  54.239  22.641  84.285
38222DA     BB248422  54.393  22.963  84.203
38222DA     BB348423  54.602  22.939  84.168
38222DA     SC148424  54.683  22.989  84.464
38222DA     SC248425  54.799  23.165  84.597
38222DA     SC348426  54.834  22.982  84.772
38222DA     SC448427  54.695  22.861  84.561
38223DC     BB148428  54.727  22.956  83.962
38223DC     BB248429  54.886  23.272  84.035
38223DC     BB348430  55.089  23.244  84.061
38223DC     SC148431  55.052  23.137  84.298
38223DC     SC248432  55.125  23.272  84.449
38223DC     SC348433  55.050  22.959  84.493
38224DA     BB148434  55.098  23.535  83.754
38224DA     BB248435  55.323  23.653  84.018
38224DA     BB348436  55.510  23.550  84.007
38224DA     SC148437  55.423  23.322  84.201
38224DA     SC248438  55.477  23.246  84.432
38224DA     SC348439  55.379  23.020  84.358
38224DA     SC448440  55.359  23.190  84.135
38225DC     BB148441  55.714  23.641  83.949
38225DC     BB248442  55.847  23.653  84.284
38225DC     BB348443  56.002  23.517  84.304
38225DC     SC148444  55.835  23.315  84.310
38225DC     SC248445  55.833  23.229  84.507
38225DC     SC348446  55.711  23.092  84.240
38226DC     BB148447  56.204  23.711  84.307
38226DC     BB248448  56.248  23.533  84.618
38226DC     BB348449  56.379  23.375  84.591
38226DC     SC148450  56.196  23.235  84.465
38226DC     SC248451  56.136  23.069  84.587
38226DC     SC348452  56.073  23.105  84.271
38227DT     BB148453  56.580  23.502  84.730
38227DT     BB248454  56.528  23.194  84.909
38227DT     BB348455  56.647  23.044  84.830
38227DT     SC148456  56.492  23.022  84.619
38227DT     SC248457  56.388  22.833  84.627
38227DT     SC348458  56.412  23.026  84.368
38228DG     BB148459  56.747  23.076  85.224
38228DG     BB248460  56.655  22.737  85.137
38228DG     BB348461  56.807  22.647  85.045
38228DG     SC148462  56.723  22.734  84.765
38228DG     SC248463  56.627  22.554  84.546
38228DG     SC348464  56.670  22.828  84.445
38228DG     SC448465  56.775  22.874  84.708
38229DT     BB148466  56.898  22.470  85.136
38229DT     BB248467  56.761  22.210  84.927
38229DT     BB348468  56.904  22.143  84.794
38229DT     SC148469  56.881  22.359  84.647
38229DT     SC248470  56.789  22.308  84.459
38229DT     SC348471  56.943  22.585  84.527
38230DG     BB148472  56.756  21.836  85.015
38230DG     BB248473  56.728  21.773  84.660
38230DG     BB348474  56.906  21.723  84.586
38230DG     SC148475  56.987  22.012  84.521
38230DG     SC248476  57.026  22.126  84.248
38230DG     SC348477  57.115  22.316  84.456
38230DG     SC448478  57.061  22.099  84.634
38231DC     BB148479  56.917  21.536  84.500
38231DC     BB248480  56.926  21.616  84.148
38231DC     BB348481  57.120  21.606  84.079
38231DC     SC148482  57.182  21.833  84.196
38231DC     SC248483  57.215  21.984  84.046
38231DC     SC348484  57.300  22.004  84.358
38232DG     BB148485  56.870  21.369  83.862
38232DG     BB248486  57.063  21.590  83.651
38232DG     BB348487  57.251  21.526  83.639
38232DG     SC148488  57.347  21.685  83.882
38232DG     SC248489  57.541  21.912  83.877
38232DG     SC348490  57.483  21.830  84.155
38232DG     SC448491  57.337  21.619  84.027
38233DT     BB148492  57.323  21.471  83.448
38233DT     BB248493  57.547  21.743  83.371
38233DT     BB348494  57.743  21.686  83.407
38233DT     SC148495  57.709  21.705  83.667
38233DT     SC248496  57.822  21.872  83.741
38233DT     SC348497  57.691  21.636  83.921
38234DA     BB148498  57.727  21.842  83.018
38234DA     BB248499  58.012  21.996  83.190
38234DA     BB348500  58.170  21.854  83.213
38234DA     SC148501  58.073  21.753  83.490
38234DA     SC248502  58.148  21.765  83.728
38234DA     SC348503  57.997  21.561  83.765
38234DA     SC448504  57.975  21.626  83.493
38235DT     BB148505  58.345  21.884  83.111
38235DT     BB248506  58.545  21.984  83.394
38235DT     BB348507  58.672  21.830  83.449
38235DT     SC148508  58.475  21.694  83.557
38235DT     SC248509  58.499  21.691  83.771
38235DT     SC348510  58.301  21.501  83.599
38236DA     BB148511  58.905  22.175  83.405
38236DA     BB248512  58.992  22.022  83.726
38236DA     BB348513  59.108  21.845  83.695
38236DA     SC148514  58.862  21.655  83.684
38236DA     SC248515  58.761  21.476  83.825
38236DA     SC348516  58.642  21.403  83.610
38236DA     SC448517  58.798  21.625  83.540
38237DG     BB148518  59.313  22.004  83.864
38237DG     BB248519  59.262  21.733  84.097
38237DG     BB348520  59.371  21.576  84.043
38237DG     SC148521  59.153  21.454  83.866
38237DG     SC248522  59.007  21.199  83.917
38237DG     SC348523  58.944  21.304  83.648
38237DG     SC448524  59.144  21.498  83.712
38238DA     BB148525  59.476  21.585  84.372
38238DA     BB248526  59.357  21.242  84.419
38238DA     BB348527  59.487  21.104  84.321
38238DA     SC148528  59.330  21.109  84.052
38238DA     SC248529  59.186  20.955  83.920
38238DA     SC348530  59.240  21.107  83.721
38238DA     SC448531  59.377  21.215  83.941
38239DG     BB148532  59.512  20.996  84.610
38239DG     BB248533  59.368  20.699  84.462
38239DG     BB348534  59.508  20.597  84.365
38239DG     SC148535  59.463  20.742  84.099
38239DG     SC248536  59.354  20.620  83.849
38239DG     SC348537  59.454  20.893  83.798
38239DG     SC448538  59.544  20.876  84.069
38240DA     BB148539  59.411  20.312  84.545
38240DA     BB248540  59.342  20.133  84.233
38240DA     BB348541  59.525  20.073  84.140
38240DA     SC148542  59.552  20.333  83.971
38240DA     SC248543  59.537  20.399  83.731
38240DA     SC348544  59.671  20.606  83.801
38240DA     SC448545  59.637  20.454  84.034
38241DT     BB148546  59.595  19.862  84.120
38241DT     BB248547  59.537  19.827  83.766
38241DT     BB348548  59.718  19.822  83.665
38241DT     SC148549  59.753  20.080  83.697
38241DT     SC248550  59.734  20.179  83.507
38241DT     SC348551  59.859  20.308  83.777
38242DC     BB148552  59.720  19.542  83.610
38242DC     BB248553  59.758  19.692  83.284
38242DC     BB348554  59.959  19.714  83.239
38242DC     SC148555  59.983  19.916  83.404
38242DC     SC248556  60.014  20.097  83.291
38242DC     SC348557  60.062  20.061  83.610
38243DT     BB148558  59.972  19.501  83.051
38243DT     BB248559  60.088  19.788  82.865
38243DT     BB348560  60.294  19.803  82.879
38243DT     SC148561  60.278  19.892  83.126
38243DT     SC248562  60.335  20.099  83.131
38243DT     SC348563  60.306  19.903  83.388
38244DT     BB148564  60.336  19.720  82.618
38244DT     BB248565  60.493  20.044  82.634
38244DT     BB348566  60.690  20.024  82.691
38244DT     SC148567  60.621  19.977  82.940
38244DT     SC248568  60.679  20.143  83.063
38244DT     SC348569  60.591  19.850  83.169
38245DC     BB148570  60.774  20.085  82.439
38245DC     BB248571  60.931  20.333  82.649
38245DC     BB348572  61.112  20.262  82.719
38245DC     SC148573  60.992  20.103  82.890
38245DC     SC248574  61.026  20.174  83.090
38245DC     SC348575  60.912  19.881  83.009
38246DA     BB148576  61.173  20.640  82.551
38246DA     BB248577  61.330  20.637  82.882
38246DA     BB348578  61.507  20.518  82.878
38246DA     SC148579  61.362  20.255  82.958
38246DA     SC248580  61.351  20.102  83.155
38246DA     SC348581  61.263  19.927  82.989
38246DA     SC448582  61.310  20.160  82.839
38247DA     BB148583  61.622  20.798  83.004
38247DA     BB248584  61.715  20.602  83.300
38247DA     BB348585  61.886  20.481  83.258
38247DA     SC148586  61.718  20.236  83.164
38247DA     SC248587  61.665  20.006  83.245
38247DA     SC348588  61.602  19.956  83.001
38247DA     SC448589  61.685  20.224  83.007
38248DT     BB148590  62.054  20.523  83.355
38248DT     BB248591  62.048  20.240  83.580
38248DT     BB348592  62.184  20.098  83.518
38248DT     SC148593  62.028  20.023  83.320
38248DT     SC248594  61.952  19.826  83.360
38248DT     SC348595  61.943  19.980  83.075
38249DT     BB148596  62.350  20.159  83.726
38249DT     BB248597  62.288  19.806  83.762
38249DT     BB348598  62.425  19.698  83.651
38249DT     SC148599  62.303  19.760  83.427
38249DT     SC248600  62.209  19.584  83.345
38249DT     SC348601  62.260  19.863  83.188
38250DT     BB148602  62.554  19.618  83.877
38250DT     BB248603  62.463  19.310  83.711
38250DT     BB348604  62.611  19.257  83.576
38250DT     SC148605  62.535  19.443  83.408
38250DT     SC248606  62.446  19.351  83.235
38250DT     SC348607  62.542  19.659  83.257
38251DA     BB148608  62.543  18.922  83.820
38251DA     BB248609  62.533  18.811  83.470
38251DA     BB348610  62.729  18.806  83.388
38251DA     SC148611  62.719  19.098  83.283
38251DA     SC248612  62.709  19.215  83.062
38251DA     SC348613  62.796  19.420  83.190
38251DA     SC448614  62.775  19.214  83.379
38252DT     BB148615  62.808  18.626  83.337
38252DT     BB248616  62.775  18.665  82.980
38252DT     BB348617  62.960  18.704  82.896
38252DT     SC148618  62.958  18.951  82.986
38252DT     SC248619  62.936  19.087  82.821
38252DT     SC348620  63.027  19.166  83.121
38253DT     BB148621  62.959  18.456  82.789
38253DT     BB248622  62.995  18.678  82.507
38253DT     BB348623  63.194  18.724  82.478
38253DT     SC148624  63.195  18.886  82.684
38253DT     SC248625  63.214  19.089  82.616
38253DT     SC348626  63.254  18.987  82.921
38254DT     BB148627  63.193  18.570  82.257
38254DT     BB248628  63.298  18.895  82.142
38254DT     BB348629  63.503  18.916  82.165
38254DT     SC148630  63.478  18.947  82.424
38254DT     SC248631  63.526  19.150  82.477
38254DT     SC348632  63.501  18.901  82.683
38255DT     BB148633  63.528  18.900  81.897
38255DT     BB248634  63.678  19.216  81.985
38255DT     BB348635  63.876  19.188  82.038
38255DT     SC148636  63.808  19.085  82.270
38255DT     SC248637  63.862  19.221  82.427
38255DT     SC348638  63.780  18.909  82.465
38256DA     BB148639  63.850  19.495  81.754
38256DA     BB248640  64.058  19.613  82.032
38256DA     BB348641  64.247  19.514  82.030
38256DA     SC148642  64.154  19.281  82.214
38256DA     SC248643  64.197  19.202  82.447
38256DA     SC348644  64.107  18.976  82.364
38256DA     SC448645  64.097  19.149  82.144
38257DT     BB148646  64.393  19.630  81.997
38257DT     BB248647  64.525  19.634  82.332
38257DT     BB348648  64.687  19.506  82.346
38257DT     SC148649  64.532  19.295  82.343
38257DT     SC248650  64.535  19.201  82.536
38257DT     SC348651  64.421  19.069  82.263
38258DG     BB148652  64.801  19.879  82.463
38258DG     BB248653  64.890  19.629  82.709
38258DG     BB348654  65.049  19.527  82.647
38258DG     SC148655  64.886  19.314  82.499
38258DG     SC248656  64.866  19.026  82.574
38258DG     SC348657  64.739  19.075  82.312
38258DG     SC448658  64.846  19.339  82.347
38259DA     BB148659  65.180  19.602  82.959
38259DA     BB248660  65.218  19.244  83.028
38259DA     BB348661  65.382  19.164  82.917
38259DA     SC148662  65.209  19.086  82.671
38259DA     SC248663  65.127  18.877  82.561
38259DA     SC348664  65.092  19.024  82.354
38259DA     SC448665  65.195  19.193  82.552
38260DT     BB148666  65.541  19.100  83.018
38260DT     BB248667  65.487  18.746  82.971
38260DT     BB348668  65.617  18.674  82.826
38260DT     SC148669  65.477  18.785  82.634
38260DT     SC248670  65.380  18.631  82.518
38260DT     SC348671  65.415  18.941  82.431
38261DT     BB148672  65.764  18.546  83.016
38261DT     BB248673  65.669  18.286  82.785
38261DT     BB348674  65.805  18.276  82.630
38261DT     SC148675  65.709  18.495  82.521
38261DT     SC248676  65.608  18.444  82.338
38261DT     SC348677  65.696  18.742  82.431
38262DA     BB148678  65.771  17.887  82.785
38262DA     BB248679  65.731  17.869  82.421
38262DA     BB348680  65.918  17.898  82.324
38262DA     SC148681  65.884  18.207  82.300
38262DA     SC248682  65.847  18.375  82.119
38262DA     SC348683  65.937  18.546  82.288
38262DA     SC448684  65.944  18.298  82.418
38263DA     BB148685  65.828  17.615  82.188
38263DA     BB248686  65.829  17.794  81.868
38263DA     BB348687  66.029  17.828  81.803
38263DA     SC148688  66.054  18.104  81.943
38263DA     SC248689  66.069  18.344  81.877
38263DA     SC348690  66.167  18.381  82.112
38263DA     SC448691  66.114  18.107  82.092
38264DT     BB148692  66.067  17.738  81.645
38264DT     BB248693  66.059  18.028  81.430
38264DT     BB348694  66.252  18.093  81.392
38264DT     SC148695  66.273  18.195  81.633
38264DT     SC248696  66.277  18.410  81.619
38264DT     SC348697  66.359  18.235  81.879
38265DG     BB148698  66.042  18.021  81.050
38265DG     BB248699  66.186  18.352  81.055
38265DG     BB348700  66.382  18.341  81.026
38265DG     SC148701  66.450  18.316  81.323
38265DG     SC248702  66.595  18.518  81.488
38265DG     SC348703  66.558  18.266  81.639
38265DG     SC448704  66.454  18.170  81.390
38266DA     BB148705  66.295  18.585  80.797
38266DA     BB248706  66.531  18.812  80.961
38266DA     BB348707  66.732  18.748  80.927
38266DA     SC148708  66.744  18.570  81.182
38266DA     SC248709  66.859  18.573  81.403
38266DA     SC348710  66.808  18.321  81.410
38266DA     SC448711  66.704  18.415  81.167
38267DA     BB148712  66.735  19.065  80.838
38267DA     BB248713  66.996  19.107  81.092
38267DA     BB348714  67.176  19.009  81.031
38267DA     SC148715  67.103  18.739  81.167
38267DA     SC248716  67.182  18.604  81.362
38267DA     SC348717  67.066  18.407  81.245
38267DA     SC448718  67.027  18.629  81.079
38268DT     BB148719  67.331  19.123  80.992
38268DT     BB248720  67.527  19.037  81.282
38268DT     BB348721  67.673  18.900  81.230
38268DT     SC148722  67.497  18.706  81.215
38268DT     SC248723  67.529  18.568  81.377
38268DT     SC348724  67.348  18.514  81.114
38269DA     BB148725  67.897  19.208  81.413
38269DA     BB248726  68.007  18.891  81.561
38269DA     BB348727  68.131  18.784  81.424
38269DA     SC148728  67.895  18.628  81.294
38269DA     SC248729  67.811  18.394  81.287
38269DA     SC348730  67.685  18.467  81.075
38269DA     SC448731  67.826  18.692  81.164
38270DA     BB148732  68.377  18.773  81.655
38270DA     BB248733  68.343  18.408  81.653
38270DA     BB348734  68.449  18.325  81.488
38270DA     SC148735  68.205  18.336  81.295
38270DA     SC248736  68.050  18.176  81.184
38270DA     SC348737  68.001  18.368  81.021
38270DA     SC448738  68.189  18.467  81.203
38271DG     BB148739  68.656  18.156  81.673
38271DG     BB248740  68.489  17.868  81.532
38271DG     BB348741  68.584  17.809  81.367
38271DG     SC148742  68.421  17.986  81.179
38271DG     SC248743  68.229  17.892  80.971
38271DG     SC348744  68.276  18.183  80.946
38271DG     SC448745  68.471  18.136  81.150
38272DA     BB148746  68.611  17.483  81.494
38272DA     BB248747  68.407  17.354  81.218
38272DA     BB348748  68.528  17.326  81.044
38272DA     SC148749  68.475  17.612  80.933
38272DA     SC248750  68.352  17.716  80.742
38272DA     SC348751  68.504  17.919  80.782
38272DA     SC448752  68.580  17.727  80.972
38273DT     BB148753  68.563  17.133  80.968
38273DT     BB248754  68.337  17.157  80.688
38273DT     BB348755  68.445  17.173  80.512
38273DT     SC148756  68.508  17.423  80.563
38273DT     SC248757  68.405  17.552  80.425
38273DT     SC348758  68.653  17.636  80.615
38274DC     BB148759  68.377  16.917  80.441
38274DC     BB248760  68.258  17.121  80.168
38274DC     BB348761  68.408  17.146  80.027
38274DC     SC148762  68.535  17.316  80.182
38274DC     SC248763  68.523  17.513  80.096
38274DC     SC348764  68.724  17.421  80.333
38275DT     BB148765  68.284  16.976  79.848
38275DT     BB248766  68.320  17.286  79.667
38275DT     BB348767  68.503  17.290  79.569
38275DT     SC148768  68.631  17.334  79.794
38275DT     SC248769  68.710  17.534  79.793
38275DT     SC348770  68.795  17.297  79.997
38276DG     BB148771  68.223  17.332  79.274
38276DG     BB248772  68.467  17.598  79.261
38276DG     BB348773  68.632  17.535  79.170
38276DG     SC148774  68.766  17.435  79.426
38276DG     SC248775  69.011  17.549  79.552
38276DG     SC348776  68.933  17.296  79.684
38276DG     SC448777  68.739  17.285  79.474
38277DT     BB148778  68.704  17.628  78.977
38277DT     BB248779  68.977  17.830  79.100
38277DT     BB348780  69.157  17.743  79.047
38277DT     SC148781  69.130  17.557  79.230
38277DT     SC248782  69.275  17.589  79.386
38277DT     SC348783  69.102  17.319  79.339
38278DA     BB148784  69.141  18.149  78.950
38278DA     BB248785  69.449  18.086  79.139
38278DA     BB348786  69.588  17.976  79.020
38278DA     SC148787  69.487  17.698  79.115
38278DA     SC248788  69.570  17.510  79.256
38278DA     SC348789  69.394  17.368  79.135
38278DA     SC448790  69.373  17.626  79.028
38279DA     BB148791  69.722  18.236  79.158
38279DA     BB248792  69.951  17.995  79.314
38279DA     BB348793  70.074  17.903  79.166
38279DA     SC148794  69.878  17.667  79.116
38279DA     SC248795  69.871  17.421  79.158
38279DA     SC348796  69.692  17.415  78.974
38279DA     SC448797  69.770  17.684  78.998
38280DT     BB148798  70.200  17.955  79.238
38280DT     BB248799  70.324  17.635  79.350
38280DT     BB348800  70.423  17.540  79.195
38280DT     SC148801  70.197  17.481  79.076
38280DT     SC248802  70.164  17.268  79.088
38280DT     SC348803  70.006  17.475  78.894
38281DT     BB148804  70.596  17.591  79.375
38281DT     BB248805  70.617  17.237  79.308
38281DT     BB348806  70.703  17.205  79.122
38281DT     SC148807  70.483  17.279  78.999
38281DT     SC248808  70.393  17.108  78.905
38281DT     SC348809  70.319  17.418  78.846
38282DT     BB148810  70.908  17.117  79.261
38282DT     BB248811  70.833  16.853  79.027
38282DT     BB348812  70.914  16.897  78.842
38282DT     SC148813  70.728  17.076  78.795
38282DT     SC248814  70.598  17.005  78.639
38282DT     SC348815  70.614  17.310  78.748
38283DT     BB148816  71.121  16.714  78.866
38283DT     BB248817  70.968  16.629  78.550
38283DT     BB348818  71.053  16.740  78.398
38283DT     SC148819  70.924  16.956  78.473
38283DT     SC248820  70.775  17.005  78.326
38283DT     SC348821  70.880  17.200  78.563
38284DC     BB148822  71.220  16.536  78.280
38284DC     BB248823  71.024  16.654  78.001
38284DC     BB348824  71.126  16.806  77.903
38284DC     SC148825  71.071  16.977  78.094
38284DC     SC248826  70.932  17.124  78.021
38284DC     SC348827  71.107  17.147  78.292
38285DT     BB148828  71.208  16.656  77.673
38285DT     BB248829  71.023  16.932  77.533
38285DT     BB348830  71.151  17.088  77.489
38285DT     SC148831  71.174  17.151  77.742
38285DT     SC248832  71.076  17.339  77.779
38285DT     SC348833  71.284  17.191  77.979
38286DA     BB148834  70.937  17.013  77.137
38286DA     BB248835  70.910  17.371  77.210
38286DA     BB348836  71.092  17.471  77.163
38286DA     SC148837  71.214  17.435  77.447
38286DA     SC248838  71.272  17.578  77.643
38286DA     SC348839  71.426  17.385  77.712
38286DA     SC448840  71.305  17.304  77.472
38287DA     BB148841  70.869  17.643  77.002
38287DA     BB248842  70.970  17.925  77.214
38287DA     BB348843  71.161  17.999  77.153
38287DA     SC148844  71.321  17.813  77.345
38287DA     SC248845  71.458  17.836  77.552
38287DA     SC348846  71.555  17.608  77.488
38287DA     SC448847  71.370  17.671  77.288
38288DT     BB148848  71.137  18.164  77.099
38288DT     BB248849  71.288  18.326  77.384
38288DT     BB348850  71.486  18.371  77.342
38288DT     SC148851  71.557  18.120  77.370
38288DT     SC248852  71.675  18.098  77.548
38288DT     SC348853  71.648  17.880  77.310
38289DA     BB148854  71.271  18.693  77.511
38289DA     BB248855  71.591  18.660  77.686
38289DA     BB348856  71.753  18.709  77.555
38289DA     SC148857  71.792  18.418  77.453
38289DA     SC248858  71.961  18.236  77.474
38289DA     SC348859  71.854  18.139  77.262
38289DA     SC448860  71.712  18.375  77.320
38290DT     BB148861  71.839  18.857  77.615
38290DT     BB248862  72.144  18.697  77.722
38290DT     BB348863  72.287  18.710  77.572
38290DT     SC148864  72.167  18.526  77.430
38290DT     SC248865  72.287  18.348  77.428
38290DT     SC348866  72.038  18.410  77.231
38291DT     BB148867  72.421  18.895  77.717
38291DT     BB248868  72.667  18.640  77.646
38291DT     BB348869  72.753  18.674  77.461
38291DT     SC148870  72.538  18.590  77.337
38291DT     SC248871  72.581  18.403  77.240
38291DT     SC348872  72.323  18.591  77.184
38292DT     BB148873  72.990  18.762  77.571
38292DT     BB248874  73.090  18.496  77.348
38292DT     BB348875  73.122  18.571  77.158
38292DT     SC148876  72.864  18.594  77.116
38292DT     SC248877  72.802  18.450  76.968
38292DT     SC348878  72.629  18.705  77.068
38293DT     BB148879  73.398  18.552  77.176
38293DT     BB248880  73.316  18.362  76.880
38293DT     BB348881  73.314  18.487  76.715
38293DT     SC148882  73.085  18.592  76.786
38293DT     SC248883  72.932  18.529  76.649
38293DT     SC348884  72.907  18.771  76.864
38294DA     BB148885  73.571  18.170  76.612
38294DA     BB248886  73.333  18.214  76.337
38294DA     BB348887  73.380  18.389  76.224
38294DA     SC148888  73.200  18.577  76.394
38294DA     SC248889  72.988  18.705  76.366
38294DA     SC348890  73.069  18.844  76.566
38294DA     SC448891  73.269  18.653  76.519
38295DT     BB148892  73.446  18.373  76.027
38295DT     BB248893  73.141  18.486  75.871
38295DT     BB348894  73.165  18.678  75.799
38295DT     SC148895  73.152  18.779  76.041
38295DT     SC248896  72.969  18.890  76.062
38295DT     SC348897  73.224  18.904  76.261
38296DA     BB148898  73.021  18.454  75.473
38296DA     BB248899  72.816  18.757  75.500
38296DA     BB348900  72.925  18.927  75.431
38296DA     SC148901  73.042  18.996  75.711
38296DA     SC248902  73.015  19.174  75.883
38296DA     SC348903  73.243  19.096  75.970
38296DA     SC448904  73.185  18.934  75.749
38297DA     BB148905  72.667  18.972  75.228
38297DA     BB248906  72.612  19.292  75.399
38297DA     BB348907  72.751  19.438  75.330
38297DA     SC148908  72.964  19.373  75.547
38297DA     SC248909  73.061  19.482  75.749
38297DA     SC348910  73.257  19.319  75.718
38297DA     SC448911  73.077  19.264  75.510
38298DT     BB148912  72.694  19.616  75.212
38298DT     BB248913  72.728  19.852  75.483
38298DT     BB348914  72.894  19.972  75.451
38298DT     SC148915  73.057  19.778  75.518
38298DT     SC248916  73.151  19.824  75.705
38298DT     SC348917  73.246  19.594  75.498
38299DT     BB148918  72.744  20.198  75.384
38299DT     BB248919  72.940  20.301  75.669
38299DT     BB348920  73.121  20.380  75.605
38299DT     SC148921  73.214  20.141  75.549
38299DT     SC248922  73.369  20.090  75.688
38299DT     SC348923  73.308  19.938  75.409
38300DT     BB148924  73.038  20.628  75.677
38300DT     BB248925  73.331  20.565  75.877
38300DT     BB348926  73.501  20.621  75.773
38300DT     SC148927  73.485  20.410  75.617
38300DT     SC248928  73.647  20.276  75.663
38300DT     SC348929  73.458  20.264  75.400
38301DA     BB148930  73.497  20.783  76.157
38301DA     BB248931  73.819  20.615  76.106
38301DA     BB348932  73.941  20.727  75.971
38301DA     SC148933  73.837  20.581  75.717
38301DA     SC248934  73.926  20.421  75.547
38301DA     SC348935  73.733  20.503  75.399
38301DA     SC448936  73.712  20.646  75.640
38302DT     BB148937  74.081  20.775  76.063
38302DT     BB248938  74.315  20.548  75.908
38302DT     BB348939  74.416  20.644  75.755
38302DT     SC148940  74.205  20.632  75.599
38302DT     SC248941  74.242  20.494  75.438
38302DT     SC348942  74.002  20.711  75.450
38303DG     BB148943  74.670  20.478  76.027
38303DG     BB248944  74.750  20.379  75.688
38303DG     BB348945  74.835  20.531  75.592
38303DG     SC148946  74.571  20.645  75.488
38303DG     SC248947  74.484  20.655  75.203
38303DG     SC348948  74.299  20.809  75.374
38303DG     SC448949  74.491  20.751  75.578
38304DT     BB148950  75.034  20.506  75.522
38304DT     BB248951  74.987  20.477  75.165
38304DT     BB348952  75.030  20.657  75.073
38304DT     SC148953  74.805  20.763  75.157
38304DT     SC248954  74.674  20.793  74.990
38304DT     SC348955  74.638  20.922  75.285
38305DT     BB148956  75.261  20.554  74.973
38305DT     BB248957  75.084  20.674  74.683
38305DT     BB348958  75.127  20.875  74.652
38305DT     SC148959  74.974  20.946  74.853
38305DT     SC248960  74.800  21.048  74.777
38305DT     SC348961  74.900  21.047  75.085
38306DA     BB148962  75.209  20.688  74.286
38306DA     BB248963  75.000  20.981  74.216
38306DA     BB348964  75.115  21.160  74.233
38306DA     SC148965  75.051  21.201  74.535
38306DA     SC248966  74.919  21.359  74.675
38306DA     SC348967  75.066  21.277  74.869
38306DA     SC448968  75.154  21.139  74.642
38307DC     BB148969  75.152  21.274  74.065
38307DC     BB248970  74.920  21.539  74.145
38307DC     BB348971  75.024  21.708  74.206
38307DC     SC148972  75.078  21.600  74.439
38307DC     SC248973  74.967  21.703  74.592
38307DC     SC348974  75.215  21.500  74.641
38308DG     BB148975  74.793  21.811  73.888
38308DG     BB248976  74.736  22.030  74.169
38308DG     BB348977  74.883  22.163  74.183
38308DG     SC148978  75.057  21.987  74.364
38308DG     SC248979  75.126  22.043  74.649
38308DG     SC348980  75.281  21.814  74.547
38308DG     SC448981  75.159  21.884  74.297
38309DT     BB148982  74.829  22.361  74.167
38309DT     BB248983  74.858  22.477  74.507
38309DT     BB348984  75.037  22.578  74.532
38309DT     SC148985  75.173  22.353  74.531
38309DT     SC248986  75.251  22.316  74.728
38309DT     SC348987  75.343  22.166  74.456
38310DA     BB148988  74.713  22.797  74.686
38310DA     BB248989  74.982  22.797  74.935
38310DA     BB348990  75.147  22.914  74.866
38310DA     SC148991  75.291  22.676  74.728
38310DA     SC248992  75.496  22.539  74.762
38310DA     SC348993  75.472  22.477  74.514
38310DA     SC448994  75.259  22.650  74.572
38311DT     BB148995  75.184  23.078  74.966
38311DT     BB248996  75.490  22.970  75.125
38311DT     BB348997  75.653  23.053  75.028
38311DT     SC148998  75.626  22.888  74.825
38311DT     SC248999  75.790  22.748  74.825
38311DT     SC349000  75.584  22.800  74.580
38312DA     BB149001  75.707  23.150  75.433
38312DA     BB249002  76.027  23.023  75.307
38312DA     BB349003  76.121  23.169  75.182
38312DA     SC149004  75.990  23.064  74.920
38312DA     SC249005  76.062  22.946  74.712
38312DA     SC349006  75.844  23.037  74.610
38312DA     SC449007  75.851  23.131  74.874
38313DT     BB149008  76.304  23.274  75.236
38313DT     BB249009  76.525  23.104  75.007
38313DT     BB349010  76.579  23.232  74.853
38313DT     SC149011  76.343  23.209  74.741
38313DT     SC249012  76.361  23.099  74.557
38313DT     SC349013  76.105  23.275  74.648
38314DC     BB149014  76.844  23.282  74.943
38314DC     BB249015  76.892  23.164  74.606
38314DC     BB349016  76.894  23.325  74.475
38314DC     SC149017  76.634  23.354  74.494
38314DC     SC249018  76.542  23.298  74.307
38314DC     SC349019  76.400  23.464  74.548
38315DC     BB149020  77.176  23.326  74.426
38315DC     BB249021  77.034  23.298  74.096
38315DC     BB349022  77.010  23.486  74.013
38315DC     SC149023  76.802  23.535  74.166
38315DC     SC249024  76.624  23.539  74.045
38315DC     SC349025  76.650  23.648  74.349
38316DT     BB149026  77.227  23.468  73.831
38316DT     BB249027  76.944  23.540  73.619
38316DT     BB349028  76.926  23.745  73.593
38316DT     SC149029  76.830  23.775  73.836
38316DT     SC249030  76.623  23.828  73.825
38316DT     SC349031  76.812  23.852  74.087
38317DT     BB149032  77.019  23.743  73.328
38317DT     BB249033  76.693  23.896  73.305
38317DT     BB349034  76.709  24.101  73.324
38317DT     SC149035  76.750  24.081  73.583
38317DT     SC249036  76.579  24.159  73.688
38317DT     SC349037  76.870  24.097  73.817
38318DC     BB149038  76.658  24.146  73.055
38318DC     BB249039  76.402  24.334  73.225
38318DC     BB349040  76.470  24.527  73.262
38318DC     SC149041  76.625  24.443  73.457
38318DC     SC249042  76.547  24.512  73.645
38318DC     SC349043  76.843  24.390  73.595
38319DA     BB149044  76.100  24.559  73.070
38319DA     BB249045  76.089  24.771  73.369
38319DA     BB349046  76.205  24.948  73.339
38319DA     SC149047  76.468  24.824  73.450
38319DA     SC249048  76.614  24.850  73.651
38319DA     SC349049  76.795  24.739  73.508
38319DA     SC449050  76.568  24.754  73.345
38320DC     BB149051  76.106  25.119  73.336
38320DC     BB249052  76.209  25.233  73.663
38320DC     BB349053  76.353  25.381  73.644
38320DC     SC149054  76.536  25.205  73.578
38320DC     SC249055  76.680  25.189  73.737
38320DC     SC349056  76.718  25.077  73.435
38321DT     BB149057  76.168  25.559  73.727
38321DT     BB249058  76.440  25.593  73.961
38321DT     BB349059  76.581  25.726  73.888
38321DT     SC149060  76.669  25.549  73.715
38321DT     SC249061  76.867  25.487  73.772
38321DT     SC349062  76.727  25.435  73.484
38322DA     BB149063  76.479  25.832  74.280
38322DA     BB249064  76.845  25.828  74.254
38322DA     BB349065  76.913  25.994  74.139
38322DA     SC149066  76.903  25.842  73.868
38322DA     SC249067  77.066  25.753  73.700
38322DA     SC349068  76.867  25.755  73.538
38322DA     SC449069  76.768  25.852  73.781
38323DG     BB149070  77.062  26.056  74.402
38323DG     BB249071  77.354  26.004  74.195
38323DG     BB349072  77.392  26.168  74.089
38323DG     SC149073  77.217  26.084  73.852
38323DG     SC249074  77.315  26.016  73.578
38323DG     SC349075  77.020  26.033  73.583
38323DG     SC449076  77.062  26.123  73.852
38324DC     BB149077  77.578  26.272  74.119
38324DC     BB249078  77.760  26.186  73.819
38324DC     BB349079  77.757  26.345  73.686
38324DC     SC149080  77.507  26.296  73.623
38324DC     SC249081  77.497  26.222  73.421
38324DC     SC349082  77.246  26.330  73.596
38325DA     BB149083  78.154  26.220  73.735
38325DA     BB249084  78.088  26.252  73.376
38325DA     BB349085  78.073  26.458  73.322
38325DA     SC149086  77.766  26.473  73.367
38325DA     SC249087  77.560  26.497  73.228
38325DA     SC349088  77.447  26.574  73.446
38325DA     SC449089  77.715  26.520  73.512
38326DG     BB149090  78.311  26.383  73.138
38326DG     BB249091  78.078  26.470  72.875
38326DG     BB349092  78.072  26.668  72.853
38326DG     SC149093  77.847  26.709  73.057
38326DG     SC249094  77.570  26.803  72.996
38326DG     SC349095  77.616  26.793  73.288
38326DG     SC449096  77.885  26.730  73.211
38327DT     BB149097  78.135  26.764  72.663
38327DT     BB249098  77.819  26.868  72.522
38327DT     BB349099  77.793  27.071  72.549
38327DT     SC149100  77.740  27.039  72.804
38327DT     SC249101  77.532  27.082  72.839
38327DT     SC349102  77.762  27.056  73.066
38328DG     BB149103  77.774  27.014  72.145
38328DG     BB249104  77.491  27.206  72.262
38328DG     BB349105  77.545  27.396  72.291
38328DG     SC149106  77.627  27.353  72.582
38328DG     SC249107  77.492  27.470  72.822
38328DG     SC349108  77.746  27.339  72.898
38328DG     SC449109  77.778  27.308  72.615
38329DA     BB149110  77.282  27.511  72.085
38329DA     BB249111  77.142  27.705  72.363
38329DA     BB349112  77.251  27.887  72.389
38329DA     SC149113  77.453  27.765  72.592
38329DA     SC249114  77.505  27.784  72.835
38329DA     SC349115  77.734  27.686  72.773
38329DA     SC449116  77.590  27.704  72.533
38330DG     BB149117  76.991  28.062  72.325
38330DG     BB249118  77.028  28.173  72.667
38330DG     BB349119  77.151  28.329  72.675
38330DG     SC149120  77.404  28.160  72.710
38330DG     SC249121  77.576  28.151  72.953
38330DG     SC349122  77.703  28.006  72.729
38330DG     SC449123  77.481  28.109  72.579
38331DA     BB149124  76.911  28.517  72.850
38331DA     BB249125  77.138  28.547  73.136
38331DA     BB349126  77.282  28.700  73.100
38331DA     SC149127  77.490  28.508  72.971
38331DA     SC249128  77.713  28.412  73.028
38331DA     SC349129  77.735  28.367  72.776
38331DA     SC449130  77.485  28.490  72.811
38332DC     BB149131  77.280  28.868  73.215
38332DC     BB249132  77.567  28.784  73.416
38332DC     BB349133  77.730  28.897  73.358
38332DC     SC149134  77.762  28.754  73.140
38332DC     SC249135  77.943  28.638  73.156
38332DC     SC349136  77.775  28.691  72.884
38333DT     BB149137  77.707  29.032  73.588
38333DT     BB249138  78.042  28.896  73.592
38333DT     BB349139  78.170  29.022  73.489
38333DT     SC149140  78.074  28.944  73.258
38333DT     SC249141  78.223  28.829  73.154
38333DT     SC349142  77.954  28.954  73.023
38334DA     BB149143  78.335  28.935  73.866
38334DA     BB249144  78.593  28.879  73.612
38334DA     BB349145  78.660  29.065  73.532
38334DA     SC149146  78.451  29.069  73.301
38334DA     SC249147  78.449  29.046  73.053
38334DA     SC349148  78.221  29.163  73.064
38334DA     SC449149  78.311  29.144  73.329
38335DA     BB149150  78.948  28.933  73.620
38335DA     BB249151  79.041  28.953  73.266
38335DA     BB349152  79.081  29.155  73.211
38335DA     SC149153  78.788  29.215  73.125
38335DA     SC249154  78.663  29.258  72.913
38335DA     SC349155  78.484  29.362  73.065
38335DA     SC449156  78.689  29.276  73.236
38336DT     BB149157  79.271  29.211  73.159
38336DT     BB249158  79.212  29.238  72.805
38336DT     BB349159  79.202  29.438  72.750
38336DT     SC149160  78.963  29.463  72.855
38336DT     SC249161  78.818  29.488  72.698
38336DT     SC349162  78.768  29.545  73.013
38337DT     BB149163  79.448  29.429  72.626
38337DT     BB249164  79.220  29.537  72.368
38337DT     BB349165  79.202  29.743  72.372
38337DT     SC149166  79.052  29.734  72.586
38337DT     SC249167  78.851  29.791  72.536
38337DT     SC349168  78.972  29.770  72.835
38338DT     BB149169  79.347  29.767  72.141
38338DT     BB249170  79.028  29.918  72.066
38338DT     BB349171  79.031  30.118  72.120
38338DT     SC149172  79.013  30.058  72.375
38338DT     SC249173  78.819  30.117  72.449
38338DT     SC349174  79.076  30.037  72.630
38339DA     BB149175  78.896  30.079  71.726
38339DA     BB249176  78.654  30.282  71.912
38339DA     BB349177  78.734  30.476  71.951
38339DA     SC149178  78.859  30.396  72.225
38339DA     SC249179  78.819  30.443  72.466
38339DA     SC349180  79.061  30.365  72.500
38339DA     SC449181  79.011  30.345  72.225
38340DT     BB149182  78.630  30.584  71.869
38340DT     BB249183  78.460  30.707  72.162
38340DT     BB349184  78.550  30.881  72.228
38340DT     SC149185  78.754  30.748  72.326
38340DT     SC249186  78.748  30.757  72.540
38340DT     SC349187  79.001  30.663  72.360
38341DT     BB149188  78.318  30.960  72.151
38341DT     BB249189  78.344  31.047  72.500
38341DT     BB349190  78.465  31.213  72.522
38341DT     SC149191  78.681  31.071  72.478
38341DT     SC249192  78.795  31.055  72.660
38341DT     SC349193  78.902  30.984  72.362
38342DA     BB149194  78.100  31.227  72.737
38342DA     BB249195  78.375  31.323  72.959
38342DA     BB349196  78.460  31.508  72.895
38342DA     SC149197  78.672  31.375  72.711
38342DA     SC249198  78.920  31.344  72.706
38342DA     SC349199  78.890  31.301  72.455
38342DA     SC449200  78.633  31.353  72.556
38343DG     BB149201  78.371  31.559  73.186
38343DG     BB249202  78.726  31.610  73.230
38343DG     BB349203  78.780  31.785  73.152
38343DG     SC149204  78.839  31.670  72.874
38343DG     SC249205  79.107  31.653  72.745
38343DG     SC349206  78.893  31.582  72.553
38343DG     SC449207  78.720  31.661  72.767
38344DT     BB149208  78.860  31.919  73.283
38344DT     BB249209  79.209  31.918  73.191
38344DT     BB349210  79.249  32.077  73.065
38344DT     SC149211  79.132  31.958  72.863
38344DT     SC249212  79.279  31.901  72.718
38344DT     SC349213  78.959  31.909  72.670
38345DA     BB149214  79.529  32.072  73.379
38345DA     BB249215  79.710  32.112  73.063
38345DA     BB349216  79.674  32.306  72.981
38345DA     SC149217  79.427  32.216  72.814
38345DA     SC249218  79.369  32.183  72.574
38345DA     SC349219  79.125  32.200  72.652
38345DA     SC449220  79.283  32.230  72.882
38346DC     BB149221  79.827  32.415  72.973
38346DC     BB249222  79.877  32.401  72.616
38346DC     BB349223  79.801  32.572  72.528
38346DC     SC149224  79.554  32.489  72.559
38346DC     SC249225  79.470  32.441  72.367
38346DC     SC349226  79.305  32.480  72.644
38347DC     BB149227  80.053  32.642  72.483
38347DC     BB249228  79.897  32.646  72.158
38347DC     BB349229  79.797  32.826  72.130
38347DC     SC149230  79.604  32.753  72.291
38347DC     SC249231  79.424  32.721  72.177
38347DC     SC349232  79.442  32.751  72.499
38348DC     BB149233  79.987  32.897  71.954
38348DC     BB249234  79.678  32.927  71.771
38348DC     BB349235  79.592  33.112  71.808
38348DC     SC149236  79.515  33.037  72.047
38348DC     SC249237  79.301  33.018  72.051
38348DC     SC349238  79.495  33.028  72.310
38349DA     BB149239  79.611  33.086  71.387
38349DA     BB249240  79.273  33.196  71.477
38349DA     BB349241  79.276  33.399  71.541
38349DA     SC149242  79.319  33.329  71.841
38349DA     SC249243  79.189  33.339  72.054
38349DA     SC349244  79.418  33.327  72.170
38349DA     SC449245  79.470  33.322  71.895
38350DT     BB149246  79.185  33.567  71.430
38350DT     BB249247  78.902  33.614  71.649
38350DT     BB349248  78.925  33.788  71.759
38350DT     SC149249  79.105  33.675  71.913
38350DT     SC249250  79.023  33.649  72.110
38350DT     SC349251  79.336  33.626  72.030
38351DA     BB149252  78.551  33.865  71.580
38351DA     BB249253  78.512  33.928  71.939
38351DA     BB349254  78.593  34.119  71.990
38351DA     SC149255  78.877  34.007  72.053
38351DA     SC249256  79.022  33.973  72.253
38351DA     SC349257  79.216  33.964  72.086
38351DA     SC449258  78.984  34.006  71.933
38352DA     BB149259  78.296  34.189  72.118
38352DA     BB249260  78.459  34.213  72.445
38352DA     BB349261  78.554  34.403  72.466
38352DA     SC149262  78.827  34.307  72.351
38352DA     SC249263  79.058  34.263  72.434
38352DA     SC349264  79.129  34.285  72.189
38352DA     SC449265  78.851  34.325  72.193
38353DG     BB149266  78.362  34.438  72.707
38353DG     BB249267  78.670  34.430  72.896
38353DG     BB349268  78.753  34.611  72.898
38353DG     SC149269  78.916  34.566  72.643
38353DG     SC249270  79.214  34.549  72.626
38353DG     SC349271  79.093  34.557  72.356
38353DG     SC449272  78.850  34.600  72.501
38354DA     BB149273  78.765  34.566  73.240
38354DA     BB249274  79.130  34.600  73.230
38354DA     BB349275  79.185  34.804  73.203
38354DA     SC149276  79.190  34.788  72.893
38354DA     SC249277  79.360  34.794  72.710
38354DA     SC349278  79.164  34.854  72.557
38354DA     SC449279  79.055  34.826  72.814
38355DA     BB149280  79.360  34.727  73.470
38355DA     BB249281  79.658  34.809  73.271
38355DA     BB349282  79.674  35.021  73.246
38355DA     SC149283  79.511  35.026  72.981
38355DA     SC249284  79.553  35.068  72.739
38355DA     SC349285  79.301  35.112  72.723
38355DA     SC449286  79.352  35.052  72.992
38356DT     BB149287  79.829  35.116  73.333
38356DT     BB249288  80.018  35.175  73.032
38356DT     BB349289  80.001  35.374  72.976
38356DT     SC149290  79.756  35.337  72.889
38356DT     SC249291  79.753  35.352  72.675
38356DT     SC349292  79.494  35.358  72.869
38357DT     BB149293  80.260  35.433  73.054
38357DT     BB249294  80.248  35.528  72.706
38357DT     BB349295  80.185  35.725  72.688
38357DT     SC149296  79.937  35.659  72.744
38357DT     SC249297  79.816  35.682  72.567
38357DT     SC349298  79.706  35.646  72.870
38358DC     BB149299  80.438  35.815  72.620
38358DC     BB249300  80.228  35.913  72.343
38358DC     BB349301  80.148  36.101  72.378
38358DC     SC149302  79.978  36.004  72.553
38358DC     SC249303  79.779  36.015  72.473
38358DC     SC349304  79.856  35.961  72.783
38359DG     BB149305  80.356  36.118  72.029
38359DG     BB249306  80.013  36.227  71.987
38359DG     BB349307  79.992  36.413  72.054
38359DG     SC149308  79.923  36.329  72.340
38359DG     SC249309  79.659  36.367  72.474
38359DG     SC349310  79.863  36.273  72.667
38359DG     SC449311  80.041  36.307  72.445
38360DA     BB149312  79.849  36.435  71.746
38360DA     BB249313  79.535  36.535  71.908
38360DA     BB349314  79.551  36.733  71.985
38360DA     SC149315  79.653  36.642  72.265
38360DA     SC249316  79.567  36.636  72.499
38360DA     SC349317  79.814  36.618  72.567
38360DA     SC449318  79.812  36.633  72.287
38361DC     BB149319  79.433  36.826  71.898
38361DC     BB249320  79.196  36.861  72.168
38361DC     BB349321  79.227  37.041  72.266
38361DC     SC149322  79.443  36.949  72.384
38361DC     SC249323  79.404  36.926  72.594
38361DC     SC349324  79.696  36.923  72.453
38362DT     BB149325  78.997  37.086  72.156
38362DT     BB249326  78.948  37.137  72.510
38362DT     BB349327  79.020  37.323  72.565
38362DT     SC149328  79.269  37.240  72.548
38362DT     SC249329  79.355  37.230  72.745
38362DT     SC349330  79.519  37.221  72.465
38363DT     BB149331  78.767  37.370  72.599
38363DT     BB249332  78.922  37.448  72.915
38363DT     BB349333  79.009  37.635  72.907
38363DT     SC149334  79.207  37.545  72.761
38363DT     SC249335  79.388  37.547  72.878
38363DT     SC349336  79.370  37.513  72.556
38364DA     BB149337  78.767  37.616  73.251
38364DA     BB249338  79.089  37.764  73.346
38364DA     BB349339  79.106  37.961  73.267
38364DA     SC149340  79.241  37.868  73.002
38364DA     SC249341  79.465  37.883  72.894
38364DA     SC349342  79.341  37.834  72.675
38364DA     SC449343  79.145  37.838  72.876
38365DA     BB149344  79.167  38.046  73.582
38365DA     BB249345  79.490  38.176  73.468
38365DA     BB349346  79.464  38.363  73.368
38365DA     SC149347  79.431  38.234  73.086
38365DA     SC249348  79.559  38.221  72.873
38365DA     SC349349  79.335  38.161  72.765
38365DA     SC449350  79.281  38.200  73.037
38366DA     BB149351  79.684  38.493  73.583
38366DA     BB249352  79.897  38.577  73.297
38366DA     BB349353  79.824  38.753  73.200
38366DA     SC149354  79.640  38.597  73.002
38366DA     SC249355  79.632  38.547  72.758
38366DA     SC349356  79.383  38.498  72.797
38366DA     SC449357  79.488  38.573  73.047
38367DT     BB149358  79.927  38.957  73.196
38367DT     BB249359  80.036  38.942  72.852
38367DT     BB349360  79.930  39.078  72.738
38367DT     SC149361  79.716  38.925  72.742
38367DT     SC249362  79.682  38.845  72.545
38367DT     SC349363  79.470  38.844  72.790
38368DA     BB149364  80.325  39.197  72.655
38368DA     BB249365  80.154  39.162  72.332
38368DA     BB349366  80.031  39.331  72.295
38368DA     SC149367  79.778  39.207  72.428
38368DA     SC249368  79.556  39.120  72.357
38368DA     SC349369  79.486  39.156  72.602
38368DA     SC449370  79.754  39.238  72.584
38369DA     BB149371  80.195  39.373  72.008
38369DA     BB249372  79.879  39.311  71.833
38369DA     BB349373  79.760  39.488  71.830
38369DA     SC149374  79.612  39.424  72.095
38369DA     SC249375  79.382  39.360  72.168
38369DA     SC349376  79.454  39.444  72.399
38369DA     SC449377  79.675  39.483  72.231
38370DC     BB149378  79.715  39.596  71.645
38370DC     BB249379  79.375  39.480  71.618
38370DC     BB349380  79.243  39.635  71.656
38370DC     SC149381  79.292  39.624  71.913
38370DC     SC249382  79.118  39.550  72.016
38370DC     SC349383  79.373  39.696  72.154
38371DG     BB149384  79.148  39.518  71.277
38371DG     BB249385  78.855  39.518  71.488
38371DG     BB349386  78.779  39.702  71.500
38371DG     SC149387  78.947  39.781  71.744
38371DG     SC249388  78.841  39.838  72.018
38371DG     SC349389  79.128  39.908  71.998
38371DG     SC449390  79.092  39.845  71.721
38372DT     BB149391  78.569  39.755  71.423
38372DT     BB249392  78.387  39.781  71.733
38372DT     BB349393  78.345  39.980  71.774
38372DT     SC149394  78.594  40.026  71.844
38372DT     SC249395  78.603  40.061  72.056
38372DT     SC349396  78.838  40.127  71.842
38373DC     BB149397  78.081  39.938  71.715
38373DC     BB249398  78.079  40.066  72.053
38373DC     BB349399  78.069  40.272  72.050
38373DC     SC149400  78.321  40.291  71.978
38373DC     SC249401  78.436  40.371  72.141
38373DC     SC349402  78.535  40.346  71.834
38374DA     BB149403  77.766  40.135  72.302
38374DA     BB249404  77.946  40.400  72.479
38374DA     BB349405  77.895  40.591  72.400
38374DA     SC149406  78.125  40.592  72.190
38374DA     SC249407  78.339  40.714  72.151
38374DA     SC349408  78.316  40.635  71.908
38374DA     SC449409  78.092  40.535  72.043
38375DC     BB149410  77.793  40.719  72.518
38375DC     BB249411  78.066  40.946  72.585
38375DC     BB349412  78.040  41.121  72.478
38375DC     SC149413  78.111  41.004  72.254
38375DC     SC249414  78.302  41.080  72.191
38375DC     SC349415  78.096  40.908  72.009
38376DT     BB149416  77.979  41.251  72.709
38376DT     BB249417  78.255  41.439  72.572
38376DT     BB349418  78.184  41.584  72.442
38376DT     SC149419  78.133  41.404  72.258
38376DT     SC249420  78.270  41.429  72.094
38376DT     SC349421  77.998  41.254  72.088
38377DC     BB149422  78.248  41.773  72.625
38377DC     BB249423  78.424  41.875  72.327
38377DC     BB349424  78.301  41.992  72.209
38377DC     SC149425  78.163  41.782  72.131
38377DC     SC249426  78.202  41.744  71.923
38377DC     SC349427  77.959  41.618  72.097
38378DG     BB149428  78.632  42.213  72.290
38378DG     BB249429  78.561  42.212  71.936
38378DG     BB349430  78.414  42.340  71.896
38378DG     SC149431  78.191  42.135  71.934
38378DG     SC249432  78.011  42.030  71.720
38378DG     SC349433  77.920  41.941  71.987
38378DG     SC449434  78.129  42.114  72.080
38379DA     BB149435  78.624  42.476  71.653
38379DA     BB249436  78.371  42.415  71.394
38379DA     BB349437  78.214  42.558  71.409
38379DA     SC149438  78.041  42.386  71.601
38379DA     SC249439  77.826  42.260  71.593
38379DA     SC349440  77.830  42.277  71.849
38379DA     SC449441  78.061  42.409  71.759
38380DT     BB149442  78.182  42.709  71.259
38380DT     BB249443  77.879  42.574  71.117
38380DT     BB349444  77.717  42.691  71.173
38380DT     SC149445  77.720  42.593  71.416
38380DT     SC249446  77.547  42.468  71.445
38380DT     SC349447  77.742  42.581  71.679
38381DG     BB149448  77.705  42.720  70.764
38381DG     BB249449  77.380  42.629  70.893
38381DG     BB349450  77.285  42.791  70.958
38381DG     SC149451  77.395  42.774  71.243
38381DG     SC249452  77.236  42.716  71.489
38381DG     SC349453  77.512  42.796  71.558
38381DG     SC449454  77.534  42.845  71.276
38382DA     BB149455  77.003  42.719  70.759
38382DA     BB249456  76.789  42.701  71.056
38382DA     BB349457  76.735  42.897  71.121
38382DA     SC149458  76.979  42.927  71.312
38382DA     SC249459  77.020  42.937  71.558
38382DA     SC349460  77.243  43.048  71.495
38382DA     SC449461  77.111  42.996  71.253
38383DT     BB149462  76.532  42.973  71.110
38383DT     BB249463  76.461  42.953  71.464
38383DT     BB349464  76.453  43.143  71.545
38383DT     SC149465  76.714  43.166  71.535
38383DT     SC249466  76.794  43.164  71.735
38383DT     SC349467  76.953  43.256  71.469
38384DA     BB149468  76.092  42.962  71.659
38384DA     BB249469  76.239  43.113  71.959
38384DA     BB349470  76.214  43.325  71.956
38384DA     SC149471  76.484  43.379  71.811
38384DA     SC249472  76.706  43.479  71.866
38384DA     SC349473  76.735  43.504  71.613
38384DA     SC449474  76.483  43.387  71.651
38385DT     BB149475  76.087  43.427  72.094
38385DT     BB249476  76.348  43.572  72.296
38385DT     BB349477  76.359  43.776  72.262
38385DT     SC149478  76.475  43.737  72.029
38385DT     SC249479  76.680  43.802  72.040
38385DT     SC349480  76.514  43.738  71.768
38386DA     BB149481  76.317  43.753  72.680
38386DA     BB249482  76.597  43.980  72.612
38386DA     BB349483  76.524  44.170  72.547
38386DA     SC149484  76.527  44.095  72.245
38386DA     SC249485  76.657  44.157  72.041
38386DA     SC349486  76.456  44.065  71.910
38386DA     SC449487  76.392  44.035  72.182
38387DA     BB149488  76.695  44.317  72.797
38387DA     BB249489  76.890  44.496  72.543
38387DA     BB349490  76.782  44.667  72.474
38387DA     SC149491  76.642  44.515  72.242
38387DA     SC249492  76.650  44.510  71.992
38387DA     SC349493  76.417  44.403  72.007
38387DA     SC449494  76.497  44.451  72.271
38388DA     BB149495  77.038  44.870  72.559
38388DA     BB249496  77.076  44.952  72.203
38388DA     BB349497  76.941  45.107  72.148
38388DA     SC149498  76.713  44.913  72.066
38388DA     SC249499  76.599  44.839  71.857
38388DA     SC349500  76.408  44.764  72.011
38388DA     SC449501  76.604  44.874  72.179
38389DA     BB149502  77.203  45.282  72.041
38389DA     BB249503  77.065  45.253  71.703
38389DA     BB349504  76.917  45.403  71.670
38389DA     SC149505  76.681  45.227  71.769
38389DA     SC249506  76.482  45.112  71.671
38389DA     SC349507  76.390  45.112  71.910
38389DA     SC449508  76.640  45.237  71.924
38390DT     BB149509  76.952  45.553  71.527
38390DT     BB249510  76.740  45.405  71.275
38390DT     BB349511  76.569  45.519  71.251
38390DT     SC149512  76.468  45.430  71.477
38390DT     SC249513  76.300  45.302  71.435
38390DT     SC349514  76.375  45.429  71.724
38391DG     BB149515  76.776  45.453  70.908
38391DG     BB249516  76.432  45.344  70.884
38391DG     BB349517  76.312  45.502  70.867
38391DG     SC149518  76.272  45.535  71.169
38391DG     SC249519  76.017  45.493  71.318
38391DG     SC349520  76.224  45.612  71.494
38391DG     SC449521  76.376  45.626  71.251
38392DA     BB149522  76.211  45.287  70.621
38392DA     BB249523  75.876  45.290  70.769
38392DA     BB349524  75.786  45.482  70.745
38392DA     SC149525  75.894  45.593  71.015
38392DA     SC249526  75.802  45.659  71.237
38392DA     SC349527  76.019  45.793  71.264
38392DA     SC449528  76.034  45.672  71.012
38393DA     BB149529  75.575  45.253  70.642
38393DA     BB249530  75.348  45.393  70.895
38393DA     BB349531  75.290  45.591  70.841
38393DA     SC149532  75.525  45.727  70.994
38393DA     SC249533  75.555  45.869  71.197
38393DA     SC349534  75.780  45.935  71.092
38393DA     SC449535  75.660  45.756  70.912
38394DA     BB149536  75.005  45.439  70.898
38394DA     BB249537  74.947  45.696  71.153
38394DA     BB349538  74.912  45.886  71.061
38394DA     SC149539  75.211  45.970  71.061
38394DA     SC249540  75.356  46.136  71.178
38394DA     SC349541  75.518  46.101  70.982
38394DA     SC449542  75.298  45.935  70.930
38395DA     BB149543  74.647  45.865  71.254
38395DA     BB249544  74.765  46.173  71.413
38395DA     BB349545  74.735  46.340  71.284
38395DA     SC149546  75.013  46.318  71.148
38395DA     SC249547  75.227  46.446  71.143
38395DA     SC349548  75.274  46.319  70.925
38395DA     SC449549  75.024  46.230  71.014
38396DT     BB149550  74.602  46.480  71.340
38396DT     BB249551  74.843  46.734  71.429
38396DT     BB349552  74.849  46.880  71.282
38396DT     SC149553  74.983  46.722  71.120
38396DT     SC249554  75.184  46.795  71.098
38396DT     SC349555  75.041  46.574  70.910
38397DA     BB149556  74.798  47.067  71.653
38397DA     BB249557  75.072  47.236  71.477
38397DA     BB349558  74.995  47.353  71.315
38397DA     SC149559  75.018  47.123  71.107
38397DA     SC249560  75.157  47.069  70.906
38397DA     SC349561  74.967  46.908  70.844
38397DA     SC449562  74.889  47.029  71.085
38398DT     BB149563  75.024  47.535  71.339
38398DT     BB249564  75.286  47.572  71.094
38398DT     BB349565  75.208  47.650  70.919
38398DT     SC149566  75.097  47.420  70.857
38398DT     SC249567  75.198  47.336  70.687
38398DT     SC349568  74.911  47.241  70.804
38399DT     BB149569  75.344  47.864  70.986
38399DT     BB249570  75.462  47.776  70.656
38399DT     BB349571  75.331  47.847  70.513
38399DT     SC149572  75.156  47.660  70.568
38399DT     SC249573  75.145  47.521  70.404
38399DT     SC349574  74.932  47.545  70.647
38400DA     BB149575  75.726  47.957  70.414
38400DA     BB249576  75.564  47.823  70.113
38400DA     BB349577  75.414  47.957  70.044
38400DA     SC149578  75.186  47.826  70.210
38400DA     SC249579  74.981  47.690  70.168
38400DA     SC349580  74.906  47.768  70.401
38400DA     SC449581  75.156  47.887  70.357
38401DT     BB149582  75.435  48.063  69.863
38401DT     BB249583  75.187  47.882  69.673
38401DT     BB349584  75.018  47.998  69.648
38401DT     SC149585  74.945  47.959  69.898
38401DT     SC249586  74.770  47.834  69.902
38401DT     SC349587  74.886  48.008  70.150
38402DG     BB149588  75.126  47.945  69.254
38402DG     BB249589  74.777  47.861  69.302
38402DG     BB349590  74.666  48.026  69.297
38402DG     SC149591  74.687  48.078  69.598
38402DG     SC249592  74.463  48.063  69.795
38402DG     SC349593  74.706  48.176  69.920
38402DG     SC449594  74.810  48.165  69.654
38403DA     BB149595  74.450  47.908  69.041
38403DA     BB249596  74.160  47.930  69.265
38403DA     BB349597  74.085  48.129  69.270
38403DA     SC149598  74.262  48.217  69.510
38403DA     SC249599  74.232  48.277  69.750
38403DA     SC349600  74.460  48.392  69.729
38403DA     SC449601  74.405  48.284  69.476
38404DT     BB149602  73.886  48.190  69.189
38404DT     BB249603  73.723  48.220  69.509
38404DT     BB349604  73.683  48.419  69.549
38404DT     SC149605  73.935  48.468  69.603
38404DT     SC249606  73.957  48.506  69.813
38404DT     SC349607  74.177  48.570  69.584
38405DA     BB149608  73.328  48.204  69.600
38405DA     BB249609  73.380  48.409  69.900
38405DA     BB349610  73.338  48.614  69.858
38405DA     SC149611  73.629  48.683  69.775
38405DA     SC249612  73.820  48.816  69.865
38405DA     SC349613  73.909  48.813  69.625
38405DA     SC449614  73.667  48.671  69.620
38406DC     BB149615  73.192  48.675  69.956
38406DC     BB249616  73.380  48.874  70.192
38406DC     BB349617  73.372  49.074  70.138
38406DC     SC149618  73.541  49.035  69.941
38406DC     SC249619  73.728  49.131  69.987
38406DC     SC349620  73.637  49.022  69.696
38407DA     BB149621  73.282  49.018  70.544
38407DA     BB249622  73.525  49.290  70.516
38407DA     BB349623  73.434  49.462  70.427
38407DA     SC149624  73.508  49.382  70.136
38407DA     SC249625  73.662  49.461  69.956
38407DA     SC349626  73.509  49.330  69.796
38407DA     SC449627  73.400  49.296  70.053
38408DT     BB149628  73.426  49.607  70.545
38408DT     BB249629  73.675  49.814  70.387
38408DT     BB349630  73.584  49.956  70.268
38408DT     SC149631  73.527  49.777  70.084
38408DT     SC249632  73.647  49.814  69.909
38408DT     SC349633  73.386  49.622  69.925
38409DT     BB149634  73.646  50.152  70.448
38409DT     BB249635  73.780  50.274  70.136
38409DT     BB349636  73.634  50.376  70.031
38409DT     SC149637  73.515  50.153  69.964
38409DT     SC249638  73.539  50.120  69.753
38409DT     SC349639  73.330  49.966  69.946
38410DA     BB149640  73.942  50.665  70.050
38410DA     BB249641  73.826  50.655  69.702
38410DA     BB349642  73.640  50.757  69.683
38410DA     SC149643  73.467  50.504  69.735
38410DA     SC249644  73.315  50.355  69.606
38410DA     SC349645  73.222  50.286  69.835
38410DA     SC449646  73.422  50.475  69.887
38411DA     BB149647  73.780  50.950  69.447
38411DA     BB249648  73.535  50.816  69.210
38411DA     BB349649  73.348  50.917  69.232
38411DA     SC149650  73.237  50.716  69.442
38411DA     SC249651  73.061  50.540  69.453
38411DA     SC349652  73.076  50.570  69.708
38411DA     SC449653  73.260  50.750  69.597
38412DG     BB149654  73.377  51.014  68.933
38412DG     BB249655  73.087  50.805  68.881
38412DG     BB349656  72.921  50.907  68.922
38412DG     SC149657  72.916  50.829  69.218
38412DG     SC249658  72.711  50.656  69.350
38412DG     SC349659  72.891  50.779  69.551
38412DG     SC449660  72.995  50.919  69.324
38413DT     BB149661  72.766  50.950  68.766
38413DT     BB249662  72.507  50.716  68.860
38413DT     BB349663  72.352  50.816  68.953
38413DT     SC149664  72.493  50.845  69.173
38413DT     SC249665  72.408  50.722  69.328
38413DT     SC349666  72.623  50.961  69.371
38414DT     BB149667  72.195  50.780  68.734
38414DT     BB249668  72.008  50.632  69.005
38414DT     BB349669  71.894  50.776  69.100
38414DT     SC149670  72.106  50.877  69.218
38414DT     SC249671  72.096  50.837  69.429
38414DT     SC349672  72.294  51.049  69.286
38415DC     BB149673  71.663  50.677  68.991
38415DC     BB249674  71.603  50.672  69.347
38415DC     BB349675  71.527  50.854  69.409
38415DC     SC149676  71.762  50.969  69.386
38415DC     SC249677  71.836  51.017  69.582
38415DC     SC349678  71.952  51.131  69.302
38416DA     BB149679  71.246  50.576  69.554
38416DA     BB249680  71.335  50.798  69.832
38416DA     BB349681  71.239  50.987  69.809
38416DA     SC149682  71.475  51.113  69.649
38416DA     SC249683  71.650  51.287  69.685
38416DA     SC349684  71.666  51.294  69.429
38416DA     SC449685  71.469  51.104  69.489
38417DT     BB149686  71.073  51.072  69.943
38417DT     BB249687  71.285  51.304  70.120
38417DT     BB349688  71.237  51.498  70.067
38417DT     SC149689  71.353  51.473  69.834
38417DT     SC249690  71.531  51.594  69.829
38417DT     SC349691  71.385  51.461  69.572
38418DT     BB149692  71.106  51.567  70.311
38418DT     BB249693  71.377  51.803  70.285
38418DT     BB349694  71.312  51.975  70.190
38418DT     SC149695  71.311  51.855  69.957
38418DT     SC249696  71.469  51.936  69.834
38418DT     SC349697  71.222  51.754  69.730
38419DA     BB149698  71.501  52.071  70.548
38419DA     BB249699  71.662  52.258  70.278
38419DA     BB349700  71.536  52.418  70.212
38419DA     SC149701  71.394  52.249  69.994
38419DA     SC249702  71.386  52.237  69.745
38419DA     SC349703  71.165  52.112  69.778
38419DA     SC449704  71.258  52.173  70.035
38420DA     BB149705  71.845  52.485  70.278
38420DA     BB249706  71.860  52.575  69.923
38420DA     BB349707  71.735  52.743  69.883
38420DA     SC149708  71.484  52.570  69.816
38420DA     SC249709  71.348  52.513  69.616
38420DA     SC349710  71.165  52.449  69.784
38420DA     SC449711  71.383  52.537  69.937
38421DG     BB149712  72.030  52.751  69.798
38421DG     BB249713  71.870  52.777  69.474
38421DG     BB349714  71.772  52.949  69.461
38421DG     SC149715  71.510  52.838  69.573
38421DG     SC249716  71.254  52.806  69.422
38421DG     SC349717  71.214  52.754  69.711
38421DG     SC449718  71.486  52.840  69.731
38422DA     BB149719  71.953  52.892  69.169
38422DA     BB249720  71.642  52.949  68.985
38422DA     BB349721  71.572  53.148  69.016
38422DA     SC149722  71.398  53.074  69.263
38422DA     SC249723  71.156  53.058  69.321
38422DA     SC349724  71.233  53.074  69.565
38422DA     SC449725  71.466  53.087  69.409
38423DG     BB149726  71.602  53.129  68.710
38423DG     BB249727  71.248  53.202  68.720
38423DG     BB349728  71.219  53.394  68.764
38423DG     SC149729  71.212  53.349  69.067
38423DG     SC249730  70.974  53.386  69.244
38423DG     SC349731  71.218  53.339  69.404
38423DG     SC449732  71.349  53.353  69.150
38424DT     BB149733  71.124  53.534  68.621
38424DT     BB249734  70.802  53.592  68.773
38424DT     BB349735  70.799  53.777  68.866
38424DT     SC149736  70.947  53.688  69.064
38424DT     SC249737  70.827  53.679  69.243
38424DT     SC349738  71.151  53.660  69.229
38425DA     BB149739  70.465  53.789  68.612
38425DA     BB249740  70.356  53.908  68.942
38425DA     BB349741  70.424  54.107  68.975
38425DA     SC149742  70.691  54.019  69.109
38425DA     SC249743  70.794  54.023  69.336
38425DA     SC349744  71.017  53.996  69.213
38425DA     SC449745  70.820  54.003  69.014
38426DC     BB149746  70.289  54.271  68.987
38426DC     BB249747  70.312  54.319  69.344
38426DC     BB349748  70.418  54.492  69.385
38426DC     SC149749  70.645  54.376  69.324
38426DC     SC249750  70.762  54.349  69.503
38426DC     SC349751  70.871  54.323  69.198
38427DT     BB149752  70.190  54.619  69.462
38427DT     BB249753  70.407  54.647  69.749
38427DT     BB349754  70.525  54.816  69.732
38427DT     SC149755  70.676  54.703  69.550
38427DT     SC249756  70.871  54.665  69.632
38427DT     SC349757  70.793  54.657  69.318
38428DA     BB149758  70.344  54.816  70.110
38428DA     BB249759  70.700  54.890  70.156
38428DA     BB349760  70.745  55.087  70.088
38428DA     SC149761  70.813  54.999  69.797
38428DA     SC249762  71.015  54.982  69.652
38428DA     SC349763  70.849  54.981  69.456
38428DA     SC449764  70.694  55.000  69.689
38429DA     BB149765  70.872  55.103  70.391
38429DA     BB249766  71.193  55.187  70.233
38429DA     BB349767  71.188  55.387  70.158
38429DA     SC149768  71.084  55.305  69.876
38429DA     SC249769  71.171  55.296  69.642
38429DA     SC349770  70.924  55.293  69.573
38429DA     SC449771  70.925  55.305  69.853
38430DA     BB149772  71.464  55.433  70.339
38430DA     BB249773  71.637  55.526  70.030
38430DA     BB349774  71.582  55.724  69.971
38430DA     SC149775  71.343  55.631  69.795
38430DA     SC249776  71.285  55.621  69.553
38430DA     SC349777  71.042  55.606  69.632
38430DA     SC449778  71.198  55.624  69.864
38431DT     BB149779  71.716  55.908  69.974
38431DT     BB249780  71.760  55.938  69.617
38431DT     BB349781  71.656  56.103  69.547
38431DT     SC149782  71.426  55.979  69.571
38431DT     SC249783  71.347  55.937  69.375
38431DT     SC349784  71.183  55.921  69.655
38432DA     BB149785  72.042  56.199  69.404
38432DA     BB249786  71.812  56.238  69.121
38432DA     BB349787  71.707  56.423  69.136
38432DA     SC149788  71.469  56.302  69.297
38432DA     SC249789  71.228  56.251  69.259
38432DA     SC349790  71.210  56.250  69.515
38432DA     SC449791  71.478  56.307  69.457
38433DA     BB149792  71.820  56.500  68.832
38433DA     BB249793  71.472  56.496  68.717
38433DA     BB349794  71.376  56.681  68.765
38433DA     SC149795  71.274  56.583  69.042
38433DA     SC249796  71.055  56.527  69.149
38433DA     SC349797  71.178  56.562  69.371
38433DA     SC449798  71.367  56.612  69.170
38434DT     BB149799  71.313  56.814  68.613
38434DT     BB249800  70.962  56.733  68.637
38434DT     BB349801  70.859  56.890  68.724
38434DT     SC149802  70.953  56.831  68.962
38434DT     SC249803  70.794  56.755  69.085
38434DT     SC349804  71.084  56.853  69.190
38435DC     BB149805  70.751  56.937  68.484
38435DC     BB249806  70.471  56.874  68.704
38435DC     BB349807  70.417  57.049  68.802
38435DC     SC149808  70.626  57.033  68.960
38435DC     SC249809  70.560  56.988  69.160
38435DC     SC349810  70.854  57.095  69.076
38436DA     BB149811  70.082  56.864  68.629
38436DA     BB249812  70.004  56.945  68.978
38436DA     BB349813  69.983  57.156  69.002
38436DA     SC149814  70.283  57.201  69.072
38436DA     SC249815  70.418  57.264  69.271
38436DA     SC349816  70.600  57.329  69.102
38436DA     SC449817  70.383  57.236  68.951
38437DA     BB149818  69.707  57.036  69.132
38437DA     BB249819  69.814  57.197  69.444
38437DA     BB349820  69.797  57.409  69.427
38437DA     SC149821  70.088  57.448  69.322
38437DA     SC249822  70.303  57.544  69.405
38437DA     SC349823  70.369  57.556  69.157
38437DA     SC449824  70.110  57.448  69.163
38438DT     BB149825  69.664  57.495  69.543
38438DT     BB249826  69.896  57.646  69.774
38438DT     BB349827  69.917  57.848  69.733
38438DT     SC149828  70.064  57.797  69.521
38438DT     SC249829  70.267  57.859  69.559
38438DT     SC349830  70.141  57.785  69.269
38439DT     BB149831  69.774  57.914  69.955
38439DT     BB249832  70.088  58.087  69.995
38439DT     BB349833  70.080  58.270  69.901
38439DT     SC149834  70.101  58.159  69.664
38439DT     SC249835  70.293  58.206  69.579
38439DT     SC349836  70.039  58.083  69.419
38440DC     BB149837  70.067  58.405  70.140
38440DC     BB249838  70.358  58.541  69.975
38440DC     BB349839  70.303  58.700  69.854
38440DC     SC149840  70.200  58.539  69.675
38440DC     SC249841  70.322  58.542  69.498
38440DC     SC349842  70.022  58.421  69.520
38441DG     BB149843  70.574  58.853  70.118
38441DG     BB249844  70.670  58.923  69.776
38441DG     BB349845  70.566  59.078  69.707
38441DG     SC149846  70.336  58.907  69.600
38441DG     SC249847  70.264  58.870  69.313
38441DG     SC349848  70.057  58.753  69.489
38441DG     SC449849  70.214  58.872  69.697
38442DT     BB149850  70.668  59.265  69.645
38442DT     BB249851  70.649  59.238  69.285
38442DT     BB349852  70.503  59.365  69.213
38442DT     SC149853  70.312  59.207  69.297
38442DT     SC249854  70.214  59.117  69.127
38442DT     SC349855  70.103  59.120  69.432
38443DT     BB149856  70.699  59.521  69.112
38443DT     BB249857  70.495  59.433  68.828
38443DT     BB349858  70.336  59.564  68.811
38443DT     SC149859  70.212  59.452  69.013
38443DT     SC249860  70.038  59.348  68.942
38443DT     SC349861  70.101  59.422  69.251
38444DA     BB149862  70.528  59.548  68.439
38444DA     BB249863  70.168  59.503  68.383
38444DA     BB349864  70.065  59.687  68.410
38444DA     SC149865  70.012  59.641  68.713
38444DA     SC249866  69.817  59.594  68.862
38444DA     SC349867  69.966  59.679  69.052
38444DA     SC449868  70.120  59.699  68.818
38445DT     BB149869  69.977  59.772  68.250
38445DT     BB249870  69.637  59.692  68.341
38445DT     BB349871  69.541  59.862  68.411
38445DT     SC149872  69.671  59.851  68.639
38445DT     SC249873  69.534  59.798  68.797
38445DT     SC349874  69.832  59.919  68.836
38446DG     BB149875  69.323  59.725  68.094
38446DG     BB249876  69.116  59.770  68.388
38446DG     BB349877  69.073  59.963  68.412
38446DG     SC149878  69.319  60.022  68.585
38446DG     SC249879  69.315  60.097  68.874
38446DG     SC349880  69.587  60.126  68.760
38446DG     SC449881  69.456  60.064  68.513
38447DA     BB149882  68.746  59.855  68.431
38447DA     BB249883  68.721  59.996  68.768
38447DA     BB349884  68.704  60.208  68.759
38447DA     SC149885  69.010  60.259  68.774
38447DA     SC249886  69.174  60.352  68.937
38447DA     SC349887  69.328  60.382  68.733
38447DA     SC449888  69.090  60.271  68.635
38448DA     BB149889  68.451  60.122  68.945
38448DA     BB249890  68.605  60.326  69.208
38448DA     BB349891  68.584  60.533  69.162
38448DA     SC149892  68.853  60.551  69.008
38448DA     SC249893  69.078  60.655  69.039
38448DA     SC349894  69.103  60.629  68.785
38448DA     SC449895  68.849  60.528  68.848
38449DA     BB149896  68.471  60.503  69.467
38449DA     BB249897  68.735  60.739  69.561
38449DA     BB349898  68.690  60.934  69.488
38449DA     SC149899  68.839  60.895  69.218
38449DA     SC249900  69.045  60.980  69.107
38449DA     SC349901  68.935  60.902  68.889
38449DA     SC449902  68.754  60.840  69.093
38450DT     BB149903  68.667  61.042  69.627
38450DT     BB249904  68.973  61.231  69.591
38450DT     BB349905  68.936  61.405  69.485
38450DT     SC149906  68.917  61.274  69.259
38450DT     SC249907  69.085  61.321  69.134
38450DT     SC349908  68.813  61.175  69.038
38451DT     BB149909  68.977  61.527  69.716
38451DT     BB249910  69.210  61.679  69.487
38451DT     BB349911  69.115  61.826  69.376
38451DT     SC149912  68.992  61.646  69.229
38451DT     SC249913  69.072  61.649  69.030
38451DT     SC349914  68.798  61.504  69.122
38452DG     BB149915  69.427  62.008  69.567
38452DG     BB249916  69.430  62.078  69.212
38452DG     BB349917  69.292  62.215  69.169
38452DG     SC149918  69.069  62.011  69.120
38452DG     SC249919  68.938  61.955  68.857
38452DG     SC349920  68.797  61.817  69.077
38452DG     SC449921  68.979  61.964  69.243
38453DA     BB149922  69.540  62.402  69.009
38453DA     BB249923  69.354  62.381  68.694
38453DA     BB349924  69.190  62.517  68.695
38453DA     SC149925  68.988  62.312  68.814
38453DA     SC249926  68.788  62.185  68.738
38453DA     SC349927  68.735  62.159  68.988
38453DA     SC449928  68.972  62.308  68.974
38454DT     BB149929  69.188  62.678  68.566
38454DT     BB249930  68.942  62.543  68.338
38454DT     BB349931  68.761  62.641  68.364
38454DT     SC149932  68.715  62.512  68.588
38454DT     SC249933  68.553  62.374  68.559
38454DT     SC349934  68.674  62.468  68.845
38455DT     BB149935  68.801  62.759  68.126
38455DT     BB249936  68.489  62.580  68.092
38455DT     BB349937  68.333  62.697  68.163
38455DT     SC149938  68.403  62.652  68.412
38455DT     SC249939  68.255  62.527  68.506
38455DT     SC349940  68.485  62.698  68.658
38456DC     BB149941  68.265  62.709  67.910
38456DC     BB249942  67.981  62.564  68.079
38456DC     BB349943  67.867  62.713  68.165
38456DC     SC149944  68.042  62.748  68.357
38456DC     SC249945  67.959  62.678  68.543
38456DC     SC349946  68.223  62.864  68.510
38457DC     BB149947  67.702  62.636  67.981
38457DC     BB249948  67.525  62.596  68.293
38457DC     BB349949  67.454  62.779  68.358
38457DC     SC149950  67.694  62.855  68.431
38457DC     SC249951  67.703  62.866  68.646
38457DC     SC349952  67.919  62.993  68.440
38458DT     BB149953  67.225  62.670  68.300
38458DT     BB249954  67.199  62.771  68.645
38458DT     BB349955  67.161  62.974  68.657
38458DT     SC149956  67.409  63.033  68.593
38458DT     SC249957  67.508  63.117  68.764
38458DT     SC349958  67.614  63.128  68.458
38459DG     BB149959  66.864  62.777  68.857
38459DG     BB249960  67.004  63.044  69.056
38459DG     BB349961  66.938  63.220  68.990
38459DG     SC149962  67.167  63.258  68.790
38459DG     SC249963  67.379  63.467  68.805
38459DG     SC349964  67.391  63.323  68.547
38459DG     SC449965  67.151  63.200  68.642
38460DG     BB149966  66.796  63.303  69.284
38460DG     BB249967  67.022  63.586  69.291
38460DG     BB349968  66.946  63.736  69.186
38460DG     SC149969  67.074  63.649  68.922
38460DG     SC249970  67.287  63.797  68.773
38460DG     SC349971  67.183  63.572  68.612
38460DG     SC449972  66.996  63.546  68.827
38461DC     BB149973  66.857  63.974  69.256
38461DC     BB249974  67.128  64.182  69.139
38461DC     BB349975  67.064  64.298  68.980
38461DC     SC149976  67.068  64.092  68.817
38461DC     SC249977  67.228  64.116  68.675
38461DC     SC349978  66.984  63.904  68.652
38462DT     BB149979  67.042  64.550  69.118
38462DT     BB249980  67.266  64.623  68.844
38462DT     BB349981  67.159  64.696  68.683
38462DT     SC149982  67.068  64.457  68.626
38462DT     SC249983  67.157  64.388  68.442
38462DT     SC349984  66.898  64.258  68.588
38463DT     BB149985  67.246  64.960  68.716
38463DT     BB249986  67.344  64.879  68.379
38463DT     BB349987  67.193  64.929  68.247
38463DT     SC149988  67.049  64.723  68.321
38463DT     SC249989  67.041  64.580  68.160
38463DT     SC349990  66.849  64.583  68.422
38464DA     BB149991  67.541  65.110  68.101
38464DA     BB249992  67.383  64.933  67.821
38464DA     BB349993  67.211  65.040  67.754
38464DA     SC149994  67.014  64.892  67.944
38464DA     SC249995  66.829  64.726  67.924
38464DA     SC349996  66.757  64.810  68.156
38464DA     SC449997  66.985  64.958  68.087
38465DT     BB149998  67.210  65.128  67.565
38465DT     BB249999  66.986  64.892  67.407
38465DT     BB350000  66.800  64.979  67.379
38465DT     SC150001  66.743  64.957  67.635
38465DT     SC250002  66.589  64.810  67.661
38465DT     SC350003  66.686  65.026  67.883
38466DA     BB150004  66.900  64.844  66.993
38466DA     BB250005  66.558  64.731  67.061
38466DA     BB350006  66.421  64.894  67.042
38466DA     SC150007  66.441  64.977  67.341
38466DA     SC250008  66.295  64.974  67.544
38466DA     SC350009  66.454  65.153  67.636
38466DA     SC450010  66.550  65.089  67.381
38467DA     BB150011  66.240  64.725  66.811
38467DA     BB250012  65.956  64.734  67.042
38467DA     BB350013  65.852  64.920  67.026
38467DA     SC150014  66.020  65.061  67.246
38467DA     SC250015  65.986  65.146  67.478
38467DA     SC350016  66.195  65.289  67.435
38467DA     SC450017  66.151  65.143  67.199
38468DT     BB150018  65.622  64.972  66.934
38468DT     BB250019  65.470  65.012  67.259
38468DT     BB350020  65.407  65.208  67.284
38468DT     SC150021  65.653  65.291  67.320
38468DT     SC250022  65.679  65.351  67.525
38468DT     SC350023  65.880  65.419  67.280
38469DT     BB150024  65.116  65.173  67.252
38469DT     BB250025  65.154  65.308  67.585
38469DT     BB350026  65.127  65.513  67.581
38469DT     SC150027  65.362  65.550  67.471
38469DT     SC250028  65.493  65.644  67.614
38469DT     SC350029  65.546  65.619  67.295
38470DT     BB150030  64.896  65.474  67.714
38470DT     BB250031  65.107  65.664  67.936
38470DT     BB350032  65.084  65.866  67.900
38470DT     SC150033  65.224  65.851  67.679
38470DT     SC250034  65.412  65.952  67.706
38470DT     SC350035  65.285  65.861  67.423
38471DA     BB150036  65.088  65.719  68.295
38471DA     BB250037  65.327  65.996  68.266
38471DA     BB350038  65.224  66.179  68.230
38471DA     SC150039  65.235  66.153  67.920
38471DA     SC250040  65.350  66.264  67.729
38471DA     SC350041  65.165  66.162  67.584
38471DA     SC450042  65.110  66.082  67.847
38472DC     BB150043  65.284  66.242  68.360
38472DC     BB250044  65.504  66.478  68.197
38472DC     BB350045  65.398  66.648  68.144
38472DC     SC150046  65.282  66.523  67.945
38472DC     SC250047  65.356  66.601  67.759
38472DC     SC350048  65.092  66.417  67.795
38473DA     BB150049  65.770  66.720  68.333
38473DA     BB250050  65.737  66.943  68.044
38473DA     BB350051  65.580  67.084  68.076
38473DA     SC150052  65.360  66.905  67.949
38473DA     SC250053  65.218  66.904  67.744
38473DA     SC350054  65.066  66.744  67.874
38473DA     SC450055  65.277  66.807  68.047
38474DT     BB150056  65.636  67.268  68.092
38474DT     BB250057  65.503  67.389  67.779
38474DT     BB350058  65.324  67.488  67.812
38474DT     SC150059  65.196  67.262  67.851
38474DT     SC250060  65.062  67.228  67.687
38474DT     SC350061  65.058  67.073  67.972
38475DT     BB150062  65.435  67.741  67.773
38475DT     BB250063  65.158  67.733  67.542
38475DT     BB350064  64.987  67.802  67.635
38475DT     SC150065  64.961  67.579  67.771
38475DT     SC250066  64.790  67.471  67.698
38475DT     SC350067  64.948  67.413  67.975
38476DT     BB150068  64.980  68.056  67.508
38476DT     BB250069  64.656  67.915  67.433
38476DT     BB350070  64.519  67.973  67.577
38476DT     SC150071  64.621  67.805  67.751
38476DT     SC250072  64.481  67.645  67.787
38476DT     SC350073  64.741  67.715  67.968
38477DT     BB150074  64.387  68.155  67.410
38477DT     BB250075  64.127  67.927  67.515
38477DT     BB350076  64.038  67.998  67.688
38477DT     SC150077  64.244  67.927  67.833
38477DT     SC250078  64.189  67.762  67.960
38477DT     SC350079  64.454  67.946  67.992
38478DT     BB150080  63.818  68.056  67.543
38478DT     BB250081  63.702  67.828  67.798
38478DT     BB350082  63.653  67.933  67.969
38478DT     SC150083  63.906  67.970  68.029
38478DT     SC250084  63.956  67.854  68.203
38478DT     SC350085  64.135  68.093  68.076
38479DG     BB150086  63.344  67.705  67.839
38479DG     BB250087  63.419  67.644  68.188
38479DG     BB350088  63.352  67.795  68.299
38479DG     SC150089  63.611  67.957  68.279
38479DG     SC250090  63.798  68.018  68.503
38479DG     SC350091  63.873  68.170  68.261
38479DG     SC450092  63.630  68.059  68.156
38480DC     BB150093  63.222  67.735  68.432
38480DC     BB250094  63.401  67.766  68.744
38480DC     BB350095  63.359  67.949  68.832
38480DC     SC150096  63.511  68.076  68.660
38480DC     SC250097  63.685  68.151  68.760
38480DC     SC350098  63.583  68.239  68.466
38481DA     BB150099  63.299  67.650  69.121
38481DA     BB250100  63.486  67.923  69.279
38481DA     BB350101  63.360  68.092  69.308
38481DA     SC150102  63.428  68.221  69.033
38481DA     SC250103  63.552  68.419  68.947
38481DA     SC350104  63.414  68.388  68.733
38481DA     SC450105  63.332  68.185  68.909
38482DT     BB150106  63.298  68.160  69.502
38482DT     BB250107  63.495  68.461  69.516
38482DT     BB350108  63.373  68.627  69.492
38482DT     SC150109  63.348  68.580  69.235
38482DT     SC250110  63.452  68.733  69.124
38482DT     SC350111  63.237  68.524  69.002
38483DA     BB150112  63.555  68.727  69.860
38483DA     BB250113  63.576  69.026  69.649
38483DA     BB350114  63.388  69.127  69.645
38483DA     SC150115  63.283  68.973  69.396
38483DA     SC250116  63.232  69.022  69.157
38483DA     SC350117  63.088  68.810  69.165
38483DA     SC450118  63.197  68.840  69.422
38484DC     BB150119  63.325  69.344  69.742
38484DC     BB250120  63.317  69.525  69.430
38484DC     BB350121  63.123  69.584  69.387
38484DC     SC150122  63.056  69.339  69.319
38484DC     SC250123  63.022  69.332  69.107
38484DC     SC350124  62.934  69.106  69.322
38485DA     BB150125  63.323  69.954  69.373
38485DA     BB250126  63.130  69.926  69.063
38485DA     BB350127  62.925  69.973  69.099
38485DA     SC150128  62.843  69.679  69.162
38485DA     SC250129  62.708  69.498  69.056
38485DA     SC350130  62.698  69.396  69.291
38485DA     SC450131  62.848  69.632  69.315
38486DA     BB150132  62.967  70.192  68.858
38486DA     BB250133  62.720  70.003  68.665
38486DA     BB350134  62.522  70.052  68.728
38486DA     SC150135  62.508  69.828  68.943
38486DA     SC250136  62.387  69.612  68.977
38486DA     SC350137  62.445  69.643  69.225
38486DA     SC450138  62.553  69.865  69.092
38487DT     BB150139  62.404  70.146  68.595
38487DT     BB250140  62.199  69.860  68.515
38487DT     BB350141  62.013  69.880  68.602
38487DT     SC150142  62.109  69.822  68.839
38487DT     SC250143  62.036  69.629  68.901
38487DT     SC350144  62.178  69.849  69.092
38488DG     BB150145  61.982  69.824  68.201
38488DG     BB250146  61.780  69.587  68.385
38488DG     BB350147  61.617  69.677  68.454
38488DG     SC150148  61.745  69.763  68.718
38488DG     SC250149  61.671  69.662  68.990
38488DG     SC350150  61.858  69.890  69.009
38488DG     SC450151  61.821  69.903  68.726
38489DA     BB150152  61.469  69.403  68.308
38489DA     BB250153  61.317  69.316  68.631
38489DA     BB350154  61.161  69.453  68.679
38489DA     SC150155  61.347  69.650  68.832
38489DA     SC250156  61.383  69.723  69.068
38489DA     SC350157  61.496  69.929  68.964
38489DA     SC450158  61.412  69.771  68.749
38490DA     BB150159  61.009  69.164  68.713
38490DA     BB250160  60.940  69.265  69.059
38490DA     BB350161  60.792  69.419  69.063
38490DA     SC150162  60.998  69.652  69.049
38490DA     SC250163  61.084  69.831  69.198
38490DA     SC350164  61.160  69.947  68.982
38490DA     SC450165  61.036  69.708  68.903
38491DT     BB150166  60.609  69.379  69.144
38491DT     BB250167  60.645  69.574  69.445
38491DT     BB350168  60.536  69.749  69.430
38491DT     SC150169  60.712  69.854  69.267
38491DT     SC250170  60.815  70.014  69.367
38491DT     SC350171  60.817  69.957  69.048
38492DC     BB150172  60.344  69.658  69.605
38492DC     BB250173  60.452  69.970  69.749
38492DC     BB350174  60.341  70.126  69.671
38492DC     SC150175  60.470  70.115  69.443
38492DC     SC250176  60.594  70.290  69.422
38492DC     SC350177  60.517  70.082  69.186
38493DA     BB150178  60.303  70.172  70.087
38493DA     BB250179  60.391  70.500  69.949
38493DA     BB350180  60.222  70.588  69.853
38493DA     SC150181  60.287  70.466  69.574
38493DA     SC250182  60.365  70.547  69.351
38493DA     SC350183  60.268  70.327  69.260
38493DA     SC450184  60.220  70.325  69.537
38494DT     BB150185  60.125  70.763  69.929
38494DT     BB250186  60.250  70.993  69.681
38494DT     BB350187  60.098  71.048  69.552
38494DT     SC150188  60.106  70.815  69.431
38494DT     SC250189  60.184  70.841  69.232
38494DT     SC350190  60.031  70.578  69.344
38495DC     BB150191  60.074  71.303  69.659
38495DC     BB250192  60.134  71.362  69.309
38495DC     BB350193  59.954  71.368  69.206
38495DC     SC150194  59.928  71.107  69.222
38495DC     SC250195  59.952  71.022  69.026
38495DC     SC350196  59.829  70.871  69.285
38496DC     BB150197  59.964  71.643  69.172
38496DC     BB250198  59.933  71.515  68.836
38496DC     BB350199  59.733  71.496  68.786
38496DC     SC150200  59.707  71.282  68.937
38496DC     SC250201  59.679  71.110  68.812
38496DC     SC350202  59.625  71.125  69.131
38497DA     BB150203  59.895  71.727  68.475
38497DA     BB250204  59.703  71.455  68.321
38497DA     BB350205  59.494  71.495  68.335
38497DA     SC150206  59.459  71.349  68.607
38497DA     SC250207  59.351  71.141  68.692
38497DA     SC350208  59.361  71.254  68.922
38497DA     SC450209  59.473  71.437  68.741
38498DA     BB150210  59.491  71.457  68.006
38498DA     BB250211  59.265  71.172  68.056
38498DA     BB350212  59.066  71.240  68.091
38498DA     SC150213  59.099  71.254  68.400
38498DA     SC250214  59.014  71.132  68.600
38498DA     SC350215  59.081  71.342  68.732
38498DA     SC450216  59.146  71.394  68.464
38499DA     BB150217  58.987  71.044  67.838
38499DA     BB250218  58.782  70.851  68.074
38499DA     BB350219  58.597  70.951  68.109
38499DA     SC150220  58.702  71.113  68.352
38499DA     SC250221  58.668  71.119  68.599
38499DA     SC350222  58.763  71.357  68.587
38499DA     SC450223  58.762  71.260  68.324
38500DT     BB150224  58.419  70.864  68.045
38500DT     BB250225  58.311  70.754  68.371
38500DT     BB350226  58.154  70.872  68.437
38500DT     SC150227  58.315  71.072  68.489
38500DT     SC250228  58.328  71.100  68.702
38500DT     SC350229  58.426  71.311  68.476
38501DA     BB150230  58.036  70.473  68.472
38501DA     BB250231  57.966  70.638  68.792
38501DA     BB350232  57.795  70.764  68.775
38501DA     SC150233  57.958  71.016  68.694
38501DA     SC250234  58.019  71.236  68.793
38501DA     SC350235  58.065  71.310  68.552
38501DA     SC450236  57.979  71.043  68.537
38502DA     BB150237  57.717  70.581  69.034
38502DA     BB250238  57.701  70.894  69.224
38502DA     BB350239  57.525  71.003  69.171
38502DA     SC150240  57.663  71.163  68.943
38502DA     SC250241  57.734  71.398  68.898
38502DA     SC350242  57.734  71.330  68.651
38502DA     SC450243  57.656  71.102  68.794
38503DT     BB150244  57.381  71.028  69.312
38503DT     BB250245  57.438  71.377  69.378
38503DT     BB350246  57.289  71.491  69.290
38503DT     SC150247  57.392  71.456  69.051
38503DT     SC250248  57.474  71.642  68.980
38503DT     SC350249  57.415  71.379  68.800
38504DT     BB150250  57.162  71.548  69.533
38504DT     BB250251  57.226  71.874  69.391
38504DT     BB350252  57.065  71.932  69.274
38504DT     SC150253  57.135  71.767  69.082
38504DT     SC250254  57.205  71.879  68.913
38504DT     SC350255  57.124  71.565  68.913
38505DT     BB150256  56.955  72.124  69.456
38505DT     BB250257  57.006  72.315  69.154
38505DT     BB350258  56.833  72.313  69.039
38505DT     SC150259  56.877  72.065  68.964
38505DT     SC250260  56.928  72.061  68.755
38505DT     SC350261  56.843  71.805  68.935
38506DG     BB150262  56.878  72.714  69.111
38506DG     BB250263  56.850  72.650  68.757
38506DG     BB350264  56.659  72.636  68.705
38506DG     SC150265  56.643  72.334  68.753
38506DG     SC250266  56.602  72.125  68.544
38506DG     SC350267  56.584  72.008  68.815
38506DG     SC450268  56.605  72.281  68.899
38507DG     BB150269  56.692  72.886  68.495
38507DG     BB250270  56.625  72.644  68.234
38507DG     BB350271  56.429  72.628  68.205
38507DG     SC150272  56.392  72.405  68.412
38507DG     SC250273  56.313  72.123  68.353
38507DG     SC350274  56.311  72.175  68.645
38507DG     SC450275  56.363  72.445  68.565
38508DA     BB150276  56.536  72.674  67.889
38508DA     BB250277  56.395  72.347  67.799
38508DA     BB350278  56.183  72.359  67.789
38508DA     SC150279  56.140  72.282  68.088
38508DA     SC250280  56.052  72.088  68.218
38508DA     SC350281  56.025  72.256  68.410
38508DA     SC450282  56.130  72.401  68.195
38509DT     BB150283  56.166  72.317  67.634
38509DT     BB250284  56.030  71.988  67.689
38509DT     BB350285  55.824  71.998  67.702
38509DT     SC150286  55.835  72.101  67.943
38509DT     SC250287  55.763  71.957  68.086
38509DT     SC350288  55.808  72.274  68.140
38510DG     BB150289  56.009  71.718  67.460
38510DG     BB250290  55.752  71.576  67.671
38510DG     BB350291  55.573  71.644  67.615
38510DG     SC150292  55.581  71.887  67.802
38510DG     SC250293  55.405  71.932  68.038
38510DG     SC350294  55.565  72.173  67.979
38510DG     SC450295  55.647  72.023  67.749
38511DA     BB150296  55.522  71.301  67.647
38511DA     BB250297  55.233  71.374  67.860
38511DA     BB350298  55.081  71.474  67.749
38511DA     SC150299  55.187  71.759  67.815
38511DA     SC250300  55.115  71.956  67.951
38511DA     SC350301  55.276  72.090  67.804
38511DA     SC450302  55.291  71.826  67.713
38512DA     BB150303  54.894  71.229  67.871
38512DA     BB250304  54.672  71.488  68.006
38512DA     BB350305  54.563  71.582  67.848
38512DA     SC150306  54.774  71.804  67.800
38512DA     SC250307  54.794  72.051  67.834
38512DA     SC350308  54.983  72.039  67.661
38512DA     SC450309  54.888  71.777  67.690
38513DT     BB150310  54.342  71.560  67.808
38513DT     BB250311  54.240  71.894  67.901
38513DT     BB350312  54.189  72.001  67.732
38513DT     SC150313  54.440  72.030  67.664
38513DT     SC250314  54.498  72.236  67.687
38513DT     SC350315  54.664  72.010  67.525
38514DC     BB150316  53.889  71.995  67.739
38514DC     BB250317  53.957  72.348  67.706
38514DC     BB350318  53.947  72.403  67.507
38514DC     SC150319  54.179  72.291  67.457
38514DC     SC250320  54.325  72.443  67.416
38514DC     SC350321  54.358  72.127  67.354
38515DT     BB150322  53.677  72.539  67.480
38515DT     BB250323  53.902  72.790  67.352
38515DT     BB350324  53.909  72.780  67.145
38515DT     SC150325  54.055  72.562  67.152
38515DT     SC250326  54.253  72.607  67.082
38515DT     SC350327  54.127  72.311  67.119
38516DT     BB150328  53.741  73.015  67.062
38516DT     BB250329  54.055  73.077  66.896
38516DT     BB350330  54.046  73.010  66.700
38516DT     SC150331  54.065  72.760  66.777
38516DT     SC250332  54.256  72.681  66.717
38516DT     SC350333  54.001  72.507  66.816
38517DA     BB150334  54.160  73.411  66.648
38517DA     BB250335  54.400  73.207  66.461
38517DA     BB350336  54.316  73.146  66.274
38517DA     SC150337  54.196  72.882  66.386
38517DA     SC250338  54.237  72.637  66.365
38517DA     SC350339  53.997  72.610  66.451
38517DA     SC450340  54.045  72.886  66.440
38518DT     BB150341  54.397  73.216  66.090
38518DT     BB250342  54.572  72.911  66.011
38518DT     BB350343  54.480  72.816  65.852
38518DT     SC150344  54.282  72.736  66.004
38518DT     SC250345  54.292  72.523  66.030
38518DT     SC350346  54.037  72.710  66.100
38519DG     BB150347  54.870  72.885  65.765
38519DG     BB250348  54.784  72.535  65.728
38519DG     BB350349  54.687  72.507  65.557
38519DG     SC150350  54.410  72.555  65.678
38519DG     SC250351  54.194  72.351  65.709
38519DG     SC350352  54.093  72.621  65.773
38519DG     SC450353  54.352  72.704  65.683
38520DA     BB150354  54.925  72.265  65.550
38520DA     BB250355  54.659  72.014  65.523
38520DA     BB350356  54.567  72.023  65.331
38520DA     SC150357  54.349  72.227  65.419
38520DA     SC250358  54.103  72.229  65.457
38520DA     SC350359  54.122  72.484  65.431
38520DA     SC450360  54.381  72.384  65.399
38521DA     BB150361  54.648  71.715  65.403
38521DA     BB250362  54.292  71.642  65.355
38521DA     BB350363  54.237  71.671  65.151
38521DA     SC150364  54.159  71.969  65.189
38521DA     SC250365  53.951  72.107  65.188
38521DA     SC350366  54.107  72.306  65.147
38521DA     SC450367  54.272  72.080  65.162
38522DA     BB150368  54.127  71.375  65.243
38522DA     BB250369  53.797  71.497  65.137
38522DA     BB350370  53.793  71.527  64.926
38522DA     SC150371  53.885  71.824  64.942
38522DA     SC250372  53.786  72.049  64.902
38522DA     SC350373  54.029  72.129  64.882
38522DA     SC450374  54.042  71.853  64.931
38523DG     BB150375  53.562  71.319  64.947
38523DG     BB250376  53.367  71.589  64.806
38523DG     BB350377  53.400  71.602  64.611
38523DG     SC150378  53.635  71.796  64.638
38523DG     SC250379  53.639  72.080  64.547
38523DG     SC350380  53.908  71.994  64.633
38523DG     SC450381  53.782  71.737  64.657
38524DA     BB150382  53.053  71.584  64.534
38524DA     BB250383  53.068  71.905  64.358
38524DA     BB350384  53.152  71.880  64.163
38524DA     SC150385  53.444  71.931  64.256
38524DA     SC250386  53.618  72.108  64.229
38524DA     SC350387  53.785  71.925  64.296
38524DA     SC450388  53.532  71.804  64.299
38525DC     BB150389  53.045  71.895  63.949
38525DC     BB250390  53.191  72.210  63.852
38525DC     BB350391  53.323  72.181  63.695
38525DC     SC150392  53.502  72.076  63.855
38525DC     SC250393  53.669  72.211  63.873
38525DC     SC350394  53.666  71.899  63.962
38526DA     BB150395  53.071  72.465  63.504
38526DA     BB250396  53.414  72.585  63.458
38526DA     BB350397  53.508  72.481  63.297
38526DA     SC150398  53.624  72.255  63.476
38526DA     SC250399  53.847  72.180  63.558
38526DA     SC350400  53.733  71.955  63.601
38526DA     SC450401  53.535  72.122  63.495
38527DC     BB150402  53.576  72.569  63.083
38527DC     BB250403  53.926  72.586  63.165
38527DC     BB350404  54.033  72.453  63.048
38527DC     SC150405  53.946  72.248  63.188
38527DC     SC250406  54.109  72.165  63.301
38527DC     SC350407  53.822  72.024  63.248
38528DT     BB150408  54.146  72.654  62.893
38528DT     BB250409  54.427  72.484  63.042
38528DT     BB350410  54.491  72.330  62.919
38528DT     SC150411  54.285  72.181  62.986
38528DT     SC250412  54.353  72.015  63.104
38528DT     SC350413  54.062  72.042  62.965
38529DA     BB150414  54.807  72.574  63.039
38529DA     BB250415  54.897  72.226  63.108
38529DA     BB350416  54.937  72.122  62.926
38529DA     SC150417  54.643  72.026  62.887
38529DA     SC250418  54.516  71.812  62.897
38529DA     SC350419  54.339  71.934  62.757
38529DA     SC450420  54.546  72.119  62.800
38530DA     BB150421  55.175  72.076  63.142
38530DA     BB250422  55.093  71.720  63.110
38530DA     BB350423  55.142  71.650  62.915
38530DA     SC150424  54.861  71.713  62.796
38530DA     SC250425  54.663  71.586  62.713
38530DA     SC350426  54.601  71.803  62.591
38530DA     SC450427  54.840  71.856  62.727
38531DA     BB150428  55.271  71.446  63.134
38531DA     BB250429  55.076  71.185  62.965
38531DA     BB350430  55.152  71.152  62.768
38531DA     SC150431  54.964  71.362  62.635
38531DA     SC250432  54.768  71.362  62.481
38531DA     SC350433  54.831  71.607  62.435
38531DA     SC450434  55.020  71.512  62.619
38532DT     BB150435  55.213  70.988  62.763
38532DT     BB250436  54.962  70.848  62.545
38532DT     BB350437  55.027  70.853  62.349
38532DT     SC150438  54.985  71.111  62.334
38532DT     SC250439  54.819  71.149  62.202
38532DT     SC350440  55.032  71.370  62.307
38533DC     BB150441  55.058  70.587  62.361
38533DC     BB250442  54.851  70.638  62.070
38533DC     BB350443  54.970  70.680  61.905
38533DC     SC150444  55.018  70.923  61.992
38533DC     SC250445  54.919  71.065  61.864
38533DC     SC350446  55.150  71.133  62.080
38534DC     BB150447  54.938  70.427  61.788
38534DC     BB250448  54.848  70.653  61.522
38534DC     BB350449  55.016  70.702  61.411
38534DC     SC150450  55.104  70.861  61.601
38534DC     SC250451  55.091  71.065  61.534
38534DC     SC350452  55.258  70.960  61.790
38535DT     BB150453  54.975  70.534  61.174
38535DT     BB250454  55.024  70.861  61.031
38535DT     BB350455  55.223  70.888  60.981
38535DT     SC150456  55.290  70.920  61.232
38535DT     SC250457  55.348  71.124  61.266
38535DT     SC350458  55.404  70.876  61.467
38536DG     BB150459  55.083  70.917  60.588
38536DG     BB250460  55.293  71.202  60.663
38536DG     BB350461  55.483  71.157  60.627
38536DG     SC150462  55.538  71.051  60.908
38536DG     SC250463  55.720  71.175  61.110
38536DG     SC350464  55.628  70.909  61.201
38536DG     SC450465  55.511  70.896  60.940
38537DA     BB150466  55.562  71.425  60.393
38537DA     BB250467  55.806  71.567  60.627
38537DA     BB350468  55.998  71.478  60.598
38537DA     SC150469  55.950  71.251  60.805
38537DA     SC250470  56.034  71.185  61.031
38537DA     SC350471  55.945  70.951  60.974
38537DA     SC450472  55.889  71.112  60.751
38538DA     BB150473  56.128  71.780  60.547
38538DA     BB250474  56.318  71.735  60.857
38538DA     BB350475  56.499  71.628  60.818
38538DA     SC150476  56.373  71.348  60.868
38538DA     SC250477  56.388  71.167  61.039
38538DA     SC350478  56.291  71.015  60.857
38538DA     SC450479  56.313  71.270  60.741
38539DA     BB150480  56.615  71.890  60.966
38539DA     BB250481  56.721  71.664  61.234
38539DA     BB350482  56.899  71.560  61.178
38539DA     SC150483  56.748  71.320  61.051
38539DA     SC250484  56.711  71.078  61.101
38539DA     SC350485  56.651  71.057  60.852
38539DA     SC450486  56.716  71.327  60.893
38540DC     BB150487  57.016  71.610  61.294
38540DC     BB250488  57.012  71.304  61.486
38540DC     BB350489  57.168  71.182  61.427
38540DC     SC150490  57.045  71.117  61.205
38540DC     SC250491  56.984  70.911  61.214
38540DC     SC350492  56.993  71.095  60.947
38541DC     BB150493  57.219  71.248  61.669
38541DC     BB250494  57.196  70.888  61.664
38541DC     BB350495  57.368  70.808  61.581
38541DC     SC150496  57.293  70.878  61.339
38541DC     SC250497  57.244  70.702  61.226
38541DC     SC350498  57.293  70.999  61.105
38542DC     BB150499  57.370  70.733  61.826
38542DC     BB250500  57.386  70.432  61.627
38542DC     BB350501  57.576  70.410  61.547
38542DC     SC150502  57.532  70.599  61.370
38542DC     SC250503  57.519  70.512  61.174
38542DC     SC350504  57.555  70.827  61.240
38543DA     BB150505  57.437  70.056  61.727
38543DA     BB250506  57.585  69.972  61.402
38543DA     BB350507  57.797  70.001  61.408
38543DA     SC150508  57.784  70.296  61.312
38543DA     SC250509  57.845  70.427  61.108
38543DA     SC350510  57.840  70.631  61.263
38543DA     SC450511  57.777  70.411  61.425
38544DT     BB150512  57.898  69.841  61.390
38544DT     BB250513  58.027  69.899  61.059
38544DT     BB350514  58.222  69.968  61.070
38544DT     SC150515  58.142  70.205  61.148
38544DT     SC250516  58.179  70.348  60.992
38544DT     SC350517  58.108  70.418  61.300
38545DT     BB150518  58.311  69.729  60.980
38545DT     BB250519  58.456  69.969  60.753
38545DT     BB350520  58.635  70.039  60.829
38545DT     SC150521  58.510  70.188  61.005
38545DT     SC250522  58.535  70.396  60.954
38545DT     SC350523  58.428  70.282  61.238
38546DG     BB150524  58.726  69.877  60.466
38546DG     BB250525  58.861  70.212  60.496
38546DG     BB350526  59.027  70.208  60.606
38546DG     SC150527  58.882  70.250  60.872
38546DG     SC250528  58.902  70.491  61.047
38546DG     SC350529  58.754  70.275  61.183
38546DG     SC450530  58.830  70.122  60.953
38547DA     BB150531  59.190  70.380  60.349
38547DA     BB250532  59.276  70.652  60.579
38547DA     BB350533  59.439  70.594  60.704
38547DA     SC150534  59.256  70.478  60.928
38547DA     SC250535  59.192  70.537  61.162
38547DA     SC350536  59.123  70.290  61.183
38547DA     SC450537  59.220  70.322  60.922
38548DA     BB150538  59.591  70.870  60.596
38548DA     BB250539  59.608  70.983  60.945
38548DA     BB350540  59.765  70.882  61.048
38548DA     SC150541  59.584  70.648  61.145
38548DA     SC250542  59.489  70.566  61.360
38548DA     SC350543  59.461  70.342  61.238
38548DA     SC450544  59.576  70.517  61.052
38549DG     BB150545  59.925  71.156  61.105
38549DG     BB250546  59.867  71.077  61.453
38549DG     BB350547  60.014  70.960  61.521
38549DG     SC150548  59.874  70.698  61.446
38549DG     SC250549  59.770  70.494  61.637
38549DG     SC350550  59.759  70.394  61.359
38549DG     SC450551  59.897  70.637  61.300
38550DA     BB150552  60.121  71.165  61.804
38550DA     BB250553  60.041  70.898  62.042
38550DA     BB350554  60.203  70.761  62.057
38550DA     SC150555  60.099  70.574  61.831
38550DA     SC250556  60.003  70.345  61.811
38550DA     SC350557  60.073  70.359  61.565
38550DA     SC450558  60.152  70.602  61.682
38551DG     BB150559  60.292  70.806  62.380
38551DG     BB250560  60.183  70.464  62.424
38551DG     BB350561  60.339  70.341  62.410
38551DG     SC150562  60.313  70.302  62.107
38551DG     SC250563  60.239  70.049  61.968
38551DG     SC350564  60.326  70.254  61.774
38551DG     SC450565  60.388  70.404  62.010
38552DC     BB150566  60.460  70.177  62.590
38552DC     BB250567  60.322  69.863  62.479
38552DC     BB350568  60.472  69.742  62.403
38552DC     SC150569  60.485  69.885  62.183
38552DC     SC250570  60.410  69.769  62.018
38552DC     SC350571  60.582  70.043  61.995
38553DT     BB150572  60.490  69.557  62.623
38553DT     BB250573  60.412  69.348  62.340
38553DT     BB350574  60.586  69.273  62.257
38553DT     SC150575  60.643  69.505  62.149
38553DT     SC250576  60.623  69.492  61.935
38553DT     SC350577  60.771  69.730  62.096
38554DT     BB150578  60.536  69.018  62.352
38554DT     BB250579  60.555  68.979  61.994
38554DT     BB350580  60.750  68.938  61.937
38554DT     SC150581  60.821  69.188  61.976
38554DT     SC250582  60.863  69.281  61.787
38554DT     SC350583  60.944  69.398  62.078
38555DA     BB150584  60.489  68.659  61.770
38555DA     BB250585  60.699  68.795  61.502
38555DA     BB350586  60.898  68.718  61.517
38555DA     SC150587  61.000  68.950  61.698
38555DA     SC250588  61.155  69.144  61.679
38555DA     SC350589  61.161  69.138  61.936
38555DA     SC450590  60.992  68.929  61.857
38556DA     BB150591  60.800  68.668  61.212
38556DA     BB250592  61.084  68.880  61.115
38556DA     BB350593  61.268  68.777  61.149
38556DA     SC150594  61.302  68.885  61.439
38556DA     SC250595  61.452  69.043  61.561
38556DA     SC350596  61.375  68.921  61.773
38556DA     SC450597  61.243  68.795  61.559
38557DT     BB150598  61.346  68.754  60.992
38557DT     BB250599  61.609  68.997  61.036
38557DT     BB350600  61.782  68.904  61.100
38557DT     SC150601  61.686  68.873  61.342
38557DT     SC250602  61.792  69.000  61.478
38557DT     SC350603  61.598  68.754  61.560
38558DG     BB150604  61.835  69.132  60.766
38558DG     BB250605  62.079  69.207  61.023
38558DG     BB350606  62.212  69.059  61.035
38558DG     SC150607  62.053  68.900  61.243
38558DG     SC250608  62.134  68.851  61.526
38558DG     SC350609  61.896  68.691  61.455
38558DG     SC450610  61.944  68.794  61.193
38559DA     BB150611  62.431  69.325  61.018
38559DA     BB250612  62.587  69.214  61.330
38559DA     BB350613  62.697  69.034  61.298
38559DA     SC150614  62.458  68.847  61.365
38559DA     SC250615  62.392  68.689  61.546
38559DA     SC350616  62.231  68.589  61.373
38559DA     SC450617  62.365  68.798  61.243
38560DT     BB150618  62.886  69.051  61.320
38560DT     BB250619  62.921  68.862  61.625
38560DT     BB350620  62.987  68.671  61.583
38560DT     SC150621  62.751  68.601  61.493
38560DT     SC250622  62.661  68.460  61.630
38560DT     SC350623  62.561  68.521  61.328
38561DA     BB150624  63.256  68.816  61.872
38561DA     BB250625  63.158  68.477  61.972
38561DA     BB350626  63.251  68.332  61.846
38561DA     SC150627  63.018  68.326  61.640
38561DA     SC250628  62.840  68.167  61.567
38561DA     SC350629  62.829  68.308  61.354
38561DA     SC450630  63.028  68.425  61.514
38562DA     BB150631  63.369  68.195  62.126
38562DA     BB250632  63.188  67.889  62.035
38562DA     BB350633  63.294  67.782  61.883
38562DA     SC150634  63.148  67.924  61.648
38562DA     SC250635  62.982  67.866  61.471
38562DA     SC350636  63.069  68.074  61.349
38562DA     SC450637  63.217  68.056  61.587
38563DA     BB150638  63.284  67.522  62.089
38563DA     BB250639  63.092  67.344  61.833
38563DA     BB350640  63.221  67.273  61.679
38563DA     SC150641  63.195  67.529  61.504
38563DA     SC250642  63.092  67.594  61.287
38563DA     SC350643  63.253  67.794  61.294
38563DA     SC450644  63.304  67.645  61.526
38564DG     BB150645  63.130  66.980  61.752
38564DG     BB250646  62.991  66.984  61.418
38564DG     BB350647  63.131  66.934  61.286
38564DG     SC150648  63.228  67.221  61.242
38564DG     SC250649  63.201  67.378  60.990
38564DG     SC350650  63.373  67.520  61.185
38564DG     SC450651  63.343  67.280  61.337
38565DT     BB150652  63.125  66.743  61.151
38565DT     BB250653  63.041  66.888  60.831
38565DT     BB350654  63.207  66.887  60.707
38565DT     SC150655  63.315  67.087  60.839
38565DT     SC250656  63.315  67.263  60.715
38565DT     SC350657  63.485  67.222  60.988
38566DT     BB150658  63.110  66.681  60.549
38566DT     BB250659  63.171  66.950  60.316
38566DT     BB350660  63.366  66.940  60.247
38566DT     SC150661  63.459  67.032  60.474
38566DT     SC250662  63.537  67.231  60.444
38566DT     SC350663  63.591  67.043  60.702
38567DA     BB150664  63.139  66.944  59.892
38567DA     BB250665  63.399  67.201  59.858
38567DA     BB350666  63.587  67.110  59.817
38567DA     SC150667  63.668  67.085  60.116
38567DA     SC250668  63.834  67.187  60.272
38567DA     SC350669  63.796  66.979  60.417
38567DA     SC450670  63.632  66.947  60.192
38568DT     BB150671  63.702  67.128  59.621
38568DT     BB250672  63.947  67.362  59.745
38568DT     BB350673  64.132  67.271  59.757
38568DT     SC150674  64.061  67.137  59.971
38568DT     SC250675  64.169  67.213  60.142
38568DT     SC350676  64.003  66.934  60.129
38569DT     BB150677  64.245  67.403  59.533
38569DT     BB250678  64.462  67.492  59.807
38569DT     BB350679  64.617  67.357  59.821
38569DT     SC150680  64.460  67.174  59.924
38569DT     SC250681  64.512  67.143  60.130
38569DT     SC350682  64.325  66.949  59.950
38570DA     BB150683  64.774  67.744  59.811
38570DA     BB250684  64.909  67.572  60.105
38570DA     BB350685  65.056  67.429  60.047
38570DA     SC150686  64.852  67.195  60.019
38570DA     SC250687  64.798  66.983  60.138
38570DA     SC350688  64.682  66.914  59.919
38570DA     SC450689  64.787  67.171  59.874
38571DT     BB150690  65.221  67.474  60.115
38571DT     BB250691  65.223  67.227  60.378
38571DT     BB350692  65.339  67.065  60.322
38571DT     SC150693  65.154  66.979  60.157
38571DT     SC250694  65.068  66.797  60.235
38571DT     SC350695  65.034  66.910  59.933
38572DT     BB150696  65.479  67.163  60.516
38572DT     BB250697  65.394  66.827  60.614
38572DT     BB350698  65.518  66.692  60.517
38572DT     SC150699  65.388  66.725  60.291
38572DT     SC250700  65.279  66.546  60.244
38572DT     SC350701  65.340  66.789  60.039
38573DA     BB150702  65.471  66.628  60.931
38573DA     BB250703  65.422  66.311  60.755
38573DA     BB350704  65.605  66.246  60.666
38573DA     SC150705  65.554  66.391  60.396
38573DA     SC250706  65.503  66.328  60.160
38573DA     SC350707  65.588  66.563  60.101
38573DA     SC450708  65.612  66.540  60.379
38574DT     BB150709  65.636  66.100  60.745
38574DT     BB250710  65.569  65.881  60.466
38574DT     BB350711  65.743  65.846  60.360
38574DT     SC150712  65.737  66.086  60.254
38574DT     SC250713  65.693  66.070  60.044
38574DT     SC350714  65.807  66.333  60.195
38575DT     BB150715  65.711  65.608  60.459
38575DT     BB250716  65.731  65.562  60.102
38575DT     BB350717  65.928  65.567  60.041
38575DT     SC150718  65.939  65.827  60.071
38575DT     SC250719  65.953  65.921  59.878
38575DT     SC350720  66.010  66.064  60.163
38576DT     BB150721  65.894  65.310  59.998
38576DT     BB250722  66.012  65.444  59.684
38576DT     BB350723  66.218  65.465  59.689
38576DT     SC150724  66.201  65.676  59.844
38576DT     SC250725  66.261  65.850  59.734
38576DT     SC350726  66.229  65.831  60.056
38577DT     BB150727  66.234  65.258  59.520
38577DT     BB250728  66.420  65.521  59.358
38577DT     BB350729  66.614  65.526  59.430
38577DT     SC150730  66.536  65.635  59.656
38577DT     SC250731  66.606  65.838  59.665
38577DT     SC350732  66.489  65.665  59.913
38578DT     BB150733  66.715  65.417  59.199
38578DT     BB250734  66.908  65.718  59.244
38578DT     BB350735  67.071  65.680  59.365
38578DT     SC150736  66.920  65.670  59.579
38578DT     SC250737  66.962  65.841  59.703
38578DT     SC350738  66.800  65.575  59.794
38579DA     BB150739  67.260  65.846  59.025
38579DA     BB250740  67.402  66.014  59.318
38579DA     BB350741  67.542  65.886  59.417
38579DA     SC150742  67.330  65.760  59.607
38579DA     SC250743  67.273  65.765  59.849
38579DA     SC350744  67.147  65.546  59.803
38579DA     SC450745  67.258  65.625  59.558
38580DT     BB150746  67.782  65.906  59.433
38580DT     BB250747  67.790  66.011  59.778
38580DT     BB350748  67.874  65.863  59.895
38580DT     SC150749  67.657  65.716  59.880
38580DT     SC250750  67.561  65.710  60.072
38580DT     SC350751  67.498  65.514  59.822
38581DT     BB150752  68.139  65.977  59.944
38581DT     BB250753  68.010  65.921  60.276
38581DT     BB350754  68.073  65.738  60.347
38581DT     SC150755  67.904  65.610  60.193
38581DT     SC250756  67.750  65.521  60.314
38581DT     SC350757  67.811  65.452  60.003
38582DT     BB150758  68.257  65.846  60.527
38582DT     BB250759  68.033  65.651  60.733
38582DT     BB350760  68.104  65.457  60.750
38582DT     SC150761  68.029  65.400  60.506
38582DT     SC250762  67.864  65.262  60.512
38582DT     SC350763  68.043  65.332  60.251
38583DA     BB150764  68.026  65.605  61.134
38583DA     BB250765  67.859  65.281  61.101
38583DA     BB350766  68.002  65.123  61.105
38583DA     SC150767  68.042  65.120  60.796
38583DA     SC250768  67.989  64.970  60.604
38583DA     SC350769  68.173  65.098  60.479
38583DA     SC450770  68.161  65.211  60.736
38584DA     BB150771  67.790  65.032  61.336
38584DA     BB250772  67.731  64.734  61.131
38584DA     BB350773  67.898  64.602  61.141
38584DA     SC150774  68.043  64.727  60.896
38584DA     SC250775  68.099  64.663  60.661
38584DA     SC350776  68.276  64.847  60.674
38584DA     SC450777  68.148  64.845  60.924
38585DA     BB150778  67.655  64.397  61.222
38585DA     BB250779  67.750  64.202  60.927
38585DA     BB350780  67.933  64.098  60.962
38585DA     SC150781  68.113  64.327  60.854
38585DA     SC250782  68.260  64.369  60.657
38585DA     SC350783  68.367  64.551  60.801
38585DA     SC450784  68.168  64.435  60.960
38586DG     BB150785  67.764  63.839  60.912
38586DG     BB250786  67.983  63.805  60.627
38586DG     BB350787  68.155  63.721  60.683
38586DG     SC150788  68.292  63.987  60.747
38586DG     SC250789  68.523  64.105  60.600
38586DG     SC350790  68.466  64.258  60.847
38586DG     SC450791  68.277  64.048  60.894
38587DT     BB150792  68.233  63.512  60.608
38587DT     BB250793  68.487  63.618  60.375
38587DT     BB350794  68.675  63.583  60.455
38587DT     SC150795  68.652  63.787  60.618
38587DT     SC250796  68.787  63.943  60.557
38587DT     SC350797  68.634  63.925  60.843
38588DG     BB150798  68.666  63.368  60.108
38588DG     BB250799  68.946  63.597  60.115
38588DG     BB350800  69.094  63.519  60.223
38588DG     SC150801  68.997  63.641  60.487
38588DG     SC250802  69.139  63.852  60.644
38588DG     SC350803  68.910  63.743  60.796
38588DG     SC450804  68.893  63.560  60.576
38589DC     BB150805  69.282  63.483  60.127
38589DC     BB250806  69.472  63.764  60.249
38589DC     BB350807  69.603  63.702  60.397
38589DC     SC150808  69.407  63.679  60.571
38589DC     SC250809  69.426  63.832  60.720
38589DC     SC350810  69.237  63.570  60.740
38590DT     BB150811  69.757  63.773  60.207
38590DT     BB250812  69.832  63.988  60.487
38590DT     BB350813  69.946  63.886  60.626
38590DT     SC150814  69.738  63.748  60.707
38590DT     SC250815  69.684  63.810  60.906
38590DT     SC350816  69.580  63.542  60.756
38591DG     BB150817  70.075  64.253  60.496
38591DG     BB250818  70.060  64.229  60.857
38591DG     BB350819  70.203  64.107  60.922
38591DG     SC150820  70.030  63.855  60.906
38591DG     SC250821  69.936  63.692  61.137
38591DG     SC350822  69.876  63.557  60.881
38591DG     SC450823  70.026  63.773  60.768
38592DA     BB150824  70.222  64.388  61.123
38592DA     BB250825  70.189  64.166  61.414
38592DA     BB350826  70.359  64.039  61.430
38592DA     SC150827  70.236  63.812  61.257
38592DA     SC250828  70.151  63.580  61.291
38592DA     SC350829  70.186  63.551  61.039
38592DA     SC450830  70.267  63.813  61.099
38593DT     BB150831  70.451  64.076  61.581
38593DT     BB250832  70.369  63.775  61.763
38593DT     BB350833  70.522  63.637  61.742
38593DT     SC150834  70.451  63.582  61.496
38593DT     SC250835  70.369  63.383  61.488
38593DT     SC350836  70.461  63.562  61.233
38594DA     BB150837  70.442  63.676  62.153
38594DA     BB250838  70.460  63.318  62.074
38594DA     BB350839  70.662  63.261  62.037
38594DA     SC150840  70.647  63.314  61.731
38594DA     SC250841  70.647  63.181  61.520
38594DA     SC350842  70.716  63.401  61.406
38594DA     SC450843  70.690  63.460  61.679
38595DA     BB150844  70.594  63.037  62.269
38595DA     BB250845  70.668  62.780  62.018
38595DA     BB350846  70.879  62.765  61.988
38595DA     SC150847  70.886  62.974  61.758
38595DA     SC250848  70.924  62.977  61.511
38595DA     SC350849  70.974  63.226  61.542
38595DA     SC450850  70.915  63.127  61.798
38596DA     BB150851  70.810  62.451  62.052
38596DA     BB250852  70.941  62.374  61.718
38596DA     BB350853  71.154  62.388  61.717
38596DA     SC150854  71.159  62.688  61.637
38596DA     SC250855  71.222  62.825  61.438
38596DA     SC350856  71.237  63.021  61.603
38596DA     SC450857  71.164  62.797  61.755
38597DA     BB150858  71.109  62.089  61.591
38597DA     BB250859  71.286  62.209  61.294
38597DA     BB350860  71.494  62.230  61.334
38597DA     SC150861  71.472  62.526  61.427
38597DA     SC250862  71.540  62.751  61.343
38597DA     SC350863  71.512  62.827  61.587
38597DA     SC450864  71.450  62.554  61.583
38598DA     BB150865  71.501  62.045  61.063
38598DA     BB250866  71.700  62.312  60.910
38598DA     BB350867  71.896  62.315  60.992
38598DA     SC150868  71.825  62.515  61.220
38598DA     SC250869  71.874  62.752  61.280
38598DA     SC350870  71.804  62.685  61.518
38598DA     SC450871  71.779  62.453  61.361
38599DT     BB150872  72.052  62.267  60.874
38599DT     BB250873  72.196  62.596  60.842
38599DT     BB350874  72.363  62.612  60.963
38599DT     SC150875  72.214  62.630  61.178
38599DT     SC250876  72.228  62.830  61.258
38599DT     SC350877  72.109  62.571  61.413
38600DT     BB150878  72.555  62.594  60.755
38600DT     BB250879  72.649  62.897  60.927
38600DT     BB350880  72.784  62.854  61.078
38600DT     SC150881  72.596  62.753  61.229
38600DT     SC250882  72.562  62.882  61.398
38600DT     SC350883  72.457  62.577  61.369
38601DA     BB150884  73.028  63.133  60.869
38601DA     BB250885  73.040  63.232  61.222
38601DA     BB350886  73.179  63.110  61.328
38601DA     SC150887  72.968  62.896  61.408
38601DA     SC250888  72.853  62.818  61.615
38601DA     SC350889  72.806  62.603  61.483
38601DA     SC450890  72.950  62.769  61.310
38602DG     BB150891  73.380  63.354  61.408
38602DG     BB250892  73.274  63.282  61.746
38602DG     BB350893  73.398  63.151  61.829
38602DG     SC150894  73.241  62.905  61.735
38602DG     SC250895  73.095  62.713  61.911
38602DG     SC350896  73.106  62.614  61.632
38602DG     SC450897  73.275  62.842  61.592
38603DA     BB150898  73.449  63.365  62.101
38603DA     BB250899  73.306  63.116  62.329
38603DA     BB350900  73.452  62.969  62.380
38603DA     SC150901  73.378  62.779  62.145
38603DA     SC250902  73.270  62.556  62.115
38603DA     SC350903  73.386  62.554  61.886
38603DA     SC450904  73.459  62.796  62.007
38604DA     BB150905  73.358  63.062  62.678
38604DA     BB250906  73.245  62.716  62.728
38604DA     BB350907  73.412  62.588  62.762
38604DA     SC150908  73.451  62.519  62.461
38604DA     SC250909  73.422  62.321  62.312
38604DA     SC350910  73.582  62.444  62.152
38604DA     SC450911  73.553  62.610  62.376
38605DG     BB150912  73.257  62.541  63.024
38605DG     BB250913  73.232  62.205  62.894
38605DG     BB350914  73.401  62.106  62.928
38605DG     SC150915  73.532  62.190  62.664
38605DG     SC250916  73.600  62.009  62.437
38605DG     SC350917  73.713  62.279  62.394
38605DG     SC450918  73.616  62.326  62.659
38606DG     BB150919  73.222  61.885  63.090
38606DG     BB250920  73.335  61.646  62.844
38606DG     BB350921  73.517  61.581  62.891
38606DG     SC150922  73.663  61.800  62.735
38606DG     SC250923  73.831  61.760  62.492
38606DG     SC350924  73.855  62.037  62.591
38606DG     SC450925  73.696  61.938  62.808
38607DT     BB150926  73.566  61.362  62.946
38607DT     BB250927  73.739  61.250  62.650
38607DT     BB350928  73.942  61.237  62.688
38607DT     SC150929  73.968  61.498  62.680
38607DT     SC250930  74.079  61.553  62.504
38607DT     SC350931  74.018  61.745  62.758
38608DT     BB150932  73.959  60.951  62.707
38608DT     BB250933  74.203  61.032  62.453
38608DT     BB350934  74.389  61.057  62.540
38608DT     SC150935  74.321  61.291  62.637
38608DT     SC250936  74.429  61.446  62.535
38608DT     SC350937  74.266  61.480  62.813
38609DA     BB150938  74.473  60.763  62.251
38609DA     BB250939  74.720  61.030  62.206
38609DA     BB350940  74.874  61.014  62.354
38609DA     SC150941  74.729  61.198  62.559
38609DA     SC250942  74.760  61.425  62.657
38609DA     SC350943  74.606  61.343  62.845
38609DA     SC450944  74.633  61.128  62.667
38610DG     BB150945  75.081  60.970  62.122
38610DG     BB250946  75.201  61.294  62.229
38610DG     BB350947  75.336  61.271  62.374
38610DG     SC150948  75.131  61.280  62.601
38610DG     SC250949  75.106  61.495  62.807
38610DG     SC350950  74.932  61.266  62.872
38610DG     SC450951  75.061  61.144  62.648
38611DA     BB150952  75.517  61.475  62.169
38611DA     BB250953  75.526  61.727  62.436
38611DA     BB350954  75.665  61.669  62.588
38611DA     SC150955  75.454  61.515  62.756
38611DA     SC250956  75.337  61.542  62.975
38611DA     SC350957  75.291  61.290  62.958
38611DA     SC450958  75.436  61.358  62.728
38612DC     BB150959  75.791  61.792  62.591
38612DC     BB250960  75.685  61.952  62.896
38612DC     BB350961  75.794  61.879  63.056
38612DC     SC150962  75.659  61.654  63.055
38612DC     SC250963  75.535  61.644  63.230
38612DC     SC350964  75.607  61.396  63.034
38613DT     BB150965  75.883  62.122  63.047
38613DT     BB250966  75.743  62.080  63.377
38613DT     BB350967  75.875  61.975  63.496
38613DT     SC150968  75.818  61.749  63.375
38613DT     SC250969  75.709  61.622  63.510
38613DT     SC350970  75.848  61.530  63.232
38614DA     BB150971  75.726  62.323  63.682
38614DA     BB250972  75.700  62.043  63.917
38614DA     BB350973  75.894  61.979  63.978
38614DA     SC150974  75.925  61.770  63.750
38614DA     SC250975  75.930  61.522  63.727
38614DA     SC350976  76.045  61.566  63.502
38614DA     SC450977  75.996  61.818  63.614
38615DA     BB150978  75.736  62.025  64.262
38615DA     BB250979  75.807  61.672  64.330
38615DA     BB350980  76.015  61.643  64.368
38615DA     SC150981  76.087  61.588  64.070
38615DA     SC250982  76.160  61.395  63.931
38615DA     SC350983  76.241  61.572  63.764
38615DA     SC450984  76.132  61.713  63.980
38616DA     BB150985  75.884  61.501  64.633
38616DA     BB250986  76.052  61.194  64.525
38616DA     BB350987  76.262  61.209  64.557
38616DA     SC150988  76.322  61.327  64.275
38616DA     SC250989  76.433  61.254  64.064
38616DA     SC350990  76.449  61.505  64.010
38616DA     SC450991  76.324  61.487  64.260
38617DG     BB150992  76.213  60.962  64.737
38617DG     BB250993  76.427  60.800  64.495
38617DG     BB350994  76.618  60.841  64.535
38617DG     SC150995  76.626  61.093  64.363
38617DG     SC250996  76.784  61.130  64.112
38617DG     SC350997  76.664  61.386  64.199
38617DG     SC450998  76.585  61.233  64.428
38618DT     BB150999  76.752  60.680  64.584
38618DT     BB251000  76.949  60.653  64.283
38618DT     BB351001  77.132  60.745  64.310
38618DT     SC151002  77.024  60.984  64.293
38618DT     SC251003  77.087  61.077  64.110
38618DT     SC351004  76.946  61.226  64.361
38619DT     BB151005  77.245  60.502  64.313
38619DT     BB251006  77.415  60.679  64.049
38619DT     BB351007  77.570  60.791  64.127
38619DT     SC151008  77.404  60.969  64.224
38619DT     SC251009  77.424  61.153  64.115
38619DT     SC351010  77.272  61.117  64.399
38620DT     BB151011  77.739  60.618  64.014
38620DT     BB251012  77.836  60.939  63.883
38620DT     BB351013  77.963  61.035  64.016
38620DT     SC151014  77.764  61.091  64.177
38620DT     SC251015  77.727  61.303  64.175
38620DT     SC351016  77.613  61.093  64.394
38621DT     BB151017  78.191  60.991  63.860
38621DT     BB251018  78.189  61.349  63.910
38621DT     BB351019  78.294  61.397  64.081
38621DT     SC151020  78.100  61.312  64.235
38621DT     SC251021  78.007  61.479  64.333
38621DT     SC351022  77.969  61.168  64.413
38622DT     BB151023  78.520  61.499  63.945
38622DT     BB251024  78.421  61.771  64.161
38622DT     BB351025  78.520  61.758  64.342
38622DT     SC151026  78.367  61.559  64.419
38622DT     SC251027  78.239  61.625  64.578
38622DT     SC351028  78.294  61.317  64.495
38623DT     BB151029  78.698  61.971  64.291
38623DT     BB251030  78.537  62.066  64.600
38623DT     BB351031  78.647  61.996  64.761
38623DT     SC151032  78.564  61.750  64.721
38623DT     SC251033  78.432  61.693  64.880
38623DT     SC351034  78.570  61.492  64.666
38624DG     BB151035  78.641  62.401  64.817
38624DG     BB251036  78.527  62.228  65.114
38624DG     BB351037  78.683  62.165  65.219
38624DG     SC151038  78.701  61.894  65.078
38624DG     SC251039  78.648  61.628  65.201
38624DG     SC351040  78.762  61.597  64.930
38624DG     SC451041  78.790  61.882  64.945
38625DG     BB151042  78.584  62.340  65.482
38625DG     BB251043  78.546  62.023  65.652
38625DG     BB351044  78.719  61.968  65.732
38625DG     SC151045  78.812  61.815  65.484
38625DG     SC251046  78.852  61.519  65.464
38625DG     SC351047  78.955  61.655  65.223
38625DG     SC451048  78.893  61.893  65.370
38626DC     BB151049  78.746  61.944  65.955
38626DC     BB251050  78.749  61.585  65.987
38626DC     BB351051  78.942  61.519  66.022
38626DC     SC151052  79.010  61.559  65.772
38626DC     SC251053  79.041  61.369  65.675
38626DC     SC351054  79.133  61.658  65.561
38627DC     BB151055  78.876  61.462  66.280
38627DC     BB251056  78.998  61.149  66.148
38627DC     BB351057  79.203  61.138  66.170
38627DC     SC151058  79.241  61.308  65.973
38627DC     SC251059  79.328  61.205  65.806
38627DC     SC351060  79.315  61.526  65.845
38628DT     BB151061  79.171  60.952  66.366
38628DT     BB251062  79.384  60.791  66.123
38628DT     BB351063  79.582  60.837  66.161
38628DT     SC151064  79.552  61.080  66.066
38628DT     SC251065  79.660  61.098  65.881
38628DT     SC351066  79.543  61.343  66.057
38629DA     BB151067  79.557  60.420  66.132
38629DA     BB251068  79.838  60.529  65.924
38629DA     BB351069  80.003  60.586  66.046
38629DA     SC151070  79.917  60.885  66.065
38629DA     SC251071  79.997  61.106  65.981
38629DA     SC351072  79.856  61.206  66.170
38629DA     SC451073  79.825  60.928  66.190
38630DA     BB151074  80.162  60.370  65.856
38630DA     BB251075  80.378  60.646  65.751
38630DA     BB351076  80.519  60.693  65.904
38630DA     SC151077  80.336  60.904  66.041
38630DA     SC251078  80.331  61.152  66.071
38630DA     SC351079  80.173  61.104  66.268
38630DA     SC451080  80.241  60.854  66.160
38631DG     BB151081  80.739  60.620  65.693
38631DG     BB251082  80.828  60.968  65.728
38631DG     BB351083  80.947  60.993  65.886
38631DG     SC151084  80.717  61.039  66.083
38631DG     SC251085  80.657  61.295  66.225
38631DG     SC351086  80.489  61.074  66.329
38631DG     SC451087  80.650  60.913  66.156
38632DC     BB151088  81.164  61.067  65.872
38632DC     BB251089  81.130  61.405  65.993
38632DC     BB351090  81.207  61.419  66.185
38632DC     SC151091  80.998  61.296  66.286
38632DC     SC251092  80.882  61.436  66.401
38632DC     SC351093  80.854  61.113  66.408
38633DT     BB151094  81.433  61.558  66.101
38633DT     BB251095  81.282  61.775  66.347
38633DT     BB351096  81.355  61.730  66.535
38633DT     SC151097  81.210  61.512  66.548
38633DT     SC251098  81.055  61.538  66.695
38633DT     SC351099  81.148  61.256  66.564
38634DA     BB151100  81.409  62.142  66.483
38634DA     BB251101  81.242  62.092  66.805
38634DA     BB351102  81.381  62.018  66.950
38634DA     SC151103  81.324  61.719  66.887
38634DA     SC251104  81.216  61.524  66.999
38634DA     SC351105  81.350  61.380  66.835
38634DA     SC451106  81.417  61.647  66.778
38635DA     BB151107  81.261  62.277  67.108
38635DA     BB251108  81.141  62.040  67.360
38635DA     BB351109  81.303  61.971  67.481
38635DA     SC151110  81.365  61.726  67.299
38635DA     SC251111  81.346  61.478  67.310
38635DA     SC351112  81.520  61.476  67.122
38635DA     SC451113  81.475  61.746  67.183
38636DA     BB151114  81.084  62.075  67.697
38636DA     BB251115  81.080  61.731  67.824
38636DA     BB351116  81.261  61.688  67.928
38636DA     SC151117  81.410  61.581  67.676
38636DA     SC251118  81.494  61.363  67.590
38636DA     SC351119  81.645  61.504  67.438
38636DA     SC451120  81.497  61.687  67.591
38637DA     BB151121  81.021  61.601  68.131
38637DA     BB251122  81.168  61.266  68.121
38637DA     BB351123  81.355  61.264  68.224
38637DA     SC151124  81.523  61.331  67.970
38637DA     SC251125  81.687  61.217  67.821
38637DA     SC351126  81.758  61.453  67.751
38637DA     SC451127  81.554  61.487  67.941
38638DA     BB151128  81.188  61.015  68.354
38638DA     BB251129  81.466  60.802  68.245
38638DA     BB351130  81.640  60.843  68.362
38638DA     SC151131  81.748  61.061  68.168
38638DA     SC251132  81.937  61.089  68.008
38638DA     SC351133  81.894  61.341  68.033
38638DA     SC451134  81.706  61.214  68.198
38639DT     BB151135  81.698  60.698  68.473
38639DT     BB251136  81.995  60.609  68.290
38639DT     BB351137  82.162  60.688  68.383
38639DT     SC151138  82.106  60.929  68.295
38639DT     SC251139  82.251  60.987  68.148
38639DT     SC351140  82.042  61.185  68.297
38640DC     BB151141  82.239  60.442  68.478
38640DC     BB251142  82.531  60.563  68.303
38640DC     BB351143  82.647  60.677  68.430
38640DC     SC151144  82.479  60.878  68.416
38640DC     SC251145  82.570  61.040  68.307
38640DC     SC351146  82.303  61.060  68.490
38641DG     BB151147  82.908  60.377  68.328
38641DG     BB251148  83.061  60.701  68.279
38641DG     BB351149  83.130  60.770  68.452
38641DG     SC151150  82.870  60.913  68.526
38641DG     SC251151  82.832  61.209  68.547
38641DG     SC351152  82.594  61.064  68.648
38641DG     SC451153  82.757  60.833  68.606
38642DT     BB151154  83.359  60.812  68.507
38642DT     BB251155  83.369  61.172  68.491
38642DT     BB351156  83.382  61.251  68.682
38642DT     SC151157  83.129  61.198  68.729
38642DT     SC251158  83.019  61.382  68.740
38642DT     SC351159  82.914  61.092  68.839
38643DG     BB151160  83.717  61.391  68.494
38643DG     BB251161  83.530  61.662  68.644
38643DG     BB351162  83.569  61.671  68.838
38643DG     SC151163  83.343  61.481  68.918
38643DG     SC251164  83.099  61.553  69.074
38643DG     SC351165  83.118  61.260  69.039
38643DG     SC451166  83.372  61.323  68.923
38644DA     BB151167  83.646  62.009  68.797
38644DA     BB251168  83.380  62.101  69.032
38644DA     BB351169  83.444  62.068  69.233
38644DA     SC151170  83.336  61.776  69.244
38644DA     SC251171  83.153  61.651  69.358
38644DA     SC351172  83.291  61.441  69.307
38644DA     SC451173  83.437  61.658  69.204
38645DA     BB151174  83.361  62.385  69.277
38645DA     BB251175  83.115  62.270  69.524
38645DA     BB351176  83.212  62.221  69.707
38645DA     SC151177  83.257  61.922  69.631
38645DA     SC251178  83.170  61.699  69.700
38645DA     SC351179  83.384  61.606  69.593
38645DA     SC451180  83.396  61.884  69.560
38646DA     BB151181  83.001  62.435  69.850
38646DA     BB251182  82.870  62.153  70.044
38646DA     BB351183  83.000  62.108  70.207
38646DA     SC151184  83.169  61.902  70.045
38646DA     SC251185  83.206  61.656  70.042
38646DA     SC351186  83.424  61.710  69.917
38646DA     SC451187  83.301  61.957  69.970
38647DA     BB151188  82.739  62.147  70.412
38647DA     BB251189  82.775  61.793  70.502
38647DA     BB351190  82.930  61.769  70.647
38647DA     SC151191  83.155  61.726  70.436
38647DA     SC251192  83.300  61.539  70.356
38647DA     SC351193  83.452  61.724  70.264
38647DA     SC451194  83.236  61.855  70.387
38648DT     BB151195  82.901  61.704  70.866
38648DT     BB251196  83.016  61.366  70.815
38648DT     BB351197  83.196  61.337  70.913
38648DT     SC151198  83.326  61.475  70.731
38648DT     SC251199  83.451  61.342  70.617
38648DT     SC351200  83.471  61.666  70.621
38649DT     BB151201  83.081  61.178  71.109
38649DT     BB251202  83.325  60.966  70.949
38649DT     BB351203  83.508  60.984  71.045
38649DT     SC151204  83.550  61.220  70.937
38649DT     SC251205  83.709  61.205  70.794
38649DT     SC351206  83.588  61.480  70.916
38650DC     BB151207  83.462  60.737  71.124
38650DC     BB251208  83.762  60.722  70.925
38650DC     BB351209  83.926  60.771  71.041
38650DC     SC151210  83.862  61.026  71.038
38650DC     SC251211  84.005  61.134  70.920
38650DC     SC351212  83.790  61.264  71.124
38651DA     BB151213  83.953  60.433  70.788
38651DA     BB251214  84.244  60.648  70.734
38651DA     BB351215  84.367  60.653  70.909
38651DA     SC151216  84.223  60.899  71.034
38651DA     SC251217  84.274  61.138  71.081
38651DA     SC351218  84.080  61.125  71.249
38651DA     SC451219  84.100  60.870  71.134
38652DC     BB151220  84.502  60.591  70.843
38652DC     BB251221  84.695  60.896  70.845
38652DC     BB351222  84.794  60.915  71.026
38652DC     SC151223  84.571  60.982  71.149
38652DC     SC251224  84.580  61.189  71.206
38652DC     SC351225  84.368  60.971  71.316
38653DA     BB151226  85.031  60.987  70.683
38653DA     BB251227  85.087  61.255  70.927
38653DA     BB351228  85.184  61.178  71.101
38653DA     SC151229  84.919  61.113  71.251
38653DA     SC251230  84.793  61.199  71.448
38653DA     SC351231  84.675  60.971  71.445
38653DA     SC451232  84.858  60.966  71.233
38654DT     BB151233  85.341  61.255  71.112
38654DT     BB251234  85.271  61.465  71.397
38654DT     BB351235  85.332  61.370  71.571
38654DT     SC151236  85.127  61.206  71.563
38654DT     SC251237  84.992  61.254  71.723
38654DT     SC351238  84.989  60.982  71.545
38655DA     BB151239  85.481  61.763  71.559
38655DA     BB251240  85.335  61.705  71.890
38655DA     BB351241  85.455  61.568  72.001
38655DA     SC151242  85.302  61.316  71.902
38655DA     SC251243  85.147  61.144  71.996
38655DA     SC351244  85.216  61.000  71.795
38655DA     SC451245  85.358  61.241  71.771
38656DA     BB151246  85.424  61.819  72.209
38656DA     BB251247  85.272  61.579  72.441
38656DA     BB351248  85.420  61.444  72.515
38656DA     SC151249  85.378  61.235  72.289
38656DA     SC251250  85.284  61.005  72.266
38656DA     SC351251  85.421  60.993  72.049
38656DA     SC451252  85.471  61.247  72.159
38657DG     BB151253  85.323  61.566  72.783
38657DG     BB251254  85.225  61.224  72.849
38657DG     BB351255  85.384  61.116  72.900
38657DG     SC151256  85.452  61.034  72.613
38657DG     SC251257  85.437  60.758  72.502
38657DG     SC351258  85.568  60.941  72.310
38657DG     SC451259  85.548  61.129  72.526
38658DT     BB151260  85.393  61.027  73.096
38658DT     BB251261  85.346  60.676  73.024
38658DT     BB351262  85.528  60.579  73.025
38658DT     SC151263  85.594  60.681  72.793
38658DT     SC251264  85.595  60.526  72.644
38658DT     SC351265  85.724  60.822  72.611
38659DT     BB151266  85.472  60.458  73.264
38659DT     BB251267  85.556  60.183  73.046
38659DT     BB351268  85.761  60.153  73.045
38659DT     SC151269  85.800  60.365  72.896
38659DT     SC251270  85.865  60.304  72.701
38659DT     SC351271  85.883  60.604  72.821
38660DT     BB151272  85.762  59.920  73.208
38660DT     BB251273  85.944  59.817  72.914
38660DT     BB351274  86.146  59.855  72.939
38660DT     SC151275  86.111  60.112  72.903
38660DT     SC251276  86.199  60.171  72.716
38660DT     SC351277  86.106  60.371  72.953
38661DA     BB151278  86.175  59.438  72.860
38661DA     BB251279  86.418  59.603  72.641
38661DA     BB351280  86.595  59.651  72.750
38661DA     SC151281  86.496  59.934  72.832
38661DA     SC251282  86.551  60.172  72.779
38661DA     SC351283  86.432  60.227  72.999
38661DA     SC451284  86.420  59.949  72.972
38662DT     BB151285  86.815  59.557  72.728
38662DT     BB251286  86.956  59.838  72.551
38662DT     BB351287  87.098  59.932  72.669
38662DT     SC151288  86.912  60.041  72.819
38662DT     SC251289  86.907  60.253  72.785
38662DT     SC351290  86.766  60.097  73.032
38663DT     BB151291  87.321  59.838  72.525
38663DT     BB251292  87.351  60.198  72.509
38663DT     BB351293  87.464  60.266  72.667
38663DT     SC151294  87.267  60.228  72.836
38663DT     SC251295  87.191  60.418  72.902
38663DT     SC351296  87.129  60.131  73.038
38664DG     BB151297  87.654  60.390  72.328
38664DG     BB251298  87.582  60.668  72.549
38664DG     BB351299  87.716  60.675  72.696
38664DG     SC151300  87.556  60.493  72.883
38664DG     SC251301  87.430  60.575  73.142
38664DG     SC351302  87.417  60.282  73.106
38664DG     SC451303  87.577  60.335  72.875
38665DT     BB151304  87.846  60.850  72.717
38665DT     BB251305  87.691  61.015  72.998
38665DT     BB351306  87.804  60.984  73.169
38665DT     SC151307  87.721  60.736  73.189
38665DT     SC251308  87.592  60.718  73.360
38665DT     SC351309  87.726  60.472  73.196
38666DG     BB151310  87.759  61.384  73.105
38666DG     BB251311  87.653  61.288  73.437
38666DG     BB351312  87.811  61.257  73.553
38666DG     SC151313  87.836  60.960  73.483
38666DG     SC251314  87.792  60.732  73.670
38666DG     SC351315  87.905  60.637  73.413
38666DG     SC451316  87.924  60.917  73.356
38667DC     BB151317  87.829  61.379  73.721
38667DC     BB251318  87.738  61.151  73.985
38667DC     BB351319  87.908  61.080  74.079
38667DC     SC151320  87.963  60.922  73.877
38667DC     SC251321  87.934  60.718  73.937
38667DC     SC351322  88.091  60.818  73.672
38668DA     BB151323  87.628  61.222  74.358
38668DA     BB251324  87.738  60.888  74.462
38668DA     BB351325  87.939  60.894  74.531
38668DA     SC151326  88.063  60.835  74.252
38668DA     SC251327  88.184  60.648  74.140
38668DA     SC351328  88.263  60.826  73.974
38668DA     SC451329  88.102  60.961  74.160
38669DT     BB151330  87.942  60.850  74.705
38669DT     BB251331  88.085  60.521  74.664
38669DT     BB351332  88.289  60.529  74.695
38669DT     SC151333  88.330  60.643  74.463
38669DT     SC251334  88.429  60.505  74.331
38669DT     SC351335  88.399  60.824  74.284
38670DT     BB151336  88.216  60.390  74.901
38670DT     BB251337  88.453  60.185  74.722
38670DT     BB351338  88.646  60.249  74.761
38670DT     SC151339  88.616  60.458  74.606
38670DT     SC251340  88.738  60.435  74.431
38670DT     SC351341  88.599  60.710  74.530
38671DT     BB151342  88.655  60.021  74.886
38671DT     BB251343  88.925  60.012  74.647
38671DT     BB351344  89.087  60.119  74.720
38671DT     SC151345  88.968  60.347  74.670
38671DT     SC251346  89.068  60.446  74.508
38671DT     SC351347  88.855  60.582  74.710
38672DT     BB151348  89.204  59.884  74.748
38672DT     BB251349  89.429  60.076  74.542
38672DT     BB351350  89.547  60.198  74.660
38672DT     SC151351  89.346  60.362  74.704
38672DT     SC251352  89.383  60.549  74.603
38672DT     SC351353  89.160  60.498  74.832
38673DC     BB151354  89.758  60.040  74.608
38673DC     BB251355  89.865  60.369  74.508
38673DC     BB351356  89.939  60.472  74.671
38673DC     SC151357  89.698  60.512  74.766
38673DC     SC251358  89.648  60.720  74.751
38673DC     SC351359  89.491  60.500  74.929
38674DG     BB151360  90.241  60.462  74.396
38674DG     BB251361  90.177  60.799  74.509
38674DG     BB351362  90.259  60.828  74.688
38674DG     SC151363  90.011  60.737  74.843
38674DG     SC251364  89.838  60.909  75.015
38674DG     SC351365  89.764  60.624  75.044
38674DG     SC451366  89.994  60.581  74.878
38675DT     BB151367  90.420  60.977  74.720
38675DT     BB251368  90.241  61.239  74.892
38675DT     BB351369  90.286  61.235  75.094
38675DT     SC151370  90.137  61.023  75.131
38675DT     SC251371  89.963  61.077  75.247
38675DT     SC351372  90.068  60.775  75.191
38676DA     BB151373  90.339  61.626  74.950
38676DA     BB251374  90.136  61.642  75.255
38676DA     BB351375  90.256  61.600  75.427
38676DA     SC151376  90.200  61.294  75.420
38676DA     SC251377  90.075  61.126  75.556
38676DA     SC351378  90.225  60.952  75.441
38676DA     SC451379  90.303  61.201  75.339
38677DA     BB151380  90.116  61.884  75.509
38677DA     BB251381  89.972  61.704  75.794
38677DA     BB351382  90.123  61.660  75.938
38677DA     SC151383  90.194  61.383  75.815
38677DA     SC251384  90.169  61.143  75.874
38677DA     SC351385  90.356  61.102  75.704
38677DA     SC451386  90.312  61.379  75.706
38678DA     BB151387  89.902  61.810  76.130
38678DA     BB251388  89.890  61.498  76.323
38678DA     BB351389  90.068  61.475  76.439
38678DA     SC151390  90.220  61.318  76.217
38678DA     SC251391  90.301  61.085  76.179
38678DA     SC351392  90.459  61.191  76.006
38678DA     SC451393  90.311  61.403  76.115
38679DT     BB151394  90.055  61.484  76.640
38679DT     BB251395  90.106  61.132  76.704
38679DT     BB351396  90.299  61.101  76.772
38679DT     SC151397  90.398  61.135  76.532
38679DT     SC251398  90.472  60.947  76.458
38679DT     SC351399  90.537  61.239  76.333
38680DT     BB151400  90.219  61.055  77.034
38680DT     BB251401  90.406  60.759  76.948
38680DT     BB351402  90.607  60.787  76.990
38680DT     SC151403  90.637  60.943  76.781
38680DT     SC251404  90.758  60.843  76.634
38680DT     SC351405  90.686  61.159  76.638
38681DT     BB151406  90.616  60.625  77.224
38681DT     BB251407  90.873  60.484  77.013
38681DT     BB351408  91.055  60.572  77.055
38681DT     SC151409  90.986  60.792  76.930
38681DT     SC251410  91.102  60.811  76.750
38681DT     SC351411  90.927  61.046  76.888
38682DG     BB151412  91.128  60.177  77.137
38682DG     BB251413  91.375  60.308  76.907
38682DG     BB351414  91.516  60.406  77.008
38682DG     SC151415  91.371  60.676  76.995
38682DG     SC251416  91.463  60.917  76.845
38682DG     SC351417  91.232  60.982  77.017
38682DG     SC451418  91.267  60.713  77.110
38683DT     BB151419  91.746  60.346  77.020
38683DT     BB251420  91.891  60.590  76.799
38683DT     BB351421  91.996  60.731  76.908
38683DT     SC151422  91.773  60.845  76.988
38683DT     SC251423  91.754  61.038  76.896
38683DT     SC351424  91.583  60.931  77.149
38684DT     BB151425  92.253  60.637  76.838
38684DT     BB251426  92.256  60.982  76.733
38684DT     BB351427  92.328  61.102  76.886
38684DT     SC151428  92.103  61.079  77.019
38684DT     SC251429  92.000  61.269  77.019
38684DT     SC351430  91.933  61.017  77.211
38685DC     BB151431  92.578  61.150  76.766
38685DC     BB251432  92.438  61.479  76.814
38685DC     BB351433  92.496  61.554  76.998
38685DC     SC151434  92.328  61.396  77.124
38685DC     SC251435  92.169  61.514  77.208
38685DC     SC351436  92.238  61.206  77.283
38686DT     BB151437  92.675  61.738  76.888
38686DT     BB251438  92.441  61.940  77.074
38686DT     BB351439  92.508  61.965  77.268
38686DT     SC151440  92.443  61.719  77.332
38686DT     SC251441  92.276  61.723  77.468
38686DT     SC351442  92.467  61.468  77.408
38687DA     BB151443  92.411  62.334  77.099
38687DA     BB251444  92.234  62.303  77.418
38687DA     BB351445  92.370  62.325  77.581
38687DA     SC151446  92.434  62.021  77.601
38687DA     SC251447  92.389  61.833  77.759
38687DA     SC351448  92.587  61.717  77.644
38687DA     SC451449  92.560  61.966  77.518
38688DA     BB151450  92.112  62.514  77.612
38688DA     BB251451  92.049  62.323  77.918
38688DA     BB351452  92.198  62.365  78.064
38688DA     SC151453  92.386  62.134  77.973
38688DA     SC251454  92.465  61.915  78.062
38688DA     SC351455  92.659  61.940  77.895
38688DA     SC451456  92.499  62.169  77.865
38689DA     BB151457  91.876  62.357  78.143
38689DA     BB251458  91.985  62.105  78.386
38689DA     BB351459  92.129  62.189  78.520
38689DA     SC151460  92.373  62.108  78.345
38689DA     SC251461  92.563  61.947  78.356
38689DA     SC351462  92.676  62.099  78.182
38689DA     SC451463  92.427  62.216  78.238
38690DA     BB151464  91.871  61.971  78.607
38690DA     BB251465  92.146  61.795  78.774
38690DA     BB351466  92.254  61.929  78.900
38690DA     SC151467  92.457  62.011  78.679
38690DA     SC251468  92.699  61.978  78.629
38690DA     SC351469  92.675  62.183  78.476
38690DA     SC451470  92.422  62.141  78.590
38691DT     BB151471  92.223  61.844  79.028
38691DT     BB251472  92.562  61.752  79.110
38691DT     BB351473  92.657  61.909  79.205
38691DT     SC151474  92.682  62.041  78.979
38691DT     SC251475  92.889  62.046  78.922
38691DT     SC351476  92.653  62.230  78.798
38692DA     BB151477  92.718  61.567  79.444
38692DA     BB251478  93.032  61.756  79.436
38692DA     BB351479  93.012  61.938  79.547
38692DA     SC151480  92.918  62.105  79.302
38692DA     SC251481  93.008  62.288  79.158
38692DA     SC351482  92.763  62.331  79.095
38692DA     SC451483  92.760  62.117  79.276
38693DC     BB151484  93.107  61.992  79.752
38693DC     BB251485  93.340  62.243  79.639
38693DC     BB351486  93.278  62.430  79.702
38693DC     SC151487  93.087  62.437  79.522
38693DC     SC251488  93.134  62.584  79.373
38693DC     SC351489  92.845  62.445  79.417
38694DA     BB151490  93.659  62.453  79.895
38694DA     BB251491  93.618  62.773  79.720
38694DA     BB351492  93.498  62.905  79.835
38694DA     SC151493  93.230  62.814  79.705
38694DA     SC251494  93.058  62.908  79.551
38694DA     SC351495  92.903  62.727  79.646
38694DA     SC451496  93.149  62.695  79.778
38695DA     BB151497  93.728  63.166  79.864
38695DA     BB251498  93.501  63.382  79.674
38695DA     BB351499  93.364  63.480  79.805
38695DA     SC151500  93.149  63.256  79.785
38695DA     SC251501  92.921  63.227  79.687
38695DA     SC351502  92.898  63.031  79.851
38695DA     SC451503  93.153  63.139  79.895
38696DT     BB151504  93.341  63.726  79.873
38696DT     BB251505  93.054  63.790  79.663
38696DT     BB351506  92.891  63.838  79.780
38696DT     SC151507  92.859  63.588  79.853
38696DT     SC251508  92.680  63.510  79.764
38696DT     SC351509  92.847  63.375  80.007
38697DA     BB151510  92.916  64.163  79.517
38697DA     BB251511  92.572  64.037  79.500
38697DA     BB351512  92.460  64.105  79.667
38697DA     SC151513  92.528  63.860  79.845
38697DA     SC251514  92.410  63.661  79.939
38697DA     SC351515  92.604  63.651  80.107
38697DA     SC451516  92.657  63.871  79.941
38698DA     BB151517  92.266  64.207  79.427
38698DA     BB251518  92.013  63.978  79.560
38698DA     BB351519  91.921  64.062  79.733
38698DA     SC151520  92.123  63.935  79.933
38698DA     SC251521  92.123  63.758  80.109
38698DA     SC351522  92.334  63.875  80.197
38698DA     SC451523  92.252  64.023  79.974
38699DA     BB151524  91.679  63.976  79.537
38699DA     BB251525  91.573  63.752  79.807
38699DA     BB351526  91.490  63.864  79.969
38699DA     SC151527  91.762  63.895  80.118
38699DA     SC251528  91.868  63.810  80.327
38699DA     SC351529  92.027  64.011  80.303
38699DA     SC451530  91.849  64.026  80.086
38700DA     BB151531  91.284  63.626  79.890
38700DA     BB251532  91.324  63.515  80.237
38700DA     BB351533  91.236  63.655  80.370
38700DA     SC151534  91.496  63.822  80.407
38700DA     SC251535  91.663  63.866  80.586
38700DA     SC351536  91.725  64.074  80.450
38700DA     SC451537  91.519  63.947  80.308
38701DA     BB151538  91.131  63.353  80.443
38701DA     BB251539  91.267  63.419  80.777
38701DA     BB351540  91.157  63.576  80.872
38701DA     SC151541  91.341  63.803  80.765
38701DA     SC251542  91.508  63.964  80.857
38701DA     SC351543  91.464  64.099  80.643
38701DA     SC451544  91.299  63.873  80.627
38702DT     BB151545  91.078  63.508  81.015
38702DT     BB251546  91.279  63.672  81.265
38702DT     BB351547  91.186  63.847  81.327
38702DT     SC151548  91.253  63.969  81.104
38702DT     SC251549  91.401  64.119  81.147
38702DT     SC351550  91.229  64.094  80.873
38703DA     BB151551  91.285  63.625  81.670
38703DA     BB251552  91.391  63.972  81.724
38703DA     BB351553  91.221  64.098  81.751
38703DA     SC151554  91.193  64.166  81.449
38703DA     SC251555  91.225  64.364  81.301
38703DA     SC351556  91.073  64.239  81.136
38703DA     SC451557  91.096  64.073  81.361
38704DG     BB151558  91.344  64.159  82.032
38704DG     BB251559  91.365  64.496  81.901
38704DG     BB351560  91.190  64.587  81.919
38704DG     SC151561  91.085  64.495  81.647
38704DG     SC251562  91.029  64.671  81.412
38704DG     SC351563  90.932  64.396  81.363
38704DG     SC451564  91.008  64.355  81.636
38705DC     BB151565  91.161  64.770  82.047
38705DC     BB251566  91.133  65.029  81.798
38705DC     BB351567  90.935  65.086  81.777
38705DC     SC151568  90.878  64.866  81.645
38705DC     SC251569  90.836  64.915  81.440
38705DC     SC351570  90.767  64.634  81.586
38706DA     BB151571  91.156  65.437  81.840
38706DA     BB251572  90.939  65.491  81.550
38706DA     BB351573  90.736  65.514  81.613
38706DA     SC151574  90.669  65.211  81.590
38706DA     SC251575  90.531  65.063  81.445
38706DA     SC351576  90.544  64.895  81.639
38706DA     SC451577  90.688  65.121  81.722
38707DC     BB151578  90.650  65.692  81.585
38707DC     BB251579  90.436  65.597  81.310
38707DC     BB351580  90.241  65.574  81.377
38707DC     SC151581  90.300  65.346  81.492
38707DC     SC251582  90.204  65.185  81.385
38707DC     SC351583  90.335  65.165  81.680
38708DG     BB151584  90.230  65.857  81.082
38708DG     BB251585  89.988  65.594  81.022
38708DG     BB351586  89.830  65.620  81.140
38708DG     SC151587  89.943  65.454  81.370
38708DG     SC251588  89.836  65.192  81.467
38708DG     SC351589  90.044  65.295  81.650
38708DG     SC451590  90.033  65.526  81.481
38709DG     BB151591  89.622  65.642  80.879
38709DG     BB251592  89.460  65.346  81.009
38709DG     BB351593  89.327  65.397  81.148
38709DG     SC151594  89.526  65.381  81.380
38709DG     SC251595  89.520  65.183  81.603
38709DG     SC351596  89.721  65.394  81.655
38709DG     SC451597  89.611  65.511  81.418
38710DA     BB151598  89.064  65.222  80.985
38710DA     BB251599  89.020  65.006  81.277
38710DA     BB351600  88.905  65.106  81.427
38710DA     SC151601  89.153  65.228  81.570
38710DA     SC251602  89.275  65.199  81.785
38710DA     SC351603  89.370  65.433  81.740
38710DA     SC451604  89.201  65.375  81.524
38711DG     BB151605  88.662  64.892  81.416
38711DG     BB251606  88.765  64.815  81.754
38711DG     BB351607  88.667  64.929  81.883
38711DG     SC151608  88.874  65.154  81.879
38711DG     SC251609  89.049  65.236  82.107
38711DG     SC351610  89.070  65.429  81.884
38711DG     SC451611  88.860  65.271  81.770
38712DT     BB151612  88.503  64.859  82.059
38712DT     BB251613  88.714  64.885  82.351
38712DT     BB351614  88.651  65.043  82.469
38712DT     SC151615  88.753  65.219  82.303
38712DT     SC251616  88.923  65.314  82.394
38712DT     SC351617  88.768  65.416  82.129
38713DG     BB151618  88.624  64.716  82.710
38713DG     BB251619  88.828  64.973  82.862
38713DG     BB351620  88.711  65.110  82.947
38713DG     SC151621  88.691  65.284  82.696
38713DG     SC251622  88.804  65.558  82.663
38713DG     SC351623  88.630  65.488  82.434
38713DG     SC451624  88.574  65.255  82.591
38714DT     BB151625  88.722  65.146  83.165
38714DT     BB251626  88.909  65.454  83.174
38714DT     BB351627  88.783  65.612  83.218
38714DT     SC151628  88.681  65.608  82.976
38714DT     SC251629  88.743  65.784  82.869
38714DT     SC351630  88.504  65.584  82.781
38715DT     BB151631  88.909  65.620  83.451
38715DT     BB251632  88.959  65.946  83.304
38715DT     BB351633  88.796  66.067  83.344
38715DT     SC151634  88.649  65.941  83.167
38715DT     SC251635  88.612  66.071  82.999
38715DT     SC351636  88.455  65.795  83.064
38716DT     BB151637  88.969  66.193  83.496
38716DT     BB251638  88.848  66.440  83.262
38716DT     BB351639  88.666  66.515  83.326
38716DT     SC151640  88.541  66.295  83.254
38716DT     SC251641  88.416  66.337  83.085
38716DT     SC351642  88.402  66.072  83.272
38717DT     BB151643  88.807  66.732  83.366
38717DT     BB251644  88.541  66.831  83.143
38717DT     BB351645  88.368  66.866  83.251
38717DT     SC151646  88.328  66.609  83.286
38717DT     SC251647  88.156  66.548  83.172
38717DT     SC351648  88.299  66.377  83.407
38718DA     BB151649  88.450  67.183  82.986
38718DA     BB251650  88.096  67.094  82.955
38718DA     BB351651  87.990  67.150  83.131
38718DA     SC151652  88.033  66.877  83.274
38718DA     SC251653  87.896  66.680  83.341
38718DA     SC351654  88.087  66.628  83.505
38718DA     SC451655  88.162  66.862  83.370
38719DA     BB151656  87.805  67.294  82.901
38719DA     BB251657  87.525  67.096  83.030
38719DA     BB351658  87.462  67.170  83.219
38719DA     SC151659  87.652  66.985  83.382
38719DA     SC251660  87.633  66.789  83.534
38719DA     SC351661  87.867  66.854  83.616
38719DA     SC451662  87.797  67.043  83.420
38720DG     BB151663  87.185  67.219  83.081
38720DG     BB251664  87.067  66.982  83.328
38720DG     BB351665  87.036  67.075  83.501
38720DG     SC151666  87.321  67.028  83.604
38720DG     SC251667  87.399  66.855  83.834
38720DG     SC351668  87.630  67.013  83.739
38720DG     SC451669  87.434  67.136  83.569
38721DT     BB151670  86.821  67.115  83.624
38721DT     BB251671  86.850  66.881  83.897
38721DT     BB351672  86.881  66.983  84.074
38721DT     SC151673  87.130  67.035  84.010
38721DT     SC251674  87.262  66.922  84.138
38721DT     SC351675  87.348  67.171  83.949
38722DA     BB151676  86.537  66.763  84.183
38722DA     BB251677  86.779  66.716  84.454
38722DA     BB351678  86.779  66.886  84.583
38722DA     SC151679  87.003  67.035  84.426
38722DA     SC251680  87.241  67.099  84.461
38722DA     SC351681  87.200  67.272  84.276
38722DA     SC451682  86.957  67.137  84.311
38723DT     BB151683  86.704  66.897  84.808
38723DT     BB251684  87.032  66.903  84.958
38723DT     BB351685  87.065  67.087  85.047
38723DT     SC151686  87.102  67.202  84.814
38723DT     SC251687  87.309  67.257  84.793
38723DT     SC351688  87.064  67.362  84.607
38724DT     BB151689  87.037  66.998  85.316
38724DT     BB251690  87.367  67.142  85.308
38724DT     BB351691  87.358  67.341  85.364
38724DT     SC151692  87.255  67.410  85.133
38724DT     SC251693  87.400  67.524  85.021
38724DT     SC351694  87.083  67.502  84.955
38725DT     BB151695  87.476  67.291  85.610
38725DT     BB251696  87.694  67.533  85.456
38725DT     BB351697  87.633  67.725  85.504
38725DT     SC151698  87.429  67.710  85.339
38725DT     SC251699  87.463  67.842  85.173
38725DT     SC351700  87.181  67.704  85.251
38726DT     BB151701  87.850  67.751  85.666
38726DT     BB251702  87.879  68.023  85.431
38726DT     BB351703  87.774  68.188  85.500
38726DT     SC151704  87.544  68.078  85.440
38726DT     SC251705  87.456  68.183  85.274
38726DT     SC351706  87.304  67.973  85.469
38727DT     BB151707  88.011  68.308  85.548
38727DT     BB251708  87.838  68.534  85.327
38727DT     BB351709  87.717  68.662  85.436
38727DT     SC151710  87.542  68.471  85.480
38727DT     SC251711  87.362  68.514  85.371
38727DT     SC351712  87.393  68.296  85.609
38728DT     BB151713  87.889  68.862  85.380
38728DT     BB251714  87.569  68.981  85.261
38728DT     BB351715  87.466  69.072  85.416
38728DT     SC151716  87.410  68.840  85.525
38728DT     SC251717  87.199  68.802  85.506
38728DT     SC351718  87.404  68.643  85.701
38729DC     BB151719  87.510  69.320  85.307
38729DC     BB251720  87.151  69.302  85.341
38729DC     BB351721  87.095  69.369  85.529
38729DC     SC151722  87.180  69.147  85.642
38729DC     SC251723  87.011  69.034  85.713
38729DC     SC351724  87.320  68.984  85.794
38730DT     BB151725  86.994  69.603  85.426
38730DT     BB251726  86.717  69.461  85.608
38730DT     BB351727  86.723  69.524  85.805
38730DT     SC151728  86.922  69.362  85.859
38730DT     SC251729  86.853  69.204  85.988
38730DT     SC351730  87.163  69.279  85.929
38731DC     BB151731  86.509  69.691  85.767
38731DC     BB251732  86.407  69.478  86.040
38731DC     BB351733  86.469  69.559  86.220
38731DC     SC151734  86.717  69.487  86.175
38731DC     SC251735  86.772  69.330  86.311
38731DC     SC351736  86.977  69.506  86.131
38732DT     BB151737  86.213  69.634  86.288
38732DT     BB251738  86.320  69.427  86.563
38732DT     BB351739  86.416  69.542  86.705
38732DT     SC151740  86.631  69.562  86.555
38732DT     SC251741  86.791  69.450  86.645
38732DT     SC351742  86.821  69.669  86.408
38733DA     BB151743  86.119  69.332  86.914
38733DA     BB251744  86.433  69.291  87.097
38733DA     BB351745  86.483  69.470  87.201
38733DA     SC151746  86.650  69.589  86.966
38733DA     SC251747  86.889  69.638  86.915
38733DA     SC351748  86.797  69.797  86.736
38733DA     SC451749  86.573  69.684  86.861
38734DT     BB151750  86.483  69.479  87.412
38734DT     BB251751  86.841  69.479  87.453
38734DT     BB351752  86.906  69.667  87.512
38734DT     SC151753  86.871  69.762  87.269
38734DT     SC251754  87.063  69.804  87.181
38734DT     SC351755  86.776  69.908  87.071
38735DT     BB151756  86.957  69.582  87.768
38735DT     BB251757  87.272  69.713  87.653
38735DT     BB351758  87.283  69.916  87.694
38735DT     SC151759  87.118  69.972  87.498
38735DT     SC251760  87.224  70.073  87.341
38735DT     SC351761  86.902  70.058  87.373
38736DT     BB151762  87.466  69.870  87.891
38736DT     BB251763  87.632  70.096  87.663
38736DT     BB351764  87.588  70.292  87.713
38736DT     SC151765  87.346  70.271  87.614
38736DT     SC251766  87.331  70.390  87.436
38736DT     SC351767  87.083  70.265  87.602
38737DC     BB151768  87.842  70.319  87.800
38737DC     BB251769  87.803  70.572  87.546
38737DC     BB351770  87.722  70.743  87.629
38737DC     SC151771  87.484  70.633  87.644
38737DC     SC251772  87.353  70.728  87.502
38737DC     SC351773  87.262  70.536  87.747
38738DA     BB151774  88.064  70.839  87.406
38738DA     BB251775  87.794  71.065  87.304
38738DA     BB351776  87.753  71.206  87.459
38738DA     SC151777  87.538  71.030  87.598
38738DA     SC251778  87.290  71.033  87.631
38738DA     SC351779  87.335  70.873  87.826
38738DA     SC451780  87.586  70.933  87.716
38739DA     BB151781  87.796  71.387  87.191
38739DA     BB251782  87.454  71.506  87.247
38739DA     BB351783  87.447  71.634  87.418
38739DA     SC151784  87.387  71.404  87.618
38739DA     SC251785  87.196  71.326  87.758
38739DA     SC351786  87.373  71.199  87.893
38739DA     SC451787  87.512  71.333  87.690
38740DT     BB151788  87.400  71.802  87.368
38740DT     BB251789  87.066  71.800  87.505
38740DT     BB351790  87.065  71.891  87.691
38740DT     SC151791  87.180  71.682  87.802
38740DT     SC251792  87.038  71.584  87.932
38740DT     SC351793  87.359  71.535  87.928
38741DC     BB151794  86.935  72.095  87.578
38741DC     BB251795  86.724  71.994  87.852
38741DC     BB351796  86.787  72.085  88.027
38741DC     SC151797  86.993  71.924  88.045
38741DC     SC251798  86.965  71.790  88.211
38741DC     SC351799  87.244  71.842  88.054
38742DA     BB151800  86.375  72.164  87.993
38742DA     BB251801  86.440  72.050  88.336
38742DA     BB351802  86.540  72.203  88.447
38742DA     SC151803  86.825  72.102  88.373
38742DA     SC251804  87.018  71.993  88.487
38742DA     SC351805  87.158  72.081  88.291
38742DA     SC451806  86.895  72.166  88.243
38743DG     BB151807  86.294  72.210  88.646
38743DG     BB251808  86.538  72.100  88.889
38743DG     BB351809  86.634  72.257  88.964
38743DG     SC151810  86.855  72.253  88.752
38743DG     SC251811  87.143  72.190  88.799
38743DG     SC351812  87.101  72.290  88.524
38743DG     SC451813  86.834  72.334  88.615
38744DG     BB151814  86.542  72.209  89.287
38744DG     BB251815  86.893  72.162  89.362
38744DG     BB351816  86.978  72.337  89.403
38744DG     SC151817  87.055  72.395  89.113
38744DG     SC251818  87.333  72.409  89.005
38744DG     SC351819  87.137  72.501  88.803
38744DG     SC451820  86.951  72.471  89.018
38745DA     BB151821  87.104  72.229  89.716
38745DA     BB251822  87.449  72.285  89.604
38745DA     BB351823  87.501  72.491  89.625
38745DA     SC151824  87.407  72.569  89.339
38745DA     SC251825  87.511  72.640  89.123
38745DA     SC351826  87.279  72.732  89.065
38745DA     SC451827  87.256  72.621  89.321
38746DT     BB151828  87.653  72.570  89.770
38746DT     BB251829  87.911  72.626  89.524
38746DT     BB351830  87.942  72.829  89.498
38746DT     SC151831  87.719  72.853  89.362
38746DT     SC251832  87.766  72.896  89.156
38746DT     SC351833  87.475  72.930  89.296
38747DA     BB151834  88.317  72.663  89.578
38747DA     BB251835  88.346  72.865  89.273
38747DA     BB351836  88.349  73.072  89.322
38747DA     SC151837  88.041  73.107  89.300
38747DA     SC251838  87.878  73.219  89.149
38747DA     SC351839  87.714  73.202  89.346
38747DA     SC451840  87.954  73.088  89.435
38748DA     BB151841  88.614  73.035  89.139
38748DA     BB251842  88.456  73.269  88.905
38748DA     BB351843  88.463  73.467  88.982
38748DA     SC151844  88.188  73.446  89.128
38748DA     SC251845  87.959  73.541  89.103
38748DA     SC351846  87.928  73.474  89.349
38748DA     SC451847  88.189  73.398  89.281
38749DA     BB151848  88.582  73.479  88.681
38749DA     BB251849  88.306  73.710  88.610
38749DA     BB351850  88.338  73.896  88.709
38749DA     SC151851  88.186  73.813  88.967
38749DA     SC251852  87.973  73.871  89.083
38749DA     SC351853  88.083  73.772  89.292
38749DA     SC451854  88.272  73.748  89.087
38750DT     BB151855  88.354  74.015  88.583
38750DT     BB251856  88.036  74.179  88.634
38750DT     BB351857  88.060  74.343  88.758
38750DT     SC151858  88.085  74.189  88.969
38750DT     SC251859  87.912  74.212  89.095
38750DT     SC351860  88.193  74.073  89.181
38751DT     BB151861  88.004  74.464  88.537
38751DT     BB251862  87.760  74.579  88.776
38751DT     BB351863  87.845  74.722  88.900
38751DT     SC151864  87.980  74.539  89.032
38751DT     SC251865  87.899  74.521  89.230
38751DT     SC351866  88.184  74.403  89.129
38752DG     BB151867  87.508  74.868  88.721
38752DG     BB251868  87.504  74.920  89.079
38752DG     BB351869  87.632  75.065  89.128
38752DG     SC151870  87.870  74.876  89.165
38752DG     SC251871  88.009  74.817  89.422
38752DG     SC351872  88.157  74.702  89.194
38752DG     SC451873  87.962  74.842  89.038
38753DA     BB151874  87.366  75.211  89.303
38753DA     BB251875  87.565  75.203  89.611
38753DA     BB351876  87.717  75.352  89.605
38753DA     SC151877  87.930  75.164  89.477
38753DA     SC251878  88.143  75.054  89.545
38753DA     SC351879  88.189  75.034  89.293
38753DA     SC451880  87.941  75.163  89.317
38754DA     BB151881  87.592  75.462  89.895
38754DA     BB251882  87.919  75.394  90.046
38754DA     BB351883  88.058  75.547  89.993
38754DA     SC151884  88.159  75.402  89.738
38754DA     SC251885  88.367  75.288  89.660
38754DA     SC351886  88.276  75.327  89.424
38754DA     SC451887  88.086  75.437  89.599
38755DA     BB151888  88.113  75.599  90.321
38755DA     BB251889  88.462  75.502  90.263
38755DA     BB351890  88.572  75.665  90.180
38755DA     SC151891  88.513  75.585  89.885
38755DA     SC251892  88.639  75.495  89.690
38755DA     SC351893  88.446  75.587  89.548
38755DA     SC451894  88.384  75.650  89.814
38756DA     BB151895  88.791  75.644  90.434
38756DA     BB251896  89.048  75.557  90.186
38756DA     BB351897  89.124  75.733  90.094
38756DA     SC151898  88.916  75.730  89.862
38756DA     SC251899  88.915  75.689  89.616
38756DA     SC351900  88.693  75.818  89.616
38756DA     SC451901  88.780  75.814  89.883
38757DT     BB151902  89.332  75.808  90.118
38757DT     BB251903  89.447  75.694  89.796
38757DT     BB351904  89.482  75.856  89.672
38757DT     SC151905  89.225  75.894  89.636
38757DT     SC251906  89.173  75.844  89.433
38757DT     SC351907  88.989  76.011  89.642
38758DT     BB151908  89.752  75.817  89.689
38758DT     BB251909  89.675  75.783  89.338
38758DT     BB351910  89.681  75.968  89.246
38758DT     SC151911  89.452  76.038  89.354
38758DT     SC251912  89.302  76.050  89.201
38758DT     SC351913  89.277  76.170  89.501
38759DT     BB151914  89.896  75.872  89.128
38759DT     BB251915  89.662  75.946  88.863
38759DT     BB351916  89.673  76.147  88.814
38759DT     SC151917  89.544  76.215  89.032
38759DT     SC251918  89.348  76.288  88.979
38759DT     SC351919  89.493  76.324  89.267
38760DG     BB151920  89.707  75.873  88.512
38760DG     BB251921  89.445  76.115  88.453
38760DG     BB351922  89.525  76.293  88.415
38760DG     SC151923  89.530  76.381  88.708
38760DG     SC251924  89.367  76.601  88.828
38760DG     SC351925  89.569  76.502  89.020
38760DG     SC451926  89.658  76.346  88.797
38761DG     BB151927  89.332  76.241  88.164
38761DG     BB251928  89.164  76.542  88.273
38761DG     BB351929  89.274  76.701  88.228
38761DG     SC151930  89.426  76.699  88.494
38761DG     SC251931  89.408  76.907  88.708
38761DG     SC351932  89.626  76.716  88.765
38761DG     SC451933  89.561  76.613  88.506
38762DA     BB151934  88.963  76.790  88.111
38762DA     BB251935  88.980  77.092  88.318
38762DA     BB351936  89.130  77.224  88.244
38762DA     SC151937  89.357  77.104  88.421
38762DA     SC251938  89.495  77.174  88.616
38762DA     SC351939  89.657  76.990  88.542
38762DA     SC451940  89.446  76.986  88.357
38763DT     BB151941  89.056  77.379  88.184
38763DT     BB251942  89.175  77.596  88.446
38763DT     BB351943  89.346  77.694  88.384
38763DT     SC151944  89.491  77.477  88.413
38763DT     SC251945  89.626  77.503  88.579
38763DT     SC351946  89.645  77.272  88.352
38764DT     BB151947  89.200  77.918  88.369
38764DT     BB251948  89.476  78.005  88.585
38764DT     BB351949  89.639  78.062  88.472
38764DT     SC151950  89.689  77.814  88.404
38764DT     SC251951  89.871  77.749  88.498
38764DT     SC351952  89.720  77.599  88.253
38765DC     BB151953  89.599  78.318  88.549
38765DC     BB251954  89.941  78.250  88.640
38765DC     BB351955  90.066  78.286  88.478
38765DC     SC151956  89.988  78.065  88.359
38765DC     SC251957  90.150  77.924  88.359
38765DC     SC351958  89.880  77.905  88.180
38766DG     BB151959  90.198  78.525  88.781
38766DG     BB251960  90.469  78.333  88.637
38766DG     BB351961  90.526  78.415  88.465
38766DG     SC151962  90.331  78.253  88.294
38766DG     SC251963  90.404  78.044  88.094
38766DG     SC351964  90.115  78.107  88.080
38766DG     SC451965  90.183  78.310  88.270
38767DA     BB151966  90.856  78.417  88.584
38767DA     BB251967  90.965  78.214  88.298
38767DA     BB351968  90.978  78.335  88.123
38767DA     SC151969  90.685  78.281  88.034
38767DA     SC251970  90.567  78.158  87.852
38767DA     SC351971  90.367  78.308  87.907
38767DA     SC451972  90.572  78.385  88.082
38768DA     BB151973  91.293  78.227  88.097
38768DA     BB251974  91.206  78.087  87.769
38768DA     BB351975  91.200  78.241  87.622
38768DA     SC151976  90.897  78.302  87.663
38768DA     SC251977  90.684  78.273  87.537
38768DA     SC351978  90.591  78.454  87.693
38768DA     SC451979  90.858  78.417  87.769
38769DT     BB151980  91.348  78.274  87.445
38769DT     BB251981  91.126  78.167  87.181
38769DT     BB351982  91.072  78.330  87.065
38769DT     SC151983  90.909  78.418  87.250
38769DT     SC251984  90.706  78.396  87.184
38769DT     SC351985  90.805  78.576  87.434
38770DT     BB151986  91.240  78.286  86.827
38770DT     BB251987  90.908  78.309  86.687
38770DT     BB351988  90.870  78.504  86.627
38770DT     SC151989  90.839  78.583  86.876
38770DT     SC251990  90.632  78.631  86.910
38770DT     SC351991  90.880  78.712  87.102
38771DT     BB151992  90.895  78.467  86.343
38771DT     BB251993  90.563  78.602  86.382
38771DT     BB351994  90.567  78.808  86.363
38771DT     SC151995  90.674  78.836  86.601
38771DT     SC251996  90.531  78.925  86.734
38771DT     SC351997  90.849  78.897  86.789
38772DA     BB151998  90.275  78.675  86.094
38772DA     BB251999  90.126  78.940  86.299
38772DA     BB352000  90.199  79.130  86.238
38772DA     SC152001  90.439  79.128  86.437
38772DA     SC252002  90.508  79.248  86.644
38772DA     SC352003  90.745  79.169  86.587
38772DA     SC452004  90.579  79.070  86.383
38773DA     BB152005  89.877  79.186  86.219
38773DA     BB252006  89.927  79.443  86.476
38773DA     BB352007  90.019  79.616  86.392
38773DA     SC152008  90.309  79.520  86.448
38773DA     SC252009  90.498  79.582  86.599
38773DA     SC352010  90.646  79.455  86.432
38773DA     SC452011  90.384  79.437  86.332
38774DA     BB152012  89.757  79.751  86.536
38774DA     BB252013  89.995  79.943  86.739
38774DA     BB352014  90.085  80.096  86.621
38774DA     SC152015  90.324  79.919  86.530
38774DA     SC252016  90.570  79.906  86.570
38774DA     SC352017  90.578  79.771  86.352
38774DA     SC452018  90.308  79.839  86.392
38775DA     BB152019  89.975  80.287  86.867
38775DA     BB252020  90.326  80.374  86.930
38775DA     BB352021  90.396  80.512  86.782
38775DA     SC152022  90.498  80.291  86.589
38775DA     SC252023  90.717  80.204  86.507
38775DA     SC352024  90.582  80.105  86.313
38775DA     SC452025  90.397  80.238  86.476
38776DT     BB152026  90.448  80.718  86.827
38776DT     BB252027  90.806  80.672  86.809
38776DT     BB352028  90.880  80.763  86.639
38776DT     SC152029  90.785  80.572  86.486
38776DT     SC252030  90.948  80.457  86.406
38776DT     SC352031  90.641  80.450  86.301
38777DG     BB152032  91.079  80.961  86.938
38777DG     BB252033  91.310  80.817  86.700
38777DG     BB352034  91.329  80.937  86.542
38777DG     SC152035  91.099  80.807  86.386
38777DG     SC252036  91.126  80.651  86.133
38777DG     SC352037  90.841  80.703  86.196
38777DG     SC452038  90.951  80.863  86.407
38778DT     BB152039  91.528  81.035  86.484
38778DT     BB252040  91.622  80.811  86.216
38778DT     BB352041  91.603  80.907  86.034
38778DT     SC152042  91.341  80.888  86.042
38778DT     SC252043  91.275  80.749  85.892
38778DT     SC352044  91.087  80.959  86.052
38779DA     BB152045  91.952  80.692  86.114
38779DA     BB252046  91.803  80.573  85.801
38779DA     BB352047  91.817  80.724  85.651
38779DA     SC152048  91.541  80.851  85.719
38779DA     SC252049  91.315  80.869  85.615
38779DA     SC352050  91.281  81.068  85.773
38779DA     SC452051  91.539  80.972  85.824
38780DA     BB152052  91.858  80.379  85.649
38780DA     BB252053  91.605  80.404  85.385
38780DA     BB352054  91.666  80.547  85.238
38780DA     SC152055  91.526  80.787  85.378
38780DA     SC252056  91.330  80.936  85.337
38780DA     SC352057  91.444  81.097  85.501
38780DA     SC452058  91.613  80.874  85.481
38781DA     BB152059  91.484  80.228  85.223
38781DA     BB252060  91.268  80.434  85.010
38781DA     BB352061  91.385  80.543  84.868
38781DA     SC152062  91.420  80.791  85.052
38781DA     SC252063  91.342  81.028  85.060
38781DA     SC352064  91.541  81.068  85.216
38781DA     SC452065  91.550  80.796  85.147
38782DT     BB152066  91.290  80.469  84.778
38782DT     BB252067  91.140  80.766  84.637
38782DT     BB352068  91.280  80.869  84.525
38782DT     SC152069  91.400  80.957  84.741
38782DT     SC252070  91.367  81.169  84.760
38782DT     SC352071  91.587  80.995  84.923
38783DT     BB152072  91.127  80.786  84.332
38783DT     BB252073  91.159  81.142  84.285
38783DT     BB352074  91.343  81.186  84.200
38783DT     SC152075  91.467  81.143  84.428
38783DT     SC252076  91.541  81.329  84.505
38783DT     SC352077  91.628  81.033  84.605
38784DC     BB152078  91.230  81.239  83.956
38784DC     BB252079  91.427  81.533  84.027
38784DC     BB352080  91.621  81.506  83.962
38784DC     SC152081  91.674  81.346  84.163
38784DC     SC252082  91.811  81.444  84.298
38784DC     SC352083  91.738  81.128  84.297
38785DT     BB152084  91.599  81.671  83.736
38785DT     BB252085  91.883  81.806  83.912
38785DT     BB352086  92.057  81.713  83.849
38785DT     SC152087  91.998  81.495  83.982
38785DT     SC252088  92.135  81.473  84.147
38785DT     SC352089  91.938  81.243  84.032
38786DT     BB152090  92.148  81.931  83.699
38786DT     BB252091  92.418  81.863  83.929
38786DT     BB352092  92.551  81.728  83.844
38786DT     SC152093  92.384  81.529  83.884
38786DT     SC252094  92.463  81.399  84.036
38786DT     SC352095  92.221  81.329  83.833
38787DT     BB152096  92.741  81.923  83.805
38787DT     BB252097  92.907  81.675  84.008
38787DT     BB352098  92.994  81.531  83.887
38787DT     SC152099  92.761  81.423  83.835
38787DT     SC252100  92.749  81.230  83.929
38787DT     SC352101  92.550  81.341  83.699
38788DA     BB152102  93.286  81.670  84.153
38788DA     BB252103  93.289  81.303  84.163
38788DA     BB352104  93.375  81.225  83.984
38788DA     SC152105  93.104  81.207  83.832
38788DA     SC252106  92.950  81.029  83.749
38788DA     SC352107  92.857  81.211  83.593
38788DA     SC452108  93.061  81.333  83.742
38789DA     BB152109  93.555  81.071  84.211
38789DA     BB252110  93.426  80.758  84.070
38789DA     BB352111  93.518  80.718  83.882
38789DA     SC152112  93.300  80.867  83.717
38789DA     SC252113  93.117  80.809  83.558
38789DA     SC352114  93.132  81.054  83.484
38789DA     SC452115  93.326  81.022  83.684
38790DA     BB152116  93.580  80.433  84.035
38790DA     BB252117  93.387  80.272  83.769
38790DA     BB352118  93.498  80.268  83.587
38790DA     SC152119  93.387  80.541  83.486
38790DA     SC252120  93.235  80.623  83.306
38790DA     SC352121  93.350  80.850  83.341
38790DA     SC452122  93.471  80.673  83.522
38791DA     BB152123  93.442  79.942  83.594
38791DA     BB252124  93.265  79.981  83.275
38791DA     BB352125  93.405  80.001  83.115
38791DA     SC152126  93.418  80.311  83.131
38791DA     SC252127  93.345  80.507  82.995
38791DA     SC352128  93.520  80.639  83.128
38791DA     SC452129  93.533  80.375  83.224
38792DA     BB152130  93.241  79.746  82.981
38792DA     BB252131  93.156  79.968  82.701
38792DA     BB352132  93.322  79.988  82.569
38792DA     SC152133  93.440  80.236  82.715
38792DA     SC252134  93.469  80.480  82.670
38792DA     SC352135  93.649  80.471  82.853
38792DA     SC452136  93.549  80.210  82.830
38793DT     BB152137  93.312  79.911  82.376
38793DT     BB252138  93.274  80.228  82.207
38793DT     BB352139  93.450  80.278  82.110
38793DT     SC152140  93.566  80.341  82.337
38793DT     SC252141  93.597  80.554  82.344
38793DT     SC352142  93.735  80.336  82.539
38794DA     BB152143  93.140  80.308  81.830
38794DA     BB252144  93.337  80.617  81.813
38794DA     BB352145  93.524  80.580  81.717
38794DA     SC152146  93.674  80.513  81.981
38794DA     SC252147  93.851  80.616  82.125
38794DA     SC352148  93.883  80.379  82.219
38794DA     SC452149  93.680  80.359  82.026
38795DA     BB152150  93.415  80.831  81.538
38795DA     BB252151  93.712  81.014  81.649
38795DA     BB352152  93.886  80.942  81.548
38795DA     SC152153  93.952  80.728  81.763
38795DA     SC252154  94.126  80.689  81.938
38795DA     SC352155  94.051  80.444  81.928
38795DA     SC452156  93.892  80.580  81.742
38796DA     BB152157  93.913  81.262  81.482
38796DA     BB252158  94.235  81.251  81.658
38796DA     BB352159  94.382  81.155  81.537
38796DA     SC152160  94.324  80.871  81.650
38796DA     SC252161  94.438  80.703  81.795
38796DA     SC352162  94.278  80.533  81.689
38796DA     SC452163  94.217  80.780  81.572
38797DT     BB152164  94.539  81.264  81.467
38797DT     BB252165  94.791  81.127  81.686
38797DT     BB352166  94.911  80.996  81.581
38797DT     SC152167  94.724  80.812  81.580
38797DT     SC252168  94.783  80.649  81.707
38797DT     SC352169  94.543  80.643  81.490
38798DT     BB152170  95.122  81.173  81.580
38798DT     BB252171  95.258  80.875  81.731
38798DT     BB352172  95.332  80.749  81.585
38798DT     SC152173  95.090  80.677  81.513
38798DT     SC252174  95.057  80.472  81.570
38798DT     SC352175  94.875  80.645  81.365
38799DA     BB152176  95.654  80.798  81.850
38799DA     BB252177  95.614  80.438  81.792
38799DA     BB352178  95.691  80.385  81.599
38799DA     SC152179  95.419  80.427  81.453
38799DA     SC252180  95.246  80.286  81.342
38799DA     SC352181  95.174  80.503  81.225
38799DA     SC452182  95.391  80.572  81.389
38800DC     BB152183  95.863  80.262  81.578
38800DC     BB252184  95.685  79.964  81.480
38800DC     BB352185  95.716  79.926  81.278
38800DC     SC152186  95.554  80.121  81.209
38800DC     SC252187  95.376  80.038  81.122
38800DC     SC352188  95.469  80.348  81.105
38801DG     BB152189  95.848  79.595  81.475
38801DG     BB252190  95.606  79.508  81.220
38801DG     BB352191  95.694  79.505  81.042
38801DG     SC152192  95.640  79.800  80.983
38801DG     SC252193  95.459  79.906  80.770
38801DG     SC352194  95.615  80.125  80.894
38801DG     SC452195  95.747  79.910  81.030
38802DT     BB152196  95.700  79.319  80.928
38802DT     BB252197  95.450  79.383  80.676
38802DT     BB352198  95.541  79.428  80.496
38802DT     SC152199  95.607  79.668  80.580
38802DT     SC252200  95.491  79.815  80.474
38802DT     SC352201  95.755  79.874  80.653
38803DA     BB152202  95.259  79.126  80.431
38803DA     BB252203  95.205  79.388  80.180
38803DA     BB352204  95.360  79.384  80.034
38803DA     SC152205  95.542  79.585  80.187
38803DA     SC252206  95.622  79.819  80.159
38803DA     SC352207  95.809  79.753  80.322
38803DA     SC452208  95.651  79.524  80.288
38804DT     BB152209  95.307  79.335  79.850
38804DT     BB252210  95.333  79.665  79.707
38804DT     BB352211  95.506  79.681  79.595
38804DT     SC152212  95.654  79.695  79.812
38804DT     SC252213  95.735  79.893  79.829
38804DT     SC352214  95.834  79.632  79.994
38805DG     BB152215  95.193  79.768  79.350
38805DG     BB252216  95.445  80.027  79.340
38805DG     BB352217  95.597  79.969  79.227
38805DG     SC152218  95.751  79.839  79.458
38805DG     SC252219  96.011  79.932  79.570
38805DG     SC352220  95.936  79.669  79.683
38805DG     SC452221  95.722  79.685  79.493
38806DA     BB152222  95.556  80.270  79.061
38806DA     BB252223  95.900  80.365  79.148
38806DA     BB352224  96.039  80.259  79.025
38806DA     SC152225  96.069  80.020  79.221
38806DA     SC252226  96.243  79.926  79.373
38806DA     SC352227  96.108  79.708  79.360
38806DA     SC452228  95.972  79.893  79.199
38807DA     BB152229  96.138  80.567  78.974
38807DA     BB252230  96.461  80.465  79.114
38807DA     BB352231  96.569  80.345  78.974
38807DA     SC152232  96.452  80.076  79.077
38807DA     SC252233  96.533  79.875  79.200
38807DA     SC352234  96.327  79.757  79.102
38807DA     SC452235  96.319  80.020  79.006
38808DC     BB152236  96.736  80.422  78.902
38808DC     BB252237  96.964  80.211  79.086
38808DC     BB352238  97.041  80.065  78.961
38808DC     SC152239  96.816  79.931  78.966
38808DC     SC252240  96.844  79.748  79.076
38808DC     SC352241  96.593  79.817  78.883
38809DT     BB152242  97.275  80.195  78.971
38809DT     BB252243  97.351  79.861  79.085
38809DT     BB352244  97.386  79.738  78.923
38809DT     SC152245  97.130  79.727  78.865
38809DT     SC252246  97.056  79.529  78.906
38809DT     SC352247  96.904  79.757  78.733
38810DT     BB152248  97.646  79.736  78.990
38810DT     BB252249  97.552  79.388  78.983
38810DT     BB352250  97.566  79.314  78.790
38810DT     SC152251  97.347  79.440  78.718
38810DT     SC252252  97.191  79.296  78.682
38810DT     SC352253  97.187  79.607  78.592
38811DA     BB152254  97.789  79.050  79.028
38811DA     BB252255  97.568  78.848  78.816
38811DA     BB352256  97.641  78.846  78.615
38811DA     SC152257  97.477  79.095  78.527
38811DA     SC252258  97.283  79.146  78.379
38811DA     SC352259  97.372  79.387  78.380
38811DA     SC452260  97.549  79.239  78.539
38812DC     BB152261  97.717  78.668  78.525
38812DC     BB252262  97.433  78.606  78.310
38812DC     BB352263  97.483  78.647  78.113
38812DC     SC152264  97.473  78.905  78.156
38812DC     SC252265  97.303  78.988  78.053
38812DC     SC352266  97.550  79.157  78.179
38813DA     BB152267  97.328  78.258  78.111
38813DA     BB252268  97.156  78.447  77.849
38813DA     BB352269  97.285  78.474  77.681
38813DA     SC152270  97.401  78.744  77.783
38813DA     SC252271  97.390  78.986  77.721
38813DA     SC352272  97.606  79.010  77.857
38813DA     SC452273  97.536  78.739  77.871
38814DC     BB152274  97.235  78.384  77.506
38814DC     BB252275  97.120  78.682  77.339
38814DC     BB352276  97.259  78.742  77.197
38814DC     SC152277  97.420  78.834  77.383
38814DC     SC252278  97.426  79.049  77.373
38814DC     SC352279  97.634  78.860  77.535
38815DT     BB152280  97.079  78.666  77.019
38815DT     BB252281  97.139  79.015  76.950
38815DT     BB352282  97.307  79.035  76.830
38815DT     SC152283  97.467  78.983  77.031
38815DT     SC252284  97.574  79.161  77.084
38815DT     SC352285  97.647  78.860  77.179
38816DG     BB152286  96.973  79.219  76.686
38816DG     BB252287  97.258  79.442  76.699
38816DG     BB352288  97.387  79.394  76.556
38816DG     SC152289  97.544  79.196  76.730
38816DG     SC252290  97.825  79.229  76.824
38816DG     SC352291  97.725  78.958  76.885
38816DG     SC452292  97.497  79.043  76.734
38817DT     BB152293  97.411  79.546  76.447
38817DT     BB252294  97.749  79.651  76.519
38817DT     BB352295  97.881  79.559  76.388
38817DT     SC152296  97.859  79.330  76.513
38817DT     SC252297  98.044  79.286  76.614
38817DT     SC352298  97.802  79.076  76.559
38818DT     BB152299  97.904  79.802  76.294
38818DT     BB252300  98.242  79.694  76.355
38818DT     BB352301  98.306  79.572  76.201
38818DT     SC152302  98.161  79.372  76.289
38818DT     SC252303  98.290  79.218  76.367
38818DT     SC352304  97.975  79.185  76.298
38819DT     BB152305  98.467  79.766  76.080
38819DT     BB252306  98.689  79.482  76.097
38819DT     BB352307  98.665  79.363  75.929
38819DT     SC152308  98.437  79.269  76.017
38819DT     SC252309  98.460  79.062  76.069
38819DT     SC352310  98.178  79.218  76.030
38820DT     BB152311  98.894  79.432  75.707
38820DT     BB252312  98.913  79.072  75.710
38820DT     BB352313  98.806  78.994  75.551
38820DT     SC152314  98.578  79.044  75.669
38820DT     SC252315  98.485  78.859  75.727
38820DT     SC352316  98.341  79.149  75.716
38821DT     BB152317  98.984  78.910  75.254
38821DT     BB252318  98.803  78.603  75.313
38821DT     BB352319  98.646  78.587  75.180
38821DT     SC152320  98.507  78.768  75.310
38821DT     SC252321  98.339  78.673  75.406
38821DT     SC352322  98.378  78.992  75.362
38822DG     BB152323  98.826  78.245  74.996
38822DG     BB252324  98.492  78.161  75.106
38822DG     BB352325  98.362  78.191  74.958
38822DG     SC152326  98.306  78.482  75.034
38822DG     SC252327  98.047  78.589  75.137
38822DG     SC352328  98.236  78.809  75.077
38822DG     SC452329  98.398  78.598  74.973
38823DT     BB152330  98.214  78.021  74.835
38823DT     BB252331  97.906  78.086  75.011
38823DT     BB352332  97.768  78.169  74.882
38823DT     SC152333  97.891  78.401  74.887
38823DT     SC252334  97.771  78.544  74.992
38823DT     SC352335  98.026  78.612  74.804
38824DG     BB152336  97.611  77.830  75.042
38824DG     BB252337  97.399  78.117  75.101
38824DG     BB352338  97.295  78.160  74.937
38824DG     SC152339  97.506  78.350  74.824
38824DG     SC252340  97.476  78.645  74.788
38824DG     SC352341  97.725  78.548  74.660
38824DG     SC452342  97.623  78.290  74.731
38825DA     BB152343  97.044  78.155  75.170
38825DA     BB252344  96.966  78.503  75.085
38825DA     BB352345  96.874  78.514  74.893
38825DA     SC152346  97.142  78.549  74.739
38825DA     SC252347  97.260  78.728  74.611
38825DA     SC352348  97.395  78.536  74.507
38825DA     SC452349  97.214  78.416  74.684
38826DA     BB152350  96.672  78.681  75.088
38826DA     BB252351  96.735  78.967  74.868
38826DA     BB352352  96.640  78.938  74.679
38826DA     SC152353  96.887  78.800  74.550
38826DA     SC252354  97.057  78.852  74.375
38826DA     SC352355  97.096  78.598  74.366
38826DA     SC452356  96.896  78.639  74.558
38827DA     BB152357  96.522  79.232  74.762
38827DA     BB252358  96.680  79.358  74.455
38827DA     BB352359  96.571  79.292  74.284
38827DA     SC152360  96.736  79.031  74.248
38827DA     SC252361  96.903  78.939  74.087
38827DA     SC352362  96.838  78.710  74.183
38827DA     SC452363  96.681  78.898  74.320
38828DA     BB152364  96.566  79.615  74.216
38828DA     BB252365  96.749  79.534  73.908
38828DA     BB352366  96.617  79.449  73.764
38828DA     SC152367  96.666  79.156  73.856
38828DA     SC252368  96.778  78.951  73.768
38828DA     SC352369  96.632  78.824  73.937
38828DA     SC452370  96.566  79.095  73.966
38829DT     BB152371  96.570  79.551  73.585
38829DT     BB252372  96.772  79.347  73.367
38829DT     BB352373  96.651  79.225  73.252
38829DT     SC152374  96.602  79.067  73.456
38829DT     SC252375  96.697  78.877  73.425
38829DT     SC352376  96.468  78.941  73.645
38830DA     BB152377  96.913  79.427  72.995
38830DA     BB252378  96.929  79.069  72.915
38830DA     BB352379  96.751  79.008  72.813
38830DA     SC152380  96.599  78.931  73.073
38830DA     SC252381  96.519  78.723  73.185
38830DA     SC352382  96.359  78.878  73.314
38830DA     SC452383  96.507  79.044  73.141
38831DT     BB152384  96.775  78.949  72.627
38831DT     BB252385  96.736  78.596  72.690
38831DT     BB352386  96.549  78.533  72.628
38831DT     SC152387  96.434  78.646  72.835
38831DT     SC252388  96.360  78.494  72.968
38831DT     SC352389  96.280  78.808  72.976
38832DG     BB152390  96.838  78.313  72.445
38832DG     BB252391  96.595  78.103  72.611
38832DG     BB352392  96.428  78.095  72.504
38832DG     SC152393  96.300  78.338  72.639
38832DG     SC252394  96.059  78.334  72.815
38832DG     SC352395  96.139  78.612  72.752
38832DG     SC452396  96.328  78.484  72.579
38833DA     BB152397  96.477  77.760  72.554
38833DA     BB252398  96.149  77.741  72.717
38833DA     BB352399  95.994  77.759  72.573
38833DA     SC152400  95.974  78.069  72.597
38833DA     SC252401  95.813  78.237  72.685
38833DA     SC352402  95.936  78.404  72.534
38833DA     SC452403  96.063  78.157  72.495
38834DT     BB152404  95.899  77.607  72.568
38834DT     BB252405  95.603  77.731  72.732
38834DT     BB352406  95.461  77.784  72.592
38834DT     SC152407  95.593  78.001  72.528
38834DT     SC252408  95.483  78.174  72.595
38834DT     SC352409  95.730  78.176  72.385
38835DA     BB152410  95.305  77.546  72.902
38835DA     BB252411  95.080  77.831  72.847
38835DA     BB352412  94.983  77.813  72.658
38835DA     SC152413  95.202  77.971  72.503
38835DA     SC252414  95.224  78.191  72.389
38835DA     SC352415  95.423  78.085  72.266
38835DA     SC452416  95.321  77.886  72.436
38836DA     BB152417  94.745  77.870  72.877
38836DA     BB252418  94.658  78.159  72.669
38836DA     BB352419  94.581  78.095  72.481
38836DA     SC152420  94.859  78.092  72.340
38836DA     SC252421  94.978  78.223  72.164
38836DA     SC352422  95.129  78.017  72.142
38836DA     SC452423  94.941  77.954  72.341
38837DA     BB152424  94.345  78.304  72.579
38837DA     BB252425  94.402  78.484  72.264
38837DA     BB352426  94.331  78.369  72.099
38837DA     SC152427  94.602  78.224  72.052
38837DA     SC252428  94.784  78.224  71.880
38837DA     SC352429  94.847  77.995  71.978
38837DA     SC452430  94.625  78.083  72.125
38838DT     BB152431  94.165  78.429  71.988
38838DT     BB252432  94.334  78.515  71.681
38838DT     BB352433  94.304  78.367  71.539
38838DT     SC152434  94.474  78.207  71.661
38838DT     SC252435  94.650  78.185  71.539
38838DT     SC352436  94.568  77.999  71.791
38839DA     BB152437  94.138  78.680  71.299
38839DA     BB252438  94.361  78.493  71.077
38839DA     BB352439  94.265  78.315  71.008
38839DA     SC152440  94.370  78.139  71.243
38839DA     SC252441  94.533  77.953  71.275
38839DA     SC352442  94.405  77.906  71.492
38839DA     SC452443  94.277  78.126  71.373
38840DC     BB152444  94.146  78.211  70.763
38840DC     BB252445  94.415  77.981  70.689
38840DC     BB352446  94.344  77.787  70.692
38840DC     SC152447  94.332  77.787  70.955
38840DC     SC252448  94.483  77.655  71.033
38840DC     SC352449  94.232  77.776  71.198
38841DT     BB152450  94.291  77.673  70.388
38841DT     BB252451  94.516  77.425  70.524
38841DT     BB352452  94.410  77.256  70.579
38841DT     SC152453  94.313  77.375  70.791
38841DT     SC252454  94.400  77.288  70.968
38841DT     SC352455  94.139  77.480  70.959
38842DC     BB152456  94.474  77.057  70.359
38842DC     BB252457  94.589  76.892  70.659
38842DC     BB352458  94.445  76.759  70.726
38842DC     SC152459  94.295  76.954  70.816
38842DC     SC252460  94.293  76.949  71.031
38842DC     SC352461  94.088  77.116  70.843
38843DT     BB152462  94.589  76.530  70.649
38843DT     BB252463  94.548  76.496  71.006
38843DT     BB352464  94.375  76.389  71.047
38843DT     SC152465  94.225  76.596  70.987
38843DT     SC252466  94.133  76.672  71.166
38843DT     SC352467  94.046  76.745  70.862
38844DT     BB152468  94.532  76.187  71.127
38844DT     BB252469  94.335  76.274  71.417
38844DT     BB352470  94.154  76.174  71.411
38844DT     SC152471  94.063  76.334  71.224
38844DT     SC252472  93.908  76.459  71.306
38844DT     SC352473  93.971  76.415  70.991
38845DA     BB152474  94.341  76.126  71.783
38845DA     BB252475  93.995  76.234  71.840
38845DA     BB352476  93.859  76.076  71.795
38845DA     SC152477  93.824  76.160  71.497
38845DA     SC252478  93.645  76.258  71.353
38845DA     SC352479  93.780  76.163  71.157
38845DA     SC452480  93.921  76.093  71.389
38846DT     BB152481  93.768  76.019  71.945
38846DT     BB252482  93.450  76.169  71.861
38846DT     BB352483  93.324  76.026  71.781
38846DT     SC152484  93.454  76.026  71.554
38846DT     SC252485  93.331  76.114  71.401
38846DT     SC352486  93.601  75.940  71.352
38847DT     BB152487  93.187  76.049  72.008
38847DT     BB252488  92.950  76.125  71.747
38847DT     BB352489  92.870  75.950  71.671
38847DT     SC152490  93.091  75.897  71.540
38847DT     SC252491  93.056  75.918  71.329
38847DT     SC352492  93.312  75.772  71.466
38848DT     BB152493  92.648  76.027  71.790
38848DT     BB252494  92.560  75.988  71.442
38848DT     BB352495  92.519  75.790  71.402
38848DT     SC152496  92.774  75.727  71.409
38848DT     SC252497  92.841  75.677  71.211
38848DT     SC352498  93.000  75.615  71.487
38849DC     BB152499  92.271  75.874  71.376
38849DC     BB252500  92.351  75.716  71.061
38849DC     BB352501  92.326  75.512  71.077
38849DC     SC152502  92.547  75.487  71.216
38849DC     SC252503  92.695  75.386  71.098
38849DC     SC352504  92.708  75.435  71.418
38850DA     BB152505  92.142  75.672  70.734
38850DA     BB252506  92.334  75.375  70.637
38850DA     BB352507  92.244  75.199  70.717
38850DA     SC152508  92.409  75.205  70.980
38850DA     SC252509  92.592  75.072  71.087
38850DA     SC352510  92.514  75.180  71.306
38850DA     SC452511  92.345  75.281  71.106
38851DG     BB152512  92.245  75.145  70.413
38851DG     BB252513  92.457  74.870  70.514
38851DG     BB352514  92.348  74.726  70.597
38851DG     SC152515  92.370  74.839  70.881
38851DG     SC252516  92.514  74.711  71.109
38851DG     SC352517  92.358  74.945  71.201
38851DG     SC452518  92.263  74.946  70.931
38852DA     BB152519  92.516  74.522  70.373
38852DA     BB252520  92.637  74.319  70.654
38852DA     BB352521  92.477  74.205  70.737
38852DA     SC152522  92.396  74.422  70.944
38852DA     SC252523  92.404  74.454  71.191
38852DA     SC352524  92.223  74.631  71.154
38852DA     SC452525  92.282  74.527  70.900
38853DT     BB152526  92.487  74.008  70.718
38853DT     BB252527  92.564  73.933  71.063
38853DT     BB352528  92.394  73.865  71.160
38853DT     SC152529  92.293  74.107  71.170
38853DT     SC252530  92.292  74.175  71.374
38853DT     SC352531  92.129  74.309  71.128
38854DT     BB152532  92.498  73.615  71.164
38854DT     BB252533  92.428  73.690  71.509
38854DT     BB352534  92.230  73.645  71.553
38854DT     SC152535  92.145  73.858  71.425
38854DT     SC252536  92.067  74.000  71.567
38854DT     SC352537  92.022  74.006  71.246
38855DT     BB152538  92.311  73.431  71.697
38855DT     BB252539  92.115  73.627  71.928
38855DT     BB352540  91.915  73.579  71.909
38855DT     SC152541  91.896  73.712  71.683
38855DT     SC252542  91.776  73.888  71.713
38855DT     SC352543  91.860  73.762  71.427
38856DT     BB152544  91.922  73.451  72.147
38856DT     BB252545  91.661  73.696  72.185
38856DT     BB352546  91.482  73.621  72.114
38856DT     SC152547  91.559  73.651  71.865
38856DT     SC252548  91.445  73.808  71.772
38856DT     SC352549  91.629  73.590  71.617
38857DG     BB152550  91.413  73.718  72.505
38857DG     BB252551  91.166  73.868  72.287
38857DG     BB352552  91.032  73.731  72.233
38857DG     SC152553  91.186  73.641  71.985
38857DG     SC252554  91.100  73.679  71.701
38857DG     SC352555  91.337  73.503  71.716
38857DG     SC452556  91.295  73.524  71.999
38858DC     BB152557  90.809  73.743  72.288
38858DC     BB252558  90.664  73.839  71.972
38858DC     BB352559  90.570  73.676  71.885
38858DC     SC152560  90.800  73.569  71.818
38858DC     SC252561  90.823  73.577  71.604
38858DC     SC352562  91.001  73.398  71.807
38859DC     BB152563  90.310  73.766  71.939
38859DC     BB252564  90.315  73.721  71.581
38859DC     BB352565  90.258  73.527  71.533
38859DC     SC152566  90.490  73.432  71.611
38859DC     SC252567  90.600  73.363  71.440
38859DC     SC352568  90.668  73.295  71.749
38860DA     BB152569  89.997  73.766  71.306
38860DA     BB252570  90.150  73.523  71.079
38860DA     BB352571  90.062  73.330  71.106
38860DA     SC152572  90.267  73.240  71.322
38860DA     SC252573  90.454  73.076  71.342
38860DA     SC352574  90.420  73.098  71.595
38860DA     SC452575  90.229  73.266  71.476
38861DG     BB152576  89.974  73.352  70.807
38861DG     BB252577  90.208  73.080  70.765
38861DG     BB352578  90.119  72.907  70.804
38861DG     SC152579  90.187  72.911  71.103
38861DG     SC252580  90.372  72.722  71.243
38861DG     SC352581  90.227  72.892  71.437
38861DG     SC452582  90.087  72.982  71.205
38862DA     BB152583  90.247  72.815  70.499
38862DA     BB252584  90.439  72.549  70.662
38862DA     BB352585  90.311  72.387  70.715
38862DA     SC152586  90.247  72.498  70.998
38862DA     SC252587  90.298  72.440  71.235
38862DA     SC352588  90.094  72.585  71.294
38862DA     SC452589  90.116  72.591  71.014
38863DT     BB152590  90.351  72.228  70.623
38863DT     BB252591  90.506  72.056  70.899
38863DT     BB352592  90.372  71.921  70.982
38863DT     SC152593  90.238  72.115  71.097
38863DT     SC252594  90.266  72.105  71.310
38863DT     SC352595  90.038  72.277  71.157
38864DT     BB152596  90.524  71.728  70.878
38864DT     BB252597  90.515  71.660  71.232
38864DT     BB352598  90.344  71.553  71.279
38864DT     SC152599  90.195  71.767  71.254
38864DT     SC252600  90.122  71.827  71.447
38864DT     SC352601  90.010  71.932  71.162
38865DC     BB152602  90.498  71.336  71.320
38865DC     BB252603  90.322  71.386  71.632
38865DC     BB352604  90.136  71.295  71.623
38865DC     SC152605  90.042  71.485  71.468
38865DC     SC252606  89.899  71.602  71.577
38865DC     SC352607  89.941  71.605  71.256
38866DA     BB152608  90.324  71.156  71.971
38866DA     BB252609  89.988  71.271  72.062
38866DA     BB352610  89.841  71.133  71.993
38866DA     SC152611  89.802  71.274  71.719
38866DA     SC252612  89.625  71.407  71.603
38866DA     SC352613  89.748  71.344  71.387
38866DA     SC452614  89.891  71.222  71.595
38867DA     BB152615  89.761  71.153  72.309
38867DA     BB252616  89.439  71.287  72.196
38867DA     BB352617  89.318  71.131  72.116
38867DA     SC152618  89.422  71.168  71.825
38867DA     SC252619  89.334  71.249  71.606
38867DA     SC352620  89.527  71.117  71.502
38867DA     SC452621  89.547  71.078  71.779
38868DG     BB152622  89.142  71.236  72.344
38868DG     BB252623  88.930  71.332  72.067
38868DG     BB352624  88.829  71.174  72.001
38868DG     SC152625  89.044  71.092  71.798
38868DG     SC252626  89.015  71.098  71.501
38868DG     SC352627  89.266  70.962  71.581
38868DG     SC452628  89.161  70.994  71.845
38869DA     BB152629  88.588  71.414  72.036
38869DA     BB252630  88.510  71.374  71.680
38869DA     BB352631  88.421  71.183  71.645
38869DA     SC152632  88.691  71.039  71.590
38869DA     SC252633  88.810  70.938  71.395
38869DA     SC352634  88.947  70.812  71.571
38869DA     SC452635  88.764  70.969  71.714
38870DT     BB152636  88.277  71.233  71.587
38870DT     BB252637  88.329  71.133  71.244
38870DT     BB352638  88.270  70.936  71.217
38870DT     SC152639  88.484  70.848  71.341
38870DT     SC252640  88.614  70.751  71.199
38870DT     SC352641  88.635  70.729  71.521
38871DT     BB152642  88.077  71.047  71.079
38871DT     BB252643  88.229  70.808  70.855
38871DT     BB352644  88.157  70.618  70.894
38871DT     SC152645  88.301  70.600  71.112
38871DT     SC252646  88.457  70.454  71.082
38871DT     SC352647  88.364  70.577  71.367
38872DG     BB152648  88.079  70.698  70.501
38872DG     BB252649  88.232  70.373  70.541
38872DG     BB352650  88.097  70.242  70.608
38872DG     SC152651  88.155  70.298  70.904
38872DG     SC252652  88.277  70.106  71.098
38872DG     SC352653  88.178  70.348  71.237
38872DG     SC452654  88.074  70.415  70.978
38873DT     BB152655  88.011  70.051  70.492
38873DT     BB252656  88.166  69.778  70.670
38873DT     BB352657  88.026  69.682  70.789
38873DT     SC152658  88.028  69.879  70.963
38873DT     SC252659  88.120  69.812  71.145
38873DT     SC352660  87.944  70.082  71.109
38874DT     BB152661  87.974  69.441  70.629
38874DT     BB252662  88.057  69.304  70.952
38874DT     BB352663  87.885  69.270  71.061
38874DT     SC152664  87.855  69.526  71.108
38874DT     SC252665  87.891  69.565  71.317
38874DT     SC352666  87.750  69.768  71.107
38875DA     BB152667  88.037  68.874  71.074
38875DA     BB252668  87.951  68.962  71.419
38875DA     BB352669  87.742  68.938  71.452
38875DA     SC152670  87.671  69.230  71.372
38875DA     SC252671  87.590  69.438  71.485
38875DA     SC352672  87.518  69.513  71.250
38875DA     SC452673  87.632  69.258  71.219
38876DT     BB152674  87.625  68.774  71.591
38876DT     BB252675  87.551  69.004  71.859
38876DT     BB352676  87.346  69.032  71.873
38876DT     SC152677  87.344  69.183  71.659
38876DT     SC252678  87.302  69.386  71.715
38876DT     SC352679  87.291  69.266  71.415
38877DC     BB152680  87.308  68.878  72.111
38877DC     BB252681  87.186  69.206  72.199
38877DC     BB352682  86.982  69.217  72.165
38877DC     SC152683  87.018  69.231  71.906
38877DC     SC252684  86.965  69.428  71.837
38877DC     SC352685  87.008  69.167  71.650
38878DA     BB152686  87.065  69.347  72.553
38878DA     BB252687  86.861  69.603  72.388
38878DA     BB352688  86.659  69.538  72.372
38878DA     SC152689  86.697  69.407  72.093
38878DA     SC252690  86.626  69.449  71.858
38878DA     SC352691  86.681  69.202  71.818
38878DA     SC452692  86.736  69.251  72.089
38879DA     BB152693  86.654  69.831  72.507
38879DA     BB252694  86.456  69.934  72.216
38879DA     BB352695  86.261  69.849  72.225
38879DA     SC152696  86.338  69.592  72.067
38879DA     SC252697  86.292  69.492  71.844
38879DA     SC352698  86.365  69.270  71.951
38879DA     SC452699  86.386  69.464  72.152
38880DG     BB152700  86.232  70.152  72.205
38880DG     BB252701  86.069  70.062  71.895
38880DG     BB352702  85.889  69.984  71.933
38880DG     SC152703  85.991  69.696  71.955
38880DG     SC252704  85.927  69.473  71.767
38880DG     SC352705  86.071  69.373  72.005
38880DG     SC452706  86.042  69.642  72.096
38881DA     BB152707  85.825  70.216  71.685
38881DA     BB252708  85.669  69.948  71.489
38881DA     BB352709  85.490  69.881  71.583
38881DA     SC152710  85.633  69.660  71.750
38881DA     SC252711  85.643  69.411  71.756
38881DA     SC352712  85.728  69.440  71.996
38881DA     SC452713  85.683  69.699  71.898
38882DA     BB152714  85.395  69.943  71.274
38882DA     BB252715  85.284  69.593  71.264
38882DA     BB352716  85.115  69.566  71.391
38882DA     SC152717  85.285  69.492  71.641
38882DA     SC252718  85.331  69.290  71.780
38882DA     SC352719  85.407  69.456  71.960
38882DA     SC452720  85.326  69.611  71.741
38883DT     BB152721  84.934  69.523  71.310
38883DT     BB252722  84.912  69.178  71.415
38883DT     BB352723  84.782  69.161  71.575
38883DT     SC152724  84.959  69.266  71.739
38883DT     SC252725  85.029  69.114  71.875
38883DT     SC352726  85.070  69.434  71.909
38884DA     BB152727  84.623  68.882  71.303
38884DA     BB252728  84.644  68.715  71.628
38884DA     BB352729  84.487  68.782  71.757
38884DA     SC152730  84.655  69.015  71.879
38884DA     SC252731  84.760  69.071  72.097
38884DA     SC352732  84.759  69.313  72.013
38884DA     SC452733  84.644  69.159  71.808
38885DT     BB152734  84.309  68.659  71.829
38885DT     BB252735  84.428  68.613  72.167
38885DT     BB352736  84.310  68.721  72.299
38885DT     SC152737  84.421  68.947  72.224
38885DT     SC252738  84.541  69.023  72.385
38885DT     SC352739  84.446  69.189  72.123
38886DC     BB152740  84.174  68.498  72.404
38886DC     BB252741  84.325  68.653  72.693
38886DC     BB352742  84.194  68.790  72.776
38886DC     SC152743  84.239  68.962  72.582
38886DC     SC252744  84.349  69.130  72.659
38886DC     SC352745  84.196  69.118  72.374
38887DA     BB152746  84.311  68.537  73.088
38887DA     BB252747  84.362  68.882  73.199
38887DA     BB352748  84.175  68.974  73.246
38887DA     SC152749  84.130  69.086  72.960
38887DA     SC252750  84.127  69.308  72.847
38887DA     SC352751  83.993  69.190  72.662
38887DA     SC452752  84.046  68.995  72.857
38888DT     BB152753  84.154  69.021  73.432
38888DT     BB252754  84.202  69.376  73.389
38888DT     BB352755  84.019  69.473  73.396
38888DT     SC152756  83.957  69.390  73.155
38888DT     SC252757  83.958  69.556  73.019
38888DT     SC352758  83.830  69.265  72.961
38889DG     BB152759  84.277  69.625  73.672
38889DG     BB252760  84.139  69.883  73.459
38889DG     BB352761  83.951  69.921  73.511
38889DG     SC152762  83.830  69.711  73.323
38889DG     SC252763  83.660  69.767  73.084
38889DG     SC352764  83.666  69.478  73.144
38889DG     SC452765  83.812  69.561  73.376
38890DA     BB152766  84.077  70.241  73.502
38890DA     BB252767  83.820  70.329  73.256
38890DA     BB352768  83.628  70.334  73.348
38890DA     SC152769  83.565  70.035  73.289
38890DA     SC252770  83.411  69.904  73.143
38890DA     SC352771  83.455  69.710  73.305
38890DA     SC452772  83.603  69.927  73.402
38891DT     BB152773  83.544  70.508  73.355
38891DT     BB252774  83.289  70.449  73.105
38891DT     BB352775  83.107  70.413  73.197
38891DT     SC152776  83.182  70.171  73.268
38891DT     SC252777  83.071  70.026  73.154
38891DT     SC352778  83.246  69.966  73.420
38892DC     BB152779  83.021  70.656  73.117
38892DC     BB252780  82.774  70.427  72.989
38892DC     BB352781  82.631  70.390  73.133
38892DC     SC152782  82.795  70.235  73.267
38892DC     SC252783  82.728  70.031  73.254
38892DC     SC352784  82.947  70.146  73.463
38893DA     BB152785  82.412  70.509  72.795
38893DA     BB252786  82.253  70.206  72.926
38893DA     BB352787  82.143  70.251  73.104
38893DA     SC152788  82.381  70.194  73.295
38893DA     SC252789  82.445  70.023  73.466
38893DA     SC352790  82.608  70.201  73.554
38893DA     SC452791  82.475  70.319  73.336
38894DC     BB152792  81.928  70.241  73.113
38894DC     BB252793  81.905  69.939  73.309
38894DC     BB352794  81.844  69.985  73.502
38894DC     SC152795  82.080  70.081  73.563
38894DC     SC252796  82.177  69.950  73.703
38894DC     SC352797  82.268  70.253  73.633
38895DT     BB152798  81.580  69.888  73.471
38895DT     BB252799  81.705  69.706  73.757
38895DT     BB352800  81.661  69.809  73.931
38895DT     SC152801  81.848  69.986  73.883
38895DT     SC252802  82.008  69.961  74.026
38895DT     SC352803  81.964  70.217  73.832
38896DA     BB152804  81.501  69.427  74.002
38896DA     BB252805  81.704  69.515  74.294
38896DA     BB352806  81.600  69.655  74.417
38896DA     SC152807  81.718  69.905  74.275
38896DA     SC252808  81.878  70.089  74.327
38896DA     SC352809  81.764  70.215  74.135
38896DA     SC452810  81.633  69.968  74.153
38897DT     BB152811  81.529  69.605  74.617
38897DT     BB252812  81.782  69.789  74.797
38897DT     BB352813  81.699  69.956  74.886
38897DT     SC152814  81.684  70.081  74.656
38897DT     SC252815  81.825  70.243  74.653
38897DT     SC352816  81.580  70.200  74.445
38898DG     BB152817  81.857  69.742  75.196
38898DG     BB252818  81.978  70.082  75.198
38898DG     BB352819  81.843  70.202  75.281
38898DG     SC152820  81.700  70.263  75.017
38898DG     SC252821  81.690  70.528  74.879
38898DG     SC352822  81.507  70.335  74.750
38898DG     SC452823  81.581  70.166  74.969
38899DT     BB152824  81.884  70.317  75.471
38899DT     BB252825  81.934  70.649  75.340
38899DT     BB352826  81.769  70.767  75.382
38899DT     SC152827  81.627  70.648  75.196
38899DT     SC252828  81.592  70.786  75.035
38899DT     SC352829  81.437  70.505  75.083
38900DA     BB152830  82.115  70.968  75.507
38900DA     BB252831  81.915  71.200  75.306
38900DA     BB352832  81.743  71.263  75.414
38900DA     SC152833  81.562  71.033  75.307
38900DA     SC252834  81.366  71.008  75.154
38900DA     SC352835  81.327  70.785  75.274
38900DA     SC452836  81.553  70.899  75.395
38901DG     BB152837  81.877  71.535  75.363
38901DG     BB252838  81.577  71.594  75.170
38901DG     BB352839  81.427  71.642  75.291
38901DG     SC152840  81.335  71.353  75.333
38901DG     SC252841  81.077  71.236  75.239
38901DG     SC352842  81.219  71.048  75.417
38901DG     SC452843  81.400  71.267  75.452
38902DT     BB152844  81.342  71.830  75.264
38902DT     BB252845  81.025  71.749  75.111
38902DT     BB352846  80.875  71.754  75.254
38902DT     SC152847  80.955  71.526  75.356
38902DT     SC252848  80.809  71.374  75.314
38902DT     SC352849  81.049  71.351  75.530
38903DC     BB152850  80.788  71.978  75.137
38903DC     BB252851  80.503  71.756  75.136
38903DC     BB352852  80.403  71.768  75.317
38903DC     SC152853  80.590  71.628  75.437
38903DC     SC252854  80.512  71.435  75.491
38903DC     SC352855  80.786  71.567  75.603
38904DA     BB152856  80.111  71.830  75.022
38904DA     BB252857  79.978  71.584  75.259
38904DA     BB352858  79.925  71.680  75.442
38904DA     SC152859  80.203  71.639  75.574
38904DA     SC252860  80.303  71.503  75.758
38904DA     SC352861  80.493  71.675  75.755
38904DA     SC452862  80.311  71.757  75.557
38905DA     BB152863  79.621  71.547  75.402
38905DA     BB252864  79.671  71.368  75.718
38905DA     BB352865  79.638  71.499  75.883
38905DA     SC152866  79.935  71.591  75.902
38905DA     SC252867  80.128  71.562  76.057
38905DA     SC352868  80.224  71.771  75.944
38905DA     SC452869  79.977  71.723  75.820
38906DT     BB152870  79.464  71.487  76.034
38906DT     BB252871  79.658  71.355  76.308
38906DT     BB352872  79.676  71.497  76.457
38906DT     SC152873  79.852  71.633  76.317
38906DT     SC252874  80.045  71.617  76.410
38906DT     SC352875  79.961  71.830  76.181
38907DA     BB152876  79.515  71.170  76.666
38907DA     BB252877  79.810  71.283  76.852
38907DA     BB352878  79.764  71.458  76.965
38907DA     SC152879  79.847  71.655  76.738
38907DA     SC252880  80.029  71.819  76.694
38907DA     SC352881  79.868  71.920  76.521
38907DA     SC452882  79.732  71.704  76.637
38908DA     BB152883  79.875  71.282  77.218
38908DA     BB252884  80.145  71.528  77.248
38908DA     BB352885  80.075  71.703  77.349
38908DA     SC152886  79.988  71.848  77.087
38908DA     SC252887  80.062  72.043  76.952
38908DA     SC352888  79.825  72.038  76.853
38908DA     SC452889  79.836  71.828  77.039
38909DA     BB152890  80.337  71.620  77.519
38909DA     BB252891  80.478  71.941  77.411
38909DA     BB352892  80.387  72.102  77.518
38909DA     SC152893  80.160  72.145  77.310
38909DA     SC252894  80.095  72.317  77.141
38909DA     SC352895  79.862  72.211  77.154
38909DA     SC452896  80.022  72.066  77.333
38910DT     BB152897  80.517  72.171  77.602
38910DT     BB252898  80.547  72.466  77.396
38910DT     BB352899  80.438  72.621  77.479
38910DT     SC152900  80.212  72.514  77.401
38910DT     SC252901  80.125  72.635  77.245
38910DT     SC352902  79.972  72.404  77.413
38911DA     BB152903  80.828  72.723  77.360
38911DA     BB252904  80.596  72.979  77.236
38911DA     BB352905  80.516  73.091  77.398
38911DA     SC152906  80.270  72.904  77.439
38911DA     SC252907  80.023  72.914  77.405
38911DA     SC352908  80.014  72.718  77.570
38911DA     SC452909  80.285  72.784  77.544
38912DA     BB152910  80.627  73.312  77.184
38912DA     BB252911  80.286  73.446  77.184
38912DA     BB352912  80.242  73.537  77.372
38912DA     SC152913  80.127  73.278  77.498
38912DA     SC252914  79.905  73.191  77.571
38912DA     SC352915  80.039  73.024  77.713
38912DA     SC452916  80.228  73.184  77.580
38913DA     BB152917  80.163  73.787  77.172
38913DA     BB252918  79.828  73.776  77.320
38913DA     BB352919  79.831  73.856  77.518
38913DA     SC152920  79.887  73.581  77.654
38913DA     SC252921  79.766  73.419  77.799
38913DA     SC352922  79.999  73.330  77.860
38913DA     SC452923  80.041  73.541  77.680
38914DA     BB152924  79.591  74.059  77.412
38914DA     BB252925  79.375  73.918  77.672
38914DA     BB352926  79.424  74.001  77.862
38914DA     SC152927  79.632  73.780  77.932
38914DA     SC252928  79.652  73.590  78.092
38914DA     SC352929  79.904  73.607  78.049
38914DA     SC452930  79.785  73.808  77.894
38915DC     BB152931  79.291  74.137  77.977
38915DC     BB252932  79.191  73.898  78.228
38915DC     BB352933  79.277  73.948  78.410
38915DC     SC152934  79.512  73.861  78.332
38915DC     SC252935  79.562  73.682  78.441
38915DC     SC352936  79.767  73.861  78.266
38916DG     BB152937  78.876  73.960  78.489
38916DG     BB252938  79.047  73.750  78.728
38916DG     BB352939  79.129  73.861  78.871
38916DG     SC152940  79.395  73.898  78.724
38916DG     SC252941  79.659  73.789  78.811
38916DG     SC352942  79.691  73.976  78.583
38916DG     SC452943  79.411  74.021  78.623
38917DA     BB152944  78.967  73.658  79.100
38917DA     BB252945  79.289  73.563  79.248
38917DA     BB352946  79.362  73.719  79.374
38917DA     SC152947  79.521  73.861  79.147
38917DA     SC252948  79.760  73.899  79.085
38917DA     SC352949  79.671  74.092  78.942
38917DA     SC452950  79.446  73.977  79.065
38918DA     BB152951  79.376  73.469  79.584
38918DA     BB252952  79.737  73.533  79.607
38918DA     BB352953  79.774  73.706  79.725
38918DA     SC152954  79.767  73.902  79.484
38918DA     SC252955  79.928  74.043  79.356
38918DA     SC352956  79.721  74.173  79.278
38918DA     SC452957  79.626  73.971  79.448
38919DC     BB152958  79.867  73.681  79.900
38919DC     BB252959  80.186  73.822  79.805
38919DC     BB352960  80.205  74.012  79.886
38919DC     SC152961  80.038  74.113  79.711
38919DC     SC252962  80.145  74.240  79.574
38919DC     SC352963  79.824  74.229  79.611
38920DA     BB152964  80.552  73.807  80.006
38920DA     BB252965  80.657  74.134  79.876
38920DA     BB352966  80.611  74.288  80.016
38920DA     SC152967  80.329  74.345  79.898
38920DA     SC252968  80.216  74.527  79.771
38920DA     SC352969  79.997  74.422  79.855
38920DA     SC452970  80.205  74.266  79.962
38921DT     BB152971  80.762  74.404  80.130
38921DT     BB252972  80.726  74.713  79.948
38921DT     BB352973  80.633  74.855  80.067
38921DT     SC152974  80.400  74.737  80.038
38921DT     SC252975  80.272  74.862  79.917
38921DT     SC352976  80.177  74.610  80.097
38922DT     BB152977  80.864  75.013  80.127
38922DT     BB252978  80.634  75.251  79.984
38922DT     BB352979  80.524  75.341  80.134
38922DT     SC152980  80.378  75.126  80.167
38922DT     SC252981  80.177  75.164  80.098
38922DT     SC352982  80.271  74.913  80.281
38923DT     BB152983  80.658  75.587  80.119
38923DT     BB252984  80.312  75.672  80.061
38923DT     BB352985  80.220  75.718  80.240
38923DT     SC152986  80.211  75.465  80.308
38923DT     SC252987  80.007  75.397  80.305
38923DT     SC352988  80.256  75.242  80.443
38924DC     BB152989  80.211  75.982  80.172
38924DC     BB252990  79.867  75.890  80.226
38924DC     BB352991  79.817  75.914  80.425
38924DC     SC152992  79.950  75.698  80.492
38924DC     SC252993  79.811  75.545  80.553
38924DC     SC352994  80.131  75.544  80.605
38925DT     BB152995  79.669  76.117  80.340
38925DT     BB252996  79.439  75.893  80.506
38925DT     BB352997  79.440  75.929  80.710
38925DT     SC152998  79.673  75.810  80.737
38925DT     SC252999  79.646  75.625  80.843
38925DT     SC353000  79.929  75.774  80.789
38926DG     BB153001  79.068  75.946  80.546
38926DG     BB253002  79.081  75.725  80.831
38926DG     BB353003  79.093  75.832  80.999
38926DG     SC153004  79.399  75.839  81.001
38926DG     SC253005  79.577  75.706  81.200
38926DG     SC353006  79.733  75.884  81.023
38926DG     SC453007  79.475  75.957  80.923
38927DC     BB153008  78.942  75.797  81.120
38927DC     BB253009  79.092  75.613  81.391
38927DC     BB353010  79.144  75.742  81.544
38927DC     SC153011  79.350  75.832  81.409
38927DC     SC253012  79.532  75.766  81.503
38927DC     SC353013  79.508  75.999  81.279
38928DT     BB153014  78.942  75.637  81.683
38928DT     BB253015  79.228  75.605  81.901
38928DT     BB353016  79.258  75.782  82.004
38928DT     SC153017  79.356  75.899  81.790
38928DT     SC253018  79.567  75.932  81.817
38928DT     SC353019  79.381  76.067  81.588
38929DA     BB153020  79.235  75.505  82.323
38929DA     BB253021  79.523  75.721  82.391
38929DA     BB353022  79.459  75.912  82.461
38929DA     SC153023  79.446  76.039  82.177
38929DA     SC253024  79.571  76.210  82.046
38929DA     SC353025  79.360  76.222  81.900
38929DA     SC453026  79.305  76.032  82.099
38930DA     BB153027  79.632  75.902  82.762
38930DA     BB253028  79.822  76.198  82.657
38930DA     BB353029  79.713  76.376  82.703
38930DA     SC153030  79.567  76.387  82.428
38930DA     SC253031  79.569  76.528  82.223
38930DA     SC353032  79.337  76.431  82.177
38930DA     SC453033  79.423  76.316  82.418
38931DT     BB153034  79.750  76.570  82.878
38931DT     BB253035  79.868  76.811  82.637
38931DT     BB353036  79.736  76.971  82.626
38931DT     SC153037  79.562  76.828  82.491
38931DT     SC253038  79.552  76.901  82.289
38931DT     SC353039  79.339  76.701  82.430
38932DT     BB153040  79.885  77.178  82.774
38932DT     BB253041  79.830  77.329  82.451
38932DT     BB353042  79.660  77.448  82.457
38932DT     SC153043  79.503  77.238  82.455
38932DT     SC253044  79.400  77.228  82.266
38932DT     SC353045  79.324  77.061  82.534
38933DT     BB153046  79.798  77.696  82.453
38933DT     BB253047  79.587  77.709  82.161
38933DT     BB353048  79.407  77.798  82.208
38933DT     SC153049  79.324  77.583  82.334
38933DT     SC253050  79.166  77.491  82.223
38933DT     SC353051  79.244  77.426  82.530
38934DA     BB153052  79.562  77.995  81.874
38934DA     BB253053  79.217  77.897  81.796
38934DA     BB353054  79.079  78.024  81.900
38934DA     SC153055  79.062  77.841  82.151
38934DA     SC253056  78.895  77.692  82.260
38934DA     SC353057  79.037  77.719  82.471
38934DA     SC453058  79.163  77.872  82.272
38935DT     BB153059  78.967  78.138  81.786
38935DT     BB253060  78.663  77.946  81.824
38935DT     BB353061  78.535  78.043  81.954
38935DT     SC153062  78.679  77.973  82.162
38935DT     SC253063  78.571  77.828  82.279
38935DT     SC353064  78.833  77.992  82.375
38936DT     BB153065  78.382  78.096  81.742
38936DT     BB253066  78.169  77.911  81.967
38936DT     BB353067  78.084  78.040  82.105
38936DT     SC153068  78.310  78.061  82.236
38936DT     SC253069  78.291  77.963  82.427
38936DT     SC353070  78.527  78.169  82.341
38937DA     BB153071  77.788  77.801  81.929
38937DA     BB253072  77.745  77.788  82.292
38937DA     BB353073  77.669  77.973  82.365
38937DA     SC153074  77.950  78.097  82.415
38937DA     SC253075  78.092  78.162  82.610
38937DA     SC353076  78.219  78.310  82.443
38937DA     SC453077  78.016  78.183  82.296
38938DT     BB153078  77.499  77.956  82.439
38938DT     BB253079  77.598  77.988  82.784
38938DT     BB353080  77.560  78.180  82.851
38938DT     SC153081  77.765  78.275  82.719
38938DT     SC253082  77.918  78.336  82.858
38938DT     SC353083  77.904  78.415  82.544
38939DT     BB153084  77.374  78.061  82.994
38939DT     BB253085  77.585  78.231  83.233
38939DT     BB353086  77.531  78.430  83.246
38939DT     SC153087  77.644  78.483  83.015
38939DT     SC253088  77.818  78.605  83.046
38939DT     SC353089  77.670  78.556  82.762
38940DA     BB153090  77.576  78.244  83.621
38940DA     BB253091  77.753  78.565  83.626
38940DA     BB353092  77.615  78.727  83.617
38940DA     SC153093  77.617  78.744  83.306
38940DA     SC253094  77.699  78.901  83.131
38940DA     SC353095  77.532  78.784  82.976
38940DA     SC453096  77.506  78.660  83.226
38941DA     BB153097  77.801  78.801  83.875
38941DA     BB253098  77.877  79.116  83.703
38941DA     BB353099  77.705  79.243  83.701
38941DA     SC153100  77.597  79.134  83.430
38941DA     SC253101  77.569  79.215  83.196
38941DA     SC353102  77.397  79.026  83.173
38941DA     SC453103  77.492  79.012  83.436
38942DA     BB153104  77.924  79.454  83.829
38942DA     BB253105  77.848  79.675  83.546
38942DA     BB353106  77.655  79.764  83.572
38942DA     SC153107  77.504  79.538  83.420
38942DA     SC253108  77.383  79.511  83.204
38942DA     SC353109  77.274  79.307  83.315
38942DA     SC453110  77.447  79.416  83.507
38943DA     BB153111  77.811  80.056  83.535
38943DA     BB253112  77.596  80.120  83.245
38943DA     BB353113  77.401  80.179  83.309
38943DA     SC153114  77.288  79.890  83.314
38943DA     SC253115  77.125  79.753  83.184
38943DA     SC353116  77.118  79.602  83.391
38943DA     SC453117  77.297  79.809  83.453
38944DA     BB153118  77.432  80.459  83.126
38944DA     BB253119  77.141  80.351  82.931
38944DA     BB353120  76.960  80.397  83.036
38944DA     SC153121  76.948  80.124  83.184
38944DA     SC253122  76.807  79.918  83.180
38944DA     SC353123  76.900  79.874  83.415
38944DA     SC453124  77.016  80.115  83.329
38945DA     BB153125  76.854  80.571  82.769
38945DA     BB253126  76.575  80.335  82.740
38945DA     BB353127  76.419  80.388  82.875
38945DA     SC153128  76.527  80.212  83.108
38945DA     SC253129  76.462  80.004  83.228
38945DA     SC353130  76.616  80.087  83.415
38945DA     SC453131  76.627  80.282  83.213
38946DT     BB153132  76.213  80.465  82.815
38946DT     BB253133  76.035  80.159  82.884
38946DT     BB353134  75.911  80.184  83.047
38946DT     SC153135  76.114  80.176  83.213
38946DT     SC253136  76.106  79.994  83.327
38946DT     SC353137  76.290  80.253  83.394
38947DT     BB153138  75.680  80.187  82.892
38947DT     BB253139  75.627  79.917  83.125
38947DT     BB353140  75.534  79.987  83.296
38947DT     SC153141  75.757  80.099  83.380
38947DT     SC253142  75.829  79.992  83.552
38947DT     SC353143  75.929  80.284  83.453
38948DA     BB153144  75.309  79.663  83.159
38948DA     BB253145  75.375  79.611  83.516
38948DA     BB353146  75.253  79.741  83.634
38948DA     SC153147  75.462  79.970  83.641
38948DA     SC253148  75.612  80.079  83.809
38948DA     SC353149  75.619  80.276  83.645
38948DA     SC453150  75.453  80.083  83.527
38949DT     BB153151  75.115  79.655  83.749
38949DT     BB253152  75.283  79.705  84.064
38949DT     BB353153  75.193  79.860  84.168
38949DT     SC153154  75.301  80.040  84.011
38949DT     SC253155  75.449  80.151  84.120
38949DT     SC353156  75.321  80.235  83.835
38950DC     BB153157  75.096  79.675  84.339
38950DC     BB253158  75.283  79.904  84.547
38950DC     BB353159  75.164  80.064  84.601
38950DC     SC153160  75.183  80.169  84.361
38950DC     SC253161  75.301  80.348  84.370
38950DC     SC353162  75.113  80.258  84.123
38951DG     BB153163  75.292  79.890  84.946
38951DG     BB253164  75.359  80.246  84.945
38951DG     BB353165  75.192  80.346  84.987
38951DG     SC153166  75.103  80.369  84.695
38951DG     SC253167  75.086  80.622  84.536
38951DG     SC353168  74.966  80.396  84.388
38951DG     SC453169  75.014  80.253  84.631
38952DT     BB153170  75.176  80.473  85.169
38952DT     BB253171  75.198  80.804  85.027
38952DT     BB353172  75.011  80.892  85.023
38952DT     SC153173  74.937  80.742  84.820
38952DT     SC253174  74.917  80.865  84.644
38952DT     SC353175  74.804  80.563  84.679
38953DT     BB153176  75.086  81.058  85.223
38953DT     BB253177  74.986  81.277  84.954
38953DT     BB353178  74.782  81.311  84.963
38953DT     SC153179  74.730  81.071  84.870
38953DT     SC253180  74.650  81.088  84.671
38953DT     SC353181  74.641  80.823  84.859
38954DC     BB153182  74.835  81.562  85.043
38954DC     BB253183  74.635  81.601  84.745
38954DC     BB353184  74.434  81.594  84.793
38954DC     SC153185  74.443  81.334  84.828
38954DC     SC253186  74.334  81.237  84.671
38954DC     SC353187  74.431  81.099  84.948
38955DA     BB153188  74.521  81.926  84.552
38955DA     BB253189  74.229  81.753  84.412
38955DA     BB353190  74.059  81.780  84.538
38955DA     SC153191  74.114  81.525  84.707
38955DA     SC253192  74.011  81.300  84.740
38955DA     SC353193  74.142  81.295  84.960
38955DA     SC453194  74.202  81.542  84.841
38956DA     BB153195  73.960  81.863  84.238
38956DA     BB253196  73.706  81.601  84.277
38956DA     BB353197  73.562  81.659  84.423
38956DA     SC153198  73.716  81.529  84.661
38956DA     SC253199  73.688  81.335  84.815
38956DA     SC353200  73.853  81.458  84.967
38956DA     SC453201  73.819  81.622  84.742
38957DT     BB153202  73.394  81.682  84.350
38957DT     BB253203  73.234  81.393  84.495
38957DT     BB353204  73.128  81.448  84.663
38957DT     SC153205  73.348  81.474  84.804
38957DT     SC253206  73.357  81.317  84.951
38957DT     SC353207  73.539  81.585  84.947
38958DA     BB153208  72.856  81.233  84.423
38958DA     BB253209  72.820  81.111  84.767
38958DA     BB353210  72.722  81.257  84.888
38958DA     SC153211  72.985  81.396  84.977
38958DA     SC253212  73.119  81.421  85.186
38958DA     SC353213  73.224  81.625  85.071
38958DA     SC453214  73.037  81.521  84.889
38959DG     BB153215  72.467  81.065  84.951
38959DG     BB253216  72.572  81.096  85.296
38959DG     BB353217  72.491  81.258  85.377
38959DG     SC153218  72.721  81.444  85.298
38959DG     SC253219  72.911  81.578  85.485
38959DG     SC353220  72.945  81.680  85.209
38959DG     SC453221  72.716  81.517  85.155
38960DA     BB153222  72.309  81.118  85.671
38960DA     BB253223  72.512  81.314  85.906
38960DA     BB353224  72.426  81.507  85.935
38960DA     SC153225  72.587  81.640  85.704
38960DA     SC253226  72.772  81.805  85.679
38960DA     SC353227  72.688  81.833  85.438
38960DA     SC453228  72.519  81.644  85.558
38961DG     BB153229  72.341  81.500  86.265
38961DG     BB253230  72.598  81.751  86.302
38961DG     BB353231  72.516  81.933  86.300
38961DG     SC153232  72.538  81.966  85.996
38961DG     SC253233  72.711  82.162  85.853
38961DG     SC353234  72.527  82.027  85.664
38961DG     SC453235  72.418  81.913  85.904
38962DG     BB153236  72.610  82.041  86.613
38962DG     BB253237  72.821  82.281  86.445
38962DG     BB353238  72.723  82.453  86.422
38962DG     SC153239  72.604  82.377  86.150
38962DG     SC253240  72.669  82.506  85.888
38962DG     SC353241  72.440  82.320  85.861
38962DG     SC453242  72.464  82.300  86.146
38963DT     BB153243  72.789  82.657  86.518
38963DT     BB253244  72.941  82.812  86.229
38963DT     BB353245  72.821  82.967  86.162
38963DT     SC153246  72.648  82.800  86.059
38963DT     SC253247  72.656  82.811  85.844
38963DT     SC353248  72.421  82.672  86.018
38964DA     BB153249  73.218  83.091  86.208
38964DA     BB253250  73.107  83.182  85.871
38964DA     BB353251  72.969  83.344  85.879
38964DA     SC153252  72.718  83.162  85.900
38964DA     SC253253  72.523  83.099  85.758
38964DA     SC353254  72.411  83.027  85.978
38964DA     SC453255  72.665  83.124  86.048
38965DA     BB153256  73.199  83.421  85.664
38965DA     BB253257  72.926  83.437  85.420
38965DA     BB353258  72.800  83.605  85.460
38965DA     SC153259  72.608  83.447  85.647
38965DA     SC253260  72.373  83.365  85.643
38965DA     SC353261  72.394  83.354  85.898
38965DA     SC453262  72.640  83.449  85.805
38966DG     BB153263  72.899  83.643  85.173
38966DG     BB253264  72.546  83.608  85.103
38966DG     BB353265  72.450  83.775  85.152
38966DG     SC153266  72.394  83.687  85.440
38966DG     SC253267  72.125  83.627  85.556
38966DG     SC353268  72.333  83.630  85.767
38966DG     SC453269  72.502  83.718  85.553
38967DG     BB153270  72.356  83.756  84.843
38967DG     BB253271  72.020  83.735  84.976
38967DG     BB353272  71.959  83.915  85.034
38967DG     SC153273  72.066  83.886  85.319
38967DG     SC253274  71.901  83.870  85.568
38967DG     SC353275  72.188  83.897  85.634
38967DG     SC453276  72.217  83.931  85.351
38968DT     BB153277  71.794  83.986  84.937
38968DT     BB253278  71.539  83.962  85.191
38968DT     BB353279  71.514  84.146  85.284
38968DT     SC153280  71.737  84.118  85.418
38968DT     SC253281  71.693  84.090  85.626
38968DT     SC353282  71.983  84.162  85.502
38969DC     BB153283  71.279  84.162  85.158
38969DC     BB253284  71.199  84.202  85.507
38969DC     BB353285  71.226  84.399  85.564
38969DC     SC153286  71.487  84.372  85.563
38969DC     SC253287  71.561  84.380  85.765
38969DC     SC353288  71.740  84.406  85.496
38970DA     BB153289  70.840  84.287  85.687
38970DA     BB253290  71.005  84.454  85.969
38970DA     BB353291  71.020  84.664  85.933
38970DA     SC153292  71.299  84.644  85.797
38970DA     SC253293  71.535  84.710  85.849
38970DA     SC353294  71.574  84.690  85.596
38970DA     SC453295  71.303  84.628  85.637
38971DA     BB153296  70.865  84.698  86.224
38971DA     BB253297  71.159  84.881  86.344
38971DA     BB353298  71.158  85.081  86.269
38971DA     SC153299  71.320  85.011  86.013
38971DA     SC253300  71.548  85.055  85.921
38971DA     SC353301  71.445  84.997  85.693
38971DA     SC453302  71.237  84.973  85.880
38972DG     BB153303  71.145  85.183  86.567
38972DG     BB253304  71.469  85.323  86.489
38972DG     BB353305  71.448  85.501  86.404
38972DG     SC153306  71.435  85.391  86.119
38972DG     SC253307  71.639  85.434  85.905
38972DG     SC353308  71.398  85.303  85.796
38972DG     SC453309  71.294  85.348  86.058
38973DA     BB153310  71.665  85.634  86.642
38973DA     BB253311  71.897  85.737  86.377
38973DA     BB353312  71.828  85.916  86.284
38973DA     SC153313  71.664  85.768  86.066
38973DA     SC253314  71.676  85.730  85.819
38973DA     SC353315  71.426  85.674  85.836
38973DA     SC453316  71.509  85.738  86.097
38974DA     BB153317  72.131  86.011  86.363
38974DA     BB253318  72.190  86.057  86.004
38974DA     BB353319  72.093  86.235  85.936
38974DA     SC153320  71.827  86.091  85.862
38974DA     SC253321  71.702  86.030  85.655
38974DA     SC353322  71.498  86.011  85.809
38974DA     SC453323  71.712  86.086  85.974
38975DC     BB153324  72.211  86.380  85.873
38975DC     BB253325  72.145  86.342  85.520
38975DC     BB353326  72.018  86.492  85.456
38975DC     SC153327  71.812  86.376  85.570
38975DC     SC253328  71.680  86.299  85.418
38975DC     SC353329  71.607  86.336  85.732
38976DT     BB153330  72.226  86.602  85.327
38976DT     BB253331  71.976  86.553  85.071
38976DT     BB353332  71.845  86.714  85.068
38976DT     SC153333  71.727  86.631  85.287
38976DT     SC253334  71.528  86.564  85.240
38976DT     SC353335  71.642  86.627  85.537
38977DA     BB153336  71.979  86.671  84.672
38977DA     BB253337  71.614  86.706  84.662
38977DA     BB353338  71.558  86.909  84.701
38977DA     SC153339  71.534  86.869  85.008
38977DA     SC253340  71.353  86.863  85.180
38977DA     SC353341  71.540  86.910  85.349
38977DA     SC453342  71.664  86.900  85.098
38978DC     BB153343  71.469  87.043  84.550
38978DC     BB253344  71.134  87.044  84.684
38978DC     BB353345  71.093  87.227  84.770
38978DC     SC153346  71.243  87.172  84.978
38978DC     SC253347  71.118  87.145  85.151
38978DC     SC353348  71.439  87.187  85.154
38979DT     BB153349  70.922  87.338  84.563
38979DT     BB253350  70.718  87.361  84.860
38979DT     BB353351  70.741  87.548  84.947
38979DT     SC153352  70.978  87.483  85.040
38979DT     SC253353  70.969  87.466  85.254
38979DT     SC353354  71.239  87.486  85.076
38980DA     BB153355  70.323  87.537  84.896
38980DA     BB253356  70.386  87.628  85.246
38980DA     BB353357  70.438  87.834  85.261
38980DA     SC153358  70.744  87.784  85.232
38980DA     SC253359  70.948  87.797  85.375
38980DA     SC353360  71.077  87.807  85.153
38980DA     SC453361  70.806  87.791  85.083
38981DT     BB153362  70.312  87.983  85.361
38981DT     BB253363  70.511  88.002  85.661
38981DT     BB353364  70.607  88.185  85.671
38981DT     SC153365  70.779  88.113  85.487
38981DT     SC253366  70.973  88.089  85.576
38981DT     SC353367  70.911  88.110  85.259
38982DT     BB153368  70.442  88.256  85.874
38982DT     BB253369  70.774  88.276  86.013
38982DT     BB353370  70.856  88.462  85.974
38982DT     SC153371  70.897  88.400  85.723
38982DT     SC253372  71.109  88.382  85.688
38982DT     SC353373  70.880  88.407  85.460
38983DT     BB153374  70.829  88.501  86.234
38983DT     BB253375  71.181  88.540  86.167
38983DT     BB353376  71.220  88.732  86.100
38983DT     SC153377  71.117  88.678  85.865
38983DT     SC253378  71.274  88.675  85.718
38983DT     SC353379  70.957  88.689  85.656
38984DT     BB153380  71.339  88.756  86.333
38984DT     BB253381  71.593  88.828  86.086
38984DT     BB353382  71.575  89.024  86.021
38984DT     SC153383  71.363  88.966  85.878
38984DT     SC253384  71.413  88.979  85.669
38984DT     SC353385  71.114  88.965  85.793
38985DT     BB153386  71.801  89.057  86.152
38985DT     BB253387  71.870  89.160  85.814
38985DT     BB353388  71.805  89.355  85.784
38985DT     SC153389  71.554  89.277  85.775
38985DT     SC253390  71.480  89.299  85.574
38985DT     SC353391  71.300  89.251  85.840
38986DC     BB153392  72.061  89.419  85.775
38986DC     BB253393  71.924  89.536  85.463
38986DC     BB353394  71.835  89.721  85.490
38986DC     SC153395  71.629  89.613  85.611
38986DC     SC253396  71.456  89.630  85.485
38986DC     SC353397  71.456  89.555  85.801
38987DT     BB153398  72.039  89.826  85.352
38987DT     BB253399  71.742  89.930  85.174
38987DT     BB353400  71.664  90.100  85.260
38987DT     SC153401  71.570  89.963  85.463
38987DT     SC253402  71.355  89.959  85.453
38987DT     SC353403  71.534  89.879  85.711
38988DT     BB153404  71.747  90.242  85.047
38988DT     BB253405  71.393  90.305  85.066
38988DT     BB353406  71.356  90.462  85.196
38988DT     SC153407  71.403  90.309  85.405
38988DT     SC253408  71.219  90.274  85.510
38988DT     SC353409  71.517  90.215  85.623
38989DA     BB153410  71.159  90.551  84.837
38989DA     BB253411  70.921  90.601  85.112
38989DA     BB353412  70.970  90.778  85.221
38989DA     SC153413  71.155  90.631  85.424
38989DA     SC253414  71.152  90.570  85.665
38989DA     SC353415  71.406  90.546  85.641
38989DA     SC453416  71.311  90.622  85.389
38990DT     BB153417  70.841  90.924  85.212
38990DT     BB253418  70.711  90.889  85.547
38990DT     BB353419  70.791  91.034  85.670
38990DT     SC153420  71.022  90.910  85.680
38990DT     SC253421  71.052  90.831  85.877
38990DT     SC353422  71.279  90.862  85.648
38991DG     BB153423  70.387  91.082  85.687
38991DG     BB253424  70.529  91.059  86.018
38991DG     BB353425  70.612  91.233  86.069
38991DG     SC153426  70.887  91.164  85.954
38991DG     SC253427  71.138  91.124  86.110
38991DG     SC353428  71.195  91.131  85.820
38991DG     SC453429  70.917  91.198  85.800
38992DC     BB153430  70.536  91.352  86.242
38992DC     BB253431  70.796  91.298  86.487
38992DC     BB353432  70.916  91.466  86.500
38992DC     SC153433  71.033  91.410  86.272
38992DC     SC253434  71.237  91.352  86.309
38992DC     SC353435  71.112  91.433  86.021
38993DT     BB153436  70.809  91.528  86.743
38993DT     BB253437  71.164  91.509  86.805
38993DT     BB353438  71.252  91.692  86.767
38993DT     SC153439  71.232  91.656  86.507
38993DT     SC253440  71.429  91.627  86.424
38993DT     SC353441  71.159  91.692  86.257
38994DT     BB153442  71.288  91.742  87.034
38994DT     BB253443  71.619  91.772  86.894
38994DT     BB353444  71.651  91.966  86.828
38994DT     SC153445  71.498  91.928  86.619
38994DT     SC253446  71.619  91.926  86.441
38994DT     SC353447  71.296  91.954  86.450
38995DA     BB153448  71.977  91.895  87.084
38995DA     BB253449  72.111  92.034  86.772
38995DA     BB353450  72.075  92.244  86.763
38995DA     SC153451  71.801  92.215  86.618
38995DA     SC253452  71.706  92.262  86.392
38995DA     SC353453  71.478  92.255  86.510
38995DA     SC453454  71.669  92.208  86.709
38996DC     BB153455  72.234  92.405  86.773
38996DC     BB253456  72.227  92.491  86.423
38996DC     BB353457  72.145  92.679  86.398
38996DC     SC153458  71.903  92.589  86.445
38996DC     SC253459  71.788  92.595  86.263
38996DC     SC353460  71.669  92.554  86.562
38997DT     BB153461  72.389  92.814  86.340
38997DT     BB253462  72.182  92.881  86.052
38997DT     BB353463  72.078  93.058  86.079
38997DT     SC153464  71.913  92.944  86.249
38997DT     SC253465  71.718  92.929  86.160
38997DT     SC353466  71.787  92.891  86.474
38998DT     BB153467  72.233  93.200  85.895
38998DT     BB253468  71.897  93.226  85.768
38998DT     BB353469  71.805  93.394  85.845
38998DT     SC153470  71.774  93.280  86.079
38998DT     SC253471  71.565  93.241  86.112
38998DT     SC353472  71.798  93.233  86.338
38999DA     BB153473  71.765  93.388  85.430
38999DA     BB253474  71.433  93.435  85.576
38999DA     BB353475  71.414  93.633  85.655
38999DA     SC153476  71.515  93.556  85.939
38999DA     SC253477  71.421  93.535  86.168
38999DA     SC353478  71.664  93.555  86.248
38999DA     SC453479  71.672  93.572  85.968
39000DA     BB153480  71.162  93.571  85.462
39000DA     BB253481  70.957  93.623  85.762
39000DA     BB353482  70.961  93.828  85.819
39000DA     SC153483  71.207  93.796  86.007
39000DA     SC253484  71.255  93.802  86.252
39000DA     SC353485  71.498  93.844  86.183
39000DA     SC453486  71.353  93.823  85.944
39001DC     BB153487  70.800  93.868  85.805
39001DC     BB253488  70.728  93.893  86.158
39001DC     BB353489  70.760  94.087  86.222
39001DC     SC153490  71.020  94.056  86.214
39001DC     SC253491  71.098  94.055  86.415
39001DC     SC353492  71.272  94.089  86.144
39002DT     BB153493  70.504  94.067  86.246
39002DT     BB253494  70.627  94.160  86.572
39002DT     BB353495  70.673  94.361  86.576
39002DT     SC153496  70.892  94.321  86.436
39002DT     SC253497  71.064  94.354  86.561
39002DT     SC353498  71.065  94.333  86.238
39003DC     BB153499  70.461  94.385  86.731
39003DC     BB253500  70.732  94.531  86.919
39003DC     BB353501  70.765  94.726  86.856
39003DC     SC153502  70.880  94.643  86.635
39003DC     SC253503  71.090  94.689  86.643
39003DC     SC353504  70.924  94.603  86.378
39004DT     BB153505  70.653  94.828  87.084
39004DT     BB253506  70.980  94.981  87.070
39004DT     BB353507  70.972  95.153  86.956
39004DT     SC153508  70.958  95.015  86.733
39004DT     SC253509  71.141  95.039  86.623
39004DT     SC353510  70.863  94.919  86.507
39005DG     BB153511  71.098  95.294  87.320
39005DG     BB253512  71.318  95.406  87.055
39005DG     BB353513  71.238  95.564  86.963
39005DG     SC153514  71.086  95.397  86.756
39005DG     SC253515  71.140  95.390  86.463
39005DG     SC353516  70.891  95.245  86.528
39005DG     SC453517  70.938  95.346  86.791
39006DT     BB153518  71.330  95.783  86.959
39006DT     BB253519  71.463  95.790  86.623
39006DT     BB353520  71.346  95.913  86.504
39006DT     SC153521  71.156  95.733  86.491
39006DT     SC253522  71.146  95.653  86.292
39006DT     SC353523  70.920  95.619  86.522
39007DT     BB153524  71.542  96.103  86.498
39007DT     BB253525  71.487  96.018  86.152
39007DT     BB353526  71.336  96.135  86.074
39007DT     SC153527  71.153  95.997  86.201
39007DT     SC253528  71.037  95.884  86.060
39007DT     SC353529  70.957  95.940  86.369
39008DG     BB153530  71.675  96.174  85.853
39008DG     BB253531  71.392  96.079  85.650
39008DG     BB353532  71.274  96.236  85.620
39008DG     SC153533  71.103  96.185  85.869
39008DG     SC253534  70.815  96.106  85.871
39008DG     SC353535  70.908  96.170  86.144
39008DG     SC453536  71.148  96.248  86.009
39009DA     BB153537  71.310  96.117  85.301
39009DA     BB253538  70.946  96.081  85.280
39009DA     BB353539  70.853  96.273  85.273
39009DA     SC153540  70.821  96.296  85.581
39009DA     SC253541  70.636  96.294  85.749
39009DA     SC353542  70.803  96.410  85.905
39009DA     SC453543  70.939  96.369  85.663
39010DA     BB153544  70.731  96.094  85.026
39010DA     BB253545  70.404  96.157  85.180
39010DA     BB353546  70.354  96.364  85.166
39010DA     SC153547  70.484  96.439  85.439
39010DA     SC253548  70.409  96.511  85.665
39010DA     SC353549  70.648  96.598  85.695
39010DA     SC453550  70.637  96.488  85.437
39011DA     BB153551  70.085  96.224  85.040
39011DA     BB253552  69.896  96.398  85.302
39011DA     BB353553  69.888  96.607  85.261
39011DA     SC153554  70.147  96.673  85.420
39011DA     SC253555  70.209  96.791  85.631
39011DA     SC353556  70.443  96.808  85.529
39011DA     SC453557  70.285  96.675  85.339
39012DA     BB153558  69.562  96.560  85.294
39012DA     BB253559  69.569  96.808  85.563
39012DA     BB353560  69.588  97.005  85.483
39012DA     SC153561  69.899  97.004  85.492
39012DA     SC253562  70.080  97.118  85.620
39012DA     SC353563  70.232  97.052  85.424
39012DA     SC453564  69.977  96.955  85.360
39013DA     BB153565  69.313  97.079  85.656
39013DA     BB253566  69.508  97.333  85.834
39013DA     BB353567  69.533  97.506  85.711
39013DA     SC153568  69.799  97.408  85.584
39013DA     SC253569  70.041  97.468  85.592
39013DA     SC353570  70.059  97.341  85.370
39013DA     SC453571  69.790  97.326  85.446
39014DC     BB153572  69.439  97.711  85.747
39014DC     BB253573  69.739  97.880  85.854
39014DC     BB353574  69.799  98.016  85.710
39014DC     SC153575  69.888  97.824  85.554
39014DC     SC253576  70.103  97.832  85.546
39014DC     SC353577  69.911  97.664  85.346
39015DT     BB153578  69.714  98.260  85.840
39015DT     BB253579  70.064  98.319  85.774
39015DT     BB353580  70.087  98.417  85.593
39015DT     SC153581  70.035  98.197  85.459
39015DT     SC253582  70.214  98.129  85.361
39015DT     SC353583  69.912  98.028  85.299
39016DT     BB153584  70.148  98.683  85.692
39016DT     BB253585  70.430  98.605  85.481
39016DT     BB353586  70.398  98.678  85.290
39016DT     SC153587  70.226  98.487  85.237
39016DT     SC253588  70.311  98.353  85.092
39016DT     SC353589  69.999  98.366  85.178
39017DG     BB153590  70.737  98.886  85.395
39017DG     BB253591  70.787  98.709  85.084
39017DG     BB353592  70.716  98.817  84.932
39017DG     SC153593  70.435  98.697  84.946
39017DG     SC253594  70.307  98.524  84.739
39017DG     SC353595  70.111  98.603  84.946
39017DG     SC453596  70.326  98.766  85.042
39018DA     BB153597  71.024  98.788  84.775
39018DA     BB253598  70.867  98.605  84.499
39018DA     BB353599  70.775  98.741  84.363
39018DA     SC153600  70.499  98.736  84.507
39018DA     SC253601  70.269  98.649  84.463
39018DA     SC353602  70.194  98.818  84.641
39018DA     SC453603  70.472  98.847  84.619
39019DG     BB153604  70.975  98.609  84.171
39019DG     BB253605  70.671  98.481  84.022
39019DG     BB353606  70.593  98.618  83.900
39019DG     SC153607  70.422  98.749  84.117
39019DG     SC253608  70.124  98.748  84.130
39019DG     SC353609  70.237  98.930  84.334
39019DG     SC453610  70.485  98.867  84.204
39020DC     BB153611  70.578  98.551  83.713
39020DC     BB253612  70.223  98.489  83.688
39020DC     BB353613  70.130  98.648  83.594
39020DC     SC153614  70.152  98.797  83.808
39020DC     SC253615  69.957  98.829  83.893
39020DC     SC353616  70.225  98.995  83.966
39021DT     BB153617  70.101  98.459  83.421
39021DT     BB253618  69.768  98.570  83.504
39021DT     BB353619  69.726  98.748  83.406
39021DT     SC153620  69.880  98.884  83.569
39021DT     SC253621  69.758  99.010  83.693
39021DT     SC353622  70.079  99.034  83.655
39022DA     BB153623  69.420  98.458  83.379
39022DA     BB253624  69.271  98.782  83.466
39022DA     BB353625  69.289  98.918  83.302
39022DA     SC153626  69.563  99.032  83.396
39022DA     SC253627  69.652  99.246  83.489
39022DA     SC353628  69.881  99.161  83.410
39022DA     SC453629  69.696  98.963  83.339
39023DT     BB153630  69.125  98.964  83.234
39023DT     BB253631  69.116  99.305  83.352
39023DT     BB353632  69.174  99.433  83.201
39023DT     SC153633  69.426  99.365  83.229
39023DT     SC253634  69.536  99.530  83.311
39023DT     SC353635  69.664  99.267  83.172
39024DA     BB153636  68.809  99.574  83.354
39024DA     BB253637  69.039  99.859  83.328
39024DA     BB353638  69.068  99.913  83.124
39024DA     SC153639  69.314  99.726  83.085
39024DA     SC253640  69.560  99.750  83.051
39024DA     SC353641  69.549  99.511  82.959
39024DA     SC453642  69.286  99.578  83.030
39025DT     BB153643  68.998 100.093  83.054
39025DT     BB253644  69.317 100.258  83.024
39025DT     BB353645  69.372 100.270  82.824
39025DT     SC153646  69.433 100.015  82.817
39025DT     SC253647  69.646  99.993  82.799
39025DT     SC353648  69.426  99.760  82.751
39026DA     BB153649  69.401 100.662  82.971
39026DA     BB253650  69.711 100.589  82.790
39026DA     BB353651  69.677 100.592  82.580
39026DA     SC153652  69.609 100.289  82.562
39026DA     SC253653  69.712 100.082  82.469
39026DA     SC353654  69.475  99.984  82.479
39026DA     SC453655  69.454 100.246  82.575
39027DA     BB153656  69.927 100.805  82.590
39027DA     BB253657  70.111 100.571  82.376
39027DA     BB353658  70.039 100.582  82.175
39027DA     SC153659  69.825 100.359  82.214
39027DA     SC253660  69.787 100.125  82.138
39027DA     SC353661  69.541 100.166  82.201
39027DA     SC453662  69.677 100.405  82.258
39028DA     BB153663  70.358 100.631  82.116
39028DA     BB253664  70.348 100.328  81.910
39028DA     BB353665  70.250 100.367  81.725
39028DA     SC153666  69.967 100.291  81.829
39028DA     SC253667  69.800 100.109  81.795
39028DA     SC353668  69.629 100.276  81.890
39028DA     SC453669  69.876 100.409  81.889
39029DA     BB153670  70.529 100.238  81.607
39029DA     BB253671  70.323  99.979  81.451
39029DA     BB353672  70.221 100.058  81.280
39029DA     SC153673  69.969 100.145  81.441
39029DA     SC253674  69.730 100.076  81.461
39029DA     SC353675  69.692 100.310  81.559
39029DA     SC453676  69.966 100.295  81.498
39030DG     BB153677  70.376  99.841  81.115
39030DG     BB253678  70.044  99.713  81.051
39030DG     BB353679  69.960  99.813  80.901
39030DG     SC153680  69.835 100.027  81.081
39030DG     SC253681  69.544 100.069  81.127
39030DG     SC353682  69.701 100.289  81.246
39030DG     SC453683  69.921 100.158  81.117
39031DA     BB153684  69.891  99.516  80.724
39031DA     BB253685  69.531  99.588  80.732
39031DA     BB353686  69.480  99.728  80.580
39031DA     SC153687  69.522  99.977  80.761
39031DA     SC253688  69.381 100.153  80.868
39031DA     SC353689  69.599 100.289  80.884
39031DA     SC453690  69.667 100.047  80.760
39032DA     BB153691  69.262  99.500  80.483
39032DA     BB253692  68.998  99.744  80.557
39032DA     BB353693  68.983  99.887  80.399
39032DA     SC153694  69.186 100.086  80.526
39032DA     SC253695  69.182 100.311  80.633
39032DA     SC353696  69.433 100.318  80.579
39032DA     SC453697  69.341 100.072  80.483
39033DT     BB153698  68.813  99.892  80.284
39033DT     BB253699  68.674 100.191  80.431
39033DT     BB353700  68.692 100.350  80.299
39033DT     SC153701  68.949 100.371  80.347
39033DT     SC253702  68.987 100.553  80.455
39033DT     SC353703  69.210 100.370  80.307
39034DA     BB153704  68.297 100.326  80.436
39034DA     BB253705  68.410 100.673  80.473
39034DA     BB353706  68.423 100.767  80.282
39034DA     SC153707  68.721 100.688  80.237
39034DA     SC253708  68.942 100.802  80.228
39034DA     SC353709  69.021 100.593  80.101
39034DA     SC453710  68.750 100.551  80.158
39035DA     BB153711  68.242 100.971  80.461
39035DA     BB253712  68.501 101.221  80.394
39035DA     BB353713  68.494 101.282  80.190
39035DA     SC153714  68.696 101.065  80.094
39035DA     SC253715  68.931 101.056  80.009
39035DA     SC353716  68.866 100.826  79.915
39035DA     SC453717  68.636 100.925  80.043
39036DC     BB153718  68.446 101.463  80.165
39036DC     BB253719  68.769 101.588  80.064
39036DC     BB353720  68.776 101.608  79.858
39036DC     SC153721  68.797 101.348  79.826
39036DC     SC253722  68.994 101.301  79.754
39036DC     SC353723  68.738 101.102  79.753
39037DA     BB153724  68.899 101.978  80.016
39037DA     BB253725  69.136 101.885  79.751
39037DA     BB353726  69.045 101.907  79.559
39037DA     SC153727  68.938 101.615  79.550
39037DA     SC253728  68.984 101.405  79.423
39037DA     SC353729  68.749 101.333  79.496
39037DA     SC453730  68.789 101.589  79.604
39038DT     BB153731  69.101 102.061  79.407
39038DT     BB253732  69.266 101.839  79.175
39038DT     BB353733  69.150 101.816  79.005
39038DT     SC153734  68.982 101.660  79.132
39038DT     SC253735  69.001 101.459  79.057
39038DT     SC353736  68.757 101.572  79.239
39039DA     BB153737  69.506 101.954  78.820
39039DA     BB253738  69.402 101.654  78.636
39039DA     BB353739  69.245 101.702  78.499
39039DA     SC153740  69.017 101.642  78.702
39039DA     SC253741  68.839 101.470  78.734
39039DA     SC353742  68.726 101.645  78.883
39039DA     SC453743  68.962 101.764  78.790
39040DA     BB153744  69.421 101.586  78.232
39040DA     BB253745  69.166 101.326  78.191
39040DA     BB353746  69.003 101.400  78.075
39040DA     SC153747  68.843 101.502  78.322
39040DA     SC253748  68.634 101.441  78.444
39040DA     SC353749  68.642 101.680  78.536
39040DA     SC453750  68.865 101.654  78.367
39041DA     BB153751  69.049 101.147  77.865
39041DA     BB253752  68.720 101.022  77.965
39041DA     BB353753  68.566 101.119  77.852
39041DA     SC153754  68.528 101.349  78.058
39041DA     SC253755  68.354 101.423  78.222
39041DA     SC353756  68.471 101.651  78.210
39041DA     SC453757  68.613 101.483  78.037
39042DT     BB153758  68.457 101.005  77.726
39042DT     BB253759  68.164 100.987  77.935
39042DT     BB353760  68.013 101.105  77.857
39042DT     SC153761  68.134 101.325  77.937
39042DT     SC253762  68.020 101.414  78.096
39042DT     SC353763  68.257 101.557  77.928
39043DG     BB153764  67.895 100.722  77.915
39043DG     BB253765  67.672 100.958  78.074
39043DG     BB353766  67.558 101.046  77.937
39043DG     SC153767  67.753 101.276  77.887
39043DG     SC253768  67.707 101.563  77.953
39043DG     SC353769  67.953 101.531  77.792
39043DG     SC453770  67.867 101.258  77.776
39044DA     BB153771  67.322 100.951  78.169
39044DA     BB253772  67.213 101.301  78.193
39044DA     BB353773  67.113 101.360  78.014
39044DA     SC153774  67.372 101.463  77.875
39044DA     SC253775  67.470 101.682  77.807
39044DA     SC353776  67.617 101.543  77.648
39044DA     SC453777  67.453 101.360  77.783
39045DA     BB153778  66.895 101.446  78.244
39045DA     BB253779  66.917 101.786  78.108
39045DA     BB353780  66.822 101.796  77.917
39045DA     SC153781  67.081 101.729  77.758
39045DA     SC253782  67.239 101.846  77.605
39045DA     SC353783  67.308 101.611  77.529
39045DA     SC453784  67.109 101.574  77.723
39046DC     BB153785  66.642 101.904  77.887
39046DC     BB253786  66.779 102.176  77.693
39046DC     BB353787  66.726 102.154  77.494
39046DC     SC153788  66.899 101.960  77.460
39046DC     SC253789  67.059 102.028  77.333
39046DC     SC353790  66.996 101.720  77.411
39047DT     BB153791  66.514 102.355  77.476
39047DT     BB253792  66.733 102.448  77.205
39047DT     BB353793  66.669 102.360  77.029
39047DT     SC153794  66.760 102.125  77.104
39047DT     SC253795  66.929 102.071  76.983
39047DT     SC353796  66.761 101.871  77.175
39048DT     BB153797  66.528 102.585  76.877
39048DT     BB253798  66.772 102.470  76.637
39048DT     BB353799  66.684 102.339  76.504
39048DT     SC153800  66.679 102.147  76.684
39048DT     SC253801  66.819 101.994  76.629
39048DT     SC353802  66.584 101.967  76.851
39049DT     BB153803  66.652 102.506  76.255
39049DT     BB253804  66.852 102.227  76.143
39049DT     BB353805  66.731 102.085  76.053
39049DT     SC153806  66.638 102.006  76.285
39049DT     SC253807  66.712 101.809  76.328
39049DT     SC353808  66.468 101.957  76.481
39050DC     BB153809  66.820 102.141  75.792
39050DC     BB253810  66.907 101.796  75.847
39050DC     BB353811  66.755 101.673  75.780
39050DC     SC153812  66.606 101.733  75.988
39050DC     SC253813  66.589 101.560  76.116
39050DC     SC353814  66.405 101.826  76.130
39051DA     BB153815  67.134 101.562  75.645
39051DA     BB253816  66.974 101.270  75.798
39051DA     BB353817  66.814 101.200  75.675
39051DA     SC153818  66.598 101.376  75.813
39051DA     SC253819  66.401 101.343  75.963
39051DA     SC353820  66.327 101.575  75.882
39051DA     SC453821  66.568 101.521  75.750
39052DA     BB153822  67.017 100.962  75.769
39052DA     BB253823  66.718 100.811  75.917
39052DA     BB353824  66.579 100.756  75.765
39052DA     SC153825  66.429 101.028  75.769
39052DA     SC253826  66.206 101.115  75.839
39052DA     SC353827  66.257 101.313  75.684
39052DA     SC453828  66.478 101.142  75.667
39053DT     BB153829  66.570 100.590  75.785
39053DT     BB253830  66.234 100.574  75.915
39053DT     BB353831  66.099 100.553  75.760
39053DT     SC153832  66.127 100.804  75.691
39053DT     SC253833  65.946 100.911  75.736
39053DT     SC353834  66.187 101.017  75.547
39054DA     BB153835  66.020 100.263  76.054
39054DA     BB253836  65.701 100.413  75.952
39054DA     BB353837  65.651 100.352  75.754
39054DA     SC153838  65.794 100.593  75.618
39054DA     SC253839  65.731 100.799  75.493
39054DA     SC353840  65.971 100.795  75.405
39054DA     SC453841  65.947 100.572  75.573
39055DG     BB153842  65.389 100.217  75.869
39055DG     BB253843  65.219 100.455  75.656
39055DG     BB353844  65.207 100.384  75.471
39055DG     SC153845  65.474 100.505  75.382
39055DG     SC253846  65.509 100.722  75.180
39055DG     SC353847  65.770 100.605  75.256
39055DG     SC453848  65.608 100.420  75.403
39056DA     BB153849  64.850 100.414  75.438
39056DA     BB253850  64.886 100.644  75.156
39056DA     BB353851  64.917 100.536  74.975
39056DA     SC153852  65.227 100.536  74.999
39056DA     SC253853  65.421 100.641  74.883
39056DA     SC353854  65.560 100.453  74.988
39056DA     SC453855  65.296 100.410  75.072
39057DA     BB153856  64.648 100.680  74.827
39057DA     BB253857  64.877 100.834  74.586
39057DA     BB353858  64.919 100.699  74.426
39057DA     SC153859  65.168 100.574  74.565
39057DA     SC253860  65.415 100.573  74.534
39057DA     SC353861  65.412 100.360  74.678
39057DA     SC453862  65.145 100.443  74.655
39058DA     BB153863  64.812 100.936  74.223
39058DA     BB253864  65.154 100.953  74.091
39058DA     BB353865  65.185 100.800  73.946
39058DA     SC153866  65.288 100.591  74.153
39058DA     SC253867  65.504 100.480  74.211
39058DA     SC353868  65.358 100.303  74.326
39058DA     SC453869  65.180 100.492  74.218
39059DA     BB153870  65.273 101.069  73.792
39059DA     BB253871  65.609 100.923  73.780
39059DA     BB353872  65.617 100.768  73.634
39059DA     SC153873  65.540 100.542  73.834
39059DA     SC253874  65.649 100.346  73.942
39059DA     SC353875  65.410 100.260  73.981
39059DA     SC453876  65.384 100.505  73.847
39060DA     BB153877  65.858 100.984  73.611
39060DA     BB253878  66.077 100.694  73.666
39060DA     BB353879  66.062 100.558  73.502
39060DA     SC153880  65.831 100.393  73.629
39060DA     SC253881  65.799 100.165  73.726
39060DA     SC353882  65.549 100.204  73.682
39060DA     SC453883  65.681 100.435  73.592
39061DT     BB153884  66.217 100.564  73.455
39061DT     BB253885  66.311 100.232  73.561
39061DT     BB353886  66.272 100.096  73.410
39061DT     SC153887  66.014 100.106  73.456
39061DT     SC253888  65.949  99.919  73.541
39061DT     SC353889  65.756 100.149  73.419
39062DA     BB153890  66.651 100.059  73.594
39062DA     BB253891  66.500  99.726  73.560
39062DA     BB353892  66.483  99.673  73.355
39062DA     SC153893  66.198  99.793  73.321
39062DA     SC253894  65.966  99.710  73.286
39062DA     SC353895  65.915  99.947  73.201
39062DA     SC453896  66.187  99.946  73.270
39063DA     BB153897  66.631  99.417  73.496
39063DA     BB253898  66.354  99.216  73.365
39063DA     BB353899  66.366  99.203  73.152
39063DA     SC153900  66.190  99.455  73.103
39063DA     SC253901  65.963  99.508  73.015
39063DA     SC353902  66.054  99.745  72.980
39063DA     SC453903  66.266  99.597  73.088
39064DT     BB153904  66.400  99.030  73.087
39064DT     BB253905  66.075  98.965  72.945
39064DT     BB353906  66.080  98.996  72.741
39064DT     SC153907  66.082  99.257  72.773
39064DT     SC253908  65.894  99.339  72.707
39064DT     SC353909  66.165  99.507  72.766
39065DT     BB153910  66.065  98.731  72.705
39065DT     BB253911  65.791  98.862  72.511
39065DT     BB353912  65.858  98.919  72.323
39065DT     SC153913  65.974  99.133  72.420
39065DT     SC253914  65.868  99.308  72.354
39065DT     SC353915  66.163  99.304  72.486
39066DT     BB153916  65.735  98.704  72.208
39066DT     BB253917  65.608  98.985  72.022
39066DT     BB353918  65.737  99.031  71.865
39066DT     SC153919  65.911  99.138  72.030
39066DT     SC253920  65.917  99.351  71.998
39066DT     SC353921  66.135  99.177  72.162
39067DA     BB153922  65.366  98.987  71.669
39067DA     BB253923  65.519  99.294  71.541
39067DA     BB353924  65.677  99.248  71.405
39067DA     SC153925  65.898  99.243  71.624
39067DA     SC253926  66.094  99.381  71.690
39067DA     SC353927  66.174  99.171  71.814
39067DA     SC453928  65.931  99.102  71.693
39068DA     BB153929  65.534  99.431  71.155
39068DA     BB253930  65.834  99.643  71.149
39068DA     BB353931  65.988  99.550  71.034
39068DA     SC153932  66.113  99.400  71.276
39068DA     SC253933  66.321  99.411  71.412
39068DA     SC353934  66.265  99.171  71.481
39068DA     SC453935  66.061  99.251  71.306
39069DC     BB153936  66.093  99.604  70.801
39069DC     BB253937  66.405  99.732  70.929
39069DC     BB353938  66.561  99.608  70.872
39069DC     SC153939  66.491  99.427  71.049
39069DC     SC253940  66.639  99.419  71.205
39069DC     SC353941  66.409  99.197  71.149
39070DG     BB153942  66.714  99.931  70.644
39070DG     BB253943  66.971  99.807  70.867
39070DG     BB353944  67.074  99.662  70.778
39070DG     SC153945  66.890  99.438  70.876
39070DG     SC253946  66.965  99.223  71.070
39070DG     SC353947  66.699  99.170  70.950
39070DG     SC453948  66.763  99.398  70.788
39071DG     BB153949  67.401  99.794  70.764
39071DG     BB253950  67.491  99.538  71.004
39071DG     BB353951  67.570  99.382  70.909
39071DG     SC153952  67.301  99.240  70.870
39071DG     SC253953  67.218  98.983  70.998
39071DG     SC353954  67.023  99.066  70.792
39071DG     SC453955  67.215  99.272  70.739
39072DT     BB153956  67.793  99.302  70.940
39072DT     BB253957  67.723  99.026  71.162
39072DT     BB353958  67.756  98.847  71.064
39072DT     SC153959  67.535  98.873  70.925
39072DT     SC253960  67.392  98.726  70.990
39072DT     SC353961  67.373  98.901  70.718
39073DA     BB153962  67.937  98.870  71.439
39073DA     BB253963  67.739  98.562  71.423
39073DA     BB353964  67.831  98.421  71.292
39073DA     SC153965  67.677  98.519  71.039
39073DA     SC253966  67.499  98.434  70.887
39073DA     SC353967  67.587  98.608  70.720
39073DA     SC453968  67.747  98.632  70.949
39074DC     BB153969  67.861  98.296  71.397
39074DC     BB253970  67.606  98.072  71.275
39074DC     BB353971  67.684  97.950  71.128
39074DC     SC153972  67.684  98.146  70.953
39074DC     SC253973  67.535  98.107  70.803
39074DC     SC353974  67.772  98.326  70.783
39075DT     BB153975  67.635  97.785  71.319
39075DT     BB253976  67.453  97.663  71.032
39075DT     BB353977  67.583  97.570  70.900
39075DT     SC153978  67.679  97.801  70.820
39075DT     SC253979  67.616  97.837  70.617
39075DT     SC353980  67.850  97.996  70.775
39076DA     BB153981  67.243  97.331  70.976
39076DA     BB253982  67.309  97.331  70.615
39076DA     BB353983  67.489  97.224  70.572
39076DA     SC153984  67.671  97.476  70.593
39076DA     SC253985  67.806  97.619  70.440
39076DA     SC353986  67.931  97.693  70.652
39076DA     SC453987  67.738  97.508  70.736
39077DT     BB153988  67.478  97.050  70.472
39077DT     BB253989  67.623  97.161  70.161
39077DT     BB353990  67.819  97.095  70.146
39077DT     SC153991  67.900  97.274  70.320
39077DT     SC253992  68.020  97.421  70.219
39077DT     SC353993  68.002  97.378  70.540
39078DG     BB153994  67.656  96.908  69.817
39078DG     BB253995  67.958  97.083  69.724
39078DG     BB353996  68.117  96.972  69.768
39078DG     SC153997  68.148  97.083  70.052
39078DG     SC253998  68.374  97.251  70.150
39078DG     SC353999  68.199  97.169  70.374
39078DG     SC454000  68.069  97.013  70.172
39079DA     BB154001  68.266  96.969  69.439
39079DA     BB254002  68.567  97.138  69.563
39079DA     BB354003  68.703  96.996  69.645
39079DA     SC154004  68.587  97.015  69.933
39079DA     SC254005  68.659  97.104  70.155
39079DA     SC354006  68.480  96.948  70.252
39079DA     SC454007  68.472  96.911  69.974
39080DA     BB154008  68.947  97.098  69.435
39080DA     BB254009  69.134  97.212  69.729
39080DA     BB354010  69.244  97.051  69.815
39080DA     SC154011  69.015  96.966  70.008
39080DA     SC254012  68.970  96.970  70.254
39080DA     SC354013  68.794  96.790  70.204
39080DA     SC454014  68.912  96.854  69.957
39081DT     BB154015  69.467  97.039  69.818
39081DT     BB254016  69.501  97.133  70.165
39081DT     BB354017  69.569  96.972  70.276
39081DT     SC154018  69.333  96.857  70.266
39081DT     SC254019  69.244  96.860  70.461
39081DT     SC354020  69.145  96.680  70.210
39082DA     BB154021  69.807  97.306  70.353
39082DA     BB254022  69.695  97.169  70.674
39082DA     BB354023  69.798  96.987  70.716
39082DA     SC154024  69.585  96.806  70.578
39082DA     SC254025  69.412  96.640  70.646
39082DA     SC354026  69.424  96.559  70.403
39082DA     SC454027  69.608  96.770  70.424
39083DA     BB154028  69.836  97.170  70.982
39083DA     BB254029  69.660  96.903  71.161
39083DA     BB354030  69.784  96.731  71.178
39083DA     SC154031  69.684  96.602  70.913
39083DA     SC254032  69.546  96.407  70.843
39083DA     SC354033  69.660  96.434  70.615
39083DA     SC454034  69.767  96.635  70.779
39084DA     BB154035  69.687  96.786  71.485
39084DA     BB254036  69.541  96.450  71.474
39084DA     BB354037  69.695  96.302  71.477
39084DA     SC154038  69.721  96.288  71.167
39084DA     SC254039  69.669  96.125  70.985
39084DA     SC354040  69.837  96.260  70.846
39084DA     SC454041  69.829  96.383  71.097
39085DT     BB154042  69.700  96.190  71.635
39085DT     BB254043  69.575  95.889  71.482
39085DT     BB354044  69.731  95.758  71.445
39085DT     SC154045  69.812  95.902  71.241
39085DT     SC254046  69.775  95.795  71.058
39085DT     SC354047  69.966  96.055  71.090
39086DT     BB154048  69.653  95.593  71.649
39086DT     BB254049  69.659  95.379  71.359
39086DT     BB354050  69.849  95.299  71.334
39086DT     SC154051  69.941  95.528  71.244
39086DT     SC254052  69.985  95.510  71.034
39086DT     SC354053  70.083  95.749  71.229
39087DA     BB154054  69.590  94.969  71.335
39087DA     BB254055  69.807  94.939  71.041
39087DA     BB354056  70.003  94.877  71.099
39087DA     SC154057  70.111  95.167  71.134
39087DA     SC254058  70.272  95.319  71.020
39087DA     SC354059  70.276  95.448  71.242
39087DA     SC454060  70.100  95.233  71.281
39088DT     BB154061  70.070  94.694  71.040
39088DT     BB254062  70.293  94.814  70.783
39088DT     BB354063  70.489  94.796  70.846
39088DT     SC154064  70.464  95.001  71.008
39088DT     SC254065  70.580  95.166  70.933
39088DT     SC354066  70.455  95.142  71.231
39089DA     BB154067  70.437  94.633  70.465
39089DA     BB254068  70.724  94.861  70.455
39089DA     BB354069  70.889  94.777  70.560
39089DA     SC154070  70.812  94.905  70.833
39089DA     SC254071  70.899  95.083  70.985
39089DA     SC354072  70.759  94.968  71.166
39089DA     SC454073  70.720  94.819  70.932
39090DT     BB154074  71.009  94.759  70.441
39090DT     BB254075  71.224  95.027  70.552
39090DT     BB354076  71.369  94.953  70.680
39090DT     SC154077  71.195  94.928  70.875
39090DT     SC254078  71.238  95.073  71.028
39090DT     SC354079  71.042  94.817  71.059
39091DA     BB154080  71.517  95.210  70.379
39091DA     BB254081  71.661  95.307  70.702
39091DA     BB354082  71.793  95.155  70.773
39091DA     SC154083  71.571  95.004  70.931
39091DA     SC254084  71.511  94.962  71.170
39091DA     SC354085  71.374  94.765  71.079
39091DA     SC454086  71.493  94.886  70.856
39092DT     BB154087  71.960  95.219  70.780
39092DT     BB254088  71.989  95.237  71.139
39092DT     BB354089  72.083  95.067  71.211
39092DT     SC154090  71.867  94.923  71.174
39092DT     SC254091  71.783  94.868  71.365
39092DT     SC354092  71.706  94.736  71.079
39093DT     BB154093  72.290  95.223  71.262
39093DT     BB254094  72.212  95.068  71.578
39093DT     BB354095  72.298  94.880  71.588
39093DT     SC154096  72.119  94.781  71.423
39093DT     SC254097  71.990  94.647  71.531
39093DT     SC354098  72.014  94.670  71.208
39094DA     BB154099  72.405  95.089  71.936
39094DA     BB254100  72.287  94.756  72.034
39094DA     BB354101  72.430  94.607  71.980
39094DA     SC154102  72.306  94.555  71.700
39094DA     SC254103  72.182  94.372  71.584
39094DA     SC354104  72.257  94.486  71.367
39094DA     SC454105  72.364  94.639  71.576
39095DT     BB154106  72.517  94.514  72.127
39095DT     BB254107  72.347  94.198  72.088
39095DT     BB354108  72.472  94.062  71.993
39095DT     SC154109  72.438  94.180  71.761
39095DT     SC254110  72.322  94.052  71.632
39095DT     SC354111  72.492  94.313  71.540
39096DC     BB154112  72.495  93.933  72.226
39096DC     BB254113  72.377  93.683  71.995
39096DC     BB354114  72.537  93.601  71.892
39096DC     SC154115  72.561  93.816  71.744
39096DC     SC254116  72.503  93.771  71.542
39096DC     SC354117  72.666  94.034  71.638
39097DT     BB154118  72.510  93.372  72.033
39097DT     BB254119  72.492  93.267  71.688
39097DT     BB354120  72.683  93.237  71.613
39097DT     SC154121  72.726  93.496  71.598
39097DT     SC254122  72.734  93.554  71.391
39097DT     SC354123  72.832  93.733  71.643
39098DG     BB154124  72.505  92.870  71.567
39098DG     BB254125  72.658  92.980  71.258
39098DG     BB354126  72.854  92.946  71.263
39098DG     SC154127  72.922  93.219  71.385
39098DG     SC254128  73.074  93.438  71.250
39098DG     SC354129  73.030  93.500  71.536
39098DG     SC454130  72.923  93.235  71.544
39099DG     BB154131  72.870  92.735  70.996
39099DG     BB254132  73.080  92.982  70.835
39099DG     BB354133  73.270  92.950  70.883
39099DG     SC154134  73.263  93.129  71.131
39099DG     SC254135  73.410  93.386  71.167
39099DG     SC354136  73.286  93.300  71.421
39099DG     SC454137  73.220  93.065  71.272
39100DA     BB154138  73.390  92.928  70.545
39100DA     BB254139  73.602  93.223  70.595
39100DA     BB354140  73.786  93.168  70.687
39100DA     SC154141  73.681  93.209  70.977
39100DA     SC254142  73.719  93.367  71.166
39100DA     SC354143  73.619  93.182  71.314
39100DA     SC454144  73.618  93.081  71.052
39101DG     BB154145  73.979  93.258  70.438
39101DG     BB254146  74.097  93.510  70.669
39101DG     BB354147  74.258  93.444  70.765
39101DG     SC154148  74.100  93.317  70.994
39101DG     SC254149  74.102  93.407  71.279
39101DG     SC354150  73.958  93.150  71.251
39101DG     SC454151  74.050  93.166  70.980
39102DT     BB154152  74.489  93.536  70.755
39102DT     BB254153  74.492  93.715  71.068
39102DT     BB354154  74.622  93.623  71.200
39102DT     SC154155  74.453  93.427  71.243
39102DT     SC254156  74.376  93.441  71.443
39102DT     SC354157  74.351  93.184  71.248
39103DT     BB154158  74.804  93.829  71.177
39103DT     BB254159  74.719  93.821  71.527
39103DT     BB354160  74.847  93.693  71.628
39103DT     SC154161  74.725  93.482  71.531
39103DT     SC254162  74.618  93.382  71.688
39103DT     SC354163  74.685  93.259  71.396
39104DA     BB154164  74.821  94.065  71.817
39104DA     BB254165  74.760  93.803  72.067
39104DA     BB354166  74.941  93.701  72.113
39104DA     SC154167  74.902  93.483  71.893
39104DA     SC254168  74.853  93.239  71.882
39104DA     SC354169  74.950  93.251  71.645
39104DA     SC454170  74.968  93.511  71.749
39105DT     BB154171  74.975  93.730  72.283
39105DT     BB254172  74.888  93.401  72.403
39105DT     BB354173  75.059  93.286  72.423
39105DT     SC154174  75.077  93.254  72.163
39105DT     SC254175  75.034  93.050  72.113
39105DT     SC354176  75.172  93.268  71.917
39106DA     BB154177  74.793  93.274  72.749
39106DA     BB254178  74.893  92.932  72.664
39106DA     BB354179  75.100  92.902  72.707
39106DA     SC154180  75.196  92.988  72.424
39106DA     SC254181  75.298  92.881  72.223
39106DA     SC354182  75.372  93.118  72.159
39106DA     SC454183  75.235  93.143  72.402
39107DT     BB154184  75.095  92.782  72.823
39107DT     BB254185  75.237  92.514  72.627
39107DT     BB354186  75.442  92.512  72.648
39107DT     SC154187  75.469  92.723  72.494
39107DT     SC254188  75.561  92.664  72.309
39107DT     SC354189  75.527  92.968  72.417
39108DT     BB154190  75.391  92.292  72.778
39108DT     BB254191  75.637  92.200  72.530
39108DT     BB354192  75.826  92.255  72.595
39108DT     SC154193  75.778  92.508  72.543
39108DT     SC254194  75.897  92.570  72.376
39108DT     SC354195  75.742  92.766  72.582
39109DA     BB154196  75.864  91.847  72.493
39109DA     BB254197  76.158  92.020  72.360
39109DA     BB354198  76.290  92.075  72.518
39109DA     SC154199  76.161  92.354  72.563
39109DA     SC254200  76.222  92.593  72.528
39109DA     SC354201  76.038  92.644  72.699
39109DA     SC454202  76.044  92.365  72.672
39110DA     BB154203  76.563  91.906  72.388
39110DA     BB254204  76.750  92.221  72.381
39110DA     BB354205  76.831  92.264  72.573
39110DA     SC154206  76.584  92.427  72.668
39110DA     SC254207  76.528  92.665  72.719
39110DA     SC354208  76.331  92.569  72.852
39110DA     SC454209  76.468  92.348  72.746
39111DA     BB154210  77.180  92.280  72.501
39111DA     BB254211  77.186  92.631  72.607
39111DA     BB354212  77.224  92.644  72.817
39111DA     SC154213  76.923  92.637  72.896
39111DA     SC254214  76.754  92.794  72.991
39111DA     SC354215  76.624  92.582  73.055
39111DA     SC454216  76.858  92.494  72.929
39112DA     BB154217  77.514  92.841  72.805
39112DA     BB254218  77.333  93.109  72.979
39112DA     BB354219  77.351  93.085  73.191
39112DA     SC154220  77.095  92.910  73.217
39112DA     SC254221  76.865  92.933  73.312
39112DA     SC354222  76.861  92.676  73.310
39112DA     SC454223  77.112  92.751  73.209
39113DG     BB154224  77.510  93.365  73.239
39113DG     BB254225  77.208  93.462  73.412
39113DG     BB354226  77.224  93.419  73.606
39113DG     SC154227  77.109  93.137  73.578
39113DG     SC254228  76.849  93.042  73.690
39113DG     SC354229  77.006  92.816  73.581
39113DG     SC454230  77.208  93.016  73.546
39114DT     BB154231  77.224  93.579  73.792
39114DT     BB254232  76.888  93.533  73.913
39114DT     BB354233  76.891  93.437  74.097
39114DT     SC154234  76.949  93.207  73.985
39114DT     SC254235  76.780  93.075  74.002
39114DT     SC354236  77.082  92.988  73.922
39115DA     BB154237  76.660  93.783  74.150
39115DA     BB254238  76.468  93.499  74.280
39115DA     BB354239  76.546  93.436  74.468
39115DA     SC154240  76.744  93.230  74.344
39115DA     SC254241  76.769  92.982  74.334
39115DA     SC354242  77.014  93.030  74.277
39115DA     SC454243  76.893  93.280  74.312
39116DA     BB154244  76.235  93.480  74.563
39116DA     BB254245  76.228  93.122  74.641
39116DA     BB354246  76.329  93.084  74.825
39116DA     SC154247  76.606  93.037  74.691
39116DA     SC254248  76.761  92.846  74.650
39116DA     SC354249  76.941  93.026  74.619
39116DA     SC454250  76.704  93.163  74.676
39117DC     BB154251  76.223  93.016  74.996
39117DC     BB254252  76.337  92.674  74.978
39117DC     BB354253  76.472  92.637  75.130
39117DC     SC154254  76.661  92.771  75.007
39117DC     SC254255  76.813  92.635  74.938
39117DC     SC354256  76.841  92.957  74.957
39118DT     BB154257  76.289  92.483  75.267
39118DT     BB254258  76.569  92.262  75.209
39118DT     BB354259  76.704  92.278  75.365
39118DT     SC154260  76.790  92.510  75.278
39118DT     SC254261  76.990  92.489  75.203
39118DT     SC354262  76.841  92.769  75.270
39119DG     BB154263  76.588  91.890  75.337
39119DG     BB254264  76.948  91.922  75.320
39119DG     BB354265  77.022  91.948  75.502
39119DG     SC154266  77.001  92.254  75.494
39119DG     SC254267  77.230  92.445  75.492
39119DG     SC354268  76.974  92.588  75.527
39119DG     SC454269  76.865  92.324  75.542
39120DA     BB154270  77.216  91.700  75.377
39120DA     BB254271  77.509  91.915  75.427
39120DA     BB354272  77.552  91.935  75.635
39120DA     SC154273  77.375  92.187  75.673
39120DA     SC254274  77.408  92.431  75.718
39120DA     SC354275  77.163  92.428  75.796
39120DA     SC454276  77.223  92.165  75.719
39121DA     BB154277  77.821  91.854  75.471
39121DA     BB254278  77.962  92.164  75.608
39121DA     BB354279  77.986  92.148  75.819
39121DA     SC154280  77.704  92.261  75.885
39121DA     SC254281  77.607  92.467  75.986
39121DA     SC354282  77.397  92.325  76.025
39121DA     SC454283  77.584  92.155  75.902
39122DA     BB154284  78.266  92.258  75.688
39122DA     BB254285  78.228  92.542  75.917
39122DA     BB354286  78.249  92.477  76.119
39122DA     SC154287  77.945  92.421  76.158
39122DA     SC254288  77.754  92.518  76.285
39122DA     SC354289  77.642  92.290  76.251
39122DA     SC454290  77.893  92.272  76.128
39123DA     BB154291  78.462  92.727  76.105
39123DA     BB254292  78.275  92.875  76.384
39123DA     BB354293  78.309  92.763  76.563
39123DA     SC154294  78.068  92.572  76.518
39123DA     SC254295  77.844  92.530  76.621
39123DA     SC354296  77.858  92.300  76.507
39123DA     SC454297  78.096  92.434  76.441
39124DT     BB154298  78.418  92.843  76.725
39124DT     BB254299  78.144  92.885  76.956
39124DT     BB354300  78.152  92.739  77.103
39124DT     SC154301  78.066  92.555  76.936
39124DT     SC254302  77.867  92.496  76.992
39124DT     SC354303  78.062  92.338  76.787
39125DT     BB154304  78.257  92.898  77.323
39125DT     BB254305  77.963  92.748  77.467
39125DT     BB354306  78.013  92.572  77.564
39125DT     SC154307  78.042  92.445  77.336
39125DT     SC254308  77.884  92.301  77.314
39125DT     SC354309  78.156  92.313  77.138
39126DT     BB154310  78.011  92.652  77.854
39126DT     BB254311  77.786  92.370  77.848
39126DT     BB354312  77.887  92.197  77.901
39126DT     SC154313  78.007  92.186  77.668
39126DT     SC254314  77.931  92.019  77.557
39126DT     SC354315  78.199  92.186  77.488
39127DT     BB154316  77.794  92.153  78.182
39127DT     BB254317  77.705  91.846  78.017
39127DT     BB354318  77.851  91.703  78.049
39127DT     SC154319  78.014  91.820  77.879
39127DT     SC254320  78.036  91.697  77.704
39127DT     SC354321  78.225  91.947  77.785
39128DG     BB154322  77.521  91.527  78.214
39128DG     BB254323  77.669  91.314  77.962
39128DG     BB354324  77.818  91.209  78.041
39128DG     SC154325  78.032  91.419  77.979
39128DG     SC254326  78.258  91.387  77.786
39128DG     SC354327  78.288  91.635  77.944
39128DG     SC454328  78.061  91.534  78.086
39129DT     BB154329  77.806  90.990  78.042
39129DT     BB254330  78.028  90.911  77.769
39129DT     BB354331  78.207  90.837  77.843
39129DT     SC154332  78.284  91.076  77.919
39129DT     SC254333  78.448  91.141  77.795
39129DT     SC354334  78.357  91.275  78.076
39130DT     BB154335  78.110  90.629  77.725
39130DT     BB254336  78.425  90.698  77.563
39130DT     BB354337  78.581  90.628  77.679
39130DT     SC154338  78.554  90.826  77.849
39130DT     SC254339  78.723  90.957  77.832
39130DT     SC354340  78.508  90.954  78.074
39131DA     BB154341  78.594  90.543  77.264
39131DA     BB254342  78.921  90.667  77.373
39131DA     BB354343  79.012  90.529  77.508
39131DA     SC154344  78.890  90.659  77.763
39131DA     SC254345  78.971  90.790  77.959
39131DA     SC354346  78.752  90.716  78.072
39131DA     SC454347  78.750  90.601  77.816
39132DA     BB154348  79.230  90.608  77.275
39132DA     BB254349  79.445  90.711  77.554
39132DA     BB354350  79.501  90.541  77.671
39132DA     SC154351  79.259  90.565  77.865
39132DA     SC254352  79.219  90.625  78.103
39132DA     SC354353  78.996  90.499  78.076
39132DA     SC454354  79.126  90.481  77.828
39133DA     BB154355  79.789  90.686  77.606
39133DA     BB254356  79.835  90.705  77.969
39133DA     BB354357  79.867  90.510  78.050
39133DA     SC154358  79.566  90.455  78.103
39133DA     SC254359  79.414  90.432  78.299
39133DA     SC354360  79.257  90.309  78.138
39133DA     SC454361  79.482  90.380  77.987
39134DA     BB154362  80.132  90.661  78.176
39134DA     BB254363  80.004  90.570  78.507
39134DA     BB354364  80.032  90.361  78.542
39134DA     SC154365  79.755  90.279  78.426
39134DA     SC254366  79.538  90.190  78.511
39134DA     SC354367  79.497  90.116  78.269
39134DA     SC454368  79.749  90.240  78.270
39135DG     BB154369  80.206  90.453  78.785
39135DG     BB254370  79.952  90.283  78.977
39135DG     BB354371  79.989  90.087  78.981
39135DG     SC154372  79.828  90.027  78.728
39135DG     SC254373  79.575  89.868  78.715
39135DG     SC354374  79.677  89.927  78.444
39135DG     SC454375  79.901  90.035  78.586
39136DT     BB154376  80.034  89.977  79.172
39136DT     BB254377  79.728  89.795  79.226
39136DT     BB354378  79.755  89.596  79.176
39136DT     SC154379  79.749  89.651  78.919
39136DT     SC254380  79.569  89.572  78.833
39136DT     SC354381  79.829  89.676  78.669
39137DG     BB154382  79.637  89.598  79.566
39137DG     BB254383  79.433  89.373  79.370
39137DG     BB354384  79.531  89.203  79.338
39137DG     SC154385  79.663  89.299  79.079
39137DG     SC254386  79.609  89.192  78.805
39137DG     SC354387  79.839  89.377  78.802
39137DG     SC454388  79.803  89.375  79.086
39138DA     BB154389  79.254  89.028  79.461
39138DA     BB254390  79.222  88.847  79.144
39138DA     BB354391  79.369  88.693  79.131
39138DA     SC154392  79.581  88.874  78.993
39138DA     SC254393  79.688  88.895  78.769
39138DA     SC354394  79.873  89.025  78.891
39138DA     SC454395  79.686  88.951  79.087
39139DT     BB154396  79.319  88.485  79.135
39139DT     BB254397  79.383  88.417  78.786
39139DT     BB354398  79.557  88.308  78.766
39139DT     SC154399  79.704  88.520  78.816
39139DT     SC254400  79.807  88.579  78.636
39139DT     SC354401  79.874  88.681  78.936
39140DG     BB154402  79.288  88.041  78.603
39140DG     BB254403  79.566  88.094  78.377
39140DG     BB354404  79.719  87.978  78.430
39140DG     SC154405  79.842  88.186  78.619
39140DG     SC254406  80.103  88.327  78.579
39140DG     SC354407  79.993  88.382  78.848
39140DG     SC454408  79.795  88.189  78.772
39141DC     BB154409  79.826  87.786  78.306
39141DC     BB254410  80.126  87.949  78.188
39141DC     BB354411  80.291  87.874  78.287
39141DC     SC154412  80.230  88.007  78.505
39141DC     SC254413  80.374  88.163  78.536
39141DC     SC354414  80.161  88.055  78.755
39142DT     BB154415  80.383  87.730  78.067
39142DT     BB254416  80.655  87.952  78.149
39142DT     BB354417  80.782  87.862  78.285
39142DT     SC154418  80.611  87.899  78.481
39142DT     SC254419  80.689  88.046  78.617
39142DT     SC354420  80.441  87.845  78.675
39143DT     BB154421  80.965  87.840  78.090
39143DT     BB254422  81.124  88.038  78.345
39143DT     BB354423  81.212  87.914  78.486
39143DT     SC154424  80.978  87.855  78.590
39143DT     SC254425  80.962  87.943  78.786
39143DT     SC354426  80.769  87.713  78.665
39144DA     BB154427  81.476  88.212  78.352
39144DA     BB254428  81.477  88.210  78.719
39144DA     BB354429  81.573  88.034  78.792
39144DA     SC154430  81.310  87.868  78.804
39144DA     SC254431  81.160  87.772  78.979
39144DA     SC354432  81.076  87.617  78.793
39144DA     SC454433  81.271  87.780  78.676
39145DT     BB154434  81.720  88.081  78.882
39145DT     BB254435  81.596  88.012  79.213
39145DT     BB354436  81.657  87.824  79.274
39145DT     SC154437  81.481  87.708  79.116
39145DT     SC254438  81.328  87.616  79.236
39145DT     SC354439  81.382  87.561  78.921
39146DT     BB154440  81.809  87.958  79.440
39146DT     BB254441  81.609  87.739  79.647
39146DT     BB354442  81.691  87.549  79.648
39146DT     SC154443  81.604  87.501  79.405
39146DT     SC254444  81.447  87.354  79.413
39146DT     SC354445  81.605  87.449  79.147
39147DT     BB154446  81.771  87.590  79.902
39147DT     BB254447  81.573  87.288  79.916
39147DT     BB354448  81.691  87.124  79.869
39147DT     SC154449  81.690  87.187  79.614
39147DT     SC254450  81.573  87.043  79.505
39147DT     SC354451  81.777  87.259  79.376
39148DA     BB154452  81.515  87.026  80.238
39148DA     BB254453  81.468  86.740  80.013
39148DA     BB354454  81.652  86.635  79.987
39148DA     SC154455  81.741  86.800  79.739
39148DA     SC254456  81.771  86.764  79.495
39148DA     SC354457  81.921  86.972  79.503
39148DA     SC454458  81.832  86.930  79.766
39149DA     BB154459  81.481  86.369  80.087
39149DA     BB254460  81.550  86.223  79.757
39149DA     BB354461  81.749  86.147  79.750
39149DA     SC154462  81.872  86.413  79.644
39149DA     SC254463  81.973  86.499  79.433
39149DA     SC354464  82.076  86.681  79.581
39149DA     SC454465  81.928  86.518  79.753
39150DC     BB154466  81.784  85.942  79.731
39150DC     BB254467  81.876  85.952  79.382
39150DC     BB354468  82.080  85.924  79.362
39150DC     SC154469  82.130  86.167  79.446
39150DC     SC254470  82.204  86.285  79.282
39150DC     SC354471  82.220  86.365  79.596
39151DA     BB154472  81.890  85.648  79.111
39151DA     BB254473  82.142  85.827  78.913
39151DA     BB354474  82.338  85.760  78.964
39151DA     SC154475  82.380  85.972  79.187
39151DA     SC254476  82.519  86.176  79.224
39151DA     SC354477  82.470  86.139  79.473
39151DA     SC454478  82.339  85.932  79.337
39152DA     BB154479  82.336  85.724  78.640
39152DA     BB254480  82.609  85.968  78.634
39152DA     BB354481  82.790  85.879  78.703
39152DA     SC154482  82.743  85.956  79.001
39152DA     SC254483  82.842  86.112  79.169
39152DA     SC354484  82.731  85.960  79.344
39152DA     SC454485  82.668  85.849  79.095
39153DA     BB154486  82.870  86.011  78.417
39153DA     BB254487  83.106  86.217  78.608
39153DA     BB354488  83.271  86.099  78.675
39153DA     SC154489  83.137  86.023  78.946
39153DA     SC254490  83.168  86.074  79.188
39153DA     SC354491  83.032  85.861  79.229
39153DA     SC454492  83.051  85.887  78.951
39154DG     BB154493  83.405  86.316  78.507
39154DG     BB254494  83.546  86.405  78.828
39154DG     BB354495  83.693  86.279  78.875
39154DG     SC154496  83.509  86.080  79.018
39154DG     SC254497  83.512  86.019  79.310
39154DG     SC354498  83.336  85.831  79.165
39154DG     SC454499  83.440  85.963  78.933
39155DG     BB154500  83.853  86.557  78.897
39155DG     BB254501  83.901  86.467  79.244
39155DG     BB354502  84.042  86.329  79.259
39155DG     SC154503  83.849  86.093  79.233
39155DG     SC254504  83.784  85.894  79.446
39155DG     SC354505  83.668  85.812  79.186
39155DG     SC454506  83.814  86.037  79.087
39156DA     BB154507  84.136  86.559  79.496
39156DA     BB254508  84.127  86.292  79.747
39156DA     BB354509  84.283  86.151  79.712
39156DA     SC154510  84.111  85.969  79.528
39156DA     SC254511  84.008  85.742  79.538
39156DA     SC354512  84.000  85.757  79.282
39156DA     SC454513  84.116  85.997  79.370
39157DT     BB154514  84.387  86.158  79.850
39157DT     BB254515  84.305  85.837  79.991
39157DT     BB354516  84.439  85.694  79.923
39157DT     SC154517  84.326  85.689  79.687
39157DT     SC254518  84.225  85.501  79.660
39157DT     SC354519  84.295  85.714  79.426
39158DC     BB154520  84.524  85.698  80.171
39158DC     BB254521  84.450  85.351  80.103
39158DC     BB354522  84.606  85.265  79.998
39158DC     SC154523  84.536  85.388  79.777
39158DC     SC254524  84.459  85.244  79.636
39158DC     SC354525  84.547  85.549  79.568
39159DT     BB154526  84.680  85.128  80.219
39159DT     BB254527  84.649  84.873  79.965
39159DT     BB354528  84.824  84.860  79.856
39159DT     SC154529  84.771  85.083  79.728
39159DT     SC254530  84.727  85.038  79.522
39159DT     SC354531  84.794  85.331  79.643
39160DA     BB154532  84.790  84.456  79.982
39160DA     BB254533  84.870  84.448  79.624
39160DA     BB354534  85.077  84.489  79.593
39160DA     SC154535  85.036  84.797  79.565
39160DA     SC254536  85.049  84.969  79.385
39160DA     SC354537  85.071  85.138  79.577
39160DA     SC454538  85.049  84.886  79.698
39161DA     BB154539  85.159  84.194  79.425
39161DA     BB254540  85.246  84.393  79.129
39161DA     BB354541  85.449  84.458  79.141
39161DA     SC154542  85.381  84.725  79.285
39161DA     SC254543  85.382  84.969  79.232
39161DA     SC354544  85.384  85.003  79.487
39161DA     SC454545  85.383  84.725  79.446
39162DA     BB154546  85.542  84.312  78.845
39162DA     BB254547  85.603  84.648  78.710
39162DA     BB354548  85.801  84.712  78.757
39162DA     SC154549  85.720  84.847  79.025
39162DA     SC254550  85.701  85.078  79.117
39162DA     SC354551  85.712  84.965  79.347
39162DA     SC454552  85.729  84.758  79.159
39163DC     BB154553  85.968  84.746  78.605
39163DC     BB254554  85.940  85.105  78.607
39163DC     BB354555  86.109  85.189  78.693
39163DC     SC154556  86.031  85.119  78.934
39163DC     SC254557  85.977  85.295  79.045
39163DC     SC354558  86.029  85.000  79.169
39164DT     BB154559  86.183  85.278  78.449
39164DT     BB254560  86.149  85.575  78.650
39164DT     BB354561  86.326  85.614  78.750
39164DT     SC154562  86.283  85.418  78.919
39164DT     SC254563  86.242  85.500  79.114
39164DT     SC354564  86.315  85.191  79.050
39165DA     BB154565  86.169  85.950  78.554
39165DA     BB254566  86.249  86.042  78.900
39165DA     BB354567  86.460  86.046  78.928
39165DA     SC154568  86.479  85.748  79.016
39165DA     SC254569  86.527  85.620  79.224
39165DA     SC354570  86.579  85.424  79.067
39165DA     SC454571  86.509  85.639  78.902
39166DA     BB154572  86.333  86.325  79.042
39166DA     BB254573  86.484  86.230  79.362
39166DA     BB354574  86.697  86.236  79.348
39166DA     SC154575  86.724  85.938  79.260
39166DA     SC254576  86.809  85.725  79.357
39166DA     SC354577  86.821  85.644  79.114
39166DA     SC454578  86.726  85.907  79.103
39167DG     BB154579  86.638  86.433  79.578
39167DG     BB254580  86.834  86.193  79.766
39167DG     BB354581  87.027  86.215  79.724
39167DG     SC154582  87.022  86.017  79.490
39167DG     SC254583  87.162  85.753  79.482
39167DG     SC354584  87.050  85.821  79.217
39167DG     SC454585  86.987  86.070  79.344
39168DT     BB154586  87.169  86.275  79.878
39168DT     BB254587  87.354  85.970  79.936
39168DT     BB354588  87.537  85.979  79.839
39168DT     SC154589  87.424  85.940  79.606
39168DT     SC254590  87.478  85.745  79.532
39168DT     SC354591  87.344  85.984  79.358
39169DT     BB154592  87.686  86.021  80.073
39169DT     BB254593  87.843  85.733  79.922
39169DT     BB354594  87.993  85.793  79.793
39169DT     SC154595  87.818  85.870  79.613
39169DT     SC254596  87.827  85.738  79.444
39169DT     SC354597  87.681  86.027  79.451
39170DA     BB154598  88.207  85.533  80.047
39170DA     BB254599  88.286  85.436  79.702
39170DA     BB354600  88.428  85.571  79.618
39170DA     SC154601  88.212  85.762  79.501
39170DA     SC254602  88.125  85.828  79.277
39170DA     SC354603  88.036  86.037  79.395
39170DA     SC454604  88.166  85.886  79.593
39171DT     BB154605  88.638  85.518  79.563
39171DT     BB254606  88.580  85.502  79.208
39171DT     BB354607  88.673  85.661  79.114
39171DT     SC154608  88.491  85.829  79.199
39171DT     SC254609  88.372  85.896  79.032
39171DT     SC354610  88.380  86.031  79.327
39172DT     BB154611  88.866  85.497  79.006
39172DT     BB254612  88.706  85.651  78.722
39172DT     BB354613  88.798  85.831  78.677
39172DT     SC154614  88.685  85.948  78.883
39172DT     SC254615  88.540  86.090  78.813
39172DT     SC354616  88.659  86.073  79.114
39173DT     BB154617  88.896  85.714  78.458
39173DT     BB254618  88.697  85.990  78.339
39173DT     BB354619  88.809  86.164  78.340
39173DT     SC154620  88.791  86.182  78.601
39173DT     SC254621  88.665  86.350  78.652
39173DT     SC354622  88.862  86.190  78.855
39174DC     BB154623  88.794  86.140  78.079
39174DC     BB254624  88.640  86.457  78.159
39174DC     BB354625  88.785  86.602  78.185
39174DC     SC154626  88.852  86.505  78.419
39174DC     SC254627  88.792  86.642  78.573
39174DC     SC354628  88.997  86.393  78.609
39175DT     BB154629  88.668  86.683  77.970
39175DT     BB254630  88.633  86.949  78.212
39175DT     BB354631  88.811  87.053  78.228
39175DT     SC154632  88.921  86.859  78.366
39175DT     SC254633  88.951  86.922  78.569
39175DT     SC354634  89.085  86.662  78.430
39176DT     BB154635  88.652  87.225  78.124
39176DT     BB254636  88.771  87.370  78.433
39176DT     BB354637  88.966  87.435  78.409
39176DT     SC154638  89.058  87.190  78.416
39176DT     SC254639  89.169  87.160  78.598
39176DT     SC354640  89.175  86.966  78.339
39177DT     BB154641  88.838  87.655  78.440
39177DT     BB254642  89.091  87.650  78.697
39177DT     BB354643  89.276  87.692  78.615
39177DT     SC154644  89.292  87.454  78.506
39177DT     SC254645  89.445  87.340  78.606
39177DT     SC354646  89.307  87.265  78.323
39178DT     BB154647  89.243  87.908  78.755
39178DT     BB254648  89.558  87.768  78.862
39178DT     BB354649  89.705  87.810  78.722
39178DT     SC154650  89.611  87.630  78.557
39178DT     SC254651  89.749  87.466  78.544
39178DT     SC354652  89.503  87.524  78.341
39179DT     BB154653  89.805  87.980  78.900
39179DT     BB254654  90.080  87.763  78.816
39179DT     BB354655  90.169  87.826  78.640
39179DT     SC154656  89.970  87.733  78.497
39179DT     SC254657  90.038  87.563  78.383
39179DT     SC354658  89.763  87.728  78.334
39180DG     BB154659  90.475  87.841  78.914
39180DG     BB254660  90.575  87.661  78.617
39180DG     BB354661  90.619  87.789  78.471
39180DG     SC154662  90.334  87.798  78.361
39180DG     SC254663  90.245  87.694  78.095
39180DG     SC354664  90.028  87.847  78.226
39180DG     SC454665  90.231  87.905  78.420
39181DT     BB154666  90.845  87.847  78.352
39181DT     BB254667  90.795  87.682  78.035
39181DT     BB354668  90.775  87.824  77.885
39181DT     SC154669  90.531  87.883  77.963
39181DT     SC254670  90.390  87.813  77.816
39181DT     SC354671  90.327  88.022  78.056
39182DA     BB154672  91.095  87.598  77.729
39182DA     BB254673  90.847  87.627  77.461
39182DA     BB354674  90.861  87.819  77.368
39182DA     SC154675  90.654  87.953  77.557
39182DA     SC254676  90.422  88.044  77.543
39182DA     SC354677  90.481  88.173  77.757
39182DA     SC454678  90.710  88.026  77.689
39183DA     BB154679  90.898  87.649  77.087
39183DA     BB254680  90.584  87.801  76.973
39183DA     BB354681  90.619  88.000  76.903
39183DA     SC154682  90.568  88.132  77.180
39183DA     SC254683  90.396  88.278  77.286
39183DA     SC354684  90.578  88.334  77.458
39183DA     SC454685  90.695  88.155  77.276
39184DT     BB154686  90.591  88.039  76.706
39184DT     BB254687  90.279  88.217  76.743
39184DT     BB354688  90.310  88.420  76.716
39184DT     SC154689  90.423  88.442  76.952
39184DT     SC254690  90.293  88.554  77.083
39184DT     SC354691  90.606  88.487  77.137
39185DA     BB154692  89.992  88.296  76.473
39185DA     BB254693  89.886  88.596  76.656
39185DA     BB354694  89.984  88.769  76.579
39185DA     SC154695  90.225  88.749  76.775
39185DA     SC254696  90.314  88.875  76.971
39185DA     SC354697  90.536  88.757  76.920
39185DA     SC454698  90.354  88.667  76.726
39186DG     BB154699  89.694  88.865  76.519
39186DG     BB254700  89.779  89.126  76.755
39186DG     BB354701  89.883  89.269  76.664
39186DG     SC154702  90.155  89.140  76.719
39186DG     SC254703  90.368  89.250  76.898
39186DG     SC354704  90.468  89.017  76.745
39186DG     SC454705  90.214  89.034  76.614
39187DA     BB154706  89.656  89.508  76.784
39187DA     BB254707  89.928  89.683  76.958
39187DA     BB354708  90.041  89.800  76.820
39187DA     SC154709  90.244  89.573  76.758
39187DA     SC254710  90.485  89.523  76.801
39187DA     SC354711  90.465  89.358  76.605
39187DA     SC454712  90.212  89.477  76.633
39188DA     BB154713  89.981  90.070  77.009
39188DA     BB254714  90.342  90.098  77.065
39188DA     BB354715  90.436  90.194  76.898
39188DA     SC154716  90.491  89.929  76.745
39188DA     SC254717  90.689  89.789  76.683
39188DA     SC354718  90.535  89.688  76.504
39188DA     SC454719  90.380  89.879  76.640
39189DT     BB154720  90.535  90.404  76.898
39189DT     BB254721  90.874  90.282  76.900
39189DT     BB354722  90.966  90.326  76.720
39189DT     SC154723  90.833  90.136  76.596
39189DT     SC254724  90.968  89.978  76.542
39189DT     SC354725  90.667  90.018  76.429
39190DA     BB154726  91.221  90.484  77.011
39190DA     BB254727  91.423  90.270  76.792
39190DA     BB354728  91.463  90.370  76.607
39190DA     SC154729  91.210  90.259  76.464
39190DA     SC254730  91.158  90.098  76.281
39190DA     SC354731  90.932  90.219  76.267
39190DA     SC454732  91.076  90.348  76.469
39191DA     BB154733  91.758  90.282  76.709
39191DA     BB254734  91.774  90.075  76.407
39191DA     BB354735  91.804  90.197  76.234
39191DA     SC154736  91.500  90.235  76.178
39191DA     SC254737  91.334  90.162  76.007
39191DA     SC354738  91.193  90.360  76.090
39191DA     SC454739  91.428  90.364  76.243
39192DT     BB154740  91.966  90.159  76.156
39192DT     BB254741  91.833  89.978  75.873
39192DT     BB354742  91.826  90.101  75.707
39192DT     SC154743  91.618  90.230  75.802
39192DT     SC254744  91.445  90.182  75.683
39192DT     SC354745  91.469  90.426  75.895
39193DA     BB154746  92.011  89.734  75.618
39193DA     BB254747  91.757  89.803  75.362
39193DA     BB354748  91.819  89.965  75.238
39193DA     SC154749  91.684  90.183  75.414
39193DA     SC254750  91.490  90.339  75.397
39193DA     SC354751  91.607  90.472  75.583
39193DA     SC454752  91.773  90.252  75.528
39194DC     BB154753  91.851  89.916  75.057
39194DC     BB254754  91.555  90.068  74.918
39194DC     BB354755  91.603  90.249  74.830
39194DC     SC154756  91.629  90.365  75.064
39194DC     SC254757  91.468  90.505  75.092
39194DC     SC354758  91.740  90.489  75.268
39195DA     BB154759  91.385  90.019  74.555
39195DA     BB254760  91.235  90.354  74.570
39195DA     BB354761  91.362  90.496  74.474
39195DA     SC154762  91.519  90.568  74.733
39195DA     SC254763  91.540  90.762  74.887
39195DA     SC354764  91.761  90.654  74.960
39195DA     SC454765  91.653  90.486  74.763
39196DG     BB154766  91.107  90.526  74.304
39196DG     BB254767  91.111  90.858  74.449
39196DG     BB354768  91.241  90.973  74.352
39196DG     SC154769  91.477  90.899  74.533
39196DG     SC254770  91.619  91.084  74.720
39196DG     SC354771  91.762  90.826  74.698
39196DG     SC454772  91.566  90.772  74.496
39197DT     BB154773  91.157  91.134  74.269
39197DT     BB254774  91.269  91.398  74.488
39197DT     BB354775  91.435  91.492  74.407
39197DT     SC154776  91.590  91.289  74.469
39197DT     SC254777  91.725  91.348  74.626
39197DT     SC354778  91.752  91.083  74.442
39198DT     BB154779  91.257  91.676  74.395
39198DT     BB254780  91.529  91.810  74.591
39198DT     BB354781  91.685  91.866  74.467
39198DT     SC154782  91.754  91.615  74.428
39198DT     SC254783  91.942  91.578  74.525
39198DT     SC354784  91.800  91.387  74.305
39199DT     BB154785  91.602  92.089  74.561
39199DT     BB254786  91.954  92.071  74.640
39199DT     BB354787  92.066  92.107  74.469
39199DT     SC154788  92.012  91.869  74.373
39199DT     SC254789  92.190  91.748  74.376
39199DT     SC354790  91.918  91.681  74.214
39200DA     BB154791  92.204  92.331  74.802
39200DA     BB254792  92.493  92.191  74.625
39200DA     BB354793  92.512  92.279  74.432
39200DA     SC154794  92.336  92.064  74.291
39200DA     SC254795  92.368  91.877  74.129
39200DA     SC354796  92.116  91.899  74.085
39200DA     SC454797  92.179  92.094  74.277
39201DT     BB154798  92.669  92.405  74.387
39201DT     BB254799  92.845  92.192  74.155
39201DT     BB354800  92.811  92.255  73.961
39201DT     SC154801  92.568  92.156  73.963
39201DT     SC254802  92.559  91.987  73.832
39201DT     SC354803  92.305  92.145  73.955
39202DA     BB154804  93.236  92.278  73.953
39202DA     BB254805  93.137  92.106  73.645
39202DA     BB354806  93.068  92.246  73.500
39202DA     SC154807  92.770  92.230  73.591
39202DA     SC254808  92.555  92.143  73.501
39202DA     SC354809  92.444  92.302  73.669
39202DA     SC454810  92.720  92.337  73.701
39203DC     BB154811  93.168  92.326  73.282
39203DC     BB254812  92.942  92.143  73.069
39203DC     BB354813  92.824  92.275  72.962
39203DC     SC154814  92.679  92.329  73.174
39203DC     SC254815  92.482  92.246  73.149
39203DC     SC354816  92.569  92.465  73.372
39204DA     BB154817  92.992  92.056  72.643
39204DA     BB254818  92.628  92.054  72.593
39204DA     BB354819  92.564  92.239  72.507
39204DA     SC154820  92.514  92.377  72.782
39204DA     SC254821  92.319  92.455  72.916
39204DA     SC354822  92.489  92.602  73.039
39204DA     SC454823  92.635  92.462  72.845
39205DT     BB154824  92.480  92.253  72.306
39205DT     BB254825  92.137  92.284  72.414
39205DT     BB354826  92.069  92.475  72.376
39205DT     SC154827  92.206  92.573  72.578
39205DT     SC254828  92.071  92.634  72.733
39205DT     SC354829  92.384  92.714  72.711
39206DT     BB154830  91.914  92.371  72.184
39206DT     BB254831  91.685  92.526  72.414
39206DT     BB354832  91.663  92.727  72.368
39206DT     SC154833  91.899  92.783  72.467
39206DT     SC254834  91.875  92.898  72.648
39206DT     SC354835  92.150  92.863  72.481
39207DT     BB154836  91.422  92.650  72.299
39207DT     BB254837  91.375  92.901  72.555
39207DT     BB354838  91.390  93.090  72.472
39207DT     SC154839  91.651  93.070  72.451
39207DT     SC254840  91.744  93.205  72.591
39207DT     SC354841  91.891  93.056  72.343
39208DT     BB154842  91.136  93.091  72.530
39208DT     BB254843  91.276  93.376  72.702
39208DT     BB354844  91.300  93.533  72.569
39208DT     SC154845  91.509  93.419  72.459
39208DT     SC254846  91.686  93.530  72.508
39208DT     SC354847  91.662  93.305  72.276
39209DA     BB154848  91.105  93.657  72.922
39209DA     BB254849  91.369  93.899  72.843
39209DA     BB354850  91.318  94.009  72.667
39209DA     SC154851  91.459  93.811  72.473
39209DA     SC254852  91.660  93.808  72.325
39209DA     SC354853  91.543  93.614  72.205
39209DA     SC454854  91.370  93.693  72.410
39210DA     BB154855  91.378  94.263  72.871
39210DA     BB254856  91.634  94.371  72.631
39210DA     BB354857  91.542  94.452  72.457
39210DA     SC154858  91.533  94.180  72.306
39210DA     SC254859  91.644  94.074  72.109
39210DA     SC354860  91.444  93.914  72.108
39210DA     SC454861  91.399  94.091  72.321
39211DT     BB154862  91.552  94.662  72.403
39211DT     BB254863  91.780  94.628  72.125
39211DT     BB354864  91.678  94.656  71.946
39211DT     SC154865  91.566  94.420  71.964
39211DT     SC254866  91.647  94.291  71.812
39211DT     SC354867  91.379  94.235  71.986
39212DT     BB154868  91.776  94.919  71.889
39212DT     BB254869  91.859  94.732  71.592
39212DT     BB354870  91.706  94.748  71.453
39212DT     SC154871  91.555  94.582  71.590
39212DT     SC254872  91.536  94.397  71.481
39212DT     SC354873  91.353  94.491  71.732
39213DT     BB154874  91.836  94.929  71.276
39213DT     BB254875  91.752  94.650  71.064
39213DT     BB354876  91.567  94.680  70.976
39213DT     SC154877  91.443  94.628  71.201
39213DT     SC254878  91.339  94.441  71.183
39213DT     SC354879  91.294  94.661  71.416
39214DC     BB154880  91.670  94.736  70.721
39214DC     BB254881  91.447  94.457  70.667
39214DC     BB354882  91.257  94.526  70.622
39214DC     SC154883  91.214  94.593  70.872
39214DC     SC254884  91.067  94.461  70.957
39214DC     SC354885  91.166  94.742  71.085
39215DT     BB154886  91.282  94.452  70.358
39215DT     BB254887  90.992  94.273  70.476
39215DT     BB354888  90.822  94.389  70.451
39215DT     SC154889  90.887  94.542  70.654
39215DT     SC254890  90.750  94.507  70.816
39215DT     SC354891  90.956  94.756  70.791
39216DT     BB154892  90.741  94.226  70.249
39216DT     BB254893  90.472  94.214  70.490
39216DT     BB354894  90.340  94.369  70.455
39216DT     SC154895  90.506  94.545  70.557
39216DT     SC254896  90.428  94.618  70.743
39216DT     SC354897  90.669  94.751  70.573
39217DT     BB154898  90.165  94.185  70.368
39217DT     BB254899  89.996  94.354  70.639
39217DT     BB354900  89.904  94.525  70.569
39217DT     SC154901  90.133  94.651  70.551
39217DT     SC254902  90.142  94.805  70.701
39217DT     SC354903  90.340  94.777  70.446
39218DT     BB154904  89.671  94.399  70.606
39218DT     BB254905  89.647  94.699  70.805
39218DT     BB354906  89.584  94.857  70.687
39218DT     SC154907  89.820  94.876  70.573
39218DT     SC254908  89.915  95.058  70.637
39218DT     SC354909  90.006  94.874  70.387
39219DT     BB154910  89.349  94.845  70.816
39219DT     BB254911  89.466  95.183  70.866
39219DT     BB354912  89.412  95.301  70.705
39219DT     SC154913  89.597  95.193  70.553
39219DT     SC254914  89.750  95.339  70.514
39219DT     SC354915  89.708  95.059  70.356
39220DA     BB154916  89.293  95.492  71.059
39220DA     BB254917  89.470  95.737  70.852
39220DA     BB354918  89.351  95.793  70.684
39220DA     SC154919  89.463  95.571  70.498
39220DA     SC254920  89.609  95.556  70.296
39220DA     SC354921  89.502  95.325  70.261
39220DA     SC454922  89.385  95.431  70.493
39221DA     BB154923  89.425  96.086  70.811
39221DA     BB254924  89.585  96.160  70.489
39221DA     BB354925  89.437  96.191  70.339
39221DA     SC154926  89.427  95.893  70.252
39221DA     SC254927  89.494  95.756  70.054
39221DA     SC354928  89.328  95.582  70.144
39221DA     SC454929  89.318  95.798  70.323
39222DA     BB154930  89.610  96.469  70.303
39222DA     BB254931  89.676  96.359  69.959
39222DA     BB354932  89.501  96.383  69.839
39222DA     SC154933  89.393  96.097  69.897
39222DA     SC254934  89.361  95.883  69.773
39222DA     SC354935  89.194  95.824  69.958
39222DA     SC454936  89.292  96.079  70.021
39223DC     BB154937  89.504  96.519  69.690
39223DC     BB254938  89.526  96.283  69.418
39223DC     BB354939  89.342  96.266  69.324
39223DC     SC154940  89.245  96.124  69.522
39223DC     SC254941  89.214  95.921  69.456
39223DC     SC354942  89.093  96.053  69.726
39224DG     BB154943  89.604  96.386  69.034
39224DG     BB254944  89.423  96.089  68.934
39224DG     BB354945  89.241  96.138  68.873
39224DG     SC154946  89.114  96.113  69.150
39224DG     SC254947  88.913  95.909  69.233
39224DG     SC354948  88.947  96.114  69.443
39224DG     SC454949  89.113  96.241  69.247
39225DA     BB154950  89.309  95.960  68.583
39225DA     BB254951  89.030  95.734  68.656
39225DA     BB354952  88.845  95.828  68.608
39225DA     SC154953  88.805  95.949  68.892
39225DA     SC254954  88.654  95.916  69.088
39225DA     SC354955  88.725  96.152  69.157
39225DA     SC454956  88.860  96.098  68.917
39226DA     BB154957  88.820  95.549  68.441
39226DA     BB254958  88.530  95.474  68.652
39226DA     BB354959  88.363  95.593  68.594
39226DA     SC154960  88.430  95.826  68.789
39226DA     SC254961  88.335  95.926  68.997
39226DA     SC354962  88.471  96.134  68.935
39226DA     SC454963  88.521  95.946  68.732
39227DT     BB154964  88.225  95.489  68.530
39227DT     BB254965  88.011  95.520  68.819
39227DT     BB354966  87.865  95.663  68.784
39227DT     SC154967  88.039  95.858  68.813
39227DT     SC254968  87.996  95.965  68.995
39227DT     SC354969  88.190  96.066  68.756
39228DG     BB154970  87.710  95.303  68.895
39228DG     BB254971  87.587  95.575  69.100
39228DG     BB354972  87.456  95.684  68.997
39228DG     SC154973  87.667  95.874  68.884
39228DG     SC254974  87.694  96.165  68.948
39228DG     SC354975  87.874  96.089  68.726
39228DG     SC454976  87.740  95.836  68.746
39229DC     BB154977  87.284  95.686  69.086
39229DC     BB254978  87.265  96.023  69.214
39229DC     BB354979  87.165  96.144  69.078
39229DC     SC154980  87.374  96.150  68.919
39229DC     SC254981  87.460  96.347  68.920
39229DC     SC354982  87.523  96.114  68.704
39230DG     BB154983  86.990  96.161  69.447
39230DG     BB254984  87.058  96.491  69.313
39230DG     BB354985  86.929  96.532  69.167
39230DG     SC154986  87.105  96.415  68.946
39230DG     SC254987  87.236  96.568  68.726
39230DG     SC354988  87.262  96.277  68.681
39230DG     SC454989  87.091  96.259  68.910
39231DT     BB154990  86.790  96.698  69.187
39231DT     BB254991  86.925  96.940  68.956
39231DT     BB354992  86.817  96.938  68.780
39231DT     SC154993  86.929  96.712  68.705
39231DT     SC254994  87.060  96.749  68.539
39231DT     SC354995  86.955  96.459  68.637
39232DC     BB154996  86.694  97.177  68.837
39232DC     BB254997  86.847  97.231  68.514
39232DC     BB354998  86.717  97.172  68.364
39232DC     SC154999  86.764  96.918  68.413
39232DC     SC255000  86.876  96.833  68.250
39232DC     SC355001  86.723  96.667  68.483
39233DT     BB155002  86.656  97.432  68.289
39233DT     BB255003  86.778  97.279  67.986
39233DT     BB355004  86.622  97.190  67.883
39233DT     SC155005  86.613  96.991  68.054
39233DT     SC255006  86.682  96.811  67.958
39233DT     SC355007  86.522  96.827  68.240
39234DA     BB155008  86.814  97.441  67.608
39234DA     BB255009  86.779  97.110  67.453
39234DA     BB355010  86.576  97.077  67.396
39234DA     SC155011  86.496  96.945  67.666
39234DA     SC255012  86.433  96.719  67.750
39234DA     SC355013  86.329  96.843  67.948
39234DA     SC455014  86.436  97.041  67.780
39235DC     BB155015  86.542  97.061  67.204
39235DC     BB255016  86.493  96.704  67.199
39235DC     BB355017  86.291  96.660  67.185
39235DC     SC155018  86.252  96.725  67.436
39235DC     SC255019  86.207  96.547  67.549
39235DC     SC355020  86.161  96.853  67.648
39236DG     BB155021  86.490  96.482  66.877
39236DG     BB255022  86.287  96.246  67.060
39236DG     BB355023  86.095  96.269  67.011
39236DG     SC155024  86.039  96.475  67.231
39236DG     SC255025  85.862  96.436  67.467
39236DG     SC355026  85.948  96.718  67.446
39236DG     SC455027  86.063  96.630  67.199
39237DT     BB155028  86.001  96.106  66.925
39237DT     BB255029  85.789  95.989  67.192
39237DT     BB355030  85.596  96.059  67.165
39237DT     SC155031  85.664  96.301  67.240
39237DT     SC255032  85.574  96.344  67.431
39237DT     SC355033  85.708  96.560  67.230
39238DA     BB155034  85.575  95.643  67.226
39238DA     BB255035  85.326  95.803  67.443
39238DA     BB355036  85.163  95.877  67.327
39238DA     SC155037  85.290  96.158  67.285
39238DA     SC255038  85.248  96.392  67.360
39238DA     SC355039  85.389  96.461  67.158
39238DA     SC455040  85.379  96.181  67.153
39239DG     BB155041  84.978  95.682  67.491
39239DG     BB255042  84.827  95.989  67.605
39239DG     BB355043  84.693  96.052  67.473
39239DG     SC155044  84.893  96.219  67.312
39239DG     SC255045  84.894  96.517  67.289
39239DG     SC355046  85.089  96.396  67.102
39239DG     SC455047  84.974  96.149  67.193
39240DG     BB155048  84.436  96.042  67.690
39240DG     BB255049  84.412  96.400  67.647
39240DG     BB355050  84.298  96.442  67.490
39240DG     SC155051  84.530  96.440  67.290
39240DG     SC255052  84.634  96.677  67.140
39240DG     SC355053  84.756  96.427  67.041
39240DG     SC455054  84.571  96.302  67.220
39241DA     BB155055  84.092  96.652  67.683
39241DA     BB255056  84.184  96.939  67.475
39241DA     BB355057  84.069  96.941  67.295
39241DA     SC155058  84.275  96.773  67.133
39241DA     SC255059  84.435  96.809  66.945
39241DA     SC355060  84.428  96.554  66.917
39241DA     SC455061  84.256  96.614  67.131
39242DA     BB155062  83.998  97.244  67.398
39242DA     BB255063  84.165  97.364  67.095
39242DA     BB355064  84.038  97.337  66.925
39242DA     SC155065  84.147  97.054  66.858
39242DA     SC255066  84.285  96.947  66.680
39242DA     SC355067  84.180  96.727  66.760
39242DA     SC455068  84.069  96.928  66.921
39243DT     BB155069  83.977  97.501  66.838
39243DT     BB255070  84.194  97.478  66.550
39243DT     BB355071  84.086  97.413  66.386
39243DT     SC155072  84.078  97.167  66.478
39243DT     SC255073  84.201  97.041  66.355
39243DT     SC355074  83.982  96.940  66.571
39244DC     BB155075  84.117  97.659  66.291
39244DC     BB255076  84.263  97.444  66.041
39244DC     BB355077  84.115  97.371  65.916
39244DC     SC155078  84.030  97.204  66.101
39244DC     SC255079  84.077  97.002  66.041
39244DC     SC355080  83.871  97.089  66.277
39245DA     BB155081  84.426  97.532  65.685
39245DA     BB255082  84.345  97.200  65.553
39245DA     BB355083  84.156  97.203  65.454
39245DA     SC155084  83.994  97.128  65.708
39245DA     SC255085  83.864  96.933  65.794
39245DA     SC355086  83.753  97.102  65.952
39245DA     SC455087  83.936  97.249  65.798
39246DT     BB155088  84.159  97.171  65.261
39246DT     BB255089  84.023  96.837  65.269
39246DT     BB355090  83.824  96.840  65.214
39246DT     SC155091  83.754  96.942  65.446
39246DT     SC255092  83.644  96.794  65.558
39246DT     SC355093  83.659  97.111  65.624
39247DA     BB155094  84.013  96.552  64.974
39247DA     BB255095  83.712  96.400  65.117
39247DA     BB355096  83.537  96.479  65.022
39247DA     SC155097  83.502  96.712  65.226
39247DA     SC255098  83.343  96.775  65.408
39247DA     SC355099  83.435  97.013  65.376
39247DA     SC455100  83.571  96.853  65.191
39248DC     BB155101  83.423  96.355  64.909
39248DC     BB255102  83.153  96.321  65.145
39248DC     BB355103  82.990  96.432  65.082
39248DC     SC155104  83.105  96.656  65.153
39248DC     SC255105  83.003  96.739  65.323
39248DC     SC355106  83.215  96.896  65.134
39249DT     BB155107  82.863  96.202  65.024
39249DT     BB255108  82.648  96.369  65.260
39249DT     BB355109  82.523  96.501  65.161
39249DT     SC155110  82.719  96.671  65.125
39249DT     SC255111  82.685  96.846  65.246
39249DT     SC355112  82.897  96.822  65.001
39250DG     BB155113  82.307  96.236  65.383
39250DG     BB255114  82.221  96.579  65.460
39250DG     BB355115  82.110  96.655  65.314
39250DG     SC155116  82.348  96.758  65.152
39250DG     SC255117  82.415  97.045  65.103
39250DG     SC355118  82.587  96.867  64.940
39250DG     SC455119  82.417  96.662  65.045
39251DT     BB155120  81.907  96.721  65.357
39251DT     BB255121  81.941  97.080  65.350
39251DT     BB355122  81.865  97.154  65.172
39251DT     SC155123  82.074  97.069  65.038
39251DT     SC255124  82.191  97.238  64.974
39251DT     SC355125  82.219  96.934  64.865
39252DT     BB155126  81.649  97.256  65.305
39252DT     BB255127  81.789  97.541  65.134
39252DT     BB355128  81.711  97.555  64.943
39252DT     SC155129  81.858  97.354  64.860
39252DT     SC255130  82.008  97.426  64.724
39252DT     SC355131  81.923  97.116  64.765
39253DA     BB155132  81.639  97.934  65.108
39253DA     BB255133  81.788  97.987  64.777
39253DA     BB355134  81.643  97.950  64.624
39253DA     SC155135  81.714  97.649  64.595
39253DA     SC255136  81.822  97.500  64.426
39253DA     SC355137  81.702  97.309  64.548
39253DA     SC455138  81.630  97.544  64.683
39254DA     BB155139  81.705  98.257  64.510
39254DA     BB255140  81.819  98.105  64.197
39254DA     BB355141  81.652  98.056  64.073
39254DA     SC155142  81.621  97.768  64.188
39254DA     SC255143  81.655  97.534  64.110
39254DA     SC355144  81.498  97.469  64.303
39254DA     SC455145  81.521  97.748  64.312
39255DA     BB155146  81.795  98.240  63.838
39255DA     BB255147  81.821  97.935  63.635
39255DA     BB355148  81.635  97.894  63.538
39255DA     SC155149  81.526  97.717  63.769
39255DA     SC255150  81.474  97.476  63.809
39255DA     SC355151  81.326  97.560  64.000
39255DA     SC455152  81.437  97.789  63.883
39256DA     BB155153  81.824  97.893  63.272
39256DA     BB255154  81.732  97.541  63.230
39256DA     BB355155  81.537  97.525  63.145
39256DA     SC155156  81.391  97.518  63.419
39256DA     SC255157  81.264  97.353  63.557
39256DA     SC355158  81.167  97.558  63.677
39256DA     SC455159  81.340  97.658  63.480
39257DA     BB155160  81.725  97.342  62.958
39257DA     BB255161  81.512  97.062  63.059
39257DA     BB355162  81.321  97.075  62.964
39257DA     SC155163  81.191  97.241  63.193
39257DA     SC255164  81.019  97.207  63.371
39257DA     SC355165  81.005  97.463  63.377
39257DA     SC455166  81.196  97.401  63.181
39258DA     BB155167  81.448  96.779  62.931
39258DA     BB255168  81.143  96.662  63.097
39258DA     BB355169  80.973  96.695  62.973
39258DA     SC155170  80.914  96.978  63.089
39258DA     SC255171  80.740  97.086  63.231
39258DA     SC355172  80.824  97.307  63.131
39258DA     SC455173  80.979  97.104  63.014
39259DC     BB155174  80.929  96.542  62.960
39259DC     BB255175  80.621  96.561  63.147
39259DC     BB355176  80.466  96.622  63.023
39259DC     SC155177  80.554  96.869  63.022
39259DC     SC255178  80.417  96.994  63.132
39259DC     SC355179  80.652  97.098  62.934
39260DT     BB155180  80.396  96.378  63.070
39260DT     BB255181  80.106  96.578  63.148
39260DT     BB355182  80.011  96.636  62.973
39260DT     SC155183  80.197  96.813  62.921
39260DT     SC255184  80.115  97.011  62.944
39260DT     SC355185  80.395  96.937  62.798
39261DA     BB155186  79.708  96.463  63.211
39261DA     BB255187  79.571  96.767  63.060
39261DA     BB355188  79.540  96.738  62.851
39261DA     SC155189  79.822  96.839  62.769
39261DA     SC255190  79.921  97.036  62.653
39261DA     SC355191  80.126  96.886  62.616
39261DA     SC455192  79.939  96.730  62.755
39262DT     BB155193  79.341  96.723  62.746
39262DT     BB255194  79.351  97.040  62.575
39262DT     BB355195  79.382  97.010  62.372
39262DT     SC155196  79.635  96.952  62.411
39262DT     SC255197  79.757  97.110  62.331
39262DT     SC355198  79.860  96.815  62.418
39263DT     BB155199  79.113  97.056  62.273
39263DT     BB255200  79.313  97.283  62.076
39263DT     BB355201  79.370  97.192  61.899
39263DT     SC155202  79.548  97.044  62.023
39263DT     SC255203  79.745  97.109  61.967
39263DT     SC355204  79.671  96.831  62.117
39264DT     BB155205  79.190  97.330  61.723
39264DT     BB255206  79.515  97.396  61.581
39264DT     BB355207  79.561  97.253  61.439
39264DT     SC155208  79.609  97.074  61.624
39264DT     SC255209  79.820  97.031  61.628
39264DT     SC355210  79.587  96.854  61.769
39265DA     BB155211  79.610  97.617  61.235
39265DA     BB255212  79.914  97.419  61.182
39265DA     BB355213  79.878  97.264  61.039
39265DA     SC155214  79.793  97.054  61.252
39265DA     SC255215  79.883  96.843  61.350
39265DA     SC355216  79.641  96.797  61.421
39265DA     SC455217  79.636  97.043  61.287
39266DT     BB155218  79.974  97.267  60.853
39266DT     BB255219  80.212  97.006  60.927
39266DT     BB355220  80.161  96.833  60.826
39266DT     SC155221  79.963  96.785  60.992
39266DT     SC255222  80.011  96.614  61.113
39266DT     SC355223  79.718  96.749  61.083
39267DT     BB155224  80.371  96.866  60.657
39267DT     BB255225  80.425  96.542  60.808
39267DT     BB355226  80.324  96.397  60.700
39267DT     SC155227  80.093  96.473  60.798
39267DT     SC255228  80.019  96.322  60.932
39267DT     SC355229  79.847  96.568  60.809
39268DT     BB155230  80.560  96.301  60.602
39268DT     BB255231  80.410  96.019  60.769
39268DT     BB355232  80.283  95.919  60.639
39268DT     SC155233  80.101  96.108  60.659
39268DT     SC255234  79.931  96.031  60.767
39268DT     SC355235  79.939  96.304  60.591
39269DT     BB155236  80.460  95.713  60.624
39269DT     BB255237  80.154  95.564  60.744
39269DT     BB355238  80.034  95.511  60.584
39269DT     SC155239  79.968  95.762  60.541
39269DT     SC255240  79.761  95.791  60.592
39269DT     SC355241  79.944  95.995  60.421
39270DA     BB155242  80.075  95.179  60.835
39270DA     BB255243  79.718  95.230  60.771
39270DA     BB355244  79.670  95.174  60.571
39270DA     SC155245  79.720  95.457  60.452
39270DA     SC255246  79.585  95.642  60.355
39270DA     SC355247  79.806  95.721  60.251
39270DA     SC455248  79.867  95.489  60.395
39271DT     BB155249  79.551  95.024  60.559
39271DT     BB255250  79.257  95.212  60.467
39271DT     BB355251  79.221  95.193  60.264
39271DT     SC155252  79.420  95.355  60.206
39271DT     SC255253  79.341  95.539  60.127
39271DT     SC355254  79.649  95.442  60.109
39272DT     BB155255  79.014  95.055  60.345
39272DT     BB255256  78.878  95.322  60.144
39272DT     BB355257  78.892  95.274  59.943
39272DT     SC155258  79.150  95.319  59.941
39272DT     SC255259  79.191  95.496  59.826
39272DT     SC355260  79.409  95.277  59.920
39273DA     BB155261  78.506  95.409  60.044
39273DA     BB255262  78.614  95.582  59.740
39273DA     BB355263  78.623  95.445  59.576
39273DA     SC155264  78.920  95.368  59.624
39273DA     SC255265  79.140  95.402  59.511
39273DA     SC355266  79.219  95.201  59.649
39273DA     SC455267  78.950  95.240  59.717
39274DG     BB155268  78.415  95.644  59.456
39274DG     BB255269  78.673  95.691  59.206
39274DG     BB355270  78.669  95.541  59.076
39274DG     SC155271  78.864  95.366  59.233
39274DG     SC255272  79.140  95.290  59.147
39274DG     SC355273  79.060  95.140  59.390
39274DG     SC455274  78.807  95.267  59.345
39275DT     BB155275  78.619  95.566  58.852
39275DT     BB255276  78.943  95.522  58.700
39275DT     BB355277  78.956  95.335  58.612
39275DT     SC155278  78.981  95.219  58.847
39275DT     SC255279  79.181  95.142  58.867
39275DT     SC355280  78.928  95.066  59.055
39276DT     BB155281  78.929  95.419  58.340
39276DT     BB255282  79.237  95.231  58.341
39276DT     BB355283  79.200  95.033  58.295
39276DT     SC155284  79.100  94.989  58.533
39276DT     SC255285  79.233  94.861  58.644
39276DT     SC355286  78.926  94.928  58.722
39277DA     BB155287  79.487  95.133  58.003
39277DA     BB255288  79.601  94.825  58.167
39277DA     BB355289  79.493  94.657  58.093
39277DA     SC155290  79.270  94.674  58.308
39277DA     SC255291  79.194  94.543  58.507
39277DA     SC355292  78.971  94.666  58.477
39277DA     SC455293  79.139  94.760  58.272
39278DT     BB155294  79.587  94.497  57.974
39278DT     BB255295  79.601  94.260  58.245
39278DT     BB355296  79.467  94.106  58.211
39278DT     SC155297  79.263  94.259  58.274
39278DT     SC255298  79.178  94.193  58.460
39278DT     SC355299  79.039  94.396  58.250
39279DA     BB155300  79.844  93.950  58.298
39279DA     BB255301  79.600  93.792  58.521
39279DA     BB355302  79.480  93.652  58.413
39279DA     SC155303  79.260  93.860  58.340
39279DA     SC255304  79.023  93.906  58.399
39279DA     SC355305  79.015  94.041  58.181
39279DA     SC455306  79.276  93.938  58.200
39280DT     BB155307  79.517  93.508  58.490
39280DT     BB255308  79.205  93.477  58.669
39280DT     BB355309  79.071  93.364  58.559
39280DT     SC155310  79.028  93.562  58.393
39280DT     SC255311  78.828  93.636  58.421
39280DT     SC355312  79.021  93.701  58.169
39281DC     BB155313  79.117  93.209  58.761
39281DC     BB255314  78.760  93.264  58.757
39281DC     BB355315  78.672  93.144  58.613
39281DC     SC155316  78.760  93.298  58.420
39281DC     SC255317  78.594  93.402  58.330
39281DC     SC355318  78.893  93.377  58.206
39282DC     BB155319  78.578  93.028  58.826
39282DC     BB255320  78.289  93.114  58.629
39282DC     BB355321  78.263  92.976  58.477
39282DC     SC155322  78.464  93.076  58.341
39282DC     SC255323  78.389  93.174  58.164
39282DC     SC355324  78.698  93.094  58.220
39283DA     BB155325  77.895  93.012  58.677
39283DA     BB255326  77.829  93.021  58.317
39283DA     BB355327  77.855  92.828  58.231
39283DA     SC155328  78.156  92.872  58.164
39283DA     SC255329  78.298  92.902  57.961
39283DA     SC355330  78.493  92.833  58.112
39283DA     SC455331  78.264  92.826  58.274
39284DG     BB155332  77.550  92.826  58.144
39284DG     BB255333  77.685  92.810  57.809
39284DG     BB355334  77.723  92.622  57.759
39284DG     SC155335  78.009  92.625  57.867
39284DG     SC255336  78.258  92.603  57.703
39284DG     SC355337  78.320  92.588  57.992
39284DG     SC455338  78.035  92.588  58.020
39285DA     BB155339  77.529  92.633  57.462
39285DA     BB255340  77.823  92.555  57.257
39285DA     BB355341  77.860  92.345  57.257
39285DA     SC155342  78.049  92.353  57.504
39285DA     SC255343  78.291  92.322  57.552
39285DA     SC355344  78.217  92.282  57.795
39285DA     SC455345  77.983  92.330  57.649
39286DA     BB155346  77.845  92.358  56.925
39286DA     BB255347  78.196  92.249  56.919
39286DA     BB355348  78.208  92.038  56.945
39286DA     SC155349  78.230  92.052  57.255
39286DA     SC255350  78.403  92.010  57.430
39286DA     SC355351  78.205  91.991  57.592
39286DA     SC455352  78.094  92.043  57.340
39287DT     BB155353  78.277  91.910  56.788
39287DT     BB255354  78.603  91.848  56.929
39287DT     BB355355  78.615  91.652  56.997
39287DT     SC155356  78.466  91.708  57.206
39287DT     SC255357  78.587  91.699  57.384
39287DT     SC355358  78.263  91.705  57.374
39288DG     BB155359  78.912  91.718  56.729
39288DG     BB255360  79.041  91.588  57.041
39288DG     BB355361  79.008  91.392  57.051
39288DG     SC155362  78.733  91.420  57.184
39288DG     SC255363  78.664  91.336  57.462
39288DG     SC355364  78.421  91.415  57.312
39288DG     SC455365  78.603  91.434  57.092
39289DA     BB155366  79.341  91.395  57.131
39289DA     BB255367  79.264  91.227  57.448
39289DA     BB355368  79.210  91.023  57.413
39289DA     SC155369  78.906  91.083  57.384
39289DA     SC255370  78.697  91.040  57.512
39289DA     SC355371  78.576  91.082  57.290
39289DA     SC455372  78.850  91.111  57.236
39290DT     BB155373  79.332  90.907  57.488
39290DT     BB255374  79.126  90.784  57.757
39290DT     BB355375  79.043  90.602  57.705
39290DT     SC155376  78.871  90.718  57.543
39290DT     SC255377  78.673  90.702  57.626
39290DT     SC355378  78.746  90.786  57.321
39291DA     BB155379  79.224  90.555  58.081
39291DA     BB255380  78.890  90.404  58.097
39291DA     BB355381  78.886  90.222  57.984
39291DA     SC155382  78.798  90.360  57.720
39291DA     SC255383  78.595  90.370  57.575
39291DA     SC355384  78.755  90.449  57.391
39291DA     SC455385  78.914  90.407  57.618
39292DT     BB155386  78.862  90.041  58.079
39292DT     BB255387  78.523  89.977  57.974
39292DT     BB355388  78.521  89.832  57.826
39292DT     SC155389  78.610  90.003  57.647
39292DT     SC255390  78.454  90.046  57.505
39292DT     SC355391  78.769  90.116  57.470
39293DT     BB155392  78.422  89.635  57.993
39293DT     BB255393  78.186  89.644  57.720
39293DT     BB355394  78.247  89.515  57.570
39293DT     SC155395  78.436  89.680  57.494
39293DT     SC255396  78.386  89.763  57.302
39293DT     SC355397  78.677  89.776  57.445
39294DC     BB155398  78.051  89.328  57.628
39294DC     BB255399  77.997  89.408  57.280
39294DC     BB355400  78.111  89.283  57.160
39294DC     SC155401  78.331  89.412  57.221
39294DC     SC255402  78.401  89.519  57.048
39294DC     SC355403  78.572  89.461  57.317
39295DA     BB155404  77.719  89.254  57.016
39295DA     BB255405  77.939  89.317  56.729
39295DA     BB355406  78.049  89.141  56.679
39295DA     SC155407  78.289  89.210  56.864
39295DA     SC255408  78.528  89.278  56.839
39295DA     SC355409  78.556  89.196  57.080
39295DA     SC455410  78.287  89.152  57.014
39296DT     BB155411  78.011  89.054  56.503
39296DT     BB255412  78.313  89.160  56.337
39296DT     BB355413  78.446  89.002  56.323
39296DT     SC155414  78.505  89.019  56.578
39296DT     SC255415  78.707  89.090  56.599
39296DT     SC355416  78.528  88.953  56.832
39297DT     BB155417  78.397  88.992  56.058
39297DT     BB255418  78.754  89.037  56.085
39297DT     BB355419  78.847  88.854  56.109
39297DT     SC155420  78.768  88.837  56.358
39297DT     SC255421  78.938  88.857  56.488
39297DT     SC355422  78.644  88.750  56.574
39298DT     BB155423  78.943  88.867  55.854
39298DT     BB255424  79.237  88.825  56.060
39298DT     BB355425  79.271  88.623  56.093
39298DT     SC155426  79.073  88.610  56.265
39298DT     SC255427  79.152  88.581  56.463
39298DT     SC355428  78.843  88.540  56.373
39299DG     BB155429  79.612  88.758  55.911
39299DG     BB255430  79.689  88.583  56.218
39299DG     BB355431  79.683  88.387  56.188
39299DG     SC155432  79.386  88.361  56.256
39299DG     SC255433  79.272  88.218  56.492
39299DG     SC355434  79.058  88.298  56.305
39299DG     SC455435  79.277  88.379  56.140
39300DA     BB155436  80.004  88.363  56.324
39300DA     BB255437  79.877  88.145  56.590
39300DA     BB355438  79.849  87.947  56.516
39300DA     SC155439  79.553  87.994  56.431
39300DA     SC255440  79.326  87.922  56.503
39300DA     SC355441  79.251  87.991  56.268
39300DA     SC455442  79.527  88.042  56.279
39301DA     BB155443  80.042  87.868  56.771
39301DA     BB255444  79.758  87.677  56.903
39301DA     BB355445  79.739  87.491  56.799
39301DA     SC155446  79.546  87.606  56.583
39301DA     SC255447  79.305  87.583  56.520
39301DA     SC355448  79.378  87.674  56.292
39301DA     SC455449  79.611  87.662  56.448
39302DA     BB155450  79.751  87.376  57.105
39302DA     BB255451  79.413  87.247  57.049
39302DA     BB355452  79.419  87.073  56.927
39302DA     SC155453  79.391  87.229  56.659
39302DA     SC255454  79.220  87.260  56.480
39302DA     SC355455  79.416  87.337  56.334
39302DA     SC455456  79.526  87.273  56.584
39303DA     BB155457  79.247  86.967  57.183
39303DA     BB255458  78.972  86.912  56.946
39303DA     BB355459  79.011  86.740  56.826
39303DA     SC155460  79.156  86.901  56.602
39303DA     SC255461  79.113  86.967  56.365
39303DA     SC355462  79.367  87.003  56.351
39303DA     SC455463  79.316  86.916  56.612
39304DT     BB155464  78.888  86.601  56.854
39304DT     BB255465  78.705  86.645  56.546
39304DT     BB355466  78.765  86.504  56.407
39304DT     SC155467  78.990  86.631  56.364
39304DT     SC255468  78.987  86.717  56.166
39304DT     SC355469  79.249  86.681  56.354
39305DA     BB155470  78.347  86.520  56.441
39305DA     BB255471  78.436  86.536  56.086
39305DA     BB355472  78.512  86.348  56.020
39305DA     SC155473  78.808  86.417  56.085
39305DA     SC255474  79.018  86.463  55.960
39305DA     SC355475  79.138  86.405  56.179
39305DA     SC455476  78.864  86.375  56.230
39306DA     BB155477  78.278  86.433  55.809
39306DA     BB255478  78.541  86.418  55.554
39306DA     BB355479  78.603  86.216  55.524
39306DA     SC155480  78.828  86.227  55.739
39306DA     SC255481  79.077  86.226  55.745
39306DA     SC355482  79.050  86.153  55.989
39306DA     SC455483  78.790  86.181  55.888
39307DT     BB155484  78.563  86.169  55.357
39307DT     BB255485  78.900  86.164  55.228
39307DT     BB355486  78.976  85.972  55.234
39307DT     SC155487  79.009  85.985  55.494
39307DT     SC255488  79.219  85.990  55.539
39307DT     SC355489  78.981  85.931  55.751
39308DA     BB155490  79.036  86.141  54.853
39308DA     BB255491  79.349  85.984  54.962
39308DA     BB355492  79.329  85.772  54.963
39308DA     SC155493  79.234  85.758  55.259
39308DA     SC255494  79.323  85.678  55.478
39308DA     SC355495  79.077  85.675  55.553
39308DA     SC455496  79.076  85.761  55.286
39309DG     BB155497  79.564  85.791  54.760
39309DG     BB255498  79.740  85.604  55.014
39309DG     BB355499  79.689  85.412  55.005
39309DG     SC155500  79.453  85.439  55.198
39309DG     SC255501  79.434  85.318  55.470
39309DG     SC355502  79.176  85.437  55.390
39309DG     SC455503  79.309  85.478  55.140
39310DA     BB155504  80.030  85.327  54.990
39310DA     BB255505  79.995  85.122  55.292
39310DA     BB355506  79.897  84.938  55.246
39310DA     SC155507  79.612  85.047  55.301
39310DA     SC255508  79.432  85.016  55.471
39310DA     SC355509  79.275  85.113  55.293
39310DA     SC455510  79.530  85.109  55.177
39311DA     BB155511  80.156  84.759  55.372
39311DA     BB255512  79.926  84.615  55.619
39311DA     BB355513  79.819  84.451  55.533
39311DA     SC155514  79.582  84.627  55.433
39311DA     SC255515  79.342  84.661  55.489
39311DA     SC355516  79.323  84.762  55.254
39311DA     SC455517  79.591  84.685  55.284
39312DT     BB155518  79.837  84.218  55.584
39312DT     BB255519  79.528  84.194  55.769
39312DT     BB355520  79.393  84.076  55.666
39312DT     SC155521  79.347  84.268  55.492
39312DT     SC255522  79.147  84.343  55.520
39312DT     SC355523  79.337  84.398  55.263
39313DA     BB155524  79.404  83.880  56.038
39313DA     BB255525  79.051  83.937  55.958
39313DA     BB355526  78.983  83.792  55.817
39313DA     SC155527  79.054  83.964  55.568
39313DA     SC255528  78.933  84.089  55.389
39313DA     SC355529  79.153  84.074  55.258
39313DA     SC455530  79.199  83.943  55.502
39314DG     BB155531  78.775  83.690  56.032
39314DG     BB255532  78.532  83.820  55.796
39314DG     BB355533  78.486  83.680  55.663
39314DG     SC155534  78.708  83.758  55.467
39314DG     SC255535  78.668  83.876  55.195
39314DG     SC355536  78.952  83.804  55.239
39314DG     SC455537  78.852  83.692  55.483
39315DA     BB155538  78.157  83.742  55.744
39315DA     BB255539  78.090  83.843  55.398
39315DA     BB355540  78.069  83.671  55.273
39315DA     SC155541  78.371  83.660  55.199
39315DA     SC255542  78.513  83.699  54.997
39315DA     SC355543  78.689  83.557  55.119
39315DA     SC455544  78.467  83.568  55.290
39316DC     BB155545  77.891  83.643  55.194
39316DC     BB255546  77.976  83.747  54.859
39316DC     BB355547  77.995  83.581  54.737
39316DC     SC155548  78.227  83.519  54.843
39316DC     SC255549  78.383  83.552  54.698
39316DC     SC355550  78.411  83.383  54.974
39317DC     BB155551  77.769  83.663  54.621
39317DC     BB255552  78.010  83.648  54.353
39317DC     BB355553  78.021  83.455  54.279
39317DC     SC155554  78.156  83.373  54.489
39317DC     SC255555  78.358  83.328  54.430
39317DC     SC355556  78.216  83.241  54.709
39318DT     BB155557  77.900  83.550  54.061
39318DT     BB255558  78.205  83.401  53.940
39318DT     BB355559  78.179  83.198  53.910
39318DT     SC155560  78.185  83.152  54.168
39318DT     SC255561  78.366  83.046  54.217
39318DT     SC355562  78.108  83.079  54.410
39319DC     BB155563  78.188  83.246  53.647
39319DC     BB255564  78.446  83.001  53.703
39319DC     BB355565  78.364  82.810  53.700
39319DC     SC155566  78.257  82.844  53.938
39319DC     SC255567  78.358  82.719  54.080
39319DC     SC355568  78.075  82.868  54.127
39320DT     BB155569  78.482  82.766  53.461
39320DT     BB255570  78.599  82.496  53.670
39320DT     BB355571  78.463  82.340  53.665
39320DT     SC155572  78.296  82.470  53.820
39320DT     SC255573  78.288  82.375  54.013
39320DT     SC355574  78.078  82.595  53.901
39321DA     BB155575  78.839  82.177  53.576
39321DA     BB255576  78.683  81.965  53.832
39321DA     BB355577  78.524  81.851  53.746
39321DA     SC155578  78.305  82.064  53.805
39321DA     SC255579  78.108  82.089  53.956
39321DA     SC355580  78.031  82.270  53.791
39321DA     SC455581  78.274  82.172  53.691
39322DT     BB155582  78.545  81.651  53.736
39322DT     BB255583  78.310  81.567  53.997
39322DT     BB355584  78.133  81.499  53.914
39322DT     SC155585  78.064  81.742  53.843
39322DT     SC255586  77.897  81.806  53.963
39322DT     SC355587  78.000  81.947  53.690
39323DT     BB155588  78.185  81.238  53.986
39323DT     BB255589  77.863  81.308  54.133
39323DT     BB355590  77.713  81.266  53.997
39323DT     SC155591  77.767  81.483  53.860
39323DT     SC255592  77.605  81.623  53.883
39323DT     SC355593  77.840  81.638  53.659
39324DT     BB155594  77.630  81.031  54.125
39324DT     BB255595  77.330  81.230  54.109
39324DT     BB355596  77.229  81.192  53.932
39324DT     SC155597  77.403  81.330  53.793
39324DT     SC255598  77.310  81.510  53.721
39324DT     SC355599  77.592  81.387  53.617
39325DA     BB155600  76.936  81.124  54.226
39325DA     BB255601  76.790  81.350  53.977
39325DA     BB355602  76.736  81.241  53.801
39325DA     SC155603  77.011  81.283  53.661
39325DA     SC255604  77.101  81.409  53.466
39325DA     SC355605  77.298  81.245  53.476
39325DA     SC455606  77.123  81.170  53.683
39326DT     BB155607  76.529  81.212  53.736
39326DT     BB255608  76.540  81.454  53.469
39326DT     BB355609  76.536  81.358  53.286
39326DT     SC155610  76.786  81.281  53.311
39326DT     SC255611  76.908  81.388  53.169
39326DT     SC355612  76.995  81.123  53.335
39327DG     BB155613  76.213  81.606  53.290
39327DG     BB255614  76.425  81.669  53.003
39327DG     BB355615  76.389  81.534  52.862
39327DG     SC155616  76.599  81.335  52.965
39327DG     SC255617  76.850  81.257  52.824
39327DG     SC355618  76.805  81.087  53.061
39327DG     SC455619  76.556  81.227  53.075
39328DA     BB155620  76.358  81.814  52.670
39328DA     BB255621  76.640  81.699  52.465
39328DA     BB355622  76.578  81.539  52.337
39328DA     SC155623  76.651  81.315  52.541
39328DA     SC255624  76.821  81.134  52.564
39328DA     SC355625  76.656  81.029  52.731
39328DA     SC455626  76.535  81.265  52.641
39329DT     BB155627  76.601  81.600  52.178
39329DT     BB255628  76.897  81.407  52.103
39329DT     BB355629  76.845  81.234  52.003
39329DT     SC155630  76.754  81.124  52.224
39329DT     SC255631  76.885  80.964  52.283
39329DT     SC355632  76.586  81.018  52.398
39330DA     BB155633  77.173  81.458  51.855
39330DA     BB255634  77.267  81.105  51.878
39330DA     BB355635  77.151  80.988  51.742
39330DA     SC155636  76.925  80.929  51.948
39330DA     SC255637  76.838  80.734  52.075
39330DA     SC355638  76.623  80.871  52.100
39330DA     SC455639  76.799  81.030  51.951
39331DT     BB155640  77.271  80.930  51.649
39331DT     BB255641  77.252  80.586  51.755
39331DT     BB355642  77.113  80.484  51.641
39331DT     SC155643  76.913  80.600  51.767
39331DT     SC255644  76.811  80.454  51.888
39331DT     SC355645  76.699  80.748  51.809
39332DT     BB155646  77.325  80.366  51.546
39332DT     BB255647  77.112  80.100  51.663
39332DT     BB355648  76.964  80.062  51.523
39332DT     SC155649  76.834  80.280  51.590
39332DT     SC255650  76.651  80.226  51.690
39332DT     SC355651  76.724  80.519  51.571
39333DT     BB155652  77.086  79.830  51.455
39333DT     BB255653  76.750  79.732  51.540
39333DT     BB355654  76.626  79.754  51.375
39333DT     SC155655  76.623  80.015  51.402
39333DT     SC255656  76.427  80.078  51.465
39333DT     SC355657  76.661  80.270  51.348
39334DC     BB155658  76.609  79.481  51.328
39334DC     BB255659  76.265  79.586  51.361
39334DC     BB355660  76.192  79.645  51.177
39334DC     SC155661  76.327  79.870  51.186
39334DC     SC255662  76.190  80.034  51.210
39334DC     SC355663  76.501  80.057  51.122
39335DG     BB155664  75.945  79.340  51.291
39335DG     BB255665  75.756  79.637  51.209
39335DG     BB355666  75.736  79.652  51.011
39335DG     SC155667  75.993  79.814  50.973
39335DG     SC255668  76.010  80.098  50.884
39335DG     SC355669  76.279  79.974  50.893
39335DG     SC455670  76.131  79.736  50.951
39336DT     BB155671  75.538  79.649  50.922
39336DT     BB255672  75.492  79.998  50.844
39336DT     BB355673  75.520  80.030  50.641
39336DT     SC155674  75.780  80.005  50.665
39336DT     SC255675  75.874  80.196  50.632
39336DT     SC355676  76.024  79.909  50.635
39337DA     BB155677  75.167  80.206  50.785
39337DA     BB255678  75.353  80.455  50.591
39337DA     BB355679  75.351  80.405  50.384
39337DA     SC155680  75.613  80.238  50.397
39337DA     SC255681  75.848  80.256  50.315
39337DA     SC355682  75.858  80.002  50.350
39337DA     SC455683  75.599  80.080  50.423
39338DA     BB155684  75.261  80.718  50.417
39338DA     BB255685  75.547  80.793  50.200
39338DA     BB355686  75.513  80.715  50.004
39338DA     SC155687  75.646  80.440  50.063
39338DA     SC255688  75.852  80.317  49.998
39338DA     SC355689  75.726  80.106  50.074
39338DA     SC455690  75.550  80.321  50.114
39339DT     BB155691  75.507  80.852  49.895
39339DT     BB255692  75.820  80.794  49.724
39339DT     BB355693  75.787  80.682  49.553
39339DT     SC155694  75.751  80.463  49.692
39339DT     SC255695  75.916  80.329  49.659
39339DT     SC355696  75.632  80.251  49.795
39340DT     BB155697  75.841  80.904  49.418
39340DT     BB255698  76.066  80.657  49.281
39340DT     BB355699  75.967  80.542  49.141
39340DT     SC155700  75.837  80.411  49.327
39340DT     SC255701  75.908  80.208  49.336
39340DT     SC355702  75.637  80.320  49.473
39341DA     BB155703  76.292  80.678  48.907
39341DA     BB255704  76.264  80.317  48.847
39341DA     BB355705  76.104  80.276  48.712
39341DA     SC155706  75.891  80.243  48.936
39341DA     SC255707  75.756  80.059  49.037
39341DA     SC355708  75.602  80.246  49.122
39341DA     SC455709  75.807  80.373  48.979
39342DT     BB155710  76.113  80.197  48.484
39342DT     BB255711  76.004  79.861  48.554
39342DT     BB355712  75.817  79.828  48.470
39342DT     SC155713  75.700  79.972  48.655
39342DT     SC255714  75.583  79.843  48.782
39342DT     SC355715  75.561  80.166  48.768
39343DG     BB155716  76.044  79.544  48.280
39343DG     BB255717  75.754  79.393  48.434
39343DG     BB355718  75.596  79.412  48.314
39343DG     SC155719  75.509  79.681  48.431
39343DG     SC255720  75.260  79.732  48.587
39343DG     SC355721  75.397  79.986  48.522
39343DG     SC455722  75.569  79.816  48.369
39344DC     BB155723  75.487  79.233  48.225
39344DC     BB255724  75.191  79.224  48.432
39344DC     BB355725  75.028  79.291  48.324
39344DC     SC155726  75.109  79.541  48.341
39344DC     SC255727  74.976  79.650  48.470
39344DC     SC355728  75.195  79.779  48.269
39345DT     BB155729  74.943  79.039  48.328
39345DT     BB255730  74.677  79.229  48.480
39345DT     BB355731  74.553  79.307  48.333
39345DT     SC155732  74.731  79.489  48.269
39345DT     SC255733  74.659  79.683  48.329
39345DT     SC355734  74.906  79.626  48.127
39346DT     BB155735  74.373  79.131  48.419
39346DT     BB255736  74.208  79.451  48.443
39346DT     BB355737  74.127  79.503  48.259
39346DT     SC155738  74.364  79.563  48.164
39346DT     SC255739  74.378  79.775  48.135
39346DT     SC355740  74.581  79.554  48.013
39347DT     BB155741  73.879  79.453  48.356
39347DT     BB255742  73.857  79.789  48.227
39347DT     BB355743  73.813  79.785  48.025
39347DT     SC155744  74.058  79.712  47.965
39347DT     SC255745  74.159  79.873  47.865
39347DT     SC355746  74.258  79.565  47.877
39348DC     BB155747  73.536  79.858  48.043
39348DC     BB255748  73.666  80.096  47.805
39348DC     BB355749  73.644  80.023  47.613
39348DC     SC155750  73.842  79.854  47.647
39348DC     SC255751  74.010  79.915  47.526
39348DC     SC355752  73.973  79.626  47.668
39349DT     BB155753  73.397  80.168  47.494
39349DT     BB255754  73.649  80.233  47.245
39349DT     BB355755  73.631  80.099  47.089
39349DT     SC155756  73.735  79.905  47.233
39349DT     SC255757  73.929  79.855  47.156
39349DT     SC355758  73.756  79.678  47.365
39350DT     BB155759  73.485  80.244  46.845
39350DT     BB255760  73.794  80.130  46.697
39350DT     BB355761  73.761  79.957  46.589
39350DT     SC155762  73.740  79.814  46.808
39350DT     SC255763  73.911  79.684  46.824
39350DT     SC355764  73.636  79.661  46.995
39351DT     BB155765  73.768  80.049  46.295
39351DT     BB255766  74.034  79.806  46.314
39351DT     BB355767  73.968  79.624  46.240
39351DT     SC155768  73.827  79.578  46.457
39351DT     SC255769  73.917  79.418  46.568
39351DT     SC355770  73.619  79.536  46.614
39352DA     BB155771  74.318  79.716  46.034
39352DA     BB255772  74.360  79.382  46.179
39352DA     BB355773  74.253  79.237  46.064
39352DA     SC155774  73.991  79.263  46.229
39352DA     SC255775  73.860  79.125  46.390
39352DA     SC355776  73.663  79.278  46.330
39352DA     SC455777  73.881  79.368  46.178
39353DG     BB155778  74.538  79.131  46.044
39353DG     BB255779  74.398  78.860  46.238
39353DG     BB355780  74.302  78.733  46.118
39353DG     SC155781  74.033  78.877  46.138
39353DG     SC255782  73.786  78.770  46.267
39353DG     SC355783  73.729  79.022  46.122
39353DG     SC455784  74.001  78.995  46.035
39354DT     BB155785  74.376  78.539  46.117
39354DT     BB255786  74.123  78.364  46.306
39354DT     BB355787  73.997  78.262  46.178
39354DT     SC155788  73.878  78.484  46.106
39354DT     SC255789  73.677  78.486  46.184
39354DT     SC355790  73.794  78.683  45.955
39355DA     BB155791  74.133  78.008  46.482
39355DA     BB255792  73.769  77.970  46.455
39355DA     BB355793  73.719  77.865  46.276
39355DA     SC155794  73.692  78.122  46.103
39355DA     SC255795  73.511  78.251  45.991
39355DA     SC355796  73.699  78.351  45.848
39355DA     SC455797  73.823  78.171  46.023
39356DG     BB155798  73.595  77.674  46.484
39356DG     BB255799  73.288  77.767  46.317
39356DG     BB355800  73.267  77.662  46.149
39356DG     SC155801  73.415  77.866  45.975
39356DG     SC255802  73.294  78.032  45.758
39356DG     SC355803  73.588  78.058  45.759
39356DG     SC455804  73.574  77.855  45.960
39357DT     BB155805  73.099  77.526  46.126
39357DT     BB255806  72.890  77.704  45.892
39357DT     BB355807  72.908  77.621  45.704
39357DT     SC155808  73.145  77.728  45.670
39357DT     SC255809  73.133  77.882  45.520
39357DT     SC355810  73.405  77.748  45.633
39358DA     BB155811  72.502  77.656  45.800
39358DA     BB255812  72.550  77.789  45.462
39358DA     BB355813  72.586  77.631  45.324
39358DA     SC155814  72.895  77.639  45.358
39358DA     SC255815  73.094  77.705  45.223
39358DA     SC355816  73.228  77.559  45.385
39358DA     SC455817  72.961  77.543  45.469
39359DA     BB155818  72.342  77.792  45.181
39359DA     BB255819  72.566  77.836  44.894
39359DA     BB355820  72.591  77.652  44.790
39359DA     SC155821  72.839  77.564  44.955
39359DA     SC255822  73.084  77.533  44.919
39359DA     SC355823  73.076  77.384  45.127
39359DA     SC455824  72.813  77.473  45.086
39360DA     BB155825  72.505  77.854  44.547
39360DA     BB255826  72.820  77.762  44.385
39360DA     BB355827  72.810  77.562  44.311
39360DA     SC155828  72.921  77.434  44.572
39360DA     SC255829  73.129  77.318  44.647
39360DA     SC355830  72.984  77.227  44.839
39360DA     SC455831  72.814  77.387  44.683
39361DA     BB155832  72.905  77.714  44.034
39361DA     BB255833  73.197  77.492  44.034
39361DA     BB355834  73.139  77.294  43.979
39361DA     SC155835  73.085  77.203  44.272
39361DA     SC255836  73.187  77.049  44.439
39361DA     SC355837  72.958  77.056  44.555
39361DA     SC455838  72.935  77.219  44.328
39362DC     BB155839  73.199  77.203  43.795
39362DC     BB255840  73.436  76.969  43.934
39362DC     BB355841  73.358  76.777  43.929
39362DC     SC155842  73.197  76.829  44.130
39362DC     SC255843  73.261  76.719  44.303
39362DC     SC355844  72.975  76.865  44.267
39363DT     BB155845  73.514  76.681  43.711
39363DT     BB255846  73.581  76.443  43.973
39363DT     BB355847  73.447  76.286  43.961
39363DT     SC155848  73.253  76.433  44.059
39363DT     SC255849  73.204  76.364  44.257
39363DT     SC355850  73.025  76.563  44.075
39364DT     BB155851  73.630  76.096  43.856
39364DT     BB255852  73.508  75.940  44.157
39364DT     BB355853  73.343  75.822  44.114
39364DT     SC155854  73.190  76.034  44.087
39364DT     SC255855  73.049  76.041  44.250
39364DT     SC355856  73.032  76.213  43.976
39365DT     BB155857  73.485  75.587  44.147
39365DT     BB255858  73.213  75.563  44.384
39365DT     BB355859  73.049  75.475  44.293
39365DT     SC155860  72.995  75.694  44.160
39365DT     SC255861  72.814  75.782  44.236
39365DT     SC355862  72.959  75.859  43.956
39366DA     BB155863  73.131  75.277  44.653
39366DA     BB255864  72.775  75.364  44.649
39366DA     BB355865  72.670  75.239  44.511
39366DA     SC155866  72.707  75.433  44.270
39366DA     SC255867  72.565  75.583  44.131
39366DA     SC355868  72.755  75.568  43.959
39366DA     SC455869  72.835  75.410  44.176
39367DG     BB155870  72.525  75.180  44.775
39367DG     BB255871  72.247  75.330  44.599
39367DG     BB355872  72.169  75.199  44.471
39367DG     SC155873  72.351  75.281  44.239
39367DG     SC255874  72.264  75.415  43.987
39367DG     SC355875  72.548  75.332  43.969
39367DG     SC455876  72.493  75.209  44.222
39368DG     BB155877  71.893  75.253  44.633
39368DG     BB255878  71.762  75.373  44.317
39368DG     BB355879  71.712  75.219  44.202
39368DG     SC155880  71.987  75.196  44.071
39368DG     SC255881  72.050  75.250  43.784
39368DG     SC355882  72.283  75.130  43.921
39368DG     SC455883  72.099  75.104  44.140
39369DA     BB155884  71.406  75.380  44.168
39369DA     BB255885  71.450  75.386  43.804
39369DA     BB355886  71.420  75.192  43.723
39369DA     SC155887  71.719  75.109  43.745
39369DA     SC255888  71.910  75.064  43.592
39369DA     SC355889  72.013  74.937  43.789
39369DA     SC455890  71.765  75.033  43.879
39370DT     BB155891  71.255  75.150  43.599
39370DT     BB255892  71.436  75.126  43.288
39370DT     BB355893  71.452  74.927  43.231
39370DT     SC155894  71.635  74.881  43.413
39370DT     SC255895  71.824  74.847  43.316
39370DT     SC355896  71.753  74.779  43.625
39371DA     BB155897  71.276  75.099  42.889
39371DA     BB255898  71.557  74.895  42.772
39371DA     BB355899  71.504  74.688  42.772
39371DA     SC155900  71.604  74.638  43.063
39371DA     SC255901  71.790  74.516  43.176
39371DA     SC355902  71.643  74.527  43.385
39371DA     SC455903  71.497  74.654  43.182
39372DG     BB155904  71.547  74.672  42.457
39372DG     BB255905  71.816  74.447  42.544
39372DG     BB355906  71.747  74.261  42.560
39372DG     SC155907  71.680  74.285  42.858
39372DG     SC255908  71.814  74.137  43.080
39372DG     SC355909  71.576  74.283  43.178
39372DG     SC455910  71.536  74.339  42.901
39373DA     BB155911  71.987  74.140  42.333
39373DA     BB255912  72.128  73.921  42.590
39373DA     BB355913  72.012  73.743  42.608
39373DA     SC155914  71.824  73.859  42.827
39373DA     SC255915  71.780  73.824  43.070
39373DA     SC355916  71.554  73.936  43.025
39373DA     SC455917  71.688  73.929  42.778
39374DG     BB155918  72.268  73.580  42.524
39374DG     BB255919  72.243  73.449  42.861
39374DG     BB355920  72.120  73.293  42.864
39374DG     SC155921  71.870  73.461  42.918
39374DG     SC255922  71.707  73.456  43.168
39374DG     SC355923  71.572  73.615  42.958
39374DG     SC455924  71.787  73.520  42.794
39375DT     BB155925  72.185  73.076  42.920
39375DT     BB255926  72.049  73.050  43.253
39375DT     BB355927  71.884  72.926  43.253
39375DT     SC155928  71.736  73.110  43.140
39375DT     SC255929  71.590  73.181  43.281
39375DT     SC355930  71.585  73.232  42.961
39376DA     BB155931  72.140  72.781  43.551
39376DA     BB255932  71.806  72.815  43.698
39376DA     BB355933  71.678  72.659  43.630
39376DA     SC155934  71.573  72.818  43.384
39376DA     SC255935  71.360  72.925  43.311
39376DA     SC355936  71.458  72.911  43.074
39376DA     SC455937  71.651  72.799  43.245
39377DT     BB155938  71.614  72.526  43.766
39377DT     BB255939  71.276  72.652  43.790
39377DT     BB355940  71.146  72.525  43.691
39377DT     SC155941  71.229  72.610  43.456
39377DT     SC255942  71.072  72.724  43.363
39377DT     SC355943  71.337  72.609  43.216
39378DT     BB155944  71.051  72.450  43.931
39378DT     BB255945  70.764  72.577  43.752
39378DT     BB355946  70.680  72.426  43.637
39378DT     SC155947  70.875  72.442  43.462
39378DT     SC255948  70.798  72.524  43.278
39378DT     SC355949  71.083  72.373  43.315
39379DG     BB155950  70.404  72.586  43.889
39379DG     BB255951  70.290  72.587  43.545
39379DG     BB355952  70.234  72.403  43.492
39379DG     SC155953  70.512  72.322  43.392
39379DG     SC255954  70.586  72.264  43.109
39379DG     SC355955  70.807  72.192  43.293
39379DG     SC455956  70.616  72.257  43.496
39380DA     BB155957  69.961  72.582  43.389
39380DA     BB255958  70.012  72.454  43.049
39380DA     BB355959  69.963  72.247  43.040
39380DA     SC155960  70.251  72.150  43.107
39380DA     SC255961  70.439  72.036  42.989
39380DA     SC355962  70.524  71.979  43.225
39380DA     SC455963  70.286  72.123  43.261
39381DT     BB155964  69.817  72.216  42.930
39381DT     BB255965  69.994  72.060  42.657
39381DT     BB355966  69.978  71.854  42.671
39381DT     SC155967  70.150  71.847  42.869
39381DT     SC255968  70.333  71.754  42.802
39381DT     SC355969  70.249  71.807  43.110
39382DA     BB155970  69.866  71.964  42.281
39382DA     BB255971  70.100  71.683  42.256
39382DA     BB355972  70.006  71.502  42.320
39382DA     SC155973  70.093  71.534  42.617
39382DA     SC255974  70.250  71.422  42.776
39382DA     SC355975  70.108  71.531  42.960
39382DA     SC455976  69.992  71.608  42.717
39383DA     BB155977  70.095  71.380  42.024
39383DA     BB255978  70.291  71.127  42.204
39383DA     BB355979  70.163  70.974  42.279
39383DA     SC155980  70.116  71.115  42.553
39383DA     SC255981  70.178  71.079  42.792
39383DA     SC355982  69.981  71.234  42.845
39383DA     SC455983  69.988  71.212  42.566
39384DA     BB155984  70.353  70.756  42.115
39384DA     BB255985  70.438  70.606  42.438
39384DA     BB355986  70.280  70.478  42.504
39384DA     SC155987  70.130  70.702  42.660
39384DA     SC255988  70.083  70.761  42.898
39384DA     SC355989  69.891  70.903  42.802
39384DA     SC455990  70.016  70.783  42.582
39385DA     BB155991  70.513  70.244  42.525
39385DA     BB255992  70.446  70.233  42.886
39385DA     BB355993  70.271  70.118  42.925
39385DA     SC155994  70.078  70.361  42.909
39385DA     SC255995  69.936  70.494  43.065
39385DA     SC355996  69.809  70.567  42.854
39385DA     SC455997  70.010  70.393  42.767
39386DA     BB155998  70.480  69.962  43.122
39386DA     BB255999  70.267  70.069  43.400
39386DA     BB356000  70.091  69.949  43.410
39386DA     SC156001  69.924  70.136  43.226
39386DA     SC256002  69.731  70.292  43.248
39386DA     SC356003  69.705  70.263  42.994
39386DA     SC456004  69.923  70.104  43.068
39387DA     BB156005  70.217  69.939  43.708
39387DA     BB256006  69.904  70.094  43.818
39387DA     BB356007  69.744  69.954  43.808
39387DA     SC156008  69.665  70.029  43.516
39387DA     SC256009  69.476  70.142  43.400
39387DA     SC356010  69.560  70.022  43.189
39387DA     SC456011  69.732  69.944  43.397
39388DC     BB156012  69.689  69.934  43.970
39388DC     BB256013  69.378  70.114  43.936
39388DC     BB356014  69.224  69.982  43.894
39388DC     SC156015  69.307  69.953  43.647
39388DC     SC256016  69.165  70.045  43.513
39388DC     SC356017  69.401  69.839  43.428
39389DG     BB156018  69.151  70.223  44.216
39389DG     BB256019  68.877  70.222  43.979
39389DG     BB356020  68.780  70.049  43.988
39389DG     SC156021  68.954  69.914  43.775
39389DG     SC256022  68.864  69.826  43.504
39389DG     SC356023  69.138  69.728  43.561
39389DG     SC456024  69.088  69.838  43.821
39390DA     BB156025  68.501  70.255  44.013
39390DA     BB256026  68.352  70.085  43.725
39390DA     BB356027  68.295  69.886  43.777
39390DA     SC156028  68.567  69.760  43.695
39390DA     SC256029  68.654  69.610  43.517
39390DA     SC356030  68.851  69.568  43.677
39390DA     SC456031  68.679  69.746  43.809
39391DT     BB156032  68.091  69.825  43.791
39391DT     BB256033  68.082  69.614  43.499
39391DT     BB356034  68.080  69.415  43.555
39391DT     SC156035  68.335  69.422  43.619
39391DT     SC256036  68.447  69.304  43.478
39391DT     SC356037  68.554  69.412  43.765
39392DT     BB156038  67.802  69.359  43.506
39392DT     BB256039  67.971  69.102  43.317
39392DT     BB356040  67.993  68.932  43.433
39392DT     SC156041  68.185  69.042  43.574
39392DT     SC256042  68.371  68.946  43.528
39392DT     SC356043  68.315  69.142  43.780
39393DT     BB156044  67.788  68.771  43.309
39393DT     BB256045  68.084  68.566  43.281
39393DT     BB356046  68.096  68.438  43.443
39393DT     SC156047  68.171  68.633  43.602
39393DT     SC256048  68.377  68.605  43.657
39393DT     SC356049  68.167  68.807  43.800
39394DA     BB156050  68.122  68.184  43.111
39394DA     BB256051  68.401  68.101  43.333
39394DA     BB356052  68.333  67.986  43.499
39394DA     SC156053  68.278  68.234  43.679
39394DA     SC256054  68.375  68.337  43.884
39394DA     SC356055  68.149  68.456  43.907
39394DA     SC456056  68.131  68.297  43.676
39395DT     BB156057  68.396  67.793  43.516
39395DT     BB256058  68.630  67.850  43.785
39395DT     BB356059  68.553  67.776  43.962
39395DT     SC156060  68.386  67.977  43.983
39395DT     SC256061  68.445  68.103  44.146
39395DT     SC356062  68.159  68.111  43.995
39396DG     BB156063  68.913  67.600  43.892
39396DG     BB256064  68.899  67.746  44.223
39396DG     BB356065  68.793  67.629  44.344
39396DG     SC156066  68.526  67.764  44.281
39396DG     SC256067  68.361  67.925  44.471
39396DG     SC356068  68.213  67.875  44.220
39396DG     SC456069  68.439  67.710  44.157
39397DA     BB156070  69.066  67.653  44.556
39397DA     BB256071  68.851  67.792  44.818
39397DA     BB356072  68.730  67.638  44.903
39397DA     SC156073  68.494  67.680  44.704
39397DA     SC256074  68.261  67.767  44.710
39397DA     SC356075  68.228  67.636  44.492
39397DA     SC456076  68.493  67.591  44.570
39398DA     BB156077  68.858  67.740  45.191
39398DA     BB256078  68.516  67.815  45.300
39398DA     BB356079  68.414  67.635  45.353
39398DA     SC156080  68.300  67.587  45.068
39398DA     SC256081  68.078  67.593  44.954
39398DA     SC356082  68.188  67.446  44.775
39398DA     SC456083  68.386  67.495  44.968
39399DA     BB156084  68.351  67.765  45.657
39399DA     BB256085  67.993  67.738  45.582
39399DA     BB356086  67.925  67.538  45.616
39399DA     SC156087  67.981  67.444  45.324
39399DA     SC256088  67.849  67.377  45.124
39399DA     SC356089  68.065  67.263  45.045
39399DA     SC456090  68.124  67.378  45.294
39400DA     BB156091  67.692  67.652  45.830
39400DA     BB256092  67.436  67.524  45.601
39400DA     BB356093  67.405  67.316  45.633
39400DA     SC156094  67.619  67.227  45.425
39400DA     SC256095  67.624  67.117  45.201
39400DA     SC356096  67.869  67.062  45.257
39400DA     SC456097  67.768  67.201  45.479
39401DA     BB156098  67.086  67.393  45.676
39401DA     BB256099  67.013  67.193  45.378
39401DA     BB356100  67.008  66.985  45.427
39401DA     SC156101  67.310  66.939  45.370
39401DA     SC256102  67.450  66.820  45.201
39401DA     SC356103  67.636  66.830  45.378
39401DA     SC456104  67.412  66.954  45.494
39402DC     BB156105  66.831  66.888  45.410
39402DC     BB256106  66.913  66.713  45.105
39402DC     BB356107  66.950  66.514  45.146
39402DC     SC156108  67.185  66.571  45.249
39402DC     SC256109  67.340  66.498  45.119
39402DC     SC356110  67.379  66.595  45.426
39403DT     BB156111  66.720  66.460  45.023
39403DT     BB256112  66.970  66.274  44.840
39403DT     BB356113  67.006  66.093  44.934
39403DT     SC156114  67.143  66.211  45.125
39403DT     SC256115  67.350  66.158  45.107
39403DT     SC356116  67.211  66.295  45.365
39404DA     BB156117  66.929  66.021  44.528
39404DA     BB256118  67.234  65.840  44.621
39404DA     BB356119  67.186  65.672  44.744
39404DA     SC156120  67.213  65.830  45.011
39404DA     SC256121  67.368  65.838  45.206
39404DA     SC356122  67.174  65.951  45.330
39404DA     SC456123  67.081  65.898  45.071
39405DT     BB156124  67.218  65.487  44.671
39405DT     BB256125  67.509  65.412  44.871
39405DT     BB356126  67.458  65.282  45.024
39405DT     SC156127  67.339  65.474  45.158
39405DT     SC256128  67.453  65.519  45.334
39405DT     SC356129  67.148  65.612  45.276
39406DT     BB156130  67.585  65.067  44.904
39406DT     BB256131  67.741  65.093  45.228
39406DT     BB356132  67.635  64.982  45.367
39406DT     SC156133  67.443  65.160  45.375
39406DT     SC256134  67.446  65.259  45.567
39406DT     SC356135  67.204  65.269  45.351
39407DT     BB156136  67.829  64.784  45.380
39407DT     BB256137  67.798  64.903  45.719
39407DT     BB356138  67.652  64.795  45.819
39407DT     SC156139  67.460  64.920  45.691
39407DT     SC256140  67.355  65.048  45.828
39407DT     SC356141  67.253  64.961  45.533
39408DA     BB156142  68.003  64.799  46.046
39408DA     BB256143  67.726  64.910  46.259
39408DA     BB356144  67.601  64.744  46.310
39408DA     SC156145  67.412  64.781  46.067
39408DA     SC256146  67.176  64.852  46.025
39408DA     SC356147  67.201  64.731  45.800
39408DA     SC456148  67.446  64.699  45.933
39409DT     BB156149  67.612  64.731  46.482
39409DT     BB256150  67.287  64.871  46.553
39409DT     BB356151  67.149  64.719  46.577
39409DT     SC156152  67.142  64.673  46.319
39409DT     SC256153  66.951  64.734  46.241
39409DT     SC356154  67.168  64.548  46.088
39410DT     BB156155  67.173  64.847  46.794
39410DT     BB256156  66.828  64.874  46.694
39410DT     BB356157  66.733  64.692  46.719
39410DT     SC156158  66.851  64.592  46.507
39410DT     SC256159  66.705  64.564  46.351
39410DT     SC356160  67.004  64.438  46.357
39411DG     BB156161  66.557  65.028  46.878
39411DG     BB256162  66.327  64.828  46.683
39411DG     BB356163  66.290  64.657  46.777
39411DG     SC156164  66.521  64.506  46.646
39411DG     SC256165  66.495  64.279  46.453
39411DG     SC356166  66.777  64.315  46.536
39411DG     SC456167  66.665  64.509  46.715
39412DA     BB156168  65.971  64.765  46.692
39412DA     BB256169  65.912  64.440  46.534
39412DA     BB356170  65.909  64.285  46.681
39412DA     SC156171  66.214  64.227  46.661
39412DA     SC256172  66.362  64.044  46.577
39412DA     SC356173  66.542  64.148  46.727
39412DA     SC456174  66.312  64.305  46.761
39413DA     BB156175  65.621  64.221  46.533
39413DA     BB256176  65.748  63.882  46.472
39413DA     BB356177  65.754  63.771  46.654
39413DA     SC156178  66.045  63.855  46.725
39413DA     SC256179  66.270  63.749  46.738
39413DA     SC356180  66.333  63.947  46.888
39413DA     SC456181  66.065  63.986  46.817
39414DT     BB156182  65.626  63.606  46.692
39414DT     BB256183  65.873  63.344  46.670
39414DT     BB356184  65.917  63.272  46.859
39414DT     SC156185  66.058  63.486  46.916
39414DT     SC256186  66.266  63.434  46.928
39414DT     SC356187  66.133  63.709  47.035
39415DG     BB156188  65.773  62.928  46.684
39415DG     BB256189  66.092  62.864  46.842
39415DG     BB356190  66.066  62.830  47.036
39415DG     SC156191  66.095  63.125  47.115
39415DG     SC256192  66.317  63.243  47.276
39415DG     SC356193  66.101  63.440  47.235
39415DG     SC456194  65.964  63.218  47.117
39416DT     BB156195  66.106  62.619  47.170
39416DT     BB256196  66.411  62.707  47.341
39416DT     BB356197  66.374  62.734  47.543
39416DT     SC156198  66.259  62.966  47.498
39416DT     SC256199  66.384  63.123  47.576
39416DT     SC356200  66.074  63.153  47.488
39417DA     BB156201  66.681  62.446  47.550
39417DA     BB256202  66.780  62.714  47.781
39417DA     BB356203  66.673  62.696  47.965
39417DA     SC156204  66.437  62.878  47.874
39417DA     SC256205  66.347  63.104  47.927
39417DA     SC356206  66.128  63.019  47.823
39417DA     SC456207  66.310  62.806  47.806
39418DC     BB156208  66.768  62.644  48.159
39418DC     BB256209  66.757  62.977  48.298
39418DC     BB356210  66.619  62.985  48.452
39418DC     SC156211  66.418  62.982  48.283
39418DC     SC256212  66.320  63.173  48.284
39418DC     SC356213  66.201  62.900  48.157
39419DG     BB156214  66.973  63.095  48.623
39419DG     BB256215  66.717  63.343  48.683
39419DG     BB356216  66.600  63.285  48.834
39419DG     SC156217  66.403  63.134  48.655
39419DG     SC256218  66.118  63.209  48.607
39419DG     SC356219  66.177  62.944  48.492
39419DG     SC456220  66.430  62.980  48.621
39420DT     BB156221  66.585  63.402  49.027
39420DT     BB256222  66.263  63.560  48.984
39420DT     BB356223  66.122  63.468  49.105
39420DT     SC156224  66.111  63.259  48.947
39420DT     SC256225  65.920  63.255  48.848
39420DT     SC356226  66.132  63.010  48.863
39421DA     BB156227  66.111  63.884  49.157
39421DA     BB256228  65.770  63.766  49.095
39421DA     BB356229  65.697  63.657  49.264
39421DA     SC156230  65.799  63.382  49.161
39421DA     SC256231  65.701  63.169  49.074
39421DA     SC356232  65.926  63.064  49.136
39421DA     SC456233  65.945  63.334  49.208
39422DT     BB156234  65.554  63.743  49.339
39422DT     BB256235  65.300  63.515  49.222
39422DT     BB356236  65.251  63.380  49.371
39422DT     SC156237  65.475  63.248  49.336
39422DT     SC256238  65.431  63.055  49.250
39422DT     SC356239  65.712  63.143  49.385
39423DG     BB156240  64.922  63.577  49.234
39423DG     BB256241  64.878  63.218  49.228
39423DG     BB356242  64.851  63.150  49.413
39423DG     SC156243  65.149  63.106  49.467
39423DG     SC256244  65.283  62.842  49.506
39423DG     SC356245  65.469  63.064  49.566
39423DG     SC456246  65.236  63.226  49.526
39424DG     BB156247  64.575  63.029  49.292
39424DG     BB256248  64.711  62.705  49.380
39424DG     BB356249  64.691  62.674  49.575
39424DG     SC156250  64.961  62.799  49.647
39424DG     SC256251  65.198  62.655  49.758
39424DG     SC356252  65.241  62.947  49.764
39424DG     SC456253  64.968  62.957  49.676
39425DC     BB156254  64.571  62.510  49.643
39425DC     BB256255  64.822  62.277  49.757
39425DC     BB356256  64.837  62.285  49.964
39425DC     SC156257  64.965  62.514  49.953
39425DC     SC256258  65.170  62.484  50.013
39425DC     SC356259  65.019  62.770  49.986
39426DA     BB156260  64.785  61.882  49.859
39426DA     BB256261  65.069  61.904  50.090
39426DA     BB356262  65.000  61.946  50.288
39426DA     SC156263  65.019  62.254  50.255
39426DA     SC256264  65.159  62.441  50.342
39426DA     SC356265  64.965  62.593  50.271
39426DA     SC456266  64.887  62.332  50.205
39427DA     BB156267  65.177  61.677  50.355
39427DA     BB256268  65.383  61.890  50.570
39427DA     BB356269  65.280  61.935  50.751
39427DA     SC156270  65.148  62.194  50.640
39427DA     SC256271  65.166  62.440  50.675
39427DA     SC356272  64.933  62.452  50.570
39427DA     SC456273  65.002  62.181  50.574
39428DC     BB156274  65.356  61.863  50.920
39428DC     BB256275  65.490  62.176  51.041
39428DC     BB356276  65.368  62.251  51.191
39428DC     SC156277  65.186  62.325  51.018
39428DC     SC256278  65.181  62.539  51.007
39428DC     SC356279  64.955  62.338  50.890
39429DA     BB156280  65.767  62.245  51.323
39429DA     BB256281  65.628  62.578  51.389
39429DA     BB356282  65.487  62.570  51.548
39429DA     SC156283  65.243  62.518  51.362
39429DA     SC256284  65.039  62.640  51.286
39429DA     SC356285  64.947  62.408  51.226
39429DA     SC456286  65.202  62.365  51.333
39430DA     BB156287  65.692  62.808  51.635
39430DA     BB256288  65.399  63.028  51.628
39430DA     BB356289  65.269  62.983  51.791
39430DA     SC156290  65.101  62.775  51.632
39430DA     SC256291  64.871  62.756  51.537
39430DA     SC356292  64.914  62.503  51.537
39430DA     SC456293  65.147  62.621  51.640
39431DC     BB156294  65.247  63.124  51.929
39431DC     BB256295  64.913  63.226  51.839
39431DC     BB356296  64.777  63.150  51.975
39431DC     SC156297  64.798  62.909  51.872
39431DC     SC256298  64.614  62.859  51.771
39431DC     SC356299  64.850  62.652  51.852
39432DT     BB156300  64.742  63.398  52.076
39432DT     BB256301  64.410  63.292  51.983
39432DT     BB356302  64.324  63.185  52.137
39432DT     SC156303  64.474  62.975  52.085
39432DT     SC256304  64.350  62.818  52.005
39432DT     SC356305  64.653  62.785  52.115
39433DA     BB156306  64.047  63.484  52.041
39433DA     BB256307  63.865  63.166  52.058
39433DA     BB356308  63.840  63.106  52.261
39433DA     SC156309  64.104  62.941  52.270
39433DA     SC256310  64.172  62.702  52.283
39433DA     SC356311  64.399  62.791  52.364
39433DA     SC456312  64.237  63.017  52.320
39434DA     BB156313  63.518  63.092  52.188
39434DA     BB256314  63.530  62.734  52.269
39434DA     BB356315  63.529  62.706  52.481
39434DA     SC156316  63.839  62.711  52.508
39434DA     SC256317  64.022  62.550  52.561
39434DA     SC356318  64.161  62.758  52.616
39434DA     SC456319  63.908  62.852  52.539
39435DG     BB156320  63.259  62.548  52.446
39435DG     BB256321  63.456  62.269  52.565
39435DG     BB356322  63.456  62.266  52.764
39435DG     SC156323  63.705  62.443  52.789
39435DG     SC256324  63.971  62.358  52.896
39435DG     SC356325  63.963  62.650  52.855
39435DG     SC456326  63.687  62.602  52.794
39436DT     BB156327  63.366  62.095  52.891
39436DT     BB256328  63.666  61.926  52.999
39436DT     BB356329  63.700  61.964  53.200
39436DT     SC156330  63.781  62.208  53.148
39436DT     SC256331  63.993  62.223  53.185
39436DT     SC356332  63.790  62.472  53.145
39437DT     BB156333  63.631  61.709  53.257
39437DT     BB256334  63.966  61.745  53.387
39437DT     BB356335  63.960  61.820  53.579
39437DT     SC156336  63.901  62.060  53.492
39437DT     SC256337  64.068  62.192  53.525
39437DT     SC356338  63.766  62.284  53.451
39438DG     BB156339  64.162  61.468  53.581
39438DG     BB256340  64.353  61.732  53.738
39438DG     BB356341  64.284  61.766  53.921
39438DG     SC156342  64.081  61.977  53.831
39438DG     SC256343  64.089  62.268  53.897
39438DG     SC356344  63.834  62.197  53.766
39438DG     SC456345  63.934  61.929  53.788
39439DA     BB156346  64.616  61.734  54.005
39439DA     BB256347  64.611  62.071  54.149
39439DA     BB356348  64.504  62.071  54.334
39439DA     SC156349  64.229  62.136  54.203
39439DA     SC256350  64.069  62.327  54.194
39439DA     SC356351  63.895  62.151  54.124
39439DA     SC456352  64.135  62.011  54.162
39440DA     BB156353  64.787  62.214  54.417
39440DA     BB256354  64.586  62.503  54.520
39440DA     BB356355  64.478  62.458  54.698
39440DA     SC156356  64.227  62.351  54.549
39440DA     SC256357  63.991  62.422  54.511
39440DA     SC356358  63.947  62.176  54.454
39440DA     SC456359  64.220  62.194  54.519
39441DT     BB156360  64.527  62.557  54.864
39441DT     BB256361  64.234  62.768  54.881
39441DT     BB356362  64.105  62.697  55.027
39441DT     SC156363  64.029  62.497  54.874
39441DT     SC256364  63.826  62.528  54.813
39441DT     SC356365  63.992  62.251  54.789
39442DT     BB156366  64.168  62.905  55.194
39442DT     BB256367  63.809  62.922  55.161
39442DT     BB356368  63.719  62.802  55.303
39442DT     SC156369  63.783  62.584  55.170
39442DT     SC256370  63.605  62.496  55.089
39442DT     SC356371  63.895  62.353  55.113
39443DC     BB156372  63.638  63.019  55.449
39443DC     BB256373  63.333  62.838  55.381
39443DC     BB356374  63.301  62.696  55.528
39443DC     SC156375  63.489  62.541  55.431
39443DC     SC256376  63.399  62.365  55.346
39443DC     SC356377  63.713  62.403  55.415
39444DT     BB156378  63.097  62.845  55.629
39444DT     BB256379  62.948  62.524  55.556
39444DT     BB356380  62.972  62.397  55.718
39444DT     SC156381  63.226  62.361  55.662
39444DT     SC256382  63.257  62.160  55.593
39444DT     SC356383  63.488  62.366  55.687
39445DC     BB156384  62.708  62.419  55.771
39445DC     BB256385  62.763  62.065  55.731
39445DC     BB356386  62.823  61.982  55.911
39445DC     SC156387  63.063  62.085  55.887
39445DC     SC256388  63.205  61.927  55.852
39445DC     SC356389  63.276  62.232  55.937
39446DC     BB156390  62.582  61.865  55.929
39446DC     BB256391  62.818  61.593  55.952
39446DC     BB356392  62.882  61.571  56.148
39446DC     SC156393  63.034  61.784  56.130
39446DC     SC256394  63.241  61.724  56.134
39446DC     SC356395  63.129  62.026  56.177
39447DT     BB156396  62.735  61.342  56.173
39447DT     BB256397  63.070  61.243  56.262
39447DT     BB356398  63.103  61.278  56.464
39447DT     SC156399  63.124  61.537  56.423
39447DT     SC256400  63.328  61.598  56.454
39447DT     SC356401  63.071  61.795  56.435
39448DA     BB156402  63.204  60.872  56.420
39448DA     BB256403  63.476  61.032  56.607
39448DA     BB356404  63.417  61.067  56.809
39448DA     SC156405  63.305  61.352  56.751
39448DA     SC256406  63.366  61.588  56.804
39448DA     SC356407  63.121  61.641  56.750
39448DA     SC456408  63.149  61.365  56.715
39449DC     BB156409  63.499  60.962  56.997
39449DC     BB256410  63.697  61.240  57.115
39449DC     BB356411  63.613  61.318  57.288
39449DC     SC156412  63.420  61.432  57.153
39449DC     SC256413  63.446  61.646  57.157
39449DC     SC356414  63.177  61.489  57.067
39450DA     BB156415  64.005  61.234  57.422
39450DA     BB256416  63.932  61.582  57.513
39450DA     BB356417  63.810  61.588  57.688
39450DA     SC156418  63.542  61.586  57.531
39450DA     SC256419  63.355  61.744  57.483
39450DA     SC356420  63.219  61.534  57.428
39450DA     SC456421  63.473  61.444  57.502
39451DA     BB156422  64.045  61.780  57.819
39451DA     BB256423  63.797  62.050  57.830
39451DA     BB356424  63.672  62.029  58.001
39451DA     SC156425  63.459  61.856  57.855
39451DA     SC256426  63.224  61.880  57.776
39451DA     SC356427  63.220  61.623  57.774
39451DA     SC456428  63.476  61.696  57.861
39452DA     BB156429  63.776  62.335  58.036
39452DA     BB256430  63.425  62.435  58.002
39452DA     BB356431  63.318  62.391  58.181
39452DA     SC156432  63.233  62.106  58.091
39452DA     SC256433  63.024  61.988  58.024
39452DA     SC356434  63.151  61.773  58.079
39452DA     SC456435  63.329  61.983  58.132
39453DA     BB156436  63.252  62.704  58.122
39453DA     BB256437  62.901  62.602  58.101
39453DA     BB356438  62.826  62.553  58.295
39453DA     SC156439  62.903  62.252  58.275
39453DA     SC256440  62.786  62.033  58.255
39453DA     SC356441  63.004  61.931  58.343
39453DA     SC456442  63.047  62.208  58.332
39454DA     BB156443  62.607  62.766  58.178
39454DA     BB256444  62.360  62.499  58.221
39454DA     BB356445  62.321  62.466  58.428
39454DA     SC156446  62.542  62.250  58.460
39454DA     SC256447  62.556  62.004  58.498
39454DA     SC356448  62.795  62.049  58.577
39454DA     SC456449  62.688  62.299  58.507
39455DT     BB156450  62.140  62.510  58.493
39455DT     BB256451  62.023  62.172  58.537
39455DT     BB356452  62.026  62.122  58.738
39455DT     SC156453  62.287  62.097  58.736
39455DT     SC256454  62.339  61.890  58.759
39455DT     SC356455  62.541  62.141  58.791
39456DA     BB156456  61.635  62.036  58.612
39456DA     BB256457  61.758  61.745  58.798
39456DA     BB356458  61.760  61.786  59.007
39456DA     SC156459  62.052  61.894  59.007
39456DA     SC256460  62.275  61.823  59.093
39456DA     SC356461  62.339  62.071  59.070
39456DA     SC456462  62.072  62.053  58.988
39457DT     BB156463  61.628  61.687  59.151
39457DT     BB256464  61.879  61.472  59.295
39457DT     BB356465  61.925  61.535  59.487
39457DT     SC156466  62.062  61.739  59.396
39457DT     SC256467  62.271  61.708  59.436
39457DT     SC356468  62.135  61.988  59.348
39458DA     BB156469  61.827  61.130  59.528
39458DA     BB256470  62.150  61.183  59.694
39458DA     BB356471  62.121  61.281  59.882
39458DA     SC156472  62.147  61.568  59.765
39458DA     SC256473  62.309  61.757  59.774
39458DA     SC356474  62.112  61.903  59.699
39458DA     SC456475  62.012  61.642  59.719
39459DG     BB156476  62.254  61.024  59.988
39459DG     BB256477  62.518  61.255  60.077
39459DG     BB356478  62.475  61.343  60.250
39459DG     SC156479  62.324  61.576  60.121
39459DG     SC256480  62.410  61.862  60.122
39459DG     SC356481  62.135  61.835  60.016
39459DG     SC456482  62.167  61.561  60.094
39460DT     BB156483  62.614  61.310  60.391
39460DT     BB256484  62.784  61.628  60.402
39460DT     BB356485  62.712  61.741  60.560
39460DT     SC156486  62.490  61.794  60.430
39460DT     SC256487  62.487  62.002  60.376
39460DT     SC356488  62.233  61.801  60.370
39461DC     BB156489  62.953  61.693  60.640
39461DC     BB256490  62.922  62.052  60.629
39461DC     BB356491  62.818  62.119  60.795
39461DC     SC156492  62.590  62.034  60.696
39461DC     SC256493  62.468  62.203  60.643
39461DC     SC356494  62.366  61.896  60.671
39462DA     BB156495  63.172  62.337  60.723
39462DA     BB256496  62.899  62.573  60.790
39462DA     BB356497  62.837  62.557  60.993
39462DA     SC156498  62.620  62.342  60.936
39462DA     SC256499  62.371  62.326  60.934
39462DA     SC356500  62.407  62.073  60.954
39462DA     SC456501  62.663  62.187  60.950
39463DG     BB156502  62.918  62.857  60.989
39463DG     BB256503  62.569  62.906  61.070
39463DG     BB356504  62.538  62.867  61.262
39463DG     SC156505  62.479  62.570  61.219
39463DG     SC256506  62.216  62.435  61.262
39463DG     SC356507  62.429  62.237  61.211
39463DG     SC456508  62.601  62.466  61.221
39464DC     BB156509  62.470  63.024  61.417
39464DC     BB256510  62.128  62.926  61.477
39464DC     BB356511  62.113  62.830  61.660
39464DC     SC156512  62.224  62.612  61.563
39464DC     SC256513  62.076  62.456  61.551
39464DC     SC356514  62.397  62.417  61.527
39465DC     BB156515  61.993  63.044  61.806
39465DC     BB256516  61.765  62.769  61.857
39465DC     BB356517  61.817  62.666  62.029
39465DC     SC156518  62.022  62.554  61.910
39465DC     SC256519  61.984  62.344  61.883
39465DC     SC356520  62.272  62.491  61.853
39466DT     BB156521  61.608  62.762  62.204
39466DT     BB256522  61.569  62.404  62.215
39466DT     BB356523  61.676  62.326  62.374
39466DT     SC156524  61.904  62.360  62.248
39466DT     SC256525  61.985  62.168  62.195
39466DT     SC356526  62.145  62.450  62.191
39467DT     BB156527  61.452  62.270  62.539
39467DT     BB256528  61.614  61.950  62.497
39467DT     BB356529  61.749  61.918  62.650
39467DT     SC156530  61.919  62.088  62.546
39467DT     SC256531  62.091  61.981  62.472
39467DT     SC356532  62.072  62.301  62.519
39468DC     BB156533  61.584  61.729  62.756
39468DC     BB256534  61.892  61.556  62.683
39468DC     BB356535  62.022  61.571  62.843
39468DC     SC156536  62.076  61.821  62.786
39468DC     SC256537  62.279  61.836  62.716
39468DC     SC356538  62.092  62.084  62.810
39469DA     BB156539  61.977  61.183  62.690
39469DA     BB256540  62.335  61.261  62.715
39469DA     BB356541  62.394  61.273  62.919
39469DA     SC156542  62.338  61.578  62.943
39469DA     SC256543  62.470  61.788  62.969
39469DA     SC356544  62.251  61.891  63.054
39469DA     SC456545  62.193  61.623  62.995
39470DC     BB156546  62.503  61.154  62.916
39470DC     BB256547  62.797  61.362  62.941
39470DC     BB356548  62.842  61.397  63.140
39470DC     SC156549  62.644  61.567  63.163
39470DC     SC256550  62.722  61.766  63.187
39470DC     SC356551  62.417  61.674  63.245
39471DT     BB156552  63.038  61.255  63.056
39471DT     BB256553  63.182  61.558  63.190
39471DT     BB356554  63.179  61.553  63.396
39471DT     SC156555  62.920  61.600  63.401
39471DT     SC256556  62.885  61.797  63.479
39471DT     SC356557  62.662  61.565  63.443
39472DA     BB156558  63.558  61.665  63.249
39472DA     BB256559  63.467  61.890  63.523
39472DA     BB356560  63.465  61.784  63.709
39472DA     SC156561  63.164  61.706  63.689
39472DA     SC256562  62.951  61.763  63.804
39472DA     SC356563  62.863  61.543  63.707
39472DA     SC456564  63.129  61.564  63.621
39473DT     BB156565  63.600  61.836  63.837
39473DT     BB256566  63.382  61.998  64.075
39473DT     BB356567  63.344  61.871  64.234
39473DT     SC156568  63.180  61.726  64.089
39473DT     SC256569  62.979  61.755  64.159
39473DT     SC356570  63.079  61.519  63.961
39474DT     BB156571  63.508  62.012  64.405
39474DT     BB256572  63.192  62.000  64.578
39474DT     BB356573  63.180  61.828  64.693
39474DT     SC156574  63.140  61.680  64.480
39474DT     SC256575  62.938  61.606  64.482
39474DT     SC356576  63.179  61.497  64.294
39475DT     BB156577  63.218  61.960  64.936
39475DT     BB256578  62.908  61.781  64.982
39475DT     BB356579  62.946  61.592  65.057
39475DT     SC156580  63.032  61.508  64.824
39475DT     SC256581  62.891  61.367  64.743
39475DT     SC356582  63.195  61.415  64.639
39476DA     BB156583  62.667  61.756  65.325
39476DA     BB256584  62.545  61.423  65.230
39476DA     BB356585  62.658  61.272  65.329
39476DA     SC156586  62.870  61.247  65.102
39476DA     SC256587  62.935  61.080  64.928
39476DA     SC356588  63.159  61.205  64.922
39476DA     SC456589  63.002  61.337  65.113
39477DA     BB156590  62.360  61.171  65.426
39477DA     BB256591  62.427  60.859  65.245
39477DA     BB356592  62.561  60.736  65.357
39477DA     SC156593  62.817  60.853  65.226
39477DA     SC256594  62.995  60.777  65.068
39477DA     SC356595  63.134  60.969  65.164
39477DA     SC456596  62.888  60.977  65.299
39478DT     BB156597  62.493  60.557  65.433
39478DT     BB256598  62.663  60.344  65.196
39478DT     BB356599  62.824  60.252  65.287
39478DT     SC156600  62.964  60.474  65.281
39478DT     SC256601  63.125  60.454  65.141
39478DT     SC356602  63.097  60.686  65.365
39479DT     BB156603  62.692  60.015  65.285
39479DT     BB256604  62.998  59.949  65.106
39479DT     BB356605  63.148  59.898  65.239
39479DT     SC156606  63.174  60.148  65.317
39479DT     SC256607  63.363  60.225  65.248
39479DT     SC356608  63.173  60.360  65.474
39480DT     BB156609  63.138  59.638  65.158
39480DT     BB256610  63.481  59.737  65.103
39480DT     BB356611  63.591  59.708  65.276
39480DT     SC156612  63.483  59.919  65.389
39480DT     SC256613  63.632  60.074  65.408
39480DT     SC356614  63.345  60.066  65.559
39481DC     BB156615  63.721  59.491  65.169
39481DC     BB256616  63.987  59.717  65.260
39481DC     BB356617  64.043  59.684  65.457
39481DC     SC156618  63.827  59.802  65.547
39481DC     SC256619  63.881  59.989  65.640
39481DC     SC356620  63.596  59.837  65.669
39482DC     BB156621  64.277  59.570  65.375
39482DC     BB256622  64.379  59.843  65.588
39482DC     BB356623  64.385  59.780  65.785
39482DC     SC156624  64.124  59.782  65.803
39482DC     SC256625  64.062  59.941  65.933
39482DC     SC356626  63.876  59.695  65.834
39483DG     BB156627  64.755  59.921  65.690
39483DG     BB256628  64.625  60.081  65.987
39483DG     BB356629  64.644  59.959  66.143
39483DG     SC156630  64.372  59.826  66.104
39483DG     SC256631  64.138  59.847  66.288
39483DG     SC356632  64.088  59.645  66.079
39483DG     SC456633  64.361  59.697  66.009
39484DT     BB156634  64.767  60.021  66.309
39484DT     BB256635  64.517  60.106  66.554
39484DT     BB356636  64.500  59.954  66.694
39484DT     SC156637  64.370  59.802  66.524
39484DT     SC256638  64.165  59.783  66.587
39484DT     SC356639  64.314  59.599  66.366
39485DT     BB156640  64.614  60.121  66.866
39485DT     BB256641  64.298  60.034  67.016
39485DT     BB356642  64.315  59.855  67.118
39485DT     SC156643  64.317  59.719  66.894
39485DT     SC256644  64.134  59.607  66.877
39485DT     SC356645  64.402  59.561  66.700
39486DA     BB156646  64.138  60.144  67.366
39486DA     BB256647  63.935  59.839  67.381
39486DA     BB356648  64.038  59.686  67.489
39486DA     SC156649  64.176  59.567  67.237
39486DA     SC256650  64.163  59.359  67.100
39486DA     SC356651  64.397  59.423  67.018
39486DA     SC456652  64.322  59.623  67.200
39487DC     BB156653  63.952  59.638  67.649
39487DC     BB256654  63.828  59.318  67.539
39487DC     BB356655  63.951  59.167  67.610
39487DC     SC156656  64.137  59.225  67.434
39487DC     SC256657  64.149  59.067  67.289
39487DC     SC356658  64.368  59.301  67.334
39488DA     BB156659  63.552  59.075  67.704
39488DA     BB256660  63.705  58.778  67.553
39488DA     BB356661  63.846  58.691  67.688
39488DA     SC156662  64.087  58.855  67.582
39488DA     SC256663  64.296  58.813  67.452
39488DA     SC356664  64.378  59.035  67.551
39488DA     SC456665  64.121  58.994  67.655
39489DA     BB156666  63.660  58.428  67.622
39489DA     BB256667  63.965  58.270  67.494
39489DA     BB356668  64.094  58.215  67.655
39489DA     SC156669  64.248  58.485  67.657
39489DA     SC256670  64.476  58.568  67.599
39489DA     SC356671  64.419  58.768  67.748
39489DA     SC456672  64.194  58.601  67.754
39490DT     BB156673  64.124  58.022  67.685
39490DT     BB256674  64.463  58.010  67.561
39490DT     BB356675  64.596  58.003  67.720
39490DT     SC156676  64.558  58.257  67.774
39490DT     SC256677  64.736  58.367  67.726
39490DT     SC356678  64.489  58.475  67.905
39491DC     BB156679  64.650  57.742  67.666
39491DC     BB256680  64.971  57.906  67.654
39491DC     BB356681  65.053  57.915  67.844
39491DC     SC156682  64.888  58.106  67.915
39491DC     SC256683  64.998  58.289  67.940
39491DC     SC356684  64.696  58.233  68.044
39492DC     BB156685  65.234  57.728  67.773
39492DC     BB256686  65.430  58.011  67.880
39492DC     BB356687  65.456  58.005  68.085
39492DC     SC156688  65.209  58.082  68.127
39492DC     SC256689  65.208  58.282  68.207
39492DC     SC356690  64.957  58.077  68.206
39493DT     BB156691  65.713  57.944  68.042
39493DT     BB256692  65.722  58.246  68.239
39493DT     BB356693  65.707  58.200  68.440
39493DT     SC156694  65.451  58.147  68.418
39493DT     SC256695  65.338  58.299  68.520
39493DT     SC356696  65.224  58.013  68.419
39494DT     BB156697  65.958  58.278  68.450
39494DT     BB256698  65.782  58.490  68.683
39494DT     BB356699  65.758  58.391  68.863
39494DT     SC156700  65.569  58.239  68.763
39494DT     SC256701  65.380  58.293  68.850
39494DT     SC356702  65.441  58.023  68.682
39495DT     BB156703  65.929  58.569  68.948
39495DT     BB256704  65.638  58.610  69.156
39495DT     BB356705  65.637  58.466  69.305
39495DT     SC156706  65.566  58.279  69.135
39495DT     SC256707  65.364  58.218  69.176
39495DT     SC356708  65.576  58.059  68.989
39496DG     BB156709  65.613  58.840  69.467
39496DG     BB256710  65.354  58.621  69.593
39496DG     BB356711  65.432  58.491  69.722
39496DG     SC156712  65.495  58.281  69.509
39496DG     SC256713  65.366  58.013  69.483
39496DG     SC356714  65.596  58.037  69.299
39496DG     SC456715  65.636  58.287  69.433
39497DG     BB156716  65.218  58.606  69.943
39497DG     BB256717  65.085  58.270  69.955
39497DG     BB356718  65.201  58.155  70.069
39497DG     SC156719  65.384  58.068  69.839
39497DG     SC256720  65.406  57.792  69.729
39497DG     SC356721  65.615  57.968  69.615
39497DG     SC456722  65.512  58.157  69.804
39498DA     BB156723  64.920  58.058  70.258
39498DA     BB256724  64.981  57.706  70.172
39498DA     BB356725  65.142  57.628  70.288
39498DA     SC156726  65.361  57.705  70.080
39498DA     SC256727  65.514  57.588  69.922
39498DA     SC356728  65.651  57.805  69.926
39498DA     SC456729  65.433  57.848  70.097
39499DA     BB156730  64.939  57.383  70.398
39499DA     BB256731  65.164  57.143  70.237
39499DA     BB356732  65.335  57.107  70.360
39499DA     SC156733  65.505  57.334  70.232
39499DA     SC256734  65.706  57.354  70.086
39499DA     SC356735  65.724  57.593  70.177
39499DA     SC456736  65.500  57.479  70.302
39500DA     BB156737  65.266  56.777  70.359
39500DA     BB256738  65.582  56.727  70.179
39500DA     BB356739  65.746  56.723  70.316
39500DA     SC156740  65.799  57.029  70.301
39500DA     SC256741  65.974  57.182  70.210
39500DA     SC356742  65.877  57.356  70.372
39500DA     SC456743  65.725  57.123  70.409
39501DA     BB156744  65.830  56.423  70.196
39501DA     BB256745  66.140  56.575  70.072
39501DA     BB356746  66.286  56.582  70.227
39501DA     SC156747  66.202  56.864  70.328
39501DA     SC256748  66.296  57.095  70.329
39501DA     SC356749  66.130  57.140  70.520
39501DA     SC456750  66.093  56.872  70.446
39502DT     BB156751  66.461  56.468  70.210
39502DT     BB256752  66.674  56.745  70.119
39502DT     BB356753  66.800  56.792  70.276
39502DT     SC156754  66.605  56.905  70.410
39502DT     SC256755  66.638  57.118  70.417
39502DT     SC356756  66.429  56.951  70.600
39503DT     BB156757  67.000  56.692  70.127
39503DT     BB256758  67.092  57.035  70.192
39503DT     BB356759  67.190  57.049  70.373
39503DT     SC156760  66.966  57.019  70.506
39503DT     SC256761  66.915  57.205  70.602
39503DT     SC356762  66.784  56.915  70.666
39504DT     BB156763  67.401  57.101  70.224
39504DT     BB256764  67.363  57.388  70.440
39504DT     BB356765  67.449  57.350  70.624
39504DT     SC156766  67.250  57.193  70.693
39504DT     SC256767  67.135  57.288  70.848
39504DT     SC356768  67.118  56.976  70.763
39505DA     BB156769  67.577  57.718  70.470
39505DA     BB256770  67.473  57.768  70.818
39505DA     BB356771  67.613  57.676  70.951
39505DA     SC156772  67.464  57.403  70.958
39505DA     SC256773  67.332  57.270  71.122
39505DA     SC356774  67.385  57.069  70.970
39505DA     SC456775  67.509  57.291  70.852
39506DG     BB156776  67.627  57.969  71.046
39506DG     BB256777  67.497  57.825  71.352
39506DG     BB356778  67.644  57.737  71.453
39506DG     SC156779  67.607  57.465  71.317
39506DG     SC256780  67.513  57.214  71.450
39506DG     SC356781  67.608  57.159  71.175
39506DG     SC456782  67.686  57.434  71.181
39507DC     BB156783  67.695  57.810  71.648
39507DC     BB256784  67.564  57.551  71.862
39507DC     BB356785  67.718  57.428  71.927
39507DC     SC156786  67.734  57.312  71.692
39507DC     SC256787  67.665  57.109  71.707
39507DC     SC356788  67.833  57.234  71.460
39508DC     BB156789  67.692  57.536  72.171
39508DC     BB256790  67.652  57.182  72.224
39508DC     BB356791  67.838  57.092  72.247
39508DC     SC156792  67.887  57.112  71.990
39508DC     SC256793  67.886  56.916  71.902
39508DC     SC356794  68.003  57.185  71.765
39509DT     BB156795  67.784  57.059  72.509
39509DT     BB256796  67.860  56.727  72.389
39509DT     BB356797  68.064  56.695  72.394
39509DT     SC156798  68.101  56.847  72.184
39509DT     SC256799  68.161  56.725  72.017
39509DT     SC356800  68.185  57.048  72.034
39510DA     BB156801  67.880  56.373  72.592
39510DA     BB256802  68.125  56.236  72.356
39510DA     BB356803  68.324  56.270  72.426
39510DA     SC156804  68.354  56.544  72.280
39510DA     SC256805  68.484  56.637  72.089
39510DA     SC356806  68.435  56.866  72.194
39510DA     SC456807  68.314  56.676  72.362
39511DA     BB156808  68.347  55.945  72.384
39511DA     BB256809  68.617  56.014  72.145
39511DA     BB356810  68.795  56.068  72.248
39511DA     SC156811  68.732  56.373  72.246
39511DA     SC256812  68.819  56.579  72.136
39511DA     SC356813  68.702  56.706  72.326
39511DA     SC456814  68.654  56.433  72.373
39512DT     BB156815  68.958  55.945  72.241
39512DT     BB256816  69.156  56.147  72.017
39512DT     BB356817  69.307  56.241  72.122
39512DT     SC156818  69.137  56.413  72.227
39512DT     SC256819  69.173  56.608  72.144
39512DT     SC356820  68.995  56.542  72.407
39513DA     BB156821  69.489  56.045  71.800
39513DA     BB256822  69.612  56.391  71.805
39513DA     BB356823  69.749  56.419  71.965
39513DA     SC156824  69.531  56.506  72.170
39513DA     SC256825  69.462  56.713  72.289
39513DA     SC356826  69.344  56.556  72.453
39513DA     SC456827  69.465  56.391  72.261
39514DA     BB156828  69.929  56.529  71.715
39514DA     BB256829  69.936  56.851  71.889
39514DA     BB356830  70.068  56.842  72.057
39514DA     SC156831  69.848  56.752  72.257
39514DA     SC256832  69.725  56.849  72.451
39514DA     SC356833  69.672  56.605  72.513
39514DA     SC456834  69.827  56.595  72.279
39515DA     BB156835  70.182  57.105  71.900
39515DA     BB256836  70.103  57.294  72.204
39515DA     BB356837  70.243  57.248  72.358
39515DA     SC156838  70.075  57.014  72.474
39515DA     SC256839  69.942  56.966  72.680
39515DA     SC356840  69.971  56.719  72.617
39515DA     SC456841  70.105  56.866  72.419
39516DA     BB156842  70.258  57.576  72.352
39516DA     BB256843  70.151  57.566  72.703
39516DA     BB356844  70.309  57.496  72.827
39516DA     SC156845  70.227  57.196  72.805
39516DA     SC256846  70.131  57.020  72.953
39516DA     SC356847  70.226  56.854  72.783
39516DA     SC456848  70.295  57.109  72.689
39517DT     BB156849  70.388  57.624  72.957
39517DT     BB256850  70.247  57.478  73.256
39517DT     BB356851  70.391  57.369  73.357
39517DT     SC156852  70.378  57.175  73.181
39517DT     SC256853  70.289  57.002  73.272
39517DT     SC356854  70.451  57.006  72.992
39518DA     BB156855  70.237  57.633  73.646
39518DA     BB256856  70.244  57.297  73.795
39518DA     BB356857  70.444  57.242  73.844
39518DA     SC156858  70.501  57.109  73.569
39518DA     SC256859  70.537  56.879  73.479
39518DA     SC356860  70.647  56.996  73.279
39518DA     SC456861  70.567  57.200  73.454
39519DA     BB156862  70.337  57.189  74.156
39519DA     BB256863  70.434  56.838  74.115
39519DA     BB356864  70.645  56.816  74.142
39519DA     SC156865  70.711  56.858  73.840
39519DA     SC256866  70.794  56.721  73.649
39519DA     SC356867  70.858  56.945  73.543
39519DA     SC456868  70.745  57.007  73.792
39520DT     BB156869  70.746  56.708  74.314
39520DT     BB256870  70.835  56.414  74.125
39520DT     BB356871  71.040  56.406  74.098
39520DT     SC156872  71.032  56.596  73.918
39520DT     SC256873  71.078  56.513  73.725
39520DT     SC356874  71.074  56.828  73.800
39521DA     BB156875  70.943  56.035  74.267
39521DA     BB256876  71.142  55.970  73.966
39521DA     BB356877  71.348  56.009  74.003
39521DA     SC156878  71.333  56.307  73.915
39521DA     SC256879  71.416  56.448  73.727
39521DA     SC356880  71.378  56.646  73.886
39521DA     SC456881  71.304  56.416  74.029
39522DT     BB156882  71.471  55.853  73.995
39522DT     BB256883  71.614  55.933  73.674
39522DT     BB356884  71.804  56.010  73.698
39522DT     SC156885  71.709  56.240  73.783
39522DT     SC256886  71.747  56.391  73.635
39522DT     SC356887  71.658  56.443  73.943
39523DA     BB156888  71.796  55.705  73.411
39523DA     BB256889  71.970  55.994  73.268
39523DA     BB356890  72.160  56.021  73.362
39523DA     SC156891  72.051  56.210  73.584
39523DA     SC256892  72.069  56.451  73.646
39523DA     SC356893  71.993  56.375  73.879
39523DA     SC456894  72.005  56.143  73.723
39524DG     BB156895  72.234  55.986  73.067
39524DG     BB256896  72.352  56.326  73.109
39524DG     BB356897  72.525  56.326  73.205
39524DG     SC156898  72.399  56.343  73.484
39524DG     SC256899  72.419  56.574  73.672
39524DG     SC356900  72.295  56.340  73.804
39524DG     SC456901  72.360  56.207  73.559
39525DA     BB156902  72.614  56.529  72.940
39525DA     BB256903  72.703  56.793  73.178
39525DA     BB356904  72.882  56.741  73.282
39525DA     SC156905  72.734  56.598  73.515
39525DA     SC256906  72.691  56.637  73.758
39525DA     SC356907  72.643  56.385  73.769
39525DA     SC456908  72.710  56.440  73.502
39526DT     BB156909  73.036  56.854  73.247
39526DT     BB256910  73.041  57.027  73.564
39526DT     BB356911  73.189  56.947  73.685
39526DT     SC156912  73.045  56.733  73.733
39526DT     SC256913  72.980  56.735  73.938
39526DT     SC356914  72.971  56.480  73.738
39527DA     BB156915  73.252  57.362  73.677
39527DA     BB256916  73.262  57.254  74.027
39527DA     BB356917  73.443  57.148  74.067
39527DA     SC156918  73.324  56.869  73.997
39527DA     SC256919  73.261  56.660  74.116
39527DA     SC356920  73.277  56.547  73.886
39527DA     SC456921  73.341  56.817  73.845
39528DA     BB156922  73.475  57.370  74.309
39528DA     BB256923  73.467  57.089  74.544
39528DA     BB356924  73.654  56.987  74.545
39528DA     SC156925  73.573  56.787  74.321
39528DA     SC256926  73.524  56.543  74.300
39528DA     SC356927  73.572  56.575  74.050
39528DA     SC456928  73.608  56.827  74.169
39529DG     BB156929  73.666  57.066  74.847
39529DG     BB256930  73.647  56.708  74.894
39529DG     BB356931  73.828  56.627  74.876
39529DG     SC156932  73.805  56.581  74.574
39529DG     SC256933  73.794  56.316  74.438
39529DG     SC356934  73.823  56.535  74.241
39529DG     SC456935  73.851  56.698  74.475
39530DG     BB156936  73.788  56.510  75.178
39530DG     BB256937  73.805  56.182  75.026
39530DG     BB356938  73.995  56.130  74.998
39530DG     SC156939  74.013  56.254  74.718
39530DG     SC256940  74.048  56.104  74.462
39530DG     SC356941  74.074  56.396  74.418
39530DG     SC456942  74.056  56.408  74.704
39531DT     BB156943  74.075  55.955  75.099
39531DT     BB256944  74.093  55.718  74.827
39531DT     BB356945  74.289  55.699  74.762
39531DT     SC156946  74.280  55.932  74.642
39531DT     SC256947  74.284  55.902  74.429
39531DT     SC356948  74.334  56.183  74.582
39532DC     BB156949  74.291  55.454  74.872
39532DC     BB256950  74.375  55.401  74.525
39532DC     BB356951  74.578  55.427  74.497
39532DC     SC156952  74.555  55.688  74.515
39532DC     SC256953  74.590  55.777  74.323
39532DC     SC356954  74.584  55.934  74.606
39533DT     BB156955  74.599  55.162  74.462
39533DT     BB256956  74.733  55.305  74.159
39533DT     BB356957  74.933  55.352  74.186
39533DT     SC156958  74.873  55.561  74.333
39533DT     SC256959  74.922  55.740  74.225
39533DT     SC356960  74.857  55.721  74.542
39534DT     BB156961  74.994  55.147  74.023
39534DT     BB256962  75.147  55.435  73.870
39534DT     BB356963  75.334  55.469  73.953
39534DT     SC156964  75.227  55.565  74.173
39534DT     SC256965  75.265  55.776  74.185
39534DT     SC356966  75.162  55.588  74.427
39535DC     BB156967  75.443  55.386  73.722
39535DC     BB256968  75.575  55.718  73.772
39535DC     BB356969  75.743  55.710  73.894
39535DC     SC156970  75.595  55.669  74.107
39535DC     SC256971  75.603  55.843  74.233
39535DC     SC356972  75.494  55.550  74.320
39536DA     BB156973  75.840  55.929  73.550
39536DA     BB256974  75.952  56.120  73.841
39536DA     BB356975  76.123  56.028  73.929
39536DA     SC156976  75.959  55.850  74.124
39536DA     SC256977  75.916  55.836  74.370
39536DA     SC356978  75.843  55.595  74.322
39536DA     SC456979  75.919  55.703  74.075
39537DC     BB156980  76.287  56.131  73.920
39537DC     BB256981  76.301  56.226  74.268
39537DC     BB356982  76.439  56.108  74.367
39537DC     SC156983  76.277  55.902  74.366
39537DC     SC256984  76.209  55.863  74.566
39537DC     SC356985  76.181  55.662  74.313
39538DA     BB156986  76.524  56.510  74.453
39538DA     BB256987  76.523  56.324  74.769
39538DA     BB356988  76.696  56.200  74.783
39538DA     SC156989  76.559  55.954  74.652
39538DA     SC256990  76.480  55.727  74.721
39538DA     SC356991  76.491  55.669  74.472
39538DA     SC456992  76.573  55.936  74.492
39539DA     BB156993  76.729  56.361  75.068
39539DA     BB256994  76.709  56.035  75.234
39539DA     BB356995  76.891  55.927  75.208
39539DA     SC156996  76.799  55.786  74.946
39539DA     SC256997  76.738  55.556  74.871
39539DA     SC356998  76.786  55.642  74.634
39539DA     SC456999  76.835  55.858  74.806
39540DT     BB157000  77.009  55.889  75.370
39540DT     BB257001  76.938  55.536  75.397
39540DT     BB357002  77.098  55.426  75.326
39540DT     SC157003  77.038  55.483  75.077
39540DT     SC257004  76.968  55.305  74.979
39540DT     SC357005  77.059  55.580  74.833
39541DT     BB157006  77.194  55.343  75.581
39541DT     BB257007  77.148  55.032  75.404
39541DT     BB357008  77.324  54.978  75.309
39541DT     SC157009  77.289  55.161  75.124
39541DT     SC257010  77.245  55.065  74.936
39541DT     SC357011  77.330  55.375  74.976
39542DA     BB157012  77.240  54.636  75.537
39542DA     BB257013  77.308  54.522  75.196
39542DA     BB357014  77.518  54.521  75.159
39542DA     SC157015  77.525  54.812  75.050
39542DA     SC257016  77.561  54.927  74.831
39542DA     SC357017  77.613  55.135  74.972
39542DA     SC457018  77.556  54.930  75.155
39543DA     BB157019  77.475  54.204  75.076
39543DA     BB257020  77.586  54.293  74.738
39543DA     BB357021  77.799  54.305  74.731
39543DA     SC157022  77.808  54.608  74.801
39543DA     SC257023  77.865  54.822  74.686
39543DA     SC357024  77.893  54.918  74.922
39543DA     SC457025  77.822  54.649  74.956
39544DA     BB157026  77.754  54.094  74.487
39544DA     BB257027  77.905  54.345  74.266
39544DA     BB357028  78.117  54.347  74.290
39544DA     SC157029  78.114  54.563  74.514
39544DA     SC257030  78.181  54.802  74.542
39544DA     SC357031  78.180  54.752  74.794
39544DA     SC457032  78.109  54.512  74.667
39545DA     BB157033  78.083  54.314  73.969
39545DA     BB257034  78.263  54.632  73.938
39545DA     BB357035  78.470  54.604  73.981
39545DA     SC157036  78.441  54.663  74.285
39545DA     SC257037  78.508  54.843  74.445
39545DA     SC357038  78.474  54.665  74.626
39545DA     SC457039  78.416  54.538  74.383
39546DA     BB157040  78.468  54.756  73.693
39546DA     BB257041  78.663  55.020  73.858
39546DA     BB357042  78.861  54.952  73.897
39546DA     SC157043  78.794  54.842  74.180
39546DA     SC257044  78.845  54.899  74.417
39546DA     SC357045  78.781  54.656  74.468
39546DA     SC457046  78.752  54.687  74.191
39547DA     BB157047  78.910  55.236  73.740
39547DA     BB257048  79.096  55.343  74.037
39547DA     BB357049  79.282  55.239  74.050
39547DA     SC157050  79.168  55.006  74.221
39547DA     SC257051  79.188  54.921  74.454
39547DA     SC357052  79.101  54.699  74.360
39547DA     SC457053  79.114  54.876  74.142
39548DT     BB157054  79.445  55.347  74.027
39548DT     BB257055  79.560  55.336  74.369
39548DT     BB357056  79.714  55.199  74.388
39548DT     SC157057  79.547  54.997  74.372
39548DT     SC257058  79.536  54.899  74.563
39548DT     SC357059  79.428  54.780  74.281
39549DT     BB157060  79.915  55.393  74.408
39549DT     BB257061  79.968  55.187  74.700
39549DT     BB357062  80.099  55.033  74.654
39549DT     SC157063  79.912  54.905  74.521
39549DT     SC257064  79.857  54.727  74.629
39549DT     SC357065  79.784  54.792  74.320
39550DT     BB157066  80.339  55.135  74.782
39550DT     BB257067  80.305  54.806  74.926
39550DT     BB357068  80.416  54.669  74.817
39550DT     SC157069  80.239  54.670  74.622
39550DT     SC257070  80.137  54.481  74.617
39550DT     SC357071  80.134  54.705  74.383
39551DT     BB157072  80.640  54.634  74.997
39551DT     BB257073  80.518  54.298  74.950
39551DT     BB357074  80.621  54.206  74.796
39551DT     SC157075  80.490  54.345  74.616
39551DT     SC257076  80.358  54.215  74.507
39551DT     SC357077  80.443  54.516  74.420
39552DT     BB157078  80.783  54.034  74.957
39552DT     BB257079  80.609  53.807  74.737
39552DT     BB357080  80.722  53.771  74.568
39552DT     SC157081  80.665  54.008  74.470
39552DT     SC257082  80.537  53.986  74.299
39552DT     SC357083  80.698  54.255  74.382
39553DA     BB157084  80.631  53.392  74.720
39553DA     BB257085  80.539  53.393  74.365
39553DA     BB357086  80.714  53.380  74.243
39553DA     SC157087  80.753  53.688  74.222
39553DA     SC257088  80.734  53.865  74.048
39553DA     SC357089  80.885  54.004  74.202
39553DA     SC457090  80.849  53.758  74.331
39554DA     BB157091  80.542  53.130  74.122
39554DA     BB257092  80.541  53.312  73.804
39554DA     BB357093  80.731  53.297  73.709
39554DA     SC157094  80.846  53.554  73.843
39554DA     SC257095  80.911  53.784  73.773
39554DA     SC357096  81.048  53.789  73.990
39554DA     SC457097  80.926  53.537  73.981
39555DG     BB157098  80.557  53.168  73.491
39555DG     BB257099  80.660  53.461  73.305
39555DG     BB357100  80.842  53.433  73.230
39555DG     SC157101  80.986  53.547  73.475
39555DG     SC257102  81.146  53.799  73.483
39555DG     SC357103  81.177  53.646  73.735
39555DG     SC457104  81.023  53.449  73.596
39556DG     BB157105  80.703  53.492  72.943
39556DG     BB257106  80.920  53.780  72.927
39556DG     BB357107  81.102  53.725  72.867
39556DG     SC157108  81.205  53.672  73.150
39556DG     SC257109  81.418  53.828  73.291
39556DG     SC357110  81.345  53.586  73.445
39556DG     SC457111  81.185  53.527  73.215
39557DA     BB157112  81.053  53.982  72.644
39557DA     BB257113  81.352  54.148  72.776
39557DA     BB357114  81.528  54.045  72.712
39557DA     SC157115  81.538  53.856  72.959
39557DA     SC257116  81.681  53.824  73.161
39557DA     SC357117  81.579  53.589  73.170
39557DA     SC457118  81.465  53.714  72.947
39558DA     BB157119  81.584  54.356  72.628
39558DA     BB257120  81.876  54.337  72.849
39558DA     BB357121  82.027  54.214  72.762
39558DA     SC157122  81.925  53.952  72.895
39558DA     SC257123  82.001  53.794  73.072
39558DA     SC357124  81.840  53.627  72.963
39558DA     SC457125  81.821  53.863  72.812
39559DA     BB157126  82.182  54.492  72.837
39559DA     BB257127  82.398  54.284  73.049
39559DA     BB357128  82.525  54.162  72.929
39559DA     SC157129  82.325  53.923  72.918
39559DA     SC257130  82.310  53.692  73.009
39559DA     SC357131  82.139  53.652  72.822
39559DA     SC457132  82.222  53.918  72.795
39560DT     BB157133  82.702  54.206  72.951
39560DT     BB257134  82.799  53.914  73.140
39560DT     BB357135  82.888  53.775  73.015
39560DT     SC157136  82.656  53.708  72.912
39560DT     SC257137  82.605  53.509  72.975
39560DT     SC357138  82.464  53.674  72.734
39561DT     BB157139  83.120  53.835  73.133
39561DT     BB257140  83.087  53.478  73.173
39561DT     BB357141  83.156  53.381  73.003
39561DT     SC157142  82.942  53.449  72.868
39561DT     SC257143  82.823  53.274  72.829
39561DT     SC357144  82.790  53.562  72.684
39562DG     BB157145  83.379  53.235  73.313
39562DG     BB257146  83.238  52.967  73.115
39562DG     BB357147  83.343  52.943  72.948
39562DG     SC157148  83.176  53.141  72.785
39562DG     SC257149  83.000  53.073  72.554
39562DG     SC357150  83.028  53.367  72.583
39562DG     SC457151  83.217  53.296  72.786
39563DT     BB157152  83.467  52.752  72.892
39563DT     BB257153  83.258  52.605  72.637
39563DT     BB357154  83.344  52.633  72.451
39563DT     SC157155  83.275  52.886  72.449
39563DT     SC257156  83.121  52.917  72.302
39563DT     SC357157  83.296  53.149  72.446
39564DA     BB157158  83.285  52.217  72.466
39564DA     BB257159  83.147  52.335  72.147
39564DA     BB357160  83.304  52.376  72.009
39564DA     SC157161  83.333  52.674  72.093
39564DA     SC257162  83.286  52.899  71.996
39564DA     SC357163  83.453  52.987  72.170
39564DA     SC457164  83.440  52.709  72.208
39565DT     BB157165  83.339  52.260  71.825
39565DT     BB257166  83.205  52.506  71.598
39565DT     BB357167  83.359  52.591  71.487
39565DT     SC157168  83.440  52.733  71.692
39565DT     SC257169  83.398  52.941  71.656
39565DT     SC357170  83.594  52.823  71.886
39566DT     BB157171  83.281  52.458  71.259
39566DT     BB257172  83.266  52.807  71.170
39566DT     BB357173  83.450  52.869  71.097
39566DT     SC157174  83.553  52.871  71.339
39566DT     SC257175  83.591  53.074  71.399
39566DT     SC357176  83.708  52.808  71.543
39567DT     BB157177  83.336  52.885  70.856
39567DT     BB257178  83.456  53.218  70.925
39567DT     BB357179  83.655  53.234  70.871
39567DT     SC157180  83.732  53.095  71.080
39567DT     SC257181  83.836  53.224  71.217
39567DT     SC357182  83.836  52.900  71.224
39568DA     BB157183  83.422  53.549  70.722
39568DA     BB257184  83.719  53.690  70.884
39568DA     BB357185  83.894  53.647  70.769
39568DA     SC157186  83.955  53.380  70.916
39568DA     SC257187  84.126  53.291  71.075
39568DA     SC357188  84.049  53.059  70.996
39568DA     SC457189  83.894  53.245  70.853
39569DC     BB157190  83.958  53.801  70.717
39569DC     BB257191  84.247  53.806  70.934
39569DC     BB357192  84.412  53.732  70.834
39569DC     SC157193  84.324  53.486  70.854
39569DC     SC257194  84.449  53.376  70.990
39569DC     SC357195  84.234  53.248  70.785
39570DT     BB157196  84.485  53.980  70.853
39570DT     BB257197  84.750  53.789  71.005
39570DT     BB357198  84.871  53.707  70.859
39570DT     SC157199  84.690  53.526  70.799
39570DT     SC257200  84.760  53.333  70.862
39570DT     SC357201  84.512  53.390  70.662
39571DC     BB157202  85.060  53.884  70.929
39571DC     BB257203  85.224  53.563  70.952
39571DC     BB357204  85.295  53.507  70.766
39571DC     SC157205  85.053  53.447  70.683
39571DC     SC257206  85.036  53.234  70.659
39571DC     SC357207  84.830  53.456  70.542
39572DA     BB157208  85.630  53.476  71.019
39572DA     BB257209  85.615  53.169  70.819
39572DA     BB357210  85.676  53.208  70.618
39572DA     SC157211  85.389  53.274  70.517
39572DA     SC257212  85.218  53.171  70.368
39572DA     SC357213  85.118  53.407  70.355
39572DA     SC457214  85.343  53.427  70.521
39573DA     BB157215  85.907  52.966  70.651
39573DA     BB257216  85.739  52.786  70.379
39573DA     BB357217  85.797  52.867  70.190
39573DA     SC157218  85.564  53.074  70.181
39573DA     SC257219  85.355  53.110  70.050
39573DA     SC357220  85.371  53.353  70.130
39573DA     SC457221  85.593  53.221  70.239
39574DT     BB157222  85.924  52.762  70.032
39574DT     BB257223  85.651  52.689  69.807
39574DT     BB357224  85.669  52.803  69.635
39574DT     SC157225  85.590  53.019  69.761
39574DT     SC257226  85.395  53.076  69.690
39574DT     SC357227  85.594  53.262  69.865
39575DA     BB157228  85.636  52.409  69.497
39575DA     BB257229  85.389  52.610  69.316
39575DA     BB357230  85.484  52.727  69.166
39575DA     SC157231  85.530  52.972  69.352
39575DA     SC257232  85.443  53.205  69.375
39575DA     SC357233  85.658  53.250  69.509
39575DA     SC457234  85.670  52.981  69.431
39576DA     BB157235  85.259  52.576  68.986
39576DA     BB257236  85.120  52.909  68.918
39576DA     BB357237  85.241  53.012  68.776
39576DA     SC157238  85.423  53.144  68.991
39576DA     SC257239  85.464  53.373  69.082
39576DA     SC357240  85.688  53.278  69.164
39576DA     SC457241  85.558  53.067  69.032
39577DC     BB157242  85.150  53.046  68.616
39577DC     BB257243  85.099  53.399  68.671
39577DC     BB357244  85.237  53.508  68.562
39577DC     SC157245  85.429  53.446  68.729
39577DC     SC257246  85.487  53.622  68.839
39577DC     SC357247  85.654  53.345  68.823
39578DA     BB157248  84.843  53.648  68.514
39578DA     BB257249  85.062  53.933  68.586
39578DA     BB357250  85.193  53.970  68.421
39578DA     SC157251  85.419  53.785  68.529
39578DA     SC257252  85.648  53.809  68.623
39578DA     SC357253  85.679  53.563  68.558
39578DA     SC457254  85.419  53.631  68.480
39579DG     BB157255  85.044  54.238  68.447
39579DG     BB257256  85.378  54.360  68.515
39579DG     BB357257  85.481  54.374  68.345
39579DG     SC157258  85.590  54.088  68.360
39579DG     SC257259  85.876  54.012  68.400
39579DG     SC357260  85.712  53.775  68.333
39579DG     SC457261  85.505  53.969  68.295
39580DT     BB157262  85.549  54.564  68.288
39580DT     BB257263  85.904  54.542  68.345
39580DT     BB357264  86.002  54.503  68.166
39580DT     SC157265  85.923  54.252  68.169
39580DT     SC257266  86.092  54.124  68.205
39580DT     SC357267  85.802  54.029  68.097
39581DA     BB157268  86.194  54.841  68.324
39581DA     BB257269  86.455  54.605  68.220
39581DA     BB357270  86.471  54.601  68.007
39581DA     SC157271  86.265  54.372  67.970
39581DA     SC257272  86.266  54.132  67.901
39581DA     SC357273  86.015  54.166  67.855
39581DA     SC457274  86.111  54.413  67.947
39582DT     BB157275  86.642  54.674  67.910
39582DT     BB257276  86.778  54.355  67.811
39582DT     BB357277  86.751  54.327  67.608
39582DT     SC157278  86.495  54.278  67.640
39582DT     SC257279  86.456  54.071  67.599
39582DT     SC357280  86.233  54.305  67.622
39583DT     BB157281  87.018  54.367  67.557
39583DT     BB257282  86.948  54.043  67.413
39583DT     BB357283  86.882  54.065  67.218
39583DT     SC157284  86.647  54.149  67.299
39583DT     SC257285  86.499  54.000  67.254
39583DT     SC357286  86.440  54.307  67.337
39584DA     BB157287  87.201  53.793  67.190
39584DA     BB257288  86.920  53.652  67.002
39584DA     BB357289  86.896  53.755  66.816
39584DA     SC157290  86.698  53.966  66.931
39584DA     SC257291  86.456  54.022  66.909
39584DA     SC357292  86.523  54.253  66.999
39584DA     SC457293  86.760  54.103  66.986
39585DA     BB157294  86.920  53.456  66.670
39585DA     BB257295  86.581  53.509  66.539
39585DA     BB357296  86.587  53.639  66.370
39585DA     SC157297  86.549  53.898  66.538
39585DA     SC257298  86.373  54.071  66.574
39585DA     SC357299  86.564  54.218  66.660
39585DA     SC457300  86.682  53.975  66.587
39586DT     BB157301  86.542  53.582  66.150
39586DT     BB257302  86.219  53.740  66.132
39586DT     BB357303  86.227  53.905  66.007
39586DT     SC157304  86.355  54.045  66.188
39586DT     SC257305  86.226  54.201  66.262
39586DT     SC357306  86.547  54.184  66.305
39587DC     BB157307  86.093  53.797  65.770
39587DC     BB257308  85.898  54.090  65.851
39587DC     BB357309  85.966  54.253  65.742
39587DC     SC157310  86.179  54.275  65.894
39587DC     SC257311  86.164  54.455  66.012
39587DC     SC357312  86.432  54.279  65.968
39588DA     BB157313  85.560  54.251  65.631
39588DA     BB257314  85.637  54.589  65.750
39588DA     BB357315  85.737  54.700  65.598
39588DA     SC157316  86.022  54.616  65.688
39588DA     SC257317  86.221  54.722  65.795
39588DA     SC357318  86.353  54.524  65.699
39588DA     SC457319  86.087  54.486  65.619
39589DC     BB157320  85.647  54.878  65.500
39589DC     BB257321  85.838  55.115  65.694
39589DC     BB357322  85.974  55.213  65.573
39589DC     SC157323  86.129  55.002  65.563
39589DC     SC257324  86.310  55.041  65.672
39589DC     SC357325  86.262  54.796  65.465
39590DG     BB157326  85.727  55.463  65.773
39590DG     BB257327  86.076  55.525  65.846
39590DG     BB357328  86.161  55.621  65.695
39590DG     SC157329  86.245  55.365  65.548
39590DG     SC257330  86.525  55.272  65.504
39590DG     SC357331  86.334  55.106  65.351
39590DG     SC457332  86.143  55.298  65.445
39591DC     BB157333  86.230  55.777  65.769
39591DC     BB257334  86.585  55.708  65.775
39591DC     BB357335  86.674  55.782  65.604
39591DC     SC157336  86.575  55.588  65.458
39591DC     SC257337  86.734  55.457  65.396
39591DC     SC357338  86.434  55.463  65.273
39592DT     BB157339  86.770  55.918  65.799
39592DT     BB257340  87.052  55.769  65.630
39592DT     BB357341  87.088  55.868  65.452
39592DT     SC157342  86.880  55.756  65.337
39592DT     SC257343  86.948  55.616  65.188
39592DT     SC357344  86.646  55.730  65.220
39593DC     BB157345  87.300  55.942  65.584
39593DC     BB257346  87.423  55.796  65.278
39593DC     BB357347  87.407  55.932  65.123
39593DC     SC157348  87.147  55.896  65.108
39593DC     SC257349  87.099  55.793  64.926
39593DC     SC357350  86.889  55.947  65.118
39594DT     BB157351  87.677  55.973  65.123
39594DT     BB257352  87.603  55.889  64.780
39594DT     BB357353  87.550  56.060  64.676
39594DT     SC157354  87.314  56.066  64.790
39594DT     SC257355  87.163  56.019  64.645
39594DT     SC357356  87.112  56.151  64.937
39595DC     BB157357  87.796  56.096  64.530
39595DC     BB257358  87.547  56.095  64.269
39595DC     BB357359  87.486  56.289  64.229
39595DC     SC157360  87.345  56.298  64.450
39595DC     SC257361  87.135  56.301  64.401
39595DC     SC357362  87.264  56.373  64.690
39596DA     BB157363  87.608  56.171  63.843
39596DA     BB257364  87.273  56.316  63.807
39596DA     BB357365  87.284  56.529  63.808
39596DA     SC157366  87.250  56.554  64.116
39596DA     SC257367  87.077  56.636  64.276
39596DA     SC357368  87.269  56.652  64.445
39596DA     SC457369  87.383  56.559  64.206
39597DA     BB157370  87.126  56.519  63.517
39597DA     BB257371  86.848  56.694  63.680
39597DA     BB357372  86.887  56.904  63.688
39597DA     SC157373  87.026  56.892  63.966
39597DA     SC257374  86.978  56.966  64.199
39597DA     SC357375  87.231  56.944  64.236
39597DA     SC457376  87.186  56.874  63.968
39598DT     BB157377  86.767  57.025  63.581
39598DT     BB257378  86.575  57.145  63.862
39598DT     BB357379  86.628  57.341  63.905
39598DT     SC157380  86.855  57.265  64.012
39598DT     SC257381  86.848  57.298  64.225
39598DT     SC357382  87.114  57.237  64.050
39599DT     BB157383  86.386  57.374  63.822
39599DT     BB257384  86.393  57.502  64.159
39599DT     BB357385  86.475  57.692  64.161
39599DT     SC157386  86.717  57.597  64.125
39599DT     SC257387  86.832  57.625  64.305
39599DT     SC357388  86.951  57.548  64.014
39600DT     BB157389  86.232  57.723  64.231
39600DT     BB257390  86.432  57.864  64.496
39600DT     BB357391  86.510  58.047  64.436
39600DT     SC157392  86.686  57.929  64.281
39600DT     SC257393  86.883  57.956  64.364
39600DT     SC357394  86.815  57.857  64.063
39601DG     BB157395  86.310  58.052  64.795
39601DG     BB257396  86.632  58.218  64.812
39601DG     BB357397  86.626  58.388  64.709
39601DG     SC157398  86.714  58.260  64.445
39601DG     SC257399  86.972  58.310  64.304
39601DG     SC357400  86.789  58.149  64.136
39601DG     SC457401  86.602  58.200  64.347
39602DC     BB157402  86.656  58.566  64.814
39602DC     BB257403  86.978  58.678  64.696
39602DC     BB357404  86.953  58.818  64.545
39602DC     SC157405  86.885  58.632  64.373
39602DC     SC257406  87.041  58.610  64.226
39602DC     SC357407  86.740  58.492  64.202
39603DC     BB157408  87.023  59.033  64.706
39603DC     BB257409  87.241  59.066  64.421
39603DC     BB357410  87.148  59.177  64.273
39603DC     SC157411  86.992  58.976  64.209
39603DC     SC257412  87.048  58.902  64.015
39603DC     SC357413  86.774  58.833  64.172
39604DA     BB157414  87.503  59.401  64.322
39604DA     BB257415  87.460  59.349  63.962
39604DA     BB357416  87.312  59.482  63.885
39604DA     SC157417  87.076  59.284  63.930
39604DA     SC257418  86.921  59.147  63.790
39604DA     SC357419  86.771  59.142  63.998
39604DA     SC457420  86.996  59.294  64.069
39605DC     BB157421  87.348  59.657  63.742
39605DC     BB257422  87.214  59.496  63.449
39605DC     BB357423  87.036  59.586  63.394
39605DC     SC157424  86.907  59.472  63.591
39605DC     SC257425  86.771  59.325  63.513
39605DC     SC357426  86.769  59.444  63.814
39606DT     BB157427  87.145  59.716  63.171
39606DT     BB257428  86.877  59.518  63.035
39606DT     BB357429  86.701  59.627  63.034
39606DT     SC157430  86.673  59.599  63.294
39606DT     SC257431  86.506  59.470  63.334
39606DT     SC357432  86.655  59.660  63.550
39607DA     BB157433  86.754  59.479  62.646
39607DA     BB257434  86.413  59.396  62.753
39607DA     BB357435  86.290  59.570  62.751
39607DA     SC157436  86.352  59.646  63.047
39607DA     SC257437  86.231  59.651  63.265
39607DA     SC357438  86.415  59.814  63.340
39607DA     SC457439  86.474  59.746  63.074
39608DT     BB157440  86.142  59.573  62.621
39608DT     BB257441  85.876  59.516  62.858
39608DT     BB357442  85.775  59.693  62.895
39608DT     SC157443  85.972  59.784  63.043
39608DT     SC257444  85.909  59.792  63.248
39608DT     SC357445  86.171  59.937  63.124
39609DT     BB157446  85.567  59.592  62.757
39609DT     BB257447  85.433  59.671  63.083
39609DT     BB357448  85.377  59.871  63.090
39609DT     SC157449  85.628  59.948  63.105
39609DT     SC257450  85.666  60.028  63.301
39609DT     SC357451  85.856  60.064  63.041
39610DA     BB157452  85.051  59.642  63.221
39610DA     BB257453  85.107  59.910  63.465
39610DA     BB357454  85.046  60.098  63.384
39610DA     SC157455  85.325  60.165  63.263
39610DA     SC257456  85.510  60.326  63.306
39610DA     SC357457  85.582  60.276  63.065
39610DA     SC457458  85.352  60.121  63.111
39611DG     BB157459  84.851  60.098  63.626
39611DG     BB257460  85.048  60.385  63.725
39611DG     BB357461  84.985  60.547  63.628
39611DG     SC157462  85.174  60.508  63.390
39611DG     SC257463  85.402  60.686  63.317
39611DG     SC357464  85.353  60.485  63.105
39611DG     SC457465  85.126  60.419  63.267
39612DT     BB157466  84.902  60.718  63.738
39612DT     BB257467  85.174  60.955  63.716
39612DT     BB357468  85.131  61.099  63.573
39612DT     SC157469  85.180  60.930  63.378
39612DT     SC257470  85.360  60.989  63.277
39612DT     SC357471  85.141  60.777  63.167
39613DG     BB157472  85.191  61.300  63.924
39613DG     BB257473  85.398  61.432  63.658
39613DG     BB357474  85.290  61.548  63.539
39613DG     SC157475  85.207  61.321  63.351
39613DG     SC257476  85.289  61.291  63.066
39613DG     SC357477  85.080  61.094  63.137
39613DG     SC457478  85.075  61.238  63.385
39614DT     BB157479  85.335  61.766  63.516
39614DT     BB257480  85.489  61.770  63.190
39614DT     BB357481  85.356  61.844  63.050
39614DT     SC157482  85.219  61.620  63.051
39614DT     SC257483  85.247  61.518  62.863
39614DT     SC357484  85.018  61.452  63.083
39615DC     BB157485  85.500  62.073  63.033
39615DC     BB257486  85.495  61.942  62.697
39615DC     BB357487  85.325  62.007  62.598
39615DC     SC157488  85.174  61.839  62.733
39615DC     SC257489  85.103  61.685  62.600
39615DC     SC357490  84.988  61.748  62.896
39616DG     BB157491  85.651  62.123  62.384
39616DG     BB257492  85.418  61.934  62.182
39616DG     BB357493  85.263  62.049  62.132
39616DG     SC157494  85.097  61.976  62.379
39616DG     SC257495  84.842  61.820  62.379
39616DG     SC357496  84.897  61.933  62.647
39616DG     SC457497  85.115  62.062  62.512
39617DC     BB157498  85.235  62.077  61.930
39617DC     BB257499  84.951  61.865  61.866
39617DC     BB357500  84.778  61.979  61.859
39617DC     SC157501  84.777  62.008  62.120
39617DC     SC257502  84.612  61.897  62.203
39617DC     SC357503  84.786  62.123  62.357
39618DC     BB157504  84.788  61.913  61.607
39618DC     BB257505  84.470  61.791  61.727
39618DC     BB357506  84.333  61.946  61.734
39618DC     SC157507  84.446  62.047  61.948
39618DC     SC257508  84.315  62.022  62.117
39618DC     SC357509  84.573  62.217  62.105
39619DA     BB157510  84.186  61.596  61.550
39619DA     BB257511  83.939  61.716  61.792
39619DA     BB357512  83.855  61.902  61.727
39619DA     SC157513  84.067  62.076  61.874
39619DA     SC257514  84.075  62.231  62.069
39619DA     SC357515  84.290  62.321  61.963
39619DA     SC457516  84.198  62.119  61.792
39620DA     BB157517  83.600  61.707  61.799
39620DA     BB257518  83.502  61.970  62.035
39620DA     BB357519  83.443  62.146  61.930
39620DA     SC157520  83.728  62.270  61.929
39620DA     SC257521  83.846  62.462  62.036
39620DA     SC357522  84.016  62.437  61.846
39620DA     SC457523  83.822  62.240  61.802
39621DT     BB157524  83.258  62.193  61.947
39621DT     BB257525  83.300  62.484  62.156
39621DT     BB357526  83.288  62.655  62.042
39621DT     SC157527  83.527  62.615  61.942
39621DT     SC257528  83.662  62.764  62.019
39621DT     SC357529  83.719  62.569  61.767
39622DC     BB157530  83.039  62.717  62.139
39622DC     BB257531  83.234  63.013  62.205
39622DC     BB357532  83.230  63.138  62.040
39622DC     SC157533  83.394  62.983  61.908
39622DC     SC257534  83.584  63.083  61.886
39622DC     SC357535  83.487  62.821  61.721
39623DA     BB157536  83.102  63.390  62.353
39623DA     BB257537  83.365  63.568  62.170
39623DA     BB357538  83.289  63.644  61.986
39623DA     SC157539  83.364  63.390  61.823
39623DA     SC257540  83.528  63.327  61.645
39623DA     SC357541  83.369  63.130  61.599
39623DA     SC457542  83.253  63.275  61.808
39624DG     BB157543  83.355  63.936  62.087
39624DG     BB257544  83.593  63.931  61.816
39624DG     BB357545  83.505  63.987  61.647
39624DG     SC157546  83.420  63.703  61.568
39624DG     SC257547  83.523  63.548  61.335
39624DG     SC357548  83.294  63.409  61.462
39624DG     SC457549  83.279  63.647  61.620
39625DA     BB157550  83.759  64.220  61.609
39625DA     BB257551  83.861  64.058  61.297
39625DA     BB357552  83.730  64.113  61.138
39625DA     SC157553  83.535  63.875  61.183
39625DA     SC257554  83.470  63.665  61.066
39625DA     SC357555  83.258  63.674  61.209
39625DA     SC457556  83.409  63.899  61.280
39626DT     BB157557  83.813  64.215  60.999
39626DT     BB257558  83.828  63.948  60.756
39626DT     BB357559  83.677  63.971  60.616
39626DT     SC157560  83.495  63.890  60.787
39626DT     SC257561  83.421  63.698  60.726
39626DT     SC357562  83.284  63.894  60.945
39627DA     BB157563  84.051  63.905  60.437
39627DA     BB257564  83.807  63.677  60.286
39627DA     BB357565  83.668  63.786  60.166
39627DA     SC157566  83.465  63.831  60.398
39627DA     SC257567  83.237  63.753  60.462
39627DA     SC357568  83.230  63.961  60.612
39627DA     SC457569  83.480  63.966  60.484
39628DC     BB157570  83.686  63.734  59.996
39628DC     BB257571  83.378  63.547  59.972
39628DC     BB357572  83.230  63.665  59.889
39628DC     SC157573  83.202  63.801  60.112
39628DC     SC257574  83.012  63.753  60.201
39628DC     SC357575  83.203  64.003  60.281
39629DT     BB157576  83.253  63.509  59.677
39629DT     BB257577  82.905  63.490  59.768
39629DT     BB357578  82.803  63.653  59.692
39629DT     SC157579  82.906  63.813  59.872
39629DT     SC257580  82.752  63.875  60.009
39629DT     SC357581  83.045  64.010  59.978
39630DA     BB157582  82.590  63.309  59.576
39630DA     BB257583  82.349  63.550  59.710
39630DA     BB357584  82.324  63.713  59.574
39630DA     SC157585  82.550  63.886  59.700
39630DA     SC257586  82.569  64.096  59.833
39630DA     SC357587  82.812  64.101  59.752
39630DA     SC457588  82.697  63.872  59.638
39631DT     BB157589  82.138  63.753  59.460
39631DT     BB257590  82.031  64.041  59.650
39631DT     BB357591  82.053  64.212  59.536
39631DT     SC157592  82.313  64.210  59.569
39631DT     SC257593  82.371  64.374  59.695
39631DT     SC357594  82.570  64.196  59.511
39632DC     BB157595  81.777  64.248  59.482
39632DC     BB257596  81.876  64.560  59.635
39632DC     BB357597  81.936  64.694  59.489
39632DC     SC157598  82.163  64.567  59.455
39632DC     SC257599  82.325  64.688  59.529
39632DC     SC357600  82.355  64.428  59.338
39633DA     BB157601  81.643  64.902  59.705
39633DA     BB257602  81.938  65.119  59.683
39633DA     BB357603  81.953  65.205  59.489
39633DA     SC157604  82.128  64.975  59.373
39633DA     SC257605  82.363  64.943  59.297
39633DA     SC357606  82.272  64.739  59.171
39633DA     SC457607  82.052  64.853  59.301
39634DA     BB157608  81.964  65.479  59.667
39634DA     BB257609  82.300  65.531  59.529
39634DA     BB357610  82.287  65.602  59.328
39634DA     SC157611  82.293  65.317  59.202
39634DA     SC257612  82.449  65.179  59.066
39634DA     SC357613  82.241  65.042  59.003
39634DA     SC457614  82.152  65.246  59.173
39635DA     BB157615  82.481  65.819  59.472
39635DA     BB257616  82.738  65.715  59.231
39635DA     BB357617  82.691  65.789  59.036
39635DA     SC157618  82.528  65.539  58.953
39635DA     SC257619  82.551  65.347  58.794
39635DA     SC357620  82.296  65.324  58.817
39635DA     SC457621  82.369  65.541  58.979
39636DT     BB157622  82.819  65.907  58.981
39636DT     BB257623  82.976  65.693  58.737
39636DT     BB357624  82.906  65.739  58.547
39636DT     SC157625  82.677  65.621  58.595
39636DT     SC257626  82.663  65.442  58.477
39636DT     SC357627  82.418  65.587  58.632
39637DA     BB157628  83.326  65.724  58.550
39637DA     BB257629  83.206  65.532  58.262
39637DA     BB357630  83.123  65.663  58.115
39637DA     SC157631  82.834  65.650  58.230
39637DA     SC257632  82.614  65.555  58.163
39637DA     SC357633  82.514  65.722  58.330
39637DA     SC457634  82.792  65.762  58.337
39638DA     BB157635  83.337  65.496  57.928
39638DA     BB257636  83.050  65.396  57.723
39638DA     BB357637  82.980  65.561  57.607
39638DA     SC157638  82.778  65.659  57.822
39638DA     SC257639  82.530  65.670  57.851
39638DA     SC357640  82.579  65.849  58.028
39638DA     SC457641  82.829  65.769  57.927
39639DT     BB157642  82.999  65.565  57.396
39639DT     BB257643  82.650  65.515  57.318
39639DT     BB357644  82.566  65.692  57.251
39639DT     SC157645  82.562  65.792  57.493
39639DT     SC257646  82.358  65.807  57.561
39639DT     SC357647  82.615  65.950  57.698
39640DT     BB157648  82.555  65.622  56.975
39640DT     BB257649  82.214  65.713  57.053
39640DT     BB357650  82.185  65.915  57.016
39640DT     SC157651  82.318  65.982  57.232
39640DT     SC257652  82.182  66.064  57.377
39640DT     SC357653  82.506  66.086  57.385
39641DT     BB157654  82.033  65.901  56.764
39641DT     BB257655  81.817  66.094  56.978
39641DT     BB357656  81.849  66.296  56.946
39641DT     SC157657  82.076  66.289  57.078
39641DT     SC257658  82.054  66.397  57.263
39641DT     SC357659  82.334  66.305  57.128
39642DG     BB157660  81.452  66.266  56.842
39642DG     BB257661  81.497  66.524  57.091
39642DG     BB357662  81.551  66.694  57.004
39642DG     SC157663  81.852  66.636  57.020
39642DG     SC257664  82.051  66.785  57.185
39642DG     SC357665  82.186  66.596  57.002
39642DG     SC457666  81.921  66.555  56.900
39643DC     BB157667  81.425  66.905  56.998
39643DC     BB257668  81.609  67.094  57.245
39643DC     BB357669  81.713  67.247  57.152
39643DC     SC157670  81.891  67.079  57.058
39643DC     SC257671  82.079  67.110  57.157
39643DC     SC357672  82.034  66.940  56.885
39644DT     BB157673  81.543  67.442  57.252
39644DT     BB257674  81.868  67.536  57.376
39644DT     BB357675  81.961  67.662  57.241
39644DT     SC157676  82.012  67.462  57.078
39644DT     SC257677  82.224  67.424  57.076
39644DT     SC357678  82.009  67.311  56.862
39645DG     BB157679  81.938  67.854  57.598
39645DG     BB257680  82.278  67.845  57.474
39645DG     BB357681  82.303  67.984  57.334
39645DG     SC157682  82.221  67.800  57.102
39645DG     SC257683  82.400  67.703  56.884
39645DG     SC357684  82.118  67.633  56.828
39645DG     SC457685  82.067  67.791  57.062
39646DA     BB157686  82.573  68.062  57.528
39646DA     BB257687  82.794  68.000  57.242
39646DA     BB357688  82.779  68.160  57.101
39646DA     SC157689  82.550  68.028  56.937
39646DA     SC257690  82.520  67.924  56.713
39646DA     SC357691  82.270  67.968  56.748
39646DA     SC457692  82.399  68.065  56.977
39647DT     BB157693  82.939  68.246  57.088
39647DT     BB257694  83.033  68.121  56.763
39647DT     BB357695  82.990  68.262  56.618
39647DT     SC157696  82.733  68.210  56.633
39647DT     SC257697  82.670  68.112  56.452
39647DT     SC357698  82.475  68.245  56.675
39648DA     BB157699  83.379  68.108  56.582
39648DA     BB257700  83.221  68.107  56.250
39648DA     BB357701  83.197  68.306  56.179
39648DA     SC157702  82.913  68.341  56.301
39648DA     SC257703  82.678  68.360  56.219
39648DA     SC357704  82.628  68.464  56.448
39648DA     SC457705  82.902  68.404  56.448
39649DA     BB157706  83.347  68.153  55.932
39649DA     BB257707  83.063  68.256  55.725
39649DA     BB357708  83.067  68.467  55.692
39649DA     SC157709  82.894  68.533  55.942
39649DA     SC257710  82.664  68.618  55.990
39649DA     SC357711  82.757  68.679  56.221
39649DA     SC457712  82.970  68.564  56.080
39650DT     BB157713  83.098  68.521  55.511
39650DT     BB257714  82.769  68.649  55.438
39650DT     BB357715  82.769  68.856  55.452
39650DT     SC157716  82.774  68.846  55.714
39650DT     SC257717  82.586  68.914  55.792
39650DT     SC357718  82.860  68.876  55.962
39651DG     BB157719  82.653  68.787  55.065
39651DG     BB257720  82.429  69.021  55.226
39651DG     BB357721  82.510  69.202  55.228
39651DG     SC157722  82.651  69.162  55.497
39651DG     SC257723  82.587  69.307  55.751
39651DG     SC357724  82.834  69.146  55.780
39651DG     SC457725  82.798  69.099  55.500
39652DA     BB157726  82.233  69.362  55.070
39652DA     BB257727  82.185  69.584  55.358
39652DA     BB357728  82.322  69.747  55.349
39652DA     SC157729  82.543  69.601  55.513
39652DA     SC257730  82.647  69.620  55.739
39652DA     SC357731  82.841  69.486  55.637
39652DA     SC457732  82.654  69.519  55.431
39653DT     BB157733  82.275  69.977  55.309
39653DT     BB257734  82.323  70.087  55.650
39653DT     BB357735  82.492  70.207  55.662
39653DT     SC157736  82.650  69.999  55.641
39653DT     SC257737  82.750  69.966  55.829
39653DT     SC357738  82.833  69.834  55.544
39654DA     BB157739  82.199  70.461  55.827
39654DA     BB257740  82.480  70.454  56.063
39654DA     BB357741  82.638  70.580  55.994
39654DA     SC157742  82.782  70.354  55.835
39654DA     SC257743  82.992  70.222  55.852
39654DA     SC357744  82.958  70.174  55.602
39654DA     SC457745  82.743  70.337  55.680
39655DG     BB157746  82.604  70.754  56.255
39655DG     BB257747  82.933  70.626  56.333
39655DG     BB357748  83.072  70.744  56.253
39655DG     SC157749  83.083  70.592  55.987
39655DG     SC257750  83.314  70.433  55.886
39655DG     SC357751  83.107  70.461  55.677
39655DG     SC457752  82.983  70.634  55.869
39656DT     BB157753  83.223  70.856  56.380
39656DT     BB257754  83.516  70.652  56.328
39656DT     BB357755  83.649  70.751  56.204
39656DT     SC157756  83.501  70.700  55.993
39656DT     SC257757  83.602  70.558  55.867
39656DT     SC357758  83.348  70.740  55.782
39657DT     BB157759  83.805  70.781  56.418
39657DT     BB257760  84.007  70.599  56.181
39657DT     BB357761  84.100  70.730  56.052
39657DT     SC157762  83.875  70.773  55.922
39657DT     SC257763  83.888  70.686  55.726
39657DT     SC357764  83.665  70.900  55.825
39658DT     BB157765  84.320  70.659  56.177
39658DT     BB257766  84.379  70.579  55.830
39658DT     BB357767  84.441  70.748  55.728
39658DT     SC157768  84.198  70.848  55.729
39658DT     SC257769  84.120  70.846  55.529
39658DT     SC357770  83.997  71.011  55.780
39659DA     BB157771  84.694  70.422  55.651
39659DA     BB257772  84.606  70.579  55.332
39659DA     BB357773  84.701  70.769  55.314
39659DA     SC157774  84.466  70.926  55.442
39659DA     SC257775  84.291  71.089  55.370
39659DA     SC357776  84.273  71.150  55.618
39659DA     SC457777  84.471  70.951  55.601
39660DA     BB157778  84.785  70.619  55.035
39660DA     BB257779  84.621  70.898  54.863
39660DA     BB357780  84.737  71.076  54.883
39660DA     SC157781  84.594  71.169  55.144
39660DA     SC257782  84.437  71.349  55.214
39660DA     SC357783  84.519  71.300  55.452
39660DA     SC457784  84.659  71.124  55.284
39661DT     BB157785  84.816  71.148  54.719
39661DT     BB257786  84.601  71.436  54.685
39661DT     BB357787  84.700  71.606  54.747
39661DT     SC157788  84.674  71.539  54.999
39661DT     SC257789  84.536  71.674  55.095
39661DT     SC357790  84.737  71.469  55.245
39662DC     BB157791  84.724  71.690  54.489
39662DC     BB257792  84.562  71.965  54.658
39662DC     BB357793  84.703  72.090  54.742
39662DC     SC157794  84.750  71.918  54.935
39662DC     SC257795  84.676  71.998  55.121
39662DC     SC357796  84.879  71.747  55.089
39663DT     BB157797  84.668  72.289  54.552
39663DT     BB257798  84.614  72.459  54.866
39663DT     BB357799  84.793  72.531  54.939
39663DT     SC157800  84.871  72.291  55.011
39663DT     SC257801  84.874  72.278  55.225
39663DT     SC357802  85.011  72.068  55.020
39664DA     BB157803  84.545  72.871  54.935
39664DA     BB257804  84.704  72.855  55.265
39664DA     BB357805  84.907  72.918  55.253
39664DA     SC157806  85.017  72.632  55.199
39664DA     SC257807  85.153  72.461  55.320
39664DA     SC357808  85.197  72.362  55.087
39664DA     SC457809  85.034  72.586  55.046
39665DT     BB157810  84.985  73.103  55.344
39665DT     BB257811  85.157  72.943  55.618
39665DT     BB357812  85.362  72.956  55.590
39665DT     SC157813  85.356  72.771  55.404
39665DT     SC257814  85.451  72.593  55.477
39665DT     SC357815  85.379  72.656  55.168
39666DC     BB157816  85.401  73.150  55.789
39666DC     BB257817  85.614  72.878  55.890
39666DC     BB357818  85.803  72.902  55.809
39666DC     SC157819  85.718  72.829  55.571
39666DC     SC257820  85.801  72.637  55.521
39666DC     SC357821  85.657  72.841  55.315
39667DT     BB157822  85.909  72.968  56.053
39667DT     BB257823  86.098  72.679  55.947
39667DT     BB357824  86.261  72.739  55.833
39667DT     SC157825  86.107  72.792  55.627
39667DT     SC257826  86.144  72.648  55.472
39667DT     SC357827  85.985  72.928  55.437
39668DC     BB157828  86.420  72.669  56.038
39668DC     BB257829  86.532  72.468  55.760
39668DC     BB357830  86.669  72.575  55.647
39668DC     SC157831  86.481  72.725  55.544
39668DC     SC257832  86.457  72.677  55.335
39668DC     SC357833  86.338  72.939  55.485
39669DA     BB157834  86.815  72.193  55.740
39669DA     BB257835  86.856  72.248  55.380
39669DA     BB357836  87.010  72.391  55.343
39669DA     SC157837  86.819  72.636  55.347
39669DA     SC257838  86.728  72.802  55.184
39669DA     SC357839  86.679  72.947  55.390
39669DA     SC457840  86.798  72.712  55.487
39670DA     BB157841  87.077  72.131  55.158
39670DA     BB257842  87.052  72.362  54.874
39670DA     BB357843  87.216  72.499  54.875
39670DA     SC157844  87.068  72.713  55.047
39670DA     SC257845  86.972  72.941  55.015
39670DA     SC357846  86.988  72.961  55.270
39670DA     SC457847  87.087  72.706  55.206
39671DA     BB157848  87.219  72.377  54.572
39671DA     BB257849  87.179  72.723  54.457
39671DA     BB357850  87.359  72.833  54.489
39671DA     SC157851  87.277  72.931  54.773
39671DA     SC257852  87.212  73.145  54.883
39671DA     SC357853  87.275  73.028  55.102
39671DA     SC457854  87.323  72.842  54.899
39672DT     BB157855  87.451  72.892  54.329
39672DT     BB257856  87.375  73.243  54.356
39672DT     BB357857  87.539  73.346  54.429
39672DT     SC157858  87.497  73.255  54.672
39672DT     SC257859  87.432  73.416  54.798
39672DT     SC357860  87.536  73.126  54.898
39673DT     BB157861  87.594  73.456  54.183
39673DT     BB257862  87.569  73.742  54.402
39673DT     BB357863  87.753  73.782  54.487
39673DT     SC157864  87.731  73.577  54.650
39673DT     SC257865  87.704  73.648  54.851
39673DT     SC357866  87.781  73.345  54.765
39674DA     BB157867  87.651  74.152  54.314
39674DA     BB257868  87.757  74.220  54.658
39674DA     BB357869  87.970  74.210  54.674
39674DA     SC157870  87.975  73.907  54.745
39674DA     SC257871  88.027  73.765  54.943
39674DA     SC357872  88.058  73.575  54.773
39674DA     SC457873  87.991  73.803  54.624
39675DA     BB157874  87.963  74.520  54.798
39675DA     BB257875  88.104  74.385  55.108
39675DA     BB357876  88.315  74.360  55.089
39675DA     SC157877  88.296  74.068  54.984
39675DA     SC257878  88.351  73.839  55.066
39675DA     SC357879  88.347  73.772  54.819
39675DA     SC457880  88.291  74.046  54.825
39676DT     BB157881  88.460  74.479  55.203
39676DT     BB257882  88.548  74.217  55.435
39676DT     BB357883  88.741  74.152  55.398
39676DT     SC157884  88.663  74.021  55.184
39676DT     SC257885  88.677  73.810  55.221
39676DT     SC357886  88.641  73.950  54.931
39677DA     BB157887  88.711  74.245  55.805
39677DA     BB257888  88.853  73.909  55.776
39677DA     BB357889  89.056  73.920  55.710
39677DA     SC157890  88.984  73.902  55.408
39677DA     SC257891  89.009  73.737  55.222
39677DA     SC357892  88.976  73.939  55.067
39677DA     SC457893  88.963  74.040  55.328
39678DT     BB157894  89.178  73.857  55.839
39678DT     BB257895  89.254  73.543  55.677
39678DT     BB357896  89.436  73.556  55.580
39678DT     SC157897  89.332  73.702  55.388
39678DT     SC257898  89.326  73.587  55.206
39678DT     SC357899  89.286  73.908  55.229
39679DA     BB157900  89.405  73.212  55.818
39679DA     BB257901  89.531  73.115  55.487
39679DA     BB357902  89.730  73.187  55.459
39679DA     SC157903  89.640  73.457  55.333
39679DA     SC257904  89.647  73.567  55.109
39679DA     SC357905  89.614  73.786  55.239
39679DA     SC457906  89.621  73.582  55.432
39680DC     BB157907  89.842  73.048  55.443
39680DC     BB257908  89.915  73.083  55.091
39680DC     BB357909  90.091  73.188  55.066
39680DC     SC157910  89.975  73.415  55.128
39680DC     SC257911  89.962  73.539  54.953
39680DC     SC357912  89.917  73.636  55.259
39681DA     BB157913  90.122  72.836  54.839
39681DA     BB257914  90.234  73.115  54.629
39681DA     BB357915  90.424  73.185  54.694
39681DA     SC157916  90.307  73.395  54.891
39681DA     SC257917  90.292  73.644  54.907
39681DA     SC357918  90.250  73.604  55.157
39681DA     SC457919  90.284  73.350  55.043
39682DT     BB157920  90.597  73.160  54.576
39682DT     BB257921  90.634  73.505  54.477
39682DT     BB357922  90.793  73.591  54.578
39682DT     SC157923  90.655  73.605  54.801
39682DT     SC257924  90.611  73.811  54.845
39682DT     SC357925  90.581  73.562  55.050
39683DT     BB157926  90.961  73.593  54.355
39683DT     BB257927  90.955  73.937  54.461
39683DT     BB357928  91.107  73.972  54.598
39683DT     SC157929  90.977  73.846  54.787
39683DT     SC257930  90.912  73.988  54.935
39683DT     SC357931  90.918  73.666  54.971
39684DG     BB157932  91.179  74.231  54.291
39684DG     BB257933  91.170  74.404  54.609
39684DG     BB357934  91.344  74.382  54.703
39684DG     SC157935  91.260  74.126  54.849
39684DG     SC257936  91.220  74.096  55.143
39684DG     SC357937  91.208  73.833  55.008
39684DG     SC457938  91.283  73.984  54.777
39685DA     BB157939  91.339  74.725  54.733
39685DA     BB257940  91.350  74.694  55.099
39685DA     BB357941  91.546  74.641  55.163
39685DA     SC157942  91.495  74.335  55.150
39685DA     SC257943  91.470  74.145  55.310
39685DA     SC357944  91.525  73.995  55.109
39685DA     SC457945  91.532  74.259  55.013
39686DG     BB157946  91.510  74.907  55.316
39686DG     BB257947  91.539  74.691  55.604
39686DG     BB357948  91.730  74.647  55.637
39686DG     SC157949  91.729  74.398  55.460
39686DG     SC257950  91.760  74.116  55.554
39686DG     SC357951  91.768  74.130  55.258
39686DG     SC457952  91.762  74.413  55.304
39687DG     BB157953  91.693  74.774  55.938
39687DG     BB257954  91.781  74.446  56.064
39687DG     BB357955  91.979  74.423  56.061
39687DG     SC157956  91.986  74.309  55.777
39687DG     SC257957  92.062  74.030  55.703
39687DG     SC357958  92.034  74.199  55.462
39687DG     SC457959  91.999  74.409  55.653
39688DA     BB157960  91.973  74.330  56.401
39688DA     BB257961  92.130  74.009  56.321
39688DA     BB357962  92.339  74.036  56.287
39688DA     SC157963  92.308  74.082  55.981
39688DA     SC257964  92.362  73.962  55.769
39688DA     SC357965  92.342  74.191  55.657
39688DA     SC457966  92.292  74.234  55.930
39689DT     BB157967  92.515  73.964  56.422
39689DT     BB257968  92.629  73.696  56.207
39689DT     BB357969  92.812  73.745  56.125
39689DT     SC157970  92.701  73.915  55.959
39689DT     SC257971  92.714  73.838  55.758
39689DT     SC357972  92.641  74.143  55.840
39690DT     BB157973  93.006  73.582  56.288
39690DT     BB257974  93.083  73.482  55.950
39690DT     BB357975  93.243  73.593  55.878
39690DT     SC157976  93.092  73.806  55.847
39690DT     SC257977  93.065  73.845  55.637
39690DT     SC357978  92.998  74.050  55.879
39691DA     BB157979  93.414  73.209  55.820
39691DA     BB257980  93.445  73.385  55.500
39691DA     BB357981  93.615  73.513  55.502
39691DA     SC157982  93.459  73.760  55.608
39691DA     SC257983  93.383  73.982  55.523
39691DA     SC357984  93.364  74.048  55.770
39691DA     SC457985  93.454  73.782  55.768
39692DG     BB157986  93.752  73.351  55.263
39692DG     BB257987  93.690  73.655  55.077
39692DG     BB357988  93.847  73.776  55.091
39692DG     SC157989  93.746  73.918  55.343
39692DG     SC257990  93.662  74.204  55.362
39692DG     SC357991  93.676  74.081  55.630
39692DG     SC457992  93.783  73.857  55.487
39693DA     BB157993  93.837  73.787  54.749
39693DA     BB257994  93.770  74.148  54.764
39693DA     BB357995  93.951  74.255  54.800
39693DA     SC157996  93.921  74.249  55.110
39693DA     SC257997  93.873  74.411  55.294
39693DA     SC357998  93.978  74.234  55.448
39693DA     SC457999  93.990  74.128  55.189
39694DG     BB158000  93.851  74.367  54.536
39694DG     BB258001  93.814  74.666  54.736
39694DG     BB358002  93.991  74.753  54.761
39694DG     SC158003  94.060  74.599  55.016
39694DG     SC258004  94.087  74.716  55.290
39694DG     SC358005  94.176  74.434  55.286
39694DG     SC458006  94.134  74.458  55.004
39695DA     BB158007  93.790  75.011  54.664
39695DA     BB258008  93.877  75.186  54.974
39695DA     BB358009  94.081  75.250  54.968
39695DA     SC158010  94.192  74.990  55.098
39695DA     SC258011  94.295  74.921  55.314
39695DA     SC358012  94.383  74.718  55.184
39695DA     SC458013  94.238  74.872  54.999
39696DA     BB158014  93.893  75.502  55.055
39696DA     BB258015  94.101  75.517  55.356
39696DA     BB358016  94.300  75.574  55.306
39696DA     SC158017  94.401  75.283  55.265
39696DA     SC258018  94.554  75.123  55.379
39696DA     SC358019  94.561  75.000  55.154
39696DA     SC458020  94.393  75.222  55.116
39697DT     BB158021  94.337  75.733  55.382
39697DT     BB258022  94.572  75.618  55.630
39697DT     BB358023  94.766  75.641  55.560
39697DT     SC158024  94.741  75.437  55.398
39697DT     SC258025  94.865  75.275  55.468
39697DT     SC358026  94.728  75.297  55.175
39698DT     BB158027  94.792  75.841  55.736
39698DT     BB258028  95.070  75.621  55.807
39698DT     BB358029  95.227  75.663  55.679
39698DT     SC158030  95.106  75.547  55.478
39698DT     SC258031  95.210  75.366  55.427
39698DT     SC358032  94.988  75.515  55.244
39699DA     BB158033  95.403  75.685  56.061
39699DA     BB258034  95.628  75.487  55.850
39699DA     BB358035  95.734  75.614  55.715
39699DA     SC158036  95.522  75.592  55.489
39699DA     SC258037  95.504  75.489  55.263
39699DA     SC358038  95.311  75.654  55.225
39699DA     SC458039  95.406  75.703  55.485
39700DT     BB158040  95.957  75.662  55.721
39700DT     BB258041  96.053  75.467  55.433
39700DT     BB358042  96.105  75.593  55.277
39700DT     SC158043  95.854  75.654  55.231
39700DT     SC258044  95.793  75.567  55.043
39700DT     SC358045  95.633  75.796  55.208
39701DT     BB158046  96.397  75.570  55.286
39701DT     BB258047  96.320  75.485  54.944
39701DT     BB358048  96.336  75.653  54.824
39701DT     SC158049  96.110  75.749  54.916
39701DT     SC258050  95.961  75.742  54.761
39701DT     SC358051  95.940  75.910  55.038
39702DT     BB158052  96.589  75.595  54.692
39702DT     BB258053  96.361  75.641  54.416
39702DT     BB358054  96.368  75.838  54.351
39702DT     SC158055  96.231  75.920  54.559
39702DT     SC258056  96.035  75.982  54.495
39702DT     SC358057  96.171  76.046  54.783
39703DA     BB158058  96.449  75.627  53.996
39703DA     BB258059  96.178  75.862  53.921
39703DA     BB358060  96.255  76.059  53.895
39703DA     SC158061  96.225  76.138  54.194
39703DA     SC258062  96.084  76.291  54.332
39703DA     SC358063  96.270  76.270  54.508
39703DA     SC458064  96.352  76.113  54.290
39704DA     BB158065  96.104  76.052  53.601
39704DA     BB258066  95.894  76.328  53.721
39704DA     BB358067  95.998  76.513  53.705
39704DA     SC158068  96.120  76.498  53.990
39704DA     SC258069  96.095  76.615  54.209
39704DA     SC358070  96.326  76.520  54.264
39704DA     SC458071  96.266  76.431  54.005
39705DA     BB158072  95.733  76.602  53.534
39705DA     BB258073  95.669  76.849  53.797
39705DA     BB358074  95.795  77.020  53.771
39705DA     SC158075  96.024  76.908  53.948
39705DA     SC258076  96.126  76.957  54.170
39705DA     SC358077  96.329  76.827  54.083
39705DA     SC458078  96.141  76.824  53.875
39706DG     BB158079  95.522  77.160  53.747
39706DG     BB258080  95.630  77.313  54.057
39706DG     BB358081  95.750  77.466  54.019
39706DG     SC158082  96.006  77.298  54.021
39706DG     SC258083  96.226  77.316  54.222
39706DG     SC358084  96.303  77.141  53.997
39706DG     SC458085  96.055  77.229  53.885
39707DT     BB158086  95.684  77.648  54.088
39707DT     BB258087  95.897  77.695  54.376
39707DT     BB358088  96.051  77.826  54.329
39707DT     SC158089  96.175  77.642  54.189
39707DT     SC258090  96.355  77.583  54.292
39707DT     SC358091  96.282  77.517  53.983
39708DC     BB158092  95.916  77.967  54.499
39708DC     BB258093  96.248  77.932  54.638
39708DC     BB358094  96.377  78.065  54.546
39708DC     SC158095  96.386  77.919  54.328
39708DC     SC258096  96.581  77.831  54.309
39708DC     SC358097  96.356  77.848  54.076
39709DA     BB158098  96.394  78.031  54.968
39709DA     BB258099  96.734  78.022  54.831
39709DA     BB358100  96.782  78.210  54.740
39709DA     SC158101  96.679  78.128  54.459
39709DA     SC258102  96.776  78.078  54.234
39709DA     SC358103  96.540  78.125  54.145
39709DA     SC458104  96.527  78.163  54.422
39710DA     BB158105  97.020  78.094  54.941
39710DA     BB258106  97.238  78.136  54.650
39710DA     BB358107  97.245  78.341  54.591
39710DA     SC158108  97.006  78.319  54.394
39710DA     SC258109  96.968  78.325  54.148
39710DA     SC358110  96.724  78.378  54.207
39710DA     SC458111  96.859  78.352  54.451
39711DA     BB158112  97.561  78.246  54.611
39711DA     BB258113  97.592  78.366  54.266
39711DA     BB358114  97.569  78.578  54.259
39711DA     SC158115  97.262  78.568  54.215
39711DA     SC258116  97.100  78.617  54.032
39711DA     SC358117  96.924  78.631  54.219
39711DA     SC458118  97.168  78.574  54.345
39712DA     BB158119  97.862  78.570  54.100
39712DA     BB258120  97.698  78.742  53.821
39712DA     BB358121  97.665  78.947  53.870
39712DA     SC158122  97.383  78.899  53.990
39712DA     SC258123  97.146  78.951  53.931
39712DA     SC358124  97.097  78.912  54.180
39712DA     SC458125  97.373  78.872  54.148
39713DT     BB158126  97.771  79.121  53.776
39713DT     BB258127  97.493  79.244  53.582
39713DT     BB358128  97.423  79.421  53.663
39713DT     SC158129  97.308  79.294  53.862
39713DT     SC258130  97.094  79.306  53.840
39713DT     SC358131  97.253  79.215  54.107
39714DT     BB158132  97.533  79.597  53.468
39714DT     BB258133  97.182  79.680  53.466
39714DT     BB358134  97.145  79.834  53.600
39714DT     SC158135  97.170  79.672  53.805
39714DT     SC258136  96.978  79.644  53.898
39714DT     SC358137  97.264  79.566  54.027
39715DA     BB158138  96.982  79.978  53.241
39715DA     BB258139  96.726  80.020  53.500
39715DA     BB358140  96.774  80.188  53.624
39715DA     SC158141  96.937  80.021  53.829
39715DA     SC258142  96.915  79.945  54.066
39715DA     SC358143  97.169  79.912  54.058
39715DA     SC458144  97.096  80.008  53.805
39716DA     BB158145  96.470  80.286  53.543
39716DA     BB258146  96.387  80.266  53.900
39716DA     BB358147  96.464  80.436  54.003
39716DA     SC158148  96.736  80.300  54.071
39716DA     SC258149  96.854  80.214  54.274
39716DA     SC358150  97.067  80.235  54.133
39716DA     SC458151  96.858  80.322  53.969
39717DT     BB158152  96.334  80.572  54.086
39717DT     BB258153  96.382  80.475  54.430
39717DT     BB358154  96.496  80.617  54.528
39717DT     SC158155  96.715  80.534  54.410
39717DT     SC258156  96.842  80.438  54.554
39717DT     SC358157  96.930  80.535  54.258
39718DA     BB158158  96.151  80.565  54.762
39718DA     BB258159  96.441  80.544  54.986
39718DA     BB358160  96.524  80.738  55.018
39718DA     SC158161  96.722  80.719  54.779
39718DA     SC258162  96.968  80.700  54.745
39718DA     SC358163  96.922  80.788  54.508
39718DA     SC458164  96.673  80.777  54.637
39719DA     BB158165  96.484  80.667  55.340
39719DA     BB258166  96.847  80.699  55.376
39719DA     BB358167  96.904  80.905  55.380
39719DA     SC158168  96.944  80.926  55.072
39719DA     SC258169  97.134  80.953  54.913
39719DA     SC358170  96.956  81.032  54.746
39719DA     SC458171  96.819  80.974  54.984
39720DC     BB158172  96.987  81.009  55.559
39720DC     BB258173  97.327  81.022  55.442
39720DC     BB358174  97.379  81.217  55.395
39720DC     SC158175  97.237  81.210  55.174
39720DC     SC258176  97.369  81.213  55.005
39720DC     SC358177  97.050  81.267  54.997
39721DT     BB158178  97.543  81.261  55.622
39721DT     BB258179  97.762  81.326  55.342
39721DT     BB358180  97.756  81.528  55.294
39721DT     SC158181  97.520  81.503  55.184
39721DT     SC258182  97.537  81.528  54.971
39721DT     SC358183  97.261  81.534  55.141
39722DG     BB158184  98.147  81.450  55.381
39722DG     BB258185  98.113  81.601  55.054
39722DG     BB358186  98.093  81.798  55.072
39722DG     SC158187  97.787  81.789  55.092
39722DG     SC258188  97.596  81.898  54.891
39722DG     SC358189  97.454  81.815  55.137
39722DG     SC458190  97.719  81.771  55.236
39723DT     BB158191  98.243  81.938  54.986
39723DT     BB258192  98.066  82.058  54.696
39723DT     BB358193  97.999  82.251  54.729
39723DT     SC158194  97.808  82.166  54.888
39723DT     SC258195  97.617  82.195  54.792
39723DT     SC358196  97.665  82.130  55.106
39724DT     BB158197  98.183  82.334  54.552
39724DT     BB258198  97.868  82.449  54.418
39724DT     BB358199  97.819  82.631  54.502
39724DT     SC158200  97.752  82.518  54.729
39724DT     SC258201  97.539  82.531  54.756
39724DT     SC358202  97.755  82.456  54.985
39725DT     BB158203  97.869  82.733  54.262
39725DT     BB258204  97.528  82.825  54.333
39725DT     BB358205  97.523  82.997  54.448
39725DT     SC158206  97.598  82.865  54.662
39725DT     SC258207  97.434  82.856  54.801
39725DT     SC358208  97.744  82.788  54.868
39726DT     BB158209  97.429  83.119  54.231
39726DT     BB258210  97.181  83.178  54.486
39726DT     BB358211  97.234  83.341  54.601
39726DT     SC158212  97.419  83.203  54.725
39726DT     SC258213  97.360  83.172  54.930
39726DT     SC358214  97.657  83.126  54.809
39727DA     BB158215  96.837  83.382  54.471
39727DA     BB258216  96.848  83.451  54.831
39727DA     BB358217  96.945  83.638  54.868
39727DA     SC158218  97.229  83.514  54.895
39727DA     SC258219  97.396  83.476  55.075
39727DA     SC358220  97.567  83.455  54.884
39727DA     SC458221  97.319  83.507  54.762
39728DT     BB158222  96.831  83.774  54.942
39728DT     BB258223  96.968  83.772  55.276
39728DT     BB358224  97.096  83.933  55.300
39728DT     SC158225  97.282  83.818  55.156
39728DT     SC258226  97.447  83.762  55.283
39728DT     SC358227  97.452  83.774  54.959
39729DT     BB158228  96.911  84.045  55.460
39729DT     BB258229  97.210  84.033  55.662
39729DT     BB358230  97.328  84.199  55.624
39729DT     SC158231  97.405  84.102  55.393
39729DT     SC258232  97.613  84.049  55.403
39729DT     SC358233  97.438  84.079  55.132
39730DT     BB158234  97.261  84.296  55.867
39730DT     BB258235  97.621  84.290  55.868
39730DT     BB358236  97.695  84.463  55.783
39730DT     SC158237  97.633  84.381  55.542
39730DT     SC258238  97.813  84.338  55.432
39730DT     SC358239  97.517  84.370  55.305
39731DC     BB158240  97.775  84.573  56.027
39731DC     BB258241  98.076  84.583  55.828
39731DC     BB358242  98.087  84.762  55.726
39731DC     SC158243  97.903  84.685  55.555
39731DC     SC258244  97.992  84.654  55.362
39731DC     SC358245  97.675  84.678  55.423
39732DC     BB158246  98.287  84.876  55.890
39732DC     BB258247  98.427  84.902  55.558
39732DC     BB358248  98.375  85.084  55.474
39732DC     SC158249  98.129  85.003  55.431
39732DC     SC258250  98.097  84.980  55.220
39732DC     SC358251  97.866  84.990  55.447
39733DG     BB158252  98.785  85.114  55.474
39733DG     BB258253  98.655  85.189  55.145
39733DG     BB358254  98.596  85.378  55.137
39733DG     SC158255  98.310  85.320  55.229
39733DG     SC258256  98.063  85.350  55.064
39733DG     SC358257  97.995  85.294  55.347
39733DG     SC458258  98.278  85.319  55.386
39734DG     BB158259  98.806  85.481  54.888
39734DG     BB258260  98.512  85.546  54.688
39734DG     BB358261  98.451  85.734  54.717
39734DG     SC158262  98.267  85.663  54.952
39734DG     SC258263  97.969  85.682  54.953
39734DG     SC358264  98.072  85.626  55.224
39734DG     SC458265  98.327  85.663  55.100
39735DT     BB158266  98.443  85.931  54.553
39735DT     BB258267  98.089  85.938  54.484
39735DT     BB358268  98.005  86.109  54.564
39735DT     SC158269  98.018  86.011  54.807
39735DT     SC258270  97.820  85.968  54.878
39735DT     SC358271  98.088  85.983  55.060
39736DA     BB158272  97.888  86.138  54.162
39736DA     BB258273  97.585  86.180  54.364
39736DA     BB358274  97.575  86.379  54.442
39736DA     SC158275  97.726  86.310  54.704
39736DA     SC258276  97.674  86.290  54.948
39736DA     SC358277  97.927  86.318  54.983
39736DA     SC458278  97.886  86.330  54.706
39737DT     BB158279  97.421  86.522  54.379
39737DT     BB258280  97.222  86.491  54.679
39737DT     BB358281  97.232  86.666  54.789
39737DT     SC158282  97.476  86.609  54.870
39737DT     SC258283  97.472  86.564  55.080
39737DT     SC358284  97.736  86.628  54.904
39738DC     BB158285  96.976  86.711  54.721
39738DC     BB258286  96.976  86.695  55.081
39738DC     BB358287  97.019  86.882  55.160
39738DC     SC158288  97.273  86.859  55.097
39738DC     SC258289  97.389  86.837  55.276
39738DC     SC358290  97.505  86.906  54.982
39739DA     BB158291  96.689  86.691  55.331
39739DA     BB258292  96.909  86.809  55.599
39739DA     BB358293  96.906  87.022  55.610
39739DA     SC158294  97.144  87.061  55.414
39739DA     SC258295  97.381  87.138  55.424
39739DA     SC358296  97.358  87.176  55.172
39739DA     SC458297  97.109  87.080  55.258
39740DA     BB158298  96.865  86.880  55.902
39740DA     BB258299  97.158  87.077  56.002
39740DA     BB358300  97.113  87.285  55.996
39740DA     SC158301  97.205  87.321  55.701
39740DA     SC258302  97.392  87.432  55.578
39740DA     SC358303  97.237  87.419  55.373
39740DA     SC458304  97.094  87.305  55.586
39741DG     BB158305  97.216  87.207  56.276
39741DG     BB258306  97.469  87.450  56.188
39741DG     BB358307  97.390  87.632  56.186
39741DG     SC158308  97.310  87.620  55.891
39741DG     SC258309  97.426  87.786  55.671
39741DG     SC358310  97.190  87.634  55.576
39741DG     SC458311  97.167  87.561  55.852
39742DA     BB158312  97.667  87.702  56.384
39742DA     BB258313  97.762  87.968  56.151
39742DA     BB358314  97.624  88.131  56.164
39742DA     SC158315  97.436  88.020  55.942
39742DA     SC258316  97.372  88.079  55.708
39742DA     SC358317  97.165  87.934  55.750
39742DA     SC458318  97.314  87.927  55.988
39743DC     BB158319  97.686  88.308  56.238
39743DC     BB258320  97.684  88.496  55.930
39743DC     BB358321  97.517  88.619  55.924
39743DC     SC158322  97.359  88.415  55.874
39743DC     SC258323  97.286  88.429  55.672
39743DC     SC358324  97.168  88.236  55.904
39744DG     BB158325  97.824  88.891  55.899
39744DG     BB258326  97.582  88.946  55.636
39744DG     BB358327  97.427  89.049  55.707
39744DG     SC158328  97.269  88.799  55.789
39744DG     SC258329  97.013  88.706  55.667
39744DG     SC358330  97.078  88.549  55.909
39744DG     SC458331  97.292  88.738  55.935
39745DA     BB158332  97.455  89.299  55.458
39745DA     BB258333  97.118  89.221  55.334
39745DA     BB358334  96.971  89.315  55.456
39745DA     SC158335  96.943  89.073  55.650
39745DA     SC258336  96.773  88.898  55.704
39745DA     SC358337  96.900  88.871  55.925
39745DA     SC458338  97.035  89.072  55.781
39746DT     BB158339  96.839  89.479  55.388
39746DT     BB258340  96.541  89.278  55.354
39746DT     BB358341  96.405  89.328  55.501
39746DT     SC158342  96.545  89.201  55.684
39746DT     SC258343  96.437  89.025  55.747
39746DT     SC358344  96.691  89.158  55.899
39747DA     BB158345  96.197  89.356  55.139
39747DA     BB258346  95.997  89.150  55.366
39747DA     BB358347  95.903  89.272  55.514
39747DA     SC158348  96.137  89.248  55.717
39747DA     SC258349  96.179  89.139  55.938
39747DA     SC358350  96.372  89.307  55.960
39747DA     SC458351  96.251  89.361  55.713
39748DG     BB158352  95.645  89.155  55.389
39748DG     BB258353  95.612  89.003  55.716
39748DG     BB358354  95.533  89.134  55.843
39748DG     SC158355  95.803  89.248  55.932
39748DG     SC258356  95.924  89.221  56.203
39748DG     SC358357  96.080  89.410  56.036
39748DG     SC458358  95.866  89.370  55.850
39749DC     BB158359  95.344  89.088  55.935
39749DC     BB258360  95.445  89.002  56.270
39749DC     BB358361  95.407  89.160  56.398
39749DC     SC158362  95.612  89.294  56.305
39749DC     SC258363  95.766  89.305  56.455
39749DC     SC358364  95.751  89.485  56.186
39750DA     BB158365  95.241  88.811  56.562
39750DA     BB258366  95.437  88.978  56.823
39750DA     BB358367  95.338  89.155  56.889
39750DA     SC158368  95.479  89.339  56.682
39750DA     SC258369  95.649  89.522  56.683
39750DA     SC358370  95.553  89.585  56.453
39750DA     SC458371  95.405  89.364  56.541
39751DA     BB158372  95.386  89.002  57.175
39751DA     BB258373  95.584  89.295  57.273
39751DA     BB358374  95.456  89.461  57.311
39751DA     SC158375  95.465  89.567  57.019
39751DA     SC258376  95.561  89.763  56.897
39751DA     SC358377  95.389  89.707  56.715
39751DA     SC458378  95.350  89.517  56.918
39752DT     BB158379  95.451  89.524  57.496
39752DT     BB258380  95.640  89.827  57.445
39752DT     BB358381  95.512  89.990  57.437
39752DT     SC158382  95.431  89.926  57.196
39752DT     SC258383  95.505  90.071  57.055
39752DT     SC358384  95.272  89.852  56.999
39753DT     BB158385  95.601  90.068  57.680
39753DT     BB258386  95.660  90.352  57.466
39753DT     BB358387  95.489  90.468  57.454
39753DT     SC158388  95.372  90.294  57.296
39753DT     SC258389  95.354  90.379  57.099
39753DT     SC358390  95.199  90.116  57.208
39754DG     BB158391  95.776  90.719  57.601
39754DG     BB258392  95.612  90.864  57.313
39754DG     BB358393  95.435  90.939  57.367
39754DG     SC158394  95.281  90.679  57.316
39754DG     SC258395  95.076  90.636  57.104
39754DG     SC358396  95.084  90.407  57.290
39754DG     SC458397  95.268  90.572  57.434
39755DC     BB158398  95.380  91.164  57.355
39755DC     BB258399  95.164  91.165  57.066
39755DC     BB358400  94.967  91.187  57.125
39755DC     SC158401  94.957  90.938  57.209
39755DC     SC258402  94.829  90.824  57.079
39755DC     SC358403  94.933  90.732  57.371
39756DT     BB158404  94.950  91.450  57.037
39756DT     BB258405  94.687  91.279  56.858
39756DT     BB358406  94.512  91.283  56.968
39756DT     SC158407  94.603  91.101  57.134
39756DT     SC258408  94.494  90.918  57.106
39756DT     SC358409  94.685  90.988  57.358
39757DG     BB158410  94.426  91.462  56.612
39757DG     BB258411  94.200  91.188  56.681
39757DG     BB358412  94.061  91.247  56.811
39757DG     SC158413  94.222  91.166  57.058
39757DG     SC258414  94.153  90.948  57.249
39757DG     SC358415  94.380  91.108  57.351
39757DG     SC458416  94.324  91.272  57.123
39758DG     BB158417  93.845  91.163  56.583
39758DG     BB258418  93.735  90.912  56.820
39758DG     BB358419  93.611  90.993  56.952
39758DG     SC158420  93.831  91.072  57.149
39758DG     SC258421  93.872  90.957  57.421
39758DG     SC358422  94.049  91.189  57.378
39758DG     SC458423  93.903  91.214  57.133
39759DA     BB158424  93.431  90.719  56.854
39759DA     BB258425  93.432  90.604  57.202
39759DA     BB358426  93.304  90.727  57.321
39759DA     SC158427  93.529  90.927  57.399
39759DA     SC258428  93.658  90.989  57.604
39759DA     SC358429  93.709  91.208  57.480
39759DA     SC458430  93.549  91.057  57.307
39760DA     BB158431  93.229  90.413  57.373
39760DA     BB258432  93.312  90.483  57.723
39760DA     BB358433  93.170  90.617  57.808
39760DA     SC158434  93.330  90.873  57.732
39760DA     SC258435  93.460  91.051  57.848
39760DA     SC358436  93.424  91.189  57.635
39760DA     SC458437  93.296  90.943  57.591
39761DA     BB158438  93.186  90.366  58.015
39761DA     BB258439  93.285  90.613  58.267
39761DA     BB358440  93.120  90.739  58.316
39761DA     SC158441  93.187  90.952  58.099
39761DA     SC258442  93.270  91.187  58.090
39761DA     SC358443  93.169  91.192  57.854
39761DA     SC458444  93.117  90.935  57.955
39762DG     BB158445  93.195  90.616  58.588
39762DG     BB258446  93.259  90.963  58.670
39762DG     BB358447  93.087  91.058  58.699
39762DG     SC158448  93.055  91.141  58.406
39762DG     SC258449  93.067  91.420  58.301
39762DG     SC358450  92.978  91.232  58.091
39762DG     SC458451  92.980  91.043  58.306
39763DA     BB158452  93.242  91.161  58.992
39763DA     BB258453  93.189  91.510  58.895
39763DA     BB358454  92.983  91.561  58.912
39763DA     SC158455  92.914  91.482  58.619
39763DA     SC258456  92.851  91.597  58.407
39763DA     SC358457  92.761  91.368  58.334
39763DA     SC458458  92.863  91.332  58.592
39764DT     BB158459  92.934  91.693  59.049
39764DT     BB258460  92.855  91.968  58.829
39764DT     BB358461  92.650  91.987  58.810
39764DT     SC158462  92.638  91.776  58.653
39764DT     SC258463  92.589  91.839  58.453
39764DT     SC358464  92.578  91.535  58.565
39765DT     BB158465  92.636  92.212  58.970
39765DT     BB258466  92.471  92.315  58.666
39765DT     BB358467  92.270  92.269  58.676
39765DT     SC158468  92.318  92.014  58.638
39765DT     SC258469  92.246  91.956  58.444
39765DT     SC358470  92.331  91.754  58.683
39766DG     BB158471  92.242  92.680  58.637
39766DG     BB258472  92.029  92.516  58.395
39766DG     BB358473  91.856  92.466  58.480
39766DG     SC158474  91.953  92.190  58.571
39766DG     SC258475  91.853  91.927  58.468
39766DG     SC358476  92.031  91.889  58.702
39766DG     SC458477  92.024  92.175  58.713
39767DG     BB158478  91.618  92.653  58.296
39767DG     BB258479  91.481  92.338  58.182
39767DG     BB358480  91.332  92.282  58.302
39767DG     SC158481  91.514  92.125  58.493
39767DG     SC258482  91.513  91.829  58.532
39767DG     SC358483  91.685  91.962  58.733
39767DG     SC458484  91.581  92.202  58.617
39768DC     BB158485  91.043  92.248  58.278
39768DC     BB258486  91.041  91.889  58.247
39768DC     BB358487  90.942  91.804  58.408
39768DC     SC158488  91.146  91.851  58.567
39768DC     SC258489  91.239  91.665  58.620
39768DC     SC358490  91.288  91.950  58.766
39769DC     BB158491  90.669  91.719  58.297
39769DC     BB258492  90.817  91.411  58.412
39769DC     BB358493  90.743  91.362  58.599
39769DC     SC158494  90.889  91.548  58.713
39769DC     SC258495  91.043  91.455  58.831
39769DC     SC358496  90.953  91.765  58.848
39770DA     BB158497  90.689  91.038  58.347
39770DA     BB258498  90.895  90.932  58.632
39770DA     BB358499  90.773  90.903  58.804
39770DA     SC158500  90.804  91.195  58.906
39770DA     SC258501  90.915  91.314  59.094
39770DA     SC358502  90.752  91.505  59.044
39770DA     SC458503  90.693  91.302  58.859
39771DT     BB158504  90.798  90.737  58.838
39771DT     BB258505  91.031  90.794  59.108
39771DT     BB358506  90.933  90.783  59.290
39771DT     SC158507  90.822  91.018  59.252
39771DT     SC258508  90.907  91.160  59.390
39771DT     SC358509  90.637  91.203  59.217
39772DT     BB158510  91.109  90.600  59.270
39772DT     BB258511  91.202  90.805  59.551
39772DT     BB358512  91.072  90.772  59.709
39772DT     SC158513  90.883  90.911  59.591
39772DT     SC258514  90.851  91.095  59.699
39772DT     SC358515  90.653  90.969  59.475
39773DA     BB158516  91.488  90.788  59.793
39773DA     BB258517  91.306  90.990  60.038
39773DA     BB358518  91.181  90.867  60.158
39773DA     SC158519  90.934  90.893  59.971
39773DA     SC258520  90.709  91.001  59.976
39773DA     SC358521  90.648  90.835  59.789
39773DA     SC458522  90.915  90.781  59.856
39774DC     BB158523  91.240  90.877  60.324
39774DC     BB258524  90.965  91.067  60.461
39774DC     BB358525  90.827  90.939  60.546
39774DC     SC158526  90.739  90.864  60.311
39774DC     SC258527  90.540  90.941  60.281
39774DC     SC358528  90.683  90.711  60.104
39775DC     BB158529  90.909  91.028  60.785
39775DC     BB258530  90.552  91.084  60.784
39775DC     BB358531  90.453  90.912  60.843
39775DC     SC158532  90.499  90.798  60.611
39775DC     SC258533  90.314  90.779  60.503
39775DC     SC358534  90.591  90.627  60.432
39776DA     BB158535  90.308  91.223  61.082
39776DA     BB258536  90.019  91.037  60.955
39776DA     BB358537  90.002  90.849  61.054
39776DA     SC158538  90.177  90.696  60.848
39776DA     SC258539  90.146  90.523  60.671
39776DA     SC358540  90.398  90.482  60.694
39776DA     SC458541  90.335  90.685  60.878
39777DA     BB158542  89.700  90.966  61.102
39777DA     BB258543  89.578  90.671  60.920
39777DA     BB358544  89.594  90.497  61.043
39777DA     SC158545  89.880  90.424  60.945
39777DA     SC258546  89.988  90.247  60.806
39777DA     SC358547  90.205  90.316  60.924
39777DA     SC458548  90.004  90.480  61.030
39778DT     BB158549  89.426  90.418  61.091
39778DT     BB258550  89.448  90.127  60.878
39778DT     BB358551  89.503  89.962  60.991
39778DT     SC158552  89.751  90.045  61.007
39778DT     SC258553  89.878  89.916  60.891
39778DT     SC358554  89.977  90.132  61.112
39779DG     BB158555  89.152  89.879  60.801
39779DG     BB258556  89.395  89.616  60.750
39779DG     BB358557  89.409  89.504  60.914
39779DG     SC158558  89.630  89.673  61.041
39779DG     SC258559  89.911  89.586  61.090
39779DG     SC358560  89.858  89.847  61.218
39779DG     SC458561  89.589  89.798  61.133
39780DT     BB158562  89.354  89.294  60.908
39780DT     BB258563  89.673  89.126  60.936
39780DT     BB358564  89.701  89.061  61.130
39780DT     SC158565  89.752  89.305  61.213
39780DT     SC258566  89.959  89.321  61.266
39780DT     SC358567  89.727  89.533  61.344
39781DA     BB158568  89.758  88.708  60.908
39781DA     BB258569  90.033  88.728  61.150
39781DA     BB358570  89.963  88.677  61.345
39781DA     SC158571  89.890  88.970  61.422
39781DA     SC258572  89.974  89.146  61.577
39781DA     SC358573  89.742  89.251  61.550
39781DA     SC458574  89.740  89.019  61.393
39782DA     BB158575  90.200  88.440  61.362
39782DA     BB258576  90.341  88.617  61.650
39782DA     BB358577  90.230  88.571  61.826
39782DA     SC158578  90.032  88.809  61.793
39782DA     SC258579  89.983  89.025  61.906
39782DA     SC358580  89.754  89.010  61.790
39782DA     SC458581  89.895  88.780  61.713
39783DA     BB158582  90.518  88.475  61.964
39783DA     BB258583  90.474  88.742  62.211
39783DA     BB358584  90.337  88.680  62.363
39783DA     SC158585  90.087  88.791  62.216
39783DA     SC258586  89.923  88.977  62.245
39783DA     SC358587  89.771  88.840  62.090
39783DA     SC458588  90.007  88.691  62.119
39784DG     BB158589  90.572  88.716  62.569
39784DG     BB258590  90.360  88.980  62.699
39784DG     BB358591  90.228  88.903  62.826
39784DG     SC158592  90.016  88.849  62.612
39784DG     SC258593  89.752  88.985  62.589
39784DG     SC358594  89.770  88.757  62.401
39784DG     SC458595  90.018  88.709  62.535
39785DA     BB158596  90.334  89.143  63.055
39785DA     BB258597  89.995  89.281  63.071
39785DA     BB358598  89.870  89.156  63.192
39785DA     SC158599  89.774  88.980  62.953
39785DA     SC258600  89.564  88.943  62.825
39785DA     SC358601  89.672  88.721  62.754
39785DA     SC458602  89.858  88.847  62.922
39786DA     BB158603  89.813  89.439  63.352
39786DA     BB258604  89.460  89.399  63.261
39786DA     BB358605  89.368  89.251  63.384
39786DA     SC158606  89.432  89.016  63.191
39786DA     SC258607  89.307  88.863  63.038
39786DA     SC358608  89.513  88.711  63.055
39786DA     SC458609  89.569  88.935  63.215
39787DA     BB158610  89.145  89.486  63.460
39787DA     BB258611  88.888  89.270  63.312
39787DA     BB358612  88.836  89.114  63.448
39787DA     SC158613  89.049  88.914  63.341
39787DA     SC258614  89.054  88.701  63.212
39787DA     SC358615  89.289  88.671  63.310
39787DA     SC458616  89.193  88.913  63.413
39788DA     BB158617  88.514  89.211  63.430
39788DA     BB258618  88.437  88.883  63.285
39788DA     BB358619  88.417  88.737  63.438
39788DA     SC158620  88.717  88.655  63.433
39788DA     SC258621  88.854  88.458  63.364
39788DA     SC358622  89.035  88.556  63.517
39788DA     SC458623  88.817  88.731  63.534
39789DA     BB158624  88.106  88.662  63.332
39789DA     BB258625  88.232  88.328  63.245
39789DA     BB358626  88.229  88.201  63.417
39789DA     SC158627  88.518  88.274  63.506
39789DA     SC258628  88.741  88.162  63.517
39789DA     SC358629  88.801  88.345  63.687
39789DA     SC458630  88.536  88.395  63.610
39790DA     BB158631  88.047  88.003  63.229
39790DA     BB258632  88.327  87.767  63.242
39790DA     BB358633  88.322  87.656  63.425
39790DA     SC158634  88.500  87.858  63.581
39790DA     SC258635  88.730  87.865  63.677
39790DA     SC358636  88.642  88.057  63.822
39790DA     SC458637  88.426  87.974  63.663
39791DC     BB158638  88.295  87.467  63.399
39791DC     BB258639  88.639  87.374  63.452
39791DC     BB358640  88.662  87.291  63.640
39791DC     SC158641  88.642  87.526  63.756
39791DC     SC258642  88.833  87.580  63.838
39791DC     SC358643  88.549  87.721  63.906
39792DC     BB158644  88.708  87.084  63.491
39792DC     BB258645  89.008  87.136  63.684
39792DC     BB358646  88.983  87.061  63.875
39792DC     SC158647  88.830  87.263  63.943
39792DC     SC258648  88.933  87.387  64.085
39792DC     SC358649  88.616  87.397  64.019
39793DA     BB158650  89.345  86.951  63.687
39793DA     BB258651  89.418  87.071  64.026
39793DA     BB358652  89.340  86.936  64.171
39793DA     SC158653  89.064  87.079  64.192
39793DA     SC258654  88.940  87.216  64.360
39793DA     SC358655  88.730  87.152  64.226
39793DA     SC458656  88.946  87.027  64.097
39794DA     BB158657  89.653  86.980  64.256
39794DA     BB258658  89.522  87.100  64.577
39794DA     BB358659  89.437  86.938  64.687
39794DA     SC158660  89.151  86.977  64.570
39794DA     SC258661  88.928  87.054  64.650
39794DA     SC358662  88.835  86.929  64.446
39794DA     SC458663  89.113  86.892  64.439
39795DA     BB158664  89.644  87.064  64.908
39795DA     BB258665  89.350  87.119  65.120
39795DA     BB358666  89.279  86.933  65.197
39795DA     SC158667  89.083  86.882  64.961
39795DA     SC258668  88.837  86.878  64.922
39795DA     SC358669  88.892  86.740  64.713
39795DA     SC458670  89.138  86.796  64.836
39796DA     BB158671  89.311  87.098  65.479
39796DA     BB258672  88.950  87.049  65.525
39796DA     BB358673  88.909  86.847  65.581
39796DA     SC158674  88.873  86.748  65.288
39796DA     SC258675  88.687  86.669  65.142
39796DA     SC358676  88.873  86.564  64.999
39796DA     SC458677  89.002  86.689  65.213
39797DA     BB158678  88.755  87.005  65.823
39797DA     BB258679  88.447  86.847  65.703
39797DA     BB358680  88.444  86.640  65.757
39797DA     SC158681  88.582  86.544  65.495
39797DA     SC258682  88.519  86.416  65.291
39797DA     SC358683  88.772  86.377  65.263
39797DA     SC458684  88.742  86.529  65.497
39798DA     BB158685  88.158  86.752  65.868
39798DA     BB258686  88.003  86.508  65.642
39798DA     BB358687  88.031  86.310  65.716
39798DA     SC158688  88.298  86.264  65.563
39798DA     SC258689  88.380  86.125  65.373
39798DA     SC358690  88.613  86.166  65.470
39798DA     SC458691  88.434  86.299  65.640
39799DT     BB158692  87.871  86.239  65.756
39799DT     BB258693  87.854  86.007  65.480
39799DT     BB358694  87.916  85.819  65.542
39799DT     SC158695  88.168  85.895  65.543
39799DT     SC258696  88.273  85.797  65.383
39799DT     SC358697  88.409  85.953  65.632
39800DA     BB158698  87.551  85.801  65.331
39800DA     BB258699  87.775  85.540  65.202
39800DA     BB358700  87.805  85.389  65.349
39800DA     SC158701  88.055  85.525  65.474
39800DA     SC258702  88.301  85.483  65.486
39800DA     SC358703  88.297  85.641  65.688
39800DA     SC458704  88.032  85.624  65.598
39801DT     BB158705  87.732  85.215  65.306
39801DT     BB258706  88.045  85.045  65.248
39801DT     BB358707  88.096  84.933  65.414
39801DT     SC158708  88.166  85.147  65.548
39801DT     SC258709  88.380  85.148  65.575
39801DT     SC358710  88.167  85.335  65.733
39802DA     BB158711  88.112  84.661  65.093
39802DA     BB258712  88.420  84.621  65.288
39802DA     BB358713  88.380  84.520  65.471
39802DA     SC158714  88.325  84.781  65.632
39802DA     SC258715  88.435  84.911  65.813
39802DA     SC358716  88.204  85.016  65.851
39802DA     SC458717  88.174  84.832  65.640
39803DT     BB158718  88.453  84.320  65.515
39803DT     BB258719  88.709  84.422  65.748
39803DT     BB358720  88.654  84.371  65.940
39803DT     SC158721  88.479  84.566  65.951
39803DT     SC258722  88.548  84.716  66.089
39803DT     SC358723  88.248  84.692  65.970
39804DG     BB158724  89.008  84.179  65.875
39804DG     BB258725  89.022  84.383  66.173
39804DG     BB358726  88.934  84.288  66.325
39804DG     SC158727  88.656  84.403  66.268
39804DG     SC258728  88.506  84.593  66.442
39804DG     SC358729  88.335  84.494  66.222
39804DG     SC458730  88.559  84.326  66.166
39805DG     BB158731  89.220  84.326  66.470
39805DG     BB258732  89.040  84.533  66.706
39805DG     BB358733  88.945  84.418  66.838
39805DG     SC158734  88.689  84.396  66.673
39805DG     SC258735  88.423  84.510  66.746
39805DG     SC358736  88.400  84.333  66.509
39805DG     SC458737  88.676  84.278  66.565
39806DT     BB158738  89.005  84.460  67.018
39806DT     BB258739  88.722  84.637  67.154
39806DT     BB358740  88.600  84.506  67.259
39806DT     SC158741  88.507  84.402  67.036
39806DT     SC258742  88.301  84.458  67.012
39806DT     SC358743  88.455  84.225  66.848
39807DT     BB158744  88.691  84.656  67.446
39807DT     BB258745  88.331  84.679  67.466
39807DT     BB358746  88.254  84.508  67.553
39807DT     SC158747  88.296  84.369  67.334
39807DT     SC258748  88.107  84.319  67.244
39807DT     SC358749  88.393  84.185  67.172
39808DA     BB158750  88.092  84.855  67.731
39808DA     BB258751  87.820  84.618  67.668
39808DA     BB358752  87.840  84.447  67.794
39808DA     SC158753  88.012  84.286  67.591
39808DA     SC258754  87.986  84.085  67.445
39808DA     SC358755  88.242  84.079  67.442
39808DA     SC458756  88.172  84.299  67.602
39809DT     BB158757  87.703  84.414  67.940
39809DT     BB258758  87.542  84.125  67.796
39809DT     BB358759  87.608  83.953  67.890
39809DT     SC158760  87.838  83.964  67.765
39809DT     SC258761  87.850  83.803  67.623
39809DT     SC358762  88.098  83.985  67.726
39810DT     BB158763  87.379  83.896  68.062
39810DT     BB258764  87.426  83.584  67.888
39810DT     BB358765  87.550  83.460  67.998
39810DT     SC158766  87.762  83.600  67.932
39810DT     SC258767  87.886  83.485  67.800
39810DT     SC358768  87.975  83.754  67.957
39811DA     BB158769  87.230  83.169  68.013
39811DA     BB258770  87.525  82.978  67.907
39811DA     BB358771  87.637  82.914  68.077
39811DA     SC158772  87.817  83.168  68.084
39811DA     SC258773  88.056  83.226  68.040
39811DA     SC358774  88.010  83.434  68.182
39811DA     SC458775  87.769  83.291  68.176
39812DT     BB158776  87.687  82.668  68.199
39812DT     BB258777  88.021  82.639  68.067
39812DT     BB358778  88.158  82.630  68.223
39812DT     SC158779  88.132  82.887  68.269
39812DT     SC258780  88.313  82.989  68.213
39812DT     SC358781  88.075  83.112  68.395
39813DC     BB158782  88.231  82.340  68.223
39813DC     BB258783  88.547  82.506  68.171
39813DC     BB358784  88.648  82.523  68.351
39813DC     SC158785  88.489  82.716  68.430
39813DC     SC258786  88.598  82.902  68.435
39813DC     SC358787  88.309  82.848  68.573
39814DG     BB158788  88.898  82.307  68.114
39814DG     BB258789  89.063  82.603  68.241
39814DG     BB358790  89.132  82.569  68.424
39814DG     SC158791  88.876  82.659  68.565
39814DG     SC258792  88.848  82.900  68.739
39814DG     SC358793  88.605  82.732  68.752
39814DG     SC458794  88.760  82.552  68.592
39815DC     BB158795  89.344  82.585  68.454
39815DC     BB258796  89.364  82.904  68.621
39815DC     BB358797  89.400  82.876  68.823
39815DC     SC158798  89.153  82.799  68.865
39815DC     SC258799  89.050  82.949  68.980
39815DC     SC358800  88.948  82.646  68.929
39816DA     BB158801  89.643  83.161  68.638
39816DA     BB258802  89.508  83.304  68.948
39816DA     BB358803  89.595  83.209  69.118
39816DA     SC158804  89.376  82.989  69.138
39816DA     SC258805  89.189  82.929  69.291
39816DA     SC358806  89.205  82.695  69.185
39816DA     SC458807  89.403  82.850  69.061
39817DA     BB158808  89.604  83.534  69.145
39817DA     BB258809  89.425  83.482  69.461
39817DA     BB358810  89.549  83.379  69.600
39817DA     SC158811  89.452  83.096  69.513
39817DA     SC258812  89.316  82.910  69.608
39817DA     SC358813  89.433  82.763  69.435
39817DA     SC458814  89.537  83.021  69.399
39818DG     BB158815  89.459  83.640  69.735
39818DG     BB258816  89.325  83.409  69.979
39818DG     BB358817  89.473  83.327  70.084
39818DG     SC158818  89.512  83.092  69.893
39818DG     SC258819  89.456  82.805  69.954
39818DG     SC358820  89.595  82.832  69.694
39818DG     SC458821  89.612  83.108  69.769
39819DA     BB158822  89.288  83.419  70.367
39819DA     BB258823  89.306  83.076  70.495
39819DA     BB358824  89.504  83.032  70.561
39819DA     SC158825  89.598  82.921  70.286
39819DA     SC258826  89.660  82.701  70.187
39819DA     SC358827  89.779  82.839  70.006
39819DA     SC458828  89.667  83.025  70.184
39820DA     BB158829  89.394  82.945  70.873
39820DA     BB258830  89.554  82.618  70.836
39820DA     BB358831  89.764  82.633  70.871
39820DA     SC158832  89.835  82.688  70.573
39820DA     SC258833  89.949  82.570  70.386
39820DA     SC358834  89.976  82.803  70.282
39820DA     SC458835  89.843  82.842  70.526
39821DA     BB158836  89.803  82.405  71.142
39821DA     BB258837  90.035  82.204  70.940
39821DA     BB358838  90.234  82.278  70.959
39821DA     SC158839  90.210  82.473  70.717
39821DA     SC258840  90.303  82.492  70.487
39821DA     SC358841  90.237  82.739  70.503
39821DA     SC458842  90.163  82.623  70.747
39822DT     BB158843  90.472  82.195  71.083
39822DT     BB258844  90.637  82.099  70.777
39822DT     BB358845  90.806  82.215  70.748
39822DT     SC158846  90.660  82.422  70.677
39822DT     SC258847  90.687  82.460  70.467
39822DT     SC358848  90.552  82.663  70.681
39823DG     BB158849  91.015  81.856  70.781
39823DG     BB258850  91.104  82.021  70.472
39823DG     BB358851  91.255  82.147  70.503
39823DG     SC158852  91.075  82.385  70.571
39823DG     SC258853  91.045  82.634  70.408
39823DG     SC358854  90.909  82.662  70.670
39823DG     SC458855  91.029  82.407  70.723
39824DA     BB158856  91.444  81.999  70.248
39824DA     BB258857  91.437  82.312  70.057
39824DA     BB358858  91.589  82.445  70.126
39824DA     SC158859  91.406  82.583  70.336
39824DA     SC258860  91.299  82.806  70.370
39824DA     SC358861  91.282  82.738  70.617
39824DA     SC458862  91.406  82.523  70.486
39825DG     BB158863  91.692  82.422  69.835
39825DG     BB258864  91.600  82.772  69.824
39825DG     BB358865  91.747  82.883  69.898
39825DG     SC158866  91.644  82.872  70.186
39825DG     SC258867  91.537  83.103  70.342
39825DG     SC358868  91.570  82.865  70.515
39825DG     SC458869  91.691  82.752  70.281
39826DA     BB158870  91.709  83.057  69.604
39826DA     BB258871  91.632  83.361  69.796
39826DA     BB358872  91.811  83.441  69.882
39826DA     SC158873  91.784  83.280  70.147
39826DA     SC258874  91.734  83.327  70.387
39826DA     SC358875  91.845  83.101  70.433
39826DA     SC458876  91.858  83.138  70.156
39827DT     BB158877  91.864  83.614  69.814
39827DT     BB258878  91.771  83.807  70.105
39827DT     BB358879  91.940  83.854  70.215
39827DT     SC158880  91.959  83.608  70.306
39827DT     SC258881  91.912  83.606  70.516
39827DT     SC358882  92.055  83.367  70.351
39828DC     BB158883  91.927  84.116  70.136
39828DC     BB258884  91.923  84.132  70.496
39828DC     BB358885  92.117  84.139  70.568
39828DC     SC158886  92.152  83.884  70.518
39828DC     SC258887  92.165  83.776  70.704
39828DC     SC358888  92.250  83.663  70.412
39829DC     BB158889  92.098  84.407  70.636
39829DC     BB258890  92.189  84.244  70.945
39829DC     BB358891  92.395  84.233  70.962
39829DC     SC158892  92.407  84.041  70.784
39829DC     SC258893  92.463  83.857  70.881
39829DC     SC358894  92.466  83.912  70.561
39830DC     BB158895  92.401  84.428  71.157
39830DC     BB258896  92.557  84.141  71.310
39830DC     BB358897  92.761  84.142  71.272
39830DC     SC158898  92.723  84.067  71.024
39830DC     SC258899  92.794  83.866  70.998
39830DC     SC358900  92.722  84.073  70.760
39831DG     BB158901  92.709  84.137  71.676
39831DG     BB258902  92.922  83.866  71.566
39831DG     BB358903  93.105  83.935  71.529
39831DG     SC158904  93.048  84.000  71.235
39831DG     SC258905  93.169  83.864  70.998
39831DG     SC358906  93.014  84.102  70.915
39831DG     SC458907  92.989  84.144  71.198
39832DT     BB158908  93.260  83.854  71.643
39832DT     BB258909  93.418  83.635  71.403
39832DT     BB358910  93.587  83.725  71.326
39832DT     SC158911  93.444  83.887  71.177
39832DT     SC258912  93.467  83.834  70.970
39832DT     SC358913  93.340  84.110  71.082
39833DA     BB158914  93.667  83.334  71.456
39833DA     BB258915  93.800  83.374  71.116
39833DA     BB358916  93.970  83.503  71.117
39833DA     SC158917  93.804  83.762  71.070
39833DA     SC258918  93.770  83.928  70.888
39833DA     SC358919  93.684  84.083  71.073
39833DA     SC458920  93.755  83.843  71.200
39834DT     BB158921  94.122  83.413  71.066
39834DT     BB258922  94.151  83.560  70.738
39834DT     BB358923  94.290  83.713  70.741
39834DT     SC158924  94.124  83.873  70.866
39834DT     SC258925  94.062  84.031  70.734
39834DT     SC358926  94.021  84.026  71.055
39835DT     BB158927  94.427  83.546  70.595
39835DT     BB258928  94.395  83.845  70.396
39835DT     BB358929  94.535  83.985  70.456
39835DT     SC158930  94.397  84.040  70.673
39835DT     SC258931  94.314  84.238  70.657
39835DT     SC358932  94.335  84.062  70.928
39836DT     BB158933  94.638  83.931  70.223
39836DT     BB258934  94.578  84.286  70.222
39836DT     BB358935  94.729  84.384  70.324
39836DT     SC158936  94.634  84.306  70.556
39836DT     SC258937  94.554  84.476  70.661
39836DT     SC358938  94.619  84.186  70.790
39837DT     BB158939  94.790  84.469  70.085
39837DT     BB258940  94.743  84.767  70.283
39837DT     BB358941  94.912  84.804  70.395
39837DT     SC158942  94.855  84.609  70.561
39837DT     SC258943  94.800  84.692  70.752
39837DT     SC358944  94.876  84.382  70.694
39838DT     BB158945  94.947  85.009  70.233
39838DT     BB258946  94.948  85.152  70.564
39838DT     BB358947  95.135  85.130  70.650
39838DT     SC158948  95.093  84.874  70.693
39838DT     SC258949  95.073  84.839  70.904
39838DT     SC358950  95.122  84.612  70.678
39839DC     BB158951  95.179  85.394  70.619
39839DC     BB258952  95.237  85.335  70.970
39839DC     BB358953  95.431  85.272  71.000
39839DC     SC158954  95.377  85.033  70.906
39839DC     SC258955  95.384  84.890  71.066
39839DC     SC358956  95.383  84.822  70.749
39840DA     BB158957  95.395  85.600  71.263
39840DA     BB258958  95.548  85.326  71.451
39840DA     BB358959  95.752  85.301  71.393
39840DA     SC158960  95.687  85.095  71.169
39840DA     SC258961  95.721  84.851  71.127
39840DA     SC358962  95.685  84.910  70.880
39840DA     SC458963  95.664  85.151  71.020
39841DT     BB158964  95.957  85.348  71.518
39841DT     BB258965  96.043  85.004  71.585
39841DT     BB358966  96.217  84.953  71.484
39841DT     SC158967  96.088  84.941  71.255
39841DT     SC258968  96.078  84.737  71.190
39841DT     SC358969  96.016  84.998  71.008
39842DG     BB158970  96.361  84.895  71.868
39842DG     BB258971  96.418  84.599  71.668
39842DG     BB358972  96.589  84.617  71.568
39842DG     SC158973  96.461  84.749  71.323
39842DG     SC258974  96.441  84.630  71.050
39842DG     SC358975  96.358  84.913  71.048
39842DG     SC458976  96.446  84.908  71.320
39843DG     BB158977  96.738  84.348  71.706
39843DG     BB258978  96.731  84.200  71.376
39843DG     BB358979  96.898  84.245  71.278
39843DG     SC158980  96.788  84.504  71.157
39843DG     SC258981  96.734  84.553  70.867
39843DG     SC358982  96.706  84.802  71.024
39843DG     SC458983  96.802  84.640  71.239
39844DG     BB158984  96.957  83.925  71.246
39844DG     BB258985  96.916  83.978  70.891
39844DG     BB358986  97.088  84.037  70.811
39844DG     SC158987  97.034  84.336  70.854
39844DG     SC258988  96.989  84.539  70.640
39844DG     SC358989  97.016  84.669  70.904
39844DG     SC458990  97.078  84.403  70.992
39845DT     BB158991  97.164  83.913  70.664
39845DT     BB258992  97.090  84.101  70.365
39845DT     BB358993  97.261  84.198  70.299
39845DT     SC158994  97.242  84.377  70.490
39845DT     SC258995  97.190  84.567  70.405
39845DT     SC358996  97.303  84.517  70.705
39846DT     BB158997  97.230  84.025  70.108
39846DT     BB258998  97.225  84.349  69.948
39846DT     BB358999  97.418  84.419  69.925
39846DT     SC159000  97.437  84.476  70.181
39846DT     SC259001  97.440  84.690  70.206
39846DT     SC359002  97.520  84.471  70.431
39847DA     BB159003  97.181  84.454  69.578
39847DA     BB259004  97.363  84.769  69.630
39847DA     BB359005  97.572  84.739  69.600
39847DA     SC159006  97.630  84.671  69.898
39847DA     SC259007  97.747  84.775  70.092
39847DA     SC359008  97.754  84.538  70.189
39847DA     SC459009  97.626  84.516  69.940
39848DT     BB159010  97.632  84.834  69.455
39848DT     BB259011  97.832  85.078  69.628
39848DT     BB359012  98.031  85.019  69.630
39848DT     SC159013  97.983  84.837  69.813
39848DT     SC259014  98.075  84.896  69.998
39848DT     SC359015  97.960  84.601  69.929
39849DC     BB159016  98.106  85.204  69.437
39849DC     BB259017  98.344  85.261  69.702
39849DC     BB359018  98.508  85.136  69.678
39849DC     SC159019  98.371  84.928  69.761
39849DC     SC259020  98.445  84.866  69.953
39849DC     SC359021  98.251  84.693  69.759
39850DC     BB159022  98.713  85.319  69.561
39850DC     BB259023  98.893  85.172  69.837
39850DC     BB359024  99.003  85.009  69.771
39850DC     SC159025  98.787  84.861  69.752
39850DC     SC259026  98.791  84.709  69.903
39850DC     SC359027  98.595  84.715  69.645
39851DC     BB159028  99.291  85.110  69.748
39851DC     BB259029  99.327  84.820  69.960
39851DC     BB359030  99.383  84.656  69.846
39851DC     SC159031  99.141  84.631  69.748
39851DC     SC259032  99.049  84.453  69.827
39851DC     SC359033  98.943  84.625  69.573
39852DA     BB159034  99.706  84.652  70.120
39852DA     BB259035  99.563  84.314  70.121
39852DA     BB359036  99.634  84.203  69.953
39852DA     SC159037  99.400  84.289  69.767
39852DA     SC259038  99.201  84.183  69.660
39852DA     SC359039  99.208  84.382  69.498
39852DA     SC459040  99.422  84.419  69.675
39853DT     BB159041  99.768  84.024  69.968
39853DT     BB259042  99.506  83.783  69.910
39853DT     BB359043  99.531  83.693  69.726
39853DT     SC159044  99.447  83.908  69.600
39853DT     SC259045  99.256  83.868  69.511
39853DT     SC359046  99.448  84.120  69.444
39854DA     BB159047  99.485  83.397  70.018
39854DA     BB259048  99.246  83.331  69.748
39854DA     BB359049  99.347  83.256  69.576
39854DA     SC159050  99.392  83.538  69.451
39854DA     SC259051  99.308  83.668  69.255
39854DA     SC359052  99.520  83.810  69.286
39854DA     SC459053  99.530  83.613  69.485
39855DA     BB159054  99.110  83.042  69.634
39855DA     BB259055  98.982  83.134  69.303
39855DA     BB359056  99.109  83.056  69.150
39855DA     SC159057  99.289  83.309  69.137
39855DA     SC259058  99.334  83.496  68.978
39855DA     SC359059  99.553  83.527  69.108
39855DA     SC459060  99.421  83.312  69.230
39856DC     BB159061  99.018  82.935  69.050
39856DC     BB259062  98.978  83.141  68.757
39856DC     BB359063  99.123  83.095  68.617
39856DC     SC159064  99.307  83.220  68.756
39856DC     SC259065  99.368  83.397  68.651
39856DC     SC359066  99.525  83.260  68.899
39857DT     BB159067  98.922  82.994  68.480
39857DT     BB259068  99.071  83.241  68.264
39857DT     BB359069  99.236  83.161  68.169
39857DT     SC159070  99.380  83.177  68.388
39857DT     SC259071  99.531  83.328  68.364
39857DT     SC359072  99.523  83.102  68.597
39858DA     BB159073  98.984  83.339  67.883
39858DA     BB259074  99.327  83.458  67.825
39858DA     BB359075  99.447  83.300  67.745
39858DA     SC159076  99.542  83.199  68.023
39858DA     SC259077  99.753  83.195  68.156
39858DA     SC359078  99.642  83.006  68.289
39858DA     SC459079  99.456  83.083  68.093
39859DA     BB159080  99.499  83.536  67.523
39859DA     BB259081  99.853  83.515  67.617
39859DA     BB359082  99.940  83.336  67.538
39859DA     SC159083  99.876  83.166  67.791
39859DA     SC259084 100.001  83.058  67.977
39859DA     SC359085  99.792  82.912  68.006
39859DA     SC459086  99.737  83.084  67.792
39860DT     BB159087 100.075  83.366  67.408
39860DT     BB259088 100.356  83.282  67.617
39860DT     BB359089 100.421  83.090  67.575
39860DT     SC159090 100.217  82.984  67.700
39860DT     SC259091 100.285  82.888  67.880
39860DT     SC359092  99.994  82.848  67.742
39861DG     BB159093 100.735  83.345  67.522
39861DG     BB259094 100.821  83.071  67.742
39861DG     BB359095 100.855  82.907  67.636
39861DG     SC159096 100.565  82.812  67.644
39861DG     SC259097 100.463  82.568  67.784
39861DG     SC359098 100.252  82.688  67.616
39861DG     SC459099 100.463  82.861  67.530
39862DA     BB159100 101.152  82.892  67.813
39862DA     BB259101 101.055  82.563  67.943
39862DA     BB359102 101.077  82.414  67.791
39862DA     SC159103 100.785  82.445  67.686
39862DA     SC259104 100.575  82.311  67.685
39862DA     SC359105 100.504  82.462  67.490
39862DA     SC459106 100.760  82.548  67.565
39863DC     BB159107 101.214  82.276  67.821
39863DC     BB259108 100.988  82.007  67.901
39863DC     BB359109 100.970  81.878  67.740
39863DC     SC159110 100.820  82.050  67.610
39863DC     SC259111 100.619  81.973  67.598
39863DC     SC359112 100.740  82.218  67.424
39864DC     BB159113 101.110  81.698  67.880
39864DC     BB259114 100.799  81.533  67.801
39864DC     BB359115 100.811  81.447  67.613
39864DC     SC159116 100.789  81.681  67.496
39864DC     SC259117 100.598  81.694  67.398
39864DC     SC359118 100.850  81.892  67.351
39865DA     BB159119 100.670  81.168  67.893
39865DA     BB259120 100.447  81.163  67.602
39865DA     BB359121 100.545  81.073  67.435
39865DA     SC159122 100.660  81.342  67.327
39865DA     SC259123 100.623  81.493  67.132
39865DA     SC359124 100.857  81.585  67.186
39865DA     SC459125 100.807  81.385  67.376
39866DA     BB159126 100.261  80.916  67.462
39866DA     BB259127 100.192  81.033  67.121
39866DA     BB359128 100.319  80.933  66.982
39866DA     SC159129 100.545  81.146  66.997
39866DA     SC259130 100.644  81.322  66.850
39866DA     SC359131 100.848  81.308  67.005
39866DA     SC459132 100.663  81.122  67.104
39867DG     BB159133 100.038  80.863  66.879
39867DG     BB259134 100.152  81.046  66.588
39867DG     BB359135 100.277  80.933  66.482
39867DG     SC159136 100.527  81.027  66.631
39867DG     SC259137 100.749  81.191  66.515
39867DG     SC359138 100.820  81.094  66.786
39867DG     SC459139 100.573  80.949  66.763
39868DC     BB159140 100.220  80.887  66.289
39868DC     BB259141 100.446  81.085  66.089
39868DC     BB359142 100.605  80.968  66.025
39868DC     SC159143 100.714  80.971  66.264
39868DC     SC259144 100.894  81.088  66.259
39868DC     SC359145 100.806  80.885  66.496
39869DT     BB159146 100.505  80.966  65.772
39869DT     BB259147 100.844  81.083  65.732
39869DT     BB359148 100.973  80.922  65.716
39869DT     SC159149 100.955  80.872  65.973
39869DT     SC259150 101.142  80.918  66.068
39869DT     SC359151 100.901  80.745  66.198
39870DA     BB159152 101.067  81.138  65.365
39870DA     BB259153 101.385  81.052  65.525
39870DA     BB359154 101.431  80.846  65.493
39870DA     SC159155 101.287  80.748  65.751
39870DA     SC259156 101.351  80.652  65.973
39870DA     SC359157 101.109  80.569  65.983
39870DA     SC459158 101.133  80.704  65.739
39871DT     BB159159 101.604  80.747  65.357
39871DT     BB259160 101.816  80.645  65.631
39871DT     BB359161 101.822  80.439  65.643
39871DT     SC159162 101.580  80.430  65.745
39871DT     SC259163 101.591  80.369  65.951
39871DT     SC359164 101.323  80.377  65.769
39872DT     BB159165 102.086  80.393  65.533
39872DT     BB259166 102.101  80.233  65.856
39872DT     BB359167 102.052  80.032  65.837
39872DT     SC159168 101.798  80.089  65.808
39872DT     SC259169 101.690  80.023  65.982
39872DT     SC359170 101.559  80.108  65.697
39873DT     BB159171 102.316  79.932  65.869
39873DT     BB259172 102.130  79.770  66.132
39873DT     BB359173 102.056  79.589  66.065
39873DT     SC159174 101.871  79.707  65.922
39873DT     SC259175 101.678  79.670  66.009
39873DT     SC359176 101.733  79.787  65.712
39874DA     BB159177 102.264  79.499  66.418
39874DA     BB259178 101.930  79.351  66.445
39874DA     BB359179 101.916  79.175  66.325
39874DA     SC159180 101.816  79.325  66.072
39874DA     SC259181 101.605  79.344  65.940
39874DA     SC359182 101.756  79.429  65.751
39874DA     SC459183 101.926  79.375  65.967
39875DT     BB159184 101.891  78.990  66.417
39875DT     BB259185 101.541  78.956  66.336
39875DT     BB359186 101.517  78.814  66.187
39875DT     SC159187 101.607  78.979  66.004
39875DT     SC259188 101.445  79.036  65.874
39875DT     SC359189 101.761  79.080  65.816
39876DC     BB159190 101.408  78.646  66.370
39876DC     BB259191 101.152  78.689  66.120
39876DC     BB359192 101.180  78.552  65.967
39876DC     SC159193 101.383  78.687  65.871
39876DC     SC259194 101.328  78.776  65.683
39876DC     SC359195 101.629  78.747  65.798
39877DT     BB159196 100.960  78.432  66.058
39877DT     BB259197 100.885  78.520  65.716
39877DT     BB359198 100.957  78.375  65.588
39877DT     SC159199 101.204  78.456  65.621
39877DT     SC259200 101.274  78.547  65.439
39877DT     SC359201 101.459  78.455  65.689
39878DA     BB159202 100.559  78.478  65.509
39878DA     BB259203 100.748  78.489  65.195
39878DA     BB359204 100.802  78.292  65.134
39878DA     SC159205 101.074  78.293  65.284
39878DA     SC259206 101.317  78.299  65.226
39878DA     SC359207 101.354  78.207  65.463
39878DA     SC459208 101.077  78.235  65.434
39879DT     BB159209 100.722  78.270  64.984
39879DT     BB259210 101.014  78.291  64.773
39879DT     BB359211 101.088  78.101  64.737
39879DT     SC159212 101.187  78.085  64.979
39879DT     SC259213 101.402  78.090  64.969
39879DT     SC359214 101.226  78.000  65.226
39880DA     BB159215 101.057  78.357  64.401
39880DA     BB259216 101.386  78.195  64.399
39880DA     BB359217 101.364  77.985  64.370
39880DA     SC159218 101.346  77.919  64.673
39880DA     SC259219 101.486  77.806  64.846
39880DA     SC359220 101.268  77.783  64.979
39880DA     SC459221 101.200  77.913  64.739
39881DC     BB159222 101.441  77.944  64.216
39881DC     BB259223 101.724  77.762  64.347
39881DC     BB359224 101.682  77.559  64.351
39881DC     SC159225 101.524  77.588  64.559
39881DC     SC259226 101.616  77.497  64.731
39881DC     SC359227 101.306  77.588  64.707
39882DT     BB159228 101.852  77.529  64.146
39882DT     BB259229 101.968  77.295  64.395
39882DT     BB359230 101.862  77.118  64.381
39882DT     SC159231 101.650  77.227  64.492
39882DT     SC259232 101.621  77.143  64.687
39882DT     SC359233 101.404  77.317  64.521
39883DA     BB159234 102.263  76.990  64.358
39883DA     BB259235 102.093  76.772  64.598
39883DA     BB359236 101.968  76.632  64.496
39883DA     SC159237 101.716  76.816  64.504
39883DA     SC259238 101.495  76.820  64.618
39883DA     SC359239 101.424  76.981  64.430
39883DA     SC459240 101.691  76.912  64.378
39884DA     BB159241 102.129  76.378  64.648
39884DA     BB259242 101.810  76.284  64.804
39884DA     BB359243 101.691  76.172  64.668
39884DA     SC159244 101.546  76.420  64.550
39884DA     SC259245 101.318  76.520  64.554
39884DA     SC359246 101.391  76.647  64.344
39884DA     SC459247 101.610  76.489  64.420
39885DT     BB159248 101.637  75.948  64.686
39885DT     BB259249 101.295  76.001  64.789
39885DT     BB359250 101.166  75.939  64.639
39885DT     SC159251 101.221  76.151  64.494
39885DT     SC259252 101.048  76.280  64.488
39885DT     SC359253 101.307  76.300  64.294
39886DT     BB159254 101.085  75.709  64.775
39886DT     BB259255 100.779  75.891  64.716
39886DT     BB359256 100.696  75.834  64.535
39886DT     SC159257 100.875  75.970  64.401
39886DT     SC259258 100.781  76.139  64.307
39886DT     SC359259 101.076  76.023  64.238
39887DT     BB159260 100.498  75.703  64.668
39887DT     BB259261 100.327  75.944  64.461
39887DT     BB359262 100.292  75.864  64.274
39887DT     SC159263 100.544  75.892  64.206
39887DT     SC259264 100.560  76.046  64.056
39887DT     SC359265 100.790  75.830  64.134
39888DA     BB159266  99.940  76.028  64.431
39888DA     BB259267  99.984  76.155  64.090
39888DA     BB359268  99.948  76.000  63.948
39888DA     SC159269 100.244  75.907  63.938
39888DA     SC259270 100.434  75.911  63.777
39888DA     SC359271 100.532  75.721  63.918
39888DA     SC459272 100.288  75.789  64.038
39889DT     BB159273  99.799  76.036  63.841
39889DT     BB259274  99.977  76.114  63.537
39889DT     BB359275  99.976  75.950  63.411
39889DT     SC159276 100.155  75.826  63.557
39889DT     SC259277 100.340  75.815  63.449
39889DT     SC359278 100.264  75.644  63.714
39890DT     BB159279  99.809  76.090  63.259
39890DT     BB259280 100.083  76.004  63.041
39890DT     BB359281 100.055  75.813  62.965
39890DT     SC159282 100.122  75.704  63.194
39890DT     SC259283 100.312  75.605  63.174
39890DT     SC359284 100.103  75.567  63.419
39891DG     BB159285 100.081  76.059  62.640
39891DG     BB259286 100.307  75.778  62.610
39891DG     BB359287 100.206  75.616  62.554
39891DG     SC159288 100.144  75.526  62.840
39891DG     SC259289 100.250  75.280  62.973
39891DG     SC359290 100.041  75.408  63.138
39891DG     SC459291 100.012  75.580  62.911
39892DA     BB159292 100.434  75.575  62.292
39892DA     BB259293 100.526  75.244  62.421
39892DA     BB359294 100.376  75.101  62.371
39892DA     SC159295 100.214  75.144  62.633
39892DA     SC259296 100.163  75.018  62.842
39892DA     SC359297  99.964  75.178  62.867
39892DA     SC459298 100.095  75.253  62.630
39893DA     BB159299 100.628  74.934  62.238
39893DA     BB259300 100.554  74.665  62.476
39893DA     BB359301 100.384  74.554  62.412
39893DA     SC159302 100.179  74.730  62.567
39893DA     SC259303 100.029  74.708  62.764
39893DA     SC359304  99.902  74.908  62.664
39893DA     SC459305 100.114  74.854  62.488
39894DA     BB159306 100.590  74.299  62.442
39894DA     BB259307 100.360  74.165  62.695
39894DA     BB359308 100.188  74.080  62.602
39894DA     SC159309 100.023  74.344  62.608
39894DA     SC259310  99.824  74.433  62.727
39894DA     SC359311  99.811  74.603  62.535
39894DA     SC459312 100.031  74.439  62.479
39895DA     BB159313 100.277  73.821  62.783
39895DA     BB259314  99.951  73.849  62.949
39895DA     BB359315  99.797  73.774  62.823
39895DA     SC159316  99.739  74.050  62.690
39895DA     SC259317  99.557  74.220  62.690
39895DA     SC359318  99.661  74.302  62.470
39895DA     SC459319  99.818  74.085  62.554
39896DT     BB159320  99.699  73.608  62.880
39896DT     BB259321  99.391  73.769  62.977
39896DT     BB359322  99.246  73.736  62.833
39896DT     SC159323  99.358  73.909  62.670
39896DT     SC259324  99.231  74.082  62.652
39896DT     SC359325  99.479  74.006  62.457
39897DT     BB159326  99.115  73.562  62.997
39897DT     BB259327  98.866  73.810  62.914
39897DT     BB359328  98.771  73.758  62.738
39897DT     SC159329  98.979  73.828  62.594
39897DT     SC259330  98.932  74.004  62.481
39897DT     SC359331  99.186  73.809  62.432
39898DA     BB159332  98.461  73.822  63.014
39898DA     BB259333  98.377  74.008  62.710
39898DA     BB359334  98.311  73.875  62.557
39898DA     SC159335  98.595  73.831  62.438
39898DA     SC259336  98.719  73.891  62.230
39898DA     SC359337  98.877  73.699  62.293
39898DA     SC459338  98.681  73.707  62.493
39899DC     BB159339  98.110  73.875  62.487
39899DC     BB259340  98.177  74.036  62.171
39899DC     BB359341  98.161  73.899  62.017
39899DC     SC159342  98.390  73.789  62.080
39899DC     SC259343  98.535  73.832  61.927
39899DC     SC359344  98.565  73.607  62.159
39900DC     BB159345  97.921  74.005  61.927
39900DC     BB259346  98.140  74.025  61.640
39900DC     BB359347  98.127  73.850  61.530
39900DC     SC159348  98.269  73.718  61.708
39900DC     SC259349  98.461  73.670  61.624
39900DC     SC359350  98.332  73.541  61.892
39901DC     BB159351  97.982  73.969  61.323
39901DC     BB259352  98.273  73.834  61.159
39901DC     BB359353  98.236  73.641  61.095
39901DC     SC159354  98.254  73.549  61.340
39901DC     SC259355  98.433  73.430  61.358
39901DC     SC359356  98.186  73.436  61.569
39902DT     BB159357  98.223  73.719  60.831
39902DT     BB259358  98.483  73.469  60.837
39902DT     BB359359  98.401  73.281  60.808
39902DT     SC159360  98.304  73.276  61.052
39902DT     SC259361  98.411  73.131  61.168
39902DT     SC359362  98.129  73.270  61.249
39903DA     BB159363  98.710  73.322  60.529
39903DA     BB259364  98.757  73.002  60.702
39903DA     BB359365  98.615  72.859  60.633
39903DA     SC159366  98.402  72.931  60.849
39903DA     SC259367  98.302  72.825  61.052
39903DA     SC359368  98.110  72.993  61.019
39903DA     SC459369  98.292  73.042  60.811
39904DT     BB159370  98.681  72.695  60.529
39904DT     BB259371  98.638  72.457  60.798
39904DT     BB359372  98.474  72.337  60.760
39904DT     SC159373  98.308  72.530  60.822
39904DT     SC259374  98.208  72.483  61.006
39904DT     SC359375  98.120  72.713  60.796
39905DG     BB159376  98.801  72.099  60.806
39905DG     BB259377  98.532  72.001  61.028
39905DG     BB359378  98.395  71.897  60.927
39905DG     SC159379  98.231  72.143  60.848
39905DG     SC259380  97.955  72.207  60.942
39905DG     SC359381  98.039  72.393  60.728
39905DG     SC459382  98.268  72.221  60.713
39906DT     BB159383  98.363  71.703  60.991
39906DT     BB259384  98.045  71.734  61.159
39906DT     BB359385  97.893  71.664  61.037
39906DT     SC159386  97.906  71.879  60.886
39906DT     SC259387  97.728  71.997  60.915
39906DT     SC359388  97.942  72.032  60.675
39907DA     BB159389  97.879  71.519  61.430
39907DA     BB259390  97.545  71.638  61.335
39907DA     BB359391  97.461  71.511  61.186
39907DA     SC159392  97.574  71.675  60.948
39907DA     SC259393  97.486  71.824  60.767
39907DA     SC359394  97.708  71.774  60.647
39907DA     SC459395  97.717  71.631  60.888
39908DA     BB159396  97.246  71.563  61.429
39908DA     BB259397  97.023  71.684  61.165
39908DA     BB359398  96.973  71.525  61.032
39908DA     SC159399  97.211  71.579  60.839
39908DA     SC259400  97.245  71.664  60.607
39908DA     SC359401  97.473  71.547  60.619
39908DA     SC459402  97.348  71.498  60.865
39909DT     BB159403  96.803  71.505  61.047
39909DT     BB259404  96.704  71.619  60.719
39909DT     BB359405  96.695  71.459  60.588
39909DT     SC159406  96.957  71.447  60.573
39909DT     SC259407  97.020  71.509  60.377
39909DT     SC359408  97.203  71.354  60.595
39910DA     BB159409  96.329  71.666  60.552
39910DA     BB259410  96.443  71.580  60.215
39910DA     BB359411  96.426  71.369  60.182
39910DA     SC159412  96.713  71.306  60.282
39910DA     SC259413  96.930  71.230  60.185
39910DA     SC359414  96.990  71.162  60.425
39910DA     SC459415  96.732  71.269  60.438
39911DT     BB159416  96.281  71.273  60.048
39911DT     BB259417  96.514  71.163  59.795
39911DT     BB359418  96.540  70.958  59.808
39911DT     SC159419  96.689  70.983  60.022
39911DT     SC259420  96.893  70.932  59.974
39911DT     SC359421  96.769  70.961  60.273
39912DC     BB159422  96.379  70.872  59.583
39912DC     BB259423  96.699  70.719  59.517
39912DC     BB359424  96.704  70.528  59.597
39912DC     SC159425  96.728  70.621  59.841
39912DC     SC259426  96.925  70.577  59.915
39912DC     SC359427  96.672  70.673  60.093
39913DT     BB159428  96.678  70.381  59.352
39913DT     BB259429  96.984  70.255  59.495
39913DT     BB359430  96.944  70.087  59.610
39913DT     SC159431  96.842  70.234  59.802
39913DT     SC259432  96.972  70.230  59.973
39913DT     SC359433  96.665  70.334  59.971
39914DA     BB159434  97.247  69.978  59.343
39914DA     BB259435  97.357  69.887  59.680
39914DA     BB359436  97.252  69.715  59.749
39914DA     SC159437  97.021  69.878  59.881
39914DA     SC259438  96.940  69.929  60.111
39914DA     SC359439  96.717  69.987  59.997
39914DA     SC459440  96.891  69.908  59.791
39915DA     BB159441  97.563  69.631  59.794
39915DA     BB259442  97.481  69.607  60.150
39915DA     BB359443  97.362  69.434  60.188
39915DA     SC159444  97.091  69.581  60.147
39915DA     SC259445  96.898  69.654  60.287
39915DA     SC359446  96.768  69.663  60.066
39915DA     SC459447  97.027  69.579  60.000
39916DT     BB159448  97.451  69.316  60.295
39916DT     BB259449  97.258  69.373  60.595
39916DT     BB359450  97.113  69.226  60.614
39916DT     SC159451  96.967  69.333  60.425
39916DT     SC259452  96.789  69.417  60.511
39916DT     SC359453  96.839  69.362  60.196
39917DA     BB159454  97.326  69.259  60.976
39917DA     BB259455  96.968  69.257  61.053
39917DA     BB359456  96.885  69.063  61.019
39917DA     SC159457  96.809  69.121  60.723
39917DA     SC259458  96.601  69.153  60.589
39917DA     SC359459  96.748  69.097  60.386
39917DA     SC459460  96.917  69.083  60.610
39918DT     BB159461  96.817  68.950  61.177
39918DT     BB259462  96.464  68.985  61.109
39918DT     BB359463  96.390  68.810  61.026
39918DT     SC159464  96.504  68.862  60.796
39918DT     SC259465  96.352  68.908  60.650
39918DT     SC359466  96.662  68.838  60.586
39919DG     BB159467  96.162  68.834  61.369
39919DG     BB259468  95.952  68.792  61.078
39919DG     BB359469  95.943  68.600  61.027
39919DG     SC159470  96.186  68.613  60.841
39919DG     SC259471  96.181  68.579  60.544
39919DG     SC359472  96.459  68.587  60.645
39919DG     SC459473  96.332  68.588  60.902
39920DT     BB159474  95.745  68.439  61.028
39920DT     BB259475  95.675  68.436  60.674
39920DT     BB359476  95.722  68.251  60.594
39920DT     SC159477  95.979  68.303  60.606
39920DT     SC259478  96.056  68.327  60.407
39920DT     SC359479  96.233  68.286  60.675
39921DG     BB159480  95.321  68.278  60.513
39921DG     BB259481  95.511  68.219  60.210
39921DG     BB359482  95.547  68.025  60.189
39921DG     SC159483  95.811  68.032  60.344
39921DG     SC259484  96.082  67.983  60.230
39921DG     SC359485  96.093  68.000  60.525
39921DG     SC459486  95.808  68.012  60.503
39922DT     BB159487  95.469  67.917  60.014
39922DT     BB259488  95.768  67.889  59.815
39922DT     BB359489  95.841  67.695  59.823
39922DT     SC159490  95.931  67.732  60.067
39922DT     SC259491  96.147  67.734  60.063
39922DT     SC359492  95.961  67.703  60.327
39923DT     BB159493  95.765  67.678  59.570
39923DT     BB259494  96.119  67.610  59.567
39923DT     BB359495  96.153  67.410  59.611
39923DT     SC159496  96.099  67.450  59.865
39923DT     SC259497  96.280  67.430  59.980
39923DT     SC359498  95.978  67.433  60.099
39924DC     BB159499  96.224  67.384  59.356
39924DC     BB259500  96.510  67.272  59.545
39924DC     BB359501  96.486  67.074  59.600
39924DC     SC159502  96.311  67.138  59.784
39924DC     SC259503  96.396  67.104  59.979
39924DC     SC359504  96.082  67.152  59.915
39925DA     BB159505  96.862  67.108  59.416
39925DA     BB259506  96.907  66.923  59.729
39925DA     BB359507  96.828  66.726  59.711
39925DA     SC159508  96.544  66.803  59.811
39925DA     SC259509  96.402  66.762  60.011
39925DA     SC359510  96.205  66.826  59.859
39925DA     SC459511  96.435  66.844  59.700
39926DT     BB159512  96.956  66.559  59.715
39926DT     BB259513  96.868  66.449  60.047
39926DT     BB359514  96.751  66.279  60.037
39926DT     SC159515  96.542  66.418  59.960
39926DT     SC259516  96.395  66.419  60.118
39926DT     SC359517  96.344  66.505  59.810
39927DT     BB159518  96.956  66.116  60.125
39927DT     BB259519  96.690  66.064  60.364
39927DT     BB359520  96.568  65.910  60.301
39927DT     SC159521  96.458  66.061  60.117
39927DT     SC259522  96.254  66.102  60.171
39927DT     SC359523  96.387  66.152  59.880
39928DA     BB159524  96.685  65.843  60.696
39928DA     BB259525  96.320  65.812  60.677
39928DA     BB359526  96.266  65.631  60.579
39928DA     SC159527  96.257  65.757  60.296
39928DA     SC259528  96.086  65.816  60.125
39928DA     SC359529  96.281  65.816  59.958
39928DA     SC459530  96.392  65.751  60.207
39929DC     BB159531  96.180  65.540  60.698
39929DC     BB259532  95.851  65.589  60.558
39929DC     BB359533  95.801  65.428  60.437
39929DC     SC159534  95.962  65.511  60.247
39929DC     SC259535  95.846  65.578  60.079
39929DC     SC359536  96.164  65.514  60.077
39930DA     BB159537  95.510  65.579  60.707
39930DA     BB259538  95.358  65.531  60.377
39930DA     BB359539  95.357  65.324  60.326
39930DA     SC159540  95.633  65.332  60.184
39930DA     SC259541  95.722  65.315  59.951
39930DA     SC359542  95.946  65.259  60.063
39930DA     SC459543  95.763  65.298  60.272
39931DT     BB159544  95.195  65.301  60.314
39931DT     BB259545  95.180  65.249  59.957
39931DT     BB359546  95.212  65.050  59.913
39931DT     SC159547  95.469  65.072  59.962
39931DT     SC259548  95.578  65.055  59.777
39931DT     SC359549  95.704  65.036  60.075
39932DA     BB159550  94.872  65.199  59.712
39932DA     BB259551  95.072  65.003  59.476
39932DA     BB359552  95.068  64.796  59.528
39932DA     SC159553  95.319  64.811  59.710
39932DA     SC259554  95.555  64.730  59.706
39932DA     SC359555  95.550  64.766  59.960
39932DA     SC459556  95.296  64.839  59.867
39933DG     BB159557  94.947  64.769  59.242
39933DG     BB259558  95.243  64.570  59.185
39933DG     BB359559  95.217  64.387  59.260
39933DG     SC159560  95.328  64.459  59.536
39933DG     SC259561  95.581  64.355  59.656
39933DG     SC359562  95.425  64.507  59.856
39933DG     SC459563  95.228  64.516  59.648
39934DA     BB159564  95.311  64.260  58.949
39934DA     BB259565  95.588  64.076  59.105
39934DA     BB359566  95.514  63.904  59.207
39934DA     SC159567  95.475  64.052  59.478
39934DA     SC259568  95.580  64.053  59.705
39934DA     SC359569  95.360  64.161  59.783
39934DA     SC459570  95.331  64.117  59.508
39935DT     BB159571  95.563  63.722  59.138
39935DT     BB259572  95.797  63.635  59.399
39935DT     BB359573  95.709  63.500  59.530
39935DT     SC159574  95.562  63.689  59.638
39935DT     SC259575  95.630  63.726  59.839
39935DT     SC359576  95.349  63.826  59.712
39936DG     BB159577  96.046  63.319  59.387
39936DG     BB259578  96.035  63.309  59.748
39936DG     BB359579  95.909  63.167  59.808
39936DG     SC159580  95.665  63.351  59.814
39936DG     SC259581  95.514  63.436  60.057
39936DG     SC359582  95.373  63.520  59.811
39936DG     SC459583  95.578  63.368  59.680
39937DA     BB159584  96.164  63.037  60.011
39937DA     BB259585  95.955  63.081  60.309
39937DA     BB359586  95.806  62.928  60.318
39937DA     SC159587  95.594  63.092  60.159
39937DA     SC259588  95.377  63.206  60.205
39937DA     SC359589  95.339  63.191  59.952
39937DA     SC459590  95.589  63.072  60.000
39938DA     BB159591  95.919  62.851  60.625
39938DA     BB259592  95.586  62.932  60.755
39938DA     BB359593  95.451  62.771  60.719
39938DA     SC159594  95.357  62.879  60.443
39938DA     SC259595  95.150  62.978  60.344
39938DA     SC359596  95.250  62.911  60.118
39938DA     SC459597  95.435  62.828  60.312
39939DG     BB159598  95.391  62.700  61.035
39939DG     BB259599  95.053  62.802  60.957
39939DG     BB359600  94.947  62.644  60.897
39939DG     SC159601  95.017  62.678  60.601
39939DG     SC259602  94.827  62.752  60.383
39939DG     SC359603  95.090  62.674  60.272
39939DG     SC459604  95.149  62.607  60.544
39940DG     BB159605  94.689  62.616  61.142
39940DG     BB259606  94.455  62.698  60.879
39940DG     BB359607  94.381  62.532  60.799
39940DG     SC159608  94.600  62.508  60.587
39940DG     SC259609  94.562  62.536  60.292
39940DG     SC359610  94.835  62.439  60.354
39940DG     SC459611  94.734  62.428  60.622
39941DG     BB159612  94.038  62.560  60.869
39941DG     BB259613  93.988  62.597  60.513
39941DG     BB359614  93.941  62.422  60.432
39941DG     SC159615  94.231  62.341  60.376
39941DG     SC259616  94.355  62.308  60.107
39941DG     SC359617  94.537  62.212  60.319
39941DG     SC459618  94.313  62.264  60.490
39942DT     BB159619  93.733  62.371  60.321
39942DT     BB259620  93.844  62.400  59.979
39942DT     BB359621  93.846  62.213  59.890
39942DT     SC159622  94.063  62.144  60.020
39942DT     SC259623  94.227  62.130  59.882
39942DT     SC359624  94.222  62.013  60.185
39943DA     BB159625  93.648  62.499  59.659
39943DA     BB259626  93.897  62.332  59.448
39943DA     BB359627  93.835  62.132  59.404
39943DA     SC159628  93.978  62.008  59.651
39943DA     SC259629  94.173  61.860  59.696
39943DA     SC359630  94.062  61.816  59.923
39943DA     SC459631  93.892  61.992  59.786
39944DT     BB159632  93.815  62.127  59.232
39944DT     BB259633  94.110  61.932  59.158
39944DT     BB359634  94.060  61.732  59.143
39944DT     SC159635  94.034  61.710  59.403
39944DT     SC259636  94.193  61.588  59.481
39944DT     SC359637  93.923  61.670  59.639
39945DG     BB159638  94.261  61.876  58.818
39945DG     BB259639  94.409  61.572  58.947
39945DG     BB359640  94.294  61.416  58.902
39945DG     SC159641  94.127  61.435  59.158
39945DG     SC259642  94.124  61.235  59.380
39945DG     SC359643  93.912  61.438  59.418
39945DG     SC459644  93.997  61.527  59.159
39946DA     BB159645  94.590  61.280  58.783
39946DA     BB259646  94.545  60.991  59.004
39946DA     BB359647  94.388  60.866  58.932
39946DA     SC159648  94.166  61.010  59.095
39946DA     SC259649  94.018  60.960  59.290
39946DA     SC359650  93.871  61.151  59.201
39946DA     SC459651  94.087  61.131  59.024
39947DT     BB159652  94.429  60.676  58.857
39947DT     BB259653  94.289  60.486  59.130
39947DT     BB359654  94.108  60.403  59.074
39947DT     SC159655  93.987  60.635  59.091
39947DT     SC259656  93.852  60.633  59.258
39947DT     SC359657  93.856  60.852  59.020
39948DA     BB159658  94.321  60.064  59.205
39948DA     BB259659  93.991  60.050  59.363
39948DA     BB359660  93.844  59.985  59.223
39948DA     SC159661  93.773  60.272  59.127
39948DA     SC259662  93.581  60.430  59.144
39948DA     SC359663  93.685  60.547  58.940
39948DA     SC459664  93.852  60.330  58.999
39949DA     BB159665  93.760  59.735  59.430
39949DA     BB259666  93.425  59.884  59.455
39949DA     BB359667  93.305  59.825  59.289
39949DA     SC159668  93.387  60.069  59.113
39949DA     SC259669  93.281  60.276  59.024
39949DA     SC359670  93.472  60.275  58.853
39949DA     SC459671  93.513  60.050  59.015
39950DA     BB159672  93.090  59.716  59.514
39950DA     BB259673  92.854  59.966  59.386
39950DA     BB359674  92.761  59.895  59.208
39950DA     SC159675  92.975  60.018  59.018
39950DA     SC259676  92.989  60.202  58.851
39950DA     SC359677  93.195  60.077  58.761
39950DA     SC459678  93.099  59.925  58.976
39951DT     BB159679  92.559  59.857  59.210
39951DT     BB259680  92.463  60.153  59.028
39951DT     BB359681  92.407  60.103  58.836
39951DT     SC159682  92.656  60.065  58.764
39951DT     SC259683  92.716  60.220  58.628
39951DT     SC359684  92.875  59.942  58.682
39952DT     BB159685  92.152  60.159  58.904
39952DT     BB259686  92.225  60.379  58.628
39952DT     BB359687  92.189  60.282  58.449
39952DT     SC159688  92.408  60.139  58.473
39952DT     SC259689  92.551  60.201  58.326
39952DT     SC359690  92.565  59.929  58.501
39953DT     BB159691  91.981  60.445  58.422
39953DT     BB259692  92.187  60.506  58.132
39953DT     BB359693  92.144  60.366  57.985
39953DT     SC159694  92.274  60.178  58.115
39953DT     SC259695  92.453  60.128  58.008
39953DT     SC359696  92.320  59.955  58.247
39954DT     BB159697  92.038  60.570  57.857
39954DT     BB259698  92.294  60.442  57.637
39954DT     BB359699  92.220  60.281  57.530
39954DT     SC159700  92.234  60.124  57.740
39954DT     SC259701  92.390  59.979  57.710
39954DT     SC359702  92.159  59.966  57.937
39955DT     BB159703  92.237  60.447  57.328
39955DT     BB259704  92.442  60.164  57.238
39955DT     BB359705  92.324  60.012  57.163
39955DT     SC159706  92.236  59.951  57.403
39955DT     SC259707  92.316  59.760  57.461
39955DT     SC359708  92.070  59.916  57.605
39956DA     BB159709  92.658  60.094  56.922
39956DA     BB259710  92.636  59.732  56.973
39956DA     BB359711  92.466  59.653  56.872
39956DA     SC159712  92.274  59.687  57.114
39956DA     SC259713  92.154  59.541  57.276
39956DA     SC359714  92.002  59.744  57.316
39956DA     SC459715  92.190  59.824  57.124
39957DT     BB159716  92.526  59.543  56.750
39957DT     BB259717  92.420  59.235  56.905
39957DT     BB359718  92.235  59.178  56.830
39957DT     SC159719  92.113  59.364  56.970
39957DT     SC259720  91.996  59.271  57.125
39957DT     SC359721  91.971  59.578  57.027
39958DT     BB159722  92.375  58.987  56.719
39958DT     BB259723  92.116  58.819  56.905
39958DT     BB359724  91.939  58.820  56.798
39958DT     SC159725  91.899  59.074  56.852
39958DT     SC259726  91.732  59.093  56.986
39958DT     SC359727  91.868  59.334  56.816
39959DT     BB159728  91.976  58.560  56.759
39959DT     BB259729  91.645  58.584  56.901
39959DT     BB359730  91.508  58.628  56.752
39959DT     SC159731  91.589  58.878  56.740
39959DT     SC259732  91.435  59.006  56.819
39959DT     SC359733  91.692  59.101  56.645
39960DT     BB159734  91.406  58.372  56.751
39960DT     BB259735  91.114  58.580  56.796
39960DT     BB359736  91.040  58.639  56.612
39960DT     SC159737  91.235  58.811  56.579
39960DT     SC259738  91.156  59.011  56.591
39960DT     SC359739  91.448  58.928  56.476
39961DT     BB159740  90.807  58.459  56.585
39961DT     BB259741  90.661  58.784  56.531
39961DT     BB359742  90.652  58.825  56.329
39961DT     SC159743  90.910  58.870  56.318
39961DT     SC259744  90.945  59.080  56.284
39961DT     SC359745  91.165  58.844  56.254
39962DT     BB159746  90.364  58.780  56.270
39962DT     BB259747  90.419  59.117  56.153
39962DT     BB359748  90.456  59.116  55.950
39962DT     SC159749  90.699  59.023  55.987
39962DT     SC259750  90.842  59.176  55.938
39962DT     SC359751  90.907  58.861  55.978
39963DA     BB159752  90.136  59.384  55.982
39963DA     BB259753  90.398  59.553  55.789
39963DA     BB359754  90.398  59.483  55.587
39963DA     SC159755  90.602  59.254  55.641
39963DA     SC259756  90.838  59.200  55.584
39963DA     SC359757  90.775  58.957  55.639
39963DA     SC459758  90.543  59.109  55.679
39964DA     BB159759  90.376  59.803  55.536
39964DA     BB259760  90.700  59.779  55.367
39964DA     BB359761  90.677  59.695  55.172
39964DA     SC159762  90.717  59.401  55.266
39964DA     SC259763  90.889  59.222  55.243
39964DA     SC359764  90.700  59.061  55.306
39964DA     SC459765  90.586  59.317  55.306
39965DA     BB159766  90.846  59.968  55.135
39965DA     BB259767  91.110  59.755  54.995
39965DA     BB359768  91.052  59.681  54.803
39965DA     SC159769  90.919  59.423  54.915
39965DA     SC259770  90.964  59.178  54.915
39965DA     SC359771  90.715  59.153  54.971
39965DA     SC459772  90.762  59.429  54.948
39966DG     BB159773  91.317  59.829  54.763
39966DG     BB259774  91.425  59.500  54.659
39966DG     BB359775  91.352  59.458  54.479
39966DG     SC159776  91.095  59.331  54.587
39966DG     SC259777  91.019  59.043  54.565
39966DG     SC359778  90.793  59.204  54.669
39966DG     SC459779  90.968  59.425  54.614
39967DT     BB159780  91.493  59.425  54.342
39967DT     BB259781  91.465  59.072  54.273
39967DT     BB359782  91.344  59.042  54.108
39967DT     SC159783  91.128  59.095  54.247
39967DT     SC259784  91.013  58.915  54.272
39967DT     SC359785  90.908  59.217  54.327
39968DG     BB159786  91.699  58.870  53.996
39968DG     BB259787  91.423  58.649  53.920
39968DG     BB359788  91.333  58.709  53.752
39968DG     SC159789  91.136  58.895  53.895
39968DG     SC259790  90.840  58.857  53.912
39968DG     SC359791  90.919  59.122  54.017
39968DG     SC459792  91.179  59.046  53.923
39969DT     BB159793  91.311  58.612  53.488
39969DT     BB259794  90.966  58.507  53.480
39969DT     BB359795  90.857  58.631  53.354
39969DT     SC159796  90.859  58.825  53.530
39969DT     SC259797  90.661  58.854  53.608
39969DT     SC359798  90.909  59.060  53.640
39970DT     BB159799  90.810  58.505  53.039
39970DT     BB259800  90.472  58.589  53.131
39970DT     BB359801  90.415  58.765  53.037
39970DT     SC159802  90.561  58.909  53.199
39970DT     SC259803  90.433  59.023  53.329
39970DT     SC359804  90.750  59.072  53.285
39971DA     BB159805  90.090  58.555  52.836
39971DA     BB259806  89.934  58.840  53.005
39971DA     BB359807  89.939  59.012  52.880
39971DA     SC159808  90.213  59.113  52.989
39971DA     SC259809  90.298  59.301  53.129
39971DA     SC359810  90.526  59.250  53.023
39971DA     SC459811  90.345  59.067  52.911
39972DC     BB159812  89.753  59.128  52.781
39972DC     BB259813  89.750  59.388  53.031
39972DC     BB359814  89.797  59.570  52.944
39972DC     SC159815  90.051  59.504  52.925
39972DC     SC259816  90.166  59.624  53.063
39972DC     SC359817  90.285  59.446  52.819
39973DC     BB159818  89.543  59.642  52.985
39973DC     BB259819  89.740  59.875  53.177
39973DC     BB359820  89.800  60.032  53.057
39973DC     SC159821  89.980  59.883  52.937
39973DC     SC259822  90.177  59.948  52.995
39973DC     SC359823  90.106  59.751  52.747
39974DA     BB159824  89.634  60.153  53.424
39974DA     BB259825  89.955  60.325  53.377
39974DA     BB359826  89.940  60.468  53.220
39974DA     SC159827  90.028  60.268  52.998
39974DA     SC259828  90.225  60.233  52.849
39974DA     SC359829  90.065  60.096  52.703
39974DA     SC459830  89.913  60.188  52.920
39975DT     BB159831  89.967  60.627  53.291
39975DT     BB259832  90.296  60.682  53.155
39975DT     BB359833  90.283  60.792  52.980
39975DT     SC159834  90.195  60.584  52.846
39975DT     SC259835  90.345  60.520  52.707
39975DT     SC359836  90.034  60.430  52.705
39976DT     BB159837  90.390  60.993  53.118
39976DT     BB259838  90.611  60.945  52.836
39976DT     BB359839  90.537  61.045  52.671
39976DT     SC159840  90.350  60.864  52.635
39976DT     SC259841  90.393  60.751  52.457
39976DT     SC359842  90.111  60.754  52.616
39977DT     BB159843  90.734  61.230  52.693
39977DT     BB259844  90.769  61.100  52.359
39977DT     BB359845  90.645  61.203  52.229
39977DT     SC159846  90.433  61.079  52.322
39977DT     SC259847  90.357  60.946  52.171
39977DT     SC359848  90.200  61.040  52.439
39978DA     BB159849  91.028  61.219  52.059
39978DA     BB259850  90.795  61.105  51.800
39978DA     BB359851  90.676  61.269  51.731
39978DA     SC159852  90.449  61.223  51.938
39978DA     SC259853  90.212  61.145  51.939
39978DA     SC359854  90.194  61.264  52.166
39978DA     SC459855  90.458  61.304  52.077
39979DT     BB159856  90.700  61.326  51.541
39979DT     BB259857  90.395  61.178  51.417
39979DT     BB359858  90.254  61.326  51.383
39979DT     SC159859  90.210  61.354  51.640
39979DT     SC259860  90.013  61.280  51.686
39979DT     SC359861  90.197  61.464  51.879
39980DA     BB159862  90.299  61.061  51.061
39980DA     BB259863  89.943  61.089  51.143
39980DA     BB359864  89.870  61.283  51.091
39980DA     SC159865  89.932  61.407  51.370
39980DA     SC259866  89.804  61.491  51.567
39980DA     SC359867  90.019  61.617  51.627
39980DA     SC459868  90.074  61.478  51.390
39981DT     BB159869  89.751  61.253  50.972
39981DT     BB259870  89.463  61.324  51.177
39981DT     BB359871  89.407  61.522  51.154
39981DT     SC159872  89.609  61.604  51.300
39981DT     SC259873  89.536  61.682  51.487
39981DT     SC359874  89.834  61.725  51.367
39982DA     BB159875  89.089  61.245  51.129
39982DA     BB259876  88.993  61.518  51.354
39982DA     BB359877  88.972  61.700  51.244
39982DA     SC159878  89.268  61.787  51.285
39982DA     SC259879  89.394  61.962  51.411
39982DA     SC359880  89.584  61.915  51.246
39982DA     SC459881  89.374  61.744  51.172
39983DG     BB159882  88.699  61.658  51.378
39983DG     BB259883  88.788  61.969  51.540
39983DG     BB359884  88.769  62.120  51.412
39983DG     SC159885  89.056  62.100  51.307
39983DG     SC259886  89.271  62.303  51.346
39983DG     SC359887  89.358  62.094  51.156
39983DG     SC459888  89.087  62.003  51.184
39984DG     BB159889  88.572  62.238  51.642
39984DG     BB259890  88.802  62.517  51.656
39984DG     BB359891  88.773  62.638  51.501
39984DG     SC159892  88.971  62.493  51.319
39984DG     SC259893  89.229  62.604  51.216
39984DG     SC359894  89.166  62.346  51.085
39984DG     SC459895  88.919  62.370  51.230
39985DA     BB159896  88.762  62.882  51.747
39985DA     BB259897  89.035  63.059  51.578
39985DA     BB359898  88.965  63.148  51.397
39985DA     SC159899  89.033  62.901  51.221
39985DA     SC259900  89.197  62.840  51.043
39985DA     SC359901  89.032  62.653  50.983
39985DA     SC459902  88.917  62.792  51.199
39986DC     BB159903  88.966  63.340  51.394
39986DC     BB259904  89.242  63.384  51.165
39986DC     BB359905  89.170  63.425  50.975
39986DC     SC159906  89.098  63.176  50.939
39986DC     SC259907  89.225  63.085  50.791
39986DC     SC359908  88.945  62.965  50.899
39987DA     BB159909  89.449  63.728  51.062
39987DA     BB259910  89.521  63.604  50.724
39987DA     BB359911  89.371  63.670  50.587
39987DA     SC159912  89.189  63.421  50.628
39987DA     SC259913  89.117  63.221  50.497
39987DA     SC359914  88.922  63.208  50.663
39987DA     SC459915  89.074  63.430  50.740
39988DT     BB159916  89.408  63.813  50.429
39988DT     BB259917  89.392  63.582  50.153
39988DT     BB359918  89.216  63.610  50.047
39988DT     SC159919  89.076  63.491  50.235
39988DT     SC259920  89.004  63.303  50.162
39988DT     SC359921  88.900  63.456  50.428
39989DA     BB159922  89.497  63.658  49.733
39989DA     BB259923  89.242  63.424  49.613
39989DA     BB359924  89.065  63.529  49.557
39989DA     SC159925  88.934  63.508  49.838
39989DA     SC259926  88.742  63.389  49.944
39989DA     SC359927  88.758  63.568  50.127
39989DA     SC459928  88.959  63.629  49.941
39990DA     BB159929  89.067  63.408  49.236
39990DA     BB259930  88.750  63.239  49.309
39990DA     BB359931  88.586  63.372  49.281
39990DA     SC159932  88.586  63.474  49.575
39990DA     SC259933  88.441  63.455  49.777
39990DA     SC359934  88.564  63.664  49.860
39990DA     SC459935  88.673  63.605  49.608
39991DC     BB159936  88.408  63.370  49.110
39991DC     BB259937  88.154  63.239  49.331
39991DC     BB359938  88.006  63.380  49.359
39991DC     SC159939  88.159  63.522  49.518
39991DC     SC259940  88.084  63.510  49.719
39991DC     SC359941  88.302  63.724  49.610
39992DA     BB159942  87.804  63.036  49.233
39992DA     BB259943  87.645  63.149  49.543
39992DA     BB359944  87.520  63.317  49.505
39992DA     SC159945  87.744  63.527  49.557
39992DA     SC259946  87.799  63.699  49.729
39992DA     SC359947  87.948  63.802  49.548
39992DA     SC459948  87.830  63.577  49.431
39993DA     BB159949  87.314  63.116  49.657
39993DA     BB259950  87.293  63.372  49.919
39993DA     BB359951  87.173  63.536  49.852
39993DA     SC159952  87.412  63.695  49.733
39993DA     SC259953  87.539  63.903  49.785
39993DA     SC359954  87.615  63.893  49.540
39993DA     SC459955  87.447  63.672  49.578
39994DT     BB159956  87.017  63.555  49.954
39994DT     BB259957  87.121  63.846  50.139
39994DT     BB359958  87.037  64.016  50.057
39994DT     SC159959  87.203  64.010  49.854
39994DT     SC259960  87.341  64.174  49.869
39994DT     SC359961  87.290  63.991  49.606
39995DA     BB159962  86.968  64.010  50.471
39995DA     BB259963  87.099  64.341  50.381
39995DA     BB359964  86.951  64.452  50.274
39995DA     SC159965  87.045  64.352  49.995
39995DA     SC259966  87.158  64.447  49.793
39995DA     SC359967  87.059  64.245  49.668
39995DA     SC459968  86.974  64.221  49.935
39996DA     BB159969  87.024  64.666  50.512
39996DA     BB259970  87.129  64.894  50.244
39996DA     BB359971  86.959  64.973  50.143
39996DA     SC159972  86.951  64.746  49.930
39996DA     SC259973  86.995  64.721  49.685
39996DA     SC359974  86.853  64.508  49.703
39996DA     SC459975  86.859  64.618  49.961
39997DA     BB159976  87.102  65.259  50.219
39997DA     BB259977  87.126  65.321  49.858
39997DA     BB359978  86.935  65.378  49.780
39997DA     SC159979  86.850  65.087  49.712
39997DA     SC259980  86.811  64.949  49.508
39997DA     SC359981  86.673  64.797  49.661
39997DA     SC459982  86.767  65.006  49.823
39998DT     BB159983  86.913  65.566  49.708
39998DT     BB259984  86.916  65.476  49.359
39998DT     BB359985  86.724  65.487  49.281
39998DT     SC159986  86.654  65.265  49.402
39998DT     SC259987  86.624  65.110  49.256
39998DT     SC359988  86.527  65.100  49.565
39999DC     BB159989  86.807  65.701  49.146
39999DC     BB259990  86.694  65.468  48.894
39999DC     BB359991  86.489  65.486  48.869
39999DC     SC159992  86.442  65.361  49.095
39999DC     SC259993  86.356  65.168  49.053
39999DC     SC359994  86.359  65.317  49.341
40000DT     BB159995  86.476  65.609  48.634
40000DT     BB259996  86.292  65.328  48.572
40000DT     BB359997  86.094  65.365  48.610
40000DT     SC159998  86.141  65.354  48.856
40000DT     SC259999  86.057  65.184  48.933
40000DT     SC360000  86.158  65.425  49.095
 120.00000 120.00000 120.00000
